ITEM: TIMESTEP
3360000
ITEM: NUMBER OF ATOMS
4590
ITEM: BOX BOUNDS pp pp pp
-9.9985700000000008e+00 9.9985700000000008e+00
-9.9985700000000008e+00 9.9985700000000008e+00
-9.9985700000000008e+00 9.9985700000000008e+00
ITEM: ATOMS id type xs ys zs
1666 2 0.0669522 0.0565323 0.0802217
1668 4 0.0768865 0.0425217 0.0620504
465 4 0.0367835 0.0684436 0.00759498
3290 4 0.0807107 0.0369416 0.0415401
3289 2 0.0970244 0.0355684 0.0226415
3291 4 0.113338 0.0341951 0.00374297
490 2 0.299003 0.0178224 0.0505475
491 4 0.308614 0.0402844 0.0558655
150 3 0.43856 0.115348 0.00424856
505 2 0.150712 0.240075 0.0480693
506 4 0.172295 0.230587 0.0563965
737 4 0.177699 0.214482 0.0686824
736 2 0.196151 0.201828 0.0575215
738 4 0.214604 0.189174 0.0463605
354 4 0.232896 0.19351 0.0520014
462 4 0.32055 0.16569 0.0765894
460 2 0.305687 0.166172 0.0564883
352 2 0.256429 0.188185 0.0454419
461 4 0.290825 0.166653 0.0363872
353 4 0.279962 0.182861 0.0388824
665 4 0.356277 0.199428 0.0231898
664 2 0.346375 0.184414 0.00581925
2808 4 0.993939 0.253855 0.0274101
2807 4 0.0334507 0.275568 0.00577509
2806 2 0.0136948 0.264712 0.0165926
915 4 0.127019 0.260306 0.0226274
507 4 0.12913 0.249563 0.0397422
293 4 0.107668 0.268838 0.0497315
287 4 0.168256 0.297559 0.0336265
286 2 0.157727 0.320199 0.0323098
292 2 0.107383 0.291335 0.0606392
294 4 0.107097 0.313833 0.071547
355 2 0.215581 0.269702 0.00561512
357 4 0.198067 0.268768 0.987794
356 4 0.233094 0.270635 0.0234361
483 4 0.249234 0.271907 0.0117634
612 4 0.237362 0.317017 0.0518421
610 2 0.247688 0.305968 0.0717538
609 4 0.251869 0.33197 0.0511352
482 4 0.287714 0.301974 0.0225303
481 2 0.268474 0.28694 0.0171468
740 4 0.327424 0.33243 0.0810397
572 4 0.302559 0.309327 0.0115378
741 4 0.359084 0.33183 0.0423354
739 2 0.343254 0.33213 0.0616875
288 4 0.147199 0.34284 0.0309932
990 4 0.146904 0.362575 0.0294433
988 2 0.168096 0.375782 0.0281717
1289 4 0.207378 0.384851 0.0208638
989 4 0.189289 0.388989 0.0269
1288 2 0.213149 0.403925 0.00576212
607 2 0.265555 0.352835 0.04955
250 2 0.303509 0.406657 0.0660956
252 4 0.288566 0.39067 0.054
608 4 0.279241 0.373701 0.0479649
226 2 0.398687 0.399364 0.0445888
227 4 0.399669 0.38102 0.0276268
1305 4 0.410791 0.366817 0.0195919
1045 2 0.497569 0.361906 0.0272974
280 2 0.464241 0.35807 0.0723842
282 4 0.487711 0.365018 0.0672811
281 4 0.44077 0.351123 0.0774874
1047 4 0.498163 0.371524 0.0503695
551 4 0.0378405 0.503343 0.0291235
550 2 0.0267604 0.489879 0.0470433
313 2 0.0115756 0.433833 0.0653675
315 4 0.0113593 0.409631 0.059091
1788 4 0.125972 0.493538 0.0222118
1786 2 0.147598 0.487887 0.0334168
1767 4 0.109205 0.490101 0.0324654
1440 4 0.214459 0.432331 0.0737631
243 4 0.200039 0.427247 0.061201
241 2 0.186331 0.445322 0.0506869
242 4 0.172623 0.463398 0.0401729
1787 4 0.169224 0.482236 0.0446217
251 4 0.318451 0.422645 0.0781913
524 4 0.33044 0.436301 0.0686602
271 2 0.281286 0.476272 0.0601787
272 4 0.293872 0.455009 0.0563506
273 4 0.268699 0.497535 0.0640068
228 4 0.397704 0.417708 0.0615509
525 4 0.379156 0.427667 0.0613899
523 2 0.354798 0.431984 0.0650251
1583 4 0.479332 0.480733 0.0437462
1582 2 0.476182 0.492275 0.0657019
1667 4 0.057018 0.0705429 0.0983929
16 1 0.029427 0.0523318 0.123217
19 3 0.0203966 0.0649082 0.1405
17 3 0.0423276 0.0660418 0.109997
20 3 0.0127319 0.043313 0.110624
18 3 0.0428227 0.0354682 0.131853
2480 4 0.00771766 0.0783531 0.155033
1422 4 0.00588177 0.0556443 0.153869
1475 4 0.322332 0.0581041 0.0959559
652 2 0.257504 0.0596743 0.139831
654 4 0.255724 0.0511611 0.116389
1476 4 0.273985 0.0497998 0.105665
1474 2 0.298158 0.053952 0.10081
486 4 0.33798 0.00262024 0.13774
297 4 0.384275 0.0432596 0.129831
295 2 0.408287 0.049131 0.133588
484 2 0.351075 0.0230292 0.131642
485 4 0.36417 0.0434382 0.125545
296 4 0.432299 0.0550024 0.137344
745 2 0.49556 0.030047 0.102858
746 4 0.486505 0.0497407 0.115323
557 4 0.446085 0.0559559 0.122625
556 2 0.462534 0.0742796 0.118284
450 4 0.0691748 0.0969384 0.108246
236 4 0.119365 0.129631 0.13884
449 4 0.100006 0.123904 0.136934
448 2 0.0845902 0.110421 0.12259
235 2 0.133379 0.133521 0.159179
28 3 0.252992 0.159828 0.174083
580 2 0.30877 0.122299 0.144496
581 4 0.291887 0.14066 0.146232
30 3 0.276401 0.153438 0.145293
26 1 0.270936 0.16805 0.161885
582 4 0.325654 0.103938 0.142759
758 4 0.337386 0.0888062 0.147533
558 4 0.478984 0.0926033 0.113944
771 4 0.477875 0.105681 0.128718
769 2 0.472773 0.119665 0.148809
477 4 0.246926 0.18776 0.143614
371 4 0.207778 0.230164 0.153608
476 4 0.226093 0.233126 0.146552
475 2 0.236509 0.210443 0.145083
29 3 0.265532 0.1887 0.152786
27 3 0.288948 0.170612 0.175962
756 4 0.348278 0.24068 0.141379
754 2 0.356094 0.222867 0.157088
255 4 0.351042 0.251448 0.125073
253 2 0.372661 0.250312 0.112562
254 4 0.39428 0.249177 0.100052
755 4 0.363911 0.205054 0.172798
624 4 0.438035 0.217411 0.161316
629 4 0.44133 0.219127 0.142243
628 2 0.423851 0.230114 0.128138
630 4 0.406371 0.241101 0.114034
339 4 0.0479578 0.28611 0.166782
337 2 0.0659809 0.271443 0.157551
456 4 0.112358 0.323485 0.0884358
611 4 0.258014 0.294919 0.0916655
279 4 0.28091 0.293135 0.153973
277 2 0.274585 0.298744 0.130442
278 4 0.268261 0.304354 0.106911
386 4 0.329333 0.330197 0.100023
619 2 0.0261143 0.374909 0.154304
620 4 0.0146677 0.386768 0.135502
621 4 0.0375609 0.363049 0.173106
454 2 0.125843 0.344475 0.0900988
455 4 0.139327 0.365466 0.0917617
537 4 0.147491 0.407249 0.138833
535 2 0.146703 0.395895 0.116569
536 4 0.145916 0.384541 0.0943061
647 4 0.140246 0.391049 0.148428
646 2 0.124526 0.381923 0.165597
625 2 0.199196 0.384157 0.151957
627 4 0.198554 0.400682 0.133204
1439 4 0.206278 0.404712 0.114641
301 2 0.324853 0.416054 0.1416
385 2 0.327997 0.351352 0.113283
302 4 0.332821 0.394606 0.131516
387 4 0.32666 0.372508 0.126543
670 2 0.412504 0.36188 0.111383
12 3 0.381149 0.364783 0.141253
11 1 0.368568 0.384005 0.140079
15 3 0.347272 0.378673 0.134018
672 4 0.397623 0.369386 0.130021
13 3 0.368545 0.394238 0.160904
14 3 0.377978 0.398177 0.1243
495 4 0.394586 0.407879 0.134869
645 4 0.373826 0.414185 0.170521
671 4 0.427384 0.354374 0.092744
104 3 0.495986 0.365374 0.0845836
1431 4 0.154715 0.479802 0.138933
1620 4 0.150342 0.496761 0.129621
1429 2 0.158273 0.467183 0.160224
1573 2 0.233517 0.480198 0.147692
1575 4 0.223873 0.501752 0.155914
1438 2 0.210369 0.418522 0.094202
1574 4 0.243161 0.458644 0.13947
639 4 0.253158 0.446406 0.129433
638 4 0.3 0.434053 0.141841
637 2 0.276579 0.44023 0.135637
303 4 0.316886 0.437501 0.151685
659 4 0.312588 0.454554 0.161032
1559 4 0.377119 0.487714 0.141018
493 2 0.392013 0.429854 0.123223
494 4 0.389439 0.45183 0.111576
1584 4 0.473032 0.503816 0.0876576
688 2 0.166208 0.0469264 0.213447
690 4 0.150775 0.0665353 0.215034
1506 4 0.215387 0.0346447 0.160117
689 4 0.18164 0.0273175 0.211861
1505 4 0.192945 0.0160793 0.200767
1504 2 0.204166 0.025362 0.180442
653 4 0.259284 0.0681876 0.163273
22 3 0.381241 0.0694953 0.224132
698 4 0.400347 0.0683183 0.230402
697 2 0.398138 0.0438355 0.234973
699 4 0.39593 0.0193527 0.239543
1518 4 0.411929 0.00951142 0.246832
742 2 0.489211 0.994321 0.249739
349 2 0.484532 0.0646031 0.209277
350 4 0.472074 0.0761368 0.227634
511 2 0.00907482 0.128863 0.218423
513 4 0.0285143 0.140224 0.229297
578 4 0.0443784 0.15127 0.225212
2479 2 0.998304 0.0937886 0.172305
2481 4 0.98889 0.109224 0.189576
674 4 0.152493 0.0827392 0.204498
237 4 0.147392 0.13741 0.179518
673 2 0.146871 0.105834 0.212258
675 4 0.141248 0.128928 0.220018
546 4 0.123413 0.129979 0.230684
544 2 0.122374 0.139135 0.253927
722 4 0.186842 0.0959134 0.24593
693 4 0.261653 0.0735231 0.18328
691 2 0.272984 0.0868326 0.201159
1701 4 0.300864 0.104613 0.229362
692 4 0.284315 0.100142 0.219037
1699 2 0.324335 0.10219 0.221092
757 2 0.34558 0.0917432 0.170972
333 4 0.409683 0.0850105 0.223876
21 1 0.378672 0.0905459 0.21522
23 3 0.362522 0.101924 0.22739
25 3 0.372174 0.0887407 0.193468
1700 4 0.347807 0.099768 0.212822
759 4 0.353774 0.0946802 0.194412
24 3 0.39894 0.101768 0.216523
331 2 0.433767 0.0862473 0.23048
332 4 0.45785 0.0874842 0.237084
770 4 0.467671 0.133648 0.168899
312 4 0.465105 0.121842 0.184891
310 2 0.474746 0.137706 0.201641
311 4 0.484387 0.15357 0.218391
521 4 0.493994 0.161486 0.23395
577 2 0.0503816 0.17523 0.229097
529 2 0.0232339 0.221914 0.223652
530 4 0.0375295 0.206213 0.236854
579 4 0.0563847 0.199189 0.232982
338 4 0.0840039 0.256776 0.148319
362 4 0.154616 0.227381 0.19317
372 4 0.172207 0.236414 0.188197
361 2 0.139644 0.246118 0.200238
370 2 0.189993 0.233289 0.170902
622 2 0.439725 0.2347 0.1793
704 4 0.0388519 0.289201 0.18491
703 2 0.0248802 0.308755 0.191808
705 4 0.0109085 0.32831 0.198705
363 4 0.124673 0.264855 0.207307
395 4 0.12977 0.268807 0.227
394 2 0.112115 0.270188 0.244653
285 4 0.266757 0.289794 0.168083
283 2 0.262306 0.274489 0.187348
284 4 0.257855 0.259185 0.206613
528 4 0.430884 0.318945 0.200744
526 2 0.43841 0.295101 0.200587
623 4 0.441415 0.251988 0.197284
527 4 0.445936 0.271258 0.20043
542 4 0.414547 0.321115 0.211672
2615 4 0.00819003 0.340787 0.214982
264 4 0.0164891 0.397048 0.24368
263 4 0.0559572 0.426686 0.235642
262 2 0.0362231 0.411867 0.239661
648 4 0.108805 0.372797 0.182766
300 4 0.103563 0.360157 0.196831
298 2 0.09788 0.35376 0.220325
734 4 0.131929 0.390951 0.222521
733 2 0.147456 0.392839 0.242028
299 4 0.0921967 0.347364 0.243819
626 4 0.199837 0.367632 0.170711
416 4 0.21078 0.414195 0.205365
290 4 0.214882 0.405162 0.223882
597 4 0.374049 0.398051 0.182262
345 4 0.361637 0.341829 0.212622
596 4 0.36147 0.361463 0.213944
595 2 0.367759 0.379757 0.198103
343 2 0.353496 0.342973 0.236236
541 2 0.417299 0.331478 0.23426
1430 4 0.161832 0.454565 0.181514
415 2 0.191016 0.428615 0.200205
417 4 0.171253 0.443036 0.195045
438 4 0.26472 0.47166 0.230018
436 2 0.273827 0.476107 0.252875
658 2 0.330333 0.459665 0.17789
643 2 0.384649 0.434051 0.181168
644 4 0.395473 0.453917 0.191814
660 4 0.348078 0.464777 0.194747
231 4 0.356809 0.477967 0.207682
447 4 0.407248 0.450857 0.207496
229 2 0.357487 0.502917 0.206199
445 2 0.42064 0.440087 0.225658
446 4 0.434032 0.429318 0.24382
1402 2 0.04136 0.00517823 0.253889
1403 4 0.027449 0.0237937 0.263115
233 4 0.0269413 0.0303571 0.280729
232 2 0.0299291 0.0526069 0.291738
234 4 0.032917 0.0748567 0.302747
317 4 0.0524225 0.0772592 0.306021
599 4 0.159806 0.0797779 0.303674
723 4 0.174716 0.0885788 0.293887
1405 2 0.208282 0.0201386 0.287256
1406 4 0.199775 0.0421456 0.27898
721 2 0.180779 0.0922461 0.269909
1407 4 0.21679 0.998132 0.295532
1517 4 0.425866 0.99234 0.291683
743 4 0.482111 0.0041891 0.271588
425 4 0.480939 0.0234972 0.278986
424 2 0.48217 0.0461074 0.28959
258 4 0.48226 0.0747615 0.320206
426 4 0.4834 0.0687177 0.300193
1516 2 0.418898 0.000925782 0.269257
316 2 0.0667126 0.0965367 0.298996
318 4 0.0810026 0.115814 0.291971
393 4 0.111954 0.12564 0.33696
392 4 0.108756 0.148953 0.292835
545 4 0.121334 0.148291 0.277171
391 2 0.110355 0.137297 0.314897
403 2 0.221926 0.144756 0.30105
598 2 0.171714 0.0869014 0.324473
404 4 0.232847 0.123405 0.308125
405 4 0.211005 0.166107 0.293975
401 4 0.219074 0.182552 0.300701
400 2 0.210266 0.205749 0.303787
402 4 0.201458 0.228945 0.306873
442 2 0.0630978 0.253681 0.283663
444 4 0.0415091 0.251225 0.296036
443 4 0.0846864 0.256136 0.271291
396 4 0.0944609 0.271568 0.262305
365 4 0.0107397 0.378104 0.32869
366 4 0.0487072 0.364388 0.299176
749 4 0.0560006 0.345849 0.298976
364 2 0.0297234 0.371246 0.313933
748 2 0.0650688 0.347937 0.275769
777 4 0.0790164 0.401492 0.314563
750 4 0.074137 0.350025 0.252561
602 4 0.0702388 0.405605 0.331993
735 4 0.162982 0.394728 0.261536
775 2 0.0847493 0.417433 0.296173
776 4 0.0904822 0.433374 0.277783
677 4 0.163515 0.405976 0.278619
289 2 0.220961 0.406316 0.248108
291 4 0.22704 0.407469 0.272333
414 4 0.220599 0.402671 0.290309
412 2 0.239212 0.410388 0.305114
504 4 0.167661 0.393968 0.349502
727 2 0.319842 0.407434 0.321857
729 4 0.331915 0.385642 0.319728
344 4 0.345355 0.344118 0.259849
308 4 0.32642 0.382863 0.300824
309 4 0.350823 0.345522 0.278221
307 2 0.338622 0.364192 0.289522
2860 2 0.493567 0.394265 0.251362
118 3 0.502617 0.385656 0.314415
543 4 0.420051 0.34184 0.256848
615 4 0.416467 0.355209 0.271522
614 4 0.442176 0.345034 0.31319
613 2 0.429322 0.350122 0.292356
2862 4 0.484132 0.411546 0.266774
120 3 0.482637 0.4004 0.286112
116 1 0.490444 0.404042 0.307194
119 3 0.472711 0.407971 0.321634
2923 2 0.477017 0.348063 0.322635
2925 4 0.453705 0.340501 0.327588
1757 4 0.110203 0.439738 0.278303
1756 2 0.124022 0.459751 0.284109
1758 4 0.137841 0.479764 0.289914
1775 4 0.148712 0.484373 0.30597
767 4 0.206508 0.502978 0.286985
676 2 0.172568 0.427492 0.287579
678 4 0.181622 0.449009 0.296538
768 4 0.174031 0.464956 0.287521
766 2 0.190269 0.483967 0.287253
413 4 0.257825 0.418106 0.319919
437 4 0.282934 0.480555 0.275732
433 2 0.298186 0.462727 0.30887
435 4 0.297781 0.47859 0.289547
434 4 0.298591 0.446864 0.328193
713 4 0.474087 0.42251 0.282128
712 2 0.451169 0.423141 0.272151
714 4 0.42825 0.423772 0.262173
606 4 0.148951 0.0467603 0.357552
730 2 0.0939599 0.0814834 0.391198
604 2 0.125491 0.0552001 0.355656
605 4 0.102031 0.06364 0.353761
732 4 0.100585 0.0773781 0.36744
683 4 0.260842 0.0772137 0.382316
249 4 0.289356 0.0209798 0.375007
684 4 0.273633 0.0288878 0.383624
682 2 0.267237 0.0530508 0.38297
247 2 0.312273 0.0207169 0.385004
248 4 0.335189 0.0204541 0.395001
633 4 0.348354 0.0358646 0.400887
631 2 0.357648 0.0587635 0.404687
2586 4 0.99744 0.147186 0.394085
2584 2 0.998459 0.122214 0.394812
2585 4 0.999479 0.0972419 0.39554
399 4 0.117523 0.141248 0.34865
397 2 0.125886 0.146335 0.371657
398 4 0.13425 0.151423 0.394665
600 4 0.183623 0.0940249 0.345273
685 2 0.219673 0.114323 0.361848
687 4 0.198658 0.103542 0.353645
686 4 0.240688 0.125104 0.370051
410 4 0.239279 0.145682 0.372082
409 2 0.248745 0.1604 0.389941
321 4 0.259934 0.0980733 0.382153
319 2 0.259131 0.104154 0.406393
419 4 0.388277 0.164339 0.38601
418 2 0.364216 0.158443 0.382624
420 4 0.340155 0.152547 0.379238
256 2 0.483004 0.0950274 0.334832
762 4 0.470281 0.166706 0.39611
257 4 0.483748 0.115293 0.349458
760 2 0.472971 0.147723 0.380061
761 4 0.47566 0.128739 0.364012
390 4 0.084405 0.22295 0.414154
388 2 0.0941631 0.21463 0.392689
274 2 0.145503 0.221488 0.3622
276 4 0.121954 0.214061 0.36613
389 4 0.103921 0.20631 0.371224
275 4 0.169053 0.228916 0.35827
473 4 0.232541 0.234176 0.358979
474 4 0.184057 0.23843 0.347496
472 2 0.208299 0.236303 0.353238
708 4 0.246734 0.226383 0.348092
651 4 0.249839 0.239387 0.407517
489 4 0.247674 0.25238 0.392564
707 4 0.293769 0.21112 0.355537
649 2 0.24844 0.214607 0.410552
706 2 0.270252 0.218751 0.351814
650 4 0.247041 0.189828 0.413587
411 4 0.258211 0.175118 0.407801
716 4 0.391128 0.173442 0.368637
377 4 0.398888 0.229331 0.336619
717 4 0.408547 0.215863 0.348694
715 2 0.399838 0.194653 0.358665
376 2 0.387139 0.249444 0.34571
763 2 0.449538 0.20613 0.332726
765 4 0.449056 0.181281 0.335462
764 4 0.450021 0.230979 0.329991
1258 2 0.13083 0.319437 0.378283
1259 4 0.121078 0.309128 0.357696
1260 4 0.140582 0.329746 0.398869
509 4 0.224966 0.310324 0.363294
488 4 0.226972 0.295148 0.376975
508 2 0.239205 0.330838 0.364552
487 2 0.237323 0.273764 0.38477
497 4 0.307567 0.25308 0.35576
496 2 0.33188 0.258743 0.35435
378 4 0.37539 0.269556 0.3548
498 4 0.356193 0.264406 0.352941
267 4 0.35862 0.330108 0.363802
266 4 0.378842 0.284489 0.367068
585 4 0.358472 0.286528 0.395917
583 2 0.364596 0.274072 0.416714
265 2 0.368731 0.307299 0.365435
306 4 0.498597 0.280999 0.390258
304 2 0.485589 0.280005 0.411589
510 4 0.253445 0.351352 0.36581
374 4 0.27259 0.351789 0.372393
373 2 0.273345 0.374584 0.362148
375 4 0.274101 0.39738 0.351903
3 3 0.264835 0.411948 0.360339
2924 4 0.500329 0.355626 0.317681
751 2 0.479082 0.415839 0.359657
752 4 0.476444 0.410285 0.383893
561 4 0.484654 0.415767 0.401644
3672 4 0.017046 0.501347 0.334277
601 2 0.0736339 0.4224 0.350202
679 2 0.0358089 0.485957 0.383173
680 4 0.0352166 0.461288 0.379141
406 2 0.0322258 0.441656 0.417121
408 4 0.0276647 0.456044 0.397187
603 4 0.077029 0.439195 0.368412
549 4 0.087121 0.455245 0.374971
547 2 0.104597 0.447832 0.391244
502 2 0.176767 0.415646 0.358007
503 4 0.185873 0.437324 0.366512
634 2 0.187691 0.472773 0.351594
636 4 0.183043 0.456042 0.369585
635 4 0.19234 0.489503 0.333603
669 4 0.315669 0.4933 0.360024
728 4 0.307769 0.429226 0.323987
2 3 0.292834 0.429655 0.342586
5 3 0.257675 0.434476 0.331032
1 1 0.27091 0.431441 0.349315
668 4 0.285045 0.456535 0.374556
4 3 0.268913 0.44959 0.363634
667 2 0.300357 0.474917 0.36729
753 4 0.48172 0.421392 0.335421
368 4 0.0717472 0.0846074 0.427829
367 2 0.055472 0.0810454 0.446473
719 4 0.023572 0.0830088 0.477087
369 4 0.0391968 0.0774835 0.465117
718 2 0.0168294 0.091735 0.499527
341 4 0.184992 0.0831292 0.446829
2430 4 0.18996 0.0626668 0.443469
441 4 0.217938 0.00621044 0.445421
2428 2 0.200973 0.0409848 0.437655
2429 4 0.211985 0.0193028 0.431842
632 4 0.366942 0.0816624 0.408487
641 4 0.48894 0.0751778 0.419074
2879 4 0.438325 0.994931 0.453501
2878 2 0.458593 0.00686341 0.445015
2880 4 0.478861 0.0187957 0.436529
642 4 0.49198 0.0322568 0.444554
640 2 0.49046 0.0537173 0.431814
731 4 0.0873352 0.0855887 0.414956
1152 4 0.149728 0.128348 0.486765
342 4 0.161814 0.119156 0.472627
340 2 0.173403 0.101143 0.459728
1150 2 0.163762 0.144359 0.499875
320 4 0.258328 0.110234 0.430633
725 4 0.266282 0.0966736 0.442256
724 2 0.270014 0.103132 0.466122
726 4 0.273746 0.10959 0.489987
468 4 0.374593 0.0886128 0.42598
467 4 0.389316 0.124917 0.45706
466 2 0.381954 0.106765 0.44152
576 4 0.402815 0.140377 0.460801
515 4 0.472018 0.0874693 0.41458
574 2 0.425535 0.141643 0.450437
3158 4 0.49918 0.0912173 0.422958
575 4 0.448255 0.142909 0.440074
516 4 0.443742 0.124178 0.433387
514 2 0.45788 0.105823 0.423984
259 2 0.0621329 0.165231 0.486105
260 4 0.069992 0.184778 0.472639
471 4 0.0650352 0.197301 0.459001
469 2 0.0636805 0.210257 0.437659
470 4 0.0623259 0.223214 0.416317
616 2 0.0222767 0.244946 0.416932
617 4 0.0463431 0.238213 0.417739
2455 2 0.395925 0.228504 0.43616
2456 4 0.376833 0.244126 0.440237
584 4 0.37072 0.261616 0.437511
2457 4 0.415017 0.212883 0.432083
696 4 0.0643934 0.303052 0.439577
695 4 0.0975665 0.266838 0.430149
694 2 0.0809799 0.284945 0.434863
878 4 0.10601 0.252809 0.480793
326 4 0.135064 0.327831 0.418317
877 2 0.113387 0.25117 0.504627
1010 4 0.447447 0.326653 0.46611
1009 2 0.451106 0.306114 0.452328
1011 4 0.454765 0.285575 0.438546
305 4 0.472582 0.279011 0.43292
709 2 0.124077 0.402108 0.48993
325 2 0.144595 0.347678 0.430167
327 4 0.154126 0.367525 0.442018
8 3 0.146845 0.370432 0.497644
7 3 0.155023 0.365663 0.461271
6 1 0.163075 0.363275 0.482686
9 3 0.167964 0.3409 0.486409
711 4 0.133575 0.384241 0.504618
1191 4 0.205698 0.368517 0.497324
1189 2 0.225776 0.359358 0.485571
10 3 0.181917 0.375845 0.485061
1190 4 0.245854 0.350198 0.473818
803 4 0.263244 0.349088 0.486251
334 2 0.362325 0.426836 0.447181
335 4 0.385861 0.41996 0.452076
238 2 0.388584 0.396938 0.486398
240 4 0.380204 0.402445 0.463493
2507 4 0.466393 0.334241 0.464813
560 4 0.472536 0.384472 0.438718
559 2 0.478595 0.400119 0.420181
2506 2 0.470039 0.358791 0.461778
2508 4 0.473685 0.38334 0.458744
407 4 0.0367868 0.427267 0.437054
1382 4 0.0203137 0.439209 0.483407
1381 2 0.997514 0.445382 0.475206
540 4 0.0367725 0.449838 0.481258
548 4 0.122073 0.44042 0.407518
710 4 0.11458 0.419975 0.475242
569 4 0.115874 0.44659 0.425523
568 2 0.119971 0.442 0.449758
570 4 0.124068 0.437409 0.473993
336 4 0.338789 0.433712 0.442285
1400 4 0.317542 0.489366 0.439659
1401 4 0.326139 0.441399 0.428435
1399 2 0.32184 0.465382 0.434047
1446 4 0.255982 0.491016 0.480213
1127 4 0.994207 0.0946591 0.531972
1126 2 0.990539 0.0775152 0.549799
1032 4 0.108958 0.0839817 0.549759
1182 4 0.21498 0.0779561 0.563964
1180 2 0.234796 0.0632668 0.568051
963 4 0.259254 0.0329206 0.584164
1181 4 0.254613 0.0485775 0.572138
961 2 0.276054 0.0204134 0.570508
843 4 0.314053 0.0687169 0.54482
962 4 0.292854 0.00790612 0.556851
2195 4 0.30616 2.03784e-06 0.570922
841 2 0.338312 0.073466 0.541066
1216 2 0.392049 0.0635321 0.51347
1218 4 0.404713 0.0596973 0.492255
1217 4 0.379384 0.0673669 0.534685
842 4 0.362572 0.0782151 0.537312
2283 4 0.457751 0.995762 0.591968
4467 4 0.442505 0.990828 0.578454
720 4 0.0100868 0.100461 0.521967
1033 2 0.0514821 0.144997 0.537735
1034 4 0.0466543 0.155203 0.515425
261 4 0.0542738 0.145685 0.499571
1035 4 0.0563098 0.134792 0.560044
1030 2 0.130594 0.0898803 0.538701
1154 4 0.107128 0.0803631 0.568196
1031 4 0.15223 0.0957789 0.527643
950 4 0.218344 0.0922369 0.550528
949 2 0.194376 0.0919548 0.54341
951 4 0.170409 0.0916727 0.536291
1151 4 0.177797 0.16037 0.512985
939 4 0.190556 0.148282 0.522605
937 2 0.195554 0.162738 0.542384
938 4 0.200552 0.177194 0.562164
431 4 0.305093 0.0830635 0.534114
430 2 0.288313 0.0972332 0.522164
432 4 0.271533 0.111403 0.510213
857 4 0.368392 0.152544 0.582145
899 4 0.37583 0.148089 0.564302
1272 4 0.11671 0.262115 0.543929
1270 2 0.120378 0.247919 0.564182
1271 4 0.124047 0.233723 0.584435
898 2 0.378108 0.168107 0.549495
900 4 0.380386 0.188125 0.534687
872 4 0.379554 0.20571 0.543301
873 4 0.374866 0.248541 0.568684
871 2 0.37721 0.227126 0.555993
879 4 0.120765 0.249531 0.528462
1239 4 0.283008 0.269785 0.587844
813 4 0.360638 0.260723 0.571257
1204 2 0.379926 0.31043 0.568015
1206 4 0.359131 0.3243 0.568594
930 4 0.34038 0.330879 0.56865
1205 4 0.400722 0.296559 0.567436
905 4 0.465175 0.273909 0.591336
953 4 0.459661 0.293077 0.591022
983 4 0.044729 0.390808 0.550059
982 2 0.0232537 0.393173 0.562644
1041 4 0.0597946 0.389063 0.561022
984 4 0.00177842 0.395538 0.57523
896 4 0.189371 0.379652 0.505897
897 4 0.20231 0.399795 0.5498
895 2 0.19584 0.389723 0.527848
1137 4 0.197606 0.407215 0.566448
802 2 0.278798 0.344793 0.505351
804 4 0.294353 0.340498 0.52445
929 4 0.311588 0.331577 0.52777
928 2 0.325984 0.331228 0.54821
239 4 0.396964 0.391431 0.509303
1001 4 0.466053 0.39225 0.535541
926 4 0.464058 0.374484 0.5269
925 2 0.487185 0.365735 0.52319
1000 2 0.450306 0.400161 0.55328
1936 2 0.032876 0.477229 0.558933
1937 4 0.0366598 0.471228 0.534957
539 4 0.0529816 0.471957 0.523076
538 2 0.0448771 0.460897 0.502167
1938 4 0.0290921 0.483231 0.582909
2244 4 0.131842 0.492019 0.5395
2242 2 0.141754 0.489163 0.562277
1173 4 0.22879 0.445521 0.576705
1171 2 0.252823 0.449792 0.582121
882 4 0.281463 0.465257 0.571334
880 2 0.291217 0.474281 0.550153
881 4 0.300971 0.483305 0.528973
1445 4 0.295457 0.492268 0.510885
1172 4 0.276856 0.454064 0.587536
1444 2 0.27572 0.491642 0.495549
1185 4 0.00637155 0.0398171 0.651642
945 4 0.0158945 0.0561013 0.642122
943 2 0.029112 0.0598645 0.66301
1058 4 0.106175 0.0231617 0.644623
1057 2 0.109387 0.0471317 0.638274
1155 4 0.100872 0.071413 0.616996
1059 4 0.112598 0.0711017 0.631926
1153 2 0.104 0.075888 0.592596
1221 4 0.148118 0.104747 0.654586
825 4 0.0981107 0.0203651 0.662907
1005 4 0.315824 0.0856648 0.595295
1003 2 0.30598 0.0920979 0.617361
1142 4 0.362334 0.0713014 0.662087
2282 4 0.4831 0.0369447 0.604702
2281 2 0.470426 0.0163535 0.598335
43 3 0.478183 0.048373 0.61892
41 1 0.487256 0.0686517 0.625617
1082 4 0.064119 0.13474 0.580745
1081 2 0.0472866 0.146733 0.594817
1083 4 0.0304542 0.158726 0.608889
1199 4 0.0189702 0.167 0.595373
1219 2 0.172268 0.107049 0.648529
1220 4 0.196417 0.109351 0.642472
1212 4 0.208428 0.123018 0.636242
1210 2 0.225559 0.129506 0.65326
1004 4 0.296137 0.0985309 0.639427
887 4 0.302464 0.101947 0.658779
856 2 0.355513 0.160055 0.602218
1141 2 0.373576 0.092867 0.667896
44 3 0.47029 0.0838756 0.62995
909 4 0.141429 0.226498 0.589981
907 2 0.161245 0.233662 0.60344
908 4 0.181062 0.240826 0.6169
798 4 0.327156 0.232319 0.616294
796 2 0.331963 0.207888 0.614012
797 4 0.336769 0.183457 0.611731
811 2 0.345643 0.256276 0.590765
858 4 0.342635 0.167565 0.62229
812 4 0.330648 0.25183 0.610273
1026 4 0.403717 0.173073 0.659532
3357 4 0.487721 0.211185 0.662972
947 4 0.181854 0.251421 0.634093
946 2 0.198969 0.265895 0.645172
948 4 0.216084 0.28037 0.65625
1065 4 0.225159 0.29837 0.652111
1063 2 0.247845 0.306581 0.658675
1237 2 0.299563 0.284844 0.598994
1238 4 0.316119 0.299902 0.610145
792 4 0.325772 0.289606 0.625231
954 4 0.409994 0.294464 0.58537
790 2 0.348684 0.293969 0.634242
791 4 0.371596 0.298332 0.643254
952 2 0.434828 0.29377 0.588196
904 2 0.473341 0.258443 0.609205
906 4 0.481506 0.242977 0.627074
1281 4 0.0733319 0.337806 0.664845
1039 2 0.0792824 0.389827 0.576669
1279 2 0.0579806 0.354631 0.675161
894 4 0.090827 0.345679 0.659998
991 2 0.127568 0.404661 0.609617
992 4 0.151909 0.402541 0.614926
892 2 0.113562 0.355405 0.663699
1136 4 0.162676 0.412704 0.60181
1040 4 0.0987703 0.390592 0.592315
993 4 0.103227 0.40678 0.604309
1135 2 0.180141 0.40996 0.584129
1027 2 0.23998 0.385754 0.656745
1029 4 0.262041 0.395453 0.650079
1002 4 0.434559 0.408071 0.571018
1910 4 0.442781 0.416626 0.587207
1909 2 0.43968 0.416653 0.612018
936 4 0.0199753 0.495805 0.594747
2243 4 0.151666 0.486307 0.585053
1160 4 0.210646 0.450877 0.574008
1161 4 0.171158 0.479584 0.584842
1159 2 0.190902 0.46523 0.579425
889 2 0.373124 0.48778 0.645002
1269 4 0.400419 0.464587 0.653079
890 4 0.383188 0.469158 0.658312
1911 4 0.43658 0.416679 0.636828
1267 2 0.41897 0.447849 0.652135
1268 4 0.43752 0.431111 0.651192
944 4 0.0423294 0.0636277 0.683898
1075 2 0.0671635 0.0719902 0.721102
823 2 0.0821614 0.00391353 0.672914
1076 4 0.0509895 0.0677255 0.702517
1077 4 0.0833374 0.0762549 0.739687
1283 4 0.133454 0.0752437 0.736067
1282 2 0.156925 0.0832941 0.739144
831 4 0.333105 0.10859 0.697006
3387 4 0.00390229 0.127448 0.740018
1105 2 0.0489259 0.175455 0.751928
32 3 0.110915 0.15954 0.731699
31 1 0.102765 0.161183 0.753147
1284 4 0.180396 0.0913446 0.742221
1211 4 0.24269 0.135993 0.670278
1227 4 0.188303 0.110218 0.739744
888 4 0.262147 0.129484 0.669595
886 2 0.282305 0.115715 0.664187
830 4 0.30369 0.0743212 0.718478
829 2 0.318398 0.0914558 0.707742
1024 2 0.390132 0.152341 0.662823
1143 4 0.384817 0.114432 0.673704
1025 4 0.376547 0.13161 0.666114
35 3 0.0885398 0.178921 0.754427
1107 4 0.0263741 0.183722 0.744982
1208 4 0.0745217 0.239799 0.692686
1207 2 0.0552192 0.249283 0.705439
821 4 0.0882508 0.238222 0.706642
822 4 0.125757 0.219918 0.734192
1278 4 0.139067 0.211685 0.721532
820 2 0.107004 0.22907 0.720417
1276 2 0.159063 0.200132 0.731116
1277 4 0.179059 0.188578 0.740701
1131 4 0.189752 0.177368 0.753774
977 4 0.309386 0.214694 0.737491
916 2 0.322848 0.233821 0.714712
918 4 0.327176 0.213149 0.728096
3122 4 0.47388 0.226761 0.662076
1263 4 0.458591 0.217667 0.744472
1261 2 0.450759 0.241075 0.748456
1243 2 0.00246768 0.287851 0.708193
3188 4 0.024089 0.265194 0.733111
1209 4 0.0359167 0.258766 0.718192
1244 4 0.0142557 0.301116 0.725807
1064 4 0.270531 0.314792 0.665239
1241 4 0.245578 0.29382 0.72249
917 4 0.31852 0.254492 0.701328
1097 4 0.308747 0.271718 0.695365
1096 2 0.294656 0.28452 0.679156
1098 4 0.280566 0.297323 0.662947
1008 4 0.32331 0.278687 0.75635
3121 2 0.472547 0.247211 0.676401
3123 4 0.471214 0.267661 0.690725
1262 4 0.442927 0.264484 0.75244
3275 4 0.0399924 0.376964 0.704979
1280 4 0.0426294 0.371456 0.685477
3274 2 0.0544747 0.386355 0.723069
816 4 0.080575 0.411775 0.732404
3276 4 0.068957 0.395746 0.741159
893 4 0.136297 0.365131 0.667401
940 2 0.165188 0.396231 0.727491
814 2 0.105508 0.413576 0.731895
1028 4 0.217919 0.376056 0.66341
1068 4 0.218252 0.368371 0.681821
1067 4 0.183844 0.357616 0.716478
1066 2 0.201048 0.362994 0.699149
941 4 0.178953 0.376405 0.72096
1139 4 0.264373 0.408654 0.665487
1229 4 0.361727 0.375537 0.69624
1228 2 0.365394 0.400194 0.698184
2022 4 0.0449915 0.463355 0.657199
2021 4 0.0418324 0.486398 0.701468
1981 2 0.0267129 0.501075 0.731763
2020 2 0.043412 0.474876 0.679334
1983 4 0.0343682 0.502587 0.708008
942 4 0.151423 0.416056 0.734022
815 4 0.130442 0.415376 0.731385
1138 2 0.280682 0.422685 0.678229
1140 4 0.296991 0.436715 0.69097
1989 4 0.29792 0.438793 0.710835
1987 2 0.297614 0.450635 0.732855
1988 4 0.297308 0.462477 0.754874
1230 4 0.369062 0.424851 0.700128
1100 4 0.434986 0.497579 0.742697
864 4 0.0744444 0.0636257 0.816742
862 2 0.0616016 0.0751817 0.798667
1203 4 0.0912273 0.0644741 0.753062
1201 2 0.111153 0.0520464 0.761646
2049 4 0.147138 0.0347534 0.75937
2047 2 0.160801 0.0146834 0.753398
1202 4 0.131079 0.0396187 0.770231
1147 2 0.201522 0.0746122 0.810693
1148 4 0.181852 0.079598 0.825301
1149 4 0.221192 0.0696264 0.796084
1049 4 0.235057 0.0660531 0.810715
1048 2 0.253317 0.0560926 0.824591
817 2 0.3266 0.087057 0.801948
818 4 0.342169 0.0701432 0.792113
965 4 0.359778 0.0725021 0.801663
964 2 0.38206 0.0760659 0.812434
846 4 0.490172 0.0090393 0.758928
1106 4 0.0714777 0.167187 0.758873
863 4 0.0487589 0.0867377 0.780592
832 2 0.0633156 0.127282 0.773552
833 4 0.0524592 0.106578 0.782421
834 4 0.0741721 0.147986 0.764682
33 3 0.0914898 0.141597 0.758407
34 3 0.12056 0.164237 0.76772
1073 4 0.121635 0.154382 0.783672
1225 2 0.201569 0.108264 0.760848
1226 4 0.214835 0.10631 0.781952
840 4 0.224578 0.123948 0.783018
838 2 0.247043 0.133649 0.788156
1130 4 0.163901 0.138876 0.772504
1129 2 0.176826 0.158122 0.763139
839 4 0.269507 0.14335 0.793295
959 4 0.271708 0.160042 0.805442
819 4 0.311032 0.103971 0.811783
1085 4 0.314974 0.120426 0.80039
1084 2 0.324841 0.143057 0.804349
1086 4 0.334707 0.165687 0.808308
966 4 0.404341 0.0796297 0.823205
3270 4 0.488412 0.147336 0.775059
779 4 0.066603 0.225848 0.832315
1214 4 0.0505358 0.221917 0.821791
1213 2 0.0325139 0.234221 0.809584
1215 4 0.014492 0.246524 0.797376
1072 2 0.117861 0.164538 0.806206
778 2 0.0832539 0.207329 0.83008
1074 4 0.114087 0.174694 0.82874
780 4 0.0999049 0.188811 0.827845
976 2 0.291276 0.210649 0.754249
978 4 0.273165 0.206605 0.771007
958 2 0.270934 0.183945 0.798149
960 4 0.270159 0.207849 0.790856
1299 4 0.346418 0.178345 0.816827