ITEM: TIMESTEP
1750000
ITEM: NUMBER OF ATOMS
4590
ITEM: BOX BOUNDS pp pp pp
-9.9985700000000008e+00 9.9985700000000008e+00
-9.9985700000000008e+00 9.9985700000000008e+00
-9.9985700000000008e+00 9.9985700000000008e+00
ITEM: ATOMS id type xs ys zs
463 2 0.053115 0.0702152 0.018734
464 4 0.0632423 0.0476661 0.0149723
1666 2 0.0632698 0.00737926 0.0731738
3290 4 0.0740075 0.0408164 0.99915
1668 4 0.0726778 0.0260633 0.0594781
566 4 0.181417 0.0444826 0.0337889
1474 2 0.242477 0.018199 0.0787245
565 2 0.195522 0.0615206 0.0454477
1475 4 0.239288 0.0329747 0.0588074
492 4 0.255125 0.0434 0.0531102
567 4 0.209627 0.0785586 0.0571065
490 2 0.262036 0.0365756 0.03007
491 4 0.268947 0.0297513 0.00702979
745 2 0.463411 0.0598838 0.017155
2724 4 0.482514 0.041953 0.0728376
747 4 0.486049 0.0608147 0.0277299
2722 2 0.459249 0.0510949 0.073405
1826 4 0.500664 0.0398346 0.0786185
746 4 0.440772 0.058953 0.00658012
589 2 0.00185475 0.0847636 0.0812619
465 4 0.0429877 0.0927644 0.0224958
701 4 0.0505894 0.108919 0.0158097
700 2 0.0544222 0.132972 0.0101582
702 4 0.058255 0.157025 0.00450661
423 4 0.0888659 0.168886 0.0172417
1133 4 0.177542 0.155411 0.00677415
360 4 0.194967 0.147545 0.0130304
358 2 0.211299 0.141924 0.0311092
359 4 0.227632 0.136304 0.049188
828 4 0.453052 0.153226 0.00394246
555 4 0.0516916 0.171415 0.0177497
553 2 0.0431114 0.194687 0.0145861
554 4 0.0345312 0.217958 0.0114225
422 4 0.121711 0.20226 0.0347942
421 2 0.105289 0.185573 0.026018
3234 4 0.0782385 0.163121 0.000533468
737 4 0.20105 0.227423 0.033946
736 2 0.216036 0.209882 0.043583
354 4 0.249043 0.183722 0.0503097
738 4 0.231022 0.19234 0.05322
506 4 0.215782 0.238707 0.0386449
353 4 0.286603 0.186164 0.0832331
352 2 0.267823 0.184943 0.0667714
1069 2 0.393494 0.22659 0.00431084
1071 4 0.376519 0.243786 0.0107387
1170 4 0.0785676 0.330968 0.991011
2807 4 0.000744783 0.276564 0.0492688
294 4 0.156319 0.328811 0.0461853
507 4 0.203513 0.287132 0.036373
293 4 0.197669 0.305105 0.0310564
292 2 0.176994 0.316958 0.0386208
505 2 0.209647 0.262919 0.037509
481 2 0.287941 0.28294 0.0113661
482 4 0.304538 0.286987 0.0296234
573 4 0.366267 0.259903 0.0129261
571 2 0.368367 0.272895 0.0341855
572 4 0.370466 0.285888 0.0554449
741 4 0.378788 0.299438 0.0697564
739 2 0.360509 0.312812 0.0803483
324 4 0.442278 0.276151 0.0574025
323 4 0.434896 0.282465 0.00834804
322 2 0.438587 0.279308 0.0328753
1168 2 0.0650975 0.350584 0.998688
1169 4 0.0516273 0.370201 0.00636387
456 4 0.146448 0.340106 0.0593149
454 2 0.153084 0.360202 0.0726301
455 4 0.159719 0.380298 0.0859452
608 4 0.237096 0.380599 0.0687196
252 4 0.256863 0.377551 0.0672827
250 2 0.276728 0.387269 0.0556159
251 4 0.296593 0.396987 0.0439492
226 2 0.389448 0.394307 0.0314235
228 4 0.374317 0.401476 0.0499935
671 4 0.413843 0.363338 0.063133
227 4 0.404579 0.387139 0.0128535
670 2 0.39912 0.367486 0.0829118
281 4 0.431904 0.368463 0.0626189
280 2 0.455342 0.360721 0.0586336
282 4 0.47878 0.352978 0.0546483
104 3 0.487102 0.35637 0.0720007
1045 2 0.491622 0.353684 0.0153636
1047 4 0.491527 0.347519 0.0395951
552 4 0.00634581 0.42894 0.0367069
314 4 0.0172982 0.430804 0.0532637
313 2 0.0338515 0.416139 0.0649303
795 4 0.167936 0.456279 0.00680934
244 2 0.220854 0.473054 0.00980561
243 4 0.213939 0.477183 0.0542266
793 2 0.166943 0.481262 0.00701962
245 4 0.20373 0.455592 0.0046079
241 2 0.206625 0.501087 0.054765
246 4 0.237979 0.490515 0.0150033
272 4 0.256874 0.481075 0.0650391
1440 4 0.248 0.493662 0.078947
524 4 0.299462 0.415083 0.0529919
523 2 0.322056 0.421273 0.0617295
271 2 0.271352 0.500053 0.0575947
40 3 0.367053 0.446839 0.00533374
525 4 0.344651 0.427462 0.0704671
19 3 0.0275279 0.013609 0.127544
1422 4 0.0258041 0.00833839 0.148696
16 1 0.0470203 0.001078 0.12635
17 3 0.0471351 0.989374 0.106547
2480 4 0.0172192 0.0284096 0.140643
18 3 0.0654982 0.0151025 0.126881
652 2 0.232525 0.0503677 0.145413
654 4 0.241007 0.0486558 0.121954
1476 4 0.245666 0.00342335 0.0986416
484 2 0.347225 0.000429706 0.137214
297 4 0.363686 0.032149 0.121656
485 4 0.365304 0.0124099 0.124773
295 2 0.382629 0.044042 0.11048
296 4 0.401572 0.0559349 0.0993039
557 4 0.412896 0.0707806 0.0898512
2723 4 0.435983 0.0602369 0.0739724
1759 2 0.454526 0.0133903 0.141393
1760 4 0.476652 0.0196355 0.131564
2744 4 0.489613 0.0312562 0.142273
1761 4 0.432399 0.00714498 0.151222
590 4 0.00674404 0.0923456 0.104581
237 4 0.123897 0.163073 0.135219
235 2 0.12339 0.146344 0.153795
556 2 0.423658 0.0909335 0.100011
771 4 0.447382 0.116082 0.0955173
558 4 0.434421 0.111086 0.11017
769 2 0.445883 0.140792 0.0990346
476 4 0.172253 0.244278 0.159147
477 4 0.193505 0.223233 0.119069
475 2 0.182879 0.233755 0.139108
461 4 0.290768 0.180011 0.102563
460 2 0.315682 0.182116 0.102829
279 4 0.289764 0.227982 0.163994
254 4 0.379585 0.225258 0.0945109
630 4 0.396451 0.215492 0.0900914
462 4 0.340595 0.184221 0.103095
253 2 0.366543 0.244936 0.0862737
770 4 0.444384 0.165501 0.102552
628 2 0.417644 0.223944 0.100319
624 4 0.44914 0.244178 0.12212
629 4 0.438837 0.232396 0.110546
622 2 0.440505 0.255358 0.14275
338 4 0.0514839 0.267101 0.137379
337 2 0.0725207 0.268456 0.150825
339 4 0.0935576 0.269812 0.164271
363 4 0.120368 0.295261 0.158539
612 4 0.240599 0.331584 0.118424
611 4 0.249705 0.287158 0.139497
754 2 0.322153 0.274324 0.100495
610 2 0.245152 0.309371 0.128961
755 4 0.302284 0.269564 0.114909
278 4 0.293388 0.266685 0.132534
277 2 0.291576 0.247334 0.148264
756 4 0.342021 0.279085 0.0860807
255 4 0.353501 0.264614 0.0780366
595 2 0.399971 0.32874 0.152094
596 4 0.398839 0.305074 0.144105
740 4 0.34223 0.326187 0.0909403
623 4 0.431871 0.266538 0.163381
619 2 0.0598077 0.399129 0.114263
620 4 0.0657615 0.409092 0.13641
621 4 0.0538538 0.389165 0.092117
315 4 0.0504049 0.401475 0.076597
647 4 0.0807624 0.400331 0.14605
537 4 0.119534 0.345136 0.131497
535 2 0.135654 0.364217 0.132614
536 4 0.151773 0.383298 0.133731
607 2 0.238586 0.36377 0.0871516
609 4 0.240076 0.346941 0.105584
386 4 0.333704 0.342076 0.097928
387 4 0.346013 0.38288 0.124086
385 2 0.339858 0.362478 0.111007
302 4 0.342331 0.3982 0.140811
12 3 0.389533 0.370029 0.121895
11 1 0.383165 0.382579 0.140091
15 3 0.360862 0.386982 0.138732
672 4 0.384396 0.371634 0.102691
14 3 0.395169 0.402436 0.14008
495 4 0.403866 0.41975 0.143659
13 3 0.387703 0.370589 0.159431
626 4 0.174054 0.420184 0.142759
1438 2 0.240457 0.474476 0.0930952
625 2 0.191599 0.433701 0.154364
637 2 0.232463 0.482688 0.157001
1439 4 0.232914 0.45529 0.107243
638 4 0.21367 0.466801 0.16143
1559 4 0.2947 0.482944 0.103055
639 4 0.251256 0.498575 0.152572
1574 4 0.271563 0.494242 0.154749
301 2 0.343164 0.420228 0.152612
493 2 0.423894 0.424523 0.129472
494 4 0.443922 0.429296 0.115286
1583 4 0.469796 0.474986 0.0955008
1582 2 0.451122 0.489518 0.10358
1420 2 0.0181455 0.99939 0.170751
674 4 0.146434 0.0127159 0.222122
690 4 0.163195 0.0145631 0.212716
673 2 0.123448 0.00970152 0.23149
688 2 0.17577 0.00260217 0.194717
653 4 0.224042 0.0520796 0.168871
693 4 0.239307 0.0443664 0.180395
691 2 0.252881 0.0370693 0.200085
692 4 0.266454 0.0297723 0.219775
1700 4 0.319956 0.0548954 0.24851
1699 2 0.29744 0.0462051 0.241975
1701 4 0.274924 0.0375148 0.235441
23 3 0.331684 0.0713189 0.240074
21 1 0.352156 0.0656902 0.230715
25 3 0.351544 0.0689034 0.208178
22 3 0.356493 0.0435277 0.235094
759 4 0.355577 0.0677368 0.189777
757 2 0.375701 0.0816537 0.184627
24 3 0.368981 0.0786223 0.240102
698 4 0.373126 0.0478445 0.245531
511 2 0.0135128 0.122367 0.216308
578 4 0.0516703 0.1346 0.217231
513 4 0.0383137 0.120346 0.21876
577 2 0.054845 0.159367 0.218546
449 4 0.124072 0.112671 0.183073
448 2 0.14234 0.0968626 0.176628
236 4 0.122883 0.129616 0.172371
450 4 0.160609 0.0810545 0.170183
28 3 0.238806 0.147874 0.178054
580 2 0.294593 0.107601 0.188779
581 4 0.271783 0.117792 0.189792
30 3 0.269695 0.13689 0.196571
26 1 0.253621 0.152963 0.195171
27 3 0.242032 0.153837 0.215022
582 4 0.317403 0.0974103 0.187767
758 4 0.395825 0.0955707 0.179478
311 4 0.439751 0.145168 0.211852
761 4 0.441067 0.127557 0.256983
529 2 0.0164975 0.197325 0.228196
530 4 0.0399433 0.18943 0.224572
579 4 0.0580196 0.184133 0.21986
372 4 0.159995 0.238295 0.173471
370 2 0.172997 0.239305 0.194804
371 4 0.186 0.240315 0.216137
29 3 0.263415 0.173636 0.191286
284 4 0.290294 0.243441 0.231449
283 2 0.294487 0.237616 0.207497
285 4 0.298679 0.231792 0.183546
310 2 0.440065 0.166157 0.198266
312 4 0.440378 0.187145 0.184681
520 2 0.495 0.18432 0.243407
396 4 0.074981 0.31039 0.2185
443 4 0.0640327 0.310989 0.235603
394 2 0.0821175 0.296429 0.199023
395 4 0.0892541 0.282469 0.179546
362 4 0.137029 0.260656 0.190565
361 2 0.128699 0.277959 0.174552
527 4 0.431945 0.273254 0.182899
526 2 0.453281 0.276611 0.195496
528 4 0.474617 0.279967 0.208092
264 4 0.0355026 0.389485 0.214945
262 2 0.0444201 0.412424 0.219353
646 2 0.0934205 0.392751 0.166237
648 4 0.106079 0.385171 0.186423
300 4 0.115517 0.372302 0.198825
298 2 0.114309 0.363237 0.222097
299 4 0.113101 0.354173 0.245368
345 4 0.25882 0.367571 0.224522
343 2 0.280579 0.356245 0.229364
344 4 0.302338 0.344919 0.234206
309 4 0.302173 0.34496 0.253729
597 4 0.401103 0.352406 0.160083
645 4 0.403977 0.37092 0.173433
643 2 0.41381 0.375329 0.195996
644 4 0.423643 0.379737 0.218558
447 4 0.412623 0.391822 0.231302
445 2 0.416526 0.416471 0.232853
263 4 0.0533375 0.435364 0.22376
627 4 0.209144 0.447217 0.165968
1430 4 0.186558 0.501742 0.196907
417 4 0.204888 0.493711 0.197734
290 4 0.212576 0.43242 0.221517
416 4 0.208847 0.445027 0.208455
415 2 0.206867 0.469369 0.203094
289 2 0.221559 0.417701 0.239624
303 4 0.343997 0.442256 0.164413
659 4 0.341366 0.457581 0.176914
658 2 0.352491 0.475616 0.190186
660 4 0.363615 0.493652 0.203458
2861 4 0.480437 0.448234 0.24462
446 4 0.420429 0.441119 0.234404
232 2 0.0540397 0.0405452 0.299981
234 4 0.0596452 0.0640965 0.293728
317 4 0.0420238 0.0703509 0.290573
233 4 0.0484342 0.0169939 0.306233
675 4 0.100463 0.00668718 0.240858
723 4 0.220607 0.0530725 0.257605
721 2 0.208056 0.0746663 0.258766
249 4 0.316287 0.0694054 0.326061
697 2 0.381225 0.026654 0.256045
699 4 0.389323 0.00546343 0.266559
333 4 0.380897 0.0660873 0.25052
331 2 0.396843 0.0766825 0.266602
743 4 0.459816 0.0360928 0.278079
742 2 0.460186 0.0130696 0.268333
351 4 0.466365 0.0500728 0.291689
349 2 0.449529 0.0675262 0.285597
350 4 0.432693 0.0849795 0.279506
480 4 0.486558 0.999216 0.32429
316 2 0.0477377 0.087457 0.273255
318 4 0.0534517 0.104563 0.255937
393 4 0.116141 0.132775 0.3172
399 4 0.131946 0.120601 0.322613
391 2 0.132453 0.142173 0.300745
392 4 0.148765 0.151571 0.284289
545 4 0.16691 0.144998 0.285135
722 4 0.195504 0.0962601 0.259927
546 4 0.190993 0.11444 0.253719
544 2 0.178951 0.129719 0.269427
599 4 0.216981 0.135849 0.324226
404 4 0.235801 0.12893 0.323041
598 2 0.193543 0.128526 0.328937
403 2 0.240358 0.148836 0.308613
600 4 0.170104 0.121202 0.333648
762 4 0.392924 0.131593 0.269892
332 4 0.41279 0.0872778 0.282684
760 2 0.416995 0.129575 0.263438
401 4 0.247692 0.185961 0.283002
400 2 0.233094 0.199146 0.267568
402 4 0.218495 0.21233 0.252134
405 4 0.244916 0.168741 0.294185
765 4 0.430029 0.206316 0.273354
763 2 0.442943 0.193355 0.256312
764 4 0.455856 0.180393 0.23927
521 4 0.472899 0.177427 0.252853
442 2 0.0701968 0.299328 0.256845
444 4 0.0763609 0.287667 0.278087
735 4 0.1534 0.331173 0.294421
496 2 0.324404 0.299533 0.326879
497 4 0.337261 0.309031 0.307652
541 2 0.466743 0.288369 0.313611
542 4 0.472091 0.264452 0.308655
615 4 0.443727 0.311042 0.32835
613 2 0.422908 0.323666 0.322661
543 4 0.461395 0.312286 0.318566
749 4 0.058623 0.352418 0.283154
365 4 0.0298339 0.333043 0.320188
364 2 0.03577 0.348519 0.301468
366 4 0.0417061 0.363996 0.282749
603 4 0.0783983 0.37974 0.335043
601 2 0.0861758 0.392136 0.314769
734 4 0.121907 0.341628 0.257009
750 4 0.102239 0.361646 0.2605
748 2 0.0804309 0.357032 0.271827
733 2 0.137653 0.336401 0.275715
602 4 0.0939532 0.404531 0.294495
677 4 0.158984 0.344546 0.308396
777 4 0.107733 0.419715 0.294592
676 2 0.166228 0.359893 0.326758
414 4 0.234303 0.403729 0.277318
291 4 0.230542 0.402982 0.25773
307 2 0.308143 0.345031 0.278009
727 2 0.317753 0.384544 0.318438
308 4 0.314114 0.345101 0.302289
728 4 0.317299 0.40462 0.333335
729 4 0.318207 0.364468 0.303541
614 4 0.402089 0.33629 0.316971
1757 4 0.118392 0.475269 0.299752
776 4 0.132514 0.462099 0.304089
775 2 0.120123 0.440907 0.299341
1756 2 0.120998 0.499634 0.294777
413 4 0.215901 0.432132 0.314133
412 2 0.225102 0.41793 0.295726
1436 4 0.227003 0.479069 0.331464
1435 2 0.249511 0.470988 0.324166
768 4 0.207678 0.489371 0.250147
3 3 0.277502 0.419217 0.320453
438 4 0.316609 0.464209 0.265354
437 4 0.278712 0.462093 0.297912
436 2 0.29766 0.463151 0.281633
1437 4 0.27202 0.462908 0.316868
5 3 0.289909 0.454766 0.320433
2 3 0.31245 0.427244 0.331715
434 4 0.331139 0.420966 0.32223
712 2 0.418522 0.453433 0.276126
713 4 0.411856 0.459507 0.299446
433 2 0.355874 0.424398 0.32347
435 4 0.38061 0.427831 0.324709
714 4 0.425188 0.44736 0.252805
2860 2 0.493129 0.437059 0.263038
368 4 0.0850892 0.0482521 0.407189
428 4 0.0797499 0.0371402 0.344556
427 2 0.0747326 0.0145034 0.353914
731 4 0.0890465 0.0626336 0.393444
606 4 0.150199 0.0571755 0.412383
730 2 0.104937 0.0756947 0.379228
604 2 0.151101 0.0353246 0.400263
605 4 0.152003 0.0134736 0.388143
682 2 0.235519 0.0362876 0.364189
683 4 0.229549 0.060516 0.362604
684 4 0.24149 0.0120591 0.365774
1406 4 0.226522 0.00419126 0.321341
247 2 0.330571 0.0757065 0.345593
2879 4 0.484546 0.053899 0.401383
1749 4 0.472504 0.00631673 0.338067
424 2 0.421286 0.0527968 0.389949
426 4 0.423816 0.0766384 0.382852
425 4 0.418756 0.0289553 0.397045
732 4 0.120827 0.0887558 0.365013
397 2 0.12869 0.0992039 0.335133
398 4 0.125435 0.0778067 0.347652
686 4 0.161823 0.119815 0.402366
685 2 0.164066 0.118533 0.377496
687 4 0.166309 0.11725 0.352626
410 4 0.238896 0.150353 0.413711
321 4 0.257261 0.10667 0.381848
319 2 0.261097 0.0979086 0.40495
248 4 0.344854 0.0820077 0.365124
633 4 0.355834 0.0954118 0.35557
632 4 0.380024 0.138643 0.362399
631 2 0.367929 0.117027 0.358984
420 4 0.39208 0.148184 0.374742
258 4 0.43767 0.0893017 0.375574
257 4 0.481907 0.106954 0.360335
256 2 0.459788 0.098128 0.367954
515 4 0.441644 0.153975 0.37874
514 2 0.448224 0.159523 0.402215
2654 4 0.999988 0.215088 0.366775
618 4 0.00732164 0.233916 0.369021
274 2 0.156789 0.2407 0.357619
275 4 0.172314 0.221107 0.358148
474 4 0.172643 0.204445 0.369119
472 2 0.195899 0.198296 0.362296
473 4 0.219154 0.192146 0.355474
708 4 0.229689 0.175671 0.355885
706 2 0.253471 0.182549 0.359387
707 4 0.277254 0.189427 0.362889
717 4 0.334198 0.250662 0.37224
377 4 0.317509 0.253093 0.383544
418 2 0.381942 0.171035 0.375224
419 4 0.371805 0.193886 0.375706
716 4 0.366664 0.21263 0.372792
715 2 0.350431 0.231646 0.372516
306 4 0.498872 0.243551 0.409919
390 4 0.0857295 0.269275 0.328088
616 2 0.0298347 0.244794 0.369187
617 4 0.0523478 0.255671 0.369354
276 4 0.141263 0.260292 0.357089
389 4 0.122643 0.270561 0.361798
388 2 0.104186 0.269918 0.344943
374 4 0.246529 0.328203 0.354115
510 4 0.266116 0.325564 0.351674
508 2 0.267723 0.309933 0.371123
509 4 0.26933 0.294302 0.390572
376 2 0.307007 0.272391 0.371606
488 4 0.274085 0.27555 0.385682
487 2 0.261735 0.26435 0.404315
378 4 0.296505 0.291688 0.359669
498 4 0.311546 0.290036 0.346105
267 4 0.366062 0.31126 0.36391
265 2 0.362017 0.296085 0.383365
266 4 0.357972 0.280909 0.402821
269 4 0.453061 0.2597 0.37634
268 2 0.476241 0.257999 0.385557
2493 4 0.017084 0.347517 0.32933
2491 2 0.000501041 0.362205 0.340926
549 4 0.0700313 0.389056 0.351653
547 2 0.0654137 0.408591 0.36656
678 4 0.173473 0.37524 0.34512
502 2 0.190478 0.390046 0.369765
504 4 0.19622 0.374005 0.351465
373 2 0.230383 0.347293 0.354334
375 4 0.214236 0.366383 0.354553
503 4 0.184736 0.406088 0.388065
334 2 0.351666 0.401009 0.41566
669 4 0.331203 0.413781 0.395949
336 4 0.350455 0.420811 0.400442
2925 4 0.496863 0.358348 0.367635
548 4 0.060796 0.428127 0.381466
407 4 0.0452883 0.4411 0.375493
406 2 0.0505768 0.455222 0.395437
408 4 0.0558653 0.469344 0.415382
1543 2 0.192437 0.498688 0.351428
1545 4 0.209553 0.489571 0.335645
636 4 0.194372 0.41426 0.403443
634 2 0.18912 0.437123 0.412097
1 1 0.290734 0.434823 0.331398
668 4 0.298937 0.436685 0.36537
4 3 0.283401 0.437493 0.353249
667 2 0.31507 0.425233 0.38066
593 4 0.492697 0.500463 0.349341
119 3 0.503689 0.432469 0.338151
561 4 0.484709 0.426874 0.418131
752 4 0.486364 0.43443 0.399025
753 4 0.489275 0.44108 0.349548
751 2 0.48782 0.437755 0.374287
718 2 0.0405085 0.0438863 0.479603
719 4 0.0561622 0.0288021 0.467249
369 4 0.0643055 0.0267565 0.447272
367 2 0.0746973 0.0375043 0.42723
720 4 0.0248548 0.0589705 0.491956
2430 4 0.227067 0.0646078 0.461342
2428 2 0.228651 0.0460156 0.444699
2429 4 0.230236 0.0274234 0.428055
1182 4 0.241501 0.0915243 0.500278
441 4 0.230692 0.00716781 0.42669
726 4 0.298422 0.0764191 0.470793
432 4 0.317259 0.0768013 0.477566
724 2 0.284889 0.0735168 0.44997
725 4 0.271356 0.0706144 0.429147
2878 2 0.487553 0.0671719 0.422358
2880 4 0.490561 0.0804448 0.443334
341 4 0.227802 0.0819607 0.450945
340 2 0.211391 0.0945078 0.465031
1152 4 0.180312 0.102597 0.491989
342 4 0.19498 0.107055 0.479118
320 4 0.264933 0.0891475 0.428052
467 4 0.37565 0.101885 0.417755
466 2 0.373822 0.120258 0.434614
468 4 0.371994 0.138632 0.451474
576 4 0.409765 0.139238 0.461498
642 4 0.473083 0.0896838 0.444453
641 4 0.492666 0.119133 0.479809
640 2 0.482874 0.104408 0.462131
3158 4 0.501592 0.131836 0.465919
574 2 0.428445 0.153452 0.452884
516 4 0.454803 0.165072 0.425691
469 2 0.0587552 0.244616 0.455472
471 4 0.0724134 0.227729 0.46786
260 4 0.0827808 0.210534 0.46956
259 2 0.100212 0.200859 0.48465
261 4 0.117644 0.191184 0.499741
409 2 0.231018 0.171801 0.423866
650 4 0.214089 0.206864 0.445719
649 2 0.221458 0.228459 0.435494
411 4 0.22314 0.193249 0.43402
575 4 0.447125 0.167666 0.444271
348 4 0.994252 0.309464 0.447344
470 4 0.0450971 0.261503 0.443084
2812 2 0.0116321 0.315562 0.485947
695 4 0.0992502 0.314009 0.44018
694 2 0.115888 0.296673 0.447097
696 4 0.132525 0.279338 0.454015
1260 4 0.1494 0.273869 0.463343
1258 2 0.168485 0.282876 0.476752
651 4 0.228828 0.250053 0.425269
1259 4 0.18757 0.291884 0.490161
489 4 0.249386 0.253149 0.422948
585 4 0.36213 0.288816 0.422271
583 2 0.38408 0.280301 0.430691
584 4 0.406029 0.271786 0.439111
2456 4 0.419635 0.279599 0.426832
2457 4 0.456217 0.309805 0.442645
2455 2 0.437926 0.294702 0.434738
10 3 0.131325 0.339319 0.459094
7 3 0.117941 0.373302 0.46677
327 4 0.101424 0.381927 0.460172
325 2 0.0888722 0.40263 0.466418
6 1 0.136968 0.361133 0.462406
8 3 0.147126 0.369662 0.443367
711 4 0.146136 0.388146 0.435911
9 3 0.151342 0.362927 0.480533
709 2 0.141738 0.411653 0.428612
239 4 0.376109 0.362398 0.476278
335 4 0.352876 0.381207 0.430878
238 2 0.35759 0.367888 0.460401
240 4 0.339071 0.373377 0.444524
2712 4 0.500243 0.399946 0.470493
559 2 0.497724 0.405625 0.420198
680 4 0.00517567 0.478912 0.440364
679 2 0.00166655 0.490537 0.418508
1383 4 0.0189062 0.467682 0.449163
1381 2 0.0271234 0.459184 0.471196
326 4 0.0763199 0.423333 0.472664
1382 4 0.0353406 0.450686 0.493228
773 4 0.160175 0.482482 0.475086
568 2 0.123056 0.458589 0.447914
569 4 0.124619 0.471778 0.469099
384 4 0.142252 0.474667 0.480558
710 4 0.13734 0.435159 0.421313
570 4 0.121492 0.4454 0.42673
772 2 0.175076 0.475976 0.45609
635 4 0.183868 0.459986 0.420751
774 4 0.189976 0.469471 0.437094
1401 4 0.306692 0.452597 0.496472
1400 4 0.329474 0.474477 0.457704
1399 2 0.318083 0.463537 0.477088
588 4 0.34289 0.487613 0.466642
586 2 0.359807 0.503344 0.457077
1126 2 0.0185015 0.0661487 0.52544
1127 4 0.0205731 0.0756214 0.502393
1128 4 0.0164299 0.0566761 0.548487
4509 4 0.0156274 0.0440303 0.563951
1059 4 0.0805834 0.0623746 0.578907
951 4 0.194456 0.0580324 0.538655
1031 4 0.204846 0.0422814 0.544816
1030 2 0.202159 0.0283852 0.565428
949 2 0.212685 0.0697089 0.526143
1032 4 0.199472 0.014489 0.58604
961 2 0.29117 0.0379251 0.527835
1180 2 0.262834 0.0804061 0.507095
430 2 0.327251 0.0683488 0.498871
963 4 0.299297 0.0571434 0.514059
1181 4 0.284167 0.0692879 0.513912
962 4 0.283043 0.0187067 0.541611
2195 4 0.281174 0.00929204 0.559514
431 4 0.337244 0.0598964 0.520175
841 2 0.375029 0.0624052 0.527136
843 4 0.352285 0.0726891 0.525662
842 4 0.397772 0.0521213 0.52861
1217 4 0.409241 0.0370344 0.532167
1218 4 0.44437 0.0611004 0.558387
1216 2 0.426805 0.0490674 0.545277
1033 2 0.0691298 0.164557 0.527382
1034 4 0.0807884 0.143716 0.519973
950 4 0.230913 0.0813855 0.513631
939 4 0.160335 0.155708 0.519328
1151 4 0.173381 0.140354 0.524037
1150 2 0.176847 0.121475 0.508013
857 4 0.303568 0.122305 0.560898
899 4 0.323581 0.121217 0.56048
856 2 0.28836 0.141094 0.567291
858 4 0.273152 0.159883 0.573685
898 2 0.342297 0.136299 0.553593
900 4 0.361013 0.151381 0.546707
1035 4 0.0574711 0.185398 0.534792
1082 4 0.0585708 0.2013 0.546346
1081 2 0.044427 0.197425 0.566598
937 2 0.138973 0.168667 0.518368
938 4 0.117612 0.181625 0.517408
878 4 0.110307 0.244671 0.552201
877 2 0.100954 0.245422 0.575377
797 4 0.264871 0.178756 0.574642
813 4 0.331767 0.235052 0.545455
811 2 0.307 0.237803 0.547506
812 4 0.282233 0.240554 0.549556
796 2 0.269254 0.202003 0.566547
798 4 0.273636 0.225251 0.558452
873 4 0.345521 0.220385 0.541934
871 2 0.351068 0.196146 0.544563
872 4 0.356615 0.171908 0.547192
906 4 0.489644 0.242632 0.57196
2813 4 0.0231743 0.313033 0.507983
896 4 0.203844 0.329779 0.529885
904 2 0.468831 0.254464 0.564751
905 4 0.448018 0.266297 0.557541
952 2 0.422781 0.288992 0.574024
953 4 0.446798 0.284745 0.568515
1137 4 0.149935 0.364907 0.555469
897 4 0.164519 0.351975 0.55137
1135 2 0.127432 0.373618 0.548918
1136 4 0.104929 0.382328 0.542367
895 2 0.184182 0.340877 0.540628
1189 2 0.238386 0.357361 0.525502
1191 4 0.217564 0.345204 0.532126
1190 4 0.259207 0.369517 0.518878
803 4 0.277771 0.376047 0.52172
802 2 0.296166 0.377372 0.538604
804 4 0.31456 0.378696 0.555489
928 2 0.371326 0.380185 0.555122
929 4 0.370634 0.387292 0.531159
930 4 0.372017 0.373077 0.579084
925 2 0.450871 0.399891 0.532334
927 4 0.431628 0.403838 0.516865
1001 4 0.465896 0.402309 0.566361
926 4 0.470114 0.395943 0.547804
936 4 0.0126789 0.436266 0.555466
538 2 0.040428 0.465421 0.524963
540 4 0.0353187 0.444324 0.512554
539 4 0.0455373 0.486518 0.537373
383 4 0.153512 0.441018 0.515795
382 2 0.147882 0.457843 0.498176
2242 2 0.147319 0.466029 0.577781
2244 4 0.135243 0.47167 0.556627
1173 4 0.228145 0.425874 0.549102
1171 2 0.245007 0.442813 0.541759
1172 4 0.261869 0.459752 0.534416
882 4 0.277028 0.454458 0.546044
880 2 0.290594 0.473537 0.537261
881 4 0.30416 0.492616 0.528478
1000 2 0.459867 0.421392 0.581351
1910 4 0.447247 0.453629 0.583539
663 4 0.49671 0.437631 0.534259
1185 4 0.0215931 0.0355577 0.641861
945 4 0.03223 0.0487537 0.65248
825 4 0.0671828 0.00727378 0.615737
1057 2 0.0790976 0.0417677 0.592989
1058 4 0.0776119 0.0211608 0.607072
823 2 0.0802194 0.995029 0.633209
1005 4 0.31785 0.0306719 0.634266
1003 2 0.33593 0.0456934 0.642789
1004 4 0.35401 0.060715 0.651313
4467 4 0.428243 0.000907615 0.59319
2283 4 0.422413 0.0102118 0.611388
2282 4 0.462971 0.0229058 0.637745
2281 2 0.442692 0.0165588 0.624567
43 3 0.463022 0.0307764 0.657092
45 3 0.491112 0.0546444 0.649418
41 1 0.476105 0.0481146 0.665255
1198 2 0.00729183 0.15518 0.588925
1155 4 0.0819982 0.0793135 0.589654
1153 2 0.100352 0.0951515 0.595776
1154 4 0.118706 0.110989 0.601898
1221 4 0.122638 0.108513 0.621667
1219 2 0.136574 0.111478 0.642214
1220 4 0.15051 0.114443 0.662761
1210 2 0.254568 0.165394 0.651949
1211 4 0.278584 0.160167 0.656539
888 4 0.278199 0.142309 0.66712
1083 4 0.0302832 0.19355 0.586849
1199 4 0.0202976 0.176189 0.592751
1272 4 0.0895163 0.243386 0.617843
1270 2 0.103234 0.223741 0.624989
1271 4 0.116952 0.204095 0.632135
909 4 0.134792 0.19561 0.635353
907 2 0.154591 0.209488 0.641725
879 4 0.0916011 0.246174 0.598553
1212 4 0.230552 0.170621 0.647359
908 4 0.174389 0.223365 0.648097
947 4 0.185173 0.239148 0.644077
1025 4 0.397468 0.185793 0.650069
1024 2 0.407638 0.195111 0.629214
1143 4 0.378407 0.183524 0.645042
1141 2 0.361038 0.19428 0.659457
1142 4 0.343669 0.205035 0.673872
1026 4 0.417807 0.204429 0.608359
3123 4 0.459906 0.243824 0.649922
3121 2 0.480242 0.242372 0.664396
946 2 0.180185 0.261745 0.634607
948 4 0.175198 0.284342 0.625138
1237 2 0.235799 0.3184 0.595238
1238 4 0.241859 0.298789 0.609517
792 4 0.259352 0.30296 0.602562
791 4 0.304236 0.281288 0.606621
790 2 0.281794 0.292124 0.604591
1205 4 0.392905 0.311111 0.586579
954 4 0.398765 0.293239 0.579533
982 2 0.00557198 0.389858 0.612137
983 4 0.0225755 0.392835 0.630226
1041 4 0.0315978 0.4067 0.642278
992 4 0.133972 0.40289 0.607997
1239 4 0.22974 0.33801 0.580959
1204 2 0.383583 0.334148 0.589331
1206 4 0.374261 0.357185 0.592082
1039 2 0.0519339 0.417342 0.63236
1040 4 0.0722699 0.427984 0.622442
993 4 0.0919071 0.427412 0.619395
991 2 0.11294 0.415151 0.613696
2170 2 0.140301 0.484685 0.644336
2172 4 0.16157 0.472623 0.63911
2243 4 0.159396 0.460388 0.598936
2171 4 0.119033 0.496747 0.649562
1161 4 0.176936 0.450303 0.596158
1160 4 0.215814 0.471973 0.618954
1159 2 0.196375 0.461138 0.607556
890 4 0.319518 0.426535 0.623556
889 2 0.32201 0.451053 0.619332
891 4 0.324502 0.47557 0.615108
1176 4 0.267412 0.498429 0.650921
1174 2 0.248566 0.499572 0.667314
1187 4 0.306588 0.488559 0.61344
1186 2 0.295726 0.497705 0.634021
1952 4 0.345212 0.476858 0.611564
1002 4 0.453838 0.440474 0.596341
1909 2 0.434569 0.471636 0.59538
1268 4 0.43464 0.485954 0.651144
1911 4 0.42189 0.489642 0.607222
943 2 0.0379249 0.0673732 0.668166
944 4 0.0436198 0.0859928 0.683853
1075 2 0.0490281 0.0697933 0.724471
1076 4 0.0431707 0.0825217 0.703762
2319 4 0.0296986 0.0165325 0.716935
2317 2 0.00525909 0.0203508 0.720583
2285 4 0.0476298 0.0160433 0.708745
1077 4 0.0548855 0.057065 0.74518
2284 2 0.0599424 0.99603 0.717293
44 3 0.46265 0.0660335 0.671277
1163 4 0.494899 0.0558093 0.695446
42 3 0.487447 0.0407481 0.683862
32 3 0.0905519 0.154535 0.743453
1283 4 0.17062 0.121668 0.663269
1282 2 0.194226 0.126671 0.669818
1284 4 0.217832 0.131674 0.676368
1227 4 0.222009 0.149825 0.683491
1225 2 0.227955 0.160456 0.705327
886 2 0.284273 0.134668 0.69014
887 4 0.290346 0.127028 0.71316
830 4 0.295494 0.113893 0.726832
829 2 0.316554 0.100421 0.727219
978 4 0.298638 0.146437 0.739039
831 4 0.337615 0.0869495 0.727606
1146 4 0.490319 0.15149 0.749951
1144 2 0.476028 0.164715 0.734265
1107 4 0.0205896 0.194743 0.732371
1105 2 0.037158 0.180681 0.744738
851 4 0.00968203 0.21123 0.732403
822 4 0.135433 0.234147 0.726712
1278 4 0.152848 0.231646 0.716629
820 2 0.114344 0.237596 0.71373
821 4 0.0932545 0.241044 0.700748
1226 4 0.233902 0.171088 0.727162
1276 2 0.169494 0.227748 0.734875
1130 4 0.237212 0.176852 0.746346
916 2 0.303631 0.229851 0.722072
918 4 0.301814 0.204926 0.722871
977 4 0.314029 0.19383 0.73482
976 2 0.306334 0.170134 0.73693
1192 2 0.40221 0.236057 0.747559
1194 4 0.409581 0.22177 0.728408
1145 4 0.461737 0.17794 0.718579
1262 4 0.430149 0.224657 0.728577
1261 2 0.44399 0.207955 0.716141
1263 4 0.457831 0.191253 0.703705
1209 4 0.045375 0.271393 0.67953
1207 2 0.0689296 0.265309 0.685304
1208 4 0.0924841 0.259224 0.691078
1065 4 0.204691 0.264772 0.694576
1064 4 0.234063 0.301872 0.710749
1063 2 0.219377 0.283322 0.702662
917 4 0.305447 0.254776 0.721274
1097 4 0.301355 0.268848 0.734621
1008 4 0.317568 0.270132 0.746478
806 4 0.434131 0.30216 0.72851
805 2 0.420993 0.32296 0.732974
893 4 0.0548057 0.361823 0.678218
1244 4 0.0154876 0.337439 0.710257
892 2 0.0672616 0.382267 0.685433
894 4 0.0797174 0.402712 0.692648
1028 4 0.231567 0.410492 0.690726
1066 2 0.196964 0.412769 0.712488
1067 4 0.17223 0.410117 0.715013
1027 2 0.254196 0.418194 0.683392
1029 4 0.276825 0.425896 0.676058
807 4 0.407854 0.343759 0.737438
1230 4 0.366964 0.398341 0.74118
1020 4 0.416864 0.358699 0.746306
1281 4 0.0785847 0.415964 0.707492
1279 2 0.0740569 0.427199 0.729365
2020 2 0.0622869 0.500151 0.732959
1983 4 0.0280973 0.486287 0.74786
942 4 0.116067 0.428755 0.740654
940 2 0.139779 0.422287 0.736063
941 4 0.163491 0.415818 0.731471
1068 4 0.221698 0.415422 0.709964
1139 4 0.295661 0.426929 0.6708
1138 2 0.31155 0.424291 0.689924
1140 4 0.32744 0.421653 0.709049
1228 2 0.355728 0.419145 0.749312
1269 4 0.435889 0.488815 0.701054
3328 2 0.473902 0.442326 0.67675
3329 4 0.461736 0.458722 0.691183
1267 2 0.435265 0.487385 0.676099
3330 4 0.486068 0.42593 0.662316
1203 4 0.0712931 0.0533603 0.755767
1201 2 0.0784815 0.0319278 0.766452
1202 4 0.08567 0.0104954 0.777136
2049 4 0.10253 0.00392635 0.785923
1148 4 0.19192 0.0460058 0.766953
1147 2 0.21671 0.0461895 0.770212
1149 4 0.241499 0.0463733 0.77347
1049 4 0.247106 0.0577948 0.789778
1257 4 0.279721 0.0454259 0.76679
1255 2 0.293655 0.025596 0.760642
1256 4 0.307589 0.00576601 0.754494
1048 2 0.263094 0.051788 0.80804
1050 4 0.279082 0.0457812 0.826301
819 4 0.358588 0.07937 0.818585
846 4 0.465891 0.0335975 0.80359
1113 4 0.455263 0.0230745 0.79006
844 2 0.479406 0.0543835 0.800351
845 4 0.49292 0.0751696 0.797113
862 2 0.0355285 0.0952239 0.822066
832 2 0.0364172 0.137576 0.782269
863 4 0.025165 0.112131 0.806837
833 4 0.0179267 0.124382 0.792719
33 3 0.0731982 0.142324 0.774475
834 4 0.0549077 0.15077 0.771819
31 1 0.0838217 0.160456 0.764637
840 4 0.212089 0.139138 0.810376
838 2 0.234014 0.127411 0.813016
839 4 0.255939 0.115685 0.815656
959 4 0.270297 0.10448 0.826196
1084 2 0.369232 0.111937 0.798006
1085 4 0.354414 0.0983111 0.812836
1086 4 0.38405 0.125564 0.783176
1299 4 0.393225 0.142593 0.777042
1297 2 0.389983 0.16349 0.790383
3269 4 0.493484 0.1549 0.815857
3270 4 0.489073 0.140972 0.768031
3268 2 0.491279 0.147936 0.791944
1106 4 0.0537263 0.16662 0.757105
1214 4 0.0288895 0.223488 0.766454
35 3 0.0694646 0.178083 0.763295
780 4 0.0899859 0.21993 0.795611
778 2 0.0752754 0.236523 0.807163