ITEM: TIMESTEP
1120000
ITEM: NUMBER OF ATOMS
4590
ITEM: BOX BOUNDS pp pp pp
-9.9985700000000008e+00 9.9985700000000008e+00
-9.9985700000000008e+00 9.9985700000000008e+00
-9.9985700000000008e+00 9.9985700000000008e+00
ITEM: ATOMS id type xs ys zs
463 2 0.0298845 0.0638266 0.0284247
464 4 0.0323291 0.0409981 0.0185221
465 4 0.0274399 0.0866552 0.0383272
3290 4 0.0494481 0.0443091 0.00979792
1668 4 0.0819718 0.0195766 0.050484
1666 2 0.0803902 0.0391079 0.0660148
1476 4 0.220013 0.0248314 0.0687558
1474 2 0.23324 0.0233278 0.0475905
1475 4 0.246467 0.0218243 0.0264251
566 4 0.195015 0.0900595 0.0562057
492 4 0.264683 0.0322822 0.0262509
490 2 0.277592 0.0327505 0.00484268
745 2 0.457856 0.0663048 0.00570116
747 4 0.471455 0.0465094 0.0126579
2722 2 0.474635 0.0417753 0.072927
2724 4 0.474648 0.0431155 0.0479593
591 4 0.0565724 0.119613 0.0749624
701 4 0.0570302 0.113373 0.0557077
700 2 0.0441733 0.123492 0.0368006
423 4 0.0766478 0.149532 0.025611
2760 4 0.0159365 0.13733 0.0301322
702 4 0.0313163 0.133611 0.0178935
2758 2 0.00102981 0.157393 0.0307995
1133 4 0.233701 0.145671 0.00314462
360 4 0.241634 0.138582 0.0197656
358 2 0.259744 0.12629 0.0318535
359 4 0.277854 0.113998 0.0439414
665 4 0.379985 0.136202 0.00863734
664 2 0.370357 0.156597 0.997842
746 4 0.444257 0.0861002 0.998744
421 2 0.0695297 0.173129 0.0298146
553 2 0.0350006 0.212153 0.0407047
422 4 0.0624116 0.196727 0.0340183
555 4 0.0504563 0.194685 0.0497129
554 4 0.0195449 0.229622 0.0316966
2835 4 0.0114799 0.218102 0.0169031
506 4 0.168086 0.225005 0.0689523
737 4 0.179942 0.221785 0.0832156
353 4 0.277091 0.223739 0.0751183
461 4 0.294482 0.214558 0.0719259
1014 4 0.485195 0.190998 0.0146664
324 4 0.440599 0.237932 0.0600937
322 2 0.418493 0.236496 0.0716875
1170 4 0.057649 0.319742 0.00961149
1056 4 0.0513543 0.300292 0.00349805
294 4 0.141668 0.30971 0.0212229
456 4 0.140934 0.320181 0.0382302
292 2 0.162014 0.297105 0.0284581
505 2 0.174836 0.245791 0.0568049
507 4 0.181586 0.266576 0.0446575
293 4 0.182359 0.2845 0.0356933
481 2 0.245084 0.293584 0.0247863
482 4 0.246963 0.292464 0.049694
1071 4 0.39349 0.259256 0.0367629
1069 2 0.398139 0.259668 0.0121986
573 4 0.380926 0.262527 0.051598
571 2 0.37015 0.265911 0.0739049
328 2 0.0280863 0.390519 0.00347973
329 4 0.0268857 0.369028 0.990757
454 2 0.131872 0.33823 0.0529705
455 4 0.12281 0.35628 0.0677107
252 4 0.282452 0.395786 0.0760093
250 2 0.289678 0.413317 0.0597121
227 4 0.405464 0.397843 0.0155281
281 4 0.43711 0.36269 0.0659824
671 4 0.433597 0.367564 0.0848753
280 2 0.459875 0.356847 0.0574514
282 4 0.482641 0.351005 0.0489203
226 2 0.424049 0.413916 0.0201583
330 4 0.029287 0.41201 0.0162027
550 2 0.0400785 0.493329 0.0647799
552 4 0.0466328 0.470274 0.0718982
314 4 0.0357219 0.453925 0.0697309
246 4 0.230153 0.488254 0.0211981
251 4 0.296905 0.430849 0.0434149
524 4 0.358824 0.44209 0.0720828
228 4 0.442634 0.429989 0.0247885
19 3 0.0409179 0.0314995 0.134178
20 3 0.074854 0.019425 0.123214
1422 4 0.0225547 0.0210745 0.159579
16 1 0.0638331 0.0338502 0.136966
17 3 0.0697953 0.0554246 0.13166
2480 4 0.0212488 0.0289543 0.139827
2479 2 0.999085 0.0295831 0.128271
18 3 0.0695933 0.0296926 0.159055
1667 4 0.0788087 0.0586392 0.0815455
590 4 0.0369687 0.0911987 0.111143
565 2 0.18458 0.0852065 0.0784033
567 4 0.174145 0.0803536 0.100601
652 2 0.250454 0.0350014 0.150685
450 4 0.173051 0.0714909 0.146915
654 4 0.259721 0.0337443 0.127496
484 2 0.323296 0.0173974 0.143089
582 4 0.306361 0.0558703 0.139064
580 2 0.296837 0.0717133 0.155901
297 4 0.327891 0.0350562 0.101681
486 4 0.3183 0.00612174 0.164839
485 4 0.328292 0.028673 0.121339
296 4 0.368621 0.0630599 0.109269
295 2 0.348256 0.0490581 0.105475
758 4 0.365287 0.0835597 0.155269
557 4 0.36655 0.079527 0.0971218
2723 4 0.474621 0.0404351 0.0978946
589 2 0.0467705 0.105406 0.0930528
448 2 0.157509 0.0895007 0.154613
236 4 0.145474 0.124513 0.172512
558 4 0.375667 0.128421 0.0919254
556 2 0.371108 0.103974 0.0945236
771 4 0.459894 0.122797 0.0861885
769 2 0.480227 0.135768 0.0927836
770 4 0.50056 0.148739 0.0993788
339 4 0.095439 0.241207 0.106992
352 2 0.25794 0.210268 0.0838879
477 4 0.156785 0.171444 0.129436
354 4 0.238788 0.196796 0.0926575
475 2 0.173444 0.189502 0.134082
738 4 0.222636 0.203236 0.101488
736 2 0.201289 0.21251 0.0923517
476 4 0.190102 0.20756 0.138729
460 2 0.311293 0.207438 0.0890102
462 4 0.328104 0.200318 0.106094
255 4 0.33558 0.208369 0.123801
277 2 0.273684 0.235691 0.147859
278 4 0.281344 0.248074 0.127533
254 4 0.385257 0.212189 0.12808
630 4 0.395663 0.197274 0.119734
253 2 0.360419 0.210279 0.12594
628 2 0.418169 0.207937 0.117499
323 4 0.396386 0.23506 0.0832814
624 4 0.43888 0.238332 0.121279
629 4 0.440674 0.2186 0.115264
338 4 0.067859 0.264218 0.141785
337 2 0.081649 0.252712 0.124388
610 2 0.232372 0.328903 0.116224
611 4 0.229949 0.316433 0.13776
755 4 0.287183 0.267708 0.127033
754 2 0.305304 0.266148 0.109876
756 4 0.323425 0.264587 0.0927184
572 4 0.359373 0.269294 0.0962117
741 4 0.361788 0.289864 0.0999745
739 2 0.350263 0.311862 0.10288
622 2 0.442594 0.256939 0.137564
623 4 0.446307 0.275545 0.153849
596 4 0.479565 0.330158 0.146791
527 4 0.447658 0.260608 0.166289
315 4 0.0492372 0.412897 0.0949253
621 4 0.0509469 0.392637 0.0930251
619 2 0.0558793 0.386609 0.116785
620 4 0.0608116 0.38058 0.140544
647 4 0.0792846 0.371505 0.137771
646 2 0.0948208 0.379051 0.15585
612 4 0.234795 0.341373 0.0946872
535 2 0.171214 0.359367 0.154376
609 4 0.237115 0.361984 0.0969197
537 4 0.179378 0.352783 0.131678
608 4 0.279918 0.375613 0.074945
607 2 0.258517 0.368798 0.0859324
387 4 0.321584 0.368206 0.139226
302 4 0.332397 0.383877 0.145132
385 2 0.335597 0.359935 0.120242
301 2 0.328994 0.407624 0.152181
740 4 0.338739 0.33386 0.105786
386 4 0.34961 0.351664 0.101257
672 4 0.417966 0.342438 0.125187
12 3 0.414331 0.358861 0.137171
11 1 0.410223 0.369079 0.157368
14 3 0.420374 0.389944 0.15742
495 4 0.431269 0.395606 0.142837
670 2 0.425781 0.355001 0.105031
595 2 0.459501 0.339023 0.158792
313 2 0.0424796 0.433411 0.0823281
1789 2 0.0736249 0.495969 0.108782
1790 4 0.0883597 0.497587 0.088646
626 4 0.189792 0.432563 0.123174
625 2 0.197857 0.454682 0.131594
627 4 0.205922 0.476801 0.140014
638 4 0.237559 0.480069 0.158011
637 2 0.256161 0.494632 0.149823
525 4 0.331322 0.449882 0.113115
523 2 0.345073 0.445986 0.0925987
303 4 0.32559 0.431371 0.15923
1559 4 0.356738 0.496047 0.101291
493 2 0.425784 0.419202 0.136648
494 4 0.420299 0.442798 0.130458
1420 2 0.0234553 4.61633e-05 0.173076
690 4 0.147378 0.0276858 0.246922
688 2 0.159936 0.0206224 0.226487
1505 4 0.174274 0.993464 0.207092
653 4 0.241188 0.0362585 0.173874
693 4 0.237019 0.0513092 0.185479
691 2 0.224763 0.0400969 0.204167
692 4 0.212506 0.0288846 0.222855
689 4 0.172494 0.0135589 0.206052
1700 4 0.331564 0.0376758 0.23908
581 4 0.287312 0.0875562 0.172737
1699 2 0.308555 0.0471265 0.236535
1701 4 0.285547 0.0565771 0.233989
21 1 0.35897 0.0697294 0.239966
25 3 0.36772 0.0667057 0.219159
759 4 0.359405 0.0756461 0.204295
757 2 0.362346 0.0796029 0.179782
23 3 0.345663 0.0515971 0.245671
1759 2 0.46743 0.998051 0.164756
1760 4 0.489988 0.00866676 0.162849
449 4 0.141967 0.107511 0.162312
235 2 0.155807 0.141732 0.18741
237 4 0.166141 0.15895 0.202307
546 4 0.195056 0.127819 0.243735
28 3 0.275925 0.101578 0.2258
30 3 0.279461 0.0953053 0.188844
26 1 0.288798 0.105557 0.20691
29 3 0.290422 0.128387 0.203096
27 3 0.309899 0.0970751 0.210369
24 3 0.34643 0.0892444 0.240523
311 4 0.425395 0.16393 0.199991
312 4 0.420354 0.114199 0.201467
310 2 0.422875 0.139064 0.200729
513 4 0.0369164 0.169695 0.228804
511 2 0.0196048 0.169523 0.210764
577 2 0.0760543 0.163979 0.222238
578 4 0.0524951 0.158535 0.228603
381 4 0.993219 0.159522 0.177283
579 4 0.0996135 0.169423 0.215873
371 4 0.1532 0.262053 0.249937
279 4 0.266024 0.223308 0.168186
284 4 0.261536 0.209715 0.238777
283 2 0.266542 0.228646 0.223229
765 4 0.376362 0.207666 0.260161
2591 4 0.500848 0.211466 0.194656
522 4 0.486018 0.209864 0.254928
394 2 0.0952096 0.281505 0.210634
396 4 0.0900737 0.282493 0.235084
443 4 0.0710547 0.283203 0.241994
703 2 0.0164737 0.312049 0.207207
704 4 0.0250294 0.2887 0.204598
395 4 0.100345 0.280517 0.186183
363 4 0.114338 0.279725 0.172323
362 4 0.158715 0.258505 0.181327
361 2 0.136527 0.269115 0.176825
372 4 0.16336 0.26349 0.200995
370 2 0.15828 0.262772 0.225466
345 4 0.249217 0.3097 0.208887
343 2 0.267833 0.305957 0.225154
344 4 0.286449 0.302213 0.241421
309 4 0.294929 0.310718 0.257163
285 4 0.271549 0.247576 0.207681
526 2 0.452295 0.26802 0.189714
528 4 0.456931 0.275432 0.213139
705 4 0.00791808 0.335398 0.209815
748 2 0.0762054 0.359547 0.257252
750 4 0.100415 0.36214 0.251565
300 4 0.124415 0.376976 0.184217
648 4 0.110357 0.386598 0.173929
298 2 0.12507 0.368362 0.20768
299 4 0.125725 0.359748 0.231144
536 4 0.163051 0.365951 0.177074
290 4 0.212715 0.396674 0.222626
15 3 0.38774 0.371369 0.16018
597 4 0.439438 0.347888 0.170794
13 3 0.419028 0.355943 0.174348
643 2 0.446785 0.380803 0.200121
644 4 0.459617 0.398343 0.212485
645 4 0.433953 0.363263 0.187757
447 4 0.468331 0.399975 0.230598
263 4 0.0342289 0.474423 0.206061
262 2 0.0437788 0.45158 0.202575
264 4 0.0533287 0.428736 0.199089
1430 4 0.173193 0.490948 0.183397
415 2 0.167866 0.451795 0.197286
416 4 0.156433 0.43149 0.206351
417 4 0.179299 0.4721 0.188222
289 2 0.222808 0.419522 0.223753
291 4 0.232902 0.44237 0.224881
766 2 0.224859 0.466384 0.198002
768 4 0.223653 0.460017 0.222151
767 4 0.226064 0.472751 0.173853
414 4 0.215316 0.446321 0.261236
659 4 0.332633 0.439187 0.176919
660 4 0.343595 0.471353 0.213606
658 2 0.338114 0.45527 0.195262
231 4 0.34919 0.488737 0.224365
445 2 0.457195 0.415635 0.246596
674 4 0.137165 0.0306607 0.263771
673 2 0.141568 0.0518343 0.27632
675 4 0.145971 0.0730079 0.288869
605 4 0.142682 0.0256191 0.326928
1406 4 0.240017 0.00293259 0.305614
1518 4 0.363799 0.0024811 0.296638
697 2 0.381449 0.0264652 0.275764
699 4 0.382653 0.00468081 0.287978
698 4 0.380244 0.0482495 0.263551
22 3 0.376107 0.0714653 0.255213
333 4 0.39099 0.0682991 0.272014
331 2 0.41151 0.0818997 0.276388
633 4 0.357228 0.0766975 0.328206
1747 2 0.45923 0.000382687 0.334813
743 4 0.484807 0.036938 0.285078
742 2 0.48622 0.0148639 0.273419
351 4 0.483726 0.0547409 0.274676
349 2 0.468001 0.0735305 0.27966
480 4 0.483928 0.0296373 0.335531
1749 4 0.465197 0.0244063 0.33834
399 4 0.138011 0.149449 0.320196
545 4 0.160737 0.159662 0.261312
722 4 0.2118 0.128438 0.255056
544 2 0.177897 0.143741 0.252523
723 4 0.241595 0.0897667 0.244214
721 2 0.226698 0.109102 0.249635
599 4 0.211116 0.142662 0.295142
404 4 0.228571 0.154178 0.295009
598 2 0.201462 0.130414 0.314686
600 4 0.191808 0.118165 0.334229
249 4 0.298509 0.105837 0.325765
247 2 0.322401 0.0987768 0.323649
248 4 0.346294 0.0917166 0.321534
332 4 0.43203 0.0955002 0.280761
350 4 0.452275 0.09232 0.284645
762 4 0.465108 0.107743 0.286521
760 2 0.451222 0.123923 0.29958
761 4 0.437336 0.140104 0.312639
529 2 0.00556806 0.193341 0.272264
530 4 0.00783501 0.203749 0.294886
393 4 0.133221 0.166988 0.311037
392 4 0.16233 0.176419 0.271484
391 2 0.147775 0.171704 0.29126
403 2 0.235267 0.176605 0.286212
405 4 0.241963 0.199032 0.277415
401 4 0.231635 0.215273 0.282072
400 2 0.212176 0.230958 0.28281
402 4 0.192718 0.246642 0.283549
763 2 0.400741 0.209402 0.265437
420 4 0.411597 0.205782 0.333867
520 2 0.46108 0.211638 0.254628
521 4 0.436141 0.213413 0.254329
764 4 0.42512 0.211139 0.270712
444 4 0.0361143 0.31379 0.26055
442 2 0.0535845 0.298497 0.251272
390 4 0.094943 0.275612 0.321593
307 2 0.301147 0.328403 0.273709
497 4 0.312542 0.332967 0.306425
496 2 0.317116 0.321552 0.328196
541 2 0.442253 0.319316 0.291501
542 4 0.453574 0.297032 0.292151
749 4 0.0519956 0.356955 0.262939
365 4 0.0214539 0.394397 0.302609
2493 4 0.015566 0.396352 0.321519
364 2 0.0270722 0.376462 0.286118
366 4 0.0326905 0.358528 0.269626
549 4 0.0402209 0.402463 0.306403
547 2 0.0508821 0.404342 0.328942
734 4 0.119487 0.367952 0.247896
601 2 0.11174 0.395381 0.323153
733 2 0.137405 0.367154 0.265316
602 4 0.122822 0.404364 0.302619
735 4 0.155324 0.366355 0.282737
777 4 0.106826 0.416087 0.301789
677 4 0.152048 0.368271 0.303574
676 2 0.164252 0.354058 0.320134
308 4 0.307365 0.346088 0.290255
729 4 0.315958 0.363108 0.295242
727 2 0.31632 0.384449 0.308266
728 4 0.316683 0.405789 0.321289
613 2 0.404243 0.356942 0.304781
434 4 0.336981 0.407926 0.327575
615 4 0.412681 0.346141 0.283869
543 4 0.430931 0.3416 0.290851
1757 4 0.103972 0.459662 0.255365
499 2 0.134602 0.497067 0.319328
1756 2 0.0972267 0.483384 0.259482
776 4 0.0927368 0.450073 0.267919
775 2 0.0997813 0.43308 0.284854
500 4 0.113061 0.488725 0.309758
1543 2 0.19891 0.504232 0.317286
413 4 0.198342 0.492781 0.268589
412 2 0.206829 0.469551 0.264912
1436 4 0.239329 0.492929 0.308092
1545 4 0.221779 0.501782 0.307477
1435 2 0.25958 0.480813 0.316356
438 4 0.339331 0.477971 0.29581
437 4 0.292257 0.494842 0.296109
436 2 0.315794 0.486406 0.295959
3 3 0.267313 0.433041 0.329137
2 3 0.302484 0.420146 0.32608
1437 4 0.279831 0.468697 0.324619
5 3 0.295385 0.456175 0.31942
1 1 0.289707 0.438247 0.332264
713 4 0.40276 0.465501 0.24479
712 2 0.417695 0.451601 0.259244
446 4 0.44606 0.431294 0.262595
714 4 0.432629 0.437701 0.273699
120 3 0.504684 0.413059 0.294022
232 2 0.0247352 0.0237323 0.323243
234 4 0.0213471 0.0464016 0.333233
317 4 0.0344551 0.0605041 0.332185
429 4 0.0864885 0.00114437 0.371304
606 4 0.158048 0.99574 0.363966
731 4 0.0958265 0.065776 0.378831
428 4 0.101794 0.0487231 0.369654
427 2 0.0941413 0.0249337 0.370479
604 2 0.150365 0.0106793 0.345447
730 2 0.109326 0.0825453 0.366114
682 2 0.239232 0.0448023 0.393742
684 4 0.218906 0.0459775 0.379228
683 4 0.259558 0.0436271 0.408256
425 4 0.40547 0.0399348 0.38268
632 4 0.385145 0.0926089 0.366523
631 2 0.371186 0.0846532 0.347365
256 2 0.461159 0.0760897 0.336537
424 2 0.422263 0.0425488 0.364341
2879 4 0.483745 0.0372028 0.388338
426 4 0.439057 0.0451628 0.346002
258 4 0.448414 0.0550416 0.332096
2878 2 0.473414 0.056998 0.39959
316 2 0.0384082 0.0849855 0.32899
318 4 0.0423613 0.109467 0.325794
397 2 0.125657 0.131982 0.333138
398 4 0.113304 0.114516 0.346079
732 4 0.122826 0.0993147 0.353396
686 4 0.185992 0.142026 0.387173
685 2 0.194426 0.127198 0.368892
687 4 0.20286 0.112371 0.350611
321 4 0.243924 0.145843 0.419457
319 2 0.25208 0.12221 0.419792
257 4 0.473904 0.0971377 0.340979
453 4 0.503519 0.159675 0.405457
2653 2 0.999834 0.212793 0.367294
2654 4 0.0101583 0.195577 0.352388
617 4 0.0628855 0.250944 0.392193
274 2 0.154614 0.243227 0.352548
275 4 0.175327 0.229258 0.351517
474 4 0.190551 0.232532 0.338235
472 2 0.209263 0.223358 0.352051
473 4 0.227975 0.214184 0.365866
708 4 0.243209 0.202919 0.360402
707 4 0.279002 0.221969 0.38967
706 2 0.261106 0.212444 0.375036
418 2 0.389966 0.216848 0.339768
419 4 0.368335 0.227915 0.345669
716 4 0.356557 0.216961 0.356371
715 2 0.349057 0.23296 0.374062
717 4 0.341557 0.248959 0.391753
515 4 0.489457 0.173341 0.407143
269 4 0.486254 0.232535 0.361484
268 2 0.478394 0.245891 0.381106
270 4 0.470534 0.259246 0.400729
618 4 0.0169163 0.270629 0.392073
616 2 0.0399009 0.260786 0.392133
347 4 0.999926 0.277983 0.39945
346 2 0.000870609 0.299207 0.412635
388 2 0.110013 0.274535 0.341515
276 4 0.133902 0.257195 0.353579
389 4 0.125083 0.273458 0.361438
508 2 0.250097 0.289473 0.36148
509 4 0.250489 0.264604 0.364042
510 4 0.249704 0.314342 0.358918
374 4 0.241637 0.327402 0.372745
488 4 0.314287 0.261792 0.398669
377 4 0.330989 0.265571 0.39001
376 2 0.3348 0.285619 0.375561
378 4 0.338611 0.305666 0.361113
498 4 0.321691 0.310138 0.349967
267 4 0.345089 0.246702 0.412761
407 4 0.0676177 0.40921 0.370943
548 4 0.0615433 0.406222 0.35148
603 4 0.100658 0.386397 0.343688
710 4 0.154352 0.413803 0.424151
678 4 0.176455 0.339844 0.336694
502 2 0.221638 0.407612 0.406524
504 4 0.236797 0.387735 0.407045
373 2 0.241536 0.349109 0.385155
375 4 0.241435 0.370816 0.397564
433 2 0.348399 0.403623 0.349399
614 4 0.395805 0.367743 0.325693
334 2 0.36537 0.404894 0.403189
435 4 0.359817 0.39932 0.371223
335 4 0.372607 0.381925 0.409916
561 4 0.468789 0.415104 0.403649
406 2 0.0694788 0.429584 0.385317
408 4 0.0713399 0.449958 0.399691
503 4 0.206478 0.427489 0.406003
636 4 0.204087 0.448007 0.403575
668 4 0.303561 0.456666 0.364889
4 3 0.293697 0.442953 0.354633
667 2 0.323414 0.447162 0.376751
587 4 0.390805 0.468453 0.413087
669 4 0.343267 0.437658 0.388614
336 4 0.358133 0.427862 0.396462
752 4 0.471247 0.427753 0.388403
593 4 0.45011 0.471215 0.368343
751 2 0.485783 0.428838 0.368088
592 2 0.444202 0.49551 0.368488
719 4 0.0814156 0.03933 0.489525
718 2 0.0606855 0.0363066 0.503175
368 4 0.104281 0.0163454 0.43396
367 2 0.115725 0.0308631 0.450796
369 4 0.12717 0.0453809 0.467631
2429 4 0.250949 0.0271429 0.444876
2428 2 0.230781 0.0164575 0.455085
341 4 0.235887 0.0784612 0.479609
2430 4 0.210612 0.00577219 0.465294
1182 4 0.256183 0.073711 0.478962
340 2 0.213404 0.086036 0.487503
342 4 0.190921 0.0936107 0.495397
439 2 0.275925 0.015094 0.419878
441 4 0.261888 0.0339673 0.428359
430 2 0.328449 0.0773276 0.491347
726 4 0.312542 0.0724688 0.452117
1180 2 0.259682 0.0520926 0.491028
432 4 0.315512 0.0787913 0.470001
1181 4 0.26318 0.0304742 0.503093
2880 4 0.463084 0.0767932 0.410841
1033 2 0.0823401 0.151664 0.504517
1035 4 0.0615078 0.160112 0.493571
467 4 0.310829 0.156292 0.412309
724 2 0.292066 0.0847399 0.444679
725 4 0.271589 0.0970111 0.437241
320 4 0.260236 0.0985765 0.420128
466 2 0.329671 0.141917 0.42028
468 4 0.348513 0.127542 0.428251
576 4 0.404972 0.165668 0.472618
3159 4 0.501397 0.158865 0.492604
514 2 0.470361 0.169236 0.422752
642 4 0.468428 0.0898085 0.425591
574 2 0.420488 0.15848 0.454376
641 4 0.455602 0.127185 0.456238
640 2 0.462015 0.108497 0.440915
3158 4 0.460719 0.138222 0.472113
3157 2 0.481058 0.148544 0.482359
575 4 0.436004 0.151292 0.436133
516 4 0.451264 0.165131 0.438361
471 4 0.0651673 0.231858 0.492452
469 2 0.0499606 0.217962 0.47828
470 4 0.0347539 0.204066 0.464108
261 4 0.121755 0.202392 0.49101
260 4 0.0955889 0.198832 0.448544
259 2 0.108672 0.200612 0.469777
938 4 0.119542 0.183794 0.498074
650 4 0.247182 0.223525 0.465314
411 4 0.263805 0.216294 0.470332
409 2 0.262851 0.196056 0.484984
649 2 0.252816 0.239829 0.447214
348 4 0.00181475 0.320431 0.425819
2814 4 0.999026 0.32216 0.444801
695 4 0.113004 0.279887 0.45593
694 2 0.118368 0.28078 0.480335
1260 4 0.144797 0.284241 0.500132
696 4 0.123731 0.281674 0.50474
487 2 0.294263 0.265656 0.413135
489 4 0.274239 0.269521 0.427601
651 4 0.258449 0.256134 0.429113
265 2 0.35581 0.263924 0.427378
266 4 0.36653 0.281145 0.441995
585 4 0.393157 0.27763 0.427633
304 2 0.501018 0.265992 0.430908
306 4 0.479875 0.261102 0.418489
2455 2 0.466702 0.30143 0.463374
2456 4 0.443869 0.293089 0.457523
583 2 0.417161 0.281001 0.433764
584 4 0.441166 0.284373 0.439895
2813 4 0.0100296 0.370939 0.445252
2812 2 0.00452759 0.34655 0.445026
326 4 0.0821526 0.380096 0.46771
10 3 0.162745 0.338215 0.48361
7 3 0.138401 0.365841 0.47752
327 4 0.130168 0.369186 0.458979
325 2 0.10616 0.374641 0.463345
6 1 0.160283 0.359182 0.475068
709 2 0.16131 0.390322 0.42919
711 4 0.168267 0.36684 0.43423
8 3 0.165649 0.359215 0.452493
9 3 0.173969 0.37404 0.486485
804 4 0.285924 0.396343 0.490565
238 2 0.370133 0.371978 0.447648
240 4 0.36181 0.384278 0.427533
239 4 0.378456 0.359677 0.467763
2508 4 0.495325 0.369795 0.44422
559 2 0.475206 0.399275 0.42191
560 4 0.481622 0.383445 0.44017
681 4 0.0350683 0.476215 0.427667
680 4 0.00385002 0.48844 0.464771
1383 4 0.0133641 0.477856 0.477382
679 2 0.0194591 0.482328 0.446219
570 4 0.140642 0.427576 0.427346
568 2 0.126437 0.43812 0.445016
569 4 0.112233 0.448664 0.462686
384 4 0.11335 0.435638 0.477161
634 2 0.205553 0.456748 0.426956
635 4 0.207019 0.465488 0.450336
772 2 0.214446 0.445518 0.486967
774 4 0.203162 0.459677 0.469722
773 4 0.22573 0.431359 0.504211
1454 4 0.308831 0.4803 0.501828
881 4 0.292849 0.47296 0.493214
588 4 0.380094 0.452116 0.45912
1399 2 0.355976 0.469148 0.481575
1400 4 0.370283 0.449534 0.475594
586 2 0.38545 0.460284 0.436103
1401 4 0.341668 0.488762 0.487556
1126 2 0.00693524 0.041249 0.517583
1127 4 0.02516 0.0313046 0.503649
720 4 0.0399554 0.0332832 0.516824
1059 4 0.1205 0.0816174 0.576434
951 4 0.203851 0.0545738 0.576238
1031 4 0.222145 0.0607533 0.570392
1030 2 0.243527 0.0570613 0.582815
961 2 0.302343 0.0282844 0.530421
962 4 0.295514 0.0119232 0.548052
963 4 0.309172 0.0446456 0.51279
1032 4 0.26491 0.0533693 0.595238
841 2 0.375124 0.0736326 0.533132
843 4 0.355151 0.0637882 0.521758
842 4 0.395096 0.0834769 0.544506
4466 4 0.465932 0.018692 0.569583
1218 4 0.45617 0.0796046 0.538569
4465 2 0.450984 0.0375313 0.576425
4467 4 0.436036 0.0563707 0.583268
1062 4 0.483181 0.0252311 0.579777
1034 4 0.103172 0.143217 0.515464
939 4 0.146791 0.150324 0.523333
1151 4 0.142182 0.131145 0.524346
1150 2 0.157584 0.116964 0.510677
1152 4 0.172986 0.102783 0.497007
899 4 0.321885 0.136233 0.557263
857 4 0.303803 0.144503 0.554658
856 2 0.282954 0.15435 0.56433
1217 4 0.407307 0.0838451 0.528813
898 2 0.340478 0.150591 0.565825
431 4 0.341386 0.075864 0.512693
900 4 0.359072 0.16495 0.574387
1216 2 0.431739 0.0817248 0.533691
1199 4 0.0169994 0.187603 0.562217
878 4 0.0812007 0.249316 0.558383
877 2 0.0791014 0.235945 0.579406
937 2 0.133166 0.167059 0.510703
797 4 0.258347 0.182269 0.582091
858 4 0.262105 0.164196 0.574001
410 4 0.261897 0.175818 0.499636
871 2 0.352321 0.219807 0.55572
872 4 0.360849 0.199011 0.544766
873 4 0.343794 0.240603 0.566674
905 4 0.476569 0.236316 0.597427
904 2 0.501064 0.240546 0.600118
1258 2 0.164005 0.274092 0.51251
1259 4 0.183213 0.263943 0.524888
1239 4 0.248931 0.331098 0.547414
812 4 0.331704 0.295284 0.527973
1237 2 0.25838 0.316778 0.565603
813 4 0.334396 0.252789 0.554196
811 2 0.33305 0.274036 0.541084
1137 4 0.134304 0.371358 0.578578
895 2 0.161101 0.356732 0.569693
1189 2 0.217653 0.381682 0.54446
896 4 0.185587 0.36154 0.568108
1191 4 0.198999 0.373871 0.559164
803 4 0.250659 0.377034 0.520301
1190 4 0.236307 0.389493 0.529757
802 2 0.268291 0.386688 0.505433
1173 4 0.256805 0.413882 0.566298
928 2 0.362515 0.375398 0.569961
930 4 0.384049 0.363597 0.574671
929 4 0.34098 0.387199 0.56525
925 2 0.453313 0.391902 0.529185
926 4 0.437119 0.403889 0.543992
927 4 0.469506 0.379915 0.514377
1001 4 0.444095 0.414493 0.559499
538 2 0.0535388 0.488693 0.542739
540 4 0.0548265 0.464533 0.549051
383 4 0.105766 0.426435 0.525725
382 2 0.109558 0.431036 0.501443
2243 4 0.174559 0.495501 0.580954
1171 2 0.270602 0.423283 0.547686
1172 4 0.2844 0.432685 0.529074
882 4 0.289788 0.426629 0.511783
880 2 0.291319 0.449795 0.502499
1952 4 0.302013 0.486298 0.580939
1000 2 0.459154 0.433592 0.565297
1909 2 0.457319 0.486616 0.58173
1910 4 0.456972 0.462007 0.577316
663 4 0.491399 0.446223 0.511564
1185 4 0.0257801 0.0428049 0.645909
945 4 0.0425933 0.0345335 0.651616
1183 2 0.00188943 0.0497636 0.643461
1058 4 0.1111 0.0353213 0.592836
1057 2 0.1158 0.0584694 0.584635
823 2 0.127444 0.00333388 0.606005
825 4 0.110352 0.0214892 0.607855
950 4 0.173925 0.0637604 0.615234
949 2 0.188888 0.0591671 0.595736
1004 4 0.365079 0.05018 0.631677
1003 2 0.357917 0.0495914 0.655626
2283 4 0.425604 0.0617988 0.599426
2282 4 0.442209 0.0635437 0.646564
2281 2 0.433906 0.0626713 0.622995
810 4 0.493236 0.0615887 0.641224
43 3 0.455949 0.0498935 0.654872
45 3 0.493039 0.0520202 0.660994
1082 4 0.0605376 0.153418 0.61219
1081 2 0.0413402 0.137623 0.609516
1083 4 0.0221428 0.121828 0.606843
1155 4 0.130643 0.0885503 0.592118
1153 2 0.151583 0.101919 0.589289
1154 4 0.172522 0.115287 0.586459
1221 4 0.186403 0.128213 0.586579
1219 2 0.206863 0.13085 0.600708
1220 4 0.227323 0.133486 0.614836
1212 4 0.234689 0.14501 0.630044
1283 4 0.202397 0.0931602 0.656028
1210 2 0.2461 0.133097 0.648834
879 4 0.0770022 0.222573 0.60043
1209 4 0.0859409 0.240972 0.668501
1272 4 0.0763894 0.20527 0.612264
1270 2 0.0984185 0.198282 0.621807
1271 4 0.120448 0.191293 0.63135
909 4 0.13379 0.205063 0.639316
907 2 0.158763 0.205154 0.638071
908 4 0.183735 0.205245 0.636825
796 2 0.262467 0.206927 0.582566
798 4 0.266586 0.231584 0.583042
1142 4 0.341892 0.164975 0.643603
1141 2 0.365002 0.170695 0.651245
1143 4 0.388112 0.176414 0.658887
1026 4 0.433013 0.191609 0.624634
1024 2 0.41634 0.192134 0.64326
1244 4 0.0658121 0.312042 0.666321
947 4 0.217494 0.248151 0.632001
948 4 0.188469 0.288732 0.628617
946 2 0.202982 0.268442 0.630309
1238 4 0.26783 0.302459 0.583792
792 4 0.264232 0.304772 0.603795
791 4 0.256692 0.266832 0.635488
790 2 0.260462 0.285802 0.619642
953 4 0.457038 0.239264 0.601042
952 2 0.450354 0.263293 0.599284
954 4 0.44367 0.287323 0.597526
983 4 0.0249015 0.398391 0.645961
1039 2 0.0655297 0.399898 0.627738
1041 4 0.0414642 0.401666 0.634288
982 2 0.00631207 0.383497 0.638359
897 4 0.136615 0.351924 0.571277
1040 4 0.0895952 0.39813 0.621187
1135 2 0.117492 0.384395 0.591714
1136 4 0.100679 0.397432 0.604851
993 4 0.0996551 0.407868 0.635104
991 2 0.120083 0.402634 0.648538
1206 4 0.397568 0.349487 0.570813
1204 2 0.409415 0.357383 0.591367
1205 4 0.421262 0.365279 0.611921
2170 2 0.125903 0.489118 0.652329
2172 4 0.124662 0.464978 0.658724
1160 4 0.217158 0.453286 0.605609
1159 2 0.19816 0.464868 0.594204
1161 4 0.179161 0.476451 0.582798
1187 4 0.25771 0.495692 0.595259
890 4 0.308103 0.421223 0.604728
889 2 0.306758 0.444114 0.594761
891 4 0.305412 0.467006 0.584795
1002 4 0.474213 0.452692 0.571095
2317 2 0.0023445 0.0120557 0.694693
2319 4 0.0266646 0.0175882 0.692932
943 2 0.0510593 0.0391737 0.67468
944 4 0.0595254 0.0438138 0.697745
1075 2 0.0578429 0.0616945 0.733478
1076 4 0.0537928 0.0597646 0.70888
1203 4 0.0735781 0.0478254 0.767163
1005 4 0.350754 0.0490029 0.679574
41 1 0.472563 0.0583877 0.668665
1163 4 0.485992 0.0576338 0.698247
42 3 0.469528 0.0501263 0.689918
44 3 0.471216 0.0815418 0.669354
1105 2 0.0625887 0.171114 0.710204
1106 4 0.07912 0.163359 0.727285
35 3 0.0974796 0.168788 0.734893
1282 2 0.20065 0.104379 0.678306
1284 4 0.198902 0.115597 0.700583
1227 4 0.211745 0.129531 0.708388
1225 2 0.210357 0.123178 0.732531
1211 4 0.257511 0.121184 0.667624
888 4 0.277642 0.119886 0.669915
886 2 0.294255 0.130377 0.685379
887 4 0.310868 0.140868 0.700842
830 4 0.309548 0.157672 0.691637
1178 4 0.991807 0.24193 0.695089
1107 4 0.0460574 0.178869 0.693123
851 4 0.0304956 0.186457 0.70492
852 4 0.00713605 0.230367 0.699732
850 2 0.0188158 0.208412 0.702326
1207 2 0.0673558 0.252333 0.680777
822 4 0.140259 0.218358 0.735057
820 2 0.118354 0.22761 0.727328
821 4 0.0964482 0.236861 0.719599
1278 4 0.160061 0.219382 0.738646
829 2 0.327696 0.166304 0.706513
918 4 0.308144 0.231653 0.752343
976 2 0.290162 0.196665 0.74184
977 4 0.291861 0.220893 0.747783
831 4 0.345844 0.174937 0.72139
1193 4 0.369845 0.244678 0.675832
1192 2 0.386031 0.238714 0.693933
1194 4 0.402216 0.23275 0.712034
1025 4 0.399667 0.192659 0.661885
1262 4 0.421066 0.236572 0.706231
3356 4 0.498227 0.205376 0.710706
3355 2 0.497333 0.223988 0.694033
1261 2 0.434689 0.216694 0.712897
1263 4 0.448312 0.196815 0.719563
1145 4 0.467953 0.201934 0.715768
1144 2 0.476334 0.186902 0.733905
1214 4 0.994485 0.250981 0.747673
1243 2 0.0425122 0.303578 0.669585
1179 4 0.0031208 0.286602 0.675671
1177 2 0.997464 0.264266 0.68538
1245 4 0.0192124 0.295114 0.67285
1208 4 0.0487707 0.263694 0.693053
1064 4 0.256833 0.258394 0.709019
1063 2 0.257263 0.27938 0.695432
1065 4 0.257693 0.300365 0.681845
806 4 0.404269 0.28825 0.704194
805 2 0.413629 0.311429 0.703664
807 4 0.422989 0.334609 0.703135
892 2 0.0774635 0.409899 0.687682
1280 4 0.0478384 0.406156 0.729734
992 4 0.140512 0.397401 0.661972
894 4 0.0779367 0.385113 0.690945
942 4 0.133339 0.407575 0.752209
1068 4 0.212836 0.401551 0.68712
1066 2 0.189991 0.410965 0.690945
1067 4 0.167145 0.420379 0.69477
1140 4 0.322147 0.391451 0.717533
1138 2 0.306736 0.406234 0.704528
1018 2 0.415871 0.348244 0.745847
1020 4 0.41679 0.342511 0.721527
1281 4 0.038773 0.455331 0.729102
1279 2 0.0433057 0.430744 0.729418
1983 4 0.0333297 0.469723 0.742499
1981 2 0.0225114 0.487101 0.756857
2021 4 0.0423078 0.489256 0.709349
893 4 0.0769902 0.434684 0.684419
940 2 0.144323 0.409728 0.729851
941 4 0.155307 0.41188 0.707493
1028 4 0.228712 0.41304 0.683736
1027 2 0.252424 0.420884 0.682566
1029 4 0.276137 0.428727 0.681396
1139 4 0.291325 0.421016 0.691522
1987 2 0.323202 0.471111 0.742273
1989 4 0.333574 0.449899 0.734051
1229 4 0.352163 0.447555 0.739532
1228 2 0.374215 0.437741 0.733007
1230 4 0.396267 0.427926 0.726482
1100 4 0.467238 0.46399 0.729532
1099 2 0.482749 0.482638 0.723464
1250 4 0.464778 0.450309 0.743794
3329 4 0.470057 0.437558 0.731572
3328 2 0.487856 0.425144 0.719151
1077 4 0.061893 0.0636243 0.758076
864 4 0.0435095 0.0692811 0.807533
911 4 0.064071 0.0676978 0.813081
1201 2 0.0949917 0.0349922 0.765768
1202 4 0.116405 0.022159 0.764374
2049 4 0.121181 0.0108951 0.781886
910 2 0.0817476 0.0766926 0.828306
1148 4 0.213006 0.049501 0.763591
1147 2 0.211824 0.0709485 0.776389
1049 4 0.282278 0.0110899 0.793452
1048 2 0.296396 0.00976791 0.814046
1256 4 0.317344 0.0850966 0.785291
1255 2 0.293839 0.0805225 0.778098
1050 4 0.310513 0.00844587 0.83464
1112 4 0.413897 0.0243372 0.804207
846 4 0.472134 0.0398592 0.812304
1113 4 0.460519 0.0407669 0.796641
1111 2 0.437208 0.032552 0.800424
862 2 0.0321158 0.0888965 0.797017
832 2 0.0173321 0.150799 0.783825
863 4 0.0207221 0.108512 0.7865
833 4 0.0271535 0.128317 0.78865
33 3 0.0733627 0.15441 0.759979
31 1 0.0942946 0.163943 0.756916
32 3 0.110358 0.148978 0.763783
1149 4 0.210642 0.092396 0.789187
1226 4 0.208969 0.116825 0.756674
1130 4 0.201402 0.132874 0.766269
840 4 0.227238 0.1379 0.799942
1129 2 0.191938 0.153521 0.776725
838 2 0.251292 0.138915 0.80669
1257 4 0.270333 0.0759483 0.770905
839 4 0.275347 0.13993 0.813438
819 4 0.366492 0.0776286 0.826981
1084 2 0.37145 0.105943 0.794718