ITEM: TIMESTEP
2970000
ITEM: NUMBER OF ATOMS
4590
ITEM: BOX BOUNDS pp pp pp
-9.9985700000000008e+00 9.9985700000000008e+00
-9.9985700000000008e+00 9.9985700000000008e+00
-9.9985700000000008e+00 9.9985700000000008e+00
ITEM: ATOMS id type xs ys zs
463 2 0.0187738 0.0446713 0.0191742
464 4 0.0130455 0.0206559 0.0231267
1668 4 0.0501559 0.0553148 0.0512325
1666 2 0.038359 0.0558465 0.0732718
3290 4 0.0650585 0.0444085 0.0538909
465 4 0.0245022 0.0686868 0.0152217
701 4 0.0144088 0.0686372 0.996972
3289 2 0.0811255 0.0380318 0.0358253
3291 4 0.0971926 0.0316551 0.0177597
2183 4 0.0862871 0.0248787 0.00188679
566 4 0.155723 0.0521313 0.0190893
565 2 0.169956 0.040214 0.0358393
567 4 0.18419 0.0282967 0.0525893
490 2 0.309517 0.0118172 0.0571845
491 4 0.314298 0.0297538 0.0404336
985 2 0.300668 0.0475503 0.0125475
987 4 0.303693 0.0451036 0.0372465
745 2 0.483541 0.0301669 0.0679684
746 4 0.464906 0.0447757 0.0599384
747 4 0.502177 0.0155581 0.0759985
450 4 0.0825525 0.104256 0.0736519
460 2 0.292362 0.147989 0.0461854
462 4 0.311337 0.133035 0.0397454
461 4 0.273386 0.162944 0.0526253
422 4 0.0686686 0.187872 0.00703607
421 2 0.0872678 0.17468 0.996778
506 4 0.163522 0.242644 0.0743659
737 4 0.179721 0.237166 0.0630581
736 2 0.191462 0.217761 0.0525327
738 4 0.203202 0.198356 0.0420072
354 4 0.222484 0.194916 0.0387484
352 2 0.245449 0.185026 0.0388201
353 4 0.268414 0.175137 0.0388917
1069 2 0.387712 0.243448 0.000282073
323 4 0.491315 0.244062 0.0266499
828 4 0.503723 0.237758 0.0125697
836 4 0.0351471 0.252733 0.0107067
3339 4 0.00474613 0.287768 0.996993
2807 4 0.993707 0.276176 0.00918201
294 4 0.0938542 0.3131 0.0671917
505 2 0.144728 0.253651 0.0620861
292 2 0.107923 0.292451 0.0681099
293 4 0.121991 0.271801 0.0690282
507 4 0.125934 0.264659 0.0498063
287 4 0.127819 0.291755 0.0159919
286 2 0.141598 0.310969 0.00785807
612 4 0.259689 0.295731 0.0453185
610 2 0.266773 0.281159 0.0643622
609 4 0.271673 0.311738 0.0406382
611 4 0.273857 0.266588 0.0834059
1071 4 0.373656 0.258146 0.0148264
573 4 0.355549 0.264376 0.0174003
571 2 0.335324 0.277846 0.0115118
324 4 0.467939 0.284871 0.00965276
322 2 0.479627 0.264466 0.0181513
1046 4 0.494297 0.332911 0.00502847
519 4 0.499647 0.262623 0.0568811
1045 2 0.491988 0.340228 0.0288259
2841 4 0.498873 0.281016 0.0636097
2787 4 0.99447 0.359591 0.0721768
990 4 0.15654 0.349252 0.00390949
1289 4 0.186463 0.3954 0.0149673
988 2 0.169109 0.36639 0.0170803
989 4 0.181679 0.383528 0.0302511
1288 2 0.195107 0.414318 0.00109102
607 2 0.271576 0.3366 0.0379788
739 2 0.329672 0.354354 0.0359326
250 2 0.286181 0.398481 0.036944
252 4 0.272279 0.380253 0.0269615
608 4 0.271479 0.361461 0.0353193
740 4 0.330605 0.363693 0.0591077
251 4 0.300083 0.416709 0.0469264
741 4 0.328738 0.345014 0.0127576
386 4 0.34209 0.365649 0.0739639
226 2 0.385306 0.382222 0.0280269
228 4 0.381682 0.406938 0.0290963
227 4 0.38893 0.357506 0.0269575
1305 4 0.378577 0.354238 0.00997014
281 4 0.427067 0.344182 0.0775865
280 2 0.451633 0.345244 0.0730541
282 4 0.4762 0.346307 0.0685216
1047 4 0.489679 0.347544 0.0526233
552 4 0.00470397 0.456141 0.070374
314 4 0.998914 0.441626 0.0832111
550 2 0.00761431 0.469321 0.0493267
551 4 0.0105246 0.482502 0.0282793
1788 4 0.153402 0.494089 0.0845356
1786 2 0.169615 0.495241 0.0655362
243 4 0.233338 0.454016 0.0579763
1440 4 0.235486 0.440882 0.0726685
241 2 0.215647 0.468463 0.0478018
242 4 0.197957 0.482909 0.0376273
1787 4 0.185828 0.496393 0.0465367
524 4 0.319089 0.423611 0.0432844
271 2 0.28345 0.474638 0.070228
525 4 0.365436 0.418524 0.0252087
523 2 0.342262 0.421068 0.0342466
1583 4 0.454492 0.438106 0.0507473
1582 2 0.453193 0.459909 0.0629179
1584 4 0.451894 0.481712 0.0750885
1667 4 0.0265621 0.0563783 0.0953111
16 1 0.0395124 0.0602513 0.132579
19 3 0.0185068 0.0612841 0.142383
17 3 0.037128 0.0615192 0.109735
20 3 0.049651 0.0405877 0.137983
1422 4 0.0112146 0.0454089 0.155235
2480 4 0.00123713 0.066298 0.153733
652 2 0.242696 0.0423032 0.162261
654 4 0.247387 0.032503 0.139741
1476 4 0.26594 0.0305548 0.134425
1475 4 0.304064 0.0539833 0.112101
1474 2 0.285002 0.042269 0.123263
297 4 0.379728 0.0333617 0.124015
295 2 0.397439 0.0509771 0.125113
484 2 0.35815 0.00797505 0.12758
485 4 0.360602 0.0308443 0.117773
296 4 0.41515 0.0685925 0.12621
557 4 0.43322 0.0679369 0.116738
556 2 0.453718 0.081892 0.119941
18 3 0.0524944 0.0780895 0.139768
236 4 0.140102 0.118608 0.103865
449 4 0.119933 0.118735 0.103548
448 2 0.101243 0.111496 0.0885998
235 2 0.15687 0.1257 0.121003
237 4 0.173638 0.132793 0.138141
477 4 0.236759 0.16077 0.148701
580 2 0.313975 0.119725 0.146844
581 4 0.29541 0.13625 0.149573
30 3 0.282598 0.152725 0.14762
582 4 0.33254 0.1032 0.144115
758 4 0.348323 0.0923875 0.143371
757 2 0.353152 0.0873744 0.167387
558 4 0.474217 0.0958471 0.123144
771 4 0.475803 0.0993028 0.142554
769 2 0.487382 0.109035 0.162464
372 4 0.159877 0.232926 0.172171
371 4 0.191996 0.19864 0.155037
476 4 0.191696 0.179443 0.15972
475 2 0.214227 0.170107 0.154211
370 2 0.175936 0.215783 0.163604
29 3 0.250414 0.165132 0.162718
756 4 0.347712 0.257099 0.13003
754 2 0.349818 0.253941 0.154743
624 4 0.458998 0.237854 0.141411
629 4 0.455513 0.236209 0.119584
628 2 0.437063 0.244264 0.104755
622 2 0.462313 0.250711 0.162598
339 4 0.0476846 0.305325 0.163885
456 4 0.0836602 0.321838 0.0847722
279 4 0.267975 0.277756 0.14001
277 2 0.27834 0.270258 0.118527
278 4 0.288705 0.262761 0.0970432
285 4 0.259122 0.272085 0.158214
255 4 0.355547 0.256032 0.110838
254 4 0.404552 0.259494 0.101495
253 2 0.38005 0.257763 0.106166
630 4 0.418613 0.252319 0.0899264
619 2 0.0371916 0.368117 0.130196
620 4 0.0582137 0.355371 0.125636
621 4 0.0161696 0.380863 0.134757
2694 4 0.0081282 0.398568 0.138598
454 2 0.0985909 0.340581 0.0919105
455 4 0.113522 0.359324 0.0990489
537 4 0.122796 0.393776 0.1501
535 2 0.132443 0.380536 0.131211
536 4 0.14209 0.367296 0.112322
647 4 0.119673 0.413469 0.157206
625 2 0.233588 0.390553 0.144165
627 4 0.229281 0.408852 0.127679
626 4 0.237894 0.372254 0.160651
670 2 0.404935 0.350144 0.103085
385 2 0.346039 0.374454 0.0970304
387 4 0.349987 0.383259 0.120097
12 3 0.406869 0.386673 0.117769
11 1 0.390027 0.399659 0.126536
15 3 0.370032 0.392652 0.118184
672 4 0.396758 0.368252 0.118264
302 4 0.35282 0.406191 0.111859
13 3 0.390149 0.397506 0.149639
671 4 0.413113 0.332036 0.0879061
104 3 0.485887 0.354521 0.0852859
313 2 0.00323687 0.427534 0.103408
1466 4 0.000708682 0.488655 0.113317
1620 4 0.161612 0.493179 0.139662
1431 4 0.170671 0.498525 0.156076
1619 4 0.136787 0.495294 0.0963034
1618 2 0.149199 0.494236 0.117983
1438 2 0.227115 0.427975 0.09238
1439 4 0.218745 0.415069 0.112091
272 4 0.283497 0.453419 0.083455
639 4 0.26889 0.480456 0.127043
638 4 0.300872 0.454461 0.155365
637 2 0.284881 0.467458 0.141204
303 4 0.326675 0.442681 0.133898
659 4 0.319007 0.446771 0.150785
301 2 0.339747 0.424436 0.122879
1559 4 0.372786 0.49729 0.146116
14 3 0.393762 0.421783 0.120622
495 4 0.39718 0.442158 0.123526
493 2 0.40949 0.463184 0.117908
494 4 0.4218 0.48421 0.112291
1420 2 0.000895231 0.0271064 0.168789
674 4 0.14081 0.0802824 0.209833
690 4 0.155205 0.0755226 0.196554
688 2 0.165469 0.0529315 0.193475
689 4 0.175732 0.0303404 0.190396
1505 4 0.191618 0.0230128 0.179119
653 4 0.238004 0.0521034 0.18478
693 4 0.247837 0.0683095 0.185039
691 2 0.266187 0.0753681 0.200487
1699 2 0.323761 0.0794168 0.213799
1701 4 0.300872 0.0711904 0.219596
1700 4 0.34665 0.0876432 0.208002
22 3 0.388157 0.0643349 0.222676
698 4 0.405183 0.0681665 0.232708
21 1 0.379527 0.0846161 0.216091
333 4 0.406604 0.0865302 0.224632
759 4 0.35798 0.0823614 0.191402
697 2 0.408935 0.0442736 0.239051
349 2 0.493231 0.0731683 0.227201
699 4 0.412686 0.0203808 0.245395
742 2 0.485958 0.00876288 0.247942
2479 2 0.995257 0.0836976 0.170664
513 4 0.0150213 0.152359 0.225575
578 4 0.0341822 0.150555 0.23296
511 2 0.00428655 0.135587 0.210455
673 2 0.146036 0.0891661 0.232613
692 4 0.284537 0.0824267 0.215935
28 3 0.266008 0.132651 0.174813
26 1 0.270354 0.153982 0.166781
23 3 0.358313 0.0870459 0.225172
25 3 0.378366 0.0852487 0.193356
24 3 0.393422 0.101533 0.223783
770 4 0.49896 0.118767 0.182374
331 2 0.430892 0.0905971 0.2203
312 4 0.485803 0.131324 0.188935
310 2 0.490255 0.139336 0.212198
350 4 0.471526 0.0834997 0.220321
332 4 0.455179 0.0946639 0.215969
311 4 0.494707 0.147347 0.235461
577 2 0.035337 0.175488 0.231466
529 2 0.0147094 0.229672 0.209729
530 4 0.0208569 0.210361 0.224374
579 4 0.0364919 0.20042 0.229973
531 4 0.00856196 0.248983 0.195083
362 4 0.139821 0.235929 0.173504
361 2 0.12363 0.250701 0.185538
27 3 0.282279 0.165614 0.182644
704 4 0.0380958 0.307867 0.181116
337 2 0.0681571 0.292417 0.170165
703 2 0.0267493 0.317361 0.201272
705 4 0.0154028 0.326856 0.221429
2483 4 0.00415994 0.250976 0.174479
363 4 0.107438 0.265472 0.197573
338 4 0.0886297 0.279509 0.176445
395 4 0.0960752 0.28258 0.194286
396 4 0.0989243 0.295914 0.242399
394 2 0.0974997 0.289247 0.218343
283 2 0.277007 0.274586 0.175507
284 4 0.294892 0.277086 0.192801
755 4 0.351925 0.250783 0.179457
528 4 0.431533 0.297633 0.22907
623 4 0.465627 0.263567 0.183785
527 4 0.450043 0.266119 0.194939
526 2 0.440788 0.281876 0.212004
542 4 0.447691 0.300504 0.242175
2615 4 0.00723615 0.343149 0.212205
300 4 0.11216 0.386413 0.21941
646 2 0.117148 0.406225 0.181003
648 4 0.114622 0.398981 0.204801
298 2 0.11264 0.373639 0.240899
289 2 0.221917 0.406332 0.245692
416 4 0.201205 0.418958 0.216912
597 4 0.397838 0.382217 0.164451
345 4 0.34759 0.363638 0.205416
596 4 0.355439 0.369676 0.187814
645 4 0.392606 0.404661 0.169671
595 2 0.376638 0.375947 0.176133
343 2 0.354246 0.369637 0.228758
344 4 0.360902 0.375636 0.252101
263 4 0.0506509 0.42229 0.249383
290 4 0.217257 0.407601 0.221159
417 4 0.169327 0.437213 0.182981
1429 2 0.174993 0.476239 0.166556
1430 4 0.179315 0.453953 0.177035
415 2 0.185266 0.428086 0.199947
438 4 0.267987 0.459582 0.222794
436 2 0.275845 0.464287 0.246059
658 2 0.33498 0.455821 0.16776
643 2 0.400551 0.425569 0.180846
229 2 0.367004 0.502935 0.198323
644 4 0.408497 0.446478 0.192021
660 4 0.350953 0.464871 0.184735
231 4 0.361103 0.478666 0.197142
447 4 0.411592 0.451746 0.210624
445 2 0.420356 0.448793 0.233855
1403 4 0.0273854 0.0216274 0.257766
233 4 0.0296511 0.0314443 0.275311
232 2 0.0356409 0.0557001 0.274334
234 4 0.0416307 0.079956 0.273357
317 4 0.0579152 0.0727389 0.286017
722 4 0.1684 0.0886698 0.259232
1407 4 0.239451 0.0120011 0.272952
1405 2 0.224677 0.0313921 0.278512
1406 4 0.209904 0.0507831 0.284073
721 2 0.179318 0.086436 0.281615
723 4 0.190236 0.0842023 0.303997
599 4 0.188689 0.0726058 0.322025
1518 4 0.420463 0.00144753 0.245809
743 4 0.488563 0.0269291 0.264924
425 4 0.490519 0.0209213 0.284256
424 2 0.475923 0.0382065 0.294903
258 4 0.458421 0.0759713 0.302804
426 4 0.461328 0.0554918 0.305551
256 2 0.464463 0.08305 0.326011
316 2 0.0684117 0.0919885 0.298036
318 4 0.0789083 0.111238 0.310055
393 4 0.0870386 0.154718 0.317926
675 4 0.151262 0.0980498 0.255394
391 2 0.0849367 0.150182 0.293427
392 4 0.0828347 0.145645 0.268928
544 2 0.120777 0.128089 0.258224
545 4 0.0981311 0.138682 0.258568
546 4 0.143423 0.117496 0.25788
399 4 0.087245 0.138424 0.327947
404 4 0.242689 0.088296 0.290424
403 2 0.23824 0.112857 0.288964
405 4 0.23379 0.137418 0.287504
401 4 0.23303 0.15198 0.274702
400 2 0.242196 0.173582 0.283336
402 4 0.251361 0.195183 0.291971
707 4 0.280802 0.191879 0.330613
765 4 0.436098 0.200169 0.336131
763 2 0.443887 0.197049 0.312577
764 4 0.451676 0.19393 0.289023
442 2 0.076756 0.276007 0.274408
444 4 0.062083 0.261905 0.288934
443 4 0.091429 0.29011 0.259883
497 4 0.313703 0.274251 0.318674
496 2 0.331509 0.267191 0.334746
541 2 0.430414 0.311803 0.256281
543 4 0.413136 0.323102 0.270387
614 4 0.430651 0.331482 0.330957
749 4 0.0654223 0.336616 0.288365
366 4 0.0506357 0.350007 0.289994
365 4 0.00905484 0.371236 0.307913
364 2 0.0298453 0.360621 0.298953
602 4 0.069962 0.400038 0.314159
601 2 0.082487 0.390547 0.333606
748 2 0.0880851 0.338619 0.277993
299 4 0.113121 0.360865 0.262388
750 4 0.110748 0.340622 0.267622
777 4 0.0858433 0.408346 0.30467
735 4 0.139656 0.395718 0.289637
733 2 0.145837 0.371501 0.28892
734 4 0.152018 0.347284 0.288204
677 4 0.159695 0.399146 0.290027
291 4 0.226576 0.405064 0.270224
414 4 0.237781 0.42206 0.273779
504 4 0.196888 0.402924 0.320977
412 2 0.254051 0.417638 0.292243
308 4 0.34802 0.373813 0.316623
729 4 0.331358 0.375464 0.327018
413 4 0.270321 0.413216 0.310707
615 4 0.406969 0.332904 0.286936
309 4 0.363541 0.366918 0.269588
307 2 0.355781 0.370366 0.293105
613 2 0.41881 0.332193 0.308947
2924 4 0.49265 0.353737 0.322573
2923 2 0.468184 0.349665 0.325737
2862 4 0.476233 0.392031 0.272632
2860 2 0.491843 0.387508 0.253631
120 3 0.487866 0.395552 0.292528
119 3 0.486728 0.402869 0.329444
713 4 0.479493 0.411347 0.277576
2925 4 0.443718 0.345594 0.3289
262 2 0.0402004 0.439829 0.263818
264 4 0.02975 0.457367 0.278253
1758 4 0.101614 0.502392 0.282094
775 2 0.103047 0.42215 0.292896
1757 4 0.115422 0.454836 0.289058
776 4 0.120252 0.435955 0.281122
1756 2 0.108518 0.478614 0.285576
676 2 0.164828 0.423059 0.284829
678 4 0.16996 0.446972 0.279632
768 4 0.182641 0.462568 0.281032
766 2 0.195919 0.483754 0.280876
502 2 0.203005 0.426174 0.327847
1545 4 0.23883 0.494036 0.325306
5 3 0.263533 0.416555 0.328329
1436 4 0.258399 0.496922 0.322083
437 4 0.283703 0.468991 0.269325
1437 4 0.288597 0.479889 0.286046
1435 2 0.273498 0.488405 0.304065
433 2 0.314406 0.452006 0.317485
435 4 0.317613 0.467264 0.297938
446 4 0.429121 0.44584 0.257085
712 2 0.460825 0.427883 0.275772
714 4 0.442157 0.444419 0.273968
368 4 0.0658468 0.0633073 0.41341
731 4 0.0826917 0.0618458 0.402708
730 2 0.10253 0.0660652 0.388085
604 2 0.139745 0.0673077 0.34826
606 4 0.157927 0.0523111 0.33991
249 4 0.308692 0.0245295 0.351015
684 4 0.292519 0.0359716 0.356371
682 2 0.275813 0.0533294 0.363065
683 4 0.259107 0.0706872 0.369759
247 2 0.329694 0.0373133 0.355562
248 4 0.350696 0.050097 0.360109
633 4 0.349202 0.0579479 0.378377
631 2 0.34208 0.0736904 0.39645
1747 2 0.46489 0.0108599 0.342063
1749 4 0.488351 0.0192445 0.344168
2586 4 0.00463888 0.154444 0.402241
732 4 0.122368 0.0702846 0.373462
397 2 0.0985645 0.144159 0.349491
605 4 0.121563 0.0823043 0.356609
598 2 0.198669 0.0904229 0.336452
600 4 0.208648 0.10824 0.350879
685 2 0.203423 0.138313 0.371
687 4 0.202544 0.126213 0.349136
686 4 0.204302 0.150413 0.392863
410 4 0.223823 0.148094 0.396715
321 4 0.261545 0.0891707 0.375973
319 2 0.265876 0.0951136 0.399871
419 4 0.368819 0.164068 0.394111
418 2 0.355216 0.144688 0.402145
420 4 0.341614 0.125307 0.41018
716 4 0.3793 0.164442 0.376405
257 4 0.470504 0.0901287 0.349218
760 2 0.485052 0.130442 0.355187
761 4 0.477231 0.109428 0.344123
762 4 0.492873 0.151456 0.366252
390 4 0.0871213 0.22836 0.410933
398 4 0.109884 0.149895 0.371035
388 2 0.101445 0.240439 0.394377
274 2 0.148421 0.236004 0.364107
389 4 0.115768 0.252519 0.377821
473 4 0.224732 0.222979 0.352781
474 4 0.182054 0.223091 0.378844
472 2 0.203393 0.223035 0.365813
708 4 0.235566 0.211577 0.338761
275 4 0.166854 0.2192 0.365847
409 2 0.236776 0.1658 0.40871
650 4 0.249632 0.20236 0.416372
651 4 0.273368 0.237766 0.390224
649 2 0.2615 0.220063 0.403298
706 2 0.258184 0.201728 0.334687
489 4 0.256859 0.248942 0.391603
377 4 0.381867 0.207153 0.351009
717 4 0.395545 0.195624 0.340845
715 2 0.387423 0.180033 0.358625
376 2 0.373771 0.230261 0.345942
584 4 0.396279 0.245383 0.411583
618 4 0.994235 0.268522 0.415987
276 4 0.129988 0.252808 0.362366
1258 2 0.145437 0.312835 0.395614
1259 4 0.156522 0.306176 0.374215
1260 4 0.134352 0.319494 0.417014
509 4 0.232793 0.298235 0.361357
487 2 0.247914 0.271335 0.384992
488 4 0.238968 0.293729 0.378382
508 2 0.223426 0.321415 0.361703
267 4 0.337734 0.329645 0.364032
498 4 0.349315 0.26013 0.350817
378 4 0.365676 0.253368 0.340874
266 4 0.361085 0.290863 0.385279
585 4 0.378743 0.283289 0.384083
583 2 0.387511 0.264336 0.397833
265 2 0.349409 0.310254 0.374655
268 2 0.490579 0.258809 0.362334
270 4 0.481196 0.271183 0.381931
306 4 0.486538 0.26543 0.399308
304 2 0.474577 0.260814 0.420774
603 4 0.095012 0.381055 0.353054
547 2 0.109344 0.412581 0.37628
549 4 0.0995371 0.400167 0.356918
510 4 0.214059 0.344595 0.362048
374 4 0.226671 0.360439 0.361675
373 2 0.237963 0.382463 0.365223
375 4 0.249255 0.404488 0.368772
727 2 0.320135 0.397768 0.325714
3 3 0.266881 0.413613 0.365716
753 4 0.4939 0.402456 0.348136
679 2 0.039733 0.489772 0.378483
407 4 0.0318442 0.415202 0.384877
680 4 0.0451585 0.469308 0.391786
406 2 0.0418577 0.435836 0.394835
408 4 0.0518712 0.45647 0.404792
2463 4 0.0131052 0.517561 0.331018
569 4 0.120089 0.43587 0.411323
548 4 0.119152 0.424995 0.395643
635 4 0.164735 0.480254 0.359447
634 2 0.187108 0.474028 0.350181
636 4 0.20948 0.467801 0.340914
503 4 0.209121 0.449424 0.334716
669 4 0.29189 0.479745 0.399933
728 4 0.308911 0.420073 0.32441
434 4 0.311199 0.436747 0.337031
2 3 0.297104 0.419927 0.344283
1 1 0.274643 0.424299 0.346638
668 4 0.264516 0.460642 0.362699
4 3 0.271631 0.447221 0.348618
667 2 0.278203 0.470193 0.381316
336 4 0.334316 0.436124 0.415311
718 2 0.0341455 0.0579653 0.493044
719 4 0.0285089 0.0654392 0.469858
369 4 0.0447695 0.0623228 0.458747
367 2 0.0553081 0.0628151 0.436079
441 4 0.216274 0.010023 0.459077
341 4 0.172887 0.076238 0.461615
2430 4 0.171269 0.0576883 0.453282
2428 2 0.186108 0.0388363 0.460322
2429 4 0.200948 0.0199843 0.467363
1218 4 0.400909 0.035865 0.498529
2878 2 0.460548 0.00937531 0.444259
2880 4 0.475198 0.0292567 0.448171
642 4 0.478086 0.0357176 0.429926
640 2 0.481718 0.058638 0.420618
641 4 0.48535 0.0815584 0.411309
340 2 0.182741 0.0975485 0.470214
1152 4 0.19859 0.136401 0.485564
342 4 0.192595 0.118859 0.478813
320 4 0.270207 0.101056 0.423769
725 4 0.265763 0.0860459 0.434999
724 2 0.279492 0.0858545 0.455895
432 4 0.284289 0.102759 0.483658
726 4 0.293221 0.0856631 0.476792
468 4 0.334634 0.086959 0.436291
632 4 0.334958 0.089433 0.414523
467 4 0.370396 0.119908 0.44796
466 2 0.352515 0.103434 0.442126
574 2 0.403281 0.128736 0.430772
576 4 0.387534 0.111792 0.440265
575 4 0.419028 0.14568 0.42128
516 4 0.439105 0.144066 0.417694
514 2 0.459272 0.144894 0.432452
515 4 0.479439 0.145721 0.44721
260 4 0.0597134 0.178199 0.478695
259 2 0.0679836 0.164402 0.497837
469 2 0.0702993 0.203566 0.444818
471 4 0.061292 0.188768 0.462847
470 4 0.0793065 0.218364 0.426788
411 4 0.249729 0.183507 0.420705
2455 2 0.395422 0.214833 0.441395
2457 4 0.401755 0.199644 0.460219
2456 4 0.389089 0.230023 0.42257
616 2 0.00528685 0.278647 0.436001
617 4 0.0163384 0.288772 0.456014
695 4 0.102379 0.260207 0.435245
694 2 0.11248 0.281639 0.427254
696 4 0.122581 0.30307 0.419264
878 4 0.0996082 0.269833 0.497349
1010 4 0.457263 0.319377 0.470608
1009 2 0.456914 0.296873 0.459717
1011 4 0.456566 0.274369 0.448825
305 4 0.462617 0.256198 0.442241
2507 4 0.470121 0.331767 0.477993
326 4 0.0985991 0.361436 0.451132
325 2 0.121937 0.361488 0.460105
7 3 0.163149 0.363212 0.479237
327 4 0.145275 0.36154 0.469077
8 3 0.163663 0.392714 0.502519
6 1 0.16577 0.369646 0.501166
711 4 0.146405 0.401839 0.506235
1189 2 0.232131 0.355875 0.506228
1190 4 0.257061 0.354853 0.504611
335 4 0.350912 0.400589 0.446336
238 2 0.354134 0.391489 0.483974
240 4 0.361056 0.402366 0.462551
239 4 0.347212 0.380612 0.505398
559 2 0.495977 0.401464 0.428707
560 4 0.497836 0.389822 0.450757
2506 2 0.480615 0.352027 0.467765
2508 4 0.491109 0.372286 0.457537
1381 2 0.0141123 0.452871 0.475102
1382 4 0.0311462 0.468145 0.485189
538 2 0.0470162 0.496094 0.486585
540 4 0.0353908 0.481676 0.469788
774 4 0.118 0.494341 0.430536
773 4 0.122844 0.488829 0.480002
772 2 0.120422 0.491585 0.455269
710 4 0.122744 0.433284 0.475378
709 2 0.134575 0.417561 0.490806
570 4 0.134719 0.434704 0.459128
568 2 0.127404 0.435287 0.435225
1394 4 0.224654 0.48881 0.490047
1446 4 0.234597 0.501324 0.502584
1400 4 0.332277 0.49502 0.424007
1399 2 0.326551 0.470688 0.424605
1401 4 0.320824 0.446357 0.425202
587 4 0.352738 0.516666 0.486183
334 2 0.342614 0.418356 0.430823
1127 4 0.0336629 0.0383461 0.532048
720 4 0.0397821 0.0504914 0.516229
1126 2 0.0135051 0.0389721 0.546828
1031 4 0.161554 0.083901 0.542436
949 2 0.1909 0.0689933 0.556963
950 4 0.215879 0.0680152 0.557473
1182 4 0.226934 0.0506966 0.559423
951 4 0.165921 0.0699715 0.556452
1180 2 0.250246 0.0428902 0.554864
963 4 0.286071 0.0197493 0.547943
1181 4 0.273558 0.0350838 0.550305
961 2 0.30208 0.000696458 0.550367
1216 2 0.382882 0.050062 0.508462
1217 4 0.364856 0.064259 0.518395
842 4 0.361993 0.0797693 0.530604
2283 4 0.446407 0.00108724 0.574194
1035 4 0.0781492 0.137272 0.576552
261 4 0.0762539 0.150605 0.516979
1033 2 0.0782379 0.14938 0.554675
1034 4 0.0783266 0.161488 0.532799
1030 2 0.139801 0.090609 0.552778
1032 4 0.118047 0.0973171 0.563121
938 4 0.146143 0.156794 0.558436
1150 2 0.197653 0.151624 0.505377
843 4 0.314335 0.0948859 0.531557
431 4 0.295788 0.102507 0.532324
857 4 0.327285 0.125592 0.569568
430 2 0.290038 0.102633 0.507991
856 2 0.317083 0.139284 0.587834
899 4 0.343308 0.129562 0.558472
841 2 0.338164 0.0873276 0.531081
898 2 0.362346 0.145445 0.55524
900 4 0.381384 0.161328 0.552007
937 2 0.16493 0.167767 0.546114
1272 4 0.118219 0.252764 0.558426
1270 2 0.120365 0.233914 0.574714
1151 4 0.196716 0.166847 0.525191
939 4 0.183716 0.178741 0.533793
872 4 0.375357 0.179268 0.560572
873 4 0.37694 0.225184 0.58032
871 2 0.376148 0.202226 0.570446
813 4 0.359715 0.234383 0.580725
879 4 0.120773 0.267224 0.542581
877 2 0.110191 0.268529 0.519965
1239 4 0.270571 0.288192 0.56682
928 2 0.324433 0.333042 0.557851
1205 4 0.400266 0.282517 0.564768
1204 2 0.376862 0.291267 0.563859
1206 4 0.353457 0.300018 0.562951
930 4 0.341503 0.314781 0.557271
954 4 0.413393 0.283425 0.580018
983 4 0.0564262 0.40177 0.584123
9 3 0.149356 0.359426 0.513995
896 4 0.194879 0.35027 0.525597
1137 4 0.170656 0.363465 0.574252
897 4 0.181647 0.346135 0.573644
895 2 0.188263 0.348203 0.54962
10 3 0.186395 0.363287 0.508435
1191 4 0.2072 0.356897 0.507846
802 2 0.286955 0.355319 0.524222
804 4 0.300588 0.342973 0.54116
929 4 0.307363 0.351302 0.558431
803 4 0.273321 0.367664 0.507284
1001 4 0.465438 0.392742 0.552197
926 4 0.481345 0.387238 0.541637
925 2 0.486755 0.372479 0.522193
1000 2 0.471146 0.404204 0.573673
927 4 0.492166 0.357721 0.502748
934 2 0.0100342 0.484103 0.57802
936 4 0.0342148 0.488431 0.582684
1938 4 0.0434869 0.4838 0.564972
1936 2 0.0510454 0.49199 0.542589
382 2 0.128706 0.489622 0.518876
383 4 0.127264 0.481299 0.54241
2244 4 0.127701 0.497156 0.553536
2242 2 0.143312 0.496098 0.573039
882 4 0.286226 0.453557 0.572117
880 2 0.28987 0.470707 0.554291
881 4 0.293514 0.487858 0.536466
1445 4 0.278318 0.488492 0.523188
1172 4 0.272241 0.459605 0.584388
1444 2 0.256457 0.494908 0.512886
1183 2 0.994633 0.0450525 0.640741
1185 4 0.0168948 0.0414258 0.651533
1155 4 0.0912712 0.068457 0.613749
1059 4 0.0978109 0.0498841 0.614023
1058 4 0.0870112 0.00456 0.632184
1057 2 0.0924111 0.0272221 0.623103
2282 4 0.467087 0.0189295 0.616083
2281 2 0.456747 0.0100084 0.595139
43 3 0.467059 0.0374949 0.6077
41 1 0.477663 0.0565057 0.615735
44 3 0.462754 0.0692517 0.62813
45 3 0.485815 0.0687815 0.598371
42 3 0.495082 0.0501186 0.629334
1163 4 0.50643 0.0472136 0.644849
1082 4 0.0680308 0.145624 0.592156
1081 2 0.04461 0.147753 0.600647
1083 4 0.0211892 0.149883 0.609139
1199 4 0.00291562 0.156426 0.603752
1154 4 0.122047 0.0918619 0.582035
1221 4 0.150857 0.0957643 0.618125
1153 2 0.106659 0.0801594 0.597892
1219 2 0.169047 0.10633 0.631641
1220 4 0.187237 0.116895 0.645157
1212 4 0.205148 0.120365 0.653691
1210 2 0.226487 0.133286 0.651995
1211 4 0.247826 0.146207 0.650298
1005 4 0.288128 0.0843622 0.605402
1003 2 0.295658 0.0887555 0.628837
1004 4 0.303189 0.0931488 0.652271
858 4 0.306882 0.152976 0.6061
888 4 0.264461 0.137663 0.655918
886 2 0.285311 0.128063 0.665834
1143 4 0.374741 0.144031 0.642595
1025 4 0.381446 0.157657 0.630613
1141 2 0.362196 0.136164 0.662742
810 4 0.478784 0.087943 0.598112
808 2 0.492153 0.101182 0.581644
1271 4 0.122512 0.215065 0.591001
909 4 0.137992 0.215454 0.602762
907 2 0.151898 0.212482 0.623329
908 4 0.165803 0.20951 0.643895
947 4 0.16764 0.219905 0.661852
946 2 0.176698 0.242835 0.666014
812 4 0.316069 0.235649 0.6051
798 4 0.301902 0.220963 0.606417
796 2 0.300499 0.196053 0.60478
797 4 0.299095 0.171143 0.603143
811 2 0.337892 0.235016 0.592913
1024 2 0.386354 0.179891 0.640945
1026 4 0.391263 0.202125 0.651276
905 4 0.461606 0.238474 0.601795
904 2 0.484137 0.239079 0.590969
3122 4 0.488507 0.22897 0.660267
1237 2 0.280899 0.294092 0.588812
792 4 0.305719 0.297277 0.625998
790 2 0.326518 0.307523 0.616638
1238 4 0.291228 0.299992 0.610805
791 4 0.347317 0.317768 0.607278
952 2 0.431073 0.267463 0.587621
953 4 0.448754 0.251501 0.595223
982 2 0.0321474 0.395852 0.58329
984 4 0.00786858 0.389934 0.582457
1041 4 0.0615307 0.421043 0.584916
3263 4 0.997092 0.390428 0.598904
1135 2 0.173991 0.386228 0.584046
1136 4 0.177326 0.408991 0.593839
1002 4 0.476854 0.415665 0.595149
1910 4 0.461184 0.418829 0.606535
1039 2 0.0812766 0.436158 0.58753
992 4 0.164586 0.423267 0.596705
991 2 0.141745 0.432679 0.592852
993 4 0.118903 0.442091 0.588998
1040 4 0.101022 0.451272 0.590145
2243 4 0.158923 0.49504 0.592542
1171 2 0.247359 0.461295 0.582589
1160 4 0.222764 0.483182 0.585814
1159 2 0.200268 0.491288 0.593121
1173 4 0.222478 0.462985 0.580789
890 4 0.401324 0.494627 0.654139
1952 4 0.355203 0.495689 0.621359
889 2 0.379286 0.501932 0.644858
1951 2 0.348829 0.504949 0.599025
1267 2 0.415333 0.462872 0.661858
1911 4 0.441221 0.437942 0.648211
1909 2 0.451202 0.428386 0.627373
1268 4 0.420822 0.43992 0.653595
945 4 0.0341188 0.049744 0.657649
943 2 0.0434333 0.0461888 0.680578
1076 4 0.0505829 0.0403422 0.723064
944 4 0.0527479 0.0426336 0.703508
1075 2 0.069037 0.0381244 0.739789
831 4 0.349205 0.0767796 0.702286
32 3 0.0988311 0.121004 0.732192
1283 4 0.14942 0.0904177 0.68399
35 3 0.0812077 0.151206 0.745237
1227 4 0.184955 0.103161 0.738546
1284 4 0.167689 0.0987218 0.729794
1282 2 0.158554 0.0945697 0.706892
887 4 0.30616 0.118463 0.67575
830 4 0.312879 0.110028 0.693591
829 2 0.331042 0.0934039 0.697938
1142 4 0.349652 0.128297 0.68289
851 4 0.0180898 0.186922 0.730234
850 2 0.998681 0.202255 0.726573
1208 4 0.0959022 0.248302 0.702973
822 4 0.151964 0.220573 0.704623
1278 4 0.162293 0.210032 0.718556
820 2 0.128137 0.226341 0.699708
821 4 0.10431 0.232109 0.694793
1276 2 0.16048 0.191615 0.73537
976 2 0.283884 0.200385 0.73743
977 4 0.308099 0.204224 0.732521
916 2 0.307163 0.242526 0.708792
918 4 0.306477 0.219848 0.7193
978 4 0.25967 0.196547 0.74234
3121 2 0.473919 0.235452 0.679511
3123 4 0.45933 0.241935 0.698755
1261 2 0.450684 0.229555 0.752171
1263 4 0.454378 0.204932 0.75446
1207 2 0.0761258 0.263536 0.701568
1209 4 0.0563493 0.278771 0.700162
1244 4 0.0378623 0.287858 0.698857
1243 2 0.015114 0.277653 0.696976
894 4 0.0626626 0.336075 0.682051
893 4 0.108546 0.335023 0.662195
892 2 0.0856045 0.335549 0.672123
1064 4 0.236162 0.302192 0.678142
1063 2 0.218485 0.284737 0.680971
1065 4 0.200807 0.267282 0.683799
948 4 0.185756 0.265766 0.670176
1240 2 0.230954 0.316876 0.725324
1242 4 0.21435 0.319144 0.74388
1241 4 0.247558 0.314608 0.706767
917 4 0.307848 0.265204 0.698284
1097 4 0.292906 0.277435 0.700988
1096 2 0.271735 0.289864 0.696244
1098 4 0.250564 0.302293 0.6915
1008 4 0.337942 0.268392 0.724291
1006 2 0.358279 0.273101 0.738053
1262 4 0.44699 0.254178 0.749882
1194 4 0.447923 0.273803 0.746764
1279 2 0.0460861 0.361344 0.701169
3275 4 0.0405404 0.37934 0.73583
1280 4 0.032258 0.366768 0.721282
1281 4 0.0599142 0.35592 0.681056
3274 2 0.0505559 0.393389 0.753927
940 2 0.149748 0.395878 0.751622
941 4 0.161626 0.384752 0.732641
1028 4 0.232353 0.35528 0.690372
1068 4 0.218012 0.362963 0.702375
1067 4 0.173102 0.378611 0.717834
1066 2 0.195557 0.370787 0.710104
1029 4 0.271726 0.383184 0.677263
1139 4 0.28701 0.392332 0.685788
1027 2 0.25204 0.369232 0.683818
1229 4 0.367905 0.38758 0.681007
1228 2 0.37015 0.409135 0.693477
1080 4 0.193303 0.422091 0.748262
2172 4 0.205686 0.488793 0.668951
1175 4 0.26099 0.50327 0.67367
1138 2 0.287359 0.415991 0.69387
1140 4 0.287708 0.43965 0.701952
1989 4 0.296633 0.455016 0.709906
1987 2 0.308692 0.45366 0.731767
2214 4 0.262575 0.493355 0.759436
1269 4 0.409844 0.485823 0.670121
1230 4 0.372396 0.43069 0.705948
1100 4 0.46419 0.486507 0.715868
1250 4 0.466954 0.479131 0.733757
911 4 0.0712625 0.067271 0.827936
1077 4 0.0874911 0.0359066 0.756513
1202 4 0.142129 0.0154685 0.787286
1203 4 0.0969877 0.0206511 0.766402
1201 2 0.119558 0.0180598 0.776844
2049 4 0.150096 0.997243 0.790961
1147 2 0.20019 0.0574758 0.795297
1149 4 0.205034 0.033747 0.801515
1049 4 0.22436 0.0310454 0.806962
1048 2 0.249295 0.0292892 0.80637
1050 4 0.27423 0.027533 0.805778
818 4 0.367312 0.0685718 0.807395
817 2 0.348517 0.0847916 0.804417
965 4 0.381836 0.0660893 0.822124
3387 4 0.99862 0.0994548 0.761322
1106 4 0.0626835 0.145226 0.751128
832 2 0.044261 0.11761 0.773574
863 4 0.0295017 0.100582 0.804389
833 4 0.024712 0.106601 0.784611
33 3 0.083306 0.120142 0.76641
834 4 0.0638101 0.128619 0.762537
862 2 0.0406233 0.0828683 0.81809
31 1 0.0943345 0.133502 0.750973
34 3 0.114362 0.141067 0.759922
1073 4 0.126955 0.14858 0.773439
1225 2 0.186182 0.115517 0.760248
1148 4 0.195347 0.0812046 0.789079
1226 4 0.18741 0.127874 0.78195
840 4 0.200568 0.130464 0.797382
838 2 0.22525 0.13356 0.799907
839 4 0.249932 0.136655 0.802433
959 4 0.25849 0.151511 0.793103
819 4 0.329723 0.101011 0.80144
1084 2 0.338755 0.140052 0.812418
1085 4 0.329405 0.121948 0.797926
1086 4 0.348104 0.158156 0.82691
1299 4 0.364694 0.166832 0.824388
3270 4 0.492938 0.149192 0.774167
1146 4 0.474573 0.143271 0.768947
153 3 0.00741035 0.24307 0.827134
1107 4 0.0378952 0.185829 0.735712
1105 2 0.0502893 0.165527 0.74342
779 4 0.0619445 0.204517 0.828529