ITEM: TIMESTEP
1330000
ITEM: NUMBER OF ATOMS
4590
ITEM: BOX BOUNDS pp pp pp
-9.9985700000000008e+00 9.9985700000000008e+00
-9.9985700000000008e+00 9.9985700000000008e+00
-9.9985700000000008e+00 9.9985700000000008e+00
ITEM: ATOMS id type xs ys zs
463 2 0.0486001 0.0801758 0.0247577
464 4 0.047847 0.0582952 0.0126809
3290 4 0.0596701 0.0532568 0.996774
1668 4 0.0473812 0.0308432 0.0427642
1666 2 0.0624142 0.0237977 0.0614604
1667 4 0.0774472 0.0167523 0.0801566
1476 4 0.224021 0.0327691 0.0617452
1474 2 0.241671 0.0191332 0.0504448
1475 4 0.259322 0.00549742 0.0391443
490 2 0.288199 0.0168229 0.0072678
986 4 0.351258 0.0442869 0.030028
985 2 0.360882 0.0333461 0.00970888
745 2 0.457197 0.0687913 0.0211528
747 4 0.462557 0.0622979 0.0446961
2722 2 0.483308 0.064952 0.0793336
2724 4 0.480095 0.0660776 0.0545629
1826 4 0.4533 0.017657 0.0528034
465 4 0.0493532 0.102056 0.0368344
591 4 0.0358871 0.0970234 0.0531172
701 4 0.0594023 0.118445 0.0249535
700 2 0.0429506 0.135719 0.0324453
702 4 0.0264988 0.152993 0.0399371
3234 4 0.0242886 0.147574 0.989528
589 2 0.0447965 0.100788 0.0761743
2760 4 0.00907857 0.14307 0.0469385
423 4 0.115627 0.164032 0.0402786
567 4 0.146591 0.124556 0.0634835
566 4 0.180309 0.0908539 0.0785827
1133 4 0.220645 0.143329 0.0124171
360 4 0.237218 0.135941 0.0206948
358 2 0.258488 0.131305 0.0329942
565 2 0.16345 0.107705 0.0710331
359 4 0.279758 0.126669 0.0452937
553 2 0.038946 0.192744 0.0273617
422 4 0.0693398 0.176359 0.0546408
555 4 0.0529481 0.177462 0.0413457
554 4 0.024944 0.208027 0.0133776
2835 4 0.00750939 0.216084 0.0182807
421 2 0.0924833 0.170195 0.0474597
506 4 0.194984 0.23135 0.0437388
737 4 0.193024 0.211475 0.043985
736 2 0.205813 0.196125 0.0590184
354 4 0.236404 0.189388 0.0758182
353 4 0.283608 0.19741 0.0613897
461 4 0.29429 0.212413 0.069729
352 2 0.260006 0.193399 0.068604
323 4 0.403041 0.23154 0.0403254
1071 4 0.38375 0.234188 0.034821
1069 2 0.385774 0.236972 0.0100555
322 2 0.42669 0.229942 0.0482869
1014 4 0.496046 0.219135 0.999324
324 4 0.450338 0.228344 0.0562484
1170 4 0.0642699 0.321868 0.00436316
1056 4 0.056569 0.305393 0.0144543
294 4 0.150735 0.335667 0.0353116
292 2 0.161901 0.313504 0.0383657
293 4 0.173068 0.291342 0.0414199
505 2 0.186646 0.253678 0.0361812
507 4 0.178308 0.276006 0.0286236
481 2 0.274041 0.284534 0.0111981
482 4 0.284787 0.268343 0.0269323
483 4 0.263296 0.300725 0.995464
573 4 0.392107 0.281131 0.0448484
571 2 0.373211 0.288274 0.0595824
572 4 0.354315 0.295416 0.0743165
756 4 0.331815 0.285438 0.0900141
456 4 0.148818 0.354226 0.0423625
454 2 0.152045 0.367062 0.063576
455 4 0.155273 0.379897 0.0847895
607 2 0.243601 0.363879 0.083567
252 4 0.27326 0.387063 0.0624928
250 2 0.281052 0.410817 0.0629374
608 4 0.260411 0.375005 0.0687752
524 4 0.37123 0.391468 0.0661385
671 4 0.417309 0.352093 0.0785477
281 4 0.42892 0.354516 0.0628912
280 2 0.453137 0.353506 0.0567484
282 4 0.477353 0.352496 0.0506056
104 3 0.489447 0.358745 0.0657471
550 2 0.0188612 0.48734 0.0447778
552 4 0.0236175 0.468033 0.0599366
314 4 0.0223104 0.453796 0.073407
793 2 0.159063 0.494781 0.994061
795 4 0.144835 0.476449 0.0033701
246 4 0.217318 0.503186 0.00584754
244 2 0.217299 0.4783 0.00343118
1440 4 0.240007 0.493934 0.065163
251 4 0.288844 0.434571 0.0633819
272 4 0.253319 0.494518 0.0504974
523 2 0.363419 0.415124 0.0682727
228 4 0.421388 0.429866 0.00839716
525 4 0.355607 0.43878 0.0704069
1559 4 0.353892 0.486338 0.0900496
19 3 0.0448082 0.0348678 0.134818
20 3 0.066767 0.00440189 0.132117
1422 4 0.0251503 0.0154057 0.141153
16 1 0.0658437 0.0260595 0.139099
17 3 0.0815365 0.0383849 0.127654
2480 4 0.0240181 0.0363379 0.139677
18 3 0.0704639 0.0272617 0.161806
652 2 0.243695 0.0627725 0.149568
654 4 0.237655 0.0578598 0.125807
484 2 0.32347 0.0221744 0.120119
486 4 0.313181 0.00738801 0.137459
485 4 0.33376 0.0369608 0.102779
297 4 0.336797 0.0506345 0.0882291
296 4 0.372997 0.0850229 0.0910139
295 2 0.354897 0.0678287 0.0896215
2723 4 0.486521 0.0638263 0.104104
2744 4 0.493847 0.00697093 0.155058
590 4 0.053706 0.104552 0.0992315
449 4 0.151708 0.106349 0.184662
582 4 0.322749 0.0906719 0.139525
580 2 0.308377 0.0925968 0.159894
557 4 0.383133 0.0815767 0.108423
758 4 0.367138 0.0970095 0.159817
556 2 0.398264 0.0955912 0.12256
771 4 0.451017 0.169909 0.0768302
558 4 0.413394 0.109606 0.136697
337 2 0.0829414 0.251527 0.127529
339 4 0.0997326 0.237653 0.139807
477 4 0.156188 0.215757 0.12164
738 4 0.218601 0.180775 0.0740517
475 2 0.175183 0.213659 0.137763
476 4 0.194179 0.211562 0.153885
460 2 0.310616 0.214532 0.0885474
277 2 0.279836 0.238326 0.144138
278 4 0.292819 0.242578 0.123197
462 4 0.326943 0.216651 0.107366
755 4 0.302326 0.248942 0.10731
279 4 0.266853 0.234074 0.165079
255 4 0.336827 0.205679 0.120209
254 4 0.380242 0.19124 0.100026
630 4 0.391684 0.2085 0.0961114
253 2 0.358535 0.19846 0.110118
769 2 0.464104 0.176422 0.0971152
628 2 0.412592 0.220515 0.102718
770 4 0.477191 0.182935 0.1174
624 4 0.444002 0.235498 0.125255
629 4 0.433501 0.232529 0.109324
622 2 0.443226 0.243437 0.148952
338 4 0.0661503 0.2654 0.115251
611 4 0.218706 0.292279 0.118704
610 2 0.220997 0.31714 0.117351
754 2 0.31707 0.26719 0.098662
741 4 0.345379 0.302011 0.0943527
739 2 0.353509 0.323662 0.103856
596 4 0.464121 0.325675 0.14193
621 4 0.0370931 0.403835 0.106668
619 2 0.0490547 0.38845 0.122333
620 4 0.0610164 0.373064 0.137998
647 4 0.077164 0.361859 0.142384
315 4 0.0469613 0.414694 0.0924888
646 2 0.0967844 0.372398 0.153748
648 4 0.116405 0.382936 0.165113
612 4 0.223287 0.342002 0.115998
609 4 0.226791 0.352752 0.0983588
536 4 0.172458 0.374388 0.142117
535 2 0.159981 0.356112 0.153757
302 4 0.323284 0.413009 0.145525
740 4 0.361639 0.345313 0.11336
387 4 0.330577 0.394712 0.145728
385 2 0.339493 0.373321 0.136341
386 4 0.348409 0.351931 0.126953
12 3 0.404788 0.369814 0.13128
11 1 0.405725 0.382211 0.150634
15 3 0.387042 0.378198 0.163024
672 4 0.390069 0.365962 0.118124
670 2 0.403689 0.359028 0.0983361
14 3 0.406861 0.404712 0.145082
495 4 0.422712 0.413716 0.135862
595 2 0.446107 0.340028 0.15166
313 2 0.0346359 0.434245 0.0829479
1789 2 0.0604585 0.495267 0.111495
1791 4 0.0508039 0.49344 0.134487
1466 4 0.0517932 0.513153 0.139934
1790 4 0.0701131 0.497094 0.0885033
626 4 0.167742 0.451478 0.13063
625 2 0.189689 0.44738 0.141888
627 4 0.211636 0.443282 0.153145
1438 2 0.245662 0.492075 0.0894477
1439 4 0.251317 0.490216 0.113732
638 4 0.229407 0.453072 0.149723
637 2 0.242512 0.472631 0.141304
639 4 0.255617 0.49219 0.132885
301 2 0.334962 0.427973 0.1618
494 4 0.418578 0.450168 0.101879
493 2 0.420645 0.431942 0.11887
450 4 0.108645 0.0812894 0.180385
690 4 0.16025 0.0197348 0.220003
674 4 0.156316 0.0188168 0.240118
688 2 0.174775 0.00118821 0.211621
691 2 0.235845 0.0360498 0.202803
692 4 0.228416 0.018076 0.218517
653 4 0.249735 0.0676853 0.173328
693 4 0.243274 0.0540236 0.187089
1661 4 0.297789 0.00789472 0.149553
1700 4 0.32 0.067935 0.224995
1699 2 0.297871 0.0571235 0.229303
1701 4 0.275741 0.0463121 0.23361
21 1 0.354774 0.0646214 0.2322
25 3 0.355146 0.0534171 0.212376
759 4 0.364506 0.0610622 0.194481
23 3 0.333098 0.0654102 0.240442
757 2 0.365822 0.0790358 0.177149
22 3 0.368104 0.0536146 0.247376
1760 4 0.474539 0.00732369 0.157754
513 4 0.0354787 0.150499 0.196546
511 2 0.0117654 0.157448 0.19273
448 2 0.130176 0.0938194 0.182523
236 4 0.147481 0.126586 0.186362
235 2 0.147801 0.151584 0.186743
237 4 0.14812 0.176583 0.187125
546 4 0.198233 0.122808 0.248729
581 4 0.294005 0.0945218 0.180264
28 3 0.261871 0.110551 0.215814
30 3 0.290772 0.0929874 0.199265
26 1 0.284292 0.111989 0.210017
29 3 0.287773 0.130405 0.196338
27 3 0.29678 0.114488 0.229173
24 3 0.362927 0.0861483 0.229281
312 4 0.411125 0.124877 0.183399
310 2 0.426652 0.142829 0.191263
311 4 0.442179 0.16078 0.199128
577 2 0.0642613 0.162596 0.208228
578 4 0.0397629 0.160972 0.212958
531 4 0.989593 0.197055 0.249358
579 4 0.0887596 0.164219 0.203498
283 2 0.275217 0.242375 0.200429
285 4 0.267115 0.226179 0.183189
522 4 0.486183 0.204289 0.2438
703 2 0.0115046 0.325025 0.212729
704 4 0.00957804 0.306378 0.196184
443 4 0.0859452 0.27883 0.237803
396 4 0.0832066 0.264113 0.226304
394 2 0.0952477 0.267031 0.204586
395 4 0.107289 0.26995 0.182868
363 4 0.124111 0.271532 0.17125
361 2 0.148391 0.26712 0.175274
537 4 0.147503 0.337836 0.165397
362 4 0.172671 0.262708 0.179299
372 4 0.17195 0.262038 0.199143
370 2 0.185128 0.257334 0.219865
371 4 0.198306 0.252629 0.240586
284 4 0.283319 0.258571 0.21767
343 2 0.292936 0.320916 0.232629
345 4 0.301448 0.327007 0.209922
623 4 0.442451 0.251376 0.172649
527 4 0.436845 0.255929 0.191778
526 2 0.453035 0.27491 0.193442
528 4 0.469225 0.293891 0.195107
705 4 0.0134313 0.343672 0.229275
300 4 0.131089 0.387018 0.177584
298 2 0.13144 0.398666 0.199706
299 4 0.131791 0.410314 0.221828
597 4 0.428094 0.354381 0.16139
13 3 0.424629 0.376038 0.162589
643 2 0.448299 0.377579 0.197943
644 4 0.457656 0.387507 0.218897
645 4 0.438943 0.367651 0.176989
447 4 0.453038 0.399744 0.234299
263 4 0.0420475 0.454036 0.213611
262 2 0.0476613 0.439317 0.194194
264 4 0.0532751 0.424598 0.174777
417 4 0.15882 0.470645 0.194203
1430 4 0.15457 0.489394 0.193687
290 4 0.206172 0.424541 0.213589
416 4 0.194716 0.440554 0.211717
415 2 0.176768 0.4556 0.20296
289 2 0.215703 0.431763 0.235547
766 2 0.223826 0.496581 0.20766
768 4 0.208367 0.483472 0.193019
767 4 0.239284 0.50969 0.222301
303 4 0.346641 0.442937 0.178075
659 4 0.330991 0.455521 0.182364
660 4 0.338492 0.478166 0.226315
658 2 0.334742 0.466844 0.204339
713 4 0.386193 0.472077 0.235904
712 2 0.410249 0.467956 0.241334
231 4 0.338766 0.497597 0.226603
445 2 0.44864 0.424123 0.237695
446 4 0.444243 0.448501 0.24109
714 4 0.434306 0.463835 0.246764
232 2 0.0361534 0.0370681 0.304894
234 4 0.0248117 0.0580735 0.297457
317 4 0.0259294 0.0768838 0.30228
233 4 0.0474951 0.0160626 0.312331
673 2 0.145534 0.0251044 0.261784
675 4 0.134752 0.0313919 0.283449
1406 4 0.226654 0.00439614 0.336918
723 4 0.243795 0.0729088 0.262784
1518 4 0.38155 0.000651649 0.306405
697 2 0.370999 0.0369381 0.285085
699 4 0.376577 0.0185849 0.301124
698 4 0.365422 0.0552913 0.269047
333 4 0.384372 0.0646226 0.260423
331 2 0.405439 0.075802 0.267933
744 4 0.473058 0.989612 0.26721
743 4 0.470964 0.0388017 0.275967
742 2 0.472011 0.0142068 0.271589
351 4 0.480459 0.0552606 0.269043
349 2 0.462295 0.0724301 0.268345
316 2 0.04057 0.0965585 0.297407
318 4 0.0552106 0.116233 0.292535
399 4 0.134067 0.146056 0.325688
393 4 0.141668 0.161413 0.316002
545 4 0.195091 0.16538 0.274776
722 4 0.214626 0.110566 0.247559
721 2 0.229211 0.0917375 0.255172
544 2 0.196662 0.144094 0.261752
599 4 0.226644 0.140895 0.302173
404 4 0.242348 0.153231 0.299235
598 2 0.207337 0.136204 0.317352
600 4 0.18803 0.131513 0.332531
332 4 0.426505 0.0869813 0.275443
350 4 0.444132 0.0895996 0.267648
762 4 0.414784 0.105894 0.307982
760 2 0.426857 0.123601 0.295101
761 4 0.43893 0.141308 0.282221
257 4 0.47202 0.0934015 0.326415
529 2 0.0137157 0.202464 0.253104
530 4 0.037838 0.207874 0.25685
391 2 0.159681 0.166406 0.299395
275 4 0.15856 0.199514 0.34517
392 4 0.177693 0.1714 0.282788
403 2 0.24652 0.177616 0.295608
401 4 0.238404 0.214483 0.282807
400 2 0.221893 0.232995 0.285949
402 4 0.205382 0.251507 0.28909
405 4 0.250692 0.202001 0.291981
765 4 0.386247 0.178321 0.276276
763 2 0.408789 0.189029 0.274732
521 4 0.437675 0.205669 0.255875
520 2 0.461929 0.204979 0.249837
764 4 0.43133 0.199737 0.273188
2769 4 0.495495 0.176041 0.316364
442 2 0.0725922 0.294096 0.252426
444 4 0.0592391 0.309361 0.26705
390 4 0.100104 0.281278 0.333151
344 4 0.284424 0.314824 0.255337
309 4 0.297827 0.30971 0.269276
307 2 0.304774 0.323253 0.289113
615 4 0.414534 0.316806 0.304797
541 2 0.450774 0.303971 0.304284
542 4 0.475135 0.306876 0.299459
543 4 0.426413 0.301066 0.309108
748 2 0.0727962 0.367316 0.25892
749 4 0.0510423 0.360105 0.268917
365 4 0.0183289 0.389955 0.307197
364 2 0.0363236 0.375549 0.297511
366 4 0.0543183 0.361142 0.287825
549 4 0.017694 0.400147 0.32535
750 4 0.0945501 0.374527 0.248923
734 4 0.105749 0.359065 0.244282
733 2 0.124743 0.357399 0.260457
735 4 0.143737 0.355732 0.276632
678 4 0.161442 0.35309 0.332689
676 2 0.16011 0.348409 0.308163
601 2 0.113233 0.388212 0.320666
603 4 0.116863 0.363516 0.322108
677 4 0.158779 0.343728 0.283638
497 4 0.338785 0.341414 0.32206
308 4 0.31172 0.336796 0.30895
729 4 0.324342 0.350974 0.310885
727 2 0.320828 0.375627 0.313137
728 4 0.317313 0.400279 0.31539
434 4 0.334247 0.410274 0.328084
614 4 0.397741 0.363344 0.312072
613 2 0.406137 0.340075 0.308434
602 4 0.109602 0.412909 0.319223
777 4 0.109249 0.432028 0.313725
1757 4 0.102533 0.47107 0.269523
1756 2 0.0947753 0.494681 0.272261
776 4 0.120839 0.462851 0.276091
775 2 0.115044 0.447439 0.294908
291 4 0.225234 0.438986 0.257506
1545 4 0.205906 0.481425 0.312044
414 4 0.207847 0.446198 0.264613
413 4 0.199892 0.486563 0.29304
412 2 0.20387 0.46638 0.278826
1543 2 0.190851 0.493732 0.327763
1435 2 0.247793 0.466753 0.315017
1436 4 0.225509 0.477731 0.312178
438 4 0.329467 0.472091 0.282389
437 4 0.287571 0.454696 0.303435
436 2 0.308519 0.463394 0.292912
1437 4 0.270077 0.455774 0.317857
5 3 0.288547 0.445121 0.323246
2 3 0.314496 0.418621 0.327405
433 2 0.354406 0.419887 0.316843
435 4 0.374566 0.429501 0.305603
2862 4 0.498836 0.434354 0.297252
120 3 0.498573 0.43837 0.316592
2861 4 0.482166 0.468657 0.264908
2860 2 0.490501 0.451506 0.28108
2584 2 0.0105093 0.0763416 0.39991
428 4 0.0891541 0.0453364 0.364365
427 2 0.0806002 0.024339 0.374906
606 4 0.127748 0.0270782 0.383449
731 4 0.0993312 0.0527904 0.380732
730 2 0.114579 0.0700935 0.371075
604 2 0.149386 0.0239074 0.371328
605 4 0.171025 0.0207365 0.359208
682 2 0.223984 0.0566629 0.393876
684 4 0.221738 0.0381557 0.377214
683 4 0.22623 0.0751701 0.410538
249 4 0.312859 0.0601625 0.341738
247 2 0.320941 0.0799732 0.354676
439 2 0.267641 0.0102147 0.413331
425 4 0.397464 0.0345709 0.377254
1749 4 0.477769 0.00539871 0.335147
424 2 0.415204 0.0504037 0.369521
480 4 0.495836 0.0149247 0.334118
256 2 0.462449 0.0784125 0.343991
426 4 0.432944 0.0662365 0.361788
258 4 0.452877 0.0634235 0.361566
2878 2 0.495211 0.0604992 0.409146
397 2 0.132457 0.126818 0.341577
732 4 0.129828 0.0873967 0.361417
398 4 0.130846 0.107579 0.357466
686 4 0.168252 0.143829 0.395946
685 2 0.178294 0.135964 0.374441
687 4 0.188337 0.1281 0.352936
248 4 0.329024 0.0997839 0.367614
321 4 0.272971 0.118565 0.375485
319 2 0.269696 0.110055 0.398767
633 4 0.33848 0.117134 0.368435
632 4 0.38334 0.137136 0.359045
631 2 0.36091 0.127135 0.36374
420 4 0.417365 0.168796 0.382374
2654 4 0.00482615 0.253348 0.374716
2653 2 0.989954 0.242782 0.357617
274 2 0.14948 0.222764 0.346652
276 4 0.140401 0.246013 0.348134
474 4 0.177547 0.20404 0.33866
472 2 0.201941 0.204694 0.344107
473 4 0.226335 0.205347 0.349554
708 4 0.237336 0.200206 0.367052
706 2 0.252534 0.187394 0.382219
707 4 0.267731 0.174582 0.397387
419 4 0.400351 0.212029 0.363879
716 4 0.393001 0.228345 0.354884
715 2 0.368573 0.233071 0.357354
717 4 0.344145 0.237797 0.359824
453 4 0.490296 0.159765 0.409997
418 2 0.408858 0.190413 0.373126
269 4 0.45884 0.258668 0.367885
516 4 0.437994 0.191401 0.43121
617 4 0.058425 0.259411 0.382632
347 4 0.0103686 0.290428 0.414294
618 4 0.0149526 0.278803 0.397956
616 2 0.0366888 0.269107 0.390294
388 2 0.11687 0.27007 0.347932
389 4 0.133636 0.258863 0.362713
374 4 0.240288 0.326934 0.354448
510 4 0.246712 0.309682 0.363445
508 2 0.268026 0.296617 0.363909
509 4 0.28934 0.283553 0.364372
488 4 0.31242 0.271564 0.409942
498 4 0.318586 0.317211 0.36088
487 2 0.290135 0.262244 0.4164
376 2 0.334235 0.276313 0.364996
378 4 0.328001 0.299401 0.357696
377 4 0.340469 0.253226 0.372295
268 2 0.482758 0.25707 0.374994
548 4 0.0367415 0.418881 0.367622
547 2 0.0272178 0.409514 0.346486
502 2 0.215759 0.399868 0.389916
504 4 0.208002 0.386285 0.37041
373 2 0.227663 0.347564 0.360789
375 4 0.215039 0.368193 0.367129
496 2 0.328685 0.329312 0.34147
3 3 0.283559 0.417862 0.348736
561 4 0.474752 0.421275 0.408231
407 4 0.0412522 0.434504 0.379954
406 2 0.053108 0.443799 0.39991
710 4 0.152984 0.428338 0.418195
503 4 0.223516 0.413452 0.409422
636 4 0.208094 0.425853 0.411932
1 1 0.299036 0.431678 0.338343
668 4 0.323038 0.439245 0.367811
4 3 0.310002 0.444611 0.354182
667 2 0.339241 0.427328 0.382665
669 4 0.355443 0.415411 0.39752
336 4 0.364111 0.423778 0.41357
594 4 0.44435 0.489599 0.39632
753 4 0.490516 0.423309 0.354975
119 3 0.50863 0.421355 0.348638
752 4 0.478884 0.43926 0.400921
593 4 0.447673 0.476005 0.348311
751 2 0.4847 0.431285 0.377948
592 2 0.446011 0.482802 0.372315
718 2 0.0542404 0.0368237 0.493686
2586 4 0.0207842 0.080087 0.422395
719 4 0.0691197 0.0310586 0.474436
368 4 0.0961659 0.0503168 0.423858
367 2 0.096573 0.0359339 0.444307
369 4 0.0969801 0.0215511 0.464755
2430 4 0.211527 0.0328768 0.458182
2428 2 0.235928 0.0307438 0.45316
340 2 0.206191 0.0708413 0.485993
2429 4 0.260329 0.0286108 0.448137
1182 4 0.234652 0.058321 0.503042
441 4 0.267668 0.0298552 0.428804
1180 2 0.259044 0.0528242 0.503175
432 4 0.318099 0.0895989 0.48034
2880 4 0.476579 0.071587 0.421599
642 4 0.475425 0.0747991 0.441452
937 2 0.141305 0.161735 0.492244
342 4 0.191049 0.0905981 0.483632
467 4 0.323194 0.126765 0.419278
726 4 0.30995 0.0819027 0.463207
724 2 0.288649 0.0884407 0.451862
725 4 0.267348 0.0949786 0.440517
320 4 0.266422 0.101544 0.422048
430 2 0.326405 0.0916982 0.50383
466 2 0.339328 0.118217 0.436361
468 4 0.355461 0.109669 0.453443
515 4 0.484549 0.177027 0.419955
641 4 0.462545 0.111289 0.473128
640 2 0.468985 0.0930439 0.45729
3158 4 0.475582 0.125456 0.477176
3157 2 0.476515 0.15029 0.474425
469 2 0.0447134 0.219205 0.454448
470 4 0.020192 0.219428 0.45933
471 4 0.0692348 0.218982 0.449567
261 4 0.132513 0.201154 0.4732
260 4 0.0851747 0.213568 0.462918
259 2 0.108844 0.207361 0.468059
938 4 0.139036 0.183909 0.480916
411 4 0.249951 0.205668 0.442136
409 2 0.247224 0.18674 0.458245
650 4 0.232296 0.212481 0.438409
651 4 0.251236 0.251338 0.413267
410 4 0.244496 0.167813 0.474354
649 2 0.241766 0.231909 0.425838
576 4 0.404136 0.195084 0.482525
585 4 0.399607 0.249927 0.4334
574 2 0.413882 0.187132 0.460916
514 2 0.461271 0.184214 0.425583
575 4 0.423628 0.179179 0.439307
3159 4 0.477448 0.175124 0.471674
2814 4 0.0226996 0.324171 0.455473
348 4 0.0365835 0.323074 0.441638
346 2 0.023476 0.306751 0.427966
695 4 0.123697 0.309839 0.459139
694 2 0.12994 0.293985 0.477438
696 4 0.136182 0.278131 0.495737
489 4 0.267851 0.252923 0.422858
267 4 0.344013 0.285381 0.423053
265 2 0.363824 0.270127 0.423256
266 4 0.383635 0.254874 0.423458
583 2 0.423544 0.247993 0.440363
2457 4 0.470252 0.303405 0.473254
2455 2 0.457787 0.284227 0.463154
2456 4 0.445321 0.26505 0.453055
584 4 0.44748 0.24606 0.447325
2813 4 0.0238224 0.362498 0.487575
2812 2 0.023261 0.343335 0.471524
709 2 0.160888 0.405957 0.426056
326 4 0.0896035 0.401524 0.427101
10 3 0.145862 0.345671 0.466157
7 3 0.133878 0.380991 0.464811
327 4 0.114757 0.385476 0.467233
325 2 0.10218 0.3935 0.447167
6 1 0.152202 0.367464 0.468038
9 3 0.160798 0.371408 0.489227
8 3 0.168157 0.372484 0.451956
711 4 0.168792 0.383576 0.433917
804 4 0.294176 0.376286 0.501387
334 2 0.369434 0.4 0.419176
335 4 0.374757 0.376222 0.424783
238 2 0.36927 0.362645 0.466607
240 4 0.375663 0.371155 0.443981
239 4 0.362877 0.354136 0.489232
2712 4 0.497143 0.411626 0.454169
2506 2 0.513014 0.35809 0.448493
2508 4 0.502243 0.380128 0.443644
559 2 0.481627 0.408005 0.428277
560 4 0.488502 0.394735 0.448322
408 4 0.0649638 0.453094 0.419865
680 4 0.024438 0.458827 0.465884
679 2 0.0198707 0.47971 0.452914
1381 2 0.010519 0.444978 0.495989
1383 4 0.00570646 0.456189 0.474164
681 4 0.0153034 0.500593 0.439943
382 2 0.12387 0.432253 0.507689
570 4 0.146493 0.445145 0.427257
568 2 0.14197 0.450772 0.451196
569 4 0.137448 0.456398 0.475134
384 4 0.136292 0.448352 0.493138
774 4 0.209577 0.469292 0.461138
772 2 0.203349 0.458443 0.482788
634 2 0.213413 0.443551 0.428774
635 4 0.218732 0.461249 0.445617
1401 4 0.35143 0.485026 0.491305
586 2 0.3894 0.503812 0.428207
1400 4 0.361535 0.478671 0.442743
1399 2 0.356482 0.481848 0.467024
588 4 0.370728 0.487477 0.425096
1126 2 0.0194817 0.0597552 0.532143
1127 4 0.04219 0.0603726 0.521697
720 4 0.0393611 0.0425888 0.512935
1059 4 0.110226 0.0779845 0.568616
951 4 0.208085 0.0619671 0.580611
1031 4 0.217678 0.0463268 0.570535
1030 2 0.241303 0.0467644 0.56236
949 2 0.184819 0.0612973 0.571477
341 4 0.221332 0.0510845 0.488354
961 2 0.294989 0.0156724 0.522329
963 4 0.29597 0.03255 0.503907
1032 4 0.264929 0.0472019 0.554185
2195 4 0.290388 0.00470799 0.559753
1181 4 0.283436 0.0473274 0.503308
841 2 0.369036 0.0666366 0.533135
843 4 0.349918 0.0811095 0.526049
842 4 0.388154 0.0521638 0.540222
1217 4 0.408354 0.0513594 0.542995
4466 4 0.46308 0.0180989 0.55374
1062 4 0.475236 0.00280469 0.558988
1218 4 0.442938 0.0706655 0.512467
1216 2 0.425646 0.0610125 0.527731
4465 2 0.443909 0.0243531 0.568522
1033 2 0.0675944 0.165408 0.506836
1035 4 0.0623302 0.142221 0.514571
939 4 0.143574 0.139561 0.503572
1151 4 0.149065 0.122382 0.515522
1155 4 0.130175 0.0810583 0.569772
1150 2 0.167421 0.106336 0.509976
1152 4 0.185776 0.0902893 0.50443
857 4 0.29419 0.145353 0.558901
899 4 0.308803 0.152491 0.546677
431 4 0.334711 0.0937975 0.52732
1199 4 0.0149675 0.181894 0.573949
1034 4 0.0728586 0.188595 0.499102
877 2 0.0775137 0.230904 0.573596
858 4 0.256093 0.177656 0.56133
898 2 0.330408 0.163854 0.552089
856 2 0.275141 0.161505 0.560115
798 4 0.265721 0.237429 0.562993
796 2 0.262094 0.21374 0.570127
797 4 0.258467 0.190052 0.57726
900 4 0.352014 0.175216 0.557502
871 2 0.350348 0.218694 0.558949
872 4 0.3569 0.194578 0.558142
904 2 0.485998 0.241029 0.579111
878 4 0.0825261 0.246295 0.554539
1258 2 0.162405 0.265228 0.52422
1260 4 0.140919 0.272529 0.513721
1259 4 0.183891 0.257927 0.534719
812 4 0.305779 0.278229 0.528994
811 2 0.315588 0.259623 0.542514
873 4 0.343797 0.242811 0.559756
813 4 0.325397 0.241017 0.556034
953 4 0.473177 0.279201 0.595239
1137 4 0.138247 0.366187 0.5617
383 4 0.111449 0.416155 0.522241
897 4 0.15039 0.353933 0.571073
1135 2 0.123448 0.366115 0.581854
895 2 0.174804 0.34855 0.570683
1189 2 0.226898 0.34645 0.540267
896 4 0.199219 0.343167 0.570294
1191 4 0.206535 0.352931 0.553248
1190 4 0.247262 0.339969 0.527287
803 4 0.256389 0.359338 0.529415
1173 4 0.260564 0.394528 0.578753
802 2 0.275282 0.367812 0.515401
928 2 0.375193 0.376912 0.550226
929 4 0.35939 0.385979 0.533101
1206 4 0.394781 0.350112 0.580079
930 4 0.390995 0.367845 0.56735
1204 2 0.408903 0.329949 0.584466
925 2 0.479448 0.391347 0.535146
926 4 0.472673 0.415388 0.536295
927 4 0.486223 0.367306 0.533997
538 2 0.0533219 0.471096 0.520885
540 4 0.0380078 0.451602 0.524147
539 4 0.068636 0.49059 0.517624
936 4 0.000711969 0.455568 0.568989
1382 4 0.0153315 0.433767 0.517814
1160 4 0.202708 0.435484 0.586855
773 4 0.19712 0.447595 0.504437
1171 2 0.271465 0.415196 0.569854
1172 4 0.282366 0.435863 0.560955
882 4 0.287661 0.449708 0.545512
880 2 0.287852 0.468689 0.529238
881 4 0.288043 0.48767 0.512964
1454 4 0.30193 0.501477 0.507277
1001 4 0.480221 0.427158 0.55061
1000 2 0.472112 0.441188 0.569652
663 4 0.488487 0.444268 0.543155
661 2 0.50419 0.452324 0.525443
1002 4 0.464004 0.455218 0.588694
1185 4 0.0214977 0.0375619 0.659568
945 4 0.040576 0.0322094 0.658595
1183 2 0.00442052 0.053153 0.650057
943 2 0.0626809 0.0434373 0.661833
944 4 0.0847857 0.0546651 0.665072
1058 4 0.095801 0.0341336 0.587844
1057 2 0.103013 0.056059 0.57823
825 4 0.102742 0.0172725 0.59642
823 2 0.112566 0.997178 0.607596
950 4 0.161553 0.0606276 0.562342
2194 2 0.28552 0.0165649 0.581221
2196 4 0.280652 0.0284219 0.60269
1004 4 0.332775 0.0529269 0.632955
1003 2 0.348243 0.0572473 0.652118
4467 4 0.424738 0.0306074 0.583305
2283 4 0.42416 0.0465838 0.595638
2282 4 0.438338 0.041255 0.643296
2281 2 0.431249 0.0439194 0.619467
43 3 0.457374 0.0361999 0.645671
45 3 0.494589 0.0419131 0.645496
810 4 0.511395 0.0500126 0.636258
41 1 0.475234 0.0459939 0.656783
44 3 0.471825 0.0688704 0.65864
1081 2 0.0390633 0.16025 0.606789
1083 4 0.0217526 0.146275 0.618201
1153 2 0.141725 0.0961291 0.58604
1154 4 0.153275 0.1112 0.602308
1221 4 0.173865 0.111042 0.597671
1219 2 0.18634 0.113799 0.619164
1220 4 0.198816 0.116556 0.640656
1212 4 0.218409 0.120514 0.639336
1210 2 0.242189 0.118594 0.646818
1283 4 0.186484 0.120342 0.65618
1211 4 0.26597 0.116674 0.6543
1026 4 0.45001 0.170967 0.665107
1082 4 0.056374 0.174224 0.595377
879 4 0.0725012 0.215513 0.592653
1209 4 0.0668439 0.247234 0.649812
1272 4 0.0929023 0.212982 0.596411
1270 2 0.108069 0.211877 0.616259
1271 4 0.123236 0.210771 0.636106
909 4 0.140535 0.210106 0.627593
907 2 0.160762 0.220582 0.637904
908 4 0.180989 0.231057 0.648214
947 4 0.197608 0.236701 0.637296
946 2 0.206531 0.241842 0.614512
948 4 0.215454 0.246982 0.591728
1142 4 0.356217 0.192791 0.676331
1141 2 0.37161 0.18721 0.657434
1143 4 0.387002 0.181628 0.638537
1025 4 0.405494 0.175562 0.642793
1024 2 0.427752 0.173265 0.65395
1243 2 0.0403421 0.301691 0.663983
1244 4 0.06431 0.303854 0.657198
1238 4 0.259104 0.297138 0.585989
791 4 0.253827 0.25957 0.641318
1237 2 0.257828 0.322097 0.585237
792 4 0.257851 0.294783 0.60604
790 2 0.255839 0.277176 0.623679
905 4 0.476519 0.259952 0.592425
952 2 0.457339 0.297857 0.59011
954 4 0.441502 0.316513 0.584981
3121 2 0.485244 0.255981 0.66021
3123 4 0.484462 0.274569 0.643505
1205 4 0.423025 0.309787 0.588852
983 4 0.0115671 0.370517 0.643578
1039 2 0.0496075 0.391493 0.640149
1041 4 0.0274566 0.380181 0.637588
1040 4 0.0717584 0.402805 0.64271
1136 4 0.108649 0.366043 0.602007
993 4 0.0879535 0.410561 0.634473
1239 4 0.256552 0.347057 0.584485
991 2 0.108393 0.424374 0.630399
992 4 0.128833 0.438187 0.626324
2172 4 0.124357 0.472245 0.661066
2170 2 0.110177 0.492537 0.657552
1159 2 0.194153 0.458443 0.581869
2243 4 0.18345 0.491231 0.593768
1161 4 0.185597 0.481402 0.576883
891 4 0.314089 0.476101 0.603455
1952 4 0.321161 0.494785 0.597936
890 4 0.316582 0.426518 0.597457
889 2 0.315335 0.451309 0.600456
1910 4 0.463441 0.474138 0.593985
1909 2 0.448812 0.494207 0.596888
2319 4 0.0241009 0.0269698 0.695872
1075 2 0.0386841 0.0389997 0.732164
1076 4 0.0255477 0.0254337 0.715775
1005 4 0.363711 0.0615677 0.671282
1163 4 0.488872 0.0461416 0.692491
42 3 0.47672 0.0369595 0.677886
1282 2 0.193188 0.120546 0.680267
1284 4 0.199892 0.12075 0.704354
1227 4 0.213331 0.135455 0.702224
1225 2 0.220275 0.14297 0.725038
888 4 0.279114 0.126509 0.665999
886 2 0.296476 0.135391 0.681647
887 4 0.313838 0.144273 0.697295
830 4 0.32098 0.135048 0.711858
829 2 0.333022 0.151786 0.726001
1146 4 0.479817 0.13701 0.731297
1144 2 0.473061 0.153815 0.71406
3270 4 0.46987 0.145813 0.746213
1105 2 0.0530309 0.199736 0.734423
1107 4 0.0339331 0.197524 0.718437
851 4 0.0159118 0.197558 0.711157
850 2 0.00597189 0.219781 0.705454
1106 4 0.0721287 0.201948 0.750409
1178 4 0.996634 0.240908 0.678492
852 4 0.996032 0.242004 0.699752
822 4 0.142983 0.228559 0.709016
1278 4 0.151749 0.210891 0.710912
1276 2 0.153934 0.198863 0.732723
916 2 0.285199 0.241319 0.740723
918 4 0.299088 0.223669 0.751711
831 4 0.345063 0.168525 0.740143
1192 2 0.382787 0.224375 0.715319
1194 4 0.403842 0.211513 0.719373
1262 4 0.420126 0.211457 0.70726
1193 4 0.361732 0.237237 0.711265
1261 2 0.442783 0.201342 0.704174
1263 4 0.46544 0.191227 0.701088
1145 4 0.466306 0.170621 0.696823
3122 4 0.486026 0.237393 0.676915
1245 4 0.0163742 0.299527 0.670768
1207 2 0.0621184 0.25183 0.673931
1179 4 0.0015029 0.288569 0.664157
1208 4 0.057393 0.256427 0.69805
1177 2 0.999069 0.264739 0.671325
820 2 0.132645 0.249301 0.718401
821 4 0.122308 0.270044 0.727786
1064 4 0.209897 0.279335 0.71421
1063 2 0.213621 0.261909 0.696671
1065 4 0.217346 0.244482 0.679131
917 4 0.271309 0.258969 0.729734
1097 4 0.25966 0.26289 0.745507
1096 2 0.255103 0.287005 0.75029
807 4 0.431748 0.32177 0.71391
806 4 0.420364 0.275583 0.729333
805 2 0.426056 0.298677 0.721621
894 4 0.0708329 0.380098 0.701836
892 2 0.0743491 0.402907 0.692215
941 4 0.156295 0.425808 0.698439
940 2 0.1411 0.423294 0.718136
1067 4 0.171455 0.414335 0.696907
1066 2 0.194163 0.403872 0.697124
1068 4 0.216871 0.393409 0.697342
1028 4 0.227169 0.411637 0.69522
1027 2 0.250694 0.417506 0.689112
1140 4 0.312193 0.397724 0.735264
1138 2 0.297193 0.407352 0.717729
1018 2 0.413745 0.351617 0.736465
1230 4 0.367581 0.40343 0.755971
1020 4 0.431627 0.335303 0.730196
3330 4 0.461342 0.415428 0.688755
1280 4 0.0444471 0.43069 0.746517
2020 2 0.0772046 0.498545 0.723117
1281 4 0.0614689 0.460205 0.709913
1279 2 0.052958 0.445447 0.728215
2021 4 0.0608887 0.493144 0.741278
893 4 0.0778653 0.425717 0.682594
942 4 0.125905 0.42078 0.737832
1175 4 0.213883 0.519666 0.688857
1029 4 0.274219 0.423375 0.683004
1139 4 0.282193 0.416979 0.700193
1989 4 0.322426 0.448107 0.735368
1229 4 0.337908 0.442281 0.745446
1228 2 0.352744 0.422855 0.750708
3328 2 0.456824 0.419918 0.712933
3329 4 0.452305 0.424408 0.737111
1077 4 0.0518205 0.0525657 0.748552
1203 4 0.0674376 0.048386 0.761835
1201 2 0.0908494 0.0431404 0.768874
1202 4 0.114261 0.0378947 0.775913
2049 4 0.114113 0.0182898 0.776338
1148 4 0.202478 0.0177828 0.757513
1147 2 0.210196 0.0359223 0.772894
1149 4 0.217913 0.0540618 0.788275
1256 4 0.319288 0.066932 0.760013
1049 4 0.25451 0.0346033 0.832234
1048 2 0.272812 0.0181726 0.836732
1255 2 0.298304 0.0563704 0.768576
1257 4 0.277321 0.0458088 0.777139
1050 4 0.291115 0.00174181 0.84123
1112 4 0.422621 0.0159551 0.800182
846 4 0.466102 0.042129 0.781232
1113 4 0.448772 0.051619 0.776838
1111 2 0.435696 0.0337871 0.78851
844 2 0.488762 0.0523094 0.784073
864 4 0.0397067 0.0908429 0.814342
911 4 0.0366248 0.0915961 0.83457
862 2 0.0275352 0.103839 0.796788
832 2 0.0298 0.153519 0.770282
863 4 0.0153636 0.116835 0.779235
833 4 0.0146838 0.133645 0.768974
33 3 0.0611006 0.170345 0.78511