ITEM: TIMESTEP
3190000
ITEM: NUMBER OF ATOMS
4590
ITEM: BOX BOUNDS pp pp pp
-9.9985700000000008e+00 9.9985700000000008e+00
-9.9985700000000008e+00 9.9985700000000008e+00
-9.9985700000000008e+00 9.9985700000000008e+00
ITEM: ATOMS id type xs ys zs
463 2 0.0275181 0.0345014 0.00884752
464 4 0.037346 0.0116501 0.0113789
465 4 0.0176902 0.0573528 0.00631612
1668 4 0.0847833 0.050087 0.0697371
1666 2 0.0633263 0.0604697 0.0772852
3290 4 0.0940342 0.0598887 0.0546553
3289 2 0.0986939 0.0452101 0.0349575
3291 4 0.103354 0.0305314 0.0152597
566 4 0.13403 0.028496 0.0339141
565 2 0.148976 0.00974535 0.0268296
490 2 0.313465 0.00897263 0.0556737
491 4 0.323423 0.0231849 0.037673
985 2 0.315683 0.0385103 0.00525809
987 4 0.338538 0.0284266 0.00417446
747 4 0.490673 0.0161673 0.0819496
701 4 0.0133662 0.0755661 0.0152863
359 4 0.255956 0.131374 0.00713243
460 2 0.291759 0.153634 0.0608001
462 4 0.296386 0.142128 0.0825109
150 3 0.460222 0.125226 0.0084824
422 4 0.0701592 0.214152 0.0084921
836 4 0.0616047 0.222536 0.993654
505 2 0.139122 0.247533 0.0495989
737 4 0.172162 0.221111 0.0623919
506 4 0.161461 0.237307 0.0542408
736 2 0.189425 0.204749 0.0546824
738 4 0.206689 0.188388 0.0469729
354 4 0.225643 0.193588 0.0436711
352 2 0.249514 0.186221 0.0426415
461 4 0.287132 0.165141 0.0390892
353 4 0.273386 0.178855 0.0416119
665 4 0.356564 0.173893 0.0321533
664 2 0.340979 0.173221 0.012613
517 2 0.502442 0.250398 0.0762323
3339 4 0.0211433 0.302001 0.0143271
2807 4 0.0281169 0.286764 0.025542
2806 2 0.0122829 0.275645 0.0413799
293 4 0.114005 0.276215 0.0527656
507 4 0.116782 0.25776 0.0449569
287 4 0.157318 0.282154 0.0126276
286 2 0.154347 0.304584 0.0232694
292 2 0.103702 0.294193 0.0667592
288 4 0.151375 0.327014 0.0339111
294 4 0.0933987 0.312171 0.0807529
356 4 0.243125 0.261018 0.00753405
483 4 0.251154 0.275695 0.0196452
612 4 0.279266 0.30483 0.0470421
610 2 0.268344 0.292943 0.0661368
609 4 0.269809 0.323594 0.0422759
482 4 0.292939 0.296416 0.00160581
481 2 0.272047 0.286056 0.0106255
990 4 0.155992 0.346526 0.0261771
988 2 0.162017 0.370785 0.0255713
1289 4 0.181359 0.408083 0.0180991
989 4 0.168042 0.395044 0.0249656
607 2 0.277284 0.347453 0.0420176
250 2 0.293002 0.402003 0.0472497
252 4 0.273663 0.386366 0.0498295
608 4 0.28476 0.371311 0.0417594
251 4 0.312341 0.41764 0.0446699
386 4 0.333251 0.355043 0.0853082
741 4 0.362843 0.345808 0.0408389
739 2 0.342204 0.349672 0.0544134
740 4 0.321564 0.353535 0.067988
226 2 0.391923 0.404021 0.0324031
228 4 0.375984 0.420785 0.041895
227 4 0.407862 0.387257 0.0229111
1305 4 0.406796 0.369178 0.0102595
1303 2 0.41032 0.345096 0.0045285
1046 4 0.492049 0.365793 0.00134735
1045 2 0.494191 0.359513 0.0254546
280 2 0.465272 0.34891 0.0710308
282 4 0.489396 0.355205 0.0691337
1047 4 0.496333 0.353234 0.0495619
671 4 0.42448 0.342023 0.0825231
281 4 0.441149 0.342614 0.0729279
552 4 0.999367 0.461739 0.0497411
550 2 0.00837809 0.485026 0.0484403
551 4 0.0173893 0.508313 0.0471395
1788 4 0.142061 0.496047 0.0498497
1786 2 0.165298 0.487968 0.0453838
1767 4 0.125518 0.492479 0.0591823
243 4 0.208572 0.426988 0.0619453
1440 4 0.220443 0.424353 0.0785649
241 2 0.207568 0.450736 0.0541877
242 4 0.206564 0.474485 0.0464301
1787 4 0.188535 0.479889 0.0409178
524 4 0.316466 0.427251 0.0620176
271 2 0.288873 0.482184 0.0721603
273 4 0.29794 0.50061 0.0578963
525 4 0.365413 0.433266 0.0537287
523 2 0.340939 0.430259 0.0578731
1584 4 0.475907 0.504198 0.0782105
1583 4 0.460144 0.468906 0.0464818
1582 2 0.468025 0.486552 0.0623461
1667 4 0.0418692 0.0708525 0.0848332
16 1 0.036154 0.0569168 0.124949
19 3 0.0199478 0.0697452 0.135494
17 3 0.0403061 0.065812 0.104146
20 3 0.0287991 0.0354901 0.122614
18 3 0.0557928 0.057244 0.137303
2480 4 0.00546695 0.0776119 0.152403
1422 4 0.00587037 0.0561494 0.14477
652 2 0.267845 0.0605825 0.150542
654 4 0.270697 0.0534065 0.126761
1476 4 0.284385 0.0527559 0.112277
1474 2 0.302152 0.0692101 0.106047
1661 4 0.333986 0.988767 0.138121
486 4 0.341037 0.00648788 0.138158
297 4 0.386856 0.0385186 0.144486
295 2 0.404826 0.0534121 0.135516
484 2 0.3582 0.0241495 0.133837
485 4 0.375363 0.0418112 0.129516
745 2 0.474576 0.0346713 0.0868137
746 4 0.458479 0.0531754 0.0916778
296 4 0.422796 0.0683056 0.126547
557 4 0.424578 0.0761843 0.108872
450 4 0.0794736 0.116966 0.0912869
236 4 0.136438 0.115168 0.118319
449 4 0.123468 0.103001 0.110528
448 2 0.101471 0.109983 0.100907
235 2 0.140341 0.125405 0.140794
237 4 0.144243 0.135642 0.16327
28 3 0.249687 0.124892 0.159911
1475 4 0.319918 0.0856643 0.0998181
29 3 0.248148 0.152395 0.133726
580 2 0.308168 0.117504 0.143426
581 4 0.283307 0.115774 0.14545
30 3 0.28056 0.134521 0.140629
26 1 0.261316 0.142337 0.14997
582 4 0.33303 0.119234 0.141402
758 4 0.352183 0.118301 0.141254
757 2 0.360602 0.107604 0.162227
556 2 0.447861 0.0835431 0.114252
558 4 0.471144 0.0909018 0.119632
771 4 0.479227 0.0975393 0.138541
769 2 0.480057 0.10995 0.160231
362 4 0.15554 0.237831 0.192126
477 4 0.240633 0.170223 0.127492
371 4 0.204574 0.215993 0.15735
476 4 0.209036 0.206341 0.141557
475 2 0.224834 0.188282 0.134525
370 2 0.190044 0.228566 0.173349
756 4 0.346345 0.245919 0.130493
754 2 0.339464 0.238109 0.153227
255 4 0.360966 0.245865 0.116954
253 2 0.383324 0.243983 0.105919
518 4 0.502834 0.231476 0.0925709
456 4 0.101707 0.330346 0.0817429
454 2 0.116103 0.342034 0.0985154
338 4 0.0887407 0.273698 0.169342
611 4 0.257423 0.281057 0.0852316
279 4 0.277569 0.279106 0.145488
277 2 0.274129 0.284665 0.121354
278 4 0.270688 0.290223 0.0972201
285 4 0.26717 0.271895 0.160898
254 4 0.405682 0.2421 0.0948852
624 4 0.466083 0.25555 0.155936
629 4 0.456576 0.254874 0.138487
628 2 0.438457 0.253433 0.121317
630 4 0.420338 0.251991 0.104147
622 2 0.449611 0.257755 0.174618
619 2 0.0315478 0.368856 0.136689
620 4 0.0470164 0.384285 0.12453
621 4 0.0160793 0.353427 0.148849
315 4 0.0167415 0.417655 0.0949511
2786 4 0.0057122 0.401836 0.0990159
455 4 0.130499 0.353722 0.115288
537 4 0.126008 0.398758 0.148829
535 2 0.13422 0.384147 0.130274
536 4 0.142432 0.369537 0.111719
647 4 0.131071 0.402817 0.168118
625 2 0.220214 0.380546 0.148241
627 4 0.225765 0.401693 0.136111
626 4 0.214663 0.359398 0.160372
1439 4 0.222136 0.4204 0.128387
1438 2 0.221289 0.422377 0.103476
301 2 0.329837 0.414712 0.132822
302 4 0.335838 0.390565 0.13036
670 2 0.406208 0.349982 0.0976218
385 2 0.339431 0.364404 0.107655
387 4 0.345611 0.373764 0.130001
12 3 0.388212 0.372857 0.126919
11 1 0.380724 0.393653 0.133295
15 3 0.357952 0.393667 0.133566
672 4 0.387936 0.357941 0.112721
13 3 0.388897 0.398396 0.154487
14 3 0.388471 0.409395 0.11811
104 3 0.499127 0.360661 0.0862089
313 2 0.0134259 0.437728 0.0804169
314 4 0.0101103 0.457802 0.0658826
1618 2 0.14603 0.493182 0.107849
1431 4 0.162943 0.488629 0.144668
1619 4 0.146353 0.496862 0.0831199
1620 4 0.145707 0.489502 0.132578
1429 2 0.158863 0.470083 0.160934
272 4 0.279807 0.463758 0.0864242
639 4 0.271823 0.485662 0.129439
638 4 0.303606 0.453945 0.151451
637 2 0.287714 0.469803 0.140445
303 4 0.323836 0.43886 0.135284
659 4 0.319191 0.443038 0.155044
1574 4 0.259045 0.499403 0.138835
1559 4 0.375193 0.492276 0.13762
495 4 0.390453 0.424694 0.12967
493 2 0.403581 0.444393 0.121621
494 4 0.416708 0.464093 0.113573
688 2 0.158479 0.0444164 0.195291
689 4 0.169873 0.0296527 0.178636
690 4 0.147086 0.0591802 0.211946
674 4 0.160719 0.0720356 0.221152
1505 4 0.174086 0.0112244 0.182762
1504 2 0.197901 0.00370511 0.181557
693 4 0.264082 0.0857992 0.183866
653 4 0.264993 0.0677584 0.174323
22 3 0.387679 0.0658203 0.212916
698 4 0.404215 0.0648083 0.22459
697 2 0.408029 0.0435498 0.237188
21 1 0.387609 0.0877245 0.205891
333 4 0.41514 0.0813463 0.223652
699 4 0.411843 0.0222914 0.249786
23 3 0.368679 0.0982219 0.214251
351 4 0.489394 0.0444965 0.194566
349 2 0.484786 0.0677997 0.20237
350 4 0.480177 0.091103 0.210174
331 2 0.439485 0.0868957 0.222341
332 4 0.46383 0.0924452 0.221029
513 4 0.0211463 0.140286 0.220085
578 4 0.0256465 0.152778 0.23422
673 2 0.145916 0.0921719 0.220389
675 4 0.131113 0.112308 0.219626
546 4 0.129684 0.12839 0.231422
27 3 0.266496 0.157942 0.166057
691 2 0.278666 0.0873908 0.204113
1701 4 0.312455 0.0960094 0.222635
692 4 0.293251 0.0889823 0.22436
25 3 0.387399 0.0883001 0.183126
1699 2 0.334381 0.0968364 0.210645
1700 4 0.356307 0.0976635 0.198656
759 4 0.36902 0.0969063 0.1832
24 3 0.406683 0.0982324 0.213901
770 4 0.480888 0.122361 0.181921
312 4 0.473957 0.136321 0.193266
310 2 0.478165 0.141593 0.217342
311 4 0.482373 0.146865 0.241419
577 2 0.0310029 0.176572 0.239725
529 2 0.0127827 0.227992 0.222654
530 4 0.0205149 0.211648 0.239924
579 4 0.0363594 0.200366 0.245231
361 2 0.139481 0.256765 0.195093
372 4 0.175514 0.241139 0.189348
339 4 0.0400724 0.278559 0.179758
704 4 0.0309394 0.291411 0.19113
337 2 0.0644065 0.276129 0.17455
703 2 0.0221589 0.313821 0.197902
363 4 0.123423 0.275699 0.19806
395 4 0.109597 0.262616 0.205504
396 4 0.0843705 0.27343 0.247305
394 2 0.0969839 0.268023 0.226405
283 2 0.279908 0.272974 0.182387
284 4 0.292645 0.274053 0.203876
755 4 0.332582 0.230298 0.17596
528 4 0.417807 0.321586 0.203602
526 2 0.418696 0.296707 0.201266
623 4 0.433139 0.259961 0.193299
527 4 0.419584 0.271829 0.19893
542 4 0.415043 0.339518 0.215627
541 2 0.424576 0.336691 0.238568
2615 4 0.00334489 0.353686 0.209879
705 4 0.0133784 0.336232 0.204674
262 2 0.0338654 0.417259 0.243106
300 4 0.097473 0.363611 0.206586
646 2 0.119156 0.392024 0.187268
648 4 0.107241 0.381231 0.206418
298 2 0.0942255 0.362053 0.231329
289 2 0.220737 0.398408 0.240701
416 4 0.19295 0.416489 0.218424
290 4 0.20341 0.400555 0.222802
415 2 0.180322 0.426469 0.19929
597 4 0.360356 0.393672 0.170244
345 4 0.354136 0.349942 0.22109
596 4 0.347152 0.362538 0.207083
645 4 0.377959 0.404982 0.172266
595 2 0.353754 0.378105 0.188663
343 2 0.351414 0.348749 0.245917
264 4 0.018551 0.428749 0.227024
1430 4 0.154783 0.451537 0.177199
417 4 0.167694 0.43645 0.180156
438 4 0.272314 0.470925 0.222441
436 2 0.279553 0.473945 0.246183
658 2 0.329611 0.452028 0.17592
643 2 0.391494 0.420209 0.186761
644 4 0.405029 0.435437 0.201255
660 4 0.34003 0.461017 0.196796
231 4 0.340063 0.478133 0.184681
447 4 0.403351 0.439298 0.221093
445 2 0.413689 0.435518 0.243543
229 2 0.353816 0.494662 0.197441
1403 4 0.0284732 0.0231199 0.278726
233 4 0.0355374 0.0385372 0.268739
232 2 0.0509291 0.058202 0.269991
234 4 0.0663208 0.0778669 0.271243
606 4 0.151843 0.0579767 0.349032
1407 4 0.254169 0.0119826 0.290378
722 4 0.186208 0.0628269 0.244752
1405 2 0.23116 0.0217671 0.290558
1406 4 0.208151 0.0315517 0.290739
721 2 0.183746 0.072804 0.267546
1518 4 0.431227 0.0166229 0.253426
743 4 0.489492 0.00997886 0.270616
425 4 0.481487 0.0242509 0.282078
424 2 0.476567 0.0413911 0.299605
258 4 0.473066 0.078289 0.318387
426 4 0.471647 0.0585314 0.317132
317 4 0.0647182 0.0907301 0.285693
316 2 0.0766913 0.112085 0.280612
318 4 0.0886643 0.133439 0.275531
392 4 0.111598 0.158435 0.284382
544 2 0.117245 0.136589 0.251503
545 4 0.104807 0.144788 0.271584
391 2 0.0959992 0.15889 0.303918
723 4 0.181284 0.0827811 0.29034
599 4 0.197192 0.0927177 0.297477
403 2 0.239495 0.139984 0.298239
405 4 0.230473 0.161755 0.306594
598 2 0.194099 0.0997083 0.321284
404 4 0.248517 0.118212 0.289885
521 4 0.487957 0.157168 0.256878
256 2 0.476347 0.0900989 0.340181
393 4 0.0804005 0.159346 0.323454
401 4 0.214144 0.170496 0.299764
400 2 0.211773 0.194242 0.307227
402 4 0.209402 0.217987 0.314691
763 2 0.43945 0.215598 0.319412
764 4 0.422197 0.204033 0.305491
442 2 0.0623361 0.265938 0.269216
444 4 0.0588375 0.263426 0.293846
443 4 0.0658347 0.268449 0.244586
378 4 0.36541 0.264762 0.342603
496 2 0.335055 0.266277 0.326429
498 4 0.359767 0.269414 0.324274
543 4 0.43411 0.333864 0.261509
263 4 0.0491799 0.405769 0.259188
2493 4 0.0023202 0.381774 0.314961
749 4 0.0552088 0.34709 0.293172
366 4 0.04265 0.33221 0.294713
365 4 0.00827902 0.363211 0.31364
364 2 0.0254645 0.347711 0.304177
602 4 0.0756402 0.411365 0.3079
777 4 0.089299 0.407705 0.2936
748 2 0.0775268 0.35132 0.282723
299 4 0.0909781 0.360496 0.256072
750 4 0.0998448 0.35555 0.272273
735 4 0.164988 0.398925 0.26632
733 2 0.163463 0.377026 0.254349
734 4 0.161938 0.355128 0.242377
677 4 0.163598 0.409403 0.285052
291 4 0.238063 0.396261 0.2586
414 4 0.241413 0.40141 0.277713
412 2 0.245978 0.40732 0.301575
413 4 0.250542 0.413231 0.325437
727 2 0.330847 0.412593 0.326114
344 4 0.348691 0.347556 0.270743
308 4 0.364973 0.39794 0.306783
729 4 0.346111 0.396386 0.314733
615 4 0.418397 0.333205 0.27396
309 4 0.353212 0.367701 0.268732
307 2 0.359093 0.38282 0.287757
2860 2 0.502226 0.392241 0.253281
614 4 0.431303 0.352005 0.318465
613 2 0.42485 0.342605 0.296213
2923 2 0.46725 0.360279 0.329565
2862 4 0.492857 0.404282 0.273091
120 3 0.489378 0.414101 0.29441
713 4 0.474139 0.4005 0.283159
2925 4 0.44345 0.35412 0.334131
116 1 0.49619 0.40207 0.312507
3672 4 0.0464052 0.479215 0.330112
775 2 0.09849 0.425149 0.278224
1757 4 0.115016 0.459647 0.270121
776 4 0.107681 0.442592 0.262848
1756 2 0.122273 0.476249 0.287351
1758 4 0.12953 0.492851 0.304582
1775 4 0.127224 0.493158 0.324386
767 4 0.212763 0.49781 0.283334
676 2 0.173882 0.428291 0.297805
678 4 0.184166 0.44718 0.310558
768 4 0.187896 0.455376 0.292373
766 2 0.20033 0.476593 0.287853
728 4 0.315583 0.4288 0.337495
437 4 0.286792 0.476964 0.269924
1437 4 0.289935 0.490779 0.284076
433 2 0.300029 0.455282 0.305558
435 4 0.289405 0.462308 0.284041
434 4 0.310652 0.448256 0.327074
2 3 0.29317 0.435443 0.335856
446 4 0.424026 0.431738 0.265994
712 2 0.458697 0.417251 0.272857
714 4 0.443256 0.434003 0.262555
119 3 0.482589 0.406764 0.330711
368 4 0.0697874 0.0725509 0.424283
730 2 0.0895669 0.0723525 0.396355
604 2 0.131266 0.069119 0.357842
605 4 0.110689 0.0802612 0.366652
732 4 0.0926896 0.083185 0.374037
683 4 0.250694 0.0632669 0.37464
321 4 0.246126 0.0835816 0.37641
249 4 0.294629 0.0295317 0.34866
684 4 0.275701 0.0286863 0.348572
682 2 0.263197 0.0459766 0.361606
247 2 0.316646 0.0322684 0.360189
248 4 0.338664 0.0350052 0.371718
633 4 0.33822 0.0512138 0.384844
631 2 0.338666 0.0698011 0.401562
1747 2 0.480363 0.0055237 0.350762
1749 4 0.493453 0.0208664 0.365542
2585 4 0.0123502 0.0940623 0.407213
399 4 0.0922981 0.145944 0.333394
397 2 0.0957966 0.139042 0.35717
398 4 0.0992951 0.13214 0.380946
600 4 0.191006 0.106699 0.34509
685 2 0.211947 0.124618 0.372369
687 4 0.203092 0.121391 0.34921
686 4 0.220801 0.127846 0.395529
410 4 0.23334 0.143291 0.399495
319 2 0.250662 0.0940004 0.398682
409 2 0.246093 0.162032 0.410046
320 4 0.255199 0.104419 0.420954
419 4 0.36769 0.15915 0.369251
418 2 0.362969 0.139781 0.384341
420 4 0.358248 0.120412 0.399431
257 4 0.479627 0.101909 0.361974
760 2 0.484246 0.139421 0.363468
761 4 0.469671 0.119262 0.360944
388 2 0.0949018 0.221464 0.397758
274 2 0.144564 0.231662 0.369773
276 4 0.119973 0.235893 0.371373
389 4 0.106807 0.220928 0.375778
473 4 0.233839 0.212015 0.358717
474 4 0.186866 0.219848 0.37398
472 2 0.210352 0.215931 0.366349
275 4 0.169155 0.227432 0.368173
708 4 0.245683 0.217245 0.34426
707 4 0.290027 0.194819 0.349861
651 4 0.263959 0.229832 0.386473
649 2 0.258679 0.214311 0.405352
706 2 0.267855 0.206032 0.34706
489 4 0.248988 0.243157 0.388122
716 4 0.382594 0.166204 0.359538
377 4 0.397134 0.227165 0.35159
717 4 0.406727 0.209994 0.358667
715 2 0.39466 0.188099 0.359102
376 2 0.381272 0.245963 0.347096
765 4 0.456702 0.227162 0.333333
1258 2 0.131959 0.309003 0.40115
1259 4 0.149361 0.317843 0.385523
509 4 0.23644 0.300923 0.358211
488 4 0.228913 0.285047 0.369603
508 2 0.234568 0.324967 0.364814
497 4 0.310343 0.26314 0.328585
487 2 0.23895 0.264102 0.378863
267 4 0.36589 0.321634 0.340987
266 4 0.352915 0.291735 0.378914
585 4 0.350446 0.272303 0.379995
583 2 0.362008 0.262578 0.399917
265 2 0.359403 0.306684 0.359951
270 4 0.492033 0.255899 0.382995
306 4 0.500126 0.270804 0.393852
304 2 0.488464 0.276256 0.415286
407 4 0.0174595 0.424607 0.400813
601 2 0.0827729 0.416751 0.331252
603 4 0.0899056 0.422137 0.354604
504 4 0.182858 0.401696 0.330676
510 4 0.232696 0.34901 0.371416
374 4 0.23518 0.366057 0.380521
373 2 0.253917 0.380999 0.373394
375 4 0.272655 0.395942 0.366267
3 3 0.279911 0.402633 0.34852
751 2 0.482689 0.401879 0.370669
753 4 0.479965 0.394357 0.346979
561 4 0.489635 0.404372 0.414549
752 4 0.485413 0.409401 0.394358
679 2 0.0407764 0.492036 0.380337
680 4 0.0534324 0.474808 0.393307
406 2 0.0349223 0.442178 0.404206
408 4 0.0523851 0.459748 0.407599
549 4 0.0965908 0.430232 0.371051
547 2 0.107166 0.44531 0.387962
569 4 0.111266 0.447959 0.420212
548 4 0.117742 0.460388 0.404872
502 2 0.187254 0.418019 0.349099
503 4 0.191651 0.434341 0.367523
634 2 0.186626 0.475221 0.358112
636 4 0.18374 0.453236 0.369668
5 3 0.256391 0.429104 0.335724
1 1 0.275778 0.425421 0.347092
668 4 0.274762 0.45429 0.372301
4 3 0.274337 0.434559 0.368371
667 2 0.283379 0.476791 0.378984
2757 4 0.00149915 0.0843511 0.419237
731 4 0.0864443 0.06152 0.418672
718 2 0.0371542 0.0859173 0.49233
719 4 0.04615 0.0882065 0.469113
369 4 0.0324807 0.0864002 0.454567
367 2 0.051134 0.0794755 0.439425
2430 4 0.170897 0.0612992 0.457532
341 4 0.16521 0.07773 0.448581
441 4 0.216941 0.0176363 0.451001
2428 2 0.190377 0.0475138 0.450071
2429 4 0.209858 0.0337283 0.442611
1218 4 0.379773 0.0495818 0.500481
2878 2 0.467922 0.0108186 0.448801
2880 4 0.481123 0.0294869 0.458919
642 4 0.489199 0.0388915 0.443826
640 2 0.485145 0.0623595 0.43621
1152 4 0.153625 0.136012 0.481369
342 4 0.149139 0.118794 0.472165
340 2 0.157175 0.0982619 0.460373
1150 2 0.170144 0.149197 0.494729
725 4 0.271855 0.102304 0.429085
724 2 0.270146 0.100306 0.45395
726 4 0.268436 0.0983083 0.478815
432 4 0.267815 0.0927464 0.497264
632 4 0.339113 0.0883883 0.41828
468 4 0.351895 0.0916801 0.432478
467 4 0.376184 0.122169 0.463802
466 2 0.36404 0.106925 0.44814
574 2 0.409997 0.141035 0.448324
576 4 0.388841 0.137245 0.461101
515 4 0.470462 0.102331 0.423561
641 4 0.481091 0.0858276 0.428595
3158 4 0.48659 0.114264 0.428983
575 4 0.431153 0.144824 0.435547
516 4 0.434285 0.136494 0.418572
514 2 0.452374 0.119413 0.421066
260 4 0.0806731 0.171533 0.484933
471 4 0.0689445 0.184641 0.476075
469 2 0.0718814 0.198569 0.455519
390 4 0.0829961 0.221999 0.419739
470 4 0.0748182 0.212496 0.434962
650 4 0.2534 0.198791 0.424231
411 4 0.258845 0.180774 0.420596
2455 2 0.40007 0.229699 0.446361
2456 4 0.383812 0.244095 0.433966
2457 4 0.416328 0.215304 0.458756
616 2 0.016464 0.255632 0.437511
617 4 0.0349861 0.271499 0.443021
695 4 0.0851997 0.268237 0.446116
1260 4 0.114558 0.300162 0.416776
694 2 0.0915191 0.28893 0.433583
696 4 0.0978385 0.309622 0.42105
878 4 0.0906235 0.26428 0.492179
584 4 0.373571 0.252852 0.41984
1010 4 0.453074 0.32501 0.463832
1009 2 0.463114 0.30251 0.459575
1011 4 0.473155 0.28001 0.455319
305 4 0.476801 0.281708 0.436721
2507 4 0.445365 0.340234 0.47175
709 2 0.125278 0.408269 0.487956
326 4 0.107911 0.371082 0.428896
325 2 0.125933 0.36373 0.444591
327 4 0.143954 0.356378 0.460286
8 3 0.153419 0.383755 0.486518
711 4 0.136251 0.387295 0.496011
7 3 0.162192 0.354896 0.464092
6 1 0.164492 0.363397 0.485343
1191 4 0.209766 0.359762 0.496387
1189 2 0.234304 0.358484 0.491757
1190 4 0.258842 0.357206 0.487126
803 4 0.269132 0.372877 0.492929
238 2 0.370867 0.39199 0.492673
240 4 0.364216 0.406374 0.473333
560 4 0.488095 0.392351 0.463065
559 2 0.488865 0.398361 0.438807
2506 2 0.461102 0.358285 0.464561
2508 4 0.476838 0.376337 0.457372
540 4 0.0470069 0.464014 0.480116
1381 2 0.0148156 0.441826 0.465583
1382 4 0.0382559 0.449721 0.469243
773 4 0.120942 0.497617 0.474117
710 4 0.114305 0.429242 0.479902
570 4 0.100424 0.432006 0.466349
568 2 0.105845 0.439982 0.44328
384 4 0.117271 0.512556 0.489416
772 2 0.111652 0.503237 0.451594
1394 4 0.241966 0.496745 0.484818
1446 4 0.254252 0.488239 0.496698
588 4 0.327647 0.495424 0.449213
1400 4 0.311333 0.486873 0.441666
1399 2 0.32163 0.46452 0.437256
586 2 0.333907 0.505847 0.471061
1401 4 0.331928 0.442166 0.432845
334 2 0.355386 0.418001 0.445261
336 4 0.334813 0.42338 0.432107
335 4 0.375958 0.412623 0.458415
1127 4 0.0122247 0.0856442 0.52697
720 4 0.0281583 0.0836281 0.515546
1126 2 0.00501362 0.0731499 0.547393
949 2 0.19669 0.0809717 0.559703
1182 4 0.218127 0.0534105 0.568674
1180 2 0.24001 0.0414974 0.566588
950 4 0.207705 0.0685157 0.578376
963 4 0.262493 0.00942832 0.564316
1181 4 0.261894 0.0295844 0.564502
961 2 0.286539 0.00752435 0.5709
962 4 0.310585 0.00562038 0.577484
1216 2 0.367375 0.0646531 0.516112
1217 4 0.354976 0.0797244 0.531742
842 4 0.346041 0.0770647 0.549844
1035 4 0.0747798 0.140377 0.585205
1033 2 0.071909 0.140251 0.560367
1034 4 0.0690381 0.140124 0.535529
261 4 0.0584004 0.153384 0.525863
1030 2 0.142822 0.0988415 0.550787
1032 4 0.119426 0.106695 0.554804
1154 4 0.109764 0.0927962 0.565402
1031 4 0.166218 0.0909883 0.546771
951 4 0.185674 0.0934277 0.54103
1151 4 0.186662 0.162381 0.508089
939 4 0.190681 0.158014 0.528186
937 2 0.185344 0.156193 0.552545
938 4 0.180006 0.154372 0.576904
843 4 0.299487 0.0935986 0.557596
431 4 0.29672 0.0920439 0.538064
430 2 0.282267 0.0923952 0.517664
841 2 0.322764 0.0853317 0.55372
857 4 0.359173 0.137321 0.567588
856 2 0.339984 0.147961 0.579579
899 4 0.373744 0.150704 0.567316
3426 4 0.508859 0.161952 0.594184
259 2 0.0695367 0.162459 0.505398
1272 4 0.0972106 0.231774 0.541345
1270 2 0.106931 0.220232 0.561281
1271 4 0.116652 0.208689 0.581218
898 2 0.385168 0.170623 0.557422
900 4 0.396592 0.190542 0.547528
872 4 0.411506 0.203937 0.541508
873 4 0.385303 0.244348 0.554962
871 2 0.398405 0.224143 0.548235
813 4 0.374507 0.234348 0.569525
811 2 0.354328 0.228538 0.583098
879 4 0.0917906 0.251383 0.54048
877 2 0.0912071 0.257831 0.51633
1239 4 0.272315 0.267129 0.572424
1204 2 0.389435 0.317973 0.571621
930 4 0.35018 0.335512 0.562996
1206 4 0.368828 0.328586 0.562245
954 4 0.418926 0.289514 0.587969
952 2 0.440864 0.277721 0.590168
983 4 0.060891 0.388912 0.577756
9 3 0.155196 0.34844 0.500452
896 4 0.195294 0.368545 0.510777
897 4 0.203765 0.368044 0.560059
895 2 0.19953 0.368295 0.535418
1137 4 0.201094 0.385258 0.567789
10 3 0.186614 0.366309 0.489903
802 2 0.283314 0.369563 0.513253
804 4 0.297496 0.36625 0.533577
929 4 0.306638 0.353977 0.546751
928 2 0.328409 0.344744 0.554874
239 4 0.377519 0.377606 0.512013
1001 4 0.460055 0.369725 0.545087
926 4 0.460964 0.368257 0.525538
925 2 0.484492 0.370413 0.517354
1000 2 0.457802 0.386583 0.563415
1002 4 0.455549 0.403441 0.581743
1938 4 0.041832 0.484829 0.583669
1936 2 0.0522372 0.487179 0.561055
1937 4 0.0626424 0.48953 0.538441
539 4 0.0514061 0.491814 0.52145
538 2 0.0492065 0.477914 0.500783
382 2 0.118772 0.505828 0.513451
383 4 0.120272 0.499101 0.537485
2242 2 0.132993 0.497363 0.56684
1171 2 0.249926 0.455705 0.56898
1173 4 0.22654 0.463827 0.572488
882 4 0.293092 0.446784 0.56503
880 2 0.301659 0.460358 0.545859
881 4 0.310226 0.473933 0.526689
1445 4 0.300387 0.474067 0.509791
1444 2 0.277319 0.481153 0.503244
1172 4 0.273312 0.447583 0.565472
1455 4 0.338919 0.492484 0.553321
1953 4 0.355974 0.490318 0.562192
1185 4 0.0162265 0.0326921 0.643542
945 4 0.0252106 0.0503896 0.64904
823 2 0.0885399 0.996076 0.665859
1058 4 0.101131 0.0182761 0.647219
1057 2 0.0996495 0.0412481 0.637458
1155 4 0.0981374 0.0714928 0.609125
1059 4 0.098168 0.0642201 0.627697
825 4 0.107816 0.998757 0.650162
1005 4 0.31426 0.0835955 0.611381
1925 4 0.41135 0.00534862 0.635459
2282 4 0.4847 0.036413 0.589078
2281 2 0.467143 0.0197818 0.582726
43 3 0.481999 0.0539966 0.597556
41 1 0.484675 0.0710212 0.613093
44 3 0.464009 0.0773875 0.621507
42 3 0.497699 0.0633026 0.630412
1163 4 0.491839 0.0696859 0.650293
1082 4 0.0574117 0.135027 0.595832
1081 2 0.0339997 0.141066 0.602203
1083 4 0.0105876 0.147105 0.608574
1199 4 0.996601 0.160137 0.601327
1153 2 0.103951 0.0821445 0.587263
1221 4 0.139543 0.104521 0.666293
1219 2 0.160199 0.104812 0.652207
1220 4 0.180855 0.105103 0.638121
1212 4 0.197163 0.117373 0.640007
1210 2 0.220478 0.125648 0.643624
1211 4 0.243794 0.133923 0.647241
1004 4 0.305494 0.11134 0.652052
1003 2 0.309877 0.0974679 0.631716
858 4 0.320796 0.1586 0.59157
888 4 0.251449 0.142987 0.664644
886 2 0.272417 0.129547 0.666849
1142 4 0.359204 0.0965495 0.655537
1025 4 0.387118 0.151869 0.654887
909 4 0.134932 0.214338 0.580754
907 2 0.155951 0.22274 0.591373
947 4 0.17585 0.245907 0.615665
908 4 0.176971 0.231142 0.601992
946 2 0.186973 0.261247 0.631979
812 4 0.334149 0.222728 0.596671
798 4 0.324995 0.214893 0.61215
796 2 0.32381 0.189938 0.611146
797 4 0.322626 0.164983 0.610143
1024 2 0.385687 0.164693 0.63347
1026 4 0.384256 0.177517 0.612053
948 4 0.198096 0.276587 0.648293
1065 4 0.214634 0.286448 0.65417
1063 2 0.234548 0.293476 0.667557
1237 2 0.293664 0.273343 0.58386
790 2 0.334542 0.291132 0.622913
1238 4 0.315013 0.279557 0.595296
791 4 0.337388 0.307935 0.64121
1205 4 0.410042 0.30736 0.580996
792 4 0.331697 0.27433 0.604617
905 4 0.479605 0.277501 0.588995
953 4 0.462802 0.265928 0.592366
982 2 0.0362445 0.385492 0.580212
1041 4 0.0608527 0.407419 0.58366
984 4 0.011598 0.382072 0.582669
3263 4 0.000360607 0.39362 0.594425
1039 2 0.084821 0.411469 0.589517
893 4 0.123933 0.367614 0.667803
1135 2 0.190822 0.395037 0.588381
1136 4 0.18055 0.404816 0.608973
1910 4 0.443742 0.395233 0.596389
1909 2 0.442344 0.412608 0.614315
936 4 0.0269904 0.47418 0.592139
2022 4 0.0518094 0.483951 0.655818
1040 4 0.108789 0.415519 0.595373
991 2 0.146144 0.425435 0.597763
993 4 0.121786 0.430357 0.595006
2243 4 0.150781 0.486347 0.58053
1161 4 0.166032 0.491484 0.592117
992 4 0.170503 0.420512 0.600521
1160 4 0.211543 0.473683 0.581506
1159 2 0.188787 0.482583 0.586812
2172 4 0.173638 0.494172 0.669065
1951 2 0.36127 0.500682 0.584322
889 2 0.378508 0.489339 0.640529
1952 4 0.366566 0.511046 0.606451
891 4 0.365612 0.498 0.620937
890 4 0.391404 0.480677 0.660121
1267 2 0.419499 0.449955 0.651026
1911 4 0.440946 0.429982 0.632241
1268 4 0.435918 0.431173 0.652709
943 2 0.0427185 0.0524848 0.666767
1076 4 0.0633708 0.0559435 0.703785
944 4 0.0602265 0.0545799 0.684495
1075 2 0.0727257 0.0482098 0.725644
1077 4 0.0820805 0.0404761 0.747504
2049 4 0.150403 0.029711 0.751032
846 4 0.491587 0.00834981 0.746575
35 3 0.0857517 0.16035 0.737958
1283 4 0.166749 0.0722303 0.697058
32 3 0.107514 0.1303 0.733919
31 1 0.0951301 0.142678 0.748839
1282 2 0.167483 0.0776215 0.721462
1284 4 0.168217 0.0830127 0.745867
1227 4 0.184586 0.0949765 0.746208
830 4 0.289368 0.114072 0.693762
887 4 0.293385 0.116106 0.669054
829 2 0.307072 0.0964157 0.693721
1143 4 0.376687 0.141588 0.668444
1141 2 0.367946 0.119069 0.661991
831 4 0.324776 0.0787594 0.693679
1105 2 0.0469492 0.16936 0.74085
851 4 0.0220842 0.200884 0.729137
1107 4 0.027304 0.184576 0.738075
1208 4 0.0626766 0.235788 0.712463
822 4 0.128539 0.232324 0.709973
1278 4 0.147221 0.229608 0.719238
820 2 0.104288 0.234574 0.715629
821 4 0.0800363 0.236823 0.721285
1276 2 0.15728 0.208768 0.728709
977 4 0.306443 0.20559 0.730473
916 2 0.318575 0.243037 0.71582
918 4 0.313871 0.225152 0.732647
3122 4 0.483863 0.234984 0.668495
3121 2 0.462715 0.237988 0.681492
1263 4 0.436719 0.216889 0.745514
1261 2 0.437123 0.239344 0.756506
3123 4 0.441568 0.240991 0.69449
3188 4 0.0363438 0.263561 0.7465
1207 2 0.051929 0.257917 0.707994
1209 4 0.0411814 0.280046 0.703526
1244 4 0.0267709 0.295623 0.708003
1064 4 0.254462 0.300505 0.680943
1240 2 0.245082 0.287161 0.73857
1241 4 0.258621 0.308136 0.737183
917 4 0.32328 0.260923 0.698993
1097 4 0.31397 0.276264 0.689511
1096 2 0.290337 0.283983 0.69217
1098 4 0.266704 0.291702 0.694828
1008 4 0.354253 0.27375 0.719179
1006 2 0.362985 0.271264 0.742476
1279 2 0.0512206 0.349066 0.693414
3275 4 0.0353922 0.370349 0.724865
1280 4 0.0374062 0.354074 0.713644
1281 4 0.0650349 0.344058 0.673183
3274 2 0.0525453 0.381183 0.739479
894 4 0.0768603 0.357143 0.681042
892 2 0.100397 0.362379 0.674423
940 2 0.157638 0.387812 0.739238
1028 4 0.238009 0.360381 0.688822
1068 4 0.220324 0.369195 0.69058
1067 4 0.176555 0.368834 0.714762
1066 2 0.198439 0.369014 0.702671
941 4 0.176591 0.386257 0.723003
1027 2 0.250171 0.37873 0.676966
1029 4 0.262333 0.39708 0.66511
1139 4 0.276614 0.409823 0.658581
1229 4 0.366379 0.396128 0.689798
1228 2 0.372592 0.416216 0.703328
2021 4 0.0435786 0.490088 0.70476
1981 2 0.0288537 0.482135 0.739644
2020 2 0.047694 0.487019 0.680289
1983 4 0.0278945 0.483504 0.714697
1138 2 0.287273 0.428989 0.670591
1140 4 0.297931 0.448154 0.682602
1989 4 0.293674 0.451384 0.702631
1987 2 0.300032 0.465677 0.722137
1988 4 0.306389 0.47997 0.741642
1269 4 0.40308 0.468737 0.649343
1230 4 0.378805 0.436304 0.716858
1250 4 0.456631 0.483247 0.751728
1100 4 0.435876 0.485347 0.748341
862 2 0.0546849 0.0829005 0.812204
864 4 0.0685892 0.0779317 0.832382
2047 2 0.164734 0.0134826 0.76354
1203 4 0.0942023 0.0536024 0.757633
1202 4 0.133982 0.0233878 0.759943
1201 2 0.114092 0.0384951 0.758788
1147 2 0.224108 0.056752 0.812052
1149 4 0.248446 0.0528023 0.807902
1148 4 0.199769 0.0607017 0.816202
1049 4 0.263281 0.0591464 0.821504
1048 2 0.280582 0.0443563 0.831853
818 4 0.35939 0.0638726 0.801174
965 4 0.368725 0.0736267 0.815993
975 4 0.39064 0.0044873 0.824657
863 4 0.0407805 0.0878692 0.792026
1106 4 0.0665944 0.154143 0.743626
832 2 0.0490631 0.117884 0.763923
833 4 0.0381928 0.0979482 0.774392
33 3 0.0785213 0.129186 0.757811
834 4 0.0599334 0.137819 0.753454
34 3 0.109127 0.150289 0.765708
1073 4 0.122975 0.164759 0.762891
1072 2 0.123429 0.175411 0.785508
1225 2 0.193024 0.111609 0.762861
1226 4 0.201462 0.128242 0.779514
840 4 0.206137 0.125557 0.799496
838 2 0.229704 0.133863 0.798605
839 4 0.253271 0.14217 0.797714
959 4 0.270967 0.149246 0.803324
819 4 0.321957 0.0969932 0.799595
1084 2 0.330148 0.130977 0.82534
1085 4 0.320598 0.110512 0.814609
1086 4 0.339697 0.151443 0.836071
817 2 0.340674 0.0804329 0.800385
779 4 0.0670894 0.215677 0.830823
1214 4 0.0480142 0.221095 0.830467