ITEM: TIMESTEP
2770000
ITEM: NUMBER OF ATOMS
4590
ITEM: BOX BOUNDS pp pp pp
-9.9985700000000008e+00 9.9985700000000008e+00
-9.9985700000000008e+00 9.9985700000000008e+00
-9.9985700000000008e+00 9.9985700000000008e+00
ITEM: ATOMS id type xs ys zs
463 2 0.0265569 0.0365332 0.0145808
464 4 0.0262397 0.0137466 0.0248689
1668 4 0.0607507 0.0312263 0.0535811
1666 2 0.0437903 0.0269559 0.0714498
3290 4 0.0789359 0.036843 0.0488174
465 4 0.0268741 0.0593199 0.00429269
3289 2 0.0940561 0.0270287 0.0314901
565 2 0.163225 0.0307817 0.0325867
567 4 0.167367 0.0526188 0.0440394
566 4 0.159084 0.00894463 0.021134
3291 4 0.109176 0.0172143 0.0141628
490 2 0.306018 0.00663633 0.0568196
491 4 0.316829 0.00931354 0.0344337
492 4 0.295207 0.00395912 0.0792056
985 2 0.298083 0.031122 0.00993696
987 4 0.318879 0.0179224 0.0142347
2144 4 0.327114 0.0135672 0.996565
745 2 0.464928 0.0482518 0.057153
746 4 0.462797 0.0712346 0.0475391
747 4 0.467059 0.025269 0.0667668
1826 4 0.482902 0.0204722 0.0786305
2724 4 0.489659 0.0894794 0.0625729
460 2 0.317378 0.138373 0.0588068
461 4 0.294248 0.147859 0.0583416
353 4 0.282534 0.162958 0.0552596
462 4 0.340508 0.128888 0.059272
422 4 0.0657213 0.186265 0.0355587
421 2 0.0789562 0.178743 0.0157235
505 2 0.149174 0.245307 0.0574418
506 4 0.170823 0.235496 0.0652032
737 4 0.184027 0.221044 0.0653795
736 2 0.203828 0.20784 0.0577127
738 4 0.223628 0.194636 0.050046
354 4 0.239634 0.188401 0.0588584
352 2 0.261084 0.17568 0.057059
665 4 0.354385 0.185223 0.0281779
664 2 0.345238 0.180375 0.00541788
630 4 0.404996 0.247084 0.0904911
1069 2 0.40086 0.243321 0.998591
323 4 0.486594 0.235723 0.0730814
828 4 0.492683 0.241013 0.0124855
322 2 0.469808 0.249251 0.0604171
2807 4 0.0128132 0.263537 0.0119132
292 2 0.102598 0.281881 0.0670184
456 4 0.104727 0.319651 0.0691081
293 4 0.109894 0.260708 0.0558994
507 4 0.127525 0.255118 0.0496803
294 4 0.0953012 0.303054 0.0781373
741 4 0.318976 0.341419 0.00661154
612 4 0.26503 0.298023 0.0510632
610 2 0.269458 0.278362 0.0658624
609 4 0.258618 0.3116 0.0639047
611 4 0.273885 0.258701 0.0806615
482 4 0.280898 0.304915 0.00172383
1071 4 0.388036 0.25402 0.0171998
573 4 0.375277 0.27085 0.0163119
571 2 0.355767 0.284673 0.00899923
572 4 0.336257 0.298496 0.00168651
324 4 0.453022 0.26278 0.0477528
2841 4 0.498685 0.269772 0.0652991
454 2 0.10576 0.341805 0.0806534
1288 2 0.20069 0.414456 0.00555626
1289 4 0.199625 0.391591 0.0156185
739 2 0.327859 0.343507 0.0298906
250 2 0.286728 0.391341 0.0573298
251 4 0.299506 0.408957 0.0450181
252 4 0.273949 0.373726 0.0696416
607 2 0.261542 0.335418 0.0709303
608 4 0.264465 0.359235 0.0779558
740 4 0.336742 0.345595 0.0531696
524 4 0.313869 0.412902 0.0319974
386 4 0.338459 0.351627 0.0716973
226 2 0.387055 0.391063 0.0281109
228 4 0.378717 0.405736 0.0465603
227 4 0.395392 0.37639 0.00966143
1305 4 0.402786 0.358219 0.00255246
523 2 0.337783 0.413853 0.0392353
281 4 0.429092 0.357267 0.0540183
280 2 0.452336 0.349693 0.0592635
282 4 0.475581 0.342119 0.0645087
671 4 0.411957 0.35752 0.065871
1047 4 0.488971 0.337957 0.0491257
1045 2 0.496615 0.333148 0.0258098
552 4 0.0327619 0.464397 0.065576
314 4 0.0203879 0.451854 0.0763902
550 2 0.0190208 0.474601 0.0473482
551 4 0.00527975 0.484804 0.0291204
1224 4 0.138236 0.456229 0.979234
243 4 0.236661 0.472409 0.057143
1440 4 0.237532 0.465908 0.0768607
241 2 0.216387 0.473778 0.0425739
242 4 0.196113 0.475148 0.0280048
1787 4 0.189348 0.489195 0.0414834
271 2 0.276779 0.489865 0.0677143
272 4 0.281317 0.46585 0.072995
525 4 0.361697 0.414805 0.0464732
1583 4 0.466066 0.45764 0.0527547
1582 2 0.459536 0.469266 0.0739059
1584 4 0.453006 0.480892 0.0950571
1667 4 0.0268299 0.0226855 0.0893184
16 1 0.030049 0.0400574 0.122664
2480 4 0.0170668 0.0572569 0.158183
18 3 0.0437005 0.0572143 0.115069
19 3 0.0149738 0.0482536 0.138283
2479 2 0.0131918 0.0819369 0.159212
17 3 0.0183394 0.0314286 0.104843
20 3 0.0427218 0.0235936 0.131991
1422 4 0.0134124 0.0345681 0.160007
450 4 0.105278 0.0859739 0.119623
652 2 0.245576 0.043524 0.159256
689 4 0.191477 0.0368385 0.168449
1475 4 0.291351 0.020712 0.0913805
654 4 0.251936 0.0337928 0.137119
1476 4 0.269438 0.0404491 0.131766
1474 2 0.280395 0.0305805 0.111573
297 4 0.359391 0.0362106 0.114012
295 2 0.379391 0.0495968 0.107231
296 4 0.399391 0.062983 0.100451
484 2 0.344892 0.00309237 0.112565
485 4 0.360399 0.0197231 0.102166
557 4 0.416754 0.0724169 0.106094
556 2 0.436771 0.0779249 0.120028
236 4 0.140706 0.144024 0.13452
449 4 0.132567 0.125139 0.134527
448 2 0.118923 0.105556 0.127075
235 2 0.147396 0.157702 0.114687
29 3 0.24782 0.16721 0.179336
580 2 0.307443 0.117095 0.156822
582 4 0.328337 0.103605 0.154246
581 4 0.286548 0.130584 0.159397
758 4 0.34521 0.0913616 0.150745
558 4 0.456788 0.083433 0.133962
771 4 0.473934 0.0915174 0.142203
769 2 0.471984 0.106838 0.161866
237 4 0.154085 0.171379 0.0948534
372 4 0.141967 0.228421 0.161241
370 2 0.166502 0.224609 0.158292
371 4 0.191036 0.220797 0.155343
279 4 0.261117 0.249765 0.147422
337 2 0.0657426 0.2989 0.160906
338 4 0.0905349 0.299116 0.164143
277 2 0.263212 0.250681 0.122523
278 4 0.265307 0.251596 0.0976247
285 4 0.276768 0.261085 0.149409
254 4 0.38706 0.252585 0.0845122
754 2 0.352274 0.257164 0.15838
756 4 0.354319 0.269486 0.136719
253 2 0.370061 0.256362 0.102455
255 4 0.353061 0.260138 0.120397
624 4 0.446339 0.262897 0.133893
629 4 0.447902 0.25828 0.113609
628 2 0.426449 0.252682 0.10205
622 2 0.434048 0.264305 0.155621
619 2 0.0336102 0.398683 0.131907
620 4 0.0385117 0.389114 0.154481
455 4 0.106794 0.363959 0.0921986
647 4 0.118626 0.399669 0.155275
537 4 0.135713 0.395194 0.146883
535 2 0.155345 0.386818 0.13386
536 4 0.174977 0.378441 0.120837
385 2 0.346978 0.369218 0.0872911
387 4 0.355496 0.386809 0.102885
12 3 0.403096 0.392301 0.122407
11 1 0.384037 0.401753 0.131156
15 3 0.366082 0.395323 0.118709
672 4 0.401512 0.390286 0.102175
302 4 0.339379 0.39988 0.103871
13 3 0.38147 0.394552 0.153064
670 2 0.406735 0.373903 0.0840232
301 2 0.333646 0.419544 0.118212
596 4 0.339882 0.355114 0.168473
104 3 0.481775 0.340367 0.0832781
313 2 0.017106 0.436266 0.0956623
621 4 0.0287087 0.408252 0.109333
315 4 0.013824 0.420678 0.114934
1430 4 0.163977 0.444766 0.174653
1438 2 0.229179 0.447452 0.0915158
1431 4 0.169258 0.489057 0.152046
625 2 0.223316 0.427423 0.147914
1439 4 0.220826 0.428996 0.106171
627 4 0.224413 0.436753 0.124742
1429 2 0.166617 0.466912 0.163349
626 4 0.222219 0.418094 0.171086
639 4 0.277409 0.48324 0.12257
638 4 0.264263 0.447562 0.15505
637 2 0.270836 0.465401 0.13881
303 4 0.327914 0.439207 0.132552
659 4 0.332485 0.435794 0.151921
1559 4 0.34663 0.496452 0.110051
14 3 0.386187 0.42485 0.130609
494 4 0.393266 0.473632 0.085924
495 4 0.396961 0.436582 0.119306
493 2 0.395114 0.455107 0.102615
658 2 0.341093 0.449637 0.17088
1674 4 0.457617 0.499475 0.0918911
1420 2 0.00301222 0.027787 0.18171
674 4 0.151218 0.0659149 0.210987
690 4 0.167728 0.0671042 0.200397
673 2 0.156642 0.0740483 0.234
1505 4 0.199767 0.0245253 0.180466
653 4 0.239216 0.0532553 0.181392
688 2 0.179603 0.0519713 0.184423
693 4 0.253075 0.0614701 0.191244
691 2 0.269068 0.0566543 0.209851
1699 2 0.323409 0.0709304 0.220234
692 4 0.28506 0.0518385 0.228458
1701 4 0.300412 0.0638033 0.226979
1700 4 0.346407 0.0780575 0.21349
22 3 0.385015 0.0504294 0.226722
698 4 0.403096 0.0564965 0.231618
21 1 0.378321 0.0712846 0.219694
333 4 0.410935 0.0751182 0.227429
23 3 0.357899 0.0763074 0.229497
25 3 0.376254 0.071251 0.197014
349 2 0.4818 0.0693302 0.249434
742 2 0.502492 0.0121564 0.255942
351 4 0.488924 0.0494318 0.262794
513 4 0.0122461 0.162936 0.228404
578 4 0.0272816 0.161548 0.240425
28 3 0.244399 0.131014 0.190407
30 3 0.270054 0.140644 0.164585
27 3 0.27466 0.151078 0.200121
26 1 0.259241 0.147434 0.183444
759 4 0.357775 0.0772599 0.197048
24 3 0.394259 0.086856 0.226168
757 2 0.351492 0.0843108 0.173896
770 4 0.470035 0.122159 0.18153
312 4 0.463077 0.132001 0.197208
310 2 0.482029 0.131646 0.213514
350 4 0.474675 0.0892286 0.236075
331 2 0.433449 0.0856294 0.230229
332 4 0.455962 0.0961405 0.233028
577 2 0.0401359 0.182981 0.241159
529 2 0.0320051 0.232714 0.217181
530 4 0.0435544 0.220703 0.235823
579 4 0.0529902 0.204415 0.241893
531 4 0.0204557 0.244725 0.198539
362 4 0.138799 0.231315 0.179737
476 4 0.199549 0.21035 0.170785
475 2 0.21394 0.19 0.172775
477 4 0.228331 0.16965 0.174765
755 4 0.35023 0.244843 0.180041
704 4 0.0269264 0.305172 0.171804
339 4 0.0409503 0.298683 0.15767
703 2 0.0209196 0.314235 0.194319
705 4 0.0149129 0.323298 0.216835
443 4 0.0921868 0.29266 0.247973
395 4 0.0912696 0.303112 0.183318
396 4 0.102848 0.296527 0.231518
394 2 0.0970587 0.299819 0.207418
361 2 0.128817 0.252783 0.187778
363 4 0.118835 0.274252 0.195818
283 2 0.279316 0.277667 0.167949
284 4 0.281863 0.29425 0.186488
528 4 0.404 0.312072 0.217116
542 4 0.408311 0.323905 0.232414
623 4 0.421756 0.265713 0.17735
527 4 0.429882 0.280394 0.188352
526 2 0.416941 0.296233 0.202734
263 4 0.0533481 0.392856 0.234599
2615 4 0.00515562 0.340564 0.21382
300 4 0.089091 0.368207 0.206598
646 2 0.110751 0.389535 0.176733
648 4 0.102876 0.379401 0.198191
298 2 0.0937818 0.35413 0.226723
299 4 0.0984727 0.340053 0.246848
290 4 0.214488 0.419749 0.220245
289 2 0.21675 0.411902 0.243877
345 4 0.329398 0.363492 0.223422
597 4 0.367933 0.396425 0.171163
595 2 0.353908 0.37577 0.169818
645 4 0.379252 0.413622 0.165261
643 2 0.390125 0.425018 0.18468
343 2 0.338535 0.357862 0.246005
417 4 0.163399 0.441419 0.192969
416 4 0.196958 0.412235 0.215834
415 2 0.180179 0.426827 0.204401
1640 4 0.231332 0.503253 0.254519
438 4 0.28072 0.452492 0.237114
229 2 0.377593 0.489827 0.208346
644 4 0.400997 0.436415 0.204099
660 4 0.349701 0.46348 0.189839
231 4 0.367038 0.472711 0.193486
447 4 0.412734 0.446813 0.217969
445 2 0.413894 0.44259 0.242586
1403 4 0.0134158 0.0149155 0.26029
233 4 0.997321 0.0229622 0.270147
232 2 0.00526167 0.0453856 0.277849
234 4 0.0132021 0.067809 0.285551
317 4 0.0343592 0.068012 0.283431
316 2 0.0583751 0.0725572 0.2887
1407 4 0.235267 0.0022124 0.285175
675 4 0.162067 0.0821816 0.257013
722 4 0.179285 0.0817716 0.267685
1405 2 0.217362 0.0191297 0.289463
1406 4 0.199456 0.0360469 0.293751
697 2 0.410165 0.0392613 0.248296
1516 2 0.434633 0.00425991 0.29113
1518 4 0.420889 0.0244135 0.285642
699 4 0.417235 0.0220262 0.264974
425 4 0.481308 0.0220341 0.281425
424 2 0.475328 0.0412775 0.296227
258 4 0.47509 0.0775607 0.301052
426 4 0.469348 0.0605209 0.31103
1749 4 0.493254 0.998365 0.339169
743 4 0.494149 0.0313895 0.269567
318 4 0.082391 0.0771024 0.293968
393 4 0.082177 0.146281 0.307889
391 2 0.0866354 0.144483 0.283352
392 4 0.0910938 0.142686 0.258815
544 2 0.136135 0.139595 0.259424
545 4 0.111986 0.136059 0.253989
546 4 0.160283 0.143132 0.264858
399 4 0.0995426 0.157323 0.311673
397 2 0.115988 0.166616 0.328055
721 2 0.198264 0.089357 0.282088
723 4 0.217243 0.0969424 0.296491
599 4 0.23278 0.0949771 0.310387
404 4 0.213996 0.123465 0.260361
403 2 0.215931 0.143727 0.274883
598 2 0.220098 0.0969249 0.331848
405 4 0.217866 0.163989 0.289405
256 2 0.482034 0.0925466 0.319824
257 4 0.488979 0.107533 0.338595
402 4 0.237409 0.215137 0.26135
401 4 0.220406 0.182027 0.294747
400 2 0.228907 0.198582 0.278049
765 4 0.405107 0.19581 0.299592
763 2 0.427104 0.206094 0.305554
764 4 0.449102 0.216377 0.311516
442 2 0.0812541 0.272704 0.258337
444 4 0.0703213 0.252748 0.268701
750 4 0.0991735 0.341456 0.265714
496 2 0.34043 0.273763 0.31785
497 4 0.346999 0.289784 0.299813
541 2 0.414535 0.323842 0.25663
543 4 0.420759 0.323779 0.280846
615 4 0.426848 0.317602 0.298457
366 4 0.0437697 0.335827 0.294824
749 4 0.0622832 0.327428 0.296422
262 2 0.0458875 0.406016 0.254508
365 4 0.0131251 0.371434 0.277684
364 2 0.0284474 0.35363 0.286254
748 2 0.0807283 0.334442 0.281068
602 4 0.0807336 0.389117 0.306202
2493 4 0.00529013 0.375496 0.296493
601 2 0.0803683 0.377474 0.328326
777 4 0.0927111 0.404092 0.297302
735 4 0.150497 0.389451 0.289477
677 4 0.159806 0.407035 0.293828
733 2 0.152143 0.365355 0.283011
734 4 0.15379 0.341258 0.276544
291 4 0.219012 0.404056 0.26751
414 4 0.23394 0.41564 0.275631
412 2 0.253284 0.410502 0.290616
413 4 0.272629 0.405364 0.305601
309 4 0.342953 0.348192 0.287156
344 4 0.347672 0.352232 0.268588
307 2 0.347328 0.368426 0.301179
729 4 0.360397 0.391783 0.332808
308 4 0.351702 0.38866 0.315201
613 2 0.421951 0.328059 0.320635
2924 4 0.489618 0.365371 0.317298
2923 2 0.465463 0.361618 0.322556
2925 4 0.441309 0.357864 0.327815
713 4 0.460568 0.409927 0.292607
120 3 0.479898 0.411466 0.306159
2862 4 0.48195 0.409609 0.284503
2860 2 0.492499 0.398772 0.264592
264 4 0.038427 0.419175 0.274417
1757 4 0.107197 0.456826 0.267037
776 4 0.103549 0.451348 0.285047
775 2 0.0981302 0.42772 0.291175
1756 2 0.104557 0.481627 0.268801
767 4 0.224506 0.484295 0.26258
676 2 0.173833 0.423428 0.281191
678 4 0.187859 0.439821 0.268554
768 4 0.194107 0.45088 0.284029
766 2 0.209306 0.467588 0.273305
504 4 0.211958 0.431796 0.322916
1545 4 0.235225 0.496402 0.325536
1436 4 0.245489 0.481487 0.33486
437 4 0.256704 0.464219 0.27938
436 2 0.268712 0.458356 0.258247
1437 4 0.269835 0.460121 0.296763
5 3 0.269475 0.412479 0.325342
1435 2 0.257662 0.470804 0.315811
433 2 0.326027 0.459525 0.320739
434 4 0.322789 0.437634 0.332379
435 4 0.329266 0.481416 0.3091
2 3 0.305097 0.42265 0.329873
446 4 0.415053 0.438366 0.267203
712 2 0.437466 0.41583 0.285082
714 4 0.414364 0.421733 0.277556
368 4 0.0803302 0.0410408 0.418336
730 2 0.112392 0.0580388 0.392922
604 2 0.157744 0.0693487 0.365058
605 4 0.143203 0.0844484 0.378687
731 4 0.0931362 0.0475253 0.404917
606 4 0.172284 0.0542489 0.351429
249 4 0.310913 0.0550297 0.34972
684 4 0.301733 0.0687256 0.338692
682 2 0.281826 0.079359 0.349454
247 2 0.334544 0.061909 0.354126
248 4 0.358176 0.0687883 0.358532
633 4 0.368602 0.0785209 0.372108
2757 4 0.00574489 0.0845672 0.410654
732 4 0.131647 0.0685523 0.380928
600 4 0.207416 0.0988727 0.353308
685 2 0.208544 0.130723 0.37726
687 4 0.19927 0.116833 0.358652
686 4 0.217818 0.144613 0.395867
319 2 0.254537 0.0871478 0.402595
321 4 0.257725 0.0955577 0.379265
683 4 0.261919 0.0899924 0.360216
631 2 0.376217 0.090816 0.392504
419 4 0.387198 0.148347 0.397353
632 4 0.383833 0.103111 0.412901
418 2 0.36554 0.142112 0.408181
420 4 0.343882 0.135878 0.419009
760 2 0.498522 0.135947 0.351878
762 4 0.501873 0.148109 0.373466
618 4 0.0108909 0.24964 0.401463
390 4 0.0809625 0.224822 0.403554
398 4 0.132433 0.175909 0.344438
388 2 0.096719 0.237981 0.38928
274 2 0.151837 0.254456 0.373585
473 4 0.214238 0.203434 0.364895
474 4 0.182663 0.240091 0.352247
472 2 0.19845 0.221763 0.358571
708 4 0.228559 0.193765 0.375065
651 4 0.234956 0.243094 0.405141
275 4 0.175183 0.246318 0.369855
706 2 0.247187 0.188811 0.35914
707 4 0.265816 0.183858 0.343214
716 4 0.380304 0.164848 0.387138
377 4 0.384706 0.219769 0.35436
717 4 0.392756 0.200945 0.354847
715 2 0.38653 0.182897 0.370992
376 2 0.36463 0.234483 0.35199
378 4 0.344553 0.249197 0.349621
2456 4 0.38075 0.236758 0.41536
268 2 0.482907 0.248081 0.352888
270 4 0.475269 0.258089 0.37449
269 4 0.490545 0.238073 0.331285
695 4 0.0901467 0.275614 0.414942
276 4 0.12849 0.262594 0.377316
389 4 0.112476 0.251141 0.375006
1258 2 0.15044 0.305427 0.391429
1260 4 0.13214 0.306831 0.408408
489 4 0.24318 0.258908 0.413038
487 2 0.248146 0.275932 0.395411
508 2 0.239837 0.324018 0.359313
1259 4 0.16874 0.304023 0.374449
509 4 0.2369 0.30533 0.375662
488 4 0.253112 0.292955 0.377784
498 4 0.333861 0.257742 0.335888
266 4 0.367168 0.311979 0.385589
585 4 0.368201 0.300023 0.402348
583 2 0.369571 0.275087 0.403579
584 4 0.370941 0.250151 0.404811
265 2 0.35033 0.327733 0.375924
306 4 0.481663 0.255953 0.393379
304 2 0.475914 0.265774 0.415643
547 2 0.0859904 0.400631 0.378725
549 4 0.0830195 0.382506 0.361759
603 4 0.080003 0.36583 0.35045
548 4 0.0889614 0.418756 0.395691
510 4 0.242773 0.342707 0.342964
375 4 0.224246 0.399814 0.375237
374 4 0.234398 0.353883 0.358268
373 2 0.229322 0.376849 0.366752
3 3 0.289236 0.399034 0.354435
267 4 0.333491 0.343488 0.366259
727 2 0.341169 0.406419 0.33923
614 4 0.417054 0.338515 0.342813
561 4 0.481838 0.403544 0.422765
753 4 0.491259 0.420742 0.357391
752 4 0.478029 0.411021 0.404626
751 2 0.484644 0.415882 0.381008
119 3 0.497275 0.414884 0.339386
407 4 0.0824459 0.439506 0.384841
680 4 0.0483434 0.484828 0.404287
406 2 0.0648097 0.452619 0.396764
408 4 0.0471735 0.465733 0.408688
569 4 0.0967238 0.411528 0.413802
635 4 0.155178 0.473777 0.401206
634 2 0.175355 0.466582 0.38831
636 4 0.195532 0.459388 0.375413
502 2 0.200342 0.44615 0.339775
503 4 0.188725 0.460504 0.356633
1 1 0.285517 0.417393 0.340742
668 4 0.290025 0.448684 0.364036
4 3 0.278911 0.435598 0.353522
667 2 0.29301 0.470899 0.375116
728 4 0.321941 0.421056 0.345652
1401 4 0.336714 0.488159 0.393742
592 2 0.490305 0.499061 0.343506
593 4 0.482654 0.475831 0.348705
718 2 0.0320571 0.075191 0.47258
719 4 0.0495816 0.0778022 0.454938
369 4 0.0663562 0.0684717 0.457744
720 4 0.0145326 0.0725798 0.490222
367 2 0.0733432 0.0547562 0.43804
2756 4 0.00395207 0.0376263 0.427802
1376 4 0.999007 0.0262188 0.411311
2755 2 0.00484848 0.0610968 0.419228
341 4 0.170044 0.06985 0.474921
441 4 0.211124 0.00448171 0.45774
2430 4 0.180676 0.053296 0.474847
2428 2 0.190839 0.0355348 0.460479
2429 4 0.201003 0.0177736 0.446112
725 4 0.250181 0.0935435 0.439869
320 4 0.251349 0.0787378 0.425925
2878 2 0.463858 0.0139613 0.429962
2880 4 0.477324 0.0315949 0.418433
642 4 0.483988 0.0432235 0.433976
640 2 0.497571 0.06118 0.44485
410 4 0.227171 0.134861 0.410339
409 2 0.237314 0.157502 0.413452
340 2 0.175214 0.0933245 0.468037
1152 4 0.195018 0.125336 0.470952
342 4 0.180384 0.116799 0.461152
1150 2 0.198278 0.138548 0.491929
724 2 0.266795 0.097942 0.45803
432 4 0.297962 0.114786 0.474814
726 4 0.28341 0.102341 0.47619
467 4 0.363896 0.104977 0.47126
466 2 0.376935 0.0990143 0.450775
468 4 0.389973 0.0930519 0.430291
574 2 0.396675 0.154115 0.464339
576 4 0.387002 0.140986 0.483293
575 4 0.406349 0.167245 0.445386
516 4 0.420261 0.158057 0.433046
514 2 0.444459 0.162236 0.437751
515 4 0.468658 0.166414 0.442457
260 4 0.0775891 0.175002 0.463558
259 2 0.071289 0.181371 0.486901
470 4 0.066132 0.223219 0.417835
469 2 0.0669379 0.208895 0.438314
471 4 0.0677437 0.194572 0.458792
649 2 0.235726 0.219511 0.413415
650 4 0.236497 0.195929 0.421689
411 4 0.247457 0.180142 0.416565
2455 2 0.386558 0.219473 0.432467
2457 4 0.392367 0.202187 0.449574
616 2 0.0206241 0.265347 0.418307
617 4 0.0303572 0.281054 0.435152
694 2 0.108574 0.291322 0.421179
696 4 0.127 0.307029 0.427416
1010 4 0.507867 0.309059 0.470747
1009 2 0.497968 0.289953 0.458013
1011 4 0.488069 0.270847 0.445279
305 4 0.470165 0.275595 0.437907
326 4 0.0720912 0.38269 0.454056
325 2 0.0950418 0.37476 0.46002
10 3 0.162756 0.356274 0.482822
7 3 0.136171 0.378319 0.468674
327 4 0.117992 0.366831 0.465984
6 1 0.14562 0.370328 0.488065
711 4 0.154098 0.408581 0.493768
1190 4 0.249811 0.353439 0.500896
335 4 0.354749 0.409713 0.447478
238 2 0.365804 0.375329 0.44444
240 4 0.370738 0.399709 0.4419
239 4 0.360871 0.350949 0.446979
559 2 0.493792 0.390454 0.440399
2508 4 0.494505 0.370219 0.472261
560 4 0.505746 0.377365 0.458033
540 4 0.0506801 0.48578 0.469244
538 2 0.0610888 0.496548 0.489266
1382 4 0.0351901 0.48113 0.456716
1381 2 0.0161508 0.466614 0.463925
384 4 0.14868 0.493298 0.491854
774 4 0.115714 0.480374 0.443231
709 2 0.146084 0.423264 0.475184
772 2 0.122572 0.488589 0.465829
570 4 0.132819 0.421751 0.446867
710 4 0.138069 0.437946 0.4566
568 2 0.114772 0.41664 0.430335
1394 4 0.231229 0.494285 0.470635
1446 4 0.24442 0.503897 0.481411
336 4 0.335612 0.438431 0.411287
1399 2 0.338764 0.490026 0.418591
334 2 0.34518 0.424072 0.429382
1400 4 0.340814 0.491894 0.443441
1127 4 0.0158486 0.0577597 0.503509
949 2 0.206199 0.0700555 0.553131
950 4 0.228887 0.0596835 0.551436
1182 4 0.245595 0.05804 0.562449
961 2 0.323137 0.00478177 0.554897
1180 2 0.267515 0.0461682 0.560517
963 4 0.304411 0.0212311 0.552913
1181 4 0.289436 0.0342964 0.558586
431 4 0.318519 0.0938132 0.515289
843 4 0.325573 0.0807671 0.528669
1217 4 0.388594 0.0943416 0.521761
841 2 0.349596 0.0871318 0.531419
1216 2 0.40171 0.0730566 0.521456
2283 4 0.451506 0.00647454 0.574562
1218 4 0.414826 0.0517716 0.521151
4467 4 0.433742 0.996781 0.572922
1035 4 0.0629644 0.152511 0.569836
1033 2 0.0656141 0.165144 0.548422
937 2 0.168579 0.158486 0.535755
938 4 0.147885 0.170008 0.543765
1030 2 0.156416 0.0823427 0.580803
939 4 0.189274 0.146964 0.527744
1031 4 0.166615 0.0722243 0.560339
951 4 0.183512 0.0804275 0.554825
1151 4 0.201538 0.151759 0.512905
857 4 0.30917 0.130507 0.564785
858 4 0.276617 0.161752 0.586344
856 2 0.292894 0.14613 0.575564
430 2 0.30824 0.1043 0.495052
899 4 0.321588 0.133253 0.55082
842 4 0.373619 0.0934964 0.534169
898 2 0.344646 0.141793 0.555359
900 4 0.367703 0.150333 0.559897
872 4 0.373785 0.168532 0.563748
261 4 0.0649889 0.187741 0.510245
1034 4 0.0682638 0.177778 0.527008
879 4 0.0946253 0.242302 0.562068
811 2 0.325268 0.229702 0.571004
812 4 0.302113 0.237242 0.576675
796 2 0.279795 0.202118 0.584826
798 4 0.287175 0.224075 0.575414
797 4 0.272415 0.180161 0.594238
813 4 0.348423 0.222162 0.565332
873 4 0.368192 0.21805 0.567917
871 2 0.370989 0.193291 0.565833
877 2 0.0961066 0.245806 0.537356
1272 4 0.10024 0.24391 0.581529
878 4 0.0975879 0.24931 0.512643
1191 4 0.204127 0.34321 0.518476
1189 2 0.226969 0.348324 0.509686
1239 4 0.264316 0.284078 0.576361
1205 4 0.40247 0.313087 0.5662
1204 2 0.377858 0.317103 0.568012
954 4 0.40627 0.295616 0.575634
905 4 0.452719 0.256664 0.590714
952 2 0.420033 0.275398 0.580829
953 4 0.433796 0.25518 0.586025
982 2 0.0225167 0.386248 0.579593
984 4 0.00174391 0.388303 0.565829
9 3 0.129432 0.358912 0.500148
1135 2 0.163062 0.384416 0.579019
1137 4 0.160373 0.360607 0.571873
8 3 0.153591 0.388248 0.500465
896 4 0.189199 0.330729 0.516796
897 4 0.170338 0.344644 0.56097
895 2 0.179768 0.337686 0.538883
802 2 0.280912 0.355252 0.517296
804 4 0.292528 0.358266 0.539231
929 4 0.308859 0.353836 0.550141
928 2 0.332071 0.346145 0.555363
803 4 0.269296 0.352238 0.49536
1206 4 0.353245 0.32112 0.569824
930 4 0.355282 0.338455 0.560586
1001 4 0.457932 0.38043 0.553783
926 4 0.476969 0.376334 0.546273
925 2 0.491441 0.365604 0.528935
1000 2 0.462671 0.392137 0.575362
934 2 0.0102514 0.495812 0.574026
1161 4 0.177742 0.492805 0.583429
882 4 0.278871 0.479454 0.568191
880 2 0.268629 0.495709 0.55219
1172 4 0.267091 0.464719 0.574138
825 4 0.0832954 0.0144478 0.641645
1058 4 0.0985823 0.0208201 0.631482
1155 4 0.0811368 0.0804733 0.600845
1057 2 0.0880901 0.0411872 0.621469
1059 4 0.0775979 0.0615543 0.611455
1925 4 0.403448 0.010296 0.659937
2282 4 0.463769 0.0380763 0.611327
2281 2 0.457638 0.0222754 0.592945
43 3 0.467225 0.0548555 0.619577
41 1 0.482258 0.0672543 0.632173
44 3 0.471157 0.0778728 0.649563
45 3 0.492585 0.0826789 0.618979
1082 4 0.0669748 0.148718 0.588529
1081 2 0.0433743 0.15253 0.595855
1083 4 0.0197737 0.156342 0.60318
1032 4 0.146216 0.0924611 0.601267
1153 2 0.104191 0.0901516 0.600743
1154 4 0.127245 0.0998299 0.600642
1221 4 0.160527 0.0963064 0.614661
1219 2 0.170119 0.108209 0.634447
1220 4 0.179712 0.120111 0.654234
1005 4 0.274737 0.0835459 0.625308
1004 4 0.305391 0.11094 0.653779
1003 2 0.290064 0.097243 0.639543
887 4 0.291371 0.122583 0.663005
1143 4 0.358458 0.162665 0.653696
1270 2 0.120376 0.231851 0.590149
1271 4 0.140512 0.219792 0.598768
909 4 0.153874 0.205796 0.606249
907 2 0.160802 0.214704 0.628561
947 4 0.161672 0.238499 0.664096
908 4 0.16773 0.223612 0.650873
1025 4 0.372326 0.173216 0.642613
1024 2 0.388186 0.188922 0.631345
1026 4 0.404045 0.204628 0.620076
1064 4 0.215992 0.319843 0.65421
1063 2 0.206363 0.304446 0.671397
1237 2 0.278347 0.291335 0.595742
792 4 0.299425 0.286053 0.629802
790 2 0.316278 0.303217 0.636626
1238 4 0.292378 0.298592 0.615124
791 4 0.333131 0.32038 0.64345
3123 4 0.467203 0.269017 0.664142
904 2 0.476656 0.253065 0.596977
983 4 0.0432894 0.384193 0.593357
1041 4 0.0613732 0.391069 0.595087
1039 2 0.0798705 0.407311 0.599472
1136 4 0.16575 0.408226 0.586165
1029 4 0.265663 0.40286 0.665909
1002 4 0.46741 0.403845 0.596941
1910 4 0.463538 0.423146 0.596231
3330 4 0.501643 0.397077 0.654742
2022 4 0.0424822 0.507879 0.65961
992 4 0.157388 0.421358 0.59865
991 2 0.134772 0.426856 0.607784
993 4 0.112155 0.432355 0.616918
1040 4 0.0983678 0.423553 0.603857
2243 4 0.158728 0.491944 0.593451
1171 2 0.245521 0.459492 0.585651
1160 4 0.206338 0.451923 0.586843
1159 2 0.19204 0.472364 0.585136
1173 4 0.22395 0.454265 0.597165
1175 4 0.251735 0.48358 0.651952
1174 2 0.270745 0.498478 0.645485
1267 2 0.420105 0.475308 0.648459
1911 4 0.437192 0.445581 0.632332
1909 2 0.450365 0.434364 0.614281
1268 4 0.418997 0.452381 0.638543
4323 4 0.492521 0.489739 0.60103
1185 4 0.0175399 0.0660982 0.660171
945 4 0.0253769 0.0794889 0.671903
943 2 0.0347256 0.0745634 0.694564
1076 4 0.0408485 0.0636947 0.73654
944 4 0.0440743 0.0696379 0.717225
831 4 0.320489 0.0895511 0.717752
846 4 0.478868 0.00696105 0.74929
32 3 0.0978303 0.107499 0.752513
1282 2 0.167 0.115892 0.699583
1284 4 0.151743 0.118981 0.719151
1227 4 0.167375 0.121517 0.732699
1212 4 0.20017 0.115155 0.664621
1210 2 0.217219 0.129175 0.676366
1283 4 0.182256 0.112804 0.680016
1211 4 0.234267 0.143196 0.688111
830 4 0.310854 0.100178 0.669847
888 4 0.253938 0.14029 0.691041
886 2 0.272655 0.131437 0.677023
829 2 0.315671 0.0948647 0.693799
1142 4 0.348981 0.131494 0.691634
1141 2 0.35372 0.147079 0.672665
1107 4 0.0498911 0.189148 0.731535
851 4 0.0310664 0.185365 0.739598
850 2 0.00935848 0.192129 0.729197
1208 4 0.0880984 0.230175 0.688218
1207 2 0.0724926 0.249546 0.68569
1105 2 0.0586448 0.168356 0.742318
822 4 0.142383 0.207377 0.693997
1278 4 0.142548 0.192077 0.705145
820 2 0.117487 0.208636 0.692049
821 4 0.0925916 0.209895 0.690101
1276 2 0.155729 0.189597 0.726247
976 2 0.293298 0.189407 0.741276
977 4 0.307612 0.193518 0.721192
916 2 0.321489 0.231951 0.715825
918 4 0.314264 0.208885 0.709426
917 4 0.328714 0.255017 0.722224
3122 4 0.482993 0.230735 0.692175
3121 2 0.475098 0.249876 0.678158
1262 4 0.439684 0.24206 0.744928
1209 4 0.0568869 0.268918 0.683161
1244 4 0.0403382 0.280354 0.68681
1243 2 0.0172532 0.280063 0.696411
946 2 0.172508 0.260173 0.670262
1065 4 0.196735 0.28905 0.688585
948 4 0.183344 0.281847 0.676427
1240 2 0.23686 0.305576 0.732758
1242 4 0.217033 0.313739 0.745622
1097 4 0.309754 0.261465 0.726551
1241 4 0.256686 0.297414 0.719894
1008 4 0.343589 0.265899 0.727396
1096 2 0.292695 0.279745 0.726601
1098 4 0.275636 0.298025 0.726651
1006 2 0.360066 0.26595 0.746202
1194 4 0.436199 0.262851 0.743092
1279 2 0.0588078 0.369407 0.70399
3275 4 0.0394703 0.401497 0.730133
1280 4 0.0477389 0.385594 0.719503
1281 4 0.0698767 0.353221 0.688477
3274 2 0.058431 0.406634 0.745602
893 4 0.134754 0.352678 0.702922
892 2 0.111397 0.356852 0.695035
894 4 0.0880402 0.361026 0.687147
940 2 0.15295 0.390584 0.737815
942 4 0.130271 0.400055 0.742412
1028 4 0.23342 0.369101 0.683837
941 4 0.175629 0.381114 0.733218
1068 4 0.219827 0.362166 0.696846
1067 4 0.19527 0.382773 0.735226
1066 2 0.207548 0.372469 0.716036
1027 2 0.249542 0.385981 0.674873
1139 4 0.285469 0.405758 0.667054
1228 2 0.359553 0.417026 0.710147
1229 4 0.349675 0.426765 0.689344
1230 4 0.369432 0.407287 0.73095
3183 4 0.512863 0.393276 0.671389
2172 4 0.220286 0.509779 0.697464
1079 4 0.195612 0.476601 0.747919
1138 2 0.28684 0.425872 0.681844
1140 4 0.288211 0.445986 0.696634
1989 4 0.297136 0.461887 0.70643
1987 2 0.300436 0.470413 0.729703
1269 4 0.421213 0.498234 0.658375
890 4 0.38852 0.492705 0.662033
1100 4 0.481631 0.492802 0.723848
1250 4 0.480557 0.48713 0.743195
1075 2 0.0585653 0.0491553 0.746535
1077 4 0.0762822 0.034616 0.75653
1203 4 0.0954854 0.0380429 0.758169
1201 2 0.1125 0.0213575 0.765738
2049 4 0.145017 0.0179824 0.77507
1202 4 0.129514 0.00467223 0.773308
2047 2 0.163073 0.00112544 0.771193
1148 4 0.172467 0.0577789 0.775493
1147 2 0.190873 0.0513643 0.791154
1149 4 0.209278 0.0449497 0.806815
1049 4 0.225558 0.0408788 0.793531
1048 2 0.245021 0.0327872 0.780082
1050 4 0.264484 0.0246956 0.766633
818 4 0.364263 0.0728206 0.817019
844 2 0.492104 0.0230746 0.763088
3387 4 0.0112675 0.113347 0.743302
832 2 0.0371437 0.122679 0.773829
863 4 0.0272524 0.115966 0.804517
833 4 0.0182973 0.112822 0.786975
33 3 0.0696667 0.12295 0.772025
834 4 0.05599 0.132537 0.760682
1106 4 0.0673986 0.147565 0.753101
862 2 0.0366895 0.105267 0.825052
35 3 0.0849669 0.141173 0.742845
31 1 0.0892711 0.127335 0.760413
34 3 0.104842 0.137116 0.774565
1073 4 0.112466 0.14133 0.792506
1072 2 0.113876 0.166209 0.794557
1225 2 0.18048 0.123931 0.753856
1226 4 0.193585 0.126344 0.775013
840 4 0.205154 0.124385 0.791193
838 2 0.228708 0.132039 0.794635
839 4 0.252261 0.139692 0.798077
959 4 0.261671 0.154807 0.806257
817 2 0.363554 0.0910614 0.799932
819 4 0.362844 0.109302 0.782846
1084 2 0.358237 0.148639 0.79043
1085 4 0.356037 0.124011 0.794142
3268 2 0.484174 0.13801 0.816956
3270 4 0.471336 0.144965 0.796659
1146 4 0.450385 0.151433 0.795351
1144 2 0.453704 0.166773 0.775887
778 2 0.0727485 0.199975 0.809739
779 4 0.0502522 0.20824 0.816865
1214 4 0.0512167 0.228209 0.824114
1213 2 0.032087 0.242914 0.817558
1074 4 0.115286 0.191089 0.796607
780 4 0.0952447 0.191709 0.802613
1277 4 0.168911 0.187117 0.747349
1131 4 0.164236 0.186626 0.768114
1130 4 0.208853 0.187183 0.79069
1129 2 0.186544 0.186904 0.779402
978 4 0.278983 0.185296 0.761361
1086 4 0.360438 0.173268 0.786718
1299 4 0.357771 0.193611 0.79199
1297 2 0.373053 0.204747 0.808349
1298 4 0.388335 0.215883 0.824709
47 3 0.40605 0.212361 0.815892
1044 4 0.385937 0.247246 0.764952
1042 2 0.398911 0.248902 0.786262
49 3 0.418876 0.245876 0.827068
46 1 0.418726 0.223154 0.831767
1261 2 0.44025 0.217273 0.748162
1263 4 0.440817 0.192485 0.751395