ITEM: TIMESTEP
2940000
ITEM: NUMBER OF ATOMS
4590
ITEM: BOX BOUNDS pp pp pp
-9.9985700000000008e+00 9.9985700000000008e+00
-9.9985700000000008e+00 9.9985700000000008e+00
-9.9985700000000008e+00 9.9985700000000008e+00
ITEM: ATOMS id type xs ys zs
463 2 0.0227088 0.0453029 0.0236657
464 4 0.0272803 0.0216374 0.0303158
1668 4 0.0507756 0.0647577 0.0556746
1666 2 0.0422359 0.0544239 0.0767806
3290 4 0.0684602 0.0560787 0.0541323
465 4 0.0181373 0.0689684 0.0170157
3289 2 0.0791961 0.0431667 0.0356066
701 4 0.0303274 0.0700707 0.000381616
3291 4 0.089932 0.0302548 0.0170809
2183 4 0.088319 0.025418 0.996971
566 4 0.150427 0.0525998 0.020365
565 2 0.170123 0.0470635 0.0347375
567 4 0.18982 0.0415271 0.0491099
490 2 0.306358 0.0117049 0.0634648
491 4 0.293539 0.0252361 0.0467984
985 2 0.289868 0.0467646 0.017243
987 4 0.284534 0.0422216 0.0412448
745 2 0.475672 0.0364776 0.0659229
746 4 0.459064 0.0536871 0.0732174
747 4 0.492279 0.0192681 0.0586284
2724 4 0.508847 0.0596344 0.0565404
460 2 0.287912 0.149136 0.0448431
462 4 0.298342 0.126488 0.0429803
461 4 0.277482 0.171784 0.0467059
422 4 0.0623662 0.185698 0.0151651
421 2 0.0824712 0.175099 0.00474318
423 4 0.102576 0.164499 0.994321
506 4 0.16788 0.243661 0.0645109
737 4 0.185183 0.236308 0.0588835
736 2 0.197236 0.215517 0.0519814
738 4 0.209289 0.194726 0.0450794
354 4 0.227013 0.201347 0.0352153
352 2 0.243448 0.182625 0.0373512
353 4 0.259883 0.163904 0.0394871
665 4 0.34681 0.226062 0.996761
1069 2 0.384485 0.242652 0.00529754
294 4 0.0922434 0.310107 0.0698545
2806 2 0.995712 0.262051 0.0294977
836 4 0.0272994 0.262633 0.0020866
505 2 0.147981 0.254469 0.0539099
292 2 0.106407 0.290066 0.0650639
293 4 0.12057 0.270025 0.0602734
507 4 0.128081 0.265276 0.043309
287 4 0.129087 0.291405 0.00861775
286 2 0.138828 0.313871 0.00356388
456 4 0.0883544 0.322833 0.0845987
612 4 0.271958 0.298441 0.0555816
610 2 0.273535 0.278656 0.0707888
609 4 0.264848 0.315525 0.0481375
611 4 0.275111 0.258871 0.085996
483 4 0.254941 0.283016 0.988901
1071 4 0.370147 0.251368 0.0238357
572 4 0.335242 0.299335 0.995721
573 4 0.353072 0.263152 0.0252778
571 2 0.344157 0.281244 0.0104993
323 4 0.482391 0.25034 0.0473283
324 4 0.471615 0.274811 0.00507026
322 2 0.477003 0.262576 0.0261993
1046 4 0.489629 0.323609 0.00411898
281 4 0.429163 0.334279 0.0766146
519 4 0.496662 0.259094 0.0593532
2787 4 0.00679594 0.364003 0.0701654
1289 4 0.183119 0.395992 0.0130237
988 2 0.179869 0.363907 0.0123522
989 4 0.192822 0.382314 0.0232424
607 2 0.273272 0.338571 0.0433323
741 4 0.331937 0.355392 0.00412471
739 2 0.330937 0.355514 0.029108
250 2 0.285439 0.393025 0.0349778
252 4 0.270129 0.374116 0.029213
608 4 0.281695 0.361618 0.0385272
740 4 0.329937 0.355637 0.0540913
386 4 0.342695 0.353822 0.0693765
251 4 0.300749 0.411934 0.0407425
524 4 0.315241 0.419604 0.0528764
226 2 0.377945 0.390147 0.0213932
228 4 0.377402 0.415135 0.0220894
227 4 0.378489 0.365159 0.0206969
525 4 0.357804 0.419753 0.0266253
523 2 0.336522 0.419678 0.0397508
1305 4 0.375776 0.347277 0.0110504
1303 2 0.386834 0.326928 0.00162515
1045 2 0.489958 0.330468 0.0281612
280 2 0.453277 0.339458 0.0725071
282 4 0.477391 0.344637 0.0683996
1047 4 0.490288 0.337327 0.0522034
552 4 0.017051 0.456352 0.0691438
314 4 0.0195523 0.439527 0.0807226
550 2 0.0111302 0.474397 0.0528801
551 4 0.0052095 0.492442 0.0366164
1786 2 0.171515 0.482875 0.069432
243 4 0.24136 0.451686 0.0543951
1440 4 0.230272 0.443922 0.0695319
241 2 0.223402 0.467583 0.0473243
242 4 0.205444 0.483479 0.0402536
1787 4 0.191772 0.48204 0.0547992
271 2 0.284147 0.477765 0.0729191
273 4 0.286721 0.500423 0.0626649
1583 4 0.446904 0.434027 0.0717253
1582 2 0.445043 0.458845 0.0693226
1584 4 0.443181 0.483663 0.0669199
1667 4 0.0336963 0.0440902 0.0978867
16 1 0.0376734 0.0623139 0.135406
18 3 0.0468683 0.0833539 0.138749
19 3 0.0163017 0.0614882 0.144405
17 3 0.0363844 0.0582679 0.112798
20 3 0.0508154 0.0464568 0.145127
1422 4 0.00950264 0.0485213 0.160994
652 2 0.241303 0.0393268 0.159602
654 4 0.239878 0.0283732 0.137171
1476 4 0.250419 0.0372992 0.123362
1475 4 0.298177 0.0427651 0.109579
1474 2 0.274298 0.0400321 0.116471
297 4 0.370233 0.0453536 0.128634
295 2 0.393968 0.0523896 0.12512
484 2 0.358759 0.00610215 0.123415
485 4 0.359489 0.0305494 0.11822
296 4 0.417702 0.0594256 0.121607
557 4 0.426758 0.068138 0.105103
556 2 0.446114 0.0772301 0.11806
450 4 0.0834386 0.0948417 0.0911504
236 4 0.135367 0.128391 0.104583
449 4 0.129859 0.109905 0.102058
448 2 0.106649 0.102373 0.0966044
235 2 0.155496 0.135485 0.117609
237 4 0.175625 0.142578 0.130635
580 2 0.318698 0.124071 0.145673
582 4 0.335622 0.106699 0.139591
581 4 0.301775 0.141443 0.151755
30 3 0.288882 0.156094 0.156757
758 4 0.348267 0.0910169 0.143351
558 4 0.465469 0.0863221 0.131017
771 4 0.477935 0.0979917 0.139726
769 2 0.486942 0.114021 0.15667
770 4 0.495949 0.13005 0.173615
371 4 0.189738 0.201657 0.160366
476 4 0.198175 0.186671 0.14952
475 2 0.2186 0.172464 0.152
477 4 0.239024 0.158256 0.15448
29 3 0.253678 0.168324 0.162118
756 4 0.352062 0.241165 0.12709
255 4 0.363782 0.248207 0.112982
624 4 0.457546 0.23667 0.143918
629 4 0.453774 0.249907 0.129845
339 4 0.0487697 0.30285 0.162458
279 4 0.257272 0.271781 0.151
277 2 0.263498 0.264921 0.127776
278 4 0.269724 0.25806 0.104552
254 4 0.404155 0.259234 0.0856119
754 2 0.353104 0.248469 0.15098
253 2 0.383968 0.25372 0.099297
630 4 0.418722 0.249428 0.0941821
628 2 0.436248 0.249668 0.112014
622 2 0.457796 0.250623 0.164665
619 2 0.0325446 0.379972 0.124079
620 4 0.0556274 0.372028 0.11867
621 4 0.00946186 0.387916 0.129488
315 4 0.999413 0.413519 0.118388
454 2 0.0989666 0.342593 0.0956483
455 4 0.109579 0.362354 0.106698
537 4 0.137896 0.389368 0.158227
535 2 0.137808 0.387993 0.133261
536 4 0.137719 0.386618 0.108296
625 2 0.229142 0.388567 0.139826
627 4 0.221568 0.407454 0.125297
626 4 0.236715 0.369679 0.154354
670 2 0.411824 0.354501 0.111357
385 2 0.348746 0.368542 0.0886609
387 4 0.354797 0.383261 0.107945
12 3 0.404663 0.390924 0.130376
11 1 0.385918 0.403979 0.13309
15 3 0.368366 0.394229 0.122343
672 4 0.403651 0.371205 0.12807
302 4 0.346221 0.399262 0.115706
13 3 0.381285 0.405833 0.155751
301 2 0.33481 0.41874 0.126456
597 4 0.384785 0.38397 0.164378
671 4 0.419997 0.337796 0.0946438
104 3 0.488728 0.346908 0.0860995
313 2 0.00948253 0.426523 0.0995553
1466 4 0.0107959 0.476203 0.117028
1620 4 0.156499 0.490695 0.145046
1788 4 0.151257 0.48371 0.0840648
1431 4 0.16933 0.498419 0.160155
1438 2 0.224728 0.434365 0.0919624
1439 4 0.219185 0.424809 0.114393
272 4 0.281572 0.455106 0.0831733
639 4 0.276053 0.488018 0.128228
638 4 0.30656 0.457772 0.153825
637 2 0.291307 0.472895 0.141026
303 4 0.323399 0.438219 0.137205
659 4 0.325626 0.454969 0.148456
1559 4 0.365891 0.496673 0.127238
14 3 0.390032 0.424972 0.124103
494 4 0.416935 0.482555 0.116161
495 4 0.40565 0.433859 0.114701
493 2 0.411292 0.458207 0.115431
2480 4 0.018127 0.0694805 0.164035
674 4 0.140197 0.0752821 0.214384
690 4 0.15579 0.0674282 0.205483
688 2 0.164346 0.0441655 0.202193
673 2 0.149483 0.0872172 0.234297
689 4 0.172902 0.0209028 0.198903
1505 4 0.18355 0.0262197 0.183708
653 4 0.242727 0.0502804 0.182034
693 4 0.249247 0.0695055 0.181095
691 2 0.26736 0.0751701 0.197373
1699 2 0.324388 0.073242 0.212021
692 4 0.285474 0.0808347 0.213652
1701 4 0.300475 0.0682516 0.217354
1700 4 0.348301 0.0782325 0.206687
22 3 0.387182 0.0583391 0.220504
698 4 0.405634 0.0630908 0.225683
21 1 0.379679 0.079207 0.214389
333 4 0.411221 0.0827764 0.222349
23 3 0.358622 0.0825836 0.223532
25 3 0.378575 0.0804228 0.191675
759 4 0.359205 0.0766729 0.189991
697 2 0.412797 0.0418803 0.236818
349 2 0.492131 0.0800808 0.222558
2479 2 0.00573605 0.0874706 0.176201
2481 4 0.993345 0.105461 0.188366
513 4 0.0207196 0.144765 0.225406
578 4 0.0335808 0.160524 0.219501
511 2 0.00439247 0.134222 0.209676
28 3 0.265597 0.136294 0.178743
26 1 0.271813 0.157532 0.171764
757 2 0.353736 0.0838449 0.166671
24 3 0.39447 0.0951589 0.222462
331 2 0.435028 0.0873918 0.216257
312 4 0.487326 0.122126 0.191253
310 2 0.487508 0.133938 0.213289
350 4 0.470294 0.0915051 0.226778
332 4 0.458835 0.0920073 0.210166
311 4 0.48769 0.145751 0.235326
521 4 0.500174 0.157615 0.244896
577 2 0.0344809 0.184019 0.228007
529 2 0.0117697 0.233759 0.217939
530 4 0.0164343 0.216676 0.235591
579 4 0.035381 0.207514 0.236514
372 4 0.150872 0.232585 0.166169
362 4 0.151232 0.244409 0.183852
361 2 0.127214 0.250656 0.186904
370 2 0.170305 0.217121 0.163267
27 3 0.278797 0.169621 0.190046
704 4 0.0413404 0.312946 0.179125
337 2 0.0702979 0.292749 0.170184
531 4 0.00710512 0.250841 0.200287
703 2 0.025879 0.319159 0.197767
705 4 0.0104177 0.325372 0.216409
363 4 0.103196 0.256903 0.189956
338 4 0.0918262 0.282648 0.177909
395 4 0.0976556 0.274874 0.195643
396 4 0.0948526 0.2895 0.243382
394 2 0.0962541 0.282187 0.219512
285 4 0.256291 0.272294 0.169624
283 2 0.279144 0.274687 0.179484
284 4 0.301997 0.27708 0.189343
755 4 0.354145 0.255773 0.17487
528 4 0.427649 0.296317 0.227712
623 4 0.458045 0.264577 0.185411
527 4 0.439458 0.264791 0.190734
526 2 0.433553 0.280554 0.209223
542 4 0.440061 0.31063 0.234145
2615 4 0.0134658 0.345199 0.217582
2614 2 0.995817 0.345395 0.235292
647 4 0.132084 0.407535 0.163371
300 4 0.0990787 0.377696 0.21098
646 2 0.118301 0.401587 0.183367
648 4 0.104517 0.395639 0.203362
298 2 0.108503 0.3643 0.229872
289 2 0.226078 0.405998 0.242584
416 4 0.204314 0.410595 0.218919
290 4 0.222054 0.420869 0.222891
345 4 0.337034 0.352861 0.203374
596 4 0.346751 0.363508 0.189586
645 4 0.391469 0.401467 0.176269
595 2 0.365768 0.373739 0.176982
343 2 0.343252 0.363136 0.225305
344 4 0.349469 0.373411 0.247235
2861 4 0.504661 0.381192 0.238677
263 4 0.0612978 0.424352 0.246106
262 2 0.0448349 0.433455 0.262576
417 4 0.176076 0.441849 0.191965
1429 2 0.176645 0.479566 0.17486
1430 4 0.183959 0.460712 0.189564
415 2 0.190195 0.426222 0.205442
438 4 0.287686 0.465736 0.222354
436 2 0.284197 0.464407 0.247077
658 2 0.341486 0.455463 0.16778
643 2 0.400521 0.424132 0.181706
229 2 0.353393 0.497248 0.206623
644 4 0.409573 0.446796 0.187143
660 4 0.357346 0.455958 0.187103
231 4 0.354525 0.474718 0.195838
447 4 0.411734 0.451673 0.206494
445 2 0.41491 0.445617 0.230545
1403 4 0.0185583 0.0154623 0.256876
233 4 0.0244471 0.0282472 0.271274
232 2 0.0294746 0.0518333 0.277877
234 4 0.0345021 0.0754195 0.284479
317 4 0.0478412 0.0777081 0.299716
316 2 0.0689483 0.0910975 0.299092
1407 4 0.228622 0.00418898 0.281832
1405 2 0.215269 0.0252072 0.279568
1406 4 0.201917 0.0462255 0.277305
721 2 0.175491 0.0763632 0.287255
723 4 0.186521 0.0766687 0.309692
599 4 0.198839 0.0720843 0.324545
1518 4 0.407015 0.00719997 0.256341
699 4 0.419961 0.0206698 0.247953
743 4 0.488153 0.0243618 0.25865
425 4 0.488438 0.026198 0.279012
424 2 0.471714 0.0408519 0.290446
258 4 0.463562 0.0735453 0.29993
426 4 0.454989 0.0555059 0.30188
742 2 0.501205 0.00760842 0.245453
318 4 0.0900555 0.104487 0.298468
393 4 0.0920551 0.153046 0.317679
675 4 0.15877 0.0991524 0.254209
391 2 0.089973 0.147049 0.293495
392 4 0.0878908 0.141051 0.26931
544 2 0.125719 0.130047 0.256976
545 4 0.106705 0.145429 0.262175
546 4 0.144733 0.114664 0.251777
722 4 0.164461 0.0760577 0.264818
404 4 0.246214 0.0918046 0.298992
403 2 0.236008 0.113396 0.291588
405 4 0.225802 0.134988 0.284183
401 4 0.223559 0.154533 0.278578
256 2 0.46246 0.0878518 0.320406
400 2 0.235544 0.176354 0.276261
402 4 0.247529 0.198175 0.273944
707 4 0.280025 0.204921 0.328533
765 4 0.430253 0.213557 0.334742
763 2 0.438373 0.202006 0.314106
764 4 0.446494 0.190456 0.29347
442 2 0.0756427 0.273023 0.26955
444 4 0.0645373 0.252136 0.277647
443 4 0.086748 0.293911 0.261453
497 4 0.312269 0.266526 0.306435
496 2 0.325337 0.258534 0.326197
615 4 0.404795 0.336608 0.288618
541 2 0.429854 0.317919 0.255775
543 4 0.419648 0.325209 0.277405
749 4 0.06352 0.339997 0.283766
366 4 0.0442244 0.343088 0.290974
365 4 0.00985372 0.378334 0.299755
364 2 0.0270391 0.360711 0.295364
602 4 0.0720965 0.39015 0.313077
601 2 0.085993 0.381841 0.33213
748 2 0.0865465 0.342738 0.274414
299 4 0.117927 0.350904 0.248764
750 4 0.109573 0.345479 0.265063
777 4 0.0839665 0.39963 0.300285
735 4 0.144947 0.393965 0.298726
733 2 0.151035 0.369759 0.297248
734 4 0.157124 0.345553 0.29577
677 4 0.149226 0.400255 0.280495
775 2 0.0987004 0.416666 0.289427
291 4 0.230101 0.391126 0.262278
414 4 0.233533 0.409321 0.271384
412 2 0.250189 0.413125 0.28964
5 3 0.262111 0.422228 0.326195
309 4 0.3466 0.370526 0.266402
307 2 0.337928 0.367778 0.289692
308 4 0.329255 0.36503 0.312982
729 4 0.336846 0.373914 0.328894
613 2 0.419632 0.336619 0.308744
2924 4 0.496429 0.35997 0.327948
2923 2 0.475345 0.346532 0.328249
2862 4 0.477229 0.397152 0.277323
2860 2 0.490945 0.389172 0.258
120 3 0.491358 0.40225 0.293095
614 4 0.434469 0.336629 0.32887
119 3 0.494985 0.404705 0.330492
264 4 0.028372 0.442559 0.279046
1757 4 0.121858 0.449042 0.287333
776 4 0.113434 0.433701 0.27857
1756 2 0.115251 0.473073 0.289341
676 2 0.158153 0.423467 0.277908
678 4 0.16708 0.446679 0.27532
768 4 0.182666 0.459598 0.27701
766 2 0.194647 0.480922 0.282196
504 4 0.200603 0.416175 0.308282
502 2 0.205953 0.433795 0.325196
1545 4 0.239562 0.495263 0.339847
413 4 0.266845 0.416929 0.307897
1436 4 0.255896 0.491453 0.328145
437 4 0.280708 0.463078 0.2718
1437 4 0.280988 0.471602 0.289714
1435 2 0.268442 0.481528 0.30893
433 2 0.314482 0.453239 0.32567
435 4 0.316339 0.473907 0.311722
713 4 0.474635 0.417514 0.287866
446 4 0.418086 0.43956 0.254595
712 2 0.455108 0.428106 0.27639
714 4 0.435582 0.438697 0.264913
731 4 0.0865239 0.0591075 0.405065
730 2 0.104778 0.0718663 0.393699
604 2 0.145887 0.0659059 0.351318
732 4 0.123033 0.084625 0.382334
606 4 0.154127 0.0482864 0.335607
249 4 0.312914 0.0347641 0.341015
684 4 0.300685 0.0500501 0.345945
682 2 0.280223 0.0616217 0.354463
321 4 0.262451 0.0832761 0.379389
683 4 0.25976 0.0731933 0.362981
247 2 0.332548 0.0481248 0.348836
248 4 0.352182 0.0614855 0.356656
633 4 0.352642 0.0650939 0.376376
631 2 0.343254 0.0745851 0.397517
1749 4 0.479944 0.0289097 0.329392
399 4 0.0963587 0.142861 0.334296
397 2 0.110215 0.153072 0.352432
605 4 0.137647 0.0835254 0.367029
398 4 0.12407 0.163283 0.370569
598 2 0.20506 0.0923312 0.337832
600 4 0.211282 0.112578 0.351119
685 2 0.203303 0.139613 0.376367
687 4 0.199843 0.127439 0.354804
686 4 0.206763 0.151788 0.397931
410 4 0.227301 0.149758 0.399723
319 2 0.263479 0.0939946 0.401956
419 4 0.367677 0.16558 0.38626
418 2 0.3527 0.151178 0.400168
420 4 0.337722 0.136776 0.414076
257 4 0.461357 0.102158 0.340883
760 2 0.479163 0.12562 0.362537
761 4 0.470426 0.102483 0.35886
762 4 0.4879 0.148757 0.366214
390 4 0.0817049 0.228947 0.406079
388 2 0.0979962 0.241487 0.391847
274 2 0.150825 0.240302 0.366893
473 4 0.228276 0.223559 0.355924
474 4 0.182297 0.207957 0.367895
472 2 0.205287 0.215758 0.361909
708 4 0.239809 0.207798 0.358116
275 4 0.168819 0.223016 0.36528
409 2 0.240569 0.167426 0.411428
651 4 0.267063 0.238882 0.385769
649 2 0.258149 0.220427 0.400091
706 2 0.259917 0.206359 0.343325
498 4 0.338406 0.250541 0.345958
716 4 0.386747 0.158553 0.383435
377 4 0.386786 0.210319 0.337347
717 4 0.393005 0.194167 0.348893
715 2 0.389876 0.17636 0.366164
376 2 0.3722 0.230445 0.34006
269 4 0.496704 0.248437 0.33365
276 4 0.132831 0.257587 0.368506
389 4 0.114288 0.254026 0.377616
1258 2 0.143407 0.313447 0.386507
1259 4 0.148739 0.312332 0.362104
1260 4 0.138075 0.314562 0.41091
509 4 0.231384 0.298926 0.363951
487 2 0.235869 0.26754 0.375155
488 4 0.218267 0.284851 0.371195
489 4 0.253471 0.250229 0.379115
267 4 0.335188 0.322521 0.369918
378 4 0.357613 0.250571 0.342773
266 4 0.375555 0.310991 0.397089
585 4 0.378183 0.290954 0.395271
583 2 0.381086 0.267857 0.404396
265 2 0.355371 0.316756 0.383503
584 4 0.383988 0.244759 0.413522
268 2 0.491092 0.260664 0.354726
270 4 0.485479 0.272891 0.375801
306 4 0.481423 0.264541 0.395477
603 4 0.0998895 0.373532 0.351183
547 2 0.105733 0.40762 0.375973
549 4 0.0968261 0.389456 0.361279
508 2 0.229583 0.32385 0.363107
510 4 0.227782 0.348774 0.362264
375 4 0.253365 0.402587 0.377605
374 4 0.22202 0.367047 0.361634
373 2 0.237692 0.384817 0.369619
727 2 0.322137 0.392394 0.337097
2925 4 0.454262 0.333094 0.328549
679 2 0.0409211 0.498973 0.384772
407 4 0.0274497 0.421526 0.389327
680 4 0.0440458 0.477995 0.398012
406 2 0.0413711 0.441553 0.394828
408 4 0.0552924 0.461581 0.400329
569 4 0.123411 0.424777 0.409202
548 4 0.11464 0.425785 0.390666
635 4 0.164601 0.475099 0.370949
634 2 0.185144 0.472989 0.356853
636 4 0.205687 0.47088 0.342756
503 4 0.211303 0.451415 0.342111
669 4 0.297841 0.484656 0.389658
3 3 0.26368 0.409247 0.361503
728 4 0.307427 0.410875 0.3453
434 4 0.312626 0.43257 0.339618
2 3 0.293202 0.426863 0.346312
1 1 0.270221 0.42622 0.347097
668 4 0.268095 0.467814 0.353158
4 3 0.262407 0.446645 0.354854
667 2 0.282968 0.476235 0.371408
1401 4 0.32109 0.452121 0.405933
336 4 0.332363 0.436886 0.407544
368 4 0.07217 0.0708035 0.41743
718 2 0.0285537 0.0538782 0.486581
719 4 0.026984 0.0531143 0.461639
369 4 0.0455261 0.0523161 0.455496
367 2 0.0588481 0.0615598 0.436463
441 4 0.217278 0.00191847 0.451791
341 4 0.181486 0.0763869 0.459692
2430 4 0.181962 0.057634 0.465553
2428 2 0.19404 0.035799 0.463965
2429 4 0.206119 0.0139641 0.462376
632 4 0.333865 0.0840764 0.418659
2878 2 0.459463 0.00577941 0.439704
2880 4 0.474975 0.0253462 0.441012
642 4 0.471902 0.0384595 0.424958
640 2 0.484824 0.0596913 0.422234
340 2 0.18845 0.0983388 0.469428
1152 4 0.198003 0.134294 0.492278
342 4 0.195415 0.120291 0.479164
320 4 0.264507 0.104713 0.424522
725 4 0.264414 0.086435 0.433191
724 2 0.278157 0.0855667 0.45406
432 4 0.278221 0.0992577 0.484161
726 4 0.2919 0.0846985 0.47493
468 4 0.327896 0.103292 0.423752
467 4 0.362943 0.121667 0.454326
466 2 0.345419 0.112479 0.439039
574 2 0.400716 0.139442 0.436717
576 4 0.380393 0.129404 0.447272
575 4 0.421039 0.149479 0.426163
516 4 0.433376 0.138067 0.436863
514 2 0.457082 0.145953 0.437888
515 4 0.480787 0.153839 0.438914
260 4 0.0664354 0.173971 0.472716
259 2 0.0662729 0.164508 0.49586
469 2 0.075345 0.206163 0.442585
471 4 0.0693727 0.190501 0.461138
470 4 0.0813174 0.221825 0.424032
411 4 0.253837 0.185094 0.423132
650 4 0.249235 0.201972 0.414412
2455 2 0.389153 0.220491 0.449068
2457 4 0.38616 0.2048 0.468304
2456 4 0.392145 0.236181 0.429831
618 4 0.00873277 0.265436 0.41438
616 2 0.00712321 0.277158 0.436408
617 4 0.00551365 0.288879 0.458435
695 4 0.0953049 0.266314 0.430791
694 2 0.113043 0.283492 0.426857
696 4 0.130781 0.30067 0.422924
878 4 0.105117 0.261882 0.486857
1010 4 0.46477 0.32112 0.472077
304 2 0.477957 0.263168 0.420202
1009 2 0.467585 0.296993 0.466152
1011 4 0.470399 0.272865 0.460227
305 4 0.474491 0.261795 0.444926
326 4 0.10708 0.370536 0.444214
325 2 0.126077 0.36916 0.460412
7 3 0.164702 0.364284 0.477372
327 4 0.145075 0.367785 0.47661
8 3 0.164905 0.393961 0.500435
709 2 0.136824 0.422277 0.484423
1191 4 0.201733 0.353246 0.500622
335 4 0.352128 0.406375 0.441882
238 2 0.354042 0.37957 0.479288
240 4 0.351104 0.391808 0.457682
560 4 0.490217 0.392893 0.459123
2507 4 0.481433 0.327117 0.480458
2506 2 0.486826 0.350046 0.472071
2508 4 0.49222 0.372975 0.463684
1381 2 0.0115912 0.457757 0.465298
1382 4 0.0360728 0.462777 0.464507
538 2 0.0531042 0.492991 0.489172
540 4 0.0375299 0.480432 0.474175
570 4 0.119426 0.441215 0.456261
384 4 0.12091 0.495327 0.493294
568 2 0.121419 0.432996 0.432732
710 4 0.125357 0.442865 0.476068
1393 2 0.214832 0.501266 0.470368
1446 4 0.238501 0.496823 0.487135
1394 4 0.220535 0.49083 0.492363
1399 2 0.325758 0.473807 0.41747
1444 2 0.256108 0.490242 0.503623
334 2 0.342246 0.42163 0.424713
1400 4 0.330425 0.495493 0.429007
1127 4 0.032865 0.0461777 0.529229
720 4 0.0301233 0.0546422 0.511524
1126 2 0.0100464 0.0437277 0.539153
1031 4 0.166434 0.0804724 0.55337
949 2 0.191589 0.0622175 0.562869
950 4 0.216096 0.0598166 0.558533
1182 4 0.233071 0.0477631 0.558196
951 4 0.167081 0.0646183 0.567205
1180 2 0.25801 0.0463898 0.559348
963 4 0.29584 0.0315063 0.567102
1181 4 0.282949 0.0450164 0.560499
961 2 0.308596 0.0103449 0.563271
1216 2 0.389977 0.0477363 0.513382
1218 4 0.405339 0.0286794 0.50828
1217 4 0.374616 0.0667931 0.518485
842 4 0.365233 0.0819895 0.527832
2283 4 0.447196 0.00531134 0.572476
1035 4 0.074513 0.156652 0.573607
261 4 0.0661104 0.155046 0.519003
1033 2 0.0779524 0.150366 0.549653
1034 4 0.0813919 0.14408 0.525698
1030 2 0.144545 0.0913384 0.558657
1032 4 0.122655 0.102204 0.563944
1154 4 0.12212 0.0969473 0.584104
1150 2 0.196039 0.152273 0.509544
843 4 0.316442 0.0929218 0.52865
431 4 0.302272 0.107421 0.527237
857 4 0.331567 0.12141 0.571095
430 2 0.290247 0.10334 0.505699
899 4 0.344303 0.127096 0.555851
841 2 0.340837 0.0874557 0.528241
898 2 0.362815 0.143673 0.553081
900 4 0.381328 0.16025 0.550311
938 4 0.137781 0.170863 0.564388
937 2 0.16007 0.170913 0.553058
879 4 0.113742 0.2566 0.53583
1272 4 0.116654 0.25 0.553217
1270 2 0.123377 0.234488 0.571639
1151 4 0.194076 0.170251 0.526809
939 4 0.18236 0.170963 0.541729
872 4 0.387383 0.176824 0.561068
873 4 0.369445 0.217913 0.583217
871 2 0.378414 0.197368 0.572142
877 2 0.10943 0.259241 0.511343
1239 4 0.264277 0.289873 0.55903
1205 4 0.403244 0.293661 0.55991
1204 2 0.378801 0.294513 0.554717
1206 4 0.354357 0.295364 0.549524
930 4 0.343028 0.305943 0.562337
954 4 0.408697 0.282287 0.577531
952 2 0.428603 0.271681 0.588322
983 4 0.0505853 0.403276 0.586895
9 3 0.145018 0.362827 0.509357
6 1 0.164426 0.370784 0.499436
711 4 0.148292 0.401689 0.492779
1135 2 0.171032 0.380852 0.582269
896 4 0.196663 0.350168 0.522692
1137 4 0.172834 0.35732 0.574012
897 4 0.178714 0.339692 0.568176
895 2 0.187688 0.34493 0.545434
10 3 0.182658 0.362171 0.510021
1189 2 0.226605 0.355632 0.499687
1190 4 0.251477 0.358019 0.498751
802 2 0.288297 0.351749 0.519027
804 4 0.304809 0.34634 0.537006
929 4 0.311735 0.344357 0.55557
803 4 0.271784 0.357159 0.501048
928 2 0.327381 0.32515 0.558953
239 4 0.35698 0.367332 0.500893
1001 4 0.463628 0.381359 0.557311
926 4 0.474373 0.387778 0.542961
925 2 0.482687 0.373318 0.524333
1000 2 0.466294 0.400088 0.573661
927 4 0.491001 0.358859 0.505706
934 2 0.0105053 0.487339 0.576125
936 4 0.0315785 0.50066 0.578041
1938 4 0.048668 0.497702 0.569571
382 2 0.123339 0.492997 0.51807
383 4 0.125767 0.490668 0.542846
2244 4 0.120668 0.487882 0.562943
882 4 0.286878 0.459801 0.567513
880 2 0.287342 0.477151 0.549514
881 4 0.287806 0.494501 0.531516
1445 4 0.273716 0.483662 0.520111
1455 4 0.355141 0.50334 0.55582
1183 2 0.00178076 0.0445305 0.649618
1185 4 0.0258417 0.0381282 0.651911
945 4 0.0282996 0.0317201 0.67119
1155 4 0.0855316 0.0707013 0.605857
1059 4 0.0979421 0.0585816 0.615035
1058 4 0.0892095 0.0116582 0.629956
1057 2 0.0935758 0.0351199 0.622496
1005 4 0.292252 0.0892392 0.60683
1003 2 0.300945 0.0871376 0.630179
2282 4 0.457318 0.0267842 0.616489
2281 2 0.452257 0.0160478 0.594483
43 3 0.45873 0.0463525 0.615489
41 1 0.471833 0.0649023 0.620245
44 3 0.458815 0.0815497 0.629826
45 3 0.481549 0.0726525 0.601161
42 3 0.488245 0.0587877 0.635159
1163 4 0.495477 0.0506722 0.652447
1082 4 0.0664811 0.147979 0.590574
1081 2 0.0432186 0.14647 0.599616
1083 4 0.0199561 0.144961 0.608659
1199 4 0.00560888 0.159147 0.612652
1221 4 0.150267 0.097938 0.622006
1153 2 0.103826 0.0838243 0.594981
1219 2 0.170302 0.104137 0.63562
1220 4 0.190338 0.110336 0.649233
1212 4 0.1944 0.127696 0.659418
1210 2 0.217815 0.135557 0.65553
856 2 0.317237 0.136465 0.584993
1004 4 0.309638 0.085036 0.653529
887 4 0.305153 0.127191 0.673155
858 4 0.302906 0.151521 0.598891
1211 4 0.24123 0.143419 0.651643
830 4 0.311493 0.105897 0.667688
888 4 0.2597 0.13288 0.653095
886 2 0.282426 0.130036 0.663125
1143 4 0.365555 0.141885 0.635011
1025 4 0.377852 0.156723 0.629931
1141 2 0.363051 0.133442 0.658413
810 4 0.493648 0.0874085 0.603876
1271 4 0.1301 0.218976 0.590061
909 4 0.137087 0.205488 0.60264
907 2 0.150868 0.209038 0.623198
908 4 0.164649 0.212588 0.643757
947 4 0.174575 0.227098 0.653175
811 2 0.335335 0.232858 0.580081
812 4 0.310797 0.2306 0.584324
798 4 0.298704 0.215192 0.586397
796 2 0.296033 0.191925 0.595154
797 4 0.293362 0.168657 0.603911
813 4 0.359872 0.235117 0.575839
1024 2 0.390325 0.178172 0.633023
1026 4 0.402798 0.199621 0.636115
905 4 0.454498 0.241239 0.599775
904 2 0.477286 0.238157 0.589957
1237 2 0.277609 0.291698 0.580104
792 4 0.301259 0.296202 0.619229
790 2 0.324858 0.304387 0.618112
1238 4 0.290941 0.293524 0.601178
791 4 0.348458 0.312572 0.616995
953 4 0.448509 0.261074 0.599113
982 2 0.0272249 0.394403 0.587759
984 4 0.00386447 0.38553 0.588623
1041 4 0.0694179 0.407836 0.59018
1136 4 0.16923 0.404384 0.590526
1039 2 0.0879779 0.424397 0.587637
992 4 0.164068 0.423637 0.593535
991 2 0.142331 0.435695 0.596237
993 4 0.120594 0.447752 0.598938
1040 4 0.106538 0.440957 0.585095
1171 2 0.249197 0.460131 0.587933
1160 4 0.216566 0.476843 0.585495
1159 2 0.195228 0.48987 0.585095
1173 4 0.224801 0.460426 0.593402
1172 4 0.273594 0.459836 0.582464
1269 4 0.417797 0.487823 0.666819
1002 4 0.468959 0.418817 0.59001
1910 4 0.46735 0.420249 0.609887
1267 2 0.42144 0.463471 0.662471
1911 4 0.442389 0.43507 0.650605
1909 2 0.454869 0.427659 0.630246
1268 4 0.425084 0.43912 0.658123
943 2 0.0472787 0.0394245 0.685529
1076 4 0.0555511 0.0404793 0.714303
944 4 0.0662578 0.0471289 0.699869
1075 2 0.0653003 0.0382369 0.737218
831 4 0.326752 0.0760267 0.704778
32 3 0.105729 0.126824 0.740093
1283 4 0.159469 0.0951609 0.666254
1227 4 0.181432 0.101019 0.728798
1284 4 0.177541 0.0918819 0.712766
1282 2 0.168505 0.0935214 0.68951
1225 2 0.185587 0.114969 0.749128
829 2 0.319122 0.0909616 0.686233
1142 4 0.360547 0.124998 0.681814
851 4 0.0318043 0.196019 0.729876
850 2 0.00844085 0.203635 0.725257
1207 2 0.071706 0.258349 0.702047
1208 4 0.0920022 0.244079 0.69895
822 4 0.156043 0.214446 0.698705
1278 4 0.156386 0.198393 0.711447
820 2 0.133519 0.225172 0.697042
821 4 0.110994 0.235899 0.69538
1276 2 0.154059 0.18735 0.733759
976 2 0.278385 0.200814 0.739564
977 4 0.302013 0.202498 0.731558
916 2 0.306512 0.243464 0.715995
918 4 0.304363 0.219818 0.72383
3121 2 0.468951 0.2408 0.688288
3123 4 0.44698 0.245 0.699459
1261 2 0.443005 0.23221 0.745935
1263 4 0.449575 0.208156 0.747787
1145 4 0.457818 0.190758 0.752416
1209 4 0.0514098 0.27262 0.705144
1244 4 0.0406366 0.288471 0.69883
1243 2 0.0163323 0.2829 0.700687
3188 4 0.0177336 0.260122 0.744574
946 2 0.174633 0.250099 0.662978
1064 4 0.235195 0.300757 0.683748
1063 2 0.213383 0.291132 0.67621
1065 4 0.191572 0.281508 0.668672
948 4 0.17469 0.273101 0.672782
1240 2 0.229518 0.316991 0.729908
1241 4 0.242434 0.314472 0.708647
917 4 0.308662 0.267111 0.70816
1097 4 0.294833 0.277954 0.699717
1096 2 0.273912 0.291361 0.69693
1098 4 0.252991 0.304767 0.694143
1008 4 0.347814 0.254032 0.723741
1006 2 0.361731 0.267972 0.739142
1262 4 0.436436 0.256264 0.744083
1194 4 0.427027 0.274006 0.74354
1279 2 0.0445868 0.36542 0.704448
3275 4 0.0325562 0.380487 0.741479
1280 4 0.0323427 0.379063 0.721451
1281 4 0.0568308 0.351777 0.687444
3274 2 0.0502564 0.395374 0.750978
894 4 0.0700892 0.337119 0.683699
893 4 0.118752 0.337851 0.672206
892 2 0.0944207 0.337485 0.677952
940 2 0.152963 0.390407 0.752849
941 4 0.16588 0.371119 0.743559
1028 4 0.243793 0.362305 0.714766
1068 4 0.223711 0.360895 0.713423
1067 4 0.17599 0.363558 0.72813
1066 2 0.199851 0.362227 0.720777
1029 4 0.269841 0.380893 0.676337
1139 4 0.276777 0.398942 0.682069
1027 2 0.256817 0.371599 0.695551
1229 4 0.370099 0.383997 0.678265
1228 2 0.374238 0.404812 0.691486
1983 4 0.0367857 0.507393 0.730477
1981 2 0.0278708 0.497589 0.75168
1080 4 0.183129 0.424556 0.748966
2172 4 0.21745 0.497034 0.669255
1175 4 0.248833 0.504147 0.677138
1138 2 0.282297 0.421787 0.690602
1140 4 0.287816 0.444632 0.699135
1989 4 0.306338 0.443338 0.709804
1987 2 0.306739 0.454472 0.732187
1230 4 0.378378 0.425627 0.704707
890 4 0.399542 0.489462 0.660842
1100 4 0.473719 0.487286 0.71711
1250 4 0.469205 0.493977 0.735143
911 4 0.0774366 0.0673561 0.826023
1077 4 0.0750495 0.0359945 0.760133
1203 4 0.0923072 0.0347599 0.770356
1201 2 0.109066 0.0171773 0.776286
2049 4 0.144017 0.99718 0.78591
1147 2 0.199263 0.0614904 0.787257
1149 4 0.203818 0.0382601 0.795305
1049 4 0.223181 0.0355876 0.8021
1048 2 0.247069 0.0309232 0.807829
1050 4 0.270956 0.0262588 0.813558
818 4 0.357589 0.0593687 0.811403
817 2 0.348073 0.0809487 0.803101
965 4 0.373209 0.0519067 0.822621
3387 4 0.0127469 0.0941626 0.753754
1106 4 0.0663972 0.147967 0.759044
832 2 0.0458567 0.120956 0.776267
863 4 0.0334229 0.107057 0.808982
833 4 0.0259222 0.113374 0.789317
33 3 0.08267 0.119132 0.768759
834 4 0.0657912 0.128538 0.763217
862 2 0.0490217 0.0931374 0.822697
35 3 0.0852555 0.154148 0.755163
31 1 0.0968587 0.135072 0.759649
34 3 0.114176 0.139623 0.774407
1073 4 0.126552 0.15506 0.770199
1148 4 0.194709 0.0847208 0.779208
1226 4 0.189741 0.128919 0.769459
840 4 0.198069 0.134138 0.788072
838 2 0.221455 0.135272 0.796848
839 4 0.24484 0.136407 0.805623
959 4 0.26041 0.149379 0.807587
958 2 0.265601 0.172771 0.814731
819 4 0.338557 0.102529 0.794798
1084 2 0.347163 0.137413 0.817495
1085 4 0.34018 0.120115 0.800846
1086 4 0.354146 0.154711 0.834145
3270 4 0.49576 0.161186 0.777494
1146 4 0.47936 0.15102 0.773806
153 3 0.00535232 0.243137 0.824195
3189 4 0.000930537 0.247193 0.789864
1107 4 0.0441496 0.191099 0.746987
1105 2 0.0552734 0.169533 0.753016
779 4 0.0605299 0.204898 0.823665
1214 4 0.0428768 0.202047 0.815825
1213 2 0.0262777 0.219873 0.810181
1215 4 0.00967863 0.2377 0.804537
778 2 0.0833315 0.195774 0.818973
1277 4 0.151731 0.176308 0.756071
1072 2 0.125627 0.170101 0.79015
1074 4 0.124701 0.185143 0.810102
780 4 0.106133 0.18665 0.81428
1131 4 0.166421 0.177366 0.769624
1130 4 0.209979 0.185546 0.792786
1129 2 0.1882 0.181456 0.781205
978 4 0.254758 0.19913 0.747569