ITEM: TIMESTEP
2950000
ITEM: NUMBER OF ATOMS
4590
ITEM: BOX BOUNDS pp pp pp
-9.9985700000000008e+00 9.9985700000000008e+00
-9.9985700000000008e+00 9.9985700000000008e+00
-9.9985700000000008e+00 9.9985700000000008e+00
ITEM: ATOMS id type xs ys zs
463 2 0.0228951 0.0458267 0.0211443
464 4 0.0207534 0.0209303 0.0220191
1668 4 0.0538284 0.0603184 0.0546865
1666 2 0.0409329 0.057188 0.0758781
3290 4 0.0709355 0.0494033 0.0527565
465 4 0.0250369 0.070723 0.0202694
701 4 0.029209 0.0727705 0.00069974
3289 2 0.0855554 0.0405798 0.0344922
3291 4 0.100175 0.0317564 0.0162279
2183 4 0.0864913 0.0276939 0.00307877
566 4 0.148786 0.048894 0.0229265
565 2 0.16886 0.0476895 0.0377842
567 4 0.188934 0.0464849 0.052642
490 2 0.305498 0.0154802 0.0592727
491 4 0.300167 0.0321683 0.0414325
985 2 0.29228 0.0468375 0.0153492
987 4 0.291545 0.0496054 0.0401882
745 2 0.473452 0.0336344 0.0693345
746 4 0.456126 0.0516426 0.0701683
747 4 0.490778 0.0156262 0.0685007
450 4 0.0846865 0.0954798 0.0810221
460 2 0.290367 0.14451 0.0476275
462 4 0.305303 0.125225 0.042134
461 4 0.275431 0.163795 0.053121
422 4 0.0604286 0.189436 0.00283533
421 2 0.0818571 0.176867 2.844e-06
506 4 0.16831 0.234266 0.0626401
737 4 0.184407 0.24179 0.0521246
736 2 0.196907 0.220238 0.050019
738 4 0.209407 0.198686 0.0479134
354 4 0.218595 0.191042 0.0318516
352 2 0.242046 0.18358 0.0362771
353 4 0.265496 0.176118 0.0407026
1069 2 0.385174 0.243172 0.00258848
323 4 0.482997 0.24997 0.0474302
828 4 0.504664 0.235348 0.0174426
836 4 0.0261763 0.266216 0.00122597
3339 4 0.00655459 0.288517 0.00727459
2807 4 0.0104199 0.271661 0.0160432
294 4 0.0877584 0.309777 0.070473
505 2 0.151328 0.250508 0.0540973
292 2 0.104176 0.291792 0.0648006
293 4 0.120593 0.273807 0.0591282
507 4 0.134345 0.26675 0.0455544
287 4 0.1357 0.286357 0.0117498
286 2 0.138902 0.310363 0.00553541
612 4 0.267046 0.300526 0.0530789
610 2 0.271355 0.280159 0.0669271
609 4 0.262259 0.315403 0.0398856
611 4 0.275665 0.259791 0.0807753
1071 4 0.37071 0.25439 0.0196221
573 4 0.356633 0.267242 0.0174636
571 2 0.342216 0.284025 0.0058157
324 4 0.473448 0.272325 0.003729
322 2 0.478223 0.261148 0.0255796
1046 4 0.489335 0.331519 0.00556649
519 4 0.493182 0.259455 0.0614371
1045 2 0.489421 0.336451 0.0300786
2841 4 0.499034 0.278579 0.0589207
2787 4 0.997754 0.360458 0.0682547
990 4 0.156987 0.348131 0.00330514
1289 4 0.179504 0.397884 0.0161205
988 2 0.173943 0.364761 0.0111222
989 4 0.190899 0.381392 0.0189393
1288 2 0.193696 0.416797 0.00799272
607 2 0.272065 0.338398 0.0393644
739 2 0.327891 0.357022 0.0283225
250 2 0.287765 0.396968 0.033507
252 4 0.272002 0.377595 0.0323317
608 4 0.28187 0.361393 0.0388432
740 4 0.324266 0.363971 0.052066
251 4 0.303529 0.416341 0.0346823
741 4 0.331516 0.350073 0.00457898
386 4 0.339436 0.362192 0.0659739
226 2 0.382481 0.385366 0.0244474
228 4 0.373379 0.408627 0.0233131
227 4 0.391582 0.362105 0.0255818
1305 4 0.380985 0.350108 0.0117109
281 4 0.429605 0.34054 0.0797605
280 2 0.453843 0.344456 0.0750299
282 4 0.47808 0.348372 0.0702992
1047 4 0.489506 0.341384 0.0545908
552 4 0.00837948 0.452477 0.0664655
314 4 0.0036114 0.433211 0.0731575
550 2 0.00984191 0.473274 0.0526615
551 4 0.0113043 0.49407 0.0388576
1788 4 0.147064 0.48298 0.0823992
1786 2 0.16772 0.486478 0.0687513
243 4 0.238574 0.453921 0.0568361
1440 4 0.229798 0.440263 0.0680338
241 2 0.219408 0.467723 0.0486304
242 4 0.200241 0.481525 0.0404248
1787 4 0.188376 0.489976 0.0551033
524 4 0.317412 0.415165 0.048109
271 2 0.283243 0.479034 0.0764945
525 4 0.357554 0.418385 0.0184626
523 2 0.337483 0.416775 0.0332858
1583 4 0.441457 0.437922 0.0663361
1582 2 0.44201 0.462507 0.0708563
1584 4 0.442562 0.487092 0.0753764
1667 4 0.0280373 0.0540577 0.0970698
16 1 0.0376726 0.0649466 0.133711
19 3 0.0163554 0.0586077 0.140329
17 3 0.0400736 0.0606354 0.111243
20 3 0.0532634 0.0530919 0.145332
1422 4 0.0143217 0.0447604 0.157798
2480 4 0.0124317 0.0640157 0.163177
652 2 0.24166 0.0384602 0.164997
654 4 0.250184 0.0255247 0.14537
1476 4 0.254891 0.0401943 0.131503
1475 4 0.299628 0.0412996 0.109184
1474 2 0.27726 0.040747 0.120344
297 4 0.37273 0.0443418 0.113141
295 2 0.393499 0.0542314 0.122938
484 2 0.361195 0.00629112 0.126846
485 4 0.361754 0.030766 0.121762
296 4 0.414269 0.0641211 0.132736
557 4 0.423886 0.0676892 0.116087
556 2 0.44589 0.0774672 0.122825
18 3 0.0406693 0.087666 0.137352
236 4 0.138438 0.129503 0.100805
449 4 0.12635 0.113258 0.102207
448 2 0.105518 0.104369 0.0916144
235 2 0.156462 0.132306 0.117907
237 4 0.174485 0.13511 0.135009
477 4 0.240285 0.157577 0.1488
580 2 0.31655 0.122628 0.147352
581 4 0.297728 0.137714 0.153934
30 3 0.285699 0.153941 0.157354
582 4 0.335373 0.107543 0.140771
758 4 0.345767 0.0915348 0.142925
757 2 0.353206 0.0848565 0.165843
558 4 0.467894 0.0872452 0.129564
771 4 0.467941 0.0989729 0.146519
769 2 0.482433 0.113166 0.161137
372 4 0.155591 0.23669 0.165194
371 4 0.188551 0.199395 0.160354
476 4 0.197116 0.181995 0.155195
475 2 0.2187 0.169786 0.151998
370 2 0.172071 0.218042 0.162774
29 3 0.250504 0.165774 0.163592
756 4 0.35812 0.243334 0.131189
754 2 0.355979 0.25056 0.15503
624 4 0.455432 0.233339 0.144869
629 4 0.458347 0.238668 0.126233
628 2 0.440589 0.248374 0.111549
622 2 0.458415 0.249862 0.163397
339 4 0.0460142 0.305329 0.168543
456 4 0.0853266 0.318749 0.0881053
279 4 0.261023 0.272209 0.142825
277 2 0.271852 0.270686 0.12034
278 4 0.28268 0.269163 0.0978541
285 4 0.253712 0.275168 0.162341
255 4 0.363958 0.247729 0.111327
254 4 0.405599 0.262183 0.0877088
253 2 0.384779 0.254956 0.0995179
630 4 0.422832 0.258081 0.0968645
619 2 0.0341434 0.375198 0.126928
620 4 0.0545988 0.361163 0.1238
621 4 0.013688 0.389233 0.130056
2694 4 0.00161657 0.404907 0.134748
454 2 0.0991768 0.338854 0.093505
455 4 0.113027 0.358958 0.0989047
537 4 0.130088 0.390411 0.153037
535 2 0.139102 0.384219 0.130552
536 4 0.148116 0.378027 0.108067
647 4 0.126125 0.407931 0.159656
625 2 0.228814 0.388875 0.139028
627 4 0.222844 0.406291 0.12211
626 4 0.234784 0.371459 0.155946
670 2 0.40847 0.349717 0.105464
385 2 0.348457 0.372115 0.0870765
387 4 0.357479 0.382039 0.108179
12 3 0.4044 0.383501 0.132491
11 1 0.388097 0.399698 0.1335
15 3 0.370055 0.392948 0.121352
672 4 0.405305 0.365129 0.124897
302 4 0.351605 0.403472 0.11625
13 3 0.381994 0.402828 0.155666
671 4 0.411636 0.334306 0.0860308
104 3 0.486307 0.353343 0.088295
313 2 0.000822716 0.424985 0.096604
1466 4 0.00836454 0.481734 0.117776
1620 4 0.160323 0.490561 0.144701
1431 4 0.168044 0.497794 0.162374
1619 4 0.146179 0.497711 0.0972712
1618 2 0.153251 0.494136 0.120986
1438 2 0.224072 0.431993 0.0909247
1439 4 0.218346 0.423723 0.113816
272 4 0.28283 0.456223 0.0867235
639 4 0.270079 0.484761 0.128148
638 4 0.300745 0.458853 0.157966
637 2 0.285412 0.471807 0.143057
303 4 0.321525 0.437923 0.136475
659 4 0.317663 0.45095 0.152897
301 2 0.336565 0.420697 0.126363
1559 4 0.362892 0.500323 0.120867
14 3 0.396589 0.419443 0.124758
495 4 0.399877 0.437992 0.11681
493 2 0.410889 0.460434 0.117313
494 4 0.421902 0.482876 0.117816
1420 2 0.00241402 0.0257259 0.168801
674 4 0.140204 0.0813959 0.209386
690 4 0.156565 0.0692862 0.207269
688 2 0.164402 0.0468796 0.199414
689 4 0.17224 0.0244731 0.191559
1505 4 0.188721 0.022922 0.182521
653 4 0.233136 0.0513958 0.184623
693 4 0.25181 0.0589964 0.189265
691 2 0.267955 0.0729348 0.202314
1699 2 0.325037 0.0756324 0.211837
1701 4 0.300418 0.0753976 0.216196
1700 4 0.349657 0.0758673 0.207477
22 3 0.383333 0.0617557 0.223081
698 4 0.403922 0.0655602 0.226303
21 1 0.378634 0.0826473 0.214677
333 4 0.409332 0.0848722 0.219501
759 4 0.360645 0.0781783 0.188761
697 2 0.411432 0.0447499 0.237953
349 2 0.493101 0.0764124 0.225111
699 4 0.418942 0.0239396 0.249602
742 2 0.49839 0.00498334 0.244237
2479 2 0.00199791 0.0841664 0.173677
513 4 0.0206186 0.143521 0.224458
578 4 0.0333594 0.155214 0.23264
511 2 0.00479206 0.133493 0.207901
673 2 0.14817 0.0874879 0.23229
692 4 0.284099 0.0868731 0.215362
28 3 0.265327 0.137766 0.184575
26 1 0.269888 0.15755 0.173341
23 3 0.357071 0.0885539 0.220884
25 3 0.380325 0.0821534 0.191971
24 3 0.393836 0.0978419 0.223419
770 4 0.496926 0.12736 0.175755
331 2 0.433067 0.0919446 0.216069
312 4 0.485 0.129597 0.191317
310 2 0.485108 0.13738 0.215077
350 4 0.47201 0.0896093 0.222624
332 4 0.456803 0.0990171 0.212637
311 4 0.485216 0.145164 0.238838
577 2 0.0353923 0.180117 0.231686
529 2 0.012947 0.231113 0.213559
530 4 0.0207299 0.217344 0.232924
579 4 0.0374252 0.205019 0.230732
531 4 0.00516409 0.244883 0.194194
362 4 0.148655 0.238557 0.184541
361 2 0.126514 0.249468 0.188526
27 3 0.277764 0.173024 0.188431
704 4 0.0478482 0.314396 0.186164
337 2 0.0670392 0.292358 0.172399
703 2 0.0292788 0.318209 0.202468
705 4 0.0107093 0.322022 0.218772
2483 4 0.00459461 0.255176 0.177763
363 4 0.104372 0.26038 0.192511
338 4 0.0880641 0.279386 0.176256
395 4 0.0948837 0.279259 0.196686
396 4 0.0937922 0.295388 0.244009
394 2 0.0943379 0.287323 0.220347
283 2 0.273433 0.275452 0.177709
284 4 0.293153 0.275735 0.193078
755 4 0.353838 0.257786 0.178871
528 4 0.425017 0.296147 0.229383
623 4 0.461398 0.266385 0.181924
527 4 0.447269 0.266354 0.195948
526 2 0.436143 0.281251 0.212665
542 4 0.441251 0.306805 0.235596
2615 4 0.00107413 0.338649 0.215582
300 4 0.106657 0.388004 0.217641
646 2 0.113248 0.402727 0.180447
648 4 0.10037 0.397523 0.201237
298 2 0.113059 0.370106 0.233884
289 2 0.22555 0.405916 0.24304
416 4 0.204996 0.415727 0.217026
597 4 0.391417 0.382716 0.166813
345 4 0.342498 0.360124 0.204394
596 4 0.352721 0.358768 0.187546
645 4 0.390718 0.402643 0.176233
595 2 0.372069 0.370742 0.177179
343 2 0.351748 0.366262 0.226798
344 4 0.360998 0.3724 0.249202
263 4 0.0502275 0.416279 0.240842
290 4 0.222795 0.422237 0.224299
417 4 0.174345 0.443434 0.188856
1429 2 0.178266 0.47729 0.172388
1430 4 0.188488 0.456787 0.182402
415 2 0.189671 0.42958 0.202941
438 4 0.281963 0.46855 0.224655
436 2 0.282116 0.467922 0.249651
658 2 0.336419 0.454476 0.16905
643 2 0.39842 0.425326 0.183397
229 2 0.355907 0.500076 0.198552
644 4 0.406123 0.448009 0.190562
660 4 0.355175 0.458002 0.185204
231 4 0.351293 0.475956 0.193847
447 4 0.418671 0.454955 0.206578
445 2 0.418153 0.446431 0.230078
1403 4 0.0195121 0.0169874 0.258778
233 4 0.0263414 0.0280578 0.275456
232 2 0.0305846 0.0517786 0.282126
234 4 0.0348279 0.0754995 0.288797
317 4 0.0485221 0.0804284 0.302415
722 4 0.160405 0.0765668 0.266342
1407 4 0.231437 0.00782914 0.291232
1405 2 0.221649 0.0296551 0.283953
1406 4 0.21186 0.0514811 0.276673
721 2 0.176659 0.0772136 0.28533
723 4 0.192913 0.0778603 0.304319
599 4 0.202587 0.0714098 0.321035
1518 4 0.4119 0.00439607 0.250999
743 4 0.482317 0.0160721 0.259853
425 4 0.489442 0.0227161 0.277162
424 2 0.474071 0.0382397 0.289325
258 4 0.465961 0.0716612 0.303205
426 4 0.4587 0.0537634 0.301488
256 2 0.459124 0.0826915 0.324577
316 2 0.068688 0.0950092 0.299983
318 4 0.0888539 0.10959 0.297551
393 4 0.0928172 0.156101 0.321373
675 4 0.156135 0.0935799 0.255195
391 2 0.0882032 0.148579 0.297979
392 4 0.0835893 0.141056 0.274585
544 2 0.120928 0.129247 0.257028
545 4 0.0980632 0.138346 0.261453
546 4 0.143793 0.120148 0.252603
399 4 0.095765 0.139843 0.333136
404 4 0.236047 0.0860494 0.298398
403 2 0.234168 0.110512 0.293578
405 4 0.232289 0.134975 0.288758
401 4 0.224382 0.153378 0.283503
400 2 0.237636 0.173858 0.278016
402 4 0.250889 0.194337 0.272528
707 4 0.279204 0.207256 0.320629
765 4 0.44065 0.213909 0.334908
763 2 0.444712 0.201089 0.313829
764 4 0.448775 0.18827 0.29275
442 2 0.0744444 0.270901 0.272855
444 4 0.0594986 0.253573 0.282932
443 4 0.0893903 0.288229 0.262778
497 4 0.307959 0.263219 0.313137
496 2 0.327772 0.262555 0.328374
541 2 0.429705 0.317224 0.255174
543 4 0.418158 0.327644 0.274752
614 4 0.428715 0.330963 0.328102
749 4 0.0609632 0.340925 0.28145
366 4 0.0465527 0.350445 0.29241
365 4 0.00429347 0.373201 0.306447
364 2 0.0254231 0.361823 0.299429
602 4 0.0771374 0.384567 0.307408
601 2 0.0873213 0.381047 0.329971
748 2 0.0842543 0.341432 0.27237
299 4 0.119462 0.352208 0.250128
750 4 0.107545 0.341939 0.26329
777 4 0.0829382 0.404962 0.30341
735 4 0.144675 0.392996 0.299697
733 2 0.149731 0.36857 0.297973
734 4 0.154787 0.344144 0.296249
677 4 0.1476 0.404272 0.283899
291 4 0.228304 0.389595 0.261781
414 4 0.235967 0.400959 0.277144
504 4 0.202491 0.405369 0.311544
412 2 0.254151 0.407991 0.292799
308 4 0.330429 0.374314 0.311309
729 4 0.328279 0.37108 0.331023
413 4 0.272335 0.415024 0.308454
615 4 0.402632 0.334326 0.285569
309 4 0.353394 0.370583 0.267044
307 2 0.341911 0.372448 0.289177
613 2 0.415673 0.332644 0.306836
2924 4 0.494095 0.355352 0.326562
2923 2 0.470737 0.346633 0.328455
2862 4 0.475759 0.389432 0.276604
2860 2 0.490266 0.384976 0.256733
120 3 0.491586 0.399335 0.291218
119 3 0.489246 0.404215 0.328479
713 4 0.473925 0.41229 0.283252
2925 4 0.44738 0.337914 0.330347
262 2 0.0402508 0.429996 0.259214
264 4 0.030274 0.443712 0.277585
1758 4 0.106047 0.49825 0.288653
775 2 0.0987094 0.419462 0.290517
1757 4 0.121499 0.451689 0.278957
776 4 0.114481 0.433961 0.277625
1756 2 0.113773 0.474969 0.283805
676 2 0.158719 0.426 0.278473
678 4 0.169838 0.447728 0.273046
768 4 0.187376 0.458142 0.274226
766 2 0.193874 0.481822 0.278941
502 2 0.20546 0.427407 0.322976
1545 4 0.238122 0.490953 0.327638
5 3 0.265879 0.419638 0.326738
1436 4 0.25478 0.496944 0.318512
437 4 0.28227 0.467294 0.274646
1437 4 0.289074 0.47015 0.293881
1435 2 0.271927 0.483547 0.306196
433 2 0.316495 0.454942 0.320399
435 4 0.326417 0.469796 0.302904
446 4 0.417635 0.437907 0.253578
712 2 0.453831 0.423844 0.273876
714 4 0.433738 0.435398 0.264499
368 4 0.0694624 0.0710761 0.413434
731 4 0.0830853 0.0624951 0.402459
730 2 0.102551 0.0735867 0.391357
604 2 0.140141 0.067807 0.349772
606 4 0.15847 0.0547657 0.338858
249 4 0.315875 0.0337469 0.345296
684 4 0.301518 0.0450817 0.356627
682 2 0.28169 0.0601303 0.358985
683 4 0.261862 0.075179 0.361344
247 2 0.335071 0.0477882 0.353012
248 4 0.354267 0.0618296 0.360729
633 4 0.348217 0.0625114 0.379287
631 2 0.34359 0.0739429 0.401038
1747 2 0.464099 0.0111818 0.336514
1749 4 0.484869 0.0250892 0.33712
2586 4 0.00582533 0.156909 0.409522
732 4 0.122016 0.0846783 0.380255
397 2 0.107911 0.152719 0.350795
605 4 0.121811 0.0808482 0.360687
598 2 0.20582 0.091102 0.3361
600 4 0.209052 0.110794 0.351165
685 2 0.204293 0.13535 0.375876
687 4 0.198789 0.127892 0.352654
686 4 0.209796 0.142808 0.399099
410 4 0.223473 0.154608 0.391211
321 4 0.26182 0.0892115 0.375337
319 2 0.261939 0.0930007 0.400052
419 4 0.36922 0.169853 0.388914
418 2 0.352154 0.153726 0.397507
420 4 0.335088 0.137599 0.4061
716 4 0.387223 0.160061 0.384192
257 4 0.452287 0.0937219 0.345949
760 2 0.480133 0.127338 0.357124
761 4 0.466653 0.106784 0.35254
762 4 0.493612 0.147892 0.361709
390 4 0.0830545 0.233533 0.407546
398 4 0.120057 0.165595 0.368455
388 2 0.099295 0.241085 0.3901
274 2 0.148506 0.240986 0.366514
389 4 0.115536 0.248637 0.372653
473 4 0.223095 0.226752 0.352318
474 4 0.177142 0.217082 0.369511
472 2 0.200118 0.221917 0.360915
708 4 0.239891 0.213132 0.350971
275 4 0.164781 0.224985 0.356303
409 2 0.239385 0.168747 0.404329
650 4 0.250235 0.201754 0.414839
651 4 0.270663 0.238671 0.387996
649 2 0.260449 0.220213 0.401418
706 2 0.259547 0.210194 0.3358
489 4 0.255337 0.246925 0.378499
377 4 0.385302 0.208581 0.339638
717 4 0.391604 0.190018 0.344391
715 2 0.389414 0.17504 0.364291
376 2 0.375337 0.23123 0.343234
584 4 0.384146 0.241835 0.41843
618 4 0.0061669 0.266341 0.408868
276 4 0.132231 0.256987 0.376726
1258 2 0.146062 0.309727 0.387758
1259 4 0.149073 0.308635 0.36296
1260 4 0.143051 0.310819 0.412556
509 4 0.231775 0.300577 0.369351
487 2 0.238228 0.265111 0.377179
488 4 0.22112 0.283297 0.375859
508 2 0.226446 0.324193 0.363101
267 4 0.327963 0.321669 0.369494
498 4 0.347585 0.261892 0.343612
378 4 0.365373 0.253878 0.34683
266 4 0.369431 0.303998 0.391147
585 4 0.377753 0.287455 0.398972
583 2 0.38095 0.264645 0.408701
265 2 0.348697 0.312834 0.38032
268 2 0.494008 0.261135 0.357065
270 4 0.485129 0.275727 0.375325
306 4 0.484386 0.267934 0.393624
304 2 0.478131 0.265702 0.417729
603 4 0.0975052 0.377528 0.352533
547 2 0.10444 0.410272 0.378173
549 4 0.0967514 0.397762 0.357935
510 4 0.221117 0.34781 0.356852
374 4 0.224175 0.367546 0.358749
373 2 0.236944 0.386648 0.368609
375 4 0.249713 0.405751 0.378469
727 2 0.319842 0.394096 0.335946
3 3 0.261381 0.414758 0.3638
753 4 0.499337 0.410296 0.344952
679 2 0.0415451 0.4937 0.384852
407 4 0.0264008 0.422246 0.388942
680 4 0.050141 0.475161 0.39926
406 2 0.0414671 0.440052 0.39795
408 4 0.0565334 0.457858 0.406958
2463 4 0.00997283 0.502266 0.334976
569 4 0.127704 0.423803 0.410146
548 4 0.112128 0.422781 0.398411
635 4 0.160287 0.479177 0.36047
634 2 0.182311 0.473814 0.349917
636 4 0.204334 0.46845 0.339363
503 4 0.208428 0.449445 0.334407
669 4 0.298041 0.482893 0.391802
728 4 0.311404 0.417112 0.34087
434 4 0.306572 0.440088 0.337894
2 3 0.294419 0.426077 0.349909
1 1 0.271606 0.427506 0.347328
668 4 0.262057 0.4663 0.361297
4 3 0.265201 0.449713 0.34938
667 2 0.280049 0.474596 0.37655
336 4 0.325046 0.433988 0.413356
718 2 0.0278811 0.0553709 0.490742
719 4 0.0268141 0.0576886 0.465869
369 4 0.0414295 0.0571248 0.452425
367 2 0.0554459 0.0641004 0.43293
441 4 0.220525 0.010211 0.452671
341 4 0.177466 0.0747998 0.466233
2430 4 0.184848 0.0560988 0.462254
2428 2 0.193671 0.0327041 0.462126
2429 4 0.202494 0.00930942 0.461999
1218 4 0.398028 0.0330542 0.493396
2878 2 0.460911 0.00979224 0.441156
2880 4 0.475821 0.0288772 0.447372
642 4 0.473678 0.0386451 0.428683
640 2 0.485299 0.0594716 0.421174
641 4 0.496921 0.0802981 0.413665
340 2 0.183611 0.0977043 0.474158
1152 4 0.199007 0.135805 0.491197
342 4 0.189756 0.120609 0.482083
320 4 0.262058 0.0967898 0.424766
725 4 0.274359 0.0820135 0.431012
724 2 0.284541 0.0862033 0.453461
432 4 0.27851 0.0965643 0.484602
726 4 0.294723 0.0903932 0.47591
468 4 0.331187 0.102975 0.426425
632 4 0.338962 0.0853745 0.422788
467 4 0.367757 0.120944 0.455417
466 2 0.349472 0.111959 0.440921
574 2 0.40084 0.135859 0.43631
576 4 0.380084 0.122778 0.441134
575 4 0.421596 0.14894 0.431487
516 4 0.436109 0.139066 0.441068
514 2 0.460513 0.14437 0.43986
515 4 0.484918 0.149674 0.438651
260 4 0.0647752 0.184697 0.480148
259 2 0.0636153 0.169481 0.499954
469 2 0.0744238 0.204767 0.443186
471 4 0.0707928 0.188001 0.461377
470 4 0.0780548 0.221532 0.424995
411 4 0.255297 0.182885 0.417448
2455 2 0.391272 0.219418 0.452363
2457 4 0.391762 0.199278 0.467172
2456 4 0.390783 0.239559 0.437554
616 2 0.00386589 0.27823 0.430743
617 4 0.00156489 0.290119 0.452619
695 4 0.102926 0.258395 0.433254
694 2 0.115298 0.279175 0.426904
696 4 0.12767 0.299954 0.420554
878 4 0.102377 0.27058 0.490927
1010 4 0.461209 0.318327 0.470713
1009 2 0.468456 0.294972 0.465497
1011 4 0.475702 0.271617 0.46028
305 4 0.471875 0.26347 0.441835
2507 4 0.478942 0.325986 0.47449
326 4 0.10419 0.378039 0.44609
325 2 0.124604 0.372367 0.459368
7 3 0.164323 0.364741 0.477154
327 4 0.145017 0.366695 0.472646
8 3 0.166391 0.396696 0.496833
6 1 0.166995 0.373543 0.498238
711 4 0.147719 0.404369 0.497092
1189 2 0.232124 0.359818 0.499627
1190 4 0.256716 0.359689 0.495112
335 4 0.352797 0.405836 0.443984
238 2 0.355589 0.378751 0.479152
240 4 0.358255 0.393357 0.459033
239 4 0.352923 0.364145 0.49927
559 2 0.495714 0.404965 0.433492
560 4 0.487232 0.391044 0.452451
2506 2 0.483993 0.349625 0.468097
2508 4 0.489045 0.373263 0.461704
1381 2 0.00814352 0.454914 0.46553
1382 4 0.0311357 0.458692 0.4746
538 2 0.0523398 0.493122 0.488464
540 4 0.0396461 0.476551 0.4747
774 4 0.113743 0.498961 0.427529
773 4 0.132674 0.492372 0.473343
772 2 0.123209 0.495667 0.450436
710 4 0.123576 0.443261 0.47696
709 2 0.135647 0.423815 0.487026
570 4 0.127995 0.441727 0.456829
568 2 0.12785 0.432765 0.433488
1394 4 0.211056 0.491942 0.490743
1446 4 0.23152 0.487693 0.490399
1400 4 0.325062 0.497818 0.425934
1399 2 0.319858 0.473449 0.423871
1401 4 0.314654 0.449081 0.421807
587 4 0.353293 0.501192 0.483741
334 2 0.338922 0.419912 0.42867
1127 4 0.0368995 0.0484353 0.533481
720 4 0.028948 0.0530532 0.515615
1126 2 0.0139957 0.0438167 0.542384
1031 4 0.165068 0.0785931 0.550072
949 2 0.19335 0.062252 0.55976
950 4 0.218332 0.0631391 0.559217
1182 4 0.22843 0.0449516 0.56055
951 4 0.168368 0.0613649 0.560304
1180 2 0.252635 0.0391441 0.558189
963 4 0.296867 0.0296154 0.559324
1181 4 0.27684 0.0333366 0.555829
961 2 0.309086 0.00780453 0.558921
1216 2 0.386816 0.0476539 0.510317
1217 4 0.375605 0.0622536 0.527239
842 4 0.36029 0.0755012 0.527015
2283 4 0.450961 0.00746649 0.572491
1035 4 0.0762358 0.146371 0.576199
261 4 0.0624553 0.154264 0.519761
1033 2 0.0784536 0.150764 0.551684
1034 4 0.0806715 0.155158 0.52717
1030 2 0.143934 0.0905238 0.556089
1032 4 0.122801 0.102454 0.562106
938 4 0.146835 0.163354 0.572257
1150 2 0.194479 0.154486 0.507188
843 4 0.316454 0.0995263 0.528386
431 4 0.298759 0.110847 0.528038
857 4 0.328717 0.12564 0.568382
430 2 0.288635 0.103706 0.50632
856 2 0.316567 0.140247 0.584636
899 4 0.347949 0.123792 0.560287
841 2 0.338372 0.0875138 0.5277
898 2 0.366705 0.13993 0.556687
900 4 0.38546 0.156069 0.553086
937 2 0.163368 0.171613 0.555416
1272 4 0.109485 0.244762 0.552866
1270 2 0.120304 0.229859 0.569778
1151 4 0.189952 0.173167 0.523179
939 4 0.179901 0.179872 0.538575
872 4 0.381396 0.168483 0.568225
873 4 0.370638 0.216861 0.574899
871 2 0.376017 0.192672 0.571562
813 4 0.359197 0.233078 0.576618
879 4 0.114717 0.256588 0.537324
877 2 0.108547 0.263584 0.514126
1239 4 0.265883 0.284254 0.567477
928 2 0.323426 0.325915 0.561342
1205 4 0.40507 0.286454 0.554031
1204 2 0.381219 0.293795 0.552465
1206 4 0.357369 0.301136 0.550899
930 4 0.340699 0.308026 0.558732
954 4 0.408916 0.276292 0.570229
983 4 0.0527798 0.399531 0.580821
9 3 0.149731 0.365975 0.511769
896 4 0.192285 0.348426 0.517255
1137 4 0.172318 0.359777 0.568113
897 4 0.177231 0.341292 0.564406
895 2 0.184758 0.344859 0.54083
10 3 0.187031 0.366792 0.506701
1191 4 0.207531 0.359947 0.504142
802 2 0.288427 0.350478 0.525162
804 4 0.305089 0.34623 0.543314
929 4 0.306152 0.343804 0.563952
803 4 0.271765 0.354726 0.50701
1001 4 0.459674 0.395055 0.549517
926 4 0.473944 0.382903 0.544513
925 2 0.482461 0.367775 0.526519
1000 2 0.46809 0.402637 0.571807
927 4 0.490978 0.352647 0.508525
934 2 0.0139514 0.483985 0.575925
936 4 0.0376425 0.491167 0.579436
1938 4 0.0524958 0.486094 0.56647
1936 2 0.0542088 0.494828 0.543104
382 2 0.126614 0.495754 0.513631
383 4 0.125852 0.488827 0.537644
2244 4 0.121218 0.49345 0.557944
2242 2 0.139195 0.495342 0.575219
882 4 0.283703 0.455245 0.568267
880 2 0.285156 0.472606 0.550332
881 4 0.286608 0.489967 0.532397
1445 4 0.274538 0.487775 0.515898
1172 4 0.26876 0.451182 0.582439
1444 2 0.253029 0.487734 0.503148
1183 2 0.000203026 0.0455517 0.64745
1185 4 0.0251796 0.0446642 0.648199
1155 4 0.0829936 0.0690968 0.606388
1059 4 0.0974852 0.0564678 0.612865
1058 4 0.0819602 0.0123061 0.630456
1057 2 0.0897227 0.034387 0.621661
2282 4 0.463588 0.0220627 0.618624
2281 2 0.457275 0.0147646 0.595558
43 3 0.462333 0.0422836 0.612303
41 1 0.473485 0.0616939 0.618409
44 3 0.45893 0.0760876 0.629336
45 3 0.482061 0.0718695 0.599928
42 3 0.490658 0.0562209 0.632702
1163 4 0.494108 0.0529271 0.652176
1082 4 0.0597787 0.148152 0.589166
1081 2 0.0370018 0.147194 0.599436
1083 4 0.014225 0.146235 0.609706
1199 4 0.00214097 0.161496 0.614748
1154 4 0.116586 0.0974848 0.582588
1221 4 0.146923 0.10575 0.617426
1153 2 0.0997897 0.0832908 0.594488
1219 2 0.166285 0.108358 0.633029
1220 4 0.185648 0.110966 0.648632
1212 4 0.197477 0.126355 0.654341
1210 2 0.220459 0.135815 0.651605
1211 4 0.243442 0.145275 0.64887
1005 4 0.289465 0.0889098 0.603961
1003 2 0.300926 0.0889583 0.626183
1004 4 0.312388 0.0890068 0.648405
858 4 0.304417 0.154854 0.60089
888 4 0.261063 0.144632 0.657149
886 2 0.27884 0.130002 0.666902
1143 4 0.370987 0.139246 0.63526
1025 4 0.38464 0.156289 0.634046
1141 2 0.36328 0.133614 0.65837
810 4 0.494114 0.0878374 0.602109
808 2 0.500869 0.105188 0.585421
1271 4 0.131124 0.214955 0.58669
909 4 0.144964 0.214658 0.600878
907 2 0.157804 0.211172 0.622048
908 4 0.170643 0.207686 0.643218
947 4 0.179576 0.222241 0.653215
946 2 0.179131 0.245954 0.661129
812 4 0.311238 0.234376 0.590724
798 4 0.304496 0.215272 0.593758
796 2 0.297453 0.192241 0.600478
797 4 0.290411 0.16921 0.607198
811 2 0.335217 0.233727 0.583671
1024 2 0.391254 0.180384 0.633119
1026 4 0.397867 0.204479 0.632192
905 4 0.463231 0.247311 0.600674
904 2 0.483342 0.238688 0.588576
3122 4 0.488758 0.232484 0.669292
1237 2 0.274717 0.291755 0.589633
792 4 0.300677 0.292885 0.619138
790 2 0.324601 0.300111 0.618344
1238 4 0.283551 0.299255 0.611789
791 4 0.348524 0.307337 0.61755
952 2 0.4299 0.269055 0.581739
953 4 0.450884 0.261818 0.59325
982 2 0.0296922 0.391271 0.585713
984 4 0.00660469 0.383012 0.590605
1041 4 0.0646014 0.413237 0.58555
3263 4 0.00309719 0.401456 0.595499
1135 2 0.171127 0.380755 0.581667
1136 4 0.169935 0.401732 0.59522
1002 4 0.476506 0.41022 0.594097
1910 4 0.472794 0.416781 0.613567
1039 2 0.0841838 0.428784 0.585437
992 4 0.165383 0.421495 0.596953
991 2 0.143095 0.432811 0.596348
993 4 0.120807 0.444128 0.595742
1040 4 0.103766 0.44433 0.585323
2243 4 0.157172 0.497235 0.592494
1171 2 0.244336 0.454407 0.58671
1160 4 0.222123 0.476613 0.586183
1159 2 0.199368 0.486793 0.588118
1173 4 0.219912 0.457632 0.590981
890 4 0.395192 0.489361 0.658607
1952 4 0.367298 0.494372 0.615683
889 2 0.376268 0.497514 0.644445
1951 2 0.357816 0.502748 0.594117
1267 2 0.418442 0.468866 0.666259
1911 4 0.444929 0.439739 0.648168
1909 2 0.458861 0.42826 0.630868
1268 4 0.429582 0.447821 0.65863
945 4 0.0253785 0.0422739 0.668331
943 2 0.0451663 0.0415601 0.683599
1076 4 0.0559979 0.0436494 0.716732
944 4 0.0649541 0.0408462 0.698867
1075 2 0.0659348 0.0397035 0.739334
831 4 0.337228 0.0760248 0.702253
32 3 0.103881 0.122899 0.736639
1283 4 0.159012 0.0848773 0.674717
35 3 0.0856602 0.152925 0.749261
1227 4 0.185604 0.0984473 0.734614
1284 4 0.171728 0.0983065 0.721179
1282 2 0.16537 0.0915919 0.697948
887 4 0.296617 0.115372 0.676655
830 4 0.315311 0.107776 0.670437
829 2 0.32627 0.0919003 0.686345
1142 4 0.355572 0.127982 0.681479
851 4 0.0244287 0.184616 0.730726
850 2 0.00511013 0.199889 0.726399
1208 4 0.0926815 0.244684 0.699216
822 4 0.155783 0.213934 0.696083
1278 4 0.161612 0.198755 0.708495
820 2 0.132937 0.223976 0.697635
821 4 0.110092 0.234018 0.699187
1276 2 0.156951 0.18881 0.730957
976 2 0.279711 0.203336 0.74046
977 4 0.3038 0.201502 0.734012
916 2 0.3078 0.238916 0.710781
918 4 0.309566 0.216275 0.721242
978 4 0.255623 0.20517 0.746907
3121 2 0.467191 0.235564 0.681564
3123 4 0.445625 0.238643 0.693835
1261 2 0.44383 0.230723 0.743333
1263 4 0.449567 0.206386 0.743415
1207 2 0.0726019 0.259306 0.696355
1209 4 0.0525223 0.273928 0.693493
1244 4 0.0399288 0.287733 0.698324
1243 2 0.0176809 0.276336 0.698878
894 4 0.0649444 0.337281 0.682273
893 4 0.113155 0.333225 0.669623
892 2 0.0890497 0.335253 0.675948
1064 4 0.23903 0.3003 0.678788
1063 2 0.218166 0.28661 0.677221
1065 4 0.197302 0.27292 0.675655
948 4 0.178686 0.269668 0.669043
1240 2 0.236245 0.314 0.729305
1242 4 0.217691 0.311911 0.745935
1241 4 0.2548 0.316089 0.712675
917 4 0.306034 0.261557 0.700319
1097 4 0.293902 0.275868 0.694057
1096 2 0.274171 0.291213 0.693422
1098 4 0.25444 0.306558 0.692787
1008 4 0.340824 0.257188 0.718326
1006 2 0.355335 0.268698 0.735123
1262 4 0.438093 0.255059 0.743251
1194 4 0.4292 0.273078 0.749746
1279 2 0.0483187 0.365382 0.701864
3275 4 0.0315228 0.379288 0.739561
1280 4 0.0333523 0.372748 0.72049
1281 4 0.0632852 0.358016 0.683238
3274 2 0.0488837 0.394959 0.748404
940 2 0.151921 0.38986 0.750124
941 4 0.16128 0.37102 0.736609
1028 4 0.240435 0.357213 0.705757
1068 4 0.221545 0.353636 0.711055
1067 4 0.173812 0.363213 0.722478
1066 2 0.197678 0.358424 0.716766
1029 4 0.273732 0.380498 0.676605
1139 4 0.271437 0.397365 0.688767
1027 2 0.257084 0.368856 0.691181
1229 4 0.375858 0.384307 0.684858
1228 2 0.374554 0.407147 0.694948
1080 4 0.182902 0.426463 0.749075
2172 4 0.213537 0.494011 0.670088
1175 4 0.248574 0.500014 0.676991
1138 2 0.278406 0.419555 0.697944
1140 4 0.285374 0.441746 0.70712
1989 4 0.298713 0.454713 0.711153
1987 2 0.306095 0.455829 0.735016
2214 4 0.262791 0.489741 0.749082
1269 4 0.407302 0.48991 0.673889
1230 4 0.373249 0.429987 0.705038
1100 4 0.475234 0.487838 0.713893
1250 4 0.467156 0.48242 0.731545
911 4 0.0735268 0.0701548 0.825731
1077 4 0.0758716 0.0357575 0.761937
1202 4 0.128583 0.00373563 0.786222
1203 4 0.095876 0.0342691 0.76389
1201 2 0.112229 0.0190023 0.775056
2049 4 0.147277 0.0040026 0.790153
1147 2 0.200403 0.0649129 0.79294
1149 4 0.20375 0.040718 0.798285
1049 4 0.219474 0.0363185 0.808014
1048 2 0.244053 0.0325011 0.810561
1050 4 0.268632 0.0286837 0.813109
818 4 0.362845 0.062893 0.804803
817 2 0.344724 0.0797164 0.80109
965 4 0.371723 0.0608741 0.823475
3387 4 0.00602161 0.099198 0.76001
1106 4 0.0659317 0.146855 0.75217
832 2 0.0473035 0.119034 0.773826
863 4 0.0280792 0.101254 0.805466
833 4 0.0279726 0.108381 0.785574
33 3 0.0844718 0.120732 0.768751
834 4 0.0666344 0.129687 0.762078
862 2 0.0422269 0.0872495 0.820595
31 1 0.0975639 0.134525 0.755456
34 3 0.116609 0.14095 0.76705
1073 4 0.132731 0.152105 0.774436
1225 2 0.188117 0.113743 0.754233
1148 4 0.197055 0.0891079 0.787594
1226 4 0.19063 0.129038 0.773852
840 4 0.201112 0.138373 0.789414
838 2 0.224603 0.13885 0.797966
839 4 0.248093 0.139328 0.806519
959 4 0.266621 0.147678 0.802998
819 4 0.326603 0.0965398 0.797378
1084 2 0.341938 0.136152 0.81317
1085 4 0.336727 0.115131 0.800674
1086 4 0.347148 0.157173 0.825666
1299 4 0.363845 0.166907 0.82589
3270 4 0.491507 0.157322 0.779208
1146 4 0.475771 0.148546 0.77077
153 3 0.00760222 0.239467 0.82545
1107 4 0.0375609 0.187663 0.74665
1105 2 0.0517463 0.167259 0.74941