ITEM: TIMESTEP
1290000
ITEM: NUMBER OF ATOMS
4590
ITEM: BOX BOUNDS pp pp pp
-9.9985700000000008e+00 9.9985700000000008e+00
-9.9985700000000008e+00 9.9985700000000008e+00
-9.9985700000000008e+00 9.9985700000000008e+00
ITEM: ATOMS id type xs ys zs
463 2 0.0490455 0.0631082 0.0303175
464 4 0.0435919 0.0426958 0.016947
3290 4 0.0636173 0.0416949 0.0103589
1668 4 0.0462181 0.0078364 0.059933
1666 2 0.0675003 0.0195504 0.0658517
1667 4 0.0887825 0.0312644 0.0717703
1476 4 0.222239 0.0210832 0.0567405
1474 2 0.241184 0.0132033 0.0424517
1475 4 0.260129 0.00532332 0.028163
492 4 0.276147 0.994689 0.0225159
490 2 0.285272 0.0114747 0.00638691
986 4 0.339791 0.0409826 0.0231838
985 2 0.358864 0.0337838 0.00870688
745 2 0.453756 0.0657742 0.0178579
747 4 0.463884 0.0657685 0.0407181
2722 2 0.473615 0.057469 0.0826702
2724 4 0.469152 0.0573618 0.0580685
1826 4 0.445741 0.000289987 0.0543353
465 4 0.054499 0.0835207 0.0436879
591 4 0.0551347 0.110574 0.0614934
701 4 0.0533658 0.112823 0.0418959
700 2 0.0388711 0.133131 0.0402578
702 4 0.0243765 0.153439 0.0386196
3234 4 0.0267938 0.1322 0.00261874
423 4 0.114486 0.153998 0.0415203
567 4 0.156527 0.121319 0.0709023
566 4 0.194532 0.088973 0.0677213
1133 4 0.212551 0.144844 0.00980865
360 4 0.232744 0.141432 0.00698049
358 2 0.24682 0.14074 0.0276338
565 2 0.175529 0.105146 0.0693118
359 4 0.260897 0.140047 0.0482871
771 4 0.444126 0.158109 0.0887678
553 2 0.0424068 0.192013 0.0286171
422 4 0.0740318 0.180936 0.0532898
555 4 0.0545307 0.186259 0.0497139
554 4 0.0302829 0.197768 0.00752027
2835 4 0.015641 0.207726 0.0162406
421 2 0.0942591 0.167467 0.047405
506 4 0.195336 0.230943 0.0461668
737 4 0.189514 0.218989 0.0617199
736 2 0.206402 0.204657 0.0733202
738 4 0.22329 0.190325 0.0849204
354 4 0.236339 0.18018 0.0745802
353 4 0.281794 0.197536 0.063033
461 4 0.296458 0.212385 0.0657339
352 2 0.259067 0.188858 0.0688066
323 4 0.402625 0.230448 0.0497463
1071 4 0.393397 0.242024 0.0363858
322 2 0.426358 0.237903 0.0522682
1014 4 0.492705 0.217106 0.00273857
1170 4 0.0453974 0.321545 0.00992332
1056 4 0.0632497 0.312781 0.0108988
294 4 0.144987 0.326166 0.024824
292 2 0.155797 0.304781 0.0319641
505 2 0.184843 0.251123 0.0357826
507 4 0.174349 0.271302 0.0253984
293 4 0.166607 0.283395 0.0391043
481 2 0.27812 0.290727 0.0190738
482 4 0.287516 0.27818 0.038554
483 4 0.268725 0.303273 0.999594
1069 2 0.381275 0.250072 0.0160522
573 4 0.395059 0.289879 0.0491364
571 2 0.371947 0.286904 0.0582005
572 4 0.348835 0.283929 0.0672646
1070 4 0.369152 0.258119 0.995718
324 4 0.45009 0.245358 0.0547902
456 4 0.153057 0.342101 0.0347966
454 2 0.14827 0.355488 0.0553649
455 4 0.143483 0.368875 0.0759332
607 2 0.248099 0.372152 0.0803438
252 4 0.271814 0.395549 0.0555308
250 2 0.283355 0.417453 0.0520383
608 4 0.255005 0.391434 0.0660011
671 4 0.417998 0.352029 0.0724322
281 4 0.432993 0.361442 0.0637469
280 2 0.455481 0.351749 0.058699
282 4 0.47797 0.342055 0.0536512
104 3 0.489629 0.342731 0.0704233
550 2 0.0377203 0.48921 0.0582645
552 4 0.0386024 0.473038 0.0773138
793 2 0.164416 0.493005 0.00352354
795 4 0.148826 0.474154 0.00869572
246 4 0.211876 0.489886 0.023913
244 2 0.214931 0.472138 0.00656785
1440 4 0.224672 0.490242 0.0683189
251 4 0.294896 0.439357 0.0485458
524 4 0.367915 0.404211 0.0616013
523 2 0.359987 0.42739 0.0666092
228 4 0.417839 0.425168 0.00867349
19 3 0.0440645 0.0301814 0.145489
20 3 0.0743116 0.0109882 0.133897
1422 4 0.0270134 0.0162322 0.140705
16 1 0.0664636 0.0315925 0.139599
17 3 0.0685378 0.0457434 0.121583
2480 4 0.0234123 0.038418 0.145242
18 3 0.0787873 0.0401366 0.157306
2479 2 0.999147 0.0426558 0.14095
450 4 0.127113 0.0624209 0.173895
652 2 0.24292 0.045351 0.153626
654 4 0.237908 0.0360861 0.130949
484 2 0.323309 0.0141584 0.126572
486 4 0.311839 0.00838413 0.148027
485 4 0.334778 0.0199326 0.105118
297 4 0.337959 0.0387998 0.0993886
296 4 0.361603 0.0824041 0.0930377
295 2 0.349781 0.0606019 0.0962132
2723 4 0.478078 0.0575762 0.107272
2744 4 0.492437 0.0136428 0.159837
590 4 0.0628499 0.0879545 0.10542
589 2 0.0589923 0.0992642 0.0834567
448 2 0.132365 0.0864941 0.169644
582 4 0.317968 0.0922966 0.139216
580 2 0.302642 0.0936985 0.158922
557 4 0.372881 0.093956 0.104429
758 4 0.353021 0.0922634 0.153395
558 4 0.42153 0.0994994 0.114591
556 2 0.397205 0.0967277 0.10951
769 2 0.466928 0.168369 0.0888952
338 4 0.056723 0.247061 0.106946
337 2 0.0736079 0.243446 0.12503
339 4 0.0904928 0.23983 0.143113
477 4 0.162738 0.238744 0.128278
475 2 0.178102 0.219871 0.134019
476 4 0.193466 0.200999 0.139759
460 2 0.311634 0.209212 0.0853497
277 2 0.293052 0.23478 0.143554
278 4 0.303088 0.235399 0.120661
462 4 0.326811 0.206039 0.104965
255 4 0.336153 0.194679 0.118803
254 4 0.385396 0.201196 0.113032
630 4 0.39506 0.208933 0.0983579
253 2 0.360774 0.197938 0.115917
628 2 0.417231 0.219593 0.102828
770 4 0.489729 0.178628 0.0890226
624 4 0.433624 0.238458 0.124391
629 4 0.439402 0.230254 0.107298
622 2 0.431155 0.248472 0.147168
611 4 0.223066 0.303095 0.123049
610 2 0.232861 0.32577 0.119164
755 4 0.307943 0.24921 0.107457
754 2 0.321148 0.265256 0.0935526
741 4 0.343863 0.308922 0.0857099
756 4 0.334354 0.281301 0.0796484
739 2 0.355036 0.322958 0.103127
740 4 0.366208 0.336994 0.120544
596 4 0.459313 0.324574 0.145051
621 4 0.0286224 0.391624 0.100698
619 2 0.0414588 0.388261 0.12189
620 4 0.0542952 0.384897 0.143082
647 4 0.0648223 0.368875 0.149994
315 4 0.0193554 0.409077 0.0916975
646 2 0.0888374 0.374956 0.15338
648 4 0.112853 0.381038 0.156767
612 4 0.242656 0.348444 0.115278
609 4 0.241193 0.352871 0.0946864
536 4 0.171321 0.376302 0.149065
535 2 0.168591 0.353261 0.158383
387 4 0.332898 0.389969 0.151855
302 4 0.331453 0.406467 0.140166
385 2 0.343881 0.370239 0.141118
386 4 0.354863 0.350508 0.130381
12 3 0.410429 0.368873 0.138046
11 1 0.410533 0.382721 0.156413
15 3 0.389086 0.386522 0.163063
672 4 0.405486 0.363317 0.119515
670 2 0.411742 0.357673 0.0959734
14 3 0.420702 0.402763 0.15064
495 4 0.421774 0.401182 0.130102
595 2 0.442334 0.337497 0.158085
597 4 0.425354 0.35042 0.171119
314 4 0.0352919 0.456364 0.0884218
313 2 0.0273236 0.43272 0.0900597
1789 2 0.0619822 0.49003 0.113224
1791 4 0.0490212 0.490772 0.134593
1466 4 0.0372352 0.497705 0.150245
1790 4 0.0749432 0.489287 0.091855
626 4 0.179119 0.43806 0.134077
625 2 0.202665 0.444029 0.140002
627 4 0.226212 0.449998 0.145928
637 2 0.25225 0.471654 0.151903
1438 2 0.23335 0.489394 0.0917529
1439 4 0.242028 0.488546 0.115187
639 4 0.263057 0.493123 0.145014
301 2 0.342686 0.42286 0.155341
525 4 0.352058 0.450568 0.0716171
494 4 0.411913 0.445255 0.108631
493 2 0.416844 0.423219 0.119367
1583 4 0.440344 0.507216 0.153652
690 4 0.159764 0.0208321 0.23153
674 4 0.149785 0.0306017 0.245651
688 2 0.172964 0.00476507 0.217645
653 4 0.247932 0.0546158 0.176302
693 4 0.253999 0.0550517 0.195661
691 2 0.23782 0.0470929 0.212984
692 4 0.221641 0.0391342 0.230307
689 4 0.186164 0.988698 0.20376
1661 4 0.310713 0.0136141 0.16692
1700 4 0.320192 0.0650131 0.2401
1699 2 0.298866 0.0570571 0.229753
1701 4 0.277539 0.0491011 0.219406
21 1 0.361038 0.0669917 0.231043
25 3 0.363053 0.0653917 0.208415
759 4 0.368797 0.0610159 0.189108
23 3 0.339396 0.0616253 0.237464
757 2 0.360909 0.0766396 0.171251
513 4 0.0370848 0.160752 0.204665
511 2 0.0150779 0.160645 0.192797
449 4 0.137618 0.110567 0.165393
236 4 0.135099 0.125752 0.178571
235 2 0.145033 0.143126 0.19356
237 4 0.154967 0.1605 0.208548
546 4 0.195802 0.125258 0.248289
581 4 0.287316 0.0951004 0.178628
28 3 0.264533 0.106781 0.221604
30 3 0.292647 0.0984518 0.197984
26 1 0.28639 0.111607 0.215489
29 3 0.288219 0.133983 0.209627
27 3 0.300212 0.10746 0.233403
24 3 0.366241 0.088523 0.237952
312 4 0.40073 0.120309 0.191071
310 2 0.416033 0.139835 0.19419
311 4 0.431336 0.159362 0.197308
577 2 0.0695656 0.176765 0.212066
578 4 0.0472722 0.168231 0.219506
531 4 0.00369288 0.186267 0.235882
512 4 0.993071 0.160538 0.180928
579 4 0.091859 0.185299 0.204626
279 4 0.283017 0.234162 0.166447
283 2 0.271626 0.24149 0.193988
285 4 0.272119 0.222323 0.177939
521 4 0.445257 0.200038 0.255249
2682 4 0.502611 0.206085 0.244488
520 2 0.467144 0.210953 0.250052
703 2 0.0166713 0.325571 0.21136
704 4 0.0137946 0.312594 0.190183
705 4 0.019548 0.338549 0.232538
443 4 0.0815091 0.276192 0.247206
396 4 0.0868547 0.281978 0.228303
394 2 0.101748 0.273372 0.210156
395 4 0.116642 0.264766 0.19201
363 4 0.126781 0.267158 0.17521
361 2 0.151652 0.265876 0.177432
362 4 0.176524 0.264595 0.179654
372 4 0.17837 0.251471 0.194428
370 2 0.183127 0.253697 0.218874
371 4 0.187885 0.255923 0.243319
284 4 0.271133 0.260657 0.210037
343 2 0.291089 0.319364 0.227937
345 4 0.288421 0.328758 0.20492
623 4 0.428685 0.258486 0.169945
527 4 0.432459 0.254311 0.188876
526 2 0.450297 0.27037 0.195884
528 4 0.468135 0.286429 0.202892
300 4 0.118228 0.383197 0.175911
298 2 0.127376 0.39709 0.194578
299 4 0.136524 0.410983 0.213246
750 4 0.0925035 0.382159 0.25714
537 4 0.165861 0.33022 0.167702
13 3 0.422413 0.372442 0.17349
643 2 0.452364 0.373831 0.200985
644 4 0.463835 0.384268 0.220598
645 4 0.440893 0.363393 0.181373
447 4 0.462269 0.404117 0.217216
263 4 0.0489507 0.454029 0.216865
262 2 0.0515797 0.441019 0.195675
264 4 0.0542088 0.428009 0.174485
638 4 0.241444 0.450184 0.158792
290 4 0.20935 0.425161 0.220726
417 4 0.164256 0.473046 0.196304
1430 4 0.159291 0.49169 0.190854
416 4 0.193369 0.437966 0.21686
415 2 0.178812 0.455506 0.206582
289 2 0.218278 0.435028 0.241894
766 2 0.225806 0.487621 0.210464
768 4 0.203267 0.493025 0.201083
767 4 0.248344 0.482217 0.219844
303 4 0.353919 0.439253 0.170516
659 4 0.341321 0.446748 0.183521
660 4 0.337822 0.484123 0.21656
658 2 0.339571 0.465436 0.20004
713 4 0.382459 0.46614 0.248224
712 2 0.40677 0.460302 0.248438
445 2 0.451318 0.420222 0.232896
446 4 0.440366 0.436328 0.248576
714 4 0.431082 0.454464 0.248653
232 2 0.0295414 0.0341631 0.301002
234 4 0.0191428 0.0548148 0.291486
317 4 0.0298989 0.0688947 0.284178
233 4 0.03994 0.0135113 0.310518
673 2 0.133049 0.0334923 0.264001
675 4 0.116313 0.0363828 0.282352
1406 4 0.22182 0.00441282 0.32596
723 4 0.242517 0.0783907 0.268014
249 4 0.295925 0.0751921 0.332604
1518 4 0.359576 0.00671944 0.306633
697 2 0.374837 0.0395043 0.289431
699 4 0.372454 0.0228233 0.307904
698 4 0.377221 0.0561853 0.270958
22 3 0.375621 0.0522556 0.241009
333 4 0.385637 0.0652135 0.255101
331 2 0.406177 0.0753291 0.265148
744 4 0.477719 0.00333245 0.28812
743 4 0.480303 0.0489126 0.267712
742 2 0.479011 0.0261225 0.277916
351 4 0.482083 0.0675151 0.275978
1749 4 0.473767 0.0107038 0.337935
316 2 0.0394832 0.0914901 0.28895
318 4 0.0490675 0.114085 0.293721
399 4 0.148223 0.141714 0.326102
545 4 0.183929 0.164751 0.276574
722 4 0.211996 0.114526 0.251784
721 2 0.227256 0.0964581 0.259899
544 2 0.189866 0.145005 0.262432
599 4 0.223878 0.148554 0.295612
404 4 0.241142 0.155425 0.305379
598 2 0.210971 0.13704 0.313669
349 2 0.461926 0.0820757 0.273357
332 4 0.426717 0.0854447 0.275196
350 4 0.441769 0.0966363 0.270737
762 4 0.422054 0.126032 0.318017
760 2 0.426544 0.129639 0.293686
761 4 0.431034 0.133245 0.269355
257 4 0.46407 0.0952083 0.333331
529 2 0.0214897 0.191367 0.252688
530 4 0.0392865 0.196467 0.269494
393 4 0.148006 0.161699 0.325122
391 2 0.157712 0.168344 0.303058
392 4 0.167418 0.174989 0.280994
403 2 0.245641 0.179618 0.300947
401 4 0.232555 0.206313 0.286731
400 2 0.215617 0.224482 0.289592
402 4 0.198679 0.24265 0.292453
405 4 0.250141 0.203811 0.296516
765 4 0.385944 0.181225 0.272071
763 2 0.405944 0.19406 0.264295
522 4 0.489031 0.221867 0.244854
764 4 0.425944 0.206894 0.256518
442 2 0.0680157 0.291438 0.261721
444 4 0.0545223 0.306684 0.276235
390 4 0.0908719 0.284662 0.324989
344 4 0.293756 0.309969 0.250955
309 4 0.308257 0.320236 0.260164
307 2 0.310983 0.330282 0.282898
615 4 0.420128 0.328224 0.298133
541 2 0.453822 0.312821 0.301049
542 4 0.477887 0.313603 0.294311
543 4 0.429756 0.312039 0.307788
748 2 0.0748408 0.366159 0.264704
749 4 0.057178 0.350159 0.272268
365 4 0.0197125 0.388726 0.312636
364 2 0.0300707 0.371991 0.297215
366 4 0.0404288 0.355255 0.281793
2493 4 0.999949 0.38225 0.31015
734 4 0.112084 0.381018 0.256247
733 2 0.130387 0.365056 0.262195
735 4 0.14869 0.349094 0.268143
678 4 0.16108 0.342246 0.331938
676 2 0.15583 0.34992 0.308728
601 2 0.107256 0.401371 0.325387
603 4 0.110055 0.377214 0.331201
677 4 0.150581 0.357593 0.285517
497 4 0.327704 0.351992 0.320858
308 4 0.313709 0.340327 0.305632
729 4 0.321504 0.362339 0.298104
727 2 0.31626 0.383633 0.310113
728 4 0.311015 0.404928 0.322123
614 4 0.400494 0.364347 0.3266
613 2 0.410311 0.346285 0.312366
434 4 0.332994 0.410825 0.318628
118 3 0.499359 0.390383 0.316689
549 4 0.0193967 0.407677 0.321723
602 4 0.104456 0.425528 0.319574
777 4 0.12141 0.425491 0.307918
1757 4 0.103431 0.469344 0.259106
1756 2 0.0901853 0.488355 0.268503
776 4 0.107196 0.462665 0.277639
775 2 0.114303 0.444078 0.292779
291 4 0.227205 0.444894 0.263063
1545 4 0.1955 0.478041 0.314274
414 4 0.216977 0.461451 0.262774
413 4 0.1863 0.482164 0.296399
412 2 0.201638 0.471807 0.279587
1543 2 0.179816 0.490651 0.329113
438 4 0.327346 0.47701 0.275219
1435 2 0.249731 0.468522 0.315733
437 4 0.294039 0.454345 0.304843
436 2 0.310693 0.465677 0.290031
1437 4 0.272537 0.459612 0.310668
5 3 0.285229 0.446828 0.323464
2862 4 0.489978 0.443661 0.295759
120 3 0.492462 0.424998 0.303579
2861 4 0.46626 0.455185 0.253269
2860 2 0.478119 0.449423 0.274514
2584 2 0.00872613 0.0640154 0.410343
606 4 0.137982 0.0251108 0.384186
731 4 0.104084 0.0532478 0.374709
428 4 0.086566 0.0436206 0.374799
427 2 0.0853022 0.0188867 0.378236
730 2 0.118535 0.0715968 0.365784
604 2 0.152452 0.0182811 0.364973
605 4 0.166922 0.0114514 0.345759
682 2 0.211522 0.0473684 0.395796
684 4 0.200856 0.0360654 0.376209
683 4 0.222187 0.0586714 0.415384
247 2 0.310377 0.0826956 0.351579
439 2 0.260238 0.0107774 0.409409
248 4 0.324828 0.090199 0.370553
425 4 0.396113 0.0303072 0.372076
424 2 0.416323 0.0444489 0.367983
480 4 0.490971 0.0201547 0.340114
256 2 0.458361 0.0735495 0.344443
426 4 0.436533 0.0585905 0.36389
258 4 0.452652 0.0518906 0.355555
397 2 0.140325 0.126052 0.34392
732 4 0.132986 0.0899458 0.356859
398 4 0.132427 0.11039 0.361738
600 4 0.198064 0.125526 0.331725
686 4 0.185932 0.141348 0.392443
685 2 0.189887 0.141289 0.367755
687 4 0.193843 0.14123 0.343066
321 4 0.267542 0.11586 0.378101
319 2 0.265787 0.112055 0.402751
633 4 0.341964 0.097467 0.375848
632 4 0.378071 0.121689 0.351144
631 2 0.360018 0.109578 0.363496
453 4 0.489871 0.163645 0.405925
515 4 0.477446 0.159511 0.420651
514 2 0.453673 0.167188 0.419603
2654 4 0.0245292 0.228446 0.360065
274 2 0.14716 0.227986 0.345267
276 4 0.137273 0.247239 0.357786
275 4 0.157048 0.208732 0.332748
474 4 0.175944 0.209126 0.340413
472 2 0.200465 0.213523 0.342551
473 4 0.224986 0.21792 0.344689
708 4 0.230584 0.205636 0.3586
706 2 0.244749 0.194399 0.375871
707 4 0.258914 0.183162 0.393141
418 2 0.415587 0.185309 0.366623
419 4 0.403186 0.205641 0.359009
716 4 0.386373 0.2164 0.362705
715 2 0.366514 0.231582 0.363262
420 4 0.427988 0.164976 0.374236
269 4 0.456261 0.246809 0.368173
617 4 0.0620609 0.262598 0.387528
347 4 0.0221092 0.290916 0.409336
618 4 0.0172124 0.284463 0.39088
616 2 0.0396367 0.273531 0.389204
388 2 0.107511 0.273822 0.340181
389 4 0.12415 0.262981 0.355373
374 4 0.226496 0.322731 0.358651
510 4 0.246206 0.317222 0.358022
508 2 0.263277 0.298962 0.357472
509 4 0.280349 0.280701 0.356923
488 4 0.320724 0.270239 0.402492
498 4 0.322713 0.316389 0.355617
487 2 0.302782 0.264566 0.418957
496 2 0.325208 0.33419 0.338238
489 4 0.284841 0.258894 0.435422
651 4 0.270906 0.246393 0.42751
717 4 0.346656 0.246764 0.36382
377 4 0.33259 0.257242 0.374314
376 2 0.333042 0.278996 0.361996
378 4 0.333495 0.30075 0.349678
270 4 0.499795 0.262857 0.386828
268 2 0.478028 0.254833 0.3775
306 4 0.500937 0.256761 0.405275
548 4 0.0497679 0.408853 0.361434
709 2 0.16212 0.406804 0.420313
502 2 0.209301 0.403347 0.392574
504 4 0.211571 0.381898 0.379926
373 2 0.226451 0.346678 0.365842
375 4 0.226407 0.370625 0.373033
3 3 0.287008 0.414383 0.342485
561 4 0.474489 0.409229 0.399116
547 2 0.0345823 0.408265 0.341579
407 4 0.0501047 0.420516 0.379883
406 2 0.0634161 0.430916 0.398317
408 4 0.0767275 0.441317 0.416751
710 4 0.155092 0.429721 0.413202
1544 4 0.164133 0.50326 0.343952
1436 4 0.226924 0.477431 0.320799
503 4 0.20703 0.424796 0.405222
636 4 0.209715 0.444668 0.405255
2 3 0.316094 0.425924 0.321665
1 1 0.298905 0.432943 0.335245
668 4 0.3201 0.449755 0.368575
4 3 0.30785 0.444213 0.353449
667 2 0.337804 0.44343 0.38506
433 2 0.356348 0.419666 0.319888
435 4 0.379702 0.428508 0.321147
587 4 0.406817 0.50789 0.413722
669 4 0.355508 0.437106 0.401545
336 4 0.364512 0.424004 0.414131
119 3 0.493681 0.419234 0.340767
752 4 0.47286 0.43152 0.396998
593 4 0.460445 0.472293 0.348554
751 2 0.487293 0.42993 0.376643
592 2 0.449301 0.485971 0.366271
718 2 0.0593238 0.0405712 0.486725
2586 4 0.022509 0.068059 0.430809
719 4 0.0770483 0.0454146 0.469768
368 4 0.105098 0.0384668 0.418287
367 2 0.111468 0.0352529 0.442251
369 4 0.117838 0.0320389 0.466215
2430 4 0.206153 0.0309415 0.461516
2428 2 0.229463 0.0290412 0.452672
341 4 0.234302 0.0681292 0.502445
340 2 0.21403 0.0803693 0.494421
2429 4 0.252773 0.0271408 0.443827
1182 4 0.251318 0.0648828 0.492643
441 4 0.266946 0.023101 0.430105
1180 2 0.274319 0.0564627 0.497665
432 4 0.317707 0.0844473 0.478574
2878 2 0.490179 0.0563425 0.414176
2880 4 0.472314 0.0711693 0.42346
642 4 0.459154 0.0742409 0.438586
458 4 0.995107 0.132321 0.46947
342 4 0.193757 0.0926095 0.486398
1152 4 0.18318 0.0977175 0.502024
467 4 0.32987 0.13372 0.417824
726 4 0.310297 0.089585 0.460357
724 2 0.287261 0.0920045 0.450939
725 4 0.264226 0.0944241 0.441521
320 4 0.264031 0.10825 0.427401
430 2 0.334878 0.0881278 0.496373
466 2 0.341788 0.130761 0.439604
468 4 0.353706 0.127802 0.461385
641 4 0.475971 0.108463 0.47094
640 2 0.467563 0.0913518 0.454763
3158 4 0.48084 0.126701 0.480432
3157 2 0.47624 0.14803 0.468221
469 2 0.0347627 0.227083 0.46144
470 4 0.0131528 0.222171 0.449862
471 4 0.0563727 0.231996 0.473018
261 4 0.133826 0.193696 0.477752
260 4 0.0935458 0.216026 0.45827
259 2 0.113686 0.204861 0.468011
938 4 0.140695 0.175651 0.472357
410 4 0.247464 0.172866 0.49196
411 4 0.246973 0.205406 0.453991
409 2 0.247218 0.189136 0.472976
650 4 0.234218 0.214952 0.440401
649 2 0.252562 0.230672 0.433956
576 4 0.403934 0.178613 0.483682
585 4 0.403331 0.249698 0.427036
575 4 0.423808 0.17767 0.437803
516 4 0.4299 0.174865 0.418555
3159 4 0.471641 0.169359 0.45601
574 2 0.413871 0.178141 0.460743
2814 4 0.0210936 0.322056 0.456091
348 4 0.0199729 0.330981 0.439185
346 2 0.0210411 0.310948 0.424261
695 4 0.121434 0.311862 0.469744
694 2 0.125735 0.291167 0.483101
696 4 0.130035 0.270472 0.496458
267 4 0.345379 0.2884 0.424971
265 2 0.365552 0.273641 0.424307
266 4 0.385724 0.258883 0.423643
583 2 0.425102 0.252831 0.438928
2457 4 0.470337 0.310522 0.472404
2455 2 0.464001 0.286465 0.469896
2456 4 0.457664 0.262408 0.467387
584 4 0.446872 0.255964 0.45082
2812 2 0.0220968 0.342722 0.470129
326 4 0.0896249 0.405727 0.432498
10 3 0.162605 0.348522 0.470382
7 3 0.129142 0.361828 0.46058
327 4 0.111042 0.369425 0.459408
325 2 0.100333 0.387576 0.445953
6 1 0.151281 0.367163 0.463829
9 3 0.15273 0.383489 0.480253
711 4 0.169149 0.383886 0.427424
8 3 0.16007 0.37517 0.443903
804 4 0.285622 0.388272 0.497133
334 2 0.367609 0.399474 0.417857
335 4 0.370706 0.374944 0.421582
238 2 0.370332 0.35602 0.460279
240 4 0.372493 0.361307 0.435936
239 4 0.36817 0.350733 0.484621
2508 4 0.481898 0.368182 0.449217
559 2 0.472619 0.397318 0.421021
560 4 0.470748 0.385407 0.442925
680 4 0.013978 0.468579 0.470789
679 2 0.00972352 0.481813 0.450006
382 2 0.120696 0.425102 0.501201
570 4 0.144235 0.440185 0.426687
568 2 0.132898 0.445624 0.448299
569 4 0.121561 0.451063 0.469911
384 4 0.127413 0.434012 0.478825
772 2 0.213031 0.453042 0.482967
634 2 0.212442 0.456155 0.427295
635 4 0.215169 0.467642 0.449336
773 4 0.219424 0.435645 0.49975
774 4 0.206638 0.470438 0.466184
588 4 0.378011 0.469537 0.427863
1399 2 0.366803 0.470202 0.465493
1400 4 0.371047 0.458437 0.443842
586 2 0.392414 0.488713 0.420792
1401 4 0.362558 0.481968 0.487143
2712 4 0.491064 0.413971 0.461977
1126 2 0.015003 0.0547537 0.531011
1127 4 0.0333125 0.0431208 0.518576
720 4 0.0415994 0.0357278 0.503683
1128 4 0.996693 0.0663867 0.543445
1059 4 0.115794 0.0734914 0.571415
951 4 0.210178 0.0605273 0.569784
1031 4 0.218311 0.0434156 0.562411
1030 2 0.242878 0.0480197 0.563076
949 2 0.186719 0.0624013 0.578231
961 2 0.290702 0.0137933 0.529794
963 4 0.29493 0.0297763 0.511036
1032 4 0.267445 0.0526238 0.563741
2194 2 0.294481 0.0166107 0.585184
2195 4 0.286997 0.0120966 0.561758
1181 4 0.29732 0.0480426 0.502688
841 2 0.367605 0.071138 0.538096
843 4 0.346038 0.0745531 0.525914
842 4 0.389171 0.0677228 0.550279
1217 4 0.408026 0.0737749 0.544998
4466 4 0.454753 0.0195456 0.560187
1062 4 0.468504 0.00895391 0.570845
1218 4 0.453517 0.0673001 0.525265
1216 2 0.430772 0.0705375 0.535132
4465 2 0.444074 0.0331662 0.578231
1033 2 0.061959 0.150841 0.506972
1035 4 0.0597519 0.126335 0.511418
939 4 0.14223 0.145734 0.512399
1151 4 0.145022 0.126391 0.51694
1155 4 0.124667 0.0912276 0.575645
1150 2 0.164101 0.112054 0.509482
857 4 0.281415 0.153236 0.549383
431 4 0.352048 0.0918083 0.514172
1199 4 0.0225451 0.17329 0.564235
1034 4 0.0641661 0.175347 0.502527
878 4 0.0845688 0.250789 0.560917
877 2 0.081048 0.230518 0.575125
937 2 0.141462 0.160692 0.492378
899 4 0.29986 0.161319 0.556704
898 2 0.317998 0.177767 0.551635
856 2 0.264042 0.170946 0.552495
858 4 0.246668 0.188656 0.555606
900 4 0.336135 0.194215 0.546567
871 2 0.346288 0.226999 0.554065
872 4 0.351348 0.20278 0.557671
873 4 0.341228 0.251218 0.550458
1258 2 0.158412 0.263715 0.523733
1260 4 0.134941 0.26452 0.515151
1259 4 0.181883 0.26291 0.532316
812 4 0.304316 0.289651 0.534907
811 2 0.318668 0.27639 0.550507
813 4 0.333019 0.263129 0.566107
905 4 0.47991 0.265436 0.585872
1137 4 0.135598 0.357997 0.557796
383 4 0.11398 0.416192 0.523577
897 4 0.154995 0.363123 0.5578
1135 2 0.120216 0.361796 0.577139
895 2 0.179458 0.362304 0.562903
1189 2 0.228621 0.355597 0.535382
896 4 0.203922 0.361485 0.568006
1191 4 0.21298 0.349264 0.553833
1190 4 0.244262 0.361931 0.516931
1239 4 0.267408 0.350981 0.57961
803 4 0.259553 0.348692 0.513087
1173 4 0.261937 0.401459 0.579672
802 2 0.272588 0.368482 0.50511
1171 2 0.273431 0.419412 0.566604
928 2 0.386557 0.379623 0.559828
929 4 0.365938 0.386495 0.547465
1206 4 0.400502 0.354291 0.567209
925 2 0.473397 0.393129 0.536056
926 4 0.476902 0.416505 0.544209
927 4 0.469892 0.369753 0.527903
1001 4 0.471451 0.418454 0.563123
538 2 0.0498978 0.471623 0.5319
540 4 0.0382007 0.449673 0.529339
539 4 0.0615948 0.493573 0.53446
1160 4 0.197569 0.440805 0.571896
1159 2 0.19045 0.459759 0.586567
1172 4 0.284925 0.437365 0.553537
882 4 0.271252 0.45094 0.547316
880 2 0.285799 0.466772 0.534552
881 4 0.300347 0.482603 0.521788
1454 4 0.306173 0.496422 0.506063
1000 2 0.462988 0.43965 0.573337
1910 4 0.459767 0.479529 0.590356
1909 2 0.449332 0.501159 0.583398
663 4 0.483023 0.434318 0.537129
661 2 0.499608 0.451077 0.528806
1185 4 0.0235707 0.0353372 0.649105
945 4 0.0357185 0.0253559 0.66159
1183 2 0.003359 0.0481517 0.641862
943 2 0.05663 0.0389179 0.663581
1058 4 0.0912145 0.0346424 0.591096
1057 2 0.103504 0.0540669 0.581256
825 4 0.10518 0.0210491 0.597883
823 2 0.118031 0.0018195 0.607383
950 4 0.163261 0.0642753 0.586679
1004 4 0.33738 0.040377 0.632666
1003 2 0.343388 0.0512973 0.654342
4467 4 0.433395 0.0467869 0.596276
2283 4 0.41796 0.0585929 0.60192
2282 4 0.437197 0.0662116 0.647446
2281 2 0.427578 0.0624022 0.624683
43 3 0.445671 0.0481128 0.656688
45 3 0.480135 0.045624 0.641731
810 4 0.494871 0.0508528 0.629529
41 1 0.46829 0.0520015 0.660107
1082 4 0.0569012 0.168487 0.609451
1081 2 0.034163 0.160799 0.616455
1083 4 0.0114247 0.153111 0.623458
1153 2 0.141152 0.105786 0.587539
1154 4 0.157638 0.120344 0.599433
1221 4 0.177045 0.120769 0.605596
1219 2 0.19518 0.120768 0.62281
1220 4 0.213315 0.120767 0.640023
1212 4 0.224371 0.135738 0.632533
1210 2 0.244535 0.135589 0.647317
1142 4 0.338337 0.175946 0.65081
44 3 0.471893 0.0745126 0.664428
879 4 0.0775273 0.210247 0.589333
1272 4 0.0943174 0.212387 0.599449
1270 2 0.108096 0.201945 0.617513
1271 4 0.121875 0.191504 0.635577
909 4 0.139589 0.199934 0.639103
907 2 0.161252 0.211905 0.642652
908 4 0.182914 0.223877 0.646201
947 4 0.194942 0.237271 0.635656
946 2 0.203536 0.234351 0.612357
948 4 0.212129 0.231431 0.589059
798 4 0.279563 0.242805 0.575094
796 2 0.267358 0.22107 0.573134
797 4 0.255154 0.199335 0.571174
1141 2 0.361809 0.183179 0.646131
1143 4 0.385282 0.190412 0.641451
1025 4 0.400305 0.187248 0.628634
1024 2 0.416587 0.173967 0.642187
1026 4 0.43287 0.160686 0.65574
904 2 0.49116 0.243863 0.580109
1243 2 0.0347333 0.307754 0.660764
1238 4 0.250306 0.30687 0.59581
1237 2 0.258857 0.328925 0.58771
792 4 0.256552 0.288942 0.604169
791 4 0.246662 0.270322 0.649515
790 2 0.251607 0.279632 0.626842
953 4 0.466891 0.279518 0.58097
952 2 0.453982 0.297811 0.592101
954 4 0.441072 0.316103 0.603232
3121 2 0.49561 0.266222 0.649984
3123 4 0.498525 0.285695 0.634574
1205 4 0.426579 0.318237 0.590029
1244 4 0.0536354 0.316055 0.646657
983 4 0.0205342 0.374034 0.644993
1039 2 0.0588733 0.389064 0.639369
1041 4 0.0395093 0.373408 0.637107
982 2 0.998036 0.381601 0.637135
1040 4 0.0782374 0.404719 0.641631
1136 4 0.104834 0.365596 0.596481
993 4 0.09702 0.410486 0.635057
930 4 0.407175 0.372751 0.572191
1204 2 0.41354 0.336264 0.578619
991 2 0.119388 0.421452 0.637201
992 4 0.141756 0.432418 0.639345
2172 4 0.125002 0.470097 0.642304
2243 4 0.184511 0.497631 0.594342
1161 4 0.183331 0.478712 0.601239
891 4 0.314063 0.472501 0.60089
1952 4 0.311366 0.491101 0.595154
1187 4 0.283804 0.508448 0.616521
890 4 0.313541 0.422742 0.595944
889 2 0.313802 0.447622 0.598417
1002 4 0.454526 0.460845 0.583551
2319 4 0.0195238 0.0271167 0.704561
1075 2 0.0400792 0.0353601 0.740325
1076 4 0.0312404 0.0231336 0.720386
944 4 0.0775415 0.0524799 0.665571
1256 4 0.314583 0.0738286 0.767771
1005 4 0.349395 0.0622176 0.676017
1163 4 0.490854 0.050034 0.686203
42 3 0.475284 0.0397313 0.678264
1283 4 0.178768 0.105104 0.665418
1282 2 0.193207 0.105565 0.685827
1284 4 0.207645 0.106026 0.706235
1227 4 0.21239 0.123885 0.714489
1225 2 0.214073 0.140924 0.73271
1226 4 0.215756 0.157963 0.750931
888 4 0.268049 0.127727 0.681587
1211 4 0.264699 0.13544 0.662102
886 2 0.292566 0.132299 0.683373
887 4 0.317083 0.13687 0.68516
830 4 0.317643 0.138153 0.705635
829 2 0.333319 0.154821 0.715715
1146 4 0.480284 0.135914 0.72781
1144 2 0.47545 0.153233 0.710435
3270 4 0.487964 0.147603 0.742378
1209 4 0.0619581 0.243668 0.659934
1105 2 0.0553098 0.191826 0.735818
1107 4 0.0354446 0.197317 0.721661
851 4 0.0304274 0.201514 0.702241
850 2 0.0151875 0.220698 0.70723
1106 4 0.075175 0.186336 0.749974
822 4 0.149263 0.233821 0.716119
820 2 0.13434 0.253788 0.718062
1278 4 0.140972 0.216132 0.719544
1276 2 0.149641 0.207912 0.741509
916 2 0.287786 0.243226 0.736799
831 4 0.348995 0.171489 0.725795
1192 2 0.390459 0.228098 0.713498
1194 4 0.406922 0.212165 0.72351
1262 4 0.416664 0.209521 0.705578
1261 2 0.434132 0.192778 0.699275
1263 4 0.4516 0.176035 0.692971
1145 4 0.470616 0.170551 0.693061
1245 4 0.0158313 0.299453 0.67487
1207 2 0.0678257 0.25719 0.680131
1179 4 0.00758968 0.286478 0.662311
1208 4 0.0736933 0.270713 0.700327
1177 2 0.00515815 0.267269 0.678131
1178 4 0.00272663 0.248059 0.693951
821 4 0.119417 0.273756 0.720004
1064 4 0.195993 0.2798 0.723774
1063 2 0.203409 0.267059 0.703579
1065 4 0.210824 0.254318 0.683384
917 4 0.267293 0.257303 0.734143
1097 4 0.27043 0.274123 0.743863
1193 4 0.373995 0.244032 0.703486
806 4 0.441489 0.274987 0.717864
805 2 0.428898 0.296588 0.717844
807 4 0.416306 0.31819 0.717825
3122 4 0.492694 0.246749 0.665395
3275 4 0.0495548 0.416111 0.75351
894 4 0.0713307 0.383038 0.684225
892 2 0.0742589 0.406666 0.691864
941 4 0.159782 0.399949 0.708859
1067 4 0.169235 0.416993 0.703166
1066 2 0.191028 0.407285 0.695685
1068 4 0.212822 0.397577 0.688203
1028 4 0.224372 0.411217 0.678867
1027 2 0.247691 0.413971 0.68746
1140 4 0.311981 0.395502 0.734534
1029 4 0.271009 0.416725 0.696052
1138 2 0.300335 0.410285 0.718072
1018 2 0.410053 0.349303 0.745411
1020 4 0.417436 0.338543 0.724083
3330 4 0.488383 0.417191 0.69537
3328 2 0.470757 0.421034 0.712683
1280 4 0.0420326 0.422202 0.735181
2020 2 0.0641637 0.496351 0.731528
1281 4 0.0454558 0.468301 0.716105
1279 2 0.0437442 0.445251 0.725643
2021 4 0.0468538 0.478505 0.734188
940 2 0.145544 0.411748 0.725689
893 4 0.0771871 0.430293 0.699503
942 4 0.131305 0.423546 0.742519
1139 4 0.288688 0.425068 0.70161
1989 4 0.322303 0.456498 0.741554
1229 4 0.340382 0.449906 0.735805
1228 2 0.351563 0.428944 0.7436
1230 4 0.362743 0.407982 0.751395
1100 4 0.508356 0.493412 0.755333
3329 4 0.453131 0.424877 0.729996
1077 4 0.048918 0.0475865 0.760264
1203 4 0.0625865 0.057702 0.769491
864 4 0.0367768 0.0868381 0.810222
1201 2 0.0841383 0.0450639 0.768503
1202 4 0.10569 0.0324258 0.767515
2049 4 0.11946 0.0207228 0.760298
1148 4 0.197656 0.0294067 0.759588
1147 2 0.214563 0.0333702 0.777578
1149 4 0.23147 0.0373336 0.795568
1049 4 0.258502 0.0203577 0.82582
1048 2 0.28187 0.0170764 0.817554
1255 2 0.290484 0.0673172 0.769182
1257 4 0.266384 0.0608058 0.770594
1050 4 0.305239 0.0137951 0.809288
1112 4 0.415287 0.0163311 0.81128
846 4 0.467109 0.0488784 0.782498
1113 4 0.451791 0.0367386 0.783862
1111 2 0.433539 0.0265348 0.797571
844 2 0.492057 0.049385 0.780924
911 4 0.0511647 0.0877113 0.824013
862 2 0.0218432 0.100148 0.795222
832 2 0.0170648 0.156279 0.771223
863 4 0.00690961 0.113458 0.780222
833 4 0.00725703 0.133289 0.771908
33 3 0.0652912 0.161822 0.791666