ITEM: TIMESTEP
3270000
ITEM: NUMBER OF ATOMS
4590
ITEM: BOX BOUNDS pp pp pp
-9.9985700000000008e+00 9.9985700000000008e+00
-9.9985700000000008e+00 9.9985700000000008e+00
-9.9985700000000008e+00 9.9985700000000008e+00
ITEM: ATOMS id type xs ys zs
1666 2 0.0665925 0.0556125 0.0769757
701 4 0.0213381 0.0773334 0.00481858
1668 4 0.0783067 0.0547997 0.0549009
3290 4 0.0895928 0.0605301 0.0392806
3289 2 0.0991803 0.0425934 0.0247363
3291 4 0.108768 0.0246568 0.010192
566 4 0.115688 0.00648819 0.00404013
565 2 0.139858 0.0029955 0.00940653
2183 4 0.105977 0.00465211 0.985799
490 2 0.299635 0.0153016 0.060492
491 4 0.307557 0.0299146 0.0418133
492 4 0.291714 0.000688682 0.0791706
700 2 0.0231121 0.100409 0.995355
702 4 0.024886 0.123484 0.985892
460 2 0.29393 0.168852 0.0592546
150 3 0.470127 0.117968 0.999471
423 4 0.0796624 0.170555 0.00078087
505 2 0.147225 0.234889 0.050076
506 4 0.16492 0.217622 0.0538071
737 4 0.168383 0.199165 0.0532165
736 2 0.192785 0.194021 0.051406
738 4 0.217187 0.188878 0.0495954
354 4 0.224789 0.180848 0.0308988
352 2 0.249273 0.185919 0.0310423
461 4 0.289401 0.181457 0.0381413
353 4 0.273756 0.19099 0.0311859
665 4 0.361777 0.192993 0.00915936
664 2 0.341299 0.180445 0.00220476
3339 4 0.0321772 0.275847 0.988926
2807 4 0.0252707 0.273337 0.00776522
2806 2 0.0136364 0.259171 0.0247696
915 4 0.116077 0.241809 0.0144663
293 4 0.11909 0.267542 0.0527511
507 4 0.12953 0.252156 0.0463449
287 4 0.161045 0.281123 0.0292984
286 2 0.156104 0.304735 0.0227211
292 2 0.113128 0.288465 0.0650735
288 4 0.151164 0.328347 0.0161439
294 4 0.107166 0.309388 0.077396
456 4 0.0962005 0.31991 0.0907511
356 4 0.251945 0.253356 0.0179276
483 4 0.254293 0.274186 0.0187456
612 4 0.261988 0.303372 0.0437277
610 2 0.259332 0.295039 0.0671516
609 4 0.260879 0.323306 0.0518033
482 4 0.301727 0.284448 0.00668709
481 2 0.27801 0.279317 0.0127163
571 2 0.332691 0.287553 0.00262708
572 4 0.311584 0.300855 0.000967288
573 4 0.353797 0.274251 0.00428687
990 4 0.153301 0.349484 0.0163506
988 2 0.165206 0.369264 0.0259518
1289 4 0.188331 0.400498 0.024405
989 4 0.177112 0.389044 0.035553
1288 2 0.204008 0.405889 0.00568797
607 2 0.268867 0.346849 0.0491394
250 2 0.293849 0.395075 0.0678702
252 4 0.282936 0.372711 0.0654283
608 4 0.276855 0.370392 0.0464755
740 4 0.337508 0.3337 0.0734812
741 4 0.372639 0.338869 0.0382703
739 2 0.355073 0.336284 0.0558757
226 2 0.395075 0.406792 0.0319634
227 4 0.407199 0.390032 0.0179171
1305 4 0.416087 0.378193 0.00497165
1303 2 0.406683 0.358711 0.992435
1046 4 0.495064 0.355375 0.0034413
1045 2 0.497644 0.357082 0.0282528
280 2 0.466323 0.351265 0.0755126
282 4 0.490223 0.357633 0.0718518
281 4 0.442422 0.344897 0.0791733
552 4 0.00431501 0.478224 0.0653492
550 2 0.0138148 0.487497 0.0441608
313 2 0.0258146 0.44205 0.0742914
314 4 0.0187123 0.46559 0.069753
1788 4 0.135043 0.49949 0.039331
1786 2 0.155328 0.484963 0.0376971
1767 4 0.119019 0.4926 0.0476879
243 4 0.218993 0.425874 0.0565312
1440 4 0.223809 0.416336 0.0737771
241 2 0.203549 0.445188 0.052837
242 4 0.188105 0.464501 0.0491427
1787 4 0.175612 0.470436 0.0360633
251 4 0.304762 0.417438 0.0703121
524 4 0.319587 0.430243 0.0662189
271 2 0.295472 0.482237 0.0659829
272 4 0.300175 0.459927 0.0762454
228 4 0.382951 0.423552 0.0460097
525 4 0.364454 0.432538 0.0442548
523 2 0.342021 0.431391 0.0552368
1583 4 0.475933 0.479326 0.0336405
1582 2 0.470325 0.492761 0.0539688
1667 4 0.0548783 0.0564253 0.0990505
16 1 0.034605 0.0509513 0.123504
19 3 0.0204657 0.0615198 0.138564
17 3 0.0369812 0.0642917 0.104916
20 3 0.0257479 0.0309161 0.117276
18 3 0.0554648 0.0477326 0.133143
2480 4 0.0124863 0.0794851 0.151245
1422 4 0.000117009 0.0599315 0.145518
652 2 0.26553 0.0660854 0.150005
654 4 0.273246 0.0551496 0.128886
1476 4 0.292258 0.0531718 0.12642
1474 2 0.302292 0.0575465 0.10394
486 4 0.327321 0.0153221 0.137995
297 4 0.379687 0.0423539 0.115637
295 2 0.402071 0.0518062 0.121535
484 2 0.347513 0.0211223 0.124437
485 4 0.367705 0.0269225 0.110879
296 4 0.424456 0.0612585 0.127432
747 4 0.507307 0.0163646 0.083934
745 2 0.491632 0.0315952 0.0960782
746 4 0.475956 0.0468259 0.108222
557 4 0.428179 0.0723376 0.110893
450 4 0.0795579 0.112111 0.100688
236 4 0.137046 0.120982 0.127344
449 4 0.119067 0.128407 0.126653
448 2 0.0993124 0.120259 0.11367
235 2 0.143129 0.13423 0.147658
237 4 0.149213 0.147479 0.167972
462 4 0.29846 0.156247 0.0803679
1475 4 0.312327 0.0619213 0.0814596
29 3 0.251046 0.16576 0.133268
28 3 0.255466 0.13726 0.158019
580 2 0.30647 0.116889 0.136566
581 4 0.283379 0.125806 0.140092
30 3 0.282698 0.145368 0.133314
26 1 0.266278 0.154187 0.1464
27 3 0.275652 0.168771 0.161519
582 4 0.329562 0.107972 0.13304
758 4 0.342717 0.0974325 0.144942
757 2 0.354205 0.0991342 0.167085
556 2 0.448475 0.0857902 0.116575
558 4 0.468771 0.0992428 0.122256
771 4 0.470774 0.110586 0.137702
769 2 0.470664 0.122715 0.159566
477 4 0.232836 0.174668 0.127045
371 4 0.208635 0.219178 0.153289
476 4 0.207203 0.217263 0.132459
475 2 0.22002 0.195965 0.129752
756 4 0.352488 0.239389 0.125304
754 2 0.347795 0.230014 0.148003
255 4 0.35619 0.249857 0.109048
253 2 0.379226 0.253764 0.100148
624 4 0.446949 0.227448 0.159829
629 4 0.441654 0.23486 0.141875
628 2 0.429222 0.242709 0.121651
338 4 0.0917776 0.254843 0.169751
611 4 0.256676 0.286705 0.0905754
279 4 0.27544 0.283972 0.156838
277 2 0.2687 0.287268 0.132986
278 4 0.26196 0.290563 0.109135
285 4 0.281337 0.271499 0.171123
254 4 0.402263 0.257672 0.0912481
630 4 0.41679 0.250559 0.101427
619 2 0.0372297 0.369125 0.140061
620 4 0.0261415 0.387725 0.12756
621 4 0.0483179 0.350526 0.152563
315 4 0.0329168 0.41851 0.0788299
454 2 0.116 0.335089 0.0924015
455 4 0.1358 0.350269 0.0940519
537 4 0.127936 0.386091 0.145926
535 2 0.133362 0.377582 0.123049
536 4 0.138788 0.369073 0.100173
625 2 0.206785 0.388703 0.152319
627 4 0.212393 0.408751 0.138469
626 4 0.201177 0.368656 0.166169
1439 4 0.219903 0.399165 0.120581
301 2 0.319954 0.413839 0.130083
386 4 0.323428 0.342664 0.0847313
302 4 0.338321 0.39732 0.126213
670 2 0.40876 0.354166 0.106651
385 2 0.326662 0.359633 0.102808
387 4 0.329896 0.376602 0.120885
12 3 0.382888 0.364274 0.138514
11 1 0.371554 0.384034 0.135313
15 3 0.352363 0.379889 0.123773
672 4 0.387658 0.357498 0.119642
13 3 0.366516 0.39323 0.156012
14 3 0.385055 0.398559 0.123266
671 4 0.429861 0.350833 0.0936589
1618 2 0.146361 0.511529 0.122923
1431 4 0.147272 0.480539 0.147366
1620 4 0.137039 0.492644 0.136399
1429 2 0.155202 0.459293 0.157897
1438 2 0.221856 0.40775 0.097179
639 4 0.264023 0.472113 0.141424
638 4 0.298474 0.437469 0.152084
637 2 0.281248 0.454791 0.146754
303 4 0.301588 0.430357 0.133952
659 4 0.3177 0.440596 0.156244
1559 4 0.389498 0.496096 0.130612
495 4 0.387659 0.41201 0.108112
493 2 0.397176 0.430324 0.122226
494 4 0.406694 0.448639 0.136339
1584 4 0.464718 0.506196 0.0742971
688 2 0.159069 0.045026 0.198727
690 4 0.146677 0.0665085 0.195545
674 4 0.153324 0.0780464 0.209731
689 4 0.17146 0.0235435 0.201909
1506 4 0.218622 0.00858556 0.167202
1505 4 0.188882 0.0181315 0.206256
1504 2 0.203752 0.0133585 0.186729
722 4 0.185249 0.0659733 0.245389
653 4 0.257813 0.0770213 0.171125
22 3 0.388129 0.0713023 0.216296
698 4 0.407594 0.0696982 0.224691
697 2 0.40762 0.0472221 0.235646
351 4 0.50195 0.0558391 0.188721
349 2 0.482509 0.0684054 0.198171
742 2 0.487509 0.00115015 0.24663
511 2 0.0126654 0.129708 0.224262
513 4 0.0343546 0.139592 0.231816
578 4 0.0501722 0.149194 0.223917
2479 2 0.0049113 0.0939176 0.170205
2481 4 0.997336 0.10835 0.189166
673 2 0.143848 0.100942 0.213076
675 4 0.134372 0.123837 0.21642
546 4 0.118672 0.119384 0.229098
693 4 0.262617 0.0853703 0.189648
691 2 0.277 0.0862128 0.210083
1701 4 0.309828 0.0941968 0.231308
692 4 0.291383 0.0870553 0.230519
1699 2 0.331702 0.0953019 0.219246
333 4 0.413119 0.0891667 0.227442
21 1 0.386502 0.0934367 0.210249
23 3 0.367709 0.1026 0.220311
25 3 0.384685 0.0949093 0.187595
1700 4 0.353576 0.0964069 0.207185
759 4 0.365692 0.100836 0.189228
24 3 0.405551 0.104588 0.217405
350 4 0.463068 0.0809718 0.207621
331 2 0.437908 0.0915611 0.225214
332 4 0.462697 0.0939556 0.222986
770 4 0.470553 0.134843 0.181431
312 4 0.478721 0.124271 0.197745
310 2 0.480136 0.139592 0.217454
311 4 0.481552 0.154913 0.237163
577 2 0.0484893 0.173365 0.230092
529 2 0.0135246 0.221277 0.219828
530 4 0.0285745 0.205886 0.232548
579 4 0.0468065 0.197535 0.236268
362 4 0.153831 0.235363 0.185388
361 2 0.134708 0.249963 0.192193
370 2 0.190727 0.225642 0.169497
372 4 0.172819 0.232107 0.185705
755 4 0.343102 0.220639 0.170703
622 2 0.442125 0.244968 0.177003
531 4 0.998475 0.236667 0.207107
339 4 0.0500827 0.279087 0.182959
704 4 0.0320518 0.28768 0.186013
337 2 0.0709302 0.266965 0.176355
703 2 0.022482 0.31004 0.191814
443 4 0.0868056 0.248833 0.264174
363 4 0.115584 0.264564 0.198998
395 4 0.108974 0.275339 0.214941
394 2 0.103128 0.271213 0.238899
283 2 0.278189 0.265343 0.195151
284 4 0.275041 0.259186 0.21918
528 4 0.421651 0.316831 0.20707
526 2 0.433206 0.297662 0.195924
623 4 0.437301 0.262488 0.194178
527 4 0.444761 0.278493 0.184779
2952 4 0.501102 0.320485 0.196247
2615 4 0.0131696 0.343803 0.213794
705 4 0.0129122 0.332399 0.197614
648 4 0.103617 0.372028 0.199608
647 4 0.133704 0.389074 0.163484
300 4 0.0836923 0.368272 0.20245
646 2 0.118661 0.380551 0.181546
298 2 0.091424 0.364554 0.225935
734 4 0.147874 0.366812 0.227194
289 2 0.214491 0.395015 0.257845
416 4 0.195382 0.404283 0.21874
290 4 0.201055 0.400792 0.237564
597 4 0.357702 0.394229 0.176298
345 4 0.346428 0.340064 0.216962
596 4 0.343043 0.358258 0.207793
645 4 0.379883 0.39692 0.172289
595 2 0.350373 0.376243 0.192045
343 2 0.3545 0.345609 0.239969
542 4 0.422392 0.32754 0.22329
541 2 0.430625 0.338469 0.244217
264 4 0.0164259 0.412475 0.227186
1430 4 0.163132 0.438048 0.168429
415 2 0.18112 0.41716 0.20274
417 4 0.166859 0.430037 0.186741
438 4 0.252764 0.469058 0.224636
436 2 0.266703 0.470985 0.245305
658 2 0.328849 0.450099 0.176507
643 2 0.391124 0.418528 0.17794
644 4 0.402365 0.440136 0.183591
660 4 0.339998 0.459602 0.19677
231 4 0.338223 0.479429 0.201833
447 4 0.41134 0.448656 0.198736
229 2 0.357966 0.49372 0.196252
445 2 0.416089 0.44869 0.223284
1403 4 0.0239431 0.0214124 0.267861
233 4 0.0356807 0.0318938 0.281199
232 2 0.0540024 0.0462578 0.290318
234 4 0.0723242 0.0606219 0.299438
317 4 0.0794149 0.078972 0.298392
606 4 0.143263 0.0526907 0.337697
1405 2 0.215673 0.0263749 0.302358
1406 4 0.194352 0.0316032 0.314327
721 2 0.184194 0.0747025 0.268796
723 4 0.183139 0.0834316 0.292202
1407 4 0.236995 0.0211466 0.29039
699 4 0.407647 0.0247459 0.2466
1518 4 0.426699 0.0196926 0.248413
743 4 0.478668 0.012206 0.267241
425 4 0.474803 0.0214069 0.285973
424 2 0.483481 0.0377093 0.302829
258 4 0.487191 0.0677815 0.332861
426 4 0.492158 0.0540117 0.319685
1516 2 0.433625 0.0119183 0.271146
316 2 0.0726007 0.101197 0.289184
318 4 0.0657865 0.123423 0.279976
393 4 0.110444 0.149243 0.327427
392 4 0.112228 0.167445 0.280884
544 2 0.116429 0.136493 0.247193
545 4 0.114185 0.153601 0.265288
391 2 0.111336 0.158344 0.304156
599 4 0.165034 0.0836538 0.299462
403 2 0.236871 0.145291 0.30408
598 2 0.170297 0.0950863 0.321067
404 4 0.241056 0.120641 0.304189
521 4 0.482336 0.167043 0.253178
405 4 0.232686 0.169942 0.303971
401 4 0.21907 0.181752 0.294331
400 2 0.208954 0.202247 0.304471
402 4 0.198838 0.222741 0.314612
763 2 0.459173 0.213347 0.332219
764 4 0.444181 0.233271 0.334075
442 2 0.0682624 0.252076 0.280631
444 4 0.0497191 0.255318 0.297087
396 4 0.0972835 0.267086 0.262857
496 2 0.338654 0.259404 0.330103
497 4 0.315566 0.25224 0.323715
366 4 0.039569 0.351099 0.307496
263 4 0.0624846 0.409093 0.246366
749 4 0.0573291 0.342899 0.301982
365 4 0.999781 0.364226 0.334795
364 2 0.0196748 0.357663 0.321145
602 4 0.0760272 0.430268 0.320501
748 2 0.0700876 0.348817 0.281309
777 4 0.072508 0.414302 0.308587
750 4 0.0828461 0.354735 0.260636
299 4 0.0991558 0.360835 0.249421
735 4 0.156963 0.397227 0.265834
733 2 0.152418 0.382019 0.246514
677 4 0.166182 0.409797 0.279494
291 4 0.227926 0.389238 0.278125
414 4 0.235592 0.40818 0.281954
412 2 0.24965 0.414156 0.301748
413 4 0.263709 0.420132 0.321543
727 2 0.323327 0.41027 0.326527
344 4 0.362571 0.351154 0.262975
308 4 0.349791 0.387915 0.31034
729 4 0.330631 0.389485 0.314704
309 4 0.348377 0.350298 0.277421
307 2 0.349084 0.369106 0.29388
2924 4 0.497804 0.366491 0.334895
118 3 0.493852 0.379052 0.316122
543 4 0.438857 0.349398 0.265145
615 4 0.425662 0.355529 0.278682
614 4 0.439316 0.348306 0.326243
613 2 0.432489 0.351918 0.302463
2862 4 0.479706 0.4063 0.27067
120 3 0.481945 0.407394 0.294384
713 4 0.46347 0.415054 0.284159
116 1 0.492011 0.402095 0.314113
119 3 0.479696 0.410632 0.331828
262 2 0.0394552 0.410784 0.236776
775 2 0.0888994 0.423016 0.291837
1757 4 0.121117 0.443081 0.279567
776 4 0.105291 0.43173 0.275087
1756 2 0.133038 0.464462 0.284656
1758 4 0.144959 0.485844 0.289746
1775 4 0.144918 0.482581 0.310577
1544 4 0.198853 0.510577 0.336024
767 4 0.207779 0.5062 0.283272
676 2 0.175416 0.429103 0.292425
678 4 0.18465 0.448409 0.305355
768 4 0.182487 0.463984 0.292152
766 2 0.195133 0.485092 0.287712
437 4 0.280641 0.472913 0.265973
1437 4 0.296501 0.495155 0.298604
433 2 0.295853 0.454756 0.304654
435 4 0.288037 0.462275 0.282125
434 4 0.303669 0.447236 0.327183
446 4 0.420838 0.448724 0.247832
712 2 0.443376 0.42462 0.272763
714 4 0.423281 0.434187 0.261368
731 4 0.0794515 0.0732872 0.42733
730 2 0.0930847 0.0777046 0.406841
604 2 0.13297 0.0656632 0.356431
605 4 0.122678 0.0786357 0.375165
683 4 0.25718 0.0701121 0.368439
249 4 0.288298 0.0248991 0.372849
684 4 0.268517 0.021455 0.370604
682 2 0.262848 0.0457836 0.369521
247 2 0.312226 0.0245123 0.380091
633 4 0.332175 0.0425995 0.397203
248 4 0.336155 0.0241254 0.387334
631 2 0.345076 0.0625624 0.404964
1747 2 0.484185 0.00322172 0.356941
1749 4 0.495174 0.0250526 0.362216
256 2 0.477494 0.0860561 0.346903
2586 4 0.0127652 0.137409 0.377572
2584 2 0.00949292 0.113437 0.38388
2585 4 0.00622062 0.0894645 0.390189
399 4 0.0968897 0.154318 0.341747
732 4 0.106718 0.082122 0.386352
397 2 0.111751 0.142768 0.358207
398 4 0.126612 0.131218 0.374667
600 4 0.175559 0.106519 0.342672
685 2 0.211082 0.124998 0.362288
687 4 0.193294 0.116332 0.347002
686 4 0.22887 0.133664 0.377574
410 4 0.237775 0.142271 0.393618
409 2 0.24578 0.163973 0.403111
321 4 0.25601 0.0899415 0.37595
319 2 0.263129 0.0913658 0.399876
419 4 0.383797 0.160574 0.377899
418 2 0.365301 0.147799 0.388849
420 4 0.346805 0.135025 0.399798
716 4 0.401946 0.157205 0.370427
632 4 0.357977 0.0825252 0.412725
762 4 0.475833 0.165441 0.394825
257 4 0.467797 0.104331 0.360945
760 2 0.475144 0.142665 0.384533
761 4 0.474455 0.119888 0.374241
515 4 0.474401 0.0870904 0.406576
390 4 0.0855981 0.233255 0.408714
388 2 0.0986339 0.221595 0.390845
274 2 0.147731 0.224779 0.361276
276 4 0.125623 0.213203 0.359732
389 4 0.11167 0.209935 0.372976
473 4 0.235027 0.218411 0.348985
474 4 0.189767 0.236874 0.359539
472 2 0.212397 0.227642 0.354262
275 4 0.16984 0.236355 0.36282
708 4 0.250842 0.223069 0.336815
489 4 0.252277 0.248478 0.378883
707 4 0.294961 0.200212 0.342453
651 4 0.268064 0.240296 0.387953
649 2 0.269508 0.217121 0.397228
706 2 0.272901 0.211641 0.339634
650 4 0.270953 0.193946 0.406502
411 4 0.253785 0.185675 0.412605
377 4 0.402118 0.217751 0.346335
717 4 0.41418 0.202615 0.353428
715 2 0.408063 0.17991 0.361927
376 2 0.389061 0.237033 0.337229
765 4 0.474165 0.193423 0.330362
1258 2 0.124633 0.316154 0.391762
1259 4 0.134699 0.314951 0.368906
1260 4 0.114568 0.317356 0.414619
696 4 0.0945935 0.311983 0.413796
509 4 0.218556 0.308434 0.370026
488 4 0.228936 0.292629 0.376315
508 2 0.230956 0.330051 0.372056
487 2 0.240606 0.270554 0.377599
498 4 0.361742 0.266569 0.336491
378 4 0.376005 0.256315 0.328124
267 4 0.365211 0.332137 0.354505
266 4 0.35916 0.285163 0.370553
585 4 0.360159 0.272175 0.385935
583 2 0.371074 0.257866 0.403293
265 2 0.362185 0.30865 0.362529
504 4 0.173399 0.403323 0.337663
510 4 0.243356 0.351668 0.374086
374 4 0.262672 0.354131 0.375118
373 2 0.261162 0.377022 0.365173
375 4 0.259652 0.399913 0.355229
3 3 0.269491 0.414302 0.363468
2923 2 0.476539 0.35336 0.335659
2925 4 0.455275 0.340229 0.336422
751 2 0.480918 0.412218 0.367811
753 4 0.469148 0.417832 0.346478
752 4 0.492688 0.406604 0.389145
601 2 0.0795979 0.436286 0.344505
3672 4 0.0341513 0.507567 0.349692
407 4 0.0249997 0.411885 0.418627
679 2 0.0356265 0.484283 0.38582
680 4 0.0479822 0.463904 0.378257
406 2 0.0333514 0.431364 0.405361
408 4 0.0417031 0.450843 0.392094
603 4 0.0831685 0.442303 0.36851
549 4 0.0866537 0.456246 0.383537
547 2 0.108301 0.459208 0.395695
548 4 0.129948 0.46217 0.407853
502 2 0.177408 0.419292 0.356481
503 4 0.181418 0.435261 0.375298
634 2 0.191311 0.473648 0.356644
636 4 0.192757 0.45096 0.367052
635 4 0.189865 0.496337 0.346237
728 4 0.316023 0.431056 0.33835
2 3 0.293788 0.434605 0.343218
5 3 0.257694 0.434162 0.333735
1 1 0.272246 0.433834 0.35125
668 4 0.279523 0.455998 0.383233
4 3 0.268656 0.452272 0.364873
667 2 0.290863 0.478097 0.3861
669 4 0.302203 0.500196 0.388966
2757 4 0.00686449 0.0798008 0.407474
368 4 0.0611714 0.0761133 0.419345
367 2 0.0457572 0.0798352 0.438678
369 4 0.030343 0.083557 0.45801
341 4 0.173908 0.0752929 0.45376
2430 4 0.190954 0.0650479 0.456765
441 4 0.223761 0.0136649 0.445907
2428 2 0.199587 0.0436831 0.447059
2429 4 0.208219 0.0223183 0.437354
2879 4 0.448174 0.997056 0.441398
2878 2 0.465976 0.0120486 0.450536
2880 4 0.483778 0.027041 0.459674
642 4 0.493895 0.0438857 0.45516
640 2 0.497831 0.0648526 0.442119
641 4 0.501766 0.0858194 0.429077
718 2 0.033686 0.0906779 0.498962
719 4 0.0366206 0.0803775 0.476368
259 2 0.0633926 0.165126 0.494216
1152 4 0.142935 0.126812 0.475416
342 4 0.140238 0.110585 0.464783
340 2 0.157073 0.092939 0.459272
1150 2 0.158221 0.137851 0.491838
320 4 0.270248 0.0927901 0.423802
725 4 0.282146 0.101756 0.43615
724 2 0.274499 0.104587 0.459787
726 4 0.266853 0.107418 0.483424
432 4 0.265907 0.110477 0.503563
468 4 0.357131 0.0831808 0.432078
467 4 0.394448 0.109323 0.452686
466 2 0.375789 0.0962521 0.442382
574 2 0.419826 0.13194 0.44941
576 4 0.399403 0.125659 0.462396
3158 4 0.495473 0.10373 0.425152
575 4 0.440249 0.138222 0.436424
516 4 0.443382 0.117498 0.431353
514 2 0.458891 0.102294 0.418965
260 4 0.0610296 0.179559 0.473936
471 4 0.0692296 0.194018 0.463049
469 2 0.0717408 0.211365 0.445218
470 4 0.074252 0.228712 0.427386
2455 2 0.403517 0.224627 0.447965
2457 4 0.424664 0.213918 0.455923
616 2 0.0170952 0.252904 0.439538
617 4 0.0414219 0.252973 0.445316
695 4 0.0800811 0.279603 0.449033
694 2 0.0873373 0.295793 0.431414
878 4 0.0877225 0.259509 0.479505
2456 4 0.38237 0.235335 0.440008
584 4 0.381988 0.243556 0.420651
304 2 0.495139 0.273642 0.415335
1010 4 0.446335 0.32699 0.46006
1009 2 0.454842 0.307062 0.447582
1011 4 0.463349 0.287134 0.435105
305 4 0.48242 0.283086 0.434679
709 2 0.127806 0.408551 0.489211
326 4 0.118579 0.333329 0.426124
325 2 0.128924 0.348204 0.443354
327 4 0.139269 0.36308 0.460584
8 3 0.148225 0.380938 0.490835
7 3 0.157568 0.367293 0.457083
6 1 0.164048 0.368665 0.479113
9 3 0.165506 0.34722 0.487852
1191 4 0.205049 0.366356 0.48756
1189 2 0.228684 0.360726 0.481654
10 3 0.18433 0.378951 0.480339
1190 4 0.252319 0.355096 0.475748
803 4 0.263589 0.365115 0.489636
335 4 0.383638 0.410323 0.46143
238 2 0.364157 0.389573 0.495301
240 4 0.374521 0.398947 0.474567
561 4 0.498427 0.415226 0.405811
2507 4 0.458697 0.342424 0.463776
560 4 0.493795 0.402805 0.454029
559 2 0.496111 0.409015 0.42992
2506 2 0.471382 0.363829 0.461307
2508 4 0.484066 0.385234 0.458838
540 4 0.0362789 0.457774 0.482931
1381 2 0.012093 0.441709 0.466928
1382 4 0.0351994 0.439335 0.476182
569 4 0.121997 0.457091 0.424967
710 4 0.117293 0.425721 0.474385
570 4 0.130797 0.44229 0.471916
568 2 0.126397 0.449691 0.448442
1393 2 0.225143 0.499635 0.465635
1394 4 0.241529 0.495888 0.484145
1446 4 0.248505 0.478244 0.48375
588 4 0.312866 0.500956 0.453032
1400 4 0.311593 0.48112 0.454049
1401 4 0.325571 0.435067 0.440468
1399 2 0.318582 0.458093 0.447258
1444 2 0.267628 0.482596 0.49926
334 2 0.363598 0.418767 0.44909
336 4 0.343558 0.427212 0.43675
1126 2 0.00215472 0.0750106 0.542086
720 4 0.0307514 0.100978 0.521555
949 2 0.192266 0.0898058 0.549855
1182 4 0.218585 0.0651958 0.575173
1180 2 0.239598 0.0521098 0.571654
950 4 0.206988 0.0813594 0.568215
963 4 0.253807 0.0210297 0.566783
1181 4 0.260611 0.0390238 0.568136
961 2 0.275177 0.00810914 0.565529
1216 2 0.377295 0.0651822 0.526849
1218 4 0.390502 0.0466067 0.516568
4467 4 0.446536 0.997129 0.572536
1127 4 0.0164513 0.0940419 0.534431
1033 2 0.0665002 0.138027 0.549601
1034 4 0.0629389 0.133056 0.525357
261 4 0.0657557 0.150693 0.514496
1035 4 0.0700615 0.142998 0.573845
1030 2 0.136897 0.0939083 0.549314
1032 4 0.113913 0.0876668 0.55693
1154 4 0.10452 0.0870494 0.574161
1031 4 0.15988 0.10015 0.541699
951 4 0.177544 0.0982522 0.531495
1151 4 0.173507 0.148889 0.50826
939 4 0.18518 0.14195 0.523515
937 2 0.184454 0.153264 0.545801
938 4 0.183729 0.164578 0.568086
843 4 0.303346 0.0874209 0.55687
431 4 0.296669 0.0980794 0.540989
430 2 0.281288 0.104278 0.522276
841 2 0.324945 0.0811714 0.545933
1217 4 0.364088 0.0837578 0.53713
842 4 0.346544 0.074922 0.534997
857 4 0.37126 0.16703 0.569883
899 4 0.38255 0.150881 0.563267
1272 4 0.113777 0.243369 0.541436
1270 2 0.12161 0.230976 0.56169
1271 4 0.129443 0.218583 0.581945
879 4 0.108191 0.252112 0.524528
898 2 0.391832 0.16941 0.549277
900 4 0.401114 0.187938 0.535287
872 4 0.402393 0.206889 0.536484
873 4 0.376381 0.246273 0.553006
871 2 0.389387 0.226581 0.544745
813 4 0.367112 0.241046 0.570004
877 2 0.0979568 0.255811 0.502017
1204 2 0.379737 0.306008 0.572096
1206 4 0.359552 0.312508 0.55885
930 4 0.344392 0.325745 0.561388
954 4 0.41483 0.284641 0.584634
952 2 0.438422 0.280162 0.57767
905 4 0.481912 0.26963 0.571869
983 4 0.0533144 0.396927 0.580829
982 2 0.0285014 0.398503 0.578181
1041 4 0.0703456 0.391564 0.570925
711 4 0.13832 0.39138 0.504038
896 4 0.19488 0.377534 0.501554
897 4 0.188804 0.390228 0.54954
895 2 0.191842 0.383881 0.525547
1137 4 0.195364 0.403927 0.563095
1135 2 0.186428 0.399339 0.585992
802 2 0.27997 0.362978 0.508405
804 4 0.296351 0.360842 0.527175
929 4 0.311915 0.355837 0.538142
928 2 0.328153 0.340791 0.549765
239 4 0.353792 0.380198 0.516034
1001 4 0.461466 0.371593 0.546667
926 4 0.464948 0.374638 0.525702
925 2 0.48696 0.365977 0.5176
1000 2 0.457109 0.390019 0.562997
1002 4 0.452751 0.408446 0.579327
1936 2 0.0487757 0.476973 0.562117
1937 4 0.061158 0.482683 0.541159
539 4 0.0493896 0.479884 0.525826
538 2 0.0428342 0.468829 0.504378
2243 4 0.152495 0.488781 0.591008
1171 2 0.243918 0.447034 0.576994
1173 4 0.220424 0.453634 0.582439
1160 4 0.207713 0.463763 0.569401
882 4 0.285756 0.448889 0.571804
880 2 0.289818 0.46198 0.550892
881 4 0.293881 0.475071 0.529981
1445 4 0.286752 0.486948 0.514769
1172 4 0.267412 0.440434 0.571549
1455 4 0.357957 0.494511 0.546133
1953 4 0.362098 0.497789 0.56567
1185 4 0.01118 0.0562067 0.645875
945 4 0.0294527 0.0485474 0.651507
1058 4 0.10821 0.0196085 0.648562
1057 2 0.105835 0.0431121 0.640369
1155 4 0.090338 0.0677742 0.618071
1059 4 0.10346 0.0666158 0.632177
825 4 0.0994416 0.0176146 0.666236
2282 4 0.477222 0.0276865 0.611168
2281 2 0.457609 0.0173055 0.599647
43 3 0.47943 0.048648 0.613363
41 1 0.484578 0.0712171 0.611769
44 3 0.46507 0.0837543 0.610969
42 3 0.496649 0.0774213 0.630342
1163 4 0.514933 0.0725957 0.640786
1082 4 0.0564495 0.135557 0.58617
1081 2 0.0393937 0.148882 0.598689
1083 4 0.0223378 0.162207 0.611208
1153 2 0.097429 0.0774118 0.596116
1221 4 0.14012 0.0979065 0.658549
1219 2 0.165064 0.0985911 0.656973
1220 4 0.190009 0.0992757 0.655396
1212 4 0.203694 0.106019 0.642455
1210 2 0.227601 0.113209 0.641062
1211 4 0.251508 0.120399 0.639668
1005 4 0.322631 0.0869961 0.612607
1004 4 0.309219 0.0970278 0.659726
1003 2 0.315925 0.092012 0.636166
858 4 0.343161 0.165233 0.61121
888 4 0.256505 0.130755 0.657503
886 2 0.278146 0.120447 0.664618
856 2 0.357211 0.166131 0.590547
1142 4 0.372947 0.0775305 0.657292
1025 4 0.395764 0.133903 0.670115
1024 2 0.392805 0.154924 0.656903
45 3 0.497045 0.0750437 0.593098
909 4 0.147708 0.216145 0.588665
907 2 0.164811 0.232446 0.596848
947 4 0.178241 0.252498 0.624421
908 4 0.181914 0.248746 0.605031
798 4 0.315906 0.223687 0.613674
796 2 0.321775 0.199502 0.61609
797 4 0.327644 0.175317 0.618505
811 2 0.347731 0.237565 0.585413
812 4 0.32835 0.234084 0.600821
1026 4 0.389845 0.175945 0.643692
3122 4 0.487744 0.232502 0.657811
946 2 0.190248 0.273344 0.631233
948 4 0.202256 0.294191 0.638045
1065 4 0.218774 0.29695 0.647708
1239 4 0.283769 0.283093 0.567846
1237 2 0.296885 0.280304 0.58895
1238 4 0.31 0.277514 0.610054
1205 4 0.399923 0.299507 0.585342
790 2 0.333965 0.292139 0.641608
791 4 0.347272 0.308331 0.655243
792 4 0.320658 0.275947 0.627973
953 4 0.462015 0.275683 0.570705
904 2 0.494004 0.261401 0.592148
984 4 0.00368851 0.400078 0.575532
1281 4 0.0676748 0.350242 0.656925
894 4 0.0877651 0.351576 0.657652
1039 2 0.0860213 0.407415 0.582247
1040 4 0.101697 0.423266 0.59357
991 2 0.137552 0.40578 0.606954
992 4 0.156432 0.389591 0.609528
1136 4 0.177492 0.394752 0.608889
1029 4 0.266714 0.394238 0.668001
1139 4 0.275165 0.407919 0.654776
1910 4 0.458099 0.403121 0.597613
1909 2 0.439269 0.408572 0.613134
1938 4 0.0363934 0.471263 0.583076
936 4 0.0175123 0.476125 0.584708
2022 4 0.0520609 0.47243 0.656224
993 4 0.118672 0.42197 0.60438
1161 4 0.172847 0.4922 0.591226
1159 2 0.19028 0.477982 0.580314
889 2 0.374682 0.490512 0.645024
1269 4 0.403187 0.46368 0.656924
1267 2 0.417174 0.44679 0.644913
891 4 0.353178 0.497575 0.634401
1911 4 0.420439 0.414023 0.628655
1268 4 0.431161 0.429899 0.632902
943 2 0.0445877 0.0623774 0.66582
1076 4 0.0774317 0.0831712 0.686759
944 4 0.0597227 0.0762074 0.680132
1075 2 0.077438 0.0766421 0.710895
2285 4 0.00587427 0.992375 0.706309
1077 4 0.0774442 0.0701131 0.735032
1283 4 0.143063 0.0591485 0.713325
1282 2 0.158963 0.0753403 0.723822
1284 4 0.174863 0.0915322 0.73432
831 4 0.327019 0.0752553 0.70594
35 3 0.0857209 0.170694 0.747631
32 3 0.0975761 0.141977 0.72695
31 1 0.0969038 0.150862 0.748158
1227 4 0.186678 0.0857531 0.748768
887 4 0.299786 0.110139 0.671733
830 4 0.288201 0.10573 0.714017
829 2 0.30761 0.0904926 0.709979
1141 2 0.377516 0.10211 0.657654
1143 4 0.382085 0.12669 0.658016
1105 2 0.0476286 0.175496 0.746391
851 4 0.00980415 0.182678 0.731821
1107 4 0.0279656 0.188438 0.737962
1208 4 0.0714488 0.243826 0.705946
821 4 0.087793 0.238579 0.695519
822 4 0.119619 0.222744 0.730691
1278 4 0.135275 0.225889 0.743363
820 2 0.103706 0.230662 0.713105
1276 2 0.15513 0.210736 0.742199
1277 4 0.174985 0.195583 0.741035
977 4 0.302202 0.207657 0.722238
916 2 0.321495 0.239884 0.711746
918 4 0.321002 0.215934 0.71891
976 2 0.294043 0.205799 0.7458
3121 2 0.480712 0.24861 0.675595
3357 4 0.494983 0.217788 0.669558
1243 2 0.00305086 0.285744 0.710264
3188 4 0.0286815 0.258916 0.731908
1207 2 0.050732 0.257094 0.710414
1209 4 0.0300151 0.270361 0.714883
1244 4 0.0271852 0.289356 0.71571
1063 2 0.23567 0.290717 0.665053
1242 4 0.235543 0.280183 0.755206
1240 2 0.25477 0.28694 0.740719
1064 4 0.252567 0.284485 0.682397
1241 4 0.273996 0.293697 0.726232
917 4 0.321988 0.263834 0.704582
1097 4 0.31237 0.269393 0.688329
1096 2 0.290654 0.281755 0.689215
1098 4 0.268939 0.294118 0.6901
1008 4 0.325095 0.27002 0.745068
1006 2 0.349518 0.27004 0.750425
3123 4 0.47368 0.264717 0.693378
1279 2 0.0524715 0.358627 0.674918
3275 4 0.0430345 0.372712 0.71138
1280 4 0.0372683 0.367012 0.692911
3274 2 0.0555987 0.385408 0.728877
893 4 0.132105 0.362737 0.677905
892 2 0.109935 0.357157 0.667779
940 2 0.164123 0.389046 0.734792
942 4 0.146952 0.402155 0.747381
1028 4 0.219808 0.377256 0.664505
1068 4 0.221137 0.364945 0.680939
1067 4 0.182062 0.359743 0.71171
1066 2 0.2016 0.362344 0.696325
941 4 0.181294 0.375938 0.722203
1027 2 0.243261 0.385747 0.666253
1229 4 0.368061 0.374067 0.698404
1228 2 0.367918 0.398929 0.701055
2021 4 0.0470311 0.477727 0.705695
1981 2 0.0154145 0.490521 0.727359
2020 2 0.049546 0.475079 0.680959
1983 4 0.0250997 0.476222 0.709279
2214 4 0.274948 0.504394 0.761252
1138 2 0.280934 0.427034 0.669827
1140 4 0.286702 0.446149 0.684878
1989 4 0.280876 0.44861 0.703607
1987 2 0.291119 0.459845 0.723458
1988 4 0.301361 0.47108 0.743309
890 4 0.396186 0.483448 0.655647
1230 4 0.367775 0.423791 0.703706
1100 4 0.446693 0.489098 0.742837
1099 2 0.437283 0.507411 0.72865
864 4 0.0655658 0.052749 0.820217
2049 4 0.151579 0.0302284 0.757868
2047 2 0.163104 0.00996464 0.766908
1203 4 0.0882636 0.0543269 0.743168
1202 4 0.130955 0.0331125 0.758272
1201 2 0.109609 0.0437197 0.75072
911 4 0.0816549 0.0550478 0.83258
1147 2 0.212036 0.0596736 0.81327
1148 4 0.188596 0.0515304 0.81634
1149 4 0.235476 0.0678169 0.8102
1049 4 0.254601 0.0666068 0.81864
1048 2 0.273597 0.0545831 0.829585
818 4 0.351449 0.0643741 0.800135
965 4 0.364822 0.0597091 0.81458
975 4 0.394848 0.981734 0.821325
817 2 0.33408 0.0822712 0.801916
846 4 0.479031 0.0172549 0.755225
1106 4 0.0672916 0.162554 0.75482
862 2 0.062687 0.0763757 0.812557
863 4 0.0598082 0.100002 0.804897
832 2 0.0631731 0.133773 0.786295
833 4 0.0587153 0.120679 0.807124
834 4 0.067631 0.146868 0.765466
33 3 0.0859562 0.13597 0.762186
34 3 0.118632 0.154219 0.755576
1073 4 0.119407 0.153675 0.775929
1225 2 0.193215 0.103984 0.764582
1226 4 0.199752 0.122214 0.780397
840 4 0.218626 0.127903 0.778444
838 2 0.232725 0.140242 0.795001
839 4 0.246825 0.152581 0.811558
959 4 0.261341 0.164945 0.805041
819 4 0.31671 0.100168 0.803697
1085 4 0.329645 0.112722 0.810803
1084 2 0.332627 0.137539 0.81019
1086 4 0.335609 0.162357 0.809577
3268 2 0.497816 0.156687 0.789336
3270 4 0.486375 0.156681 0.767103
153 3 0.00364642 0.251962 0.806949
779 4 0.0724693 0.22056 0.826226