ITEM: TIMESTEP
1250000
ITEM: NUMBER OF ATOMS
4590
ITEM: BOX BOUNDS pp pp pp
-9.9985700000000008e+00 9.9985700000000008e+00
-9.9985700000000008e+00 9.9985700000000008e+00
-9.9985700000000008e+00 9.9985700000000008e+00
ITEM: ATOMS id type xs ys zs
463 2 0.041602 0.067004 0.0287251
464 4 0.0403275 0.0478758 0.0126731
3290 4 0.0564786 0.0358914 0.00903416
1668 4 0.0594373 0.00550929 0.0506272
1666 2 0.0753192 0.0222986 0.0601699
1667 4 0.0912011 0.0390879 0.0697127
1476 4 0.229455 0.0396313 0.0657671
1474 2 0.240911 0.0252152 0.0488517
1475 4 0.252366 0.010799 0.0319362
492 4 0.268493 0.00604003 0.021226
490 2 0.284683 0.0149704 0.00439435
986 4 0.357149 0.0516292 0.014573
745 2 0.448249 0.072345 0.0224648
747 4 0.456011 0.0651842 0.0451287
2722 2 0.467453 0.0456871 0.0724874
2724 4 0.468734 0.049938 0.0478812
746 4 0.440487 0.0795058 0.999801
465 4 0.0428764 0.0861322 0.0447771
591 4 0.0442856 0.0984747 0.0602287
701 4 0.0545596 0.115261 0.0521779
700 2 0.037887 0.131008 0.0422161
2760 4 0.000224671 0.145897 0.0330628
702 4 0.0212144 0.146755 0.0322542
3234 4 0.0376495 0.122506 0.00524246
423 4 0.100144 0.158932 0.0407105
566 4 0.195422 0.0892757 0.0681957
1133 4 0.213837 0.143297 0.00435593
360 4 0.226635 0.139297 0.0213694
358 2 0.249964 0.141462 0.0301022
359 4 0.273293 0.143627 0.0388351
421 2 0.0795828 0.173102 0.0419821
553 2 0.0276427 0.196684 0.0337908
422 4 0.0590215 0.187273 0.0432538
555 4 0.0434231 0.195 0.0531124
554 4 0.0118623 0.198367 0.0144692
506 4 0.185466 0.232383 0.0418929
737 4 0.18852 0.216984 0.0538471
736 2 0.204884 0.203719 0.0673167
738 4 0.221248 0.190454 0.0807864
353 4 0.28478 0.201897 0.071416
461 4 0.293026 0.219846 0.0692324
460 2 0.31031 0.214775 0.0865745
323 4 0.399733 0.232733 0.0416062
322 2 0.422194 0.241831 0.0477642
324 4 0.444654 0.250929 0.0539222
1170 4 0.0387262 0.303987 0.0038645
1056 4 0.0580945 0.300615 0.00440301
294 4 0.145502 0.322537 0.0322167
292 2 0.158541 0.302983 0.023683
505 2 0.185665 0.256252 0.0344503
507 4 0.185865 0.280121 0.0270078
293 4 0.171579 0.283429 0.0151493
481 2 0.275067 0.297512 0.0190018
482 4 0.2812 0.289875 0.0420069
1071 4 0.394648 0.238507 0.0234902
1069 2 0.378927 0.255444 0.0139449
573 4 0.396996 0.287299 0.0593079
571 2 0.376315 0.275077 0.0662419
456 4 0.139404 0.336371 0.0460014
454 2 0.14161 0.355113 0.0624038
607 2 0.251795 0.369551 0.0834687
252 4 0.263737 0.40015 0.0596164
250 2 0.284169 0.412717 0.0525592
608 4 0.257205 0.381312 0.0620772
281 4 0.433267 0.368971 0.0677253
671 4 0.419106 0.358937 0.0792915
280 2 0.453623 0.357574 0.0587314
282 4 0.47398 0.346176 0.0497375
104 3 0.490401 0.335992 0.0544411
550 2 0.0438002 0.49582 0.0646939
314 4 0.0348428 0.461687 0.0857379
313 2 0.0333137 0.436904 0.0886786
793 2 0.165273 0.496754 0.016252
795 4 0.150124 0.479994 0.00553954
246 4 0.220969 0.474229 0.0308229
244 2 0.225597 0.472381 0.00632084
251 4 0.304601 0.425283 0.0455019
524 4 0.356693 0.42161 0.0465567
523 2 0.355265 0.432397 0.0690686
19 3 0.0464092 0.0401194 0.141497
20 3 0.0752289 0.0183446 0.130869
1422 4 0.0316595 0.0235438 0.149142
16 1 0.0694581 0.0374637 0.141815
17 3 0.0791631 0.055456 0.131268
2480 4 0.030168 0.0294481 0.128731
18 3 0.0770344 0.036634 0.163731
652 2 0.235225 0.0484525 0.149855
654 4 0.224526 0.0474095 0.12728
484 2 0.322961 0.0224844 0.135755
582 4 0.298262 0.0874829 0.12991
485 4 0.327549 0.0300114 0.112357
297 4 0.327723 0.0355007 0.0923941
486 4 0.318373 0.0149574 0.159153
296 4 0.347539 0.0813521 0.090014
295 2 0.337631 0.0584264 0.091204
2723 4 0.466172 0.0414362 0.0970936
2744 4 0.494749 0.0121762 0.155609
590 4 0.0590961 0.0954332 0.107895
589 2 0.0516908 0.0969539 0.0840621
448 2 0.143536 0.0862132 0.162256
449 4 0.152172 0.10966 0.161344
567 4 0.150014 0.109509 0.0736207
236 4 0.140432 0.117845 0.174684
565 2 0.172718 0.0993925 0.0709082
580 2 0.296312 0.0890911 0.154786
557 4 0.35033 0.0994684 0.0972041
758 4 0.372746 0.0873013 0.158522
558 4 0.398969 0.107561 0.105536
556 2 0.37465 0.103515 0.10137
771 4 0.444052 0.15949 0.0779096
769 2 0.462525 0.168067 0.0924127
338 4 0.0594917 0.251015 0.111341
337 2 0.0832213 0.244452 0.115701
339 4 0.106951 0.237888 0.120061
477 4 0.178333 0.237402 0.120824
354 4 0.239767 0.183112 0.0824445
475 2 0.182624 0.214872 0.130782
476 4 0.186916 0.192342 0.14074
352 2 0.262273 0.192505 0.0769302
277 2 0.295015 0.240414 0.149828
278 4 0.300091 0.242082 0.125402
462 4 0.327593 0.209704 0.103917
255 4 0.333207 0.191393 0.105401
254 4 0.382339 0.199329 0.11027
630 4 0.386209 0.213736 0.0954857
253 2 0.357773 0.195361 0.107836
628 2 0.408961 0.21972 0.103953
770 4 0.480999 0.176643 0.106916
624 4 0.439629 0.238541 0.126826
629 4 0.431714 0.225705 0.11242
611 4 0.241705 0.310193 0.126325
610 2 0.236562 0.334337 0.122347
755 4 0.305061 0.256722 0.112547
754 2 0.325099 0.266064 0.10087
572 4 0.355634 0.262854 0.073176
756 4 0.345138 0.275406 0.0891926
741 4 0.33857 0.295097 0.0963487
739 2 0.353561 0.313252 0.104766
622 2 0.438917 0.250462 0.148793
623 4 0.438206 0.262382 0.170761
621 4 0.030285 0.397025 0.105573
619 2 0.0416004 0.380067 0.12005
620 4 0.0529159 0.36311 0.134527
647 4 0.0713575 0.368616 0.141698
455 4 0.143816 0.373855 0.0788063
646 2 0.0898275 0.375103 0.157252
612 4 0.231418 0.35848 0.11837
609 4 0.246386 0.35779 0.10486
536 4 0.188546 0.372771 0.154055
387 4 0.333961 0.381089 0.142353
302 4 0.33824 0.40029 0.143902
301 2 0.333826 0.420163 0.158419
385 2 0.343415 0.362116 0.129092
740 4 0.368552 0.331407 0.113183
386 4 0.352869 0.343144 0.115831
12 3 0.3973 0.364727 0.146609
11 1 0.405942 0.379164 0.162295
15 3 0.388835 0.389609 0.173107
672 4 0.405884 0.362293 0.127402
14 3 0.419252 0.394834 0.151539
670 2 0.412495 0.360615 0.103347
596 4 0.472164 0.333759 0.142251
495 4 0.414801 0.411396 0.139207
595 2 0.452447 0.343747 0.15394
552 4 0.0397553 0.48114 0.0845265
315 4 0.0317845 0.412121 0.0916193
1789 2 0.0694126 0.483793 0.114517
1791 4 0.0540937 0.481178 0.134105
1790 4 0.0847315 0.486408 0.0949298
1466 4 0.0534767 0.498896 0.143315
626 4 0.178134 0.452936 0.135377
625 2 0.201935 0.450998 0.14279
627 4 0.225735 0.449059 0.150204
638 4 0.237688 0.457864 0.164029
639 4 0.262039 0.492437 0.137338
637 2 0.249864 0.475151 0.150683
525 4 0.353836 0.443183 0.0915805
494 4 0.423452 0.45029 0.108989
493 2 0.419127 0.430843 0.124098
1420 2 0.0253806 0.00322236 0.162288
450 4 0.134899 0.0627663 0.163168
690 4 0.160625 0.0239438 0.242301
688 2 0.171906 0.0142967 0.22218
653 4 0.245925 0.0494956 0.172429
693 4 0.237722 0.0586129 0.188324
691 2 0.22532 0.0512263 0.20874
692 4 0.212918 0.0438398 0.229156
1661 4 0.29979 0.00930191 0.165926
1700 4 0.325481 0.0599206 0.227844
1699 2 0.30057 0.0606304 0.22582
1701 4 0.275658 0.0613401 0.223796
21 1 0.366036 0.066528 0.236147
25 3 0.378087 0.0635933 0.217047
759 4 0.375808 0.0568241 0.19805
23 3 0.344634 0.0579972 0.233394
1760 4 0.488973 0.996306 0.166317
235 2 0.153438 0.13668 0.184747
237 4 0.166445 0.155516 0.19481
581 4 0.294363 0.0906994 0.179662
28 3 0.271951 0.12896 0.201754
30 3 0.286616 0.0946403 0.19678
26 1 0.290227 0.115244 0.205786
29 3 0.309361 0.124645 0.196626
27 3 0.293104 0.113179 0.228515
757 2 0.374277 0.0720627 0.178286
24 3 0.364949 0.0890951 0.241434
312 4 0.401525 0.119555 0.192591
311 4 0.420667 0.16572 0.194349
310 2 0.411096 0.142637 0.19347
577 2 0.0758426 0.17945 0.21836
578 4 0.0528844 0.170673 0.22295
513 4 0.0346796 0.170265 0.216776
511 2 0.0215334 0.168475 0.195583
531 4 0.0051169 0.182513 0.237508
579 4 0.0988007 0.188227 0.21377
279 4 0.28994 0.238747 0.174255
284 4 0.272776 0.261882 0.219394
283 2 0.278119 0.243421 0.2034
285 4 0.283462 0.224959 0.187407
521 4 0.444033 0.202587 0.243638
703 2 0.0239608 0.308271 0.216409
704 4 0.0155914 0.292603 0.198813
705 4 0.0323301 0.323939 0.234005
443 4 0.0796587 0.283772 0.238376
537 4 0.164541 0.332887 0.172324
396 4 0.0939873 0.293488 0.226198
394 2 0.103533 0.275648 0.211508
395 4 0.113078 0.257808 0.196817
363 4 0.12175 0.26262 0.179029
361 2 0.146537 0.259606 0.180338
362 4 0.171324 0.256592 0.181646
372 4 0.170313 0.258818 0.202312
370 2 0.178652 0.266431 0.224621
371 4 0.186991 0.274045 0.246929
343 2 0.282295 0.315964 0.236538
344 4 0.29519 0.303825 0.254188
527 4 0.428067 0.265766 0.187942
526 2 0.44658 0.280664 0.19572
528 4 0.465092 0.295563 0.203499
300 4 0.108975 0.378986 0.192746
648 4 0.108297 0.381591 0.172807
298 2 0.119841 0.397215 0.205967
299 4 0.130708 0.415444 0.219188
535 2 0.176543 0.352829 0.163189
290 4 0.219729 0.417194 0.217515
345 4 0.269399 0.328103 0.218888
13 3 0.418656 0.367038 0.177451
597 4 0.432729 0.353736 0.165629
643 2 0.454258 0.374838 0.198738
644 4 0.468128 0.389421 0.213575
645 4 0.440388 0.360255 0.183901
447 4 0.472821 0.404657 0.226597
263 4 0.0326998 0.456869 0.207166
262 2 0.0465853 0.439394 0.195897
264 4 0.0604709 0.421918 0.184629
417 4 0.177734 0.478324 0.209256
1430 4 0.171987 0.483611 0.18974
416 4 0.187779 0.432196 0.192762
415 2 0.182757 0.45526 0.201009
289 2 0.221387 0.433336 0.236539
291 4 0.223045 0.449477 0.255562
766 2 0.229116 0.488132 0.208033
768 4 0.206742 0.484685 0.197416
767 4 0.251489 0.491578 0.21865
303 4 0.329411 0.440035 0.172937
659 4 0.34339 0.446739 0.185955
660 4 0.33282 0.490997 0.206697
658 2 0.338105 0.468868 0.196326
231 4 0.344134 0.50239 0.220177
713 4 0.386483 0.446699 0.242863
712 2 0.410859 0.451056 0.246328
445 2 0.456236 0.421557 0.234628
232 2 0.0351007 0.0239621 0.297305
234 4 0.0218448 0.0449071 0.294024
317 4 0.0248037 0.0641367 0.299093
673 2 0.139126 0.0413284 0.264689
675 4 0.126584 0.0404387 0.286301
674 4 0.151668 0.042218 0.243078
1406 4 0.237535 0.0127857 0.323229
723 4 0.230961 0.0719347 0.264624
249 4 0.28738 0.0736834 0.337553
1518 4 0.369362 0.00772694 0.316685
697 2 0.384207 0.0329538 0.293112
699 4 0.386574 0.0155339 0.310892
698 4 0.38184 0.0503738 0.275333
22 3 0.37634 0.0553361 0.253402
333 4 0.397057 0.0599028 0.26441
331 2 0.411266 0.0804721 0.264849
744 4 0.476499 0.0100881 0.284965
743 4 0.489267 0.0565879 0.271719
742 2 0.482883 0.033338 0.278342
351 4 0.488692 0.0754046 0.280731
1747 2 0.458074 0.991567 0.337755
1749 4 0.47234 0.00885222 0.326668
316 2 0.0304485 0.0884844 0.299805
318 4 0.0360932 0.112832 0.300517
399 4 0.147193 0.146125 0.324137
545 4 0.179385 0.169857 0.265697
722 4 0.219691 0.119483 0.254001
721 2 0.225326 0.095709 0.259312
546 4 0.20455 0.130277 0.248354
544 2 0.191967 0.150067 0.257025
599 4 0.229014 0.147306 0.296237
404 4 0.242676 0.161996 0.299335
598 2 0.221859 0.138301 0.318438
349 2 0.466675 0.0869001 0.277856
332 4 0.425475 0.101041 0.265288
350 4 0.444657 0.0983956 0.274982
762 4 0.414308 0.11077 0.311081
760 2 0.427373 0.127382 0.29772
761 4 0.440439 0.143994 0.284359
257 4 0.479687 0.0887745 0.325577
529 2 0.0179506 0.195551 0.254552
530 4 0.0307844 0.208589 0.271596
393 4 0.145829 0.164942 0.32756
392 4 0.17227 0.16985 0.2854
391 2 0.159049 0.167396 0.30648
403 2 0.242712 0.186988 0.298572
405 4 0.242749 0.211979 0.297808
401 4 0.241373 0.228728 0.288699
400 2 0.216815 0.233425 0.28865
402 4 0.192256 0.238121 0.288601
765 4 0.386356 0.205405 0.277409
763 2 0.404949 0.20512 0.260693
522 4 0.488245 0.222474 0.255909
520 2 0.466139 0.21253 0.249773
764 4 0.423542 0.204834 0.243978
442 2 0.0706432 0.281936 0.261626
444 4 0.0616278 0.280101 0.284875
390 4 0.103073 0.292803 0.327094
309 4 0.300378 0.323587 0.259357
307 2 0.30868 0.333817 0.280607
541 2 0.453855 0.311461 0.298759
542 4 0.477422 0.304804 0.303803
543 4 0.430287 0.318119 0.293714
748 2 0.0758447 0.360477 0.264149
749 4 0.0567336 0.356058 0.279655
365 4 0.0251829 0.389208 0.314615
364 2 0.0318797 0.375336 0.29492
366 4 0.0385765 0.361463 0.275225
547 2 0.0486672 0.415238 0.34251
750 4 0.0949558 0.364896 0.248644
734 4 0.112833 0.372782 0.254737
733 2 0.13337 0.36249 0.26461
602 4 0.125502 0.418122 0.330793
735 4 0.153908 0.352198 0.274483
677 4 0.172602 0.351738 0.281286
678 4 0.162408 0.345756 0.329877
676 2 0.167505 0.348747 0.305581
497 4 0.320998 0.34669 0.321853
308 4 0.316982 0.344048 0.301858
729 4 0.316372 0.362032 0.294851
727 2 0.317737 0.382701 0.308853
728 4 0.319103 0.403371 0.322856
614 4 0.405392 0.362807 0.324219
615 4 0.411835 0.319538 0.299991
613 2 0.408614 0.341172 0.312105
118 3 0.499613 0.39402 0.318247
2537 4 0.515074 0.379388 0.310525
549 4 0.0471451 0.42116 0.318265
777 4 0.122519 0.431313 0.316376
1757 4 0.0818193 0.463001 0.271202
1756 2 0.087636 0.487319 0.271324
776 4 0.099547 0.457958 0.280836
775 2 0.111033 0.444635 0.298606
1545 4 0.191988 0.485528 0.312053
414 4 0.207382 0.443269 0.26579
413 4 0.201329 0.485286 0.292222
412 2 0.204356 0.464277 0.279006
438 4 0.322912 0.490664 0.276325
434 4 0.33533 0.405241 0.340143
1435 2 0.258287 0.472411 0.325743
437 4 0.297621 0.459408 0.30606
436 2 0.310266 0.475036 0.291193
1437 4 0.278546 0.459202 0.319396
5 3 0.295787 0.448513 0.325336
446 4 0.439652 0.438458 0.242659
2862 4 0.490898 0.447684 0.304078
120 3 0.492744 0.42858 0.304979
2861 4 0.477008 0.446157 0.256062
714 4 0.435235 0.455412 0.249793
2860 2 0.483953 0.446921 0.28007
606 4 0.164447 0.0402459 0.379476
731 4 0.109559 0.060939 0.370464
428 4 0.098315 0.0446328 0.37346
427 2 0.0884906 0.0216919 0.375
730 2 0.128058 0.0737776 0.359596
604 2 0.170869 0.0227976 0.362758
605 4 0.177291 0.00534942 0.34604
682 2 0.213409 0.0415226 0.392872
684 4 0.198789 0.0215681 0.389233
683 4 0.228029 0.0614772 0.396512
247 2 0.310336 0.0788866 0.345987
439 2 0.269475 0.00854831 0.41403
633 4 0.351559 0.0904969 0.353038
425 4 0.399733 0.0237163 0.37046
480 4 0.490049 0.0120877 0.335557
256 2 0.464478 0.0760324 0.340792
424 2 0.415497 0.0430337 0.368585
426 4 0.431261 0.0623511 0.366711
258 4 0.449268 0.0632903 0.356007
2878 2 0.496811 0.0493517 0.415995
397 2 0.144873 0.126335 0.339242
732 4 0.146558 0.0866161 0.348728
398 4 0.142553 0.106545 0.354347
600 4 0.214704 0.129296 0.340639
686 4 0.195898 0.153562 0.387269
685 2 0.195769 0.139608 0.366521
687 4 0.19564 0.125655 0.345774
321 4 0.267196 0.126234 0.383717
248 4 0.333292 0.0840899 0.35442
467 4 0.32194 0.14234 0.414291
319 2 0.264653 0.114462 0.40563
632 4 0.378663 0.130224 0.366745
631 2 0.365111 0.11036 0.359891
453 4 0.497156 0.157224 0.408318
515 4 0.478589 0.160788 0.411282
2653 2 0.000556021 0.224513 0.359955
2654 4 0.0244631 0.21757 0.357628
617 4 0.0460016 0.255249 0.380201
274 2 0.140976 0.225768 0.357065
276 4 0.122954 0.241097 0.365153
275 4 0.158997 0.210438 0.348977
474 4 0.177807 0.210667 0.341034
472 2 0.201191 0.218702 0.344755
473 4 0.224574 0.226736 0.348476
708 4 0.238504 0.225228 0.364283
707 4 0.255837 0.188835 0.393877
706 2 0.247171 0.207031 0.37908
418 2 0.410692 0.19365 0.360511
419 4 0.391777 0.206955 0.351003
716 4 0.380166 0.219557 0.362384
715 2 0.369752 0.238397 0.375104
420 4 0.429606 0.180345 0.370018
269 4 0.462774 0.239494 0.359774
347 4 0.025134 0.297734 0.410621
618 4 0.0175084 0.294574 0.392134
616 2 0.031755 0.274912 0.386168
388 2 0.114493 0.274161 0.339228
389 4 0.125914 0.255519 0.351361
510 4 0.252613 0.316524 0.352031
374 4 0.240183 0.323482 0.36559
508 2 0.258106 0.292186 0.353663
509 4 0.2636 0.267848 0.355294
488 4 0.328711 0.265452 0.405616
498 4 0.320956 0.313375 0.359147
487 2 0.304291 0.262455 0.410074
717 4 0.359339 0.257236 0.387824
377 4 0.341688 0.2662 0.389112
376 2 0.340258 0.284858 0.372528
378 4 0.338829 0.303516 0.355945
268 2 0.481555 0.250733 0.371865
306 4 0.495308 0.259416 0.40291
2493 4 0.0095554 0.385964 0.326641
548 4 0.0501894 0.409316 0.366754
601 2 0.110626 0.398066 0.329497
603 4 0.0957514 0.37801 0.328201
502 2 0.213172 0.403812 0.395469
504 4 0.226046 0.382776 0.391352
373 2 0.239063 0.347282 0.373173
375 4 0.237942 0.371081 0.380756
496 2 0.320977 0.330032 0.3405
433 2 0.358947 0.413245 0.341976
334 2 0.360743 0.405203 0.422673
435 4 0.382564 0.421249 0.343809
561 4 0.457937 0.415501 0.405847
407 4 0.051704 0.428517 0.371714
406 2 0.0651942 0.433053 0.392272
408 4 0.0786844 0.437589 0.41283
501 4 0.147656 0.506582 0.360622
1436 4 0.238029 0.485621 0.332089
503 4 0.200298 0.424848 0.399585
636 4 0.205619 0.444006 0.401302
2 3 0.317386 0.42034 0.336853
3 3 0.280226 0.418684 0.342239
1 1 0.298632 0.432797 0.34157
668 4 0.312901 0.454125 0.37407
4 3 0.30146 0.443108 0.362164
667 2 0.333996 0.443027 0.381621
587 4 0.399623 0.495594 0.403762
669 4 0.355091 0.43193 0.389173
336 4 0.358852 0.416192 0.400294
119 3 0.494331 0.423058 0.34219
752 4 0.469743 0.425455 0.392718
593 4 0.458891 0.454468 0.363037
751 2 0.487946 0.426069 0.375588
592 2 0.455387 0.477441 0.372264
718 2 0.0682415 0.0450659 0.489774
2586 4 0.0127384 0.0648806 0.433123
719 4 0.0914791 0.0472524 0.480807
368 4 0.0901647 0.045989 0.434011
367 2 0.108778 0.0315272 0.442353
369 4 0.127391 0.0170653 0.450694
2430 4 0.214538 0.023048 0.46669
2428 2 0.238198 0.0195685 0.459393
341 4 0.234223 0.0770278 0.491969
2429 4 0.261859 0.0160889 0.452097
1182 4 0.250727 0.0657351 0.49385
441 4 0.266764 0.0241873 0.43335
1180 2 0.268713 0.0485025 0.496021
1181 4 0.286699 0.0312699 0.498192
726 4 0.311584 0.089151 0.465105
430 2 0.338773 0.0874293 0.496326
2880 4 0.474784 0.0579665 0.424106
642 4 0.47122 0.076687 0.428642
458 4 0.00653042 0.129253 0.474552
340 2 0.209806 0.0813221 0.488723
342 4 0.185389 0.0856164 0.485476
1152 4 0.182602 0.104828 0.49423
724 2 0.289764 0.0886818 0.452906
725 4 0.267944 0.0882127 0.440706
320 4 0.26211 0.102691 0.427542
466 2 0.331426 0.133498 0.435669
432 4 0.327915 0.0811422 0.474699
468 4 0.340912 0.124656 0.457046
641 4 0.480832 0.114223 0.460255
640 2 0.476026 0.0954551 0.444448
3158 4 0.484059 0.126177 0.47671
3157 2 0.480727 0.148819 0.466639
575 4 0.43673 0.172987 0.437484
469 2 0.0242757 0.232504 0.459369
470 4 0.00304101 0.236495 0.446786
471 4 0.0455104 0.228514 0.471953
261 4 0.136346 0.20237 0.473339
260 4 0.0972576 0.224255 0.451117
259 2 0.116802 0.213312 0.462228
410 4 0.249461 0.176287 0.494644
650 4 0.252117 0.222327 0.446226
411 4 0.243682 0.206057 0.454882
409 2 0.246571 0.191172 0.474763
649 2 0.256505 0.239009 0.428125
576 4 0.412947 0.185505 0.479655
514 2 0.454533 0.166449 0.415078
516 4 0.430476 0.17211 0.418875
3159 4 0.477395 0.17146 0.456567
574 2 0.424838 0.179246 0.458569
2814 4 0.0174916 0.331322 0.467121
348 4 0.0158226 0.330684 0.447067
346 2 0.0204783 0.314209 0.428844
695 4 0.119094 0.304065 0.46482
694 2 0.122634 0.284492 0.479971
696 4 0.126173 0.26492 0.495122
489 4 0.279872 0.259457 0.414533
651 4 0.260893 0.25569 0.410024
267 4 0.340984 0.261761 0.421556
265 2 0.36424 0.265654 0.429874
266 4 0.387496 0.269547 0.438192
585 4 0.397464 0.252086 0.437717
583 2 0.421538 0.258654 0.439299
2457 4 0.472911 0.307763 0.471158
2455 2 0.461206 0.286244 0.46615
2456 4 0.4495 0.264725 0.461142
584 4 0.445611 0.265222 0.440881
2812 2 0.00648208 0.352358 0.474961
326 4 0.096445 0.405713 0.434748
10 3 0.163739 0.349671 0.473754
7 3 0.132013 0.360485 0.45734
327 4 0.112136 0.361566 0.452227
325 2 0.10429 0.383639 0.443487
6 1 0.15383 0.366294 0.461747
709 2 0.153808 0.399494 0.418302
9 3 0.15402 0.386047 0.473921
711 4 0.168504 0.380606 0.425542
8 3 0.165008 0.369277 0.441634
382 2 0.111272 0.423089 0.497156
804 4 0.293052 0.385828 0.49533
335 4 0.362634 0.394214 0.445053
238 2 0.36241 0.362697 0.462222
240 4 0.364982 0.374993 0.440603
239 4 0.359838 0.350401 0.48384
2508 4 0.484491 0.374198 0.454261
559 2 0.466526 0.397321 0.42071
560 4 0.475115 0.379141 0.435573
680 4 0.0126472 0.475278 0.466686
1383 4 0.00358188 0.482162 0.483039
679 2 0.0108428 0.487777 0.445106
710 4 0.139112 0.418383 0.411061
570 4 0.138018 0.430907 0.426908
568 2 0.124711 0.441429 0.445275
569 4 0.111403 0.451952 0.463643
384 4 0.117646 0.438994 0.478947
772 2 0.221454 0.446836 0.477331
634 2 0.212408 0.452995 0.423624
635 4 0.219197 0.461985 0.445945
773 4 0.236843 0.440779 0.496085
774 4 0.206066 0.452892 0.458578
1454 4 0.308437 0.49405 0.507314
586 2 0.384823 0.482879 0.419398
1401 4 0.352178 0.491196 0.483857
1400 4 0.363201 0.457236 0.448844
1399 2 0.357689 0.474216 0.46635
588 4 0.370023 0.470165 0.435034
2712 4 0.487255 0.421032 0.453951
1126 2 0.0175903 0.0518385 0.528733
1127 4 0.0299787 0.0379624 0.512024
720 4 0.0450039 0.0428794 0.498741
951 4 0.206685 0.0497527 0.5675
1031 4 0.222425 0.0557013 0.556389
1030 2 0.243587 0.0570449 0.569637
961 2 0.296864 0.00710798 0.518368
963 4 0.300866 0.0173026 0.49589
431 4 0.349632 0.0937163 0.517954
841 2 0.370362 0.0714777 0.546229
843 4 0.350386 0.0771107 0.532286
842 4 0.390338 0.0658448 0.560172
4466 4 0.455117 0.0195511 0.566066
1062 4 0.470488 0.0138181 0.578444
1218 4 0.449009 0.075599 0.529689
1216 2 0.425577 0.0736504 0.538194
1033 2 0.0608326 0.147152 0.514995
1035 4 0.0447514 0.128905 0.520795
939 4 0.151548 0.150486 0.517144
1151 4 0.158452 0.13428 0.526635
1150 2 0.170527 0.119554 0.510433
899 4 0.301447 0.159944 0.544541
857 4 0.284489 0.170303 0.540911
1217 4 0.402145 0.0717018 0.546698
1199 4 0.022645 0.175367 0.562047
1198 2 0.99805 0.173851 0.557809
1034 4 0.0769138 0.165398 0.509195
878 4 0.0801426 0.242811 0.550382
937 2 0.144657 0.170242 0.503455
877 2 0.0817363 0.22696 0.569654
938 4 0.137767 0.189998 0.489765
898 2 0.322401 0.173393 0.542249
798 4 0.260708 0.248346 0.579757
856 2 0.271483 0.174661 0.561816
858 4 0.258477 0.17902 0.582722
796 2 0.257839 0.223637 0.582287
900 4 0.343355 0.186841 0.539957
871 2 0.351195 0.22131 0.554622
872 4 0.358329 0.19841 0.547559
873 4 0.34406 0.24421 0.561684
1258 2 0.154838 0.265962 0.525998
1260 4 0.134042 0.261811 0.512752
1259 4 0.175635 0.270114 0.539244
1237 2 0.250364 0.332567 0.588141
812 4 0.298742 0.270431 0.538425
811 2 0.315795 0.263361 0.55529
813 4 0.332848 0.256292 0.572155
953 4 0.455204 0.273164 0.585047
1137 4 0.136577 0.370439 0.560704
383 4 0.104898 0.407184 0.515365
897 4 0.149754 0.357518 0.570203
1239 4 0.258036 0.355293 0.58108
895 2 0.17358 0.364294 0.566799
1189 2 0.225463 0.353916 0.542517
896 4 0.197406 0.37107 0.563395
1191 4 0.212422 0.356988 0.563627
1190 4 0.238505 0.350844 0.521406
803 4 0.254737 0.357956 0.511325
1173 4 0.260668 0.398273 0.574255
802 2 0.273895 0.371892 0.503327
928 2 0.369557 0.382251 0.560037
930 4 0.381484 0.379287 0.581811
929 4 0.35763 0.385215 0.538262
925 2 0.479891 0.397685 0.536
926 4 0.483429 0.413937 0.554669
927 4 0.476353 0.381432 0.517332
1001 4 0.465657 0.411027 0.563223
538 2 0.0460814 0.468786 0.531901
540 4 0.0326201 0.449318 0.539961
539 4 0.0595426 0.488254 0.523841
2243 4 0.180085 0.496389 0.588629
1171 2 0.269123 0.417715 0.561
1172 4 0.277578 0.437157 0.547745
882 4 0.27578 0.437279 0.528902
880 2 0.286294 0.459177 0.522978
891 4 0.309004 0.468097 0.588599
1951 2 0.316525 0.5064 0.574111
881 4 0.296809 0.481075 0.517053
1952 4 0.317991 0.486424 0.589077
1000 2 0.456421 0.430573 0.575787
1910 4 0.440278 0.468763 0.585418
1002 4 0.447185 0.450118 0.588352
1185 4 0.025049 0.0249424 0.649337
945 4 0.0371138 0.0298853 0.664725
1183 2 0.00735305 0.0415602 0.643347
1058 4 0.0971255 0.0366966 0.591468
1057 2 0.112639 0.0558064 0.587073
825 4 0.0882941 0.0190222 0.591324
950 4 0.165961 0.0537526 0.596244
1059 4 0.128153 0.0749162 0.582678
949 2 0.186323 0.0517526 0.581872
1032 4 0.26475 0.0583886 0.582885
1004 4 0.367626 0.0507538 0.625166
1003 2 0.358997 0.0559389 0.648054
4465 2 0.442423 0.0336633 0.582342
4467 4 0.429729 0.0477756 0.598617
2283 4 0.415626 0.0622871 0.602983
2282 4 0.425975 0.0494232 0.650186
2281 2 0.4208 0.0558551 0.626585
43 3 0.443233 0.0533125 0.659405
45 3 0.477153 0.0585509 0.643924
810 4 0.496426 0.0545255 0.641768
41 1 0.465299 0.0593051 0.663355
1082 4 0.0642839 0.154987 0.616703
1081 2 0.0436137 0.156052 0.630731
1083 4 0.0229436 0.157117 0.64476
1155 4 0.134306 0.0928622 0.580932
1153 2 0.152279 0.109864 0.584551
1154 4 0.170253 0.126865 0.588169
1221 4 0.188208 0.11858 0.590418
1219 2 0.202973 0.126665 0.608906
1220 4 0.217738 0.134751 0.627393
1212 4 0.237552 0.133632 0.62861
1210 2 0.249167 0.12959 0.650379
1142 4 0.343214 0.155407 0.639718
3426 4 0.497186 0.14119 0.628944
879 4 0.0833301 0.21111 0.588926
1272 4 0.0941036 0.20528 0.603691
1270 2 0.110629 0.197605 0.620814
1271 4 0.127154 0.189931 0.637938
909 4 0.137047 0.20698 0.634955
907 2 0.161338 0.210432 0.639772
1209 4 0.081063 0.239693 0.667727
908 4 0.185629 0.213885 0.64459
947 4 0.20045 0.220535 0.633367
946 2 0.208014 0.233919 0.613648
797 4 0.254969 0.198927 0.584817
1141 2 0.358972 0.17469 0.641964
1143 4 0.374729 0.193974 0.64421
1025 4 0.391969 0.188362 0.637272
1026 4 0.43588 0.167727 0.625159
904 2 0.484443 0.243803 0.583032
1024 2 0.413924 0.178044 0.631215
1244 4 0.0672962 0.318102 0.659823
948 4 0.215579 0.247302 0.593929
792 4 0.257078 0.296843 0.598945
1238 4 0.242693 0.309841 0.595202
791 4 0.262528 0.278917 0.645309
790 2 0.259803 0.28788 0.622127
905 4 0.463307 0.256617 0.579259
952 2 0.438801 0.289802 0.593951
954 4 0.422398 0.30644 0.602855
3121 2 0.491126 0.270235 0.655667
3123 4 0.483982 0.288766 0.640477
1205 4 0.422898 0.324496 0.592869
983 4 0.0309039 0.370482 0.638626
1039 2 0.0681053 0.380592 0.642147
1041 4 0.0466348 0.370643 0.650222
982 2 0.00669632 0.374852 0.634146
1040 4 0.0895757 0.390541 0.634072
1135 2 0.11617 0.370719 0.575148
1136 4 0.0957624 0.370999 0.589592
993 4 0.102182 0.406786 0.632791
991 2 0.122561 0.419588 0.639575
1206 4 0.392874 0.363178 0.582722
1204 2 0.407886 0.343837 0.587795
992 4 0.142939 0.432389 0.646358
2170 2 0.123451 0.49894 0.646879
2172 4 0.119933 0.477033 0.635351
1160 4 0.204528 0.441992 0.579961
1159 2 0.187341 0.459812 0.583464
1161 4 0.170154 0.477631 0.586967
1187 4 0.283969 0.491975 0.619929
890 4 0.297686 0.421255 0.601958
889 2 0.303345 0.444676 0.595279
1186 2 0.267374 0.506381 0.631858
1909 2 0.443966 0.492601 0.578834
2319 4 0.0124946 0.0315573 0.709081
943 2 0.0579807 0.0431219 0.668539
944 4 0.0788475 0.0563584 0.672353
1075 2 0.0455808 0.0414068 0.736858
1076 4 0.0251589 0.03586 0.72354
1077 4 0.0660028 0.0469537 0.750175
1005 4 0.350367 0.0611239 0.670941
44 3 0.466214 0.0806691 0.672363
1163 4 0.483152 0.0602102 0.687758
42 3 0.474448 0.044496 0.678392
1162 2 0.500198 0.0569948 0.705765
1283 4 0.179959 0.0975786 0.668895
1282 2 0.198759 0.103621 0.684233
1284 4 0.217558 0.109664 0.69957
1227 4 0.212827 0.120908 0.715237
1225 2 0.210703 0.140409 0.730741
888 4 0.265008 0.113884 0.686394
1211 4 0.260782 0.125548 0.672149
886 2 0.287325 0.123261 0.692653
887 4 0.309643 0.132639 0.698913
830 4 0.32732 0.139184 0.698156
829 2 0.333421 0.157937 0.713528
1146 4 0.498108 0.141092 0.727038
1144 2 0.487322 0.160326 0.715253
1105 2 0.0584715 0.182815 0.728966
1107 4 0.0525803 0.20022 0.712009
851 4 0.0350711 0.209267 0.708095
850 2 0.0157899 0.223993 0.702049
1106 4 0.0643628 0.16541 0.745923
35 3 0.073432 0.175751 0.761286
822 4 0.135499 0.223936 0.722738
820 2 0.124284 0.246185 0.720647
1278 4 0.15534 0.224721 0.726419
1276 2 0.153037 0.206062 0.742903
918 4 0.290733 0.222912 0.749712
916 2 0.290039 0.246755 0.742215
831 4 0.339521 0.17669 0.728899
1192 2 0.394278 0.223586 0.710352
1194 4 0.398104 0.199032 0.713109
1262 4 0.416445 0.19491 0.70625
1261 2 0.439422 0.186846 0.711925
1263 4 0.462399 0.178782 0.7176
1145 4 0.476537 0.179561 0.703468
1245 4 0.018464 0.319918 0.670446
1207 2 0.0808901 0.256591 0.686155
1243 2 0.0428801 0.31901 0.665135
1179 4 0.00591507 0.303894 0.672519
1208 4 0.0807172 0.27349 0.704583
1177 2 0.0020284 0.28099 0.681764
821 4 0.113068 0.268434 0.718557
1064 4 0.215316 0.271294 0.729954
1063 2 0.221714 0.270648 0.705792
1065 4 0.228112 0.270002 0.681629
917 4 0.289346 0.270598 0.734718
1097 4 0.278926 0.277637 0.74997
1193 4 0.390452 0.248141 0.707594
806 4 0.426081 0.265548 0.730718
805 2 0.420323 0.288861 0.723753
807 4 0.414565 0.312175 0.716788
3357 4 0.501175 0.243331 0.688573
1280 4 0.0415635 0.41461 0.732203
3275 4 0.0370042 0.409522 0.75086
894 4 0.0699371 0.401737 0.669279
940 2 0.142884 0.416795 0.724859
941 4 0.155452 0.405682 0.706319
1067 4 0.171742 0.416087 0.710328
1066 2 0.194072 0.40712 0.703535
1068 4 0.216401 0.398152 0.696741
1028 4 0.224712 0.40457 0.680303
1140 4 0.324266 0.402983 0.721851
1018 2 0.417026 0.346169 0.729733
1020 4 0.424393 0.328915 0.713205
3330 4 0.489487 0.406341 0.716995
3328 2 0.466193 0.41291 0.723274
2020 2 0.0563893 0.495536 0.7243
892 2 0.0755477 0.41167 0.691528
1281 4 0.0385613 0.463221 0.720858
1279 2 0.0400624 0.438916 0.726531
2021 4 0.0392412 0.479242 0.732403
893 4 0.0811584 0.421604 0.713777
1027 2 0.247 0.409728 0.690394
1175 4 0.244851 0.521144 0.709037
1029 4 0.269288 0.414885 0.700484
1138 2 0.305152 0.413516 0.709649
1139 4 0.286038 0.42405 0.697447
1987 2 0.309289 0.462356 0.747445
1989 4 0.318747 0.447361 0.729813
1229 4 0.337022 0.450823 0.724228
1228 2 0.356436 0.436438 0.730659
1230 4 0.375849 0.422053 0.737091
1100 4 0.493533 0.48664 0.752754
1099 2 0.497593 0.499891 0.731943
3329 4 0.4429 0.419479 0.729553
1203 4 0.0690703 0.0503992 0.770523
1201 2 0.092236 0.0410626 0.769357
1202 4 0.115402 0.0317261 0.768191
2049 4 0.126277 0.0164818 0.769453
1148 4 0.202837 0.023724 0.752224
1147 2 0.209915 0.0387858 0.770885
1149 4 0.216993 0.0538475 0.789546
1049 4 0.268149 0.0244326 0.810985
1048 2 0.287635 0.0104945 0.818141
1256 4 0.313556 0.0687588 0.746669
1255 2 0.302685 0.0675679 0.769154
1257 4 0.291813 0.066377 0.791639
1112 4 0.429237 0.015904 0.811052
846 4 0.46798 0.0423871 0.790435
1113 4 0.453087 0.0426353 0.776161
1111 2 0.441162 0.0292696 0.793606
844 2 0.489424 0.0534619 0.783901
864 4 0.0400244 0.0840151 0.813976
911 4 0.0473972 0.0845144 0.833117
862 2 0.0305245 0.103882 0.802134
832 2 0.0140136 0.165865 0.775846
863 4 0.0210246 0.123749 0.790292
833 4 0.0126565 0.14128 0.780196
33 3 0.0850543 0.15221 0.788276
31 1 0.0917041 0.167137 0.771802
32 3 0.104713 0.155974 0.756463
1226 4 0.208579 0.15991 0.746245
1130 4 0.20028 0.154907 0.763416
840 4 0.247635 0.135657 0.782315
1129 2 0.178521 0.165956 0.768859
838 2 0.255992 0.134752 0.805863
839 4 0.264349 0.133847 0.829411
959 4 0.282374 0.140335 0.830922
819 4 0.396816 0.0994744 0.822007
1084 2 0.38115 0.121986 0.793488