ITEM: TIMESTEP
990000
ITEM: NUMBER OF ATOMS
4590
ITEM: BOX BOUNDS pp pp pp
-9.9985700000000008e+00 9.9985700000000008e+00
-9.9985700000000008e+00 9.9985700000000008e+00
-9.9985700000000008e+00 9.9985700000000008e+00
ITEM: ATOMS id type xs ys zs
463 2 0.0396778 0.059746 0.0318858
464 4 0.0422246 0.0383732 0.019162
3290 4 0.0515173 0.0282512 0.00516229
1668 4 0.0684193 0.0276924 0.0582914
1666 2 0.0863431 0.0372866 0.0728471
1476 4 0.206149 0.0329398 0.0559633
1474 2 0.218844 0.0301542 0.0346031
1475 4 0.231539 0.0273686 0.013243
492 4 0.249356 0.0207119 0.0101645
745 2 0.46406 0.0666703 0.0201809
746 4 0.456208 0.0807358 0.0393039
747 4 0.471912 0.0526049 0.00105798
2722 2 0.490008 0.04585 0.0727009
1827 4 0.490444 0.990128 0.0454749
465 4 0.0371309 0.0811189 0.0446095
591 4 0.0570332 0.084893 0.0573533
701 4 0.0621527 0.0875877 0.0356567
700 2 0.0662169 0.109501 0.0243227
423 4 0.0702882 0.159464 0.00472399
2760 4 0.00713453 0.118346 0.02333
589 2 0.0588045 0.094176 0.0805021
702 4 0.0702811 0.131415 0.0129886
3234 4 0.0581542 0.142613 0.00269143
567 4 0.171233 0.0958391 0.0841119
565 2 0.187407 0.10743 0.068971
566 4 0.20358 0.11902 0.05383
360 4 0.258125 0.144308 0.0102292
1133 4 0.21279 0.157659 0.0222146
358 2 0.276468 0.12814 0.0154562
359 4 0.294811 0.111973 0.0206832
558 4 0.378598 0.124102 0.0853847
665 4 0.386395 0.136199 0.00674386
664 2 0.377643 0.159612 0.0060875
771 4 0.48115 0.129975 0.0808996
421 2 0.0627733 0.174428 0.0232927
553 2 0.0249468 0.208521 0.0493688
422 4 0.0552583 0.189391 0.0418615
555 4 0.0422037 0.192994 0.0586567
554 4 0.00768981 0.224049 0.040081
353 4 0.274086 0.205983 0.0734986
461 4 0.294241 0.202774 0.0711952
352 2 0.250593 0.198607 0.077837
1069 2 0.408976 0.24406 0.0213263
666 4 0.368892 0.183024 0.00543114
1070 4 0.43046 0.241563 0.00878025
1014 4 0.482062 0.174713 0.0110281
1012 2 0.498797 0.193285 0.011492
292 2 0.161386 0.29413 0.0354668
294 4 0.147057 0.314483 0.033091
456 4 0.145339 0.321206 0.051919
454 2 0.139681 0.326233 0.0757497
505 2 0.177321 0.26151 0.0783829
507 4 0.176481 0.27555 0.0577106
293 4 0.175714 0.273778 0.0378427
481 2 0.23644 0.284254 0.0296729
482 4 0.230066 0.287262 0.0536626
483 4 0.242814 0.281246 0.00568327
1071 4 0.387493 0.246557 0.0338724
573 4 0.384659 0.255859 0.0525744
571 2 0.372769 0.275073 0.0632796
324 4 0.426777 0.261847 0.0570575
322 2 0.435284 0.254939 0.0795317
1168 2 0.0416449 0.336484 0.00628957
330 4 0.0329952 0.420391 0.0173404
328 2 0.0310903 0.39722 0.00813906
1169 4 0.0393412 0.361177 0.00946819
329 4 0.0291855 0.37405 0.998938
252 4 0.263746 0.397312 0.0673667
250 2 0.28556 0.395858 0.0552335
608 4 0.260034 0.39027 0.0865041
251 4 0.307374 0.394405 0.0431004
281 4 0.443484 0.343331 0.0765932
671 4 0.422852 0.346827 0.0770942
280 2 0.467407 0.349198 0.0723028
282 4 0.491331 0.355065 0.0680125
314 4 0.035887 0.457162 0.0719175
550 2 0.045634 0.486321 0.047899
552 4 0.0490051 0.464284 0.0592212
244 2 0.220304 0.470863 0.0191068
246 4 0.222973 0.484379 0.0399729
272 4 0.239932 0.493151 0.0475869
1440 4 0.227682 0.494283 0.0732976
227 4 0.415725 0.422092 0.0281956
226 2 0.430143 0.429961 0.00934441
19 3 0.0487918 0.022224 0.136052
20 3 0.0767665 0.00866431 0.11481
1422 4 0.033638 0.0250589 0.151391
16 1 0.0689962 0.0270791 0.125726
17 3 0.065704 0.0440538 0.110555
18 3 0.0844953 0.034043 0.141528
2480 4 0.0284785 0.0325319 0.129997
2479 2 0.00548633 0.0248762 0.123838
1667 4 0.104267 0.0468808 0.0874028
1506 4 0.186617 0.0118168 0.151709
450 4 0.163665 0.077515 0.164532
653 4 0.247435 0.029374 0.164283
693 4 0.237496 0.0477096 0.164628
652 2 0.251401 0.0268037 0.13973
654 4 0.255367 0.0242335 0.115177
484 2 0.329368 0.0185607 0.142386
486 4 0.318835 0.0116735 0.163992
582 4 0.298566 0.0725995 0.128783
485 4 0.339902 0.0254479 0.120781
296 4 0.373602 0.0686164 0.101029
295 2 0.362575 0.0462934 0.103326
297 4 0.351548 0.0239704 0.105622
758 4 0.378661 0.0293226 0.173826
1760 4 0.48928 0.018499 0.14743
2723 4 0.474932 0.0305369 0.0854837
1759 2 0.474273 0.998802 0.150898
590 4 0.0605757 0.103459 0.103651
449 4 0.142799 0.122828 0.161063
448 2 0.153232 0.100172 0.162798
580 2 0.299798 0.0736042 0.153736
556 2 0.368908 0.102174 0.0924891
557 4 0.359219 0.0802463 0.0995935
769 2 0.480747 0.144743 0.101071
337 2 0.0843819 0.251841 0.13823
339 4 0.0910811 0.229006 0.130559
477 4 0.167416 0.17865 0.14028
506 4 0.178162 0.24747 0.0990553
475 2 0.174767 0.196006 0.156708
354 4 0.227099 0.191231 0.0821755
737 4 0.175897 0.228436 0.0979577
738 4 0.216139 0.198758 0.0972527
736 2 0.196018 0.213597 0.0976052
460 2 0.301637 0.204577 0.0950118
462 4 0.309033 0.206379 0.118828
255 4 0.327164 0.212238 0.125601
277 2 0.277986 0.240193 0.146586
254 4 0.372216 0.190984 0.121212
630 4 0.391294 0.185839 0.126239
253 2 0.34969 0.201611 0.123406
628 2 0.406175 0.205361 0.12148
624 4 0.431244 0.241821 0.117788
629 4 0.421057 0.224882 0.116722
2591 4 0.495065 0.178756 0.164317
323 4 0.44379 0.248031 0.102006
770 4 0.480344 0.159512 0.121243
338 4 0.0776826 0.274677 0.145901
455 4 0.134024 0.33126 0.0995803
610 2 0.233749 0.331207 0.137037
611 4 0.236675 0.327224 0.161547
278 4 0.286297 0.259532 0.133091
755 4 0.285755 0.252975 0.114517
756 4 0.321304 0.284056 0.0980578
754 2 0.30353 0.268515 0.106287
572 4 0.360879 0.294288 0.0739847
741 4 0.357328 0.299442 0.0927067
739 2 0.347187 0.319784 0.103125
622 2 0.430358 0.25669 0.137871
623 4 0.429473 0.271559 0.157953
527 4 0.447994 0.270967 0.162625
621 4 0.0597407 0.410688 0.0988701
619 2 0.0631837 0.399057 0.120734
620 4 0.0666268 0.387426 0.142599
647 4 0.0853733 0.377522 0.141203
646 2 0.0928245 0.36896 0.163481
535 2 0.1802 0.382733 0.150073
536 4 0.173393 0.401953 0.1356
612 4 0.230822 0.335189 0.112527
609 4 0.234691 0.348972 0.09887
607 2 0.247363 0.369621 0.092687
302 4 0.33428 0.393768 0.160803
740 4 0.337046 0.340126 0.113543
386 4 0.343465 0.335584 0.132008
385 2 0.335637 0.354806 0.145951
387 4 0.327809 0.374029 0.159894
495 4 0.409087 0.403705 0.145569
672 4 0.412027 0.357341 0.12477
670 2 0.41744 0.352084 0.100932
12 3 0.399064 0.366182 0.137536
11 1 0.406515 0.370996 0.15876
15 3 0.393482 0.360108 0.173934
595 2 0.458912 0.350147 0.145486
596 4 0.470326 0.343265 0.12433
597 4 0.447499 0.357028 0.166641
313 2 0.0431988 0.441949 0.0903641
315 4 0.0505107 0.426736 0.108811
626 4 0.193144 0.435097 0.114737
625 2 0.207049 0.446245 0.132273
627 4 0.220955 0.457394 0.149809
1438 2 0.238168 0.497663 0.0957429
1439 4 0.248654 0.501044 0.118188
637 2 0.247707 0.487409 0.156104
639 4 0.256347 0.500291 0.136493
524 4 0.356652 0.464134 0.0837283
523 2 0.350984 0.464524 0.108078
525 4 0.345317 0.464915 0.132428
301 2 0.339221 0.418276 0.161148
303 4 0.344163 0.442784 0.161492
493 2 0.416776 0.424987 0.134933
494 4 0.424466 0.446268 0.124296
1420 2 0.0351429 0.00406473 0.164887
690 4 0.164005 0.0459132 0.236014
674 4 0.157614 0.0432498 0.255461
688 2 0.17575 0.0286819 0.222219
691 2 0.224245 0.0513536 0.185516
692 4 0.210995 0.0549977 0.206405
689 4 0.187496 0.0114506 0.208424
1700 4 0.322145 0.0658027 0.241717
28 3 0.280067 0.0762229 0.218314
1699 2 0.305771 0.0487558 0.249871
21 1 0.360316 0.073041 0.236517
25 3 0.365893 0.0597244 0.218904
759 4 0.368298 0.0701153 0.200832
757 2 0.37348 0.0497189 0.187329
23 3 0.342269 0.0639453 0.247917
236 4 0.151136 0.136748 0.175842
579 4 0.114239 0.161615 0.207631
577 2 0.0900007 0.166137 0.21178
235 2 0.161591 0.148761 0.195117
237 4 0.172047 0.160774 0.214393
722 4 0.199062 0.11803 0.243353
546 4 0.188294 0.13529 0.242791
581 4 0.30103 0.0746088 0.178689
30 3 0.291048 0.0914627 0.185682
26 1 0.291708 0.0936426 0.208342
29 3 0.282447 0.113973 0.214613
27 3 0.313596 0.0929532 0.215385
24 3 0.355006 0.0943323 0.228975
312 4 0.423654 0.102887 0.190843
311 4 0.424704 0.140156 0.224169
310 2 0.424179 0.121521 0.207506
512 4 0.00786762 0.16939 0.195902
513 4 0.0496425 0.179032 0.221643
511 2 0.0287551 0.174211 0.208772
578 4 0.0657619 0.170658 0.215929
381 4 0.00393351 0.175755 0.177848
476 4 0.182118 0.213363 0.173136
284 4 0.254407 0.221244 0.214212
371 4 0.173715 0.243298 0.243631
279 4 0.269676 0.220854 0.160081
285 4 0.27878 0.232603 0.256374
283 2 0.266594 0.226924 0.235293
765 4 0.392829 0.21142 0.229381
763 2 0.415307 0.215753 0.239437
521 4 0.44837 0.222453 0.233375
520 2 0.470801 0.221447 0.244376
764 4 0.437785 0.220086 0.249494
705 4 0.00778681 0.334546 0.176322
394 2 0.0738458 0.291242 0.21184
396 4 0.0537408 0.297597 0.225279
443 4 0.0444985 0.309491 0.237602
395 4 0.0939508 0.284888 0.198402
363 4 0.100676 0.266513 0.190626
362 4 0.148257 0.281819 0.192196
361 2 0.124467 0.274166 0.191411
372 4 0.155682 0.276689 0.211066
370 2 0.164699 0.259993 0.227348
345 4 0.236379 0.284599 0.227751
343 2 0.25503 0.300391 0.233039
344 4 0.27368 0.316183 0.238327
309 4 0.281517 0.323119 0.255821
526 2 0.452032 0.282804 0.184276
528 4 0.456069 0.294641 0.205927
749 4 0.0622404 0.360727 0.241491
748 2 0.0790937 0.360766 0.223021
750 4 0.0959469 0.360804 0.204551
300 4 0.116481 0.363139 0.207548
648 4 0.100276 0.360397 0.18576
298 2 0.131991 0.375966 0.222383
299 4 0.147502 0.388793 0.237217
537 4 0.187008 0.363514 0.164545
290 4 0.227587 0.398091 0.21496
14 3 0.405171 0.393909 0.162165
13 3 0.428539 0.36397 0.160752
643 2 0.444565 0.368644 0.207795
644 4 0.440241 0.382763 0.227973
645 4 0.448888 0.354526 0.187617
447 4 0.445785 0.396332 0.240935
263 4 0.0557382 0.48633 0.207353
262 2 0.0496913 0.464415 0.196943
264 4 0.0436444 0.4425 0.186534
417 4 0.165102 0.466523 0.166707
1757 4 0.109873 0.452678 0.254611
1430 4 0.169129 0.483543 0.174192
289 2 0.216755 0.420624 0.215313
415 2 0.17793 0.454401 0.184418
291 4 0.205924 0.443158 0.215666
416 4 0.190758 0.442279 0.202129
766 2 0.22721 0.475258 0.206826
768 4 0.228428 0.463474 0.228844
767 4 0.225992 0.487043 0.184807
414 4 0.209799 0.456213 0.231337
638 4 0.239068 0.474527 0.175715
659 4 0.356901 0.443391 0.17741
660 4 0.359523 0.478574 0.21285
658 2 0.358212 0.460982 0.19513
231 4 0.344606 0.492973 0.213236
232 2 0.0367073 0.0221586 0.326101
233 4 0.0557939 0.00650676 0.322114
673 2 0.152991 0.0583146 0.274873
675 4 0.148367 0.0733795 0.294286
1701 4 0.289397 0.031709 0.258024
1518 4 0.348989 0.0175802 0.302703
697 2 0.375953 0.0473483 0.28707
699 4 0.363782 0.0269215 0.294803
698 4 0.388124 0.0677751 0.279337
22 3 0.378222 0.0744924 0.250886
744 4 0.504689 0.999586 0.246375
1747 2 0.465837 0.0100121 0.338752
743 4 0.478301 0.0385413 0.263311
742 2 0.491495 0.0190636 0.254843
351 4 0.480741 0.0522561 0.27673
349 2 0.46803 0.0737819 0.277239
257 4 0.447385 0.0840726 0.317585
256 2 0.452718 0.0653615 0.333289
531 4 0.00780589 0.161356 0.287133
399 4 0.12992 0.153161 0.316262
397 2 0.12508 0.132572 0.329597
723 4 0.23964 0.100221 0.266526
721 2 0.219351 0.109125 0.254939
544 2 0.175492 0.154858 0.251644
599 4 0.226071 0.128225 0.295961
404 4 0.234573 0.145119 0.298852
598 2 0.214711 0.118999 0.316234
403 2 0.227859 0.162621 0.282305
248 4 0.320919 0.0991274 0.324722
249 4 0.2762 0.108255 0.304287
247 2 0.298559 0.103691 0.314505
333 4 0.390935 0.0835824 0.266737
331 2 0.413558 0.089141 0.275818
332 4 0.436182 0.0946996 0.284899
350 4 0.45532 0.0953077 0.277748
762 4 0.43994 0.0997759 0.304632
760 2 0.442682 0.123937 0.310454
761 4 0.445424 0.148099 0.316276
529 2 0.00570324 0.18444 0.277759
393 4 0.132751 0.172409 0.319478
392 4 0.146961 0.18137 0.272377
391 2 0.139856 0.176889 0.295928
545 4 0.16269 0.174426 0.260497
405 4 0.221144 0.180123 0.265759
401 4 0.225493 0.199748 0.263834
400 2 0.223009 0.223239 0.27203
402 4 0.220524 0.24673 0.280226
418 2 0.3781 0.21387 0.335586
420 4 0.38803 0.199284 0.317871
522 4 0.493232 0.220441 0.255377
444 4 0.0696642 0.314825 0.280485
442 2 0.0570813 0.312158 0.259044
390 4 0.100806 0.28347 0.305153
388 2 0.110952 0.273811 0.325864
307 2 0.29674 0.33136 0.273864
497 4 0.319669 0.322238 0.297644
496 2 0.335052 0.314615 0.315822
498 4 0.350435 0.306992 0.333999
615 4 0.417132 0.331809 0.313061
543 4 0.432964 0.333072 0.300441
541 2 0.449492 0.316218 0.308684
542 4 0.46602 0.299364 0.316926
365 4 0.0149031 0.385252 0.298044
2493 4 0.0163489 0.400799 0.323396
364 2 0.0219724 0.371513 0.278386
366 4 0.0290418 0.357773 0.258728
549 4 0.0272956 0.411481 0.310046
547 2 0.0484694 0.418176 0.321537
2491 2 0.999012 0.386018 0.333696
548 4 0.0696433 0.42487 0.333027
601 2 0.116847 0.381482 0.324148
734 4 0.148925 0.374322 0.25186
733 2 0.146839 0.36594 0.275325
602 4 0.12579 0.393685 0.304241
735 4 0.144754 0.357558 0.298789
777 4 0.131575 0.411254 0.298446
677 4 0.163486 0.353349 0.299549
676 2 0.185939 0.353256 0.310551
678 4 0.208392 0.353163 0.321553
308 4 0.311962 0.339601 0.291907
729 4 0.29413 0.363813 0.306911
727 2 0.315285 0.376297 0.311579
728 4 0.33644 0.388781 0.316246
613 2 0.406754 0.34804 0.328999
434 4 0.34093 0.387666 0.336673
445 2 0.450313 0.416788 0.254581
499 2 0.134556 0.500861 0.329309
1756 2 0.104044 0.476131 0.261024
776 4 0.104981 0.444643 0.272396
775 2 0.118278 0.427948 0.285421
1758 4 0.0982143 0.499584 0.267438
413 4 0.194283 0.452637 0.278741
412 2 0.202041 0.454425 0.255039
1436 4 0.2172 0.487582 0.321757
1543 2 0.185575 0.489884 0.326005
1545 4 0.205664 0.476607 0.332738
1435 2 0.239922 0.482842 0.331054
438 4 0.318209 0.484942 0.269928
437 4 0.270225 0.473247 0.27777
436 2 0.294217 0.479094 0.273849
3 3 0.267664 0.434941 0.337649
713 4 0.400319 0.466222 0.296112
2861 4 0.490696 0.476949 0.264999
446 4 0.454841 0.437245 0.268226
2860 2 0.490135 0.459458 0.282858
712 2 0.41771 0.451419 0.285933
714 4 0.435101 0.436616 0.275754
234 4 0.0176206 0.0378104 0.330089
317 4 0.0140918 0.0582517 0.332594
428 4 0.0790861 0.0454812 0.369085
731 4 0.0764966 0.0652836 0.370701
316 2 0.0244069 0.0781039 0.34376
427 2 0.0858292 0.022053 0.363532
730 2 0.0900443 0.0830609 0.359493
606 4 0.14785 0.00963899 0.357422
604 2 0.159312 0.0284529 0.345596
368 4 0.124673 0.00962548 0.4107
605 4 0.170774 0.0472668 0.333771
682 2 0.24706 0.0502498 0.400254
684 4 0.238177 0.0665448 0.383498
632 4 0.376446 0.090104 0.362457
425 4 0.425956 0.0420898 0.39477
480 4 0.48396 0.0351248 0.331377
1749 4 0.471605 0.0330288 0.346635
2879 4 0.480327 0.0457575 0.394207
424 2 0.428899 0.0336393 0.371422
426 4 0.431841 0.0251888 0.348075
258 4 0.45805 0.0466505 0.348994
2878 2 0.484986 0.060942 0.413518
318 4 0.0347221 0.0979561 0.354925
398 4 0.120241 0.111982 0.342933
732 4 0.103592 0.100838 0.348286
600 4 0.203352 0.109773 0.336508
686 4 0.170466 0.141877 0.38255
685 2 0.180139 0.133817 0.360947
687 4 0.189813 0.125758 0.339345
633 4 0.335215 0.0878508 0.334251
467 4 0.328804 0.16386 0.410658
631 2 0.355831 0.0889774 0.348354
453 4 0.478482 0.150136 0.378507
451 2 0.50105 0.143247 0.370238
2654 4 0.0118973 0.226945 0.350869
274 2 0.154574 0.236278 0.339995
276 4 0.137423 0.254426 0.34129
275 4 0.171726 0.218131 0.3387
474 4 0.189441 0.223547 0.332697
472 2 0.211677 0.223193 0.344126
473 4 0.233913 0.22284 0.355554
707 4 0.290637 0.211749 0.367265
708 4 0.243558 0.227386 0.373569
706 2 0.267098 0.219568 0.370417
419 4 0.36817 0.228456 0.353301
716 4 0.36791 0.220791 0.371698
715 2 0.357345 0.236849 0.387688
515 4 0.476512 0.170985 0.379967
514 2 0.465335 0.167376 0.40204
268 2 0.474621 0.252744 0.384326
270 4 0.468143 0.259659 0.407465
618 4 0.0332939 0.268151 0.404275
616 2 0.0471653 0.259759 0.38524
617 4 0.0610367 0.251367 0.366205
347 4 0.0449658 0.282498 0.413024
389 4 0.121098 0.264151 0.346575
508 2 0.231343 0.290934 0.387776
509 4 0.21669 0.274725 0.375621
510 4 0.245996 0.307144 0.399931
374 4 0.251307 0.324234 0.391614
488 4 0.310606 0.270462 0.394709
487 2 0.289279 0.262095 0.404727
489 4 0.267953 0.253729 0.414745
377 4 0.329309 0.272724 0.389161
717 4 0.34678 0.252907 0.403679
376 2 0.333951 0.283348 0.367007
378 4 0.338594 0.293971 0.344854
267 4 0.337848 0.271278 0.406753
269 4 0.481099 0.245829 0.361188
585 4 0.424669 0.287159 0.40586
603 4 0.107905 0.36928 0.344055
502 2 0.215529 0.401173 0.40614
504 4 0.230726 0.381568 0.403001
373 2 0.249824 0.348349 0.39805
375 4 0.248341 0.372465 0.404487
433 2 0.35938 0.404455 0.338382
614 4 0.396376 0.364271 0.344938
335 4 0.371354 0.386596 0.407379
334 2 0.361918 0.409716 0.406123
435 4 0.37783 0.421244 0.340092
561 4 0.465933 0.394892 0.392723
407 4 0.0753967 0.429297 0.350846
406 2 0.068228 0.433106 0.374495
408 4 0.0610593 0.436916 0.398144
500 4 0.115693 0.484468 0.330108
503 4 0.200333 0.420779 0.409279
2 3 0.303368 0.444282 0.330537
1437 4 0.262644 0.478103 0.340351
5 3 0.28009 0.469771 0.344726
668 4 0.294095 0.450601 0.38458
1 1 0.285671 0.447692 0.344831
4 3 0.29194 0.441212 0.366211
667 2 0.315605 0.447614 0.396973
669 4 0.337115 0.444626 0.409365
336 4 0.352482 0.432837 0.404867
594 4 0.450306 0.505393 0.354715
752 4 0.471766 0.413553 0.387625
593 4 0.424534 0.471894 0.381442
751 2 0.488178 0.418596 0.369449
592 2 0.43742 0.488644 0.368079
718 2 0.0685461 0.0444885 0.493386
719 4 0.0912786 0.050735 0.485056
367 2 0.134142 0.0206623 0.43104
369 4 0.143612 0.0316991 0.451379
2429 4 0.239704 0.030293 0.431639
2428 2 0.224787 0.0372234 0.450471
341 4 0.219637 0.061504 0.471997
340 2 0.206353 0.0788716 0.484124
2430 4 0.20987 0.0441537 0.469303
1182 4 0.2375 0.05645 0.481465
683 4 0.255943 0.0339549 0.417009
439 2 0.271122 0.0108852 0.433248
441 4 0.261055 0.0321615 0.441685
430 2 0.31553 0.0632019 0.497884
726 4 0.325001 0.0818813 0.462168
1180 2 0.260719 0.0587738 0.490444
431 4 0.333904 0.0799801 0.500345
642 4 0.473516 0.0789556 0.44478
458 4 0.9952 0.140536 0.44574
1033 2 0.0811896 0.15498 0.495344
321 4 0.228433 0.117866 0.435271
342 4 0.193068 0.0962392 0.496252
319 2 0.252665 0.111948 0.433551
724 2 0.309562 0.0895951 0.444076
725 4 0.294123 0.097309 0.425984
320 4 0.276897 0.106029 0.431831
466 2 0.331499 0.148018 0.429813
468 4 0.334193 0.132176 0.448969
2880 4 0.489644 0.0761265 0.432829
574 2 0.426466 0.168375 0.451392
641 4 0.459806 0.126142 0.454063
640 2 0.466661 0.102549 0.449421
3158 4 0.460294 0.133895 0.473667
3157 2 0.476558 0.149941 0.483824
575 4 0.44871 0.160682 0.442953
471 4 0.0529715 0.232662 0.472493
469 2 0.0441615 0.222908 0.493763
1035 4 0.0865481 0.176524 0.483842
261 4 0.100604 0.187871 0.494123
260 4 0.114185 0.208765 0.450768
259 2 0.107395 0.198318 0.472446
411 4 0.243885 0.206669 0.462427
410 4 0.263336 0.176274 0.497046
409 2 0.253611 0.191471 0.479736
576 4 0.404223 0.176068 0.459832
516 4 0.454159 0.163767 0.424114
2814 4 0.0131925 0.324565 0.440497
346 2 0.0360452 0.304826 0.419885
348 4 0.0271246 0.327154 0.426746
695 4 0.0977575 0.299002 0.450066
694 2 0.111373 0.2961 0.470836
1260 4 0.141979 0.284183 0.493291
696 4 0.124989 0.293198 0.491605
650 4 0.251972 0.23578 0.477861
651 4 0.268773 0.258117 0.436394
649 2 0.260372 0.246949 0.457127
266 4 0.355796 0.296945 0.445737
265 2 0.346822 0.284112 0.426245
306 4 0.48345 0.260748 0.42058
304 2 0.495611 0.251662 0.440448
2455 2 0.48908 0.309148 0.459097
2456 4 0.465961 0.31283 0.450315
583 2 0.437182 0.295147 0.42598
584 4 0.449695 0.303134 0.446099
2812 2 0.00461607 0.348051 0.440316
326 4 0.0710225 0.375521 0.486749
710 4 0.142224 0.417268 0.43187
10 3 0.157492 0.332878 0.479343
7 3 0.12833 0.355148 0.472522
327 4 0.115249 0.36774 0.464744
325 2 0.0931357 0.371631 0.475746
6 1 0.151274 0.354068 0.473781
709 2 0.152165 0.394536 0.434969
8 3 0.160195 0.359776 0.453135
9 3 0.158608 0.36898 0.489975
711 4 0.162106 0.371804 0.438068
804 4 0.277384 0.389627 0.491458
238 2 0.366735 0.365864 0.446123
240 4 0.368764 0.372869 0.422207
239 4 0.364707 0.358859 0.47004
559 2 0.467419 0.394 0.417667
560 4 0.468906 0.393109 0.44261
681 4 0.0604162 0.471089 0.432266
680 4 0.0268735 0.471533 0.469353
1383 4 0.00981405 0.478292 0.476506
679 2 0.0436448 0.471311 0.45081
570 4 0.131116 0.434802 0.432241
568 2 0.130541 0.441536 0.456314
569 4 0.129965 0.44827 0.480387
384 4 0.114672 0.44381 0.493786
772 2 0.21501 0.449975 0.495064
636 4 0.191159 0.436544 0.416177
635 4 0.213129 0.461156 0.453757
634 2 0.202144 0.44885 0.434967
774 4 0.216581 0.450114 0.47011
1454 4 0.314047 0.494291 0.499485
1401 4 0.323441 0.485049 0.479402
1400 4 0.372069 0.473391 0.479057
1399 2 0.347755 0.47922 0.479229
587 4 0.391911 0.437113 0.430389
588 4 0.373879 0.454274 0.47376
586 2 0.382895 0.445693 0.452074
1126 2 0.0211656 0.063014 0.524218
1127 4 0.026583 0.0443338 0.508505
1128 4 0.0157482 0.0816942 0.53993
720 4 0.0458136 0.0382419 0.501716
1058 4 0.0955865 0.0361167 0.581141
1057 2 0.110005 0.0565387 0.581608
951 4 0.190922 0.0562526 0.576374
1031 4 0.209594 0.0601781 0.579673
961 2 0.301597 0.0258148 0.536247
962 4 0.303379 0.015723 0.559054
963 4 0.299816 0.0359066 0.51344
1181 4 0.283939 0.0610976 0.499423
432 4 0.297155 0.0464237 0.495423
1217 4 0.404522 0.0728677 0.535525
842 4 0.392284 0.05795 0.528968
841 2 0.37257 0.068026 0.517348
843 4 0.352856 0.0781019 0.505728
1216 2 0.428514 0.0793018 0.538384
4466 4 0.488731 0.0213676 0.573478
1034 4 0.0758311 0.133436 0.506847
939 4 0.157489 0.149475 0.503439
1151 4 0.164976 0.141967 0.520849
937 2 0.140323 0.167223 0.507377
1150 2 0.172505 0.118477 0.516764
1152 4 0.180035 0.0949867 0.512678
899 4 0.313226 0.153518 0.568871
857 4 0.297489 0.157712 0.558867
898 2 0.334399 0.14801 0.580977
1218 4 0.452506 0.0857359 0.541244
3159 4 0.492822 0.165988 0.493982
470 4 0.0353514 0.213153 0.515033
1199 4 0.0119928 0.203425 0.553127
878 4 0.0633045 0.243153 0.573079
877 2 0.082921 0.227882 0.575757
879 4 0.102538 0.212611 0.578434
938 4 0.123157 0.184971 0.511315
797 4 0.251125 0.201689 0.562399
856 2 0.275527 0.169121 0.562434
858 4 0.253566 0.18053 0.566001
796 2 0.258199 0.222209 0.574812
798 4 0.265273 0.242729 0.587224
871 2 0.366929 0.221038 0.54339
872 4 0.383087 0.207102 0.556424
873 4 0.350771 0.234974 0.530356
813 4 0.343158 0.249934 0.540867
1258 2 0.163219 0.282865 0.506418
1259 4 0.184459 0.281547 0.519544
1238 4 0.254516 0.318676 0.58655
812 4 0.317963 0.29313 0.541096
811 2 0.33056 0.271532 0.540982
1135 2 0.114065 0.385404 0.581081
383 4 0.119413 0.399812 0.517075
897 4 0.1404 0.363139 0.579273
1137 4 0.130625 0.374986 0.565511
895 2 0.16515 0.35967 0.578523
1189 2 0.223977 0.369325 0.553935
896 4 0.189901 0.3562 0.577774
1191 4 0.204348 0.358146 0.564654
803 4 0.25166 0.367515 0.5282
1190 4 0.243606 0.380504 0.543215
802 2 0.264522 0.378571 0.509829
1173 4 0.263856 0.405738 0.570003
929 4 0.355352 0.38517 0.575318
928 2 0.376305 0.372467 0.570339
930 4 0.397258 0.359765 0.565359
1206 4 0.413429 0.350539 0.572448
925 2 0.469534 0.387801 0.523563
926 4 0.469371 0.363816 0.516503
927 4 0.469697 0.411786 0.530623
1001 4 0.436462 0.407786 0.560197
538 2 0.0564922 0.486693 0.521335
540 4 0.0537182 0.462436 0.526726
382 2 0.117043 0.421811 0.505431
773 4 0.21344 0.449836 0.520018
1171 2 0.274682 0.42132 0.553719
1172 4 0.285507 0.436902 0.537435
882 4 0.302959 0.434934 0.52632
880 2 0.305557 0.454264 0.510675
881 4 0.308154 0.473595 0.49503
1000 2 0.447849 0.42936 0.565682
1909 2 0.461192 0.484034 0.577223
1002 4 0.459235 0.450935 0.571168
1910 4 0.459914 0.461701 0.588394
1185 4 0.021182 0.0455809 0.644035
945 4 0.0344325 0.0394883 0.656882
1059 4 0.124424 0.0769607 0.582075
823 2 0.141283 0.00888843 0.614161
825 4 0.132274 0.0322101 0.6145
1030 2 0.23346 0.0672071 0.582166
949 2 0.182075 0.044189 0.596409
950 4 0.173228 0.0321255 0.616443
1032 4 0.257325 0.074236 0.584659
1005 4 0.327118 0.0638324 0.652593
1004 4 0.369496 0.0380942 0.646086
1003 2 0.348307 0.0509633 0.649339
4465 2 0.470526 0.0318055 0.587072
4467 4 0.452321 0.0422433 0.600666
2283 4 0.445716 0.0609236 0.603237
2282 4 0.448008 0.0648022 0.653041
2281 2 0.446862 0.0628629 0.628139
45 3 0.478697 0.0570715 0.66818
810 4 0.48297 0.0760165 0.66462
808 2 0.497549 0.0894182 0.649354
1082 4 0.0603414 0.14902 0.596354
1081 2 0.0540925 0.133675 0.61508
1083 4 0.0478435 0.11833 0.633806
1155 4 0.128912 0.0934788 0.592538
1153 2 0.152385 0.100403 0.587413
1154 4 0.175857 0.107328 0.582288
1221 4 0.188036 0.115259 0.595957
1219 2 0.210116 0.126818 0.597975
1220 4 0.232195 0.138376 0.599993
1212 4 0.245625 0.148662 0.612037
1210 2 0.252219 0.150345 0.636097
1211 4 0.258814 0.152029 0.660156
900 4 0.355572 0.142503 0.593083
1209 4 0.073728 0.237787 0.659376
1272 4 0.103254 0.216329 0.598394
1270 2 0.116655 0.196771 0.606338
1271 4 0.130055 0.177213 0.614282
908 4 0.177845 0.194566 0.627595
907 2 0.172923 0.19636 0.652043
1143 4 0.393214 0.181734 0.650901
1025 4 0.411514 0.189221 0.658815
1026 4 0.433117 0.232281 0.645405
1024 2 0.422315 0.210751 0.65211
905 4 0.48107 0.207394 0.585168
904 2 0.494171 0.214124 0.605373
3357 4 0.49531 0.227666 0.66061
1243 2 0.0451394 0.309456 0.663707
1179 4 0.013422 0.282102 0.655102
1245 4 0.0311474 0.290012 0.656543
947 4 0.197674 0.272326 0.632027
1237 2 0.229538 0.319349 0.587474
948 4 0.180851 0.319381 0.630163
946 2 0.189262 0.295854 0.631095
1239 4 0.204561 0.320023 0.588398
792 4 0.264336 0.312612 0.603122
791 4 0.274421 0.270102 0.627451
790 2 0.269378 0.291357 0.615286
953 4 0.436311 0.298709 0.620911
952 2 0.457565 0.306773 0.610496
954 4 0.478818 0.314836 0.600081
3122 4 0.489562 0.24573 0.655399
983 4 0.0297117 0.390105 0.625459
1039 2 0.0618651 0.393581 0.62221
1041 4 0.0436785 0.395449 0.639267
982 2 0.00645568 0.381985 0.629748
1136 4 0.0975055 0.395821 0.596651
1040 4 0.0800518 0.391713 0.605153
993 4 0.104958 0.396757 0.614777
991 2 0.117393 0.393 0.636141
992 4 0.129829 0.389243 0.657505
1204 2 0.41698 0.341558 0.595512
1205 4 0.42053 0.332577 0.618575
2170 2 0.112487 0.494551 0.654293
1160 4 0.217347 0.457115 0.593062
1159 2 0.199195 0.474118 0.595621
1161 4 0.181043 0.491122 0.59818
890 4 0.334524 0.418559 0.594653
1952 4 0.325299 0.481181 0.608326
889 2 0.325721 0.441693 0.598189
891 4 0.316918 0.464827 0.601724
1951 2 0.338508 0.502246 0.605688
1268 4 0.442483 0.508232 0.649181
2319 4 0.0193259 0.0337087 0.667709
943 2 0.0483988 0.0528917 0.672708
2317 2 0.00555872 0.0148904 0.676737
944 4 0.062365 0.066295 0.688534
1075 2 0.0545439 0.0552721 0.726829
1076 4 0.0505386 0.0646482 0.703999
1148 4 0.207889 0.0631774 0.736871
43 3 0.441343 0.0523687 0.668634
41 1 0.459935 0.0587072 0.680985
1163 4 0.481756 0.0437862 0.701101
42 3 0.461916 0.04473 0.699147
1105 2 0.0769493 0.161644 0.710174
1106 4 0.0882101 0.153219 0.730847
35 3 0.106544 0.152452 0.740675
1283 4 0.175112 0.118924 0.669085
1282 2 0.196669 0.115696 0.681336
1284 4 0.218225 0.112469 0.693587
1227 4 0.216464 0.11211 0.71336
1225 2 0.20864 0.118848 0.736132
888 4 0.268491 0.136178 0.66615
886 2 0.285895 0.143459 0.68256
887 4 0.303298 0.15074 0.69897
830 4 0.322261 0.153465 0.699016
1142 4 0.365682 0.159314 0.686115
829 2 0.33994 0.166333 0.711142
44 3 0.457377 0.0804988 0.688534
1107 4 0.0656884 0.17007 0.689501
851 4 0.0473892 0.181279 0.690533
852 4 0.0206446 0.221827 0.678646
850 2 0.0340169 0.201553 0.684589
1178 4 0.00627509 0.235559 0.671936
909 4 0.168 0.198155 0.676492
821 4 0.0959254 0.219932 0.754107
1064 4 0.23667 0.237412 0.694726
918 4 0.293115 0.23224 0.738826
1141 2 0.379448 0.170524 0.668508
831 4 0.357619 0.179201 0.723269
1193 4 0.360868 0.229256 0.693084
1192 2 0.385728 0.231333 0.691405
1194 4 0.410589 0.233411 0.689727
1262 4 0.415203 0.229943 0.70843
3356 4 0.488779 0.211534 0.707491
3355 2 0.492045 0.2196 0.684051
1261 2 0.437016 0.218198 0.711811
1263 4 0.458829 0.206453 0.715191
1145 4 0.47608 0.197013 0.714204
1144 2 0.478063 0.190232 0.738188
1244 4 0.0591315 0.328901 0.67087
1207 2 0.0677215 0.259651 0.669917
1208 4 0.0617151 0.281514 0.680457
1177 2 0.00984856 0.258831 0.663519
1242 4 0.200063 0.315105 0.744719
1063 2 0.247938 0.259399 0.698575
1065 4 0.259205 0.281385 0.702425
917 4 0.29124 0.281726 0.745779
916 2 0.292178 0.256983 0.742303
1097 4 0.299161 0.298093 0.755359
806 4 0.364856 0.310605 0.699412
805 2 0.38422 0.325822 0.70373
892 2 0.0751786 0.407231 0.691109
894 4 0.0568941 0.390201 0.692041
3275 4 0.0233927 0.407451 0.741884
893 4 0.0934631 0.42426 0.690176
1068 4 0.205641 0.395649 0.681457
1066 2 0.190945 0.411881 0.693527
1140 4 0.320463 0.40233 0.704357
807 4 0.403584 0.34104 0.708049
1020 4 0.4025 0.346678 0.727237
1018 2 0.407984 0.36622 0.741839
1280 4 0.0301501 0.420314 0.727842
1281 4 0.0256811 0.469913 0.723298
1279 2 0.0279156 0.445113 0.72557
1983 4 0.0197989 0.480415 0.739623
2172 4 0.0994242 0.474376 0.661186
940 2 0.150212 0.43354 0.735524
942 4 0.128402 0.44083 0.745339
1028 4 0.223465 0.405388 0.683471
941 4 0.172023 0.426249 0.72571
1067 4 0.176248 0.428114 0.705598
1027 2 0.245828 0.414273 0.676679
1029 4 0.268191 0.423158 0.669887
1139 4 0.278796 0.424492 0.687821
1138 2 0.299629 0.413411 0.696089
1987 2 0.326411 0.482736 0.738106
1989 4 0.335025 0.46853 0.719419
1229 4 0.347369 0.453376 0.713811
1228 2 0.370385 0.446254 0.720499
1230 4 0.393401 0.439133 0.727187
1100 4 0.487612 0.45948 0.716667
1099 2 0.485427 0.484259 0.714137
1250 4 0.477187 0.449148 0.741857
3329 4 0.482442 0.442349 0.725099
1077 4 0.0585492 0.045896 0.74966
1203 4 0.0578472 0.0429595 0.768962
1201 2 0.0703816 0.0220974 0.774692
864 4 0.053119 0.0812345 0.797087
1202 4 0.0829161 0.00123534 0.780423
2049 4 0.10061 0.00911948 0.772493
1147 2 0.217192 0.0685098 0.759458
1149 4 0.226495 0.0738422 0.782045
1049 4 0.290176 0.0128248 0.795811
1048 2 0.304948 0.009874 0.815768
1256 4 0.282844 0.0680464 0.809473
1112 4 0.404751 0.0254043 0.78488
846 4 0.465249 0.0320576 0.811606
1113 4 0.44948 0.0408839 0.801016
844 2 0.482538 0.0470283 0.8015
1111 2 0.427115 0.0331441 0.792948
980 4 0.439097 0.997938 0.812067
862 2 0.0352399 0.0909284 0.782543
911 4 0.0691442 0.0806456 0.808267
832 2 0.0104417 0.141454 0.780959
863 4 0.0173608 0.100622 0.767998
833 4 0.00915205 0.118054 0.772243
834 4 0.0117314 0.164854 0.789674
910 2 0.0853084 0.0976148 0.816981
33 3 0.0790057 0.141534 0.763915
31 1 0.0971262 0.15576 0.761145
32 3 0.112693 0.151239 0.777466
912 4 0.101473 0.114584 0.825696
1226 4 0.200817 0.125586 0.758904
1130 4 0.212324 0.136188 0.771414
840 4 0.230967 0.127355 0.762651
1129 2 0.206609 0.15992 0.776828
1255 2 0.278761 0.0795468 0.78765