ITEM: TIMESTEP
3000000
ITEM: NUMBER OF ATOMS
4590
ITEM: BOX BOUNDS pp pp pp
-9.9985700000000008e+00 9.9985700000000008e+00
-9.9985700000000008e+00 9.9985700000000008e+00
-9.9985700000000008e+00 9.9985700000000008e+00
ITEM: ATOMS id type xs ys zs
463 2 0.0181278 0.043877 0.0178925
464 4 0.0183137 0.0204362 0.0265915
1668 4 0.0556686 0.0609007 0.0541577
1666 2 0.0431292 0.0593054 0.0757308
3290 4 0.0618973 0.0422094 0.0575563
465 4 0.0179418 0.0673178 0.00919338
701 4 0.00991125 0.0671987 0.990726
3289 2 0.0778187 0.0350495 0.0396559
3291 4 0.0937401 0.0278897 0.0217555
2183 4 0.0914602 0.0300466 0.00289975
566 4 0.16214 0.0607872 0.0128953
565 2 0.170543 0.0478126 0.0325481
567 4 0.178946 0.0348381 0.052201
490 2 0.309578 0.00327609 0.0607613
491 4 0.308305 0.0162882 0.0394484
985 2 0.303522 0.0408831 0.0133142
987 4 0.31191 0.037449 0.0366171
745 2 0.487918 0.0281613 0.0610732
746 4 0.466653 0.0359305 0.0504605
747 4 0.509183 0.0203921 0.0716858
450 4 0.0773945 0.111827 0.0893031
460 2 0.291357 0.154014 0.0441405
462 4 0.309752 0.139483 0.0354442
461 4 0.272961 0.168545 0.0528368
422 4 0.0622637 0.178307 0.0150293
421 2 0.0773205 0.164647 0.000473337
506 4 0.170196 0.249811 0.0783433
737 4 0.182244 0.24031 0.0651197
736 2 0.191685 0.219689 0.0545919
738 4 0.201126 0.199068 0.0440641
354 4 0.221496 0.199243 0.0470859
352 2 0.240433 0.183663 0.042202
353 4 0.259369 0.168083 0.0373181
1069 2 0.389694 0.235901 0.00492473
323 4 0.487042 0.244562 0.0258451
828 4 0.491223 0.243719 0.0054313
836 4 0.0451763 0.256308 0.00243449
3339 4 0.00690592 0.279159 0.0019035
2807 4 0.988191 0.278486 0.004854
294 4 0.0913966 0.311516 0.0891767
505 2 0.146292 0.253297 0.0718915
292 2 0.104064 0.290474 0.084487
293 4 0.116731 0.269433 0.0797972
507 4 0.122388 0.256782 0.0654398
287 4 0.135592 0.294593 0.0182422
286 2 0.144398 0.316383 0.00970735
612 4 0.263013 0.291593 0.0473525
610 2 0.268232 0.278483 0.0679939
609 4 0.267365 0.31106 0.0380575
611 4 0.273451 0.265373 0.0886352
1071 4 0.372691 0.253813 0.00882528
573 4 0.359182 0.268432 0.0168757
571 2 0.337367 0.278994 0.0107341
324 4 0.465143 0.28759 0.0128146
322 2 0.476092 0.266076 0.0193298
1046 4 0.488948 0.332008 0.000913093
519 4 0.497603 0.263024 0.0496587
1045 2 0.490451 0.337891 0.0251681
2841 4 0.508208 0.276524 0.0612598
2787 4 0.992883 0.34704 0.077973
990 4 0.147842 0.352178 0.0152086
1289 4 0.187068 0.391671 0.0223604
988 2 0.168662 0.363469 0.0232224
989 4 0.189481 0.374761 0.0312361
1288 2 0.198841 0.407077 0.00657341
607 2 0.268806 0.335927 0.0358788
739 2 0.331467 0.352923 0.0442002
250 2 0.289814 0.398723 0.0375953
252 4 0.273438 0.38067 0.0320175
608 4 0.270246 0.360793 0.0337001
740 4 0.338361 0.350968 0.068155
251 4 0.30619 0.416776 0.0431731
741 4 0.324574 0.354878 0.0202454
386 4 0.328875 0.368066 0.0751783
226 2 0.381649 0.392177 0.0252361
228 4 0.374015 0.415935 0.0236673
227 4 0.389283 0.368419 0.0268049
1305 4 0.389292 0.356856 0.0108013
281 4 0.431828 0.351506 0.0724884
280 2 0.456486 0.349213 0.0690385
282 4 0.481144 0.34692 0.0655885
1047 4 0.491955 0.343774 0.0494231
552 4 0.0183947 0.462615 0.0799949
314 4 0.0132674 0.445052 0.0853672
550 2 0.0109202 0.472171 0.0581318
551 4 0.00344571 0.481727 0.0362687
1788 4 0.155745 0.500519 0.07553
1786 2 0.173622 0.498867 0.0581271
243 4 0.233398 0.449145 0.0586308
1440 4 0.233576 0.43846 0.0765467
241 2 0.217101 0.464911 0.0480954
242 4 0.200803 0.480677 0.03756
1787 4 0.191499 0.497215 0.0407242
524 4 0.312164 0.434941 0.0483436
271 2 0.281641 0.480359 0.0689816
525 4 0.359543 0.42643 0.0347971
523 2 0.335853 0.430686 0.0415704
1583 4 0.452965 0.443337 0.0584565
1582 2 0.460511 0.465813 0.0663974
1584 4 0.468057 0.488289 0.0743384
1667 4 0.0305899 0.05771 0.0973039
16 1 0.0379639 0.0593987 0.137682
19 3 0.0170423 0.0614268 0.147509
17 3 0.0361665 0.0643173 0.115282
20 3 0.0456485 0.0380963 0.14009
1422 4 0.0114978 0.0429534 0.156578
2480 4 0.000671668 0.0628663 0.161722
652 2 0.2545 0.052599 0.157799
654 4 0.255213 0.0339673 0.14114
1476 4 0.272811 0.0425727 0.136444
1475 4 0.306593 0.0431618 0.0995774
1474 2 0.289702 0.0428672 0.118011
297 4 0.374902 0.0393348 0.122287
295 2 0.394681 0.0545998 0.123258
484 2 0.352359 0.0189042 0.119203
485 4 0.362128 0.0377003 0.10592
296 4 0.41446 0.0698648 0.124229
557 4 0.433314 0.0625954 0.122748
556 2 0.454284 0.0757795 0.126161
18 3 0.0527941 0.0743195 0.147471
236 4 0.140515 0.120947 0.110122
449 4 0.126121 0.120383 0.096596
448 2 0.101758 0.116105 0.0929495
235 2 0.162332 0.126413 0.121046
237 4 0.184149 0.131879 0.13197
477 4 0.240169 0.167791 0.148335
580 2 0.317253 0.126195 0.145131
581 4 0.301572 0.144419 0.152
30 3 0.281075 0.145285 0.146473
582 4 0.332934 0.107972 0.138262
758 4 0.349711 0.0977917 0.139425
757 2 0.35661 0.0913788 0.162587
558 4 0.475253 0.0889635 0.129573
771 4 0.473134 0.107642 0.13793
769 2 0.485632 0.118525 0.156652
372 4 0.164141 0.231848 0.184696
371 4 0.18631 0.19929 0.153885
476 4 0.191881 0.180569 0.150717
475 2 0.216025 0.17418 0.149526
370 2 0.175226 0.215569 0.169291
29 3 0.258302 0.17451 0.153178
756 4 0.364232 0.24885 0.119904
754 2 0.354326 0.244031 0.142349
624 4 0.463142 0.247453 0.139143
629 4 0.449673 0.24158 0.124914
628 2 0.43156 0.246382 0.108359
622 2 0.465517 0.254902 0.162892
339 4 0.0457878 0.302959 0.164242
456 4 0.0928496 0.330353 0.0944743
279 4 0.280648 0.26774 0.150603
277 2 0.282126 0.261264 0.126498
278 4 0.283603 0.254788 0.102393
285 4 0.263791 0.269023 0.163281
255 4 0.364179 0.268691 0.116339
254 4 0.402908 0.266688 0.0847677
253 2 0.383543 0.26769 0.100553
630 4 0.413448 0.251184 0.0918048
619 2 0.0404154 0.381987 0.131155
620 4 0.0627842 0.386015 0.120735
621 4 0.0180466 0.377959 0.141576
2694 4 0.00767949 0.393301 0.134053
454 2 0.10651 0.349079 0.0850979
455 4 0.12017 0.367805 0.0757216
537 4 0.115941 0.391232 0.143445
535 2 0.132724 0.378019 0.130447
536 4 0.149507 0.364807 0.117449
647 4 0.125277 0.403346 0.156441
625 2 0.228202 0.384192 0.143299
627 4 0.228317 0.403859 0.127858
626 4 0.228088 0.364526 0.158739
670 2 0.413216 0.356315 0.106852
385 2 0.338583 0.375368 0.0970325
387 4 0.348291 0.38267 0.118887
12 3 0.401862 0.385968 0.118068
11 1 0.387452 0.401973 0.126151
15 3 0.366029 0.395831 0.121465
672 4 0.396474 0.366973 0.122061
302 4 0.342884 0.405477 0.120281
13 3 0.390336 0.403759 0.149105
671 4 0.429958 0.345657 0.0916439
104 3 0.487426 0.357405 0.0815054
313 2 0.00636935 0.431018 0.104878
1466 4 0.99288 0.486282 0.106932
1620 4 0.156716 0.48863 0.14672
1431 4 0.156466 0.495604 0.166957
1619 4 0.140745 0.507898 0.103427
1618 2 0.148731 0.498264 0.125073
1438 2 0.232843 0.419059 0.0923026
1439 4 0.23211 0.399658 0.108058
272 4 0.292471 0.457899 0.0671183
639 4 0.264405 0.487198 0.137296
638 4 0.298177 0.450512 0.133514
637 2 0.281291 0.468855 0.135405
303 4 0.317169 0.447395 0.129356
659 4 0.326214 0.449542 0.148161
301 2 0.330027 0.426436 0.124819
1559 4 0.366264 0.49736 0.145331
14 3 0.392284 0.422251 0.115959
495 4 0.395429 0.436325 0.130857
493 2 0.401673 0.460282 0.12736
494 4 0.407918 0.48424 0.123864
1420 2 0.993713 0.0272714 0.164512
674 4 0.158312 0.0797105 0.201374
690 4 0.169754 0.0683546 0.190221
688 2 0.16404 0.0445197 0.185278
689 4 0.158327 0.0206847 0.180336
1505 4 0.174626 0.00863485 0.177119
653 4 0.253787 0.0712307 0.174458
693 4 0.248367 0.0810027 0.190965
691 2 0.270108 0.0839661 0.202952
1699 2 0.331043 0.0771122 0.208743
1701 4 0.306988 0.072542 0.213807
1700 4 0.355098 0.0816824 0.203679
22 3 0.391292 0.0663655 0.222479
698 4 0.412853 0.0674335 0.226217
21 1 0.385277 0.0844867 0.20965
333 4 0.415339 0.0864686 0.219981
759 4 0.363509 0.0849658 0.185748
697 2 0.413763 0.0461645 0.239331
349 2 0.489641 0.0684826 0.219944
699 4 0.414673 0.0248954 0.252445
742 2 0.487689 0.0103748 0.245547
2479 2 0.993651 0.085343 0.170129
513 4 0.0162733 0.14295 0.23
578 4 0.0335059 0.15175 0.227159
511 2 0.00571119 0.13252 0.209879
673 2 0.15377 0.0863366 0.225052
692 4 0.29185 0.0869296 0.214939
28 3 0.253087 0.141557 0.171381
26 1 0.268857 0.156023 0.162412
23 3 0.36526 0.0930471 0.217678
25 3 0.382768 0.0778543 0.188008
24 3 0.40193 0.100577 0.211119
770 4 0.498131 0.129409 0.175374
331 2 0.438679 0.0954228 0.220486
312 4 0.48044 0.130631 0.186623
310 2 0.490123 0.134335 0.209376
350 4 0.474386 0.0882107 0.218131
332 4 0.462019 0.104377 0.220991
311 4 0.499807 0.13804 0.232129
577 2 0.0368647 0.176423 0.229431
529 2 0.0189761 0.229713 0.20778
530 4 0.0237413 0.211538 0.224277
579 4 0.0402235 0.201095 0.231703
531 4 0.0142109 0.247888 0.191283
362 4 0.151417 0.235803 0.171203
361 2 0.133903 0.252733 0.176842
27 3 0.282877 0.163091 0.179224
704 4 0.0333632 0.305771 0.180972
337 2 0.0653407 0.288721 0.170577
703 2 0.0248403 0.315328 0.202447
705 4 0.0163175 0.324885 0.223923
2483 4 0.0160945 0.249003 0.171308
363 4 0.116388 0.269662 0.182482
338 4 0.0848936 0.274483 0.176912
395 4 0.0990172 0.278902 0.190752
396 4 0.0953953 0.29345 0.238459
394 2 0.0972063 0.286176 0.214605
283 2 0.275921 0.264629 0.184699
284 4 0.288051 0.260235 0.206117
755 4 0.34442 0.239212 0.164795
528 4 0.438819 0.298468 0.226615
623 4 0.467893 0.262352 0.186642
527 4 0.449792 0.272485 0.185321
526 2 0.444305 0.285476 0.205968
542 4 0.441684 0.290172 0.245137
2615 4 0.00368992 0.339447 0.229411
300 4 0.106905 0.386193 0.219161
646 2 0.116238 0.401234 0.179658
648 4 0.107198 0.399122 0.202874
298 2 0.107733 0.377555 0.24261
289 2 0.225622 0.40146 0.245355
416 4 0.192238 0.400463 0.223424
597 4 0.393428 0.38673 0.172839
345 4 0.355262 0.374474 0.210836
596 4 0.35403 0.36381 0.19341
645 4 0.395378 0.407075 0.169191
595 2 0.373729 0.37527 0.183125
343 2 0.361551 0.368717 0.234341
344 4 0.367839 0.36296 0.257846
263 4 0.0540777 0.424287 0.249015
290 4 0.209866 0.410378 0.228109
417 4 0.17194 0.431602 0.189972
1429 2 0.159934 0.471714 0.17347
1430 4 0.163403 0.447824 0.179982
415 2 0.182089 0.416033 0.206698
438 4 0.260028 0.471666 0.224983
436 2 0.269846 0.466052 0.247282
658 2 0.338585 0.455767 0.168979
643 2 0.394053 0.425973 0.185509
229 2 0.365789 0.503209 0.199758
644 4 0.392728 0.444871 0.201827
660 4 0.350956 0.461992 0.189797
231 4 0.356884 0.479876 0.198567
447 4 0.39213 0.454258 0.219192
445 2 0.411224 0.45204 0.235182
1403 4 0.0189189 0.0154833 0.260066
233 4 0.0201004 0.0352438 0.260506
232 2 0.0296607 0.0570261 0.268207
234 4 0.039221 0.0788084 0.275909
317 4 0.0514671 0.0781888 0.291504
722 4 0.18311 0.0816743 0.26193
1407 4 0.244808 0.00691084 0.281276
1405 2 0.233177 0.0278562 0.274122
1406 4 0.221545 0.0488016 0.266969
721 2 0.188245 0.0831675 0.286355
723 4 0.193381 0.0846607 0.31078
599 4 0.182554 0.0795214 0.326295
1518 4 0.412694 0.00463464 0.251016
743 4 0.492677 0.0233089 0.266356
425 4 0.489128 0.0173468 0.285039
424 2 0.473696 0.0354505 0.292738
258 4 0.446349 0.0692086 0.301665
426 4 0.458264 0.0535542 0.300437
256 2 0.456928 0.0841328 0.31871
316 2 0.0689472 0.0948424 0.298006
318 4 0.0864274 0.111496 0.304508
393 4 0.0905215 0.15606 0.323123
675 4 0.149228 0.0929626 0.24873
391 2 0.0877663 0.151037 0.298784
392 4 0.0850112 0.146014 0.274446
544 2 0.119776 0.12072 0.264221
545 4 0.102753 0.138802 0.267132
546 4 0.136798 0.102639 0.261311
399 4 0.109371 0.149231 0.324325
404 4 0.237551 0.086116 0.291621
403 2 0.239058 0.110964 0.293958
405 4 0.240564 0.135813 0.296296
401 4 0.24724 0.146021 0.279419
400 2 0.241406 0.166628 0.292322
402 4 0.235572 0.187235 0.305225
707 4 0.281419 0.191757 0.326118
765 4 0.439778 0.206424 0.337548
763 2 0.447525 0.199665 0.314756
764 4 0.455272 0.192906 0.291964
442 2 0.0753543 0.278116 0.271631
444 4 0.0702685 0.263302 0.291121
443 4 0.0804401 0.29293 0.252141
497 4 0.314098 0.272962 0.320578
496 2 0.329763 0.264492 0.338129
541 2 0.43219 0.310388 0.256376
543 4 0.422696 0.330605 0.267616
614 4 0.425311 0.343736 0.327632
749 4 0.0635288 0.33421 0.285189
366 4 0.0483704 0.347009 0.286871
365 4 0.00512235 0.365859 0.303454
364 2 0.0267464 0.356434 0.295163
602 4 0.0742466 0.391415 0.31164
601 2 0.0791513 0.386809 0.335722
748 2 0.0865582 0.342005 0.279353
299 4 0.108561 0.368917 0.26606
750 4 0.109588 0.3498 0.273518
777 4 0.090261 0.401472 0.306078
735 4 0.142922 0.398832 0.284757
733 2 0.144391 0.37516 0.292673
734 4 0.145859 0.351488 0.300589
677 4 0.161513 0.399741 0.276935
291 4 0.241378 0.392543 0.262601
414 4 0.236789 0.406462 0.275636
504 4 0.194133 0.395021 0.339009
412 2 0.252829 0.409927 0.294502
308 4 0.353024 0.369176 0.323165
729 4 0.334755 0.372907 0.331605
413 4 0.268869 0.413392 0.313367
615 4 0.411918 0.344502 0.279458
309 4 0.363718 0.355877 0.27616
307 2 0.358371 0.362527 0.299663
613 2 0.418614 0.344119 0.303545
2924 4 0.491231 0.358605 0.319206
2923 2 0.468337 0.350573 0.325252
2862 4 0.485754 0.39239 0.279171
2860 2 0.498075 0.388479 0.257768
120 3 0.482597 0.402626 0.298678
119 3 0.487557 0.40018 0.335921
713 4 0.474894 0.412765 0.280861
2925 4 0.445443 0.342541 0.331297
262 2 0.0408959 0.437867 0.265354
264 4 0.0277141 0.451448 0.281694
1758 4 0.102647 0.500192 0.280284
775 2 0.0980029 0.421115 0.292685
1757 4 0.121274 0.453789 0.279566
776 4 0.105745 0.440758 0.279291
1756 2 0.11196 0.476991 0.279925
676 2 0.171929 0.422337 0.279406
678 4 0.182345 0.444933 0.281876
768 4 0.174742 0.461514 0.270446
766 2 0.191029 0.477461 0.280722
502 2 0.199467 0.419353 0.336848
1545 4 0.242901 0.498003 0.324694
5 3 0.263805 0.420271 0.331691
1436 4 0.261937 0.495577 0.324118
437 4 0.279665 0.460438 0.269581
1437 4 0.274 0.476844 0.279349
1435 2 0.267968 0.48621 0.301734
433 2 0.313567 0.455974 0.312176
435 4 0.31711 0.472165 0.293455
446 4 0.430318 0.449822 0.251172
712 2 0.461732 0.431449 0.270719
714 4 0.448571 0.450133 0.260577
368 4 0.0677314 0.0564369 0.413701
731 4 0.0794024 0.0551184 0.397666
730 2 0.0961774 0.0695129 0.38598
604 2 0.13973 0.0693063 0.349105
606 4 0.162624 0.0610505 0.343371
249 4 0.301796 0.0319259 0.341492
684 4 0.286135 0.0395844 0.351854
682 2 0.268527 0.0540192 0.362188
683 4 0.250919 0.068454 0.372521
247 2 0.323116 0.0412769 0.350614
248 4 0.344435 0.0506278 0.359736
633 4 0.341465 0.0602443 0.376608
631 2 0.340617 0.0699127 0.399651
1747 2 0.467092 0.00683409 0.346205
1749 4 0.490019 0.0161318 0.342586
2586 4 0.00143792 0.143328 0.393332
732 4 0.112952 0.0839074 0.374293
397 2 0.111348 0.142777 0.3484
605 4 0.116836 0.0775621 0.354839
598 2 0.194086 0.0981644 0.338321
600 4 0.205619 0.116807 0.350347
685 2 0.204696 0.145155 0.375057
687 4 0.19856 0.136173 0.352544
686 4 0.210832 0.154137 0.39757
410 4 0.219987 0.1441 0.412577
321 4 0.248993 0.0893404 0.380386
319 2 0.260097 0.0991955 0.400504
419 4 0.373077 0.160503 0.397491
418 2 0.35647 0.143454 0.405153
420 4 0.339862 0.126405 0.412814
716 4 0.378568 0.160014 0.377814
257 4 0.467508 0.099057 0.335754
760 2 0.482481 0.131167 0.348521
761 4 0.462677 0.117328 0.342082
762 4 0.502286 0.145005 0.35496
390 4 0.0891855 0.226774 0.412528
398 4 0.113324 0.136323 0.372476
388 2 0.100008 0.239172 0.393704
274 2 0.151209 0.232398 0.367018
389 4 0.110831 0.25157 0.37488
473 4 0.227574 0.215532 0.358624
474 4 0.183892 0.221757 0.38216
472 2 0.205733 0.218645 0.370392
708 4 0.237277 0.206714 0.344242
275 4 0.174362 0.223155 0.365096
409 2 0.235155 0.16348 0.416998
650 4 0.247936 0.189465 0.402288
651 4 0.260482 0.237647 0.397615
649 2 0.254209 0.213556 0.399952
706 2 0.259348 0.199236 0.33518
489 4 0.254804 0.248687 0.381672
377 4 0.3878 0.211791 0.330447
717 4 0.384745 0.195785 0.343419
715 2 0.381657 0.1779 0.360616
376 2 0.373865 0.231421 0.337205
584 4 0.402736 0.244625 0.40493
618 4 0.991447 0.277613 0.426173
276 4 0.128057 0.241642 0.368939
1258 2 0.139191 0.312877 0.397171
1259 4 0.155834 0.31218 0.378524
1260 4 0.122549 0.313575 0.415819
509 4 0.234948 0.298526 0.359678
487 2 0.247023 0.272402 0.380178
488 4 0.239242 0.296117 0.378684
508 2 0.227178 0.32228 0.360432
267 4 0.333008 0.319986 0.35974
498 4 0.345429 0.256023 0.35568
378 4 0.35993 0.251051 0.343962
266 4 0.375015 0.301816 0.379889
585 4 0.383086 0.288594 0.391465
583 2 0.392911 0.266609 0.398198
265 2 0.354011 0.310901 0.369815
268 2 0.491668 0.261986 0.356927
270 4 0.486102 0.273981 0.378147
306 4 0.489102 0.261341 0.393176
304 2 0.478562 0.272112 0.413128
603 4 0.084056 0.382203 0.359803
547 2 0.106994 0.408342 0.378242
549 4 0.100955 0.393089 0.359372
510 4 0.219409 0.346033 0.361186
374 4 0.223871 0.364944 0.364957
373 2 0.240418 0.383571 0.367058
375 4 0.256964 0.402198 0.369159
727 2 0.325994 0.396003 0.327735
3 3 0.276657 0.405645 0.363919
753 4 0.496177 0.400427 0.354251
679 2 0.0456455 0.482726 0.377114
407 4 0.0190061 0.411521 0.393514
680 4 0.0520849 0.467057 0.395504
406 2 0.036175 0.42938 0.396901
408 4 0.0533438 0.447239 0.400288
2463 4 0.015854 0.516228 0.326221
569 4 0.121622 0.441545 0.403938
548 4 0.113033 0.423595 0.397111
635 4 0.169407 0.48186 0.369231
634 2 0.188394 0.467996 0.360721
636 4 0.207382 0.454132 0.352211
503 4 0.204801 0.443685 0.334687
669 4 0.298936 0.479896 0.394171
728 4 0.317232 0.419099 0.323864
434 4 0.310023 0.439782 0.330897
2 3 0.300192 0.422228 0.339758
1 1 0.278932 0.422852 0.348519
668 4 0.263789 0.450656 0.373913
4 3 0.275726 0.443317 0.358976
667 2 0.281363 0.465276 0.384042
336 4 0.317579 0.427942 0.424657
718 2 0.0426316 0.0633521 0.49362
719 4 0.0410981 0.0647889 0.468705
369 4 0.034574 0.0658619 0.449929
367 2 0.0511527 0.0611494 0.431815
441 4 0.212832 0.00111415 0.451826
341 4 0.16271 0.071941 0.463091
2430 4 0.172047 0.0538955 0.465628
2428 2 0.188605 0.0366439 0.458321
2429 4 0.205163 0.0193923 0.451014
1218 4 0.397846 0.0347611 0.501386
2878 2 0.463224 0.00638638 0.45098
2880 4 0.482145 0.0215665 0.444919
642 4 0.48743 0.0404238 0.443248
640 2 0.487992 0.0606069 0.4285
641 4 0.488555 0.0807901 0.413752
340 2 0.172982 0.0919294 0.474051
1152 4 0.189015 0.130261 0.4826
342 4 0.183254 0.111918 0.485011
320 4 0.271201 0.109051 0.420622
725 4 0.269176 0.089906 0.427564
724 2 0.281061 0.092182 0.449444
432 4 0.28903 0.098901 0.490846
726 4 0.292946 0.094458 0.471324
468 4 0.334963 0.0864517 0.44027
632 4 0.33977 0.0795812 0.422694
467 4 0.36831 0.120786 0.454756
466 2 0.351636 0.103619 0.447513
574 2 0.404738 0.130143 0.434199
576 4 0.386708 0.126802 0.451196
575 4 0.422768 0.133485 0.417201
516 4 0.440829 0.129477 0.42419
514 2 0.459627 0.144001 0.431992
515 4 0.478425 0.158525 0.439793
260 4 0.0692636 0.171819 0.473185
259 2 0.0709981 0.164675 0.497083
469 2 0.0812303 0.204263 0.445805
471 4 0.0769425 0.183256 0.458669
470 4 0.085518 0.22527 0.43294
411 4 0.250322 0.18286 0.421419
2455 2 0.394134 0.214931 0.431453
2457 4 0.397035 0.193683 0.44431
2456 4 0.391233 0.236179 0.418597
616 2 0.0105468 0.282458 0.441565
617 4 0.0296464 0.287303 0.456957
695 4 0.10717 0.253032 0.441044
694 2 0.114009 0.276552 0.436023
696 4 0.120848 0.300072 0.431002
878 4 0.0917276 0.270852 0.494413
1010 4 0.461331 0.311028 0.477192
1009 2 0.458689 0.291786 0.461447
1011 4 0.456048 0.272543 0.445701
305 4 0.468023 0.282883 0.43308
2507 4 0.468764 0.329097 0.47092
326 4 0.100691 0.349158 0.44547
325 2 0.122838 0.358151 0.452805
7 3 0.15745 0.360731 0.4731
327 4 0.144985 0.367144 0.460139
8 3 0.160501 0.392282 0.493297
6 1 0.161327 0.369109 0.49417
711 4 0.150696 0.408464 0.499234
1189 2 0.229388 0.359913 0.507978
1190 4 0.253839 0.356938 0.512275
335 4 0.355029 0.402505 0.445898
238 2 0.351769 0.391338 0.482113
240 4 0.364189 0.391247 0.460412
239 4 0.33935 0.391428 0.503814
559 2 0.495204 0.398254 0.434825
560 4 0.50692 0.384028 0.451722
2506 2 0.480614 0.349859 0.463594
2508 4 0.492465 0.370621 0.456267
1381 2 0.00681503 0.451757 0.468616
1382 4 0.0252877 0.465998 0.477623
538 2 0.0440157 0.495986 0.489012
540 4 0.0307025 0.484373 0.471318
774 4 0.104497 0.481664 0.432053
773 4 0.130921 0.495685 0.472126
772 2 0.117709 0.488675 0.45209
710 4 0.114593 0.429919 0.472086
709 2 0.132645 0.419191 0.48566
570 4 0.119252 0.435717 0.453548
568 2 0.120437 0.438631 0.428743
1394 4 0.229852 0.479115 0.484774
1446 4 0.238932 0.483522 0.503044
1400 4 0.331151 0.497085 0.423669
1399 2 0.324256 0.473058 0.423076
1401 4 0.317361 0.449032 0.422483
587 4 0.336991 0.52248 0.485007
334 2 0.336304 0.415224 0.435277
1127 4 0.0340579 0.054088 0.534973
720 4 0.0441651 0.0619153 0.518535
1126 2 0.0158505 0.0404275 0.545319
1031 4 0.163627 0.0724426 0.550682
949 2 0.197673 0.0729277 0.557096
950 4 0.220382 0.073589 0.546655
1182 4 0.22748 0.0613833 0.561543
951 4 0.174963 0.0722665 0.567536
1180 2 0.245472 0.0445618 0.55724
963 4 0.283465 0.0269355 0.545547
1181 4 0.263463 0.0277403 0.552937
961 2 0.295027 0.00551785 0.551271
1216 2 0.385972 0.0517052 0.515424
1217 4 0.374097 0.0686493 0.529462
842 4 0.366065 0.0774499 0.545941
2283 4 0.451197 0.994278 0.574925
1035 4 0.0732547 0.146591 0.574826
261 4 0.0727326 0.157532 0.520982
1033 2 0.0798279 0.157147 0.553134
1034 4 0.0864011 0.167702 0.531442
1030 2 0.141901 0.0848181 0.550801
1032 4 0.120175 0.0971937 0.550919
938 4 0.165578 0.160633 0.57844
1150 2 0.189943 0.145182 0.502643
843 4 0.319108 0.0904995 0.53474
431 4 0.300987 0.0965612 0.539346
857 4 0.335976 0.128613 0.573401
430 2 0.295008 0.0977311 0.515096
856 2 0.323721 0.141087 0.591272
899 4 0.346578 0.132254 0.557951
841 2 0.342587 0.0839747 0.54034
898 2 0.362917 0.150413 0.552617
900 4 0.379256 0.168572 0.547282
937 2 0.173167 0.167589 0.555653
1272 4 0.106735 0.24546 0.554128
1270 2 0.121895 0.230794 0.567555
1151 4 0.190871 0.160102 0.522685
939 4 0.180755 0.174545 0.532867
872 4 0.377042 0.188895 0.545085
873 4 0.376761 0.231706 0.570928
871 2 0.376901 0.210301 0.558007
813 4 0.365274 0.240084 0.583166
879 4 0.111462 0.257226 0.538295
877 2 0.101595 0.264039 0.516354
1239 4 0.262573 0.263499 0.578115
928 2 0.323242 0.333592 0.566049
1205 4 0.398345 0.29498 0.562506
1204 2 0.37347 0.29584 0.564883
1206 4 0.348594 0.296701 0.56726
930 4 0.337824 0.313892 0.561108
954 4 0.412152 0.286933 0.575611
983 4 0.0548557 0.395383 0.590165
9 3 0.14495 0.361135 0.508543
896 4 0.190165 0.364183 0.521433
1137 4 0.178601 0.363133 0.581067
897 4 0.181646 0.347547 0.567817
895 2 0.185906 0.355865 0.544625
10 3 0.181875 0.362328 0.501275
1191 4 0.204937 0.362889 0.503681
802 2 0.286582 0.359887 0.532817
804 4 0.301608 0.354254 0.551991
929 4 0.308659 0.353293 0.570989
803 4 0.271555 0.36552 0.513643
1001 4 0.474281 0.389571 0.555682
926 4 0.483721 0.392831 0.538968
925 2 0.487218 0.371783 0.525932
1000 2 0.472157 0.405736 0.574638
927 4 0.490716 0.350735 0.512896
934 2 0.00478063 0.47632 0.579822
936 4 0.0296119 0.473424 0.580267
1938 4 0.0433714 0.4796 0.567123
1936 2 0.0480735 0.492562 0.546264
382 2 0.129163 0.494951 0.51609
383 4 0.12907 0.494783 0.541092
2244 4 0.129501 0.494596 0.562162
2242 2 0.14519 0.504701 0.578803
882 4 0.289894 0.466325 0.583273
880 2 0.292807 0.474836 0.559944
881 4 0.295721 0.483348 0.536615
1445 4 0.277286 0.489643 0.534544
1172 4 0.270543 0.46102 0.588582
1444 2 0.258109 0.486583 0.518794
1183 2 0.999893 0.0399534 0.646765
1185 4 0.0217676 0.0321589 0.656035
1155 4 0.0907582 0.0732834 0.609368
1059 4 0.0866137 0.0557158 0.617948
1058 4 0.0742629 0.00907538 0.631095
1057 2 0.0804383 0.0323956 0.624521
2282 4 0.470763 0.0130994 0.616921
2281 2 0.46098 0.0036885 0.595923
43 3 0.468 0.033256 0.61506
41 1 0.474943 0.0553108 0.617008
44 3 0.456913 0.0688323 0.622531
45 3 0.484185 0.0623078 0.597405
42 3 0.49068 0.0567043 0.633728
1163 4 0.495339 0.0624794 0.651516
1082 4 0.0610432 0.135971 0.586555
1081 2 0.0370208 0.137346 0.593353
1083 4 0.0129983 0.138721 0.60015
1199 4 0.00466053 0.153845 0.590003
1154 4 0.114506 0.0912993 0.569216
1221 4 0.141895 0.103861 0.621945
1153 2 0.102632 0.0822914 0.589292
1219 2 0.165963 0.103716 0.628717
1220 4 0.190032 0.103571 0.635489
1212 4 0.207261 0.114023 0.632535
1210 2 0.225232 0.130584 0.637821
1211 4 0.243203 0.147146 0.643107
1005 4 0.302365 0.0745757 0.607349
1003 2 0.298841 0.0835257 0.630428
1004 4 0.295318 0.0924758 0.653507
858 4 0.311466 0.153561 0.609144
888 4 0.259759 0.145931 0.655448
886 2 0.276048 0.12761 0.660364
1143 4 0.381517 0.137183 0.648526
1025 4 0.377214 0.157405 0.646554
1141 2 0.359868 0.134524 0.660749
810 4 0.483297 0.0817004 0.589607
808 2 0.496245 0.0963001 0.573974
1271 4 0.137054 0.216128 0.580982
909 4 0.143697 0.203196 0.595032
907 2 0.1445 0.209475 0.619221
908 4 0.145303 0.215754 0.643411
947 4 0.157849 0.222536 0.65774
946 2 0.176844 0.238441 0.661115
812 4 0.3194 0.23329 0.601877
798 4 0.311906 0.214137 0.601098
796 2 0.304876 0.190989 0.607418
797 4 0.297845 0.167842 0.613738
811 2 0.342337 0.236687 0.592522
1024 2 0.38245 0.181571 0.642848
1026 4 0.387686 0.205738 0.639142
905 4 0.45447 0.237767 0.593022
904 2 0.477087 0.243909 0.584309
3122 4 0.48514 0.231459 0.663509
1237 2 0.280336 0.277844 0.588306
792 4 0.311691 0.285776 0.610973
790 2 0.325744 0.305598 0.616871
1238 4 0.2981 0.292189 0.598498
791 4 0.339797 0.32542 0.622769
952 2 0.426013 0.266298 0.5783
953 4 0.439874 0.245662 0.58099
982 2 0.0305955 0.397476 0.584488
984 4 0.00633528 0.39957 0.57881
1041 4 0.0640597 0.41388 0.587669
3263 4 0.00449138 0.403848 0.597816
1135 2 0.178894 0.385526 0.592185
1136 4 0.179186 0.40792 0.603303
1002 4 0.470034 0.421901 0.593595
1910 4 0.463634 0.409663 0.608791
1039 2 0.0831332 0.429975 0.586143
992 4 0.165658 0.420998 0.59845
991 2 0.143559 0.430372 0.591455
993 4 0.12146 0.439746 0.584459
1040 4 0.102207 0.44607 0.584618
2243 4 0.16088 0.514806 0.595444
1171 2 0.245611 0.462055 0.587005
1160 4 0.221296 0.481686 0.592767
1159 2 0.201398 0.496825 0.593003
1173 4 0.220678 0.463089 0.585427
890 4 0.386092 0.494974 0.668928
1952 4 0.365098 0.512633 0.613494
889 2 0.372848 0.506096 0.650871
1951 2 0.348735 0.509118 0.594918
1267 2 0.416467 0.470786 0.656016
1911 4 0.443993 0.446177 0.636749
1909 2 0.453814 0.42792 0.62277
1268 4 0.426637 0.449747 0.647123
945 4 0.0271414 0.0511289 0.664359
943 2 0.0392533 0.042455 0.68444
1076 4 0.0591564 0.0284455 0.72292
944 4 0.0513652 0.0337811 0.70452
1075 2 0.0745609 0.0342227 0.741748
831 4 0.340519 0.0852452 0.705717
32 3 0.0951105 0.135469 0.735386
1283 4 0.134323 0.0977569 0.697871
35 3 0.0770955 0.162176 0.754231
1227 4 0.183695 0.101931 0.737741
1284 4 0.164829 0.094794 0.737385
1282 2 0.149576 0.0962754 0.717628
887 4 0.292337 0.109288 0.66528
830 4 0.311462 0.11111 0.674293
829 2 0.325991 0.0981775 0.690005
1142 4 0.338218 0.131865 0.672972
851 4 0.0074006 0.183641 0.741243
850 2 0.993591 0.203687 0.735529
1208 4 0.0956985 0.258679 0.707224
822 4 0.132026 0.199357 0.704446
1278 4 0.150594 0.199577 0.712557
820 2 0.119546 0.22078 0.707679
821 4 0.107066 0.242204 0.710911
1276 2 0.161338 0.186356 0.730858
976 2 0.287624 0.205798 0.743073
977 4 0.308219 0.213956 0.731476
916 2 0.307469 0.249627 0.712745
918 4 0.317065 0.232502 0.728231
978 4 0.267029 0.197641 0.754669
3121 2 0.469824 0.239792 0.68143
3123 4 0.454508 0.248124 0.699351
1261 2 0.450363 0.230416 0.754651
1263 4 0.448735 0.206331 0.748135
1207 2 0.0757983 0.271238 0.698772
1209 4 0.055898 0.283797 0.69032
1244 4 0.0384797 0.286788 0.700961
1243 2 0.0150424 0.278081 0.70119
894 4 0.0703512 0.340463 0.681574
893 4 0.113279 0.343273 0.656079
892 2 0.091815 0.341868 0.668827
1064 4 0.240793 0.297247 0.676313
1063 2 0.223287 0.279506 0.678305
1065 4 0.205781 0.261765 0.680298
948 4 0.195839 0.254346 0.664491
1240 2 0.227534 0.312671 0.724369
1242 4 0.213365 0.314698 0.744871
1241 4 0.241702 0.310644 0.703867
917 4 0.297872 0.266752 0.697259
1097 4 0.300979 0.284292 0.689503
1096 2 0.277084 0.291364 0.691551
1098 4 0.253189 0.298436 0.693598
1008 4 0.347897 0.246213 0.723286
1006 2 0.362076 0.259935 0.738643
1262 4 0.451991 0.254501 0.761166
1194 4 0.438212 0.266318 0.75228
1279 2 0.0524921 0.365672 0.700744
3275 4 0.0429598 0.392651 0.723319
1280 4 0.0421588 0.372381 0.722502
1281 4 0.0628253 0.358962 0.678987
3274 2 0.0536021 0.403719 0.743052
940 2 0.152814 0.392945 0.748498
941 4 0.165747 0.379183 0.732111
1028 4 0.236954 0.361236 0.704634
1068 4 0.216772 0.356713 0.704496
1067 4 0.183125 0.386295 0.726712
1066 2 0.199948 0.371504 0.715604
1029 4 0.275091 0.376249 0.675983
1139 4 0.279152 0.395781 0.672768
1027 2 0.256022 0.368743 0.690309
1229 4 0.365339 0.389496 0.695279
1228 2 0.371447 0.413215 0.700306
1080 4 0.18639 0.427376 0.764874
2172 4 0.202999 0.488617 0.668694
1175 4 0.273455 0.511515 0.686044
1138 2 0.288985 0.416169 0.68339
1140 4 0.298819 0.436556 0.694013
1989 4 0.294733 0.453466 0.703705
1987 2 0.302783 0.453535 0.727377
2214 4 0.249874 0.491753 0.760264
1269 4 0.406296 0.491825 0.66491
1230 4 0.377556 0.436933 0.705334
1100 4 0.450405 0.487194 0.726306
1250 4 0.466805 0.487927 0.738085
911 4 0.070072 0.069376 0.845004
1077 4 0.0899654 0.0399999 0.760577
1202 4 0.142136 0.0133635 0.782665
1203 4 0.0947104 0.0257525 0.772765
1201 2 0.118423 0.019558 0.777715
2049 4 0.157823 0.00439252 0.790858
1147 2 0.209823 0.0579043 0.795563
1149 4 0.220192 0.0355893 0.800001
1049 4 0.235709 0.0332481 0.787275
1048 2 0.254558 0.0267116 0.802348
1050 4 0.273406 0.0201752 0.817421
818 4 0.370855 0.072696 0.801537
817 2 0.35035 0.0868303 0.799305
965 4 0.382836 0.0683465 0.817084
3387 4 0.000975685 0.104615 0.754669
1106 4 0.0586416 0.153306 0.754977
832 2 0.0424175 0.118638 0.77157
863 4 0.0320572 0.093633 0.797937
833 4 0.0254005 0.10305 0.781193
33 3 0.0781836 0.127104 0.767885
834 4 0.0594346 0.134226 0.761946
862 2 0.0451657 0.0790196 0.813422
31 1 0.0898974 0.143457 0.756319
34 3 0.109572 0.14853 0.767526
1073 4 0.129029 0.151872 0.77441
1225 2 0.190067 0.106452 0.761493
1148 4 0.199454 0.0802193 0.791124
1226 4 0.196439 0.110974 0.785244
840 4 0.201505 0.128738 0.79114
838 2 0.224299 0.13573 0.798671
839 4 0.247093 0.142722 0.806203
959 4 0.264962 0.151121 0.8005
819 4 0.329846 0.100965 0.797073
1084 2 0.342263 0.141481 0.806631
1085 4 0.335929 0.119987 0.795536
1086 4 0.348596 0.162974 0.817726
1299 4 0.366683 0.168619 0.812627
3270 4 0.504028 0.154627 0.767927
1146 4 0.484987 0.156629 0.761526
153 3 0.0032798 0.23819 0.820625
1107 4 0.0278152 0.190682 0.742589
1105 2 0.0432284 0.171994 0.748783