ITEM: TIMESTEP
2660000
ITEM: NUMBER OF ATOMS
4590
ITEM: BOX BOUNDS pp pp pp
-9.9985700000000008e+00 9.9985700000000008e+00
-9.9985700000000008e+00 9.9985700000000008e+00
-9.9985700000000008e+00 9.9985700000000008e+00
ITEM: ATOMS id type xs ys zs
463 2 0.0380324 0.0499082 0.0155533
464 4 0.0359943 0.0291926 0.0294058
465 4 0.0400704 0.0706237 0.00170076
1668 4 0.0633476 0.0253971 0.0426993
1666 2 0.0488237 0.0253831 0.063052
3290 4 0.0783162 0.0138923 0.0384795
3289 2 0.0929859 0.0205843 0.0193693
565 2 0.146371 0.0351259 0.026957
567 4 0.144292 0.0592338 0.0332552
566 4 0.148451 0.0110181 0.0206588
1475 4 0.277246 0.00937456 0.0805881
492 4 0.294752 0.00297275 0.0706941
490 2 0.288181 0.00378935 0.0465831
2143 2 0.350041 0.0186578 0.00270156
2145 4 0.365354 0.00986495 0.0204046
745 2 0.470107 0.0536682 0.0383389
746 4 0.458191 0.061971 0.017986
747 4 0.482024 0.0453654 0.0586918
1826 4 0.495344 0.033357 0.0726085
555 4 0.0530371 0.141754 0.00238785
3234 4 0.0948958 0.163579 0.00528403
460 2 0.318801 0.151754 0.0557453
461 4 0.297954 0.164027 0.0620665
353 4 0.282515 0.163902 0.0747926
359 4 0.252214 0.154551 0.998372
462 4 0.339648 0.139481 0.0494242
422 4 0.0531093 0.1803 0.0314903
421 2 0.076612 0.18088 0.0229776
423 4 0.100115 0.181459 0.0144649
506 4 0.170932 0.233709 0.0548223
737 4 0.189599 0.230914 0.062275
736 2 0.203608 0.211272 0.068839
738 4 0.217618 0.191629 0.0754029
354 4 0.235243 0.180202 0.0741711
352 2 0.258879 0.172052 0.0744818
665 4 0.325668 0.20325 0.034785
664 2 0.322662 0.193957 0.0117681
1071 4 0.395361 0.245148 0.014886
1069 2 0.411249 0.230648 0.00213888
323 4 0.481894 0.230924 0.0607633
828 4 0.494128 0.228738 0.00614107
2807 4 0.0311137 0.254192 0.0183514
2806 2 0.00671927 0.254881 0.0237933
505 2 0.156465 0.254098 0.0544221
294 4 0.0888484 0.297676 0.0617935
292 2 0.111663 0.288723 0.0667466
456 4 0.0898092 0.317918 0.0602255
293 4 0.134477 0.27977 0.0716998
507 4 0.141998 0.274487 0.0540219
741 4 0.311667 0.328713 0.0262245
612 4 0.262053 0.306871 0.061989
610 2 0.270874 0.28702 0.0743706
739 2 0.320446 0.333906 0.049053
609 4 0.252619 0.32131 0.0709939
573 4 0.383047 0.26061 0.0165531
571 2 0.368246 0.277584 0.00569101
254 4 0.392805 0.265822 0.0796888
324 4 0.461456 0.265553 0.0310343
322 2 0.471675 0.248239 0.0458988
454 2 0.0941828 0.339671 0.0717524
250 2 0.288965 0.387958 0.0594816
251 4 0.291253 0.410811 0.0495984
740 4 0.329225 0.339099 0.0718815
252 4 0.286677 0.365105 0.0693647
607 2 0.263288 0.342862 0.0778388
608 4 0.273957 0.364414 0.0846837
226 2 0.377758 0.384222 0.0286124
228 4 0.368411 0.401453 0.0441334
227 4 0.387105 0.366991 0.0130914
1305 4 0.387103 0.348182 0.00779776
281 4 0.429144 0.348495 0.0700919
280 2 0.454077 0.350349 0.069849
282 4 0.479011 0.352203 0.0696061
671 4 0.422349 0.367428 0.0701363
1047 4 0.495951 0.353501 0.0565228
552 4 0.0292048 0.461607 0.0574727
314 4 0.0191782 0.445326 0.0582807
550 2 0.023929 0.484054 0.0478044
313 2 0.0307484 0.435438 0.0781182
795 4 0.146776 0.471299 0.00505594
243 4 0.230428 0.482446 0.053894
1440 4 0.237085 0.464222 0.0615535
1290 4 0.20987 0.443237 0.00597275
241 2 0.210111 0.480844 0.0394074
1288 2 0.200693 0.42017 0.00299219
242 4 0.189795 0.479242 0.0249207
524 4 0.308719 0.420991 0.0465078
271 2 0.266957 0.487047 0.063828
272 4 0.269164 0.469763 0.0817601
523 2 0.333698 0.419961 0.0461021
525 4 0.358677 0.418931 0.0456964
1583 4 0.434437 0.454293 0.0625915
1582 2 0.443251 0.467025 0.0822232
1667 4 0.0342997 0.025369 0.0834048
16 1 0.0376203 0.04656 0.11951
2480 4 0.00588148 0.0580273 0.143686
18 3 0.038535 0.0675102 0.109578
19 3 0.017399 0.0439175 0.130579
2479 2 0.00613932 0.0797628 0.156042
17 3 0.0392914 0.0304885 0.103138
20 3 0.054878 0.0441524 0.134174
1422 4 0.00972505 0.0362897 0.150144
450 4 0.122838 0.0813292 0.113941
652 2 0.250285 0.0421519 0.149035
1505 4 0.197291 0.0133067 0.171406
654 4 0.258514 0.0436779 0.125474
1476 4 0.268173 0.0505614 0.107459
1474 2 0.272709 0.029968 0.0940235
297 4 0.367174 0.019272 0.0846133
295 2 0.382591 0.0373086 0.0924983
296 4 0.398008 0.0553451 0.100383
484 2 0.339924 0.00158238 0.108105
485 4 0.347724 0.0176439 0.0906019
557 4 0.416764 0.0545847 0.102533
556 2 0.431002 0.0738841 0.109603
236 4 0.136832 0.14023 0.103505
449 4 0.121972 0.131234 0.110859
448 2 0.122405 0.106282 0.1124
235 2 0.146104 0.161626 0.112527
580 2 0.314866 0.130229 0.158628
581 4 0.290221 0.13376 0.16094
30 3 0.272238 0.125872 0.15796
582 4 0.339511 0.126699 0.156316
758 4 0.357477 0.1259 0.162645
558 4 0.445241 0.0931835 0.116672
771 4 0.454716 0.109159 0.123644
769 2 0.452277 0.108575 0.148521
370 2 0.157423 0.204771 0.161903
372 4 0.143575 0.225442 0.159425
237 4 0.155376 0.183023 0.121549
362 4 0.146749 0.244538 0.163579
371 4 0.171271 0.1841 0.16438
476 4 0.189593 0.178202 0.156383
475 2 0.209688 0.167259 0.166464
279 4 0.262208 0.248797 0.138873
277 2 0.267818 0.248708 0.114507
285 4 0.260294 0.241522 0.157174
754 2 0.339024 0.240835 0.146455
338 4 0.0625041 0.267752 0.122445
337 2 0.0619879 0.284184 0.141283
704 4 0.0462263 0.30313 0.172501
339 4 0.0614717 0.300617 0.160122
611 4 0.279696 0.267169 0.0867523
278 4 0.273429 0.248618 0.0901413
630 4 0.412562 0.269389 0.0813529
756 4 0.34492 0.248588 0.123427
253 2 0.373573 0.26405 0.0955686
255 4 0.354341 0.262279 0.111448
624 4 0.43965 0.270077 0.133405
629 4 0.446576 0.260078 0.116809
628 2 0.429569 0.264733 0.0990807
622 2 0.432944 0.266788 0.157267
621 4 0.0449086 0.421329 0.117116
619 2 0.0374257 0.401614 0.130551
620 4 0.0299428 0.3819 0.143987
455 4 0.0985564 0.361424 0.0832793
647 4 0.131799 0.391371 0.156857
537 4 0.142966 0.379732 0.145759
535 2 0.161273 0.39449 0.13726
536 4 0.17958 0.409248 0.128762
386 4 0.343809 0.345148 0.0833741
385 2 0.350076 0.364384 0.0980671
387 4 0.356344 0.383619 0.11276
12 3 0.399432 0.38665 0.118493
11 1 0.38611 0.395817 0.134853
15 3 0.364999 0.387508 0.132864
672 4 0.408936 0.399767 0.105844
302 4 0.345816 0.39643 0.125699
13 3 0.394865 0.390301 0.155621
670 2 0.415643 0.383597 0.08799
104 3 0.483499 0.343507 0.0877705
315 4 0.0423187 0.42555 0.0979558
1431 4 0.178054 0.496288 0.16081
1438 2 0.229638 0.452147 0.0821423
625 2 0.227633 0.437124 0.140153
1439 4 0.22219 0.440071 0.102731
627 4 0.222104 0.450864 0.120009
638 4 0.277109 0.460643 0.158895
637 2 0.277159 0.483259 0.148233
303 4 0.324782 0.441282 0.132521
301 2 0.335299 0.418856 0.12911
659 4 0.332477 0.456169 0.144489
14 3 0.385822 0.418872 0.132247
494 4 0.389903 0.481655 0.115156
495 4 0.391463 0.431705 0.116963
493 2 0.390683 0.45668 0.116059
658 2 0.348211 0.464978 0.161809
1674 4 0.438687 0.495099 0.098346
1584 4 0.452065 0.479757 0.101855
690 4 0.167144 0.0561473 0.18935
653 4 0.242056 0.0406259 0.172597
674 4 0.168053 0.0643911 0.208733
673 2 0.182574 0.0689695 0.228566
689 4 0.205646 0.0308957 0.169838
688 2 0.186395 0.0435215 0.179594
693 4 0.24448 0.0476812 0.191579
675 4 0.197095 0.0735479 0.2484
691 2 0.260772 0.0642928 0.200735
1699 2 0.320613 0.082775 0.208495
692 4 0.277063 0.0809043 0.209891
1700 4 0.34543 0.0798193 0.207741
22 3 0.384426 0.0500479 0.217794
698 4 0.396288 0.0546809 0.232591
21 1 0.37472 0.07089 0.217053
333 4 0.403103 0.0742469 0.23123
25 3 0.37698 0.0794766 0.196081
23 3 0.352231 0.0688863 0.222406
759 4 0.360009 0.0895118 0.196854
349 2 0.4774 0.0786967 0.241508
351 4 0.500218 0.0692095 0.237703
2481 4 0.00639715 0.101498 0.168399
511 2 0.00995443 0.152516 0.201971
513 4 0.0293335 0.165049 0.211592
29 3 0.238638 0.140728 0.166206
477 4 0.229783 0.156316 0.176545
28 3 0.252693 0.112286 0.187133
27 3 0.268127 0.146516 0.188779
1701 4 0.295796 0.0857308 0.209249
26 1 0.257971 0.131265 0.174872
24 3 0.385326 0.0846546 0.23243
757 2 0.358743 0.107706 0.17975
331 2 0.421767 0.0888433 0.239215
770 4 0.449839 0.10799 0.173399
312 4 0.46296 0.119681 0.183192
311 4 0.50066 0.126857 0.215253
310 2 0.48181 0.123269 0.199222
578 4 0.0486644 0.165103 0.208773
577 2 0.0494555 0.185323 0.223461
529 2 0.0210005 0.232997 0.220236
530 4 0.0361478 0.220608 0.235801
579 4 0.0502467 0.205542 0.238149
531 4 0.0058533 0.245385 0.204671
2483 4 0.998014 0.234709 0.188158
402 4 0.224467 0.216619 0.239357
755 4 0.333128 0.233081 0.169484
703 2 0.0298524 0.320643 0.179598
395 4 0.077977 0.293531 0.170969
396 4 0.0812324 0.289617 0.220716
394 2 0.0796047 0.291574 0.195842
442 2 0.0769808 0.26661 0.246208
361 2 0.132855 0.263953 0.171009
443 4 0.0889642 0.271333 0.224777
363 4 0.118962 0.283368 0.17844
283 2 0.266413 0.259051 0.173921
284 4 0.272533 0.27658 0.190668
345 4 0.309539 0.334262 0.246757
528 4 0.428711 0.301696 0.23183
623 4 0.426238 0.263498 0.181129
527 4 0.412939 0.271737 0.195027
526 2 0.420825 0.286716 0.213429
542 4 0.43319 0.32011 0.239522
262 2 0.0686701 0.412537 0.249178
300 4 0.0802655 0.366256 0.199716
705 4 0.0134785 0.338156 0.186695
646 2 0.114892 0.384215 0.173831
299 4 0.103947 0.35731 0.242842
648 4 0.0979843 0.377059 0.190805
298 2 0.0921063 0.361783 0.221279
290 4 0.216977 0.41221 0.231467
596 4 0.328451 0.349263 0.186197
597 4 0.371424 0.374399 0.181486
595 2 0.349937 0.361831 0.183842
645 4 0.385279 0.390381 0.174698
643 2 0.399195 0.402974 0.191218
644 4 0.413111 0.415567 0.207739
263 4 0.0506309 0.421042 0.234097
416 4 0.205399 0.429103 0.230477
1429 2 0.177125 0.472336 0.167923
626 4 0.233162 0.423383 0.160298
1430 4 0.176195 0.448383 0.175036
417 4 0.171795 0.438691 0.194707
415 2 0.188597 0.433897 0.212592
660 4 0.363946 0.473787 0.17913
231 4 0.358172 0.480252 0.19707
447 4 0.403248 0.430575 0.214219
445 2 0.41315 0.428931 0.237119
1403 4 0.0101844 0.0164862 0.274439
233 4 0.00389554 0.0351803 0.269689
232 2 0.0184814 0.0549739 0.265145
234 4 0.0330673 0.0747675 0.260601
317 4 0.0544203 0.0710576 0.260819
316 2 0.0685664 0.0782078 0.280157
318 4 0.0827124 0.0853579 0.299495
722 4 0.188687 0.0829461 0.262729
721 2 0.207369 0.0828277 0.279346
1405 2 0.203655 0.00843869 0.296091
1406 4 0.179198 0.0107767 0.29145
697 2 0.402116 0.0389639 0.251143
699 4 0.407944 0.0232468 0.269696
1518 4 0.42228 0.0160906 0.280476
425 4 0.460336 0.0224412 0.312828
424 2 0.462773 0.0459578 0.304691
258 4 0.48037 0.0783221 0.286296
426 4 0.465209 0.0694743 0.296554
1516 2 0.42511 0.997155 0.296557
391 2 0.099304 0.140679 0.291644
392 4 0.108459 0.131703 0.270178
393 4 0.0901486 0.149654 0.31311
544 2 0.148374 0.150835 0.266031
545 4 0.127601 0.137243 0.263045
546 4 0.169147 0.164427 0.269016
399 4 0.104774 0.143605 0.324142
723 4 0.226051 0.0827094 0.295964
599 4 0.228347 0.104906 0.300558
404 4 0.215529 0.129039 0.303392
403 2 0.216766 0.151858 0.293246
598 2 0.228183 0.105465 0.325554
332 4 0.440432 0.10344 0.2472
350 4 0.454581 0.088184 0.245314
256 2 0.485357 0.0958314 0.303435
257 4 0.490343 0.113341 0.320574
405 4 0.218002 0.174678 0.283101
401 4 0.224191 0.193856 0.283882
400 2 0.224329 0.205237 0.26162
765 4 0.43446 0.202772 0.318043
763 2 0.45889 0.201036 0.313011
764 4 0.48332 0.199301 0.307979
444 4 0.0649974 0.261886 0.267638
615 4 0.406778 0.321347 0.301358
498 4 0.34738 0.257976 0.338404
541 2 0.422925 0.32476 0.261842
543 4 0.41266 0.32941 0.284162
366 4 0.0537853 0.345695 0.297864
365 4 0.0140722 0.374761 0.30674
749 4 0.0719117 0.338464 0.293393
364 2 0.0339288 0.360228 0.302302
748 2 0.089424 0.342016 0.275903
602 4 0.0910906 0.384621 0.299476
750 4 0.106936 0.345568 0.258414
777 4 0.0933524 0.40393 0.305552
735 4 0.142959 0.393661 0.271701
601 2 0.0955275 0.380942 0.323806
677 4 0.154634 0.407952 0.271752
733 2 0.15541 0.372548 0.276638
734 4 0.167861 0.351434 0.281574
264 4 0.0867094 0.404032 0.26426
289 2 0.223545 0.404064 0.254176
291 4 0.230113 0.395918 0.276884
414 4 0.234463 0.388274 0.294338
343 2 0.329919 0.348087 0.251087
412 2 0.252873 0.404538 0.298998
309 4 0.35707 0.354691 0.273245
344 4 0.350298 0.361911 0.255417
307 2 0.36345 0.367001 0.294053
727 2 0.345764 0.41312 0.328577
729 4 0.353697 0.390098 0.3229
308 4 0.369829 0.379311 0.31486
613 2 0.407442 0.338464 0.319571
2924 4 0.493738 0.366089 0.324146
2923 2 0.474565 0.361424 0.308789
2925 4 0.455393 0.356759 0.293432
713 4 0.474374 0.415625 0.292296
120 3 0.4958 0.410282 0.298956
712 2 0.451106 0.4155 0.283146
1757 4 0.115249 0.460079 0.284722
776 4 0.0995408 0.447705 0.282181
775 2 0.0964466 0.425818 0.293867
1756 2 0.110318 0.48459 0.284967
767 4 0.21551 0.496019 0.256504
676 2 0.173184 0.423831 0.277132
678 4 0.191734 0.43971 0.282513
768 4 0.205913 0.450657 0.275236
766 2 0.210711 0.473338 0.26587
504 4 0.199456 0.428812 0.322672
1640 4 0.235528 0.49649 0.253323
413 4 0.271284 0.420802 0.303657
438 4 0.305522 0.453049 0.268545
437 4 0.282496 0.439979 0.310967
436 2 0.294009 0.446514 0.289756
1437 4 0.273029 0.458212 0.311432
5 3 0.282232 0.422488 0.323829
1435 2 0.257267 0.466015 0.329204
433 2 0.331941 0.46696 0.329633
728 4 0.33783 0.436142 0.334253
435 4 0.343896 0.487134 0.320958
2862 4 0.491717 0.415898 0.277639
446 4 0.423053 0.427287 0.260019
714 4 0.427837 0.415375 0.273996
2756 4 0.00511519 0.0415552 0.423647
730 2 0.109519 0.059358 0.389227
604 2 0.15987 0.0488224 0.361182
732 4 0.122202 0.0657157 0.368637
605 4 0.141773 0.06501 0.367154
731 4 0.0968373 0.0530004 0.409816
606 4 0.177966 0.0326348 0.355211
319 2 0.257984 0.0701397 0.41292
321 4 0.256188 0.0566241 0.391961
249 4 0.317531 0.0701627 0.344931
684 4 0.299649 0.077875 0.343138
683 4 0.263509 0.0679443 0.376243
682 2 0.281579 0.0729097 0.35969
247 2 0.341658 0.0688173 0.351355
248 4 0.365785 0.0674719 0.35778
633 4 0.374361 0.0795742 0.371994
480 4 0.50054 0.00768969 0.333609
1749 4 0.480868 0.000137536 0.332451
397 2 0.119122 0.156673 0.339907
600 4 0.22802 0.106024 0.350551
685 2 0.221226 0.11798 0.379547
687 4 0.210164 0.106497 0.360288
686 4 0.232288 0.129464 0.398807
410 4 0.235599 0.131909 0.417659
707 4 0.262523 0.166708 0.361838
631 2 0.382745 0.0886871 0.393716
419 4 0.382022 0.160976 0.423844
716 4 0.380022 0.158024 0.403333
632 4 0.39113 0.0978 0.415438
760 2 0.490175 0.137022 0.351071
762 4 0.491408 0.140465 0.375806
398 4 0.133471 0.169742 0.355672
388 2 0.0987403 0.238702 0.411971
276 4 0.13042 0.243724 0.383559
389 4 0.120929 0.243517 0.401498
274 2 0.152515 0.245067 0.371931
473 4 0.221208 0.20467 0.349403
474 4 0.19261 0.245574 0.352514
472 2 0.206909 0.225122 0.350959
708 4 0.221767 0.1949 0.368536
706 2 0.242145 0.180804 0.365187
651 4 0.241553 0.241442 0.393953
649 2 0.241683 0.22052 0.407643
275 4 0.174609 0.246411 0.360303
377 4 0.372586 0.215199 0.376763
717 4 0.372895 0.196098 0.371706
715 2 0.376458 0.177061 0.38752
376 2 0.357078 0.227806 0.361738
378 4 0.34157 0.240413 0.346713
269 4 0.503705 0.228018 0.34643
268 2 0.48871 0.23428 0.365433
270 4 0.473715 0.240541 0.384436
306 4 0.459179 0.250553 0.394758
618 4 0.0135288 0.254166 0.407482
696 4 0.129649 0.316845 0.417343
489 4 0.233731 0.254695 0.381648
487 2 0.249762 0.273877 0.382126
488 4 0.265794 0.293059 0.382604
508 2 0.245716 0.322092 0.354814
509 4 0.25826 0.304435 0.367307
496 2 0.345166 0.282525 0.334208
497 4 0.342952 0.307075 0.330012
2456 4 0.397814 0.253658 0.409286
266 4 0.360863 0.321347 0.389424
585 4 0.350928 0.30572 0.397804
583 2 0.365168 0.285675 0.402342
584 4 0.379408 0.26563 0.40688
304 2 0.466668 0.26361 0.414723
547 2 0.0939026 0.40482 0.37289
549 4 0.106911 0.385596 0.363594
603 4 0.0999643 0.377262 0.348137
548 4 0.0808944 0.424043 0.382187
510 4 0.233172 0.339748 0.342321
375 4 0.221364 0.397468 0.349836
374 4 0.244417 0.353151 0.352125
373 2 0.23289 0.37531 0.350981
3 3 0.289593 0.396856 0.350408
267 4 0.328288 0.351678 0.366628
265 2 0.344576 0.336512 0.378026
614 4 0.408106 0.355581 0.337785
119 3 0.497921 0.415543 0.336178
561 4 0.471278 0.410729 0.405143
752 4 0.483427 0.414223 0.389266
407 4 0.0737472 0.424701 0.400399
680 4 0.036358 0.475729 0.394349
406 2 0.0651421 0.448128 0.398877
408 4 0.056537 0.471555 0.397356
569 4 0.110683 0.458723 0.402841
635 4 0.147496 0.489079 0.392529
634 2 0.157724 0.46833 0.383042
636 4 0.167952 0.44758 0.373554
1545 4 0.244668 0.490975 0.357049
502 2 0.193196 0.434426 0.346219
503 4 0.186936 0.44004 0.369766
1436 4 0.241504 0.473817 0.346976
434 4 0.319986 0.446786 0.338309
2 3 0.312548 0.426172 0.345282
1 1 0.290587 0.419344 0.34478
668 4 0.292781 0.446553 0.363973
4 3 0.278481 0.431886 0.360095
667 2 0.300069 0.466653 0.376935
669 4 0.307357 0.486754 0.389898
1401 4 0.324775 0.489196 0.400522
751 2 0.481486 0.416032 0.364404
753 4 0.479546 0.41784 0.339541
2755 2 0.00233383 0.0663133 0.42153
718 2 0.0321913 0.0671151 0.473195
719 4 0.0563931 0.070249 0.467752
369 4 0.0746331 0.0689331 0.459688
720 4 0.00798951 0.0639812 0.478638
367 2 0.0920262 0.0634895 0.44257
368 4 0.109419 0.0580459 0.425452
341 4 0.179894 0.0731189 0.458904
441 4 0.222512 0.00673633 0.456225
2430 4 0.172165 0.0543283 0.457036
2428 2 0.189874 0.0368194 0.454794
2429 4 0.207582 0.0193105 0.452552
467 4 0.347733 0.0735048 0.463267
2879 4 0.437835 0.00434718 0.447357
2878 2 0.452069 0.0245986 0.450885
2880 4 0.466303 0.04485 0.454413
642 4 0.484479 0.0496904 0.462195
640 2 0.496873 0.0705025 0.455998
2757 4 0.999552 0.0910713 0.419413
261 4 0.0732232 0.161934 0.502294
725 4 0.2433 0.0942691 0.439302
409 2 0.241125 0.156197 0.41983
340 2 0.187911 0.093015 0.471752
1152 4 0.206429 0.129026 0.484167
342 4 0.195927 0.112911 0.484599
724 2 0.250686 0.0973852 0.462986
320 4 0.25978 0.0836553 0.433879
430 2 0.294897 0.0901643 0.494584
432 4 0.277775 0.106294 0.486107
726 4 0.258072 0.100501 0.486669
418 2 0.366811 0.141255 0.426058
420 4 0.3516 0.121534 0.428272
466 2 0.363293 0.0850959 0.447496
468 4 0.378852 0.096687 0.431724
574 2 0.40662 0.142823 0.468104
576 4 0.383624 0.145036 0.477666
516 4 0.42922 0.157407 0.446696
575 4 0.429617 0.14061 0.458542
514 2 0.452174 0.164276 0.439549
470 4 0.0593992 0.224781 0.425644
390 4 0.0765518 0.233887 0.422443
469 2 0.0584344 0.200649 0.432119
260 4 0.0584473 0.165714 0.45467
471 4 0.0574696 0.176518 0.438593
259 2 0.0658352 0.163824 0.478482
650 4 0.241812 0.199597 0.421334
411 4 0.246651 0.180486 0.422
2455 2 0.39402 0.229752 0.415552
2457 4 0.390226 0.205845 0.421819
515 4 0.475129 0.171145 0.432402
616 2 0.0314574 0.267315 0.41892
617 4 0.0493861 0.280465 0.430358
695 4 0.0849256 0.295949 0.425333
694 2 0.107288 0.306397 0.421338
1260 4 0.14068 0.313211 0.43328
1258 2 0.161182 0.30242 0.423877
1259 4 0.181684 0.29163 0.414475
1011 4 0.492148 0.276294 0.443672
305 4 0.474157 0.276668 0.434689
326 4 0.08734 0.392511 0.431925
325 2 0.0948462 0.383702 0.454088
10 3 0.146128 0.367873 0.466144
7 3 0.115442 0.363197 0.486866
327 4 0.102352 0.374892 0.476252
6 1 0.137944 0.367944 0.487396
8 3 0.140974 0.388859 0.496977
711 4 0.133573 0.398165 0.481243
238 2 0.35779 0.38813 0.469453
240 4 0.350673 0.408161 0.456289
239 4 0.364907 0.3681 0.482618
2506 2 0.495384 0.355026 0.4632
559 2 0.47214 0.39363 0.423365
2508 4 0.479768 0.374076 0.458906
560 4 0.473002 0.376531 0.441588
540 4 0.04129 0.487414 0.478279
538 2 0.0571321 0.487034 0.497619
1382 4 0.0356435 0.493514 0.459494
1381 2 0.0133369 0.482218 0.459573
773 4 0.149341 0.501263 0.473318
384 4 0.13619 0.495446 0.48794
568 2 0.118682 0.444993 0.422146
710 4 0.140077 0.438863 0.452923
570 4 0.126681 0.431263 0.441451
772 2 0.143563 0.487675 0.453139
709 2 0.136825 0.418514 0.467083
774 4 0.137785 0.474088 0.432961
1399 2 0.339372 0.488175 0.420797
334 2 0.33112 0.429952 0.44396
336 4 0.310806 0.443571 0.44916
588 4 0.354725 0.498669 0.458047
335 4 0.351433 0.416333 0.43876
1400 4 0.35397 0.487154 0.441071
1127 4 0.00468115 0.0650981 0.499
1523 4 0.149296 0.00147667 0.524196
949 2 0.213759 0.0717905 0.551497
950 4 0.232934 0.0565834 0.556617
1182 4 0.252498 0.0580815 0.563336
961 2 0.325691 0.013228 0.569058
1180 2 0.275878 0.050158 0.559363
963 4 0.309014 0.0261517 0.55564
1181 4 0.299258 0.0422346 0.555391
431 4 0.312019 0.0740346 0.503061
843 4 0.318733 0.0681367 0.520593
1217 4 0.387239 0.067683 0.513052
841 2 0.343601 0.0655413 0.520504
842 4 0.36847 0.0629458 0.520415
1216 2 0.401633 0.0834525 0.526064
4467 4 0.427662 0.998455 0.576861
2283 4 0.430488 0.018866 0.5751
1082 4 0.0566079 0.149907 0.579391
1035 4 0.0651299 0.153025 0.56148
1033 2 0.0662324 0.164058 0.539069
937 2 0.14508 0.142498 0.544388
938 4 0.124849 0.146541 0.558514
1030 2 0.167144 0.0966923 0.570397
939 4 0.165312 0.138456 0.530263
1032 4 0.147533 0.0905659 0.584645
1031 4 0.186756 0.102819 0.556148
951 4 0.194583 0.0869976 0.546377
1151 4 0.186503 0.138732 0.528994
1150 2 0.196466 0.133879 0.50658
857 4 0.326133 0.125892 0.570868
858 4 0.286294 0.155773 0.575425
856 2 0.306214 0.140833 0.573147
898 2 0.359698 0.15311 0.568731
899 4 0.341503 0.136424 0.564767
1218 4 0.416027 0.0992221 0.539077
1034 4 0.0673349 0.175091 0.516658
879 4 0.0879314 0.243695 0.572361
877 2 0.0864239 0.238983 0.547852
878 4 0.0849163 0.234271 0.523343
811 2 0.316334 0.224537 0.56212
812 4 0.291373 0.225638 0.561165
796 2 0.273189 0.188497 0.574395
798 4 0.277432 0.21133 0.565131
813 4 0.341295 0.223436 0.563074
900 4 0.377893 0.169795 0.572695
872 4 0.383466 0.188569 0.578109
873 4 0.359655 0.226411 0.55571
871 2 0.371561 0.20749 0.566909
1190 4 0.248817 0.32541 0.510976
1191 4 0.20156 0.332896 0.525515
1189 2 0.225188 0.329153 0.518246
1205 4 0.407556 0.314232 0.571576
1204 2 0.383684 0.321534 0.570169
1206 4 0.359811 0.328835 0.568762
954 4 0.426537 0.31314 0.578894
952 2 0.434055 0.289302 0.578238
953 4 0.441573 0.265465 0.577582
905 4 0.457924 0.255674 0.582363
9 3 0.148723 0.351782 0.500085
1135 2 0.165387 0.386739 0.575398
897 4 0.161351 0.344477 0.561597
896 4 0.186642 0.343276 0.518474
1137 4 0.169229 0.36472 0.564191
895 2 0.173996 0.343877 0.540036
803 4 0.251845 0.34594 0.513992
802 2 0.273 0.355497 0.523282
804 4 0.294155 0.365054 0.532572
929 4 0.310412 0.353465 0.534241
928 2 0.331354 0.349001 0.547151
930 4 0.352296 0.344537 0.560062
1001 4 0.452336 0.398029 0.549273
926 4 0.465973 0.384253 0.543005
925 2 0.483897 0.382158 0.525698
1000 2 0.457709 0.399512 0.573648
539 4 0.0729742 0.486653 0.51696
934 2 0.00692138 0.478454 0.577423
936 4 0.0299896 0.487707 0.5747
1936 2 0.0620471 0.496017 0.554449
1938 4 0.0463279 0.499226 0.573626
1937 4 0.0777663 0.492807 0.535271
1171 2 0.246756 0.462712 0.586096
882 4 0.276926 0.480221 0.568775
880 2 0.275086 0.490367 0.545997
1172 4 0.27112 0.467923 0.584
1058 4 0.0783871 0.0115631 0.631728
1155 4 0.0801661 0.0738833 0.612535
1057 2 0.0828743 0.0358612 0.627901
1059 4 0.0873614 0.0601594 0.624075
2282 4 0.458215 0.0395535 0.611211
2281 2 0.444352 0.0292097 0.593156
43 3 0.470457 0.0533885 0.620469
41 1 0.479173 0.063908 0.639225
44 3 0.462012 0.0698366 0.653674
45 3 0.490854 0.0824451 0.633013
42 3 0.493297 0.0493243 0.650041
1081 2 0.0333747 0.149454 0.588621
1083 4 0.0101415 0.149001 0.597851
1153 2 0.0954287 0.0930922 0.617357
1154 4 0.110691 0.112301 0.622178
1221 4 0.129045 0.103544 0.619707
1219 2 0.147725 0.109669 0.635158
1220 4 0.166405 0.115793 0.650609
1212 4 0.211191 0.130928 0.646112
1210 2 0.232663 0.136264 0.65776
1004 4 0.304346 0.0953049 0.654541
1003 2 0.28847 0.0956676 0.635228
1005 4 0.272594 0.0960303 0.615915
797 4 0.268946 0.165664 0.583658
1272 4 0.103736 0.237957 0.584765
1270 2 0.120768 0.222813 0.595047
1271 4 0.137801 0.207668 0.605329
909 4 0.157912 0.20899 0.611796
907 2 0.161275 0.217586 0.635033
1025 4 0.365843 0.18461 0.657202
1024 2 0.386128 0.193842 0.645868
1026 4 0.406414 0.203073 0.634535
1143 4 0.358578 0.165712 0.651367
1064 4 0.214803 0.317892 0.650824
1063 2 0.205239 0.295835 0.657692
1239 4 0.272518 0.300214 0.582754
1237 2 0.289897 0.291591 0.598528
792 4 0.309605 0.291999 0.631886
790 2 0.333963 0.294205 0.637081
1238 4 0.307275 0.282969 0.614302
791 4 0.358321 0.29641 0.642276
3123 4 0.466725 0.264341 0.6594
906 4 0.483378 0.250538 0.6251
904 2 0.470651 0.253106 0.603731
983 4 0.0452805 0.403192 0.59667
1041 4 0.0591462 0.417327 0.602083
982 2 0.0215406 0.402768 0.588833
1039 2 0.0833049 0.419165 0.60826
992 4 0.158764 0.416705 0.60513
1136 4 0.161545 0.408757 0.586606
1002 4 0.463081 0.400995 0.598022
1910 4 0.455058 0.406063 0.616046
3330 4 0.498246 0.402423 0.652371
991 2 0.137339 0.427547 0.612101
993 4 0.115913 0.438389 0.619071
1040 4 0.107464 0.421003 0.614437
1160 4 0.213568 0.474533 0.589851
1159 2 0.192974 0.488573 0.591838
1173 4 0.222392 0.457501 0.588193
2172 4 0.212004 0.493546 0.64379
1175 4 0.262366 0.47015 0.620159
1174 2 0.277491 0.487415 0.630075
889 2 0.362592 0.489815 0.660724
891 4 0.358297 0.495596 0.63678
1911 4 0.441076 0.432519 0.656112
1909 2 0.448067 0.419291 0.636079
1268 4 0.436906 0.448977 0.647119
1267 2 0.435237 0.472827 0.654439
1269 4 0.433569 0.496676 0.661758
1185 4 0.0223183 0.0589184 0.665993
945 4 0.0347723 0.0596591 0.680421
943 2 0.0411022 0.0572496 0.70449
1076 4 0.03164 0.0632368 0.738184
944 4 0.0474321 0.05484 0.728559
1283 4 0.160781 0.115437 0.67062
32 3 0.102104 0.115388 0.750329
1282 2 0.172143 0.113119 0.692772
1284 4 0.183505 0.1108 0.714924
1227 4 0.184964 0.109062 0.734309
831 4 0.338603 0.096284 0.706308
1211 4 0.254134 0.1416 0.669408
888 4 0.268418 0.151544 0.679467
886 2 0.282417 0.130828 0.679231
887 4 0.296416 0.110112 0.678995
829 2 0.320122 0.0925033 0.689897
830 4 0.30164 0.0887226 0.673485
976 2 0.302866 0.160732 0.725387
978 4 0.281736 0.152965 0.736267
1142 4 0.336528 0.152981 0.694407
1141 2 0.347553 0.159346 0.672887
1107 4 0.0483289 0.183116 0.733175
851 4 0.0307957 0.177316 0.739749
850 2 0.00952488 0.189683 0.735302
1208 4 0.0838939 0.243734 0.680539
822 4 0.136405 0.218059 0.710793
1278 4 0.152529 0.208436 0.717407
820 2 0.117361 0.231505 0.701752
821 4 0.0983175 0.244951 0.692712
947 4 0.16488 0.232999 0.677507
908 4 0.164639 0.226182 0.658271
1276 2 0.166138 0.21456 0.737469
946 2 0.183702 0.249373 0.679183
977 4 0.323996 0.168499 0.714507
916 2 0.324584 0.21267 0.713834
918 4 0.322917 0.187856 0.711248
917 4 0.326251 0.237483 0.71642
3122 4 0.495593 0.229898 0.681331
3121 2 0.481159 0.24712 0.670366
1261 2 0.432348 0.222098 0.749391
1262 4 0.424176 0.239246 0.733131
1207 2 0.0749063 0.264756 0.690662
1209 4 0.0659188 0.285779 0.700784
1244 4 0.01361 0.292647 0.681855
1243 2 0.00599651 0.283401 0.703803
1065 4 0.195674 0.273778 0.664561
948 4 0.202524 0.265747 0.680859
1240 2 0.241822 0.300247 0.719209
1242 4 0.222322 0.315403 0.715309
1097 4 0.302844 0.247165 0.732076
1241 4 0.261323 0.285091 0.723109
1008 4 0.323222 0.252984 0.733095
1096 2 0.28245 0.257405 0.721858
1098 4 0.262056 0.267645 0.711641
1006 2 0.343536 0.25857 0.746561
1192 2 0.421215 0.276185 0.739744
1194 4 0.418758 0.256896 0.724025
1279 2 0.0598388 0.379647 0.703228
3275 4 0.047252 0.384867 0.742489
1280 4 0.0451828 0.380732 0.723457
1281 4 0.0744948 0.378563 0.682999
893 4 0.130653 0.345382 0.692514
892 2 0.110661 0.36033 0.693943
894 4 0.0906686 0.375278 0.695372
940 2 0.163101 0.408267 0.740185
942 4 0.138959 0.411254 0.745966
1028 4 0.230173 0.367729 0.672782
941 4 0.187243 0.405279 0.734405
1068 4 0.225674 0.378135 0.688144
1067 4 0.203509 0.3973 0.728667
1066 2 0.214592 0.387718 0.708405
1027 2 0.24944 0.382685 0.667281
1029 4 0.268708 0.397641 0.661781
1139 4 0.269096 0.408876 0.678978
1228 2 0.362682 0.403125 0.733368
1229 4 0.342299 0.40248 0.718902
1138 2 0.28173 0.423937 0.694428
1140 4 0.294364 0.438999 0.709879
1989 4 0.291948 0.450139 0.727433
1987 2 0.307571 0.458622 0.745015
890 4 0.366888 0.484033 0.684668
1100 4 0.494561 0.482433 0.722223
1099 2 0.473789 0.494995 0.716232
1250 4 0.487684 0.467635 0.737692
1075 2 0.0383612 0.049238 0.757781
1077 4 0.0450823 0.0352392 0.777378
1203 4 0.0645212 0.0292563 0.782057
1201 2 0.0884371 0.0268298 0.775178
2049 4 0.131011 0.0257671 0.771087
1202 4 0.112353 0.0244033 0.768299
2047 2 0.149289 0.00964066 0.765516
1148 4 0.176422 0.0492496 0.754667
1147 2 0.197256 0.0499269 0.768475
1149 4 0.21809 0.0506041 0.782283
1049 4 0.23573 0.045172 0.790943
1048 2 0.250941 0.0329759 0.775288
1050 4 0.266152 0.0207798 0.759634
846 4 0.473971 0.0125212 0.758596
1113 4 0.461099 0.997332 0.761708
1105 2 0.0574417 0.165045 0.747858
35 3 0.0860977 0.147964 0.759021
3387 4 0.0157578 0.122196 0.76566
832 2 0.0446854 0.130886 0.793615
863 4 0.0270519 0.111323 0.818309
833 4 0.0259224 0.130566 0.810139
33 3 0.0767567 0.116842 0.778043
834 4 0.0634485 0.131207 0.777092
1106 4 0.0665544 0.146974 0.76254
31 1 0.0939372 0.128335 0.7675
34 3 0.111088 0.132505 0.782562
1073 4 0.119023 0.150196 0.785447
1225 2 0.189942 0.111016 0.758734
1226 4 0.19492 0.11297 0.783159
840 4 0.18842 0.118683 0.801418
838 2 0.207466 0.130476 0.812525
839 4 0.226512 0.142269 0.823632
959 4 0.245688 0.142391 0.816261
818 4 0.372314 0.0839507 0.818079
817 2 0.370596 0.0968365 0.796721
819 4 0.368878 0.109722 0.775362
1084 2 0.364144 0.150274 0.787169
1085 4 0.371469 0.129936 0.774605
3268 2 0.48998 0.153388 0.818947
3270 4 0.485988 0.171208 0.801868
1146 4 0.478833 0.160245 0.787156
778 2 0.0751396 0.216492 0.809886
779 4 0.056553 0.232415 0.815001
1214 4 0.0489772 0.24859 0.823133
1074 4 0.10401 0.187294 0.815431
780 4 0.0937263 0.200569 0.804772
1072 2 0.111516 0.168745 0.800439
1277 4 0.179748 0.220684 0.75753
1131 4 0.193003 0.223483 0.773306
1130 4 0.201602 0.180825 0.797945
1129 2 0.197302 0.202154 0.785625
1086 4 0.35682 0.170613 0.799734
1299 4 0.35216 0.189693 0.795549
1297 2 0.371034 0.205989 0.793708
1298 4 0.389907 0.222285 0.791868
47 3 0.401533 0.219877 0.807539
49 3 0.420269 0.246668 0.826083
46 1 0.413411 0.224509 0.826686
1263 4 0.440519 0.204951 0.76565
1145 4 0.440822 0.185189 0.766329
1144 2 0.459828 0.172717 0.776742
48 3 0.431898 0.210517 0.827614
1215 4 0.00900448 0.271268 0.803421
1213 2 0.0289908 0.259929 0.813277
1044 4 0.373446 0.268526 0.778175
1007 4 0.363849 0.264155 0.760027
1043 4 0.410063 0.262705 0.811731
1042 2 0.391754 0.265615 0.794953
805 2 0.395353 0.3222 0.775353
806 4 0.407524 0.303659 0.763808
1193 4 0.423671 0.295473 0.755463
1166 4 0.431587 0.2612 0.812322
1167 4 0.478757 0.27267 0.800317
1165 2 0.455172 0.266935 0.80632
1307 4 0.4869 0.282875 0.815643
3274 2 0.0620636 0.400229 0.75552
3276 4 0.0768751 0.415591 0.768551