ITEM: TIMESTEP
3030000
ITEM: NUMBER OF ATOMS
4590
ITEM: BOX BOUNDS pp pp pp
-9.9985700000000008e+00 9.9985700000000008e+00
-9.9985700000000008e+00 9.9985700000000008e+00
-9.9985700000000008e+00 9.9985700000000008e+00
ITEM: ATOMS id type xs ys zs
463 2 0.0123977 0.045966 0.0217152
464 4 0.0292277 0.0302947 0.0315304
1668 4 0.0593278 0.0697203 0.0657576
1666 2 0.0425644 0.0597205 0.0813836
3290 4 0.0628152 0.0567637 0.0508977
465 4 0.995568 0.0616374 0.0119
3289 2 0.0800199 0.0432713 0.038768
3291 4 0.0972247 0.0297789 0.0266382
2183 4 0.0962437 0.0321596 0.0057501
566 4 0.151217 0.0601356 0.0205779
565 2 0.165589 0.0436469 0.0326918
567 4 0.179961 0.0271582 0.0448057
490 2 0.311385 0.00496839 0.0584997
491 4 0.312566 0.0248693 0.0434087
985 2 0.306273 0.0387243 0.00513576
987 4 0.315611 0.0370437 0.0282693
2143 2 0.349061 0.00514301 0.00162163
745 2 0.48565 0.0361247 0.0634377
746 4 0.473344 0.050343 0.0469578
421 2 0.071262 0.174422 0.00676318
460 2 0.287404 0.161855 0.0556928
462 4 0.306712 0.150506 0.06681
422 4 0.0492682 0.185555 0.0109459
506 4 0.165238 0.237156 0.0764668
737 4 0.172619 0.223133 0.0639733
736 2 0.18985 0.212059 0.0496328
738 4 0.20708 0.200985 0.0352923
354 4 0.217317 0.196008 0.051589
352 2 0.240181 0.192667 0.0420362
461 4 0.268096 0.173203 0.0445755
353 4 0.263045 0.189326 0.0324835
1069 2 0.391024 0.243369 0.00537348
1070 4 0.400343 0.226616 0.989322
665 4 0.370398 0.196603 0.000708985
323 4 0.488273 0.25991 0.999418
828 4 0.500564 0.244665 0.00430642
836 4 0.0561055 0.24717 0.010879
3339 4 0.0102132 0.280499 0.00239418
505 2 0.145641 0.252685 0.0765115
293 4 0.111001 0.274556 0.0646648
507 4 0.126044 0.268214 0.0765563
287 4 0.125945 0.2869 0.0195341
286 2 0.135664 0.308367 0.0111752
612 4 0.27125 0.300109 0.0510811
610 2 0.276198 0.281094 0.0665455
609 4 0.262767 0.318364 0.0457392
572 4 0.318632 0.279473 0.999545
1071 4 0.381704 0.260123 0.0214245
573 4 0.364063 0.269492 0.0179051
571 2 0.341348 0.274483 0.00872523
324 4 0.443144 0.268558 0.0191472
322 2 0.465709 0.264234 0.00928255
1046 4 0.491618 0.331224 0.0026487
519 4 0.508671 0.263993 0.0529841
990 4 0.15275 0.34157 0.0172067
455 4 0.115279 0.366979 0.0849216
1289 4 0.182678 0.401937 0.0288642
988 2 0.161922 0.364497 0.0211329
989 4 0.171095 0.387424 0.0250592
1288 2 0.195898 0.408347 0.00863266
607 2 0.26847 0.342436 0.0421134
739 2 0.322311 0.34726 0.0467006
250 2 0.290596 0.40038 0.0427546
252 4 0.271099 0.384978 0.0455551
608 4 0.274174 0.366509 0.0384876
741 4 0.313949 0.342363 0.0236511
386 4 0.327986 0.37022 0.0709145
740 4 0.330673 0.352157 0.0697501
226 2 0.379555 0.387459 0.0255722
228 4 0.360857 0.404059 0.0255106
227 4 0.398253 0.370859 0.0256338
1305 4 0.401142 0.356127 0.0136039
1303 2 0.406283 0.332094 0.00900723
1045 2 0.492224 0.341156 0.0255868
281 4 0.433426 0.353763 0.0806382
280 2 0.457201 0.354778 0.0729646
282 4 0.480977 0.355793 0.0652911
1047 4 0.49283 0.351089 0.0485249
104 3 0.48986 0.351968 0.0826329
552 4 0.0132421 0.44943 0.0649875
550 2 0.00644024 0.470654 0.0536542
551 4 0.999638 0.491878 0.0423209
1956 4 0.00645645 0.495047 0.0241527
1788 4 0.152208 0.503663 0.0726945
1786 2 0.175543 0.498241 0.0655359
243 4 0.242724 0.454703 0.0665262
1440 4 0.23125 0.444579 0.0794104
241 2 0.22326 0.466408 0.0560703
242 4 0.203796 0.478113 0.0456144
1787 4 0.198879 0.492819 0.0583772
251 4 0.310092 0.415782 0.039954
524 4 0.320048 0.431564 0.0495919
271 2 0.286105 0.480346 0.0685066
272 4 0.293457 0.456545 0.0663532
525 4 0.366603 0.419388 0.0359851
523 2 0.343326 0.425476 0.0427885
1583 4 0.460479 0.448288 0.0386453
1582 2 0.457251 0.470151 0.0503401
1584 4 0.454024 0.492014 0.0620349
1674 4 0.459102 0.508834 0.0722068
1667 4 0.0258009 0.0497208 0.0970095
16 1 0.0348012 0.0479756 0.13628
19 3 0.0199351 0.0616887 0.147653
17 3 0.0260997 0.0431635 0.115536
20 3 0.0378616 0.0285787 0.147814
1422 4 0.00530731 0.0471615 0.154966
2480 4 0.00826369 0.0672074 0.167027
18 3 0.0551143 0.0588546 0.133553
652 2 0.252074 0.0469712 0.158207
654 4 0.253411 0.0376826 0.135031
1476 4 0.273532 0.0366516 0.129668
1475 4 0.3072 0.0500961 0.0952241
1474 2 0.290366 0.0433738 0.112446
297 4 0.37174 0.0493486 0.133677
295 2 0.395871 0.0558532 0.132933
484 2 0.357154 0.0174232 0.121758
485 4 0.365045 0.0404955 0.116227
296 4 0.420003 0.0623578 0.132188
486 4 0.349263 0.994351 0.127288
557 4 0.432332 0.0663774 0.117023
556 2 0.4548 0.0771347 0.119187
450 4 0.0860275 0.102801 0.0925009
236 4 0.139967 0.122509 0.117452
449 4 0.128375 0.127426 0.102549
448 2 0.107201 0.115113 0.0975251
235 2 0.160641 0.123643 0.131469
237 4 0.181315 0.124777 0.145486
580 2 0.311593 0.127504 0.141658
581 4 0.29575 0.14683 0.142485
30 3 0.281165 0.136273 0.14962
582 4 0.327436 0.108178 0.140831
26 1 0.265422 0.14805 0.161113
758 4 0.345654 0.100525 0.143897
757 2 0.355726 0.0920536 0.165156
558 4 0.477267 0.087892 0.121351
771 4 0.481733 0.098464 0.137475
769 2 0.485305 0.118212 0.152389
477 4 0.236839 0.153883 0.147325
371 4 0.194613 0.202776 0.138455
476 4 0.200659 0.184539 0.131453
475 2 0.218749 0.169211 0.139389
29 3 0.254386 0.162589 0.146786
756 4 0.363505 0.242054 0.11997
754 2 0.351617 0.245821 0.141641
755 4 0.339729 0.249588 0.163313
624 4 0.473069 0.248171 0.136026
629 4 0.458966 0.249199 0.121316
628 2 0.439708 0.25239 0.105693
339 4 0.047471 0.29605 0.163229
294 4 0.102933 0.309831 0.0991804
292 2 0.106967 0.292194 0.0819226
456 4 0.0899686 0.326203 0.0989716
611 4 0.281145 0.26208 0.08201
279 4 0.276418 0.254895 0.149086
277 2 0.279471 0.26093 0.125015
278 4 0.282524 0.266966 0.100944
285 4 0.265428 0.258343 0.164913
255 4 0.357876 0.253352 0.103915
254 4 0.403037 0.265381 0.0861254
253 2 0.380456 0.259367 0.0950201
630 4 0.420449 0.255581 0.0900691
622 2 0.464966 0.260852 0.155994
619 2 0.0391148 0.379276 0.139448
620 4 0.0493196 0.397573 0.1258
621 4 0.02891 0.360979 0.153095
2694 4 0.998414 0.415536 0.132881
315 4 0.0129658 0.419736 0.120186
454 2 0.102624 0.346591 0.0919466
537 4 0.115064 0.388458 0.138588
535 2 0.138536 0.385431 0.130521
536 4 0.162008 0.382403 0.122454
647 4 0.114077 0.396767 0.156876
625 2 0.223398 0.384589 0.134968
627 4 0.221857 0.404195 0.119527
626 4 0.224939 0.364983 0.150409
1439 4 0.237595 0.403444 0.10713
670 2 0.407915 0.350812 0.100343
385 2 0.338715 0.377499 0.0922942
387 4 0.349443 0.384779 0.113674
12 3 0.400857 0.381636 0.122812
11 1 0.388689 0.400611 0.127402
15 3 0.367679 0.398281 0.11893
672 4 0.392367 0.363947 0.114866
302 4 0.345293 0.40432 0.123046
13 3 0.387676 0.40349 0.150404
671 4 0.423463 0.337677 0.0858202
314 4 0.00157577 0.447239 0.0800044
313 2 0.0072708 0.433488 0.100095
1465 2 0.0166224 0.504394 0.123584
1620 4 0.147663 0.484345 0.149043
1618 2 0.143482 0.492275 0.125702
1438 2 0.234423 0.424012 0.0932702
639 4 0.271452 0.486248 0.133936
638 4 0.305435 0.450773 0.143283
637 2 0.288443 0.468511 0.13861
303 4 0.304215 0.430064 0.135317
659 4 0.320345 0.46318 0.152427
301 2 0.324754 0.417192 0.129181
1559 4 0.365369 0.496392 0.138459
14 3 0.399206 0.418821 0.117595
495 4 0.395764 0.43718 0.124832
493 2 0.407042 0.458461 0.118116
494 4 0.418321 0.479741 0.1114
674 4 0.15238 0.0739917 0.209915
688 2 0.163396 0.0460819 0.193676
689 4 0.157732 0.0227609 0.18666
690 4 0.16906 0.069403 0.200692
1505 4 0.175655 0.0150655 0.191086
693 4 0.252176 0.0768225 0.183371
653 4 0.250738 0.0562599 0.181383
1699 2 0.330739 0.0899784 0.212088
1701 4 0.307671 0.0921468 0.221487
1700 4 0.353808 0.08781 0.202689
22 3 0.388373 0.069696 0.228747
698 4 0.409466 0.0706089 0.231224
697 2 0.41126 0.0503911 0.245826
25 3 0.383823 0.0768661 0.192404
349 2 0.483059 0.066099 0.217336
742 2 0.48904 0.00969389 0.245524
513 4 0.0187159 0.135637 0.23434
578 4 0.0270422 0.148165 0.245999
511 2 0.00393039 0.129742 0.215058
673 2 0.150893 0.085026 0.232303
675 4 0.149405 0.0960603 0.25469
691 2 0.270108 0.0835184 0.199459
692 4 0.28804 0.0902143 0.215546
28 3 0.250218 0.133499 0.170886
27 3 0.275697 0.160288 0.17766
21 1 0.384022 0.0861017 0.213221
333 4 0.41275 0.0892757 0.223903
759 4 0.365799 0.0835825 0.186415
23 3 0.36335 0.0955527 0.217886
24 3 0.400607 0.102275 0.214548
770 4 0.488878 0.137961 0.167303
331 2 0.436602 0.0966885 0.222759
312 4 0.487132 0.13382 0.187233
310 2 0.489152 0.140734 0.211176
350 4 0.469464 0.0869228 0.219928
332 4 0.460454 0.104101 0.221614
311 4 0.491173 0.147649 0.23512
577 2 0.0290039 0.172663 0.241393
529 2 0.027312 0.224918 0.201969
530 4 0.0336257 0.213848 0.223481
579 4 0.0309655 0.19716 0.236788
531 4 0.0209982 0.235988 0.180457
2483 4 0.0120532 0.246428 0.165552
372 4 0.175906 0.225992 0.178602
362 4 0.156294 0.2279 0.175721
370 2 0.185259 0.214384 0.158529
704 4 0.0412023 0.311997 0.17155
337 2 0.0686302 0.286885 0.172898
703 2 0.0286011 0.322882 0.190202
705 4 0.0159998 0.333768 0.208854
361 2 0.141777 0.246155 0.184732
363 4 0.12726 0.264411 0.193742
338 4 0.0897893 0.27772 0.182566
395 4 0.106466 0.269976 0.19453
396 4 0.102283 0.285046 0.242028
394 2 0.104375 0.277511 0.218279
283 2 0.272691 0.258652 0.188836
284 4 0.279954 0.258961 0.21276
528 4 0.433672 0.293877 0.230862
623 4 0.456863 0.273532 0.175962
527 4 0.443889 0.266939 0.189988
526 2 0.438781 0.280408 0.210425
542 4 0.448497 0.294038 0.243863
2615 4 0.0150614 0.343542 0.226807
300 4 0.10624 0.377011 0.215752
646 2 0.111905 0.395663 0.181761
648 4 0.109734 0.39456 0.206645
298 2 0.108355 0.363272 0.236536
289 2 0.229422 0.40164 0.250932
416 4 0.20832 0.402985 0.221246
290 4 0.228786 0.406033 0.226325
415 2 0.190771 0.41718 0.210488
597 4 0.392393 0.386929 0.164193
345 4 0.360677 0.364508 0.213911
596 4 0.357742 0.366764 0.194083
645 4 0.398402 0.408803 0.168944
595 2 0.375067 0.376846 0.179138
343 2 0.355687 0.365372 0.238396
263 4 0.0467414 0.41215 0.238986
1431 4 0.148466 0.48351 0.168111
1429 2 0.157104 0.461053 0.174915
1430 4 0.165742 0.438597 0.181718
417 4 0.173222 0.431374 0.199731
438 4 0.266048 0.465181 0.216793
436 2 0.272345 0.466891 0.24093
658 2 0.338891 0.45883 0.168623
643 2 0.396226 0.428932 0.183615
644 4 0.39405 0.449061 0.198287
660 4 0.357437 0.454479 0.184818
231 4 0.36279 0.47303 0.189424
447 4 0.400714 0.455264 0.216619
445 2 0.411558 0.451619 0.238852
1403 4 0.0264399 0.0196661 0.264127
233 4 0.0312773 0.0245595 0.283269
232 2 0.0407952 0.0476727 0.283874
234 4 0.0503131 0.0707859 0.28448
317 4 0.0601317 0.0793782 0.299017
722 4 0.19628 0.068031 0.257164
1407 4 0.234877 0.995094 0.289368
1405 2 0.230853 0.016233 0.276634
1406 4 0.226829 0.0373715 0.2639
721 2 0.192419 0.0740502 0.281124
723 4 0.188558 0.0800695 0.305083
599 4 0.180617 0.076009 0.32354
699 4 0.413053 0.0301734 0.260427
1518 4 0.410159 0.00859098 0.259651
743 4 0.481902 0.0280926 0.260876
425 4 0.49503 0.0249099 0.277771
424 2 0.479903 0.0375836 0.293125
258 4 0.45137 0.0632075 0.301831
426 4 0.464777 0.0502574 0.308479
316 2 0.0749599 0.097664 0.290596
318 4 0.0897882 0.11595 0.282174
393 4 0.0869397 0.159458 0.321897
391 2 0.0883174 0.159567 0.296932
392 4 0.0896952 0.159676 0.271966
544 2 0.114446 0.124285 0.263388
545 4 0.0961395 0.139998 0.269958
546 4 0.132752 0.108572 0.256819
399 4 0.103978 0.161329 0.333448
404 4 0.239004 0.0890421 0.301608
403 2 0.238779 0.113415 0.296031
405 4 0.238553 0.137787 0.290453
401 4 0.249213 0.154544 0.286048
400 2 0.237242 0.175627 0.29216
256 2 0.455253 0.0786732 0.32109
402 4 0.225271 0.196711 0.298273
707 4 0.284874 0.193225 0.334398
377 4 0.387871 0.214139 0.342527
763 2 0.446096 0.195165 0.306303
764 4 0.451936 0.189272 0.282716
442 2 0.0752864 0.279126 0.270033
444 4 0.0670251 0.279632 0.293627
443 4 0.0835477 0.27862 0.246439
497 4 0.314158 0.271238 0.31818
541 2 0.436005 0.31271 0.254839
543 4 0.423513 0.331382 0.265815
749 4 0.0609576 0.335759 0.292384
366 4 0.0558753 0.35396 0.285495
365 4 0.00923826 0.35845 0.302975
364 2 0.0325568 0.356205 0.294235
602 4 0.0686045 0.398169 0.313602
2493 4 0.992913 0.368696 0.310765
748 2 0.0839985 0.340167 0.283731
299 4 0.11047 0.349534 0.257319
750 4 0.107039 0.344574 0.275079
777 4 0.0847271 0.405927 0.304068
735 4 0.14866 0.397539 0.287966
733 2 0.143646 0.37306 0.288856
734 4 0.138631 0.34858 0.289747
677 4 0.163411 0.404869 0.277182
291 4 0.230058 0.397246 0.275538
414 4 0.234342 0.414765 0.283281
412 2 0.253178 0.414637 0.299723
413 4 0.272015 0.414509 0.316165
727 2 0.326357 0.393523 0.324748
344 4 0.350696 0.366236 0.262881
308 4 0.364383 0.379629 0.318253
729 4 0.346 0.37834 0.32772
615 4 0.408157 0.339637 0.275876
309 4 0.366865 0.358478 0.273007
307 2 0.365624 0.369054 0.29563
614 4 0.426765 0.350009 0.321118
613 2 0.417461 0.344823 0.298497
2924 4 0.494874 0.348409 0.322276
2923 2 0.470084 0.346418 0.324857
2862 4 0.482489 0.399875 0.277865
2860 2 0.495831 0.389168 0.259629
120 3 0.487771 0.400062 0.300531
713 4 0.476686 0.416767 0.288664
2925 4 0.445294 0.344427 0.327437
116 1 0.502563 0.391916 0.315811
262 2 0.043979 0.435648 0.247071
264 4 0.0412166 0.459147 0.255156
1758 4 0.101267 0.501168 0.292226
775 2 0.0954216 0.427623 0.297738
1757 4 0.1189 0.456505 0.278263
776 4 0.106116 0.44932 0.291408
1756 2 0.110083 0.478837 0.285244
676 2 0.176292 0.426234 0.278857
678 4 0.189173 0.447599 0.280532
768 4 0.172288 0.457594 0.273403
766 2 0.183288 0.479975 0.275211
1545 4 0.240512 0.49711 0.326331
767 4 0.194288 0.502356 0.277019
5 3 0.269035 0.415364 0.336133
1436 4 0.253246 0.505787 0.3132
437 4 0.278642 0.468601 0.265067
1437 4 0.281778 0.475955 0.284974
1435 2 0.267512 0.490871 0.299087
433 2 0.305059 0.451419 0.313625
435 4 0.308331 0.472228 0.300155
728 4 0.306715 0.408706 0.321776
434 4 0.301787 0.430609 0.327095
446 4 0.422403 0.447974 0.261084
712 2 0.459266 0.429864 0.276408
714 4 0.441847 0.442961 0.264152
368 4 0.0692183 0.0532521 0.417146
731 4 0.0733827 0.06571 0.401921
730 2 0.0931573 0.0707806 0.387484
604 2 0.138603 0.0696539 0.35187
606 4 0.146255 0.0542948 0.333684
605 4 0.130952 0.085013 0.370056
249 4 0.299886 0.0263655 0.34179
684 4 0.285572 0.0408529 0.343619
682 2 0.267006 0.0553916 0.351934
683 4 0.248441 0.0699303 0.360249
247 2 0.318285 0.0402191 0.351523
248 4 0.336685 0.0540726 0.361255
633 4 0.329805 0.0610573 0.377519
631 2 0.335989 0.068016 0.400725
1747 2 0.471384 0.00569178 0.355188
1749 4 0.480066 0.0283016 0.348976
641 4 0.499725 0.0755851 0.414826
480 4 0.497729 0.0379288 0.346877
2586 4 0.00246413 0.148121 0.393948
732 4 0.112932 0.0758512 0.373047
397 2 0.108527 0.143765 0.350652
398 4 0.113076 0.126202 0.367857
598 2 0.193539 0.0926022 0.337063
600 4 0.206461 0.109195 0.350586
685 2 0.20536 0.137874 0.370126
687 4 0.20348 0.128177 0.347156
686 4 0.20724 0.147571 0.393095
410 4 0.211205 0.144882 0.412098
321 4 0.255588 0.0873587 0.368785
319 2 0.262054 0.0954305 0.391549
419 4 0.373518 0.165697 0.392535
418 2 0.353816 0.15037 0.393972
420 4 0.334114 0.135042 0.39541
716 4 0.374889 0.16044 0.37396
257 4 0.459136 0.0941389 0.340349
760 2 0.483412 0.12765 0.346485
761 4 0.467307 0.111667 0.335982
390 4 0.0760495 0.218647 0.414239
388 2 0.093824 0.224205 0.397555
274 2 0.150365 0.229292 0.37197
276 4 0.128182 0.239563 0.377227
473 4 0.229292 0.199031 0.349435
474 4 0.191541 0.221582 0.373248
472 2 0.210416 0.210307 0.361342
708 4 0.239738 0.213328 0.342102
275 4 0.172547 0.219021 0.366714
650 4 0.241437 0.190384 0.406866
651 4 0.253994 0.236704 0.392811
649 2 0.247715 0.213544 0.399838
706 2 0.262306 0.203277 0.33825
489 4 0.257424 0.246279 0.374566
717 4 0.392392 0.193621 0.340894
715 2 0.383641 0.17703 0.357427
376 2 0.37389 0.234758 0.340391
584 4 0.403972 0.24697 0.404515
765 4 0.440257 0.201058 0.32989
269 4 0.49318 0.25687 0.336004
2654 4 0.992941 0.256393 0.410532
389 4 0.111598 0.229764 0.380871
1258 2 0.138762 0.312559 0.398396
1259 4 0.149025 0.324864 0.379202
1260 4 0.128498 0.300254 0.41759
509 4 0.232266 0.30509 0.361813
487 2 0.247595 0.269269 0.374587
488 4 0.237765 0.29226 0.374608
508 2 0.225861 0.329041 0.365057
496 2 0.332922 0.269288 0.33459
267 4 0.341034 0.327698 0.352581
498 4 0.351686 0.267338 0.351
378 4 0.359908 0.255376 0.338254
266 4 0.360952 0.295981 0.385718
585 4 0.381443 0.289775 0.391833
583 2 0.392707 0.268373 0.398174
265 2 0.350993 0.311839 0.369149
268 2 0.487404 0.266003 0.358551
270 4 0.481629 0.275136 0.381099
306 4 0.494026 0.269384 0.395819
304 2 0.483259 0.267712 0.418323
601 2 0.0797117 0.391593 0.335017
407 4 0.0290705 0.410635 0.393845
603 4 0.0908189 0.385017 0.356431
547 2 0.100775 0.415568 0.379956
549 4 0.0866822 0.401257 0.365065
504 4 0.202146 0.404454 0.33645
510 4 0.219456 0.352992 0.3683
374 4 0.221923 0.372608 0.374924
373 2 0.243481 0.381838 0.366249
375 4 0.265039 0.391068 0.357574
3 3 0.282268 0.397398 0.36646
751 2 0.489942 0.397165 0.376625
119 3 0.496175 0.398285 0.337189
753 4 0.484813 0.390046 0.353211
679 2 0.045011 0.481927 0.370338
680 4 0.054495 0.472365 0.391405
406 2 0.0405757 0.43226 0.388826
408 4 0.0520808 0.453884 0.383806
681 4 0.0355271 0.491488 0.349271
569 4 0.110586 0.445365 0.407294
548 4 0.114868 0.42988 0.394847
502 2 0.203561 0.429417 0.336195
635 4 0.173091 0.496971 0.37406
634 2 0.187668 0.479086 0.364427
636 4 0.202245 0.461201 0.354794
503 4 0.204975 0.454379 0.33594
669 4 0.294836 0.487861 0.395087
2 3 0.305689 0.415315 0.343157
1 1 0.284732 0.415862 0.352625
668 4 0.272902 0.449751 0.37127
4 3 0.282598 0.435373 0.365
667 2 0.283869 0.468806 0.383178
1586 4 0.304353 0.505235 0.397441
752 4 0.49507 0.404283 0.400039
718 2 0.0400208 0.065144 0.498405
719 4 0.033246 0.0692013 0.474681
369 4 0.0445546 0.0626981 0.45961
367 2 0.0568864 0.0579751 0.438378
341 4 0.165069 0.0740562 0.455962
441 4 0.211038 0.0025514 0.453455
2430 4 0.175522 0.0560102 0.454247
2428 2 0.184146 0.0327139 0.451402
2429 4 0.192769 0.00941754 0.448557
632 4 0.342173 0.0749747 0.423931
2878 2 0.469792 0.00783772 0.460929
2880 4 0.476661 0.0315361 0.456882
642 4 0.481936 0.0349666 0.437943
640 2 0.490831 0.0552759 0.426384
259 2 0.0713007 0.170887 0.497744
409 2 0.229542 0.161269 0.416617
340 2 0.174043 0.0962587 0.463152
1152 4 0.19383 0.126818 0.485089
342 4 0.183017 0.118461 0.470342
320 4 0.26852 0.103502 0.414313
725 4 0.275919 0.0949201 0.43054
724 2 0.280117 0.102485 0.453999
432 4 0.281706 0.0970874 0.492571
726 4 0.284315 0.110049 0.477458
468 4 0.339781 0.0830424 0.443155
467 4 0.362022 0.127338 0.449782
466 2 0.350901 0.10519 0.446468
574 2 0.404573 0.128618 0.436966
576 4 0.379673 0.128018 0.439156
3158 4 0.495506 0.0952348 0.415966
575 4 0.429473 0.129218 0.434775
516 4 0.440741 0.142461 0.424996
514 2 0.464572 0.14236 0.432565
515 4 0.488402 0.14226 0.440133
260 4 0.0674723 0.169334 0.473084
469 2 0.0762186 0.205602 0.44684
471 4 0.0737511 0.184619 0.46021
470 4 0.0786862 0.226586 0.433469
411 4 0.247878 0.177656 0.421136
2455 2 0.396869 0.221075 0.435803
2457 4 0.401174 0.207766 0.456528
2456 4 0.392564 0.234383 0.415077
616 2 0.0174052 0.277488 0.43908
617 4 0.0355237 0.287717 0.452946
695 4 0.10189 0.259733 0.448169
694 2 0.105927 0.280548 0.434918
696 4 0.109964 0.301364 0.421667
878 4 0.114271 0.272643 0.489613
1010 4 0.448095 0.315944 0.463166
1009 2 0.459407 0.293751 0.461001
1011 4 0.470719 0.271558 0.458836
305 4 0.472491 0.266041 0.440828
2507 4 0.457471 0.331804 0.469434
326 4 0.104636 0.370268 0.446813
325 2 0.127398 0.362658 0.453821
7 3 0.169582 0.359233 0.46623
327 4 0.150161 0.355047 0.46083
8 3 0.165714 0.388795 0.489117
6 1 0.169426 0.365907 0.488244
334 2 0.34188 0.41336 0.439559
335 4 0.360295 0.401607 0.451721
238 2 0.347546 0.392893 0.49362
240 4 0.355399 0.393689 0.469895
561 4 0.487147 0.41267 0.416067
559 2 0.494576 0.395532 0.432688
2506 2 0.472773 0.35108 0.465024
2508 4 0.488076 0.370355 0.460613
1381 2 0.00431116 0.449835 0.481523
1382 4 0.025118 0.463667 0.480551
538 2 0.0449423 0.486128 0.492625
540 4 0.0400672 0.474687 0.470934
384 4 0.129327 0.505483 0.496293
568 2 0.110778 0.441936 0.432061
570 4 0.110969 0.438507 0.456827
709 2 0.135047 0.412523 0.485142
774 4 0.109914 0.490088 0.433152
773 4 0.129871 0.494824 0.478759
772 2 0.119893 0.492456 0.455955
710 4 0.119582 0.426457 0.471292
1393 2 0.231844 0.500028 0.46364
1394 4 0.244117 0.486947 0.48106
1401 4 0.314759 0.442761 0.42614
1399 2 0.324434 0.465719 0.428266
1400 4 0.334109 0.488677 0.430391
336 4 0.323464 0.425112 0.427397
1127 4 0.0315976 0.0476452 0.526323
720 4 0.0467956 0.0610867 0.522129
1126 2 0.012712 0.0386838 0.540042
1031 4 0.163953 0.0782629 0.544131
949 2 0.199934 0.0712581 0.559663
950 4 0.220275 0.0765267 0.573216
1182 4 0.233323 0.0603981 0.575876
951 4 0.179593 0.0659894 0.546111
1180 2 0.246676 0.0440304 0.562498
963 4 0.279244 0.0268845 0.544746
1181 4 0.26003 0.0276627 0.549121
961 2 0.289805 0.00678884 0.555226
1216 2 0.374164 0.0503423 0.512246
1217 4 0.357205 0.0672106 0.519528
842 4 0.360331 0.0686671 0.539564
1218 4 0.391123 0.033474 0.504964
1035 4 0.069112 0.141541 0.574376
261 4 0.0751291 0.172441 0.522404
1033 2 0.0791941 0.154482 0.555507
1030 2 0.144909 0.0933378 0.550069
1032 4 0.125866 0.108413 0.556007
938 4 0.168886 0.171225 0.585606
1154 4 0.114706 0.0975031 0.569411
1150 2 0.190062 0.141053 0.505297
1151 4 0.186294 0.155288 0.525504
843 4 0.317453 0.092877 0.54829
431 4 0.312365 0.102743 0.53167
430 2 0.297036 0.099915 0.512121
857 4 0.340938 0.132097 0.572701
899 4 0.354242 0.131685 0.558089
841 2 0.338892 0.0807721 0.543927
898 2 0.370958 0.150159 0.555983
808 2 0.497717 0.0930755 0.563858
1034 4 0.0892763 0.167424 0.536638
1272 4 0.106156 0.234537 0.539486
1270 2 0.119501 0.231673 0.560436
1271 4 0.132845 0.22881 0.581386
937 2 0.17352 0.170801 0.561039
939 4 0.178153 0.170377 0.536472
900 4 0.387674 0.168634 0.553877
872 4 0.374008 0.182794 0.548614
873 4 0.373336 0.231249 0.560958
871 2 0.373672 0.207022 0.554786
813 4 0.363413 0.234996 0.577261
953 4 0.442371 0.253548 0.581362
879 4 0.101629 0.254293 0.534382
877 2 0.10795 0.263468 0.511998
1239 4 0.258054 0.265374 0.568861
1205 4 0.398035 0.302328 0.569661
1204 2 0.373357 0.298787 0.567762
1206 4 0.348678 0.295246 0.565863
930 4 0.339485 0.313136 0.561207
954 4 0.406447 0.284508 0.5655
952 2 0.424409 0.269028 0.573431
984 4 0.011873 0.404194 0.583861
9 3 0.152424 0.354694 0.499361
711 4 0.150512 0.398589 0.498993
896 4 0.185752 0.352098 0.518903
1137 4 0.185312 0.360792 0.588303
897 4 0.189766 0.35938 0.568214
895 2 0.187759 0.355739 0.543559
10 3 0.189521 0.360927 0.497734
1191 4 0.206767 0.353052 0.511663
1189 2 0.231041 0.358073 0.508387
928 2 0.329523 0.336062 0.561811
802 2 0.289329 0.36255 0.533396
804 4 0.311388 0.363968 0.545081
929 4 0.319562 0.358988 0.562414
803 4 0.267269 0.361131 0.52171
1190 4 0.255315 0.363094 0.505112
239 4 0.339692 0.392097 0.517345
1001 4 0.469995 0.395131 0.545088
926 4 0.48556 0.395948 0.533955
925 2 0.493416 0.373688 0.525714
1000 2 0.467157 0.403172 0.568593
927 4 0.501272 0.351427 0.517472
934 2 0.00240405 0.476427 0.58338
936 4 0.0272199 0.475302 0.580537
1938 4 0.0447539 0.480418 0.571799
1936 2 0.0539446 0.490176 0.550693
382 2 0.129888 0.49836 0.520254
383 4 0.130449 0.491237 0.544215
2244 4 0.132833 0.499765 0.562384
1446 4 0.24462 0.470676 0.493739
882 4 0.291725 0.459459 0.580032
880 2 0.293731 0.470654 0.557765
881 4 0.295736 0.481849 0.535498
1445 4 0.275271 0.483309 0.531177
1444 2 0.259945 0.476992 0.512458
1183 2 0.997191 0.0384704 0.644203
1185 4 0.0190463 0.0322627 0.654642
1058 4 0.0834572 0.0109576 0.636502
1057 2 0.0858695 0.0345125 0.628469
945 4 0.0249475 0.0490143 0.663329
1155 4 0.100183 0.0725338 0.610232
1059 4 0.0882817 0.0580674 0.620436
1153 2 0.107445 0.0850185 0.589821
825 4 0.100144 0.00324241 0.643077
1005 4 0.311529 0.0646289 0.617316
2282 4 0.467154 0.0267821 0.612084
2281 2 0.456394 0.010307 0.596658
43 3 0.480787 0.0417706 0.605504
41 1 0.482127 0.0638612 0.612476
44 3 0.461558 0.0708587 0.620622
45 3 0.488521 0.0771197 0.595099
42 3 0.497714 0.0654095 0.629323
1163 4 0.505945 0.064665 0.648026
810 4 0.482681 0.0779209 0.576875
1082 4 0.0517854 0.140496 0.583052
1081 2 0.0327813 0.144014 0.598915
1083 4 0.0137772 0.147533 0.614778
1199 4 0.995459 0.150716 0.612522
1221 4 0.138606 0.0981574 0.63248
1219 2 0.16184 0.107373 0.633145
1220 4 0.185073 0.11659 0.633809
1212 4 0.19919 0.130312 0.635383
1210 2 0.222618 0.138947 0.636715
1211 4 0.246046 0.147582 0.638047
856 2 0.32645 0.14526 0.588258
1003 2 0.304755 0.0788743 0.636716
1004 4 0.297981 0.0931198 0.656116
858 4 0.311963 0.158424 0.603815
888 4 0.264286 0.138493 0.644593
886 2 0.278893 0.127421 0.6616
887 4 0.293501 0.11635 0.678606
1143 4 0.378104 0.142505 0.649369
1025 4 0.391308 0.158393 0.649964
1141 2 0.354806 0.135584 0.655241
909 4 0.141218 0.211464 0.590329
907 2 0.149694 0.221564 0.611574
908 4 0.158169 0.231663 0.63282
947 4 0.156203 0.227631 0.652384
946 2 0.176406 0.240998 0.658577
812 4 0.321453 0.234739 0.604465
798 4 0.310754 0.217585 0.601296
796 2 0.305026 0.193873 0.606781
797 4 0.299297 0.17016 0.612267
811 2 0.342433 0.234868 0.590863
1024 2 0.384234 0.178659 0.637143
1026 4 0.377159 0.198926 0.624321
905 4 0.454992 0.246306 0.595489
904 2 0.477359 0.251741 0.585724
3122 4 0.474866 0.234161 0.665526
948 4 0.196608 0.254365 0.66477
1237 2 0.276558 0.2741 0.583236
792 4 0.312303 0.289761 0.6039
790 2 0.323965 0.311174 0.60944
1238 4 0.295062 0.282825 0.597612
791 4 0.335626 0.332586 0.614981
983 4 0.0592591 0.393684 0.595895
982 2 0.035566 0.398939 0.589878
1041 4 0.0730833 0.405182 0.589208
3263 4 0.998071 0.39909 0.597323
893 4 0.119463 0.347687 0.656121
1135 2 0.181427 0.384983 0.593291
1136 4 0.177542 0.409174 0.598279
1910 4 0.451397 0.402365 0.604944
1039 2 0.0901026 0.423227 0.586059
992 4 0.170566 0.426619 0.595343
991 2 0.147117 0.429401 0.587123
993 4 0.123668 0.432183 0.578903
1040 4 0.107122 0.441271 0.58291
1171 2 0.247347 0.460706 0.5836
1160 4 0.222977 0.477437 0.590492
1159 2 0.20454 0.492606 0.597919
1173 4 0.222478 0.458932 0.581716
1172 4 0.272216 0.462479 0.585484
1267 2 0.415551 0.460027 0.651302
1269 4 0.405502 0.478531 0.664785
1002 4 0.46432 0.411213 0.592098
1911 4 0.44348 0.445064 0.629739
1909 2 0.447438 0.423715 0.617341
1268 4 0.425601 0.441523 0.637818
943 2 0.0395133 0.0409596 0.681987
1076 4 0.045556 0.0334295 0.717959
944 4 0.0540791 0.032905 0.700646
1075 2 0.0638404 0.0357613 0.734854
32 3 0.10435 0.128463 0.744509
1283 4 0.145946 0.0888358 0.708268
1284 4 0.180844 0.0942611 0.743671
1282 2 0.163395 0.0915484 0.725969
1227 4 0.192085 0.110913 0.742154
830 4 0.307053 0.100689 0.673039
829 2 0.323626 0.0979577 0.691561
831 4 0.3402 0.0952262 0.710082
1142 4 0.331508 0.128662 0.661114
851 4 0.0125898 0.181712 0.733972
1107 4 0.0316656 0.181552 0.740917
1105 2 0.0478894 0.164178 0.748671
3188 4 0.0112911 0.259108 0.736555
822 4 0.134359 0.210203 0.701631
1278 4 0.151568 0.208324 0.709431
820 2 0.113984 0.221285 0.710971
821 4 0.0936088 0.232368 0.72031
1276 2 0.163016 0.198273 0.729257
1277 4 0.174463 0.188221 0.749084
976 2 0.286874 0.201375 0.741126
977 4 0.300436 0.21333 0.723853
916 2 0.312553 0.245066 0.708777
918 4 0.316693 0.226364 0.724848
1008 4 0.346093 0.249815 0.717137
3121 2 0.456834 0.236459 0.682695
3123 4 0.438803 0.238757 0.699864
1263 4 0.454891 0.215842 0.749821
1145 4 0.453358 0.195446 0.74429
1207 2 0.0689016 0.265582 0.702724
1209 4 0.0556567 0.285017 0.694236
1244 4 0.0387681 0.276414 0.702503
1243 2 0.0140592 0.279332 0.704979
1208 4 0.0821464 0.246148 0.711212
1064 4 0.25004 0.291122 0.680116
1063 2 0.232223 0.276736 0.670077
1065 4 0.214407 0.26235 0.660038
1240 2 0.227367 0.294527 0.727006
1242 4 0.226232 0.298065 0.751733
1241 4 0.228501 0.29099 0.70228
917 4 0.308412 0.263769 0.692707
1097 4 0.300238 0.27609 0.706201
1096 2 0.28405 0.288522 0.69176
1098 4 0.267861 0.300954 0.677319
1006 2 0.36224 0.261354 0.732346
894 4 0.0764369 0.346715 0.681587
1279 2 0.0487417 0.359511 0.701996
3275 4 0.0330419 0.393094 0.722412
1280 4 0.0403092 0.373691 0.720784
1281 4 0.0571742 0.34533 0.683208
3274 2 0.0457098 0.404916 0.740438
892 2 0.0979497 0.347201 0.668854
940 2 0.154491 0.392279 0.751905
941 4 0.173908 0.378428 0.744402
1028 4 0.236446 0.362607 0.699702
1068 4 0.217227 0.370285 0.699789
1067 4 0.176641 0.365611 0.728628
1066 2 0.196934 0.367948 0.714209
1029 4 0.276879 0.378627 0.675019
1139 4 0.289655 0.394421 0.67053
1027 2 0.256663 0.370617 0.687361
1138 2 0.294582 0.417023 0.680019
1229 4 0.373781 0.392865 0.696175
1228 2 0.374898 0.41669 0.703679
1983 4 0.0466947 0.512411 0.731488
2022 4 0.0263384 0.489962 0.672915
2172 4 0.192162 0.48702 0.656856
1140 4 0.299509 0.439625 0.689509
1989 4 0.291478 0.443235 0.707215
1987 2 0.297607 0.451296 0.730075
890 4 0.386445 0.479211 0.658087
1230 4 0.376014 0.440515 0.711183
1100 4 0.44427 0.494077 0.729935
1250 4 0.460869 0.498026 0.740508
862 2 0.0447444 0.0823732 0.820993
864 4 0.0576113 0.0680894 0.83698
1077 4 0.0821247 0.0380931 0.751748
1202 4 0.131734 0.0120798 0.785056
1203 4 0.101031 0.0408843 0.758068
1201 2 0.116382 0.026482 0.771562
2049 4 0.147604 0.0105326 0.77351
1147 2 0.217951 0.0601074 0.801657
1149 4 0.228227 0.0385148 0.808961
1049 4 0.246482 0.0409209 0.799313
1148 4 0.207675 0.0817 0.794353
1048 2 0.265488 0.0308914 0.812094
1050 4 0.284495 0.0208619 0.824875
818 4 0.368195 0.068365 0.808369
965 4 0.372167 0.059991 0.825684
846 4 0.491357 0.0116824 0.752334
35 3 0.0804742 0.156656 0.749795
3387 4 0.995764 0.107767 0.750083
1106 4 0.0641132 0.146804 0.756424
832 2 0.0470056 0.11423 0.775714
863 4 0.0318774 0.096657 0.805005
833 4 0.0284573 0.100127 0.784783
33 3 0.0834679 0.129535 0.77574
834 4 0.0655539 0.128333 0.766646
31 1 0.0948897 0.142402 0.760172
34 3 0.111735 0.154427 0.770662
1073 4 0.128679 0.162143 0.778027
1225 2 0.192961 0.120499 0.76523
1226 4 0.193837 0.130085 0.788306
840 4 0.212408 0.12275 0.788731
838 2 0.231435 0.134409 0.80001
839 4 0.250462 0.146068 0.81129
959 4 0.255181 0.160585 0.823563
819 4 0.339182 0.106516 0.794107
817 2 0.353689 0.0874406 0.801238
1084 2 0.344463 0.142136 0.812332
1085 4 0.33086 0.125596 0.799427
1086 4 0.358067 0.158677 0.825237
1146 4 0.48222 0.1556 0.753231
153 3 0.00424775 0.239317 0.815527
779 4 0.0541444 0.202921 0.827699