ITEM: TIMESTEP
1860000
ITEM: NUMBER OF ATOMS
4590
ITEM: BOX BOUNDS pp pp pp
-9.9985700000000008e+00 9.9985700000000008e+00
-9.9985700000000008e+00 9.9985700000000008e+00
-9.9985700000000008e+00 9.9985700000000008e+00
ITEM: ATOMS id type xs ys zs
463 2 0.0572203 0.0832339 0.00138637
1668 4 0.0808781 0.0281231 0.052182
566 4 0.171964 0.0413104 0.0605129
1474 2 0.254352 0.0161842 0.0925283
565 2 0.190199 0.0557381 0.0697062
1475 4 0.257839 0.00943975 0.0687054
492 4 0.250568 0.0166313 0.0504931
490 2 0.263023 0.0323234 0.0355322
491 4 0.275477 0.0480154 0.0205713
2264 4 0.29329 0.0523217 0.0105351
986 4 0.306112 0.0396503 0.00218338
2145 4 0.393656 0.0217374 0.033005
2143 2 0.380314 0.0160635 0.0126337
745 2 0.458791 0.0584724 0.0168798
2724 4 0.496972 0.0512441 0.0661748
747 4 0.481494 0.0639058 0.00792244
2722 2 0.472369 0.0512142 0.0706319
746 4 0.436089 0.053039 0.0258372
2469 4 0.486157 0.074503 0.0239307
2975 4 0.512906 0.00288937 0.999317
465 4 0.0473375 0.101545 0.0152506
701 4 0.0457361 0.121051 0.0105052
700 2 0.0435665 0.143476 0.0213478
702 4 0.0413968 0.165902 0.0321904
567 4 0.208433 0.0701658 0.0788995
360 4 0.194489 0.169594 0.020409
358 2 0.21429 0.156455 0.0281844
359 4 0.234091 0.143315 0.0359597
1133 4 0.180895 0.171506 0.00644083
423 4 0.0777575 0.178881 0.997672
555 4 0.0354797 0.182061 0.0246112
553 2 0.0307055 0.203742 0.0131094
554 4 0.0259313 0.225424 0.00160755
422 4 0.0875562 0.191729 0.0449973
421 2 0.0826569 0.185305 0.0213349
737 4 0.210082 0.237885 0.0616713
736 2 0.2152 0.213452 0.0630815
354 4 0.235006 0.179109 0.0736046
738 4 0.220318 0.189018 0.0644917
506 4 0.223905 0.242701 0.0469577
352 2 0.257623 0.174718 0.08332
1071 4 0.383885 0.250303 0.031503
1069 2 0.396579 0.243908 0.0109329
2807 4 0.0134215 0.283353 0.0300167
294 4 0.142851 0.321067 0.0407201
456 4 0.138701 0.334463 0.0556841
292 2 0.165147 0.309776 0.0399389
507 4 0.20508 0.288885 0.0433001
293 4 0.187443 0.298486 0.0391577
505 2 0.214493 0.265793 0.0451289
481 2 0.294541 0.307951 0.00510871
482 4 0.309451 0.323519 0.0177775
573 4 0.367799 0.257595 0.0220701
571 2 0.359525 0.273364 0.0396222
572 4 0.35125 0.289132 0.0571743
741 4 0.348008 0.293557 0.0759029
324 4 0.484618 0.276046 0.0420658
323 4 0.440825 0.259558 0.0244311
322 2 0.462721 0.267802 0.0332484
103 3 0.508494 0.330317 0.0355673
1169 4 0.0620555 0.373328 0.988519
329 4 0.0494101 0.386376 0.995418
454 2 0.144157 0.351622 0.0730327
608 4 0.238569 0.375839 0.0736928
252 4 0.256886 0.3799 0.063035
250 2 0.274337 0.39351 0.0513983
251 4 0.291788 0.40712 0.0397616
524 4 0.304136 0.422267 0.046601
523 2 0.322611 0.428829 0.0621183
226 2 0.390772 0.393148 0.0386127
228 4 0.392789 0.414661 0.0511954
671 4 0.409962 0.343758 0.0552855
227 4 0.388754 0.371636 0.02603
670 2 0.40183 0.349473 0.0782286
1303 2 0.388702 0.342788 0.992419
1305 4 0.384633 0.361749 0.00820222
281 4 0.428704 0.349755 0.0530495
280 2 0.4529 0.348172 0.046948
282 4 0.477096 0.34659 0.0408466
104 3 0.488255 0.351527 0.0597527
1045 2 0.490473 0.340566 0.00425089
1047 4 0.48927 0.337891 0.0290818
552 4 0.0177146 0.439144 0.0341707
314 4 0.0307011 0.443258 0.0505217
313 2 0.0403437 0.425912 0.06573
795 4 0.170531 0.452477 0.00135851
793 2 0.16817 0.476526 0.00777961
244 2 0.240541 0.47793 0.0126683
243 4 0.23092 0.495103 0.0672082
245 4 0.218063 0.470023 0.00509272
1440 4 0.241263 0.48324 0.0780032
1224 4 0.176481 0.441704 0.98538
271 2 0.273674 0.493076 0.0592729
272 4 0.259026 0.47609 0.0703223
37 3 0.332289 0.454934 0.0117548
40 3 0.367231 0.445852 0.0022957
525 4 0.341087 0.43539 0.0776357
39 3 0.354844 0.480967 0.996715
2479 2 0.00164915 0.0225182 0.136221
1422 4 0.0267397 0.0181849 0.168381
2480 4 0.0200381 0.0109631 0.14861
18 3 0.0617799 0.0209329 0.135264
590 4 0.00761458 0.0872179 0.0902594
652 2 0.230214 0.048105 0.147591
654 4 0.232807 0.0506807 0.122856
1476 4 0.250865 0.0229287 0.116351
653 4 0.227621 0.0455292 0.172326
1661 4 0.340347 0.999272 0.170201
297 4 0.370276 0.0209199 0.108631
485 4 0.362748 0.00207998 0.104113
295 2 0.378926 0.0412865 0.096988
296 4 0.387576 0.0616532 0.0853449
557 4 0.400629 0.0692824 0.0987295
2723 4 0.447766 0.0511843 0.075089
1759 2 0.449318 0.00511891 0.136969
1760 4 0.471821 0.0135175 0.130021
2744 4 0.491644 0.0115126 0.127761
235 2 0.106416 0.155975 0.149277
236 4 0.117858 0.137501 0.161645
758 4 0.375122 0.110155 0.163148
556 2 0.416527 0.0885281 0.10015
771 4 0.429648 0.125735 0.10755
558 4 0.432426 0.107774 0.101571
769 2 0.443366 0.146579 0.109136
770 4 0.457084 0.167423 0.110723
338 4 0.0498538 0.250849 0.126844
237 4 0.0949735 0.174449 0.136909
476 4 0.215059 0.217849 0.161693
477 4 0.201131 0.204198 0.115645
475 2 0.208095 0.211024 0.138669
353 4 0.28024 0.170327 0.0930354
461 4 0.287042 0.176808 0.110858
460 2 0.310053 0.185223 0.105871
462 4 0.333064 0.193638 0.100885
278 4 0.293499 0.242148 0.116342
277 2 0.294322 0.249397 0.140257
254 4 0.399725 0.235122 0.0883171
630 4 0.407877 0.218526 0.0964043
253 2 0.380791 0.251368 0.0866535
628 2 0.424581 0.220628 0.11489
624 4 0.43145 0.227715 0.149066
629 4 0.441285 0.22273 0.133376
622 2 0.439257 0.249042 0.159524
337 2 0.0485177 0.265068 0.147367
612 4 0.240475 0.317052 0.107639
610 2 0.239599 0.295825 0.120824
611 4 0.238723 0.274599 0.13401
754 2 0.327897 0.262185 0.0981075
755 4 0.310806 0.247767 0.109295
739 2 0.343356 0.318113 0.076638
255 4 0.361857 0.267613 0.08499
756 4 0.344989 0.276604 0.0869197
596 4 0.391289 0.304412 0.148417
619 2 0.0675576 0.389073 0.111993
620 4 0.0821775 0.384619 0.131782
621 4 0.0529377 0.393527 0.0922044
315 4 0.0499863 0.408565 0.0809383
455 4 0.149614 0.368781 0.0903814
647 4 0.079453 0.390499 0.15103
537 4 0.109854 0.377488 0.133265
535 2 0.13431 0.372388 0.132227
536 4 0.158766 0.367288 0.13119
646 2 0.0890361 0.395084 0.173664
607 2 0.235166 0.354158 0.0856721
609 4 0.231763 0.332476 0.0976515
386 4 0.332985 0.343978 0.0966493
595 2 0.392163 0.329192 0.151637
740 4 0.338703 0.342669 0.0773732
387 4 0.340049 0.374882 0.135325
385 2 0.336517 0.35943 0.115987
302 4 0.343249 0.393574 0.14557
12 3 0.386825 0.371513 0.110014
11 1 0.383576 0.38432 0.128845
15 3 0.361421 0.384422 0.134116
672 4 0.393698 0.355188 0.101172
14 3 0.390791 0.405949 0.124543
495 4 0.399152 0.414729 0.10905
13 3 0.395829 0.37521 0.146317
597 4 0.393037 0.353972 0.154856
645 4 0.410247 0.368297 0.161198
626 4 0.177929 0.434038 0.137849
1438 2 0.236032 0.485234 0.102372
625 2 0.194266 0.444154 0.153848
1439 4 0.230801 0.487227 0.126741
1559 4 0.303688 0.484971 0.0937691
301 2 0.3471 0.417434 0.151978
493 2 0.422688 0.422607 0.106017
494 4 0.446223 0.430485 0.102984
1583 4 0.472147 0.463448 0.11185
1582 2 0.467569 0.486172 0.102477
1584 4 0.462991 0.508895 0.0931039
690 4 0.159218 0.00601086 0.224989
673 2 0.138543 0.0102297 0.246878
675 4 0.116087 0.02103 0.248945
693 4 0.240771 0.0489653 0.186154
691 2 0.261932 0.0528831 0.198885
692 4 0.283092 0.0568009 0.211616
1700 4 0.330801 0.0685953 0.250114
1699 2 0.309665 0.0595349 0.240297
1701 4 0.28853 0.0504745 0.23048
23 3 0.343232 0.083027 0.243657
21 1 0.362845 0.0725867 0.236966
25 3 0.36266 0.0694223 0.214414
22 3 0.364361 0.0521771 0.247469
759 4 0.374856 0.0790108 0.202272
511 2 0.00790511 0.122161 0.217507
578 4 0.0474229 0.134699 0.230285
513 4 0.0302311 0.124119 0.228592
577 2 0.0490047 0.159645 0.230901
318 4 0.0701081 0.104138 0.247075
449 4 0.1358 0.133709 0.169007
448 2 0.140447 0.113293 0.182674
450 4 0.145093 0.0928778 0.196341
28 3 0.246693 0.146451 0.172705
27 3 0.226975 0.149835 0.204523
546 4 0.197277 0.138115 0.244252
26 1 0.248203 0.148424 0.195775
580 2 0.298103 0.112146 0.196324
581 4 0.27508 0.121608 0.198688
30 3 0.258699 0.130176 0.204464
582 4 0.321126 0.102684 0.193961
29 3 0.2599 0.167678 0.20133
24 3 0.381151 0.085505 0.242999
757 2 0.374989 0.094583 0.18271
311 4 0.450137 0.127973 0.207049
531 4 0.999447 0.216352 0.252867
529 2 0.0222152 0.209619 0.245029
530 4 0.0449837 0.202887 0.23719
579 4 0.0505865 0.184591 0.231516
372 4 0.149532 0.239123 0.18285
362 4 0.129667 0.239377 0.180214
370 2 0.160364 0.231774 0.204153
371 4 0.171197 0.224425 0.225457
279 4 0.295146 0.256646 0.164173
284 4 0.299543 0.24403 0.225137
283 2 0.293272 0.243213 0.200946
285 4 0.287002 0.242395 0.176755
310 2 0.450054 0.152867 0.204717
312 4 0.44997 0.177761 0.202385
520 2 0.500071 0.173061 0.24176
763 2 0.434382 0.194347 0.244593
765 4 0.411253 0.203806 0.245466
339 4 0.0471817 0.279288 0.16789
396 4 0.0620661 0.302372 0.216646
443 4 0.0713078 0.297899 0.2329
394 2 0.0675831 0.291432 0.19485
363 4 0.0879833 0.26696 0.181742
395 4 0.0731001 0.280492 0.173054
361 2 0.108825 0.253169 0.180978
623 4 0.447065 0.27037 0.169982
527 4 0.456427 0.286544 0.175084
526 2 0.473566 0.294699 0.191361
528 4 0.490706 0.302854 0.207637
264 4 0.0362441 0.382793 0.215058
262 2 0.0275108 0.404426 0.224053
648 4 0.0986191 0.399668 0.196299
300 4 0.110757 0.384216 0.192814
298 2 0.120843 0.37043 0.211074
299 4 0.130929 0.356645 0.229334
289 2 0.221203 0.421831 0.239884
345 4 0.274534 0.339547 0.209253
343 2 0.286797 0.340669 0.231014
344 4 0.299061 0.341791 0.252775
643 2 0.417354 0.373446 0.184611
644 4 0.42446 0.378594 0.208024
447 4 0.406793 0.386 0.218688
445 2 0.415617 0.404461 0.233058
263 4 0.0187775 0.426059 0.233048
637 2 0.233669 0.489338 0.169949
638 4 0.217479 0.471443 0.163405
627 4 0.210603 0.45427 0.169846
417 4 0.180765 0.480844 0.202703
290 4 0.218404 0.439056 0.221978
416 4 0.199399 0.441236 0.226883
415 2 0.190082 0.46104 0.214793
303 4 0.350951 0.441294 0.158386
659 4 0.359084 0.456342 0.169821
658 2 0.358938 0.476118 0.18512
660 4 0.358792 0.495895 0.200418
2861 4 0.487291 0.41478 0.235814
446 4 0.424441 0.422922 0.247428
1403 4 0.0485443 0.0131041 0.287098
232 2 0.051447 0.0474681 0.294372
234 4 0.054653 0.070367 0.284857
317 4 0.0389136 0.0806587 0.278321
233 4 0.048241 0.0245693 0.303887
723 4 0.209759 0.0715187 0.253339
1406 4 0.217795 0.0170874 0.299112
698 4 0.380461 0.0509856 0.259068
249 4 0.328071 0.0545515 0.338229
697 2 0.382649 0.0291725 0.271092
699 4 0.384837 0.00735938 0.283116
333 4 0.385781 0.0716415 0.258574
331 2 0.406208 0.0801438 0.27022
247 2 0.339077 0.0734508 0.350348
743 4 0.457705 0.0313369 0.281286
742 2 0.462801 0.00936808 0.270489
351 4 0.470139 0.0442559 0.274384
349 2 0.458501 0.0663818 0.274809
350 4 0.446863 0.0885077 0.275234
316 2 0.0545108 0.0923984 0.262698
393 4 0.111903 0.13972 0.323394
399 4 0.107866 0.123023 0.331633
391 2 0.130857 0.136792 0.307351
392 4 0.149811 0.133864 0.291309
545 4 0.161117 0.14335 0.278395
721 2 0.207929 0.0961008 0.24915
722 4 0.206099 0.120683 0.244961
544 2 0.179197 0.140732 0.261324
599 4 0.202221 0.122399 0.300448
404 4 0.212962 0.139974 0.301009
598 2 0.185439 0.122669 0.31898
403 2 0.230332 0.150235 0.286239
762 4 0.407287 0.127999 0.295691
332 4 0.426635 0.0886461 0.281866
761 4 0.45473 0.138321 0.307663
760 2 0.431009 0.13316 0.301677
402 4 0.231131 0.217908 0.241049
401 4 0.237049 0.177127 0.26938
400 2 0.23409 0.197518 0.255215
405 4 0.247702 0.160495 0.271468
764 4 0.457511 0.184888 0.243719
521 4 0.476005 0.177189 0.247143
442 2 0.0766539 0.2977 0.257324
444 4 0.0819999 0.2975 0.281749
496 2 0.32576 0.290917 0.318706
497 4 0.336806 0.284744 0.29714
541 2 0.456608 0.277564 0.308977
542 4 0.46564 0.254268 0.309923
615 4 0.435236 0.309498 0.321187
613 2 0.419995 0.326617 0.331179
543 4 0.447576 0.300861 0.30803
749 4 0.0502975 0.3616 0.280296
365 4 0.00488213 0.365562 0.314447
364 2 0.019417 0.357693 0.295685
366 4 0.0339518 0.349824 0.276923
748 2 0.0732377 0.36437 0.270744
2493 4 0.0168581 0.361862 0.328588
735 4 0.156379 0.350701 0.280489
601 2 0.104488 0.387843 0.33586
734 4 0.114535 0.362058 0.255573
750 4 0.0961779 0.36714 0.261191
733 2 0.135457 0.35638 0.268031
602 4 0.119929 0.392803 0.31683
677 4 0.167097 0.352989 0.2967
777 4 0.111587 0.408678 0.307727
676 2 0.164583 0.36657 0.317542
414 4 0.231167 0.410936 0.276329
291 4 0.224002 0.404606 0.257791
412 2 0.235747 0.413207 0.300804
309 4 0.312831 0.32753 0.258561
307 2 0.322942 0.332994 0.280767
727 2 0.320923 0.37085 0.324434
308 4 0.333053 0.338459 0.302973
728 4 0.317056 0.395225 0.328442
729 4 0.32479 0.346475 0.320425
3 3 0.274654 0.408034 0.319869
374 4 0.245225 0.334597 0.339456
614 4 0.404753 0.343735 0.341171
1757 4 0.113154 0.468579 0.284327
776 4 0.100191 0.454727 0.291906
775 2 0.105889 0.431703 0.299817
1756 2 0.113942 0.493349 0.281008
413 4 0.240328 0.415479 0.32528
1436 4 0.232929 0.479685 0.327283
1435 2 0.251461 0.466573 0.316804
768 4 0.188624 0.483933 0.260186
438 4 0.299177 0.479143 0.250179
437 4 0.289217 0.459162 0.294926
436 2 0.294197 0.469152 0.272553
1437 4 0.269993 0.453461 0.306324
5 3 0.287433 0.441323 0.307779
2 3 0.31142 0.415799 0.320664
434 4 0.333298 0.411324 0.323097
1 1 0.290385 0.424774 0.323142
713 4 0.423015 0.447741 0.309741
433 2 0.357486 0.417596 0.322212
435 4 0.381674 0.423869 0.321328
712 2 0.425152 0.442282 0.285434
714 4 0.427289 0.436823 0.261128
2860 2 0.497072 0.425607 0.256119
753 4 0.489701 0.43405 0.333957
428 4 0.0592315 0.0352181 0.355234
427 2 0.0649366 0.0144708 0.367969
731 4 0.0881312 0.0549091 0.411847
606 4 0.137262 0.0441483 0.391092
730 2 0.102957 0.0657687 0.394892
604 2 0.156369 0.0348146 0.377939
398 4 0.119946 0.0944488 0.370854
605 4 0.175475 0.0254809 0.364786
682 2 0.23774 0.034493 0.349702
683 4 0.213914 0.0352333 0.357246
684 4 0.261567 0.0337528 0.342157
1749 4 0.491813 0.99648 0.345497
424 2 0.426337 0.048184 0.376575
426 4 0.439422 0.0625413 0.360833
425 4 0.413252 0.0338268 0.392318
732 4 0.117783 0.0766283 0.377938
397 2 0.113906 0.108736 0.351243
686 4 0.173989 0.133305 0.402107
600 4 0.168656 0.122938 0.337513
685 2 0.171703 0.124601 0.378779
687 4 0.169416 0.115896 0.355452
410 4 0.24769 0.13561 0.401195
321 4 0.241102 0.097221 0.387328
319 2 0.259657 0.0993347 0.403954
320 4 0.278212 0.101448 0.42058
248 4 0.350082 0.0923501 0.362467
633 4 0.366203 0.0964568 0.350064
632 4 0.397068 0.135756 0.351992
631 2 0.381635 0.116106 0.351028
420 4 0.384923 0.146573 0.364148
258 4 0.450823 0.0771644 0.351619
257 4 0.466141 0.120333 0.371682
256 2 0.458482 0.0987488 0.361651
515 4 0.447368 0.165172 0.365229
514 2 0.439559 0.166138 0.388963
618 4 0.00869734 0.247336 0.371013
274 2 0.163345 0.234891 0.359767
275 4 0.175411 0.214232 0.367031
474 4 0.180095 0.201828 0.351081
472 2 0.203532 0.20129 0.342385
473 4 0.226968 0.200753 0.333688
708 4 0.245567 0.198077 0.340487
409 2 0.240139 0.156681 0.412339
706 2 0.257083 0.176357 0.345046
707 4 0.2686 0.154637 0.349605
717 4 0.32359 0.236117 0.382455
377 4 0.308724 0.249338 0.386031
418 2 0.375737 0.169756 0.365981
419 4 0.366552 0.192939 0.367814
716 4 0.366456 0.212578 0.372009
715 2 0.345023 0.224348 0.377232
390 4 0.0866338 0.252494 0.356226
616 2 0.0294897 0.247555 0.384899
617 4 0.050282 0.247775 0.398784
276 4 0.151278 0.25555 0.352502
389 4 0.135418 0.262688 0.360334
388 2 0.111026 0.257591 0.35828
487 2 0.248978 0.26848 0.402373
488 4 0.256933 0.288468 0.38963
510 4 0.261237 0.321701 0.337425
508 2 0.262597 0.303677 0.354701
509 4 0.263956 0.285654 0.371978
376 2 0.306537 0.26891 0.370625
378 4 0.304351 0.288482 0.355219
498 4 0.314715 0.297089 0.340272
267 4 0.352999 0.317648 0.351589
265 2 0.358323 0.297704 0.365698
266 4 0.363647 0.27776 0.379807
585 4 0.365175 0.2773 0.399726
269 4 0.455371 0.261776 0.371721
268 2 0.478051 0.265958 0.381382
549 4 0.0706242 0.391276 0.358267
547 2 0.0616064 0.409888 0.372319
603 4 0.0890458 0.382882 0.354889
709 2 0.152157 0.399619 0.418579
678 4 0.162069 0.380152 0.338384
502 2 0.1922 0.393669 0.37243
504 4 0.20356 0.372776 0.36471
373 2 0.23278 0.355334 0.3458
375 4 0.220334 0.376072 0.352144
503 4 0.18084 0.414563 0.380149
334 2 0.359757 0.408709 0.419595
336 4 0.342244 0.416342 0.403463
2925 4 0.506978 0.366959 0.35844
559 2 0.495222 0.417322 0.423651
548 4 0.0525885 0.4285 0.38637
407 4 0.0523303 0.42965 0.407077
406 2 0.0403526 0.450851 0.4014
408 4 0.0283748 0.472053 0.395723
710 4 0.148336 0.422057 0.408229
570 4 0.132082 0.430259 0.414738
1545 4 0.224481 0.496163 0.337574
636 4 0.192331 0.416794 0.396677
634 2 0.191019 0.438249 0.409449
668 4 0.290425 0.43062 0.364158
4 3 0.288401 0.433427 0.34458
667 2 0.309112 0.429683 0.380744
669 4 0.327799 0.428746 0.39733
593 4 0.471093 0.506697 0.343425
561 4 0.489071 0.430956 0.403614
752 4 0.484464 0.433578 0.383687
751 2 0.487082 0.433814 0.358822
718 2 0.0419721 0.0446849 0.48692
719 4 0.0639274 0.0443405 0.474961
369 4 0.0801618 0.0366652 0.465405
367 2 0.0921568 0.0447595 0.445014
720 4 0.0200167 0.0450293 0.498879
368 4 0.104152 0.0528538 0.424623
2430 4 0.241142 0.0709764 0.458045
2428 2 0.232872 0.0502143 0.446833
2429 4 0.224601 0.0294523 0.435621
441 4 0.217395 0.0126515 0.44361
341 4 0.235022 0.0906896 0.460731
726 4 0.285981 0.0776556 0.468739
432 4 0.301484 0.0722225 0.479123
430 2 0.323246 0.0698352 0.491202
431 4 0.345008 0.0674478 0.503282
2879 4 0.48515 0.0317271 0.430744
2878 2 0.479061 0.0559206 0.432408
2880 4 0.472971 0.0801142 0.434073
642 4 0.472296 0.0845941 0.453333
340 2 0.213789 0.0987065 0.471222
1152 4 0.18191 0.103338 0.497486
342 4 0.192556 0.106723 0.481712
724 2 0.286096 0.0953773 0.4511
725 4 0.286212 0.113099 0.433462
467 4 0.350381 0.0907546 0.440052
466 2 0.366718 0.108399 0.433199
468 4 0.383055 0.126043 0.426345
576 4 0.432275 0.124979 0.460564
640 2 0.48834 0.0978405 0.4672
574 2 0.430499 0.145374 0.446209
575 4 0.428723 0.165769 0.431854
469 2 0.0753634 0.2328 0.446241
471 4 0.0780599 0.216866 0.465319
260 4 0.0895957 0.20019 0.463424
259 2 0.0963531 0.189243 0.484864
650 4 0.239798 0.19259 0.436486
649 2 0.247763 0.213449 0.425232
411 4 0.232588 0.177751 0.423484
651 4 0.255728 0.234307 0.413978
516 4 0.431751 0.167103 0.412696
2814 4 0.00302413 0.318872 0.455043
470 4 0.0726668 0.248735 0.427162
2812 2 0.00725043 0.327947 0.477955
695 4 0.103864 0.303151 0.432163
694 2 0.119632 0.28955 0.446004
696 4 0.1354 0.27595 0.459846
1260 4 0.148787 0.266052 0.470511
1258 2 0.171329 0.276742 0.472164
1259 4 0.193872 0.287433 0.473817
489 4 0.241024 0.248492 0.415117
583 2 0.385613 0.275538 0.414021
584 4 0.406052 0.273776 0.428315
2456 4 0.42054 0.285957 0.423402
2457 4 0.449289 0.326817 0.425568
2455 2 0.434915 0.306387 0.424485
326 4 0.0656035 0.390175 0.465199
325 2 0.0843453 0.374042 0.461507
10 3 0.138155 0.330623 0.45578
7 3 0.121759 0.363497 0.462366
327 4 0.103087 0.357908 0.457816
6 1 0.141304 0.353177 0.45599
8 3 0.147107 0.360558 0.434771
711 4 0.155977 0.377181 0.42893
9 3 0.157991 0.358701 0.471137
239 4 0.373244 0.370864 0.49439
335 4 0.377269 0.401076 0.435726
238 2 0.372524 0.377755 0.470366
240 4 0.371804 0.384646 0.446341
1382 4 0.0479307 0.457232 0.462373
1381 2 0.025185 0.464847 0.455314
1383 4 0.00243925 0.472462 0.448256
680 4 0.999983 0.484418 0.431316
540 4 0.0508273 0.468694 0.477576
382 2 0.143192 0.464384 0.491796
773 4 0.140297 0.47352 0.454589
568 2 0.114275 0.443814 0.425889
569 4 0.0964669 0.457368 0.43704
384 4 0.146568 0.479595 0.472242
635 4 0.189706 0.459705 0.42222
774 4 0.179583 0.476921 0.423835
772 2 0.15994 0.475221 0.439212
1401 4 0.30918 0.450011 0.489087
1399 2 0.324942 0.46941 0.488448
1400 4 0.340703 0.48881 0.487808
1126 2 0.0065093 0.0558533 0.538045
1127 4 0.00925537 0.0556804 0.513193
1128 4 0.00376323 0.0560262 0.562896
4509 4 0.997091 0.0419856 0.574845
1059 4 0.0642335 0.0779108 0.589756
951 4 0.194367 0.0526283 0.536419
1031 4 0.186333 0.0356458 0.530879
1030 2 0.181019 0.0265627 0.55356
949 2 0.215197 0.0585316 0.523911
1032 4 0.175705 0.0174796 0.576241
950 4 0.236027 0.0644349 0.511404
961 2 0.292951 0.0398398 0.551609
1180 2 0.268416 0.0748841 0.514379
963 4 0.284449 0.0515758 0.531233
1181 4 0.289527 0.0714125 0.527319
962 4 0.301452 0.0281037 0.571984
1182 4 0.247305 0.0783558 0.501438
841 2 0.380988 0.0460639 0.516087
843 4 0.358969 0.0578066 0.514531
842 4 0.403008 0.0343212 0.517643
1217 4 0.418554 0.0423132 0.528296
1218 4 0.442298 0.0575143 0.569598
1216 2 0.430426 0.0499137 0.548947
1033 2 0.0598478 0.169754 0.519528
1155 4 0.0717927 0.0888755 0.575551
1200 4 0.999012 0.147269 0.593692
3266 4 0.996705 0.140578 0.575259
1034 4 0.0771679 0.153129 0.512542
939 4 0.150293 0.154092 0.53658
937 2 0.135858 0.16342 0.518419
938 4 0.121424 0.172748 0.500258
1153 2 0.0923994 0.100688 0.583361
1151 4 0.160947 0.138178 0.526598
1150 2 0.171428 0.120758 0.512042
857 4 0.297783 0.132386 0.571082
899 4 0.313103 0.145311 0.572531
856 2 0.281931 0.151032 0.576201
858 4 0.266079 0.169678 0.58132
898 2 0.336979 0.150366 0.567097
900 4 0.360856 0.155421 0.561663
1035 4 0.0425278 0.186379 0.526514
1082 4 0.0409097 0.203943 0.536438
1081 2 0.0393754 0.203264 0.561385
1083 4 0.0378412 0.202585 0.586332
261 4 0.103111 0.178296 0.506304
797 4 0.266996 0.187781 0.574566
811 2 0.323241 0.231211 0.542002
812 4 0.302253 0.238249 0.553627
796 2 0.276342 0.208277 0.563716
798 4 0.285688 0.228774 0.552866
813 4 0.34423 0.224173 0.530377
873 4 0.358561 0.212505 0.525973
871 2 0.362709 0.190284 0.53666
872 4 0.366857 0.168063 0.547346
906 4 0.481426 0.22988 0.574695
904 2 0.464512 0.246201 0.566165
2813 4 0.0114767 0.337023 0.500867
878 4 0.102674 0.258905 0.562424
877 2 0.0924571 0.247385 0.582124
954 4 0.411579 0.310233 0.574029
905 4 0.447599 0.262521 0.557636
952 2 0.422278 0.287663 0.572885
953 4 0.432977 0.265093 0.571741
1137 4 0.172742 0.382922 0.546983
1135 2 0.153846 0.399243 0.548298
1136 4 0.134951 0.415565 0.549612
896 4 0.212618 0.34225 0.554551
1191 4 0.22397 0.340962 0.537693
897 4 0.167465 0.363616 0.552225
895 2 0.190042 0.352933 0.553388
1189 2 0.244375 0.351659 0.527978
1190 4 0.26478 0.362357 0.518262
803 4 0.279237 0.374134 0.512993
802 2 0.301635 0.378173 0.523346
804 4 0.324033 0.382212 0.5337
928 2 0.350142 0.36654 0.565242
929 4 0.338945 0.371932 0.543546
930 4 0.361339 0.361148 0.586938
1206 4 0.371365 0.343856 0.579915
925 2 0.462715 0.392122 0.528697
927 4 0.467576 0.400545 0.505662
1001 4 0.455086 0.39388 0.569302
926 4 0.457853 0.3837 0.551732
2712 4 0.486329 0.40765 0.500931
936 4 0.996135 0.438903 0.554053
538 2 0.0562457 0.48014 0.499135
539 4 0.0616641 0.491586 0.520694
1938 4 0.0624525 0.512142 0.521701
383 4 0.139816 0.449172 0.511351
2242 2 0.16149 0.470205 0.567946
2244 4 0.160959 0.475881 0.543601
1173 4 0.228324 0.442959 0.568616
1171 2 0.252206 0.44918 0.564599
1172 4 0.276088 0.455402 0.560582
882 4 0.285135 0.464572 0.544209
880 2 0.299102 0.48507 0.541058
1185 4 0.0154518 0.0355803 0.65662
945 4 0.0330154 0.0467492 0.660039
825 4 0.0799545 0.0194773 0.613825
1057 2 0.0665034 0.0535688 0.594999
1058 4 0.0687732 0.0292268 0.600243
943 2 0.0467612 0.0576082 0.67788
823 2 0.0847926 0.00404585 0.632895
2195 4 0.298625 0.00792113 0.577698
1005 4 0.31013 0.038403 0.662312
1003 2 0.321989 0.0603632 0.660799
1004 4 0.333848 0.0823234 0.659285
2283 4 0.445061 0.0109415 0.59514
2282 4 0.457367 0.0207401 0.642608
2281 2 0.451214 0.0158408 0.618874
43 3 0.460815 0.0276948 0.661229
45 3 0.485912 0.0513035 0.646048
41 1 0.473879 0.0465386 0.664787
44 3 0.460398 0.064589 0.670342
1198 2 0.0158063 0.165746 0.592374
1154 4 0.113006 0.112501 0.591172
1221 4 0.130401 0.110768 0.598957
1219 2 0.131457 0.113539 0.623784
1220 4 0.132512 0.116309 0.648611
1283 4 0.150588 0.112487 0.656677
1212 4 0.254321 0.156262 0.62324
1210 2 0.255538 0.145451 0.645752
1211 4 0.256754 0.134639 0.668265
3008 4 0.504426 0.100298 0.598483
1199 4 0.0326009 0.184222 0.591057
879 4 0.0822401 0.235865 0.601824
1272 4 0.0771352 0.224962 0.617932
1270 2 0.0985185 0.213751 0.624433
1271 4 0.119902 0.202541 0.630934
909 4 0.140779 0.201706 0.632548
907 2 0.156958 0.220456 0.629102
908 4 0.173136 0.239206 0.625657
1025 4 0.394566 0.202317 0.638286
1143 4 0.39735 0.200667 0.658653
1024 2 0.410413 0.200352 0.619047
1026 4 0.426261 0.198388 0.599807
3123 4 0.452133 0.199016 0.664544
3121 2 0.4739 0.211297 0.665277
3122 4 0.495667 0.223579 0.66601
947 4 0.180985 0.254764 0.634594
946 2 0.177155 0.27759 0.644055
948 4 0.173325 0.300415 0.653517
1237 2 0.227587 0.324129 0.599577
1238 4 0.247823 0.313855 0.610072
792 4 0.267659 0.309472 0.609979
791 4 0.300246 0.272516 0.618524
790 2 0.283952 0.290994 0.614252
1205 4 0.409671 0.314894 0.593861
982 2 0.00112638 0.391042 0.625747
983 4 0.0242391 0.394391 0.634678
1041 4 0.038517 0.407714 0.6413
893 4 0.0935409 0.395917 0.666504
992 4 0.142858 0.409478 0.627255
991 2 0.118235 0.407777 0.623257
1239 4 0.207351 0.334403 0.589082
1204 2 0.390518 0.329375 0.586888
1039 2 0.0578124 0.408932 0.625445
1040 4 0.0771078 0.410151 0.60959
993 4 0.0936112 0.406076 0.61926
2170 2 0.151863 0.490769 0.667026
2243 4 0.162022 0.464529 0.592291
2172 4 0.159025 0.472714 0.682772
1161 4 0.181147 0.466066 0.599213
1160 4 0.209521 0.434514 0.625673
1159 2 0.195334 0.45029 0.612443
890 4 0.31371 0.433461 0.633109
889 2 0.31986 0.457431 0.629531
891 4 0.326011 0.4814 0.625953
1187 4 0.312094 0.494909 0.626688
1952 4 0.354104 0.483322 0.630808
1951 2 0.357426 0.50126 0.61371
1000 2 0.4524 0.413853 0.584101
1910 4 0.435018 0.438003 0.611147
1002 4 0.449714 0.433826 0.598901
1909 2 0.426893 0.460878 0.605153
1911 4 0.418768 0.483752 0.59916
3328 2 0.49154 0.438232 0.646188
3329 4 0.488999 0.458002 0.631092
944 4 0.060507 0.0684672 0.695722
1075 2 0.0622375 0.055448 0.731598
1076 4 0.0615223 0.0523087 0.706803
2319 4 0.0351814 0.0248997 0.737926
2317 2 0.0124785 0.0145945 0.739813
2285 4 0.0451445 0.0106258 0.727262
1256 4 0.303494 0.997056 0.72383
42 3 0.488314 0.0423975 0.682212
1163 4 0.489894 0.0439412 0.703053
1282 2 0.168409 0.125665 0.66825
1284 4 0.186229 0.138843 0.679824
1227 4 0.199112 0.129958 0.692469
1225 2 0.210026 0.143534 0.710407
1226 4 0.220939 0.15711 0.728345
888 4 0.268781 0.144708 0.680692
886 2 0.282834 0.136357 0.699612
887 4 0.296887 0.128006 0.718531
830 4 0.306282 0.126208 0.734992
829 2 0.327556 0.113345 0.737661
978 4 0.321806 0.152925 0.740708
831 4 0.34883 0.100482 0.74033
1107 4 0.0251717 0.180974 0.729298
851 4 0.0116197 0.195398 0.730843
1105 2 0.0404286 0.172433 0.747172
822 4 0.141352 0.230647 0.699033
1278 4 0.158764 0.236645 0.706326
820 2 0.119652 0.240646 0.706405
821 4 0.0979532 0.250645 0.713776
1276 2 0.176326 0.22675 0.721119
1130 4 0.22999 0.174588 0.72538
1277 4 0.193888 0.216854 0.735912
1129 2 0.219709 0.194094 0.737169
1065 4 0.194495 0.268313 0.723844
1131 4 0.209429 0.213601 0.748958
916 2 0.286919 0.220951 0.728437
918 4 0.284829 0.196502 0.73324
977 4 0.285293 0.18596 0.749437
976 2 0.30355 0.169442 0.745072
917 4 0.28901 0.2454 0.723633
1141 2 0.376452 0.203856 0.672006
1142 4 0.355555 0.207045 0.685359
1192 2 0.394861 0.231878 0.742542
1194 4 0.411769 0.215214 0.75039
1144 2 0.476621 0.170569 0.746203
1145 4 0.467667 0.187861 0.730519
1262 4 0.414334 0.210741 0.731337
1261 2 0.435878 0.201404 0.722744
1263 4 0.457423 0.192068 0.714151
1243 2 0.00911446 0.312405 0.70012
1209 4 0.0468102 0.269149 0.692191
1207 2 0.0640563 0.254653 0.703037
1244 4 0.0323481 0.320545 0.695747
1208 4 0.0813025 0.240158 0.713883
1064 4 0.239332 0.278819 0.704352
1063 2 0.216914 0.273566 0.714098
1008 4 0.337888 0.271806 0.72617
3113 4 0.49107 0.337458 0.679804
806 4 0.432472 0.305336 0.732874
805 2 0.412954 0.320877 0.734521
3112 2 0.513921 0.332541 0.688682
892 2 0.0776231 0.402022 0.684795
894 4 0.0617053 0.408126 0.703085
942 4 0.113415 0.42302 0.745529
940 2 0.133998 0.41583 0.73329
941 4 0.154582 0.40864 0.72105
1066 2 0.194875 0.411736 0.7011
1067 4 0.173237 0.40758 0.712919
1139 4 0.297569 0.417487 0.680094
807 4 0.393437 0.336419 0.736167
1020 4 0.392271 0.351838 0.748596
1281 4 0.0709431 0.426432 0.704174
1279 2 0.0654956 0.435145 0.726968
1983 4 0.02689 0.482956 0.739216
2021 4 0.0467103 0.478557 0.736747
1028 4 0.230696 0.412512 0.675148
1068 4 0.216514 0.415892 0.689282
1027 2 0.255268 0.41575 0.671842
1029 4 0.27984 0.418989 0.668537
1138 2 0.304287 0.428501 0.701513
1140 4 0.311004 0.439515 0.722931
1228 2 0.358668 0.425941 0.755558
1229 4 0.342128 0.442097 0.74604
3330 4 0.494081 0.418462 0.661284
1269 4 0.455421 0.492789 0.705688
1077 4 0.0629528 0.0585872 0.756394
1203 4 0.0632899 0.0438198 0.771579
1201 2 0.0858935 0.0344775 0.776773
1202 4 0.108497 0.0251353 0.781967
1148 4 0.202842 0.0543257 0.740345
1147 2 0.221045 0.0667713 0.752132
1149 4 0.239248 0.0792169 0.76392
1049 4 0.242011 0.0723967 0.782518
1257 4 0.287236 0.0157068 0.767288
1255 2 0.295365 0.00638146 0.745559
1048 2 0.259158 0.0618096 0.79732
1050 4 0.276304 0.0512224 0.812121
819 4 0.377914 0.0838309 0.823844
846 4 0.460558 0.0342461 0.786823
1113 4 0.452397 0.0169074 0.783608
844 2 0.478974 0.0496739 0.793752
862 2 0.0387427 0.101654 0.837367
832 2 0.0394268 0.137873 0.794657
863 4 0.025598 0.12032 0.827168
833 4 0.0231042 0.124012 0.807564
33 3 0.0754457 0.150856 0.789284
834 4 0.0557494 0.151735 0.781749
31 1 0.0878881 0.160515 0.772246
1106 4 0.0556855 0.163892 0.765045
32 3 0.0987682 0.143897 0.760643
34 3 0.103668 0.174988 0.781187
840 4 0.206759 0.131672 0.779124
838 2 0.227379 0.118617 0.784558
839 4 0.248 0.105562 0.789992
959 4 0.26159 0.108347 0.805161
958 2 0.26816 0.110138 0.829219
1084 2 0.372546 0.10918 0.799758
1085 4 0.363685 0.0959449 0.819032
1086 4 0.381407 0.122415 0.780484
1299 4 0.389124 0.14033 0.78478
3269 4 0.487455 0.142921 0.826754
1146 4 0.485574 0.153277 0.761887
3270 4 0.484304 0.16166 0.780498
3268 2 0.485879 0.15229 0.803626
1214 4 0.038272 0.231678 0.796475
35 3 0.0741438 0.171821 0.758036
778 2 0.0700739 0.234232 0.813958
1213 2 0.0163268 0.243546 0.798123
780 4 0.0949305 0.231605 0.814613
1073 4 0.110915 0.179223 0.800399
1072 2 0.135589 0.181226 0.803919
1074 4 0.160262 0.183229 0.807439
869 4 0.0975982 0.227982 0.835117
1297 2 0.393591 0.162973 0.794399
1193 4 0.377952 0.248542 0.734694
1298 4 0.398057 0.185616 0.804018
47 3 0.393122 0.194331 0.821596
1043 4 0.404641 0.246844 0.805424
46 1 0.40844 0.209411 0.829787
49 3 0.403148 0.230553 0.821826
1166 4 0.423028 0.238362 0.815676
48 3 0.429612 0.203286 0.822535
779 4 0.0452173 0.236858 0.813303
1240 2 0.235164 0.270003 0.769912