ITEM: TIMESTEP
190000
ITEM: NUMBER OF ATOMS
4590
ITEM: BOX BOUNDS pp pp pp
-9.9985700000000008e+00 9.9985700000000008e+00
-9.9985700000000008e+00 9.9985700000000008e+00
-9.9985700000000008e+00 9.9985700000000008e+00
ITEM: ATOMS id type xs ys zs
463 2 0.0382901 0.0465774 0.0281772
465 4 0.0486583 0.0689655 0.0241208
464 4 0.027922 0.0241893 0.0322336
1666 2 0.0736313 0.0135201 0.0794905
1668 4 0.0567654 0.00426321 0.0954601
1667 4 0.0904972 0.0227771 0.0635209
532 2 0.195383 0.0557767 0.000755485
534 4 0.191531 0.0697677 0.0211169
490 2 0.277955 0.0573851 0.040926
491 4 0.275437 0.0716686 0.0612931
492 4 0.280473 0.0431016 0.0205589
295 2 0.361946 0.0506308 0.084047
296 4 0.376798 0.0361295 0.0701071
557 4 0.365904 0.0813622 0.0327587
745 2 0.45474 0.0645062 0.0327008
746 4 0.445236 0.0784345 0.0511628
747 4 0.464245 0.0505778 0.0142389
2975 4 0.481089 0.061663 0.0114411
589 2 0.0324999 0.122133 0.0730335
590 4 0.0237942 0.144277 0.0653495
3233 4 0.0278538 0.142952 0.0166659
701 4 0.0798455 0.091981 0.0445294
700 2 0.0878497 0.0828049 0.0663677
422 4 0.141719 0.120341 0.00932942
565 2 0.202148 0.116526 0.0332191
566 4 0.189209 0.103845 0.0159871
567 4 0.215087 0.129207 0.0504511
358 2 0.272272 0.130242 0.0327225
359 4 0.281312 0.119167 0.0122087
360 4 0.263232 0.141316 0.0532362
556 2 0.37151 0.100412 0.047953
558 4 0.377117 0.119461 0.0631473
553 2 0.0489504 0.216898 0.0191617
555 4 0.0513021 0.192308 0.0230318
554 4 0.0465988 0.241488 0.0152916
571 2 0.327139 0.233691 0.0526766
573 4 0.30601 0.246092 0.0576726
666 4 0.319867 0.228465 0.0115686
572 4 0.348267 0.22129 0.0476806
1071 4 0.386131 0.244809 0.023141
324 4 0.405107 0.235621 0.0733943
255 4 0.358958 0.182393 0.0880358
771 4 0.449621 0.195634 0.0483166
770 4 0.488908 0.16558 0.0556604
769 2 0.469265 0.180607 0.0519885
322 2 0.421943 0.253146 0.0792752
1014 4 0.482409 0.19188 0.00684514
292 2 0.138043 0.314302 0.0176267
294 4 0.11707 0.318643 0.00472486
293 4 0.159016 0.309961 0.0305286
483 4 0.223875 0.300117 0.0592278
505 2 0.184173 0.277401 0.0442738
507 4 0.172603 0.296599 0.0331927
506 4 0.195742 0.258204 0.0553548
481 2 0.244521 0.311225 0.0505347
357 4 0.260765 0.262971 0.00925318
482 4 0.265166 0.322333 0.0418416
1069 2 0.401281 0.263772 0.0171375
1070 4 0.416432 0.282735 0.0111341
281 4 0.470049 0.331235 0.0498857
323 4 0.43878 0.270671 0.085156
671 4 0.463339 0.338403 0.0663874
330 4 0.0201279 0.386263 0.0246635
621 4 0.0166297 0.349902 0.0663895
454 2 0.11752 0.370736 0.0803739
455 4 0.112489 0.373272 0.0560132
287 4 0.172996 0.352089 0.0131672
288 4 0.164603 0.400755 0.0210355
286 2 0.168799 0.376422 0.0171013
252 4 0.281746 0.364693 0.04539
250 2 0.280113 0.384223 0.0298636
251 4 0.278479 0.403753 0.0143371
956 4 0.38119 0.339871 0.00683615
280 2 0.463318 0.331227 0.0258052
282 4 0.456587 0.331219 0.00172459
552 4 0.0779944 0.431567 0.0678613
550 2 0.0611677 0.445539 0.0557432
551 4 0.044341 0.45951 0.0436252
315 4 0.0124557 0.441701 0.0667006
241 2 0.166633 0.497561 0.0795566
242 4 0.153718 0.495486 0.0582471
245 4 0.223855 0.44816 0.0211043
244 2 0.247978 0.452244 0.0262593
246 4 0.272101 0.456329 0.0314142
272 4 0.285654 0.470329 0.0262484
271 2 0.291069 0.488245 0.00966857
524 4 0.341901 0.503638 0.0757156
564 4 0.444132 0.494158 0.0506404
227 4 0.479877 0.436695 0.0357498
562 2 0.448826 0.483718 0.0284108
563 4 0.453519 0.473278 0.00618121
226 2 0.498164 0.452931 0.0409634
16 1 0.0569202 0.0526588 0.170614
19 3 0.0556912 0.0341613 0.156659
20 3 0.0727393 0.0671379 0.162948
17 3 0.036471 0.0631916 0.170818
702 4 0.095854 0.0736289 0.088206
448 2 0.163854 0.0719556 0.138757
450 4 0.152255 0.0504918 0.144229
652 2 0.311358 0.0373849 0.143484
654 4 0.295727 0.0327127 0.162432
653 4 0.326989 0.0420571 0.124536
297 4 0.347095 0.0651321 0.0979869
1760 4 0.490342 0.0139169 0.156795
758 4 0.417741 0.0628473 0.168309
591 4 0.0412056 0.0999891 0.0807174
476 4 0.145497 0.161583 0.107737
449 4 0.175453 0.0934194 0.133285
237 4 0.159331 0.146177 0.14873
475 2 0.126374 0.166579 0.123051
477 4 0.10725 0.171574 0.138364
235 2 0.174138 0.126914 0.142824
236 4 0.188945 0.107651 0.136919
693 4 0.245169 0.097256 0.15617
582 4 0.298406 0.105253 0.147169
628 2 0.421724 0.161898 0.130217
629 4 0.438465 0.150597 0.144955
380 4 0.0131552 0.161005 0.142819
737 4 0.183553 0.219042 0.109101
736 2 0.197503 0.198335 0.110438
738 4 0.211453 0.177627 0.111775
354 4 0.261825 0.216072 0.114516
284 4 0.272297 0.217944 0.156507
352 2 0.2694 0.23967 0.111209
460 2 0.328363 0.19992 0.10122
461 4 0.304203 0.205858 0.0987235
462 4 0.352523 0.193983 0.103717
630 4 0.404984 0.1732 0.115478
254 4 0.40572 0.19015 0.103969
253 2 0.382339 0.186271 0.0960026
517 2 0.491254 0.244792 0.099795
518 4 0.477 0.225146 0.105798
337 2 0.091579 0.253334 0.145918
339 4 0.086928 0.267449 0.125811
353 4 0.276976 0.263268 0.107902
754 2 0.276067 0.298007 0.12221
755 4 0.27144 0.274895 0.130552
756 4 0.280694 0.321119 0.113867
741 4 0.334597 0.31124 0.097154
278 4 0.264108 0.275268 0.149765
622 2 0.39329 0.278458 0.142515
624 4 0.39441 0.260797 0.160179
739 2 0.35048 0.330497 0.0986032
623 4 0.392171 0.296118 0.124851
528 4 0.466052 0.256058 0.164329
672 4 0.435763 0.324525 0.105728
670 2 0.449551 0.331464 0.0860576
619 2 0.0264346 0.35566 0.0886579
620 4 0.0362396 0.361418 0.110926
456 4 0.122551 0.368201 0.104735
537 4 0.152824 0.352916 0.147602
535 2 0.172413 0.353811 0.163114
626 4 0.230525 0.402645 0.125604
609 4 0.292229 0.366874 0.0957985
608 4 0.328084 0.401684 0.0976255
607 2 0.310157 0.384279 0.096712
612 4 0.293298 0.35372 0.135478
610 2 0.276282 0.346703 0.152401
740 4 0.366363 0.349753 0.100052
387 4 0.341624 0.385357 0.141781
15 3 0.395112 0.342621 0.145207
385 2 0.357113 0.377015 0.124015
386 4 0.372603 0.368672 0.106248
11 1 0.41445 0.353921 0.149331
14 3 0.415339 0.373106 0.136311
12 3 0.432353 0.34049 0.144016
495 4 0.424419 0.385238 0.123715
2652 4 0.503496 0.353117 0.0958814
493 2 0.431185 0.409308 0.123506
313 2 0.0127104 0.451118 0.0898615
314 4 0.0129651 0.460536 0.113022
243 4 0.179547 0.499635 0.100866
625 2 0.224292 0.423395 0.113123
627 4 0.218059 0.444145 0.100643
639 4 0.251012 0.499816 0.119923
637 2 0.254388 0.490022 0.14268
525 4 0.330816 0.470755 0.111723
523 2 0.336359 0.487196 0.0937193
658 2 0.376676 0.45939 0.155173
659 4 0.354579 0.468845 0.148281
660 4 0.398773 0.449935 0.162065
494 4 0.437952 0.433377 0.123297
18 3 0.062122 0.0459567 0.192211
1422 4 0.0037484 0.0247828 0.177223
579 4 0.0798227 0.0853634 0.22152
1420 2 0.01044 0.00268951 0.18683
673 2 0.125374 0.0464218 0.230597
674 4 0.148388 0.0497728 0.221414
675 4 0.102361 0.0430708 0.23978
1505 4 0.210023 0.0333794 0.169603
689 4 0.215358 0.0341074 0.219088
1504 2 0.228964 0.0172549 0.172138
688 2 0.211716 0.0240523 0.241689
1784 4 0.394467 0.00160308 0.185579
21 1 0.368586 0.0540523 0.233101
23 3 0.365536 0.034944 0.245906
24 3 0.348678 0.0658853 0.231664
25 3 0.375769 0.0483689 0.212251
759 4 0.396144 0.0432735 0.208943
22 3 0.384416 0.0673312 0.243211
757 2 0.406942 0.0530604 0.188626
742 2 0.447842 0.0537206 0.230349
743 4 0.462873 0.0733233 0.234217
744 4 0.43281 0.0341179 0.22648
379 2 0.0263755 0.160573 0.164037
381 4 0.0395959 0.160142 0.185256
511 2 0.0338432 0.157023 0.225778
513 4 0.0395969 0.152465 0.24968
512 4 0.0280896 0.161581 0.201877
577 2 0.0938119 0.106059 0.220429
578 4 0.107801 0.126754 0.219338
692 4 0.221327 0.0897139 0.199476
723 4 0.18515 0.0944107 0.21925
691 2 0.233248 0.093485 0.177823
721 2 0.177958 0.109785 0.23761
580 2 0.283758 0.11302 0.165885
581 4 0.269111 0.120787 0.184602
30 3 0.289942 0.148724 0.222042
26 1 0.302303 0.13117 0.229638
28 3 0.295077 0.111499 0.219675
27 3 0.324403 0.134562 0.224231
312 4 0.415972 0.112939 0.162107
310 2 0.427744 0.111355 0.184109
311 4 0.439516 0.109771 0.206111
395 4 0.0444922 0.249172 0.219058
338 4 0.0962301 0.239219 0.166026
363 4 0.0893064 0.248262 0.183253
283 2 0.258802 0.207004 0.17449
285 4 0.245307 0.196064 0.192473
764 4 0.374538 0.226616 0.171358
763 2 0.387011 0.225677 0.193008
765 4 0.399484 0.224738 0.214658
520 2 0.478522 0.210924 0.239214
521 4 0.461026 0.193258 0.236575
522 4 0.496018 0.228591 0.241853
396 4 0.0045322 0.257728 0.24788
394 2 0.0245122 0.25345 0.233469
370 2 0.161592 0.263598 0.224675
361 2 0.103762 0.257477 0.201455
362 4 0.118218 0.266692 0.219657
372 4 0.138138 0.27118 0.220478
300 4 0.123114 0.325169 0.225288
371 4 0.185046 0.256017 0.228872
279 4 0.229769 0.291155 0.182463
277 2 0.246939 0.283212 0.166114
343 2 0.258617 0.28058 0.242805
344 4 0.280767 0.282218 0.231321
307 2 0.309398 0.281269 0.215108
309 4 0.294946 0.298 0.203429
308 4 0.32385 0.264539 0.226787
611 4 0.259266 0.339687 0.169325
526 2 0.487721 0.268503 0.165187
647 4 0.0607694 0.362251 0.176604
263 4 0.0581747 0.411095 0.208145
298 2 0.127318 0.341596 0.243663
648 4 0.108332 0.347874 0.170966
646 2 0.0845509 0.355063 0.173785
417 4 0.140497 0.415039 0.179757
536 4 0.192002 0.354705 0.178627
303 4 0.332583 0.38441 0.188435
13 3 0.415698 0.359537 0.17181
301 2 0.336327 0.407606 0.179883
597 4 0.481923 0.388783 0.173619
643 2 0.454516 0.379646 0.195955
644 4 0.446268 0.365276 0.214681
645 4 0.462764 0.394016 0.17723
447 4 0.446691 0.360984 0.233858
262 2 0.0393571 0.423061 0.219455
264 4 0.0205395 0.435026 0.230764
415 2 0.160034 0.430642 0.179755
416 4 0.179572 0.446245 0.179753
291 4 0.189159 0.436517 0.194137
289 2 0.213428 0.437992 0.199969
290 4 0.237697 0.439466 0.205802
768 4 0.235067 0.47507 0.224182
766 2 0.24841 0.480526 0.203752
638 4 0.257764 0.480229 0.165437
767 4 0.261753 0.485981 0.183322
302 4 0.340072 0.430801 0.171331
229 2 0.405874 0.494077 0.226263
231 4 0.391135 0.481136 0.210756
232 2 0.0134848 0.045806 0.300159
233 4 0.00629716 0.0238595 0.290575
1402 2 0.0696212 0.0173103 0.270215
1403 4 0.0752241 0.0391561 0.281011
234 4 0.0206724 0.0677526 0.309744
690 4 0.208073 0.0139971 0.26429
248 4 0.222321 0.0743438 0.299298
1701 4 0.237794 0.0180279 0.328314
1699 2 0.252143 0.00564765 0.312003
478 2 0.468856 0.0254515 0.311466
480 4 0.464048 0.00112314 0.308273
351 4 0.437238 0.0621278 0.294206
479 4 0.473664 0.0497798 0.31466
349 2 0.447961 0.0841027 0.29943
529 2 0.0173333 0.140456 0.281555
530 4 0.0359271 0.15549 0.288864
531 4 0.99874 0.125422 0.274246
731 4 0.151588 0.103432 0.324233
546 4 0.157989 0.140354 0.26139
722 4 0.170765 0.125159 0.25597
392 4 0.10603 0.161128 0.272727
544 2 0.15699 0.164833 0.266382
249 4 0.238253 0.121669 0.296604
247 2 0.230287 0.0980062 0.297951
403 2 0.23154 0.158847 0.297766
600 4 0.196661 0.150631 0.32772
29 3 0.300391 0.129533 0.252705
404 4 0.247135 0.139533 0.300752
632 4 0.343289 0.113008 0.287374
631 2 0.360399 0.110467 0.305429
633 4 0.377508 0.107926 0.323485
333 4 0.426864 0.123393 0.245944
331 2 0.447374 0.131298 0.257861
332 4 0.467884 0.139203 0.269778
350 4 0.458685 0.106078 0.304654
762 4 0.46205 0.159042 0.271702
444 4 0.0297426 0.241835 0.308792
391 2 0.0999046 0.185358 0.271963
393 4 0.093779 0.209588 0.271199
545 4 0.155992 0.189313 0.271374
405 4 0.215945 0.178162 0.294779
706 2 0.317441 0.177207 0.304944
708 4 0.313889 0.168546 0.328129
707 4 0.320993 0.185868 0.281758
418 2 0.430127 0.230706 0.294051
419 4 0.436886 0.207746 0.301283
761 4 0.475747 0.184608 0.312438
760 2 0.468898 0.171825 0.29207
443 4 0.00941303 0.260801 0.267226
750 4 0.0569524 0.291767 0.259643
442 2 0.0195778 0.251318 0.288009
390 4 0.0904903 0.267556 0.320677
748 2 0.0800271 0.282786 0.256168
749 4 0.103102 0.273805 0.252693
345 4 0.236467 0.278942 0.254289
400 2 0.199897 0.267127 0.312222
402 4 0.222167 0.266404 0.323567
401 4 0.177627 0.267849 0.300877
676 2 0.175101 0.32882 0.333611
496 2 0.290524 0.300088 0.289865
497 4 0.312296 0.298477 0.302054
498 4 0.268752 0.301699 0.277676
543 4 0.396557 0.301383 0.321541
615 4 0.377871 0.308444 0.324085
613 2 0.367135 0.330956 0.322312
420 4 0.423368 0.253667 0.286819
541 2 0.418151 0.306044 0.30983
542 4 0.439745 0.310704 0.298119
364 2 0.0106599 0.342292 0.281543
365 4 0.0296348 0.347831 0.296855
602 4 0.0679244 0.396809 0.286306
299 4 0.131523 0.358022 0.262039
601 2 0.0862206 0.381693 0.294177
603 4 0.104517 0.366578 0.302048
734 4 0.14863 0.36773 0.266039
733 2 0.164366 0.357494 0.282556
677 4 0.188412 0.33966 0.315431
735 4 0.180101 0.347258 0.299072
509 4 0.252957 0.351381 0.325518
727 2 0.325346 0.384093 0.264274
728 4 0.32636 0.402646 0.281005
433 2 0.312096 0.407067 0.330924
729 4 0.324332 0.365541 0.247542
614 4 0.356399 0.353468 0.32054
434 4 0.335182 0.408118 0.321379
445 2 0.452125 0.375706 0.253324
446 4 0.457559 0.390427 0.27279
1757 4 0.0690836 0.506026 0.255273
777 4 0.0778042 0.451932 0.282673
549 4 0.0425707 0.435968 0.324302
775 2 0.0927451 0.455707 0.302362
776 4 0.107686 0.459482 0.322052
414 4 0.159223 0.46645 0.268442
412 2 0.162976 0.46202 0.292762
413 4 0.166728 0.457591 0.317082
436 2 0.293388 0.444417 0.279581
437 4 0.305797 0.443467 0.257895
438 4 0.280979 0.445367 0.301267
713 4 0.41295 0.459063 0.291217
712 2 0.437702 0.461537 0.288688
714 4 0.462454 0.464012 0.286158
316 2 0.0435653 0.0751926 0.354441
317 4 0.027363 0.0628065 0.368907
318 4 0.0597677 0.0875788 0.339976
428 4 0.0681192 0.0518992 0.362554
427 2 0.0779559 0.0322949 0.35055
429 4 0.0877926 0.0126905 0.338546
732 4 0.129995 0.0711533 0.355737
606 4 0.164377 0.0567062 0.367151
604 2 0.18768 0.0488635 0.362605
605 4 0.210982 0.0410208 0.358058
441 4 0.265377 0.0354002 0.415266
439 2 0.272884 0.0117956 0.411854
683 4 0.296451 0.0586471 0.378741
682 2 0.285806 0.0783052 0.38994
698 4 0.387739 0.0351855 0.332487
697 2 0.365792 0.0240917 0.337006
699 4 0.343845 0.0129979 0.341525
256 2 0.417093 0.0541024 0.358189
257 4 0.396058 0.0476642 0.346303
258 4 0.438128 0.0605406 0.370074
426 4 0.421727 0.0398478 0.39892
398 4 0.0732307 0.141257 0.326466
730 2 0.140791 0.0872925 0.339985
397 2 0.0916351 0.126122 0.334041
399 4 0.11004 0.110987 0.341616
687 4 0.131524 0.14853 0.420286
685 2 0.154772 0.157238 0.417306
598 2 0.192715 0.159473 0.350772
599 4 0.18877 0.168316 0.373825
684 4 0.275161 0.0979632 0.401139
467 4 0.372442 0.164676 0.411374
451 2 0.473714 0.144614 0.383031
453 4 0.453255 0.158965 0.382225
514 2 0.429944 0.148581 0.415114
515 4 0.449486 0.155967 0.401377
452 4 0.494173 0.130262 0.383838
2654 4 0.0268849 0.206616 0.353031
474 4 0.238216 0.199088 0.376584
274 2 0.20665 0.236482 0.395656
276 4 0.231508 0.234559 0.393775
275 4 0.181791 0.238405 0.397536
472 2 0.249902 0.194891 0.354882
473 4 0.261588 0.190693 0.33318
488 4 0.290214 0.224211 0.377812
487 2 0.296118 0.24273 0.39354
715 2 0.350742 0.238663 0.36369
716 4 0.328359 0.22791 0.366612
616 2 0.0753448 0.328052 0.367603
618 4 0.0626674 0.308624 0.376931
347 4 0.0530978 0.314197 0.394055
346 2 0.0521831 0.294861 0.40988
389 4 0.125937 0.267671 0.35595
388 2 0.108214 0.267614 0.338314
678 4 0.161791 0.31798 0.35179
375 4 0.177863 0.321882 0.392284
373 2 0.198892 0.319571 0.405612
510 4 0.225818 0.316057 0.348243
508 2 0.239387 0.333719 0.33688
376 2 0.286386 0.29268 0.34993
377 4 0.311206 0.294812 0.347788
378 4 0.261565 0.290548 0.352072
489 4 0.302022 0.26125 0.409267
717 4 0.373126 0.249416 0.360768
268 2 0.491831 0.262583 0.394129
270 4 0.467698 0.259281 0.399772
408 4 0.0680032 0.403287 0.415895
406 2 0.0733997 0.406833 0.39174
407 4 0.0787961 0.410379 0.367585
617 4 0.0880222 0.34748 0.358276
502 2 0.230299 0.40117 0.411087
503 4 0.239248 0.420449 0.397917
435 4 0.289009 0.406016 0.340469
336 4 0.359059 0.364654 0.397899
561 4 0.444823 0.391869 0.399159
752 4 0.452872 0.401243 0.382625
751 2 0.437339 0.416509 0.370342
548 4 0.0795372 0.426531 0.35663
547 2 0.0610539 0.431249 0.340466
680 4 0.0455635 0.46331 0.413262
499 2 0.112788 0.469933 0.373761
500 4 0.114294 0.485589 0.354324
501 4 0.111282 0.454277 0.393198
570 4 0.178842 0.471771 0.413365
5 3 0.304188 0.441776 0.364232
1 1 0.32121 0.456134 0.369
2 3 0.312539 0.476998 0.373318
4 3 0.332754 0.448783 0.387738
3 3 0.335634 0.457608 0.350884
594 4 0.370753 0.487142 0.338306
592 2 0.394349 0.495222 0.340081
753 4 0.421805 0.431774 0.35806
2237 4 0.0599228 0.0106997 0.493721
718 2 0.0517743 0.0633074 0.47765
720 4 0.03227 0.0489333 0.471474
367 2 0.128054 0.054767 0.459141
369 4 0.135876 0.0598904 0.48233
368 4 0.120232 0.0496437 0.435952
342 4 0.194912 0.0771191 0.486492
340 2 0.19356 0.0522786 0.489002
341 4 0.192207 0.0274381 0.491512
1181 4 0.235221 0.0538827 0.493337
2430 4 0.206168 0.0166413 0.501784
724 2 0.338364 0.0793805 0.443828
726 4 0.320584 0.0668349 0.431514
424 2 0.401671 0.0385349 0.413792
425 4 0.381614 0.037222 0.428665
719 4 0.0712786 0.0776815 0.483826
457 2 0.00754853 0.158136 0.439453
458 4 0.0159374 0.134582 0.439323
686 4 0.17802 0.165945 0.414326
1180 2 0.245193 0.0767228 0.491323
321 4 0.283636 0.146571 0.433019
319 2 0.27533 0.123883 0.426582
320 4 0.267025 0.101194 0.420144
468 4 0.326599 0.16376 0.43133
1182 4 0.255166 0.099563 0.489309
466 2 0.34952 0.164218 0.421352
725 4 0.356145 0.0919262 0.456143
574 2 0.397855 0.156211 0.462513
575 4 0.406602 0.157682 0.439136
516 4 0.410402 0.141195 0.428852
2878 2 0.488187 0.0874131 0.459447
642 4 0.466118 0.120671 0.47321
2880 4 0.471172 0.100879 0.471871
640 2 0.473491 0.131507 0.494503
469 2 0.0254501 0.178054 0.492686
470 4 0.0290037 0.198969 0.479454
260 4 0.0914216 0.216843 0.424613
261 4 0.106779 0.184789 0.459789
259 2 0.0991004 0.200816 0.442201
1035 4 0.125166 0.183616 0.473904
1033 2 0.117811 0.179203 0.49739
695 4 0.112986 0.235465 0.487389
411 4 0.277791 0.214856 0.48628
409 2 0.294936 0.19864 0.478017
410 4 0.312081 0.182424 0.469754
576 4 0.389108 0.154741 0.485891
267 4 0.33949 0.244073 0.444836
306 4 0.493733 0.215561 0.421809
304 2 0.492863 0.190813 0.425271
305 4 0.491993 0.166066 0.428732
348 4 0.0512683 0.275525 0.425706
327 4 0.114236 0.322663 0.485501
694 2 0.112644 0.259796 0.493135
696 4 0.112301 0.284128 0.498882
325 2 0.0986524 0.322559 0.465947
326 4 0.0830691 0.322456 0.446394
10 3 0.158596 0.318247 0.480735
374 4 0.219921 0.31726 0.418939
651 4 0.259841 0.271965 0.452746
649 2 0.267961 0.295107 0.457612
650 4 0.276082 0.318249 0.462478
265 2 0.342612 0.266934 0.435203
266 4 0.345734 0.289796 0.42557
812 4 0.354171 0.309975 0.48413
583 2 0.470892 0.28282 0.47321
584 4 0.491378 0.271863 0.463967
585 4 0.450406 0.293777 0.482453
6 1 0.155538 0.330485 0.499695
7 3 0.138866 0.34593 0.496137
711 4 0.160742 0.382683 0.472254
504 4 0.22135 0.381891 0.424256
709 2 0.180886 0.389465 0.459086
710 4 0.20103 0.396246 0.445917
668 4 0.317623 0.425658 0.427592
334 2 0.357679 0.371481 0.421913
238 2 0.383214 0.380326 0.477739
240 4 0.367143 0.38812 0.460242
335 4 0.356298 0.378307 0.445927
239 4 0.399285 0.372533 0.495236
559 2 0.462628 0.379504 0.41162
560 4 0.480432 0.367138 0.424081
1383 4 0.0261783 0.484327 0.429149
681 4 0.0389703 0.423962 0.44341
679 2 0.0422669 0.443636 0.428336
383 4 0.0735735 0.425602 0.452879
935 4 0.00193099 0.422688 0.483264
539 4 0.0695106 0.470913 0.489231
540 4 0.112797 0.494324 0.480347
568 2 0.163569 0.462102 0.43064
569 4 0.148296 0.452432 0.447915
382 2 0.0913917 0.430953 0.469584
384 4 0.10921 0.436303 0.486289
538 2 0.0911539 0.482619 0.484789
636 4 0.234613 0.453706 0.428649
634 2 0.240767 0.442403 0.450086
635 4 0.246921 0.4311 0.471523
774 4 0.244197 0.414744 0.483561
667 2 0.308823 0.429285 0.450713
669 4 0.300024 0.432911 0.473835
586 2 0.41576 0.434176 0.429038
588 4 0.396886 0.427651 0.413992
663 4 0.444333 0.47426 0.476812
661 2 0.457597 0.470456 0.497663
1332 4 0.498572 0.50201 0.496889
587 4 0.434634 0.440701 0.444084
1126 2 0.039946 0.0588655 0.533614
1127 4 0.0332919 0.0357574 0.526765
2238 4 0.0173766 0.00474178 0.519315
2236 2 0.0386497 0.00772072 0.506518
1058 4 0.13393 0.0676652 0.553067
1057 2 0.144635 0.0745359 0.574594
1030 2 0.243213 0.073093 0.561416
961 2 0.292921 0.0347678 0.516515
963 4 0.291921 0.0588979 0.510041
962 4 0.29392 0.0106376 0.522989
432 4 0.293974 0.0777763 0.506265
1032 4 0.24935 0.0721464 0.537196
1217 4 0.399694 0.0487493 0.550673
1216 2 0.400816 0.0304405 0.567665
841 2 0.37293 0.0783477 0.540044
842 4 0.391089 0.0663738 0.552375
1060 2 0.492951 0.0134713 0.535056
1062 4 0.46911 0.018683 0.529611
1128 4 0.0466001 0.0819736 0.540464
938 4 0.0707291 0.134893 0.538198
471 4 0.0218966 0.157138 0.505919
937 2 0.0954147 0.13092 0.538333
939 4 0.1201 0.126947 0.538467
1154 4 0.16243 0.157342 0.576309
1151 4 0.18844 0.13456 0.517272
1150 2 0.191836 0.110654 0.510778
1152 4 0.195232 0.0867486 0.504284
430 2 0.317199 0.0862395 0.510024
899 4 0.317181 0.142816 0.541785
843 4 0.354771 0.0903216 0.527712
431 4 0.340425 0.0947028 0.513782
641 4 0.480864 0.142343 0.515796
877 2 0.0730546 0.218508 0.576959
878 4 0.0494972 0.226199 0.57363
1199 4 0.0103279 0.200831 0.553993
1034 4 0.110456 0.17479 0.520876
879 4 0.0966119 0.210818 0.580289
1272 4 0.104293 0.228769 0.586476
856 2 0.232079 0.222481 0.546637
858 4 0.241528 0.209727 0.565956
1221 4 0.189117 0.18977 0.578074
857 4 0.22263 0.235234 0.527317
791 4 0.318482 0.236727 0.571374
898 2 0.323367 0.166351 0.536038
900 4 0.329553 0.189886 0.530292
871 2 0.41147 0.258386 0.521005
3065 4 0.501227 0.243532 0.534663
3159 4 0.489503 0.170073 0.550659
872 4 0.42424 0.239423 0.510879
983 4 0.0459443 0.320992 0.563355
1258 2 0.153272 0.284512 0.541721
1260 4 0.129113 0.278088 0.541249
9 3 0.149268 0.316572 0.517174
1259 4 0.177432 0.290936 0.542192
792 4 0.312987 0.28582 0.579147
790 2 0.315734 0.261273 0.575261
813 4 0.335409 0.293552 0.527477
873 4 0.398701 0.277349 0.531131
811 2 0.34479 0.301763 0.505804
954 4 0.449241 0.282956 0.581522
982 2 0.0293105 0.33666 0.573505
8 3 0.175114 0.341696 0.505126
1189 2 0.223107 0.368013 0.573206
773 4 0.227032 0.388802 0.522716
1190 4 0.23975 0.368415 0.554551
772 2 0.235615 0.401773 0.503139
802 2 0.279211 0.346348 0.546584
803 4 0.281669 0.340571 0.570787
804 4 0.276753 0.352125 0.522382
928 2 0.368438 0.374639 0.567767
929 4 0.36335 0.393438 0.552087
925 2 0.460502 0.389141 0.532413
927 4 0.466144 0.381453 0.555527
926 4 0.45486 0.396829 0.509299
1161 4 0.166087 0.455319 0.548063
1159 2 0.167662 0.447857 0.571875
1171 2 0.231227 0.443627 0.567608
1173 4 0.21787 0.45653 0.550867
1172 4 0.244584 0.430723 0.584349
882 4 0.329622 0.464178 0.551356
880 2 0.35067 0.472193 0.540497
881 4 0.371718 0.480209 0.529639
1952 4 0.354708 0.476654 0.578531
1002 4 0.410308 0.440675 0.593527
1000 2 0.429775 0.443345 0.578065
1001 4 0.449243 0.446015 0.562603
662 4 0.470861 0.466651 0.518514
1909 2 0.442804 0.502804 0.561902
1911 4 0.420327 0.494631 0.569193
1185 4 0.00684517 0.0509746 0.656924
2319 4 0.0533187 0.996068 0.656145
1059 4 0.155339 0.0814066 0.59612
825 4 0.131144 0.0334368 0.645772
823 2 0.15174 0.019283 0.644983
824 4 0.172337 0.00512914 0.644195
1031 4 0.237076 0.0740397 0.585637
949 2 0.260857 0.023807 0.604953
951 4 0.251388 0.0413011 0.589805
950 4 0.270327 0.00631281 0.620101
1005 4 0.333165 0.0743191 0.652114
1218 4 0.401937 0.0121318 0.584656
809 4 0.464632 0.0705364 0.602536
808 2 0.461103 0.0764898 0.626562
1083 4 0.062819 0.0951296 0.609916
1082 4 0.0503508 0.0908378 0.658153
1076 4 0.0327329 0.0917439 0.66637
1081 2 0.0565849 0.0929837 0.634034
1153 2 0.148005 0.138497 0.58418
1155 4 0.133579 0.119652 0.592052
909 4 0.144047 0.161714 0.658276
1284 4 0.172817 0.100953 0.622754
1283 4 0.219217 0.1196 0.622581
1282 2 0.196017 0.110277 0.622668
810 4 0.457574 0.0824433 0.650589
1270 2 0.124651 0.216425 0.594115
1271 4 0.14501 0.204081 0.601754
1209 4 0.0914211 0.245493 0.660629
1210 2 0.237582 0.182966 0.651261
1212 4 0.219742 0.184321 0.633794
1219 2 0.196256 0.183171 0.60111
1220 4 0.203396 0.176572 0.624146
796 2 0.226907 0.239602 0.610739
798 4 0.23622 0.22907 0.631415
1211 4 0.255422 0.181611 0.668728
904 2 0.466915 0.233157 0.599588
906 4 0.449814 0.214936 0.598714
1024 2 0.436924 0.196811 0.664757
1025 4 0.449461 0.209057 0.646923
905 4 0.484015 0.251377 0.600461
1243 2 0.0522481 0.263346 0.627545
1244 4 0.0512958 0.266287 0.602733
1245 4 0.0532003 0.260404 0.652357
797 4 0.217594 0.250134 0.590062
946 2 0.182555 0.27616 0.631836
947 4 0.195098 0.25675 0.641382
948 4 0.170013 0.295569 0.622289
1238 4 0.304483 0.292519 0.596351
1239 4 0.31101 0.338827 0.614062
1237 2 0.307747 0.315673 0.605207
952 2 0.458851 0.29906 0.59806
953 4 0.46846 0.315164 0.614598
984 4 0.0126766 0.352328 0.583654
1040 4 0.0744133 0.401789 0.637542
1039 2 0.0519057 0.395381 0.628738
1041 4 0.0293981 0.388973 0.619933
1137 4 0.113189 0.389817 0.593568
897 4 0.15646 0.39912 0.59076
1136 4 0.120763 0.343289 0.610256
1135 2 0.116976 0.366553 0.601912
992 4 0.131851 0.410289 0.636251
991 2 0.107781 0.412793 0.64254
1191 4 0.206464 0.367611 0.591862
896 4 0.200912 0.381614 0.605535
895 2 0.178686 0.390367 0.598148
806 4 0.339329 0.348265 0.664658
930 4 0.373526 0.35584 0.583448
1204 2 0.404003 0.399442 0.632667
1206 4 0.382936 0.408481 0.642648
1205 4 0.425071 0.390402 0.622686
993 4 0.083711 0.415298 0.648829
1187 4 0.219124 0.48984 0.608225
1160 4 0.169237 0.440394 0.595687
1186 2 0.217726 0.501645 0.630222
889 2 0.317777 0.454521 0.601059
891 4 0.293689 0.460536 0.60402
890 4 0.341865 0.448506 0.598099
1951 2 0.362848 0.498042 0.588604
1267 2 0.436741 0.478866 0.666044
1269 4 0.419313 0.463472 0.656853
944 4 0.060654 0.0612323 0.676674
943 2 0.0757051 0.0412663 0.676662
945 4 0.0907563 0.0213002 0.67665
1147 2 0.210979 0.0693715 0.730509
1149 4 0.209122 0.0456073 0.738058
1091 4 0.351161 0.00729231 0.702607
1163 4 0.468193 0.0399118 0.666351
1162 2 0.486184 0.0452933 0.68286
1164 4 0.504174 0.0506749 0.699369
42 3 0.442694 0.0766994 0.704852
2320 2 0.481333 0.003604 0.74183
2283 4 0.430955 0.00499507 0.678644
862 2 0.0544126 0.127749 0.739375
864 4 0.0566314 0.124062 0.714744
1075 2 0.0404295 0.099173 0.68897
1077 4 0.0481261 0.106602 0.71157
907 2 0.152159 0.152196 0.679927
908 4 0.160272 0.142677 0.701578
1148 4 0.212835 0.0931357 0.722959
1225 2 0.189543 0.119507 0.725707
1226 4 0.206884 0.106523 0.738193
1227 4 0.172203 0.132491 0.713222
829 2 0.325899 0.148726 0.715455
1003 2 0.333858 0.0843498 0.675007
831 4 0.339825 0.129321 0.72285
1004 4 0.334551 0.0943806 0.6979
43 3 0.411765 0.0978611 0.701983
45 3 0.428991 0.084891 0.671117
41 1 0.432203 0.0928137 0.692226
1142 4 0.423169 0.140341 0.708425
44 3 0.445586 0.111759 0.69162
851 4 0.0648014 0.171248 0.708055
852 4 0.0185952 0.185156 0.694929
850 2 0.0416983 0.178202 0.701492
1213 2 0.0225535 0.222085 0.746568
1107 4 0.0719479 0.187196 0.717057
1178 4 0.00361487 0.236659 0.709757
1105 2 0.0885272 0.193263 0.734762
1207 2 0.108788 0.245533 0.678617
1277 4 0.201636 0.235326 0.75391
1129 2 0.193733 0.19234 0.751324
1131 4 0.194817 0.217289 0.75257
830 4 0.311973 0.168131 0.70806
886 2 0.291948 0.190153 0.6867
888 4 0.273035 0.191867 0.670436
887 4 0.310862 0.188439 0.702964
976 2 0.28631 0.194943 0.745328
978 4 0.273501 0.174031 0.740448
1193 4 0.371912 0.203123 0.668535
1143 4 0.420903 0.184321 0.732117
1192 2 0.358524 0.20667 0.689353
1194 4 0.345136 0.210217 0.710171
1298 4 0.348134 0.204668 0.752439
1141 2 0.422036 0.162331 0.720271
1026 4 0.424387 0.184566 0.682591
1261 2 0.444244 0.223688 0.71646
1263 4 0.458589 0.220677 0.696203
1262 4 0.429898 0.226698 0.736717
1177 2 0.00302771 0.260182 0.701299
1179 4 0.00244056 0.283704 0.692841
1208 4 0.126155 0.245574 0.696605
822 4 0.15729 0.275475 0.751703
820 2 0.16732 0.277779 0.728915
821 4 0.177351 0.280083 0.706128
1065 4 0.229739 0.289564 0.703351
1063 2 0.252196 0.293793 0.693203
1064 4 0.274653 0.298022 0.683055
807 4 0.314757 0.318017 0.695994
805 2 0.327043 0.333141 0.680326
3123 4 0.480835 0.281215 0.673849
3121 2 0.50161 0.269024 0.680555
892 2 0.0533434 0.376818 0.700776
893 4 0.0754148 0.370898 0.690628
894 4 0.0312721 0.382737 0.710925
3276 4 0.0235982 0.37299 0.727687
940 2 0.132329 0.388953 0.733196
1067 4 0.161303 0.375953 0.702888
941 4 0.151206 0.388398 0.716809
1028 4 0.214609 0.407068 0.688352
1066 2 0.181688 0.390404 0.703781
1068 4 0.202073 0.404855 0.704674
1027 2 0.23817 0.405914 0.680063
1029 4 0.261731 0.404759 0.671774
1019 4 0.392953 0.368877 0.722137
1018 2 0.384195 0.377586 0.743876
1281 4 0.0166925 0.45956 0.695213
1280 4 0.0611346 0.44508 0.712987
1279 2 0.0389135 0.45232 0.7041
1983 4 0.0174323 0.475023 0.726373
1981 2 0.0283208 0.494239 0.738092
1176 4 0.197015 0.504718 0.72174
1139 4 0.273454 0.423736 0.734234
1138 2 0.284891 0.437513 0.716782
1140 4 0.296328 0.451291 0.699331
1228 2 0.364624 0.475402 0.708058
1229 4 0.357043 0.49861 0.702665
1230 4 0.372206 0.452194 0.713451
1268 4 0.454169 0.49426 0.675235
1100 4 0.434898 0.46123 0.704961
1099 2 0.454751 0.449626 0.714779
1101 4 0.474603 0.438022 0.724597
1295 4 0.996178 0.0202386 0.788734
1294 2 0.0027214 0.0245857 0.812472
1203 4 0.1026 0.0796455 0.769584
1201 2 0.103064 0.0548716 0.766235
1202 4 0.103529 0.0300977 0.762886
2049 4 0.101658 0.0125164 0.752354
1255 2 0.285933 0.0574402 0.80515
1256 4 0.283452 0.0760126 0.821706
1257 4 0.288414 0.0388679 0.788594
975 4 0.369978 0.00347706 0.81965
1112 4 0.418725 0.0649379 0.813117
846 4 0.489989 0.0676525 0.75062
1113 4 0.416447 0.025266 0.782758
844 2 0.473799 0.0548339 0.764718
1111 2 0.417586 0.0451019 0.797937
845 4 0.45761 0.0420152 0.778816
863 4 0.0521939 0.131436 0.764005
832 2 0.0111296 0.144285 0.788721
833 4 0.0342527 0.153358 0.791584
34 3 0.103866 0.131706 0.816176
31 1 0.112942 0.151468 0.808083
33 3 0.126815 0.147003 0.790027
32 3 0.125366 0.161319 0.824749
839 4 0.26624 0.126091 0.787244
838 2 0.273706 0.12546 0.811098
960 4 0.322387 0.16236 0.83388
1084 2 0.368374 0.130733 0.781415
1085 4 0.37313 0.12254 0.804555
1086 4 0.363618 0.138925 0.758275
819 4 0.371746 0.119791 0.824829
1214 4 0.0365256 0.212422 0.764914
1073 4 0.077474 0.24675 0.782545
1106 4 0.105106 0.19933 0.752468
35 3 0.0962845 0.165653 0.801763
1072 2 0.0988812 0.233842 0.782003
1074 4 0.120288 0.220934 0.781462
1130 4 0.19265 0.167391 0.750078
1276 2 0.200838 0.250657 0.773645
977 4 0.299118 0.215855 0.750208
918 4 0.304398 0.235093 0.75763
916 2 0.290424 0.246885 0.774686
47 3 0.415066 0.184892 0.797895