ITEM: TIMESTEP
1920000
ITEM: NUMBER OF ATOMS
4590
ITEM: BOX BOUNDS pp pp pp
-9.9985700000000008e+00 9.9985700000000008e+00
-9.9985700000000008e+00 9.9985700000000008e+00
-9.9985700000000008e+00 9.9985700000000008e+00
ITEM: ATOMS id type xs ys zs
1668 4 0.0708334 0.0368255 0.045781
1666 2 0.0648239 0.0248694 0.0669025
1667 4 0.0588145 0.0129133 0.088024
566 4 0.165033 0.0193384 0.0702176
565 2 0.17546 0.0392465 0.059258
567 4 0.185888 0.0591545 0.0482984
492 4 0.265945 0.0132621 0.0491878
1475 4 0.273194 0.0167407 0.0683744
490 2 0.262597 0.0221425 0.0260554
491 4 0.259249 0.0310228 0.00292294
2264 4 0.294306 0.0539028 0.999189
2144 4 0.365183 0.0133192 0.0048976
745 2 0.46648 0.0502895 0.0234284
2724 4 0.495941 0.0551733 0.0712109
747 4 0.490822 0.0559009 0.0223421
2722 2 0.473485 0.0651302 0.0758744
746 4 0.442139 0.0446781 0.0245147
463 2 0.0807289 0.0843614 0.00412646
465 4 0.0794353 0.107885 0.012502
701 4 0.0612235 0.116726 0.0105378
700 2 0.0525115 0.139255 0.0169955
702 4 0.0437995 0.161785 0.0234533
358 2 0.217086 0.154113 0.0238538
359 4 0.240065 0.144841 0.0271963
665 4 0.356107 0.170879 0.0178256
555 4 0.0380503 0.180244 0.0265577
553 2 0.0377195 0.200544 0.0119648
554 4 0.0373888 0.220845 0.997372
422 4 0.0925867 0.207542 0.0288329
421 2 0.0930237 0.18823 0.0129579
360 4 0.194107 0.163385 0.0205114
1133 4 0.192982 0.172892 0.00287072
737 4 0.224288 0.24296 0.0580251
736 2 0.225579 0.218094 0.0602973
354 4 0.238314 0.181427 0.0730987
738 4 0.226869 0.193227 0.0625694
1069 2 0.404656 0.248439 0.00717633
664 2 0.340809 0.183196 0.00235127
254 4 0.394571 0.233631 0.084109
323 4 0.431854 0.243112 0.0431556
2807 4 0.0154767 0.288056 0.0290605
2806 2 0.997447 0.3041 0.0355957
292 2 0.163263 0.321582 0.0525762
506 4 0.223745 0.253423 0.0411768
507 4 0.203 0.298691 0.0457729
293 4 0.184615 0.308925 0.0495605
505 2 0.213372 0.276057 0.0434748
481 2 0.296038 0.292232 0.00962935
482 4 0.305038 0.312814 0.02061
1071 4 0.392741 0.264604 0.0220725
573 4 0.374706 0.263066 0.0265771
571 2 0.365252 0.284638 0.0349683
572 4 0.355797 0.306211 0.0433594
741 4 0.347073 0.281222 0.0804458
324 4 0.464142 0.281158 0.046438
322 2 0.447998 0.262135 0.0447968
315 4 0.0639664 0.403727 0.0765141
313 2 0.0470013 0.415828 0.0626961
294 4 0.141911 0.334238 0.0555918
456 4 0.127378 0.348147 0.0524523
454 2 0.127162 0.371882 0.060311
455 4 0.126947 0.395618 0.0681697
608 4 0.239084 0.378361 0.0657501
607 2 0.232366 0.357655 0.0780515
252 4 0.259254 0.378982 0.0622845
250 2 0.276982 0.392364 0.0508034
251 4 0.29471 0.405746 0.0393223
524 4 0.308156 0.402649 0.0537337
226 2 0.38821 0.396647 0.0309101
228 4 0.385978 0.420382 0.0384502
227 4 0.390441 0.372912 0.0233701
670 2 0.410761 0.364102 0.077743
1305 4 0.397775 0.35919 0.0107823
671 4 0.418029 0.367273 0.0540301
281 4 0.43136 0.353003 0.0530157
280 2 0.454715 0.345318 0.0484661
282 4 0.478069 0.337633 0.0439165
104 3 0.482853 0.332697 0.0638969
1045 2 0.490842 0.335256 0.00900442
1047 4 0.495872 0.333532 0.0334361
552 4 0.0220279 0.446365 0.0475531
314 4 0.0300362 0.427929 0.048878
793 2 0.160543 0.484493 0.00264903
795 4 0.171439 0.462009 0.00166809
244 2 0.241709 0.471672 0.008425
243 4 0.220841 0.483214 0.0497142
245 4 0.227703 0.450989 0.00731936
1440 4 0.249424 0.477361 0.0738141
1290 4 0.234206 0.433226 0.999059
241 2 0.199113 0.495272 0.0469489
523 2 0.32516 0.417738 0.0641444
271 2 0.276455 0.495847 0.0589195
272 4 0.265629 0.487009 0.0796532
37 3 0.344901 0.464412 0.0132029
525 4 0.342164 0.432826 0.074555
494 4 0.436909 0.427391 0.0776909
1422 4 0.0299494 0.00919511 0.156275
2480 4 0.0126528 0.00722068 0.141176
18 3 0.0616738 0.0273103 0.137148
16 1 0.0534713 0.00860094 0.126145
19 3 0.0339986 0.00127257 0.136417
590 4 0.0139138 0.0765358 0.0885937
17 3 0.0487092 0.0142748 0.104367
652 2 0.236246 0.0481156 0.151736
654 4 0.238752 0.0530012 0.127343
1474 2 0.269187 0.0186674 0.0929795
1476 4 0.26518 0.020594 0.117585
296 4 0.388503 0.0644893 0.100344
297 4 0.357885 0.0256341 0.093028
295 2 0.373194 0.0450617 0.096686
557 4 0.397566 0.0808861 0.106221
484 2 0.353913 0.0027991 0.126135
485 4 0.361692 0.00729743 0.102802
2723 4 0.451029 0.0750872 0.080538
1759 2 0.465168 0.000710307 0.14012
1760 4 0.484242 0.0168767 0.140205
2744 4 0.49371 0.0338996 0.142547
235 2 0.10801 0.156308 0.153841
236 4 0.11676 0.134586 0.162601
758 4 0.337855 0.107444 0.159196
556 2 0.415693 0.0979012 0.103558
771 4 0.443617 0.115605 0.118837
558 4 0.433819 0.114916 0.100895
769 2 0.45213 0.138979 0.116321
338 4 0.0710565 0.247803 0.14249
237 4 0.0992596 0.178031 0.145081
476 4 0.204729 0.200382 0.156821
477 4 0.202165 0.210635 0.107943
475 2 0.203447 0.205508 0.132382
352 2 0.251502 0.176057 0.0936511
353 4 0.264691 0.170687 0.114203
461 4 0.275284 0.187796 0.113087
460 2 0.297041 0.199989 0.111315
462 4 0.318798 0.212181 0.109543
755 4 0.304579 0.251986 0.117112
279 4 0.269675 0.255312 0.166357
630 4 0.40733 0.240188 0.0974357
770 4 0.460644 0.162354 0.113805
628 2 0.422207 0.234366 0.11667
624 4 0.428646 0.238936 0.151727
629 4 0.437084 0.228544 0.135904
337 2 0.0508005 0.261836 0.146728
339 4 0.0305446 0.275869 0.150965
612 4 0.239182 0.333034 0.104784
610 2 0.244219 0.309347 0.111008
611 4 0.249256 0.285661 0.117232
278 4 0.298989 0.268544 0.128064
277 2 0.284332 0.261928 0.147211
754 2 0.32826 0.258003 0.111802
739 2 0.34685 0.305899 0.0844692
740 4 0.346628 0.330576 0.0884926
253 2 0.379872 0.253857 0.0838954
255 4 0.365174 0.274083 0.0836818
756 4 0.351941 0.264019 0.106492
596 4 0.390436 0.306548 0.177165
595 2 0.387849 0.330037 0.168994
619 2 0.0718681 0.391216 0.11426
621 4 0.0596348 0.401681 0.0951284
647 4 0.072111 0.383494 0.148621
620 4 0.0841014 0.380752 0.133392
537 4 0.102705 0.375219 0.132746
535 2 0.12557 0.382485 0.125705
536 4 0.148436 0.38975 0.118665
609 4 0.225649 0.336949 0.0903528
386 4 0.331405 0.340332 0.0972928
387 4 0.341097 0.37641 0.130536
385 2 0.336251 0.358371 0.113915
302 4 0.34479 0.391917 0.146822
12 3 0.389197 0.365765 0.115007
11 1 0.385319 0.38101 0.13179
15 3 0.362872 0.384111 0.134069
672 4 0.403492 0.360932 0.101456
14 3 0.395557 0.401072 0.126213
495 4 0.405896 0.410389 0.113044
13 3 0.394227 0.372805 0.151583
597 4 0.385262 0.353526 0.160824
301 2 0.346894 0.414582 0.157168
626 4 0.185414 0.455219 0.124273
1438 2 0.232032 0.477914 0.0917695
625 2 0.197679 0.455978 0.146048
1439 4 0.21464 0.478466 0.109725
638 4 0.218356 0.470474 0.15653
637 2 0.236511 0.486179 0.163527
627 4 0.209944 0.456737 0.167824
1559 4 0.322361 0.492188 0.100071
493 2 0.421403 0.41889 0.0953676
1583 4 0.486046 0.482232 0.110062
1582 2 0.466767 0.492712 0.0980763
1420 2 0.0268467 0.00936068 0.181084
1421 4 0.023744 0.00952625 0.205894
690 4 0.161407 0.0098085 0.236291
688 2 0.17733 0.000101962 0.219635
653 4 0.233739 0.04323 0.176129
693 4 0.240718 0.0528854 0.193583
691 2 0.265318 0.0502684 0.197215
692 4 0.289917 0.0476514 0.200848
1699 2 0.31039 0.059885 0.233332
1701 4 0.292442 0.0475127 0.221085
1700 4 0.328337 0.0722573 0.245579
21 1 0.367014 0.0739343 0.235977
25 3 0.365122 0.0754985 0.213335
511 2 0.0243764 0.121568 0.228575
578 4 0.0571588 0.14746 0.234128
513 4 0.0450732 0.131876 0.238092
318 4 0.0651658 0.0995772 0.24186
449 4 0.137186 0.13434 0.165673
448 2 0.142335 0.112566 0.176834
450 4 0.147484 0.0907917 0.187994
28 3 0.233165 0.132998 0.172685
27 3 0.217913 0.131235 0.206991
26 1 0.237768 0.131492 0.195377
580 2 0.29157 0.112626 0.192595
581 4 0.268876 0.113165 0.203078
30 3 0.249247 0.112308 0.199721
582 4 0.314263 0.112087 0.182112
29 3 0.250198 0.149868 0.202176
23 3 0.347484 0.0813379 0.246084
759 4 0.362141 0.0880614 0.198378
24 3 0.385021 0.0865982 0.24331
757 2 0.349998 0.0977528 0.178787
311 4 0.455941 0.143836 0.20206
310 2 0.433491 0.154455 0.204964
577 2 0.049729 0.171325 0.233467
529 2 0.0196958 0.223707 0.232327
530 4 0.0428893 0.21438 0.232835
579 4 0.0422992 0.19519 0.232807
372 4 0.146422 0.235435 0.185659
362 4 0.131213 0.248282 0.178063
370 2 0.164991 0.221029 0.194194
371 4 0.183561 0.206624 0.202728
402 4 0.249019 0.218302 0.250642
284 4 0.304 0.221609 0.212043
283 2 0.289416 0.229967 0.193532
285 4 0.274833 0.238326 0.175021
765 4 0.414135 0.198449 0.251001
312 4 0.411042 0.165074 0.207868
763 2 0.437827 0.191175 0.254311
521 4 0.476773 0.182033 0.244014
520 2 0.495074 0.178377 0.227375
396 4 0.0536107 0.294483 0.219995
443 4 0.0599785 0.307888 0.23243
394 2 0.065647 0.28877 0.198836
395 4 0.0776834 0.283057 0.177678
363 4 0.0847629 0.265657 0.171647
361 2 0.107988 0.256969 0.174855
345 4 0.286033 0.355933 0.211251
622 2 0.443122 0.253677 0.16581
623 4 0.457598 0.268418 0.179893
527 4 0.448556 0.287963 0.176216
526 2 0.466968 0.303882 0.18194
528 4 0.48538 0.319801 0.187663
264 4 0.04112 0.408512 0.21214
646 2 0.0888915 0.381964 0.167093
648 4 0.105672 0.380434 0.185566
300 4 0.0941155 0.376955 0.201163
298 2 0.10593 0.362655 0.217929
299 4 0.117744 0.348355 0.234696
343 2 0.293654 0.34792 0.233677
645 4 0.404233 0.361089 0.169415
447 4 0.405291 0.386967 0.220117
445 2 0.410808 0.402807 0.23866
643 2 0.411493 0.377091 0.187203
644 4 0.418753 0.393093 0.204992
2861 4 0.488788 0.407326 0.236726
108 3 0.49632 0.395735 0.222081
262 2 0.0338128 0.426371 0.228041
263 4 0.0265055 0.44423 0.243942
289 2 0.212547 0.425905 0.239059
417 4 0.190977 0.499991 0.189414
290 4 0.202803 0.439175 0.220241
416 4 0.192919 0.455283 0.211732
415 2 0.191948 0.477637 0.200573
303 4 0.348997 0.437247 0.167515
659 4 0.355645 0.449842 0.180921
658 2 0.358321 0.472482 0.191189
660 4 0.360996 0.495123 0.201457
231 4 0.363652 0.493512 0.220852
1403 4 0.0482715 0.0064072 0.275504
232 2 0.0408263 0.0374364 0.287193
234 4 0.0507164 0.0592401 0.294402
317 4 0.0462313 0.0727382 0.279568
233 4 0.0309362 0.0156327 0.279985
674 4 0.150045 0.0079083 0.252959
673 2 0.134237 0.0215356 0.266728
675 4 0.118429 0.0351629 0.280497
723 4 0.23016 0.0780495 0.261634
1406 4 0.20436 0.00868846 0.302324
684 4 0.25299 0.0364718 0.328871
22 3 0.370524 0.051955 0.241786
698 4 0.381323 0.0562558 0.258889
697 2 0.379623 0.0354593 0.272665
699 4 0.377922 0.0146627 0.286442
333 4 0.394082 0.0709124 0.252177
331 2 0.415362 0.0795105 0.262098
743 4 0.462959 0.0266781 0.268635
742 2 0.474575 0.00568834 0.275683
351 4 0.477793 0.0400879 0.263101
349 2 0.466818 0.0615474 0.269751
350 4 0.455843 0.083007 0.2764
316 2 0.0556986 0.0861577 0.260714
393 4 0.128192 0.137659 0.324523
399 4 0.114526 0.131137 0.339043
391 2 0.136728 0.148978 0.303927
392 4 0.145264 0.160298 0.283331
545 4 0.147708 0.154102 0.264361
546 4 0.193056 0.138065 0.250684
721 2 0.213333 0.0932061 0.272231
722 4 0.196506 0.108363 0.282829
544 2 0.170382 0.146083 0.257523
599 4 0.193677 0.123755 0.296034
404 4 0.210598 0.135284 0.292158
598 2 0.181743 0.119374 0.317564
403 2 0.22866 0.145637 0.278309
405 4 0.246721 0.15599 0.26446
762 4 0.412267 0.134475 0.300726
332 4 0.436642 0.0881087 0.272019
761 4 0.460748 0.132521 0.312828
760 2 0.436508 0.133498 0.306777
401 4 0.235956 0.170207 0.254751
400 2 0.242488 0.194254 0.252697
764 4 0.461519 0.1839 0.257621
442 2 0.0675388 0.301548 0.255405
444 4 0.075099 0.295208 0.278379
496 2 0.33432 0.286639 0.317298
309 4 0.29683 0.327625 0.269698
307 2 0.311369 0.334527 0.288833
498 4 0.324863 0.277068 0.338372
497 4 0.343777 0.296209 0.296223
613 2 0.412223 0.326435 0.318712
541 2 0.455369 0.285771 0.310675
542 4 0.46919 0.272155 0.294904
615 4 0.423978 0.304397 0.317556
543 4 0.441547 0.299388 0.326446
749 4 0.0617744 0.355201 0.277293
365 4 0.00279965 0.350728 0.308753
364 2 0.02284 0.350768 0.293801
366 4 0.0428803 0.350807 0.278849
748 2 0.0853096 0.35626 0.268918
735 4 0.160189 0.357453 0.288865
734 4 0.126009 0.352318 0.252725
750 4 0.108845 0.357319 0.260542
733 2 0.143099 0.354886 0.270795
602 4 0.108884 0.39203 0.316565
777 4 0.115006 0.407199 0.30572
676 2 0.165278 0.376655 0.326444
677 4 0.16572 0.371504 0.301981
414 4 0.230715 0.42151 0.274929
291 4 0.22229 0.412634 0.257878
412 2 0.237275 0.41135 0.296814
413 4 0.243834 0.40119 0.318698
344 4 0.301275 0.339908 0.256102
727 2 0.32981 0.382298 0.316567
728 4 0.328923 0.407133 0.313802
308 4 0.325908 0.34143 0.307967
729 4 0.330697 0.357464 0.319333
434 4 0.337487 0.427874 0.318575
614 4 0.400468 0.348473 0.319867
2924 4 0.494368 0.385986 0.319953
446 4 0.416326 0.418647 0.257202
1757 4 0.115661 0.463661 0.301506
776 4 0.101219 0.453403 0.292463
775 2 0.108113 0.430301 0.299091
1756 2 0.125751 0.48371 0.290487
1436 4 0.241383 0.491324 0.33025
768 4 0.188768 0.477187 0.265594
1545 4 0.22203 0.48984 0.330186
2 3 0.316184 0.424849 0.311663
1435 2 0.259022 0.476479 0.32057
438 4 0.308056 0.479734 0.262932
437 4 0.2969 0.452868 0.303607
436 2 0.302478 0.466301 0.28327
1437 4 0.27666 0.461635 0.31089
5 3 0.283969 0.442476 0.318329
1 1 0.300467 0.429874 0.327691
433 2 0.361918 0.431944 0.31515
435 4 0.386349 0.436013 0.311725
714 4 0.417303 0.430839 0.272455
713 4 0.447725 0.445243 0.309437
712 2 0.432514 0.438041 0.290946
429 4 0.0764067 0.000243596 0.373591
428 4 0.0438573 0.0379637 0.369296
427 2 0.060132 0.0191036 0.371444
731 4 0.0983893 0.0618767 0.425648
606 4 0.156638 0.0302129 0.390539
730 2 0.10422 0.0725645 0.403809
604 2 0.169198 0.0277386 0.369061
605 4 0.181759 0.0252643 0.347584
683 4 0.231314 0.029284 0.37336
682 2 0.242152 0.0328779 0.351115
1749 4 0.490586 0.00010949 0.342465
1747 2 0.466475 0.998889 0.348975
424 2 0.438658 0.0398828 0.383465
426 4 0.450121 0.0593002 0.372661
425 4 0.427195 0.0204655 0.39427
258 4 0.463427 0.0699433 0.362723
732 4 0.110051 0.0832522 0.38197
398 4 0.121087 0.0999733 0.377598
397 2 0.117807 0.115555 0.358321
686 4 0.179393 0.139561 0.393451
600 4 0.169809 0.114992 0.339095
685 2 0.177901 0.123068 0.374719
687 4 0.176408 0.106574 0.355986
321 4 0.248456 0.0756255 0.387055
249 4 0.310889 0.0753452 0.365135
410 4 0.264128 0.136914 0.398606
409 2 0.250279 0.155714 0.407548
319 2 0.251951 0.0930848 0.404609
707 4 0.268805 0.151233 0.34277
247 2 0.334447 0.0830662 0.361875
248 4 0.358004 0.0907871 0.358616
633 4 0.376457 0.101751 0.356297
632 4 0.403124 0.143983 0.358748
631 2 0.389791 0.122867 0.357522
420 4 0.389311 0.156029 0.363597
257 4 0.478774 0.112221 0.340865
256 2 0.471101 0.091082 0.351794
616 2 0.0306021 0.244211 0.38577
274 2 0.167337 0.234307 0.350367
390 4 0.0900593 0.245442 0.369128
389 4 0.138982 0.252692 0.361728
388 2 0.11452 0.249067 0.365428
473 4 0.238216 0.193927 0.343945
275 4 0.176608 0.212201 0.343256
474 4 0.191579 0.208544 0.354534
472 2 0.214897 0.201236 0.34924
411 4 0.236431 0.174514 0.416489
708 4 0.258027 0.199947 0.346158
489 4 0.25965 0.250691 0.412166
706 2 0.263416 0.17559 0.344464
717 4 0.318384 0.234191 0.386272
418 2 0.376021 0.176123 0.37029
419 4 0.362732 0.196217 0.376983
716 4 0.360514 0.214643 0.367735
715 2 0.339449 0.224417 0.377003
515 4 0.458616 0.167401 0.365971
514 2 0.453132 0.165888 0.390319
617 4 0.0550638 0.246288 0.390512
276 4 0.158066 0.256412 0.357477
695 4 0.0971096 0.292816 0.410179
488 4 0.263885 0.278244 0.37065
377 4 0.307709 0.250142 0.380017
487 2 0.261768 0.264467 0.391408
510 4 0.257137 0.336883 0.346355
508 2 0.264921 0.313775 0.351889
509 4 0.272705 0.290667 0.357422
376 2 0.305922 0.26378 0.359136
378 4 0.304135 0.277417 0.338256
267 4 0.34791 0.332671 0.348555
265 2 0.349771 0.314329 0.365445
266 4 0.351632 0.295987 0.382336
585 4 0.364797 0.2832 0.385338
583 2 0.383143 0.279427 0.401902
2456 4 0.420289 0.268599 0.41494
270 4 0.496368 0.271537 0.392395
306 4 0.500213 0.261422 0.40892
269 4 0.453495 0.271831 0.366656
268 2 0.474932 0.271684 0.379526
2493 4 0.0112418 0.35609 0.326712
2491 2 0.996242 0.372247 0.338507
547 2 0.070333 0.407921 0.378926
549 4 0.0909415 0.394789 0.373633
601 2 0.0986266 0.385622 0.338449
603 4 0.0883691 0.379214 0.360333
678 4 0.164836 0.381807 0.350907
710 4 0.146039 0.407744 0.413084
374 4 0.244462 0.343909 0.331262
502 2 0.190853 0.402982 0.370588
504 4 0.196601 0.379125 0.365791
373 2 0.226411 0.354897 0.344626
375 4 0.208359 0.365885 0.357989
559 2 0.489925 0.410132 0.419591
548 4 0.0497246 0.421054 0.384219
407 4 0.0403789 0.431783 0.396869
406 2 0.0415121 0.456303 0.39211
408 4 0.0426453 0.480823 0.387351
503 4 0.185104 0.426838 0.375385
636 4 0.191922 0.425094 0.394959
634 2 0.19144 0.445578 0.409289
3 3 0.291594 0.410091 0.335957
668 4 0.304904 0.437665 0.36409
4 3 0.310728 0.441714 0.344806
667 2 0.322194 0.434272 0.38183
669 4 0.339484 0.430878 0.399571
753 4 0.480914 0.440684 0.333778
561 4 0.479146 0.421342 0.400012
752 4 0.483339 0.434538 0.383347
751 2 0.482127 0.437611 0.358563
718 2 0.0452459 0.0549256 0.488378
719 4 0.0688978 0.0552983 0.480277
369 4 0.0887655 0.0546138 0.477852
367 2 0.0982189 0.049718 0.455228
368 4 0.107672 0.0448221 0.432604
2430 4 0.214581 0.0699942 0.448683
2428 2 0.221866 0.0493232 0.43665
2429 4 0.229151 0.0286521 0.424616
441 4 0.233245 0.0199335 0.44239
950 4 0.231932 0.0578861 0.497927
726 4 0.287774 0.0758751 0.470141
432 4 0.30263 0.070032 0.482091
430 2 0.327169 0.0697646 0.486878
2879 4 0.473558 0.0197125 0.434792
2878 2 0.471752 0.0445695 0.436804
2880 4 0.469947 0.0694266 0.438816
642 4 0.477764 0.0876828 0.442162
2584 2 0.00644503 0.0843565 0.426935
2586 4 0.0248355 0.0941302 0.440772
341 4 0.217544 0.0858397 0.459846
340 2 0.208789 0.108344 0.466333
1152 4 0.188893 0.128729 0.487183
342 4 0.200033 0.130849 0.472819
320 4 0.255446 0.110544 0.422162
724 2 0.27921 0.0927743 0.453823
725 4 0.270646 0.109673 0.437506
467 4 0.344593 0.0936573 0.436163
466 2 0.366042 0.102822 0.427156
468 4 0.387491 0.111987 0.418149
641 4 0.497896 0.122045 0.472405
576 4 0.423163 0.133793 0.467127
640 2 0.48783 0.104864 0.457283
574 2 0.43239 0.14083 0.444979
575 4 0.441616 0.147867 0.422831
469 2 0.0774211 0.233033 0.450224
470 4 0.0712782 0.256855 0.44576
471 4 0.0835641 0.20921 0.454689
260 4 0.0897492 0.18977 0.453674
259 2 0.0985662 0.184416 0.47645
650 4 0.249735 0.187644 0.424317
651 4 0.256848 0.237141 0.424619
649 2 0.253291 0.212393 0.424468
516 4 0.447648 0.164375 0.414667
348 4 0.00263864 0.30768 0.460272
2814 4 0.0158846 0.312003 0.472357
2812 2 0.0162694 0.331364 0.488175
694 2 0.113668 0.291232 0.428846
696 4 0.130227 0.289647 0.447514
1260 4 0.148507 0.297075 0.445647
1258 2 0.169664 0.288275 0.455652
1259 4 0.190821 0.279475 0.465658
584 4 0.401489 0.275654 0.418466
2457 4 0.452851 0.306491 0.417088
2455 2 0.43657 0.287545 0.416014
326 4 0.0640938 0.376928 0.451997
2813 4 0.0166542 0.350724 0.503993
10 3 0.1278 0.33555 0.455345
709 2 0.157448 0.390154 0.426708
325 2 0.0887816 0.37489 0.455393
7 3 0.127711 0.3681 0.473604
327 4 0.113469 0.372853 0.45879
6 1 0.140926 0.352455 0.463129
8 3 0.152032 0.362626 0.445476
9 3 0.156281 0.344157 0.478419
711 4 0.168856 0.372565 0.440333
334 2 0.346965 0.40712 0.430185
335 4 0.358708 0.388708 0.442362
238 2 0.367354 0.382815 0.47527
240 4 0.370952 0.373612 0.452302
1382 4 0.0465878 0.465254 0.469684
1381 2 0.0257153 0.469083 0.456461
1383 4 0.00484289 0.472913 0.443238
540 4 0.0573492 0.453507 0.481603
538 2 0.0573425 0.468152 0.501868
570 4 0.134733 0.422285 0.418883
384 4 0.120928 0.470095 0.467015
772 2 0.152327 0.473711 0.435775
382 2 0.129243 0.466409 0.490306
773 4 0.132714 0.473201 0.451275
568 2 0.113082 0.432077 0.426664
569 4 0.0914319 0.441869 0.434446
635 4 0.190958 0.466062 0.423619
774 4 0.17194 0.474221 0.420275
1401 4 0.315096 0.452166 0.479461
1399 2 0.332248 0.469342 0.473465
588 4 0.338958 0.498913 0.455062
1400 4 0.349401 0.486519 0.467468
336 4 0.335221 0.425532 0.418008
1126 2 0.0094568 0.0464337 0.533039
1127 4 0.0167176 0.061398 0.51437
720 4 0.021594 0.054553 0.496479
951 4 0.19478 0.0305327 0.51722
1031 4 0.17558 0.0252455 0.51931
1030 2 0.172326 0.0294488 0.543743
949 2 0.213356 0.0442094 0.507573
1032 4 0.169073 0.0336521 0.568175
1182 4 0.247018 0.0662811 0.509824
961 2 0.299865 0.0297131 0.547193
1180 2 0.271305 0.0608815 0.512313
963 4 0.304123 0.0387743 0.524281
1181 4 0.295591 0.0554818 0.514803
962 4 0.295606 0.0206518 0.570104
841 2 0.370225 0.0476373 0.513002
843 4 0.347818 0.056965 0.506994
842 4 0.392631 0.0383096 0.519011
1217 4 0.40468 0.0227653 0.527441
431 4 0.351709 0.0694972 0.491665
1218 4 0.422962 0.0511999 0.564291
1216 2 0.413821 0.0369826 0.545866
1034 4 0.0852757 0.151363 0.518675
939 4 0.150395 0.145071 0.531476
937 2 0.135225 0.163159 0.523237
1151 4 0.163973 0.129124 0.530537
1150 2 0.176433 0.128927 0.50886
857 4 0.300475 0.149021 0.577071
899 4 0.317915 0.1397 0.580658
856 2 0.28163 0.16538 0.575524
898 2 0.338724 0.148346 0.569824
900 4 0.359533 0.156993 0.558989
872 4 0.359027 0.166734 0.540964
1033 2 0.0731662 0.171234 0.527823
1035 4 0.0610567 0.191105 0.536971
1082 4 0.0550486 0.208905 0.545711
1081 2 0.049415 0.202316 0.569164
1083 4 0.0437814 0.195727 0.592616
938 4 0.120055 0.181247 0.514999
261 4 0.107383 0.179062 0.499227
797 4 0.261304 0.198523 0.564106
811 2 0.323712 0.233899 0.541464
812 4 0.300634 0.243166 0.544049
796 2 0.271738 0.217969 0.552351
798 4 0.282171 0.237415 0.540597
813 4 0.34679 0.224632 0.538878
873 4 0.362544 0.215294 0.529551
871 2 0.360785 0.191014 0.535258
904 2 0.449332 0.238655 0.568268
878 4 0.0859618 0.268049 0.563252
954 4 0.415918 0.314829 0.573556
905 4 0.438545 0.257433 0.555769
952 2 0.430329 0.295505 0.566916
953 4 0.44474 0.27618 0.560277
1135 2 0.153761 0.397353 0.543727
1137 4 0.162225 0.374556 0.549546
896 4 0.213565 0.347494 0.551557
1191 4 0.222125 0.346662 0.533918
897 4 0.164414 0.354584 0.545674
895 2 0.18899 0.351039 0.548615
1189 2 0.244235 0.349656 0.522634
1190 4 0.266346 0.352651 0.511349
803 4 0.274273 0.370312 0.51727
802 2 0.298106 0.366842 0.523986
804 4 0.32194 0.363373 0.530702
929 4 0.324946 0.37301 0.549001
928 2 0.340643 0.369067 0.56806
930 4 0.35634 0.365124 0.587119
239 4 0.363756 0.392019 0.498238
925 2 0.463716 0.391546 0.53201
927 4 0.471116 0.386452 0.508676
1001 4 0.463949 0.392941 0.571874
926 4 0.456316 0.39664 0.555343
2712 4 0.483883 0.397102 0.499307
539 4 0.0573358 0.482797 0.522134
936 4 0.00819574 0.457496 0.548554
1136 4 0.145298 0.420149 0.537907
383 4 0.137558 0.462724 0.513597
2244 4 0.168305 0.489116 0.54121
2242 2 0.172812 0.480561 0.564268
1173 4 0.23211 0.456317 0.587276
1171 2 0.249557 0.453982 0.569518
1172 4 0.267003 0.451647 0.55176
882 4 0.276783 0.468367 0.546376
880 2 0.288341 0.490277 0.549771
1059 4 0.0676682 0.0793896 0.593215
1185 4 0.0239709 0.0464998 0.645588
945 4 0.0388528 0.0540554 0.655187
825 4 0.0807156 0.0221782 0.615254
1057 2 0.0712964 0.0547692 0.595634
1058 4 0.0749246 0.0301489 0.598054
1183 2 0.00389098 0.0600795 0.639459
2195 4 0.289827 0.00366485 0.579923
1005 4 0.312559 0.0386479 0.6727
1003 2 0.327626 0.0574553 0.666032
1004 4 0.342693 0.0762627 0.659365
2283 4 0.4404 0.999057 0.603064
2282 4 0.457778 0.0304192 0.637923
2281 2 0.449089 0.0147379 0.620494
43 3 0.469754 0.0284149 0.654034
45 3 0.496709 0.0537215 0.646917
41 1 0.479688 0.0481928 0.661001
44 3 0.463944 0.0652312 0.661464
4467 4 0.434535 0.998188 0.584373
1155 4 0.0739708 0.0974004 0.586291
1198 2 0.0172744 0.160818 0.583147
1200 4 0.00193162 0.141223 0.580732
1153 2 0.0968107 0.107235 0.588898
1154 4 0.119651 0.11707 0.591504
1221 4 0.129658 0.109756 0.60719
1219 2 0.136736 0.116074 0.630324
1220 4 0.143814 0.122392 0.653458
1283 4 0.151565 0.120885 0.671902
1212 4 0.238463 0.155332 0.625172
1210 2 0.250419 0.149481 0.646337
1211 4 0.262376 0.14363 0.667503
1199 4 0.0326173 0.180412 0.585562
879 4 0.0781262 0.251685 0.609851
1272 4 0.0851023 0.237737 0.621784
1270 2 0.105089 0.223182 0.625509
1271 4 0.125075 0.208627 0.629233
909 4 0.141917 0.199454 0.624311
907 2 0.159744 0.215954 0.630237
908 4 0.177571 0.232454 0.636162
858 4 0.262784 0.18174 0.573978
1025 4 0.40175 0.20938 0.649497
1143 4 0.399072 0.206107 0.669351
1024 2 0.411318 0.205389 0.626744
906 4 0.460119 0.219878 0.580767
1026 4 0.420886 0.201397 0.603991
3123 4 0.455708 0.205642 0.664157
877 2 0.082044 0.259867 0.586552
947 4 0.174551 0.252067 0.642595
946 2 0.169259 0.276268 0.64598
948 4 0.163967 0.30047 0.649365
1237 2 0.232101 0.333743 0.595323
1239 4 0.208861 0.341679 0.600026
792 4 0.259885 0.313484 0.605751
791 4 0.290604 0.289509 0.637092
790 2 0.275245 0.301497 0.621422
1205 4 0.407347 0.317458 0.590781
982 2 0.000976624 0.39477 0.641591
983 4 0.019139 0.396635 0.658674
1041 4 0.0317808 0.396216 0.642499
1039 2 0.0515313 0.407573 0.632198
992 4 0.129955 0.411442 0.631649
991 2 0.10629 0.407095 0.624847
993 4 0.0826248 0.402749 0.618046
1238 4 0.25534 0.325806 0.59062
1206 4 0.370917 0.351278 0.585326
1204 2 0.389132 0.334368 0.588053
1000 2 0.455566 0.412637 0.584795
1040 4 0.0712819 0.41893 0.621897
2243 4 0.177318 0.472005 0.587326
1161 4 0.179694 0.468526 0.606835
1160 4 0.204509 0.442224 0.641377
1159 2 0.192101 0.455375 0.624106
890 4 0.321096 0.434662 0.633586
889 2 0.325267 0.459315 0.633601
891 4 0.329439 0.483969 0.633616
1187 4 0.31464 0.498156 0.622248
1952 4 0.341469 0.501573 0.637204
1911 4 0.413189 0.487091 0.586143
3330 4 0.49741 0.418675 0.672853
1910 4 0.440472 0.449396 0.604457
1002 4 0.447184 0.432334 0.597716
1909 2 0.426831 0.468243 0.5953
3328 2 0.49149 0.432135 0.65263
3329 4 0.485571 0.445595 0.632407
1268 4 0.434977 0.498224 0.661347
943 2 0.048056 0.0559474 0.678358
944 4 0.0572591 0.0578393 0.701529
1075 2 0.0646428 0.0529461 0.739991
1076 4 0.0674338 0.0483534 0.715572
2319 4 0.0459573 0.0153614 0.737642
2317 2 0.0209645 0.0148451 0.738163
2285 4 0.0551878 0.997387 0.734955
1148 4 0.206808 0.0421769 0.743682
42 3 0.488068 0.045233 0.682219
1163 4 0.482577 0.045861 0.702469
1282 2 0.176049 0.117603 0.675768
1284 4 0.200533 0.114322 0.679634
1227 4 0.199744 0.12587 0.696601
1225 2 0.209995 0.144522 0.709723
1226 4 0.220247 0.163173 0.722845
888 4 0.258782 0.138198 0.686327
886 2 0.274939 0.136611 0.705343
887 4 0.291096 0.135024 0.724359
830 4 0.308637 0.126599 0.723816
829 2 0.333395 0.123429 0.725293
831 4 0.358152 0.120258 0.72677
1144 2 0.470079 0.166937 0.74546
1107 4 0.0292296 0.182838 0.7245
851 4 0.0146451 0.197438 0.722575
1105 2 0.0458246 0.177316 0.742369
850 2 0.996431 0.213546 0.716748
1208 4 0.0730342 0.237277 0.712293
822 4 0.138756 0.233813 0.706829
1278 4 0.154855 0.224898 0.701003
820 2 0.114948 0.238263 0.713037
821 4 0.0911398 0.242713 0.719245
1276 2 0.175369 0.224689 0.715297
1130 4 0.229228 0.17623 0.734921
1277 4 0.195883 0.22448 0.72959
1129 2 0.215698 0.196203 0.741494
1131 4 0.202169 0.216176 0.748067
916 2 0.283804 0.218112 0.744248
918 4 0.27559 0.194939 0.739698
977 4 0.281956 0.176765 0.740053
917 4 0.292019 0.241285 0.748798
1141 2 0.374356 0.209828 0.670031
1142 4 0.34964 0.213549 0.670711
1194 4 0.410483 0.205477 0.740656
3121 2 0.477232 0.215369 0.67236
3122 4 0.498756 0.225096 0.680563
1262 4 0.403397 0.203342 0.721978
1145 4 0.45516 0.170115 0.725648
1261 2 0.425636 0.193213 0.716684
1263 4 0.447875 0.183085 0.711389
1243 2 0.011466 0.313553 0.705692
1209 4 0.0556087 0.253982 0.668497
1207 2 0.0643214 0.245629 0.690395
1244 4 0.0288536 0.328952 0.696433
1065 4 0.185427 0.281046 0.702505
1064 4 0.23157 0.269212 0.717719
1063 2 0.208498 0.275129 0.710112
1097 4 0.300647 0.258886 0.74121
1008 4 0.331424 0.261523 0.728869
805 2 0.416649 0.319932 0.741581
806 4 0.42853 0.298285 0.73765
3113 4 0.490059 0.334984 0.707273
893 4 0.0848919 0.366638 0.689147
892 2 0.0796759 0.387814 0.701375
894 4 0.07446 0.40899 0.713604
941 4 0.155241 0.395826 0.727232
940 2 0.141741 0.412382 0.740225
1066 2 0.190108 0.400902 0.700418
1067 4 0.169522 0.393601 0.712587
1028 4 0.231636 0.410098 0.688419
1068 4 0.210694 0.408203 0.688249
1027 2 0.25477 0.415549 0.680655
1029 4 0.277904 0.421 0.672892
807 4 0.404769 0.341579 0.745512
1279 2 0.0880208 0.434192 0.735022
1983 4 0.0344576 0.473786 0.744632
2021 4 0.0535326 0.470011 0.739785
2020 2 0.0622142 0.490857 0.72905
1281 4 0.0867236 0.425156 0.711745
2172 4 0.168497 0.489325 0.686923
1139 4 0.284397 0.421492 0.691822
1138 2 0.30185 0.429831 0.707666
1140 4 0.319303 0.43817 0.723509
1989 4 0.312958 0.443861 0.742091
1229 4 0.335933 0.435854 0.73386
1228 2 0.357221 0.43513 0.746955
1250 4 0.487281 0.467584 0.740349
1100 4 0.487353 0.487691 0.741697
1077 4 0.0618518 0.0575387 0.76441
1203 4 0.0653347 0.0453907 0.779835
1201 2 0.0816284 0.0274602 0.786015
2049 4 0.108784 0.00605842 0.774259
1202 4 0.0979222 0.00952971 0.792195
1147 2 0.221216 0.0600208 0.753641
1149 4 0.235624 0.0778648 0.7636
1049 4 0.247633 0.0746963 0.778294
1257 4 0.298421 0.996287 0.753986
1048 2 0.26242 0.0579499 0.789523
1050 4 0.277206 0.0412035 0.800752
819 4 0.395005 0.0881326 0.826077
846 4 0.459514 0.0382307 0.800994
1113 4 0.448375 0.0232693 0.79492
844 2 0.482253 0.0486239 0.800642
832 2 0.0407245 0.14268 0.786704
863 4 0.0266755 0.113881 0.815701
833 4 0.0265426 0.128324 0.801468
33 3 0.0715065 0.15402 0.783792
834 4 0.0549063 0.157037 0.771941
1106 4 0.0624197 0.171794 0.760238
862 2 0.0383626 0.0972592 0.830272
31 1 0.0887181 0.162678 0.770861
32 3 0.0981902 0.145607 0.758695
1073 4 0.123816 0.163541 0.785461
840 4 0.201915 0.123787 0.772294
838 2 0.225452 0.116981 0.777277
839 4 0.24899 0.110176 0.78226
978 4 0.309 0.148957 0.771613
976 2 0.295478 0.162861 0.755833
959 4 0.261833 0.120488 0.794862
958 2 0.268975 0.113669 0.817833
1084 2 0.380449 0.116632 0.80294
1085 4 0.378693 0.095889 0.81679
1086 4 0.382206 0.137375 0.78909
1299 4 0.387988 0.15084 0.77353
3269 4 0.495696 0.137642 0.820856
1146 4 0.484997 0.163759 0.765272
3270 4 0.482506 0.145027 0.773188
3268 2 0.489101 0.141335 0.797022
3468 4 0.502113 0.141641 0.83908
1214 4 0.0280875 0.236412 0.792995
35 3 0.0805452 0.178426 0.756583
778 2 0.0642357 0.223865 0.814827
1213 2 0.00662629 0.247403 0.799614
779 4 0.0411282 0.223966 0.805276
34 3 0.104954 0.172051 0.784533
780 4 0.0873432 0.223764 0.824377
1072 2 0.137647 0.173978 0.803488
1074 4 0.151478 0.184415 0.821514
1192 2 0.392764 0.21995 0.750745
1193 4 0.375046 0.234422 0.760834
1297 2 0.397153 0.168685 0.788455
1298 4 0.406318 0.186529 0.80338
47 3 0.393176 0.19127 0.817051
1043 4 0.395006 0.238636 0.804494
46 1 0.405367 0.206722 0.828958