ITEM: TIMESTEP
690000
ITEM: NUMBER OF ATOMS
4590
ITEM: BOX BOUNDS pp pp pp
-9.9985700000000008e+00 9.9985700000000008e+00
-9.9985700000000008e+00 9.9985700000000008e+00
-9.9985700000000008e+00 9.9985700000000008e+00
ITEM: ATOMS id type xs ys zs
463 2 0.0218141 0.0617404 0.040383
465 4 0.0146085 0.0727106 0.0616648
464 4 0.0290197 0.0507702 0.0191013
3290 4 0.0430293 0.0358872 0.0173887
3289 2 0.0447932 0.0147035 0.00422377
1668 4 0.0670134 0.0223235 0.0840793
1476 4 0.196269 0.0246246 0.0505753
1474 2 0.217683 0.0118028 0.0520697
490 2 0.269196 0.0121814 0.0250107
491 4 0.284546 0.0231475 0.00859987
492 4 0.253847 0.00121537 0.0414215
745 2 0.455083 0.0630461 0.0285614
1826 4 0.461229 0.0129869 0.0577757
746 4 0.436106 0.0678953 0.044103
747 4 0.47406 0.0581969 0.0130197
591 4 0.030897 0.0843007 0.0629976
701 4 0.0596921 0.131478 0.0148813
700 2 0.076215 0.119201 0.0290741
589 2 0.0452872 0.10255 0.0722202
423 4 0.0655703 0.151 0.00738683
702 4 0.0927379 0.106923 0.0432668
567 4 0.180023 0.0836697 0.0579858
565 2 0.17866 0.104049 0.0724077
358 2 0.277487 0.13934 0.0139405
359 4 0.295498 0.155964 0.0188833
360 4 0.259477 0.122715 0.00899777
556 2 0.370684 0.105676 0.0682418
558 4 0.367702 0.123874 0.0513562
557 4 0.373666 0.0874778 0.0851273
421 2 0.0715797 0.173468 0.0165649
553 2 0.0502925 0.218066 0.0444436
554 4 0.0342479 0.22471 0.0624327
422 4 0.0775892 0.195936 0.025743
555 4 0.0663372 0.211422 0.0264545
506 4 0.174955 0.228955 0.0781199
1133 4 0.220949 0.181318 0.0122503
738 4 0.226624 0.201869 0.0859582
353 4 0.286513 0.225327 0.0763358
461 4 0.305456 0.219131 0.0795355
665 4 0.376762 0.203674 0.00880603
1069 2 0.389331 0.244607 0.0201214
324 4 0.406767 0.238382 0.0783815
1071 4 0.366398 0.238927 0.0283076
1070 4 0.412263 0.250288 0.0119352
828 4 0.441347 0.185089 0.00659339
770 4 0.452063 0.170921 0.0586141
771 4 0.493199 0.182796 0.0327771
769 2 0.472631 0.176858 0.0456956
1014 4 0.468858 0.216943 0.00771864
1170 4 0.0432411 0.315967 0.0120491
292 2 0.152585 0.297666 0.0311253
294 4 0.136167 0.316522 0.0308804
456 4 0.128317 0.329032 0.0446509
507 4 0.175101 0.265185 0.0436516
505 2 0.175028 0.24707 0.0608857
293 4 0.169003 0.27881 0.0313702
481 2 0.232624 0.277596 0.0432393
482 4 0.230467 0.299881 0.0543707
483 4 0.23478 0.255311 0.032108
956 4 0.313487 0.307943 0.0124233
573 4 0.356529 0.252944 0.039438
572 4 0.3582 0.293075 0.0692278
571 2 0.357364 0.273009 0.0543329
741 4 0.363783 0.308076 0.0792792
281 4 0.431224 0.325398 0.067938
280 2 0.455376 0.331843 0.0673704
282 4 0.479528 0.338288 0.0668027
322 2 0.424164 0.25628 0.0798571
323 4 0.44156 0.274179 0.0813327
328 2 0.0187284 0.39162 0.00277562
315 4 0.031927 0.419727 0.0867479
1168 2 0.0464463 0.340733 0.0132843
1169 4 0.0496515 0.3655 0.0145195
329 4 0.0404695 0.381804 0.0102685
454 2 0.132013 0.3406 0.0665074
287 4 0.144201 0.378372 0.00252679
252 4 0.294906 0.383024 0.0638893
250 2 0.280631 0.393934 0.0464997
251 4 0.266357 0.404844 0.0291102
608 4 0.30239 0.37118 0.0793597
671 4 0.424988 0.340148 0.0793022
227 4 0.47161 0.402448 0.0260606
1047 4 0.498731 0.354514 0.0186075
551 4 0.0623538 0.460188 0.0707653
313 2 0.0190581 0.436351 0.0732116
314 4 0.00618907 0.452974 0.0596753
550 2 0.077252 0.479888 0.0668748
552 4 0.0921503 0.499588 0.0629843
244 2 0.213752 0.474869 0.00788374
246 4 0.238642 0.47399 0.010098
272 4 0.238233 0.479058 0.030215
245 4 0.188862 0.475748 0.00566951
271 2 0.259193 0.492675 0.0295555
226 2 0.469622 0.426639 0.0200561
228 4 0.467634 0.450829 0.0140517
563 4 0.46291 0.495182 0.0358047
19 3 0.0460532 0.0263224 0.156352
20 3 0.0623388 0.0274705 0.122424
1422 4 0.0336712 0.00858258 0.15432
16 1 0.0545789 0.0400817 0.139727
17 3 0.0377889 0.0538509 0.132134
1666 2 0.0635251 0.0470649 0.0850134
18 3 0.0717164 0.0531712 0.148293
1667 4 0.0600368 0.0718063 0.0859476
2480 4 0.0234456 0.0286347 0.160298
2479 2 0.998746 0.0266545 0.163645
652 2 0.300832 0.0668638 0.130026
654 4 0.303173 0.0645891 0.105237
653 4 0.298491 0.0691385 0.154816
296 4 0.383645 0.0710905 0.0918079
295 2 0.377857 0.0472166 0.0964682
297 4 0.372069 0.0233427 0.101128
485 4 0.372893 0.0127184 0.119084
484 2 0.356584 0.00205297 0.134751
758 4 0.407336 0.0513136 0.150283
1761 4 0.441991 0.00805789 0.15975
1759 2 0.465432 0.0162282 0.156761
1760 4 0.488873 0.0243985 0.153771
590 4 0.0596774 0.1208 0.0814427
477 4 0.131504 0.152188 0.135228
566 4 0.177296 0.124429 0.0868297
339 4 0.0742103 0.221354 0.12171
337 2 0.0754727 0.237597 0.140677
476 4 0.156901 0.187004 0.160597
475 2 0.144203 0.169596 0.147912
354 4 0.238229 0.217647 0.0868399
737 4 0.17737 0.210445 0.0848277
736 2 0.201997 0.206157 0.085393
352 2 0.262371 0.221487 0.0815878
460 2 0.315408 0.204908 0.097531
462 4 0.325361 0.190686 0.115526
255 4 0.3363 0.185628 0.131984
254 4 0.384986 0.179855 0.141839
630 4 0.399186 0.189527 0.132341
253 2 0.360643 0.182741 0.136912
628 2 0.408485 0.210213 0.121814
624 4 0.404715 0.244885 0.115476
629 4 0.417784 0.230898 0.111287
2590 2 0.491676 0.217154 0.161164
2591 4 0.47712 0.196844 0.162067
338 4 0.0767352 0.25384 0.159644
611 4 0.245049 0.325187 0.152307
277 2 0.249406 0.270287 0.158883
756 4 0.292391 0.305469 0.108493
754 2 0.285728 0.283422 0.118225
755 4 0.279066 0.261375 0.127957
278 4 0.26327 0.266643 0.138396
622 2 0.394018 0.264902 0.125968
623 4 0.383321 0.284918 0.136459
739 2 0.356083 0.328927 0.0907294
527 4 0.466808 0.276973 0.150808
621 4 0.0400583 0.406723 0.0993023
619 2 0.0351876 0.382747 0.104462
620 4 0.0303169 0.358771 0.109622
647 4 0.064486 0.372618 0.139746
646 2 0.0695443 0.37416 0.164184
455 4 0.135709 0.352167 0.0883639
537 4 0.174135 0.397545 0.149043
535 2 0.183494 0.375536 0.156336
626 4 0.207472 0.403841 0.123378
536 4 0.192852 0.353526 0.16363
609 4 0.275827 0.363569 0.121039
607 2 0.289109 0.367374 0.100199
612 4 0.260045 0.353991 0.114278
610 2 0.252547 0.339589 0.133293
387 4 0.341414 0.380221 0.163504
385 2 0.34235 0.366311 0.142748
740 4 0.348382 0.349779 0.10218
15 3 0.399022 0.349185 0.166817
386 4 0.343287 0.352401 0.121992
495 4 0.395839 0.401832 0.151217
14 3 0.402556 0.382786 0.1502
672 4 0.397818 0.347366 0.120659
493 2 0.40667 0.419543 0.137283
11 1 0.412127 0.361857 0.153168
670 2 0.411403 0.343757 0.0999805
302 4 0.344545 0.397832 0.154958
12 3 0.413941 0.351539 0.132689
13 3 0.433318 0.364068 0.162357
595 2 0.476569 0.372692 0.162609
596 4 0.500205 0.374218 0.154597
625 2 0.203652 0.428539 0.124153
627 4 0.199833 0.453237 0.124928
1438 2 0.233032 0.499656 0.115504
639 4 0.23626 0.474763 0.149704
1439 4 0.236611 0.490542 0.138511
524 4 0.323272 0.478197 0.0958398
523 2 0.337292 0.480118 0.116453
525 4 0.351312 0.482039 0.137067
659 4 0.377955 0.456525 0.161127
494 4 0.417502 0.437255 0.123349
301 2 0.352888 0.420941 0.159603
303 4 0.36123 0.444049 0.164248
450 4 0.169881 0.0593739 0.182522
690 4 0.150473 0.0241311 0.246992
674 4 0.152037 0.0435495 0.248939
688 2 0.163939 0.0166387 0.227302
448 2 0.162699 0.0818957 0.190668
1505 4 0.195376 0.00717947 0.20007
689 4 0.177406 0.00914632 0.207612
693 4 0.203214 0.0723915 0.190145
691 2 0.225866 0.0625054 0.193934
692 4 0.248517 0.0526192 0.197723
582 4 0.28692 0.0791496 0.16653
21 1 0.3798 0.0634516 0.227552
23 3 0.38688 0.0416512 0.231161
24 3 0.357233 0.0653871 0.232587
25 3 0.383451 0.069316 0.205851
759 4 0.379138 0.0566393 0.191237
757 2 0.393237 0.0539764 0.17076
22 3 0.391722 0.077515 0.241309
744 4 0.477327 0.0212609 0.225122
742 2 0.47875 0.0341001 0.24653
513 4 0.0542488 0.158352 0.242587
578 4 0.0624699 0.14136 0.239153
511 2 0.0383976 0.171441 0.228353
577 2 0.0869579 0.144436 0.235146
579 4 0.111446 0.147511 0.231138
449 4 0.155518 0.104418 0.198815
235 2 0.164856 0.135918 0.202933
236 4 0.15659 0.119611 0.185876
237 4 0.173123 0.152224 0.219989
722 4 0.176867 0.136148 0.243923
546 4 0.178166 0.155796 0.251673
580 2 0.283651 0.100818 0.17857
581 4 0.280381 0.122487 0.19061
30 3 0.293549 0.131735 0.202393
26 1 0.28537 0.133294 0.22359
29 3 0.292179 0.153259 0.233255
28 3 0.262197 0.132161 0.223238
27 3 0.29348 0.115808 0.236146
333 4 0.394942 0.0946904 0.250474
311 4 0.461983 0.146243 0.185092
312 4 0.433766 0.105292 0.190332
310 2 0.447874 0.125768 0.187712
381 4 0.00977548 0.172751 0.204445
512 4 0.0225465 0.184529 0.214119
285 4 0.286826 0.215757 0.187848
284 4 0.274338 0.209639 0.235883
283 2 0.280582 0.212698 0.211865
764 4 0.439701 0.223198 0.236033
763 2 0.424363 0.239999 0.225657
520 2 0.473727 0.236184 0.250572
521 4 0.451332 0.225125 0.251723
522 4 0.496123 0.247242 0.249421
395 4 0.0718668 0.247786 0.189434
394 2 0.0718213 0.255234 0.213303
396 4 0.0717759 0.262682 0.237171
363 4 0.0861447 0.254214 0.177368
749 4 0.0870203 0.30423 0.203236
361 2 0.109562 0.26223 0.173822
362 4 0.132978 0.270246 0.170276
372 4 0.150683 0.274598 0.17588
748 2 0.102109 0.323534 0.208224
370 2 0.163017 0.264695 0.195244
279 4 0.235542 0.273931 0.17937
371 4 0.175351 0.254791 0.214608
345 4 0.23177 0.289184 0.222149
343 2 0.255946 0.294094 0.218076
344 4 0.280122 0.299005 0.214002
309 4 0.294887 0.3046 0.226154
307 2 0.305866 0.308443 0.248287
765 4 0.409026 0.2568 0.215282
526 2 0.456948 0.27142 0.173104
528 4 0.447088 0.265867 0.1954
366 4 0.0169504 0.363215 0.24096
750 4 0.117198 0.342838 0.213211
300 4 0.109614 0.357367 0.225944
648 4 0.0746026 0.375701 0.188622
298 2 0.11664 0.37255 0.244527
289 2 0.220748 0.406614 0.214953
290 4 0.240225 0.401159 0.229652
291 4 0.20127 0.412069 0.200254
597 4 0.452933 0.371165 0.170621
643 2 0.434038 0.381992 0.203959
644 4 0.434583 0.384729 0.228806
645 4 0.433493 0.379255 0.179111
447 4 0.44451 0.379496 0.245985
263 4 0.0383622 0.496892 0.200882
262 2 0.0434751 0.472783 0.205101
264 4 0.048588 0.448674 0.20932
1430 4 0.175033 0.476962 0.187968
417 4 0.16493 0.46204 0.178627
637 2 0.240835 0.485826 0.171656
416 4 0.200472 0.430506 0.194218
415 2 0.182701 0.446273 0.186422
766 2 0.217204 0.486874 0.221364
768 4 0.197231 0.489975 0.236084
767 4 0.237176 0.483773 0.206644
1429 2 0.180566 0.500068 0.180177
638 4 0.245409 0.49689 0.193607
660 4 0.386033 0.491426 0.196017
658 2 0.381994 0.473976 0.178572
231 4 0.378318 0.488398 0.214284
232 2 0.0381001 0.0314475 0.299121
233 4 0.0624043 0.0256712 0.298065
1403 4 0.074152 0.0162986 0.283925
234 4 0.0137958 0.0372238 0.300178
2756 4 0.0205562 0.0470407 0.318377
675 4 0.122041 0.0804384 0.264437
673 2 0.137039 0.0619939 0.256688
730 2 0.11166 0.0804232 0.333819
1701 4 0.288777 0.0540755 0.269314
1699 2 0.296732 0.0309173 0.274372
1700 4 0.304688 0.00775902 0.27943
1516 2 0.351961 0.000380502 0.288466
1518 4 0.356556 0.0181237 0.305473
697 2 0.386283 0.0457076 0.304385
699 4 0.365809 0.0341983 0.295811
698 4 0.406757 0.0572169 0.31296
1749 4 0.472666 0.0131561 0.323307
743 4 0.480173 0.0469393 0.267938
257 4 0.436285 0.0792511 0.315242
351 4 0.481528 0.0663966 0.273313
349 2 0.460568 0.0740783 0.284575
480 4 0.471035 0.032042 0.327509
478 2 0.488462 0.0498725 0.325619
399 4 0.0938948 0.159458 0.320605
397 2 0.100069 0.135301 0.322475
398 4 0.106242 0.111143 0.324345
732 4 0.123933 0.10155 0.328508
544 2 0.15716 0.165834 0.260793
721 2 0.19692 0.123523 0.251901
723 4 0.216973 0.110898 0.25988
403 2 0.238509 0.163769 0.302853
599 4 0.222743 0.129001 0.317159
404 4 0.238497 0.139503 0.308883
249 4 0.25891 0.146165 0.314656
248 4 0.291581 0.109571 0.324364
247 2 0.275246 0.127868 0.31951
632 4 0.335418 0.0865924 0.28886
631 2 0.34799 0.0899774 0.310206
633 4 0.360562 0.0933625 0.331552
331 2 0.413474 0.0966636 0.267143
350 4 0.439607 0.0817599 0.295837
332 4 0.432006 0.0986367 0.283811
762 4 0.436974 0.121164 0.277168
760 2 0.457594 0.133496 0.284091
761 4 0.478215 0.145827 0.291014
529 2 0.00923872 0.188633 0.294492
530 4 0.0265052 0.201766 0.306926
393 4 0.0968195 0.173838 0.30787
390 4 0.0962799 0.215608 0.313088
392 4 0.1291 0.193274 0.274992
391 2 0.11296 0.183556 0.291431
545 4 0.136154 0.175872 0.269913
388 2 0.115157 0.231484 0.317184
405 4 0.23852 0.188034 0.296822
401 4 0.202121 0.19532 0.283316
400 2 0.204004 0.208578 0.304431
402 4 0.205887 0.221835 0.325547
707 4 0.30084 0.184201 0.330959
418 2 0.402109 0.229381 0.318784
419 4 0.410487 0.24839 0.304867
443 4 0.0772371 0.263735 0.257036
444 4 0.0629958 0.307616 0.276335
442 2 0.0701165 0.285675 0.266686
389 4 0.134033 0.247361 0.32128
308 4 0.316845 0.312286 0.27042
496 2 0.325897 0.323946 0.303151
497 4 0.316771 0.329324 0.280502
498 4 0.335024 0.318568 0.325799
613 2 0.394041 0.32615 0.316594
615 4 0.416654 0.315862 0.319416
543 4 0.425391 0.301388 0.310316
541 2 0.443585 0.301578 0.293166
542 4 0.461778 0.301769 0.276015
2491 2 0.00197823 0.380333 0.319721
2493 4 0.999237 0.387404 0.295896
364 2 0.00364262 0.371772 0.260322
603 4 0.0846241 0.345095 0.31401
299 4 0.123665 0.387732 0.26311
601 2 0.0922864 0.368849 0.315495
734 4 0.127124 0.40456 0.274517
733 2 0.139308 0.402587 0.296262
602 4 0.0999486 0.392604 0.316979
735 4 0.151492 0.400614 0.318006
677 4 0.164085 0.38679 0.324017
777 4 0.0895189 0.408878 0.311329
676 2 0.185751 0.377548 0.315629
678 4 0.207417 0.368306 0.30724
729 4 0.265952 0.386917 0.288411
727 2 0.288916 0.383873 0.297822
434 4 0.316204 0.392814 0.323898
728 4 0.31188 0.380829 0.307234
614 4 0.371427 0.336438 0.313771
445 2 0.460654 0.390858 0.261331
446 4 0.476798 0.402219 0.276676
1756 2 0.0731468 0.486124 0.276286
1757 4 0.0638309 0.463074 0.278951
776 4 0.0758752 0.445746 0.28042
549 4 0.0499785 0.471023 0.320518
775 2 0.082697 0.427312 0.295875
414 4 0.192274 0.486269 0.255293
413 4 0.180587 0.448211 0.285554
412 2 0.18643 0.46724 0.270423
437 4 0.272789 0.457201 0.2716
436 2 0.288061 0.474371 0.281456
438 4 0.303333 0.491541 0.291311
3 3 0.293127 0.440889 0.329759
713 4 0.387016 0.445798 0.296164
712 2 0.410146 0.45455 0.292478
594 4 0.423584 0.497012 0.321806
714 4 0.433275 0.463303 0.288791
2585 4 0.0110337 0.0700581 0.374284
429 4 0.0739084 0.011362 0.35098
2757 4 0.000278817 0.0703216 0.357716
2755 2 0.0104175 0.0586811 0.338047
427 2 0.0921544 0.0284365 0.350132
428 4 0.110401 0.0455111 0.349284
731 4 0.0993861 0.0592967 0.339131
606 4 0.167841 0.0240293 0.372756
604 2 0.182116 0.0374175 0.357196
605 4 0.196392 0.0508056 0.341635
683 4 0.255988 0.0442957 0.386124
682 2 0.2751 0.0584976 0.393753
684 4 0.294212 0.0726996 0.401382
725 4 0.340837 0.0472894 0.404308
424 2 0.444389 0.0450174 0.395342
426 4 0.446777 0.0467113 0.37051
256 2 0.435338 0.0679149 0.337508
258 4 0.434391 0.0565788 0.359774
317 4 0.0784823 0.0804592 0.345656
316 2 0.0593481 0.0951235 0.352291
318 4 0.040214 0.109788 0.358926
687 4 0.167483 0.12735 0.359645
685 2 0.167023 0.148318 0.373256
600 4 0.183729 0.124705 0.348146
598 2 0.203236 0.126853 0.332653
320 4 0.297036 0.0936884 0.399981
319 2 0.281771 0.109777 0.411528
321 4 0.266507 0.125866 0.423074
514 2 0.453515 0.159369 0.409048
451 2 0.491317 0.161773 0.365637
515 4 0.466221 0.159089 0.387515
453 4 0.466532 0.158474 0.36547
2654 4 0.0094844 0.236112 0.360676
275 4 0.160874 0.22855 0.36418
708 4 0.255344 0.201782 0.341991
686 4 0.166563 0.169287 0.386868
474 4 0.213942 0.225204 0.37911
472 2 0.228666 0.220956 0.359353
473 4 0.24339 0.216708 0.339596
706 2 0.278092 0.192991 0.336475
420 4 0.393731 0.210373 0.332701
716 4 0.356856 0.240274 0.366695
306 4 0.475734 0.24353 0.410663
618 4 0.0456698 0.297062 0.397449
616 2 0.0521163 0.28246 0.378203
617 4 0.0585627 0.267857 0.358957
347 4 0.042239 0.309938 0.412681
274 2 0.167943 0.2479 0.37835
276 4 0.175013 0.26725 0.392519
510 4 0.256176 0.306702 0.384668
374 4 0.262754 0.321878 0.394591
508 2 0.261985 0.302208 0.360767
509 4 0.267793 0.297713 0.336867
488 4 0.309625 0.270288 0.387566
376 2 0.320161 0.296315 0.357824
377 4 0.304645 0.280943 0.369995
487 2 0.292749 0.26458 0.405111
267 4 0.327479 0.278875 0.414282
378 4 0.335676 0.311687 0.345652
715 2 0.34962 0.254599 0.385868
717 4 0.342383 0.268923 0.405042
269 4 0.463217 0.27781 0.359954
268 2 0.467269 0.269903 0.383326
270 4 0.471321 0.261997 0.406698
408 4 0.0840344 0.397138 0.392884
502 2 0.216582 0.388018 0.414501
503 4 0.197413 0.400528 0.404441
504 4 0.235752 0.375507 0.424561
375 4 0.241551 0.365057 0.408254
373 2 0.252152 0.343467 0.401422
433 2 0.335362 0.387923 0.339202
435 4 0.35452 0.383033 0.354506
334 2 0.35774 0.412422 0.404504
335 4 0.364812 0.389525 0.411637
561 4 0.468239 0.382068 0.404465
752 4 0.474065 0.398507 0.392518
751 2 0.48049 0.410059 0.371294
559 2 0.443349 0.383925 0.402975
119 3 0.489757 0.406611 0.336764
560 4 0.418459 0.385783 0.401485
406 2 0.0712679 0.416694 0.383955
407 4 0.0585014 0.436251 0.375025
547 2 0.050739 0.453522 0.33836
548 4 0.0514995 0.436021 0.356202
500 4 0.122904 0.469736 0.331337
499 2 0.13659 0.488188 0.341206
1435 2 0.248731 0.498824 0.340155
1437 4 0.269904 0.485607 0.338673
668 4 0.293406 0.454824 0.38196
5 3 0.266197 0.466143 0.337148
1 1 0.285878 0.457317 0.344455
2 3 0.301741 0.473947 0.345432
4 3 0.283128 0.448318 0.365665
667 2 0.307219 0.460086 0.402127
593 4 0.412542 0.465672 0.359177
336 4 0.350667 0.435319 0.39737
753 4 0.486914 0.421612 0.350071
592 2 0.418063 0.481342 0.340492
718 2 0.0511282 0.0587363 0.488634
719 4 0.0739731 0.0511171 0.481908
720 4 0.0282833 0.0663555 0.49536
368 4 0.107582 0.0601171 0.418133
367 2 0.122734 0.0715764 0.43439
2429 4 0.24723 0.00950504 0.467253
2428 2 0.223226 0.0165036 0.467379
341 4 0.204395 0.0414503 0.471925
340 2 0.189383 0.0600322 0.479311
2430 4 0.199223 0.0235022 0.467505
1180 2 0.247506 0.0658849 0.48547
342 4 0.174372 0.0786141 0.486696
1182 4 0.228683 0.0794244 0.476114
439 2 0.278447 0.00215147 0.448162
441 4 0.264045 0.0183504 0.460626
724 2 0.330967 0.0641976 0.41986
726 4 0.321097 0.0811058 0.435413
430 2 0.314682 0.0714397 0.496269
432 4 0.298028 0.0528948 0.494286
1181 4 0.26633 0.0523454 0.494826
963 4 0.281251 0.0413885 0.490473
425 4 0.442 0.0433234 0.420173
2878 2 0.484509 0.0810397 0.418557
1033 2 0.0825199 0.157993 0.48178
369 4 0.137886 0.0830357 0.450646
1034 4 0.0911179 0.135671 0.474501
466 2 0.357442 0.150328 0.422884
467 4 0.339449 0.167589 0.424751
468 4 0.375436 0.133068 0.421016
576 4 0.408675 0.115073 0.467828
2880 4 0.467958 0.0958366 0.430059
574 2 0.418684 0.135175 0.456833
642 4 0.462987 0.0992235 0.448516
516 4 0.44081 0.159649 0.430581
641 4 0.472943 0.121341 0.492248
640 2 0.467965 0.110282 0.470382
575 4 0.428693 0.155278 0.445837
458 4 0.0121564 0.171916 0.434036
471 4 0.0162613 0.213655 0.470307
1035 4 0.0739219 0.180315 0.489059
469 2 0.0257535 0.207686 0.492655
260 4 0.0875933 0.239242 0.461172
261 4 0.0842482 0.197237 0.4881
259 2 0.0859207 0.21824 0.474636
411 4 0.245133 0.193567 0.49373
409 2 0.26825 0.184057 0.494286
410 4 0.291368 0.174546 0.494843
305 4 0.491726 0.204871 0.438057
304 2 0.48373 0.224201 0.42436
3065 4 0.490245 0.228567 0.49668
348 4 0.00110354 0.294065 0.436274
346 2 0.0216713 0.302001 0.424477
10 3 0.167553 0.315105 0.478838
650 4 0.272984 0.27101 0.491145
489 4 0.275873 0.258873 0.422655
651 4 0.273321 0.26534 0.441462
649 2 0.273152 0.268175 0.466303
266 4 0.360022 0.29498 0.448668
265 2 0.34375 0.286927 0.431475
585 4 0.428081 0.25974 0.469248
2455 2 0.497183 0.299121 0.468396
2456 4 0.477415 0.305063 0.454286
583 2 0.445265 0.276121 0.461403
584 4 0.462449 0.292503 0.453557
2814 4 0.00942843 0.355564 0.448085
327 4 0.130115 0.353309 0.484432
7 3 0.144525 0.341356 0.49201
326 4 0.0968193 0.350179 0.447253
325 2 0.113467 0.351744 0.465842
6 1 0.166304 0.336562 0.486367
711 4 0.160359 0.359232 0.456052
709 2 0.164951 0.375257 0.437416
8 3 0.173135 0.351205 0.469714
710 4 0.169542 0.391281 0.418779
804 4 0.288159 0.400032 0.489332
802 2 0.266191 0.392571 0.498655
238 2 0.373974 0.382707 0.452489
240 4 0.361284 0.385352 0.431109
239 4 0.386665 0.380062 0.47387
681 4 0.0278394 0.43483 0.41423
680 4 0.0170861 0.474463 0.442766
1381 2 0.0155289 0.475553 0.48682
1383 4 0.0188717 0.471737 0.462337
679 2 0.0224627 0.454646 0.428498
570 4 0.117727 0.4417 0.428263
636 4 0.164353 0.467469 0.435581
540 4 0.0831535 0.489237 0.477948
568 2 0.118243 0.428135 0.449261
569 4 0.118758 0.414571 0.47026
384 4 0.122472 0.415308 0.489832
634 2 0.185936 0.463836 0.44767
635 4 0.207519 0.460203 0.459759
774 4 0.217361 0.442719 0.465647
772 2 0.224561 0.438129 0.489147
669 4 0.321033 0.465347 0.422293
1400 4 0.368165 0.473795 0.440734
588 4 0.381899 0.42334 0.427792
586 2 0.397408 0.440916 0.436493
1399 2 0.353869 0.490156 0.453107
587 4 0.412918 0.458492 0.445194
1126 2 0.0180988 0.064486 0.535452
1127 4 0.0236272 0.0571192 0.512207
1128 4 0.0125703 0.0718527 0.558698
2237 4 0.044723 0.00193641 0.544521
1058 4 0.115015 0.0354743 0.559922
1057 2 0.126297 0.0543264 0.57186
1059 4 0.137578 0.0731784 0.583798
1030 2 0.239845 0.0775779 0.575015
961 2 0.2839 0.0221506 0.506223
962 4 0.286549 0.00291275 0.521973
2195 4 0.327372 0.0028182 0.555567
1217 4 0.405909 0.0588005 0.515573
842 4 0.399267 0.077211 0.514488
841 2 0.375023 0.0807897 0.509528
1216 2 0.420665 0.0631075 0.535294
1218 4 0.43542 0.0674145 0.555014
4466 4 0.490478 0.00395616 0.577101
1153 2 0.156037 0.113314 0.578585
939 4 0.120514 0.150521 0.545748
1155 4 0.148845 0.0894027 0.579885
1154 4 0.163229 0.137226 0.577286
1150 2 0.178303 0.101756 0.521928
1151 4 0.177177 0.109044 0.54582
1032 4 0.243473 0.098071 0.561157
1152 4 0.179428 0.0944677 0.498037
898 2 0.323035 0.163988 0.567227
899 4 0.298443 0.160056 0.565006
857 4 0.282509 0.157452 0.552934
431 4 0.331335 0.0899847 0.498251
843 4 0.350779 0.0843684 0.504567
3157 2 0.475034 0.154597 0.51516
3158 4 0.466258 0.138014 0.498632
3159 4 0.483809 0.17118 0.531688
878 4 0.0686371 0.205384 0.551189
470 4 0.0352456 0.201717 0.515004
1199 4 0.00294602 0.175591 0.551275
877 2 0.0837328 0.210731 0.570391
937 2 0.114094 0.168752 0.529886
938 4 0.107673 0.186983 0.514024
797 4 0.264345 0.21609 0.555748
856 2 0.268902 0.178232 0.555803
796 2 0.260632 0.238528 0.566138
858 4 0.255295 0.199012 0.558673
900 4 0.347628 0.16792 0.569447
871 2 0.375921 0.238817 0.523903
872 4 0.395417 0.22365 0.520024
873 4 0.356425 0.253984 0.527782
1260 4 0.156118 0.289279 0.515386
694 2 0.116832 0.287425 0.510208
696 4 0.13845 0.284157 0.522338
695 4 0.0952132 0.290694 0.498078
1258 2 0.172277 0.296564 0.533022
1259 4 0.188435 0.303849 0.550657
798 4 0.256918 0.260965 0.576528
791 4 0.309649 0.258205 0.565703
790 2 0.29559 0.278485 0.56973
792 4 0.281532 0.298766 0.573757
1238 4 0.268981 0.304408 0.55962
1237 2 0.256071 0.319622 0.574688
812 4 0.307868 0.303851 0.521107
811 2 0.323966 0.284875 0.523539
813 4 0.340064 0.265898 0.525972
1135 2 0.105196 0.35737 0.580179
897 4 0.146362 0.364502 0.564137
1137 4 0.126976 0.364411 0.570117
9 3 0.179666 0.339148 0.50516
895 2 0.170423 0.362925 0.570751
1189 2 0.218608 0.376158 0.542811
896 4 0.194485 0.361347 0.577364
1191 4 0.203712 0.374259 0.562803
1190 4 0.233504 0.378058 0.522819
803 4 0.244223 0.38511 0.507978
929 4 0.350366 0.385002 0.529994
928 2 0.357996 0.377589 0.552621
930 4 0.365627 0.370176 0.575249
925 2 0.471791 0.400905 0.529702
926 4 0.479665 0.383246 0.545555
383 4 0.0857469 0.419472 0.523516
1382 4 0.012186 0.479369 0.511304
382 2 0.10411 0.41739 0.506674
1173 4 0.230412 0.458462 0.550601
773 4 0.23176 0.433538 0.512648
1171 2 0.248816 0.441549 0.549959
2243 4 0.185843 0.492464 0.574892
1172 4 0.26722 0.424636 0.549317
882 4 0.285019 0.425605 0.540889
880 2 0.299447 0.441532 0.52811
881 4 0.313876 0.45746 0.51533
1910 4 0.417745 0.471317 0.580485
891 4 0.334628 0.447602 0.576485
1001 4 0.464446 0.430223 0.555859
1000 2 0.443956 0.442236 0.563673
661 2 0.48406 0.476898 0.521594
663 4 0.47824 0.453272 0.527349
1909 2 0.42879 0.493736 0.579728
1002 4 0.423466 0.454248 0.571486
927 4 0.463916 0.418564 0.513848
2319 4 0.0577262 0.0254335 0.668431
1185 4 0.0270743 0.0418471 0.654962
945 4 0.0712032 0.035024 0.656738
943 2 0.0703412 0.0572035 0.668249
823 2 0.134891 0.0072603 0.608863
825 4 0.12757 0.0219757 0.627705
951 4 0.233938 0.041656 0.600353
1031 4 0.236217 0.0570848 0.588873
949 2 0.219146 0.0214976 0.600193
950 4 0.204355 0.00133934 0.600033
2282 4 0.4392 0.0316802 0.662889
2281 2 0.447324 0.0152314 0.645901
45 3 0.46464 0.0770677 0.652632
810 4 0.480533 0.074093 0.642387
808 2 0.495261 0.078342 0.622633
43 3 0.43982 0.0527544 0.66714
1082 4 0.0434867 0.12384 0.63694
1081 2 0.0664251 0.114524 0.633443
1083 4 0.0893634 0.105209 0.629947
1283 4 0.164071 0.117258 0.638589
1282 2 0.17445 0.124903 0.660014
1221 4 0.168931 0.137339 0.597295
1219 2 0.184011 0.155452 0.605643
1005 4 0.358113 0.105767 0.627094
1003 2 0.367442 0.0959212 0.648099
879 4 0.0988284 0.216077 0.589593
1272 4 0.106695 0.217599 0.608741
1270 2 0.112604 0.205471 0.629793
1271 4 0.118513 0.193343 0.650844
909 4 0.161987 0.191418 0.667461
1212 4 0.213622 0.176158 0.627948
1220 4 0.19909 0.173565 0.613992
1210 2 0.236338 0.180507 0.637448
1211 4 0.259054 0.184856 0.646948
888 4 0.25829 0.190415 0.666523
1024 2 0.417764 0.219289 0.65327
1026 4 0.402711 0.235522 0.641648
1208 4 0.0671235 0.260159 0.643981
1244 4 0.0270128 0.282764 0.611217
1243 2 0.0234444 0.291191 0.634485
1245 4 0.019876 0.299619 0.657754
1207 2 0.0884523 0.262589 0.656801
948 4 0.160333 0.298445 0.623514
946 2 0.179172 0.282715 0.618739
947 4 0.198012 0.266985 0.613964
953 4 0.460475 0.302952 0.58457
952 2 0.453775 0.313443 0.606255
954 4 0.447076 0.323934 0.62794
3123 4 0.476934 0.29802 0.664
983 4 0.0176135 0.368385 0.618618
1039 2 0.0513747 0.382907 0.622397
1041 4 0.0370537 0.362649 0.619283
1040 4 0.0656957 0.403165 0.625511
993 4 0.083661 0.412684 0.62679
1136 4 0.0834156 0.350329 0.59024
982 2 0.00341448 0.353841 0.63318
992 4 0.129396 0.416004 0.646741
991 2 0.106528 0.414344 0.636766
1239 4 0.243161 0.334836 0.589756
890 4 0.297444 0.421754 0.597698
1204 2 0.391322 0.375576 0.61098
1206 4 0.375737 0.37066 0.592057
1205 4 0.406908 0.380493 0.629904
2129 4 0.0228743 0.489305 0.629081
2128 2 0.0115338 0.496846 0.650049
1160 4 0.150058 0.460356 0.618627
1159 2 0.173429 0.45354 0.612923
1161 4 0.196799 0.446725 0.607218
889 2 0.316036 0.434678 0.587092
1952 4 0.336575 0.459964 0.592133
1951 2 0.342139 0.483416 0.598786
1269 4 0.485686 0.492291 0.656449
1267 2 0.463139 0.502022 0.651749
2317 2 0.0438527 0.00815937 0.68002
1183 2 0.014116 0.0582796 0.668646
1184 4 0.00115759 0.074712 0.682329
944 4 0.0694791 0.0793829 0.679761
1075 2 0.0520087 0.0702346 0.71888
1077 4 0.0468931 0.0671853 0.743164
1076 4 0.0571243 0.0732838 0.694596
41 1 0.458409 0.0659395 0.6715
1163 4 0.491533 0.0601535 0.686666
42 3 0.475688 0.0523949 0.678363
44 3 0.453587 0.0810904 0.688399
1284 4 0.184829 0.132547 0.681438
1227 4 0.184602 0.140009 0.699142
1225 2 0.204894 0.136354 0.713285
1226 4 0.225187 0.132699 0.727429
1148 4 0.2249 0.11406 0.734434
1147 2 0.217969 0.0929103 0.745828
1004 4 0.376771 0.0860749 0.669104
1142 4 0.426909 0.154083 0.707194
1141 2 0.424306 0.170571 0.688578
1105 2 0.0691817 0.168897 0.737324
1107 4 0.0646314 0.189219 0.723485
851 4 0.068217 0.199039 0.706804
852 4 0.0211545 0.197435 0.689973
850 2 0.0446857 0.198237 0.698388
1178 4 0.0200513 0.217359 0.688247
1177 2 0.0127649 0.239384 0.678919
908 4 0.202301 0.16812 0.685703
907 2 0.182144 0.179769 0.676582
829 2 0.322825 0.181214 0.725902
830 4 0.301729 0.174174 0.714475
886 2 0.273885 0.179371 0.682648
887 4 0.28948 0.168327 0.698772
1064 4 0.261991 0.252004 0.72335
1193 4 0.358987 0.201949 0.68359
831 4 0.343921 0.188254 0.737329
1192 2 0.375144 0.216863 0.695494
1194 4 0.391301 0.231777 0.707398
1262 4 0.408663 0.221283 0.707526
1143 4 0.421704 0.187059 0.669963
1025 4 0.432817 0.203056 0.664892
3356 4 0.482129 0.223243 0.734388
3355 2 0.489432 0.230014 0.711453
1261 2 0.425116 0.219512 0.72627
1263 4 0.44157 0.217742 0.745014
1145 4 0.462676 0.218444 0.74191
1179 4 0.00547859 0.261408 0.669591
1209 4 0.109781 0.265018 0.669622
821 4 0.146795 0.25959 0.744728
1065 4 0.277002 0.296347 0.705772
1063 2 0.269496 0.274176 0.714561
3121 2 0.486196 0.275929 0.671169
892 2 0.0639683 0.394346 0.712833
894 4 0.0422846 0.391817 0.725023
3276 4 0.0405773 0.376556 0.737727
893 4 0.085652 0.396875 0.700642
1280 4 0.0297288 0.407862 0.723193
1067 4 0.157352 0.418314 0.686489
1066 2 0.179598 0.409515 0.679216
1068 4 0.201843 0.400716 0.671943
1028 4 0.217853 0.411636 0.679328
1139 4 0.285255 0.41478 0.689336
1138 2 0.310219 0.415112 0.690702
1140 4 0.335183 0.415444 0.692067
806 4 0.340926 0.350915 0.673332
807 4 0.374886 0.350335 0.710035
805 2 0.357906 0.350625 0.691683
1020 4 0.37889 0.363913 0.726126
999 4 0.501792 0.347476 0.741979
1281 4 0.0177523 0.456359 0.720895
1279 2 0.0237405 0.432111 0.722044
1983 4 0.0276575 0.470208 0.710491
1981 2 0.018106 0.491178 0.720197
2170 2 0.105356 0.497776 0.669175
941 4 0.145909 0.416473 0.702687
2172 4 0.10136 0.48572 0.690713
940 2 0.126636 0.423832 0.716814
942 4 0.107363 0.431191 0.730941
815 4 0.10273 0.425111 0.749927
1027 2 0.242427 0.415776 0.681364
1174 2 0.223762 0.498463 0.694263
1175 4 0.243409 0.488163 0.705799
1029 4 0.267001 0.419916 0.683401
1228 2 0.351494 0.45467 0.742897
1229 4 0.338047 0.472733 0.732031
1989 4 0.340048 0.487915 0.719338
1101 4 0.488312 0.49537 0.686682
1100 4 0.48197 0.454694 0.715072
1099 2 0.485141 0.475032 0.700877
1250 4 0.469779 0.456985 0.730564
3329 4 0.499795 0.453101 0.720727
1203 4 0.0553323 0.0606492 0.758816
1201 2 0.0684012 0.0395192 0.761627
1202 4 0.0814702 0.0183892 0.764438
864 4 0.045182 0.0771969 0.765996
911 4 0.0933918 0.0561197 0.791644
2049 4 0.0979087 0.00743352 0.766782
910 2 0.0988718 0.0641626 0.814676
912 4 0.104352 0.0722055 0.837708
1149 4 0.211037 0.0717605 0.757221
1048 2 0.313506 0.00110835 0.760442
1256 4 0.289224 0.0720936 0.784926
1050 4 0.3164 0.0184032 0.778266
817 2 0.36193 0.0644986 0.829146
975 4 0.35744 0.0106288 0.826522
1112 4 0.413228 0.0655693 0.807184
819 4 0.352515 0.0804904 0.812388
845 4 0.4944 0.0408311 0.755342
846 4 0.473531 0.0426523 0.80075
1113 4 0.460605 0.0507266 0.813166
844 2 0.483966 0.0417417 0.778046
1111 2 0.436916 0.0581479 0.810175
1106 4 0.0737321 0.148575 0.751162
862 2 0.0364776 0.0984228 0.775939
863 4 0.0277732 0.119649 0.785883
833 4 0.0157022 0.135693 0.787694