ITEM: TIMESTEP
1840000
ITEM: NUMBER OF ATOMS
4590
ITEM: BOX BOUNDS pp pp pp
-9.9985700000000008e+00 9.9985700000000008e+00
-9.9985700000000008e+00 9.9985700000000008e+00
-9.9985700000000008e+00 9.9985700000000008e+00
ITEM: ATOMS id type xs ys zs
463 2 0.0642139 0.0762432 0.00658326
1668 4 0.0788384 0.0300933 0.0538677
566 4 0.178372 0.0363988 0.0558107
1474 2 0.24342 0.0163138 0.0954412
565 2 0.194035 0.0546062 0.0627641
1475 4 0.25248 0.0181458 0.0722092
492 4 0.247047 0.0222879 0.0520128
490 2 0.261689 0.034164 0.0355894
491 4 0.276332 0.0460401 0.019166
2264 4 0.288007 0.0440201 0.00310656
986 4 0.305154 0.034344 0.00471472
2145 4 0.396051 0.0219251 0.0349488
2143 2 0.382371 0.019332 0.0141809
745 2 0.457641 0.0644944 0.0158731
2724 4 0.493435 0.0419831 0.0654835
747 4 0.475346 0.0817951 0.0123555
2722 2 0.469698 0.0464381 0.0719556
746 4 0.439935 0.0471937 0.0193907
2469 4 0.486588 0.0752232 0.0263889
2975 4 0.51089 0.00291211 0.0114236
465 4 0.0596716 0.0993911 0.0148731
701 4 0.0552811 0.117051 0.0209793
700 2 0.0511408 0.141016 0.0267853
702 4 0.0470004 0.164981 0.0325913
567 4 0.209697 0.0728136 0.0697174
360 4 0.194025 0.15942 0.0120207
358 2 0.215241 0.148858 0.0199872
359 4 0.236458 0.138295 0.0279538
1133 4 0.177115 0.169059 0.00725655
423 4 0.0765189 0.176171 0.0107682
555 4 0.0414614 0.185165 0.0315439
553 2 0.0309933 0.19957 0.0139918
554 4 0.0205251 0.213976 0.99644
422 4 0.0971209 0.196523 0.0515366
421 2 0.0868199 0.186347 0.0311524
737 4 0.21434 0.230051 0.0541788
736 2 0.217927 0.206792 0.0626236
354 4 0.237176 0.171848 0.075286
738 4 0.221515 0.183532 0.0710685
506 4 0.219918 0.247531 0.0443703
352 2 0.259127 0.165887 0.0856692
1071 4 0.38882 0.253507 0.0293545
1069 2 0.400405 0.239602 0.0121023
2807 4 0.0128682 0.275436 0.033852
294 4 0.140052 0.314698 0.0550474
456 4 0.135097 0.333888 0.0584361
292 2 0.162354 0.306724 0.0470321
507 4 0.204359 0.295054 0.0439588
293 4 0.184655 0.29875 0.0390167
505 2 0.212139 0.271292 0.0441645
481 2 0.291687 0.307147 0.00763245
482 4 0.307663 0.317819 0.0236338
573 4 0.369845 0.257282 0.0230327
571 2 0.364069 0.273978 0.0407257
572 4 0.358292 0.290674 0.0584188
741 4 0.354186 0.298997 0.0765576
324 4 0.475036 0.280689 0.0311747
323 4 0.430123 0.25888 0.033985
322 2 0.452579 0.269785 0.0325799
103 3 0.502361 0.328894 0.0379992
1169 4 0.0657664 0.379242 0.99588
329 4 0.0516983 0.391845 0.999844
454 2 0.140367 0.353289 0.0733013
608 4 0.238505 0.37711 0.0677975
252 4 0.25858 0.377851 0.0647198
250 2 0.274103 0.392825 0.052072
251 4 0.289627 0.4078 0.0394241
524 4 0.307969 0.405977 0.0472793
523 2 0.320312 0.421372 0.0626357
226 2 0.394023 0.392342 0.0370565
228 4 0.3935 0.411421 0.0532092
671 4 0.406813 0.350159 0.0512962
227 4 0.394546 0.373263 0.0209038
670 2 0.397426 0.350214 0.0744707
1303 2 0.38791 0.348062 0.993536
1305 4 0.381449 0.359066 0.0150378
281 4 0.426787 0.350688 0.0492826
280 2 0.451749 0.349879 0.0480883
282 4 0.476711 0.34907 0.046894
104 3 0.482037 0.344633 0.0659929
1045 2 0.48922 0.340882 0.00670538
1047 4 0.485779 0.33928 0.0314192
552 4 0.0133649 0.439348 0.037477
314 4 0.0229144 0.441126 0.0534191
313 2 0.0403639 0.430018 0.0674652
795 4 0.17882 0.452978 0.00250705
793 2 0.173096 0.477194 0.00495726
244 2 0.228476 0.477833 0.0113678
243 4 0.226507 0.485173 0.0727731
245 4 0.207392 0.46467 0.00865023
1440 4 0.240372 0.473256 0.0808287
1224 4 0.182573 0.441024 0.986596
271 2 0.273292 0.493627 0.0556565
272 4 0.255865 0.482476 0.0696976
37 3 0.333207 0.466223 0.0124369
40 3 0.358341 0.440818 0.00167889
525 4 0.332655 0.436767 0.077992
39 3 0.365101 0.47742 0.996004
2479 2 0.00254471 0.0273174 0.128966
1422 4 0.0184007 0.0193665 0.161815
2480 4 0.0216707 0.0170212 0.14135
18 3 0.0763432 0.0118901 0.132928
590 4 0.998304 0.0767334 0.0854441
652 2 0.230387 0.0541498 0.145959
654 4 0.223748 0.0598202 0.12253
1476 4 0.234359 0.0144819 0.118673
653 4 0.237027 0.0484795 0.169389
1661 4 0.332528 0.00247357 0.164986
297 4 0.378309 0.0205105 0.105437
485 4 0.371038 0.00438097 0.114534
295 2 0.3827 0.0441727 0.098655
296 4 0.387091 0.067835 0.0918729
557 4 0.401086 0.0757314 0.103367
2723 4 0.445961 0.0508932 0.0784277
1759 2 0.452019 0.00818787 0.131487
1760 4 0.472292 0.0208138 0.124086
2744 4 0.487604 0.0278407 0.13615
235 2 0.113063 0.152853 0.150012
236 4 0.123656 0.131971 0.158781
758 4 0.385613 0.0973334 0.158056
556 2 0.418001 0.0938482 0.100078
771 4 0.431941 0.13156 0.0952628
558 4 0.434917 0.111965 0.0967884
769 2 0.447817 0.148985 0.1036
770 4 0.463693 0.16641 0.111938
338 4 0.044793 0.254651 0.121752
237 4 0.10247 0.173735 0.141243
476 4 0.210272 0.212797 0.160779
477 4 0.183343 0.202736 0.11986
475 2 0.196807 0.207767 0.140319
353 4 0.281078 0.159927 0.0960523
461 4 0.28235 0.174918 0.10896
460 2 0.30598 0.180902 0.114529
462 4 0.32961 0.186886 0.120098
278 4 0.302004 0.239369 0.121809
277 2 0.29964 0.239216 0.1467
254 4 0.397384 0.229118 0.0916315
630 4 0.405097 0.210512 0.0929302
253 2 0.383036 0.249532 0.0900284
628 2 0.423629 0.216151 0.10874
624 4 0.437976 0.229553 0.142248
629 4 0.442161 0.22179 0.124549
622 2 0.440883 0.247822 0.159069
337 2 0.05356 0.26323 0.14354
612 4 0.235895 0.322032 0.110672
610 2 0.246316 0.301556 0.120536
611 4 0.256738 0.28108 0.1304
754 2 0.328991 0.264934 0.10333
755 4 0.307659 0.255644 0.112484
739 2 0.345153 0.321894 0.0809535
255 4 0.368687 0.269945 0.0884254
756 4 0.350323 0.274224 0.0941748
596 4 0.392489 0.303875 0.137246
619 2 0.0668322 0.394012 0.110055
620 4 0.0776039 0.387101 0.131535
621 4 0.0560605 0.400924 0.0885752
315 4 0.0578133 0.418909 0.0815114
455 4 0.145637 0.372691 0.0881666
647 4 0.0824677 0.394932 0.148385
537 4 0.117164 0.373645 0.126044
535 2 0.142153 0.374049 0.126798
536 4 0.167142 0.374453 0.127552
646 2 0.0959047 0.394862 0.169472
607 2 0.23603 0.356147 0.081199
609 4 0.233556 0.335184 0.0946006
386 4 0.322641 0.349682 0.0996412
595 2 0.396937 0.32741 0.144424
740 4 0.336119 0.34479 0.0853494
387 4 0.347851 0.381071 0.129304
385 2 0.335246 0.365376 0.114473
302 4 0.3415 0.399359 0.137397
12 3 0.391166 0.366687 0.109974
11 1 0.388611 0.379988 0.128567
15 3 0.366735 0.379905 0.1349
672 4 0.388039 0.35027 0.0976451
14 3 0.395248 0.40159 0.123306
495 4 0.401899 0.416316 0.11095
13 3 0.401838 0.371582 0.145679
597 4 0.401385 0.350944 0.151601
645 4 0.397772 0.368422 0.166757
626 4 0.188012 0.433245 0.140954
1438 2 0.242344 0.48281 0.103851
625 2 0.202005 0.445007 0.158013
1439 4 0.244316 0.492365 0.126872
1559 4 0.302814 0.484194 0.0931527
301 2 0.340868 0.420204 0.15119
493 2 0.4265 0.420722 0.111705
494 4 0.4511 0.425129 0.112459
1583 4 0.479733 0.467327 0.107857
1582 2 0.462013 0.484234 0.102825
1584 4 0.444293 0.501141 0.097793
690 4 0.150541 0.000957308 0.220115
673 2 0.129221 0.00800623 0.24108
675 4 0.10512 0.0145488 0.242311
693 4 0.236406 0.0507258 0.188063
691 2 0.25771 0.0489346 0.201029
692 4 0.279014 0.0471435 0.213994
1700 4 0.330395 0.0558679 0.239591
1699 2 0.305664 0.0534918 0.236771
1701 4 0.280934 0.0511157 0.233951
23 3 0.339968 0.0739323 0.240201
21 1 0.362695 0.0709861 0.236566
25 3 0.367522 0.0741937 0.214542
22 3 0.368461 0.0495338 0.24254
759 4 0.362154 0.074176 0.195661
511 2 0.0152851 0.12028 0.220128
578 4 0.0522882 0.138935 0.233294
513 4 0.0372389 0.111469 0.228226
577 2 0.055439 0.163544 0.23019
318 4 0.0663967 0.109074 0.245421
449 4 0.137391 0.134148 0.171735
448 2 0.143809 0.111869 0.181097
450 4 0.150227 0.0895903 0.190459
28 3 0.2362 0.141078 0.172259
27 3 0.227349 0.154188 0.206353
546 4 0.199464 0.132805 0.248781
26 1 0.244612 0.146637 0.193157
580 2 0.294273 0.116435 0.195237
581 4 0.270581 0.123419 0.191351
30 3 0.254019 0.128314 0.202872
582 4 0.317964 0.109451 0.199124
29 3 0.260415 0.163503 0.191104
24 3 0.374797 0.0859066 0.249578
757 2 0.373883 0.0857547 0.176858
311 4 0.454286 0.134479 0.203574
531 4 0.00580368 0.226262 0.24857
529 2 0.0243136 0.213269 0.237904
530 4 0.0428236 0.200277 0.227238
579 4 0.0585898 0.188153 0.227086
372 4 0.152045 0.238631 0.179577
362 4 0.132026 0.23893 0.180124
370 2 0.160072 0.235287 0.20302
371 4 0.1681 0.231942 0.226462
279 4 0.297277 0.239063 0.171591
284 4 0.295589 0.245204 0.226927
283 2 0.28724 0.241671 0.203625
285 4 0.27889 0.238139 0.180323
310 2 0.454749 0.159446 0.202304
312 4 0.455212 0.184413 0.201035
520 2 0.496642 0.170135 0.239462
763 2 0.435585 0.190832 0.247043
765 4 0.414024 0.199977 0.238286
339 4 0.0623271 0.27181 0.165328
396 4 0.061544 0.303619 0.213176
443 4 0.0633783 0.295157 0.231215
394 2 0.0707457 0.292963 0.192512
363 4 0.101862 0.278217 0.173238
395 4 0.0799473 0.282308 0.171849
361 2 0.116944 0.258574 0.176681
623 4 0.443791 0.266091 0.17589
527 4 0.449546 0.285314 0.175454
526 2 0.468748 0.286412 0.191431
528 4 0.48795 0.287511 0.207407
264 4 0.0277784 0.389368 0.215977
262 2 0.0231558 0.412456 0.22439
648 4 0.109342 0.394793 0.190558
300 4 0.117122 0.377788 0.194193
298 2 0.122605 0.364252 0.214488
299 4 0.128088 0.350715 0.234783
289 2 0.223547 0.418143 0.252971
345 4 0.269501 0.344953 0.215133
343 2 0.28604 0.348159 0.233609
344 4 0.30258 0.351365 0.252084
643 2 0.409336 0.377632 0.186922
644 4 0.4209 0.386842 0.207087
447 4 0.404186 0.391263 0.219161
445 2 0.416537 0.406944 0.234219
263 4 0.0185333 0.435544 0.232802
637 2 0.231793 0.494295 0.176089
638 4 0.213684 0.477054 0.176075
627 4 0.215998 0.45677 0.175072
417 4 0.186089 0.480967 0.199525
290 4 0.221072 0.438258 0.238326
416 4 0.205049 0.447567 0.231551
415 2 0.195569 0.464267 0.215538
303 4 0.340237 0.44105 0.164982
659 4 0.355213 0.456027 0.170392
658 2 0.356175 0.472815 0.188897
660 4 0.357137 0.489603 0.207401
2861 4 0.496622 0.411604 0.240449
446 4 0.428888 0.422625 0.249277
1403 4 0.0459928 0.014299 0.285393
232 2 0.0490504 0.0477122 0.290334
234 4 0.0606606 0.0685915 0.282956
317 4 0.0442234 0.0721997 0.270904
233 4 0.0374402 0.0268329 0.297712
723 4 0.216851 0.0719863 0.259085
1406 4 0.223587 0.0154731 0.305036
698 4 0.38623 0.051012 0.251896
249 4 0.337457 0.0573481 0.318599
697 2 0.386018 0.0283431 0.262444
699 4 0.385806 0.00567429 0.272992
333 4 0.385409 0.0698016 0.259331
331 2 0.406412 0.0802685 0.267963
247 2 0.342662 0.0744987 0.336033
743 4 0.458686 0.0263075 0.286251
742 2 0.465589 0.00614934 0.273168
351 4 0.471697 0.0409493 0.283042
349 2 0.457099 0.0611987 0.284465
350 4 0.4425 0.0814482 0.285887
316 2 0.05531 0.0906368 0.258163
393 4 0.117879 0.140883 0.323134
399 4 0.121066 0.130593 0.340125
391 2 0.135247 0.140085 0.305164
392 4 0.152615 0.139287 0.287195
545 4 0.154662 0.144196 0.267853
721 2 0.208267 0.0934391 0.249531
722 4 0.199683 0.114892 0.239977
544 2 0.177063 0.138501 0.258317
599 4 0.205838 0.12606 0.303767
404 4 0.208293 0.145332 0.305467
598 2 0.190163 0.120567 0.322457
403 2 0.225994 0.155455 0.290997
762 4 0.404766 0.137066 0.286942
332 4 0.427414 0.0907355 0.276595
761 4 0.454731 0.138418 0.285395
760 2 0.429749 0.137742 0.286169
402 4 0.21445 0.219666 0.245166
401 4 0.233864 0.177032 0.262665
400 2 0.224157 0.198349 0.253915
405 4 0.243694 0.165579 0.276526
764 4 0.457147 0.181688 0.255799
521 4 0.475011 0.172473 0.251784
442 2 0.0754308 0.29185 0.252871
444 4 0.0874834 0.288542 0.274527
496 2 0.324443 0.293019 0.323945
497 4 0.33432 0.297099 0.30134
541 2 0.456184 0.280323 0.311036
542 4 0.469436 0.259583 0.306632
615 4 0.434594 0.306715 0.333234
613 2 0.418324 0.323246 0.323896
543 4 0.442932 0.301064 0.315439
749 4 0.0536208 0.360011 0.27798
365 4 0.0180781 0.368519 0.314901
364 2 0.0283413 0.357408 0.294991
366 4 0.0386044 0.346297 0.275081
748 2 0.0777304 0.363308 0.272233
2493 4 0.0202029 0.369702 0.333858
735 4 0.153523 0.340897 0.282772
601 2 0.101789 0.38597 0.327915
734 4 0.117631 0.359904 0.253597
750 4 0.10184 0.366606 0.266485
733 2 0.135577 0.3504 0.268185
602 4 0.114676 0.3896 0.306798
677 4 0.158392 0.354415 0.297096
777 4 0.117036 0.409517 0.301146
676 2 0.162327 0.373013 0.313339
414 4 0.236489 0.405528 0.283083
291 4 0.226022 0.398028 0.267615
412 2 0.236331 0.414955 0.30624
309 4 0.309089 0.333094 0.259249
307 2 0.320216 0.333377 0.281638
727 2 0.323817 0.374893 0.319115
308 4 0.331344 0.333661 0.304027
728 4 0.319529 0.399162 0.323335
729 4 0.328106 0.350624 0.314895
3 3 0.278735 0.410194 0.323573
374 4 0.251947 0.340949 0.330917
614 4 0.402055 0.339778 0.314558
1757 4 0.114305 0.471175 0.285453
776 4 0.107177 0.458532 0.300118
775 2 0.112107 0.434025 0.300632
1756 2 0.108882 0.495572 0.284709
413 4 0.236172 0.424383 0.329398
1436 4 0.231011 0.483051 0.328221
1435 2 0.249407 0.468494 0.319569
768 4 0.198602 0.486698 0.265795
438 4 0.302621 0.468124 0.253849
437 4 0.285938 0.46287 0.300697
436 2 0.294279 0.465497 0.277273
1437 4 0.267803 0.453938 0.310916
5 3 0.28884 0.444836 0.312827
2 3 0.314097 0.41736 0.313046
434 4 0.333046 0.408919 0.307886
1 1 0.295675 0.426049 0.323736
713 4 0.417185 0.44939 0.307707
433 2 0.354098 0.420995 0.313899
435 4 0.37515 0.433071 0.319911
712 2 0.422596 0.444885 0.283715
714 4 0.428007 0.44038 0.259724
2860 2 0.496414 0.425513 0.261226
753 4 0.489243 0.432174 0.330872
428 4 0.063741 0.0374347 0.354877
427 2 0.0717669 0.0160246 0.364995
731 4 0.0897654 0.0498256 0.407081
606 4 0.143772 0.0399644 0.397141
730 2 0.107383 0.0624857 0.39465
604 2 0.164961 0.0312265 0.387148
398 4 0.12648 0.0882317 0.366143
605 4 0.18615 0.0224887 0.377155
682 2 0.23913 0.0318666 0.352107
683 4 0.21581 0.0397739 0.356445
684 4 0.262451 0.0239593 0.347769
1749 4 0.492612 0.00419347 0.348761
424 2 0.432589 0.0419357 0.375758
426 4 0.43768 0.0620753 0.361842
425 4 0.427497 0.0217961 0.389673
732 4 0.125 0.0751458 0.38222
397 2 0.123773 0.109412 0.353134
686 4 0.173199 0.137457 0.404287
600 4 0.174489 0.115075 0.341147
685 2 0.171178 0.125388 0.382482
687 4 0.169156 0.113319 0.360678
410 4 0.242891 0.143629 0.39122
321 4 0.246197 0.0973034 0.37673
319 2 0.259317 0.100212 0.397815
320 4 0.272437 0.10312 0.4189
248 4 0.347867 0.0916493 0.353467
633 4 0.367751 0.0982161 0.349297
632 4 0.399449 0.136274 0.356191
631 2 0.3836 0.117245 0.352744
420 4 0.397424 0.154589 0.36596
258 4 0.443975 0.0808494 0.362833
257 4 0.469138 0.122037 0.375913
256 2 0.456556 0.101443 0.369373
515 4 0.441584 0.164023 0.370578
514 2 0.447228 0.165316 0.394902
618 4 0.00818506 0.256299 0.37334
274 2 0.158568 0.234998 0.360855
275 4 0.170836 0.213211 0.360785
474 4 0.17167 0.194185 0.370262
472 2 0.19382 0.193757 0.35867
473 4 0.215969 0.19333 0.347077
708 4 0.236176 0.193704 0.347281
409 2 0.240872 0.16296 0.406949
706 2 0.255173 0.177655 0.349868
707 4 0.274171 0.161606 0.352456
717 4 0.326214 0.236616 0.394921
377 4 0.315505 0.253105 0.390796
418 2 0.381859 0.174156 0.365757
419 4 0.366293 0.193722 0.365553
716 4 0.360467 0.202275 0.382753
715 2 0.343341 0.219446 0.388837
390 4 0.0870963 0.250065 0.360047
616 2 0.0302678 0.254699 0.384958
617 4 0.0523504 0.2531 0.396575
276 4 0.1463 0.256785 0.360925
389 4 0.132043 0.27095 0.366704
388 2 0.10957 0.260508 0.363375
487 2 0.246858 0.276478 0.40381
488 4 0.251075 0.296521 0.389469
510 4 0.254753 0.326428 0.344809
508 2 0.261551 0.309211 0.361618
509 4 0.268349 0.291994 0.378427
376 2 0.308677 0.271849 0.375723
378 4 0.301849 0.290594 0.360651
498 4 0.314566 0.288939 0.34655
267 4 0.345442 0.324635 0.353161
265 2 0.352988 0.309558 0.371626
266 4 0.360533 0.294482 0.39009
585 4 0.356314 0.290635 0.410834
269 4 0.458052 0.268566 0.377799
268 2 0.481589 0.266833 0.386057
549 4 0.0703667 0.387212 0.351457
547 2 0.0650717 0.406598 0.366335
603 4 0.0889018 0.38234 0.349031
709 2 0.14633 0.398868 0.416249
678 4 0.166263 0.39161 0.329581
502 2 0.195077 0.393007 0.363774
504 4 0.203875 0.372072 0.353309
373 2 0.237008 0.359909 0.33744
375 4 0.22207 0.378868 0.343963
503 4 0.18628 0.413941 0.37424
334 2 0.357148 0.405364 0.419523
336 4 0.339909 0.411629 0.402531
2925 4 0.502585 0.363629 0.365317
559 2 0.497653 0.409984 0.415591
548 4 0.0597766 0.425983 0.381213
407 4 0.0537406 0.435614 0.396725
406 2 0.0460239 0.459369 0.397867
408 4 0.0383071 0.483125 0.399009
710 4 0.139468 0.421647 0.408555
570 4 0.129492 0.437909 0.408001
1545 4 0.219116 0.492731 0.34223
636 4 0.195922 0.418696 0.391951
634 2 0.193482 0.438533 0.406974
668 4 0.296466 0.426983 0.365568
4 3 0.301448 0.431248 0.3456
667 2 0.313803 0.427426 0.383579
669 4 0.33114 0.427869 0.40159
593 4 0.473298 0.505009 0.342866
561 4 0.490498 0.422104 0.394924
752 4 0.483818 0.435145 0.380495
751 2 0.48653 0.43366 0.355683
718 2 0.0387175 0.0454746 0.479918
719 4 0.0621736 0.0415911 0.472178
369 4 0.077714 0.0329583 0.463492
367 2 0.0889862 0.0440633 0.444132
720 4 0.0152615 0.0493581 0.487658
368 4 0.100258 0.0551683 0.424772
2430 4 0.232115 0.0674497 0.460229
2428 2 0.227838 0.0469498 0.446567
2429 4 0.223561 0.0264499 0.432905
441 4 0.223304 0.00874596 0.44374
341 4 0.237608 0.0842334 0.469554
726 4 0.293894 0.080692 0.461069
432 4 0.309439 0.0697578 0.470509
430 2 0.327006 0.0663382 0.48797
431 4 0.344573 0.0629186 0.50543
2879 4 0.478514 0.0344347 0.423434
2878 2 0.479312 0.0587367 0.42926
2880 4 0.48011 0.0830388 0.435087
642 4 0.477643 0.0820277 0.45632
340 2 0.216374 0.0972267 0.471891
1152 4 0.186525 0.115333 0.493465
342 4 0.19514 0.11022 0.474229
724 2 0.285137 0.0989138 0.446357
725 4 0.276379 0.117136 0.431644
467 4 0.358736 0.0894373 0.443765
466 2 0.369711 0.111782 0.441431
468 4 0.380686 0.134126 0.439097
576 4 0.431219 0.129193 0.46915
640 2 0.489841 0.0991643 0.469837
574 2 0.435971 0.147234 0.452503
575 4 0.440724 0.165274 0.435856
469 2 0.0794798 0.232831 0.448073
471 4 0.0826776 0.215412 0.465723
260 4 0.0898172 0.197537 0.459195
259 2 0.100652 0.194224 0.481485
650 4 0.240881 0.192283 0.44039
649 2 0.243354 0.214671 0.429535
411 4 0.238853 0.18229 0.422679
651 4 0.245828 0.237059 0.41868
516 4 0.452873 0.166609 0.419226
2814 4 0.996494 0.328616 0.452147
470 4 0.0762819 0.25025 0.430422
2812 2 0.00318711 0.326133 0.47611
695 4 0.0989536 0.308197 0.434748
694 2 0.112789 0.291631 0.447371
696 4 0.126625 0.275066 0.459993
1260 4 0.14379 0.282357 0.466959
1258 2 0.168244 0.284174 0.471845
1259 4 0.192698 0.28599 0.476732
489 4 0.24264 0.256435 0.418151
583 2 0.377227 0.281208 0.420781
584 4 0.39814 0.27178 0.430729
2456 4 0.413573 0.284195 0.426443
2457 4 0.440313 0.326451 0.4268
2455 2 0.426943 0.305323 0.426621
326 4 0.0521735 0.385962 0.46677
325 2 0.0760426 0.382214 0.460336
10 3 0.119032 0.343014 0.451612
7 3 0.117231 0.377734 0.465183
327 4 0.0999116 0.378465 0.453902
6 1 0.130404 0.36261 0.453919
8 3 0.135577 0.371269 0.433022
711 4 0.153193 0.376089 0.423944
9 3 0.149855 0.359092 0.466072
239 4 0.366503 0.366326 0.487959
335 4 0.374387 0.399098 0.436516
238 2 0.363281 0.376013 0.465134
240 4 0.360059 0.385699 0.442309
1382 4 0.0369956 0.448424 0.47374
1381 2 0.019229 0.459147 0.459792
1383 4 0.00146245 0.46987 0.445844
680 4 0.0132221 0.475284 0.429336
540 4 0.0478065 0.453489 0.490916
382 2 0.146435 0.460627 0.494991
773 4 0.151629 0.48746 0.461138
568 2 0.116648 0.447593 0.427143
569 4 0.103803 0.457277 0.446285
384 4 0.14366 0.475507 0.47509
635 4 0.191041 0.45837 0.421998
774 4 0.180584 0.474993 0.422319
772 2 0.166106 0.481226 0.441729
1401 4 0.306865 0.448133 0.494366
1399 2 0.321562 0.467395 0.488188
1400 4 0.336259 0.486657 0.48201
1126 2 0.015343 0.0570186 0.531715
1127 4 0.0151378 0.0578219 0.506726
1128 4 0.0155482 0.0562152 0.556705
4509 4 0.00905821 0.0413696 0.569549
1059 4 0.0628028 0.0801269 0.58796
951 4 0.201097 0.0548877 0.546712
1031 4 0.186266 0.0471646 0.534796
1030 2 0.180166 0.0338787 0.55508
949 2 0.217834 0.065551 0.531502
1032 4 0.174066 0.0205928 0.575364
950 4 0.234572 0.0762143 0.516293
961 2 0.293148 0.03609 0.551942
1180 2 0.274503 0.0744224 0.513362
963 4 0.291988 0.053635 0.534166
1181 4 0.297451 0.0671447 0.520115
962 4 0.294309 0.018545 0.569719
1182 4 0.251555 0.0817 0.506608
841 2 0.378365 0.0425413 0.515159
843 4 0.35398 0.047972 0.514126
842 4 0.40275 0.0371107 0.516191
1217 4 0.409469 0.0445258 0.531951
1218 4 0.446568 0.0676011 0.55628
1216 2 0.428018 0.0560634 0.544116
1033 2 0.0627084 0.173747 0.514159
1155 4 0.0690999 0.095419 0.576473
1200 4 0.0047595 0.140606 0.594453
3266 4 0.997661 0.141773 0.575544
1034 4 0.0794916 0.155303 0.512333
939 4 0.150839 0.152985 0.529498
937 2 0.131401 0.16193 0.516563
938 4 0.111962 0.170875 0.503628
1153 2 0.092406 0.104408 0.577574
1151 4 0.168575 0.143498 0.530684
1150 2 0.17755 0.129415 0.512075
857 4 0.302701 0.13776 0.571376
899 4 0.315775 0.12915 0.559508
856 2 0.284848 0.154136 0.577566
858 4 0.266995 0.170511 0.583755
898 2 0.337959 0.140678 0.559095
900 4 0.360142 0.152206 0.558683
1035 4 0.0459253 0.19219 0.515985
1082 4 0.0416878 0.201968 0.533424
1081 2 0.0393269 0.201142 0.558302
1083 4 0.0369659 0.200315 0.58318
261 4 0.111487 0.190911 0.503774
797 4 0.260656 0.187327 0.575737
811 2 0.319781 0.235851 0.544823
812 4 0.29903 0.238978 0.558417
796 2 0.271113 0.208756 0.568213
798 4 0.281571 0.230185 0.560689
813 4 0.340532 0.232724 0.53123
873 4 0.351371 0.215257 0.528429
871 2 0.356728 0.192419 0.537085
872 4 0.362084 0.169582 0.545742
906 4 0.477607 0.223783 0.57439
904 2 0.465592 0.245523 0.571522
2813 4 0.00988008 0.323651 0.500073
878 4 0.0956401 0.271322 0.562899
877 2 0.0900254 0.256624 0.582332
954 4 0.418141 0.311018 0.570117
905 4 0.453578 0.267262 0.568654
952 2 0.427192 0.288141 0.574581
953 4 0.436242 0.265264 0.579045
1137 4 0.162869 0.377589 0.545012
1135 2 0.145047 0.395103 0.544104
1136 4 0.127225 0.412617 0.543196
896 4 0.214009 0.351101 0.532448
1191 4 0.221462 0.336675 0.520479
897 4 0.165602 0.35655 0.543749
895 2 0.189805 0.353826 0.538099
1189 2 0.243421 0.348632 0.520538
1190 4 0.265381 0.360589 0.520598
803 4 0.28147 0.367332 0.530213
802 2 0.303103 0.379264 0.534063
804 4 0.324737 0.391196 0.537913
928 2 0.35157 0.374905 0.563378
929 4 0.342855 0.38519 0.54232
930 4 0.360284 0.364619 0.584436
1206 4 0.373846 0.348284 0.593801
925 2 0.469746 0.394868 0.530224
927 4 0.469445 0.401895 0.50623
1001 4 0.462104 0.395331 0.570989
926 4 0.470047 0.38784 0.554217
2712 4 0.487155 0.40471 0.499419
936 4 0.995067 0.445626 0.540317
538 2 0.0511511 0.472217 0.507141
539 4 0.0544958 0.490945 0.523367
1938 4 0.0647954 0.508122 0.521762
383 4 0.14921 0.445746 0.514892
2242 2 0.160331 0.46352 0.568802
2244 4 0.16056 0.468177 0.544237
1173 4 0.231745 0.439943 0.557398
1171 2 0.256277 0.444753 0.557849
1172 4 0.28081 0.449563 0.558301
882 4 0.289869 0.46335 0.547158
880 2 0.299727 0.4857 0.541821
1185 4 0.0194439 0.0395183 0.641042
945 4 0.0383491 0.0398977 0.64994
825 4 0.07313 0.0265999 0.627191
1057 2 0.0650436 0.057275 0.597857
1058 4 0.0672844 0.0344231 0.607754
943 2 0.0478324 0.0517373 0.669816
823 2 0.0850411 0.00666929 0.636469
2195 4 0.293941 0.00564963 0.584924
1005 4 0.305586 0.0383485 0.662356
1003 2 0.318902 0.0584739 0.655812
1004 4 0.332218 0.0785994 0.649268
2283 4 0.447732 0.0117267 0.601968
2282 4 0.450398 0.0237198 0.650443
2281 2 0.449065 0.0177233 0.626205
43 3 0.469793 0.027634 0.65691
45 3 0.493032 0.0542681 0.64394
41 1 0.478744 0.04869 0.660774
44 3 0.461719 0.0643881 0.662236
1198 2 0.0173244 0.162148 0.592643
1154 4 0.115712 0.113396 0.578675
1221 4 0.122052 0.113713 0.59774
1219 2 0.132374 0.107531 0.619658
1220 4 0.142696 0.101349 0.641576
1283 4 0.148483 0.113395 0.656361
1212 4 0.238322 0.144452 0.630527
1210 2 0.252363 0.138932 0.650465
1211 4 0.266405 0.133411 0.670403
3008 4 0.496471 0.10421 0.594571
1199 4 0.0298893 0.183689 0.590834
879 4 0.0844107 0.241926 0.601764
1272 4 0.0765862 0.229196 0.614696
1270 2 0.0978452 0.218395 0.622217
1271 4 0.119104 0.207593 0.629737
909 4 0.138342 0.212405 0.631009
907 2 0.157844 0.227584 0.62721
908 4 0.177346 0.242764 0.623412
1025 4 0.396514 0.196322 0.636829
1143 4 0.382884 0.199675 0.652279
1024 2 0.411886 0.200371 0.617528
1026 4 0.427257 0.20442 0.598228
3123 4 0.450885 0.207953 0.65762
3121 2 0.473506 0.215285 0.665345
3122 4 0.496128 0.222617 0.67307
947 4 0.165694 0.257789 0.627516
946 2 0.176276 0.278424 0.636864
948 4 0.186858 0.299059 0.646213
1237 2 0.224679 0.323046 0.600093
1238 4 0.241403 0.30929 0.612594
792 4 0.260856 0.304703 0.609283
791 4 0.305648 0.282923 0.604817
790 2 0.283252 0.293813 0.60705
1205 4 0.416074 0.322107 0.588122
982 2 0.00216613 0.385021 0.619346
983 4 0.0235088 0.392152 0.630247
1041 4 0.0355769 0.409363 0.623652
893 4 0.101348 0.397459 0.659281
992 4 0.151807 0.403882 0.61711
991 2 0.127402 0.408297 0.620281
1239 4 0.207955 0.336801 0.587593
1204 2 0.39496 0.335195 0.590962
1039 2 0.0600056 0.414084 0.621176
1040 4 0.0844343 0.418805 0.618701
993 4 0.102996 0.412712 0.623452
2170 2 0.154582 0.486711 0.652845
2243 4 0.160102 0.458863 0.593367
2172 4 0.156989 0.461972 0.655554
1161 4 0.177281 0.450393 0.599788
1160 4 0.222633 0.444564 0.620034
1159 2 0.199957 0.447478 0.609911
890 4 0.307392 0.427693 0.635596
889 2 0.314993 0.451185 0.631655
891 4 0.322593 0.474677 0.627713
1187 4 0.31141 0.489277 0.63378
1952 4 0.357221 0.481416 0.628829
1951 2 0.354117 0.495977 0.608741
1000 2 0.455755 0.412769 0.587746
1910 4 0.438176 0.443979 0.61302
1002 4 0.449406 0.430208 0.604502
1909 2 0.432742 0.465171 0.600914
1911 4 0.427308 0.486363 0.588808
3328 2 0.490383 0.441831 0.648853
3329 4 0.485624 0.461731 0.634482
944 4 0.0573157 0.0635769 0.689692
1075 2 0.0572039 0.0571167 0.73176
1076 4 0.0545458 0.0567488 0.706901
2319 4 0.0373372 0.0237142 0.730012
2317 2 0.0155197 0.0141563 0.737617
2285 4 0.0469969 0.0106914 0.719602
1256 4 0.318387 0.00159587 0.731953
42 3 0.490262 0.0483351 0.680682
1163 4 0.489196 0.0440573 0.70112
1282 2 0.167349 0.121986 0.670341
1284 4 0.186215 0.130578 0.68432
1227 4 0.204143 0.139117 0.68364
1225 2 0.208803 0.14868 0.706268
1226 4 0.213463 0.158243 0.728895
888 4 0.278323 0.148719 0.674566
886 2 0.286087 0.139935 0.696651
887 4 0.29385 0.131152 0.718736
830 4 0.309994 0.126635 0.738345
829 2 0.328986 0.111685 0.731942
978 4 0.315316 0.153865 0.728147
831 4 0.347978 0.0967353 0.72554
1107 4 0.0245771 0.18072 0.728683
851 4 0.00882287 0.191231 0.736191
1105 2 0.0389036 0.171939 0.747199
822 4 0.145187 0.233692 0.701311
1278 4 0.163591 0.240906 0.706366
820 2 0.122246 0.240125 0.708893
821 4 0.099304 0.246558 0.716474
1276 2 0.17922 0.227827 0.720852
1130 4 0.22918 0.16837 0.73622
1277 4 0.194848 0.214749 0.735339
1129 2 0.221243 0.191862 0.739432
1065 4 0.19751 0.256894 0.71955
1131 4 0.213306 0.215354 0.742644
916 2 0.283777 0.225854 0.736332
918 4 0.283707 0.200898 0.737871
977 4 0.297678 0.195126 0.750217
976 2 0.306497 0.174496 0.739182
917 4 0.283847 0.25081 0.734792
1141 2 0.366635 0.189627 0.668411
1142 4 0.350386 0.17958 0.684542
1192 2 0.385368 0.22873 0.74566
1194 4 0.407147 0.216877 0.742441
1144 2 0.481761 0.175227 0.748285
1145 4 0.467483 0.18595 0.730783
1262 4 0.418832 0.210184 0.729315
1261 2 0.441775 0.203634 0.72184
1263 4 0.464718 0.197083 0.714364
1243 2 0.00834498 0.307552 0.69425
1209 4 0.0393891 0.267373 0.689613
1207 2 0.0597803 0.25779 0.700455
1244 4 0.0313796 0.31283 0.686081
1208 4 0.0801714 0.248207 0.711297
1064 4 0.230366 0.294368 0.715437
1063 2 0.213938 0.275631 0.717493
1008 4 0.332993 0.263264 0.733282
3113 4 0.496481 0.337845 0.66851
806 4 0.435258 0.302824 0.743026
805 2 0.416743 0.319625 0.74271
3112 2 0.50711 0.331677 0.690285
892 2 0.0863688 0.401296 0.67893
894 4 0.0713893 0.405133 0.698578
942 4 0.124811 0.41332 0.743546
940 2 0.148786 0.415888 0.73693
941 4 0.172761 0.418456 0.730315
1066 2 0.199609 0.406722 0.704252
1067 4 0.179515 0.404228 0.718921
1139 4 0.292629 0.411155 0.683305
807 4 0.398227 0.336426 0.742395
1020 4 0.394022 0.354532 0.74732
1281 4 0.0706799 0.423433 0.708247
1279 2 0.0676352 0.435845 0.729737
1983 4 0.0264195 0.47492 0.741055
2021 4 0.0457337 0.47678 0.738064
1028 4 0.236826 0.416992 0.685431
1068 4 0.219703 0.409216 0.689583
1027 2 0.260157 0.418454 0.676559
1029 4 0.283488 0.419916 0.667687
1138 2 0.309312 0.421854 0.69855
1140 4 0.325995 0.432553 0.713795
1228 2 0.357603 0.428517 0.75261
1229 4 0.340334 0.446027 0.7481
3330 4 0.495143 0.421932 0.663224
1269 4 0.445105 0.506205 0.702469
1077 4 0.0598619 0.0574845 0.756619
1203 4 0.0693471 0.0501576 0.772111
1201 2 0.0875808 0.0331441 0.773914
1202 4 0.105815 0.0161306 0.775717
1148 4 0.19832 0.046813 0.750772
1147 2 0.218619 0.0575204 0.760696
1149 4 0.238918 0.0682277 0.770619
1049 4 0.252567 0.0766678 0.781481
1257 4 0.282182 0.0206524 0.760707
1255 2 0.300285 0.0111241 0.74633
1048 2 0.263004 0.0615994 0.798487
1050 4 0.27344 0.0465311 0.815493
819 4 0.369923 0.0791754 0.818
846 4 0.459235 0.0332956 0.7915
1113 4 0.458825 0.0127569 0.792625
844 2 0.477968 0.0487434 0.79747
862 2 0.0399328 0.0998672 0.840326
832 2 0.036086 0.134974 0.795477
863 4 0.024131 0.115103 0.828352
833 4 0.0231597 0.117801 0.80825
33 3 0.0688145 0.148225 0.792805
834 4 0.0490123 0.152148 0.782704
31 1 0.0825414 0.154658 0.775238
1106 4 0.0532301 0.163158 0.765714
32 3 0.0883149 0.135996 0.763092
34 3 0.101862 0.164515 0.783482
840 4 0.205537 0.137436 0.78726
838 2 0.226626 0.127315 0.796093
839 4 0.247715 0.117195 0.804925
959 4 0.263055 0.104941 0.804137
958 2 0.274431 0.108637 0.826094
1084 2 0.369732 0.109225 0.797383
1085 4 0.357839 0.0948982 0.81407
1086 4 0.381625 0.123553 0.780696
1299 4 0.386513 0.140621 0.790875
3269 4 0.486772 0.145256 0.821416
1146 4 0.496038 0.164504 0.765788
3270 4 0.481732 0.15191 0.772111
3268 2 0.484252 0.148583 0.796764
1214 4 0.0385766 0.23219 0.798795
35 3 0.0715128 0.169293 0.761716
778 2 0.0703776 0.236394 0.811713
1213 2 0.0150699 0.24071 0.798958
780 4 0.0918431 0.225321 0.818178
1073 4 0.112097 0.179662 0.794672
1072 2 0.135903 0.184645 0.800468
1074 4 0.15971 0.189627 0.806263
869 4 0.104336 0.223687 0.834948
1297 2 0.38865 0.164327 0.798536
1193 4 0.363589 0.240583 0.74888
1298 4 0.390786 0.188032 0.806196
47 3 0.397037 0.200771 0.819986
1043 4 0.408017 0.241305 0.795415
46 1 0.413358 0.212794 0.830859
49 3 0.414848 0.233845 0.821212
1166 4 0.426496 0.239438 0.804188
48 3 0.433589 0.201639 0.828696
779 4 0.0489122 0.247467 0.805248
1240 2 0.233441 0.283447 0.767697
1242 4 0.21086 0.2793 0.7776