ITEM: TIMESTEP
1150000
ITEM: NUMBER OF ATOMS
4590
ITEM: BOX BOUNDS pp pp pp
-9.9985700000000008e+00 9.9985700000000008e+00
-9.9985700000000008e+00 9.9985700000000008e+00
-9.9985700000000008e+00 9.9985700000000008e+00
ITEM: ATOMS id type xs ys zs
463 2 0.0330316 0.063971 0.0277378
464 4 0.0389343 0.0507146 0.00737597
465 4 0.0271289 0.0772275 0.0480996
3290 4 0.0528669 0.0400168 0.0186036
1668 4 0.0616724 0.0130927 0.0447454
1666 2 0.07188 0.0324398 0.0568562
1667 4 0.0820875 0.0517869 0.0689671
3289 2 0.0700651 0.0327396 0.00197701
1476 4 0.223291 0.023362 0.0663683
1474 2 0.239954 0.0215409 0.0478151
1475 4 0.256617 0.0197199 0.0292619
492 4 0.269058 0.0344405 0.0281208
490 2 0.280968 0.0292284 0.00676297
745 2 0.455383 0.0775921 0.0170255
747 4 0.463498 0.0569501 0.0285677
2722 2 0.476088 0.0498855 0.0675044
2724 4 0.476599 0.0543927 0.0429157
591 4 0.0467073 0.114381 0.0720413
701 4 0.0570011 0.110717 0.0541108
700 2 0.0429156 0.120745 0.0360494
423 4 0.0784434 0.155258 0.0260503
2760 4 0.0143009 0.140755 0.027394
702 4 0.0288302 0.130774 0.017988
2758 2 0.997685 0.158732 0.0324854
566 4 0.193381 0.0815231 0.0561515
1133 4 0.229415 0.146406 0.00442515
360 4 0.239449 0.136267 0.0198962
565 2 0.18482 0.0826058 0.0796188
358 2 0.25953 0.128814 0.0327951
359 4 0.279611 0.121361 0.0456941
665 4 0.389891 0.152221 0.0102867
746 4 0.447267 0.0982342 0.0054833
421 2 0.0702077 0.176785 0.035743
553 2 0.036869 0.220854 0.0426413
422 4 0.0619721 0.198312 0.0454358
555 4 0.0533171 0.209715 0.0578253
554 4 0.0204208 0.231993 0.0274573
2835 4 0.0109909 0.22047 0.0124281
506 4 0.177714 0.22677 0.0609979
737 4 0.174277 0.213907 0.0747797
505 2 0.171366 0.247239 0.0481171
353 4 0.27292 0.212088 0.0714032
461 4 0.291693 0.204854 0.0692338
322 2 0.412742 0.230918 0.060854
323 4 0.394519 0.230386 0.0779666
1014 4 0.490408 0.193118 0.996376
324 4 0.430964 0.231451 0.0437414
1170 4 0.0495372 0.315528 0.999915
1056 4 0.0656252 0.305306 0.00588887
294 4 0.143555 0.312743 0.0204599
456 4 0.137738 0.315395 0.038983
292 2 0.161471 0.295385 0.0221615
454 2 0.136678 0.332875 0.0568293
507 4 0.165017 0.267708 0.0352364
293 4 0.179387 0.278027 0.0238632
481 2 0.254253 0.294085 0.0157258
482 4 0.250006 0.286256 0.0390891
1071 4 0.39339 0.262197 0.0401915
1069 2 0.398679 0.267245 0.0162808
573 4 0.385719 0.253769 0.0564946
571 2 0.368781 0.264807 0.0712069
328 2 0.024827 0.400409 0.99904
455 4 0.135618 0.350355 0.0746757
252 4 0.284069 0.394646 0.0661604
250 2 0.288331 0.411061 0.0477882
608 4 0.279895 0.374479 0.0617891
607 2 0.259883 0.370401 0.0762144
227 4 0.407661 0.398896 0.0211535
281 4 0.436494 0.361933 0.0635862
671 4 0.435652 0.345653 0.0749567
280 2 0.459013 0.355443 0.0548732
282 4 0.481533 0.348953 0.0461601
226 2 0.428214 0.412554 0.0171269
104 3 0.495848 0.344737 0.0591979
330 4 0.0314423 0.424088 0.00359349
550 2 0.0376205 0.493069 0.058142
552 4 0.0411356 0.47437 0.0743645
314 4 0.0271184 0.464282 0.0843532
246 4 0.213079 0.491868 0.021508
244 2 0.215816 0.471735 0.00693609
251 4 0.292592 0.427477 0.0294161
524 4 0.352526 0.423775 0.0649527
228 4 0.448767 0.426212 0.0131004
19 3 0.0450521 0.0281327 0.132565
20 3 0.0780547 0.0106936 0.137501
1422 4 0.0263679 0.0244024 0.154295
16 1 0.067794 0.0309823 0.136183
17 3 0.0766924 0.0428445 0.118597
2480 4 0.0265217 0.0339095 0.136718
2479 2 0.00646206 0.0289959 0.122624
18 3 0.0712643 0.0428981 0.155789
652 2 0.238056 0.0357819 0.150634
450 4 0.157637 0.0642498 0.160636
654 4 0.236224 0.0240823 0.128612
484 2 0.328718 0.0260344 0.147462
582 4 0.300489 0.0568126 0.152099
580 2 0.29314 0.0787011 0.161693
297 4 0.338779 0.0349573 0.114553
486 4 0.325724 0.00759539 0.164082
485 4 0.331712 0.0444735 0.130843
296 4 0.371804 0.0620786 0.0885818
295 2 0.355291 0.0485179 0.101567
2723 4 0.475577 0.0453782 0.092093
590 4 0.0366597 0.0846397 0.110967
589 2 0.0416835 0.0995102 0.0915043
448 2 0.146301 0.0864828 0.15909
449 4 0.134966 0.108716 0.157544
567 4 0.176258 0.0836885 0.103086
758 4 0.376766 0.0893617 0.160223
557 4 0.375491 0.0754305 0.10194
558 4 0.371859 0.125211 0.0988735
556 2 0.373675 0.100321 0.100407
771 4 0.462685 0.121608 0.0844813
769 2 0.478634 0.140445 0.088474
770 4 0.494583 0.159283 0.0924666
339 4 0.109347 0.243061 0.122166
477 4 0.160766 0.191888 0.14157
354 4 0.233289 0.194717 0.0964688
475 2 0.185199 0.196654 0.143918
738 4 0.216549 0.204522 0.0997949
736 2 0.195413 0.209214 0.0872873
476 4 0.209631 0.201421 0.146266
352 2 0.253105 0.203402 0.083936
460 2 0.314799 0.204515 0.0787812
462 4 0.337906 0.204177 0.0883287
277 2 0.282653 0.235275 0.152441
278 4 0.29174 0.243683 0.130718
255 4 0.334287 0.209906 0.106661
254 4 0.377628 0.203957 0.130886
630 4 0.395907 0.201779 0.117914
253 2 0.355958 0.206931 0.118774
628 2 0.419906 0.208538 0.116023
624 4 0.442395 0.235629 0.117149
629 4 0.443904 0.215297 0.114132
338 4 0.0618473 0.248496 0.136826
337 2 0.0855973 0.245779 0.129496
611 4 0.228543 0.318818 0.134832
755 4 0.299944 0.260605 0.124312
754 2 0.318707 0.26234 0.107876
756 4 0.33747 0.264076 0.0914407
572 4 0.351844 0.275846 0.0859192
741 4 0.354861 0.286816 0.101381
739 2 0.348617 0.310294 0.107293
622 2 0.445183 0.255783 0.131684
623 4 0.447971 0.275936 0.146218
527 4 0.44171 0.277908 0.16541
315 4 0.0464778 0.41846 0.0894719
621 4 0.0452361 0.398123 0.0901523
619 2 0.0544306 0.387976 0.111073
620 4 0.063625 0.377829 0.131993
647 4 0.0775363 0.366498 0.141055
646 2 0.0903056 0.376926 0.159853
610 2 0.229881 0.333608 0.114717
612 4 0.231219 0.348399 0.094602
535 2 0.175867 0.35637 0.161669
609 4 0.239872 0.366323 0.0906396
537 4 0.163723 0.337775 0.150184
387 4 0.320335 0.384382 0.133777
385 2 0.334194 0.368817 0.119963
301 2 0.32764 0.418049 0.159786
302 4 0.321084 0.395716 0.150652
740 4 0.342373 0.333773 0.113205
386 4 0.348053 0.353252 0.106148
12 3 0.405476 0.358497 0.135113
11 1 0.407468 0.369537 0.155195
14 3 0.419344 0.389182 0.151809
15 3 0.386697 0.374301 0.163229
596 4 0.470198 0.335351 0.133263
672 4 0.419949 0.358767 0.120587
495 4 0.423876 0.397729 0.134407
670 2 0.427801 0.35221 0.097772
595 2 0.454414 0.340185 0.152043
313 2 0.0367981 0.441371 0.0869125
1789 2 0.0726578 0.490893 0.107913
1791 4 0.0607093 0.489652 0.129842
1790 4 0.0846062 0.492134 0.0859846
626 4 0.19447 0.440004 0.116434
625 2 0.208356 0.451622 0.133679
627 4 0.222242 0.46324 0.150924
638 4 0.23421 0.473169 0.16531
637 2 0.252263 0.486192 0.153924
303 4 0.334195 0.440383 0.16892
525 4 0.340249 0.446258 0.1079
523 2 0.346388 0.435017 0.0864265
1583 4 0.448294 0.499397 0.132156
493 2 0.420657 0.422205 0.130439
494 4 0.417437 0.446681 0.126472
1420 2 0.029018 0.00579309 0.170783
690 4 0.155474 0.0230946 0.249595
688 2 0.163319 0.0149095 0.227309
653 4 0.239887 0.0474815 0.172655
693 4 0.234358 0.0597179 0.187331
691 2 0.222537 0.0430856 0.201781
692 4 0.210715 0.0264533 0.216231
689 4 0.171163 0.00672434 0.205024
1700 4 0.331617 0.0489449 0.232272
1699 2 0.306634 0.0498619 0.231834
1701 4 0.281651 0.0507789 0.231396
21 1 0.361155 0.0703336 0.237259
25 3 0.366051 0.0667906 0.215302
759 4 0.357177 0.062951 0.197898
757 2 0.366972 0.0761564 0.179061
23 3 0.346246 0.0542078 0.244749
577 2 0.0781543 0.158029 0.219566
578 4 0.0546959 0.158509 0.228207
512 4 0.999039 0.161218 0.189751
236 4 0.146362 0.117163 0.17129
235 2 0.149672 0.136102 0.187276
237 4 0.152982 0.15504 0.203262
579 4 0.101613 0.157549 0.210926
722 4 0.210237 0.134858 0.252514
723 4 0.238832 0.0951351 0.242257
721 2 0.224534 0.114996 0.247386
581 4 0.28579 0.10059 0.171287
28 3 0.282475 0.114365 0.223888
30 3 0.288369 0.0951063 0.192076
26 1 0.298486 0.10603 0.209308
29 3 0.311535 0.123378 0.201113
27 3 0.311992 0.0913147 0.220719
24 3 0.352001 0.091476 0.240018
312 4 0.4176 0.116123 0.195661
311 4 0.418254 0.165129 0.205595
310 2 0.417927 0.140626 0.200628
513 4 0.0356356 0.160935 0.22383
511 2 0.0173374 0.161076 0.20679
362 4 0.154987 0.248101 0.182258
279 4 0.273566 0.226867 0.174164
284 4 0.256097 0.225628 0.231356
283 2 0.273071 0.238131 0.217913
285 4 0.290046 0.250635 0.204471
396 4 0.0935441 0.301038 0.228219
443 4 0.0759146 0.291282 0.229021
703 2 0.017488 0.308572 0.212196
704 4 0.0261953 0.285795 0.206668
442 2 0.0629761 0.29355 0.250296
394 2 0.0971653 0.287194 0.207715
395 4 0.100787 0.27335 0.187211
363 4 0.108828 0.264051 0.171504
361 2 0.131908 0.256076 0.176881
372 4 0.166089 0.259396 0.195434
370 2 0.165972 0.25682 0.220304
371 4 0.165855 0.254244 0.245175
345 4 0.243907 0.330215 0.217149
343 2 0.263467 0.317336 0.225908
344 4 0.283028 0.304458 0.234666
526 2 0.449344 0.268058 0.187087
528 4 0.456977 0.258207 0.208763
705 4 0.0087807 0.33135 0.217723
750 4 0.0972758 0.35666 0.246958
300 4 0.109467 0.370816 0.184566
648 4 0.103075 0.387354 0.178652
298 2 0.121634 0.374453 0.206105
299 4 0.1338 0.37809 0.227644
734 4 0.116548 0.361796 0.239695
536 4 0.188011 0.374965 0.173155
290 4 0.215348 0.397844 0.225755
597 4 0.43863 0.345019 0.170823
13 3 0.418809 0.355903 0.170158
643 2 0.44956 0.372913 0.199905
644 4 0.46683 0.384725 0.213595
645 4 0.43229 0.361101 0.186216
447 4 0.465035 0.392122 0.231446
263 4 0.04512 0.470469 0.210009
262 2 0.0466671 0.448669 0.197863
264 4 0.0482142 0.426868 0.185717
416 4 0.172245 0.428047 0.198142
1430 4 0.178673 0.48985 0.180478
415 2 0.17763 0.452423 0.196744
417 4 0.183015 0.4768 0.195346
289 2 0.219012 0.42168 0.232359
291 4 0.222677 0.445515 0.238962
766 2 0.236638 0.472561 0.207007
768 4 0.23151 0.464038 0.229947
767 4 0.241766 0.481085 0.184068
659 4 0.323874 0.445036 0.18632
660 4 0.342058 0.478313 0.218919
658 2 0.332966 0.461674 0.202619
231 4 0.337157 0.497321 0.216559
713 4 0.393361 0.462877 0.246683
233 4 0.0345386 0.000638587 0.308366
232 2 0.033113 0.0235562 0.318262
316 2 0.0443206 0.0857819 0.324282
674 4 0.155129 0.0191965 0.268705
673 2 0.150701 0.0431595 0.274304
675 4 0.146273 0.0671226 0.279902
605 4 0.155195 0.0271044 0.332344
1406 4 0.245959 0.0137339 0.309852
1518 4 0.361799 0.00783021 0.30358
697 2 0.380772 0.0341774 0.281474
699 4 0.378005 0.0199441 0.301844
698 4 0.383539 0.0484108 0.261104
22 3 0.380482 0.0689225 0.249654
333 4 0.394218 0.0669566 0.267921
331 2 0.415228 0.0794007 0.273298
743 4 0.488368 0.0439391 0.283555
742 2 0.486253 0.0223099 0.27119
351 4 0.491995 0.0619203 0.277653
349 2 0.472836 0.0776027 0.274163
480 4 0.484052 0.0250148 0.335025
318 4 0.0466529 0.109709 0.317408
399 4 0.147258 0.151254 0.322379
545 4 0.160195 0.163254 0.266421
397 2 0.138249 0.129178 0.329908
546 4 0.195229 0.12766 0.263883
544 2 0.177712 0.145457 0.265152
599 4 0.225858 0.142056 0.297911
404 4 0.236972 0.154518 0.286953
598 2 0.209055 0.133428 0.314293
600 4 0.192252 0.124799 0.330676
249 4 0.29535 0.0907384 0.320451
247 2 0.317663 0.0929426 0.331516
248 4 0.339976 0.0951467 0.342582
332 4 0.436238 0.0918448 0.278674
350 4 0.453677 0.093285 0.270674
762 4 0.445225 0.101419 0.294291
760 2 0.439804 0.125565 0.297866
761 4 0.434383 0.149711 0.30144
529 2 0.00587124 0.189884 0.266965
530 4 0.0197881 0.199757 0.285242
393 4 0.138429 0.170931 0.319692
392 4 0.143457 0.174106 0.27004
391 2 0.140943 0.172518 0.294866
403 2 0.238474 0.179133 0.291081
405 4 0.239975 0.203747 0.29521
401 4 0.231104 0.218972 0.304876
400 2 0.216323 0.233231 0.290614
765 4 0.378746 0.209744 0.246365
763 2 0.399844 0.211667 0.259644
420 4 0.413396 0.200821 0.326971
522 4 0.481479 0.203595 0.252589
520 2 0.456716 0.205706 0.255328
521 4 0.431952 0.207817 0.258068
764 4 0.420943 0.213589 0.272923
2682 4 0.499065 0.194492 0.244775
444 4 0.0500377 0.295817 0.271571
390 4 0.0999088 0.276342 0.316339
402 4 0.201542 0.247489 0.276352
309 4 0.291797 0.308819 0.251541
307 2 0.294304 0.324066 0.271198
497 4 0.311757 0.334698 0.308136
496 2 0.317959 0.318911 0.326507
615 4 0.405472 0.331016 0.295175
541 2 0.445273 0.312658 0.295137
542 4 0.465859 0.299954 0.288811
543 4 0.424688 0.325362 0.301463
748 2 0.0758152 0.358494 0.259656
749 4 0.0543546 0.360327 0.272355
365 4 0.025868 0.392629 0.305588
2493 4 0.0163976 0.381943 0.319649
364 2 0.0298858 0.374936 0.288383
366 4 0.0339035 0.357244 0.271178
549 4 0.0439094 0.400723 0.305753
547 2 0.0515649 0.406 0.328964
601 2 0.11806 0.390433 0.335542
733 2 0.132179 0.363473 0.259139
602 4 0.131366 0.408367 0.324295
735 4 0.147809 0.36515 0.278582
677 4 0.152049 0.357117 0.296871
676 2 0.166262 0.341801 0.310605
678 4 0.180474 0.326486 0.324339
308 4 0.29681 0.339313 0.290856
729 4 0.307708 0.358165 0.298541
727 2 0.307721 0.382657 0.30357
728 4 0.307734 0.40715 0.308599
613 2 0.403111 0.35155 0.309245
434 4 0.3242 0.408782 0.324757
614 4 0.400751 0.372084 0.323315
445 2 0.454793 0.411438 0.243576
777 4 0.122499 0.418846 0.310122
1757 4 0.101086 0.457438 0.259158
1756 2 0.0952483 0.481449 0.255342
776 4 0.0983789 0.445639 0.275465
775 2 0.110439 0.432243 0.292793
500 4 0.106555 0.495351 0.322083
414 4 0.225884 0.461361 0.254034
413 4 0.200548 0.484859 0.290181
412 2 0.213216 0.47311 0.272108
1436 4 0.234137 0.491149 0.323232
1545 4 0.215003 0.49016 0.303761
1435 2 0.257398 0.481992 0.322732
438 4 0.327898 0.509182 0.288727
437 4 0.288583 0.487191 0.31044
436 2 0.30824 0.498186 0.299583
2 3 0.309675 0.424544 0.32045
1437 4 0.280659 0.472835 0.322231
5 3 0.294615 0.458262 0.325854
712 2 0.414611 0.454366 0.256741
446 4 0.444551 0.430755 0.255706
714 4 0.43586 0.445854 0.2668
2862 4 0.497256 0.437884 0.296605
234 4 0.0316873 0.0464737 0.328158
317 4 0.0419884 0.0618551 0.331155
429 4 0.0835204 0.00132177 0.378095
606 4 0.150147 0.00974311 0.378968
731 4 0.0960748 0.0583508 0.374511
428 4 0.100067 0.0450099 0.360255
427 2 0.0917936 0.0231659 0.369175
604 2 0.152671 0.0184237 0.355656
730 2 0.107664 0.0763449 0.361585
682 2 0.230161 0.0455857 0.389396
684 4 0.211909 0.0382465 0.373962
683 4 0.248412 0.0529249 0.40483
633 4 0.355889 0.0843749 0.337184
425 4 0.401396 0.0393715 0.378693
1747 2 0.455206 0.00173901 0.344019
1749 4 0.475501 0.0151147 0.349882
256 2 0.464462 0.0805546 0.347982
424 2 0.424388 0.0415213 0.369105
2879 4 0.485995 0.0418455 0.389554
426 4 0.447379 0.043671 0.359516
258 4 0.461979 0.0561979 0.353058
2878 2 0.47003 0.0565152 0.402007
2880 4 0.454064 0.0711848 0.41446
398 4 0.12924 0.107102 0.337437
732 4 0.119254 0.094339 0.348659
686 4 0.183131 0.14854 0.390658
685 2 0.189617 0.135232 0.370508
687 4 0.196103 0.121924 0.350358
467 4 0.315554 0.142597 0.408659
632 4 0.392378 0.108951 0.36096
631 2 0.374134 0.0966628 0.349072
257 4 0.466946 0.104911 0.342907
2653 2 0.995058 0.205211 0.367658
2654 4 0.0177569 0.196728 0.361494
617 4 0.0511347 0.24934 0.382068
274 2 0.15891 0.242162 0.355789
275 4 0.177037 0.225675 0.350813
474 4 0.191625 0.239195 0.343245
472 2 0.209838 0.223633 0.350404
473 4 0.228052 0.20807 0.357564
708 4 0.247036 0.201212 0.354262
707 4 0.274677 0.230879 0.383528
706 2 0.260856 0.216046 0.368895
418 2 0.398018 0.214945 0.340726
419 4 0.38264 0.229069 0.354481
716 4 0.36529 0.223539 0.346642
715 2 0.352836 0.239818 0.360962
515 4 0.484695 0.175375 0.412061
269 4 0.471881 0.224026 0.368074
268 2 0.479872 0.245274 0.378554
618 4 0.0143903 0.282002 0.39122
616 2 0.0327625 0.265671 0.386644
346 2 0.996751 0.312735 0.415709
388 2 0.111553 0.272208 0.338076
276 4 0.140782 0.258649 0.360765
389 4 0.123197 0.268074 0.359813
374 4 0.247559 0.337553 0.374314
508 2 0.259173 0.294005 0.370422
509 4 0.262474 0.2695 0.366705
510 4 0.255872 0.318509 0.374138
488 4 0.316183 0.260436 0.390782
498 4 0.324161 0.303125 0.344879
487 2 0.294491 0.263044 0.402941
489 4 0.272799 0.265653 0.4151
717 4 0.340381 0.256097 0.375282
377 4 0.333749 0.270391 0.389176
376 2 0.334267 0.290851 0.374814
378 4 0.334785 0.311312 0.360451
270 4 0.487863 0.266523 0.389034
306 4 0.488872 0.266474 0.408634
407 4 0.0481235 0.411621 0.369692
548 4 0.0592204 0.411277 0.352174
603 4 0.104753 0.3725 0.346789
502 2 0.222289 0.411579 0.402422
504 4 0.241132 0.395407 0.399489
373 2 0.238897 0.358771 0.384313
375 4 0.230236 0.379989 0.394311
433 2 0.342447 0.406226 0.341659
334 2 0.361862 0.413819 0.400896
435 4 0.360694 0.40367 0.35856
335 4 0.367772 0.395365 0.416698
2925 4 0.500458 0.356613 0.374846
119 3 0.499786 0.413936 0.338942
406 2 0.0642851 0.425333 0.382957
408 4 0.0804466 0.439045 0.396222
503 4 0.203446 0.427751 0.405354
636 4 0.197177 0.447024 0.401818
3 3 0.272685 0.427659 0.326335
1 1 0.293505 0.436311 0.331818
668 4 0.307302 0.451121 0.359698
4 3 0.297249 0.4341 0.354611
667 2 0.324071 0.446094 0.37755
669 4 0.340841 0.441068 0.395402
336 4 0.355952 0.432273 0.385095
561 4 0.461856 0.417937 0.402625
752 4 0.48185 0.423682 0.39671
593 4 0.447722 0.473905 0.349973
751 2 0.493344 0.425112 0.37455
592 2 0.446133 0.494268 0.364395
719 4 0.0904327 0.0430639 0.491109
368 4 0.092304 0.020429 0.4462
367 2 0.116503 0.0267107 0.445837
369 4 0.140702 0.0329923 0.445473
2428 2 0.235288 0.00763036 0.454899
341 4 0.241369 0.0773451 0.483433
2430 4 0.214699 0.997019 0.464316
2429 4 0.255877 0.0182418 0.445482
1182 4 0.261124 0.070591 0.478251
439 2 0.276677 0.00617411 0.415585
441 4 0.267328 0.023942 0.430487
430 2 0.330498 0.0761998 0.495968
1180 2 0.258687 0.0475394 0.487624
1181 4 0.25625 0.0244877 0.496998
642 4 0.456171 0.0713612 0.43499
458 4 0.0125592 0.149968 0.475526
2586 4 0.00137852 0.0986119 0.423856
321 4 0.242794 0.144678 0.424043
340 2 0.221832 0.0921528 0.488352
342 4 0.202294 0.10696 0.49327
1152 4 0.184781 0.112041 0.498345
319 2 0.25097 0.121083 0.4253
726 4 0.312454 0.0895105 0.459787
432 4 0.325457 0.0819932 0.472173
724 2 0.296352 0.0928632 0.440954
725 4 0.28025 0.0962159 0.422122
320 4 0.259146 0.097487 0.426557
466 2 0.330917 0.135341 0.427003
468 4 0.346281 0.128085 0.445347
576 4 0.404332 0.177753 0.475048
3159 4 0.474566 0.160325 0.495621
574 2 0.420976 0.163921 0.462525
641 4 0.461421 0.11591 0.457092
640 2 0.458796 0.0936357 0.446041
3158 4 0.4796 0.124781 0.460807
3157 2 0.477083 0.142553 0.478214
575 4 0.437621 0.150089 0.450002
516 4 0.443844 0.165663 0.43922
1035 4 0.0519668 0.166293 0.509341
469 2 0.0478738 0.216401 0.480456
470 4 0.032716 0.225834 0.462951
261 4 0.116646 0.200677 0.488753
260 4 0.0883341 0.210537 0.448729
259 2 0.10249 0.205607 0.468741
938 4 0.117805 0.18045 0.491672
650 4 0.25285 0.22824 0.466249
411 4 0.252813 0.208594 0.459403
409 2 0.255758 0.189538 0.475321
649 2 0.259181 0.237472 0.443891
651 4 0.265511 0.246704 0.421533
410 4 0.258703 0.170482 0.491239
267 4 0.341041 0.257384 0.420006
514 2 0.464269 0.170519 0.42564
348 4 0.990977 0.327036 0.435389
695 4 0.118277 0.286144 0.453657
694 2 0.120597 0.281412 0.478099
265 2 0.361413 0.270788 0.425527
266 4 0.381785 0.284193 0.431048
585 4 0.394423 0.269337 0.433258
2457 4 0.487849 0.314732 0.459671
2455 2 0.4682 0.299278 0.4602
2456 4 0.448552 0.283824 0.46073
583 2 0.415245 0.281279 0.440261
584 4 0.436066 0.293221 0.447264
2813 4 0.00948539 0.374114 0.462155
2812 2 0.998375 0.352137 0.457823
326 4 0.0851647 0.387976 0.45661
10 3 0.159909 0.33971 0.488879
7 3 0.133056 0.364376 0.480919
327 4 0.130057 0.366559 0.461779
325 2 0.107611 0.377267 0.459194
6 1 0.155783 0.360889 0.481595
709 2 0.154504 0.392132 0.43591
711 4 0.163282 0.369364 0.441365
8 3 0.164449 0.363753 0.460262
9 3 0.165301 0.376259 0.496141
804 4 0.28209 0.387411 0.480713
802 2 0.264555 0.380177 0.497003
238 2 0.378513 0.376973 0.446615
240 4 0.364921 0.395353 0.436485
239 4 0.392106 0.358593 0.456744
2506 2 0.491628 0.350972 0.459328
2508 4 0.484317 0.373179 0.450465
559 2 0.470369 0.403104 0.420865
560 4 0.478882 0.38827 0.439104
681 4 0.041576 0.49557 0.432477
679 2 0.0213755 0.492973 0.446981
710 4 0.145726 0.414899 0.430455
570 4 0.145426 0.434324 0.432346
568 2 0.130369 0.439978 0.451491
569 4 0.115313 0.445633 0.470635
384 4 0.115814 0.444557 0.489936
773 4 0.226531 0.429166 0.487084
774 4 0.209473 0.469836 0.46351
634 2 0.202476 0.458486 0.423399
635 4 0.207776 0.469948 0.444979
772 2 0.218002 0.449501 0.475297
881 4 0.290499 0.470057 0.489247
1454 4 0.294392 0.489728 0.494108
1401 4 0.337108 0.488692 0.484529
586 2 0.389386 0.460366 0.436135
1400 4 0.373596 0.456149 0.474026
1399 2 0.355352 0.472421 0.479278
588 4 0.376045 0.450295 0.454731
587 4 0.402727 0.470436 0.41754
2712 4 0.500001 0.428004 0.47048
1126 2 0.0156651 0.0537054 0.52224
1127 4 0.0367574 0.0487735 0.509751
720 4 0.041686 0.034247 0.497945
718 2 0.0660593 0.0386554 0.494527
1059 4 0.123353 0.0806464 0.578908
951 4 0.207423 0.0543897 0.561862
1031 4 0.221173 0.066201 0.569976
961 2 0.307185 0.0167957 0.525531
962 4 0.298446 0.998207 0.539787
963 4 0.315924 0.0353846 0.511274
841 2 0.370846 0.071505 0.54121
843 4 0.350519 0.0625506 0.52973
842 4 0.391174 0.0804593 0.55269
431 4 0.33554 0.0704063 0.519763
4466 4 0.462863 0.0211942 0.562579
4465 2 0.452396 0.0401178 0.57513
1062 4 0.475337 0.00881208 0.569098
1033 2 0.0733757 0.153778 0.512538
1034 4 0.0947846 0.141263 0.515735
939 4 0.147025 0.15837 0.525721
1151 4 0.164772 0.150962 0.522543
1150 2 0.174777 0.131502 0.510444
899 4 0.312237 0.142163 0.551332
857 4 0.298189 0.155339 0.555863
856 2 0.278528 0.164068 0.568606
1217 4 0.401511 0.0795872 0.536093
898 2 0.335834 0.1488 0.556263
900 4 0.359431 0.155437 0.561194
1218 4 0.45134 0.0781654 0.532113
1216 2 0.426426 0.0788763 0.534103
1199 4 0.0216878 0.186371 0.557145
878 4 0.0837913 0.238362 0.561845
471 4 0.0630316 0.206967 0.497961
937 2 0.132415 0.16941 0.508696
797 4 0.24581 0.187534 0.583405
871 2 0.346761 0.216371 0.554269
872 4 0.350786 0.191872 0.551308
873 4 0.342737 0.24087 0.557229
1258 2 0.163075 0.272222 0.512013
1260 4 0.142167 0.272788 0.498311
696 4 0.122918 0.276679 0.502541
1259 4 0.183982 0.271656 0.525714
1237 2 0.254905 0.324543 0.571234
812 4 0.342432 0.3009 0.53151
813 4 0.336791 0.260055 0.559805
811 2 0.339612 0.280477 0.545658
1137 4 0.126411 0.365422 0.578937
383 4 0.115316 0.4021 0.516351
897 4 0.141742 0.352312 0.578738
1239 4 0.245899 0.343656 0.557863
895 2 0.166249 0.354942 0.57453
1189 2 0.217941 0.364429 0.539077
896 4 0.190755 0.357572 0.570321
1191 4 0.204853 0.366678 0.560262
1190 4 0.231029 0.362181 0.517891
803 4 0.247021 0.372942 0.513293
1173 4 0.258512 0.411622 0.567487
928 2 0.369384 0.379108 0.562189
930 4 0.393305 0.378762 0.569458
929 4 0.345463 0.379454 0.55492
1206 4 0.403957 0.362217 0.568669
925 2 0.456241 0.38867 0.525922
926 4 0.444711 0.388991 0.548106
927 4 0.467771 0.38835 0.503738
1001 4 0.446905 0.40791 0.550525
538 2 0.0583906 0.485968 0.534595
540 4 0.0633109 0.461737 0.530876
382 2 0.115565 0.423329 0.503144
2243 4 0.182978 0.497829 0.574416
1171 2 0.270156 0.429179 0.554021
1172 4 0.281801 0.446736 0.540554
882 4 0.291683 0.435756 0.525617
880 2 0.291091 0.452906 0.507432
1952 4 0.297914 0.490115 0.577105
891 4 0.309298 0.473137 0.578407
1000 2 0.45024 0.427709 0.565426
663 4 0.503404 0.438578 0.520864
1002 4 0.453574 0.447508 0.580328
1185 4 0.0241053 0.0506131 0.646651
945 4 0.0337923 0.0336126 0.64732
1058 4 0.109126 0.0347686 0.592819
1057 2 0.116239 0.0577075 0.585863
825 4 0.0999671 0.0227522 0.605585
950 4 0.16609 0.0511924 0.589827
1030 2 0.240315 0.060498 0.585017
949 2 0.186756 0.052791 0.575845
1032 4 0.259457 0.054795 0.600058
1004 4 0.362051 0.0532675 0.626764
1003 2 0.358867 0.0434334 0.64953
4467 4 0.441928 0.0590413 0.58768
1060 2 0.487986 0.997087 0.5872
2283 4 0.427641 0.0686147 0.595946
2282 4 0.436703 0.0615149 0.64461
2281 2 0.432172 0.0650648 0.620278
43 3 0.443872 0.0518713 0.660708
45 3 0.480841 0.0512163 0.653601
41 1 0.464452 0.0613201 0.665765
44 3 0.464068 0.0840628 0.66118
1082 4 0.0617927 0.158142 0.619722
1081 2 0.0421805 0.144235 0.612857
1083 4 0.0225683 0.130327 0.605992
1155 4 0.126876 0.0931048 0.594818
1153 2 0.148448 0.105663 0.593371
1154 4 0.17002 0.118222 0.591923
1221 4 0.189363 0.11708 0.588894
1219 2 0.204539 0.130398 0.603642
1220 4 0.219715 0.143716 0.618391
1212 4 0.23187 0.135079 0.631433
1283 4 0.188628 0.0891471 0.655479
1210 2 0.242507 0.130134 0.653515
858 4 0.258866 0.172798 0.581349
888 4 0.273168 0.130035 0.675478
1142 4 0.347335 0.160322 0.646554
877 2 0.0808349 0.229363 0.584985
879 4 0.0778785 0.220364 0.608125
1272 4 0.0787114 0.203358 0.618597
1270 2 0.102409 0.19665 0.622912
1271 4 0.126106 0.189943 0.627227
909 4 0.134154 0.206919 0.636173
907 2 0.158819 0.205049 0.639819
908 4 0.183485 0.203178 0.643465
947 4 0.202691 0.224008 0.623885
796 2 0.254822 0.210743 0.585711
798 4 0.263834 0.233952 0.588017
1141 2 0.367441 0.173855 0.652701
1143 4 0.387547 0.187388 0.658848
1025 4 0.406796 0.182004 0.653143
905 4 0.467385 0.244793 0.594108
904 2 0.491767 0.239254 0.593928
1026 4 0.431213 0.177079 0.609782
1024 2 0.419004 0.179541 0.631463
953 4 0.467034 0.254842 0.610984
1245 4 0.0224578 0.297487 0.662996
948 4 0.194763 0.273258 0.627401
946 2 0.198727 0.248633 0.625643
1238 4 0.263911 0.30543 0.584605
792 4 0.261866 0.299558 0.604615
791 4 0.248682 0.272834 0.644773
790 2 0.255274 0.286196 0.624694
952 2 0.453889 0.275616 0.606422
954 4 0.440743 0.296391 0.601861
3121 2 0.498422 0.266503 0.645208
3123 4 0.490591 0.278802 0.624896
983 4 0.0287311 0.387173 0.638938
1039 2 0.0709821 0.398635 0.631148
1041 4 0.0466892 0.395514 0.636177
982 2 0.0052866 0.378485 0.639141
1040 4 0.095275 0.401755 0.626119
1135 2 0.115236 0.382617 0.593242
1136 4 0.104061 0.399812 0.607546
993 4 0.102353 0.414415 0.639377
991 2 0.125516 0.412932 0.648673
992 4 0.14868 0.411448 0.657969
1204 2 0.40815 0.352233 0.591206
1205 4 0.412343 0.342249 0.613743
2170 2 0.125756 0.489909 0.647328
2172 4 0.121223 0.467168 0.65668
1160 4 0.198635 0.435733 0.589079
1159 2 0.197876 0.460243 0.584193
1161 4 0.197117 0.484753 0.579307
1187 4 0.266137 0.486558 0.589621
890 4 0.303832 0.429796 0.602745
889 2 0.306565 0.451466 0.590576
1186 2 0.253475 0.496344 0.608832
1909 2 0.447212 0.491466 0.587091
1910 4 0.450144 0.466635 0.58714
2317 2 0.999746 0.0159444 0.702141
2319 4 0.0196132 0.0306223 0.706018
943 2 0.0434172 0.0373021 0.6701
944 4 0.053042 0.0409917 0.69288
1075 2 0.0483588 0.047803 0.730749
1076 4 0.0386786 0.041876 0.70847
1005 4 0.355682 0.0335994 0.672297
1163 4 0.482401 0.065575 0.70181
42 3 0.468706 0.0583226 0.688172
1106 4 0.0858842 0.166934 0.717967
1282 2 0.201648 0.0962385 0.675613
1284 4 0.214669 0.10333 0.695746
1227 4 0.216148 0.117518 0.709138
1225 2 0.212638 0.121468 0.733577
1211 4 0.253143 0.12519 0.675596
886 2 0.289143 0.133443 0.694409
887 4 0.305118 0.13685 0.713339
830 4 0.311905 0.154388 0.717548
1209 4 0.0951363 0.237355 0.672671
1105 2 0.0643277 0.178371 0.712519
1107 4 0.0427711 0.189809 0.707071
851 4 0.0226942 0.18884 0.704214
852 4 0.00672795 0.235822 0.698009
850 2 0.0147111 0.212331 0.701112
35 3 0.0934035 0.167619 0.736152
822 4 0.142902 0.220895 0.725802
820 2 0.123789 0.234086 0.716536
821 4 0.104675 0.247276 0.70727
1278 4 0.159713 0.2231 0.738361
829 2 0.330143 0.171479 0.718227
976 2 0.286455 0.190639 0.74772
977 4 0.296624 0.213444 0.746405
978 4 0.276286 0.167835 0.749034
831 4 0.348381 0.18857 0.718907
1193 4 0.369408 0.249646 0.680524
1192 2 0.388327 0.241054 0.694433
1194 4 0.407245 0.232461 0.708341
1262 4 0.425507 0.227168 0.701574
3356 4 0.486825 0.206419 0.710618
3355 2 0.496598 0.224439 0.696301
1261 2 0.441631 0.210697 0.711263
1263 4 0.457756 0.194226 0.720952
1145 4 0.474753 0.190467 0.709869
1144 2 0.484917 0.182103 0.731127
1244 4 0.0712615 0.303362 0.672182
1207 2 0.07706 0.253727 0.678181
1214 4 0.996504 0.241538 0.763262
1243 2 0.0468596 0.300425 0.667589
1179 4 0.0102228 0.280969 0.664682
1208 4 0.0589837 0.2701 0.683692
1064 4 0.231546 0.253693 0.716465
1063 2 0.238692 0.27147 0.7004
1065 4 0.245838 0.289246 0.684334
806 4 0.404048 0.279421 0.715548
805 2 0.414423 0.30216 0.714861
807 4 0.424798 0.324899 0.714173
892 2 0.0743426 0.419731 0.689434
1280 4 0.0396277 0.407071 0.732204
3275 4 0.0496051 0.394837 0.744104
894 4 0.0851639 0.39798 0.683519
942 4 0.138741 0.407191 0.745809
940 2 0.149244 0.413753 0.724088
1068 4 0.220647 0.395525 0.68752
1066 2 0.196732 0.402331 0.690144
1028 4 0.233832 0.40911 0.694793
1140 4 0.328612 0.397305 0.713712
1138 2 0.30782 0.409123 0.706418
1018 2 0.415369 0.360687 0.737866
1020 4 0.423366 0.344816 0.720278
3330 4 0.496334 0.410323 0.719507
1281 4 0.0347036 0.45674 0.735278
1279 2 0.0371656 0.431905 0.733741
1983 4 0.0424912 0.473731 0.74153
2021 4 0.0434366 0.488199 0.703251
893 4 0.0635213 0.441481 0.695349
941 4 0.159748 0.420315 0.702367
1175 4 0.241848 0.503612 0.694661
1067 4 0.172816 0.409138 0.692768
1027 2 0.256865 0.415552 0.687501
1029 4 0.279898 0.421993 0.680208
1139 4 0.287028 0.420942 0.699125
1987 2 0.322244 0.473719 0.74011
1989 4 0.331116 0.452511 0.730276
1988 4 0.313373 0.494927 0.749944
1229 4 0.341895 0.435892 0.733531
1228 2 0.36664 0.432951 0.735583
1230 4 0.391385 0.43001 0.737634
1268 4 0.431425 0.503699 0.669537
1100 4 0.457998 0.482907 0.738867
1099 2 0.479127 0.493859 0.731201
3329 4 0.450853 0.430465 0.714363
3328 2 0.473594 0.420394 0.716935
1203 4 0.0731556 0.0567312 0.765201
1077 4 0.0580391 0.05373 0.753028
864 4 0.0444934 0.0736023 0.797901
911 4 0.0522537 0.0797927 0.815838
1201 2 0.0915608 0.0402156 0.768898
1202 4 0.109966 0.0237001 0.772594
2049 4 0.105773 0.0122387 0.787942
1148 4 0.21139 0.070121 0.753307
1147 2 0.217214 0.0770809 0.776605
1049 4 0.276184 0.0083276 0.790023
1048 2 0.288168 0.99908 0.809924
1256 4 0.317314 0.0695189 0.778305
1255 2 0.29268 0.0737819 0.777904
1050 4 0.300151 0.989833 0.829825
1257 4 0.268046 0.0780449 0.777502
1112 4 0.402064 0.0337171 0.795997
846 4 0.462966 0.0417565 0.802173
1113 4 0.451395 0.0255884 0.794915
1111 2 0.426729 0.0296527 0.795456
844 2 0.485994 0.0512362 0.799938
862 2 0.0372287 0.0950842 0.787369
832 2 0.0206551 0.158236 0.779697
863 4 0.0299639 0.116566 0.776837
833 4 0.0280313 0.1353 0.786384
33 3 0.0801607 0.159238 0.770387
31 1 0.0988923 0.165363 0.758139
32 3 0.114885 0.148972 0.760313
1149 4 0.223039 0.0840408 0.799903
1226 4 0.209127 0.125419 0.758016
1130 4 0.199249 0.140471 0.767341
840 4 0.217218 0.141525 0.805561
1129 2 0.190163 0.162115 0.775952
838 2 0.242102 0.139619 0.807084
839 4 0.266986 0.137712 0.808606
959 4 0.269433 0.144425 0.827326