ITEM: TIMESTEP
1910000
ITEM: NUMBER OF ATOMS
4590
ITEM: BOX BOUNDS pp pp pp
-9.9985700000000008e+00 9.9985700000000008e+00
-9.9985700000000008e+00 9.9985700000000008e+00
-9.9985700000000008e+00 9.9985700000000008e+00
ITEM: ATOMS id type xs ys zs
1668 4 0.0805203 0.0404153 0.0470465
1666 2 0.0688579 0.0279899 0.0653434
1667 4 0.0571956 0.0155644 0.0836404
566 4 0.167132 0.0223847 0.0666184
565 2 0.181962 0.0414691 0.0602148
567 4 0.196793 0.0605536 0.0538112
492 4 0.268166 0.0166371 0.0512071
1475 4 0.270696 0.0219194 0.0706317
490 2 0.263848 0.025931 0.0284002
491 4 0.25953 0.0352249 0.00559323
2264 4 0.296948 0.0529942 0.0044928
2144 4 0.364859 0.000581521 0.998308
745 2 0.469514 0.0552407 0.016406
2724 4 0.490751 0.047212 0.0676308
747 4 0.491898 0.0651616 0.0214747
2722 2 0.473453 0.0643769 0.0732274
746 4 0.447129 0.0453198 0.0113373
463 2 0.0728481 0.0823847 0.00929504
465 4 0.0697238 0.103856 0.0217215
701 4 0.0515224 0.111695 0.0188683
700 2 0.0510433 0.136629 0.0206657
702 4 0.0505642 0.161563 0.022463
358 2 0.218428 0.158443 0.0271688
359 4 0.241778 0.150307 0.0308738
665 4 0.35134 0.170195 0.0141899
555 4 0.0408267 0.179703 0.0240383
553 2 0.0393197 0.200588 0.0103728
554 4 0.0378127 0.221472 0.996707
422 4 0.0940569 0.205057 0.0304777
421 2 0.0937472 0.186255 0.013999
360 4 0.195077 0.166579 0.0234639
1133 4 0.193094 0.169156 0.00366727
737 4 0.223778 0.236802 0.0511997
736 2 0.222699 0.21332 0.0597183
354 4 0.238734 0.179391 0.0708917
738 4 0.221619 0.189837 0.0682369
1069 2 0.405723 0.244615 0.00665591
664 2 0.337124 0.187856 0.00364676
254 4 0.395744 0.233233 0.0796724
323 4 0.427694 0.247134 0.0456834
2807 4 0.0155707 0.292269 0.0177964
2806 2 0.00142241 0.303804 0.0348826
292 2 0.165068 0.317533 0.0555105
506 4 0.218504 0.250223 0.0389622
507 4 0.202452 0.296484 0.0491069
293 4 0.182556 0.302048 0.0465883
505 2 0.210478 0.273354 0.0440345
481 2 0.300699 0.293696 0.0100568
482 4 0.315049 0.31152 0.020136
1071 4 0.39381 0.253434 0.0267922
573 4 0.375847 0.261281 0.0208581
571 2 0.366478 0.279578 0.0350925
572 4 0.357109 0.297875 0.0493269
741 4 0.352579 0.285928 0.0784945
324 4 0.467218 0.277524 0.0418114
322 2 0.447456 0.262329 0.0437474
315 4 0.0618153 0.39952 0.0775904
313 2 0.0459802 0.41373 0.0644559
294 4 0.147581 0.333017 0.0644328
456 4 0.131736 0.344421 0.0581561
454 2 0.13114 0.368627 0.0643921
455 4 0.130545 0.392833 0.0706282
608 4 0.239609 0.374548 0.0614771
607 2 0.233696 0.356785 0.0780504
252 4 0.259551 0.377575 0.0579522
250 2 0.277826 0.393492 0.0518021
251 4 0.296102 0.409409 0.045652
524 4 0.302235 0.407866 0.0649254
226 2 0.390771 0.393665 0.0308984
228 4 0.386833 0.417957 0.0353229
227 4 0.394709 0.369373 0.026474
670 2 0.412594 0.365844 0.0806542
1305 4 0.399662 0.363951 0.00898236
671 4 0.422996 0.374888 0.059793
281 4 0.431144 0.362157 0.0466489
280 2 0.453412 0.350834 0.045588
282 4 0.475679 0.339511 0.0445271
104 3 0.480525 0.33521 0.0640206
1045 2 0.490713 0.33348 0.00874933
1047 4 0.492895 0.33519 0.0335988
552 4 0.0166366 0.441055 0.0449921
314 4 0.0301451 0.427939 0.0513213
793 2 0.163349 0.481257 0.00518193
795 4 0.167421 0.456633 0.00668297
244 2 0.243974 0.476577 0.008287
243 4 0.224861 0.485591 0.0493197
245 4 0.229539 0.456314 0.00579368
1440 4 0.238719 0.482589 0.0702068
1290 4 0.229155 0.436911 0.00164193
241 2 0.201707 0.492415 0.0427971
523 2 0.322552 0.422409 0.0639684
271 2 0.269936 0.493251 0.0569093
272 4 0.258227 0.488458 0.0784754
37 3 0.34726 0.461863 0.0157552
525 4 0.342869 0.436951 0.0630114
494 4 0.433048 0.425412 0.0779497
1422 4 0.0237069 0.00288413 0.153575
2480 4 0.0137742 0.00616034 0.132924
18 3 0.0671679 0.0260814 0.132986
16 1 0.0547355 0.00975677 0.122153
19 3 0.0353457 0.00533274 0.134106
590 4 0.00927493 0.0820012 0.0882842
17 3 0.048993 0.0174354 0.101243
652 2 0.232142 0.0510266 0.151884
654 4 0.235427 0.0471426 0.127404
1474 2 0.269951 0.0226958 0.0956121
1476 4 0.269207 0.0234723 0.120593
296 4 0.385914 0.0634899 0.095191
297 4 0.359592 0.0212026 0.0907636
295 2 0.372753 0.0423462 0.0929773
557 4 0.396575 0.0763642 0.105022
484 2 0.354402 0.00167849 0.127207
485 4 0.356565 0.00381129 0.102388
2723 4 0.456155 0.0815418 0.0788239
1759 2 0.465398 8.65766e-05 0.135477
1760 4 0.487693 0.0111682 0.133171
2744 4 0.49234 0.0296178 0.139407
235 2 0.108892 0.149921 0.153677
236 4 0.118173 0.128903 0.163542
758 4 0.347489 0.104607 0.162607
556 2 0.412748 0.0954157 0.105827
771 4 0.445221 0.119577 0.116102
558 4 0.428921 0.114467 0.106632
769 2 0.454819 0.142639 0.117197
338 4 0.0720901 0.243241 0.142573
237 4 0.0996112 0.170938 0.143813
476 4 0.202372 0.202417 0.161068
477 4 0.200034 0.21047 0.111769
475 2 0.201203 0.206444 0.136419
352 2 0.25105 0.175995 0.0923849
353 4 0.263366 0.172598 0.113878
461 4 0.279739 0.184521 0.110558
460 2 0.300298 0.198013 0.115086
462 4 0.320856 0.211505 0.119614
755 4 0.307145 0.251337 0.120434
279 4 0.269079 0.251152 0.166475
630 4 0.407836 0.228563 0.0968858
770 4 0.464417 0.165702 0.118292
628 2 0.420424 0.230831 0.11837
624 4 0.427375 0.233275 0.160037
629 4 0.433013 0.233098 0.139854
337 2 0.0521152 0.256419 0.14982
339 4 0.0321402 0.269597 0.157067
612 4 0.24027 0.329493 0.10762
610 2 0.24533 0.306251 0.115325
611 4 0.25039 0.283008 0.12303
278 4 0.294212 0.265557 0.125713
277 2 0.281645 0.258355 0.146094
754 2 0.329342 0.258345 0.111306
739 2 0.351428 0.309738 0.086039
740 4 0.350276 0.333549 0.0935836
253 2 0.378947 0.251548 0.0824249
255 4 0.362149 0.269863 0.0851774
756 4 0.35154 0.265354 0.102177
596 4 0.387849 0.305786 0.164022
595 2 0.385731 0.3307 0.163916
619 2 0.0731162 0.386012 0.116228
621 4 0.0606726 0.396317 0.0971452
647 4 0.0742716 0.385118 0.148782
620 4 0.0855597 0.375706 0.13531
537 4 0.1054 0.380452 0.125732
535 2 0.129781 0.384345 0.121782
536 4 0.154161 0.388237 0.117832
609 4 0.227782 0.339022 0.0946237
386 4 0.331379 0.338703 0.0976645
387 4 0.34233 0.376627 0.128365
385 2 0.336854 0.357665 0.113015
302 4 0.34438 0.392239 0.14601
12 3 0.389585 0.361795 0.119332
11 1 0.384997 0.378857 0.134063
15 3 0.362448 0.381756 0.135396
672 4 0.402193 0.356799 0.101515
14 3 0.395039 0.39831 0.126372
495 4 0.407567 0.410109 0.118164
13 3 0.393506 0.373259 0.154911
597 4 0.383612 0.355613 0.16381
301 2 0.348618 0.413264 0.158861
626 4 0.182254 0.444802 0.131715
1438 2 0.227681 0.480028 0.0924953
625 2 0.199589 0.451179 0.148567
1439 4 0.216643 0.477467 0.114784
638 4 0.221512 0.473687 0.15343
637 2 0.235819 0.491464 0.16365
627 4 0.216924 0.457557 0.16542
1559 4 0.311152 0.490306 0.0991694
493 2 0.420308 0.41776 0.098057
1583 4 0.483832 0.485446 0.111272
1582 2 0.466366 0.497444 0.0979991
1420 2 0.0228368 0.00551437 0.178425
1421 4 0.0219667 0.00814462 0.203275
690 4 0.15978 0.00649498 0.232981
688 2 0.174983 0.999702 0.214329
653 4 0.228858 0.0549106 0.176365
693 4 0.244236 0.0506608 0.188421
691 2 0.267974 0.0472176 0.195478
692 4 0.291713 0.0437744 0.202536
1699 2 0.31138 0.0594557 0.229751
1701 4 0.29067 0.0472849 0.222813
1700 4 0.332091 0.0716265 0.236688
21 1 0.365138 0.0726377 0.239075
25 3 0.364191 0.0673477 0.216945
511 2 0.0220735 0.121738 0.228218
578 4 0.0556331 0.144278 0.232235
513 4 0.046158 0.12632 0.23313
318 4 0.0708052 0.106385 0.254832
449 4 0.136564 0.137581 0.168009
448 2 0.145463 0.118165 0.181008
450 4 0.154362 0.0987485 0.194008
28 3 0.235109 0.136845 0.171195
27 3 0.221245 0.126636 0.204605
26 1 0.240596 0.131098 0.192996
580 2 0.293103 0.113051 0.190607
581 4 0.270746 0.117409 0.20092
30 3 0.25382 0.112557 0.19305
582 4 0.315459 0.108693 0.180293
29 3 0.251628 0.148722 0.203296
23 3 0.345331 0.0827835 0.245645
759 4 0.360635 0.0838667 0.20617
24 3 0.383028 0.086869 0.243055
757 2 0.354062 0.094237 0.184388
311 4 0.454273 0.150847 0.195673
310 2 0.433365 0.161738 0.204005
577 2 0.0527722 0.169108 0.232948
529 2 0.0183651 0.219013 0.237426
530 4 0.0420797 0.211977 0.233782
579 4 0.0499114 0.193937 0.233661
372 4 0.144366 0.240401 0.185578
362 4 0.130581 0.255655 0.187348
370 2 0.160355 0.222714 0.193108
371 4 0.176344 0.205028 0.200639
402 4 0.238609 0.217728 0.248606
284 4 0.303548 0.22866 0.214296
283 2 0.290558 0.230919 0.193051
285 4 0.277569 0.233178 0.171806
765 4 0.416723 0.206523 0.245969
312 4 0.412457 0.172629 0.212337
763 2 0.43859 0.196123 0.252204
521 4 0.474652 0.178443 0.245867
520 2 0.49154 0.180254 0.227517
396 4 0.0496271 0.299974 0.215683
443 4 0.0618553 0.307968 0.228379
394 2 0.0599046 0.291922 0.194359
395 4 0.070182 0.28387 0.173035
363 4 0.0842007 0.269798 0.17512
361 2 0.107391 0.262727 0.181234
345 4 0.283448 0.337734 0.211748
622 2 0.43945 0.253141 0.169242
623 4 0.451524 0.273007 0.178446
527 4 0.447149 0.29222 0.180538
526 2 0.465264 0.307735 0.188042
528 4 0.483379 0.32325 0.195545
264 4 0.0446455 0.402495 0.216435
646 2 0.0896815 0.386791 0.168401
648 4 0.105091 0.388464 0.18802
300 4 0.0929555 0.377378 0.199023
298 2 0.108371 0.369883 0.217227
299 4 0.123787 0.362388 0.23543
343 2 0.293105 0.340723 0.234617
645 4 0.40604 0.359246 0.166907
447 4 0.40311 0.387063 0.218657
445 2 0.411447 0.401135 0.237569
643 2 0.41095 0.374632 0.185994
644 4 0.41586 0.390018 0.205082
2861 4 0.492738 0.408341 0.236798
108 3 0.494051 0.394402 0.221942
262 2 0.0329524 0.419962 0.229976
263 4 0.0212593 0.437429 0.243517
289 2 0.211263 0.427395 0.242855
417 4 0.190691 0.495012 0.187238
290 4 0.204704 0.4424 0.22396
416 4 0.189781 0.45466 0.21676
415 2 0.190236 0.474836 0.201999
303 4 0.352856 0.43429 0.171712
659 4 0.35044 0.453578 0.175696
658 2 0.354897 0.474692 0.188324
660 4 0.359355 0.495807 0.200953
231 4 0.367845 0.492727 0.219151
1403 4 0.0455231 0.00678387 0.274409
232 2 0.0411153 0.0394025 0.289691
234 4 0.0511669 0.0614424 0.295886
317 4 0.0466898 0.0686795 0.277136
233 4 0.0310638 0.0173625 0.283495
674 4 0.151736 0.010599 0.25174
673 2 0.137042 0.023864 0.267015
675 4 0.122349 0.0371289 0.28229
723 4 0.222432 0.074629 0.260382
1406 4 0.208441 0.00640825 0.298662
684 4 0.265107 0.0410404 0.334788
22 3 0.368066 0.0534015 0.251345
698 4 0.385592 0.057295 0.263048
697 2 0.384966 0.0344702 0.273237
699 4 0.38434 0.0116455 0.283426
333 4 0.392546 0.0756841 0.258365
331 2 0.414023 0.0846739 0.267481
743 4 0.469131 0.0280658 0.271926
742 2 0.480179 0.00569775 0.270258
351 4 0.479611 0.0426603 0.263219
349 2 0.4659 0.062631 0.269412
350 4 0.452189 0.0826016 0.275606
316 2 0.0587475 0.0875321 0.265984
393 4 0.126705 0.128976 0.325042
399 4 0.110912 0.122904 0.334922
391 2 0.135418 0.143069 0.306317
392 4 0.144132 0.157163 0.287592
545 4 0.14939 0.148411 0.270935
546 4 0.194799 0.141414 0.251191
721 2 0.20957 0.0952806 0.266147
722 4 0.196707 0.115932 0.271912
544 2 0.172095 0.144912 0.261063
599 4 0.199198 0.127903 0.297368
404 4 0.208951 0.130199 0.280178
598 2 0.185713 0.120657 0.317138
403 2 0.228856 0.144647 0.275678
405 4 0.248761 0.159094 0.271178
762 4 0.418579 0.129742 0.297651
332 4 0.4355 0.0936636 0.276597
761 4 0.466099 0.126874 0.312959
760 2 0.442339 0.128308 0.305305
401 4 0.240547 0.168109 0.254511
400 2 0.239578 0.192919 0.251559
764 4 0.460456 0.185723 0.25844
442 2 0.0655736 0.30171 0.2523
444 4 0.069292 0.295453 0.276221
496 2 0.332389 0.284882 0.315707
309 4 0.298997 0.327228 0.265952
307 2 0.311539 0.332274 0.286986
498 4 0.317494 0.276481 0.333948
497 4 0.347284 0.293283 0.297465
613 2 0.41066 0.332781 0.314495
541 2 0.452516 0.288799 0.307634
542 4 0.466366 0.275441 0.291668
615 4 0.429704 0.316594 0.31519
543 4 0.438666 0.302157 0.3236
749 4 0.0611909 0.349699 0.275212
365 4 0.00339396 0.349082 0.311657
364 2 0.0228843 0.348262 0.296016
366 4 0.0423746 0.347441 0.280375
748 2 0.0844892 0.354297 0.267387
735 4 0.16035 0.362735 0.289347
734 4 0.129764 0.349985 0.251895
750 4 0.107788 0.358894 0.259563
733 2 0.145057 0.35636 0.270621
602 4 0.118589 0.391837 0.319269
777 4 0.116051 0.406795 0.30463
676 2 0.167037 0.377525 0.325954
677 4 0.171396 0.373566 0.301654
414 4 0.231301 0.417264 0.277473
291 4 0.217823 0.41239 0.26175
412 2 0.240753 0.413186 0.300259
413 4 0.250205 0.409108 0.323045
344 4 0.302763 0.343712 0.257486
727 2 0.327968 0.379682 0.315375
728 4 0.325513 0.40417 0.319786
308 4 0.324082 0.33732 0.308019
729 4 0.330423 0.355193 0.310964
434 4 0.33696 0.423022 0.311739
614 4 0.391616 0.348968 0.313801
2924 4 0.498728 0.388088 0.315157
446 4 0.419783 0.415208 0.256481
1757 4 0.115247 0.464491 0.305048
776 4 0.101533 0.453971 0.296606
775 2 0.108792 0.430383 0.300618
1756 2 0.12268 0.485375 0.29348
1436 4 0.238536 0.492534 0.327441
768 4 0.195895 0.480849 0.27141
1545 4 0.218199 0.490981 0.328807
2 3 0.315065 0.423768 0.315335
1435 2 0.255675 0.476536 0.318753
438 4 0.301141 0.484846 0.264968
437 4 0.293334 0.457394 0.306031
436 2 0.297238 0.47112 0.285499
1437 4 0.272813 0.460537 0.310064
5 3 0.281263 0.439588 0.315581
1 1 0.297994 0.43144 0.328709
433 2 0.36111 0.428544 0.315122
435 4 0.385261 0.434065 0.318505
714 4 0.409551 0.426424 0.269232
713 4 0.436725 0.44409 0.307313
712 2 0.423138 0.435257 0.288272
429 4 0.0709835 0.000277094 0.375991
428 4 0.0457033 0.0428778 0.36915
427 2 0.0583434 0.0215774 0.37257
731 4 0.0920961 0.0619876 0.421264
606 4 0.159789 0.0370278 0.396183
730 2 0.104466 0.0727109 0.402365
604 2 0.17083 0.0335117 0.374027
605 4 0.181871 0.0299956 0.35187
683 4 0.233833 0.0314664 0.372616
682 2 0.24947 0.0362534 0.353702
1749 4 0.491003 0.00913568 0.351229
1747 2 0.467162 0.00167823 0.350144
424 2 0.437721 0.0437116 0.381991
426 4 0.445025 0.06529 0.371686
425 4 0.430416 0.0221333 0.392296
258 4 0.457522 0.0710496 0.358005
732 4 0.116836 0.0834341 0.383466
398 4 0.126634 0.0978541 0.375246
397 2 0.118773 0.110379 0.355084
686 4 0.174278 0.138401 0.393996
600 4 0.172229 0.113412 0.336908
685 2 0.171933 0.122697 0.374681
687 4 0.169588 0.106993 0.355366
321 4 0.246408 0.0796627 0.389255
249 4 0.315515 0.0763301 0.35742
410 4 0.271447 0.149768 0.398676
409 2 0.251299 0.161702 0.40744
319 2 0.257629 0.0908308 0.408608
707 4 0.271735 0.152006 0.349776
247 2 0.339313 0.08391 0.356242
248 4 0.363111 0.0914899 0.355064
633 4 0.379634 0.099522 0.36122
632 4 0.406823 0.141208 0.356349
631 2 0.393229 0.120365 0.358785
420 4 0.393838 0.155299 0.362467
257 4 0.479099 0.115287 0.349158
256 2 0.46831 0.0931681 0.353581
616 2 0.0254485 0.242936 0.386694
274 2 0.166587 0.235843 0.349888
390 4 0.087763 0.248153 0.368969
389 4 0.137201 0.248855 0.36148
388 2 0.112482 0.248504 0.365224
473 4 0.240665 0.195947 0.342411
275 4 0.178753 0.215247 0.342609
474 4 0.192152 0.202993 0.352287
472 2 0.216408 0.19947 0.347349
411 4 0.231151 0.173636 0.416205
708 4 0.260314 0.20004 0.341839
489 4 0.257636 0.242374 0.403173
706 2 0.266024 0.176023 0.345807
717 4 0.317836 0.234622 0.389885
418 2 0.378124 0.174532 0.365352
419 4 0.362411 0.193766 0.368237
716 4 0.358079 0.213459 0.369069
715 2 0.337958 0.22404 0.379477
515 4 0.463296 0.169411 0.368208
514 2 0.450417 0.167343 0.38954
617 4 0.04824 0.253154 0.387839
276 4 0.154421 0.256438 0.357167
695 4 0.0988623 0.288427 0.412955
488 4 0.25141 0.283115 0.374852
377 4 0.316838 0.251192 0.380222
487 2 0.254523 0.262745 0.389013
510 4 0.265576 0.332585 0.34278
508 2 0.267075 0.310772 0.35491
509 4 0.268575 0.288959 0.367039
376 2 0.309302 0.267126 0.362487
378 4 0.301766 0.283059 0.344753
267 4 0.336369 0.337411 0.344692
265 2 0.344473 0.319124 0.359694
266 4 0.352578 0.300837 0.374697
585 4 0.360082 0.290836 0.390972
583 2 0.37934 0.282577 0.404613
2456 4 0.417994 0.274066 0.41075
270 4 0.495915 0.26511 0.38611
306 4 0.498261 0.260337 0.405858
269 4 0.45283 0.280725 0.366096
268 2 0.474372 0.272918 0.376103
2493 4 0.0129767 0.35362 0.328478
2491 2 0.00112611 0.371504 0.341321
547 2 0.0695057 0.412454 0.37453
549 4 0.0880225 0.399888 0.363376
601 2 0.103691 0.386521 0.338634
603 4 0.0887939 0.381206 0.357999
678 4 0.162679 0.381483 0.350255
710 4 0.14606 0.409223 0.409668
374 4 0.247714 0.34186 0.338463
502 2 0.192518 0.397854 0.371479
504 4 0.196723 0.374082 0.364966
373 2 0.227106 0.355132 0.343396
375 4 0.206498 0.368404 0.348329
559 2 0.491016 0.41002 0.41728
548 4 0.0509889 0.425019 0.385684
407 4 0.0440712 0.430486 0.405096
406 2 0.044029 0.454923 0.399804
408 4 0.0439869 0.47936 0.394512
503 4 0.188313 0.421625 0.377993
636 4 0.198148 0.423915 0.395418
634 2 0.193822 0.442603 0.411455
3 3 0.290083 0.413848 0.341606
668 4 0.305892 0.441365 0.361524
4 3 0.306194 0.448259 0.34243
667 2 0.319004 0.434394 0.381641
669 4 0.332115 0.427424 0.401758
753 4 0.482124 0.439478 0.333886
561 4 0.477317 0.421134 0.399559
752 4 0.482356 0.430586 0.383096
751 2 0.48224 0.435032 0.358491
718 2 0.0432233 0.0563048 0.490464
719 4 0.0670534 0.0553234 0.482958
369 4 0.0868197 0.0564285 0.481859
367 2 0.09506 0.0547059 0.458315
368 4 0.1033 0.0529833 0.434772
2430 4 0.221002 0.0758645 0.447004
2428 2 0.22839 0.0540493 0.437272
2429 4 0.235777 0.0322341 0.427541
441 4 0.234545 0.0139199 0.436238
950 4 0.238395 0.0619789 0.497717
726 4 0.289315 0.0838323 0.480702
432 4 0.304624 0.069601 0.48314
430 2 0.328003 0.0723739 0.491562
2879 4 0.47754 0.0206559 0.435863
2878 2 0.473459 0.045279 0.434372
2880 4 0.469377 0.069902 0.432881
642 4 0.482003 0.0829665 0.441333
2584 2 0.0064412 0.0843617 0.429506
2586 4 0.0248699 0.0941609 0.443274
341 4 0.209261 0.0862734 0.458079
340 2 0.206696 0.109894 0.465867
1152 4 0.188786 0.126775 0.486607
342 4 0.204131 0.133515 0.473655
320 4 0.26885 0.101999 0.427962
724 2 0.286674 0.0963503 0.459219
725 4 0.284033 0.108868 0.437736
467 4 0.342719 0.0998819 0.43481
466 2 0.366617 0.106837 0.432424
468 4 0.390515 0.113792 0.430038
641 4 0.493936 0.116014 0.476916
576 4 0.425361 0.131295 0.4674
640 2 0.487969 0.0994903 0.459124
574 2 0.428263 0.140691 0.444411
575 4 0.431165 0.150087 0.421423
469 2 0.080209 0.232074 0.451321
470 4 0.0666588 0.251112 0.442424
471 4 0.0937592 0.213037 0.460218
260 4 0.0860314 0.195044 0.456198
259 2 0.0992849 0.185691 0.475225
650 4 0.243288 0.188674 0.425077
651 4 0.248711 0.238227 0.421099
649 2 0.245999 0.21345 0.423088
516 4 0.437539 0.165276 0.410872
348 4 0.996557 0.307249 0.466782
2814 4 0.015981 0.311917 0.469131
2812 2 0.0131468 0.331155 0.484849
694 2 0.113663 0.292064 0.432777
696 4 0.128465 0.295701 0.452598
1260 4 0.146675 0.287681 0.450428
1258 2 0.168503 0.279334 0.459317
1259 4 0.190332 0.270986 0.468206
584 4 0.398598 0.274317 0.418254
2457 4 0.453507 0.304623 0.428238
2455 2 0.435751 0.289345 0.419494
326 4 0.0625729 0.372334 0.450626
2813 4 0.0103126 0.350393 0.500567
10 3 0.132586 0.334996 0.453474
709 2 0.157072 0.391868 0.423906
325 2 0.0866135 0.372754 0.457485
7 3 0.125669 0.365665 0.473584
327 4 0.110654 0.373174 0.464345
6 1 0.14216 0.352647 0.464217
8 3 0.154207 0.365513 0.449125
9 3 0.156166 0.345011 0.481067
711 4 0.168084 0.374513 0.438144
334 2 0.353645 0.409385 0.428817
335 4 0.364274 0.389191 0.439034
238 2 0.369494 0.383394 0.476411
240 4 0.375496 0.377875 0.452774
1382 4 0.0427563 0.463596 0.475503
1381 2 0.0236461 0.467439 0.459844
1383 4 0.00453596 0.471283 0.444185
540 4 0.0604698 0.456294 0.481471
538 2 0.0648886 0.470618 0.501483
570 4 0.139435 0.423955 0.423177
384 4 0.128924 0.472401 0.465995
772 2 0.15251 0.475342 0.438377
382 2 0.136663 0.469927 0.489641
773 4 0.135175 0.486139 0.452803
568 2 0.117008 0.43238 0.430332
569 4 0.0945798 0.440805 0.437487
635 4 0.189496 0.461292 0.427493
774 4 0.169844 0.464545 0.423951
1401 4 0.312905 0.452573 0.491386
1399 2 0.326531 0.470738 0.480919
588 4 0.33858 0.494575 0.45045
1400 4 0.340157 0.488902 0.470453
336 4 0.343016 0.42958 0.4186
1126 2 0.00669477 0.0501753 0.532229
1127 4 0.0203381 0.0637819 0.516294
720 4 0.0193931 0.0572861 0.49797
951 4 0.198981 0.0388021 0.517967
1031 4 0.183815 0.027809 0.524396
1030 2 0.174732 0.030785 0.547501
949 2 0.218688 0.0503905 0.507842
1032 4 0.165649 0.033761 0.570605
1182 4 0.251775 0.0643177 0.511614
961 2 0.303268 0.026742 0.551684
1180 2 0.275353 0.0560485 0.512555
963 4 0.30472 0.0363773 0.528657
1181 4 0.298931 0.0477793 0.513496
962 4 0.301816 0.0171067 0.57471
841 2 0.369079 0.0430572 0.510698
843 4 0.348008 0.0551318 0.504749
842 4 0.39015 0.0309827 0.516646
1217 4 0.407813 0.022637 0.521752
431 4 0.351382 0.0751468 0.499984
1218 4 0.428745 0.0525531 0.555922
1216 2 0.418279 0.037595 0.538837
1034 4 0.0857808 0.149206 0.51866
939 4 0.148451 0.145433 0.532867
937 2 0.133556 0.163402 0.523899
1151 4 0.160896 0.129425 0.52803
1150 2 0.174841 0.1281 0.507318
857 4 0.297654 0.146028 0.577737
899 4 0.317511 0.141907 0.581787
856 2 0.282909 0.166196 0.578745
898 2 0.335938 0.151431 0.567826
900 4 0.354365 0.160955 0.553865
872 4 0.361944 0.163079 0.536049
1033 2 0.0763037 0.171295 0.525548
1035 4 0.0668267 0.193384 0.532435
1082 4 0.0529458 0.206493 0.537475
1081 2 0.0471184 0.203432 0.561597
1083 4 0.041291 0.20037 0.585718
938 4 0.118661 0.181372 0.514932
261 4 0.112538 0.176338 0.494253
797 4 0.25946 0.200652 0.56782
811 2 0.323433 0.23183 0.535268
812 4 0.300568 0.241841 0.533799
796 2 0.275344 0.217573 0.558516
798 4 0.291227 0.234494 0.549212
813 4 0.346297 0.22182 0.536737
873 4 0.359385 0.212039 0.526197
871 2 0.360664 0.187559 0.531123
904 2 0.45241 0.237068 0.57148
878 4 0.087852 0.275445 0.57
954 4 0.411141 0.310022 0.569931
905 4 0.441623 0.25682 0.560587
952 2 0.428386 0.291921 0.569576
953 4 0.445632 0.27382 0.569222
1135 2 0.153072 0.400623 0.543589
1137 4 0.160837 0.377369 0.5485
896 4 0.213663 0.344836 0.547335
1191 4 0.226339 0.341149 0.534409
897 4 0.165244 0.357333 0.547653
895 2 0.189453 0.351085 0.547494
1189 2 0.247327 0.34865 0.523075
1190 4 0.268314 0.35615 0.511742
803 4 0.28017 0.371329 0.505211
802 2 0.301789 0.367127 0.51705
804 4 0.323407 0.362925 0.528888
929 4 0.327592 0.373364 0.5455
928 2 0.346702 0.371188 0.561477
930 4 0.365812 0.369012 0.577453
239 4 0.363491 0.388913 0.500048
925 2 0.456826 0.3907 0.532818
927 4 0.463107 0.391761 0.50864
1001 4 0.462832 0.399903 0.569963
926 4 0.450545 0.389639 0.556997
2712 4 0.480606 0.389567 0.498667
539 4 0.0693074 0.484942 0.521495
936 4 0.00739238 0.450686 0.56124
1136 4 0.145308 0.423878 0.538679
383 4 0.144401 0.467454 0.513288
2244 4 0.160844 0.486484 0.541396
2242 2 0.169705 0.481654 0.564273
1173 4 0.235415 0.452249 0.58354
1171 2 0.251665 0.451977 0.56454
1172 4 0.267916 0.451706 0.545539
882 4 0.27929 0.467645 0.549535
880 2 0.29108 0.489687 0.548998
1059 4 0.0740225 0.0830698 0.586819
1185 4 0.0167278 0.0438094 0.653407
945 4 0.0374413 0.0410409 0.658782
825 4 0.0740541 0.0191964 0.611721
1057 2 0.0717605 0.059321 0.594306
1058 4 0.0694986 0.0355721 0.601793
1183 2 0.00108141 0.0587599 0.640883
2195 4 0.294425 0.00425426 0.588792
1005 4 0.314563 0.0347785 0.663514
1003 2 0.325702 0.0571635 0.663678
1004 4 0.33684 0.0795485 0.663842
2283 4 0.44567 0.00511994 0.601524
2282 4 0.45003 0.0308373 0.644189
2281 2 0.44785 0.0179786 0.622856
43 3 0.466649 0.0299398 0.656328
45 3 0.496177 0.050265 0.644813
41 1 0.481685 0.0466743 0.662009
44 3 0.470253 0.066253 0.666947
4467 4 0.433735 0.998286 0.58594
1155 4 0.0734703 0.102945 0.585031
1198 2 0.0164663 0.162497 0.584589
1200 4 0.000820287 0.143409 0.580584
1153 2 0.0971744 0.1106 0.587197
1154 4 0.120878 0.118255 0.589363
1221 4 0.131196 0.114736 0.60472
1219 2 0.131804 0.11713 0.629601
1220 4 0.132411 0.119525 0.654483
1283 4 0.149959 0.116811 0.663037
1212 4 0.234651 0.149911 0.622475
1210 2 0.250336 0.145696 0.641485
1211 4 0.266021 0.14148 0.660496
1199 4 0.0321123 0.181585 0.588593
879 4 0.0708215 0.242608 0.60365
1272 4 0.085256 0.235533 0.615175
1270 2 0.104508 0.220075 0.619125
1271 4 0.12376 0.204617 0.623075
909 4 0.143135 0.201036 0.625807
907 2 0.161335 0.218149 0.62685
908 4 0.179534 0.235262 0.627892
858 4 0.268163 0.186363 0.579752
1025 4 0.39466 0.210467 0.644346
1143 4 0.396797 0.204513 0.664955
1024 2 0.412099 0.206315 0.626915
906 4 0.463198 0.217316 0.582374
1026 4 0.429538 0.202163 0.609484
3123 4 0.454568 0.211058 0.669766
877 2 0.0793367 0.259027 0.586825
947 4 0.179693 0.253308 0.635235
946 2 0.17334 0.274844 0.646237
948 4 0.166988 0.296379 0.657239
1237 2 0.229041 0.331872 0.60188
1239 4 0.204052 0.332277 0.602625
792 4 0.261283 0.313015 0.602145
791 4 0.292324 0.291409 0.634861
790 2 0.276804 0.302212 0.618503
1205 4 0.411672 0.320376 0.58735
982 2 0.000705016 0.392487 0.63788
983 4 0.0197389 0.391573 0.654068
1041 4 0.0366341 0.402413 0.647454
1039 2 0.0558623 0.411279 0.634155
992 4 0.134003 0.410017 0.642617
991 2 0.1121 0.408095 0.630712
993 4 0.0901966 0.406173 0.618807
1238 4 0.25403 0.331467 0.601135
1206 4 0.377493 0.356828 0.589279
1204 2 0.394582 0.338602 0.588315
1000 2 0.455711 0.41662 0.587139
1040 4 0.0750905 0.420144 0.620856
2243 4 0.178566 0.476824 0.587149
1161 4 0.186748 0.463386 0.602906
1160 4 0.202534 0.433143 0.639469
1159 2 0.194641 0.448265 0.621187
890 4 0.320306 0.434899 0.638642
889 2 0.324545 0.459037 0.633687
891 4 0.328784 0.483175 0.628732
1187 4 0.314814 0.497343 0.623779
1952 4 0.343659 0.496089 0.631825
1911 4 0.410194 0.481255 0.589934
3330 4 0.494901 0.42006 0.671489
1910 4 0.449814 0.451029 0.594099
1002 4 0.448591 0.433337 0.604315
1909 2 0.430004 0.466142 0.592017
3328 2 0.491595 0.434612 0.651427
3329 4 0.48829 0.449165 0.631365
1268 4 0.43771 0.499781 0.66853
943 2 0.0482272 0.0509212 0.67906
944 4 0.0590131 0.0608015 0.699339
1075 2 0.0619006 0.0480424 0.738461
1076 4 0.0609704 0.046329 0.713533
2319 4 0.0447424 0.0148656 0.745083
2317 2 0.0210662 0.0131356 0.737233
2285 4 0.0599071 0.000987508 0.739722
1148 4 0.207024 0.0497198 0.7377
42 3 0.49349 0.0400624 0.680612
1163 4 0.489027 0.0505952 0.697957
1282 2 0.173059 0.120592 0.671829
1284 4 0.196158 0.124373 0.680622
1227 4 0.200053 0.127319 0.699815
1225 2 0.209502 0.147132 0.711788
1226 4 0.218951 0.166945 0.723761
888 4 0.266272 0.138225 0.680329
886 2 0.275744 0.135882 0.70335
887 4 0.285216 0.133539 0.726372
830 4 0.304596 0.131535 0.726443
829 2 0.327732 0.122055 0.726297
831 4 0.350869 0.112575 0.72615
1144 2 0.473941 0.169008 0.743112
1107 4 0.0288984 0.183836 0.731596
851 4 0.0190843 0.20011 0.723979
1105 2 0.0469996 0.175436 0.746662
850 2 0.00197376 0.215584 0.714337
1208 4 0.0794723 0.242518 0.716685
822 4 0.141038 0.240837 0.70794
1278 4 0.156805 0.237684 0.696633
820 2 0.118429 0.242435 0.718496
821 4 0.0958193 0.244032 0.729053
1276 2 0.175517 0.22913 0.710841
1130 4 0.234147 0.175987 0.731674
1277 4 0.194228 0.220576 0.72505
1129 2 0.220515 0.19659 0.735528
1131 4 0.206882 0.217193 0.739382
916 2 0.283601 0.221081 0.739927
918 4 0.274509 0.197974 0.742863
977 4 0.278618 0.179283 0.738267
917 4 0.292692 0.244187 0.736991
1141 2 0.372803 0.208785 0.670541
1142 4 0.348809 0.213057 0.676126
1194 4 0.408817 0.203003 0.747755
3121 2 0.478289 0.215674 0.676181
3122 4 0.502011 0.22029 0.682596
1262 4 0.414078 0.207945 0.729845
1145 4 0.460444 0.178179 0.724167
1261 2 0.433272 0.196464 0.718667
1263 4 0.452467 0.184983 0.707489
1243 2 0.0134718 0.314249 0.702596
1209 4 0.0530367 0.253513 0.675685
1207 2 0.0662545 0.248015 0.696185
1244 4 0.033135 0.326538 0.693241
1065 4 0.187926 0.276707 0.700508
1064 4 0.234933 0.266852 0.714434
1063 2 0.21143 0.27178 0.707471
1097 4 0.301453 0.260771 0.744749
1008 4 0.336009 0.254488 0.727161
805 2 0.413269 0.319913 0.746805
806 4 0.42437 0.298131 0.752049
3113 4 0.485213 0.331641 0.704236
893 4 0.0929227 0.369228 0.687663
892 2 0.0837557 0.390237 0.69765
894 4 0.0745887 0.411247 0.707638
941 4 0.157152 0.406601 0.719301
940 2 0.139887 0.415053 0.735291
1066 2 0.189584 0.400573 0.699262
1067 4 0.167623 0.393442 0.708857
1028 4 0.229969 0.414884 0.694917
1068 4 0.211544 0.407704 0.689668
1027 2 0.254323 0.414934 0.689257
1029 4 0.278678 0.414983 0.683598
807 4 0.402168 0.341694 0.74156
1279 2 0.0833145 0.434413 0.738527
1983 4 0.0336178 0.472245 0.751403
2021 4 0.049176 0.472446 0.738984
2020 2 0.0559304 0.49202 0.724969
1281 4 0.0895871 0.422193 0.717634
2172 4 0.164749 0.488673 0.68967
1139 4 0.291318 0.430264 0.68991
1138 2 0.307553 0.43324 0.708691
1140 4 0.323788 0.436217 0.727473
1989 4 0.315022 0.449402 0.741933
1229 4 0.335642 0.423488 0.73654
1228 2 0.355945 0.428263 0.750329
1250 4 0.482258 0.468512 0.746234
1100 4 0.484889 0.486795 0.738177
1077 4 0.0628308 0.0497559 0.763388
1203 4 0.0613284 0.0354662 0.777017
1201 2 0.0803043 0.020136 0.782501
2049 4 0.105396 0.999214 0.768709
1202 4 0.0992803 0.00480593 0.787986
1147 2 0.222105 0.0603903 0.75455
1149 4 0.237185 0.0710607 0.771399
1049 4 0.253206 0.0800172 0.77833
1257 4 0.295783 0.00673885 0.752993
1048 2 0.266129 0.0606083 0.787356
1050 4 0.279052 0.0411994 0.796382
819 4 0.385511 0.0823346 0.821558
846 4 0.453669 0.039048 0.800433
1113 4 0.454984 0.0212245 0.79194
844 2 0.477728 0.045835 0.799929
832 2 0.0422189 0.141175 0.787904
863 4 0.0243191 0.117116 0.814501
833 4 0.0232373 0.131516 0.801003
33 3 0.0778647 0.146975 0.785314
834 4 0.0612004 0.150835 0.774806
1106 4 0.0651007 0.167037 0.761727
862 2 0.0356209 0.101492 0.830417
31 1 0.0930391 0.159098 0.772618
32 3 0.101619 0.145427 0.756228
1073 4 0.122936 0.153624 0.794816
840 4 0.202867 0.12659 0.767144
838 2 0.22481 0.12199 0.778215
839 4 0.246752 0.117391 0.789286
978 4 0.309133 0.151367 0.766379
976 2 0.293876 0.165325 0.752323
959 4 0.267915 0.119904 0.791121
958 2 0.269204 0.109686 0.813905
1084 2 0.373108 0.115672 0.799148
1085 4 0.372538 0.0941563 0.811873
1086 4 0.373678 0.137188 0.786422
1299 4 0.381967 0.151628 0.77386
3269 4 0.503577 0.138591 0.819933
1146 4 0.487437 0.159837 0.762058
3270 4 0.479422 0.151493 0.778091
3268 2 0.4915 0.145042 0.799012
3468 4 0.496874 0.145354 0.839706
1214 4 0.0254645 0.229531 0.791994
35 3 0.082599 0.176841 0.76288
778 2 0.0649619 0.223853 0.813872
1213 2 0.00713305 0.244893 0.799284
779 4 0.0444365 0.228015 0.800213
34 3 0.110438 0.166542 0.786045
780 4 0.0854874 0.21969 0.827531
1072 2 0.135354 0.173161 0.804264
1074 4 0.147772 0.192698 0.813712
1192 2 0.395624 0.222435 0.75633
1193 4 0.382432 0.241868 0.764904
1297 2 0.395413 0.169933 0.784315
1298 4 0.408859 0.188238 0.794769
47 3 0.404592 0.187431 0.814834
1043 4 0.393388 0.238437 0.800426
46 1 0.411023 0.205576 0.827426