ITEM: TIMESTEP
2430000
ITEM: NUMBER OF ATOMS
4590
ITEM: BOX BOUNDS pp pp pp
-9.9985700000000008e+00 9.9985700000000008e+00
-9.9985700000000008e+00 9.9985700000000008e+00
-9.9985700000000008e+00 9.9985700000000008e+00
ITEM: ATOMS id type xs ys zs
463 2 0.0623127 0.0614754 0.0200898
3290 4 0.0778806 0.0194641 0.0164996
464 4 0.0710168 0.0380408 0.0205777
465 4 0.0536085 0.08491 0.0196019
1667 4 0.0428665 0.0170733 0.0795951
1668 4 0.0692441 0.0166892 0.0371122
1666 2 0.0560553 0.0168813 0.0583537
3289 2 0.096299 0.0250272 0.00053116
565 2 0.147757 0.0574776 0.065225
567 4 0.138112 0.0769091 0.0776573
566 4 0.157403 0.0380461 0.0527927
986 4 0.291939 0.0359608 0.0105738
492 4 0.28085 0.00244398 0.0598534
295 2 0.380814 0.029355 0.0802827
297 4 0.366469 0.00958387 0.0749444
2144 4 0.354703 0.0297912 0.00582447
2143 2 0.364643 0.00689749 0.00732653
745 2 0.47859 0.0507194 0.0564559
747 4 0.502185 0.0544688 0.0638301
746 4 0.454994 0.0469701 0.0490818
701 4 0.0564774 0.0841778 0.999783
555 4 0.0431675 0.143318 0.00709655
836 4 0.0379154 0.228099 0.00644843
422 4 0.0806968 0.222049 0.0404198
421 2 0.0939214 0.202209 0.0328946
423 4 0.107146 0.182368 0.0253693
505 2 0.160099 0.250274 0.0761334
3234 4 0.111158 0.169677 0.0104683
359 4 0.246191 0.175307 0.0282348
358 2 0.225745 0.177855 0.0140696
737 4 0.175925 0.223151 0.065755
506 4 0.180584 0.236212 0.078931
736 2 0.197491 0.210964 0.0691574
738 4 0.219057 0.198778 0.0725599
360 4 0.205299 0.180402 0.999904
461 4 0.285564 0.186108 0.0772265
353 4 0.271692 0.172911 0.0825765
460 2 0.30986 0.18088 0.0799797
665 4 0.355052 0.174133 0.0284118
664 2 0.343554 0.167387 0.00725841
1071 4 0.39723 0.23059 0.0151566
573 4 0.382759 0.242624 0.00685715
828 4 0.487543 0.219126 0.0228395
826 2 0.469393 0.204116 0.0144448
322 2 0.473343 0.241535 0.0604095
324 4 0.45845 0.222016 0.0651416
827 4 0.451243 0.189107 0.00605004
2808 4 0.00873444 0.295655 0.0454236
294 4 0.114761 0.315612 0.0525907
292 2 0.129079 0.295204 0.0545094
456 4 0.108482 0.326541 0.0372565
293 4 0.143398 0.274796 0.0564282
507 4 0.139615 0.264336 0.0733358
356 4 0.277099 0.253671 0.00284557
739 2 0.321071 0.329799 0.0606066
741 4 0.316641 0.321417 0.0374698
612 4 0.263625 0.305894 0.0830988
254 4 0.384758 0.272503 0.0812996
323 4 0.488236 0.261053 0.0556774
2841 4 0.50422 0.269329 0.0460018
454 2 0.106661 0.346518 0.0521818
455 4 0.104841 0.366496 0.067107
1223 4 0.127808 0.417305 0.00988031
608 4 0.260975 0.368293 0.0842342
252 4 0.277118 0.376612 0.0797419
250 2 0.294313 0.384277 0.0632873
251 4 0.311508 0.391942 0.0468327
524 4 0.326436 0.405417 0.0540079
740 4 0.3255 0.33818 0.0837434
523 2 0.339819 0.411491 0.0337799
226 2 0.391757 0.39575 0.0140158
228 4 0.373497 0.412617 0.0167027
227 4 0.410018 0.378882 0.0113289
1305 4 0.407928 0.357905 0.0102751
525 4 0.353203 0.417565 0.0135519
671 4 0.429594 0.357105 0.081164
281 4 0.43663 0.353315 0.062285
280 2 0.461528 0.351075 0.0627585
282 4 0.486427 0.348834 0.0632319
104 3 0.49224 0.343015 0.0826098
313 2 0.0606945 0.430216 0.077645
552 4 0.0414127 0.452227 0.0440846
314 4 0.0504488 0.436754 0.0557941
550 2 0.0230051 0.463715 0.0316606
551 4 0.00459737 0.475203 0.0192366
243 4 0.212542 0.468302 0.0527705
1440 4 0.2119 0.465957 0.0724219
1290 4 0.205662 0.443785 0.999856
241 2 0.204138 0.489556 0.0426306
245 4 0.210208 0.460325 0.0105999
1583 4 0.461515 0.47716 0.0633981
16 1 0.0389058 0.0230894 0.122481
1422 4 0.00542734 0.0253516 0.144742
2480 4 0.0179873 0.0450152 0.14677
18 3 0.0567748 0.0369193 0.127757
19 3 0.0189706 0.0331511 0.128786
2479 2 0.0159277 0.0696471 0.143001
17 3 0.0386302 0.0196454 0.0997389
20 3 0.0411907 0.00305897 0.133074
652 2 0.235502 0.0436692 0.142459
654 4 0.24882 0.0399655 0.121623
653 4 0.222185 0.0473729 0.163294
1476 4 0.266176 0.0435549 0.113511
1474 2 0.275825 0.0234273 0.102244
1475 4 0.285474 0.00329969 0.0909773
296 4 0.395159 0.0491261 0.0856211
485 4 0.359607 0.00872696 0.0940742
557 4 0.404195 0.0541089 0.102233
556 2 0.42326 0.0676887 0.111024
2481 4 0.0138681 0.094279 0.139232
236 4 0.156194 0.139318 0.123691
449 4 0.155661 0.119567 0.120484
450 4 0.13142 0.0936463 0.155714
448 2 0.143541 0.106607 0.138099
235 2 0.155394 0.161633 0.134941
558 4 0.442325 0.0812685 0.119815
771 4 0.43006 0.0877524 0.13349
769 2 0.434249 0.101381 0.15403
237 4 0.154594 0.183949 0.14619
354 4 0.225033 0.189608 0.0892795
352 2 0.248363 0.181259 0.085928
371 4 0.196023 0.21127 0.160109
370 2 0.171509 0.212872 0.164765
279 4 0.256836 0.235511 0.153214
277 2 0.257025 0.237752 0.128312
278 4 0.257215 0.239994 0.10341
462 4 0.334155 0.175652 0.0827329
624 4 0.448608 0.250952 0.127941
629 4 0.440595 0.244603 0.109846
338 4 0.0344239 0.267443 0.125095
337 2 0.0481041 0.28369 0.138288
339 4 0.0617842 0.299937 0.151482
611 4 0.25985 0.257637 0.0956576
609 4 0.254196 0.319856 0.0946553
610 2 0.261738 0.281765 0.0893782
754 2 0.334989 0.264808 0.137717
756 4 0.327162 0.270745 0.114725
253 2 0.361553 0.270362 0.0903626
630 4 0.399201 0.262637 0.0883513
755 4 0.342815 0.258871 0.16071
255 4 0.338348 0.268222 0.0994256
628 2 0.419898 0.25362 0.0990987
622 2 0.448376 0.260401 0.15109
704 4 0.0221538 0.341522 0.149903
621 4 0.0646809 0.409684 0.111733
619 2 0.0754897 0.3963 0.129876
620 4 0.0862986 0.382915 0.14802
647 4 0.106458 0.381471 0.149928
537 4 0.116009 0.38277 0.131758
535 2 0.135716 0.390233 0.118301
536 4 0.155424 0.397697 0.104844
607 2 0.257586 0.344074 0.0894447
386 4 0.326249 0.35596 0.0941575
385 2 0.334188 0.364422 0.116306
387 4 0.342128 0.372884 0.138453
12 3 0.396653 0.383494 0.12148
11 1 0.380728 0.390443 0.136555
15 3 0.360444 0.382105 0.130415
672 4 0.4155 0.375894 0.125312
13 3 0.386445 0.38263 0.157642
302 4 0.342775 0.395874 0.134444
14 3 0.380066 0.413637 0.136611
670 2 0.422547 0.366499 0.103238
315 4 0.0709402 0.423678 0.0994959
1467 4 0.0462993 0.497504 0.134778
1438 2 0.21749 0.458156 0.0955105
625 2 0.226186 0.443161 0.154642
1439 4 0.22308 0.450356 0.118599
638 4 0.248659 0.465095 0.144295
627 4 0.237844 0.449696 0.13351
1431 4 0.167961 0.503425 0.154041
637 2 0.254452 0.487267 0.134294
303 4 0.322659 0.436713 0.155137
301 2 0.332717 0.416294 0.144791
494 4 0.3712 0.475115 0.111241
495 4 0.371237 0.427647 0.126971
493 2 0.371219 0.451381 0.119106
1584 4 0.449047 0.487454 0.110719
1582 2 0.455281 0.482307 0.0870588
1674 4 0.433162 0.497401 0.117363
674 4 0.15241 0.0413574 0.234747
690 4 0.163647 0.0415745 0.217331
689 4 0.197705 0.0151969 0.191934
688 2 0.180676 0.0283857 0.204632
693 4 0.233208 0.0540488 0.179765
1505 4 0.216749 0.0124954 0.1831
691 2 0.252437 0.05554 0.195678
692 4 0.271666 0.0570313 0.211591
1699 2 0.313289 0.068832 0.219294
1701 4 0.289284 0.0619491 0.218033
1700 4 0.337293 0.0757149 0.220556
25 3 0.371402 0.0935868 0.208896
22 3 0.372652 0.0621441 0.228963
698 4 0.381995 0.0615081 0.246683
511 2 0.0101985 0.133443 0.214741
578 4 0.0380339 0.152303 0.241307
513 4 0.0228589 0.141499 0.234741
28 3 0.235924 0.11542 0.193317
26 1 0.247656 0.134963 0.188981
29 3 0.233347 0.153198 0.190057
546 4 0.190851 0.151907 0.252577
580 2 0.301221 0.133774 0.1766
581 4 0.276971 0.138571 0.172843
27 3 0.264088 0.137456 0.204885
582 4 0.32547 0.128976 0.180358
30 3 0.257276 0.133841 0.168369
21 1 0.367277 0.0845071 0.22937
23 3 0.344786 0.0867218 0.234627
758 4 0.342995 0.130982 0.170784
759 4 0.362434 0.0898524 0.19155
24 3 0.380249 0.0950477 0.245465
757 2 0.352714 0.110417 0.181167
770 4 0.438439 0.115009 0.174571
312 4 0.445931 0.134555 0.178561
311 4 0.48217 0.136787 0.212947
310 2 0.464051 0.135671 0.195754
521 4 0.48947 0.142078 0.23036
350 4 0.449651 0.0928972 0.243877
577 2 0.0413593 0.177083 0.241032
529 2 0.00202016 0.216656 0.236905
530 4 0.0241123 0.206226 0.242228
579 4 0.0446846 0.201863 0.240757
372 4 0.146995 0.214473 0.16942
362 4 0.138778 0.230981 0.174827
476 4 0.213719 0.209391 0.169505
477 4 0.237727 0.172871 0.193807
475 2 0.225723 0.191131 0.181656
283 2 0.263064 0.248564 0.182891
285 4 0.248636 0.231611 0.171506
395 4 0.0634644 0.287828 0.168151
396 4 0.0714913 0.29795 0.216461
443 4 0.0537166 0.300938 0.223154
394 2 0.0674779 0.292889 0.192306
705 4 0.009736 0.315662 0.190864
703 2 0.0159449 0.328592 0.170383
361 2 0.129812 0.253748 0.179971
363 4 0.120847 0.276515 0.185115
299 4 0.0945411 0.329292 0.237557
284 4 0.277492 0.265516 0.194276
345 4 0.302639 0.311195 0.239275
528 4 0.418883 0.291098 0.226548
623 4 0.448144 0.269849 0.174238
527 4 0.435492 0.28387 0.179936
526 2 0.427187 0.287484 0.203242
542 4 0.420819 0.310619 0.2316
646 2 0.100641 0.367692 0.169965
648 4 0.0948243 0.353914 0.190002
300 4 0.111614 0.34305 0.192614
298 2 0.103077 0.336171 0.215086
290 4 0.203167 0.412592 0.244574
416 4 0.192245 0.413203 0.228062
597 4 0.387791 0.368985 0.176461
596 4 0.350181 0.34624 0.20031
595 2 0.368986 0.357612 0.188386
645 4 0.402462 0.385398 0.173055
643 2 0.415255 0.402908 0.185502
447 4 0.420062 0.412971 0.216672
1429 2 0.171624 0.484787 0.170301
626 4 0.214528 0.436626 0.175774
1430 4 0.175288 0.466148 0.18656
417 4 0.184418 0.453329 0.199264
415 2 0.188332 0.433266 0.213663
659 4 0.340945 0.441384 0.162235
658 2 0.347529 0.459783 0.177833
660 4 0.354113 0.478182 0.193431
231 4 0.347996 0.495316 0.200117
644 4 0.428048 0.420418 0.197948
445 2 0.428073 0.420229 0.239218
1403 4 0.0325219 0.00905305 0.275083
233 4 0.0139231 0.0121224 0.278564
232 2 0.0141157 0.0368746 0.282095
234 4 0.0143083 0.0616267 0.285627
317 4 0.0329783 0.0704136 0.286808
316 2 0.0503293 0.0789421 0.270952
428 4 0.0383591 0.0259963 0.325921
673 2 0.153064 0.0563787 0.254725
675 4 0.153717 0.0714 0.274703
1405 2 0.202278 0.00176995 0.316332
1406 4 0.186175 0.020745 0.318749
249 4 0.322095 0.0724534 0.33283
333 4 0.389604 0.0789632 0.253512
1518 4 0.396601 0.0231693 0.287856
697 2 0.385331 0.0398541 0.258731
699 4 0.388666 0.0182002 0.27078
742 2 0.493224 0.018433 0.258371
425 4 0.443214 0.0457094 0.289519
351 4 0.486398 0.0618444 0.257518
349 2 0.468025 0.0773708 0.250697
424 2 0.459332 0.0518306 0.307628
258 4 0.47796 0.0770102 0.31995
426 4 0.475451 0.0579518 0.325736
743 4 0.488879 0.0426843 0.254108
318 4 0.0676803 0.0874706 0.255097
391 2 0.127046 0.157468 0.304647
392 4 0.141685 0.161243 0.284732
393 4 0.112406 0.153693 0.324562
544 2 0.171156 0.163664 0.26253
723 4 0.23075 0.101625 0.251267
722 4 0.191422 0.0938458 0.281158
721 2 0.211086 0.0977351 0.266212
599 4 0.235632 0.117721 0.315363
404 4 0.220198 0.131294 0.310059
403 2 0.221184 0.150661 0.294275
331 2 0.412452 0.0887858 0.256091
256 2 0.480815 0.10112 0.313969
332 4 0.4353 0.0986084 0.25867
761 4 0.467271 0.130596 0.320837
760 2 0.455225 0.149457 0.331988
257 4 0.483669 0.125229 0.307989
545 4 0.151462 0.175422 0.272483
405 4 0.22217 0.170027 0.27849
401 4 0.220282 0.186755 0.267581
400 2 0.220575 0.21163 0.265071
402 4 0.220869 0.236506 0.26256
765 4 0.428262 0.198651 0.303475
763 2 0.442868 0.203272 0.323235
442 2 0.0445892 0.296107 0.245926
444 4 0.0354618 0.291276 0.268697
366 4 0.0563887 0.3351 0.30232
734 4 0.159723 0.33063 0.28404
750 4 0.0999279 0.327861 0.256906
343 2 0.309476 0.328044 0.256437
496 2 0.35167 0.279778 0.33108
497 4 0.368906 0.293652 0.319434
541 2 0.420866 0.321945 0.253891
543 4 0.420913 0.333272 0.276183
615 4 0.42194 0.320749 0.292273
262 2 0.0388985 0.417789 0.264295
263 4 0.0323155 0.400742 0.28136
365 4 0.0133722 0.355877 0.317104
749 4 0.0734785 0.341832 0.29698
364 2 0.0348805 0.345488 0.309712
748 2 0.0867032 0.334847 0.276943
602 4 0.113258 0.384856 0.309431
777 4 0.117499 0.404643 0.30658
735 4 0.147429 0.374398 0.304872
601 2 0.104819 0.384409 0.332963
677 4 0.162193 0.384897 0.295666
733 2 0.153576 0.352514 0.294456
289 2 0.217451 0.396859 0.25775
676 2 0.182344 0.399055 0.299983
291 4 0.231736 0.381125 0.270925
414 4 0.238165 0.392037 0.287345
412 2 0.252335 0.410757 0.295944
344 4 0.316314 0.344893 0.2736
2 3 0.31754 0.414232 0.330247
1 1 0.294844 0.410518 0.330758
3 3 0.290913 0.387768 0.328439
309 4 0.331937 0.333699 0.279081
613 2 0.408452 0.333455 0.30906
614 4 0.394965 0.346161 0.325848
307 2 0.343333 0.343038 0.299283
727 2 0.348591 0.393957 0.320781
729 4 0.3551 0.370847 0.3138
308 4 0.354728 0.352377 0.319484
2924 4 0.48044 0.389602 0.311164
2537 4 0.494942 0.378423 0.302136
2923 2 0.467302 0.384649 0.331853
264 4 0.0454814 0.434837 0.24723
1757 4 0.116852 0.456637 0.290257
776 4 0.129577 0.444709 0.279203
775 2 0.123538 0.424676 0.292892
1756 2 0.114537 0.481493 0.288842
678 4 0.202495 0.413214 0.304301
768 4 0.198731 0.457675 0.28317
766 2 0.200059 0.48206 0.277806
413 4 0.266506 0.429477 0.304543
438 4 0.298631 0.452493 0.250858
437 4 0.270638 0.444456 0.291509
436 2 0.284635 0.448475 0.271184
1437 4 0.273582 0.438428 0.325026
5 3 0.284996 0.421888 0.313659
434 4 0.325478 0.433179 0.322066
433 2 0.327774 0.456164 0.312494
435 4 0.33007 0.479148 0.302923
728 4 0.342082 0.417067 0.327761
446 4 0.436085 0.427487 0.261764
714 4 0.438812 0.445561 0.269265
2862 4 0.499215 0.432062 0.275023
713 4 0.482309 0.431902 0.289813
712 2 0.46056 0.438731 0.279539
119 3 0.499331 0.42826 0.334452
2757 4 0.00778729 0.0720099 0.410222
427 2 0.0501241 0.0186895 0.346739
429 4 0.0618891 0.0113827 0.367556
1782 4 0.081355 0.00704121 0.370564
605 4 0.154389 0.072905 0.368883
730 2 0.118692 0.0791642 0.387159
604 2 0.155159 0.0557453 0.350714
731 4 0.100734 0.0779206 0.404512
606 4 0.155929 0.0385857 0.332544
732 4 0.13665 0.0804078 0.369805
684 4 0.26085 0.0385949 0.338843
683 4 0.273474 0.0657231 0.378911
682 2 0.267162 0.052159 0.358877
321 4 0.260849 0.0618643 0.393893
247 2 0.342189 0.0766752 0.347097
248 4 0.362284 0.080897 0.361364
633 4 0.381089 0.0771039 0.362671
1747 2 0.472 0.00543645 0.352261
1749 4 0.492155 0.0189592 0.346255
2585 4 0.999014 0.0894996 0.415213
399 4 0.112458 0.14377 0.342874
398 4 0.108338 0.147028 0.392605
397 2 0.110398 0.145399 0.367739
598 2 0.231816 0.1135 0.339711
600 4 0.228 0.109279 0.364058
685 2 0.230261 0.111343 0.398725
687 4 0.232562 0.0967304 0.378566
631 2 0.385258 0.0895957 0.383926
632 4 0.389427 0.102088 0.40518
420 4 0.359704 0.125143 0.406805
418 2 0.361953 0.144279 0.39087
419 4 0.364202 0.163415 0.374934
470 4 0.0705689 0.20857 0.407509
617 4 0.0634677 0.249475 0.408941
616 2 0.0385307 0.24887 0.410662
390 4 0.0844869 0.210289 0.390562
388 2 0.0990615 0.228419 0.381394
389 4 0.113636 0.246549 0.372225
275 4 0.162672 0.246686 0.35144
473 4 0.208523 0.193555 0.347417
474 4 0.177261 0.232392 0.351302
472 2 0.192892 0.212973 0.349359
708 4 0.221814 0.195686 0.332985
706 2 0.244879 0.187478 0.338068
651 4 0.217422 0.239835 0.408737
649 2 0.222197 0.216089 0.414944
489 4 0.237265 0.240236 0.404641
707 4 0.267943 0.179269 0.343152
377 4 0.344777 0.240488 0.393679
717 4 0.356059 0.224216 0.397655
716 4 0.372748 0.180833 0.379213
715 2 0.364404 0.202524 0.388434
2456 4 0.400048 0.246796 0.408784
762 4 0.443179 0.168317 0.343138
764 4 0.457474 0.207893 0.342996
515 4 0.45162 0.184971 0.406202
268 2 0.494638 0.233429 0.356721
618 4 0.0135938 0.248265 0.412384
276 4 0.120926 0.265324 0.371705
274 2 0.141799 0.256005 0.361573
696 4 0.13661 0.318889 0.409162
510 4 0.216469 0.327549 0.360521
487 2 0.243612 0.263741 0.398949
488 4 0.249958 0.287247 0.393257
508 2 0.22365 0.311051 0.377882
509 4 0.230831 0.294552 0.395243
378 4 0.320764 0.262185 0.355557
376 2 0.332771 0.251337 0.374618
265 2 0.332225 0.322775 0.377041
498 4 0.334435 0.265903 0.342725
266 4 0.347975 0.303491 0.379328
585 4 0.359535 0.299249 0.396101
583 2 0.373145 0.278291 0.39692
584 4 0.386755 0.257332 0.39774
270 4 0.474565 0.245029 0.366085
304 2 0.485468 0.266975 0.400967
306 4 0.473796 0.252376 0.384359
547 2 0.08345 0.397612 0.382223
549 4 0.0824754 0.377041 0.368042
603 4 0.0963787 0.383961 0.356495
375 4 0.208715 0.392884 0.340564
374 4 0.209503 0.345448 0.356373
373 2 0.209109 0.369166 0.348468
504 4 0.211919 0.402741 0.357749
267 4 0.316475 0.34206 0.374754
2925 4 0.454164 0.379696 0.352542
679 2 0.0227781 0.494356 0.397411
680 4 0.0342783 0.472603 0.401851
548 4 0.0844246 0.418182 0.396404
407 4 0.0793327 0.44113 0.393557
406 2 0.0550003 0.446773 0.394684
408 4 0.0306678 0.452416 0.395811
569 4 0.10187 0.438732 0.394356
568 2 0.119847 0.447773 0.409197
635 4 0.153494 0.459361 0.412484
1544 4 0.194153 0.500268 0.347823
502 2 0.20554 0.425595 0.365634
503 4 0.199161 0.448449 0.373518
1543 2 0.218484 0.497408 0.342823
636 4 0.191144 0.465717 0.38019
634 2 0.172319 0.462539 0.396337
1545 4 0.242815 0.494549 0.337822
1435 2 0.266842 0.461923 0.330292
1436 4 0.260102 0.485418 0.335558
1401 4 0.323233 0.463227 0.405878
668 4 0.283251 0.435553 0.36297
4 3 0.286479 0.417972 0.351077
667 2 0.300686 0.448946 0.374881
669 4 0.31812 0.462338 0.386792
336 4 0.324622 0.448041 0.418185
592 2 0.477923 0.497148 0.346728
593 4 0.484847 0.473961 0.340433
752 4 0.487204 0.426026 0.395728
753 4 0.484091 0.432342 0.34622
751 2 0.485647 0.429184 0.370974
1127 4 0.00571521 0.054757 0.501945
718 2 0.0305587 0.0527786 0.470133
719 4 0.0464762 0.0417216 0.454336
369 4 0.0553398 0.0597888 0.450962
367 2 0.0745921 0.0659727 0.436256
720 4 0.0146411 0.0638356 0.485931
368 4 0.0938445 0.0721566 0.421549
441 4 0.186702 0.00284271 0.442888
2430 4 0.208603 0.0691684 0.442361
2428 2 0.20359 0.0447043 0.443611
2429 4 0.198578 0.0202403 0.44486
320 4 0.243653 0.0645086 0.440776
319 2 0.252251 0.0631865 0.417334
431 4 0.341091 0.0823229 0.499477
841 2 0.372105 0.0676534 0.503393
843 4 0.347533 0.0643828 0.506668
467 4 0.39335 0.0693999 0.462357
842 4 0.396676 0.070924 0.500119
2879 4 0.424602 0.0200819 0.437368
2878 2 0.447161 0.0245757 0.447168
2880 4 0.469721 0.0290695 0.456969
642 4 0.479432 0.0398144 0.470395
640 2 0.486054 0.063065 0.464012
686 4 0.22796 0.125955 0.418883
725 4 0.242823 0.0841375 0.446625
341 4 0.195299 0.085011 0.439069
410 4 0.226077 0.138532 0.434576
409 2 0.235075 0.161539 0.430715
340 2 0.201662 0.102598 0.455663
1152 4 0.214937 0.12394 0.490184
342 4 0.208026 0.120185 0.472258
430 2 0.318917 0.0862507 0.48861
432 4 0.296744 0.0901786 0.477743
724 2 0.260415 0.0886191 0.463819
726 4 0.278006 0.0931006 0.481012
468 4 0.389368 0.102088 0.424723
466 2 0.391359 0.085744 0.44354
576 4 0.403711 0.127515 0.476087
641 4 0.492676 0.0863156 0.45763
574 2 0.422733 0.141636 0.46809
575 4 0.441754 0.155757 0.460092
469 2 0.068361 0.193559 0.427383
260 4 0.0725781 0.164509 0.461611
471 4 0.0661531 0.178548 0.447256
259 2 0.0816423 0.169887 0.484284
650 4 0.226971 0.192344 0.421152
411 4 0.244073 0.184546 0.426854
2455 2 0.414357 0.245776 0.429263
514 2 0.446922 0.179827 0.430215
516 4 0.442223 0.174684 0.454229
695 4 0.107491 0.332489 0.447474
694 2 0.122051 0.325689 0.428318
1260 4 0.155927 0.321274 0.416074
1258 2 0.179823 0.324336 0.422766
1259 4 0.203719 0.327398 0.429457
2457 4 0.428665 0.244756 0.449743
326 4 0.0939514 0.400025 0.437309
325 2 0.0997065 0.381694 0.453311
10 3 0.152571 0.35022 0.462462
7 3 0.122642 0.364862 0.479276
327 4 0.105462 0.363364 0.469313
6 1 0.145625 0.365009 0.478326
8 3 0.15277 0.386402 0.472877
711 4 0.148292 0.405001 0.468947
238 2 0.355655 0.401536 0.481161
240 4 0.334848 0.404403 0.467595
239 4 0.376463 0.398669 0.494726
560 4 0.486897 0.377134 0.430183
2508 4 0.488387 0.365816 0.44716
559 2 0.487059 0.401142 0.4232
1382 4 0.0191147 0.456923 0.461178
1381 2 0.00203985 0.455456 0.442971
540 4 0.0253012 0.462117 0.479626
538 2 0.0355903 0.470009 0.501005
772 2 0.156735 0.481208 0.449587
384 4 0.136227 0.489213 0.483396
773 4 0.151426 0.491628 0.471686
710 4 0.143289 0.43877 0.432404
709 2 0.145791 0.421885 0.450675
570 4 0.137824 0.456813 0.424039
774 4 0.162045 0.470787 0.427487
1399 2 0.321985 0.484689 0.418645
587 4 0.355731 0.487482 0.486183
334 2 0.332312 0.429811 0.433473
586 2 0.341579 0.498156 0.468549
335 4 0.340001 0.411582 0.448762
561 4 0.487222 0.42515 0.416216
1030 2 0.166005 0.0748981 0.583455
951 4 0.200854 0.085181 0.55531
1031 4 0.186413 0.0791127 0.569638
949 2 0.22227 0.0732903 0.550299
950 4 0.243687 0.0613995 0.545288
1182 4 0.245941 0.0618425 0.524076
961 2 0.322869 0.0257589 0.547361
1180 2 0.269347 0.0533895 0.521651
963 4 0.306034 0.039318 0.534793
1181 4 0.292753 0.0449366 0.519226
962 4 0.339703 0.0121998 0.559928
1217 4 0.402646 0.0804405 0.516249
937 2 0.147036 0.162749 0.526855
939 4 0.171649 0.158609 0.528342
1151 4 0.187948 0.156949 0.516312
1150 2 0.201443 0.140445 0.503248
858 4 0.283976 0.152137 0.585791
898 2 0.362419 0.156532 0.578528
1216 2 0.418362 0.0873565 0.534424
1218 4 0.434079 0.0942725 0.5526
1082 4 0.0711602 0.174712 0.573031
938 4 0.122422 0.166889 0.525367
1035 4 0.0906803 0.173632 0.571214
1033 2 0.0964586 0.169983 0.547162
1034 4 0.102237 0.166334 0.523111
1272 4 0.122735 0.233201 0.571414
879 4 0.104301 0.223973 0.570286
261 4 0.0907066 0.175265 0.506958
877 2 0.0944389 0.241953 0.555981
811 2 0.318966 0.232794 0.547636
812 4 0.297176 0.234731 0.559744
796 2 0.288869 0.195577 0.574811
798 4 0.287927 0.218693 0.565326
813 4 0.340756 0.230857 0.535528
900 4 0.376611 0.169024 0.562166
872 4 0.37903 0.187988 0.561501
873 4 0.360357 0.229937 0.541693
871 2 0.369694 0.208963 0.551597
878 4 0.0845765 0.259933 0.541677
1191 4 0.208044 0.325115 0.518439
1239 4 0.260737 0.298066 0.577953
1205 4 0.401559 0.306533 0.566081
1204 2 0.382382 0.320901 0.573219
954 4 0.399291 0.287368 0.569623
952 2 0.418561 0.27973 0.583605
1137 4 0.166131 0.376922 0.551161
9 3 0.154029 0.358894 0.499072
1135 2 0.161633 0.389761 0.572139
897 4 0.154565 0.360274 0.544448
1189 2 0.23037 0.33634 0.517593
896 4 0.194028 0.339255 0.522053
895 2 0.174296 0.349765 0.53325
1190 4 0.252697 0.347564 0.516747
803 4 0.263508 0.337358 0.531736
802 2 0.286033 0.348208 0.531434
804 4 0.308558 0.359057 0.531132
929 4 0.328423 0.355689 0.533594
928 2 0.336419 0.349451 0.556448
930 4 0.344414 0.343214 0.579303
1001 4 0.460398 0.403988 0.557722
926 4 0.468232 0.395377 0.54157
925 2 0.488255 0.393035 0.52678
1000 2 0.440369 0.409133 0.571777
539 4 0.0458793 0.4779 0.522383
936 4 0.0209921 0.496123 0.53098
1938 4 0.0390505 0.490154 0.535929
934 2 0.00367293 0.488802 0.547461
383 4 0.148811 0.490991 0.531762
2242 2 0.166359 0.496785 0.557678
2244 4 0.159818 0.506255 0.535481
382 2 0.142519 0.490102 0.507579
2243 4 0.172899 0.487315 0.579876
1161 4 0.192298 0.495423 0.578139
1172 4 0.271242 0.451777 0.565215
882 4 0.280411 0.460999 0.54957
880 2 0.278524 0.479708 0.533091
1171 2 0.255076 0.45748 0.583417
1185 4 0.0229622 0.051817 0.660024
945 4 0.0360884 0.0666973 0.667421
825 4 0.0521101 0.00728621 0.640396
1058 4 0.0603779 0.0172235 0.625209
1057 2 0.0764472 0.0303984 0.611303
1032 4 0.145597 0.0706835 0.597273
1059 4 0.0925165 0.0435733 0.597397
1155 4 0.0858986 0.0599595 0.59053
1153 2 0.098474 0.0801024 0.59836
1003 2 0.300135 0.0780422 0.639064
1004 4 0.322662 0.0705424 0.631224
2282 4 0.452253 0.0360992 0.636434
2281 2 0.451058 0.0220425 0.61579
43 3 0.467868 0.047498 0.637572
41 1 0.47989 0.0624627 0.650608
2283 4 0.449864 0.00798571 0.595146
1199 4 0.0210162 0.145405 0.591415
1083 4 0.0256539 0.165352 0.591532
1154 4 0.111049 0.100245 0.60619
1221 4 0.120783 0.106521 0.622686
1219 2 0.140632 0.106916 0.637885
1220 4 0.160482 0.107312 0.653084
1212 4 0.246839 0.137614 0.622123
1005 4 0.277608 0.0855421 0.646904
1210 2 0.252639 0.146 0.644954
856 2 0.307627 0.144218 0.58755
857 4 0.331278 0.136298 0.589309
1211 4 0.258438 0.154385 0.667784
899 4 0.348227 0.144041 0.594891
44 3 0.472178 0.0840535 0.647034
1081 2 0.048407 0.170032 0.582281
1270 2 0.134067 0.215638 0.585135
1271 4 0.145399 0.198074 0.598857
909 4 0.163827 0.196263 0.604856
907 2 0.171947 0.199042 0.628341
908 4 0.180067 0.201822 0.651825
947 4 0.186313 0.220101 0.655971
946 2 0.189924 0.244766 0.657906
797 4 0.28981 0.172462 0.584296
1025 4 0.366146 0.19377 0.647412
1024 2 0.373779 0.215626 0.637968
1026 4 0.381412 0.237483 0.628523
906 4 0.46789 0.220102 0.617865
3357 4 0.488634 0.21043 0.660455
904 2 0.461953 0.243248 0.610504
948 4 0.193534 0.269432 0.659841
1237 2 0.282174 0.29329 0.589905
792 4 0.299228 0.302966 0.615793
790 2 0.312873 0.315637 0.632479
1238 4 0.30361 0.288515 0.601858
791 4 0.326519 0.328309 0.649165
1206 4 0.363205 0.33527 0.580358
953 4 0.437831 0.272092 0.597588
905 4 0.456015 0.266394 0.603143
983 4 0.0356406 0.387873 0.629676
1041 4 0.0541705 0.391058 0.638555
1039 2 0.0722885 0.40825 0.637395
982 2 0.0111094 0.391481 0.632898
893 4 0.0980415 0.353564 0.635222
992 4 0.148325 0.417483 0.604782
892 2 0.0928162 0.361234 0.65844
1136 4 0.157134 0.4026 0.593118
1028 4 0.226195 0.401997 0.656851
1027 2 0.250131 0.400256 0.663864
1002 4 0.42034 0.414279 0.585832
3183 4 0.500121 0.415736 0.657742
1040 4 0.0904065 0.425443 0.636235
993 4 0.105961 0.433338 0.626104
991 2 0.127143 0.42541 0.615443
1160 4 0.229441 0.480024 0.607872
1159 2 0.210869 0.487724 0.593006
1175 4 0.244875 0.482529 0.620932
1173 4 0.238909 0.463183 0.601619
2172 4 0.200495 0.486065 0.662525
2170 2 0.18147 0.501969 0.659318
1174 2 0.268397 0.4889 0.626524
890 4 0.329401 0.492894 0.66427
1176 4 0.29192 0.495271 0.632116
889 2 0.34433 0.495555 0.64439
891 4 0.359259 0.498216 0.62451
1911 4 0.413398 0.453978 0.641868
1910 4 0.42492 0.422707 0.604585
1909 2 0.419159 0.438343 0.623226
1268 4 0.41621 0.472395 0.641568
1267 2 0.420953 0.4958 0.648976
3330 4 0.483063 0.417596 0.647603
3328 2 0.496453 0.425919 0.628197
943 2 0.0416844 0.0761433 0.689885
944 4 0.0472804 0.0855894 0.712349
1075 2 0.0583819 0.0572315 0.738905
1076 4 0.0635718 0.0732551 0.720426
42 3 0.476912 0.0570766 0.672773
1163 4 0.482299 0.06207 0.69143
35 3 0.0691828 0.15271 0.749648
1283 4 0.157716 0.104026 0.673259
1282 2 0.166476 0.113294 0.694766
1284 4 0.175235 0.122562 0.716273
1227 4 0.18863 0.128916 0.731009
1225 2 0.205645 0.123973 0.748651
888 4 0.273556 0.157111 0.680581
886 2 0.293359 0.143669 0.687816
887 4 0.313161 0.130227 0.695051
829 2 0.317521 0.098425 0.719894
830 4 0.305582 0.117763 0.709468
978 4 0.317253 0.12364 0.748594
976 2 0.311822 0.148043 0.749017
831 4 0.329461 0.0790873 0.730319
1142 4 0.349993 0.155695 0.690902
1107 4 0.0297374 0.193149 0.733201
851 4 0.00904094 0.190368 0.729469
1208 4 0.0833769 0.23914 0.684085
1105 2 0.0405893 0.174778 0.746237
822 4 0.128474 0.202219 0.701127
1278 4 0.140063 0.219095 0.70452
820 2 0.111429 0.213909 0.687056
821 4 0.0943845 0.225599 0.672985
1276 2 0.150431 0.223271 0.726887
1277 4 0.160798 0.227447 0.749253
916 2 0.310163 0.200554 0.726368
918 4 0.303887 0.176701 0.730468
917 4 0.316439 0.224408 0.722268
1008 4 0.326986 0.23946 0.729732
1097 4 0.298536 0.235418 0.721088
1143 4 0.353143 0.197096 0.663032
1141 2 0.351568 0.176396 0.676967
1006 2 0.343632 0.243736 0.747892
1262 4 0.422649 0.243422 0.744392
3122 4 0.484714 0.217275 0.678917
3123 4 0.43545 0.213528 0.671186
3121 2 0.460082 0.215402 0.675051
1261 2 0.436735 0.222991 0.747451
1263 4 0.45082 0.20256 0.750509
1145 4 0.462771 0.187324 0.745511
1244 4 0.0144796 0.330296 0.72346
1209 4 0.0522403 0.277067 0.674454
1207 2 0.0678086 0.258103 0.679269
1065 4 0.196645 0.279388 0.676557
1064 4 0.213949 0.324546 0.689289
1063 2 0.205297 0.301967 0.682923
1240 2 0.241201 0.292096 0.739861
1242 4 0.218953 0.299676 0.73133
1241 4 0.263448 0.284516 0.748391
1096 2 0.283968 0.250467 0.734743
1098 4 0.269401 0.265517 0.748399
1192 2 0.416744 0.27849 0.743731
1194 4 0.41904 0.257256 0.730729
1281 4 0.0723906 0.380358 0.687247
1279 2 0.0769598 0.400442 0.701422
3275 4 0.0547883 0.389273 0.744155
894 4 0.0875909 0.368904 0.681657
940 2 0.155234 0.408726 0.737195
941 4 0.161084 0.39795 0.715405
1068 4 0.21942 0.402928 0.675538
1067 4 0.179409 0.398421 0.705195
1066 2 0.199415 0.400675 0.690366
1029 4 0.274068 0.398515 0.670877
1139 4 0.266989 0.410177 0.686588
1230 4 0.37054 0.399414 0.729335
1228 2 0.360122 0.402291 0.706788
1229 4 0.349704 0.405168 0.684241
1983 4 0.0375311 0.489338 0.723928
1981 2 0.0180937 0.493692 0.739041
1280 4 0.0815289 0.420526 0.715598
2014 2 0.17173 0.501342 0.742449
1138 2 0.276704 0.426873 0.702465
1140 4 0.286419 0.443568 0.718341
1989 4 0.301841 0.436014 0.728388
1987 2 0.301829 0.457688 0.740855
1100 4 0.446905 0.470876 0.738122
1099 2 0.452559 0.491004 0.724408
1077 4 0.0531919 0.041208 0.757384
1203 4 0.0632166 0.0273746 0.767788
1201 2 0.0861227 0.0231308 0.77687
2049 4 0.127589 0.0194729 0.77627
1202 4 0.109029 0.0188869 0.785952
2047 2 0.139193 0.999469 0.766764
1148 4 0.18454 0.0665301 0.752715
1147 2 0.201316 0.0530214 0.765414
1149 4 0.218092 0.0395127 0.778113
1049 4 0.232197 0.0542263 0.77985
1048 2 0.250662 0.0552622 0.796676
1050 4 0.269128 0.0562981 0.813503
1257 4 0.298563 0.00424714 0.750255
818 4 0.375532 0.0781479 0.828192
846 4 0.479324 0.0196487 0.770911
1113 4 0.472184 0.00632727 0.757618
844 2 0.495634 0.0370731 0.763457
3387 4 0.0159782 0.14637 0.763329
832 2 0.0362271 0.127763 0.785993
863 4 0.0217738 0.0969562 0.80839
833 4 0.0191549 0.112879 0.796585
33 3 0.0709969 0.141541 0.78556
834 4 0.0532993 0.142646 0.775401
862 2 0.034599 0.08621 0.82697
1106 4 0.0514411 0.156407 0.759272
31 1 0.0832101 0.146359 0.766428
32 3 0.0946812 0.127491 0.75998
34 3 0.0984682 0.163279 0.770822
1073 4 0.115157 0.166817 0.780131
1226 4 0.22266 0.119031 0.766293
840 4 0.212501 0.114214 0.783316
838 2 0.222752 0.128154 0.801365
839 4 0.233003 0.142093 0.819415
959 4 0.250004 0.132268 0.817034
958 2 0.271077 0.133042 0.83047
817 2 0.372915 0.0895688 0.806104
819 4 0.370297 0.10099 0.784016
1084 2 0.364093 0.143124 0.780767
1085 4 0.362369 0.119097 0.787471
3268 2 0.483376 0.152114 0.818079
3270 4 0.47336 0.14416 0.796593
1146 4 0.468021 0.150943 0.779417
778 2 0.0620912 0.216179 0.821094
779 4 0.0400645 0.222864 0.811331
780 4 0.0841179 0.209494 0.830857
1214 4 0.0277665 0.230616 0.796985
1213 2 0.00866184 0.246331 0.800622
1072 2 0.134104 0.173805 0.765387
1074 4 0.153051 0.180793 0.750644
1131 4 0.178204 0.217993 0.752844
1130 4 0.198989 0.176127 0.770619
1129 2 0.188596 0.19706 0.761732
977 4 0.306391 0.172446 0.74944
1086 4 0.365817 0.16715 0.774064
1299 4 0.37915 0.182461 0.776893
1297 2 0.392278 0.197192 0.79225
1298 4 0.405407 0.211923 0.807607