ITEM: TIMESTEP
20000
ITEM: NUMBER OF ATOMS
4590
ITEM: BOX BOUNDS pp pp pp
-9.9985700000000008e+00 9.9985700000000008e+00
-9.9985700000000008e+00 9.9985700000000008e+00
-9.9985700000000008e+00 9.9985700000000008e+00
ITEM: ATOMS id type xs ys zs
463 2 0.0575629 0.0478179 0.0063411
464 4 0.0824002 0.0497293 0.00418906
465 4 0.0327255 0.0459066 0.00849314
700 2 0.100614 0.0870875 0.075875
702 4 0.0824534 0.0772619 0.0617741
532 2 0.19233 0.0374502 0.0205669
533 4 0.215169 0.0318884 0.0120459
534 4 0.169491 0.0430121 0.0290878
486 4 0.332607 0.00119718 0.0752661
490 2 0.280948 0.0392736 0.0433872
491 4 0.283877 0.0356119 0.0679471
492 4 0.278018 0.0429352 0.0188273
295 2 0.385408 0.0714011 0.0739062
296 4 0.370024 0.0797876 0.0560684
484 2 0.35589 0.00680798 0.0824493
745 2 0.448783 0.0607955 0.0494647
746 4 0.431953 0.0423623 0.0479966
747 4 0.465612 0.0792287 0.0509328
589 2 0.0409612 0.110252 0.0586751
590 4 0.02412 0.128205 0.0542854
591 4 0.0578025 0.0923003 0.0630649
3233 4 0.00822294 0.104159 0.00776184
421 2 0.115357 0.131531 0.017636
422 4 0.132894 0.114108 0.013885
423 4 0.0978193 0.148954 0.021387
476 4 0.113471 0.158978 0.0919453
565 2 0.215705 0.12608 0.0728419
566 4 0.234129 0.112864 0.0623013
358 2 0.276662 0.146188 0.0407845
359 4 0.27795 0.121657 0.0361227
254 4 0.381646 0.153319 0.0694226
556 2 0.348396 0.132797 0.0446819
557 4 0.351452 0.137287 0.0202754
558 4 0.34534 0.128307 0.0690885
553 2 0.0570551 0.222093 0.0111977
554 4 0.0748476 0.233337 0.9977
555 4 0.0392626 0.210849 0.0246949
360 4 0.275373 0.170719 0.0454464
571 2 0.320105 0.233336 0.0428758
573 4 0.30259 0.224449 0.058349
666 4 0.318913 0.187097 0.000338953
253 2 0.378302 0.177775 0.0734114
255 4 0.374958 0.20223 0.0774003
572 4 0.33762 0.242223 0.0274027
664 2 0.343837 0.187509 0.00228872
665 4 0.368761 0.187922 0.00423849
771 4 0.441971 0.192498 0.0518936
770 4 0.488165 0.178896 0.0653786
769 2 0.465068 0.185697 0.0586361
292 2 0.108771 0.294916 0.0263432
293 4 0.120451 0.273931 0.0333007
294 4 0.0970908 0.3159 0.0193857
914 4 0.166687 0.262358 0.023617
483 4 0.234211 0.314126 0.0468997
505 2 0.201083 0.295405 0.0680879
507 4 0.180278 0.307742 0.0617537
355 2 0.272607 0.265703 0.0026485
357 4 0.285714 0.27236 0.0228743
481 2 0.258748 0.317705 0.0436894
482 4 0.283285 0.321284 0.0404792
280 2 0.46936 0.32332 0.0044123
281 4 0.491074 0.323134 0.0168064
322 2 0.423552 0.27947 0.0698743
323 4 0.437 0.276607 0.0489906
328 2 0.0119229 0.399183 0.00683071
330 4 0.0291891 0.383333 0.0155384
286 2 0.170287 0.371141 0.0100305
288 4 0.146774 0.376523 0.00344614
454 2 0.132959 0.354647 0.0670823
455 4 0.152272 0.369111 0.0605275
456 4 0.113645 0.340183 0.0736372
252 4 0.242629 0.376512 0.0591284
287 4 0.1938 0.365759 0.0166148
250 2 0.266827 0.382798 0.0587885
251 4 0.291025 0.389083 0.0584486
670 2 0.444692 0.352794 0.078125
671 4 0.462665 0.368 0.0697043
550 2 0.0634969 0.438285 0.0380845
551 4 0.0398788 0.442399 0.0451864
552 4 0.0871151 0.434171 0.0309825
241 2 0.16143 0.481726 0.0760327
242 4 0.142536 0.497266 0.0708648
243 4 0.180323 0.466185 0.0812006
244 2 0.237194 0.456314 0.0340275
245 4 0.223525 0.468862 0.0172674
246 4 0.250862 0.443766 0.0507876
271 2 0.290962 0.479788 0.00945788
272 4 0.311931 0.471857 0.0205294
273 4 0.269993 0.48772 0.998386
524 4 0.341927 0.488409 0.0738359
608 4 0.323312 0.417166 0.0853177
564 4 0.400018 0.456342 0.0400613
226 2 0.493796 0.463037 0.0618539
227 4 0.478799 0.444421 0.0545252
562 2 0.424032 0.459672 0.0339429
563 4 0.448045 0.463002 0.0278246
16 1 0.060564 0.0802172 0.150863
19 3 0.0488643 0.06643 0.136322
448 2 0.165064 0.0640805 0.133589
449 4 0.164477 0.0772397 0.154842
450 4 0.165651 0.0509213 0.112336
1475 4 0.224439 0.997647 0.107474
1505 4 0.245175 0.014894 0.166516
652 2 0.314752 0.0353297 0.144301
654 4 0.296673 0.0426172 0.159961
297 4 0.400791 0.0630146 0.0917439
485 4 0.379173 0.0124188 0.0896325
653 4 0.33283 0.0280422 0.128641
758 4 0.431846 0.0682962 0.155255
757 2 0.413234 0.0650686 0.171636
17 3 0.0471638 0.0979946 0.156655
20 3 0.0793998 0.0880163 0.140712
379 2 0.0297003 0.163105 0.149543
381 4 0.049688 0.152032 0.159695
235 2 0.161574 0.133278 0.132679
237 4 0.147526 0.149891 0.120357
701 4 0.118774 0.0969131 0.0899758
236 4 0.175622 0.116664 0.145001
567 4 0.197282 0.139295 0.0833825
580 2 0.272707 0.106722 0.144664
581 4 0.286539 0.124491 0.155531
582 4 0.258875 0.0889522 0.133797
628 2 0.392531 0.166353 0.142771
629 4 0.413709 0.160613 0.130783
380 4 0.00971259 0.174178 0.139391
656 4 0.0222112 0.236616 0.0978859
475 2 0.113849 0.18269 0.09987
477 4 0.114227 0.206401 0.107795
285 4 0.254601 0.17457 0.172142
736 2 0.180291 0.217802 0.124064
737 4 0.173923 0.209715 0.101277
738 4 0.186659 0.225888 0.14685
352 2 0.249779 0.216055 0.10178
353 4 0.258956 0.238487 0.107924
354 4 0.240601 0.193623 0.0956354
460 2 0.325025 0.18229 0.109797
461 4 0.321853 0.196637 0.130028
462 4 0.328197 0.167944 0.0895659
630 4 0.371353 0.172093 0.15476
517 2 0.475829 0.222869 0.102288
518 4 0.467673 0.199235 0.101979
519 4 0.483985 0.246503 0.102596
655 2 0.00967682 0.258222 0.0967735
703 2 0.0063471 0.315901 0.163392
704 4 0.0190907 0.297941 0.151551
337 2 0.0991696 0.255289 0.126455
338 4 0.111853 0.25442 0.147985
339 4 0.0864858 0.256159 0.104925
279 4 0.229824 0.264988 0.16621
506 4 0.221888 0.283068 0.074422
754 2 0.288848 0.300461 0.126596
755 4 0.28977 0.286221 0.147128
756 4 0.287926 0.314702 0.106065
622 2 0.37373 0.271509 0.158086
624 4 0.357051 0.27555 0.139902
739 2 0.341068 0.32563 0.0960065
740 4 0.364352 0.317021 0.0989977
324 4 0.410104 0.282332 0.090758
619 2 0.00815975 0.345019 0.113338
620 4 0.0215573 0.364026 0.122525
535 2 0.167182 0.355237 0.15973
537 4 0.145039 0.36685 0.159582
536 4 0.189325 0.343624 0.159877
625 2 0.194458 0.409032 0.102075
626 4 0.203134 0.391141 0.0869155
387 4 0.349015 0.373035 0.13744
607 2 0.303182 0.409961 0.0982808
609 4 0.283052 0.402756 0.111244
610 2 0.273681 0.364789 0.157271
612 4 0.283469 0.377385 0.138017
741 4 0.317784 0.334238 0.0930153
15 3 0.388392 0.362026 0.147196
385 2 0.360093 0.382274 0.117016
386 4 0.37117 0.391513 0.0965933
495 4 0.428236 0.408545 0.141587
595 2 0.494617 0.393636 0.164445
597 4 0.472103 0.388655 0.154774
672 4 0.426718 0.337588 0.0865457
2652 4 0.488779 0.359839 0.123025
313 2 0.998503 0.445311 0.0853618
314 4 0.00944896 0.460827 0.101629
627 4 0.185783 0.426924 0.117234
637 2 0.254106 0.4725 0.156272
639 4 0.240466 0.47429 0.135394
523 2 0.336806 0.482348 0.097547
525 4 0.331684 0.476288 0.121258
658 2 0.40944 0.477342 0.161666
660 4 0.392404 0.465628 0.175728
493 2 0.43632 0.423293 0.123085
494 4 0.444404 0.43804 0.104583
659 4 0.426475 0.489057 0.147604
18 3 0.0662002 0.0684981 0.17008
2480 4 0.00378398 0.0350125 0.199654
673 2 0.11594 0.0355157 0.228825
674 4 0.139568 0.0331374 0.221001
675 4 0.0923112 0.0378941 0.236649
688 2 0.220214 0.00733131 0.245957
689 4 0.218589 0.0148069 0.222152
692 4 0.254331 0.0803816 0.198492
21 1 0.364853 0.0518106 0.222466
22 3 0.351609 0.0535883 0.24119
23 3 0.379465 0.0340058 0.225277
24 3 0.351291 0.0480904 0.20401
25 3 0.376588 0.0711336 0.219717
759 4 0.394621 0.0618411 0.188017
742 2 0.444272 0.0653547 0.242923
744 4 0.421106 0.0560397 0.241598
511 2 0.0245007 0.149559 0.227908
512 4 0.0038435 0.135751 0.225114
577 2 0.106074 0.111839 0.221801
578 4 0.114143 0.113208 0.198175
579 4 0.0980046 0.11047 0.245428
723 4 0.1653 0.107621 0.217184
544 2 0.176198 0.166286 0.250108
691 2 0.237451 0.0932552 0.185282
693 4 0.22057 0.106129 0.172072
721 2 0.183644 0.103942 0.233771
722 4 0.201989 0.100263 0.250357
30 3 0.295642 0.153132 0.246147
26 1 0.312771 0.138987 0.241129
27 3 0.327515 0.149639 0.227047
28 3 0.304561 0.120076 0.230482
310 2 0.407636 0.138187 0.191436
311 4 0.412251 0.15673 0.207561
312 4 0.403022 0.119643 0.175311
363 4 0.0816528 0.236528 0.193903
394 2 0.0191017 0.243551 0.210824
513 4 0.0451579 0.163366 0.230703
371 4 0.158133 0.233803 0.242694
391 2 0.100696 0.194254 0.237408
392 4 0.112251 0.193593 0.215244
283 2 0.248216 0.197547 0.179657
284 4 0.241831 0.220524 0.187173
545 4 0.200038 0.17311 0.253312
765 4 0.369486 0.211873 0.232369
764 4 0.369171 0.235423 0.188256
763 2 0.369329 0.223648 0.210313
520 2 0.467009 0.220614 0.236897
521 4 0.451902 0.212007 0.218928
361 2 0.0822525 0.261433 0.191772
362 4 0.0828521 0.286338 0.18964
395 4 0.0326987 0.263776 0.205234
748 2 0.0731239 0.282799 0.249294
750 4 0.0518482 0.269793 0.251127
370 2 0.150771 0.257654 0.244148
749 4 0.0943995 0.295806 0.247462
343 2 0.221623 0.287757 0.22655
344 4 0.220539 0.262804 0.225386
345 4 0.222708 0.31271 0.227713
277 2 0.250906 0.267146 0.17948
278 4 0.271987 0.269304 0.192749
307 2 0.300403 0.285412 0.239091
308 4 0.30721 0.271769 0.258908
309 4 0.293596 0.299055 0.219274
623 4 0.390409 0.267468 0.17627
526 2 0.483965 0.261395 0.184063
528 4 0.46263 0.270352 0.174587
262 2 0.0429122 0.399714 0.210059
263 4 0.0608928 0.412244 0.198022
264 4 0.0249315 0.387184 0.222095
646 2 0.0787479 0.347291 0.17079
648 4 0.0592831 0.334695 0.16143
298 2 0.132493 0.34808 0.238744
299 4 0.151508 0.360054 0.227779
300 4 0.113478 0.336106 0.249709
647 4 0.0982128 0.359888 0.180151
291 4 0.180381 0.416752 0.187279
301 2 0.326022 0.416284 0.186731
303 4 0.301058 0.414939 0.186296
611 4 0.263894 0.352192 0.176525
11 1 0.393099 0.355051 0.168358
12 3 0.409509 0.338951 0.167556
13 3 0.374113 0.345932 0.178095
14 3 0.400722 0.372905 0.181067
302 4 0.350985 0.417629 0.187165
643 2 0.451188 0.378333 0.215806
644 4 0.445405 0.40245 0.218984
645 4 0.456972 0.354216 0.212629
2618 4 0.00673177 0.484754 0.19677
415 2 0.124433 0.449322 0.177673
416 4 0.119554 0.473844 0.177866
417 4 0.129311 0.4248 0.177479
289 2 0.203462 0.426307 0.1862
290 4 0.226542 0.435863 0.185121
768 4 0.238126 0.457487 0.218873
767 4 0.287579 0.464298 0.221829
766 2 0.262852 0.460893 0.220351
638 4 0.267747 0.47071 0.177151
229 2 0.390805 0.486552 0.245921
231 4 0.375415 0.467255 0.241922
232 2 0.011054 0.0506442 0.284846
233 4 0.0346353 0.0467802 0.292206
1403 4 0.0952186 0.021659 0.286817
249 4 0.214293 0.0819125 0.303029
690 4 0.221839 0.999856 0.269761
1700 4 0.28047 0.00775141 0.316399
698 4 0.352115 0.0231935 0.337243
478 2 0.476626 0.033053 0.318539
480 4 0.457718 0.0205845 0.307947
743 4 0.467438 0.0746696 0.244248
529 2 0.0398479 0.134557 0.292914
530 4 0.0631706 0.143419 0.291274
531 4 0.0165251 0.125695 0.294554
546 4 0.152359 0.159461 0.246903
730 2 0.150881 0.0905462 0.312141
731 4 0.163075 0.0954509 0.290871
247 2 0.236129 0.0898066 0.293753
403 2 0.216047 0.150908 0.301731
404 4 0.20058 0.131584 0.298193
405 4 0.231514 0.170233 0.305268
29 3 0.323972 0.132925 0.260524
248 4 0.257965 0.0977007 0.284477
631 2 0.356308 0.111378 0.309252
632 4 0.341554 0.101075 0.291893
633 4 0.371062 0.12168 0.326611
331 2 0.458391 0.129496 0.263721
332 4 0.482033 0.133987 0.270509
333 4 0.434749 0.125006 0.256933
349 2 0.460351 0.0920151 0.306846
350 4 0.482411 0.0981691 0.316881
351 4 0.438292 0.0858611 0.296812
444 4 0.031157 0.239198 0.290919
393 4 0.0891423 0.194916 0.259572
706 2 0.323465 0.196068 0.31166
707 4 0.327297 0.209022 0.29062
708 4 0.319633 0.183115 0.332701
420 4 0.414102 0.221572 0.296828
418 2 0.433875 0.23101 0.308874
419 4 0.453648 0.240449 0.32092
522 4 0.482116 0.22922 0.254866
762 4 0.467826 0.180046 0.272967
761 4 0.486305 0.184039 0.319263
760 2 0.477065 0.182043 0.296115
442 2 0.0129555 0.255668 0.286161
372 4 0.143409 0.281505 0.245603
388 2 0.105566 0.270861 0.315922
389 4 0.127355 0.273331 0.327936
390 4 0.0837777 0.268392 0.303907
677 4 0.115507 0.315498 0.321914
400 2 0.209576 0.273063 0.328326
402 4 0.227694 0.263127 0.314248
496 2 0.289857 0.275197 0.296198
497 4 0.311663 0.270372 0.30744
498 4 0.268051 0.280022 0.284956
541 2 0.406819 0.319184 0.295284
543 4 0.398849 0.340169 0.284269
615 4 0.36561 0.295152 0.312486
542 4 0.414788 0.2982 0.306299
364 2 0.0215583 0.362007 0.269974
365 4 0.00419195 0.379959 0.271113
366 4 0.0389247 0.344055 0.268835
601 2 0.0758698 0.400551 0.298307
602 4 0.0587201 0.418512 0.295399
603 4 0.0930195 0.382589 0.301214
735 4 0.168147 0.344363 0.30773
733 2 0.179511 0.347655 0.285703
734 4 0.190875 0.350947 0.263676
433 2 0.314931 0.3948 0.330277
435 4 0.292352 0.387218 0.322667
729 4 0.33129 0.343967 0.265352
447 4 0.412543 0.397003 0.263213
727 2 0.339175 0.367692 0.2657
728 4 0.34706 0.391418 0.266048
445 2 0.433766 0.394843 0.276255
446 4 0.454989 0.392683 0.289298
777 4 0.0526764 0.478014 0.319079
775 2 0.076822 0.471558 0.319778
776 4 0.100968 0.465102 0.320477
414 4 0.154395 0.459211 0.283633
412 2 0.163319 0.472781 0.302644
413 4 0.172242 0.486351 0.321654
436 2 0.287296 0.446641 0.281936
437 4 0.311841 0.446106 0.2772
438 4 0.262751 0.447176 0.286673
230 4 0.406194 0.505848 0.24992
119 3 0.486051 0.433884 0.333938
712 2 0.434971 0.475525 0.287629
713 4 0.41736 0.458254 0.291718
714 4 0.452582 0.492797 0.28354
316 2 0.0382412 0.0513585 0.360822
317 4 0.0160437 0.0424328 0.368087
318 4 0.0604387 0.0602843 0.353557
427 2 0.0961251 0.0210106 0.374659
428 4 0.0909739 0.033803 0.395516
429 4 0.101276 0.00821824 0.353803
606 4 0.183211 0.0338165 0.381319
439 2 0.255019 0.0216969 0.393066
441 4 0.231392 0.0291738 0.396386
604 2 0.186723 0.0467762 0.360226
605 4 0.190234 0.0597359 0.339134
440 4 0.278647 0.01422 0.389747
682 2 0.293729 0.0969835 0.390585
683 4 0.318665 0.0951881 0.390177
684 4 0.268793 0.0987789 0.390994
697 2 0.34812 0.0214939 0.361867
699 4 0.344126 0.0197943 0.386491
256 2 0.439607 0.0592499 0.378925
258 4 0.431595 0.0401717 0.392961
2643 4 0.510343 0.0554293 0.385985
397 2 0.082368 0.121252 0.347763
398 4 0.06521 0.136231 0.358078
399 4 0.0995261 0.106272 0.337448
598 2 0.167476 0.155729 0.359303
685 2 0.164748 0.156445 0.416672
687 4 0.152203 0.137505 0.427115
732 4 0.138687 0.0856415 0.333412
472 2 0.250503 0.164404 0.355796
474 4 0.23059 0.150285 0.361212
599 4 0.185807 0.139491 0.364351
466 2 0.340932 0.142693 0.410198
467 4 0.354734 0.148317 0.390121
257 4 0.447619 0.0783281 0.364889
451 2 0.476056 0.14061 0.355895
452 4 0.494558 0.124341 0.360158
453 4 0.457553 0.156878 0.351632
514 2 0.443389 0.152197 0.415098
515 4 0.443474 0.155788 0.390354
2654 4 0.0186133 0.192209 0.37591
600 4 0.149145 0.171968 0.354255
274 2 0.234417 0.249858 0.407057
686 4 0.177293 0.175386 0.40623
473 4 0.270415 0.178523 0.35038
488 4 0.304 0.225465 0.398944
715 2 0.36983 0.231961 0.369739
716 4 0.362164 0.209231 0.362683
306 4 0.487932 0.215696 0.431682
617 4 0.0840529 0.31631 0.359194
2849 4 0.995915 0.25992 0.362974
676 2 0.127336 0.318894 0.343679
678 4 0.139166 0.322289 0.365444
275 4 0.22641 0.258231 0.3849
373 2 0.201801 0.299328 0.422415
374 4 0.221484 0.285892 0.42998
401 4 0.191458 0.282999 0.342404
508 2 0.216977 0.334353 0.347975
509 4 0.234063 0.336504 0.329847
510 4 0.199891 0.332202 0.366104
376 2 0.287435 0.298796 0.357706
377 4 0.311597 0.29582 0.352001
378 4 0.263274 0.301771 0.363412
613 2 0.363419 0.313117 0.329738
614 4 0.361229 0.331082 0.34699
717 4 0.377496 0.25469 0.376794
268 2 0.473724 0.276217 0.387749
269 4 0.457945 0.256873 0.386327
270 4 0.489502 0.295561 0.38917
408 4 0.0872739 0.380629 0.408609
616 2 0.0600663 0.321395 0.364089
618 4 0.0360796 0.326481 0.368983
2927 4 0.016469 0.377433 0.37537
406 2 0.0976193 0.397232 0.393037
407 4 0.107965 0.413835 0.377464
502 2 0.209487 0.406379 0.376994
503 4 0.231603 0.417849 0.37912
504 4 0.187372 0.394909 0.374869
334 2 0.359636 0.374688 0.413771
336 4 0.368802 0.37867 0.390851
434 4 0.337509 0.402382 0.337887
561 4 0.419466 0.347853 0.407099
559 2 0.442651 0.342685 0.414905
560 4 0.465836 0.337518 0.422711
751 2 0.43014 0.390049 0.378038
752 4 0.441159 0.37561 0.360854
753 4 0.419121 0.404488 0.395222
2925 4 0.494048 0.354498 0.373683
547 2 0.0467788 0.434093 0.354924
548 4 0.0643317 0.416469 0.352382
549 4 0.029226 0.451717 0.357466
680 4 0.0764861 0.429314 0.414319
499 2 0.10989 0.471104 0.373879
500 4 0.133098 0.462994 0.369315
501 4 0.086683 0.479213 0.378443
570 4 0.193582 0.449615 0.417712
1 1 0.328001 0.466169 0.361722
2 3 0.33313 0.485445 0.373181
5 3 0.308419 0.469114 0.350474
3 3 0.345117 0.461565 0.346748
4 3 0.325866 0.448757 0.37691
594 4 0.405093 0.468166 0.371557
592 2 0.424916 0.479243 0.361091
593 4 0.444739 0.49032 0.350625
718 2 0.056278 0.0764936 0.458482
719 4 0.048991 0.0786729 0.482301
720 4 0.063565 0.0743143 0.434664
342 4 0.170386 0.0395778 0.453529
367 2 0.114456 0.0664931 0.457227
369 4 0.118958 0.0532266 0.477937
340 2 0.179881 0.0372806 0.476545
341 4 0.189376 0.0349833 0.499561
430 2 0.322826 0.0778271 0.489045
432 4 0.300711 0.0663463 0.491113
724 2 0.331196 0.0729978 0.434941
726 4 0.30627 0.0746324 0.436022
424 2 0.392765 0.0306703 0.443602
425 4 0.382413 0.00856233 0.449011
426 4 0.403116 0.0527783 0.438192
725 4 0.356123 0.0713632 0.433859
642 4 0.44514 0.08538 0.492914
1062 4 0.454646 0.008151 0.493096
457 2 0.004783 0.15931 0.435719
458 4 0.0244072 0.144018 0.438216
2585 4 0.00224703 0.105014 0.424866
368 4 0.109955 0.0797596 0.436517
938 4 0.0865829 0.145655 0.495986
319 2 0.249697 0.125181 0.429844
321 4 0.22572 0.118111 0.4293
320 4 0.273674 0.132251 0.430387
411 4 0.247905 0.166372 0.486319
468 4 0.32713 0.137068 0.430274
431 4 0.344942 0.0893079 0.486978
516 4 0.443304 0.148606 0.439842
640 2 0.442584 0.109353 0.499544
2880 4 0.483882 0.0907489 0.449529
261 4 0.084697 0.19504 0.491152
469 2 0.00767438 0.169214 0.48977
470 4 0.021112 0.190162 0.487363
259 2 0.0867728 0.199157 0.466577
260 4 0.0888486 0.203274 0.442003
1034 4 0.151452 0.17499 0.494303
276 4 0.242424 0.241484 0.429215
409 2 0.268986 0.179817 0.48613
410 4 0.290066 0.193262 0.485941
487 2 0.300472 0.227183 0.423638
489 4 0.296943 0.228902 0.448332
574 2 0.382119 0.167587 0.461102
575 4 0.402477 0.176717 0.449815
576 4 0.361761 0.158458 0.472389
872 4 0.418159 0.234996 0.492434
304 2 0.484946 0.190882 0.432421
305 4 0.48196 0.166068 0.43316
346 2 0.0568342 0.293526 0.423424
347 4 0.081572 0.29634 0.421122
348 4 0.0320965 0.290712 0.425727
695 4 0.0781568 0.257434 0.508822
2846 4 0.996193 0.327854 0.467833
6 1 0.152774 0.331889 0.496986
9 3 0.137206 0.314711 0.497952
326 4 0.121828 0.326403 0.43775
694 2 0.096262 0.2545 0.491829
696 4 0.114367 0.251567 0.474836
375 4 0.182118 0.312764 0.41485
651 4 0.248714 0.265064 0.48681
649 2 0.261829 0.282652 0.474817
650 4 0.274943 0.300241 0.462823
265 2 0.355186 0.270353 0.433544
266 4 0.358478 0.290455 0.448043
267 4 0.351893 0.25025 0.419046
583 2 0.450781 0.3074 0.455419
584 4 0.474388 0.303252 0.448301
585 4 0.427174 0.311548 0.462538
325 2 0.101952 0.328354 0.452793
327 4 0.0820756 0.330305 0.467837
384 4 0.0838328 0.416303 0.502137
10 3 0.167188 0.328352 0.479712
773 4 0.238332 0.392429 0.476436
709 2 0.194797 0.387332 0.44476
710 4 0.21048 0.403207 0.433481
711 4 0.179114 0.371457 0.456038
774 4 0.280431 0.383184 0.501791
772 2 0.259382 0.387806 0.489113
238 2 0.363936 0.376723 0.483365
239 4 0.388859 0.376764 0.485365
240 4 0.339013 0.376681 0.481365
335 4 0.35047 0.370705 0.43669
926 4 0.44861 0.397853 0.496561
538 2 0.0852626 0.494469 0.494343
679 2 0.0615538 0.432442 0.434128
681 4 0.0466216 0.435569 0.453938
1383 4 0.0279685 0.502604 0.433327
382 2 0.0966299 0.424954 0.482476
383 4 0.109427 0.433605 0.462814
569 4 0.147291 0.464549 0.429324
568 2 0.170437 0.457082 0.423518
634 2 0.238468 0.450056 0.464312
635 4 0.219048 0.451947 0.479947
636 4 0.257888 0.448165 0.448676
667 2 0.306271 0.428233 0.433073
668 4 0.319408 0.442311 0.417124
669 4 0.293133 0.414154 0.449022
588 4 0.403163 0.445034 0.406094
586 2 0.42547 0.44807 0.416974
587 4 0.447776 0.451106 0.427855
661 2 0.457752 0.462686 0.503223
662 4 0.48255 0.460724 0.500694
1126 2 0.049543 0.0483351 0.530554
1127 4 0.0567964 0.0379788 0.508983
1128 4 0.0422895 0.0586915 0.552125
1057 2 0.145261 0.0476177 0.567728
1058 4 0.159325 0.0383075 0.549271
1059 4 0.131196 0.0569278 0.586186
1181 4 0.235811 0.0720799 0.528754
961 2 0.287417 0.0223297 0.531609
963 4 0.280772 0.0456334 0.53777
841 2 0.37896 0.0776752 0.540904
842 4 0.402392 0.0694206 0.538079
1216 2 0.41248 0.015386 0.578391
2196 4 0.335214 0.0168614 0.579236
1060 2 0.471305 0.000588311 0.510139
1061 4 0.487964 0.993026 0.527182
1217 4 0.428538 0.0148996 0.559231
3008 4 0.502489 0.0813456 0.549053
937 2 0.0874979 0.126553 0.512094
939 4 0.0884129 0.107451 0.528201
1152 4 0.163646 0.0893026 0.505656
1154 4 0.138036 0.130164 0.575644
1150 2 0.176986 0.110428 0.506615
1151 4 0.190327 0.131554 0.507573
1180 2 0.238983 0.095314 0.520077
1182 4 0.242155 0.118548 0.5114
1031 4 0.276458 0.0716566 0.572588
843 4 0.355528 0.0859298 0.54373
899 4 0.362813 0.156224 0.569308
641 4 0.440027 0.133326 0.506174
3159 4 0.477002 0.143989 0.544345
877 2 0.0673379 0.241368 0.574171
878 4 0.0542937 0.247586 0.553767
1198 2 7.71686e-05 0.186619 0.572414
1200 4 0.008985 0.209673 0.568625
1033 2 0.139227 0.195071 0.502819
1035 4 0.127003 0.215151 0.511335
1272 4 0.11158 0.189487 0.576281
856 2 0.221551 0.217983 0.529766
857 4 0.231169 0.237732 0.517822
858 4 0.211934 0.198234 0.541711
1221 4 0.171282 0.188854 0.569038
900 4 0.333887 0.172406 0.531862
871 2 0.407323 0.231185 0.514643
873 4 0.396486 0.227375 0.536852
898 2 0.34835 0.164315 0.550585
3065 4 0.498985 0.217715 0.515825
983 4 0.0368909 0.318047 0.557716
1258 2 0.159116 0.266384 0.570444
8 3 0.164506 0.33308 0.51697
1259 4 0.174323 0.267197 0.550613
790 2 0.295892 0.257585 0.568629
791 4 0.317449 0.257477 0.581297
792 4 0.274336 0.257693 0.555962
813 4 0.317364 0.299532 0.515111
811 2 0.341798 0.304351 0.517332
812 4 0.366232 0.30917 0.519553
1009 2 0.491981 0.321757 0.544083
1010 4 0.477666 0.302224 0.550304
982 2 0.0175095 0.332602 0.563856
984 4 0.998128 0.347157 0.569995
7 3 0.141705 0.351779 0.493665
1137 4 0.092934 0.361939 0.573307
897 4 0.183384 0.404006 0.577896
1189 2 0.244297 0.383307 0.583614
1191 4 0.219618 0.379321 0.584111
802 2 0.28402 0.344684 0.552003
803 4 0.307646 0.347126 0.559815
804 4 0.260394 0.342242 0.544192
928 2 0.366845 0.369467 0.57178
929 4 0.370529 0.386945 0.554282
930 4 0.36316 0.35199 0.589277
925 2 0.459118 0.393941 0.51891
927 4 0.469625 0.39003 0.541259
934 2 0.00902537 0.44634 0.5213
935 4 0.0247329 0.426897 0.521959
1041 4 0.0686988 0.4279 0.587116
539 4 0.0878286 0.475723 0.510688
1159 2 0.166685 0.443497 0.560888
1160 4 0.164021 0.43443 0.584037
1161 4 0.16935 0.452564 0.537739
1171 2 0.240024 0.451294 0.558999
1173 4 0.215578 0.456503 0.559656
880 2 0.334511 0.469215 0.526861
882 4 0.309984 0.47269 0.530252
1172 4 0.26447 0.446085 0.558343
881 4 0.359039 0.465739 0.523469
1002 4 0.393184 0.454639 0.578433
1000 2 0.417718 0.450422 0.580772
663 4 0.432954 0.464647 0.505753
1082 4 0.0341878 0.0767749 0.621438
1183 2 0.000448288 0.0288115 0.651674
1185 4 0.0244114 0.0252643 0.657868
825 4 0.16354 0.0349023 0.65278
945 4 0.118535 0.0459651 0.660947
823 2 0.170074 0.0223682 0.632156
824 4 0.176609 0.00983411 0.611531
949 2 0.263605 0.0197667 0.644401
951 4 0.255034 0.00973269 0.623163
1218 4 0.396422 0.0158724 0.59755
1163 4 0.481304 0.0476911 0.661703
1076 4 0.0216228 0.112566 0.650944
1081 2 0.047044 0.0981649 0.6199
1083 4 0.0599001 0.119555 0.618361
1153 2 0.140867 0.127425 0.600335
1155 4 0.143697 0.124687 0.625027
1032 4 0.25991 0.113139 0.595084
1284 4 0.179435 0.101114 0.657209
1283 4 0.223526 0.105591 0.634043
1282 2 0.201481 0.103352 0.645626
1211 4 0.226132 0.161359 0.663611
887 4 0.312238 0.160457 0.644448
1005 4 0.337293 0.0964434 0.65908
1030 2 0.268184 0.0923977 0.583836
808 2 0.453197 0.0966809 0.632036
809 4 0.461181 0.0741866 0.639482
810 4 0.445212 0.119175 0.62459
852 4 0.0362182 0.181926 0.650343
879 4 0.0803821 0.23515 0.594576
1270 2 0.115579 0.186678 0.600802
1271 4 0.119578 0.18387 0.625324
796 2 0.22611 0.25194 0.614626
797 4 0.204054 0.243694 0.606218
798 4 0.248166 0.260186 0.623034
1210 2 0.229298 0.181949 0.649785
1212 4 0.232465 0.20254 0.635958
1219 2 0.181301 0.188716 0.591946
1220 4 0.19132 0.188577 0.614854
886 2 0.296242 0.177234 0.65382
888 4 0.280247 0.194011 0.663192
1026 4 0.41105 0.19618 0.653386
1192 2 0.346277 0.215177 0.662564
1193 4 0.363762 0.19889 0.669924
1194 4 0.328791 0.231464 0.655204
904 2 0.484182 0.237292 0.587228
906 4 0.478798 0.230688 0.610735
1024 2 0.432936 0.186054 0.646779
1025 4 0.454822 0.175929 0.640173
1209 4 0.0695062 0.270627 0.679256
1243 2 0.0270099 0.290958 0.633817
1244 4 0.0212792 0.273644 0.616713
1245 4 0.0327405 0.308272 0.650922
1207 2 0.0901231 0.258205 0.672487
1260 4 0.143909 0.265571 0.590274
946 2 0.174012 0.291727 0.631281
947 4 0.165843 0.268284 0.6283
948 4 0.182182 0.315169 0.634261
1237 2 0.319748 0.336328 0.619482
1239 4 0.297735 0.334456 0.63119
952 2 0.445534 0.289353 0.608879
953 4 0.46338 0.295001 0.625456
954 4 0.427688 0.283704 0.592302
1040 4 0.0513029 0.383967 0.603487
3275 4 0.00433873 0.394916 0.662388
992 4 0.135109 0.427705 0.670222
1135 2 0.107724 0.350335 0.589792
1136 4 0.122515 0.338731 0.606278
895 2 0.173841 0.384824 0.590786
896 4 0.164297 0.365642 0.603675
890 4 0.345286 0.417223 0.588511
1190 4 0.268976 0.387293 0.583116
1204 2 0.419166 0.397802 0.660724
1206 4 0.410408 0.420229 0.653979
1238 4 0.341761 0.3382 0.607773
1205 4 0.427924 0.375375 0.66747
1039 2 0.0600008 0.405934 0.595301
991 2 0.11244 0.427798 0.659673
993 4 0.0897712 0.427891 0.649123
1186 2 0.233997 0.504323 0.632534
1188 4 0.212414 0.492275 0.636299
889 2 0.325704 0.432164 0.592808
891 4 0.306121 0.447105 0.597104
1001 4 0.442252 0.446205 0.583111
1267 2 0.441276 0.47383 0.663229
1268 4 0.465339 0.476562 0.657011
2990 4 0.005463 0.0498814 0.728609
943 2 0.101978 0.0571855 0.675952
944 4 0.0854208 0.0684059 0.690957
1147 2 0.206462 0.0754384 0.72902
1149 4 0.191803 0.0627422 0.744803
950 4 0.272176 0.0298006 0.665639
1092 4 0.317839 0.0177785 0.68595
42 3 0.413476 0.0702077 0.712445
44 3 0.411865 0.0703476 0.674895
1090 2 0.341693 0.010799 0.68322
41 1 0.422623 0.0612526 0.693333
43 3 0.419669 0.0382403 0.693674
45 3 0.444835 0.0662257 0.692605
1162 2 0.484899 0.0495347 0.686378
1164 4 0.488493 0.0513783 0.711053
2321 4 0.470197 0.99108 0.734607
851 4 0.0572152 0.166464 0.693014
862 2 0.0584171 0.128765 0.724505
864 4 0.0406185 0.144048 0.715856
1075 2 0.0141104 0.124242 0.671739
863 4 0.0762157 0.113482 0.733155
907 2 0.16494 0.153932 0.683728
909 4 0.141528 0.14617 0.679627
1148 4 0.22112 0.0881345 0.713236
1225 2 0.207151 0.135182 0.722989
1226 4 0.229738 0.124485 0.722213
1227 4 0.184564 0.145878 0.723766
829 2 0.310406 0.149216 0.702884
830 4 0.327341 0.157169 0.686297
831 4 0.293471 0.141263 0.719471
1003 2 0.348082 0.10191 0.680963
1004 4 0.358872 0.107377 0.702847
1141 2 0.394877 0.138254 0.716286
1142 4 0.407521 0.139116 0.694732
1143 4 0.382234 0.137392 0.73784
3426 4 0.492762 0.124458 0.681471
850 2 0.0467167 0.174195 0.671679
1213 2 0.00251391 0.23415 0.748612
1214 4 0.023072 0.220456 0.752488
1105 2 0.110368 0.21705 0.726892
1106 4 0.131594 0.226353 0.717506
1107 4 0.0891425 0.207746 0.736278
1208 4 0.11074 0.245783 0.665719
908 4 0.188352 0.161693 0.687829
1276 2 0.212417 0.257701 0.74795
1277 4 0.22852 0.240282 0.740048
976 2 0.294267 0.206171 0.720358
977 4 0.317927 0.214252 0.720631
978 4 0.270607 0.19809 0.720086
1261 2 0.437986 0.240015 0.710843
1263 4 0.434359 0.219877 0.696473
1177 2 0.0177215 0.25799 0.69869
1178 4 0.0405125 0.262639 0.707863
820 2 0.152083 0.307113 0.720399
821 4 0.14823 0.299426 0.69692
822 4 0.155936 0.314799 0.743878
1063 2 0.239629 0.289154 0.702839
1065 4 0.217627 0.299987 0.697967
1278 4 0.196315 0.275121 0.755852
1064 4 0.26163 0.27832 0.707711
805 2 0.3391 0.315601 0.675439
807 4 0.32674 0.294415 0.680292
1006 2 0.361661 0.298179 0.739879
1007 4 0.383685 0.303963 0.750208
1008 4 0.339638 0.292395 0.729551
1262 4 0.441612 0.260153 0.725213
3123 4 0.48201 0.268091 0.698563
892 2 0.0558468 0.356767 0.697828
893 4 0.0804564 0.353015 0.695489
894 4 0.0312373 0.360519 0.700167
940 2 0.151736 0.390561 0.733204
942 4 0.132951 0.405133 0.725459
941 4 0.17052 0.37599 0.74095
1066 2 0.186234 0.399947 0.679103
1067 4 0.172615 0.419592 0.686435
1068 4 0.199853 0.380301 0.671771
1027 2 0.251072 0.401477 0.676346
1029 4 0.26786 0.384356 0.66926
806 4 0.351461 0.336787 0.670585
1281 4 0.026668 0.461475 0.68371
1280 4 0.0739955 0.476432 0.67762
1279 2 0.0503318 0.468953 0.680665
1028 4 0.234284 0.418598 0.683433
1174 2 0.218805 0.488393 0.692003
1175 4 0.240346 0.486146 0.679509
1176 4 0.197263 0.490639 0.704497
1138 2 0.309635 0.433206 0.713953
1139 4 0.300276 0.428726 0.736703
1140 4 0.318993 0.437685 0.691204
1989 4 0.321338 0.488095 0.718488
1228 2 0.366434 0.464736 0.701564
1229 4 0.373366 0.467723 0.725401
1230 4 0.359501 0.461749 0.677727
1099 2 0.444956 0.4303 0.707609
1100 4 0.453576 0.410198 0.695493
1101 4 0.436336 0.450402 0.719726
1249 2 0.472032 0.490251 0.749582
1250 4 0.486671 0.470021 0.748299
1269 4 0.417213 0.471099 0.669448
1295 4 0.0314012 0.0530925 0.780115
1294 2 0.015205 0.0460259 0.797804
1201 2 0.11335 0.0700128 0.797433
1202 4 0.133368 0.0565586 0.804025
1203 4 0.0933327 0.0834671 0.790841
875 4 0.226775 0.0416878 0.819777
1049 4 0.326537 0.00918953 0.751675
1255 2 0.273822 0.0383241 0.799121
1256 4 0.279506 0.0514072 0.819656
1257 4 0.268138 0.025241 0.778586
1048 2 0.350065 0.000728426 0.751481
844 2 0.493539 0.074289 0.77614
846 4 0.49017 0.0501773 0.781836
1111 2 0.425565 0.0560135 0.774472
1112 4 0.432375 0.0794802 0.779774
1113 4 0.418755 0.0325468 0.769169
832 2 0.0060406 0.146696 0.778264
833 4 0.0253248 0.162032 0.78252
34 3 0.11413 0.145844 0.804805
1287 4 0.0943792 0.11771 0.816244
839 4 0.266236 0.108312 0.793707
838 2 0.266367 0.12671 0.810639
840 4 0.266498 0.145108 0.82757
960 4 0.325851 0.121107 0.822107
47 3 0.403222 0.179968 0.792088
1084 2 0.356114 0.109788 0.787426
1085 4 0.364269 0.100998 0.809367
1086 4 0.34796 0.118577 0.765485
48 3 0.431883 0.155698 0.790604
845 4 0.496908 0.0984008 0.770443
31 1 0.123427 0.167078 0.803754
32 3 0.113628 0.180291 0.819833
33 3 0.146238 0.165949 0.807851
35 3 0.11966 0.176202 0.78323