ITEM: TIMESTEP
3340000
ITEM: NUMBER OF ATOMS
4590
ITEM: BOX BOUNDS pp pp pp
-9.9985700000000008e+00 9.9985700000000008e+00
-9.9985700000000008e+00 9.9985700000000008e+00
-9.9985700000000008e+00 9.9985700000000008e+00
ITEM: ATOMS id type xs ys zs
1666 2 0.0648919 0.0618301 0.0781881
1668 4 0.0766151 0.0455602 0.0632536
465 4 0.028862 0.0682782 0.00943183
3290 4 0.0807412 0.0463881 0.042995
3289 2 0.0965741 0.0406617 0.0245097
3291 4 0.112407 0.0349352 0.00602439
490 2 0.301514 0.0163874 0.0475484
491 4 0.31473 0.0367446 0.0535566
150 3 0.440049 0.12152 0.001836
505 2 0.149565 0.233793 0.0447006
506 4 0.161054 0.216874 0.0590861
737 4 0.181379 0.215032 0.0606202
736 2 0.199426 0.200588 0.0510881
738 4 0.217472 0.186144 0.041556
354 4 0.228698 0.202442 0.036157
462 4 0.312026 0.171607 0.0820945
460 2 0.300451 0.175743 0.0603209
352 2 0.253416 0.199303 0.0382366
461 4 0.288876 0.179879 0.0385473
353 4 0.278135 0.196164 0.0403162
665 4 0.339364 0.205538 0.0222407
664 2 0.335678 0.185141 0.00825615
2808 4 0.99412 0.26562 0.0348251
2807 4 0.0337541 0.279935 0.00790011
2806 2 0.0139372 0.272777 0.0213626
915 4 0.124681 0.260423 0.0201398
507 4 0.138076 0.250712 0.0303152
293 4 0.110717 0.269609 0.0543201
287 4 0.170405 0.295561 0.0215628
286 2 0.158238 0.317241 0.0242288
292 2 0.106628 0.292986 0.0621954
294 4 0.102539 0.316362 0.0700706
355 2 0.217038 0.271468 0.0160166
357 4 0.192691 0.270589 0.0103901
356 4 0.241384 0.272347 0.0216432
483 4 0.253363 0.270935 0.0065471
612 4 0.248412 0.310652 0.0495814
610 2 0.251435 0.302039 0.0728592
609 4 0.25928 0.327185 0.0525818
482 4 0.296541 0.295344 0.0129138
481 2 0.274952 0.28314 0.00973043
740 4 0.324645 0.328103 0.0703425
572 4 0.307168 0.308145 0.0014727
741 4 0.365919 0.335739 0.0431601
739 2 0.345282 0.331921 0.0567513
288 4 0.146071 0.338921 0.0268948
990 4 0.144551 0.358956 0.0269765
988 2 0.164981 0.373055 0.0299782
1289 4 0.203066 0.389652 0.0229524
989 4 0.185411 0.387154 0.0329798
1288 2 0.209799 0.403766 0.00344229
607 2 0.266208 0.351202 0.053178
250 2 0.301651 0.40374 0.0658415
252 4 0.286773 0.383671 0.0668553
608 4 0.273135 0.375219 0.0537743
226 2 0.395479 0.399577 0.0395486
227 4 0.398657 0.383874 0.0203519
1305 4 0.404271 0.365371 0.0224407
1045 2 0.497161 0.36371 0.0269761
280 2 0.462558 0.358818 0.0715722
282 4 0.486173 0.361978 0.0639874
281 4 0.438943 0.355658 0.0791569
1047 4 0.499519 0.369671 0.0511441
551 4 0.0360902 0.511002 0.0309767
550 2 0.0222011 0.497049 0.04639
313 2 0.0143856 0.437865 0.0626858
315 4 0.0185988 0.413418 0.0595604
1788 4 0.123993 0.489655 0.0216472
1786 2 0.145207 0.48288 0.0330151
1767 4 0.116133 0.500478 0.0359778
1440 4 0.215432 0.421633 0.0770751
243 4 0.195689 0.426495 0.0728028
241 2 0.186915 0.443132 0.0563284
242 4 0.17814 0.459769 0.0398539
1787 4 0.166421 0.476105 0.0443829
251 4 0.316529 0.42381 0.0648276
524 4 0.330687 0.438466 0.0639168
271 2 0.286813 0.474757 0.0616878
272 4 0.305932 0.459126 0.0577735
273 4 0.267694 0.490388 0.0656021
228 4 0.3923 0.415279 0.0587453
525 4 0.37948 0.428348 0.0681076
523 2 0.355084 0.433407 0.0660122
1583 4 0.47744 0.475767 0.0441073
1582 2 0.473509 0.485768 0.0666841
1667 4 0.0531688 0.0781 0.0931225
16 1 0.0316756 0.0576611 0.123756
19 3 0.0187045 0.0679379 0.14002
17 3 0.0422064 0.0738798 0.111297
20 3 0.0184852 0.0450917 0.110093
18 3 0.0477621 0.0442568 0.133753
2480 4 0.012926 0.0761813 0.160214
1422 4 0.00641197 0.0557242 0.152951
1475 4 0.323229 0.0634119 0.0899346
652 2 0.255434 0.0647781 0.148058
654 4 0.260818 0.0590723 0.124317
1476 4 0.279133 0.0605853 0.113349
1474 2 0.301181 0.0619986 0.101642
486 4 0.337046 0.00550053 0.139148
297 4 0.386803 0.0415345 0.133444
295 2 0.410826 0.0484379 0.134062
484 2 0.353641 0.0220515 0.13044
485 4 0.370237 0.0386024 0.121732
296 4 0.43485 0.0553413 0.13468
745 2 0.49647 0.025468 0.0997641
746 4 0.493361 0.04268 0.117632
557 4 0.441114 0.0644469 0.117636
556 2 0.457515 0.0828584 0.11349
450 4 0.0676972 0.106557 0.108166
236 4 0.11674 0.129756 0.142934
449 4 0.0982369 0.133854 0.136852
448 2 0.082967 0.120206 0.122509
235 2 0.130914 0.131309 0.163473
28 3 0.255766 0.151177 0.170537
580 2 0.308898 0.117964 0.137726
581 4 0.290415 0.134788 0.137011
30 3 0.284481 0.152221 0.146205
26 1 0.270806 0.164841 0.159335
582 4 0.327382 0.101141 0.138442
758 4 0.347182 0.102106 0.146034
558 4 0.473917 0.10127 0.109344
771 4 0.482656 0.114516 0.124163
769 2 0.478834 0.123716 0.147096
477 4 0.241027 0.18886 0.14402
371 4 0.204619 0.242439 0.150921
476 4 0.220197 0.234292 0.142348
475 2 0.230612 0.211576 0.143184
29 3 0.259334 0.180244 0.146314
27 3 0.283505 0.176176 0.174808
756 4 0.357198 0.235616 0.134978
754 2 0.358124 0.217147 0.151807
255 4 0.354289 0.244866 0.118455
253 2 0.377209 0.246824 0.108656
254 4 0.400129 0.248782 0.0988573
755 4 0.35905 0.198678 0.168636
624 4 0.421513 0.228769 0.168112
629 4 0.431231 0.221238 0.152677
628 2 0.42396 0.231691 0.131158
630 4 0.41669 0.242144 0.109639
339 4 0.0451366 0.278166 0.168384
337 2 0.0667456 0.266314 0.16417
456 4 0.108375 0.323327 0.0869581
611 4 0.254457 0.293426 0.0961369
279 4 0.27491 0.288107 0.154926
277 2 0.273164 0.292155 0.130314
278 4 0.271418 0.296204 0.105702
386 4 0.322678 0.340694 0.0854941
619 2 0.0238288 0.370772 0.145315
620 4 0.0158155 0.38935 0.130624
621 4 0.0318421 0.352195 0.160007
454 2 0.123966 0.341732 0.0935401
455 4 0.139558 0.360138 0.100122
537 4 0.147648 0.402711 0.135628
535 2 0.140554 0.390461 0.115018
536 4 0.13346 0.37821 0.0944075
647 4 0.137085 0.396675 0.151852
646 2 0.125471 0.380364 0.166827
625 2 0.203325 0.383383 0.152013
627 4 0.20932 0.401945 0.136371
1439 4 0.197391 0.403527 0.120057
301 2 0.319288 0.408451 0.144129
385 2 0.327272 0.359152 0.101723
302 4 0.327688 0.385862 0.137469
387 4 0.331865 0.37761 0.117953
670 2 0.412594 0.363937 0.110789
12 3 0.383587 0.364626 0.139572
11 1 0.369305 0.38262 0.138401
15 3 0.348142 0.375159 0.134514
672 4 0.391919 0.371051 0.122919
13 3 0.370069 0.394126 0.158537
14 3 0.376115 0.396488 0.121089
495 4 0.393756 0.404718 0.120189
645 4 0.383209 0.408628 0.167507
671 4 0.433268 0.356823 0.0986594
104 3 0.494186 0.361683 0.0826807
1431 4 0.156426 0.472228 0.136247
1620 4 0.145414 0.487664 0.130542
1429 2 0.158112 0.464334 0.159912
1573 2 0.236049 0.483363 0.139395
1575 4 0.217591 0.499022 0.14566
1438 2 0.206412 0.41258 0.0985661
1574 4 0.254508 0.467703 0.133131
639 4 0.250584 0.448489 0.134853
638 4 0.297538 0.431356 0.136437
637 2 0.274061 0.439923 0.135645
303 4 0.310888 0.43104 0.150789
659 4 0.324063 0.444749 0.156712
1559 4 0.374398 0.496803 0.132711
493 2 0.399456 0.428968 0.122348
494 4 0.405155 0.453217 0.124506
1584 4 0.469578 0.495768 0.0892609
688 2 0.167156 0.0445469 0.212584
690 4 0.149656 0.0605663 0.220479
1506 4 0.230556 0.0290742 0.161235
689 4 0.184655 0.0285276 0.204688
1505 4 0.200369 0.0175056 0.199388
1504 2 0.215462 0.0232899 0.180312
653 4 0.250051 0.070484 0.171799
22 3 0.379034 0.0780527 0.234861
698 4 0.397419 0.0709727 0.230939
697 2 0.400583 0.0468001 0.236494
699 4 0.403747 0.0226276 0.242048
1518 4 0.418782 0.0107544 0.246119
742 2 0.490591 0.000251569 0.255399
349 2 0.487615 0.0644463 0.210287
350 4 0.473764 0.079664 0.224491
511 2 0.0121163 0.127581 0.213298
513 4 0.0297369 0.139189 0.226712
578 4 0.0389248 0.151539 0.21416
2479 2 0.998458 0.0926261 0.172273
2481 4 0.98399 0.109071 0.184333
674 4 0.157033 0.0798185 0.216215
237 4 0.145088 0.132861 0.184013
673 2 0.150202 0.103869 0.216511
675 4 0.143371 0.12792 0.216807
546 4 0.129619 0.139332 0.225465
544 2 0.122468 0.142699 0.249187
722 4 0.189497 0.0925564 0.245404
693 4 0.259131 0.082442 0.18447
691 2 0.274623 0.0907374 0.202257
1701 4 0.305944 0.100034 0.232847
692 4 0.290114 0.0990329 0.220044
1699 2 0.327776 0.100789 0.220683
757 2 0.352874 0.0963959 0.169702
333 4 0.408946 0.0845284 0.223796
21 1 0.380217 0.0928282 0.21727
23 3 0.364643 0.109705 0.22059
25 3 0.375687 0.0817806 0.197877
1700 4 0.349608 0.101545 0.20852
759 4 0.358566 0.0906862 0.19337
24 3 0.401591 0.101822 0.216452
331 2 0.433572 0.0877953 0.220958
332 4 0.458198 0.0910623 0.21812
770 4 0.475012 0.132917 0.170029
312 4 0.465956 0.120337 0.183049
310 2 0.473972 0.136042 0.200777
311 4 0.481988 0.151747 0.218504
521 4 0.489734 0.16188 0.232898
577 2 0.045103 0.173904 0.223477
529 2 0.0179403 0.224358 0.22124
530 4 0.0368591 0.209877 0.228828
579 4 0.0512812 0.196269 0.232795
338 4 0.0883546 0.254462 0.159956
362 4 0.15369 0.225205 0.192869
372 4 0.162243 0.229899 0.174323
361 2 0.139281 0.244287 0.20018
370 2 0.183431 0.236169 0.162622
622 2 0.428538 0.246212 0.184591
704 4 0.0336989 0.285929 0.182795
703 2 0.0268252 0.308269 0.191675
705 4 0.0199515 0.330609 0.200554
363 4 0.124873 0.263369 0.207491
395 4 0.126712 0.264756 0.227614
394 2 0.108421 0.270208 0.243766
285 4 0.279359 0.280644 0.173736
283 2 0.268438 0.272222 0.194592
284 4 0.257517 0.263799 0.215448
528 4 0.42797 0.319406 0.210955
526 2 0.438009 0.298393 0.201852
623 4 0.435563 0.263654 0.201071
527 4 0.448047 0.277381 0.192749
542 4 0.413259 0.332578 0.214667
2615 4 0.00913618 0.3358 0.216662
264 4 0.0145712 0.408418 0.22699
263 4 0.0635071 0.416353 0.23355
262 2 0.0390391 0.412385 0.23027
648 4 0.113856 0.364054 0.181802
300 4 0.113558 0.366175 0.202559
298 2 0.10303 0.359621 0.224271
734 4 0.139336 0.384905 0.222491
733 2 0.149906 0.386817 0.245069
299 4 0.0925028 0.353066 0.245982
626 4 0.197329 0.364821 0.167655
416 4 0.206839 0.414981 0.204852
290 4 0.21623 0.406174 0.219665
597 4 0.366241 0.398427 0.179844
345 4 0.350209 0.343655 0.207695
596 4 0.363261 0.358538 0.209857
595 2 0.364751 0.378483 0.19485
343 2 0.347096 0.341017 0.232364
541 2 0.423417 0.335387 0.237341
1430 4 0.159798 0.45644 0.183577
415 2 0.189901 0.432925 0.200812
417 4 0.172963 0.450868 0.196771
438 4 0.266481 0.472234 0.228414
436 2 0.275249 0.470839 0.251788
658 2 0.333795 0.452733 0.178315
643 2 0.39226 0.42935 0.178178
644 4 0.401311 0.450072 0.188849
660 4 0.343527 0.460718 0.199919
231 4 0.359292 0.472685 0.205144
447 4 0.409088 0.45365 0.207366
229 2 0.359093 0.497569 0.20758
445 2 0.420104 0.443491 0.227382
446 4 0.43112 0.433333 0.247397
1402 2 0.0438271 0.00635996 0.253028
1403 4 0.0391376 0.0290644 0.262393
233 4 0.0359805 0.0287862 0.282
232 2 0.035534 0.0502726 0.294779
234 4 0.0350874 0.071759 0.307559
317 4 0.0505313 0.0848343 0.304529
599 4 0.157698 0.0831091 0.307536
723 4 0.167934 0.0849805 0.289882
1405 2 0.201096 0.0228348 0.291393
1406 4 0.187179 0.0432161 0.287379
721 2 0.178715 0.0887684 0.267643
1407 4 0.215012 0.00245342 0.295407
1517 4 0.420105 0.00363247 0.295599
743 4 0.479911 0.0093338 0.276103
425 4 0.472197 0.0278678 0.279699
424 2 0.474233 0.0484621 0.293732
258 4 0.489286 0.0776557 0.320214
426 4 0.476268 0.0690563 0.307764
1516 2 0.419443 0.00719342 0.270859
316 2 0.0695745 0.0963805 0.293161
318 4 0.0886176 0.107927 0.281794
393 4 0.10357 0.123604 0.335201
392 4 0.115077 0.145819 0.291903
545 4 0.115316 0.146067 0.272908
391 2 0.109323 0.134711 0.313552
403 2 0.223689 0.140252 0.297376
598 2 0.176502 0.0884129 0.323139
404 4 0.230084 0.119959 0.310509
405 4 0.217295 0.160546 0.284243
401 4 0.216189 0.178231 0.293402
400 2 0.20861 0.199492 0.304159
402 4 0.20103 0.220752 0.314917
442 2 0.0698921 0.26093 0.284489
444 4 0.050457 0.264692 0.299763
443 4 0.0893272 0.257167 0.269215
396 4 0.0901302 0.27566 0.259919
365 4 0.0102469 0.377298 0.321169
366 4 0.0551186 0.35942 0.308223
749 4 0.0555275 0.340828 0.300075
364 2 0.0326828 0.368359 0.314696
748 2 0.0659408 0.343108 0.277458
777 4 0.0710043 0.404757 0.315492
750 4 0.0763542 0.345387 0.254841
602 4 0.0635441 0.408112 0.334033
735 4 0.160477 0.388729 0.267648
775 2 0.0829315 0.416521 0.29693
776 4 0.0948587 0.428285 0.278368
677 4 0.16666 0.40372 0.280671
289 2 0.215922 0.40333 0.244505
291 4 0.215614 0.400486 0.269344
414 4 0.231816 0.399094 0.279957
412 2 0.241436 0.408633 0.300972
504 4 0.163859 0.396578 0.339156
727 2 0.322981 0.407295 0.325126
729 4 0.333466 0.386155 0.316858
344 4 0.343983 0.33838 0.257032
308 4 0.339547 0.387038 0.298828
309 4 0.348634 0.34376 0.27548
307 2 0.34409 0.365399 0.287154
2860 2 0.493502 0.394506 0.25254
118 3 0.49178 0.377709 0.317671
543 4 0.433575 0.338196 0.260015
615 4 0.424429 0.353012 0.269689
614 4 0.441784 0.339525 0.314608
613 2 0.433107 0.346269 0.292149
2862 4 0.480783 0.409031 0.268429
120 3 0.480674 0.399073 0.288725
116 1 0.487009 0.399288 0.310599
119 3 0.470097 0.408344 0.323651
2923 2 0.473761 0.348356 0.32956
2925 4 0.450299 0.340254 0.332572
1757 4 0.111769 0.441807 0.275493
1756 2 0.124154 0.462757 0.281223
1758 4 0.13654 0.483708 0.286954
1775 4 0.141035 0.486488 0.305852
767 4 0.202033 0.504102 0.283628
676 2 0.176184 0.424487 0.29083
678 4 0.185708 0.445254 0.300989
768 4 0.179953 0.459356 0.286948
766 2 0.190993 0.481729 0.285288
413 4 0.251057 0.418171 0.321988
437 4 0.284017 0.469444 0.275163
433 2 0.294653 0.46071 0.307024
435 4 0.29282 0.479937 0.291145
434 4 0.296485 0.441483 0.322903
713 4 0.47341 0.421524 0.285762
712 2 0.450643 0.426448 0.276674
714 4 0.427876 0.431372 0.267585
606 4 0.146552 0.0486613 0.336405
730 2 0.0917104 0.0796228 0.393917
604 2 0.127503 0.0572602 0.350129
605 4 0.108454 0.065859 0.363854
732 4 0.110549 0.0795108 0.377476
683 4 0.256856 0.0783724 0.372828
249 4 0.287267 0.0240908 0.379913
684 4 0.267199 0.0305444 0.383135
682 2 0.262027 0.0544584 0.377981
247 2 0.310133 0.0241346 0.390028
248 4 0.332999 0.0241784 0.400142
633 4 0.344801 0.0415331 0.398589
631 2 0.357342 0.0600058 0.409843
2586 4 0.9949 0.140838 0.385504
2584 2 0.999207 0.116546 0.389572
2585 4 0.00351311 0.0922541 0.393639
399 4 0.100182 0.132211 0.35375
397 2 0.114449 0.143329 0.371012
398 4 0.128716 0.154448 0.388275
600 4 0.195306 0.0937167 0.338742
685 2 0.210881 0.11318 0.363518
687 4 0.189292 0.104055 0.354811
686 4 0.232471 0.122306 0.372224
410 4 0.239876 0.135085 0.386531
409 2 0.24948 0.15809 0.388456
321 4 0.264462 0.0954906 0.381141
319 2 0.264837 0.103457 0.404838
419 4 0.381394 0.156879 0.386948
418 2 0.356848 0.152194 0.38612
420 4 0.332301 0.147509 0.385291
256 2 0.482547 0.0957918 0.336052
762 4 0.466865 0.153342 0.400953
257 4 0.475808 0.113928 0.35189
760 2 0.476113 0.140333 0.381707
761 4 0.485362 0.127324 0.362462
390 4 0.0905652 0.216299 0.420915
388 2 0.0993556 0.21169 0.397965
274 2 0.142886 0.225982 0.358904
276 4 0.124141 0.210106 0.363566
389 4 0.108146 0.20708 0.375016
275 4 0.161631 0.241859 0.354241
473 4 0.22768 0.230103 0.358613
474 4 0.180559 0.246845 0.358715
472 2 0.20412 0.238474 0.358664
708 4 0.247697 0.224108 0.356679
651 4 0.255432 0.24641 0.410863
489 4 0.245485 0.252502 0.394776
707 4 0.293501 0.204102 0.355116
649 2 0.257114 0.221797 0.406794
706 2 0.270599 0.214105 0.355897
650 4 0.258796 0.197185 0.402725
411 4 0.259085 0.181095 0.390381
716 4 0.395851 0.168912 0.377183
377 4 0.399448 0.231848 0.348926
717 4 0.40248 0.214313 0.357297
715 2 0.399165 0.191612 0.36724
376 2 0.384668 0.252002 0.34966
763 2 0.447165 0.215709 0.33226
765 4 0.446821 0.191533 0.338629
764 4 0.447509 0.239886 0.325892
1258 2 0.129209 0.316481 0.385518
1259 4 0.119362 0.309791 0.36353
1260 4 0.139055 0.323171 0.407506
509 4 0.220923 0.312008 0.372022
488 4 0.229141 0.295393 0.374927
508 2 0.2386 0.329037 0.367256
487 2 0.237313 0.273948 0.384852
497 4 0.307433 0.247602 0.350333
496 2 0.329922 0.257654 0.346047
378 4 0.369888 0.272156 0.350394
498 4 0.352412 0.267705 0.341762
267 4 0.361367 0.330448 0.368217
266 4 0.369054 0.281036 0.368549
585 4 0.362025 0.27203 0.385409
583 2 0.366677 0.264322 0.408735
265 2 0.36521 0.305742 0.368383
306 4 0.501577 0.275126 0.38804
304 2 0.487941 0.28009 0.408402
510 4 0.256276 0.346067 0.36249
374 4 0.276127 0.350482 0.364275
373 2 0.270058 0.374118 0.358829
375 4 0.263988 0.397754 0.353382
3 3 0.271833 0.413406 0.363355
2924 4 0.497223 0.356458 0.326547
751 2 0.476798 0.419426 0.363479
752 4 0.487558 0.419971 0.386042
561 4 0.495697 0.413804 0.402919
3672 4 0.0117482 0.503822 0.32388
601 2 0.0755263 0.42351 0.349669
679 2 0.0336808 0.491362 0.382594
680 4 0.0372248 0.466707 0.38042
406 2 0.0324299 0.440736 0.413348
408 4 0.0344859 0.448495 0.389667
603 4 0.0875084 0.438909 0.365306
549 4 0.0828133 0.453756 0.379181
547 2 0.100295 0.444547 0.394503
502 2 0.170116 0.417608 0.351147
503 4 0.176373 0.438638 0.363137
634 2 0.190375 0.471318 0.351433
636 4 0.191346 0.446517 0.354457
635 4 0.189405 0.496119 0.348409
669 4 0.318164 0.494648 0.36062
728 4 0.312496 0.428435 0.333394
2 3 0.295279 0.436098 0.3447
5 3 0.260151 0.43201 0.332776
1 1 0.273427 0.433135 0.351246
668 4 0.284845 0.45893 0.371332
4 3 0.267062 0.451094 0.364489
667 2 0.301505 0.476789 0.365976
753 4 0.466038 0.418881 0.340915
368 4 0.0604001 0.0782649 0.425775
367 2 0.0439462 0.0784072 0.444601
719 4 0.0163518 0.0742071 0.478692
369 4 0.0274923 0.0785496 0.463428
718 2 0.0139555 0.0880347 0.499385
341 4 0.186103 0.0795801 0.453125
2430 4 0.189431 0.0614228 0.446336
441 4 0.217397 0.0100874 0.452316
2428 2 0.202818 0.041106 0.440574
2429 4 0.216204 0.0207891 0.434811
632 4 0.369883 0.0784785 0.421097
641 4 0.484822 0.0794322 0.422169
2879 4 0.437863 0.998216 0.434793
2878 2 0.458522 0.0113113 0.43998
2880 4 0.479181 0.0244062 0.445167
642 4 0.487746 0.0408181 0.453809
640 2 0.486284 0.0601251 0.437989
731 4 0.0728722 0.0797348 0.410357
1152 4 0.148938 0.132564 0.477035
342 4 0.154691 0.115961 0.466922
340 2 0.170397 0.0977706 0.460023
1150 2 0.162864 0.143414 0.494742
320 4 0.265212 0.111423 0.428536
725 4 0.273734 0.102476 0.443878
724 2 0.273263 0.104854 0.468764
726 4 0.272792 0.107232 0.49365
468 4 0.361745 0.0956078 0.429398
467 4 0.392659 0.126454 0.453761
466 2 0.377202 0.111031 0.44158
576 4 0.40025 0.14031 0.464791
515 4 0.466464 0.0830479 0.415578
574 2 0.422013 0.141414 0.45253
3158 4 0.498677 0.093784 0.425659
575 4 0.443776 0.142518 0.440269
516 4 0.442255 0.123724 0.431707
514 2 0.454359 0.103386 0.423642
259 2 0.0630605 0.165757 0.492585
260 4 0.0726337 0.186267 0.481962
471 4 0.0631511 0.196961 0.468334
469 2 0.066687 0.208471 0.446421
470 4 0.0702228 0.219981 0.424507
616 2 0.0199179 0.243484 0.418111
617 4 0.0428437 0.233948 0.421052
2455 2 0.402666 0.225983 0.441541
2456 4 0.383666 0.242195 0.440375
584 4 0.371329 0.256613 0.432062
2457 4 0.421665 0.20977 0.442707
696 4 0.0655181 0.304948 0.443813
695 4 0.0875822 0.26015 0.441167
694 2 0.0765502 0.282549 0.44249
878 4 0.108801 0.249263 0.473123
326 4 0.129132 0.323922 0.424613
877 2 0.113599 0.25277 0.49741
1010 4 0.44189 0.326912 0.463299
1009 2 0.448331 0.307453 0.44898
1011 4 0.454773 0.287993 0.434662
305 4 0.474306 0.285054 0.428764
709 2 0.123043 0.402745 0.488661
325 2 0.135768 0.34523 0.435887
327 4 0.142404 0.366538 0.44716
8 3 0.146463 0.375009 0.492296
7 3 0.159226 0.36466 0.458493
6 1 0.164077 0.365008 0.480976
9 3 0.166886 0.343198 0.488381
711 4 0.128404 0.381245 0.500244
1191 4 0.203 0.369143 0.488526
1189 2 0.22723 0.363906 0.485258
10 3 0.183217 0.376882 0.484339
1190 4 0.251459 0.358669 0.48199
803 4 0.266452 0.359776 0.495022
334 2 0.362674 0.419087 0.442938
335 4 0.379698 0.401003 0.44582
238 2 0.382476 0.383445 0.485879
240 4 0.380564 0.396905 0.464894
2507 4 0.457619 0.339874 0.468623
560 4 0.467761 0.397374 0.441003
559 2 0.481729 0.405589 0.421961
2506 2 0.467751 0.360392 0.458548
2508 4 0.477884 0.38091 0.448472
407 4 0.0303738 0.432977 0.437028
1382 4 0.0285865 0.442291 0.469181
1381 2 0.00435893 0.446326 0.464498
540 4 0.0397615 0.450665 0.482321
548 4 0.117776 0.435339 0.409826
710 4 0.117682 0.424246 0.477078
569 4 0.116259 0.448228 0.424839
568 2 0.12563 0.439998 0.44651
570 4 0.135001 0.431767 0.468181
336 4 0.34565 0.437172 0.440055
1400 4 0.312649 0.489026 0.436862
1401 4 0.328742 0.442272 0.429393
1399 2 0.320695 0.465649 0.433128
1446 4 0.25674 0.493855 0.485841
1127 4 0.00126565 0.090742 0.532897
1126 2 0.991028 0.0772292 0.551275
1032 4 0.111244 0.082569 0.557355
1182 4 0.219779 0.0709451 0.562334
1180 2 0.229425 0.0483896 0.567169
963 4 0.255688 0.021371 0.581813
1181 4 0.239071 0.0258342 0.572004
961 2 0.279567 0.0170913 0.575762
843 4 0.314983 0.0680643 0.541953
962 4 0.303447 0.0128115 0.569711
2195 4 0.303151 0.994154 0.562882
841 2 0.338273 0.0769316 0.543991
1216 2 0.38348 0.0591971 0.517115
1218 4 0.394461 0.0421113 0.502532
1217 4 0.372499 0.076283 0.531698
842 4 0.361562 0.0857988 0.546029
2283 4 0.454659 0.00207604 0.581694
4467 4 0.437303 0.995314 0.572394
720 4 0.0115591 0.101862 0.520079
1033 2 0.0477627 0.14599 0.542494
1034 4 0.0437523 0.152421 0.518667
261 4 0.0534873 0.145246 0.503209
1035 4 0.0517732 0.13956 0.566322
1030 2 0.132327 0.0894435 0.545804
1154 4 0.0994393 0.086396 0.573058
1031 4 0.15341 0.0963181 0.534253
950 4 0.216407 0.0909082 0.560082
949 2 0.192713 0.0890632 0.552314
951 4 0.169019 0.0872182 0.544545
1151 4 0.176789 0.154264 0.512449
939 4 0.180509 0.145968 0.531539
937 2 0.191602 0.157718 0.550619
938 4 0.202696 0.169469 0.569699
431 4 0.304595 0.0838155 0.534299
430 2 0.28803 0.0988193 0.52309
432 4 0.271464 0.113823 0.511881
857 4 0.373853 0.144502 0.580367
899 4 0.378676 0.151393 0.561939
1272 4 0.124086 0.251714 0.540169
1270 2 0.124243 0.23821 0.561212
1271 4 0.124401 0.224706 0.582255
898 2 0.381743 0.172998 0.549733
900 4 0.384809 0.194603 0.537527
872 4 0.394638 0.211248 0.538702
873 4 0.375558 0.248375 0.566239
871 2 0.385098 0.229811 0.55247
879 4 0.118396 0.256276 0.521697
1239 4 0.285843 0.271348 0.582439
813 4 0.3594 0.259009 0.568304
1204 2 0.381467 0.308125 0.572448
1206 4 0.357358 0.3142 0.56979
930 4 0.339702 0.321382 0.571737
1205 4 0.405575 0.302051 0.575105
905 4 0.467316 0.27442 0.590395
953 4 0.459675 0.28397 0.574975
983 4 0.0505586 0.380098 0.556533
982 2 0.0275504 0.388943 0.560725
1041 4 0.0538458 0.383967 0.575849
984 4 0.00454222 0.397788 0.564917
896 4 0.191116 0.382292 0.503909
897 4 0.191194 0.403492 0.5492
895 2 0.191155 0.392892 0.526554
1137 4 0.194219 0.41135 0.567338
802 2 0.285925 0.355422 0.51009
804 4 0.305397 0.351067 0.525158
929 4 0.322844 0.340061 0.528521
928 2 0.331273 0.330722 0.550129
239 4 0.384389 0.369985 0.506863
1001 4 0.46736 0.393715 0.537708
926 4 0.467717 0.373972 0.537156
925 2 0.487026 0.364195 0.524635
1000 2 0.454923 0.397232 0.559112
1936 2 0.0285134 0.479065 0.555983
1937 4 0.0395681 0.467999 0.536476
539 4 0.0573377 0.465782 0.52663
538 2 0.0485496 0.458224 0.504475
1938 4 0.0174586 0.490131 0.57549
2244 4 0.122754 0.50427 0.546461
2242 2 0.139577 0.495216 0.562592
1173 4 0.226833 0.444018 0.586927
1171 2 0.248728 0.453703 0.579715
882 4 0.289952 0.460865 0.568197
880 2 0.297156 0.475081 0.548932
881 4 0.30436 0.489298 0.529666
1445 4 0.297855 0.484281 0.512647
1172 4 0.270623 0.463387 0.572503
1444 2 0.277298 0.489068 0.499244
1185 4 0.00390777 0.0518116 0.650307
945 4 0.0214669 0.0551816 0.639804
943 2 0.035178 0.0574367 0.660591
1058 4 0.110309 0.0213874 0.652945
1057 2 0.10798 0.044321 0.64326
1155 4 0.0930607 0.0679167 0.619086
1059 4 0.10565 0.0672545 0.633575
1153 2 0.09625 0.0771563 0.596072
1221 4 0.150349 0.0895635 0.66267
825 4 0.0948237 0.0108282 0.658332
1005 4 0.310712 0.0714746 0.609625
1003 2 0.311946 0.0876259 0.628672
1142 4 0.352592 0.0753687 0.673878
2282 4 0.484789 0.036647 0.601637
2281 2 0.469724 0.0193615 0.591666
43 3 0.483326 0.0528641 0.613418
41 1 0.49454 0.0724208 0.618912
1082 4 0.0582973 0.129132 0.581256
1081 2 0.0423993 0.141898 0.595729
1083 4 0.0265012 0.154664 0.610202
1199 4 0.0178265 0.171669 0.60582
1219 2 0.173646 0.0951217 0.655491
1220 4 0.196943 0.10068 0.648313
1212 4 0.208904 0.115841 0.641233
1210 2 0.229768 0.116297 0.655004
1004 4 0.313179 0.103777 0.647719
887 4 0.302715 0.102442 0.664892
856 2 0.356972 0.15299 0.596743
1141 2 0.36568 0.0964603 0.670874
44 3 0.479729 0.0877222 0.628128
909 4 0.137966 0.238172 0.589028
907 2 0.157445 0.237367 0.604685
908 4 0.176923 0.236562 0.620342
798 4 0.319719 0.227295 0.611181
796 2 0.323275 0.202642 0.613366
797 4 0.32683 0.177989 0.615552
811 2 0.342725 0.251928 0.585538
858 4 0.340091 0.161478 0.613119
812 4 0.326051 0.244847 0.602772
1026 4 0.401152 0.163674 0.651242
3357 4 0.490157 0.220503 0.664668
947 4 0.177808 0.256914 0.624193
946 2 0.194103 0.270391 0.637535
948 4 0.210398 0.283869 0.650877
1065 4 0.222201 0.300714 0.649749
1063 2 0.245596 0.304019 0.657929
1237 2 0.29878 0.285087 0.598841
1238 4 0.311717 0.298826 0.615244
792 4 0.320911 0.301071 0.632409
954 4 0.411751 0.288291 0.588589
790 2 0.344686 0.299568 0.640003
791 4 0.368461 0.298064 0.647598
952 2 0.435713 0.286131 0.581782
904 2 0.480374 0.263792 0.60888
906 4 0.493433 0.253164 0.627365
1281 4 0.071714 0.344091 0.660472
1039 2 0.0769261 0.39158 0.581725
1279 2 0.0577534 0.361935 0.671049
894 4 0.0887709 0.351804 0.666227
991 2 0.122502 0.398437 0.611332
992 4 0.146592 0.393287 0.615617
892 2 0.113216 0.357023 0.666835
1136 4 0.161483 0.399583 0.603263
1040 4 0.100006 0.399192 0.587601
993 4 0.0984132 0.403586 0.607046
1135 2 0.177851 0.405467 0.585301
1027 2 0.242787 0.385682 0.667371
1029 4 0.26701 0.388563 0.672858
1002 4 0.442485 0.400749 0.580516
1910 4 0.454367 0.41182 0.59388
1909 2 0.436765 0.417991 0.610531
936 4 0.0172326 0.486041 0.595017
2243 4 0.156399 0.486163 0.578723
1160 4 0.208378 0.446519 0.592884
1161 4 0.17288 0.481448 0.588354
1159 2 0.190629 0.463984 0.590619
889 2 0.370814 0.487402 0.647478
1269 4 0.400251 0.469774 0.658983
890 4 0.38118 0.473063 0.665145
1911 4 0.419162 0.424161 0.627182
1267 2 0.414777 0.451126 0.650833
1268 4 0.429303 0.432478 0.642683
944 4 0.0488891 0.0596918 0.681378
1075 2 0.0693428 0.0712797 0.718602
823 2 0.0821989 0.00121372 0.677654
1076 4 0.0521559 0.065629 0.701343
1077 4 0.0865298 0.0769304 0.735861
1283 4 0.134265 0.0676141 0.732775
1282 2 0.156212 0.0793545 0.73516
831 4 0.341544 0.0935794 0.698795
3387 4 0.010803 0.130666 0.740679
1105 2 0.0464961 0.169865 0.748092
32 3 0.106638 0.154729 0.728311
31 1 0.0996012 0.158212 0.749933
1284 4 0.178158 0.0910949 0.737546
1211 4 0.250633 0.116752 0.668776
1227 4 0.180676 0.108938 0.743281
888 4 0.263583 0.132919 0.67126
886 2 0.283149 0.11768 0.668076
830 4 0.295916 0.0766363 0.71027
829 2 0.31873 0.0851078 0.704532
1024 2 0.385972 0.148836 0.664456
1143 4 0.378768 0.117552 0.66787
1025 4 0.370793 0.133999 0.67767
35 3 0.0861761 0.176597 0.750582
1107 4 0.0235816 0.179198 0.744485
1208 4 0.071281 0.246033 0.688318
1207 2 0.0514704 0.251337 0.702622
821 4 0.0841037 0.233695 0.697309
822 4 0.122213 0.2307 0.729549
1278 4 0.137968 0.218527 0.730149
820 2 0.103158 0.232197 0.713429
1276 2 0.15621 0.202365 0.735736
1277 4 0.174451 0.186203 0.741322
1131 4 0.188145 0.175774 0.750721
977 4 0.298794 0.227819 0.730065
916 2 0.320259 0.236774 0.706605
918 4 0.310766 0.217132 0.718822
3122 4 0.47451 0.231503 0.661524
1263 4 0.445466 0.219086 0.750092
1261 2 0.444528 0.243803 0.746433
1243 2 0.00428598 0.281409 0.702743
3188 4 0.0244213 0.264549 0.733366
1209 4 0.0316598 0.256641 0.716925
1244 4 0.027425 0.289147 0.708209
1064 4 0.268991 0.307325 0.666109
1241 4 0.255269 0.294045 0.721539
917 4 0.329752 0.256416 0.694387
1097 4 0.32233 0.275253 0.689208
1096 2 0.304566 0.291853 0.68337
1098 4 0.286803 0.308453 0.677533
1008 4 0.325757 0.271131 0.749221
3121 2 0.468187 0.24936 0.677843
3123 4 0.461864 0.267218 0.694162
1262 4 0.44359 0.26852 0.742774
3275 4 0.0338271 0.385108 0.698238
1280 4 0.0437927 0.379779 0.681627
3274 2 0.0494905 0.390054 0.71709
816 4 0.0832764 0.404691 0.727551
3276 4 0.0651538 0.395 0.735941
893 4 0.137662 0.362241 0.667443
940 2 0.165973 0.397304 0.731142
814 2 0.108115 0.40756 0.727474
1028 4 0.218563 0.382802 0.661885
1068 4 0.210487 0.368834 0.673965
1067 4 0.190939 0.363463 0.719679
1066 2 0.200713 0.366148 0.696822
941 4 0.178044 0.375496 0.729171
1139 4 0.265926 0.40916 0.670878
1229 4 0.362961 0.378888 0.704748
1228 2 0.366435 0.403351 0.700919
2022 4 0.0389599 0.476967 0.659381
2021 4 0.0479851 0.474715 0.708516
1981 2 0.0223151 0.494396 0.735637
2020 2 0.0434725 0.475841 0.683948
1983 4 0.0354602 0.488229 0.715282
942 4 0.153902 0.419111 0.733112
815 4 0.132953 0.410429 0.727397
1138 2 0.280523 0.427344 0.679903
1140 4 0.29512 0.445528 0.688929
1989 4 0.30058 0.442525 0.708783
1987 2 0.296373 0.452371 0.731378
1988 4 0.292166 0.462216 0.753974
1230 4 0.369909 0.427815 0.697089
1100 4 0.434909 0.492468 0.733512
864 4 0.0694255 0.0621832 0.822971
862 2 0.0565078 0.0768942 0.807418
1203 4 0.0869691 0.063777 0.750215
1201 2 0.107785 0.0509659 0.755484
2049 4 0.146634 0.0380078 0.752826
2047 2 0.158111 0.0159082 0.755075
1202 4 0.128601 0.0381547 0.760752
1147 2 0.200264 0.0722474 0.805055
1148 4 0.180901 0.0851915 0.814149
1149 4 0.219627 0.0593032 0.795961
1049 4 0.237287 0.061828 0.810743
1048 2 0.255684 0.0545241 0.826019
817 2 0.322563 0.0846197 0.80461
818 4 0.339123 0.0660962 0.807408
965 4 0.357817 0.0722737 0.808729
964 2 0.380176 0.0807113 0.81608
846 4 0.491586 0.0113098 0.762006
1106 4 0.0694106 0.160533 0.751698
863 4 0.04359 0.0916051 0.791865
832 2 0.0612676 0.126405 0.779121
833 4 0.0535054 0.10874 0.795023
834 4 0.0690298 0.144069 0.763218
33 3 0.087817 0.139547 0.757086
34 3 0.118186 0.161499 0.763432
1073 4 0.120137 0.159476 0.783654
1225 2 0.198053 0.112222 0.760957
1226 4 0.21543 0.115505 0.778633
840 4 0.2239 0.119933 0.796394
838 2 0.24365 0.13525 0.797101
1130 4 0.167644 0.152776 0.790111
1129 2 0.177895 0.164275 0.770416
839 4 0.2634 0.150567 0.797809
959 4 0.280471 0.158769 0.800897
819 4 0.306003 0.103143 0.801812
1085 4 0.320402 0.116044 0.806764
1084 2 0.326168 0.139407 0.813551
1086 4 0.331934 0.162771 0.820339
966 4 0.402535 0.0891488 0.823432
3270 4 0.485136 0.149311 0.771483
779 4 0.0686035 0.224894 0.836124
1214 4 0.0526667 0.232554 0.82751
1213 2 0.0345625 0.235329 0.810488
1215 4 0.0164584 0.238103 0.793467
1072 2 0.117278 0.165758 0.807687
778 2 0.0855267 0.206489 0.836215
1074 4 0.11442 0.172039 0.831719
780 4 0.10245 0.188083 0.836307
976 2 0.293365 0.216703 0.751794
978 4 0.287936 0.205588 0.773523
958 2 0.274583 0.181099 0.79131