ITEM: TIMESTEP
2200000
ITEM: NUMBER OF ATOMS
4590
ITEM: BOX BOUNDS pp pp pp
-9.9985700000000008e+00 9.9985700000000008e+00
-9.9985700000000008e+00 9.9985700000000008e+00
-9.9985700000000008e+00 9.9985700000000008e+00
ITEM: ATOMS id type xs ys zs
1668 4 0.0517156 0.00540042 0.03828
1666 2 0.0532356 0.995761 0.0613008
463 2 0.0528799 0.0617057 0.0150308
3290 4 0.0721857 0.0292451 0.0140902
464 4 0.0557422 0.0377036 0.021425
566 4 0.176378 0.0515162 0.0108278
565 2 0.177387 0.0575456 0.0350725
567 4 0.178395 0.063575 0.0593173
490 2 0.283469 0.0191808 0.0451679
491 4 0.293188 0.0203625 0.0221606
986 4 0.298428 0.0237262 0.0031262
2263 2 0.27783 0.0558821 0.00351108
2265 4 0.260652 0.0703491 0.0145021
492 4 0.273751 0.017999 0.0681752
296 4 0.386257 0.0536607 0.0839085
557 4 0.392333 0.0722088 0.0803469
745 2 0.476 0.0556653 0.0475122
747 4 0.496597 0.067474 0.0553537
746 4 0.455403 0.0438565 0.0396707
465 4 0.0500175 0.0857078 0.00863656
701 4 0.0420485 0.103715 0.0122778
700 2 0.0363578 0.126605 0.00398054
359 4 0.229553 0.155824 0.0372349
1254 4 0.255447 0.087256 0.00503259
358 2 0.209515 0.162703 0.0239559
2469 4 0.486165 0.09847 0.00377168
836 4 0.06865 0.234209 0.0109947
422 4 0.0732796 0.185909 0.0401647
421 2 0.0793356 0.183849 0.0159932
360 4 0.189477 0.169582 0.0106769
737 4 0.187624 0.214432 0.0566737
736 2 0.197822 0.201688 0.0756152
506 4 0.20297 0.226928 0.0549669
665 4 0.350111 0.17829 0.0356604
664 2 0.343155 0.177657 0.0116522
323 4 0.479492 0.221414 0.0510838
322 2 0.464067 0.235663 0.0646562
2807 4 0.0219365 0.277973 0.0272425
2806 2 0.00607513 0.286594 0.0445422
294 4 0.141514 0.308564 0.0480289
292 2 0.164965 0.300038 0.0496352
507 4 0.199035 0.275817 0.0452157
293 4 0.188415 0.291512 0.0512415
505 2 0.201002 0.251372 0.0500913
481 2 0.294131 0.29789 0.00897559
482 4 0.305117 0.320255 0.00690011
483 4 0.283145 0.275525 0.0110511
254 4 0.385419 0.264806 0.0672741
573 4 0.369543 0.249351 0.0162545
571 2 0.358143 0.271431 0.0134758
572 4 0.346744 0.293511 0.0106971
741 4 0.345875 0.321124 0.0564452
1071 4 0.387752 0.253765 0.0106966
630 4 0.394285 0.247707 0.0723421
253 2 0.363294 0.271648 0.0766999
739 2 0.337496 0.329315 0.0785332
315 4 0.066848 0.396216 0.0628619
621 4 0.0837572 0.391883 0.0733309
456 4 0.145341 0.325827 0.0386578
454 2 0.126887 0.341133 0.0457547
455 4 0.108433 0.356438 0.0528516
607 2 0.246145 0.354109 0.0796068
608 4 0.256658 0.371964 0.0656121
252 4 0.256099 0.363569 0.0471157
250 2 0.27588 0.37569 0.0377908
251 4 0.295661 0.387811 0.0284659
523 2 0.328916 0.396008 0.0433086
524 4 0.304192 0.393743 0.0462717
226 2 0.396466 0.388221 0.0227424
228 4 0.380553 0.39842 0.039111
525 4 0.35364 0.398273 0.0403454
227 4 0.41238 0.378022 0.00637376
671 4 0.424519 0.386963 0.0698001
281 4 0.438904 0.386087 0.0552049
280 2 0.458502 0.370598 0.0541047
282 4 0.4781 0.35511 0.0530046
104 3 0.482883 0.352475 0.0721349
1047 4 0.492191 0.351064 0.039648
1045 2 0.493849 0.355998 0.0151923
313 2 0.062473 0.420628 0.059686
552 4 0.0413283 0.45578 0.055806
314 4 0.0580979 0.44504 0.0565102
550 2 0.0197367 0.458365 0.043465
243 4 0.228474 0.47582 0.0522829
241 2 0.209372 0.490383 0.0453411
1440 4 0.233997 0.46956 0.0693843
245 4 0.241841 0.457526 0.000626762
37 3 0.362442 0.459252 0.00368949
1422 4 0.0259457 0.0195401 0.14561
2480 4 0.0186145 0.0249261 0.128485
18 3 0.0723671 0.00847953 0.109385
19 3 0.039099 0.015463 0.126381
2479 2 0.0149022 0.0471552 0.117656
2481 4 0.0111899 0.0693843 0.106827
1420 2 0.0129335 0.0107912 0.165086
652 2 0.241046 0.0521874 0.141643
654 4 0.240503 0.0421581 0.118746
1476 4 0.234626 0.0249865 0.108144
653 4 0.241589 0.0622166 0.164541
1475 4 0.269369 0.00227799 0.0802517
1474 2 0.251998 0.0136322 0.0941978
485 4 0.364623 0.0112888 0.114844
297 4 0.367601 0.00863815 0.0951174
295 2 0.376929 0.0311494 0.089513
235 2 0.12392 0.174117 0.124724
236 4 0.138296 0.158682 0.13815
449 4 0.141138 0.139241 0.14466
450 4 0.143414 0.092496 0.16228
448 2 0.142276 0.115868 0.15347
28 3 0.22617 0.142629 0.162881
556 2 0.405658 0.0891667 0.0929981
558 4 0.418983 0.106125 0.105649
771 4 0.43729 0.114374 0.110387
769 2 0.437172 0.118936 0.134971
770 4 0.437055 0.123497 0.159554
338 4 0.0430362 0.234724 0.13458
237 4 0.109543 0.189552 0.111298
361 2 0.116235 0.237901 0.166666
738 4 0.208019 0.188945 0.0945566
354 4 0.226801 0.181746 0.0955677
476 4 0.186093 0.189701 0.15682
477 4 0.236049 0.190506 0.154706
475 2 0.211071 0.190104 0.155763
352 2 0.250207 0.182155 0.104353
371 4 0.187337 0.206275 0.167106
353 4 0.273612 0.182564 0.113138
461 4 0.283498 0.192586 0.0986772
460 2 0.30346 0.207612 0.0996515
462 4 0.323421 0.222638 0.100626
279 4 0.256037 0.240362 0.152577
755 4 0.329357 0.256157 0.143126
628 2 0.411289 0.242522 0.0899248
324 4 0.448643 0.249912 0.0782286
629 4 0.428293 0.237336 0.107508
624 4 0.432051 0.234224 0.127107
337 2 0.047268 0.252635 0.151504
395 4 0.0533831 0.290231 0.166307
363 4 0.091319 0.236676 0.164965
610 2 0.249643 0.299847 0.111544
612 4 0.240948 0.322778 0.10667
611 4 0.258338 0.276916 0.116418
278 4 0.267154 0.260655 0.108245
277 2 0.261596 0.250508 0.130411
754 2 0.326564 0.264337 0.119665
756 4 0.323771 0.272518 0.0962031
740 4 0.329117 0.337506 0.100621
255 4 0.341169 0.278491 0.0861257
622 2 0.438841 0.254151 0.140598
623 4 0.445631 0.274078 0.154088
527 4 0.461481 0.275228 0.165386
704 4 0.0291637 0.340591 0.158767
619 2 0.0934266 0.387625 0.0959926
620 4 0.103096 0.383367 0.118654
647 4 0.101416 0.38858 0.138979
537 4 0.120141 0.374565 0.122488
535 2 0.142953 0.383224 0.117028
536 4 0.165765 0.391883 0.111568
646 2 0.0925563 0.374397 0.157567
609 4 0.235632 0.336254 0.0936015
386 4 0.319217 0.348777 0.113434
385 2 0.328907 0.370521 0.121082
387 4 0.338596 0.392265 0.128731
12 3 0.386784 0.380249 0.120197
11 1 0.379808 0.39756 0.133643
15 3 0.358488 0.403283 0.128048
672 4 0.392491 0.368187 0.103302
13 3 0.380601 0.390651 0.15578
670 2 0.408505 0.377575 0.0865511
302 4 0.339982 0.413432 0.119246
14 3 0.393957 0.415679 0.130489
1466 4 0.00576557 0.4964 0.148393
626 4 0.177951 0.437481 0.141265
1438 2 0.229908 0.457803 0.0910694
625 2 0.201082 0.445959 0.136992
1439 4 0.225818 0.446047 0.112755
638 4 0.223952 0.473327 0.144705
637 2 0.242251 0.490365 0.144749
627 4 0.224213 0.454437 0.132718
272 4 0.254355 0.508288 0.0981557
1559 4 0.330636 0.489233 0.102905
494 4 0.39376 0.473169 0.0907844
301 2 0.337175 0.431244 0.136568
495 4 0.396887 0.434152 0.121907
493 2 0.395323 0.45366 0.106346
303 4 0.334368 0.449055 0.15389
1584 4 0.460766 0.48787 0.105814
1582 2 0.465127 0.463646 0.101418
1583 4 0.469489 0.439421 0.0970222
1674 4 0.442079 0.495595 0.106398
318 4 0.0525886 0.0818546 0.23847
689 4 0.205168 0.00295849 0.223821
690 4 0.17487 0.0399037 0.23858
688 2 0.190019 0.0214311 0.231201
693 4 0.245509 0.0537663 0.182419
1505 4 0.204725 0.00687237 0.204517
691 2 0.257274 0.0617622 0.202982
692 4 0.269039 0.0697582 0.223545
1699 2 0.303904 0.0603086 0.234058
1701 4 0.279166 0.0568913 0.23531
1700 4 0.328641 0.0637259 0.232807
21 1 0.367583 0.0721288 0.229836
25 3 0.369997 0.0713207 0.207205
22 3 0.373835 0.0519094 0.238849
23 3 0.345407 0.076237 0.235291
759 4 0.362984 0.0895461 0.200369
1760 4 0.490887 0.0100317 0.201372
1759 2 0.470845 0.000769826 0.189637
511 2 0.00510819 0.14027 0.212355
578 4 0.0370627 0.155629 0.225931
513 4 0.0241478 0.156447 0.21137
27 3 0.232159 0.127603 0.196808
26 1 0.240405 0.142357 0.181203
546 4 0.163742 0.146981 0.24381
29 3 0.241491 0.163497 0.190706
582 4 0.320426 0.109118 0.159274
580 2 0.297102 0.114723 0.166328
581 4 0.273778 0.120327 0.173382
30 3 0.2612 0.135644 0.174787
758 4 0.337711 0.114405 0.165098
24 3 0.381125 0.0887805 0.238653
757 2 0.350348 0.101976 0.182733
312 4 0.432217 0.139035 0.172625
311 4 0.467818 0.141899 0.207626
310 2 0.450018 0.140467 0.190126
521 4 0.483774 0.13948 0.220812
577 2 0.0417893 0.177678 0.236733
529 2 0.0125217 0.224985 0.246354
530 4 0.0360752 0.216594 0.246408
372 4 0.145417 0.227809 0.18383
362 4 0.14115 0.239125 0.168366
370 2 0.166377 0.217042 0.175468
285 4 0.259288 0.247881 0.170678
339 4 0.0514998 0.270547 0.168429
396 4 0.0631911 0.326104 0.199738
443 4 0.0620252 0.315184 0.216836
394 2 0.0582871 0.308168 0.183023
442 2 0.0496377 0.308713 0.237569
284 4 0.285003 0.283085 0.195175
283 2 0.272145 0.265483 0.182927
345 4 0.274224 0.333744 0.240544
596 4 0.347019 0.331968 0.17299
526 2 0.460082 0.290043 0.18548
528 4 0.458683 0.304858 0.205573
703 2 0.00986292 0.345732 0.173808
648 4 0.083697 0.360214 0.176155
300 4 0.0940186 0.355402 0.191778
298 2 0.0936757 0.348496 0.215806
299 4 0.0933328 0.34159 0.239835
595 2 0.36234 0.351047 0.167853
597 4 0.377662 0.370127 0.162715
645 4 0.377619 0.388118 0.177341
643 2 0.39432 0.386035 0.195832
644 4 0.411021 0.383951 0.214323
447 4 0.410737 0.400487 0.224994
109 3 0.491597 0.364643 0.21622
264 4 0.0510014 0.438931 0.218705
262 2 0.0426749 0.427497 0.239323
289 2 0.222808 0.429631 0.231952
417 4 0.208036 0.491178 0.193143
290 4 0.212863 0.426003 0.209301
416 4 0.215066 0.441773 0.196366
415 2 0.211551 0.466476 0.194755
659 4 0.333958 0.454271 0.172867
658 2 0.342638 0.461679 0.195115
660 4 0.351318 0.469088 0.217362
231 4 0.354859 0.487267 0.222705
445 2 0.408157 0.420154 0.240218
2861 4 0.49281 0.413906 0.224496
2860 2 0.48378 0.421792 0.246438
1403 4 0.0304493 0.00474396 0.286996
232 2 0.0252105 0.0368629 0.296774
234 4 0.0314607 0.0606568 0.292305
317 4 0.0493613 0.0663164 0.285893
233 4 0.0189604 0.013069 0.301242
316 2 0.050975 0.0740855 0.262182
673 2 0.150404 0.045812 0.260806
675 4 0.125523 0.0447592 0.263046
674 4 0.175285 0.0468649 0.258565
1406 4 0.203579 0.00694278 0.282452
333 4 0.389334 0.0786388 0.254696
698 4 0.383847 0.0591281 0.254376
1518 4 0.375348 0.00659824 0.288349
697 2 0.380519 0.042444 0.272699
699 4 0.377191 0.0257599 0.291022
743 4 0.485672 0.0296842 0.258765
351 4 0.482765 0.0465133 0.271137
349 2 0.462948 0.0617147 0.269967
350 4 0.44313 0.0769161 0.268797
425 4 0.423855 0.0198385 0.33689
391 2 0.138281 0.148858 0.318393
392 4 0.149607 0.145771 0.296316
545 4 0.135097 0.13641 0.283413
544 2 0.14942 0.141696 0.263611
723 4 0.240119 0.0818926 0.251707
722 4 0.190654 0.0891684 0.250725
721 2 0.215387 0.0855305 0.251216
599 4 0.22026 0.123122 0.303739
404 4 0.235765 0.135441 0.307957
598 2 0.207172 0.117653 0.324329
403 2 0.232262 0.155055 0.29285
331 2 0.411779 0.0870632 0.261798
332 4 0.434224 0.0954876 0.2689
762 4 0.442362 0.146482 0.281192
761 4 0.47754 0.117994 0.302445
760 2 0.459951 0.132238 0.291819
257 4 0.484073 0.105266 0.317093
256 2 0.469474 0.0881563 0.328015
579 4 0.0465158 0.199728 0.247534
405 4 0.22876 0.174669 0.277744
401 4 0.233494 0.176868 0.259599
400 2 0.236447 0.2016 0.261793
402 4 0.2394 0.226331 0.263988
473 4 0.221716 0.208861 0.339081
765 4 0.412374 0.203306 0.268956
764 4 0.452463 0.184981 0.292574
763 2 0.432419 0.194143 0.280765
444 4 0.0372502 0.302242 0.258302
750 4 0.0848136 0.338565 0.256144
734 4 0.159129 0.318413 0.283637
733 2 0.166764 0.340105 0.293451
343 2 0.285268 0.326907 0.261909
309 4 0.315117 0.324815 0.276406
344 4 0.296313 0.32007 0.283274
496 2 0.352984 0.285928 0.32438
497 4 0.366655 0.294693 0.305369
613 2 0.403122 0.329346 0.31137
614 4 0.379918 0.337728 0.307306
615 4 0.426325 0.320964 0.315435
541 2 0.456457 0.307513 0.292522
542 4 0.47263 0.290701 0.283524
543 4 0.440283 0.324325 0.301519
366 4 0.053431 0.333325 0.306887
749 4 0.0599022 0.3497 0.298051
364 2 0.0298018 0.33831 0.313368
748 2 0.0723579 0.344132 0.277097
602 4 0.12398 0.392167 0.311477
777 4 0.132214 0.399467 0.295068
677 4 0.170785 0.379401 0.29474
601 2 0.120085 0.392214 0.336175
735 4 0.1744 0.361797 0.303266
676 2 0.172457 0.400472 0.308096
413 4 0.230935 0.408198 0.313058
678 4 0.174128 0.421543 0.321453
307 2 0.328209 0.338248 0.292939
727 2 0.332066 0.392304 0.324568
728 4 0.32411 0.415317 0.330248
729 4 0.340023 0.36929 0.318887
3 3 0.274246 0.403638 0.326253
308 4 0.341301 0.351681 0.309472
2924 4 0.497144 0.397018 0.318978
2537 4 0.489762 0.38658 0.299557
118 3 0.495433 0.408627 0.300073
2923 2 0.495873 0.380664 0.337849
263 4 0.0343483 0.416063 0.259942
1757 4 0.114874 0.463056 0.285808
776 4 0.113176 0.443572 0.281177
775 2 0.122695 0.42152 0.288123
1756 2 0.120343 0.487425 0.286995
291 4 0.232754 0.433259 0.254604
768 4 0.172572 0.479069 0.277251
412 2 0.237967 0.416276 0.290464
766 2 0.181933 0.491142 0.257457
414 4 0.245 0.424354 0.267871
1436 4 0.24179 0.490515 0.327847
438 4 0.294919 0.474963 0.251393
2 3 0.30729 0.418796 0.316716
1435 2 0.258 0.473344 0.319629
437 4 0.275596 0.448173 0.288938
436 2 0.285258 0.461568 0.270166
1437 4 0.274211 0.456173 0.311411
5 3 0.275603 0.435406 0.306089
1 1 0.285615 0.423563 0.322767
434 4 0.326493 0.430383 0.313407
433 2 0.34197 0.448945 0.319818
435 4 0.357447 0.467507 0.326228
446 4 0.405576 0.43982 0.255441
714 4 0.420874 0.446997 0.265276
119 3 0.492588 0.44069 0.320279
2862 4 0.474751 0.429678 0.26838
120 3 0.485602 0.440862 0.283282
713 4 0.464266 0.436627 0.287865
712 2 0.44257 0.441812 0.276571
429 4 0.0674764 0.995552 0.348259
428 4 0.0316495 0.0278702 0.335118
427 2 0.049563 0.0117112 0.341689
605 4 0.154336 0.0629552 0.372114
604 2 0.167701 0.0428079 0.36574
606 4 0.181067 0.0226606 0.359366
683 4 0.226202 0.0380195 0.382886
682 2 0.237832 0.0325782 0.361431
321 4 0.226541 0.0577179 0.387449
319 2 0.225016 0.0647743 0.411388
684 4 0.249461 0.0271368 0.339975
249 4 0.316737 0.0512707 0.350248
247 2 0.336223 0.0668684 0.348778
248 4 0.35571 0.082466 0.347309
1749 4 0.491462 1.34056e-06 0.359293
480 4 0.492136 0.0109431 0.342234
424 2 0.429372 0.0442257 0.336965
426 4 0.434888 0.0686129 0.33704
258 4 0.454875 0.0710462 0.338937
393 4 0.126955 0.151945 0.340469
399 4 0.11545 0.139096 0.348907
732 4 0.117295 0.0933443 0.391509
398 4 0.116383 0.0945824 0.371676
397 2 0.115916 0.116839 0.360292
730 2 0.115229 0.080767 0.41302
686 4 0.21554 0.121421 0.408067
600 4 0.194084 0.112183 0.34492
685 2 0.209377 0.11429 0.384908
687 4 0.203213 0.107158 0.361749
633 4 0.376714 0.0846707 0.348342
632 4 0.386147 0.112603 0.388734
631 2 0.381431 0.0986367 0.368538
420 4 0.383784 0.132028 0.386438
468 4 0.379967 0.100314 0.404531
418 2 0.372657 0.153841 0.391494
390 4 0.0731665 0.230093 0.392383
470 4 0.0640676 0.223981 0.408743
274 2 0.152082 0.248086 0.37114
388 2 0.0934285 0.237948 0.380017
389 4 0.113691 0.245804 0.367651
276 4 0.128729 0.248596 0.380058
275 4 0.175436 0.247575 0.362222
474 4 0.185256 0.242319 0.346288
472 2 0.203486 0.22559 0.342685
708 4 0.21578 0.189418 0.338795
706 2 0.238336 0.184634 0.348466
489 4 0.219691 0.244974 0.412068
411 4 0.24137 0.175228 0.416695
707 4 0.260892 0.17985 0.358137
376 2 0.33363 0.247203 0.365384
377 4 0.341639 0.230647 0.382323
717 4 0.335664 0.230698 0.401326
419 4 0.361531 0.175655 0.396549
716 4 0.360524 0.188483 0.411354
715 2 0.348094 0.20959 0.40634
514 2 0.450363 0.176087 0.413217
515 4 0.470625 0.18702 0.403465
516 4 0.430101 0.165154 0.422969
618 4 0.0145126 0.25359 0.381411
616 2 0.0256333 0.254616 0.403782
510 4 0.249272 0.323656 0.34298
487 2 0.224948 0.266037 0.399663
488 4 0.230205 0.2871 0.387258
508 2 0.248758 0.308302 0.362707
509 4 0.248244 0.292948 0.382434
1260 4 0.173337 0.308914 0.42191
378 4 0.32562 0.263758 0.348445
498 4 0.339312 0.277163 0.343391
265 2 0.356899 0.325671 0.367274
266 4 0.368532 0.307511 0.379926
585 4 0.362893 0.296806 0.397962
583 2 0.386039 0.288459 0.402408
584 4 0.409185 0.280112 0.406854
306 4 0.49645 0.260637 0.385995
270 4 0.491445 0.245312 0.374182
2456 4 0.429264 0.282163 0.404845
2455 2 0.451019 0.277362 0.416195
547 2 0.0831499 0.411729 0.378103
549 4 0.0977321 0.3964 0.364778
603 4 0.11619 0.392261 0.360874
373 2 0.226882 0.361587 0.336365
502 2 0.211797 0.404566 0.368629
504 4 0.225315 0.391199 0.352388
375 4 0.217789 0.384823 0.334762
374 4 0.235975 0.338351 0.337968
267 4 0.345265 0.343831 0.354623
2925 4 0.494602 0.36431 0.356719
680 4 0.00355205 0.476909 0.409994
548 4 0.0685677 0.427058 0.391428
407 4 0.0614482 0.445646 0.387304
406 2 0.0424549 0.458242 0.397589
408 4 0.0234616 0.470839 0.407874
774 4 0.158982 0.479433 0.413265
635 4 0.158426 0.459822 0.410093
570 4 0.131015 0.43704 0.412146
1544 4 0.202237 0.502469 0.375043
503 4 0.198278 0.417932 0.38487
1543 2 0.223177 0.499497 0.361707
1545 4 0.244117 0.496526 0.348371
636 4 0.19739 0.429612 0.401733
634 2 0.177908 0.444717 0.405913
1401 4 0.321783 0.464944 0.4154
668 4 0.303075 0.42566 0.346605
4 3 0.28586 0.436067 0.342311
667 2 0.315458 0.426492 0.368311
669 4 0.327841 0.427324 0.390017
336 4 0.339594 0.413412 0.399195
752 4 0.49562 0.427274 0.387761
561 4 0.483716 0.42524 0.403589
753 4 0.490566 0.444059 0.340927
751 2 0.493093 0.435666 0.364344
718 2 0.0375729 0.0368416 0.495491
719 4 0.0621131 0.038259 0.490914
369 4 0.0704031 0.0443643 0.473178
367 2 0.08183 0.0589142 0.456358
731 4 0.113164 0.0681896 0.434531
368 4 0.0932569 0.0734641 0.439538
2430 4 0.197316 0.0672043 0.440777
2428 2 0.194555 0.0460181 0.453766
2429 4 0.191795 0.024832 0.466755
441 4 0.205573 0.0119684 0.45849
341 4 0.201307 0.0876471 0.430628
320 4 0.223492 0.0718308 0.435326
724 2 0.252997 0.0805468 0.462111
430 2 0.310831 0.0659545 0.493156
432 4 0.288415 0.0674839 0.482185
726 4 0.2714 0.0772758 0.478719
843 4 0.349002 0.0728337 0.4953
2879 4 0.4434 0.0242378 0.418249
2878 2 0.454682 0.0350249 0.437782
2880 4 0.465963 0.045812 0.457315
642 4 0.478932 0.0617809 0.457877
640 2 0.493982 0.0790122 0.467965
410 4 0.227277 0.1276 0.422493
409 2 0.234324 0.151414 0.419594
725 4 0.234595 0.0838178 0.445503
340 2 0.202151 0.104315 0.449247
1152 4 0.187802 0.134126 0.468148
342 4 0.202994 0.120983 0.467865
1150 2 0.177202 0.1331 0.49077
466 2 0.369116 0.0937775 0.426088
467 4 0.358266 0.087241 0.447645
576 4 0.433802 0.119394 0.459786
574 2 0.425761 0.140659 0.449379
575 4 0.417719 0.161924 0.438972
469 2 0.0703826 0.204343 0.422873
471 4 0.0766976 0.184706 0.437004
261 4 0.0842471 0.167769 0.490164
259 2 0.0889395 0.179287 0.468473
260 4 0.093632 0.190805 0.446782
651 4 0.230749 0.225716 0.40841
649 2 0.238712 0.205673 0.421061
650 4 0.246675 0.185629 0.433712
617 4 0.036754 0.255642 0.426153
695 4 0.121802 0.291519 0.461459
694 2 0.138413 0.295381 0.443175
696 4 0.155024 0.299243 0.42489
1258 2 0.193454 0.312737 0.436259
1259 4 0.213571 0.31656 0.450608
2457 4 0.472775 0.272562 0.427546
326 4 0.056298 0.382275 0.438544
325 2 0.0804141 0.380485 0.444899
10 3 0.136364 0.343438 0.440151
709 2 0.141261 0.403835 0.437511
7 3 0.10825 0.360273 0.458014
327 4 0.10453 0.378696 0.451255
6 1 0.130054 0.353154 0.459758
8 3 0.143587 0.371463 0.464236
9 3 0.131561 0.33777 0.477062
711 4 0.151025 0.383776 0.448802
334 2 0.336877 0.411235 0.423955
335 4 0.33416 0.409058 0.448715
238 2 0.3428 0.408013 0.479124
240 4 0.353014 0.410168 0.456404
2508 4 0.490001 0.369321 0.446099
559 2 0.485596 0.406155 0.419633
560 4 0.487476 0.387069 0.435677
1382 4 0.0372979 0.456363 0.464024
1381 2 0.0211483 0.465694 0.447371
540 4 0.0538688 0.449628 0.473322
1383 4 0.00499863 0.475025 0.430719
538 2 0.0518064 0.453152 0.49799
772 2 0.155814 0.494157 0.433223
569 4 0.0992191 0.473302 0.42537
568 2 0.115117 0.455171 0.418758
384 4 0.151227 0.492482 0.466958
710 4 0.131497 0.423894 0.426221
382 2 0.152414 0.476592 0.486227
1400 4 0.32114 0.490334 0.458477
1399 2 0.321461 0.477639 0.436938
588 4 0.340327 0.488447 0.465782
720 4 0.0130327 0.0354242 0.500069
1032 4 0.141582 0.0536309 0.560025
1030 2 0.158677 0.0634786 0.544663
1155 4 0.0879562 0.0740798 0.585812
951 4 0.192431 0.0638689 0.529299
1031 4 0.175771 0.0733262 0.529301
949 2 0.213145 0.0615739 0.515485
1182 4 0.247516 0.0521354 0.517048
950 4 0.233859 0.0592789 0.501671
961 2 0.318138 0.0250963 0.551302
1180 2 0.269751 0.0457035 0.526503
963 4 0.311596 0.0467539 0.540657
1181 4 0.291987 0.0392716 0.535958
962 4 0.324681 0.00343876 0.561947
2195 4 0.319317 0.997347 0.580061
431 4 0.333247 0.0644252 0.504127
842 4 0.391571 0.0503908 0.508898
1217 4 0.394927 0.0640677 0.525115
841 2 0.370286 0.0616122 0.502099
1216 2 0.413641 0.0796389 0.530818
939 4 0.158436 0.151357 0.515829
937 2 0.138755 0.165142 0.522745
1151 4 0.166603 0.132074 0.513393
898 2 0.344657 0.158393 0.57975
1218 4 0.432354 0.09521 0.536521
1035 4 0.0739094 0.187532 0.547009
1082 4 0.0755544 0.183612 0.567514
1081 2 0.0530567 0.175332 0.574618
1033 2 0.0844327 0.183354 0.524716
938 4 0.119075 0.178928 0.52966
1034 4 0.094956 0.179176 0.502423
877 2 0.0834321 0.249227 0.579574
797 4 0.279772 0.17591 0.579202
811 2 0.305148 0.22832 0.525512
812 4 0.282909 0.22879 0.53693
796 2 0.276026 0.19457 0.562987
798 4 0.27228 0.213231 0.546772
813 4 0.327387 0.22785 0.514094
900 4 0.36057 0.172722 0.56684
872 4 0.36251 0.19044 0.556404
873 4 0.343513 0.219232 0.520199
871 2 0.353011 0.204836 0.538302
878 4 0.079334 0.270961 0.567911
1190 4 0.269138 0.326167 0.501779
954 4 0.41191 0.315259 0.561161
1205 4 0.398378 0.309291 0.575184
1204 2 0.382332 0.327787 0.580244
905 4 0.436929 0.254277 0.567807
952 2 0.426064 0.294758 0.563298
953 4 0.440218 0.274257 0.565434
1137 4 0.167897 0.37283 0.563847
896 4 0.21303 0.341091 0.526666
1191 4 0.231702 0.349681 0.525152
897 4 0.183147 0.372676 0.551366
895 2 0.198088 0.356884 0.539016
1189 2 0.25042 0.337924 0.513465
803 4 0.286622 0.330515 0.509326
802 2 0.306655 0.34129 0.519708
804 4 0.326687 0.352064 0.530089
929 4 0.321967 0.363128 0.546121
239 4 0.332587 0.405858 0.501845
928 2 0.334343 0.355521 0.566472
925 2 0.497246 0.389517 0.538233
927 4 0.494594 0.385193 0.513749
926 4 0.499898 0.393841 0.562716
539 4 0.049744 0.456677 0.522658
936 4 0.0304996 0.459015 0.540666
1938 4 0.0486183 0.468736 0.53807
1936 2 0.0542407 0.49291 0.541101
934 2 0.00575049 0.457081 0.537679
2243 4 0.173874 0.478031 0.567486
383 4 0.153601 0.460702 0.505496
2244 4 0.158096 0.474822 0.520142
2242 2 0.165985 0.476426 0.543814
1172 4 0.250341 0.462794 0.562272
882 4 0.249983 0.461907 0.5429
1161 4 0.175793 0.486455 0.586737
880 2 0.259193 0.484967 0.539976
1059 4 0.0728912 0.062565 0.579715
1057 2 0.0736363 0.0511854 0.601966
1185 4 0.015114 0.0625092 0.639927
945 4 0.026705 0.0654663 0.657229
825 4 0.0663524 0.0422134 0.642572
1058 4 0.0743814 0.0398059 0.624218
823 2 0.0700871 0.0179519 0.647327
1003 2 0.314395 0.0749941 0.653386
2283 4 0.464817 0.00728233 0.594368
2282 4 0.452584 0.030086 0.637159
2281 2 0.458701 0.0186842 0.615763
43 3 0.464041 0.0371524 0.650776
41 1 0.477267 0.0547954 0.658002
44 3 0.470001 0.0746097 0.648359
45 3 0.499023 0.0509762 0.652459
1198 2 0.00537512 0.156559 0.595415
1199 4 0.0287255 0.16386 0.600576
1153 2 0.105947 0.0912718 0.588252
1154 4 0.123937 0.108464 0.590691
1221 4 0.135854 0.105786 0.604864
1219 2 0.138175 0.112156 0.628931
1220 4 0.140496 0.118525 0.652998
1283 4 0.155284 0.126337 0.664235
1212 4 0.235544 0.122058 0.642905
1210 2 0.256824 0.134672 0.646542
856 2 0.290606 0.154288 0.59473
899 4 0.328745 0.144064 0.59266
857 4 0.309519 0.137989 0.593369
1211 4 0.278104 0.147285 0.650179
1004 4 0.330248 0.0813679 0.635131
1083 4 0.0305591 0.167052 0.581723
879 4 0.0875303 0.227493 0.591236
1272 4 0.10076 0.212814 0.596377
1270 2 0.124204 0.205822 0.601544
1271 4 0.147647 0.19883 0.606711
909 4 0.149731 0.200023 0.625515
907 2 0.168555 0.21421 0.633857
908 4 0.187378 0.228397 0.642199
947 4 0.178575 0.240886 0.655147
858 4 0.271694 0.170586 0.59609
1025 4 0.364461 0.184848 0.638143
1024 2 0.381669 0.202586 0.634342
1143 4 0.350165 0.195856 0.647503
1026 4 0.398877 0.220324 0.630542
904 2 0.45141 0.246335 0.58658
906 4 0.465891 0.238392 0.605352
3122 4 0.487023 0.223454 0.667609
1209 4 0.0457921 0.26156 0.658938
946 2 0.194721 0.257658 0.664268
1239 4 0.242763 0.329994 0.578153
1237 2 0.258196 0.313984 0.589586
792 4 0.278969 0.29757 0.619587
791 4 0.323064 0.301576 0.642832
790 2 0.301017 0.299573 0.631209
1238 4 0.273629 0.297975 0.601018
983 4 0.0292679 0.391409 0.634641
1041 4 0.0460814 0.400273 0.642716
1039 2 0.0620405 0.411297 0.626938
982 2 0.00476485 0.386948 0.636851
1136 4 0.154072 0.394209 0.606888
1135 2 0.160985 0.383519 0.585367
992 4 0.14162 0.409862 0.606645
991 2 0.117561 0.411565 0.613235
993 4 0.0935015 0.413268 0.619824
930 4 0.346719 0.347914 0.586822
1206 4 0.366286 0.346283 0.585305
1001 4 0.485098 0.387974 0.574131
1000 2 0.470186 0.407057 0.580346
3330 4 0.493991 0.413324 0.658499
1040 4 0.0779995 0.422322 0.61116
2171 4 0.150559 0.507271 0.652328
1171 2 0.253835 0.454647 0.585651
1160 4 0.20687 0.473484 0.623706
1159 2 0.191331 0.47997 0.605221
1175 4 0.217559 0.482207 0.637842
1174 2 0.237777 0.492014 0.648806
2170 2 0.172873 0.50015 0.661076
1173 4 0.257329 0.4465 0.60903
889 2 0.336998 0.474532 0.640487
891 4 0.341404 0.486573 0.619022
1951 2 0.341639 0.502069 0.589735
1952 4 0.357143 0.493994 0.607612
1911 4 0.419811 0.465985 0.620436
1910 4 0.436455 0.428698 0.591569
1002 4 0.455274 0.426141 0.586562
1909 2 0.428133 0.447341 0.606003
3328 2 0.497688 0.424507 0.636444
1268 4 0.445256 0.459472 0.664642
1267 2 0.442895 0.484077 0.668409
943 2 0.0331246 0.0503623 0.676092
944 4 0.0395443 0.0352583 0.694956
1075 2 0.0562836 0.0429236 0.732403
1076 4 0.0525318 0.0445603 0.707737
1005 4 0.298542 0.0686203 0.671641
42 3 0.47547 0.056557 0.680868
1163 4 0.490185 0.0515943 0.692911
32 3 0.0931456 0.151553 0.747864
1282 2 0.160407 0.120612 0.688029
1284 4 0.165531 0.114888 0.711823
1227 4 0.182376 0.112661 0.721693
1225 2 0.199532 0.12679 0.733148
1226 4 0.216689 0.14092 0.744602
1130 4 0.216837 0.160428 0.746848
888 4 0.286582 0.135999 0.664997
886 2 0.296795 0.126907 0.685931
887 4 0.307008 0.117815 0.706864
830 4 0.319914 0.125295 0.719551
829 2 0.327372 0.103597 0.72949
831 4 0.33483 0.0818992 0.739428
1105 2 0.0320544 0.180995 0.748558
1107 4 0.0141959 0.189622 0.733332
822 4 0.137106 0.234105 0.701038
1278 4 0.15475 0.227006 0.706905
820 2 0.113345 0.239809 0.695739
1276 2 0.171122 0.222353 0.725221
821 4 0.0895846 0.245513 0.69044
1277 4 0.187495 0.217701 0.743537
1129 2 0.210724 0.184663 0.747527
1131 4 0.20461 0.208898 0.748205
916 2 0.297081 0.224801 0.736053
918 4 0.306775 0.20779 0.751605
917 4 0.287388 0.241811 0.720501
1142 4 0.32995 0.203157 0.692655
1008 4 0.328077 0.245636 0.739307
977 4 0.311541 0.188234 0.746416
1141 2 0.340058 0.199506 0.670079
1194 4 0.411227 0.241484 0.734192
1262 4 0.419389 0.225973 0.727751
3123 4 0.439274 0.209138 0.671583
3121 2 0.463149 0.216296 0.669596
1261 2 0.43545 0.209497 0.737537
1263 4 0.451511 0.193021 0.747323
1145 4 0.464939 0.179983 0.742638
1207 2 0.0590358 0.255086 0.679134
1208 4 0.0722795 0.248612 0.69933
1245 4 0.0154528 0.305842 0.712181
1179 4 0.0016161 0.289741 0.711151
948 4 0.210867 0.27443 0.673389
1065 4 0.215859 0.293899 0.674925
1064 4 0.204302 0.33219 0.704941
1063 2 0.210081 0.313044 0.689933
1097 4 0.268852 0.244696 0.714228
1096 2 0.260281 0.265626 0.724888
1098 4 0.25171 0.286556 0.735549
1192 2 0.403649 0.263631 0.742984
893 4 0.0642891 0.340443 0.684116
1279 2 0.0923181 0.412984 0.706868
892 2 0.0814374 0.358279 0.687718
894 4 0.0985857 0.376116 0.691321
1281 4 0.101554 0.395845 0.69118
940 2 0.157397 0.408387 0.732588
941 4 0.169451 0.389142 0.722124
1066 2 0.196606 0.408816 0.693446
1067 4 0.177154 0.401413 0.707303
1068 4 0.216058 0.416219 0.67959
1029 4 0.281619 0.408183 0.678356
3183 4 0.489224 0.409563 0.678316
2021 4 0.0227946 0.476946 0.724232
2020 2 0.0382606 0.489727 0.709312
1280 4 0.0830826 0.430123 0.722557
1983 4 0.00471801 0.470121 0.72662
3275 4 0.0735147 0.432347 0.740564
942 4 0.145342 0.427632 0.743052
2172 4 0.195188 0.493029 0.669824
1028 4 0.233287 0.417071 0.687614
890 4 0.332592 0.46249 0.661953
1027 2 0.257453 0.412627 0.682985
1139 4 0.299083 0.406458 0.68716
1138 2 0.30845 0.424276 0.701991
1140 4 0.317816 0.442094 0.716822
1989 4 0.313417 0.448553 0.734606
1230 4 0.376974 0.408884 0.70627
1228 2 0.361953 0.428424 0.702059
1229 4 0.346932 0.447964 0.697847
1100 4 0.483667 0.469115 0.721892
1099 2 0.479105 0.491618 0.711993
1250 4 0.485613 0.46068 0.740071
1077 4 0.0600354 0.0412869 0.757069
1203 4 0.0731648 0.0484434 0.770203
864 4 0.036125 0.0816655 0.840029
1201 2 0.0924033 0.0348628 0.778606
2049 4 0.117232 0.00174891 0.784837
1202 4 0.111642 0.0212822 0.78701
1148 4 0.175282 0.0467545 0.765224
1147 2 0.196222 0.0602215 0.767533
1149 4 0.217162 0.0736884 0.769842
1049 4 0.231212 0.0610124 0.775388
1048 2 0.249049 0.0496213 0.788703
1050 4 0.266885 0.0382302 0.802018
817 2 0.382853 0.0727905 0.822993
846 4 0.474957 0.0310485 0.770078
1113 4 0.477475 0.0114589 0.773849
844 2 0.493109 0.0467045 0.777189
832 2 0.0372271 0.135377 0.784777
863 4 0.0124639 0.114041 0.810152
833 4 0.0254534 0.115574 0.794493
33 3 0.0668654 0.146058 0.774166
834 4 0.0490009 0.15518 0.775061
31 1 0.0810913 0.161707 0.764619
862 2 0.0242944 0.0978534 0.82509
840 4 0.195672 0.11526 0.784449
838 2 0.214317 0.12434 0.798416
839 4 0.232963 0.133419 0.812383
959 4 0.245128 0.127592 0.827292
978 4 0.298859 0.148028 0.773311
958 2 0.266806 0.116581 0.82146
976 2 0.3052 0.168131 0.759863
960 4 0.288484 0.10557 0.815627
819 4 0.386743 0.0859248 0.802076
1084 2 0.378464 0.1207 0.788761
1085 4 0.390625 0.0990562 0.785789
1086 4 0.366303 0.142344 0.791732
1299 4 0.370864 0.161415 0.78757
3270 4 0.489886 0.159041 0.791345
35 3 0.0689803 0.178863 0.755808
1106 4 0.0499129 0.172367 0.763784
1214 4 0.0155898 0.239689 0.797319
778 2 0.0568489 0.233589 0.812642
779 4 0.03536 0.243378 0.804421
780 4 0.0783378 0.2238 0.820862
1073 4 0.11561 0.17105 0.773928
1072 2 0.129332 0.187654 0.786623
1074 4 0.143055 0.204258 0.799318
34 3 0.0958263 0.169811 0.780607
869 4 0.0935198 0.215785 0.831487
1006 2 0.346746 0.257198 0.751262
1297 2 0.386906 0.175762 0.800299
1298 4 0.402947 0.190108 0.813028
47 3 0.411899 0.205812 0.82448
49 3 0.410681 0.243366 0.825403
1144 2 0.482256 0.172299 0.758955
1146 4 0.499572 0.164615 0.775273
1240 2 0.218942 0.274008 0.760716
1242 4 0.203547 0.26194 0.776289
1241 4 0.234337 0.286077 0.745143
1166 4 0.411096 0.264354 0.815013
1043 4 0.391488 0.253774 0.817845