ITEM: TIMESTEP
240000
ITEM: NUMBER OF ATOMS
4590
ITEM: BOX BOUNDS pp pp pp
-9.9985700000000008e+00 9.9985700000000008e+00
-9.9985700000000008e+00 9.9985700000000008e+00
-9.9985700000000008e+00 9.9985700000000008e+00
ITEM: ATOMS id type xs ys zs
463 2 0.0304872 0.0518008 0.0287183
465 4 0.031234 0.0760008 0.0349615
464 4 0.0297403 0.0276007 0.0224751
1667 4 0.0725136 0.0149203 0.061837
702 4 0.109836 0.089134 0.0732271
534 4 0.199392 0.0636018 0.0137273
490 2 0.280969 0.0431329 0.0380746
491 4 0.280336 0.0618836 0.054603
492 4 0.281602 0.0243822 0.0215461
296 4 0.367794 0.0603339 0.0579389
745 2 0.450465 0.0681641 0.0312266
746 4 0.445347 0.0756747 0.05452
747 4 0.455582 0.0606535 0.00793317
2975 4 0.469858 0.0485611 0.0130902
2974 2 0.48885 0.0415583 0.998412
589 2 0.0307079 0.121263 0.0774365
590 4 0.0375679 0.144057 0.0697837
3233 4 0.0116148 0.127695 0.00777004
591 4 0.023848 0.0984692 0.0850894
701 4 0.0809878 0.0900781 0.0323906
700 2 0.0954117 0.0896061 0.0528089
422 4 0.11921 0.13971 0.0180293
421 2 0.102036 0.133207 0.00106032
565 2 0.198416 0.111487 0.0437004
566 4 0.181188 0.0996963 0.0299394
567 4 0.215643 0.123279 0.0574614
358 2 0.273778 0.124269 0.0221462
359 4 0.295424 0.11464 0.0141511
360 4 0.252133 0.133898 0.0301412
557 4 0.369666 0.0726708 0.0379544
556 2 0.370755 0.0945281 0.0500478
558 4 0.371844 0.116385 0.0621412
553 2 0.0409541 0.230749 0.0193188
555 4 0.0610095 0.222647 0.00677675
554 4 0.0208986 0.238852 0.031861
506 4 0.189792 0.25601 0.0331231
571 2 0.3196 0.251159 0.048412
573 4 0.294895 0.255007 0.0486054
666 4 0.318872 0.229638 0.0187533
572 4 0.344305 0.247311 0.0482187
324 4 0.404318 0.233379 0.055859
322 2 0.419717 0.24697 0.070118
664 2 0.332746 0.211014 0.00948947
665 4 0.34662 0.192389 0.000225636
771 4 0.439259 0.182174 0.0563867
770 4 0.485959 0.167699 0.045884
769 2 0.462609 0.174936 0.0511353
1014 4 0.466876 0.203637 0.999038
292 2 0.130595 0.306629 0.0170398
294 4 0.113255 0.317877 0.0029689
293 4 0.147934 0.29538 0.0311106
483 4 0.219702 0.302033 0.0695928
505 2 0.175746 0.27587 0.0389079
507 4 0.1617 0.29573 0.0446926
481 2 0.240882 0.308731 0.0581149
357 4 0.249546 0.269195 0.00976154
482 4 0.262062 0.315429 0.0466369
1071 4 0.374378 0.256153 0.0216946
1069 2 0.396678 0.26726 0.0195727
956 4 0.372614 0.322799 0.00324316
1070 4 0.418978 0.278367 0.0174508
671 4 0.461018 0.33115 0.0689849
280 2 0.463697 0.328754 0.024402
282 4 0.464559 0.332834 0.999749
330 4 0.0238603 0.404112 0.034671
621 4 0.0129507 0.362089 0.0793466
328 2 0.0225182 0.395537 0.0112222
454 2 0.122404 0.378143 0.079057
455 4 0.109213 0.389061 0.0608371
288 4 0.15858 0.417102 0.0145573
286 2 0.160774 0.392269 0.0126311
287 4 0.162969 0.367437 0.010705
252 4 0.286675 0.395357 0.0699623
250 2 0.282865 0.400779 0.0458528
251 4 0.279056 0.4062 0.0217433
608 4 0.307298 0.39475 0.070099
281 4 0.462835 0.324675 0.0490555
552 4 0.0855714 0.416166 0.0603313
550 2 0.067168 0.429859 0.0503828
551 4 0.0487645 0.443553 0.0404343
315 4 0.00949711 0.423205 0.0749082
1788 4 0.0754529 0.500443 0.074533
241 2 0.17244 0.499706 0.0732835
242 4 0.1551 0.493644 0.0563198
1786 2 0.0987295 0.493007 0.0692331
1787 4 0.122006 0.485571 0.0639332
245 4 0.219885 0.447298 0.0304751
244 2 0.242341 0.458264 0.0312798
246 4 0.264796 0.469231 0.0320846
272 4 0.281757 0.460075 0.0372738
271 2 0.293356 0.479578 0.0267711
524 4 0.332443 0.484201 0.0758798
227 4 0.483659 0.439335 0.0525285
562 2 0.443492 0.48808 0.0269896
563 4 0.460896 0.474111 0.0157131
226 2 0.499223 0.456852 0.0438047
1666 2 0.0736274 0.0175546 0.0866765
1668 4 0.0747411 0.0201889 0.111516
19 3 0.0399378 0.0440382 0.156513
20 3 0.0762502 0.052653 0.161499
450 4 0.1635 0.0588678 0.136367
448 2 0.174382 0.0798917 0.144414
1505 4 0.216352 0.0443 0.179107
1504 2 0.22821 0.0237438 0.171232
1506 4 0.240067 0.00318759 0.163357
652 2 0.306597 0.0330754 0.149945
654 4 0.301308 0.0186044 0.169637
653 4 0.311887 0.0475464 0.130253
295 2 0.365342 0.0476349 0.0793376
297 4 0.36289 0.034936 0.100736
758 4 0.416642 0.055899 0.155712
380 4 0.997461 0.133372 0.161225
237 4 0.173326 0.157092 0.136964
449 4 0.185264 0.100916 0.152461
235 2 0.179256 0.137215 0.150926
236 4 0.185185 0.117339 0.164889
693 4 0.223218 0.103081 0.155967
582 4 0.298297 0.100124 0.149017
580 2 0.289421 0.111776 0.169281
312 4 0.425711 0.113566 0.164013
629 4 0.459571 0.176332 0.130025
476 4 0.133604 0.164812 0.10748
475 2 0.117834 0.17277 0.125176
477 4 0.102064 0.180728 0.142873
337 2 0.0857452 0.250849 0.149172
737 4 0.177364 0.20146 0.107372
736 2 0.201232 0.19928 0.114495
738 4 0.2251 0.1971 0.121619
354 4 0.258139 0.211963 0.107266
284 4 0.272789 0.238225 0.16657
352 2 0.278105 0.226231 0.11206
460 2 0.332355 0.203717 0.101165
461 4 0.32971 0.226947 0.092302
283 2 0.268941 0.213645 0.169067
255 4 0.353406 0.17838 0.101522
462 4 0.335 0.180487 0.110028
630 4 0.413288 0.167525 0.11326
254 4 0.402654 0.171462 0.096278
253 2 0.37803 0.174921 0.0989001
628 2 0.43643 0.171929 0.121642
517 2 0.495375 0.243328 0.0942408
518 4 0.495612 0.218338 0.095036
339 4 0.0766783 0.259153 0.1274
277 2 0.239464 0.273349 0.16598
353 4 0.29807 0.240498 0.116855
754 2 0.279974 0.297274 0.11959
755 4 0.265255 0.28224 0.1331
756 4 0.294692 0.312309 0.10608
278 4 0.248959 0.282153 0.144591
741 4 0.343418 0.307192 0.0965607
622 2 0.387912 0.266428 0.151391
624 4 0.407219 0.250542 0.15155
739 2 0.35451 0.329597 0.0962152
623 4 0.368605 0.282315 0.151232
323 4 0.435117 0.260561 0.084377
528 4 0.454957 0.260047 0.178877
672 4 0.428347 0.315654 0.103527
670 2 0.444683 0.323402 0.0862561
526 2 0.479448 0.264585 0.176691
519 4 0.495137 0.268318 0.0934455
619 2 0.0142125 0.348355 0.100203
620 4 0.0154743 0.334622 0.121059
456 4 0.135595 0.367225 0.0972768
537 4 0.179257 0.332782 0.129956
648 4 0.107071 0.342155 0.174886
535 2 0.188725 0.34405 0.150169
626 4 0.224619 0.409993 0.126214
609 4 0.311411 0.35495 0.100096
607 2 0.309354 0.37485 0.0850973
612 4 0.27755 0.350034 0.14169
610 2 0.264636 0.344144 0.162275
740 4 0.365602 0.352003 0.0958698
387 4 0.343453 0.394987 0.142864
15 3 0.390759 0.358994 0.134768
385 2 0.350171 0.376643 0.127259
386 4 0.35689 0.358299 0.111654
11 1 0.413365 0.361641 0.133996
14 3 0.419488 0.371622 0.113964
13 3 0.420421 0.374697 0.151833
12 3 0.423462 0.341021 0.135421
495 4 0.433948 0.384596 0.119107
493 2 0.440074 0.407866 0.1259
597 4 0.472858 0.391221 0.167812
595 2 0.493398 0.405168 0.164851
313 2 0.0124246 0.442886 0.0900491
314 4 0.0153522 0.462568 0.10519
243 4 0.18978 0.505768 0.0902472
625 2 0.225691 0.423646 0.105295
627 4 0.226763 0.437299 0.0843751
637 2 0.260894 0.488288 0.136833
525 4 0.336071 0.494618 0.124655
523 2 0.334257 0.489409 0.100268
638 4 0.272382 0.474607 0.154326
658 2 0.387704 0.460099 0.15686
659 4 0.363463 0.465117 0.16038
660 4 0.411944 0.455082 0.15334
494 4 0.4462 0.431137 0.132692
16 1 0.0557247 0.0523295 0.17136
17 3 0.049827 0.0737599 0.177285
18 3 0.0563229 0.0391628 0.190457
1422 4 0.00104438 0.019316 0.166478
579 4 0.096763 0.0823135 0.22381
1420 2 0.0139881 0.998104 0.169251
673 2 0.122023 0.0426226 0.234569
674 4 0.141457 0.0578501 0.230618
675 4 0.102588 0.0273952 0.23852
689 4 0.217453 0.0248683 0.207692
688 2 0.206444 0.0177985 0.228999
21 1 0.373894 0.0458183 0.224244
23 3 0.38219 0.0247018 0.229111
24 3 0.35162 0.0472349 0.230589
25 3 0.375905 0.050008 0.20195
759 4 0.395284 0.0496231 0.200491
22 3 0.385988 0.0614524 0.236012
757 2 0.405963 0.0527611 0.178102
1760 4 0.472896 0.0131058 0.166563
742 2 0.455945 0.0535842 0.223315
743 4 0.463361 0.0774203 0.224736
744 4 0.448528 0.0297482 0.221894
379 2 0.0104638 0.150631 0.173802
381 4 0.0234669 0.167891 0.18638
511 2 0.0388428 0.162125 0.225582
513 4 0.0447889 0.151533 0.247437
577 2 0.0959276 0.106669 0.218214
578 4 0.0950921 0.131024 0.212618
692 4 0.233412 0.0787561 0.198453
723 4 0.209558 0.10445 0.233025
691 2 0.228315 0.0909187 0.17721
721 2 0.188153 0.113812 0.241933
581 4 0.280544 0.123427 0.189545
30 3 0.302851 0.12738 0.206385
26 1 0.308522 0.117814 0.226259
28 3 0.298333 0.0970621 0.228249
27 3 0.331338 0.115006 0.227079
29 3 0.302019 0.131546 0.243796
310 2 0.440714 0.113546 0.184015
311 4 0.455717 0.113526 0.204017
333 4 0.421106 0.138717 0.248115
512 4 0.0328968 0.172718 0.203728
395 4 0.0379545 0.250415 0.208523
338 4 0.094812 0.242544 0.170944
363 4 0.0914009 0.256578 0.185377
285 4 0.265094 0.189066 0.171565
764 4 0.355879 0.216898 0.184333
763 2 0.373546 0.22933 0.196922
765 4 0.391214 0.241763 0.20951
520 2 0.473899 0.212398 0.238815
521 4 0.4489 0.212816 0.238603
522 4 0.498898 0.21198 0.239028
394 2 0.0206274 0.251536 0.226514
750 4 0.0583489 0.297346 0.241829
748 2 0.07658 0.281856 0.2491
370 2 0.170099 0.26533 0.218879
361 2 0.109197 0.25892 0.202783
362 4 0.126994 0.261262 0.220189
372 4 0.145898 0.261913 0.213606
371 4 0.1943 0.268748 0.224152
279 4 0.229968 0.264546 0.187369
343 2 0.258505 0.284545 0.245911
344 4 0.275739 0.272069 0.232776
307 2 0.310443 0.274952 0.222897
309 4 0.298516 0.286094 0.203955
308 4 0.32237 0.263811 0.241839
647 4 0.0639681 0.363503 0.161206
263 4 0.0629648 0.410622 0.221917
300 4 0.117396 0.330314 0.211561
298 2 0.129285 0.33826 0.232071
646 2 0.0855194 0.352829 0.168046
536 4 0.198193 0.355318 0.170382
611 4 0.251723 0.338253 0.182859
303 4 0.308761 0.396022 0.194967
301 2 0.326495 0.40511 0.179865
729 4 0.321226 0.376526 0.244923
643 2 0.449621 0.382636 0.190241
644 4 0.446954 0.375709 0.214118
645 4 0.452287 0.389562 0.166365
447 4 0.455976 0.36635 0.229018
262 2 0.0475917 0.4301 0.218841
264 4 0.0322185 0.449578 0.215764
417 4 0.133001 0.435738 0.189012
415 2 0.157661 0.433184 0.192265
416 4 0.18232 0.43063 0.195518
291 4 0.200425 0.431276 0.186413
289 2 0.219136 0.427302 0.202516
290 4 0.237847 0.423328 0.218618
768 4 0.241075 0.482886 0.215154
766 2 0.254734 0.479155 0.194546
767 4 0.268393 0.475423 0.173938
1574 4 0.310314 0.499607 0.187722
302 4 0.344229 0.414198 0.164762
229 2 0.407836 0.492335 0.233058
231 4 0.396369 0.483005 0.212893
232 2 0.026846 0.0454073 0.296053
233 4 0.0440225 0.027685 0.300061
1402 2 0.0674724 0.0144453 0.276594
1403 4 0.0683877 0.0377888 0.285506
234 4 0.0096695 0.0631296 0.292045
429 4 0.0854562 0.0135247 0.325539
690 4 0.195434 0.0107287 0.250306
248 4 0.22295 0.0832575 0.280928
1701 4 0.226957 0.0295513 0.320279
1699 2 0.246713 0.0222987 0.306778
1700 4 0.26647 0.0150462 0.293278
257 4 0.393695 0.0548071 0.342084
478 2 0.479632 0.0353972 0.324614
480 4 0.466041 0.0144333 0.323623
351 4 0.448362 0.0643644 0.26972
529 2 0.999506 0.133503 0.270787
530 4 0.0170332 0.142449 0.286213
398 4 0.0617035 0.143562 0.316294
731 4 0.131499 0.0767865 0.312865
546 4 0.162809 0.13053 0.267992
544 2 0.157534 0.154927 0.266524
722 4 0.166747 0.123173 0.25084
249 4 0.234961 0.122388 0.309656
247 2 0.228956 0.102823 0.295292
403 2 0.219288 0.158378 0.293134
600 4 0.189396 0.135745 0.330034
404 4 0.234215 0.139388 0.299595
632 4 0.352404 0.120599 0.297213
631 2 0.37327 0.109419 0.305263
633 4 0.394136 0.0982388 0.313312
349 2 0.451868 0.0797003 0.289154
331 2 0.441011 0.153258 0.252304
332 4 0.460915 0.167799 0.256493
350 4 0.455374 0.0950361 0.308589
392 4 0.116371 0.164951 0.267042
391 2 0.104073 0.185941 0.272818
393 4 0.0917743 0.20693 0.278594
545 4 0.152258 0.179323 0.265057
405 4 0.204362 0.177368 0.286673
706 2 0.311854 0.175952 0.307466
708 4 0.307073 0.166627 0.330168
707 4 0.316635 0.185276 0.284764
762 4 0.473388 0.172399 0.27211
418 2 0.428286 0.210348 0.306106
419 4 0.438691 0.190828 0.317765
761 4 0.469805 0.181785 0.321098
760 2 0.471596 0.177092 0.296604
420 4 0.417882 0.229867 0.294448
396 4 0.00330023 0.252657 0.244506
444 4 0.0207375 0.25369 0.31196
443 4 0.0109004 0.25431 0.262934
442 2 0.015819 0.254 0.287447
390 4 0.0718934 0.275651 0.321391
749 4 0.0948112 0.266366 0.25637
345 4 0.241271 0.29702 0.259047
400 2 0.203378 0.255466 0.308112
402 4 0.225207 0.252362 0.319903
401 4 0.181549 0.25857 0.296321
508 2 0.234736 0.31626 0.324859
496 2 0.308588 0.295085 0.293586
497 4 0.332271 0.288837 0.288561
498 4 0.284905 0.301333 0.298611
543 4 0.403673 0.306952 0.317658
615 4 0.394659 0.325388 0.316365
613 2 0.37824 0.336065 0.331908
541 2 0.424976 0.315828 0.308037
542 4 0.44628 0.324704 0.298416
366 4 0.00587104 0.336891 0.274119
364 2 0.0271734 0.342263 0.286058
365 4 0.0484757 0.347636 0.297996
602 4 0.0596099 0.404909 0.293477
299 4 0.141174 0.346206 0.252582
601 2 0.0800039 0.391765 0.287437
603 4 0.100398 0.378621 0.281396
734 4 0.150571 0.360769 0.26298
733 2 0.159814 0.364865 0.285849
676 2 0.189931 0.346668 0.338897
677 4 0.182087 0.36467 0.32342
735 4 0.169056 0.368961 0.308718
509 4 0.242666 0.33842 0.316418
727 2 0.332657 0.39249 0.260403
433 2 0.322591 0.390105 0.330531
728 4 0.344088 0.408454 0.275884
434 4 0.337577 0.387281 0.310716
445 2 0.45656 0.383309 0.247382
446 4 0.457143 0.400268 0.265746
1757 4 0.0646994 0.505112 0.26288
777 4 0.0898926 0.453129 0.279271
549 4 0.0496655 0.448921 0.316564
775 2 0.0934362 0.465931 0.300454
776 4 0.0969799 0.478733 0.321638
414 4 0.143725 0.475226 0.271458
412 2 0.158447 0.467441 0.290109
413 4 0.173168 0.459655 0.30876
436 2 0.29524 0.446614 0.281882
437 4 0.281497 0.446855 0.260996
438 4 0.308984 0.446374 0.302769
713 4 0.414703 0.455056 0.278822
712 2 0.435982 0.464304 0.288143
714 4 0.45726 0.473551 0.297464
316 2 0.0392124 0.0802558 0.346841
317 4 0.0335739 0.0569893 0.354056
428 4 0.0656182 0.0261106 0.369684
427 2 0.0755372 0.0198177 0.347612
606 4 0.172432 0.0641169 0.375551
604 2 0.196725 0.0599059 0.371391
605 4 0.221018 0.0556948 0.367231
683 4 0.299791 0.0816184 0.366008
682 2 0.285452 0.0871938 0.385719
698 4 0.376057 0.0515449 0.331858
697 2 0.362288 0.0317995 0.338618
699 4 0.348519 0.0120541 0.345379
256 2 0.41651 0.0523641 0.352018
479 4 0.493223 0.0563612 0.325605
258 4 0.439325 0.049921 0.361951
426 4 0.416485 0.0490374 0.393608
318 4 0.044851 0.103522 0.339625
732 4 0.132307 0.0925101 0.360329
730 2 0.131903 0.0846483 0.336597
397 2 0.0800211 0.12861 0.324423
399 4 0.0983387 0.113658 0.332552
685 2 0.155875 0.15005 0.410226
598 2 0.184609 0.15964 0.335625
686 4 0.178216 0.160807 0.407006
684 4 0.271113 0.0927692 0.405429
320 4 0.272028 0.101922 0.42453
451 2 0.47835 0.147622 0.374019
453 4 0.457543 0.160511 0.37913
514 2 0.432537 0.152669 0.409257
515 4 0.454222 0.152965 0.396812
2653 2 0.00873577 0.219457 0.364269
2654 4 0.0334606 0.217277 0.367287
599 4 0.179821 0.183536 0.341216
474 4 0.237559 0.200161 0.351182
274 2 0.192338 0.247321 0.395134
276 4 0.2166 0.249046 0.400926
275 4 0.168076 0.245595 0.389342
472 2 0.261128 0.202145 0.343072
473 4 0.284696 0.20413 0.334962
488 4 0.298647 0.218864 0.381527
487 2 0.294312 0.234954 0.400169
715 2 0.356318 0.233993 0.358802
716 4 0.337062 0.221344 0.368516
717 4 0.375574 0.246642 0.349087
616 2 0.0746654 0.326616 0.372046
618 4 0.0621068 0.30673 0.380532
347 4 0.0539424 0.313396 0.399084
346 2 0.0489418 0.299089 0.41897
389 4 0.112175 0.254005 0.341628
388 2 0.0920342 0.264828 0.33151
678 4 0.197775 0.328666 0.354375
375 4 0.167553 0.331062 0.388837
373 2 0.189805 0.320075 0.391885
510 4 0.226807 0.2941 0.333301
374 4 0.212058 0.309088 0.394932
376 2 0.296874 0.294492 0.352312
377 4 0.317072 0.284422 0.363073
378 4 0.276676 0.304562 0.34155
489 4 0.289977 0.251043 0.418811
268 2 0.489211 0.27346 0.39447
270 4 0.478965 0.270749 0.417116
408 4 0.0710653 0.423151 0.408109
406 2 0.0750386 0.419164 0.383747
407 4 0.0790119 0.415177 0.359386
548 4 0.0677691 0.410946 0.343599
617 4 0.087224 0.346502 0.363561
503 4 0.268041 0.409723 0.405235
435 4 0.307605 0.392929 0.350345
614 4 0.361822 0.346743 0.347451
336 4 0.386789 0.367228 0.400918
561 4 0.45814 0.379847 0.390584
752 4 0.449772 0.391482 0.377472
559 2 0.475046 0.37553 0.408494
560 4 0.491952 0.371213 0.426403
547 2 0.0587173 0.429933 0.330082
680 4 0.0417841 0.456662 0.427333
499 2 0.11616 0.480758 0.373787
500 4 0.122636 0.49154 0.352178
501 4 0.109685 0.469975 0.395397
570 4 0.168164 0.465548 0.40943
5 3 0.292094 0.447629 0.371735
1 1 0.309452 0.461572 0.366943
2 3 0.302564 0.483378 0.369433
4 3 0.327076 0.457564 0.381494
3 3 0.316379 0.458349 0.345033
593 4 0.416534 0.470599 0.346231
594 4 0.368216 0.481263 0.353467
592 2 0.392375 0.475931 0.349849
751 2 0.441163 0.414892 0.375725
753 4 0.432555 0.438302 0.373979
2237 4 0.0336547 0.0291065 0.493928
718 2 0.0481113 0.0640783 0.472097
720 4 0.0357269 0.0470774 0.485617
719 4 0.0604957 0.0810793 0.458578
2236 2 0.0258005 0.00763789 0.504057
367 2 0.123536 0.0487033 0.452195
369 4 0.12459 0.0712118 0.463032
368 4 0.122482 0.0261948 0.441359
342 4 0.181042 0.0744711 0.506752
340 2 0.179576 0.0505904 0.49949
341 4 0.178111 0.0267097 0.492227
1181 4 0.241531 0.0593252 0.499065
2430 4 0.198735 0.0216411 0.497215
441 4 0.271456 0.0395673 0.427647
439 2 0.279527 0.0172329 0.419823
726 4 0.322212 0.0705529 0.453251
1180 2 0.253975 0.0807189 0.495509
724 2 0.345659 0.0791898 0.454175
424 2 0.397613 0.039835 0.407185
425 4 0.37874 0.0306325 0.420761
725 4 0.369105 0.0878267 0.4551
2878 2 0.483827 0.0813971 0.45586
457 2 0.00754676 0.166256 0.425204
458 4 0.022513 0.14652 0.421786
471 4 0.0211054 0.167862 0.504078
687 4 0.133535 0.139293 0.413445
321 4 0.278312 0.15114 0.418303
319 2 0.27517 0.126531 0.421417
1182 4 0.266418 0.102113 0.491952
574 2 0.397338 0.154164 0.45747
575 4 0.404425 0.164588 0.435876
516 4 0.410853 0.152373 0.421702
576 4 0.390252 0.14374 0.479064
642 4 0.472767 0.117049 0.471863
2880 4 0.468939 0.100761 0.461205
640 2 0.470853 0.127868 0.494323
459 4 0.992581 0.185992 0.428622
469 2 0.0268222 0.184143 0.485982
470 4 0.032539 0.200423 0.467887
260 4 0.108891 0.210224 0.421672
261 4 0.120496 0.18694 0.464379
259 2 0.114694 0.198582 0.443025
1035 4 0.125831 0.185992 0.4834
1033 2 0.122764 0.180716 0.507647
695 4 0.111827 0.244121 0.47027
468 4 0.329665 0.163946 0.441129
411 4 0.265778 0.217226 0.469531
409 2 0.288522 0.206854 0.470071
410 4 0.311267 0.196482 0.470611
467 4 0.372319 0.173667 0.416903
466 2 0.350992 0.168806 0.429016
306 4 0.494149 0.223022 0.424709
304 2 0.491054 0.199853 0.41583
305 4 0.48796 0.176685 0.406951
348 4 0.0439411 0.284781 0.438856
327 4 0.110542 0.334268 0.477146
694 2 0.116566 0.263952 0.484741
696 4 0.121306 0.283784 0.499213
325 2 0.0959015 0.330836 0.45717
10 3 0.17299 0.322125 0.475785
6 1 0.164054 0.333889 0.493117
651 4 0.251949 0.271682 0.438162
649 2 0.257513 0.292489 0.450863
650 4 0.263078 0.313295 0.463564
266 4 0.317378 0.292546 0.433606
267 4 0.358783 0.265375 0.440536
265 2 0.33808 0.278961 0.437071
812 4 0.324227 0.30952 0.49511
583 2 0.463994 0.280297 0.466513
584 4 0.488697 0.278757 0.462966
585 4 0.439292 0.281837 0.470061
326 4 0.0812606 0.327404 0.437194
7 3 0.141123 0.333809 0.491303
502 2 0.252325 0.398874 0.421375
711 4 0.170251 0.373322 0.483248
504 4 0.236609 0.388026 0.437514
709 2 0.183962 0.381958 0.464206
710 4 0.197673 0.390594 0.445163
774 4 0.242073 0.415124 0.474397
8 3 0.171552 0.355839 0.492486
772 2 0.237945 0.401546 0.494983
334 2 0.380206 0.373711 0.424152
238 2 0.384291 0.375321 0.480622
240 4 0.367471 0.369624 0.463021
335 4 0.373622 0.380194 0.447385
239 4 0.40111 0.381018 0.498224
1381 2 0.0221043 0.485664 0.449906
1383 4 0.0323356 0.473545 0.430576
681 4 0.0366302 0.41177 0.448754
679 2 0.0392072 0.434216 0.438043
383 4 0.0784693 0.417576 0.460468
539 4 0.0786187 0.483508 0.49374
540 4 0.128048 0.488091 0.487701
568 2 0.153743 0.463726 0.429774
569 4 0.139322 0.461903 0.450118
382 2 0.102138 0.423716 0.455247
384 4 0.125807 0.429857 0.450025
538 2 0.103333 0.485799 0.490721
636 4 0.241286 0.473701 0.448783
634 2 0.239076 0.454028 0.464056
635 4 0.236867 0.434355 0.479329
668 4 0.293471 0.452758 0.426615
667 2 0.298521 0.441494 0.448358
669 4 0.303572 0.430229 0.470102
588 4 0.383926 0.437174 0.427801
587 4 0.429019 0.421336 0.442515
663 4 0.447963 0.458818 0.49283
586 2 0.406473 0.429255 0.435158
1126 2 0.0401105 0.0559637 0.527184
1127 4 0.0348055 0.0355075 0.51382
1128 4 0.0454155 0.0764198 0.540547
1058 4 0.135656 0.0634357 0.561898
1057 2 0.147837 0.0766616 0.579272
1030 2 0.25427 0.079131 0.564288
1152 4 0.192668 0.0878814 0.49671
961 2 0.290748 0.0321437 0.517094
963 4 0.298502 0.0559082 0.517641
962 4 0.282993 0.00837925 0.516546
432 4 0.304394 0.0716476 0.507594
430 2 0.325425 0.0832177 0.514595
1217 4 0.396785 0.0527765 0.556061
1216 2 0.404793 0.0302319 0.563327
841 2 0.375255 0.0705975 0.536147
842 4 0.394445 0.0545718 0.535834
1218 4 0.4128 0.00768721 0.570593
1062 4 0.481528 0.0251424 0.541214
938 4 0.0942188 0.137832 0.568731
937 2 0.108648 0.136866 0.548334
939 4 0.123078 0.135901 0.527936
1154 4 0.170241 0.150143 0.584638
1032 4 0.252763 0.0829237 0.53962
1151 4 0.176722 0.131984 0.514071
1150 2 0.184695 0.109933 0.50539
899 4 0.313356 0.133216 0.565643
898 2 0.327254 0.153032 0.55937
843 4 0.356065 0.0866231 0.536459
431 4 0.346456 0.0947878 0.521596
641 4 0.46894 0.138686 0.516783
877 2 0.0786243 0.20689 0.57241
878 4 0.0610006 0.202359 0.555262
1199 4 0.0116364 0.197393 0.562196
1034 4 0.119698 0.175441 0.531895
879 4 0.096248 0.21142 0.589558
856 2 0.237714 0.226286 0.538135
858 4 0.255108 0.224491 0.556008
1221 4 0.188589 0.187799 0.579274
857 4 0.220321 0.228081 0.520263
797 4 0.209686 0.236691 0.582017
900 4 0.341153 0.172847 0.553096
872 4 0.406668 0.24139 0.498437
3159 4 0.483196 0.18195 0.531926
983 4 0.0379413 0.330256 0.557
982 2 0.0223535 0.333999 0.576188
1258 2 0.154713 0.286098 0.527404
1260 4 0.136905 0.279386 0.511187
9 3 0.17002 0.324056 0.513269
1259 4 0.172521 0.29281 0.543621
813 4 0.342514 0.276243 0.527652
871 2 0.398058 0.259034 0.513921
873 4 0.389448 0.276677 0.529404
811 2 0.33337 0.292882 0.511381
1189 2 0.221046 0.352785 0.570641
773 4 0.233817 0.387968 0.515569
1190 4 0.236948 0.355456 0.551532
802 2 0.273763 0.36297 0.543277
803 4 0.27694 0.365539 0.567945
804 4 0.270587 0.3604 0.51861
928 2 0.357966 0.382343 0.583419
929 4 0.362672 0.383306 0.558881
925 2 0.463926 0.378151 0.530922
927 4 0.469254 0.401499 0.538109
926 4 0.458598 0.354802 0.523736
1161 4 0.151474 0.441255 0.560442
1159 2 0.158479 0.455335 0.579881
1171 2 0.230362 0.460691 0.569914
1173 4 0.213792 0.467207 0.55236
882 4 0.322884 0.445696 0.502998
880 2 0.33264 0.461763 0.519485
881 4 0.342395 0.477831 0.535973
1952 4 0.354289 0.472 0.569898
1002 4 0.406632 0.438181 0.567244
1951 2 0.357708 0.493914 0.581444
1000 2 0.431298 0.437012 0.563319
1001 4 0.455964 0.435843 0.559395
662 4 0.470655 0.487767 0.526708
661 2 0.459309 0.473293 0.509769
1185 4 0.00280885 0.0545355 0.64247
825 4 0.136515 0.0244188 0.644052
823 2 0.150746 0.00414212 0.64066
1031 4 0.255778 0.0753383 0.588956
949 2 0.275813 0.023012 0.598593
951 4 0.274345 0.0479206 0.600201
950 4 0.277282 0.998103 0.596985
1092 4 0.325565 0.993631 0.655585
809 4 0.46482 0.0715454 0.607364
808 2 0.453244 0.0748494 0.629279
1083 4 0.0699931 0.0885351 0.611535
1082 4 0.0401774 0.0982589 0.650486
1081 2 0.0550852 0.093397 0.63101
1059 4 0.160019 0.0898875 0.596646
1153 2 0.165778 0.128521 0.596375
1155 4 0.161315 0.1069 0.608111
909 4 0.153397 0.159726 0.65277
1284 4 0.175894 0.0896469 0.647387
1283 4 0.214649 0.121063 0.643944
1282 2 0.195272 0.105355 0.645665
1005 4 0.327017 0.0934083 0.655144
810 4 0.441668 0.0781534 0.651194
1272 4 0.115584 0.220125 0.587103
1270 2 0.131174 0.212409 0.605064
1271 4 0.146764 0.204692 0.623024
1210 2 0.23438 0.18047 0.658753
1212 4 0.220369 0.177526 0.638254
1219 2 0.196136 0.181979 0.60239
1220 4 0.203684 0.176158 0.625506
796 2 0.223922 0.235764 0.602551
798 4 0.238158 0.234837 0.623086
791 4 0.331909 0.244369 0.582073
1211 4 0.24839 0.183413 0.679252
904 2 0.486831 0.237195 0.603198
906 4 0.464507 0.23477 0.592201
1024 2 0.446002 0.200967 0.649601
1025 4 0.451222 0.221539 0.636383
905 4 0.509155 0.23962 0.614196
1243 2 0.0622104 0.271404 0.62474
1244 4 0.0610668 0.270699 0.599772
1245 4 0.0633541 0.272109 0.649707
1209 4 0.117786 0.257062 0.649878
946 2 0.184524 0.272085 0.625576
947 4 0.199817 0.252383 0.623805
948 4 0.169231 0.291787 0.627347
792 4 0.29336 0.276204 0.580975
790 2 0.312635 0.260286 0.581524
1238 4 0.304339 0.292206 0.585585
1237 2 0.297086 0.308655 0.602964
954 4 0.420464 0.267156 0.596482
952 2 0.442612 0.278631 0.598196
953 4 0.464761 0.290106 0.59991
984 4 0.00676582 0.337742 0.595377
1040 4 0.0757981 0.40778 0.638831
1039 2 0.0602999 0.393679 0.625188
1041 4 0.0448017 0.379578 0.611544
3263 4 0.99985 0.344881 0.612294
1137 4 0.118204 0.382032 0.573981
897 4 0.152722 0.392636 0.594165
1136 4 0.10208 0.350072 0.6089
1135 2 0.110142 0.366052 0.59144
992 4 0.143621 0.409863 0.64749
991 2 0.119846 0.406077 0.640738
993 4 0.0960709 0.402292 0.633987
1191 4 0.205144 0.350114 0.589751
896 4 0.186673 0.357534 0.5834
895 2 0.169698 0.375085 0.588783
1239 4 0.289833 0.325103 0.620343
806 4 0.32351 0.350937 0.661799
930 4 0.35326 0.38138 0.607957
1204 2 0.398701 0.403913 0.628463
1205 4 0.41462 0.388507 0.640055
1172 4 0.246933 0.454174 0.587468
1187 4 0.211544 0.489721 0.602485
1160 4 0.165483 0.469416 0.59932
1186 2 0.208273 0.503602 0.623022
889 2 0.309915 0.457856 0.603785
891 4 0.291065 0.473119 0.60986
1206 4 0.382781 0.41932 0.61687
890 4 0.328765 0.442593 0.59771
1269 4 0.426672 0.466185 0.649228
944 4 0.0723225 0.0632197 0.674455
943 2 0.0684343 0.0387774 0.670901
945 4 0.0645461 0.0143351 0.667346
1147 2 0.21406 0.0759486 0.734908
1149 4 0.215807 0.0573097 0.751483
1090 2 0.339506 0.00397475 0.67358
1091 4 0.353448 0.0143189 0.691575
1163 4 0.464683 0.0428056 0.673786
1162 2 0.486574 0.0479252 0.684729
42 3 0.431522 0.0692646 0.691884
2320 2 0.497423 0.00948074 0.740078
2283 4 0.431937 0.000662541 0.669443
45 3 0.424006 0.0844895 0.658648
1076 4 0.0343601 0.0918228 0.668799
862 2 0.0501572 0.12499 0.74549
864 4 0.0510167 0.117568 0.721628
1075 2 0.033904 0.100503 0.692243
1077 4 0.0334479 0.109183 0.715687
907 2 0.156371 0.150645 0.675875
908 4 0.159344 0.141564 0.698981
1227 4 0.157822 0.12752 0.713852
1148 4 0.212313 0.0945874 0.718334
1225 2 0.181374 0.120622 0.71864
1226 4 0.204925 0.113724 0.723428
829 2 0.334955 0.159599 0.714062
1003 2 0.337801 0.0820161 0.674615
831 4 0.344493 0.142006 0.729052
1004 4 0.348585 0.0706239 0.694085
43 3 0.413695 0.102309 0.690173
41 1 0.42987 0.0890027 0.680186
1142 4 0.409836 0.148721 0.725519
44 3 0.450416 0.0997728 0.680707
3425 4 0.509157 0.153551 0.700119
851 4 0.0689511 0.178681 0.721068
852 4 0.0346873 0.191938 0.687142
850 2 0.0518192 0.185309 0.704105
1213 2 0.0256818 0.21196 0.747689
1107 4 0.0653499 0.188111 0.738023
1178 4 0.0123169 0.235902 0.71375
1215 4 0.0243821 0.227408 0.728071
1105 2 0.0849378 0.19314 0.752726
1207 2 0.108786 0.243816 0.66908
1208 4 0.099786 0.23057 0.688282
1129 2 0.195094 0.202426 0.736667
1131 4 0.200247 0.226886 0.737247
1130 4 0.189942 0.177966 0.736086
830 4 0.325417 0.177192 0.699073
886 2 0.284666 0.191185 0.687636
888 4 0.263485 0.198035 0.67625
887 4 0.305846 0.184335 0.699021
976 2 0.282375 0.203697 0.747503
978 4 0.26796 0.183834 0.742725
1193 4 0.37053 0.237173 0.68983
1192 2 0.359256 0.215961 0.696768
1194 4 0.347982 0.194749 0.703707
1143 4 0.43397 0.192502 0.72678
1141 2 0.421903 0.170612 0.726149
1026 4 0.440782 0.180395 0.66282
1261 2 0.436071 0.234699 0.719543
1263 4 0.448118 0.244668 0.700033
1262 4 0.424024 0.224729 0.739054
1145 4 0.496501 0.214505 0.738765
820 2 0.16495 0.271908 0.735634
821 4 0.171665 0.279884 0.712909
1065 4 0.243263 0.271449 0.697582
1063 2 0.261143 0.288927 0.697589
1064 4 0.279022 0.306406 0.697596
807 4 0.351396 0.334475 0.699905
3123 4 0.475518 0.281654 0.672729
3121 2 0.49428 0.265246 0.674713
3274 2 0.00407848 0.387162 0.725734
892 2 0.0516374 0.382142 0.693092
893 4 0.0608425 0.38347 0.669882
894 4 0.0424322 0.380813 0.716301
3276 4 0.0225453 0.373857 0.715382
940 2 0.137542 0.390898 0.740193
1067 4 0.160169 0.405474 0.712063
941 4 0.156003 0.405678 0.732073
1028 4 0.219604 0.391861 0.677179
1066 2 0.182326 0.402444 0.700879
1068 4 0.204482 0.399414 0.689695
1027 2 0.243719 0.39769 0.674073
805 2 0.337453 0.342706 0.680852
1029 4 0.267835 0.403519 0.670966
1019 4 0.392932 0.362639 0.711519
1281 4 0.0280002 0.461126 0.713639
1280 4 0.059009 0.422165 0.709028
1279 2 0.0435046 0.441646 0.711334
1983 4 0.0306115 0.479839 0.715789
1981 2 0.0371954 0.492271 0.73646
1176 4 0.194275 0.489362 0.71724
1174 2 0.212154 0.500438 0.703717
1139 4 0.271796 0.422981 0.725945
1138 2 0.288671 0.439443 0.717615
1140 4 0.305547 0.455905 0.709284
1228 2 0.369253 0.458337 0.708802
1229 4 0.359644 0.479659 0.717645
1230 4 0.378862 0.437014 0.699958
1267 2 0.439587 0.476145 0.668181
1100 4 0.435503 0.449948 0.725076
1099 2 0.45713 0.446497 0.713012
1101 4 0.478757 0.443047 0.700948
1294 2 0.00719286 0.0289415 0.811163
911 4 0.0738883 0.0492271 0.823462
1203 4 0.112962 0.0846035 0.773653
1201 2 0.111547 0.0606984 0.766461
1202 4 0.110131 0.0367933 0.75927
2049 4 0.105184 0.0172114 0.758586
1255 2 0.284415 0.0694552 0.818753
1256 4 0.303558 0.0846482 0.824035
1257 4 0.265272 0.0542623 0.813471
975 4 0.367187 0.015193 0.816535
973 2 0.359101 0.00834443 0.839182
1112 4 0.422539 0.0795966 0.816397
846 4 0.467901 0.0652973 0.756633
1113 4 0.420557 0.0398092 0.786169
844 2 0.468137 0.0467316 0.773379
1111 2 0.421548 0.0597029 0.801283
845 4 0.468374 0.028166 0.790125
863 4 0.0492976 0.132412 0.769351
832 2 0.0114295 0.120022 0.786247
833 4 0.0347345 0.121699 0.777345
34 3 0.103378 0.144343 0.834305
31 1 0.114451 0.148009 0.814247
33 3 0.120365 0.127732 0.804642
839 4 0.254331 0.148903 0.79304
838 2 0.264929 0.130251 0.805885
840 4 0.275526 0.1116 0.81873
1084 2 0.355988 0.137673 0.805023
1085 4 0.374315 0.125855 0.817255
1086 4 0.337661 0.149491 0.79279
819 4 0.366662 0.111587 0.829932
1214 4 0.0269815 0.196513 0.767307
1073 4 0.0817975 0.232319 0.790755
32 3 0.13356 0.160121 0.818407
1106 4 0.104526 0.198169 0.76743
35 3 0.101083 0.15974 0.800022
1072 2 0.104662 0.241234 0.785967
1074 4 0.127526 0.250148 0.781179
1277 4 0.205507 0.226314 0.755848
977 4 0.29679 0.22356 0.752282
918 4 0.302495 0.23156 0.769403