ITEM: TIMESTEP
2730000
ITEM: NUMBER OF ATOMS
4590
ITEM: BOX BOUNDS pp pp pp
-9.9985700000000008e+00 9.9985700000000008e+00
-9.9985700000000008e+00 9.9985700000000008e+00
-9.9985700000000008e+00 9.9985700000000008e+00
ITEM: ATOMS id type xs ys zs
463 2 0.0429924 0.0477685 0.0110357
464 4 0.0429545 0.0297618 0.0283832
1668 4 0.052707 0.0159835 0.0405355
1666 2 0.0436977 0.0216815 0.0631529
3290 4 0.0727788 0.0171597 0.0501385
3289 2 0.08656 0.0237253 0.0303357
565 2 0.151046 0.0268769 0.0298045
567 4 0.14944 0.0497071 0.0398732
566 4 0.152653 0.00404664 0.0197357
3291 4 0.100341 0.0302909 0.0105329
1475 4 0.279036 0.00884946 0.084192
490 2 0.305713 0.00933782 0.0557176
491 4 0.315748 0.0175319 0.034332
2145 4 0.371536 0.0207492 0.99563
745 2 0.467009 0.0477794 0.0510041
746 4 0.461122 0.0552274 0.0278729
747 4 0.472895 0.0403313 0.0741353
1826 4 0.4806 0.0225437 0.0683162
2724 4 0.491512 0.0722647 0.0671583
700 2 0.0332077 0.102035 0.989854
702 4 0.0394629 0.126243 0.989871
460 2 0.319344 0.148108 0.0679811
461 4 0.294481 0.146642 0.0701844
353 4 0.27971 0.159654 0.0701474
462 4 0.344207 0.149574 0.0657779
422 4 0.0751045 0.182983 0.0313021
421 2 0.089134 0.181614 0.0106508
505 2 0.145766 0.24171 0.0540163
506 4 0.164741 0.230679 0.0659942
737 4 0.184488 0.229617 0.0712434
736 2 0.200395 0.210343 0.0704309
352 2 0.257261 0.170663 0.0699351
665 4 0.358938 0.191929 0.0243459
664 2 0.347486 0.188492 0.00238685
323 4 0.492213 0.232808 0.0625085
828 4 0.489987 0.231411 0.0212022
2807 4 0.00358482 0.273994 0.00640495
2806 2 0.986802 0.259192 0.0175591
3339 4 0.0221145 0.289867 0.9893
292 2 0.103805 0.279898 0.063462
456 4 0.0991858 0.321553 0.0753221
293 4 0.11046 0.25752 0.054513
507 4 0.126792 0.252741 0.0420384
741 4 0.310924 0.340061 0.0226084
612 4 0.257531 0.294672 0.0569684
610 2 0.272503 0.278621 0.0689432
739 2 0.324249 0.339925 0.0437648
609 4 0.254953 0.316357 0.0566935
611 4 0.287474 0.26257 0.0809181
1071 4 0.395656 0.251636 0.0211861
573 4 0.376647 0.254249 0.0121277
571 2 0.358389 0.267202 0.000988777
572 4 0.340132 0.280155 0.98985
324 4 0.449911 0.257403 0.0521925
322 2 0.471062 0.245106 0.0573505
2841 4 0.493815 0.277635 0.054032
454 2 0.104758 0.344246 0.0842182
1288 2 0.205141 0.412537 0.00317058
1289 4 0.201622 0.390084 0.0135956
250 2 0.29711 0.386174 0.0662625
251 4 0.297344 0.405931 0.0509404
252 4 0.296877 0.366416 0.0815846
607 2 0.27034 0.333508 0.0664017
608 4 0.285728 0.350659 0.0761099
740 4 0.337575 0.339789 0.0649212
226 2 0.381302 0.390244 0.0260503
228 4 0.375244 0.412425 0.0358728
227 4 0.387359 0.368063 0.0162277
1305 4 0.399809 0.354549 0.0102984
525 4 0.360057 0.417182 0.0470032
281 4 0.431952 0.354805 0.062658
280 2 0.456711 0.353553 0.0594033
282 4 0.48147 0.352302 0.0561486
671 4 0.424945 0.372614 0.0693113
1047 4 0.499137 0.355759 0.0469683
1045 2 0.501142 0.35087 0.0225296
552 4 0.0301013 0.457929 0.048848
314 4 0.0177893 0.456812 0.0647273
550 2 0.020925 0.476185 0.0344366
243 4 0.229843 0.474634 0.0554731
1440 4 0.243329 0.473586 0.070511
241 2 0.212456 0.484584 0.0405106
242 4 0.195069 0.494533 0.0255482
1438 2 0.233731 0.457556 0.0871264
524 4 0.310486 0.416706 0.0404299
271 2 0.271743 0.49885 0.0644371
272 4 0.277008 0.476188 0.0735956
523 2 0.335271 0.416944 0.0437165
1583 4 0.457879 0.460342 0.0382252
1582 2 0.457985 0.468764 0.0617676
1584 4 0.458091 0.477185 0.0853101
1667 4 0.0346885 0.0273794 0.0857703
16 1 0.0376032 0.0393428 0.123056
2480 4 0.0166591 0.0659947 0.139795
18 3 0.0461202 0.0588581 0.113836
19 3 0.0195215 0.0442784 0.136735
2479 2 0.00869261 0.0859146 0.152637
17 3 0.030523 0.0255586 0.106056
20 3 0.0537719 0.0287277 0.135079
1422 4 0.0123015 0.0514697 0.15704
450 4 0.135626 0.0792701 0.127477
652 2 0.246249 0.043904 0.157386
689 4 0.185974 0.0282205 0.158736
654 4 0.250028 0.0398954 0.132997
1476 4 0.264396 0.0430388 0.11762
1474 2 0.271716 0.0259441 0.100906
297 4 0.364453 0.0230857 0.106467
295 2 0.380787 0.0417526 0.103313
296 4 0.39712 0.0604194 0.100159
484 2 0.339672 0.00618082 0.117669
485 4 0.345985 0.0236831 0.100965
557 4 0.414072 0.0673392 0.107259
556 2 0.432017 0.0831207 0.114613
236 4 0.141237 0.136215 0.127644
449 4 0.128943 0.127547 0.116281
448 2 0.132284 0.103409 0.121879
235 2 0.150277 0.154373 0.113024
29 3 0.248314 0.157448 0.160114
580 2 0.306401 0.120968 0.155602
30 3 0.265555 0.124796 0.167481
582 4 0.328553 0.113671 0.146592
758 4 0.346919 0.111379 0.156309
558 4 0.449963 0.0989022 0.121966
771 4 0.460976 0.10225 0.138906
769 2 0.465681 0.112298 0.161314
370 2 0.168261 0.216128 0.155985
237 4 0.159316 0.172531 0.0984031
738 4 0.216301 0.191068 0.0696184
354 4 0.234812 0.181671 0.0697228
371 4 0.190092 0.203938 0.156044
476 4 0.191921 0.196005 0.17485
475 2 0.211853 0.181568 0.170437
477 4 0.231786 0.167132 0.166023
279 4 0.264502 0.24647 0.144241
277 2 0.271496 0.252792 0.121082
278 4 0.27849 0.259114 0.0979244
338 4 0.0849936 0.29752 0.141402
337 2 0.0627824 0.295961 0.152778
704 4 0.022755 0.302516 0.169442
294 4 0.0971497 0.302277 0.072411
285 4 0.271925 0.263016 0.153575
254 4 0.393036 0.25211 0.0934644
754 2 0.34851 0.253907 0.156752
630 4 0.411244 0.250969 0.0880631
756 4 0.350218 0.2718 0.139371
253 2 0.373954 0.261674 0.106487
255 4 0.354872 0.271239 0.11951
624 4 0.45177 0.264617 0.133122
629 4 0.453589 0.263018 0.111779
628 2 0.432417 0.256993 0.0999209
622 2 0.441667 0.265291 0.155984
619 2 0.0435237 0.405463 0.137257
620 4 0.0515687 0.385276 0.149623
455 4 0.110331 0.36694 0.0931142
647 4 0.136204 0.392271 0.157398
537 4 0.144107 0.397537 0.140136
535 2 0.162592 0.383722 0.130511
536 4 0.181077 0.369908 0.120887
386 4 0.334915 0.359175 0.070362
385 2 0.348813 0.367167 0.0895499
387 4 0.36271 0.375158 0.108738
12 3 0.407287 0.387235 0.13462
11 1 0.386835 0.397566 0.136647
15 3 0.370864 0.384555 0.126937
672 4 0.409978 0.385713 0.115193
302 4 0.349328 0.392052 0.118082
13 3 0.382084 0.400444 0.159175
670 2 0.417462 0.379164 0.092252
301 2 0.335007 0.412088 0.122402
104 3 0.483936 0.346396 0.0766249
313 2 0.0246908 0.448878 0.0874121
1466 4 0.00996234 0.498015 0.143818
621 4 0.0354788 0.42565 0.12489
315 4 0.0315923 0.440944 0.110097
1431 4 0.180975 0.49936 0.155234
625 2 0.223687 0.429991 0.143144
1439 4 0.224132 0.441525 0.103742
627 4 0.220835 0.445255 0.123547
1429 2 0.173559 0.476717 0.162817
626 4 0.22654 0.414727 0.162741
639 4 0.265388 0.488086 0.126741
638 4 0.278192 0.449062 0.15527
637 2 0.27179 0.468574 0.141005
303 4 0.320687 0.432124 0.126722
659 4 0.327577 0.441324 0.143573
14 3 0.387766 0.418188 0.12605
494 4 0.392121 0.478401 0.106178
495 4 0.402172 0.430971 0.118431
493 2 0.397146 0.454686 0.112305
658 2 0.339455 0.452239 0.162677
1674 4 0.456019 0.482268 0.104327
690 4 0.166481 0.0654004 0.185909
674 4 0.166764 0.0669254 0.207033
673 2 0.167799 0.0692152 0.23191
1539 4 0.182448 0.992481 0.257707
1505 4 0.198936 0.023763 0.175519
653 4 0.242471 0.0479125 0.181775
688 2 0.176227 0.0468104 0.172323
693 4 0.248395 0.0596995 0.19513
691 2 0.269051 0.051897 0.206859
1699 2 0.3237 0.0671804 0.212161
692 4 0.289708 0.0440945 0.218589
1701 4 0.299615 0.0619579 0.216384
1700 4 0.347785 0.0724028 0.207939
22 3 0.387893 0.0535609 0.218744
698 4 0.398909 0.0580413 0.236937
21 1 0.377335 0.0739633 0.219936
333 4 0.405635 0.0776967 0.236219
23 3 0.355225 0.070617 0.226128
759 4 0.358436 0.0855439 0.197547
697 2 0.40427 0.0380231 0.250926
349 2 0.486292 0.0759 0.243235
511 2 0.00393419 0.139479 0.211941
513 4 0.0212997 0.152923 0.223894
578 4 0.0402665 0.156028 0.22928
28 3 0.232418 0.132263 0.183724
581 4 0.284248 0.128265 0.164612
27 3 0.263346 0.151009 0.193955
26 1 0.252446 0.141249 0.176205
25 3 0.37825 0.0840848 0.199555
24 3 0.3881 0.0870663 0.235773
757 2 0.352678 0.0984615 0.176928
770 4 0.470385 0.122345 0.183721
312 4 0.456983 0.132221 0.19599
311 4 0.496551 0.124998 0.225703
310 2 0.476767 0.12861 0.210847
350 4 0.469861 0.0941003 0.24813
577 2 0.0405069 0.180856 0.232227
529 2 0.0252561 0.237374 0.219848
530 4 0.041924 0.226008 0.234618
579 4 0.0407473 0.205684 0.235174
372 4 0.146431 0.228318 0.155926
362 4 0.138329 0.229175 0.174603
402 4 0.253894 0.212291 0.259513
755 4 0.346802 0.236013 0.174132
339 4 0.0405711 0.294402 0.164153
703 2 0.0255614 0.314407 0.191258
442 2 0.0721943 0.266879 0.246161
705 4 0.0283677 0.326298 0.213073
395 4 0.0840189 0.313427 0.189038
396 4 0.104004 0.275494 0.214775
394 2 0.0940115 0.29446 0.201907
361 2 0.125068 0.247382 0.185458
443 4 0.085535 0.274633 0.226487
363 4 0.111807 0.265589 0.196313
283 2 0.271783 0.278976 0.172822
284 4 0.271641 0.294936 0.192069
528 4 0.402512 0.308163 0.224582
542 4 0.414557 0.306639 0.24105
623 4 0.431564 0.265966 0.178845
527 4 0.427383 0.280956 0.190789
526 2 0.414947 0.29456 0.207686
263 4 0.05656 0.404735 0.235092
300 4 0.0913416 0.36656 0.19799
646 2 0.121009 0.386053 0.176256
648 4 0.105814 0.379835 0.195114
298 2 0.097799 0.36115 0.221532
345 4 0.312978 0.348792 0.230763
596 4 0.340557 0.346292 0.160815
597 4 0.364964 0.383133 0.18422
595 2 0.352761 0.364713 0.172518
645 4 0.376289 0.398955 0.178235
643 2 0.391698 0.41104 0.193781
343 2 0.331465 0.344431 0.247024
290 4 0.211053 0.411732 0.220834
416 4 0.19324 0.422943 0.222555
1430 4 0.166142 0.454075 0.170399
417 4 0.176462 0.453864 0.187014
415 2 0.184851 0.438403 0.204785
644 4 0.407107 0.423125 0.209327
660 4 0.351332 0.463153 0.181782
231 4 0.361794 0.476717 0.193742
447 4 0.416642 0.434623 0.223158
445 2 0.421506 0.438649 0.247352
1403 4 0.0187591 0.0156319 0.258526
233 4 0.000683705 0.0287352 0.260972
232 2 0.00689052 0.0500312 0.27251
234 4 0.0130973 0.0713271 0.284049
317 4 0.0325309 0.0673178 0.285976
316 2 0.0554054 0.0766937 0.289721
1407 4 0.236029 0.0116742 0.283517
675 4 0.168835 0.0715049 0.256787
722 4 0.172683 0.0795521 0.274489
1405 2 0.211696 0.0173994 0.28297
1406 4 0.187362 0.0231246 0.282423
1518 4 0.423349 0.0220104 0.279293
699 4 0.40963 0.0180049 0.264916
425 4 0.459742 0.0219077 0.283829
424 2 0.464804 0.0437981 0.2948
258 4 0.487619 0.0755812 0.304753
426 4 0.469867 0.0656884 0.305771
1749 4 0.482316 4.93626e-05 0.322117
318 4 0.0782799 0.0860696 0.293467
393 4 0.0787028 0.15709 0.306694
391 2 0.0870741 0.147601 0.285129
392 4 0.0954454 0.138112 0.263563
544 2 0.1385 0.138004 0.272898
545 4 0.114627 0.131953 0.26858
546 4 0.162373 0.144054 0.277216
399 4 0.0912156 0.160727 0.322373
397 2 0.112382 0.166504 0.334364
721 2 0.191227 0.093585 0.283675
723 4 0.20977 0.107618 0.292862
599 4 0.219843 0.110267 0.309594
404 4 0.212182 0.119922 0.278082
403 2 0.21516 0.144453 0.281894
598 2 0.226998 0.104459 0.332838
331 2 0.429106 0.0862769 0.237055
761 4 0.488796 0.131327 0.32845
332 4 0.452576 0.094857 0.23789
256 2 0.482174 0.099191 0.310926
257 4 0.476729 0.122801 0.317098
405 4 0.218137 0.168984 0.285705
401 4 0.221372 0.188882 0.289431
400 2 0.237633 0.200586 0.274472
765 4 0.421246 0.199098 0.309451
763 2 0.446243 0.199077 0.310019
764 4 0.47124 0.199056 0.310588
444 4 0.0588535 0.259124 0.265835
366 4 0.0485793 0.330248 0.303326
749 4 0.0667604 0.335303 0.29548
496 2 0.346784 0.27672 0.322526
497 4 0.352977 0.29477 0.30637
541 2 0.418966 0.320683 0.261262
543 4 0.423375 0.334726 0.281474
262 2 0.0512163 0.407981 0.259301
365 4 0.00929597 0.356069 0.286274
364 2 0.0289376 0.343159 0.2948
748 2 0.0805793 0.33789 0.274803
602 4 0.0852167 0.393155 0.302829
601 2 0.0878996 0.381978 0.325034
264 4 0.0458727 0.411228 0.28351
299 4 0.104256 0.35574 0.245073
750 4 0.0943983 0.340477 0.254126
777 4 0.0914565 0.406739 0.289212
735 4 0.137662 0.385567 0.284208
677 4 0.155329 0.395018 0.284587
733 2 0.14253 0.362417 0.276111
734 4 0.147398 0.339267 0.268014
289 2 0.217447 0.410304 0.244964
291 4 0.223841 0.408877 0.269094
414 4 0.230902 0.419231 0.285075
412 2 0.252908 0.41404 0.295749
413 4 0.274914 0.408849 0.306424
615 4 0.411125 0.332584 0.29905
309 4 0.361817 0.345257 0.277578
344 4 0.349951 0.34007 0.263284
307 2 0.362439 0.363183 0.294998
727 2 0.348541 0.40508 0.336345
729 4 0.368971 0.392924 0.328597
308 4 0.363062 0.381108 0.312418
613 2 0.412491 0.339694 0.322983
2924 4 0.494785 0.366622 0.326696
2923 2 0.470693 0.359931 0.326569
2925 4 0.446601 0.353241 0.326441
713 4 0.470836 0.40557 0.292855
120 3 0.492291 0.404397 0.299149
712 2 0.448573 0.416393 0.289336
2862 4 0.488692 0.41262 0.279219
1757 4 0.112249 0.457724 0.269265
776 4 0.0977374 0.456134 0.284586
775 2 0.094597 0.431437 0.286899
1756 2 0.112981 0.482074 0.274897
767 4 0.219925 0.490267 0.256215
676 2 0.169094 0.415471 0.280416
678 4 0.182859 0.435923 0.276245
768 4 0.195432 0.451137 0.27544
766 2 0.207678 0.470702 0.265827
504 4 0.208891 0.43627 0.32544
1640 4 0.24008 0.490287 0.256812
438 4 0.293663 0.443095 0.249815
437 4 0.257763 0.46367 0.277896
436 2 0.275713 0.453382 0.263855
1437 4 0.26401 0.461707 0.296749
5 3 0.274936 0.419994 0.323454
1435 2 0.257047 0.469345 0.319516
433 2 0.326683 0.456918 0.319381
434 4 0.327695 0.433322 0.32759
435 4 0.325672 0.480514 0.311173
446 4 0.42637 0.442676 0.271545
714 4 0.426309 0.427215 0.285818
730 2 0.102917 0.0598129 0.386209
604 2 0.15479 0.0581461 0.361235
732 4 0.116083 0.0772367 0.374033
605 4 0.135668 0.0723647 0.36881
731 4 0.0897521 0.0423891 0.398385
606 4 0.173911 0.0439276 0.353661
319 2 0.254972 0.0832187 0.399729
321 4 0.259989 0.0838681 0.375242
249 4 0.310651 0.0624835 0.354823
684 4 0.30034 0.0662022 0.338154
682 2 0.277908 0.0736838 0.346277
247 2 0.333844 0.071176 0.358243
248 4 0.357038 0.0798684 0.361663
633 4 0.372119 0.0916533 0.368523
600 4 0.234152 0.0986512 0.356081
685 2 0.225634 0.126846 0.382832
687 4 0.229291 0.116818 0.360221
686 4 0.221977 0.136875 0.405442
683 4 0.255475 0.0811653 0.354401
631 2 0.375869 0.0923942 0.393232
419 4 0.38995 0.153906 0.405218
716 4 0.39564 0.165988 0.388169
632 4 0.37962 0.093135 0.417942
760 2 0.490386 0.143649 0.350149
2654 4 0.996487 0.235605 0.410155
390 4 0.0772799 0.222705 0.409522
398 4 0.133549 0.172281 0.346355
388 2 0.0939841 0.239963 0.402572
274 2 0.148477 0.247485 0.371363
473 4 0.225984 0.209836 0.36748
474 4 0.186893 0.237464 0.353013
472 2 0.206439 0.22365 0.360247
708 4 0.236877 0.19525 0.374058
706 2 0.253953 0.182006 0.36148
651 4 0.244532 0.24134 0.405231
649 2 0.240526 0.222121 0.420715
275 4 0.170745 0.242673 0.361059
707 4 0.271028 0.168762 0.348902
377 4 0.38546 0.219244 0.358092
717 4 0.382405 0.199753 0.353738
715 2 0.389022 0.182871 0.370954
376 2 0.364117 0.231952 0.355233
378 4 0.342774 0.244659 0.352375
2456 4 0.388989 0.245146 0.403356
268 2 0.481557 0.236609 0.362298
270 4 0.468022 0.246312 0.380948
695 4 0.075895 0.284093 0.410883
276 4 0.126209 0.252297 0.381667
389 4 0.110688 0.257221 0.395621
694 2 0.0970832 0.292074 0.421493
1258 2 0.15442 0.305492 0.411858
489 4 0.237922 0.259821 0.408982
487 2 0.245306 0.278193 0.393714
488 4 0.252691 0.296565 0.378446
508 2 0.235753 0.325006 0.355034
1259 4 0.178767 0.309579 0.407895
498 4 0.340591 0.258669 0.338682
509 4 0.237948 0.305798 0.37089
266 4 0.347353 0.30538 0.377761
585 4 0.352597 0.303458 0.39776
583 2 0.368567 0.284261 0.399017
584 4 0.384537 0.265063 0.400273
306 4 0.462242 0.25408 0.398747
304 2 0.471865 0.26524 0.418947
547 2 0.0901164 0.403419 0.376697
549 4 0.0909764 0.387992 0.357039
603 4 0.0905825 0.370802 0.347239
510 4 0.233558 0.344214 0.339178
375 4 0.221583 0.40193 0.364784
374 4 0.242574 0.360966 0.345238
373 2 0.232078 0.381448 0.355011
3 3 0.288032 0.398388 0.35137
267 4 0.328304 0.34837 0.360742
265 2 0.337828 0.326875 0.369251
614 4 0.413857 0.346804 0.346915
561 4 0.482823 0.40497 0.412091
753 4 0.478636 0.417142 0.351624
407 4 0.0728576 0.430486 0.399413
680 4 0.0343236 0.485193 0.411765
406 2 0.0613747 0.452582 0.401665
408 4 0.0498918 0.474678 0.403918
548 4 0.0892564 0.418847 0.396355
569 4 0.109525 0.425535 0.400112
635 4 0.148713 0.469016 0.404426
634 2 0.166721 0.474107 0.387844
636 4 0.184728 0.479198 0.371261
1545 4 0.232774 0.486563 0.33804
502 2 0.199376 0.448631 0.344981
503 4 0.18986 0.460991 0.364522
1436 4 0.250084 0.476983 0.342284
2 3 0.311727 0.417188 0.32906
1 1 0.291152 0.417968 0.339316
668 4 0.300175 0.454716 0.358383
4 3 0.290579 0.436242 0.353603
667 2 0.298069 0.475674 0.371855
669 4 0.295963 0.496632 0.385328
1401 4 0.341002 0.485256 0.39673
728 4 0.328112 0.417237 0.344092
592 2 0.495087 0.496818 0.350794
752 4 0.468424 0.411076 0.4002
751 2 0.47353 0.414109 0.375912
718 2 0.0384153 0.0722484 0.47741
719 4 0.0581856 0.074156 0.462222
369 4 0.0759445 0.0633387 0.460063
720 4 0.0186451 0.0703408 0.492598
367 2 0.0808415 0.0510395 0.438851
368 4 0.0857384 0.0387404 0.41764
341 4 0.170678 0.0716378 0.465823
441 4 0.207973 0.00638822 0.452426
2430 4 0.185358 0.0594335 0.474826
2428 2 0.19329 0.0415081 0.459304
2429 4 0.201222 0.0235827 0.443782
467 4 0.369895 0.101918 0.480951
2879 4 0.443804 0.0097355 0.447376
2878 2 0.458158 0.0278382 0.437814
2880 4 0.472512 0.045941 0.428253
642 4 0.478394 0.0545207 0.445507
640 2 0.495802 0.0724615 0.444971
260 4 0.0790108 0.172992 0.464604
259 2 0.0677822 0.170813 0.486838
410 4 0.236648 0.1347 0.41888
725 4 0.237219 0.0874766 0.439864
409 2 0.236504 0.159081 0.424425
340 2 0.175728 0.0951387 0.458939
1152 4 0.189685 0.125794 0.469201
342 4 0.180778 0.11864 0.452055
320 4 0.249954 0.0825693 0.424215
1150 2 0.191936 0.138357 0.490702
724 2 0.256136 0.0918735 0.455612
432 4 0.277112 0.0970261 0.491018
726 4 0.275053 0.0962705 0.47136
418 2 0.36734 0.143977 0.409145
420 4 0.344731 0.134049 0.413071
466 2 0.36872 0.09614 0.456653
468 4 0.367545 0.0903616 0.432354
574 2 0.39671 0.157518 0.470735
576 4 0.389662 0.16071 0.494511
516 4 0.423479 0.158271 0.444105
575 4 0.403757 0.154326 0.446958
514 2 0.448443 0.159343 0.445009
515 4 0.473407 0.160415 0.445912
618 4 0.0100783 0.243429 0.423042
470 4 0.0674314 0.209485 0.421062
469 2 0.0682355 0.188676 0.434901
471 4 0.0690395 0.167866 0.448739
650 4 0.236519 0.202903 0.436199
411 4 0.23636 0.183461 0.42997
2455 2 0.381172 0.22551 0.416717
2457 4 0.373355 0.205875 0.430079
616 2 0.022722 0.264504 0.427638
617 4 0.0353656 0.28558 0.432234
696 4 0.118271 0.300054 0.432102
1260 4 0.130074 0.301404 0.415822
1011 4 0.499025 0.275708 0.447815
305 4 0.481487 0.276401 0.439147
326 4 0.0844857 0.390788 0.433907
325 2 0.0971023 0.39096 0.455493
10 3 0.158678 0.368031 0.477905
7 3 0.122665 0.3755 0.471567
327 4 0.109719 0.391133 0.47708
6 1 0.138705 0.372677 0.487812
8 3 0.140367 0.392232 0.500191
711 4 0.147149 0.409944 0.490229
803 4 0.266696 0.343763 0.503183
238 2 0.359349 0.383744 0.431577
240 4 0.372767 0.404396 0.427259
239 4 0.345932 0.363092 0.435895
2507 4 0.511431 0.332728 0.482717
2506 2 0.499409 0.35301 0.474394
559 2 0.488673 0.397784 0.435314
2508 4 0.487388 0.373293 0.466071
560 4 0.494523 0.390598 0.458537
540 4 0.0504535 0.481338 0.476236
538 2 0.0565228 0.492758 0.497636
1382 4 0.0348835 0.476851 0.461255
1381 2 0.010359 0.474029 0.465225
774 4 0.108645 0.473895 0.447215
709 2 0.141755 0.429047 0.475025
772 2 0.121464 0.49063 0.460661
570 4 0.132028 0.437031 0.443265
710 4 0.13636 0.44815 0.459821
568 2 0.120777 0.431283 0.421688
1446 4 0.227579 0.505652 0.482919
1394 4 0.215387 0.492862 0.470023
1393 2 0.221135 0.509863 0.452613
336 4 0.322047 0.451188 0.431314
1400 4 0.338468 0.498552 0.44487
335 4 0.357309 0.416069 0.436204
334 2 0.339678 0.433628 0.433759
1399 2 0.339735 0.491904 0.4208
1127 4 0.0137267 0.0660739 0.510712
949 2 0.207464 0.0772585 0.557645
950 4 0.228828 0.0646551 0.56079
1182 4 0.247889 0.0590672 0.558994
961 2 0.326493 0.0108267 0.552964
1180 2 0.269533 0.0481858 0.552803
963 4 0.304317 0.0222732 0.551421
1181 4 0.291177 0.0373044 0.546613
431 4 0.321446 0.0829456 0.509374
843 4 0.324455 0.0741806 0.527197
1217 4 0.380997 0.0754825 0.518637
841 2 0.348343 0.0813731 0.528874
842 4 0.37223 0.0885656 0.530552
1216 2 0.402578 0.0653432 0.526161
962 4 0.348669 0.99938 0.554507
2283 4 0.440011 0.0170844 0.578538
1218 4 0.42416 0.055204 0.533685
1082 4 0.0623627 0.156503 0.581512
1035 4 0.0749075 0.151744 0.564946
261 4 0.0565536 0.168634 0.509072
937 2 0.167162 0.156815 0.535371
938 4 0.14637 0.169473 0.541086
1030 2 0.160077 0.0979516 0.570978
939 4 0.187953 0.144156 0.529656
1031 4 0.177188 0.107453 0.555418
951 4 0.186099 0.089862 0.5545
1151 4 0.194187 0.15092 0.512203
857 4 0.324391 0.133047 0.571562
858 4 0.280999 0.155933 0.581259
856 2 0.302695 0.14449 0.57641
430 2 0.299279 0.0899858 0.500196
898 2 0.35591 0.142849 0.562193
899 4 0.337304 0.126886 0.557276
900 4 0.374516 0.158812 0.567109
1033 2 0.071408 0.164964 0.544013
1034 4 0.0679084 0.178184 0.523081
879 4 0.102537 0.230786 0.566069
877 2 0.0997327 0.243937 0.544989
1272 4 0.10508 0.244876 0.582206
811 2 0.321256 0.219553 0.559601
812 4 0.297453 0.226922 0.55753
796 2 0.274399 0.193508 0.573502
798 4 0.281146 0.215522 0.563754
797 4 0.267652 0.171493 0.583249
813 4 0.345059 0.212184 0.561672
872 4 0.380843 0.173787 0.578924
873 4 0.363104 0.217581 0.562549
871 2 0.371974 0.195684 0.570737
878 4 0.096928 0.257087 0.523909
1190 4 0.248545 0.333178 0.497348
1191 4 0.203808 0.319574 0.515077
1189 2 0.226176 0.326376 0.506213
896 4 0.194331 0.333611 0.524272
1239 4 0.274222 0.296756 0.571102
1205 4 0.405305 0.311387 0.557147
1204 2 0.384143 0.324701 0.55743
1206 4 0.362981 0.338015 0.557713
954 4 0.410679 0.297565 0.569886
9 3 0.132419 0.355093 0.501585
1135 2 0.161777 0.38588 0.576407
1136 4 0.154146 0.40677 0.587831
897 4 0.178402 0.348334 0.569329
1137 4 0.169409 0.364989 0.564983
895 2 0.186366 0.340973 0.546801
802 2 0.281649 0.346705 0.523005
804 4 0.296603 0.349647 0.542827
929 4 0.311641 0.36402 0.542659
928 2 0.330849 0.355453 0.556182
930 4 0.350056 0.346887 0.569705
1001 4 0.4694 0.377853 0.564487
926 4 0.475302 0.374957 0.545638
925 2 0.495067 0.36934 0.531392
1000 2 0.46457 0.393498 0.583384
539 4 0.062592 0.504177 0.519035
934 2 0.00828729 0.49788 0.578323
1171 2 0.239809 0.449345 0.583982
1161 4 0.176603 0.492685 0.591488
882 4 0.263675 0.466546 0.559351
880 2 0.267843 0.488523 0.548179
1172 4 0.262701 0.457146 0.577637
1058 4 0.092917 0.0149612 0.627038
825 4 0.0768357 0.00554862 0.633429
1155 4 0.093726 0.0697765 0.592953
1057 2 0.0935615 0.0386914 0.619187
1059 4 0.0942061 0.0624215 0.611335
1005 4 0.278865 0.0821492 0.617374
2282 4 0.468286 0.0413297 0.611906
2281 2 0.454149 0.0292071 0.595222
43 3 0.47047 0.0485916 0.630467
41 1 0.488881 0.0586137 0.640416
44 3 0.482564 0.0688702 0.660248
45 3 0.497955 0.0739804 0.626268
42 3 0.504546 0.0424262 0.645077
810 4 0.493632 0.0879388 0.609146
1081 2 0.0378191 0.153462 0.585192
1083 4 0.0132756 0.15042 0.588872
1032 4 0.142965 0.0884504 0.586537
1153 2 0.110875 0.0877384 0.595863
1154 4 0.128023 0.1057 0.598773
1221 4 0.145697 0.0962771 0.608688
1219 2 0.153952 0.106673 0.629876
1220 4 0.162207 0.117068 0.651065
1212 4 0.192831 0.123987 0.67066
1210 2 0.212796 0.137351 0.677586
1004 4 0.291112 0.117878 0.650149
1003 2 0.284989 0.100013 0.633762
830 4 0.310585 0.106916 0.670665
1143 4 0.369004 0.165896 0.654388
1270 2 0.12299 0.232553 0.594557
1271 4 0.140901 0.22023 0.606908
909 4 0.158271 0.210275 0.608253
907 2 0.158781 0.217024 0.632323
947 4 0.156031 0.243186 0.662794
908 4 0.159291 0.223773 0.656393
1025 4 0.377604 0.175779 0.640984
1024 2 0.395899 0.189513 0.630893
1026 4 0.414195 0.203247 0.620801
905 4 0.45395 0.247034 0.586117
1064 4 0.206954 0.327605 0.644251
1063 2 0.206905 0.305668 0.656248
1237 2 0.28627 0.296284 0.593006
792 4 0.316336 0.287045 0.617034
790 2 0.325109 0.300335 0.63631
1238 4 0.298318 0.295812 0.614911
791 4 0.333882 0.313625 0.655587
952 2 0.425316 0.279817 0.579682
953 4 0.439953 0.262069 0.589478
3123 4 0.471108 0.268733 0.660233
906 4 0.500011 0.265455 0.592424
904 2 0.47698 0.256245 0.589271
983 4 0.0511677 0.392072 0.590542
1041 4 0.0597398 0.38717 0.608517
982 2 0.0266919 0.394536 0.586065
1039 2 0.0778781 0.404086 0.611683
1029 4 0.261849 0.401245 0.664911
1002 4 0.459741 0.409143 0.602281
1910 4 0.467612 0.406999 0.619571
3330 4 0.495059 0.398355 0.657625
992 4 0.162641 0.418187 0.602666
991 2 0.138677 0.423706 0.607187
993 4 0.114713 0.429225 0.611708
1040 4 0.0960163 0.421003 0.61485
2243 4 0.156543 0.496158 0.590513
1160 4 0.207757 0.455255 0.580122
1159 2 0.19218 0.47397 0.585805
1173 4 0.216916 0.441545 0.590326
1175 4 0.258438 0.470959 0.634856
1174 2 0.276955 0.487688 0.633289
1911 4 0.429641 0.43352 0.638428
1909 2 0.448627 0.420259 0.628999
1268 4 0.418884 0.449278 0.634355
1267 2 0.423513 0.466548 0.651834
1269 4 0.428142 0.483818 0.669313
4323 4 0.492636 0.49661 0.600944
1185 4 0.0151065 0.0686736 0.665456
945 4 0.0249072 0.0801604 0.677552
943 2 0.0354256 0.0735111 0.699239
1076 4 0.0418462 0.0718323 0.739413
944 4 0.045944 0.0668618 0.720926
1283 4 0.166716 0.105525 0.666871
32 3 0.0993307 0.111677 0.743599
35 3 0.0907197 0.147561 0.749175
1282 2 0.163218 0.104246 0.691596
1284 4 0.159721 0.102966 0.716321
1227 4 0.162188 0.113311 0.733698
831 4 0.335292 0.0880831 0.709852
1211 4 0.232761 0.150715 0.684513
888 4 0.251839 0.147862 0.688691
886 2 0.270552 0.133478 0.680437
887 4 0.289264 0.119095 0.672182
829 2 0.322939 0.0974997 0.690259
976 2 0.295195 0.171087 0.732556
978 4 0.281099 0.158862 0.749201
1142 4 0.349006 0.140302 0.692411
1141 2 0.359005 0.153099 0.6734
1107 4 0.0432696 0.1852 0.738916
851 4 0.0300452 0.170569 0.737338
850 2 0.00946664 0.182666 0.729897
1208 4 0.0821163 0.232507 0.683095
822 4 0.139519 0.199831 0.690114
1278 4 0.14982 0.201191 0.708072
820 2 0.117694 0.211642 0.693164
821 4 0.095868 0.223454 0.696215
1276 2 0.159613 0.202485 0.731042
977 4 0.30929 0.183311 0.715911
916 2 0.319504 0.224782 0.713407
918 4 0.305735 0.204081 0.716064
917 4 0.333274 0.245483 0.710749
3122 4 0.48527 0.224045 0.677645
1245 4 0.99665 0.269054 0.703265
1207 2 0.0643523 0.250091 0.683747
1209 4 0.0465884 0.267675 0.6844
1244 4 0.0387259 0.286086 0.682284
1243 2 0.0176878 0.27757 0.692775
946 2 0.176394 0.255886 0.669811
1065 4 0.206856 0.28373 0.668245
948 4 0.196757 0.268586 0.676828
1240 2 0.235346 0.295669 0.72088
1242 4 0.21622 0.311609 0.723183
1097 4 0.313066 0.269012 0.71289
1241 4 0.254472 0.279729 0.718577
1008 4 0.325646 0.271511 0.726568
1096 2 0.291244 0.277522 0.721638
1098 4 0.269421 0.286032 0.730387
1006 2 0.34461 0.266433 0.742052
3121 2 0.478189 0.246389 0.668939
1194 4 0.435158 0.254052 0.744216
1279 2 0.0575961 0.375235 0.704729
3275 4 0.0453514 0.397646 0.73406
1280 4 0.0442289 0.379869 0.725345
1281 4 0.0709632 0.3706 0.684113
3274 2 0.0616506 0.410579 0.747926
893 4 0.129461 0.339208 0.697012
892 2 0.10763 0.348182 0.688761
894 4 0.0858 0.357156 0.68051
940 2 0.163145 0.405822 0.739183
1028 4 0.226161 0.367305 0.673581
941 4 0.187863 0.409576 0.738839
1068 4 0.219978 0.365074 0.693081
1067 4 0.195152 0.390151 0.728513
1066 2 0.207565 0.377612 0.710797
1027 2 0.244005 0.384275 0.669246
1139 4 0.265962 0.415894 0.678208
1228 2 0.363067 0.410466 0.724285
1229 4 0.345229 0.403564 0.70818
1230 4 0.380904 0.417368 0.74039
3183 4 0.493018 0.393531 0.677354
2014 2 0.161727 0.507829 0.749278
2172 4 0.224977 0.498905 0.678061
1080 4 0.190954 0.427379 0.753156
2016 4 0.177029 0.488339 0.745937
1078 2 0.191422 0.452026 0.748975
1079 4 0.19189 0.476674 0.744794
1138 2 0.276853 0.435591 0.689099
1140 4 0.287744 0.455288 0.699989
1989 4 0.300635 0.465129 0.712763
1987 2 0.307282 0.474772 0.734854
890 4 0.369901 0.494946 0.680558
1100 4 0.491919 0.491326 0.736107
1250 4 0.484879 0.47581 0.746899
1075 2 0.0553213 0.0554607 0.752663
1077 4 0.0687963 0.0390891 0.765914
1203 4 0.0843487 0.0407559 0.781052
1201 2 0.104593 0.0261889 0.779273
2049 4 0.140777 0.0237073 0.771901
1202 4 0.124837 0.0116219 0.777494
2047 2 0.155631 0.00373311 0.774258
1148 4 0.16811 0.0557111 0.787995
1147 2 0.192942 0.0556639 0.790918
1149 4 0.217774 0.0556167 0.79384
1049 4 0.226508 0.037955 0.79482
1048 2 0.240574 0.0238296 0.779728
1050 4 0.254641 0.00970425 0.764636
818 4 0.355969 0.0801052 0.827781
844 2 0.498836 0.0279949 0.765703
846 4 0.481686 0.0123794 0.756364
3385 2 0.990431 0.126241 0.752471
3387 4 0.0136078 0.117669 0.756282
832 2 0.0471161 0.130081 0.787747
863 4 0.0166405 0.115119 0.818721
833 4 0.0299888 0.121746 0.803944
33 3 0.0758957 0.121065 0.771443
834 4 0.0642433 0.138417 0.77155
1106 4 0.0737106 0.151054 0.759119
31 1 0.094663 0.127642 0.759488
34 3 0.112864 0.129578 0.77375
1073 4 0.119976 0.145736 0.78511
1225 2 0.174587 0.113389 0.75541
1226 4 0.186986 0.113468 0.777123
840 4 0.205019 0.117959 0.784972
838 2 0.222783 0.13025 0.797563
839 4 0.240548 0.14254 0.810154
959 4 0.242368 0.150878 0.82716
817 2 0.363845 0.0967445 0.810861
819 4 0.371721 0.113384 0.793941
1084 2 0.36298 0.149858 0.787792
1085 4 0.364589 0.125914 0.780772
1086 4 0.361372 0.173802 0.794812
3268 2 0.482079 0.143098 0.825266
3270 4 0.464773 0.151964 0.809548
1146 4 0.453385 0.145699 0.795169
1144 2 0.448158 0.163373 0.778272
1105 2 0.0584901 0.168127 0.749018
778 2 0.066381 0.205072 0.805119
779 4 0.0494299 0.222263 0.811624
1214 4 0.0530652 0.240815 0.820972
1074 4 0.101496 0.185796 0.808656
780 4 0.0833321 0.187881 0.798614
1072 2 0.110736 0.165766 0.796883
1277 4 0.169406 0.203779 0.754011
1131 4 0.177238 0.189892 0.766541
1130 4 0.213267 0.177738 0.79902
1129 2 0.195252 0.183815 0.78278
1299 4 0.352547 0.191088 0.798448
1297 2 0.373113 0.200749 0.808882
1298 4 0.39368 0.21041 0.819316
47 3 0.41401 0.20801 0.815173
49 3 0.418869 0.24462 0.822158
46 1 0.417553 0.223541 0.831768
1261 2 0.427963 0.21469 0.744865
1262 4 0.42045 0.238538 0.74487
1263 4 0.435476 0.190842 0.74486
1145 4 0.442932 0.181047 0.761376
48 3 0.437443 0.218524 0.842614
3187 2 0.011129 0.278317 0.7728
3188 4 0.0209654 0.287281 0.751632
1215 4 0.0079382 0.260386 0.811957
1213 2 0.0305017 0.2506 0.816464
1044 4 0.374092 0.249778 0.77083
1007 4 0.363575 0.261355 0.757535
1043 4 0.411711 0.255926 0.803197
1042 2 0.392901 0.252852 0.787014
805 2 0.399404 0.330517 0.777873
806 4 0.415974 0.317634 0.764284
1192 2 0.429898 0.277811 0.74996
1193 4 0.424639 0.301571 0.755703
1166 4 0.433396 0.253534 0.808767
1167 4 0.482464 0.26316 0.808076