ITEM: TIMESTEP
3390000
ITEM: NUMBER OF ATOMS
4590
ITEM: BOX BOUNDS pp pp pp
-9.9985700000000008e+00 9.9985700000000008e+00
-9.9985700000000008e+00 9.9985700000000008e+00
-9.9985700000000008e+00 9.9985700000000008e+00
ITEM: ATOMS id type xs ys zs
1666 2 0.069536 0.05423 0.0793712
1668 4 0.0836423 0.0453201 0.0607485
465 4 0.0284412 0.0671513 0.0103632
701 4 0.022457 0.084546 0.00270554
463 2 0.0281874 0.0422916 0.0130292
464 4 0.0279336 0.0174318 0.0156953
3290 4 0.089266 0.0440272 0.0426361
3289 2 0.101464 0.0359661 0.0223531
3291 4 0.113663 0.0279051 0.00207014
490 2 0.294835 0.0155875 0.0539005
491 4 0.306948 0.0370485 0.0581286
462 4 0.330968 0.163582 0.075112
460 2 0.310436 0.165649 0.0609926
150 3 0.439518 0.116264 0.00522926
2723 4 0.491874 0.0972619 0.0736628
505 2 0.153436 0.240981 0.0434395
506 4 0.169832 0.223729 0.051102
737 4 0.187286 0.225814 0.0611771
736 2 0.203319 0.207135 0.0567914
738 4 0.219351 0.188456 0.0524058
354 4 0.23453 0.192214 0.0647843
352 2 0.254386 0.184725 0.0515613
461 4 0.289905 0.167716 0.0468732
353 4 0.274241 0.177237 0.0383382
665 4 0.353046 0.198067 0.0131099
664 2 0.344004 0.179882 0.998526
2807 4 0.0347798 0.270961 0.00819807
2806 2 0.015353 0.257971 0.0170885
915 4 0.138058 0.264589 0.0169269
507 4 0.137039 0.258233 0.035777
293 4 0.0930774 0.268473 0.0498371
287 4 0.162847 0.298419 0.036203
286 2 0.15682 0.322673 0.0354122
292 2 0.0964681 0.288243 0.0647642
294 4 0.0998589 0.308013 0.0796913
356 4 0.229352 0.275451 0.0143696
612 4 0.239696 0.319878 0.0577429
610 2 0.24999 0.306139 0.0759217
483 4 0.248227 0.269272 0.0189772
482 4 0.288357 0.298179 0.0263734
481 2 0.268292 0.283725 0.0226753
572 4 0.302871 0.296025 0.0118923
571 2 0.324321 0.287889 0.00194804
741 4 0.35253 0.333272 0.0478855
739 2 0.336039 0.330384 0.0664566
1071 4 0.343319 0.262408 0.0051661
573 4 0.34577 0.279752 0.992004
315 4 0.0180983 0.416309 0.0659697
288 4 0.150794 0.346926 0.0346214
990 4 0.150556 0.367962 0.0350729
609 4 0.24385 0.340069 0.0571635
988 2 0.174126 0.374644 0.0300757
1289 4 0.217326 0.385591 0.0254454
989 4 0.197696 0.381325 0.0250785
1288 2 0.215918 0.404584 0.00924403
607 2 0.263235 0.355596 0.0542833
250 2 0.300078 0.411434 0.0603292
252 4 0.288134 0.389687 0.0572348
608 4 0.28262 0.371124 0.0514031
226 2 0.403359 0.405213 0.0412686
227 4 0.411969 0.388319 0.0249711
1303 2 0.405855 0.352271 0.0092597
1305 4 0.417745 0.368015 0.0246198
1045 2 0.495751 0.348823 0.0296259
280 2 0.460562 0.359589 0.0737265
282 4 0.485123 0.361618 0.0695068
281 4 0.436001 0.35756 0.0779462
1047 4 0.495955 0.35724 0.0531689
1046 4 0.495547 0.340405 0.00608278
550 2 0.0258837 0.498784 0.0492484
313 2 0.0170986 0.441031 0.062359
552 4 0.0123832 0.484104 0.0643287
314 4 0.0160988 0.465752 0.0587483
1788 4 0.125207 0.494039 0.020246
1786 2 0.148858 0.491574 0.0279731
1440 4 0.209934 0.418972 0.0711349
243 4 0.206384 0.43825 0.0680447
241 2 0.191881 0.455986 0.0580326
242 4 0.177378 0.473723 0.0480205
1787 4 0.17251 0.489109 0.0357001
251 4 0.312021 0.433181 0.0634236
524 4 0.330432 0.429725 0.0684863
271 2 0.265282 0.471102 0.06418
272 4 0.276434 0.448829 0.0620025
273 4 0.254131 0.493375 0.0663575
228 4 0.394748 0.422108 0.0575661
525 4 0.380325 0.432498 0.0665512
523 2 0.355378 0.431111 0.0675188
1583 4 0.488529 0.481373 0.0525293
1582 2 0.477893 0.488329 0.074062
1667 4 0.0554297 0.0631399 0.0979939
16 1 0.0293649 0.058261 0.115913
19 3 0.0147521 0.0675958 0.131332
17 3 0.0478406 0.071833 0.114015
20 3 0.0191917 0.0565574 0.095609
18 3 0.0361733 0.0372896 0.123141
2480 4 0.00505719 0.0844111 0.145059
1422 4 0.00103009 0.0614806 0.147359
1420 2 0.996515 0.0387497 0.156744
1506 4 0.219043 0.0213173 0.160949
1475 4 0.319998 0.0614336 0.0922953
652 2 0.260912 0.0702467 0.142032
654 4 0.260894 0.0549791 0.122231
1476 4 0.279453 0.0477388 0.118165
1474 2 0.299726 0.0545862 0.10523
486 4 0.332466 0.0053912 0.141349
297 4 0.385949 0.0337826 0.118683
295 2 0.406334 0.0398247 0.13184
484 2 0.352297 0.0200713 0.137297
485 4 0.372127 0.0347515 0.133245
296 4 0.426719 0.0458668 0.144997
745 2 0.493361 0.0325923 0.100658
746 4 0.488377 0.0444255 0.122113
557 4 0.441724 0.0486111 0.130997
556 2 0.456046 0.067039 0.122025
450 4 0.067236 0.0967638 0.104481
236 4 0.12671 0.118057 0.13094
449 4 0.108386 0.11857 0.122697
448 2 0.0878112 0.107667 0.113589
235 2 0.137785 0.127754 0.151151
580 2 0.306648 0.12705 0.132298
581 4 0.28992 0.145544 0.134117
30 3 0.272178 0.143236 0.142923
26 1 0.268763 0.161392 0.15624
582 4 0.323377 0.108555 0.130478
758 4 0.334904 0.0989484 0.143074
653 4 0.260929 0.0855144 0.161832
558 4 0.470367 0.0854668 0.113053
771 4 0.480401 0.100216 0.122289
769 2 0.476053 0.112681 0.143524
371 4 0.219471 0.233589 0.159967
476 4 0.23658 0.23736 0.151097
475 2 0.244922 0.215789 0.141596
370 2 0.194976 0.23208 0.164753
477 4 0.253265 0.194218 0.132094
29 3 0.262501 0.179621 0.143321
756 4 0.362934 0.243049 0.143357
754 2 0.364236 0.227381 0.162799
630 4 0.411526 0.243703 0.11105
624 4 0.450365 0.229687 0.158214
629 4 0.440544 0.219888 0.144088
628 2 0.426035 0.231796 0.127569
337 2 0.0716383 0.272574 0.160041
456 4 0.113907 0.321779 0.0785909
338 4 0.0854945 0.256367 0.146983
611 4 0.260284 0.292401 0.0941006
279 4 0.266163 0.300487 0.153814
277 2 0.265783 0.304735 0.129177
278 4 0.265402 0.308982 0.10454
255 4 0.354098 0.250448 0.126669
253 2 0.375462 0.251655 0.113735
254 4 0.396826 0.252862 0.1008
619 2 0.0253539 0.369703 0.15029
620 4 0.00802894 0.386473 0.143673
454 2 0.124663 0.339517 0.0925497
455 4 0.13542 0.357255 0.106509
537 4 0.144683 0.406575 0.134491
535 2 0.146161 0.389319 0.116457
536 4 0.147638 0.372063 0.0984236
647 4 0.1355 0.400974 0.152871
625 2 0.205769 0.384595 0.150887
627 4 0.20861 0.391398 0.126996
1439 4 0.204317 0.408585 0.119728
740 4 0.319549 0.327496 0.0850276
386 4 0.323596 0.344899 0.0937102
385 2 0.326509 0.362611 0.111117
387 4 0.329423 0.380323 0.128523
302 4 0.335533 0.401012 0.120907
670 2 0.415518 0.372688 0.11166
12 3 0.381646 0.369468 0.138931
11 1 0.370249 0.38944 0.139524
15 3 0.350172 0.386933 0.129069
672 4 0.398132 0.37444 0.129544
13 3 0.366937 0.395533 0.161668
14 3 0.382867 0.405603 0.128664
495 4 0.393001 0.418026 0.140443
671 4 0.432904 0.370937 0.0937758
104 3 0.493877 0.366446 0.0875295
1431 4 0.166577 0.482584 0.14345
1620 4 0.153512 0.490012 0.129698
1429 2 0.159532 0.46788 0.162406
1573 2 0.237043 0.48269 0.151964
1438 2 0.207125 0.413779 0.0954314
1574 4 0.243274 0.47054 0.131018
639 4 0.245986 0.450343 0.128679
301 2 0.321724 0.416697 0.134635
638 4 0.290125 0.42921 0.138969
637 2 0.268056 0.439777 0.133824
303 4 0.307915 0.432381 0.148364
659 4 0.308913 0.448081 0.160909
1559 4 0.376176 0.488643 0.138477
493 2 0.388056 0.439764 0.129123
494 4 0.38311 0.461503 0.117802
1674 4 0.458954 0.496809 0.114491
688 2 0.161665 0.0508232 0.212441
690 4 0.142991 0.0673701 0.210801
689 4 0.180338 0.0342763 0.214081
1505 4 0.194672 0.0250996 0.204451
1504 2 0.206858 0.0232084 0.1827
693 4 0.258911 0.0711368 0.178553
22 3 0.381758 0.0610611 0.216021
698 4 0.399341 0.0632763 0.223787
697 2 0.403811 0.0403948 0.232822
699 4 0.408281 0.0175133 0.241857
333 4 0.402945 0.0824712 0.228664
351 4 0.493393 0.0522812 0.207926
1518 4 0.41898 0.999458 0.241765
742 2 0.490999 0.00447357 0.245913
349 2 0.47789 0.0679069 0.219787
350 4 0.462387 0.0835325 0.231649
511 2 0.0173354 0.12679 0.22001
513 4 0.0324699 0.138258 0.236276
578 4 0.0366638 0.15614 0.229678
674 4 0.155512 0.0816628 0.201023
237 4 0.148861 0.137451 0.171362
673 2 0.14599 0.103514 0.208574
675 4 0.136468 0.125365 0.216126
546 4 0.135168 0.128804 0.235762
28 3 0.252278 0.15674 0.171893
691 2 0.273527 0.083272 0.194811
1701 4 0.299451 0.103138 0.22544
692 4 0.288142 0.0954072 0.211068
1699 2 0.322335 0.0969063 0.217523
757 2 0.343692 0.0973982 0.166431
21 1 0.374716 0.0828624 0.213956
23 3 0.35538 0.0857159 0.226462
25 3 0.370518 0.0873438 0.192026
1700 4 0.345219 0.0906743 0.209606
759 4 0.35248 0.095848 0.189788
24 3 0.391404 0.0969159 0.221855
331 2 0.426545 0.0906818 0.229567
332 4 0.450145 0.0988925 0.230469
770 4 0.471706 0.125145 0.164759
312 4 0.460759 0.125432 0.182189
310 2 0.471781 0.13284 0.203374
311 4 0.482804 0.140248 0.22456
521 4 0.499495 0.140669 0.234506
531 4 0.99269 0.237966 0.219686
577 2 0.044115 0.179962 0.231158
529 2 0.0137106 0.226164 0.226322
530 4 0.0347308 0.214361 0.232957
579 4 0.0515663 0.203784 0.232639
362 4 0.152472 0.227439 0.179196
372 4 0.170481 0.230571 0.16954
361 2 0.139256 0.243896 0.1926
27 3 0.28829 0.166465 0.16729
755 4 0.365539 0.211712 0.182241
622 2 0.444413 0.240987 0.17971
339 4 0.057782 0.288781 0.1731
704 4 0.0427671 0.297683 0.179414
703 2 0.0242593 0.312439 0.187471
705 4 0.00575154 0.327195 0.195527
363 4 0.126039 0.260353 0.206004
395 4 0.127632 0.264078 0.22667
394 2 0.109565 0.265604 0.243886
285 4 0.266175 0.290539 0.170576
283 2 0.266237 0.277107 0.191666
284 4 0.266298 0.263676 0.212755
528 4 0.429427 0.320202 0.188792
526 2 0.434655 0.296347 0.194157
623 4 0.43846 0.252286 0.201205
527 4 0.439883 0.272492 0.199523
542 4 0.422591 0.328405 0.206622
621 4 0.0426789 0.352933 0.156907
262 2 0.0309756 0.409663 0.251075
646 2 0.125658 0.387663 0.17161
648 4 0.115816 0.374352 0.190349
300 4 0.114462 0.359585 0.203122
298 2 0.0990154 0.353975 0.221966
734 4 0.143882 0.384025 0.221683
299 4 0.0835687 0.348364 0.24081
626 4 0.202928 0.377791 0.174779
416 4 0.195921 0.411978 0.21443
290 4 0.207595 0.402658 0.227756
289 2 0.2162 0.401695 0.251212
645 4 0.365231 0.408913 0.179032
597 4 0.376798 0.389461 0.180181
345 4 0.36161 0.358359 0.221523
596 4 0.347382 0.359904 0.207781
595 2 0.36209 0.374683 0.193981
343 2 0.357778 0.347631 0.243781
541 2 0.423002 0.338747 0.229383
263 4 0.0501055 0.425763 0.251172
1430 4 0.152488 0.453175 0.181362
415 2 0.178383 0.426735 0.20444
417 4 0.160845 0.441493 0.19445
438 4 0.266682 0.462992 0.23482
658 2 0.326029 0.464003 0.169782
643 2 0.378689 0.428586 0.186587
644 4 0.392147 0.448258 0.194141
660 4 0.343144 0.479925 0.178655
231 4 0.352359 0.48084 0.197306
447 4 0.409413 0.443417 0.204114
229 2 0.358197 0.505069 0.195302
445 2 0.419664 0.443073 0.226917
1403 4 0.0373355 0.0160372 0.268465
233 4 0.02238 0.0212795 0.28134
232 2 0.0327843 0.0398448 0.294464
234 4 0.0431887 0.0584102 0.307589
317 4 0.0541903 0.0738392 0.302899
723 4 0.173452 0.0817196 0.297687
1405 2 0.203154 0.0170513 0.287773
1406 4 0.196197 0.0394478 0.279102
1407 4 0.21011 0.994655 0.296444
743 4 0.475583 0.0150033 0.262546
425 4 0.484678 0.0224245 0.278402
424 2 0.484386 0.0458177 0.287226
258 4 0.475861 0.0772857 0.31229
426 4 0.484094 0.0692109 0.296049
316 2 0.0715658 0.0875295 0.291244
318 4 0.0889413 0.10122 0.279589
544 2 0.125903 0.138522 0.256855
599 4 0.163547 0.0978367 0.304703
392 4 0.106377 0.151244 0.293678
545 4 0.116637 0.148239 0.277948
391 2 0.104835 0.138543 0.31516
722 4 0.172682 0.0970925 0.250108
721 2 0.173067 0.089406 0.273897
403 2 0.219741 0.146386 0.293844
598 2 0.171495 0.0926194 0.327828
404 4 0.221289 0.124683 0.306164
256 2 0.47576 0.095861 0.329027
444 4 0.0476462 0.239901 0.307692
405 4 0.218193 0.168089 0.281524
401 4 0.204802 0.176645 0.295329
400 2 0.209631 0.200119 0.302458
402 4 0.214459 0.223593 0.309587
763 2 0.462363 0.200232 0.323012
765 4 0.461409 0.175257 0.322293
764 4 0.463317 0.225207 0.323732
442 2 0.0627612 0.250302 0.290706
443 4 0.0778763 0.260702 0.273719
396 4 0.091497 0.267129 0.261103
264 4 0.0118458 0.393563 0.250979
365 4 0.015015 0.383435 0.329122
366 4 0.0470944 0.362561 0.296936
749 4 0.0557901 0.345421 0.296764
364 2 0.0310547 0.372998 0.313029
748 2 0.0596845 0.348847 0.272305
777 4 0.0673627 0.408849 0.308027
750 4 0.0635789 0.352274 0.247845
602 4 0.0707017 0.420534 0.323935
733 2 0.152151 0.385842 0.24521
677 4 0.163573 0.403893 0.279755
735 4 0.160421 0.38766 0.268736
291 4 0.224805 0.400732 0.274668
414 4 0.229361 0.389764 0.291508
412 2 0.235354 0.404086 0.311107
727 2 0.315045 0.41231 0.324331
308 4 0.315268 0.376784 0.303321
729 4 0.324385 0.393404 0.310895
344 4 0.353945 0.336903 0.266039
309 4 0.350761 0.354574 0.275978
307 2 0.333014 0.365679 0.289649
2860 2 0.493125 0.390821 0.250383
118 3 0.496801 0.385846 0.316831
543 4 0.423413 0.34909 0.252143
615 4 0.417205 0.354803 0.270024
614 4 0.442848 0.345436 0.311922
613 2 0.430027 0.350119 0.290973
2862 4 0.481706 0.409771 0.262032
120 3 0.472481 0.402925 0.293712
116 1 0.487474 0.406142 0.310549
119 3 0.476961 0.415996 0.328737
2923 2 0.469484 0.355462 0.331166
2925 4 0.447923 0.342805 0.330845
2924 4 0.491045 0.368119 0.331487
775 2 0.0823063 0.422427 0.293279
776 4 0.09725 0.436005 0.278531
1757 4 0.109722 0.448595 0.289995
1756 2 0.120784 0.47101 0.289362
1758 4 0.131846 0.493424 0.28873
1775 4 0.150588 0.496948 0.294649
767 4 0.21195 0.500103 0.289841
676 2 0.17183 0.426834 0.285298
678 4 0.180087 0.449774 0.290842
768 4 0.173363 0.468315 0.288717
766 2 0.192656 0.484209 0.289279
413 4 0.241347 0.418409 0.330706
635 4 0.185076 0.486829 0.333686
436 2 0.27303 0.475653 0.255425
437 4 0.279378 0.488315 0.276031
433 2 0.290729 0.463303 0.309274
435 4 0.281022 0.48218 0.29606
434 4 0.300436 0.444426 0.322487
728 4 0.305705 0.431215 0.337768
446 4 0.429915 0.442729 0.24972
713 4 0.472665 0.415021 0.278656
712 2 0.449928 0.419429 0.269234
714 4 0.427191 0.423837 0.259811
606 4 0.147488 0.0458478 0.354763
730 2 0.0860112 0.0772496 0.398384
604 2 0.123751 0.0533246 0.357179
605 4 0.100014 0.0608015 0.359594
732 4 0.0907948 0.0655172 0.376828
683 4 0.258755 0.0772884 0.39095
249 4 0.291236 0.0291516 0.386408
684 4 0.27471 0.0320024 0.376974
682 2 0.266732 0.0546454 0.383962
247 2 0.316213 0.0298868 0.387305
248 4 0.341189 0.030622 0.388203
633 4 0.354058 0.0354904 0.402139
631 2 0.364605 0.0580524 0.404349
632 4 0.375153 0.0806144 0.40656
1749 4 0.495067 0.0315348 0.352592
1747 2 0.490907 0.0083644 0.344165
2586 4 0.00618168 0.144856 0.380839
393 4 0.103292 0.125842 0.336642
399 4 0.114803 0.120377 0.353649
397 2 0.120114 0.135501 0.372838
398 4 0.125425 0.150626 0.392027
600 4 0.179443 0.0874021 0.350954
685 2 0.209261 0.118824 0.361641
687 4 0.195381 0.100071 0.352648
686 4 0.223141 0.137576 0.370634
410 4 0.232513 0.139593 0.387282
409 2 0.24336 0.159323 0.398155
321 4 0.260747 0.0953384 0.384797
319 2 0.264177 0.106814 0.406745
419 4 0.389842 0.166987 0.378086
418 2 0.366178 0.159005 0.379312
420 4 0.342515 0.151022 0.380538
762 4 0.452758 0.161442 0.386877
257 4 0.475658 0.114436 0.345764
760 2 0.463565 0.142079 0.375323
761 4 0.474371 0.122716 0.363769
390 4 0.0833579 0.225656 0.420163
388 2 0.092158 0.216458 0.398643
274 2 0.141417 0.209378 0.359422
276 4 0.11968 0.205279 0.371079
389 4 0.100958 0.20726 0.377122
275 4 0.163153 0.213478 0.347765
473 4 0.230234 0.226222 0.36782
474 4 0.183447 0.215297 0.353954
472 2 0.206841 0.22076 0.360887
708 4 0.249813 0.220616 0.363259
707 4 0.296288 0.234742 0.375144
706 2 0.273051 0.227679 0.369201
411 4 0.254206 0.179054 0.409029
497 4 0.306117 0.243778 0.360138
716 4 0.386098 0.17789 0.362525
377 4 0.40445 0.236463 0.339103
717 4 0.398191 0.218102 0.335367
715 2 0.392144 0.197996 0.348946
1258 2 0.140267 0.316615 0.379848
1259 4 0.143644 0.309886 0.356005
1260 4 0.136889 0.323343 0.403691
489 4 0.23725 0.249533 0.402545
509 4 0.22828 0.306998 0.365535
488 4 0.232501 0.293788 0.37975
508 2 0.238212 0.329335 0.370793
487 2 0.234876 0.27166 0.391147
496 2 0.330215 0.250388 0.359246
376 2 0.387262 0.252546 0.347537
378 4 0.370075 0.268628 0.35597
498 4 0.354312 0.256997 0.358354
267 4 0.37261 0.333576 0.359922
266 4 0.375065 0.284235 0.367681
585 4 0.352824 0.285741 0.406225
583 2 0.358132 0.273404 0.427315
265 2 0.373837 0.308905 0.363801
306 4 0.479635 0.280431 0.383661
304 2 0.477229 0.27657 0.408247
504 4 0.171712 0.390124 0.350649
502 2 0.179701 0.411106 0.361652
510 4 0.248143 0.351671 0.37605
374 4 0.261669 0.356277 0.362728
373 2 0.271612 0.379215 0.362288
375 4 0.281555 0.402152 0.361848
3 3 0.273072 0.418978 0.367729
751 2 0.469512 0.41358 0.366964
752 4 0.463315 0.401472 0.387944
561 4 0.480741 0.408213 0.395548
559 2 0.482922 0.396894 0.417736
3672 4 0.025686 0.508543 0.35019
601 2 0.0752017 0.429694 0.346761
679 2 0.0334303 0.484334 0.381895
680 4 0.0334024 0.459966 0.376292
406 2 0.034943 0.441364 0.413507
408 4 0.0409282 0.455446 0.393732
603 4 0.0797016 0.438855 0.369586
549 4 0.098487 0.445206 0.375321
547 2 0.114086 0.446496 0.394819
548 4 0.129685 0.447786 0.414317
503 4 0.187691 0.432088 0.372656
634 2 0.186047 0.464294 0.344475
636 4 0.187017 0.441759 0.355264
2 3 0.282917 0.434264 0.334834
5 3 0.246856 0.432405 0.344274
1 1 0.267956 0.435503 0.352264
668 4 0.276945 0.475101 0.364628
4 3 0.269683 0.45642 0.362159
667 2 0.294319 0.492831 0.361631
753 4 0.475708 0.425688 0.345983
341 4 0.184543 0.0699116 0.439433
2430 4 0.185536 0.0526047 0.431285
441 4 0.212406 0.00969495 0.448845
2428 2 0.191164 0.0284096 0.434132
2429 4 0.196791 0.00421449 0.436979
1218 4 0.397459 0.0675147 0.482769
641 4 0.485621 0.0800731 0.421877
2879 4 0.444388 0.00295777 0.457597
2878 2 0.460739 0.0156359 0.443558
2880 4 0.477091 0.028314 0.42952
642 4 0.491948 0.0307449 0.416641
640 2 0.488784 0.055409 0.419259
368 4 0.0772799 0.0899996 0.440094
367 2 0.0552352 0.0878875 0.451703
719 4 0.0231517 0.0993958 0.471768
369 4 0.0331905 0.0857754 0.463311
718 2 0.0134668 0.0975758 0.494748
259 2 0.0626719 0.169767 0.483555
731 4 0.0812276 0.0889821 0.41994
1152 4 0.161066 0.11957 0.473128
342 4 0.156573 0.104306 0.462574
340 2 0.170558 0.0871086 0.451003
1150 2 0.168855 0.133715 0.492218
320 4 0.267606 0.118289 0.428694
725 4 0.265767 0.0986253 0.43678
724 2 0.265281 0.101481 0.461615
726 4 0.264795 0.104336 0.48645
468 4 0.361819 0.0907333 0.417333
467 4 0.393433 0.115036 0.44751
466 2 0.377626 0.102885 0.432422
576 4 0.396521 0.13401 0.452313
515 4 0.470893 0.0886177 0.411446
574 2 0.417986 0.140006 0.440978
3158 4 0.491249 0.0985049 0.418438
575 4 0.439451 0.146002 0.429643
516 4 0.441514 0.126308 0.426178
514 2 0.456203 0.107463 0.418812
260 4 0.0783388 0.178618 0.466195
471 4 0.0650204 0.193025 0.464351
469 2 0.069221 0.213146 0.450114
470 4 0.0734217 0.233267 0.435878
616 2 0.0161494 0.251952 0.416771
617 4 0.035891 0.236966 0.420069
651 4 0.2434 0.241128 0.419429
649 2 0.252127 0.217702 0.419911
650 4 0.260855 0.194276 0.420394
2455 2 0.396497 0.231962 0.438674
2457 4 0.413175 0.213684 0.435076
696 4 0.0518434 0.289767 0.431058
694 2 0.0759827 0.283309 0.431936
695 4 0.100122 0.276851 0.432814
878 4 0.0949793 0.264047 0.494381
326 4 0.141461 0.326692 0.422114
2456 4 0.37982 0.25024 0.442272
584 4 0.363439 0.261066 0.448406
1010 4 0.441815 0.329555 0.458013
1009 2 0.452835 0.309879 0.447216
1011 4 0.463855 0.290202 0.43642
305 4 0.474823 0.27271 0.432834
709 2 0.13277 0.4045 0.498037
325 2 0.153237 0.346623 0.431561
327 4 0.165014 0.366553 0.441008
8 3 0.151708 0.375687 0.494385
7 3 0.16032 0.364106 0.459681
6 1 0.168018 0.365621 0.481305
9 3 0.172439 0.344257 0.489208
1191 4 0.20127 0.364341 0.493789
1189 2 0.223539 0.35574 0.486351
10 3 0.187051 0.378121 0.481633
1190 4 0.245808 0.34714 0.478914
803 4 0.261632 0.35116 0.491057
335 4 0.377505 0.414445 0.445397
238 2 0.390336 0.396765 0.484584
240 4 0.384634 0.405812 0.461983
2507 4 0.451848 0.347102 0.4576
560 4 0.485102 0.385575 0.439924
2506 2 0.470728 0.363493 0.457817
2508 4 0.489608 0.379884 0.458034
407 4 0.0289577 0.427282 0.433282
1382 4 0.0318353 0.446396 0.473305
540 4 0.0486465 0.456122 0.478843
570 4 0.119576 0.427921 0.470874
568 2 0.130198 0.438062 0.450638
710 4 0.116012 0.41919 0.486699
569 4 0.140821 0.448204 0.430402
1446 4 0.252539 0.490191 0.475557
588 4 0.325124 0.486192 0.455981
586 2 0.326859 0.49266 0.480071
1399 2 0.31909 0.468296 0.430531
1401 4 0.32147 0.445078 0.421564
1400 4 0.31671 0.491515 0.439498
1444 2 0.269162 0.490582 0.49423
336 4 0.332938 0.430113 0.428995
334 2 0.355221 0.422279 0.437196
1032 4 0.106432 0.0785211 0.549708
1154 4 0.112843 0.079321 0.569144
1180 2 0.228392 0.0658145 0.565232
963 4 0.253911 0.0300936 0.580145
1181 4 0.24174 0.0462231 0.57318
961 2 0.277218 0.0230115 0.574508
843 4 0.323182 0.0726041 0.538609
962 4 0.300526 0.0159295 0.56887
2195 4 0.307339 0.999981 0.560707
841 2 0.348059 0.0704701 0.539938
1216 2 0.3934 0.0646683 0.507276
1217 4 0.389341 0.0618219 0.531783
842 4 0.372936 0.0683362 0.541266
2283 4 0.462624 0.991784 0.583494
4467 4 0.445237 0.992533 0.574711
1127 4 0.00155176 0.0928654 0.537153
720 4 0.00378196 0.0957558 0.517728
1033 2 0.0514823 0.139347 0.537344
1034 4 0.0479259 0.145159 0.513286
261 4 0.047005 0.160915 0.500915
1035 4 0.0550387 0.133536 0.561401
1082 4 0.0603225 0.138131 0.581907
1030 2 0.127483 0.08407 0.537409
1031 4 0.148533 0.0896188 0.52511
1182 4 0.215043 0.085406 0.557284
950 4 0.211727 0.102634 0.54858
949 2 0.188273 0.0987867 0.540815
951 4 0.164819 0.0949395 0.53305
1151 4 0.176644 0.14786 0.511308
939 4 0.178353 0.143749 0.530966
937 2 0.198664 0.153487 0.541821
431 4 0.309325 0.0857793 0.531364
430 2 0.29047 0.0957482 0.518315
432 4 0.271615 0.105717 0.505265
857 4 0.362625 0.148736 0.574584
899 4 0.379612 0.151846 0.56455
879 4 0.12143 0.241623 0.530412
877 2 0.108205 0.252835 0.512396
938 4 0.218974 0.163224 0.552676
898 2 0.382734 0.170331 0.548005
900 4 0.385857 0.188815 0.531459
872 4 0.388442 0.207522 0.538633
873 4 0.379121 0.248636 0.56553
871 2 0.383781 0.228079 0.552082
1272 4 0.114496 0.252955 0.546222
1270 2 0.12194 0.247824 0.569534
813 4 0.363487 0.26087 0.566145
1204 2 0.38255 0.302675 0.57129
1206 4 0.360904 0.315189 0.571475
930 4 0.35348 0.324156 0.555227
1205 4 0.404195 0.290161 0.571105
983 4 0.0533167 0.393283 0.556025
982 2 0.0311673 0.40316 0.562111
1041 4 0.0722311 0.392234 0.556598
984 4 0.00901797 0.413036 0.568197
1039 2 0.089741 0.394895 0.574247
711 4 0.149527 0.389809 0.509376
896 4 0.191455 0.383117 0.502177
897 4 0.194489 0.399125 0.549455
895 2 0.192972 0.391121 0.525816
1137 4 0.192784 0.407994 0.567262
802 2 0.282296 0.341817 0.501587
804 4 0.302959 0.332474 0.512117
929 4 0.31064 0.333468 0.531172
928 2 0.33206 0.328812 0.543199
239 4 0.396039 0.387719 0.507185
1001 4 0.456902 0.379642 0.54602
926 4 0.458499 0.363088 0.53388
925 2 0.479774 0.365144 0.520905
1000 2 0.446365 0.388751 0.566785
1002 4 0.435829 0.397861 0.58755
1936 2 0.0315744 0.473689 0.560671
1937 4 0.0451477 0.470381 0.539934
539 4 0.0575303 0.461584 0.52775
538 2 0.0530884 0.458853 0.503297
1938 4 0.0180011 0.476998 0.581407
2242 2 0.146008 0.485918 0.567671
1160 4 0.216658 0.453438 0.586264
1159 2 0.192482 0.459811 0.586507
882 4 0.275913 0.471514 0.574505
880 2 0.28338 0.481012 0.552613
881 4 0.290846 0.49051 0.530722
587 4 0.328595 0.499127 0.504161
1455 4 0.369683 0.499683 0.549314
1185 4 0.0156526 0.0406809 0.655835
945 4 0.0249918 0.0558859 0.646832
1058 4 0.107462 0.0206226 0.651735
1057 2 0.0999886 0.0427603 0.642833
1155 4 0.100641 0.0723701 0.617139
1059 4 0.0925148 0.0648979 0.633931
1153 2 0.106742 0.0758455 0.593142
825 4 0.0971398 0.00290243 0.652498
1142 4 0.36142 0.0653821 0.670105
1141 2 0.373143 0.0866518 0.664158
2282 4 0.486632 0.0284921 0.607512
2281 2 0.474628 0.0101378 0.595503
43 3 0.487763 0.0467293 0.614831
41 1 0.488261 0.0672354 0.625678
44 3 0.466637 0.0743307 0.630202
1081 2 0.0431557 0.148982 0.596492
1083 4 0.0259889 0.159834 0.611077
1221 4 0.152313 0.0990387 0.63675
1219 2 0.173691 0.111015 0.631777
1220 4 0.195069 0.122991 0.626803
1212 4 0.204208 0.129121 0.642219
1210 2 0.22495 0.13134 0.656003
1005 4 0.316247 0.100676 0.602091
1003 2 0.306296 0.101184 0.625024
1004 4 0.296346 0.101693 0.647956
887 4 0.295851 0.121253 0.650502
886 2 0.277645 0.124976 0.667231
856 2 0.352997 0.158792 0.595353
858 4 0.34337 0.168848 0.616123
1024 2 0.392776 0.152211 0.661011
1143 4 0.384865 0.107921 0.658212
1025 4 0.386474 0.128033 0.660055
1199 4 0.0152925 0.17542 0.605631
1271 4 0.129383 0.242693 0.592845
909 4 0.147526 0.235481 0.588121
907 2 0.164434 0.243643 0.604634
908 4 0.181342 0.251804 0.621148
798 4 0.333799 0.231053 0.609821
796 2 0.331835 0.206454 0.613844
797 4 0.32987 0.181855 0.617868
1026 4 0.399078 0.176388 0.661968
3357 4 0.479519 0.198851 0.66935
906 4 0.477308 0.231925 0.635683
947 4 0.174881 0.257292 0.638944
946 2 0.192433 0.271549 0.649614
948 4 0.209986 0.285805 0.660284
1065 4 0.227529 0.294476 0.664193
1063 2 0.25148 0.30033 0.668348
1239 4 0.277138 0.272585 0.585155
1237 2 0.297394 0.284949 0.593029
1238 4 0.31765 0.297313 0.600904
792 4 0.32824 0.297269 0.618198
1064 4 0.275431 0.306183 0.672502
1098 4 0.292477 0.298348 0.666326
811 2 0.345433 0.253863 0.581961
812 4 0.327379 0.246856 0.597776
954 4 0.410145 0.300184 0.586493
790 2 0.349983 0.295798 0.630456
791 4 0.371726 0.294326 0.642714
905 4 0.467045 0.259284 0.595101
953 4 0.450851 0.27168 0.592087
952 2 0.430498 0.285932 0.58929
904 2 0.472176 0.245604 0.615392
1281 4 0.0716511 0.339595 0.655792
3263 4 0.00379219 0.410694 0.587332
894 4 0.0906799 0.342207 0.653974
991 2 0.128902 0.403644 0.61479
992 4 0.153478 0.402692 0.619299
892 2 0.114192 0.350581 0.655469
1136 4 0.155354 0.401435 0.599769
1040 4 0.107251 0.397555 0.591897
993 4 0.104327 0.404596 0.610281
893 4 0.137704 0.358955 0.656964
1135 2 0.174069 0.404715 0.583515
1027 2 0.236141 0.384553 0.656749
1028 4 0.221778 0.365098 0.663106
1029 4 0.250504 0.404007 0.650392
1139 4 0.266022 0.412021 0.65931
1910 4 0.435954 0.414073 0.597248
1909 2 0.439754 0.413581 0.621956
936 4 0.0213114 0.485916 0.600058
2022 4 0.0412427 0.468413 0.653842
2243 4 0.148781 0.468763 0.585648
1173 4 0.232627 0.443146 0.590899
1161 4 0.168305 0.466184 0.586751
1171 2 0.255987 0.452056 0.591167
1172 4 0.279347 0.460967 0.591435
891 4 0.365425 0.505702 0.633594
889 2 0.378916 0.494141 0.651187
1269 4 0.403631 0.470041 0.659556
1951 2 0.366186 0.496316 0.59291
1952 4 0.361597 0.495509 0.617475
1911 4 0.443555 0.413089 0.646664
1267 2 0.417453 0.449649 0.655281
1268 4 0.431276 0.429257 0.651005
943 2 0.0357712 0.0637821 0.667966
944 4 0.0465506 0.0716784 0.689099
1075 2 0.0696478 0.0756616 0.72523
1076 4 0.0520856 0.0784726 0.707656
1077 4 0.08721 0.0728507 0.742804
1283 4 0.147672 0.0529477 0.738233
1282 2 0.161057 0.0739149 0.740766
2047 2 0.157373 0.0164439 0.751741
830 4 0.320364 0.0625949 0.729991
3387 4 0.00445172 0.116772 0.725558
32 3 0.109152 0.154184 0.733534
1284 4 0.174441 0.0948821 0.743299
1211 4 0.245693 0.133559 0.669787
1227 4 0.181893 0.113326 0.750041
831 4 0.32375 0.100267 0.697279
888 4 0.259438 0.128698 0.683959
829 2 0.322057 0.0814307 0.713635
1107 4 0.0288775 0.187198 0.741471
1208 4 0.0711643 0.236505 0.701642
1207 2 0.0500313 0.247401 0.709379
821 4 0.0805875 0.22792 0.717843
822 4 0.129597 0.236429 0.722983
1278 4 0.146607 0.224205 0.720005
820 2 0.105092 0.232175 0.720413
1276 2 0.159835 0.212012 0.737371
1277 4 0.173062 0.199819 0.754736
977 4 0.309371 0.216192 0.741984
916 2 0.317323 0.23652 0.707669
918 4 0.322169 0.220952 0.726625
3122 4 0.468467 0.215236 0.673691
1263 4 0.450288 0.211398 0.747719
3121 2 0.465701 0.240009 0.671735
1243 2 0.0136294 0.29034 0.716182
3188 4 0.0366759 0.257318 0.736252
1209 4 0.0288983 0.258297 0.717116
1244 4 0.0141367 0.313883 0.724587
1245 4 0.0131221 0.266796 0.707778
1241 4 0.250805 0.309043 0.722729
917 4 0.312478 0.252088 0.688713
1097 4 0.314466 0.268088 0.699516
1096 2 0.303471 0.283218 0.682921
1008 4 0.325999 0.288101 0.753905
3123 4 0.462935 0.264782 0.669778
1279 2 0.0630136 0.351129 0.676226
3275 4 0.0421406 0.363165 0.713254
1280 4 0.0543762 0.362662 0.69666
3274 2 0.0553923 0.380313 0.725726
3276 4 0.068644 0.39746 0.738198
816 4 0.0849734 0.405798 0.746729
940 2 0.160546 0.395189 0.728481
814 2 0.107701 0.414977 0.741794
942 4 0.146393 0.415795 0.728981
1068 4 0.217341 0.359926 0.681233
1067 4 0.193965 0.369012 0.724496
1066 2 0.205653 0.364469 0.702865
941 4 0.174699 0.374582 0.727981
1229 4 0.338118 0.383175 0.705598
1228 2 0.35729 0.398805 0.709252
2021 4 0.0330153 0.470785 0.703111
1981 2 0.0331024 0.493465 0.733906
2020 2 0.037129 0.469599 0.678477
1983 4 0.0433049 0.484944 0.712729
1982 4 0.0228998 0.501986 0.755083
815 4 0.130429 0.424157 0.736858
1080 4 0.160902 0.422333 0.74137
1138 2 0.2777 0.427686 0.674913
1140 4 0.289378 0.44335 0.690515
1989 4 0.294478 0.448065 0.708676
1987 2 0.28931 0.454483 0.732283
890 4 0.392406 0.48258 0.668781
1230 4 0.376461 0.414435 0.712906
1250 4 0.448652 0.493796 0.751226
1100 4 0.431148 0.499726 0.743862
864 4 0.0833067 0.0503341 0.818994
862 2 0.0740537 0.0692496 0.805512
1203 4 0.0904354 0.0646218 0.760646
1201 2 0.112704 0.0542756 0.765365
2049 4 0.144537 0.0378543 0.75316
1202 4 0.134972 0.0439294 0.770084
1147 2 0.199995 0.0689174 0.827644
1148 4 0.183273 0.0750873 0.845179
1149 4 0.216718 0.0627474 0.810109
1049 4 0.235211 0.0539157 0.810572
1048 2 0.255207 0.061118 0.823742
818 4 0.345587 0.0783429 0.791479
965 4 0.35484 0.0736932 0.810465
964 2 0.378983 0.0789384 0.814308
966 4 0.403126 0.0841836 0.818152
846 4 0.488259 0.0119207 0.761236
1106 4 0.0687152 0.16338 0.760082
863 4 0.0648007 0.0881652 0.79203
832 2 0.0654609 0.125767 0.783457
833 4 0.0604505 0.107217 0.799456
834 4 0.0704713 0.144317 0.767457
31 1 0.0992682 0.157243 0.75408
33 3 0.0883276 0.137694 0.760125
34 3 0.115727 0.162249 0.769651
1073 4 0.118702 0.152386 0.787501
1130 4 0.163883 0.138861 0.762179
1072 2 0.112901 0.165056 0.808262
1225 2 0.201813 0.107722 0.764075
1226 4 0.221734 0.102119 0.778109
840 4 0.234943 0.116638 0.778478
1129 2 0.172934 0.162116 0.763738
817 2 0.325717 0.089803 0.801429
838 2 0.253837 0.12945 0.788679
839 4 0.272731 0.142262 0.798881
959 4 0.275014 0.157649 0.811943
819 4 0.305846 0.101263 0.811379
1085 4 0.31573 0.118569 0.80858
1084 2 0.321582 0.142728 0.811275
1086 4 0.327434 0.166887 0.813971
1038 4 0.414251 0.100456 0.822303
3270 4 0.495727 0.155572 0.775608
1146 4 0.476405 0.159929 0.770443
3268 2 0.497702 0.147232 0.799097
1105 2 0.0487964 0.175289 0.750776
779 4 0.069937 0.22925 0.830291
1214 4 0.0521802 0.221686 0.825394
1213 2 0.0370353 0.232327 0.808583
1215 4 0.0218904 0.242968 0.791773