ITEM: TIMESTEP
3060000
ITEM: NUMBER OF ATOMS
4590
ITEM: BOX BOUNDS pp pp pp
-9.9985700000000008e+00 9.9985700000000008e+00
-9.9985700000000008e+00 9.9985700000000008e+00
-9.9985700000000008e+00 9.9985700000000008e+00
ITEM: ATOMS id type xs ys zs
463 2 0.0215296 0.0430193 0.013361
464 4 0.0321275 0.0203908 0.0124609
1668 4 0.0769953 0.0669542 0.0706996
3290 4 0.0733116 0.0620312 0.0517206
465 4 0.0109316 0.0656479 0.0142612
3289 2 0.0854153 0.0494359 0.033831
701 4 0.00528958 0.0780073 0.00056332
3291 4 0.097519 0.0368406 0.0159414
2183 4 0.0901654 0.0266462 0.999249
566 4 0.14749 0.0433236 0.0295355
565 2 0.168177 0.0296789 0.0328582
567 4 0.188865 0.0160342 0.0361809
490 2 0.311819 0.00799672 0.0565332
491 4 0.32079 0.0192437 0.036083
985 2 0.299224 0.0438933 0.0092784
987 4 0.313249 0.0383147 0.0292123
2144 4 0.325855 0.0133685 0.0176577
745 2 0.478819 0.0382003 0.0760301
746 4 0.464714 0.0581824 0.0708393
460 2 0.285101 0.162053 0.051178
462 4 0.301434 0.14863 0.0645295
421 2 0.0726018 0.179459 0.00485382
422 4 0.0582807 0.198911 0.0113141
836 4 0.0573019 0.24732 0.0177607
505 2 0.140671 0.246489 0.0790936
737 4 0.168761 0.218141 0.0745391
736 2 0.185515 0.203711 0.0628665
738 4 0.20227 0.189281 0.051194
354 4 0.21754 0.200758 0.0473633
352 2 0.240965 0.197489 0.0392531
461 4 0.268769 0.175475 0.0378264
353 4 0.264389 0.19422 0.0311429
1069 2 0.375263 0.237087 0.00509202
665 4 0.368675 0.194509 0.00942913
664 2 0.346933 0.18466 0.00198367
828 4 0.497175 0.23799 0.00953027
3339 4 0.0158725 0.288025 0.0093063
293 4 0.102569 0.267377 0.0704603
507 4 0.119068 0.258323 0.0747983
287 4 0.149396 0.286445 0.0131353
286 2 0.144927 0.310564 0.0179806
292 2 0.0957953 0.287747 0.0832812
612 4 0.263603 0.297586 0.0416684
610 2 0.267546 0.290489 0.065317
609 4 0.263265 0.317073 0.0476648
1071 4 0.362321 0.255235 0.0164203
573 4 0.359104 0.273884 0.0194057
571 2 0.338168 0.27925 0.00683346
323 4 0.49429 0.255786 0.999301
324 4 0.449474 0.27793 0.997936
322 2 0.471882 0.266858 0.998618
990 4 0.154891 0.34652 0.0288225
288 4 0.140459 0.334683 0.0228259
1289 4 0.189341 0.406746 0.0216961
988 2 0.166544 0.36858 0.0271607
989 4 0.178196 0.39064 0.0254989
1288 2 0.20159 0.409124 2.83117e-05
607 2 0.271365 0.3406 0.0452047
739 2 0.33015 0.348777 0.0467895
250 2 0.292794 0.402373 0.0505822
252 4 0.277039 0.382973 0.0498172
608 4 0.279465 0.364127 0.0427446
741 4 0.322406 0.351991 0.0232335
386 4 0.329242 0.36321 0.075778
740 4 0.337894 0.345563 0.0703454
226 2 0.383884 0.388743 0.023
228 4 0.362421 0.400687 0.027673
227 4 0.405347 0.376798 0.018327
1305 4 0.40195 0.35864 0.0103159
1303 2 0.401868 0.334289 0.00464082
525 4 0.365167 0.420311 0.0323663
1046 4 0.482089 0.339084 0.00689784
1045 2 0.491157 0.343735 0.0297301
281 4 0.438741 0.356262 0.0820499
280 2 0.462399 0.352797 0.074736
282 4 0.486057 0.349332 0.0674222
1047 4 0.500226 0.348386 0.0525624
552 4 0.0015987 0.459929 0.076127
550 2 0.004789 0.477698 0.0588275
551 4 0.00797929 0.495466 0.041528
1956 4 0.0160642 0.493096 0.0237993
1786 2 0.17716 0.500208 0.0570842
243 4 0.245276 0.453275 0.0541505
1440 4 0.24393 0.439421 0.0688231
241 2 0.223483 0.464287 0.0487678
242 4 0.20169 0.4753 0.0433851
1787 4 0.196511 0.495627 0.0419269
251 4 0.308548 0.421774 0.0513472
524 4 0.32388 0.433881 0.0571051
271 2 0.277597 0.478853 0.0739826
272 4 0.274938 0.456665 0.0851992
523 2 0.344524 0.427096 0.0447357
1583 4 0.459898 0.454505 0.0395735
1582 2 0.461888 0.475319 0.0532842
1584 4 0.463878 0.496134 0.0669949
1666 2 0.0581012 0.0618291 0.0862535
1667 4 0.0392071 0.056704 0.101807
16 1 0.0389377 0.0441193 0.13739
19 3 0.026078 0.0530169 0.154532
17 3 0.028532 0.0483591 0.117318
20 3 0.0410478 0.0216105 0.140138
1422 4 0.0066263 0.0429155 0.161699
18 3 0.0598967 0.054074 0.137224
652 2 0.256845 0.0467483 0.159364
654 4 0.259814 0.0455293 0.134567
1476 4 0.262416 0.0622896 0.123158
1475 4 0.306333 0.0509302 0.102112
1474 2 0.284375 0.0566099 0.112635
297 4 0.379072 0.0507822 0.13619
295 2 0.403805 0.0533244 0.133544
484 2 0.354666 0.0235973 0.123218
485 4 0.374658 0.0384135 0.120772
486 4 0.334674 0.00878097 0.125663
296 4 0.428538 0.0558666 0.130898
557 4 0.43092 0.0630941 0.111722
556 2 0.453505 0.0720897 0.117568
558 4 0.47609 0.0810852 0.123414
747 4 0.492924 0.0182183 0.0812209
450 4 0.0801313 0.106997 0.0954645
236 4 0.135867 0.120054 0.126524
449 4 0.122956 0.12642 0.112481
448 2 0.101543 0.116708 0.103973
235 2 0.155725 0.128074 0.139428
237 4 0.175583 0.136094 0.152332
477 4 0.235319 0.151145 0.132677
580 2 0.312658 0.124062 0.14538
581 4 0.295951 0.142246 0.149299
30 3 0.28171 0.138483 0.162979
582 4 0.329366 0.105877 0.141461
26 1 0.26074 0.14736 0.162651
29 3 0.252826 0.148171 0.140853
758 4 0.348484 0.0997393 0.142924
757 2 0.356019 0.0969739 0.166604
771 4 0.477754 0.0913002 0.140945
769 2 0.482307 0.111397 0.155108
506 4 0.162274 0.234655 0.0833888
371 4 0.195896 0.194109 0.145735
476 4 0.202167 0.188206 0.127376
475 2 0.218743 0.169676 0.130026
370 2 0.179442 0.209011 0.157239
624 4 0.470065 0.249761 0.144446
294 4 0.0890219 0.308116 0.0961022
456 4 0.100396 0.31831 0.108645
611 4 0.271489 0.283391 0.0889656
279 4 0.281634 0.259175 0.148946
277 2 0.281293 0.264269 0.124469
278 4 0.280951 0.269363 0.0999922
285 4 0.267805 0.252942 0.163185
756 4 0.354552 0.253449 0.118902
754 2 0.350588 0.252476 0.14357
255 4 0.362742 0.261842 0.101778
254 4 0.407546 0.268345 0.0805396
253 2 0.385144 0.265093 0.0911587
629 4 0.457395 0.254647 0.128553
628 2 0.439543 0.259595 0.11176
630 4 0.42169 0.264543 0.0949679
622 2 0.461604 0.259389 0.165915
619 2 0.0482817 0.373772 0.132346
620 4 0.0586667 0.390544 0.116982
621 4 0.0378967 0.357001 0.14771
315 4 0.999837 0.414256 0.106773
2786 4 0.000735442 0.395275 0.100944
455 4 0.117419 0.364464 0.0996571
454 2 0.108908 0.341387 0.104151
537 4 0.1125 0.389123 0.139261
535 2 0.135951 0.383237 0.132889
536 4 0.159401 0.377351 0.126517
647 4 0.103669 0.393106 0.156797
625 2 0.221198 0.387496 0.13711
627 4 0.218365 0.407025 0.121755
626 4 0.22403 0.367966 0.152464
1439 4 0.233322 0.415757 0.111581
301 2 0.328151 0.408649 0.136435
670 2 0.410615 0.354899 0.100045
385 2 0.34021 0.373059 0.0959738
387 4 0.351178 0.382909 0.11617
12 3 0.40395 0.377569 0.127707
11 1 0.391859 0.396936 0.130513
15 3 0.37053 0.393578 0.123273
672 4 0.394126 0.368798 0.112698
302 4 0.348801 0.395536 0.131259
13 3 0.391788 0.402539 0.15303
14 3 0.401837 0.413862 0.11817
104 3 0.494243 0.354443 0.0848094
671 4 0.427103 0.340999 0.0873914
314 4 0.00989956 0.46176 0.0948189
313 2 0.00486806 0.438008 0.100796
1620 4 0.15142 0.476201 0.143863
1618 2 0.150029 0.486611 0.121173
1431 4 0.140431 0.479111 0.15909
1619 4 0.148638 0.497022 0.0984823
1438 2 0.238626 0.427589 0.0902018
639 4 0.282532 0.481943 0.133566
638 4 0.309028 0.441271 0.145587
637 2 0.29578 0.461607 0.139577
303 4 0.307501 0.421763 0.141611
659 4 0.320735 0.449729 0.159315
1574 4 0.287183 0.497629 0.123375
1559 4 0.362531 0.494393 0.127594
495 4 0.397378 0.431119 0.109969
493 2 0.409983 0.451039 0.118306
494 4 0.422587 0.470959 0.126642
2480 4 0.00630793 0.0634712 0.162617
674 4 0.146986 0.0767951 0.213427
688 2 0.158493 0.0420914 0.192905
689 4 0.162221 0.0179756 0.187455
690 4 0.154765 0.0662072 0.198356
1505 4 0.181128 0.0185994 0.179794
1504 2 0.20037 0.00330992 0.175192
693 4 0.251983 0.0633762 0.196289
653 4 0.253876 0.0479673 0.18416
691 2 0.26936 0.0795493 0.204141
22 3 0.390045 0.0640958 0.221981
698 4 0.402092 0.0723092 0.237194
697 2 0.41067 0.0506086 0.246176
25 3 0.378407 0.0805258 0.190557
21 1 0.382265 0.0836893 0.212777
351 4 0.496416 0.0480856 0.208402
349 2 0.482796 0.0662196 0.21893
742 2 0.491984 0.00447654 0.242109
513 4 0.0246789 0.13894 0.235119
578 4 0.0372319 0.148781 0.247438
511 2 0.00773277 0.133999 0.21741
673 2 0.150153 0.0868243 0.236111
28 3 0.246516 0.134555 0.17577
1699 2 0.328766 0.0942898 0.21396
1701 4 0.304638 0.0917736 0.220019
692 4 0.286738 0.0957225 0.211992
1700 4 0.352893 0.0968059 0.207901
333 4 0.409621 0.0845125 0.222806
759 4 0.363555 0.0942085 0.190284
23 3 0.36256 0.0896887 0.223459
24 3 0.398249 0.100243 0.215759
770 4 0.486859 0.131494 0.16927
331 2 0.433365 0.0923469 0.222679
312 4 0.478303 0.12374 0.186295
310 2 0.487691 0.126324 0.209325
350 4 0.469177 0.0843536 0.229459
332 4 0.457109 0.100181 0.222552
311 4 0.497079 0.128909 0.232355
577 2 0.0322142 0.173244 0.24618
529 2 0.0257781 0.221969 0.208644
530 4 0.0321573 0.208858 0.228956
579 4 0.0271965 0.197706 0.244922
531 4 0.0193989 0.235081 0.188332
2483 4 0.00242429 0.243482 0.182282
372 4 0.162987 0.223914 0.168742
362 4 0.1526 0.231605 0.184046
27 3 0.261429 0.168739 0.171112
339 4 0.0539178 0.295974 0.172816
704 4 0.0392608 0.308031 0.178019
337 2 0.0752859 0.284342 0.178585
703 2 0.0304345 0.323964 0.195148
361 2 0.13844 0.252004 0.186973
363 4 0.124279 0.272402 0.1899
338 4 0.0966539 0.27271 0.184354
395 4 0.107512 0.270833 0.201074
396 4 0.0985148 0.257353 0.248382
394 2 0.103013 0.264093 0.224728
283 2 0.277789 0.260997 0.184646
284 4 0.287774 0.269053 0.206108
755 4 0.346624 0.251504 0.168238
528 4 0.436031 0.310867 0.215456
623 4 0.453143 0.269017 0.187383
527 4 0.433916 0.267513 0.190623
526 2 0.434974 0.28919 0.203039
542 4 0.444009 0.305926 0.233612
705 4 0.0216083 0.339898 0.212277
2615 4 0.0193631 0.348583 0.229968
263 4 0.0402542 0.404125 0.241053
300 4 0.100491 0.3725 0.212019
646 2 0.107697 0.390757 0.181362
648 4 0.111724 0.388407 0.205927
298 2 0.1077 0.360519 0.232748
289 2 0.224866 0.406104 0.246086
416 4 0.210358 0.400133 0.210193
290 4 0.225298 0.40706 0.221104
415 2 0.192014 0.415453 0.202846
597 4 0.386245 0.390508 0.170803
345 4 0.356946 0.360349 0.213103
596 4 0.358595 0.355818 0.193885
645 4 0.394839 0.411355 0.173602
595 2 0.37242 0.373163 0.182344
343 2 0.363748 0.367402 0.236107
1429 2 0.152429 0.460477 0.170665
1430 4 0.164427 0.441842 0.18224
417 4 0.17367 0.430773 0.1955
438 4 0.277604 0.460218 0.215076
436 2 0.279953 0.464534 0.239592
658 2 0.34 0.454577 0.174498
643 2 0.391135 0.427102 0.192667
644 4 0.387432 0.442849 0.211733
660 4 0.359265 0.459426 0.189682
231 4 0.371188 0.47372 0.188515
447 4 0.399366 0.454237 0.224215
445 2 0.415051 0.443919 0.240728
229 2 0.36762 0.493185 0.203798
1403 4 0.0275361 0.01959 0.273169
233 4 0.0305299 0.0381506 0.280028
232 2 0.0474573 0.0565032 0.278678
234 4 0.0643847 0.0748558 0.277327
1402 2 0.0381258 0.99963 0.262463
606 4 0.145132 0.0727157 0.330455
722 4 0.193948 0.0546836 0.26512
1405 2 0.235466 0.0156154 0.277954
1406 4 0.222089 0.0332911 0.266387
721 2 0.196546 0.0729091 0.282039
1518 4 0.403491 0.017474 0.259821
699 4 0.419248 0.028908 0.255158
743 4 0.488548 0.0212489 0.260331
425 4 0.495102 0.036481 0.272819
424 2 0.482265 0.0457742 0.292159
258 4 0.4498 0.0594241 0.313129
426 4 0.469428 0.0550675 0.311499
256 2 0.458039 0.0743719 0.331401
317 4 0.0551604 0.0898483 0.286536
316 2 0.0668773 0.11114 0.292413
318 4 0.0785942 0.132432 0.298291
675 4 0.153321 0.0968535 0.258795
391 2 0.0911175 0.163499 0.291898
392 4 0.0965634 0.157323 0.268289
544 2 0.118397 0.122344 0.262379
545 4 0.0993433 0.137391 0.268358
546 4 0.13745 0.107298 0.256399
723 4 0.199144 0.0911345 0.298958
599 4 0.184157 0.0899167 0.311724
403 2 0.241749 0.12019 0.298883
405 4 0.22952 0.141664 0.295076
401 4 0.232495 0.1587 0.30304
598 2 0.200242 0.099333 0.32839
404 4 0.253979 0.0987161 0.302689
521 4 0.489867 0.136777 0.250155
393 4 0.0856715 0.169675 0.315507
399 4 0.0953527 0.169959 0.332767
400 2 0.229851 0.183562 0.302803
402 4 0.227207 0.208424 0.302566
707 4 0.290694 0.208539 0.329005
763 2 0.451993 0.197373 0.306319
764 4 0.454024 0.178684 0.289834
765 4 0.449962 0.216061 0.322805
442 2 0.0769814 0.283272 0.274991
444 4 0.0694567 0.295393 0.295525
443 4 0.084506 0.271152 0.254457
497 4 0.315459 0.279432 0.3295
541 2 0.434504 0.319439 0.25238
543 4 0.424998 0.332953 0.271147
749 4 0.065078 0.340108 0.2917
366 4 0.0526033 0.35601 0.290744
365 4 0.00612533 0.369834 0.302968
364 2 0.0293643 0.362922 0.296856
602 4 0.064365 0.401279 0.32009
777 4 0.0800186 0.411429 0.312914
748 2 0.0872782 0.346576 0.282186
299 4 0.11491 0.348539 0.253476
750 4 0.109478 0.353044 0.272673
735 4 0.142829 0.398056 0.295974
733 2 0.145049 0.373941 0.289754
734 4 0.14727 0.349825 0.283534
677 4 0.154516 0.410911 0.286349
291 4 0.224435 0.405149 0.271067
414 4 0.226155 0.41738 0.286514
412 2 0.245824 0.414538 0.301688
413 4 0.265492 0.411696 0.316862
727 2 0.327922 0.395051 0.324384
728 4 0.314292 0.416007 0.32388
344 4 0.370549 0.374456 0.25911
308 4 0.359763 0.375189 0.317561
729 4 0.341551 0.374095 0.324887
615 4 0.411655 0.343606 0.28207
309 4 0.367348 0.358398 0.271072
307 2 0.363556 0.366794 0.294316
614 4 0.429853 0.343957 0.328647
613 2 0.420754 0.343782 0.305358
2924 4 0.492151 0.35609 0.319207
2923 2 0.469427 0.351538 0.328591
2862 4 0.482851 0.409604 0.277714
2860 2 0.496185 0.399411 0.259182
120 3 0.496455 0.408139 0.296533
262 2 0.0385025 0.427332 0.250192
264 4 0.0367508 0.45054 0.25933
775 2 0.0949262 0.425034 0.298153
1757 4 0.1159 0.457734 0.283011
776 4 0.109834 0.438638 0.283393
1756 2 0.106898 0.480857 0.286091
676 2 0.172526 0.427924 0.282974
678 4 0.190536 0.444936 0.2796
768 4 0.180449 0.46114 0.28598
766 2 0.191003 0.482084 0.27731
502 2 0.202204 0.427799 0.331088
503 4 0.21048 0.451276 0.328743
437 4 0.282302 0.46885 0.264108
1437 4 0.279715 0.47136 0.283533
1435 2 0.26581 0.491913 0.286599
433 2 0.301153 0.450381 0.310885
435 4 0.295576 0.46527 0.291587
434 4 0.306729 0.435492 0.330182
713 4 0.478616 0.422947 0.293047
446 4 0.430735 0.4336 0.257242
712 2 0.457679 0.432826 0.283601
714 4 0.436742 0.442704 0.274156
368 4 0.0744841 0.0655733 0.415265
731 4 0.0721135 0.0753227 0.39621
730 2 0.0962913 0.0792564 0.391195
604 2 0.136151 0.0698787 0.353617
605 4 0.127171 0.0670417 0.376779
732 4 0.120469 0.08319 0.386181
683 4 0.243259 0.0743424 0.36705
249 4 0.28659 0.0284696 0.344143
684 4 0.270551 0.0417269 0.340742
682 2 0.256905 0.0580346 0.353896
247 2 0.307148 0.0393449 0.353324
248 4 0.327705 0.0502201 0.362505
633 4 0.335177 0.0630844 0.376446
631 2 0.340378 0.0683248 0.400335
1749 4 0.489553 0.0177821 0.34164
2586 4 0.996628 0.149115 0.392358
397 2 0.103798 0.149228 0.343906
398 4 0.112243 0.128496 0.355044
600 4 0.216328 0.108749 0.345056
685 2 0.207182 0.13304 0.370138
687 4 0.203814 0.12419 0.346997
686 4 0.21055 0.141889 0.39328
410 4 0.217134 0.140054 0.411127
409 2 0.22943 0.161318 0.415799
321 4 0.251791 0.0910581 0.374109
319 2 0.261863 0.0970819 0.396187
419 4 0.357686 0.154039 0.373924
418 2 0.350102 0.141182 0.393983
420 4 0.342518 0.128325 0.414042
716 4 0.371966 0.150249 0.361508
257 4 0.466279 0.0893196 0.349673
760 2 0.484348 0.1237 0.346638
761 4 0.464484 0.108708 0.344225
515 4 0.496031 0.135399 0.418152
388 2 0.099527 0.227927 0.400062
274 2 0.150363 0.235018 0.371831
276 4 0.126817 0.242596 0.375485
389 4 0.108105 0.242323 0.381505
473 4 0.225758 0.209408 0.340983
474 4 0.188382 0.214838 0.373759
472 2 0.20707 0.212123 0.357371
708 4 0.242752 0.21929 0.338316
275 4 0.173909 0.22744 0.368177
650 4 0.251639 0.197305 0.40944
651 4 0.269064 0.237507 0.385337
649 2 0.260351 0.217406 0.397389
706 2 0.266723 0.213914 0.33366
489 4 0.269838 0.242995 0.366122
377 4 0.401186 0.206115 0.350701
717 4 0.389288 0.19221 0.340531
715 2 0.380627 0.17123 0.35102
376 2 0.387388 0.225599 0.343273
378 4 0.37359 0.245084 0.335845
1258 2 0.136713 0.315361 0.393418
1259 4 0.149923 0.331507 0.379635
1260 4 0.123503 0.299215 0.407201
509 4 0.237644 0.303559 0.361002
488 4 0.240778 0.283614 0.363592
508 2 0.233687 0.32414 0.374638
487 2 0.255308 0.263304 0.364857
584 4 0.386262 0.248831 0.413009
496 2 0.335223 0.265443 0.335736
267 4 0.342741 0.325644 0.35125
498 4 0.354986 0.251454 0.341973
266 4 0.374289 0.300676 0.380949
585 4 0.387537 0.286479 0.380119
583 2 0.386899 0.267655 0.396564
265 2 0.358515 0.31316 0.3661
269 4 0.495783 0.254301 0.33523
268 2 0.485925 0.26478 0.35568
270 4 0.476066 0.275258 0.376129
306 4 0.479604 0.266769 0.393134
601 2 0.0785086 0.393199 0.33906
407 4 0.0258265 0.412161 0.396
603 4 0.0926521 0.38512 0.35803
549 4 0.0974045 0.402273 0.368712
504 4 0.193928 0.404321 0.333434
510 4 0.22973 0.344721 0.388274
374 4 0.225359 0.362602 0.381046
373 2 0.242643 0.377703 0.371128
375 4 0.259928 0.392804 0.361209
3 3 0.276041 0.404023 0.366944
2925 4 0.446702 0.346986 0.337975
751 2 0.487508 0.408167 0.374969
119 3 0.496061 0.406578 0.334151
753 4 0.484742 0.405938 0.350219
752 4 0.490273 0.410396 0.399719
3672 4 0.0420361 0.495833 0.341578
679 2 0.0324708 0.482327 0.367744
680 4 0.0392555 0.463121 0.382244
406 2 0.0400609 0.432491 0.392958
408 4 0.0542953 0.452821 0.389916
547 2 0.106922 0.422887 0.379184
569 4 0.119282 0.435606 0.406916
548 4 0.11644 0.443502 0.389655
635 4 0.172546 0.496689 0.36428
634 2 0.185524 0.479526 0.351545
636 4 0.198502 0.462363 0.33881
5 3 0.263115 0.419458 0.335127
669 4 0.279118 0.494408 0.394037
2 3 0.299895 0.416277 0.340609
1 1 0.279646 0.420266 0.35077
668 4 0.271141 0.447884 0.377526
4 3 0.280205 0.441267 0.360621
667 2 0.27513 0.471146 0.385782
1586 4 0.298052 0.499265 0.389355
1401 4 0.338429 0.443169 0.418802
718 2 0.0425059 0.0669773 0.489191
719 4 0.0377026 0.0766594 0.466644
369 4 0.0469648 0.0611568 0.456785
367 2 0.0607244 0.063365 0.436025
341 4 0.173001 0.0702442 0.44951
441 4 0.216746 0.0110925 0.452798
2430 4 0.166067 0.0517092 0.446471
2428 2 0.182324 0.0337864 0.45277
2429 4 0.19858 0.0158637 0.459069
632 4 0.345579 0.0735651 0.424223
2878 2 0.470805 0.00974124 0.463041
2880 4 0.475517 0.0340588 0.45963
642 4 0.476019 0.0394501 0.439862
640 2 0.479847 0.06268 0.431441
340 2 0.173474 0.0904946 0.464169
1152 4 0.184284 0.128172 0.481715
342 4 0.173947 0.110745 0.478827
1150 2 0.183286 0.145783 0.499436
320 4 0.271936 0.103106 0.418265
725 4 0.274571 0.0927605 0.434847
724 2 0.277033 0.0938895 0.459703
726 4 0.279495 0.0950184 0.48456
468 4 0.335681 0.0871527 0.437698
467 4 0.368755 0.122219 0.45101
466 2 0.352218 0.104686 0.444354
574 2 0.405629 0.132252 0.435636
576 4 0.382647 0.122525 0.437178
641 4 0.483674 0.0859098 0.423021
3158 4 0.498612 0.099474 0.424295
575 4 0.428611 0.14198 0.434095
516 4 0.448268 0.143266 0.430703
514 2 0.472149 0.139332 0.424427
259 2 0.072265 0.174865 0.497734
260 4 0.0743527 0.184417 0.474722
469 2 0.0782877 0.208071 0.450642
471 4 0.06111 0.196443 0.464603
390 4 0.0909484 0.213532 0.41862
470 4 0.0954654 0.219698 0.436681
411 4 0.241726 0.182581 0.420471
2455 2 0.411342 0.228479 0.433034
2457 4 0.416921 0.211556 0.450574
2456 4 0.405763 0.245402 0.415493
616 2 0.0154025 0.278211 0.43061
617 4 0.0377041 0.289512 0.430269
695 4 0.0978626 0.254482 0.433853
694 2 0.105989 0.277701 0.429376
696 4 0.114116 0.300919 0.424899
878 4 0.1113 0.28337 0.499477
304 2 0.477234 0.265636 0.417999
1010 4 0.449844 0.317906 0.478867
1009 2 0.461815 0.298848 0.467973
1011 4 0.473786 0.27979 0.457078
305 4 0.474863 0.264502 0.442864
709 2 0.126418 0.414951 0.482292
326 4 0.106471 0.366605 0.436311
325 2 0.129128 0.36535 0.44681
327 4 0.151786 0.364094 0.45731
8 3 0.16115 0.390115 0.489714
9 3 0.153212 0.353595 0.496619
711 4 0.145318 0.402749 0.493204
7 3 0.170084 0.363644 0.464572
6 1 0.168445 0.36825 0.48705
10 3 0.188884 0.365642 0.496751
334 2 0.336898 0.413697 0.437844
335 4 0.350451 0.399213 0.453066
238 2 0.348784 0.391684 0.493911
240 4 0.356708 0.399921 0.471672
560 4 0.500687 0.373627 0.446698
2507 4 0.463272 0.333281 0.481982
561 4 0.500067 0.41406 0.417278
559 2 0.500377 0.393843 0.431988
2506 2 0.47233 0.351777 0.467804
2508 4 0.481387 0.370273 0.453625
540 4 0.0423172 0.474005 0.476976
1381 2 0.00797833 0.444837 0.478606
1382 4 0.0253728 0.462356 0.474642
710 4 0.107518 0.427152 0.471379
773 4 0.12198 0.497477 0.477479
570 4 0.116288 0.439135 0.456709
568 2 0.117785 0.437371 0.431813
1394 4 0.238253 0.497454 0.48868
1393 2 0.228775 0.501335 0.465871
1446 4 0.241755 0.476786 0.489348
588 4 0.31993 0.496326 0.445598
336 4 0.323344 0.42818 0.422622
1400 4 0.326044 0.490956 0.426781
1399 2 0.332237 0.467063 0.422791
1127 4 0.0320533 0.0634759 0.523336
720 4 0.0473092 0.0572952 0.511737
1126 2 0.0149784 0.0510648 0.536737
1031 4 0.164729 0.0830779 0.539164
949 2 0.196287 0.0696123 0.558605
950 4 0.214668 0.0720965 0.575374
1182 4 0.234492 0.0758731 0.572402
951 4 0.177907 0.0671281 0.541837
1180 2 0.248477 0.0563665 0.565396
963 4 0.273643 0.020885 0.559132
1181 4 0.262463 0.0368599 0.55839
961 2 0.288146 0.000743233 0.562159
1216 2 0.378838 0.0582942 0.515538
1217 4 0.37233 0.0755747 0.532397
842 4 0.359791 0.0657835 0.545758
1218 4 0.385346 0.0410137 0.49868
841 2 0.340355 0.0807308 0.550658
810 4 0.483904 0.0716031 0.566786
1035 4 0.0627857 0.134634 0.569963
261 4 0.0701772 0.165314 0.520747
1033 2 0.0699142 0.153199 0.554807
1030 2 0.145272 0.0955388 0.548722
1032 4 0.125816 0.108 0.55828
1154 4 0.112139 0.0979503 0.568182
1151 4 0.182288 0.163395 0.517156
939 4 0.178001 0.169456 0.534662
843 4 0.320919 0.0956781 0.555558
431 4 0.315064 0.105813 0.539828
430 2 0.297873 0.103352 0.521839
432 4 0.280683 0.100891 0.50385
857 4 0.345862 0.133577 0.58323
899 4 0.357723 0.131404 0.567187
898 2 0.373849 0.149919 0.562461
808 2 0.498985 0.0899802 0.559039
1034 4 0.0770427 0.171765 0.539651
1272 4 0.112683 0.226075 0.538522
1270 2 0.117687 0.222936 0.562818
879 4 0.109712 0.243196 0.529212
937 2 0.173272 0.171453 0.559133
900 4 0.389975 0.168433 0.557735
872 4 0.389497 0.188677 0.55653
873 4 0.370059 0.234162 0.549185
871 2 0.379778 0.21142 0.552858
813 4 0.359021 0.236778 0.565132
877 2 0.110506 0.263283 0.514344
1239 4 0.268472 0.266408 0.562835
1205 4 0.403424 0.300145 0.56344
1204 2 0.378863 0.304657 0.564697
1206 4 0.354302 0.309169 0.565955
930 4 0.346018 0.328651 0.570655
954 4 0.413599 0.28461 0.571701
952 2 0.433501 0.272414 0.580664
1041 4 0.0714929 0.414659 0.581561
896 4 0.185306 0.35755 0.516926
897 4 0.183936 0.352986 0.566706
895 2 0.184621 0.355268 0.541816
1191 4 0.20704 0.361404 0.509092
1189 2 0.232007 0.361864 0.51037
928 2 0.330248 0.347547 0.566248
802 2 0.292445 0.364364 0.530027
804 4 0.309718 0.375042 0.544615
929 4 0.314478 0.366443 0.561841
803 4 0.275172 0.353685 0.515439
1190 4 0.256973 0.362323 0.511649
239 4 0.340861 0.383447 0.516149
1001 4 0.461256 0.387295 0.546221
926 4 0.480909 0.387786 0.542687
925 2 0.491082 0.370511 0.527744
1000 2 0.46564 0.396974 0.568855
1938 4 0.0453314 0.474325 0.576499
1936 2 0.0535963 0.482151 0.554237
1937 4 0.0618612 0.489977 0.531974
539 4 0.043073 0.487955 0.524992
538 2 0.0426951 0.48098 0.500984
382 2 0.12754 0.495601 0.519676
383 4 0.127802 0.487894 0.54346
2244 4 0.139804 0.499511 0.553925
2242 2 0.152728 0.499443 0.575329
1171 2 0.243547 0.459937 0.576413
1173 4 0.218857 0.461835 0.579878
882 4 0.286911 0.4631 0.573697
880 2 0.292399 0.461584 0.549351
881 4 0.297888 0.460068 0.525004
1445 4 0.28053 0.469084 0.519973
1444 2 0.261142 0.472935 0.50466
1172 4 0.268236 0.458039 0.572949
1455 4 0.333767 0.496848 0.555265
1953 4 0.341701 0.494581 0.573613
1185 4 0.0187476 0.0378615 0.646936
1058 4 0.0782229 0.0133253 0.63493
945 4 0.0220368 0.0422122 0.665636
1057 2 0.0847479 0.0362468 0.627367
1155 4 0.098031 0.0643903 0.602465
1059 4 0.0912728 0.0591683 0.619803
1153 2 0.105085 0.0811703 0.585324
825 4 0.0931708 0.00248462 0.641236
1005 4 0.303005 0.074934 0.603787
1003 2 0.304502 0.0818703 0.627763
2282 4 0.480455 0.0182831 0.607532
2281 2 0.461759 0.00836275 0.59422
43 3 0.476038 0.0362629 0.602336
41 1 0.47888 0.0589102 0.60651
44 3 0.458606 0.0684637 0.612517
45 3 0.487155 0.0692478 0.587982
42 3 0.49374 0.0614621 0.623883
1163 4 0.501394 0.0676023 0.64104
1082 4 0.0579865 0.138764 0.588185
1081 2 0.037225 0.14291 0.601488
1083 4 0.0164635 0.147055 0.61479
1221 4 0.140998 0.100905 0.651085
1219 2 0.159682 0.110978 0.637869
1220 4 0.178365 0.121051 0.624654
1212 4 0.196579 0.118916 0.629384
1210 2 0.21946 0.12741 0.634812
1211 4 0.242342 0.135903 0.640241
856 2 0.325323 0.143194 0.593758
1004 4 0.305999 0.0888067 0.651738
858 4 0.304783 0.152811 0.604285
888 4 0.261011 0.13473 0.64884
886 2 0.280102 0.124426 0.661272
830 4 0.311756 0.0994894 0.668605
1143 4 0.374746 0.14798 0.651942
1025 4 0.373457 0.167283 0.654532
1141 2 0.356585 0.136759 0.664959
938 4 0.168542 0.17345 0.583604
1271 4 0.12269 0.219798 0.587114
909 4 0.139284 0.206943 0.588705
907 2 0.147886 0.218817 0.608958
908 4 0.156488 0.230691 0.629211
947 4 0.158135 0.230215 0.64854
946 2 0.175491 0.246144 0.656919
812 4 0.330036 0.231291 0.605511
798 4 0.316132 0.219061 0.609157
796 2 0.307923 0.195521 0.607251
797 4 0.299714 0.17198 0.605345
811 2 0.344529 0.234034 0.585321
1024 2 0.382376 0.177787 0.633667
1026 4 0.391294 0.18829 0.612803
905 4 0.46769 0.24666 0.590718
948 4 0.192848 0.262073 0.665298
1237 2 0.283373 0.277187 0.579775
792 4 0.318309 0.293269 0.599294
790 2 0.325115 0.30888 0.617601
1238 4 0.298273 0.287966 0.596715
791 4 0.33192 0.324491 0.635908
1064 4 0.25578 0.290573 0.668146
953 4 0.453404 0.260218 0.589627
904 2 0.491145 0.25532 0.590872
984 4 0.0105271 0.39579 0.586417
983 4 0.0603497 0.399267 0.588933
982 2 0.0354384 0.397528 0.587675
3263 4 0.0026322 0.402344 0.605009
893 4 0.129141 0.352461 0.667389
992 4 0.163723 0.412911 0.602339
1137 4 0.182072 0.359597 0.585545
1135 2 0.181504 0.381996 0.596643
1136 4 0.180937 0.404395 0.60774
1910 4 0.450449 0.405152 0.596774
1002 4 0.470025 0.406653 0.591488
934 2 0.00521219 0.479627 0.586724
936 4 0.029006 0.472132 0.585037
1039 2 0.0892862 0.432014 0.584276
991 2 0.14243 0.425269 0.597971
993 4 0.121137 0.437626 0.593603
1040 4 0.107079 0.44937 0.586991
1160 4 0.220146 0.477789 0.592041
1159 2 0.200873 0.492874 0.597157
2172 4 0.193362 0.48439 0.668764
2243 4 0.165652 0.499376 0.596734
1269 4 0.407661 0.472227 0.668582
890 4 0.387948 0.478215 0.671468
1951 2 0.346675 0.500585 0.597369
889 2 0.376552 0.490899 0.653182
1267 2 0.415161 0.453676 0.653588
1911 4 0.441472 0.436822 0.634418
1909 2 0.44596 0.420987 0.615596
1268 4 0.42266 0.435126 0.638594
943 2 0.0390148 0.0442974 0.683872
1076 4 0.059218 0.0287939 0.710999
944 4 0.0559929 0.0463826 0.702109
1075 2 0.0703291 0.0313315 0.733254
1283 4 0.159164 0.0637729 0.710776
1203 4 0.101049 0.0362842 0.748611
1282 2 0.167615 0.0816654 0.72606
1113 4 0.471831 0.00808616 0.745346
1105 2 0.0487108 0.165449 0.744493
32 3 0.102619 0.139573 0.735116
1284 4 0.176067 0.0995578 0.741344
1227 4 0.187519 0.115641 0.736585
887 4 0.299193 0.114123 0.673704
829 2 0.319299 0.102794 0.692213
831 4 0.326841 0.106098 0.715822
1142 4 0.338425 0.125538 0.677976
851 4 0.0167823 0.18306 0.742461
1107 4 0.033002 0.180456 0.732115
1208 4 0.0825707 0.24258 0.707301
850 2 0.00210804 0.201693 0.734545
822 4 0.137484 0.205725 0.702739
1278 4 0.148497 0.204223 0.719685
820 2 0.118574 0.220614 0.709515
821 4 0.0996642 0.235502 0.716291
1276 2 0.1597 0.198444 0.741279
976 2 0.289036 0.205356 0.73843
977 4 0.294965 0.22391 0.722753
916 2 0.316261 0.243424 0.706468
918 4 0.314012 0.221986 0.719139
3122 4 0.47764 0.239979 0.670772
3121 2 0.457771 0.23739 0.685728
3123 4 0.437901 0.234801 0.700685
1145 4 0.457714 0.205519 0.742692
3357 4 0.495396 0.230984 0.676733
3188 4 0.0214771 0.264059 0.738713
1207 2 0.0675352 0.261807 0.701874
1209 4 0.0524997 0.281033 0.696448
1244 4 0.0350535 0.284583 0.705567
1243 2 0.010285 0.287441 0.703687
1063 2 0.233928 0.278425 0.66837
1065 4 0.212075 0.266277 0.668593
1240 2 0.233314 0.300733 0.730622
1241 4 0.238827 0.306579 0.706945
917 4 0.318511 0.264862 0.693797
1097 4 0.300563 0.272908 0.697719
1096 2 0.283858 0.288313 0.687288
1098 4 0.267152 0.303717 0.676857
1008 4 0.341471 0.254315 0.724411
1006 2 0.36542 0.256924 0.731103
1007 4 0.38937 0.259533 0.737796
1194 4 0.446398 0.274995 0.750344
1192 2 0.436317 0.297834 0.751735
894 4 0.0827853 0.345499 0.684807
1279 2 0.0474213 0.360708 0.705043
3275 4 0.0382745 0.381764 0.734712
1280 4 0.0306011 0.36684 0.722498
1281 4 0.0642415 0.354577 0.687589
3274 2 0.0503246 0.397289 0.750169
892 2 0.105963 0.34898 0.676098
1028 4 0.234151 0.369036 0.69205
1068 4 0.2181 0.357177 0.692844
1067 4 0.190456 0.366177 0.733532
1066 2 0.204278 0.361677 0.713188
1029 4 0.274605 0.388452 0.669977
1139 4 0.290568 0.395022 0.681154
1027 2 0.254378 0.378744 0.681014
1138 2 0.300386 0.417874 0.68372
1229 4 0.357791 0.383642 0.701928
1228 2 0.367873 0.406438 0.703895
2020 2 0.043421 0.498702 0.695256
2022 4 0.0318785 0.486838 0.676516
1140 4 0.310205 0.440725 0.686287
1989 4 0.304198 0.456736 0.696254
1987 2 0.297807 0.458084 0.72039
1988 4 0.291416 0.459432 0.744525
1230 4 0.377955 0.429234 0.705862
1100 4 0.458578 0.491694 0.730504
862 2 0.0465183 0.0787686 0.818158
864 4 0.0624452 0.0641466 0.830716
1077 4 0.0814401 0.0338691 0.755509
1202 4 0.12347 0.0135154 0.787077
1201 2 0.11226 0.0248998 0.767844
2049 4 0.137382 0.00453359 0.776466
1147 2 0.213978 0.0571165 0.803917
1149 4 0.235244 0.0445932 0.807928
1148 4 0.192712 0.0696398 0.799905
1049 4 0.254425 0.0501175 0.807246
1048 2 0.269661 0.0344554 0.819401
1050 4 0.284896 0.0187932 0.831557
818 4 0.369354 0.0669472 0.803935
965 4 0.371839 0.0644647 0.822843
846 4 0.484574 0.0171192 0.757258
844 2 0.499257 0.0317657 0.771225
35 3 0.0819026 0.159273 0.759108
3387 4 0.00834535 0.0986433 0.757544
1106 4 0.0644197 0.150442 0.75687
832 2 0.0475783 0.120634 0.779337
863 4 0.0305913 0.0933906 0.8056
833 4 0.0302337 0.109113 0.793179
33 3 0.0812625 0.121646 0.760319
834 4 0.0649229 0.132156 0.765495
31 1 0.0944014 0.140403 0.756585
34 3 0.112229 0.14067 0.771435
1073 4 0.124266 0.156983 0.775664
1225 2 0.187371 0.122517 0.760624
1226 4 0.187223 0.129394 0.784663
840 4 0.203331 0.131261 0.7979
838 2 0.225777 0.13351 0.808683
839 4 0.248224 0.135759 0.819466
959 4 0.259275 0.152473 0.821011
819 4 0.335983 0.103534 0.79697
817 2 0.352669 0.0852408 0.800452
1084 2 0.346742 0.137105 0.821367
1085 4 0.337994 0.115486 0.812352
1086 4 0.355489 0.158724 0.830382
1146 4 0.479593 0.163129 0.757697
3270 4 0.490298 0.154215 0.77478
153 3 0.00372083 0.234738 0.81012