ITEM: TIMESTEP
2030000
ITEM: NUMBER OF ATOMS
4590
ITEM: BOX BOUNDS pp pp pp
-9.9985700000000008e+00 9.9985700000000008e+00
-9.9985700000000008e+00 9.9985700000000008e+00
-9.9985700000000008e+00 9.9985700000000008e+00
ITEM: ATOMS id type xs ys zs
1668 4 0.0619166 0.0440809 0.0472231
1666 2 0.0570709 0.0263138 0.0641354
3290 4 0.0818143 0.0274789 0.00267316
566 4 0.169798 0.0216032 0.0428783
565 2 0.179689 0.0444847 0.0448255
567 4 0.189579 0.0673663 0.0467728
492 4 0.262994 0.022695 0.061083
1475 4 0.262329 0.0263707 0.0806151
490 2 0.274556 0.022595 0.0389134
491 4 0.286118 0.022495 0.0167439
2264 4 0.313236 0.0734919 0.99765
296 4 0.395105 0.060123 0.083733
2144 4 0.355718 0.00909317 0.992819
745 2 0.465004 0.047108 0.0344923
2724 4 0.500734 0.0544431 0.0593423
747 4 0.482249 0.0559267 0.0503042
2722 2 0.491824 0.0617746 0.0815241
746 4 0.447759 0.0382892 0.0186804
2469 4 0.509299 0.0878877 0.0221252
701 4 0.0688505 0.110563 0.991231
700 2 0.0624419 0.131035 0.00407706
702 4 0.0560334 0.151507 0.0169229
358 2 0.226143 0.160582 0.0253158
359 4 0.247177 0.15275 0.036335
665 4 0.352699 0.160593 0.0142159
555 4 0.0424864 0.167367 0.0216808
553 2 0.0347937 0.189118 0.0120418
422 4 0.111864 0.193827 0.0401077
421 2 0.111131 0.184036 0.0171125
423 4 0.110399 0.174245 0.994117
360 4 0.20511 0.168415 0.0142965
737 4 0.20773 0.223811 0.0517307
736 2 0.220619 0.204455 0.0609167
738 4 0.233509 0.185099 0.0701027
666 4 0.339368 0.205494 0.996697
664 2 0.346033 0.183044 0.00545662
1069 2 0.374102 0.235997 0.00732393
1071 4 0.358947 0.254131 0.99916
2807 4 0.99901 0.287582 0.0211314
292 2 0.168704 0.315952 0.054702
506 4 0.218167 0.241091 0.0545544
507 4 0.203534 0.28883 0.0518123
293 4 0.188061 0.300221 0.0529703
505 2 0.21085 0.264961 0.0531833
481 2 0.29963 0.276829 0.00624758
482 4 0.304635 0.295478 0.0221322
483 4 0.294625 0.258179 0.990363
573 4 0.356198 0.268214 0.0129654
571 2 0.365227 0.284532 0.0296201
572 4 0.374255 0.30085 0.0462748
741 4 0.357258 0.293903 0.0847719
255 4 0.346567 0.278329 0.0847459
323 4 0.440399 0.253518 0.0699807
324 4 0.470088 0.279453 0.0392128
322 2 0.455243 0.266485 0.0545967
315 4 0.0473647 0.397934 0.0830792
294 4 0.149347 0.331684 0.0564337
456 4 0.130171 0.323079 0.0576752
454 2 0.122661 0.346906 0.0586933
455 4 0.11515 0.370734 0.0597113
608 4 0.243126 0.384326 0.0610675
607 2 0.238332 0.363957 0.0747532
609 4 0.233537 0.343588 0.088439
252 4 0.25207 0.380554 0.0450223
250 2 0.274369 0.391102 0.0409427
251 4 0.296669 0.40165 0.0368631
524 4 0.306221 0.420364 0.0356814
226 2 0.399294 0.389229 0.0226058
228 4 0.382185 0.395265 0.0398109
227 4 0.416404 0.383194 0.00540079
670 2 0.40712 0.35958 0.0731956
1305 4 0.429479 0.370402 0.998639
671 4 0.416986 0.340882 0.0598452
281 4 0.434388 0.349842 0.0515367
280 2 0.458449 0.343799 0.0484137
282 4 0.48251 0.337757 0.0452906
104 3 0.491009 0.342635 0.0632835
1045 2 0.493963 0.33512 0.00786688
1047 4 0.4935 0.327135 0.0315568
313 2 0.0385464 0.420572 0.0771679
552 4 0.0152232 0.445259 0.0580027
314 4 0.0297281 0.44321 0.0712566
550 2 0.998236 0.448477 0.0399396
244 2 0.23532 0.475098 0.0100896
243 4 0.223506 0.495203 0.0560337
245 4 0.217622 0.457697 0.0131146
242 4 0.176638 0.507581 0.0437487
241 2 0.200072 0.501392 0.0498912
1440 4 0.238178 0.487016 0.066732
523 2 0.324292 0.42467 0.0524162
272 4 0.252198 0.50037 0.0740132
246 4 0.253018 0.4925 0.00706458
37 3 0.342675 0.475191 0.0137338
525 4 0.342364 0.428976 0.0691509
1667 4 0.0522252 0.00854659 0.0810477
1422 4 0.0183174 0.0100807 0.149837
2480 4 0.0127037 0.0157884 0.131498
18 3 0.0665515 0.0161752 0.126698
19 3 0.0317967 0.00203381 0.132743
17 3 0.0475742 0.999778 0.098704
2479 2 0.00595086 0.0362301 0.118781
652 2 0.234592 0.0558343 0.148416
654 4 0.240993 0.0599342 0.124596
1474 2 0.275905 0.0294616 0.101383
1476 4 0.289481 0.0325525 0.122152
297 4 0.365307 0.0213292 0.0941168
295 2 0.380206 0.0407261 0.0889249
485 4 0.358258 0.00415907 0.10316
557 4 0.406417 0.0756649 0.0889858
484 2 0.354271 0.991173 0.124151
1760 4 0.49093 0.0126879 0.159761
2723 4 0.482914 0.0691061 0.103706
235 2 0.138149 0.154169 0.146981
236 4 0.153398 0.139605 0.160416
556 2 0.409191 0.100368 0.0916732
771 4 0.42546 0.137817 0.102127
558 4 0.411965 0.125072 0.0943606
769 2 0.444095 0.13207 0.117776
770 4 0.462731 0.126323 0.133424
338 4 0.0289474 0.243109 0.141568
237 4 0.1229 0.168734 0.133546
354 4 0.231982 0.168511 0.0806621
476 4 0.193555 0.18576 0.155385
477 4 0.224085 0.212982 0.126617
475 2 0.20882 0.199371 0.141001
352 2 0.248364 0.175824 0.0980784
353 4 0.264746 0.183138 0.115495
461 4 0.281152 0.190523 0.126234
460 2 0.302451 0.197945 0.115442
462 4 0.323749 0.205367 0.104651
279 4 0.265695 0.252521 0.162009
254 4 0.38397 0.245337 0.081104
630 4 0.395834 0.232353 0.0910573
628 2 0.407959 0.230023 0.1128
624 4 0.423651 0.230037 0.154131
629 4 0.420083 0.227693 0.134543
337 2 0.0465327 0.259983 0.147154
339 4 0.0641179 0.276857 0.152741
612 4 0.244283 0.33027 0.100635
610 2 0.250558 0.306074 0.101277
611 4 0.256832 0.281879 0.10192
755 4 0.285787 0.269041 0.109648
278 4 0.267243 0.269543 0.115013
277 2 0.266469 0.261032 0.138511
754 2 0.310137 0.271751 0.104657
739 2 0.341063 0.31259 0.0884778
253 2 0.365268 0.261833 0.0829249
756 4 0.334487 0.274462 0.0996654
527 4 0.44566 0.280996 0.162779
2840 4 0.507334 0.303255 0.10075
619 2 0.0765667 0.389612 0.107067
621 4 0.0611256 0.406089 0.0963321
647 4 0.0792414 0.385095 0.146944
620 4 0.0920077 0.373134 0.117803
537 4 0.106247 0.384944 0.123714
535 2 0.127744 0.372349 0.121613
536 4 0.149241 0.359754 0.119512
386 4 0.315088 0.344906 0.104265
385 2 0.328537 0.365451 0.10898
740 4 0.324869 0.331276 0.0921838
387 4 0.341986 0.385995 0.113695
302 4 0.338783 0.398993 0.130683
12 3 0.382945 0.377708 0.100141
11 1 0.381968 0.386771 0.121262
15 3 0.360169 0.389027 0.127455
672 4 0.397254 0.378278 0.086546
14 3 0.392314 0.407539 0.120998
13 3 0.392965 0.372629 0.136008
597 4 0.384442 0.364715 0.153871
301 2 0.341383 0.4147 0.149963
645 4 0.388918 0.387378 0.151459
626 4 0.179934 0.445602 0.117483
1438 2 0.235722 0.47144 0.0861366
625 2 0.201065 0.447767 0.130674
1439 4 0.233266 0.455864 0.105541
638 4 0.227601 0.449369 0.163569
637 2 0.238762 0.471715 0.162429
627 4 0.222195 0.449932 0.143865
495 4 0.398999 0.425111 0.128269
1559 4 0.336848 0.485419 0.105765
493 2 0.417052 0.434483 0.113728
659 4 0.331463 0.444223 0.174299
494 4 0.435104 0.443856 0.0991869
1583 4 0.494001 0.476522 0.119264
1582 2 0.478394 0.490916 0.106058
1420 2 0.0096493 0.00164949 0.171722
674 4 0.15594 0.0101336 0.251672
450 4 0.146929 0.0784085 0.171805
673 2 0.139652 0.0291002 0.251284
690 4 0.173668 0.0134017 0.242572
688 2 0.18326 0.0077082 0.220194
653 4 0.22819 0.0517344 0.172236
693 4 0.243518 0.0561115 0.185668
691 2 0.266225 0.0529394 0.195644
692 4 0.288931 0.0497673 0.20562
1699 2 0.307075 0.0589057 0.23254
1701 4 0.285012 0.050101 0.224738
1700 4 0.329138 0.0677104 0.240342
21 1 0.365056 0.0722111 0.227846
25 3 0.374223 0.0773346 0.207638
23 3 0.341995 0.0746075 0.226915
22 3 0.370057 0.0503864 0.23312
2744 4 0.508803 0.020715 0.160506
743 4 0.489939 0.0245596 0.260917
511 2 0.00773015 0.120634 0.216872
578 4 0.0362518 0.148543 0.234244
513 4 0.0262779 0.132895 0.22831
577 2 0.0438288 0.171956 0.229817
449 4 0.148035 0.128239 0.17586
448 2 0.147482 0.103324 0.173833
28 3 0.23848 0.143147 0.184955
27 3 0.224743 0.137518 0.219484
546 4 0.174242 0.121326 0.253355
26 1 0.243206 0.134721 0.206052
580 2 0.28343 0.110751 0.180655
581 4 0.26015 0.105711 0.188261
30 3 0.248156 0.112537 0.204629
582 4 0.306709 0.115791 0.173049
29 3 0.26107 0.146237 0.215362
758 4 0.326333 0.114202 0.175182
24 3 0.373806 0.086088 0.244256
759 4 0.364432 0.0875463 0.193587
757 2 0.345382 0.100874 0.184385
312 4 0.426907 0.132124 0.201018
311 4 0.464842 0.15565 0.223562
310 2 0.445875 0.143887 0.21229
529 2 0.0159034 0.220392 0.230415
530 4 0.0390004 0.211039 0.228363
579 4 0.0514058 0.195369 0.22539
372 4 0.14463 0.234553 0.189768
362 4 0.127851 0.236337 0.176413
370 2 0.168045 0.227657 0.195189
371 4 0.19146 0.220762 0.20061
284 4 0.28395 0.231388 0.223748
283 2 0.281793 0.239712 0.20027
285 4 0.279636 0.248037 0.176792
521 4 0.480876 0.162196 0.235963
520 2 0.501489 0.168458 0.223271
764 4 0.467699 0.169053 0.250066
396 4 0.0687237 0.312421 0.20722
443 4 0.0656227 0.311558 0.22705
394 2 0.0734729 0.299756 0.186191
395 4 0.0782222 0.287091 0.165162
363 4 0.100977 0.275364 0.192394
361 2 0.114414 0.25585 0.184404
345 4 0.253205 0.346748 0.233113
343 2 0.273233 0.340125 0.246536
596 4 0.370298 0.318375 0.166249
622 2 0.436831 0.248343 0.164917
623 4 0.45001 0.266649 0.175704
526 2 0.460079 0.297072 0.175381
528 4 0.474498 0.313149 0.187983
264 4 0.0270457 0.414455 0.200032
646 2 0.085748 0.377906 0.169991
648 4 0.0922546 0.370716 0.193038
300 4 0.100246 0.352799 0.1979
298 2 0.0976354 0.351728 0.222743
299 4 0.0950246 0.350656 0.247587
595 2 0.37737 0.341545 0.16006
643 2 0.397946 0.394185 0.17376
644 4 0.406973 0.400992 0.196061
447 4 0.404894 0.39046 0.212025
445 2 0.418433 0.403171 0.228768
2861 4 0.486791 0.414627 0.224941
262 2 0.0395254 0.430098 0.215024
263 4 0.0520051 0.44574 0.230015
289 2 0.232731 0.433006 0.232525
417 4 0.172622 0.482911 0.187225
290 4 0.222445 0.441849 0.211521
416 4 0.208712 0.455804 0.208753
415 2 0.190667 0.469357 0.197989
768 4 0.193822 0.459044 0.246873
303 4 0.343982 0.430408 0.169243
658 2 0.339894 0.464266 0.186643
660 4 0.348326 0.484308 0.198987
231 4 0.35744 0.481467 0.216443
446 4 0.431972 0.415881 0.245511
232 2 0.0433464 0.0301773 0.291348
234 4 0.0501095 0.053688 0.296514
317 4 0.0434187 0.0662871 0.281451
233 4 0.0365832 0.00666657 0.286182
318 4 0.0658978 0.095874 0.247984
316 2 0.0546583 0.0810805 0.264717
675 4 0.123364 0.0480668 0.250895
1406 4 0.222216 0.0073367 0.280652
1405 2 0.231377 0.992574 0.298632
684 4 0.250884 0.0501076 0.342252
698 4 0.377206 0.0531277 0.250662
697 2 0.372246 0.0340079 0.265992
699 4 0.367287 0.014888 0.281322
333 4 0.384847 0.0726244 0.252996
331 2 0.407454 0.0775419 0.262479
742 2 0.487871 0.00091893 0.268792
351 4 0.484676 0.0420245 0.254116
349 2 0.466182 0.0567141 0.262325
350 4 0.447689 0.0714036 0.270535
391 2 0.144898 0.148698 0.318489
392 4 0.158214 0.156595 0.298855
545 4 0.169601 0.161255 0.283101
544 2 0.171921 0.14129 0.268228
723 4 0.228666 0.0852767 0.257836
721 2 0.206491 0.087479 0.269175
722 4 0.184316 0.0896814 0.280515
599 4 0.214263 0.130175 0.306334
404 4 0.218271 0.143333 0.291745
598 2 0.197151 0.134459 0.324054
403 2 0.228528 0.155516 0.272469
405 4 0.238785 0.167698 0.253193
707 4 0.27648 0.164418 0.354841
762 4 0.42372 0.11474 0.29589
332 4 0.430061 0.0824595 0.271961
761 4 0.47107 0.129308 0.302706
760 2 0.447395 0.122024 0.299298
257 4 0.49187 0.0898275 0.340254
401 4 0.242588 0.186612 0.250868
402 4 0.221007 0.230375 0.261813
400 2 0.231797 0.208494 0.25634
765 4 0.433224 0.19647 0.273741
763 2 0.450461 0.182762 0.261903
442 2 0.0544888 0.306778 0.248921
444 4 0.043355 0.301997 0.270793
496 2 0.338376 0.290418 0.314253
309 4 0.295785 0.322597 0.276114
344 4 0.293261 0.333502 0.25996
497 4 0.358703 0.293704 0.300067
613 2 0.40697 0.318249 0.315613
541 2 0.455955 0.286395 0.300023
542 4 0.479463 0.281054 0.293391
615 4 0.422653 0.308588 0.298704
543 4 0.432446 0.291736 0.306656
749 4 0.0573071 0.35652 0.285935
365 4 0.010765 0.338362 0.32319
364 2 0.0257804 0.341255 0.303407
366 4 0.0407958 0.344147 0.283625
748 2 0.0788793 0.348495 0.276167
735 4 0.15922 0.349825 0.295088
734 4 0.119071 0.334382 0.269587
750 4 0.100451 0.340469 0.266399
733 2 0.139145 0.342103 0.282338
602 4 0.112365 0.393817 0.317837
777 4 0.12203 0.399605 0.302337
676 2 0.160824 0.372949 0.324729
677 4 0.153768 0.350732 0.315682
413 4 0.242725 0.409271 0.310915
678 4 0.167879 0.395165 0.333776
307 2 0.300266 0.332037 0.298829
727 2 0.319834 0.380301 0.315578
728 4 0.32271 0.403216 0.305999
308 4 0.304747 0.341476 0.321544
729 4 0.316957 0.357385 0.325158
2 3 0.318641 0.420444 0.320399
614 4 0.391287 0.327909 0.332521
2924 4 0.49614 0.387955 0.310459
1757 4 0.13292 0.454005 0.292473
776 4 0.118306 0.444892 0.281457
775 2 0.120168 0.422249 0.291897
1756 2 0.132864 0.477177 0.283081
1758 4 0.132808 0.50035 0.273689
766 2 0.186013 0.481802 0.253675
412 2 0.236364 0.411152 0.286807
414 4 0.230003 0.413033 0.2627
291 4 0.243017 0.424163 0.253529
1436 4 0.246515 0.48493 0.327307
434 4 0.335926 0.42096 0.305866
1435 2 0.25837 0.469474 0.31163
438 4 0.313685 0.442812 0.249513
437 4 0.289563 0.452275 0.292283
436 2 0.301624 0.447544 0.270898
1437 4 0.270225 0.454018 0.295953
5 3 0.295188 0.447852 0.310826
1 1 0.299375 0.431589 0.326209
433 2 0.353992 0.437763 0.309923
435 4 0.372058 0.454566 0.31398
2860 2 0.483849 0.420943 0.248955
2862 4 0.480908 0.42726 0.272968
120 3 0.488485 0.440509 0.286273
714 4 0.430922 0.4309 0.25942
713 4 0.426811 0.419693 0.307982
712 2 0.428867 0.425297 0.283701
429 4 0.065949 0.0041246 0.348086
428 4 0.045235 0.0378509 0.378651
427 2 0.055592 0.0209878 0.363368
606 4 0.148513 0.00251291 0.370653
730 2 0.106836 0.0748887 0.41015
604 2 0.155481 0.0264126 0.372984
605 4 0.162449 0.0503122 0.375315
683 4 0.216525 0.042393 0.377757
682 2 0.233704 0.0462503 0.360004
249 4 0.328836 0.0667621 0.373363
247 2 0.343411 0.0841729 0.362893
1749 4 0.48435 0.997026 0.349601
1747 2 0.461516 0.987805 0.345268
424 2 0.443378 0.0439287 0.370097
426 4 0.443783 0.0687965 0.372668
425 4 0.442973 0.0190609 0.367526
393 4 0.131583 0.140801 0.338124
399 4 0.124499 0.139074 0.356203
732 4 0.121897 0.0900769 0.397201
398 4 0.130752 0.0956149 0.380138
397 2 0.127625 0.117345 0.368171
321 4 0.231122 0.0931007 0.387839
686 4 0.206947 0.130452 0.397355
600 4 0.180038 0.138744 0.341774
685 2 0.190896 0.135839 0.378956
687 4 0.174846 0.141226 0.360556
319 2 0.236347 0.0922047 0.412274
410 4 0.227609 0.133457 0.396758
409 2 0.2446 0.150665 0.403113
706 2 0.256763 0.17978 0.35418
248 4 0.357986 0.101584 0.352423
633 4 0.373273 0.0976101 0.364464
632 4 0.391643 0.143618 0.357645
631 2 0.382458 0.120614 0.361054
420 4 0.384774 0.152261 0.374249
468 4 0.373362 0.0917073 0.399044
258 4 0.445754 0.0850445 0.358993
256 2 0.468812 0.087436 0.349623
516 4 0.454167 0.166638 0.424183
274 2 0.157771 0.225486 0.362762
390 4 0.0754948 0.232068 0.368758
388 2 0.100247 0.234142 0.371622
389 4 0.124999 0.236216 0.374487
473 4 0.227092 0.195977 0.336816
275 4 0.182146 0.230256 0.359881
474 4 0.187371 0.226204 0.339866
472 2 0.207232 0.211091 0.338341
708 4 0.237046 0.195142 0.353519
489 4 0.235228 0.243726 0.391301
411 4 0.26159 0.167873 0.409469
717 4 0.336504 0.251667 0.382031
377 4 0.317022 0.256031 0.382427
418 2 0.369579 0.169851 0.383464
419 4 0.354384 0.18744 0.392678
716 4 0.352353 0.204241 0.381413
715 2 0.344428 0.227954 0.381722
515 4 0.455912 0.180674 0.376218
514 2 0.455039 0.173656 0.400201
617 4 0.0595782 0.261156 0.399559
618 4 0.0101883 0.261353 0.391728
616 2 0.0348832 0.261255 0.395644
276 4 0.133396 0.220716 0.365644
487 2 0.24206 0.265883 0.381943
498 4 0.31805 0.287132 0.328438
488 4 0.248893 0.28804 0.372585
508 2 0.264974 0.311641 0.350447
509 4 0.263734 0.288378 0.35953
376 2 0.313564 0.273199 0.364581
378 4 0.310106 0.290368 0.346736
510 4 0.266214 0.334903 0.341365
267 4 0.356083 0.334007 0.347926
265 2 0.361874 0.313681 0.361286
266 4 0.367665 0.293354 0.374646
585 4 0.365108 0.278584 0.388991
583 2 0.381661 0.279327 0.407716
270 4 0.490167 0.247613 0.391147
306 4 0.503891 0.262353 0.38943
269 4 0.461193 0.259965 0.352306
268 2 0.47568 0.253789 0.371727
547 2 0.075016 0.4041 0.382888
549 4 0.0978634 0.393967 0.382178
601 2 0.110954 0.391878 0.342725
603 4 0.109544 0.38994 0.367613
502 2 0.187478 0.40144 0.364896
504 4 0.198379 0.387295 0.347395
373 2 0.232391 0.36113 0.341028
375 4 0.217814 0.381231 0.343966
374 4 0.246969 0.341029 0.33809
3 3 0.281805 0.416441 0.326698
336 4 0.342205 0.406436 0.401091
548 4 0.0521687 0.414232 0.383599
407 4 0.0581448 0.432123 0.383121
406 2 0.0532192 0.456483 0.385865
408 4 0.0482936 0.480843 0.388609
710 4 0.142507 0.419859 0.408175
570 4 0.149534 0.438084 0.403103
568 2 0.128806 0.447868 0.413093
1543 2 0.222635 0.492216 0.35907
1545 4 0.241143 0.480726 0.346798
503 4 0.176577 0.415585 0.382396
636 4 0.191515 0.42329 0.393347
634 2 0.184487 0.443285 0.406614
635 4 0.17746 0.463279 0.419881
668 4 0.303641 0.444655 0.367257
4 3 0.302236 0.441082 0.347187
667 2 0.320198 0.434931 0.383272
669 4 0.336755 0.425207 0.399287
753 4 0.481031 0.438567 0.340549
752 4 0.50417 0.436563 0.384835
751 2 0.4926 0.437565 0.362692
718 2 0.0314669 0.0438855 0.495551
719 4 0.0506162 0.0436702 0.479475
369 4 0.0506912 0.0436833 0.458397
367 2 0.0733932 0.0449674 0.447998
731 4 0.0917757 0.0597006 0.423099
368 4 0.0960953 0.0462515 0.437599
2430 4 0.19971 0.0778181 0.454005
2428 2 0.204528 0.055353 0.444142
2429 4 0.209347 0.0328879 0.434279
441 4 0.219956 0.028065 0.451176
430 2 0.317599 0.0750669 0.497905
843 4 0.34759 0.0543077 0.496875
431 4 0.340685 0.0712986 0.506736
841 2 0.372217 0.0582135 0.498731
2879 4 0.433357 0.0536414 0.427078
2878 2 0.454241 0.0575261 0.440266
2880 4 0.475126 0.0614108 0.453454
2586 4 0.023235 0.105482 0.452113
341 4 0.21572 0.0875655 0.460535
340 2 0.206498 0.110165 0.455113
1152 4 0.189604 0.13727 0.468376
342 4 0.197276 0.132764 0.44969
1150 2 0.178417 0.138584 0.490699
432 4 0.294513 0.0788352 0.489073
726 4 0.278671 0.0862344 0.480175
320 4 0.241571 0.0913087 0.43671
724 2 0.270002 0.0871426 0.45674
725 4 0.261332 0.0880508 0.433306
466 2 0.366535 0.100289 0.421514
467 4 0.359707 0.108871 0.443984
642 4 0.476692 0.0713576 0.472115
576 4 0.437765 0.13028 0.465919
640 2 0.489913 0.0925794 0.472297
574 2 0.436348 0.147649 0.447988
575 4 0.43493 0.165018 0.430058
469 2 0.0690787 0.212458 0.44978
470 4 0.0512478 0.229768 0.452539
471 4 0.0869096 0.195148 0.447021
260 4 0.105592 0.191273 0.452756
259 2 0.106791 0.1799 0.474991
261 4 0.107989 0.168528 0.497227
651 4 0.247255 0.230898 0.400729
650 4 0.253238 0.184413 0.418167
649 2 0.250247 0.207656 0.409448
2812 2 0.00304977 0.327877 0.495611
695 4 0.110499 0.273435 0.426988
694 2 0.130586 0.288041 0.429879
696 4 0.150673 0.302647 0.43277
1260 4 0.169644 0.305699 0.43688
1258 2 0.18348 0.310978 0.457026
1259 4 0.197316 0.316258 0.477172
2456 4 0.412784 0.269873 0.415045
584 4 0.398214 0.28007 0.426441
2455 2 0.434608 0.26076 0.42316
2457 4 0.456432 0.251648 0.431276
326 4 0.0641484 0.393645 0.459956
2813 4 0.0264145 0.329372 0.504387
10 3 0.13211 0.343063 0.44883
709 2 0.1458 0.396891 0.417492
325 2 0.0847148 0.379636 0.457512
7 3 0.120608 0.374396 0.465529
327 4 0.105281 0.365628 0.455069
6 1 0.138978 0.361755 0.459881
8 3 0.152857 0.374376 0.446225
9 3 0.150235 0.355798 0.479276
711 4 0.149094 0.373923 0.426808
334 2 0.353695 0.400292 0.422431
335 4 0.365186 0.394148 0.443771
238 2 0.353535 0.376192 0.475424
240 4 0.368991 0.37916 0.455996
239 4 0.338078 0.373224 0.494852
2712 4 0.482953 0.402834 0.48964
1383 4 0.0201498 0.477526 0.437006
540 4 0.0387783 0.436626 0.487333
1381 2 0.0281372 0.45942 0.452289
1382 4 0.0361246 0.441314 0.467571
569 4 0.108078 0.457651 0.423083
773 4 0.144111 0.491816 0.455312
382 2 0.131416 0.473405 0.487899
772 2 0.161533 0.487567 0.437887
384 4 0.133288 0.492978 0.472454
774 4 0.178954 0.483319 0.420463
1401 4 0.30956 0.447306 0.450387
1399 2 0.318759 0.470275 0.446787
588 4 0.330349 0.501878 0.460665
1400 4 0.327958 0.493245 0.443187
1127 4 0.994776 0.0502306 0.502539
720 4 0.0123176 0.0441007 0.511627
1059 4 0.0684754 0.0697097 0.564065
1032 4 0.156768 0.0232834 0.550416
951 4 0.188718 0.0514643 0.505924
1031 4 0.187629 0.054073 0.525914
1030 2 0.172199 0.0386782 0.538165
949 2 0.213407 0.0515365 0.501969
1182 4 0.241448 0.0562883 0.517644
950 4 0.238096 0.0516086 0.498013
961 2 0.306833 0.0237644 0.541349
1180 2 0.265702 0.0569291 0.523687
963 4 0.298045 0.0386061 0.523247
1181 4 0.289955 0.0575699 0.52973
962 4 0.31562 0.0089227 0.559451
842 4 0.396843 0.0621193 0.500588
1217 4 0.404901 0.0648787 0.519844
1216 2 0.415678 0.0710579 0.541543
1218 4 0.426455 0.0772371 0.563242
1155 4 0.0740588 0.0869831 0.571989
939 4 0.148301 0.140646 0.521563
937 2 0.125991 0.151656 0.519074
1151 4 0.167229 0.139898 0.513021
857 4 0.310974 0.153489 0.586055
898 2 0.345897 0.153931 0.567318
900 4 0.363362 0.162405 0.551558
1033 2 0.0758486 0.200215 0.523544
1035 4 0.061254 0.204021 0.543486
1082 4 0.0644065 0.211128 0.563302
1081 2 0.0493312 0.19735 0.577728
1034 4 0.0904432 0.196409 0.503602
938 4 0.10368 0.162666 0.516585
856 2 0.289744 0.16608 0.582064
797 4 0.261905 0.188424 0.56262
811 2 0.310238 0.23373 0.531955
812 4 0.285658 0.238302 0.532227
796 2 0.265112 0.210996 0.552355
798 4 0.26832 0.233568 0.542089
858 4 0.268514 0.178672 0.578074
813 4 0.334819 0.229159 0.531684
872 4 0.369586 0.181411 0.545595
873 4 0.338227 0.212155 0.521676
871 2 0.353906 0.196783 0.533636
904 2 0.456132 0.242824 0.560753
906 4 0.47102 0.223911 0.567524
878 4 0.0845001 0.251793 0.551264
954 4 0.417482 0.304857 0.572489
905 4 0.441244 0.261737 0.553983
952 2 0.42202 0.285552 0.557262
953 4 0.426559 0.266246 0.542034
1135 2 0.167032 0.397312 0.565647
1136 4 0.142279 0.39872 0.568884
1137 4 0.191785 0.395903 0.562409
896 4 0.22007 0.348873 0.526399
1191 4 0.231442 0.339693 0.512574
897 4 0.191305 0.37749 0.555629
895 2 0.205688 0.363181 0.541014
1189 2 0.255729 0.33375 0.512729
1190 4 0.280015 0.327806 0.512885
803 4 0.283384 0.34404 0.522915
802 2 0.299539 0.36141 0.530821
804 4 0.315694 0.378779 0.538727
929 4 0.326573 0.368358 0.55213
928 2 0.341984 0.357447 0.56852
930 4 0.357395 0.346536 0.58491
1206 4 0.367689 0.337069 0.598547
925 2 0.470285 0.397921 0.532229
927 4 0.475635 0.399436 0.507851
1001 4 0.467612 0.400546 0.575658
926 4 0.464934 0.396407 0.556606
539 4 0.0453664 0.464465 0.528348
936 4 0.0262837 0.459437 0.536901
1938 4 0.0529364 0.482331 0.519484
538 2 0.0420723 0.450546 0.507841
383 4 0.129544 0.453832 0.503345
2244 4 0.196226 0.456865 0.547603
2242 2 0.178837 0.459008 0.565442
1171 2 0.240811 0.447498 0.572412
1172 4 0.260018 0.454006 0.557785
882 4 0.274848 0.467753 0.555075
880 2 0.278261 0.492432 0.552959
1185 4 0.0167256 0.0598528 0.649177
945 4 0.0358362 0.0575768 0.656284
825 4 0.0754865 0.0322564 0.608994
1057 2 0.072433 0.0483349 0.576419
1058 4 0.0763906 0.0269601 0.588774
823 2 0.0893924 0.0147591 0.620204
1005 4 0.305193 0.0377004 0.680023
1003 2 0.318009 0.0558523 0.668559
1004 4 0.330826 0.0740042 0.657095
2283 4 0.443322 0.0162702 0.592727
2282 4 0.472259 0.0251772 0.632527
2281 2 0.45779 0.0207237 0.612627
43 3 0.46504 0.0405087 0.645365
41 1 0.480244 0.0542625 0.656232
1198 2 0.0116843 0.162085 0.594329
1153 2 0.0915486 0.100549 0.583618
1154 4 0.109038 0.114115 0.595248
1221 4 0.127542 0.113929 0.60344
1219 2 0.137654 0.123152 0.624365
1220 4 0.147766 0.132374 0.64529
1283 4 0.154285 0.137903 0.66558
1212 4 0.230762 0.131281 0.62515
1210 2 0.245096 0.129591 0.645567
899 4 0.328432 0.145458 0.583077
1083 4 0.0342559 0.183572 0.592153
1199 4 0.0252531 0.177319 0.608786
879 4 0.0797998 0.229686 0.595872
1272 4 0.0856943 0.232626 0.615696
1270 2 0.105645 0.218408 0.620697
1271 4 0.125596 0.204191 0.625698
909 4 0.14356 0.197233 0.629401
907 2 0.160101 0.215697 0.632662
908 4 0.176642 0.234161 0.635923
947 4 0.189637 0.247551 0.630747
1025 4 0.391362 0.206705 0.642276
1024 2 0.404722 0.204118 0.6213
1143 4 0.388693 0.191965 0.654641
1026 4 0.418082 0.201531 0.600324
3123 4 0.441776 0.219754 0.666982
877 2 0.0821499 0.240739 0.573568
948 4 0.182025 0.279823 0.66818
946 2 0.185831 0.263687 0.649463
1237 2 0.234086 0.335458 0.59785
792 4 0.265502 0.310777 0.603501
791 4 0.286692 0.269949 0.623117
790 2 0.276097 0.290363 0.613309
1238 4 0.258248 0.329047 0.598368
1205 4 0.408238 0.309251 0.589456
1204 2 0.387963 0.32316 0.594002
983 4 0.0113635 0.384992 0.631863
1041 4 0.017567 0.399712 0.619129
1039 2 0.0421959 0.403628 0.620937
1040 4 0.0668248 0.407543 0.622744
992 4 0.130186 0.408419 0.651969
991 2 0.108466 0.4103 0.639725
993 4 0.0867462 0.41218 0.627482
1239 4 0.209923 0.341868 0.597333
2243 4 0.161449 0.461152 0.583281
1173 4 0.221605 0.44099 0.587038
1161 4 0.168554 0.465921 0.601802
1160 4 0.203293 0.451644 0.634819
1159 2 0.185923 0.458783 0.618311
1175 4 0.210151 0.489415 0.642985
890 4 0.333858 0.439665 0.660453
889 2 0.330798 0.457677 0.643383
891 4 0.327737 0.475689 0.626312
1952 4 0.343848 0.483867 0.620261
1911 4 0.414093 0.486628 0.594792
1000 2 0.461417 0.41939 0.590879
1910 4 0.437142 0.446615 0.613987
1002 4 0.455221 0.438235 0.606099
1909 2 0.425617 0.466621 0.60439
3328 2 0.484677 0.428017 0.644898
3329 4 0.485407 0.443929 0.625624
1268 4 0.433029 0.48351 0.661964
4335 4 0.503013 0.455974 0.625154
943 2 0.048184 0.0592178 0.677964
944 4 0.0605317 0.0608588 0.699644
1075 2 0.0598273 0.0440247 0.733732
1076 4 0.0534504 0.0448586 0.709569
2319 4 0.0352471 0.98297 0.723947
2317 2 0.0150195 0.997664 0.723614
1148 4 0.194282 0.0685337 0.74555
44 3 0.47314 0.0763258 0.65516
42 3 0.48154 0.0479317 0.678309
1163 4 0.488911 0.0448651 0.698433
1211 4 0.259429 0.127901 0.665985
1282 2 0.164984 0.130872 0.687057
1284 4 0.175683 0.12384 0.708534
1227 4 0.195923 0.123412 0.705288
1225 2 0.211807 0.137754 0.718218
1226 4 0.22769 0.152096 0.731149
888 4 0.275007 0.134 0.67543
886 2 0.281983 0.125772 0.697987
887 4 0.288959 0.117544 0.720544
830 4 0.308516 0.124775 0.719895
829 2 0.331928 0.11789 0.725337
831 4 0.355341 0.111005 0.730779
852 4 0.998814 0.226878 0.716049
1209 4 0.038709 0.228918 0.678689
1107 4 0.0151969 0.166841 0.725296
851 4 0.00363639 0.177211 0.712787
1105 2 0.0368065 0.163733 0.737484
1207 2 0.0613519 0.238964 0.682088
35 3 0.0755756 0.171421 0.744661
850 2 0.00122499 0.202044 0.714418
822 4 0.144829 0.239223 0.703033
1278 4 0.164163 0.23351 0.704609
820 2 0.124137 0.245552 0.690505
1276 2 0.179694 0.219689 0.718499
1130 4 0.230943 0.171463 0.733147
1277 4 0.195226 0.205868 0.732389
1129 2 0.215664 0.188821 0.742657
916 2 0.282639 0.209916 0.733039
918 4 0.277721 0.185944 0.73817
977 4 0.285545 0.167374 0.740389
917 4 0.287558 0.233888 0.727909
1141 2 0.366581 0.196647 0.665333
1142 4 0.344469 0.201328 0.676026
1194 4 0.416627 0.237378 0.735186
1192 2 0.404522 0.247781 0.754432
3121 2 0.466741 0.219898 0.668357
1262 4 0.423052 0.223229 0.748053
1145 4 0.459935 0.170689 0.730614
1261 2 0.439008 0.206463 0.738593
1263 4 0.454964 0.189697 0.729132
1208 4 0.0839947 0.24901 0.685487
1243 2 0.0207721 0.320042 0.713225
1244 4 0.0417475 0.33251 0.71868
821 4 0.103444 0.25188 0.677978
1065 4 0.193969 0.294131 0.675694
1064 4 0.209768 0.290468 0.722998
1063 2 0.201869 0.292299 0.699346
1097 4 0.293996 0.250503 0.737417
1008 4 0.347698 0.268526 0.734387
1096 2 0.279598 0.266908 0.749613
806 4 0.418311 0.309354 0.740938
894 4 0.0924685 0.403472 0.691606
893 4 0.0733611 0.35726 0.691943
892 2 0.0829148 0.380366 0.691774
1281 4 0.102205 0.415117 0.706152
1066 2 0.195707 0.412685 0.681226
1068 4 0.218769 0.420257 0.675226
1028 4 0.23118 0.435297 0.683276
1027 2 0.254184 0.425713 0.68124
1029 4 0.277187 0.416129 0.679204
1139 4 0.295032 0.422667 0.67908
3330 4 0.483947 0.412105 0.664171
1983 4 0.0281666 0.47478 0.744842
2021 4 0.035303 0.47093 0.726549
2020 2 0.0594896 0.475279 0.721937
1280 4 0.0893884 0.426043 0.753238
2172 4 0.185768 0.502857 0.680185
941 4 0.160818 0.40895 0.702582
940 2 0.156715 0.41042 0.727203
1279 2 0.0957969 0.42058 0.729695
2022 4 0.0836762 0.479628 0.717325
1067 4 0.172645 0.405114 0.687227
2016 4 0.178 0.492397 0.746955
1138 2 0.306069 0.432222 0.699379
1140 4 0.317106 0.441776 0.719679
1989 4 0.31041 0.439805 0.739107
1229 4 0.363677 0.427258 0.706796
1228 2 0.364998 0.417474 0.729768
1269 4 0.476185 0.483237 0.687227
1267 2 0.454607 0.483373 0.674596
1077 4 0.0662041 0.0431909 0.757894
1203 4 0.0617386 0.0328162 0.77315
1201 2 0.0839244 0.02195 0.777009
2049 4 0.119515 0.997174 0.775946
1202 4 0.10611 0.0110838 0.780869
1147 2 0.2073 0.0571976 0.763639
1149 4 0.220318 0.0458616 0.781728
1049 4 0.239383 0.0504776 0.785187
1048 2 0.26328 0.0534863 0.778472
1050 4 0.287176 0.056495 0.771757
819 4 0.399388 0.0829465 0.809919
846 4 0.474758 0.0283053 0.795306
1113 4 0.461179 0.0247617 0.782129
844 2 0.495838 0.0410859 0.799485
832 2 0.044166 0.137955 0.783428
863 4 0.022593 0.125325 0.820499
833 4 0.0304091 0.126025 0.800563
33 3 0.0769838 0.148045 0.774143
834 4 0.0579229 0.149885 0.766294
862 2 0.0363974 0.108481 0.832783
31 1 0.0894358 0.160733 0.759231
32 3 0.10346 0.146777 0.747496
1073 4 0.105725 0.162833 0.786098
1072 2 0.122054 0.170734 0.803307
1074 4 0.138383 0.178635 0.820515
840 4 0.200665 0.0993771 0.779325
838 2 0.224508 0.106617 0.781392
839 4 0.248351 0.113858 0.783459
978 4 0.313832 0.159375 0.780844
959 4 0.264224 0.122008 0.792049
958 2 0.273164 0.108372 0.811004
1084 2 0.372435 0.117109 0.798866
1085 4 0.385851 0.0988778 0.809488
1086 4 0.35902 0.135341 0.788244
1299 4 0.372612 0.149499 0.792761
1146 4 0.484991 0.161599 0.772926
3270 4 0.486768 0.147803 0.786605
3268 2 0.491041 0.152454 0.810798
3269 4 0.495315 0.157105 0.834991
1106 4 0.0584162 0.160625 0.749671
1214 4 0.0236963 0.23925 0.804356
778 2 0.0607173 0.236905 0.802763
1213 2 0.00235076 0.251004 0.809958
779 4 0.0388407 0.24296 0.792279
34 3 0.102245 0.176242 0.770798
1131 4 0.200386 0.20618 0.752167
976 2 0.299688 0.163374 0.760617
1297 2 0.377765 0.172786 0.800268
1298 4 0.382918 0.196072 0.807775
47 3 0.387373 0.20753 0.822992
1144 2 0.472463 0.166144 0.75177
48 3 0.422731 0.202895 0.834866
1240 2 0.229548 0.277554 0.77927
1242 4 0.20678 0.267417 0.781279
1241 4 0.252316 0.287692 0.777261
1098 4 0.265199 0.283313 0.761808
1275 4 0.317314 0.299187 0.845948
1193 4 0.392418 0.258183 0.773679
1043 4 0.391737 0.24621 0.823723
1006 2 0.345141 0.256443 0.756127
1042 2 0.374833 0.249697 0.805632
1007 4 0.342584 0.24436 0.777867
1044 4 0.35793 0.253184 0.787541
805 2 0.411745 0.331021 0.75155
1167 4 0.455992 0.266194 0.823899
1306 2 0.492168 0.287229 0.827157
883 2 0.0732369 0.420013 0.83587