ITEM: TIMESTEP
1690000
ITEM: NUMBER OF ATOMS
4590
ITEM: BOX BOUNDS pp pp pp
-9.9985700000000008e+00 9.9985700000000008e+00
-9.9985700000000008e+00 9.9985700000000008e+00
-9.9985700000000008e+00 9.9985700000000008e+00
ITEM: ATOMS id type xs ys zs
463 2 0.0670132 0.0688654 0.00648096
464 4 0.0759245 0.0457297 0.00972275
1666 2 0.0745213 0.0215144 0.0766186
591 4 0.00524215 0.0836607 0.0541893
3290 4 0.0896161 0.0313962 0.00691466
1668 4 0.0925471 0.0312477 0.062283
566 4 0.171073 0.0598209 0.0354555
1474 2 0.237892 0.0130687 0.0629669
565 2 0.189499 0.0748335 0.0432191
1475 4 0.23774 0.0256153 0.0413397
490 2 0.265442 0.0346816 0.0194486
492 4 0.257356 0.0286904 0.0423373
745 2 0.456455 0.0639256 0.0186188
2724 4 0.484874 0.0247562 0.0792066
747 4 0.457813 0.0619084 0.0435039
2722 2 0.465225 0.0401935 0.0801038
2723 4 0.445577 0.0556308 0.081001
589 2 0.00310935 0.0894694 0.0784151
465 4 0.0581018 0.092001 0.00323917
701 4 0.050657 0.110486 0.00830674
700 2 0.0481199 0.135188 0.0112359
702 4 0.0455827 0.159889 0.0141651
423 4 0.0987535 0.163028 0.0157518
567 4 0.207925 0.089846 0.0509826
1133 4 0.192076 0.147135 0.00928811
360 4 0.210335 0.148373 0.0173096
358 2 0.217304 0.135962 0.0378666
359 4 0.224272 0.123551 0.0584236
828 4 0.435591 0.161399 0.0142951
555 4 0.0380387 0.175621 0.0237084
553 2 0.0352041 0.196579 0.0103705
422 4 0.111595 0.20677 0.036305
421 2 0.105174 0.184899 0.0260284
737 4 0.203342 0.233785 0.0352576
736 2 0.211599 0.219484 0.0540327
354 4 0.239059 0.201957 0.0662028
738 4 0.219855 0.205184 0.0728078
506 4 0.203017 0.249196 0.0232889
353 4 0.282167 0.181011 0.0804748
352 2 0.260613 0.191484 0.0733388
254 4 0.386764 0.216392 0.0833803
630 4 0.405372 0.208216 0.0810604
1069 2 0.385771 0.228596 0.000430818
324 4 0.451585 0.245991 0.0328026
294 4 0.151912 0.324766 0.0634748
507 4 0.199794 0.299098 0.0236036
293 4 0.183397 0.296677 0.0366336
292 2 0.167654 0.310721 0.0500542
505 2 0.201405 0.274147 0.0234463
481 2 0.299521 0.283651 0.00171078
482 4 0.311956 0.284016 0.0233997
756 4 0.342119 0.264937 0.0800734
1071 4 0.378026 0.251933 0.00496732
573 4 0.378211 0.26475 0.0187735
571 2 0.378025 0.276149 0.0410265
572 4 0.377839 0.287549 0.0632794
741 4 0.368665 0.301694 0.0727531
739 2 0.354029 0.320788 0.0795646
323 4 0.419985 0.283736 0.0240058
322 2 0.435785 0.264863 0.0284042
1168 2 0.0624422 0.346146 0.0100174
329 4 0.0351233 0.377133 0.00623398
1169 4 0.0421139 0.359923 0.0147215
1170 4 0.0827706 0.332369 0.00531318
456 4 0.150309 0.345042 0.0661121
454 2 0.161067 0.367447 0.0688439
455 4 0.171825 0.389852 0.0715757
607 2 0.245753 0.35136 0.0822087
608 4 0.256909 0.366279 0.0655318
252 4 0.265528 0.380344 0.0766462
250 2 0.277741 0.396344 0.0618135
251 4 0.289954 0.412345 0.0469808
226 2 0.402256 0.382544 0.0310919
228 4 0.406554 0.3856 0.0555329
671 4 0.415532 0.370901 0.0662541
227 4 0.397958 0.379487 0.00665098
281 4 0.433507 0.366239 0.0602745
280 2 0.457109 0.365202 0.0520846
282 4 0.48071 0.364165 0.0438946
104 3 0.486487 0.357754 0.0636894
1045 2 0.498492 0.361248 0.010004
1047 4 0.4987 0.355976 0.0344445
552 4 0.0251489 0.447101 0.0416537
314 4 0.0395654 0.440785 0.0517352
313 2 0.0379284 0.424072 0.0702602
550 2 0.00319934 0.452888 0.0311703
795 4 0.159674 0.468247 0.004158
244 2 0.229003 0.479676 0.00926638
243 4 0.202175 0.475755 0.0572874
272 4 0.251197 0.488583 0.0610872
793 2 0.171977 0.489893 0.00645854
245 4 0.217185 0.458682 0.00257729
1440 4 0.243699 0.489538 0.0793806
241 2 0.201181 0.500501 0.0607272
1290 4 0.213176 0.439547 0.00599382
524 4 0.30553 0.422752 0.0550248
523 2 0.323659 0.426026 0.0719303
40 3 0.356922 0.432549 0.999941
1667 4 0.0564955 0.0117811 0.0909543
19 3 0.0363727 0.020416 0.13175
1422 4 0.0277049 0.0163029 0.153163
16 1 0.0589851 0.015347 0.130572
17 3 0.0643748 0.0104199 0.108758
2480 4 0.0157252 0.0293127 0.137502
18 3 0.0715614 0.0335859 0.13747
652 2 0.238822 0.0488585 0.146579
654 4 0.24735 0.0488276 0.123075
1476 4 0.238045 0.000521993 0.0845942
1661 4 0.3261 0.00104238 0.161858
484 2 0.33677 0.0168263 0.128069
297 4 0.359754 0.0425213 0.12049
485 4 0.342263 0.0367841 0.114044
295 2 0.380227 0.0491041 0.107734
296 4 0.4007 0.0556869 0.0949787
557 4 0.409787 0.0732972 0.094714
1759 2 0.45561 0.00633534 0.135762
1760 4 0.472611 0.0234344 0.129146
2744 4 0.485861 0.0191355 0.145618
590 4 0.00097656 0.0952781 0.102641
237 4 0.118351 0.158803 0.131746
235 2 0.129292 0.14976 0.15233
449 4 0.1395 0.122761 0.163098
556 2 0.425062 0.0920685 0.100998
771 4 0.4561 0.122113 0.106028
558 4 0.440337 0.11084 0.107282
769 2 0.452054 0.146641 0.103342
338 4 0.0736914 0.246406 0.143158
476 4 0.165657 0.250888 0.153903
477 4 0.186832 0.217288 0.123516
475 2 0.176244 0.234088 0.138709
461 4 0.298155 0.177342 0.0921979
460 2 0.322255 0.180415 0.0981097
279 4 0.294399 0.247507 0.165021
462 4 0.346354 0.183487 0.104021
253 2 0.369769 0.234294 0.0873615
770 4 0.448009 0.171169 0.100656
628 2 0.42305 0.212303 0.0982643
624 4 0.45659 0.226823 0.114835
629 4 0.440728 0.21639 0.115468
622 2 0.454626 0.241027 0.135319
337 2 0.0855547 0.265151 0.154693
339 4 0.0974179 0.283896 0.166228
537 4 0.134952 0.330921 0.1478
363 4 0.121744 0.289061 0.158378
611 4 0.250478 0.305206 0.146526
754 2 0.319271 0.266614 0.0900895
610 2 0.252297 0.317267 0.1247
612 4 0.254116 0.329328 0.102873
755 4 0.296423 0.268292 0.100106
278 4 0.29554 0.255249 0.11563
277 2 0.294969 0.251378 0.140326
255 4 0.352773 0.252195 0.0913428
595 2 0.409422 0.323203 0.161441
596 4 0.406566 0.2997 0.1534
623 4 0.452662 0.25523 0.155803
619 2 0.053902 0.404747 0.121335
620 4 0.0681313 0.414123 0.139632
621 4 0.0396728 0.39537 0.103037
315 4 0.0362914 0.407359 0.0887853
647 4 0.0740279 0.407319 0.157812
535 2 0.136689 0.350145 0.131907
536 4 0.138426 0.36937 0.116014
609 4 0.234597 0.33644 0.0988856
387 4 0.327944 0.389223 0.128205
385 2 0.330952 0.367665 0.115901
386 4 0.333961 0.346107 0.103597
302 4 0.335886 0.401021 0.142821
740 4 0.339394 0.339882 0.0863762
670 2 0.400123 0.368619 0.0858121
12 3 0.388824 0.359573 0.122556
11 1 0.385004 0.372425 0.141248
15 3 0.366479 0.364698 0.152006
672 4 0.384713 0.366338 0.10537
14 3 0.38174 0.394438 0.134676
495 4 0.400081 0.402286 0.127647
13 3 0.40346 0.370989 0.155238
626 4 0.174153 0.439161 0.138978
1438 2 0.248326 0.469017 0.0928962
625 2 0.192928 0.442308 0.155188
637 2 0.234242 0.48107 0.165878
1439 4 0.252953 0.448496 0.106412
1559 4 0.29885 0.489467 0.0959777
301 2 0.339747 0.42243 0.155145
303 4 0.343609 0.44384 0.167469
525 4 0.341788 0.429301 0.0888358
493 2 0.419982 0.416544 0.122562
494 4 0.439882 0.430801 0.117477
1583 4 0.47716 0.476907 0.116835
1582 2 0.457713 0.491179 0.110255
1420 2 0.0183345 0.00259763 0.171859
450 4 0.15587 0.0772756 0.175897
674 4 0.141755 0.00112535 0.231045
690 4 0.146839 0.0169441 0.218217
688 2 0.167642 0.00948624 0.206521
1505 4 0.206879 0.000863276 0.203002
653 4 0.230294 0.0488894 0.170083
693 4 0.231185 0.0416935 0.188297
723 4 0.211413 0.0574035 0.247457
689 4 0.188445 0.00202843 0.194825
691 2 0.250264 0.0352304 0.203109
692 4 0.269344 0.0287673 0.217921
1700 4 0.317775 0.0495936 0.246289
1699 2 0.300535 0.0340395 0.237012
1701 4 0.283296 0.0184853 0.227736
23 3 0.333368 0.061893 0.244286
21 1 0.354948 0.0664736 0.237093
25 3 0.354462 0.0749229 0.21595
22 3 0.367114 0.0469513 0.237173
759 4 0.360762 0.0642825 0.199391
757 2 0.374606 0.0788167 0.184482
511 2 0.0146699 0.125284 0.207013
578 4 0.057067 0.137037 0.206144
513 4 0.0394032 0.128143 0.209309
577 2 0.0593748 0.158642 0.218516
448 2 0.147685 0.100018 0.169498
236 4 0.140232 0.140717 0.172915
28 3 0.247083 0.160892 0.182937
580 2 0.30056 0.108305 0.189771
581 4 0.279319 0.12016 0.195554
30 3 0.262643 0.130441 0.198694
26 1 0.265929 0.152355 0.193441
29 3 0.28439 0.154483 0.179546
27 3 0.269733 0.164285 0.212738
582 4 0.321802 0.096451 0.183988
758 4 0.388449 0.093351 0.169572
310 2 0.429973 0.162887 0.207585
311 4 0.434622 0.13897 0.201971
761 4 0.436616 0.147259 0.244705
529 2 0.0175102 0.190289 0.228346
530 4 0.0414541 0.183112 0.228937
579 4 0.0616826 0.180247 0.230889
372 4 0.172555 0.242235 0.171876
370 2 0.181036 0.247106 0.194887
371 4 0.189516 0.251976 0.217899
284 4 0.280687 0.228631 0.224122
283 2 0.288596 0.24145 0.204165
765 4 0.406803 0.219412 0.238787
312 4 0.425324 0.186805 0.213198
763 2 0.427372 0.206149 0.243905
764 4 0.447941 0.192886 0.249023
396 4 0.0671259 0.303745 0.223775
443 4 0.0571611 0.305741 0.240779
394 2 0.0751392 0.294199 0.202099
362 4 0.136278 0.292786 0.206082
395 4 0.0831526 0.284653 0.180423
361 2 0.129011 0.290923 0.18223
285 4 0.296505 0.25427 0.184208
527 4 0.444002 0.253502 0.174036
526 2 0.449112 0.271652 0.190456
528 4 0.454222 0.289803 0.206876
264 4 0.053138 0.390057 0.219774
262 2 0.0496282 0.41453 0.223508
646 2 0.0922201 0.39527 0.17002
648 4 0.110412 0.38322 0.182228
300 4 0.111251 0.369364 0.197387
298 2 0.112031 0.361399 0.221075
299 4 0.112811 0.353434 0.244763
345 4 0.257111 0.351088 0.225756
343 2 0.277554 0.351535 0.240147
597 4 0.412278 0.346705 0.169482
644 4 0.422382 0.372351 0.220003
447 4 0.429307 0.385097 0.232775
645 4 0.420524 0.367396 0.170277
643 2 0.421453 0.369874 0.19514
445 2 0.427165 0.409879 0.235314
263 4 0.0461183 0.439003 0.227242
627 4 0.211703 0.445455 0.171398
638 4 0.227094 0.457894 0.171955
1430 4 0.184042 0.49149 0.188691
417 4 0.187003 0.469618 0.191481
290 4 0.210458 0.427975 0.224883
416 4 0.215611 0.448374 0.226566
415 2 0.201307 0.458996 0.209023
289 2 0.219569 0.422471 0.247508
659 4 0.349089 0.462303 0.172025
658 2 0.346124 0.482238 0.186824
2861 4 0.491696 0.444081 0.241047
446 4 0.425023 0.434661 0.237853
232 2 0.0527963 0.0336576 0.307976
234 4 0.048498 0.0582865 0.308323
317 4 0.0365547 0.0710027 0.295852
233 4 0.0570947 0.00902871 0.307629
675 4 0.118175 0.0211525 0.270333
673 2 0.129965 0.0111389 0.250689
721 2 0.213007 0.0790518 0.259866
24 3 0.36503 0.0816545 0.251455
697 2 0.387014 0.0263817 0.257818
699 4 0.392454 0.00320766 0.26547
698 4 0.381574 0.0495557 0.250167
333 4 0.380957 0.0692966 0.253697
331 2 0.400906 0.0792953 0.264978
743 4 0.461283 0.0338822 0.25977
742 2 0.457828 0.00949972 0.255441
351 4 0.466247 0.0419215 0.277011
349 2 0.449218 0.0597153 0.28132
350 4 0.432189 0.077509 0.28563
480 4 0.484579 0.0188895 0.329915
316 2 0.032905 0.0934436 0.285447
318 4 0.0292554 0.115885 0.275042
393 4 0.133897 0.146171 0.319877
399 4 0.135076 0.128291 0.332282
391 2 0.144061 0.151641 0.297697
392 4 0.154224 0.157111 0.275517
722 4 0.214601 0.1007 0.272275
546 4 0.212353 0.120458 0.267757
545 4 0.172349 0.150411 0.269534
544 2 0.192351 0.135434 0.268646
599 4 0.219486 0.136363 0.320285
404 4 0.237694 0.134048 0.328596
598 2 0.199128 0.125949 0.3304
403 2 0.24547 0.152334 0.313419
332 4 0.420855 0.089294 0.276258
762 4 0.425112 0.152723 0.293063
760 2 0.430864 0.149991 0.268884
401 4 0.247177 0.189463 0.302275
400 2 0.236097 0.203009 0.284416
402 4 0.225018 0.216554 0.266557
405 4 0.253246 0.170619 0.298241
520 2 0.481424 0.180667 0.250495
521 4 0.45854 0.1816 0.260527
2769 4 0.495607 0.19305 0.328199
442 2 0.0708135 0.291267 0.255922
444 4 0.0844659 0.276793 0.271065
734 4 0.124133 0.332823 0.262332
390 4 0.0854326 0.281711 0.331366
497 4 0.334953 0.322096 0.313544
541 2 0.468484 0.279744 0.323134
542 4 0.472401 0.255721 0.317412
615 4 0.446448 0.309768 0.327786
613 2 0.437631 0.332091 0.320775
543 4 0.464567 0.303767 0.328856
2493 4 0.0112387 0.348808 0.325909
749 4 0.0613241 0.351133 0.273032
365 4 0.0113808 0.359161 0.308949
364 2 0.028156 0.36065 0.290468
366 4 0.0449312 0.36214 0.271987
603 4 0.0673495 0.378822 0.321563
750 4 0.110439 0.347848 0.264218
748 2 0.0858813 0.34949 0.268625
733 2 0.146963 0.337376 0.271454
601 2 0.0842014 0.392377 0.309015
602 4 0.101053 0.405932 0.296467
735 4 0.169793 0.34193 0.280577
677 4 0.168896 0.351667 0.297541
676 2 0.169333 0.364107 0.319226
414 4 0.233828 0.412073 0.28964
344 4 0.297997 0.351981 0.254537
309 4 0.308064 0.335678 0.256516
307 2 0.317999 0.337301 0.279404
727 2 0.326072 0.384614 0.305935
308 4 0.327933 0.338924 0.302292
728 4 0.323807 0.409488 0.307076
729 4 0.328337 0.359739 0.304793
3 3 0.278798 0.415481 0.328217
614 4 0.428814 0.354413 0.313764
777 4 0.114303 0.420611 0.297508
1757 4 0.115777 0.478146 0.279906
776 4 0.116231 0.470546 0.299374
775 2 0.115267 0.445579 0.298441
291 4 0.22868 0.416967 0.270132
413 4 0.203973 0.443225 0.314917
412 2 0.218901 0.427649 0.302278
1436 4 0.223214 0.469597 0.326939
1435 2 0.248023 0.467377 0.329129
438 4 0.306716 0.482147 0.273704
437 4 0.274413 0.465533 0.308072
436 2 0.290564 0.47384 0.290888
1437 4 0.272831 0.465156 0.331319
5 3 0.286216 0.451404 0.319723
2 3 0.313464 0.425949 0.318151
1 1 0.294501 0.432522 0.329392
434 4 0.334368 0.420097 0.323867
712 2 0.402913 0.454825 0.267532
713 4 0.384049 0.466366 0.2792
433 2 0.356726 0.428962 0.317033
435 4 0.379084 0.437827 0.310199
2862 4 0.495853 0.432783 0.289583
714 4 0.421776 0.443284 0.255863
2860 2 0.493775 0.438432 0.265315
731 4 0.0839324 0.0529892 0.397805
368 4 0.0699695 0.0448643 0.410071
428 4 0.0908226 0.0371193 0.35527
427 2 0.0940303 0.0129309 0.360731
606 4 0.150867 0.065764 0.401823
730 2 0.0930669 0.0651265 0.377944
604 2 0.149145 0.0417899 0.394934
605 4 0.147423 0.0178158 0.388045
732 4 0.102201 0.0772638 0.358084
682 2 0.232285 0.0484174 0.367273
683 4 0.212985 0.0643026 0.366684
684 4 0.251585 0.0325323 0.367863
249 4 0.32158 0.0556161 0.336471
247 2 0.3286 0.0737087 0.352237
320 4 0.265619 0.0730906 0.409656
1747 2 0.459776 8.81394e-05 0.350959
1749 4 0.466326 0.0209751 0.338876
424 2 0.428953 0.0468224 0.394921
426 4 0.423231 0.061188 0.375273
425 4 0.434675 0.0324568 0.41457
258 4 0.434562 0.0756301 0.366367
397 2 0.123028 0.106966 0.337306
398 4 0.11098 0.0856404 0.342331
686 4 0.164428 0.111435 0.398791
687 4 0.174093 0.130077 0.353406
600 4 0.178771 0.115535 0.340515
685 2 0.169261 0.120756 0.376098
321 4 0.280742 0.117152 0.391474
319 2 0.27318 0.0951213 0.400565
248 4 0.335619 0.0918013 0.368003
633 4 0.346717 0.107045 0.375927
632 4 0.385469 0.133664 0.358883
631 2 0.366093 0.120355 0.367405
420 4 0.380845 0.152706 0.362852
467 4 0.362743 0.100008 0.415498
257 4 0.471861 0.101142 0.344952
256 2 0.453211 0.0883858 0.35566
515 4 0.46244 0.152044 0.381845
514 2 0.453904 0.160275 0.403858
2654 4 0.00251328 0.22379 0.371324
618 4 0.00585282 0.243575 0.37569
274 2 0.154361 0.230048 0.347491
276 4 0.1415 0.251133 0.351389
275 4 0.167223 0.208964 0.343594
474 4 0.176288 0.205948 0.361688
472 2 0.19986 0.199359 0.356575
473 4 0.223431 0.19277 0.351463
708 4 0.233858 0.192328 0.368184
706 2 0.258632 0.189647 0.366126
707 4 0.283406 0.186966 0.364069
717 4 0.324487 0.242095 0.368611
418 2 0.374701 0.176131 0.369073
419 4 0.368557 0.199556 0.375293
716 4 0.36832 0.219448 0.376763
715 2 0.346403 0.230772 0.372687
616 2 0.0269935 0.256747 0.377867
617 4 0.0481342 0.269919 0.380045
389 4 0.120482 0.254541 0.354475
388 2 0.102957 0.268126 0.34292
510 4 0.242913 0.32245 0.360109
374 4 0.229326 0.321882 0.344093
496 2 0.32308 0.316463 0.334816
377 4 0.314624 0.255475 0.381237
508 2 0.261188 0.307677 0.368649
509 4 0.279464 0.292903 0.377189
376 2 0.305595 0.276575 0.371314
488 4 0.271926 0.279556 0.39145
487 2 0.255159 0.270945 0.407878
378 4 0.296566 0.297675 0.361392
498 4 0.311207 0.31083 0.356088
267 4 0.36232 0.315928 0.371013
265 2 0.366447 0.292371 0.378307
266 4 0.370574 0.268814 0.3856
585 4 0.370281 0.263802 0.405331
269 4 0.454778 0.261276 0.377966
268 2 0.477812 0.262813 0.387571
2491 2 0.0014336 0.36113 0.34533
549 4 0.0608529 0.383349 0.339378
547 2 0.0563491 0.397384 0.359575
548 4 0.0518454 0.411418 0.379772
678 4 0.16977 0.376548 0.34091
502 2 0.194201 0.396174 0.358627
504 4 0.18998 0.377789 0.342216
373 2 0.216266 0.342854 0.340248
375 4 0.203206 0.363825 0.336402
503 4 0.198423 0.41456 0.375038
334 2 0.350676 0.39662 0.414209
2925 4 0.489371 0.370852 0.369082
407 4 0.0430321 0.429916 0.377109
406 2 0.0532872 0.451755 0.383673
408 4 0.0635422 0.473593 0.390238
1543 2 0.19676 0.4986 0.349669
1545 4 0.212129 0.486453 0.334131
636 4 0.205646 0.420707 0.392123
634 2 0.203036 0.43986 0.407983
668 4 0.301034 0.421351 0.364437
4 3 0.299989 0.436723 0.351542
667 2 0.323205 0.423749 0.375746
669 4 0.345375 0.426147 0.387056
336 4 0.350171 0.420346 0.406335
561 4 0.47823 0.43232 0.410259
752 4 0.478972 0.437703 0.391936
753 4 0.483924 0.429638 0.342832
751 2 0.481448 0.43367 0.367384
718 2 0.0510589 0.0403908 0.482868
719 4 0.069917 0.0303478 0.46988
369 4 0.0791303 0.0221616 0.453676
367 2 0.0745499 0.0335129 0.431874
720 4 0.0322008 0.0504337 0.495856
2430 4 0.21803 0.0654056 0.440294
2428 2 0.228065 0.0428469 0.436346
2429 4 0.2381 0.0202882 0.432399
1182 4 0.238698 0.083881 0.497894
441 4 0.257897 0.0178736 0.43624
726 4 0.296009 0.0710702 0.472671
432 4 0.312866 0.0743849 0.482961
724 2 0.284153 0.072768 0.450723
725 4 0.272296 0.0744659 0.428775
2878 2 0.489548 0.0707813 0.420609
341 4 0.223394 0.0838917 0.443775
340 2 0.216217 0.0995753 0.461878
1152 4 0.194401 0.110676 0.492984
410 4 0.245156 0.151157 0.41912
342 4 0.209041 0.115259 0.47998
466 2 0.365604 0.11889 0.431636
468 4 0.368466 0.137772 0.447774
576 4 0.404903 0.155154 0.458851
2880 4 0.476259 0.0898912 0.429742
642 4 0.461754 0.0889261 0.443652
641 4 0.477851 0.121905 0.477623
640 2 0.469802 0.105415 0.460637
3158 4 0.489378 0.132772 0.464778
574 2 0.426943 0.164911 0.452202
469 2 0.0677175 0.23073 0.460101
471 4 0.0761524 0.217588 0.479628
260 4 0.079541 0.199606 0.488326
470 4 0.0592827 0.243873 0.440574
259 2 0.103842 0.194315 0.490906
261 4 0.128143 0.189025 0.493486
409 2 0.236937 0.167939 0.435732
651 4 0.241902 0.242586 0.422039
650 4 0.225534 0.203343 0.44836
649 2 0.233718 0.222965 0.435199
411 4 0.228718 0.184722 0.452344
575 4 0.448983 0.174668 0.445554
516 4 0.445368 0.168506 0.425871
2814 4 0.999788 0.314754 0.471601
2812 2 0.014129 0.306141 0.490184
695 4 0.0953108 0.305636 0.430488
694 2 0.113945 0.295096 0.443406
696 4 0.132578 0.284557 0.456325
1260 4 0.148254 0.275538 0.464456
1258 2 0.160263 0.282284 0.485323
489 4 0.238392 0.262334 0.424307
583 2 0.389317 0.257075 0.420081
584 4 0.408354 0.250348 0.43483
2456 4 0.422637 0.260924 0.428938
2457 4 0.454158 0.299286 0.434894
2455 2 0.438398 0.280105 0.431916
10 3 0.149859 0.347382 0.459371
7 3 0.128322 0.377745 0.462047
327 4 0.113101 0.390196 0.464892
325 2 0.0954406 0.406931 0.470656
6 1 0.149906 0.370154 0.459668
8 3 0.158574 0.378314 0.43975
711 4 0.162963 0.398932 0.441885
9 3 0.162564 0.377813 0.477542
239 4 0.368788 0.368027 0.480578
335 4 0.351181 0.372894 0.422082
238 2 0.358417 0.363196 0.458345
240 4 0.348046 0.358364 0.436113
560 4 0.495659 0.39536 0.439084
2712 4 0.493284 0.395754 0.460022
559 2 0.486945 0.41384 0.424671
680 4 0.018295 0.46462 0.446382
679 2 0.0100803 0.485709 0.435753
1383 4 0.0295487 0.44743 0.449912
1381 2 0.0242177 0.442311 0.473798
326 4 0.07778 0.423665 0.47642
1382 4 0.0188868 0.437193 0.497684
773 4 0.165969 0.467829 0.478935
568 2 0.12805 0.462128 0.458818
569 4 0.132561 0.476774 0.478575
709 2 0.148657 0.417799 0.43385
384 4 0.1495 0.476201 0.489123
710 4 0.134351 0.436666 0.425814
570 4 0.12354 0.447482 0.439062
774 4 0.200428 0.462079 0.443154
635 4 0.200426 0.459013 0.423843
772 2 0.183199 0.464954 0.461045
1399 2 0.320929 0.461024 0.470957
1400 4 0.319459 0.483683 0.460488
1401 4 0.322399 0.438365 0.481425
588 4 0.336374 0.49253 0.455155
1126 2 0.0222952 0.0632207 0.530974
1127 4 0.0229771 0.0667261 0.506226
1128 4 0.0216134 0.0597154 0.555721
4509 4 0.00532959 0.0512131 0.562539
951 4 0.195467 0.0651923 0.544451
1031 4 0.202595 0.0511015 0.55566
1030 2 0.202336 0.0303026 0.569535
949 2 0.210383 0.0675653 0.524525
950 4 0.225299 0.0699383 0.504598
961 2 0.282463 0.0162304 0.523399
1180 2 0.259538 0.0710046 0.502899
430 2 0.323284 0.0687824 0.50499
963 4 0.287757 0.0391024 0.514795
1181 4 0.280379 0.0581282 0.507903
431 4 0.333701 0.0631799 0.527019
841 2 0.375711 0.0493767 0.521045
843 4 0.352223 0.0579483 0.520928
842 4 0.399199 0.0408051 0.521162
1217 4 0.416358 0.03256 0.517685
1218 4 0.447456 0.0504675 0.552512
1216 2 0.431907 0.0415137 0.535099
4467 4 0.439469 0.0181022 0.582562
1033 2 0.064998 0.159679 0.5247
1034 4 0.06286 0.136941 0.514521
1155 4 0.0968566 0.0842422 0.577602
939 4 0.172184 0.161371 0.527446
1151 4 0.183664 0.145897 0.52682
1150 2 0.189032 0.128286 0.509902
857 4 0.309543 0.138911 0.562619
899 4 0.3257 0.127253 0.558991
856 2 0.289497 0.15365 0.565092
898 2 0.345369 0.142688 0.559212
900 4 0.365039 0.158122 0.559433
1035 4 0.067136 0.182416 0.534879
1082 4 0.0607765 0.192748 0.551365
1081 2 0.0438725 0.188277 0.569238
937 2 0.158597 0.178927 0.515941
938 4 0.14501 0.196483 0.504436
878 4 0.103371 0.248617 0.543561
877 2 0.0968253 0.243453 0.567133
858 4 0.269451 0.168389 0.567565
797 4 0.281166 0.179877 0.580538
813 4 0.313165 0.220692 0.546795
811 2 0.295213 0.23505 0.536959
873 4 0.333162 0.217779 0.54326
812 4 0.277261 0.249409 0.527123
796 2 0.275258 0.204069 0.582785
798 4 0.269349 0.22826 0.585032
871 2 0.342937 0.196087 0.550948
872 4 0.352711 0.174395 0.558636
2813 4 0.0284698 0.297528 0.508767
1259 4 0.172271 0.28903 0.506191
896 4 0.201467 0.333141 0.551681
1205 4 0.392217 0.312493 0.575709
954 4 0.408553 0.301783 0.574701
904 2 0.486577 0.262151 0.557584
905 4 0.47379 0.281802 0.566275
952 2 0.432391 0.295723 0.570209
953 4 0.45623 0.289664 0.565716
1137 4 0.147046 0.37398 0.568434
897 4 0.164858 0.364356 0.565321
1135 2 0.12758 0.373017 0.552771
1136 4 0.108114 0.372053 0.537108
895 2 0.183162 0.348749 0.558501
1189 2 0.234772 0.35227 0.538676
1191 4 0.220861 0.33347 0.547519
1190 4 0.248684 0.37107 0.529833
803 4 0.261354 0.384364 0.521573
802 2 0.282796 0.383619 0.534413
804 4 0.304238 0.382873 0.547254
1204 2 0.380942 0.334691 0.578015
1206 4 0.369666 0.356888 0.58032
928 2 0.364948 0.378916 0.545462
929 4 0.36972 0.387242 0.522373
930 4 0.360177 0.37059 0.568551
925 2 0.445361 0.401404 0.534308
927 4 0.432353 0.392588 0.51486
1001 4 0.459805 0.403915 0.572685
926 4 0.458369 0.410221 0.553756
936 4 0.00516249 0.424914 0.543851
538 2 0.0327186 0.471455 0.519812
540 4 0.0270823 0.44865 0.511249
539 4 0.0383549 0.494261 0.528374
383 4 0.150563 0.446384 0.529255
382 2 0.150031 0.461293 0.509189
2242 2 0.142681 0.47468 0.582664
2244 4 0.120262 0.476276 0.57171
1173 4 0.234749 0.42758 0.523709
1161 4 0.183111 0.469898 0.581955
1172 4 0.273456 0.453356 0.542097
1171 2 0.254103 0.440468 0.532903
882 4 0.271644 0.468136 0.528351
880 2 0.290397 0.48367 0.522674
881 4 0.309149 0.499203 0.516997
1000 2 0.465 0.427043 0.580641
1185 4 0.0152604 0.0356554 0.651515
945 4 0.0337966 0.0404831 0.656259
1058 4 0.0677486 0.0298354 0.605735
825 4 0.0822387 0.0303399 0.619248
1057 2 0.0767098 0.0505954 0.595063
1059 4 0.085671 0.0713553 0.58439
823 2 0.0906761 0.00804868 0.626804
1032 4 0.202077 0.00950371 0.58341
1005 4 0.339751 0.0159081 0.653823
1003 2 0.340841 0.0395907 0.661768
2283 4 0.447164 0.0333845 0.593476
2282 4 0.458189 0.0314951 0.642216
2281 2 0.452677 0.0324398 0.617846
43 3 0.461536 0.0370679 0.661128
45 3 0.483975 0.0624284 0.644665
41 1 0.476297 0.0546241 0.664635
1198 2 0.00436304 0.156426 0.589266
1153 2 0.117395 0.0943302 0.58768
1154 4 0.137934 0.104418 0.597758
1221 4 0.143798 0.101082 0.616564
1219 2 0.153322 0.112174 0.636848
1220 4 0.162847 0.123267 0.657131
1210 2 0.256924 0.163364 0.651134
1211 4 0.274815 0.146354 0.655102
888 4 0.283158 0.131855 0.664606
1083 4 0.0269684 0.183805 0.587111
1199 4 0.021521 0.170487 0.600802
1272 4 0.0851698 0.234599 0.61045
1270 2 0.104199 0.226993 0.624775
1271 4 0.123228 0.219386 0.6391
909 4 0.133966 0.20737 0.651793
907 2 0.156352 0.213656 0.6426
879 4 0.0902798 0.238288 0.590706
1212 4 0.239032 0.180373 0.647166
908 4 0.178739 0.219942 0.633407
947 4 0.178228 0.239298 0.639457
1025 4 0.398625 0.194817 0.644994
1024 2 0.405895 0.201073 0.621903
1143 4 0.383965 0.200834 0.656614
1026 4 0.413165 0.207328 0.598812
1141 2 0.364122 0.186185 0.660716
1142 4 0.344278 0.171537 0.664818
3123 4 0.45387 0.240677 0.648608
3121 2 0.476729 0.243009 0.658467
1209 4 0.064211 0.270236 0.658593
946 2 0.186659 0.254998 0.621918
948 4 0.19509 0.270698 0.60438
1237 2 0.245535 0.33333 0.595976
1238 4 0.255737 0.310745 0.599295
792 4 0.274614 0.307639 0.593759
791 4 0.301559 0.27562 0.621135
790 2 0.288087 0.29163 0.607447
982 2 0.00792466 0.394043 0.6063
893 4 0.0486782 0.376446 0.665042
983 4 0.0295369 0.404531 0.613235
992 4 0.132912 0.416098 0.616726
1239 4 0.235334 0.355916 0.592658
1041 4 0.023967 0.417033 0.626497
1039 2 0.0473364 0.422059 0.63383
1040 4 0.0707059 0.427086 0.641164
993 4 0.08694 0.428699 0.631841
991 2 0.109926 0.422399 0.624283
2170 2 0.143676 0.473088 0.643016
2172 4 0.149886 0.449219 0.638908
2243 4 0.1651 0.473083 0.593619
2171 4 0.137466 0.496957 0.647123
1160 4 0.216272 0.458914 0.617738
1159 2 0.199692 0.464406 0.599847
890 4 0.323336 0.417389 0.604957
889 2 0.328485 0.441813 0.603485
1188 4 0.280174 0.497257 0.647476
891 4 0.333634 0.466236 0.602013
1176 4 0.264173 0.493506 0.636184
1174 2 0.249951 0.500178 0.655636
1952 4 0.336472 0.4843 0.611974
1951 2 0.343036 0.500084 0.593727
1002 4 0.470194 0.450171 0.588597
1910 4 0.451338 0.453641 0.592955
1909 2 0.443967 0.477269 0.596499
1268 4 0.42787 0.486663 0.647374
943 2 0.0476894 0.0495687 0.674957
944 4 0.0615822 0.0586542 0.693655
1075 2 0.0504316 0.0667212 0.726136
1076 4 0.0477804 0.0707813 0.701607
2319 4 0.0237087 0.00704 0.731304
2317 2 0.0024797 0.0163654 0.721947
1203 4 0.059204 0.0440427 0.750588
2285 4 0.041861 0.0102915 0.722661
1004 4 0.341931 0.0632732 0.669714
44 3 0.465698 0.0716834 0.676256
1163 4 0.499432 0.0427485 0.695202
42 3 0.494052 0.0470274 0.677133
32 3 0.0883363 0.151255 0.739003
1283 4 0.173776 0.118453 0.67451
1282 2 0.195279 0.130685 0.678144
1284 4 0.216782 0.142916 0.681777
1227 4 0.216036 0.140408 0.701131
1225 2 0.224229 0.155494 0.71931
886 2 0.285729 0.124516 0.68837
887 4 0.288299 0.117177 0.712134
830 4 0.289354 0.1008 0.723628
829 2 0.313263 0.0952107 0.728348
978 4 0.318471 0.147906 0.746475
831 4 0.337173 0.0896218 0.733069
1146 4 0.482323 0.144909 0.743319
1144 2 0.479664 0.164254 0.727702
1107 4 0.0128764 0.191473 0.730487
1105 2 0.0314275 0.179045 0.741739
851 4 0.00424914 0.207715 0.726222
822 4 0.144322 0.248138 0.718761
1278 4 0.160182 0.238134 0.713572
1208 4 0.0864867 0.239155 0.690819
820 2 0.120782 0.249566 0.710454
1226 4 0.232421 0.17058 0.737489
1276 2 0.167196 0.224454 0.73329
916 2 0.307738 0.222987 0.716254
918 4 0.309012 0.200041 0.706404
977 4 0.307135 0.191561 0.724877
976 2 0.312803 0.169733 0.735676
917 4 0.306465 0.245934 0.726104
1192 2 0.395687 0.227848 0.747233
1194 4 0.413429 0.229656 0.729707
1145 4 0.477004 0.183599 0.712085
1262 4 0.430712 0.223968 0.720845
1261 2 0.448075 0.209266 0.710473
1263 4 0.465437 0.194564 0.700101
1207 2 0.0753488 0.254696 0.674706
1243 2 0.00259406 0.312819 0.69848
1244 4 0.0249437 0.323981 0.699525
821 4 0.0972414 0.250995 0.702148
1065 4 0.216082 0.27019 0.689572
1064 4 0.209182 0.292944 0.733565
1063 2 0.212632 0.281567 0.711568
1096 2 0.281123 0.275952 0.743782
1097 4 0.30038 0.260729 0.739031
1098 4 0.261866 0.291176 0.748533
806 4 0.426828 0.30181 0.734306
805 2 0.429942 0.326074 0.739476
892 2 0.0657248 0.379845 0.683015
894 4 0.0827714 0.383245 0.700988
1028 4 0.233121 0.41013 0.675612
1066 2 0.204113 0.408825 0.704586
1068 4 0.225749 0.403591 0.693197
1067 4 0.182478 0.414059 0.715974
1027 2 0.257568 0.415072 0.673851
807 4 0.433056 0.350338 0.744647
1020 4 0.420284 0.365291 0.743015
1281 4 0.059916 0.430435 0.712611
1279 2 0.0601798 0.430609 0.737612
2021 4 0.050616 0.488426 0.745924
2020 2 0.0698333 0.493629 0.730797
942 4 0.121892 0.419034 0.739708
940 2 0.143518 0.420492 0.727242
941 4 0.165143 0.421949 0.714777
1139 4 0.288408 0.421368 0.692082
1138 2 0.31011 0.4213 0.704499
1140 4 0.331812 0.421231 0.716916
1029 4 0.282014 0.420015 0.67209
1230 4 0.376516 0.419053 0.738598
1228 2 0.355178 0.431174 0.743388
1229 4 0.33384 0.443295 0.748177
1269 4 0.430469 0.481554 0.697052
3328 2 0.480763 0.441769 0.680501
3329 4 0.460493 0.453341 0.689468
1267 2 0.42917 0.484108 0.672213
1077 4 0.0530827 0.0626611 0.750665
1201 2 0.0776724 0.03657 0.765696
2047 2 0.119686 0.00256262 0.77746
1202 4 0.0961408 0.0290973 0.780805
2049 4 0.113207 0.0240816 0.788421
1148 4 0.18587 0.0432249 0.771243
1147 2 0.208243 0.0369689 0.780489
1149 4 0.230616 0.0307129 0.789736
1049 4 0.248376 0.0381546 0.783157
1257 4 0.281741 0.0584895 0.752605
1255 2 0.297724 0.0402614 0.758726
1256 4 0.313706 0.0220333 0.764847
1048 2 0.261481 0.0507749 0.800309
1050 4 0.274585 0.0633952 0.81746
819 4 0.370243 0.0769872 0.810924
846 4 0.466025 0.0396798 0.791635
1113 4 0.463587 0.0229169 0.782087
1111 2 0.450185 0.00513224 0.793457
844 2 0.47885 0.0607541 0.795705
845 4 0.491675 0.0818283 0.799775
864 4 0.0427633 0.087506 0.830414
862 2 0.0263692 0.103005 0.819634
832 2 0.0378075 0.140503 0.780351
863 4 0.00997511 0.118503 0.808854
833 4 0.0222157 0.1297 0.796641
33 3 0.0716265 0.146922 0.77239
834 4 0.0533993 0.151306 0.764061
31 1 0.081954 0.162137 0.758239
839 4 0.259138 0.114953 0.8275
1084 2 0.359994 0.117159 0.799469
1085 4 0.360832 0.0951852 0.81137
1086 4 0.359156 0.139133 0.787568
1299 4 0.37702 0.145874 0.780896
1297 2 0.387495 0.163822 0.794799
3270 4 0.486501 0.146492 0.763144
3268 2 0.494799 0.148418 0.786652
155 3 0.00198896 0.241275 0.827878
1106 4 0.0499785 0.166618 0.75299
1214 4 0.0166225 0.215462 0.768364
35 3 0.0674629 0.178884 0.752927
780 4 0.067213 0.229398 0.805304
778 2 0.0550647 0.249545 0.796838
1213 2 0.00162626 0.234834 0.773365
34 3 0.100818 0.170944 0.768486
1073 4 0.115703 0.169072 0.782022
1072 2 0.128576 0.190296 0.785022
1074 4 0.14145 0.21152 0.788021
1130 4 0.233416 0.182865 0.754191
1277 4 0.17421 0.210773 0.753009
1129 2 0.210656 0.191395 0.760058
1131 4 0.187897 0.199924 0.765925
1193 4 0.377946 0.226039 0.764759
1298 4 0.397971 0.181771 0.808702
47 3 0.396913 0.193787 0.824237