ITEM: TIMESTEP
1270000
ITEM: NUMBER OF ATOMS
4590
ITEM: BOX BOUNDS pp pp pp
-9.9985700000000008e+00 9.9985700000000008e+00
-9.9985700000000008e+00 9.9985700000000008e+00
-9.9985700000000008e+00 9.9985700000000008e+00
ITEM: ATOMS id type xs ys zs
463 2 0.0426948 0.0663 0.030777
464 4 0.0436716 0.0453006 0.01724
3290 4 0.0604109 0.0389992 0.0103724
1668 4 0.050219 0.018256 0.0511933
1666 2 0.0689816 0.0237771 0.0667709
1667 4 0.0877442 0.0292982 0.0823484
1476 4 0.236478 0.0455426 0.0573738
1474 2 0.248521 0.0267368 0.0461279
1475 4 0.260565 0.00793105 0.0348819
492 4 0.273144 0.999082 0.0212481
490 2 0.28434 0.0123855 0.00327996
986 4 0.353523 0.0560155 0.0140885
985 2 0.361751 0.034056 0.00541373
745 2 0.455429 0.0720168 0.0198975
747 4 0.458799 0.0634496 0.0431445
2722 2 0.474963 0.0527039 0.0836751
2724 4 0.467436 0.0595564 0.0608373
1826 4 0.445685 0.99549 0.0551601
465 4 0.0417179 0.0872993 0.0443141
591 4 0.0485689 0.0977304 0.0595619
701 4 0.0516961 0.112301 0.0464291
700 2 0.0365806 0.13132 0.0405162
702 4 0.021465 0.150339 0.0346034
3234 4 0.0357357 0.135308 0.00595344
423 4 0.10284 0.150203 0.0452204
567 4 0.158193 0.120155 0.0657059
566 4 0.190013 0.0818659 0.0609961
1133 4 0.214557 0.138636 0.00226144
360 4 0.227682 0.146322 0.0154514
358 2 0.247286 0.142912 0.030592
565 2 0.174103 0.10101 0.063351
359 4 0.26689 0.139501 0.0457326
771 4 0.442771 0.154243 0.0921127
553 2 0.0344491 0.188604 0.0318084
422 4 0.0717413 0.188391 0.053901
555 4 0.0526133 0.184861 0.0485783
554 4 0.016285 0.192348 0.0150386
2835 4 0.00336439 0.207145 0.0169838
421 2 0.0872905 0.169297 0.0495607
506 4 0.182162 0.226345 0.048775
737 4 0.193523 0.220177 0.0648377
736 2 0.210608 0.203195 0.0715369
738 4 0.227693 0.186212 0.078236
354 4 0.240649 0.173539 0.0702801
353 4 0.28179 0.201353 0.0643987
461 4 0.292506 0.218401 0.0649379
352 2 0.26122 0.187446 0.0673394
323 4 0.400419 0.228276 0.0405762
1071 4 0.390237 0.24446 0.031064
322 2 0.420317 0.240644 0.0493092
1014 4 0.488525 0.213043 0.0045795
1170 4 0.0405627 0.314334 0.0125504
1056 4 0.0600599 0.308023 0.0101709
294 4 0.141842 0.326671 0.0297463
292 2 0.156813 0.306726 0.0279364
505 2 0.182771 0.248705 0.037601
507 4 0.183379 0.271064 0.026427
293 4 0.171784 0.286782 0.0261265
481 2 0.275241 0.292082 0.0191725
482 4 0.283641 0.287281 0.0422282
483 4 0.266841 0.296883 0.996117
1069 2 0.383696 0.259453 0.0121537
573 4 0.395923 0.295254 0.0509192
571 2 0.376129 0.286597 0.0635059
572 4 0.356335 0.27794 0.0760926
1070 4 0.377155 0.274446 0.993243
324 4 0.440215 0.253012 0.0580422
456 4 0.15469 0.337778 0.0397198
454 2 0.150503 0.351844 0.059963
455 4 0.146315 0.36591 0.0802062
607 2 0.247083 0.373114 0.0758977
252 4 0.270723 0.389842 0.0581875
250 2 0.28442 0.409727 0.0516953
608 4 0.251158 0.38868 0.0567592
671 4 0.417631 0.355339 0.0764322
281 4 0.432686 0.371482 0.0784765
280 2 0.45247 0.360344 0.0680023
282 4 0.472254 0.349206 0.0575282
104 3 0.489774 0.342292 0.0629226
550 2 0.0414141 0.487763 0.0632761
552 4 0.0476037 0.470061 0.0798146
793 2 0.162493 0.495565 0.0111976
795 4 0.147245 0.476607 0.0054312
246 4 0.214737 0.485581 0.0163726
244 2 0.218229 0.467187 0.999799
1440 4 0.236687 0.495991 0.0730403
251 4 0.298117 0.429612 0.0452031
524 4 0.364511 0.416344 0.0561616
523 2 0.358664 0.436494 0.0697612
228 4 0.41423 0.422366 0.00998032
19 3 0.0474237 0.0310015 0.145769
20 3 0.073733 0.0167501 0.122913
1422 4 0.030892 0.0171952 0.152551
16 1 0.0698565 0.0314659 0.139856
17 3 0.0752588 0.0526957 0.132837
2480 4 0.0237581 0.0362591 0.141193
18 3 0.0829968 0.0260592 0.1582
2479 2 0.0013967 0.0462743 0.136209
450 4 0.134746 0.0601143 0.170063
652 2 0.237172 0.0450103 0.152043
654 4 0.228795 0.0409267 0.12884
484 2 0.323623 0.0177671 0.131016
486 4 0.313811 0.0208101 0.153812
485 4 0.333435 0.0147241 0.108221
297 4 0.333299 0.0323562 0.0973424
296 4 0.356293 0.0765685 0.0931853
295 2 0.344796 0.0544624 0.0952638
2723 4 0.48249 0.0458513 0.106513
2744 4 0.496626 0.00948919 0.153662
590 4 0.0676341 0.0975491 0.105792
589 2 0.0581015 0.0976397 0.0826768
448 2 0.137154 0.0850014 0.170173
582 4 0.308723 0.0956848 0.134153
580 2 0.297136 0.0924959 0.156079
557 4 0.361825 0.095031 0.0998074
758 4 0.365413 0.0918919 0.158045
558 4 0.409841 0.100686 0.112582
556 2 0.385833 0.0978584 0.106195
769 2 0.465964 0.163483 0.090749
338 4 0.0568333 0.241455 0.111735
337 2 0.0769646 0.240797 0.12655
339 4 0.097096 0.240139 0.141365
477 4 0.180291 0.239396 0.131297
475 2 0.18703 0.2162 0.137755
476 4 0.193769 0.193004 0.144212
460 2 0.308462 0.214615 0.0838132
277 2 0.294121 0.238239 0.143837
278 4 0.300731 0.24049 0.119828
462 4 0.324417 0.21083 0.102688
255 4 0.333252 0.196282 0.112574
254 4 0.382514 0.198583 0.104289
630 4 0.391955 0.210186 0.0917844
253 2 0.357883 0.197432 0.108431
628 2 0.410863 0.214843 0.107468
770 4 0.489158 0.172724 0.0893853
624 4 0.431943 0.23884 0.121541
629 4 0.429771 0.2195 0.123152
622 2 0.432959 0.248904 0.144408
611 4 0.221793 0.308999 0.135666
610 2 0.230068 0.329557 0.124088
755 4 0.308316 0.259471 0.119916
754 2 0.323087 0.26894 0.102102
741 4 0.335409 0.298015 0.09286
756 4 0.337858 0.278409 0.0842888
739 2 0.349335 0.315783 0.103609
740 4 0.363261 0.333552 0.114357
596 4 0.465995 0.321897 0.152602
621 4 0.0208602 0.394192 0.102193
619 2 0.0378605 0.388447 0.119604
620 4 0.0548608 0.382701 0.137016
647 4 0.0679795 0.369455 0.143832
315 4 0.0236214 0.410361 0.0926765
646 2 0.0892305 0.380265 0.151363
648 4 0.110482 0.391076 0.158894
612 4 0.238343 0.350116 0.11251
609 4 0.243009 0.357548 0.0950362
536 4 0.187612 0.373799 0.159986
535 2 0.174082 0.352866 0.161968
387 4 0.330325 0.382887 0.142431
302 4 0.343486 0.397892 0.141499
385 2 0.343642 0.362528 0.136656
386 4 0.356959 0.342169 0.130882
12 3 0.40914 0.362709 0.142338
11 1 0.411084 0.379301 0.158152
15 3 0.390715 0.388935 0.16146
672 4 0.400461 0.359318 0.12323
670 2 0.409046 0.357329 0.0998311
14 3 0.426209 0.395172 0.150553
495 4 0.413976 0.408326 0.1439
595 2 0.447465 0.336029 0.161664
597 4 0.428936 0.350161 0.170726
314 4 0.033894 0.459264 0.0907596
313 2 0.0287577 0.434812 0.091718
1789 2 0.0606534 0.483722 0.114011
1791 4 0.0427224 0.485498 0.131346
1466 4 0.0478598 0.495498 0.146719
1790 4 0.0785845 0.481947 0.0966759
626 4 0.176346 0.443754 0.123961
625 2 0.196473 0.445553 0.138688
627 4 0.216599 0.447353 0.153415
637 2 0.246597 0.472336 0.153747
1438 2 0.237869 0.495275 0.0980057
1439 4 0.239051 0.49456 0.122971
639 4 0.25859 0.493426 0.147701
301 2 0.339203 0.41633 0.157835
525 4 0.352817 0.456645 0.0833608
494 4 0.419384 0.440499 0.106001
493 2 0.41668 0.424412 0.12495
1583 4 0.442055 0.505216 0.144418
690 4 0.153752 0.0148993 0.233653
674 4 0.150512 0.0295903 0.245876
688 2 0.168904 0.00306413 0.217668
653 4 0.245548 0.0490938 0.175245
693 4 0.244229 0.0573114 0.192202
691 2 0.229902 0.0447978 0.20843
692 4 0.215576 0.0322843 0.224658
689 4 0.184056 0.991229 0.201682
1661 4 0.305547 0.00939763 0.166923
1700 4 0.322306 0.0597189 0.234937
1699 2 0.299608 0.0551052 0.225519
1701 4 0.27691 0.0504915 0.2161
21 1 0.36531 0.0663349 0.233956
25 3 0.37544 0.0562787 0.216211
759 4 0.364774 0.0653124 0.200398
23 3 0.342587 0.0616375 0.233806
757 2 0.365094 0.0786022 0.179221
513 4 0.0339608 0.170277 0.21443
511 2 0.0154022 0.167876 0.197847
449 4 0.139562 0.109889 0.170283
236 4 0.134651 0.128709 0.174073
235 2 0.147893 0.146532 0.185568
237 4 0.161135 0.164356 0.197064
546 4 0.201705 0.131342 0.2469
581 4 0.285549 0.0893071 0.178004
28 3 0.262767 0.120081 0.207284
30 3 0.286206 0.0922032 0.197741
26 1 0.284731 0.112612 0.207739
29 3 0.298485 0.127785 0.196829
27 3 0.291527 0.110828 0.229642
24 3 0.368662 0.0892763 0.23303
312 4 0.395603 0.128414 0.196949
310 2 0.411794 0.146938 0.192488
311 4 0.427985 0.165461 0.188028
577 2 0.072738 0.181133 0.21341
578 4 0.0526972 0.170597 0.224019
531 4 0.00623789 0.184523 0.229583
512 4 0.996844 0.165476 0.181264
579 4 0.0927788 0.191669 0.202802
279 4 0.287511 0.235989 0.167846
283 2 0.27545 0.246336 0.197831
285 4 0.279359 0.226098 0.183678
521 4 0.44434 0.196077 0.250024
2682 4 0.496476 0.21211 0.237372
520 2 0.464559 0.210702 0.248444
703 2 0.0211322 0.314305 0.210668
704 4 0.0178311 0.300445 0.190121
705 4 0.0244332 0.328165 0.231215
443 4 0.0790223 0.283046 0.238238
396 4 0.0793957 0.280168 0.218619
394 2 0.100399 0.27559 0.205849
395 4 0.121402 0.271011 0.193078
363 4 0.123871 0.263 0.173878
361 2 0.148776 0.261138 0.17508
362 4 0.173681 0.259275 0.176283
372 4 0.184808 0.258346 0.193316
370 2 0.183101 0.259727 0.218223
371 4 0.181395 0.261109 0.24313
284 4 0.271541 0.266574 0.211985
343 2 0.283828 0.319258 0.234689
345 4 0.276125 0.323588 0.211299
623 4 0.433974 0.258968 0.167274
527 4 0.42967 0.25625 0.187881
526 2 0.448434 0.270663 0.195966
528 4 0.467197 0.285076 0.204051
300 4 0.112709 0.389455 0.178534
298 2 0.125833 0.397647 0.198177
299 4 0.138957 0.405839 0.217819
750 4 0.0929308 0.377502 0.249256
537 4 0.160552 0.331933 0.163949
13 3 0.418719 0.369928 0.177958
643 2 0.457229 0.377348 0.196875
644 4 0.473538 0.389806 0.211157
645 4 0.44092 0.36489 0.182592
447 4 0.470051 0.404589 0.224793
263 4 0.0420948 0.464501 0.210775
262 2 0.049366 0.445966 0.19565
264 4 0.0566373 0.427431 0.180525
638 4 0.234604 0.451245 0.159792
290 4 0.211094 0.427841 0.21718
417 4 0.169374 0.470653 0.196138
1430 4 0.160398 0.484565 0.184405
416 4 0.191013 0.429651 0.214882
415 2 0.180193 0.450152 0.20551
289 2 0.220684 0.435618 0.238923
766 2 0.227279 0.48439 0.207944
768 4 0.202323 0.482861 0.208142
767 4 0.252235 0.485919 0.207746
303 4 0.33492 0.434768 0.174171
659 4 0.343093 0.448274 0.186418
660 4 0.331802 0.485172 0.218226
658 2 0.337447 0.466723 0.202322
713 4 0.390155 0.445391 0.240347
712 2 0.413638 0.453713 0.242472
445 2 0.456916 0.423956 0.2336
446 4 0.443782 0.443324 0.242406
714 4 0.43712 0.462035 0.244597
232 2 0.0321455 0.0291501 0.296124
234 4 0.017337 0.0465441 0.285959
317 4 0.0261286 0.0633754 0.290221
233 4 0.046954 0.0117561 0.30629
673 2 0.139112 0.0373888 0.266718
675 4 0.127711 0.0451874 0.287561
1406 4 0.223765 0.999312 0.325403
723 4 0.244731 0.0776796 0.264005
249 4 0.288506 0.0751105 0.333525
1518 4 0.372366 0.00533121 0.317357
697 2 0.378099 0.0389226 0.295533
699 4 0.376167 0.0251997 0.316345
698 4 0.38003 0.0526455 0.274721
22 3 0.374443 0.0582667 0.253466
333 4 0.393452 0.0654917 0.261369
331 2 0.411037 0.0821769 0.267496
744 4 0.47607 0.0139055 0.293128
743 4 0.476354 0.0564586 0.266862
742 2 0.476212 0.0351821 0.279995
351 4 0.485854 0.0728558 0.272778
1749 4 0.469877 0.0118216 0.335906
316 2 0.0375038 0.0844587 0.297382
318 4 0.048879 0.105542 0.304543
399 4 0.146525 0.148002 0.326641
545 4 0.185306 0.170261 0.273679
722 4 0.213445 0.115553 0.254651
721 2 0.229088 0.0966165 0.259328
544 2 0.193506 0.150802 0.26029
599 4 0.23059 0.144442 0.291967
404 4 0.233844 0.160044 0.304656
598 2 0.216699 0.135579 0.310774
349 2 0.465935 0.087684 0.26985
332 4 0.428623 0.098862 0.273622
350 4 0.446017 0.102512 0.266923
762 4 0.422539 0.127129 0.31652
760 2 0.431398 0.13247 0.293756
761 4 0.440257 0.13781 0.270993
257 4 0.467657 0.0912958 0.325517
529 2 0.0203383 0.190197 0.249437
530 4 0.0344388 0.195871 0.26929
393 4 0.153978 0.16544 0.321619
391 2 0.162964 0.174444 0.300093
392 4 0.171949 0.183448 0.278567
403 2 0.241641 0.182372 0.29654
401 4 0.238597 0.221218 0.281222
400 2 0.219205 0.234892 0.289104
402 4 0.199812 0.248566 0.296986
405 4 0.249438 0.2047 0.288424
765 4 0.3853 0.196282 0.270675
763 2 0.408464 0.202921 0.264
522 4 0.484777 0.225327 0.246863
764 4 0.431627 0.20956 0.257325
442 2 0.0671977 0.28723 0.259868
444 4 0.0553732 0.291414 0.281498
390 4 0.0936537 0.285708 0.322916
344 4 0.291531 0.314929 0.258079
309 4 0.308237 0.324825 0.259897
307 2 0.312578 0.334719 0.282445
615 4 0.418073 0.322714 0.294826
541 2 0.459963 0.315951 0.299465
542 4 0.484917 0.31685 0.298175
543 4 0.435009 0.315053 0.300755
748 2 0.0776498 0.366119 0.265446
749 4 0.0623688 0.354737 0.281636
365 4 0.0207891 0.38479 0.314382
364 2 0.0318851 0.369879 0.297657
366 4 0.0429812 0.354967 0.280933
2493 4 0.0100592 0.389822 0.33059
734 4 0.110149 0.369502 0.255222
733 2 0.133528 0.361238 0.258435
735 4 0.156907 0.352975 0.261649
678 4 0.16124 0.338738 0.329684
676 2 0.159303 0.346555 0.306013
601 2 0.106027 0.405328 0.325913
603 4 0.0988636 0.381428 0.327537
677 4 0.157366 0.354371 0.282341
497 4 0.326254 0.351765 0.325751
308 4 0.316919 0.344613 0.304994
729 4 0.325383 0.360189 0.295777
727 2 0.323132 0.381745 0.308245
728 4 0.320881 0.403301 0.320714
614 4 0.405228 0.359249 0.326464
613 2 0.411651 0.340981 0.310645
434 4 0.336965 0.403143 0.335066
118 3 0.492461 0.392917 0.310532
549 4 0.031223 0.419609 0.323496
602 4 0.113191 0.429228 0.324289
777 4 0.125221 0.439437 0.311511
1757 4 0.0927526 0.467966 0.25845
1756 2 0.0914199 0.491309 0.267312
776 4 0.101834 0.454481 0.269948
775 2 0.113528 0.446959 0.29073
291 4 0.230273 0.443394 0.260665
1545 4 0.19907 0.480718 0.313694
414 4 0.224177 0.462005 0.263878
413 4 0.189736 0.477372 0.296716
412 2 0.206956 0.469688 0.280297
1543 2 0.182564 0.487759 0.331105
438 4 0.321331 0.483255 0.275613
1435 2 0.256017 0.471016 0.327421
437 4 0.298298 0.458209 0.312259
436 2 0.309814 0.470732 0.293936
1437 4 0.276503 0.461175 0.316998
5 3 0.28735 0.4449 0.327823
2862 4 0.491676 0.438599 0.297674
120 3 0.489095 0.430055 0.315732
2861 4 0.47233 0.455713 0.254854
2860 2 0.482003 0.447156 0.276264
2584 2 0.0112636 0.0572826 0.412718
606 4 0.155693 0.0325369 0.382333
731 4 0.105302 0.0593977 0.362426
428 4 0.0933164 0.046476 0.371223
427 2 0.0857771 0.0226386 0.370886
730 2 0.125183 0.0736645 0.357288
604 2 0.1641 0.0216747 0.36144
605 4 0.172507 0.0108126 0.340547
682 2 0.211288 0.0482006 0.393387
684 4 0.198791 0.0300102 0.381635
683 4 0.223786 0.0663911 0.405138
247 2 0.306533 0.0776802 0.35066
439 2 0.270871 0.00662599 0.412302
248 4 0.32456 0.0802499 0.367794
425 4 0.397933 0.0362557 0.368648
424 2 0.418921 0.0493776 0.365114
480 4 0.490011 0.00912357 0.341194
256 2 0.463442 0.0769692 0.345571
426 4 0.43991 0.0624994 0.361581
258 4 0.459226 0.0626426 0.365625
397 2 0.141741 0.127206 0.339672
732 4 0.145063 0.0879314 0.352149
398 4 0.136957 0.10641 0.352703
600 4 0.202808 0.126716 0.32958
686 4 0.18415 0.143954 0.39187
685 2 0.187765 0.141189 0.367284
687 4 0.191381 0.138424 0.342698
321 4 0.273626 0.12308 0.381165
319 2 0.27107 0.117285 0.405353
633 4 0.342164 0.0896209 0.363253
632 4 0.377652 0.12377 0.354586
631 2 0.359908 0.106696 0.358919
453 4 0.485766 0.157889 0.406184
515 4 0.471256 0.147564 0.414432
514 2 0.455167 0.166442 0.417586
2654 4 0.0174071 0.210155 0.358061
274 2 0.148218 0.229016 0.355314
276 4 0.136037 0.248798 0.364559
275 4 0.160399 0.209234 0.346069
474 4 0.180438 0.207247 0.339812
472 2 0.201881 0.219325 0.344228
473 4 0.223323 0.231403 0.348643
708 4 0.233852 0.221892 0.362664
706 2 0.245976 0.206621 0.378316
707 4 0.258101 0.191351 0.393969
418 2 0.416296 0.188107 0.364764
419 4 0.398391 0.205098 0.360775
716 4 0.381986 0.20954 0.370408
715 2 0.368715 0.230727 0.370024
420 4 0.434201 0.171117 0.368752
269 4 0.460837 0.248598 0.360735
617 4 0.0460919 0.252936 0.386073
347 4 0.017204 0.289757 0.410133
618 4 0.0199218 0.295221 0.391348
616 2 0.0330069 0.274079 0.38871
388 2 0.109855 0.27351 0.337541
389 4 0.126057 0.261312 0.352166
374 4 0.235846 0.321319 0.362571
510 4 0.25289 0.314342 0.353136
508 2 0.260484 0.290985 0.357823
509 4 0.268078 0.267628 0.36251
488 4 0.320087 0.262907 0.396322
498 4 0.321821 0.312956 0.356975
487 2 0.302595 0.26484 0.414084
496 2 0.324037 0.332361 0.341363
489 4 0.285103 0.266773 0.431846
651 4 0.268325 0.260612 0.424911
717 4 0.355443 0.251915 0.36964
377 4 0.345597 0.261911 0.383386
376 2 0.338093 0.279578 0.367363
378 4 0.33059 0.297246 0.35134
270 4 0.502456 0.263741 0.383957
268 2 0.481647 0.25617 0.372346
306 4 0.506294 0.257063 0.403405
548 4 0.0607426 0.411798 0.363098
709 2 0.159722 0.401398 0.419125
502 2 0.21542 0.40203 0.393763
504 4 0.219987 0.38263 0.378665
373 2 0.234599 0.346029 0.366183
375 4 0.233353 0.370739 0.369795
3 3 0.282095 0.41487 0.349919
561 4 0.456009 0.412037 0.403773
547 2 0.0459828 0.415704 0.343297
407 4 0.0541342 0.42927 0.370491
406 2 0.0641828 0.435168 0.392614
408 4 0.0742314 0.441065 0.414737
710 4 0.15473 0.425587 0.415234
1544 4 0.166058 0.4948 0.348517
1436 4 0.23553 0.480858 0.337843
503 4 0.210852 0.421429 0.408862
636 4 0.208073 0.44065 0.407094
2 3 0.315377 0.420926 0.333539
1 1 0.297147 0.43117 0.343125
668 4 0.320874 0.450664 0.370492
4 3 0.304252 0.44352 0.361439
667 2 0.338042 0.447975 0.38847
433 2 0.359349 0.414282 0.334855
435 4 0.381733 0.425422 0.334644
587 4 0.405752 0.492646 0.400401
669 4 0.355209 0.445286 0.406449
336 4 0.364917 0.428775 0.41111
119 3 0.498462 0.408101 0.344851
752 4 0.467824 0.42506 0.392941
593 4 0.464303 0.463525 0.359423
751 2 0.486165 0.422506 0.37614
592 2 0.456479 0.484438 0.370675
718 2 0.0601516 0.0454194 0.491963
2586 4 0.0265903 0.0579765 0.432461
719 4 0.0818813 0.0551777 0.484362
368 4 0.10296 0.0451678 0.420969
367 2 0.115004 0.0301164 0.436893
369 4 0.127049 0.015065 0.452816
2430 4 0.212714 0.017078 0.459326
2428 2 0.236424 0.0217423 0.452903
341 4 0.229223 0.0726514 0.497301
340 2 0.208577 0.0854237 0.491316
2429 4 0.260134 0.0264065 0.446479
1182 4 0.244925 0.0601154 0.493419
441 4 0.276182 0.0169236 0.434459
1180 2 0.267324 0.0490112 0.493832
432 4 0.321611 0.0825993 0.482986
2878 2 0.490109 0.0509794 0.417335
2880 4 0.470102 0.0585444 0.430284
642 4 0.465465 0.0782024 0.431902
458 4 0.997754 0.110468 0.471552
342 4 0.187932 0.0981959 0.485331
1152 4 0.178107 0.0933289 0.50253
467 4 0.323251 0.131384 0.416941
726 4 0.306104 0.0880692 0.472063
724 2 0.287342 0.0907408 0.455751
725 4 0.268581 0.0934123 0.43944
320 4 0.268514 0.11149 0.429541
430 2 0.336083 0.0910278 0.501552
466 2 0.337943 0.127098 0.436714
468 4 0.352635 0.122812 0.456486
641 4 0.484678 0.115625 0.458941
640 2 0.475071 0.0969139 0.445422
3158 4 0.476979 0.125129 0.47516
3157 2 0.47822 0.1493 0.468881
469 2 0.0297806 0.227513 0.462285
470 4 0.00752587 0.231529 0.451619
471 4 0.0520354 0.223497 0.472952
261 4 0.134883 0.199227 0.474124
260 4 0.0949436 0.216923 0.449785
259 2 0.114914 0.208075 0.461955
938 4 0.133379 0.180666 0.481276
410 4 0.250127 0.172643 0.491022
411 4 0.241432 0.20852 0.457289
409 2 0.245779 0.190581 0.474156
650 4 0.245831 0.219161 0.44154
649 2 0.257078 0.239887 0.433226
576 4 0.400329 0.175301 0.477024
585 4 0.398605 0.251034 0.436394
575 4 0.42601 0.178872 0.434263
516 4 0.439077 0.185319 0.420739
3159 4 0.479461 0.17347 0.462603
574 2 0.413169 0.177087 0.455643
2814 4 0.0252698 0.323921 0.462847
348 4 0.0163676 0.326352 0.444205
346 2 0.0167858 0.308055 0.427169
695 4 0.1196 0.304622 0.460461
694 2 0.118123 0.287678 0.478789
696 4 0.116646 0.270733 0.497116
267 4 0.337601 0.280298 0.426971
265 2 0.35878 0.269048 0.434045
266 4 0.37996 0.257798 0.44112
583 2 0.423392 0.253264 0.438801
2457 4 0.4653 0.3092 0.470429
2455 2 0.458393 0.285858 0.464717
2456 4 0.451486 0.262517 0.459004
584 4 0.44818 0.255493 0.441207
2812 2 0.0131331 0.345373 0.467053
326 4 0.082327 0.398367 0.443096
10 3 0.155294 0.344977 0.466979
7 3 0.130358 0.371237 0.457951
327 4 0.114138 0.360843 0.452084
325 2 0.0982324 0.379605 0.44759
6 1 0.152651 0.366969 0.461687
9 3 0.159999 0.38027 0.479222
711 4 0.164714 0.377208 0.423016
8 3 0.164576 0.371964 0.442419
804 4 0.28738 0.392336 0.493574
334 2 0.366251 0.406172 0.421718
335 4 0.367585 0.383569 0.432325
238 2 0.364388 0.35696 0.462403
240 4 0.36526 0.364483 0.438574
239 4 0.363515 0.349437 0.486232
2508 4 0.483271 0.366659 0.447855
559 2 0.469129 0.399061 0.420645
560 4 0.482249 0.386086 0.437517
680 4 0.0165369 0.483811 0.473258
679 2 0.0081865 0.489986 0.450513
382 2 0.121277 0.422346 0.495388
570 4 0.14241 0.439978 0.420153
568 2 0.127225 0.438407 0.439955
569 4 0.112039 0.436837 0.459756
384 4 0.125124 0.427427 0.47121
772 2 0.214009 0.449952 0.481638
634 2 0.213267 0.454299 0.427389
635 4 0.21846 0.467948 0.447685
773 4 0.222368 0.43577 0.500458
774 4 0.20565 0.464133 0.462818
588 4 0.372971 0.467632 0.428692
1399 2 0.360865 0.47701 0.469599
1400 4 0.363095 0.471349 0.445347
586 2 0.389361 0.480139 0.414547
1401 4 0.358634 0.48267 0.493851
2712 4 0.492879 0.410771 0.458386
1126 2 0.018477 0.0575383 0.53251
1127 4 0.0349256 0.0468535 0.517003
720 4 0.0384218 0.0356612 0.499563
1128 4 0.0020284 0.0682231 0.548017
1059 4 0.120844 0.0770388 0.573424
951 4 0.209372 0.061136 0.570556
1031 4 0.221402 0.0476463 0.561771
1030 2 0.242856 0.0586056 0.568464
949 2 0.188353 0.0659225 0.583224
961 2 0.294455 0.012456 0.526173
963 4 0.298512 0.022438 0.50361
1032 4 0.26431 0.0695648 0.575158
2194 2 0.30336 0.00454217 0.584908
2195 4 0.30551 0.00953731 0.560503
1181 4 0.289722 0.037907 0.494245
841 2 0.375202 0.0725487 0.53877
843 4 0.356395 0.0805477 0.524365
842 4 0.394008 0.0645498 0.553175
1217 4 0.413063 0.0616575 0.548352
4466 4 0.450586 0.0129141 0.567823
1062 4 0.469609 0.0110253 0.574303
1218 4 0.456527 0.0748942 0.527461
1216 2 0.434795 0.0682759 0.537906
4465 2 0.438519 0.0322439 0.578116
1033 2 0.055458 0.153004 0.50361
1035 4 0.0549616 0.128122 0.506023
939 4 0.14732 0.151209 0.519206
1151 4 0.152419 0.131567 0.521989
1155 4 0.129927 0.093375 0.578113
1150 2 0.165263 0.112448 0.51226
857 4 0.28032 0.16362 0.542433
431 4 0.350554 0.0994562 0.520119
1199 4 0.0194224 0.169242 0.556657
1034 4 0.0559544 0.177886 0.501197
878 4 0.0804176 0.237579 0.546399
877 2 0.0809249 0.224426 0.567658
937 2 0.14035 0.165937 0.500241
899 4 0.297095 0.168573 0.552644
898 2 0.318145 0.181807 0.550018
856 2 0.265552 0.172893 0.560351
858 4 0.250783 0.182166 0.57827
900 4 0.339196 0.195042 0.547392
871 2 0.352336 0.225857 0.559089
872 4 0.357367 0.203396 0.549325
873 4 0.347304 0.248319 0.568853
1258 2 0.151709 0.26681 0.523218
1260 4 0.129665 0.266019 0.511443
1259 4 0.173752 0.267602 0.534993
812 4 0.302738 0.275945 0.533732
811 2 0.316169 0.267928 0.553239
813 4 0.329599 0.259911 0.572746
905 4 0.472828 0.267236 0.579227
1137 4 0.134955 0.376565 0.561303
383 4 0.11743 0.417266 0.519566
897 4 0.148312 0.363462 0.561092
1135 2 0.113913 0.369506 0.572818
895 2 0.173084 0.361141 0.563571
1189 2 0.224051 0.354762 0.536018
896 4 0.197856 0.358819 0.566051
1191 4 0.211444 0.346012 0.555758
1190 4 0.236659 0.363512 0.516278
1239 4 0.257646 0.355092 0.577271
803 4 0.254369 0.358019 0.508849
1173 4 0.262336 0.399705 0.581608
802 2 0.270875 0.375177 0.501212
1171 2 0.270658 0.419377 0.568611
928 2 0.378975 0.385856 0.561088
929 4 0.36043 0.385913 0.544318
1206 4 0.399842 0.366396 0.572938
925 2 0.478417 0.395375 0.539475
926 4 0.482296 0.41473 0.554822
927 4 0.474539 0.37602 0.524128
1001 4 0.472567 0.421197 0.5714
538 2 0.0483209 0.466985 0.534348
540 4 0.0372171 0.444728 0.536895
539 4 0.0594247 0.489243 0.531801
1160 4 0.203115 0.444577 0.570522
1159 2 0.191241 0.461651 0.584401
1172 4 0.27898 0.43905 0.555615
882 4 0.271734 0.438974 0.535792
880 2 0.283985 0.460454 0.53209
881 4 0.296235 0.481934 0.528388
1454 4 0.302834 0.493899 0.514444
1000 2 0.45881 0.440495 0.579371
1910 4 0.451343 0.478639 0.587092
1909 2 0.445646 0.500958 0.577366
663 4 0.493452 0.429543 0.54754
661 2 0.503983 0.449266 0.536347
1185 4 0.0285997 0.0340304 0.653078
945 4 0.0439061 0.0245992 0.662214
1183 2 0.00724427 0.0448314 0.645835
943 2 0.0636971 0.039856 0.663066
1058 4 0.0907626 0.0390383 0.585745
1057 2 0.105803 0.0580386 0.579585
825 4 0.0984039 0.0220035 0.595702
823 2 0.112092 0.00411112 0.60655
950 4 0.167334 0.070709 0.595891
1004 4 0.353263 0.040488 0.633682
1003 2 0.350633 0.0511275 0.656155
4467 4 0.426452 0.0515736 0.588408
2283 4 0.417007 0.0619034 0.601357
2282 4 0.427566 0.0552611 0.649783
2281 2 0.422287 0.0585822 0.62557
43 3 0.444486 0.0576472 0.660887
45 3 0.47507 0.0517716 0.639725
810 4 0.494913 0.0499551 0.635013
41 1 0.467518 0.0601157 0.659524
1082 4 0.0566728 0.174401 0.612969
1081 2 0.0379402 0.159793 0.620772
1083 4 0.0192076 0.145185 0.628574
1153 2 0.149274 0.105757 0.587989
1154 4 0.168621 0.11814 0.597866
1221 4 0.188836 0.117465 0.599084
1219 2 0.200785 0.127611 0.618565
1220 4 0.212733 0.137756 0.638046
1212 4 0.229833 0.127125 0.631391
1210 2 0.246206 0.124084 0.650042
1142 4 0.345518 0.160781 0.646914
44 3 0.473203 0.0825378 0.66135
879 4 0.0814323 0.211274 0.588916
1272 4 0.0930744 0.215889 0.60435
1270 2 0.106893 0.2039 0.621394
1271 4 0.120712 0.191911 0.638437
909 4 0.137891 0.19872 0.641982
907 2 0.15958 0.210986 0.639909
908 4 0.18127 0.223252 0.637835
947 4 0.200726 0.220761 0.633707
946 2 0.207324 0.229888 0.611383
948 4 0.213922 0.239016 0.58906
798 4 0.272329 0.243128 0.582364
796 2 0.258167 0.22255 0.581285
797 4 0.244005 0.201972 0.580206
1141 2 0.360928 0.179048 0.639564
1143 4 0.376338 0.197314 0.632214
1025 4 0.396148 0.189897 0.63361
1024 2 0.414722 0.173524 0.637084
1026 4 0.433297 0.15715 0.640559
904 2 0.487857 0.247325 0.580916
1243 2 0.0377042 0.313903 0.660944
1238 4 0.257727 0.311013 0.600888
1237 2 0.257686 0.333053 0.58908
792 4 0.265772 0.292811 0.595974
791 4 0.253125 0.281078 0.642911
790 2 0.259449 0.286945 0.619443
953 4 0.45863 0.278759 0.587837
952 2 0.44157 0.295237 0.59575
954 4 0.42451 0.311715 0.603664
3121 2 0.491281 0.267862 0.657341
3123 4 0.49029 0.289193 0.644333
1205 4 0.418618 0.322133 0.586686
1244 4 0.054365 0.330457 0.652367
983 4 0.0236359 0.369301 0.632574
1039 2 0.0620372 0.387147 0.635988
1041 4 0.0431098 0.370814 0.635579
982 2 0.999703 0.376266 0.630603
1040 4 0.0809645 0.40348 0.636397
1136 4 0.0928708 0.362448 0.584333
993 4 0.0979104 0.408229 0.627974
930 4 0.397521 0.3858 0.577858
1204 2 0.40923 0.344265 0.579812
991 2 0.118917 0.419352 0.635731
992 4 0.139924 0.430474 0.643489
2172 4 0.126877 0.472283 0.648992
2243 4 0.182874 0.496242 0.590708
1161 4 0.179366 0.478726 0.59828
891 4 0.309876 0.469319 0.601223
1952 4 0.307337 0.486413 0.591542
1187 4 0.286104 0.496319 0.626204
890 4 0.303442 0.419887 0.605202
889 2 0.306659 0.444603 0.603213
1002 4 0.445054 0.459792 0.587343
2319 4 0.0164561 0.0325047 0.706407
1075 2 0.0398434 0.0385758 0.744041
1076 4 0.02539 0.0315186 0.724898
944 4 0.0834881 0.0551128 0.663917
1256 4 0.315907 0.0677495 0.747033
1005 4 0.348003 0.061767 0.678629
1163 4 0.49077 0.0567314 0.688865
42 3 0.477275 0.0485364 0.676841
1283 4 0.178181 0.110089 0.671166
1282 2 0.19787 0.108757 0.686521
1284 4 0.217559 0.107424 0.701875
1227 4 0.217828 0.12054 0.717436
1225 2 0.210727 0.139027 0.7327
1226 4 0.203627 0.157513 0.747965
888 4 0.258985 0.124444 0.68967
1211 4 0.26258 0.121044 0.668692
886 2 0.283935 0.125736 0.690655
887 4 0.308886 0.127028 0.69164
830 4 0.312193 0.143761 0.699326
829 2 0.327964 0.15489 0.715219
1146 4 0.490784 0.137848 0.727847
1144 2 0.482227 0.154827 0.711609
3270 4 0.494916 0.138658 0.746951
1209 4 0.074698 0.241063 0.663338
1105 2 0.0526007 0.18853 0.734644
1107 4 0.0349693 0.196188 0.718654
851 4 0.0342749 0.204964 0.701181
850 2 0.015188 0.220968 0.699006
1106 4 0.0702322 0.180873 0.750634
822 4 0.140389 0.230897 0.717705
820 2 0.13209 0.254364 0.715335
1278 4 0.15342 0.216028 0.71415
1276 2 0.15217 0.205758 0.736913
916 2 0.287768 0.24703 0.737967
831 4 0.343736 0.166019 0.731111
1192 2 0.397982 0.229021 0.713328
1194 4 0.411435 0.210317 0.723042
1262 4 0.412576 0.194724 0.709271
1261 2 0.434428 0.182756 0.70717
1263 4 0.456281 0.170788 0.70507
1145 4 0.47367 0.171806 0.695371
1245 4 0.0210433 0.297349 0.66952
1207 2 0.076862 0.256591 0.682816
1179 4 0.00180034 0.297891 0.665815
1208 4 0.0790259 0.272118 0.702295
1177 2 0.00297124 0.27644 0.678609
1178 4 0.00414214 0.25499 0.691402
821 4 0.123792 0.27783 0.712965
1064 4 0.202095 0.281046 0.719196
1063 2 0.212491 0.26943 0.699647
1065 4 0.222886 0.257814 0.680098
917 4 0.278694 0.269133 0.7306
1097 4 0.276383 0.277144 0.7479
1193 4 0.384529 0.247725 0.703614
806 4 0.431224 0.272265 0.734331
805 2 0.423416 0.294859 0.727002
807 4 0.415607 0.317453 0.719673
3122 4 0.492273 0.246532 0.670349
3275 4 0.0376284 0.419534 0.751199
894 4 0.069754 0.384459 0.672771
892 2 0.0739386 0.402684 0.68937
941 4 0.156397 0.398484 0.712537
1067 4 0.167824 0.413993 0.70875
1066 2 0.18874 0.402835 0.700799
1068 4 0.209656 0.391677 0.692849
1028 4 0.21991 0.403988 0.681392
1027 2 0.242987 0.409762 0.689092
1140 4 0.322382 0.39828 0.729538
1029 4 0.266064 0.415537 0.696792
1138 2 0.30436 0.406926 0.714516
1018 2 0.415453 0.351727 0.735864
1020 4 0.422034 0.336137 0.717457
3330 4 0.488964 0.411086 0.715632
3328 2 0.467063 0.422323 0.720023
1280 4 0.0433143 0.418807 0.732477
2020 2 0.060376 0.491648 0.730152
1281 4 0.0324973 0.464994 0.716652
1279 2 0.0379058 0.4419 0.724564
2021 4 0.0434687 0.473495 0.733277
940 2 0.142078 0.41346 0.726532
893 4 0.0781232 0.420908 0.705969
942 4 0.127759 0.428437 0.740526
1139 4 0.286339 0.415571 0.699494
1989 4 0.313066 0.451343 0.734841
1229 4 0.331997 0.446187 0.730425
1228 2 0.351229 0.435178 0.742007
1230 4 0.37046 0.424169 0.753589
1100 4 0.499203 0.483102 0.750862
3329 4 0.445163 0.43356 0.724415
1077 4 0.0542968 0.0456331 0.763185
1203 4 0.0688321 0.0556337 0.77273
864 4 0.0411027 0.0841809 0.809756
1201 2 0.0923768 0.0473987 0.770996
1202 4 0.115922 0.0391637 0.769261
2049 4 0.121635 0.0186751 0.771047
1148 4 0.202496 0.0254777 0.75289
1147 2 0.209839 0.038256 0.773088
1149 4 0.217182 0.0510342 0.793287
1049 4 0.260522 0.0252351 0.810424
1048 2 0.282379 0.0153413 0.817463
1255 2 0.297161 0.0691418 0.763521
1257 4 0.278415 0.070534 0.780008
1050 4 0.304237 0.00544761 0.824502
1112 4 0.427691 0.0150461 0.812215
846 4 0.46817 0.0413809 0.78375
1113 4 0.447873 0.0490623 0.781616
1111 2 0.437782 0.0320542 0.796916
844 2 0.491581 0.0494922 0.780389
911 4 0.043911 0.0845167 0.829665
862 2 0.0333318 0.102219 0.794283
832 2 0.0148636 0.158972 0.775389
863 4 0.0255609 0.120257 0.77881
833 4 0.0146422 0.135611 0.784299
33 3 0.080433 0.148223 0.787727
31 1 0.0861251 0.168102 0.777201
32 3 0.0991635 0.163336 0.758859