ITEM: TIMESTEP
570000
ITEM: NUMBER OF ATOMS
4590
ITEM: BOX BOUNDS pp pp pp
-9.9985700000000008e+00 9.9985700000000008e+00
-9.9985700000000008e+00 9.9985700000000008e+00
-9.9985700000000008e+00 9.9985700000000008e+00
ITEM: ATOMS id type xs ys zs
463 2 0.0193481 0.0536538 0.0510875
465 4 0.0274752 0.0581782 0.0742965
464 4 0.011221 0.0491294 0.0278784
3290 4 0.00724874 0.0532247 0.00948001
3289 2 0.0116114 0.0317867 0.997374
1667 4 0.0686791 0.0704168 0.079989
534 4 0.191419 0.00551681 0.00710614
1476 4 0.208996 0.0109868 0.0669483
567 4 0.184943 0.0817382 0.0627415
490 2 0.269813 0.0403293 0.0311595
491 4 0.278217 0.0464144 0.00841021
492 4 0.261409 0.0342442 0.0539087
557 4 0.382302 0.0714778 0.0796514
745 2 0.449664 0.0774676 0.0151437
747 4 0.462597 0.0747588 0.993917
1826 4 0.464789 0.0136851 0.0476579
591 4 0.0259529 0.0779566 0.0726168
701 4 0.0684189 0.121471 0.0251731
700 2 0.0808352 0.105227 0.0395653
423 4 0.0700943 0.155843 0.995194
589 2 0.0402341 0.0977714 0.0779648
702 4 0.0932516 0.0889823 0.0539574
566 4 0.169021 0.118481 0.0926948
565 2 0.176982 0.100109 0.0777181
358 2 0.284018 0.137143 0.00809
360 4 0.261159 0.147087 0.010027
556 2 0.378089 0.0915342 0.0653274
558 4 0.373877 0.111591 0.0510035
746 4 0.43673 0.0801764 0.0363702
421 2 0.0609491 0.176941 0.00501295
553 2 0.035206 0.214059 0.0426917
554 4 0.0261993 0.234796 0.0533694
422 4 0.0518038 0.198039 0.0148317
555 4 0.0442127 0.193321 0.032014
506 4 0.177175 0.232137 0.0761775
1133 4 0.19706 0.205736 0.01253
665 4 0.373735 0.20102 0.0266201
828 4 0.452942 0.173113 0.000928335
770 4 0.446724 0.187115 0.0643831
771 4 0.461784 0.182329 0.0169383
769 2 0.454254 0.184722 0.0406607
292 2 0.153119 0.301244 0.0477273
293 4 0.171526 0.284414 0.0494955
294 4 0.134712 0.318074 0.0459592
507 4 0.177626 0.268305 0.0416468
505 2 0.1774 0.250221 0.0589122
481 2 0.249197 0.291963 0.0622012
482 4 0.245788 0.311885 0.0474814
756 4 0.289043 0.289113 0.090552
572 4 0.335875 0.261127 0.0804316
571 2 0.347444 0.260566 0.0582724
573 4 0.359013 0.260005 0.0361132
1071 4 0.37123 0.259116 0.0205985
1069 2 0.385443 0.250507 0.00191512
280 2 0.455343 0.326887 0.0564832
281 4 0.431651 0.334187 0.0597303
671 4 0.426517 0.329265 0.0784063
282 4 0.479036 0.319586 0.053236
328 2 0.0352022 0.40247 0.0167292
330 4 0.0323608 0.411441 0.0398944
621 4 0.0231538 0.397033 0.0718257
455 4 0.0881537 0.355137 0.0658025
454 2 0.109616 0.342474 0.0637557
456 4 0.131079 0.329811 0.0617089
287 4 0.164641 0.382396 0.998861
252 4 0.314642 0.39125 0.0709642
250 2 0.298784 0.397021 0.052514
251 4 0.282927 0.402793 0.0340637
608 4 0.301281 0.380497 0.0811125
227 4 0.463191 0.41567 0.0219674
551 4 0.0776513 0.472329 0.0784259
315 4 0.0267466 0.412598 0.0587082
313 2 0.0180816 0.432477 0.0711556
550 2 0.0929088 0.460441 0.0625814
552 4 0.108166 0.448552 0.0467369
245 4 0.214703 0.464795 0.00998574
244 2 0.238113 0.45797 0.0155184
246 4 0.261522 0.451144 0.021051
272 4 0.274638 0.466699 0.0245799
271 2 0.284551 0.488999 0.0191416
562 2 0.464906 0.506657 0.0328338
564 4 0.470077 0.515143 0.055778
563 4 0.459735 0.498172 0.00988955
226 2 0.475178 0.436913 0.0274653
228 4 0.487164 0.458157 0.0329631
19 3 0.0414623 0.0351181 0.142792
20 3 0.0743785 0.0477724 0.129599
1422 4 0.0355927 0.0142599 0.146629
16 1 0.0613892 0.045709 0.148191
2480 4 0.0243967 0.0312233 0.157237
17 3 0.056675 0.0666345 0.156501
1666 2 0.0697866 0.0485736 0.0921061
1668 4 0.0708941 0.0267303 0.104223
652 2 0.309613 0.0691498 0.138042
654 4 0.310092 0.0640587 0.113567
653 4 0.309134 0.0742408 0.162517
296 4 0.363175 0.0643191 0.0779765
295 2 0.367083 0.0459833 0.0945204
297 4 0.370992 0.0276475 0.111064
485 4 0.356879 0.0294536 0.125498
484 2 0.344905 0.00997035 0.135608
758 4 0.418102 0.0664962 0.165564
1759 2 0.475065 0.997607 0.158312
1761 4 0.459733 0.977951 0.160246
590 4 0.0545153 0.117586 0.0833127
582 4 0.315427 0.0920122 0.165815
339 4 0.0662779 0.234582 0.117434
476 4 0.163426 0.174728 0.129936
475 2 0.144052 0.17461 0.145741
477 4 0.124678 0.174492 0.161547
737 4 0.178984 0.206407 0.11852
736 2 0.198353 0.204461 0.102828
738 4 0.217723 0.202515 0.087137
354 4 0.232686 0.216842 0.0902042
353 4 0.282185 0.213847 0.0837588
352 2 0.257435 0.215345 0.0869815
461 4 0.301912 0.217279 0.0881931
460 2 0.320486 0.206231 0.100768
462 4 0.339061 0.195184 0.113343
255 4 0.338303 0.194953 0.133216
324 4 0.395534 0.255941 0.0720127
254 4 0.386194 0.180657 0.134891
630 4 0.405576 0.184158 0.137169
253 2 0.362249 0.187805 0.134053
622 2 0.374048 0.260714 0.125539
628 2 0.414063 0.205995 0.128435
624 4 0.398637 0.264987 0.127054
623 4 0.349459 0.256442 0.124024
629 4 0.422549 0.227833 0.119701
518 4 0.507913 0.223852 0.118397
337 2 0.0801375 0.248566 0.132847
338 4 0.0939972 0.26255 0.148259
363 4 0.0869824 0.26309 0.167022
279 4 0.236492 0.257044 0.172663
277 2 0.249498 0.263857 0.152424
483 4 0.252606 0.272041 0.076921
754 2 0.285919 0.279661 0.113488
755 4 0.282795 0.27021 0.136425
278 4 0.262504 0.27067 0.132186
741 4 0.366358 0.322108 0.0688302
322 2 0.41559 0.262328 0.0855092
323 4 0.435645 0.268716 0.0990058
619 2 0.0297742 0.381886 0.090585
620 4 0.0363945 0.366739 0.109344
647 4 0.045832 0.381349 0.16941
537 4 0.165279 0.380976 0.127017
535 2 0.174456 0.37876 0.15017
626 4 0.201097 0.401312 0.0939218
625 2 0.209803 0.423647 0.10103
611 4 0.247021 0.326707 0.147824
609 4 0.301292 0.357171 0.125346
607 2 0.301286 0.368834 0.103229
612 4 0.292314 0.345523 0.138067
610 2 0.269668 0.336115 0.142945
302 4 0.321978 0.400607 0.147321
387 4 0.330556 0.382755 0.150421
739 2 0.361948 0.334794 0.0899205
385 2 0.344401 0.364587 0.140253
740 4 0.357537 0.347479 0.111011
15 3 0.404319 0.351893 0.156183
386 4 0.358246 0.346418 0.130084
14 3 0.4168 0.38417 0.141348
495 4 0.407827 0.401897 0.144547
11 1 0.422911 0.363636 0.150258
493 2 0.411663 0.416877 0.124899
670 2 0.423042 0.341848 0.0997313
672 4 0.419568 0.354432 0.121056
12 3 0.434593 0.35181 0.134357
595 2 0.480559 0.37308 0.164074
596 4 0.504402 0.368009 0.15851
13 3 0.43653 0.366775 0.16878
314 4 0.00941657 0.452355 0.0836031
627 4 0.218509 0.445982 0.108138
637 2 0.247101 0.48978 0.167114
639 4 0.255662 0.483683 0.144427
1438 2 0.236204 0.48781 0.11085
1440 4 0.217313 0.497217 0.09744
1439 4 0.255095 0.478403 0.12426
301 2 0.335468 0.41536 0.16234
524 4 0.33718 0.508232 0.0879134
523 2 0.333635 0.490551 0.105234
525 4 0.330089 0.47287 0.122554
659 4 0.358336 0.446878 0.170534
494 4 0.415498 0.431858 0.105251
18 3 0.0726722 0.0335592 0.164423
450 4 0.149617 0.0745174 0.159987
673 2 0.133214 0.0449364 0.25043
674 4 0.146097 0.0238824 0.254423
690 4 0.153714 0.0213293 0.235862
1505 4 0.207939 0.018859 0.2066
1504 2 0.215778 0.0012129 0.190714
689 4 0.201991 0.0146406 0.224668
688 2 0.177853 0.0179849 0.230265
693 4 0.211429 0.0532439 0.198144
691 2 0.232547 0.0661905 0.194743
21 1 0.380454 0.0630391 0.234566
23 3 0.394001 0.0443043 0.236535
24 3 0.363485 0.0622408 0.250372
25 3 0.371535 0.0640137 0.213634
759 4 0.376591 0.0636894 0.193308
757 2 0.397346 0.0650928 0.179436
742 2 0.470483 0.0313229 0.246615
744 4 0.467546 0.0164941 0.226699
379 2 0.999454 0.159436 0.190354
381 4 0.019398 0.162531 0.205113
511 2 0.0401201 0.169167 0.22789
513 4 0.060748 0.15936 0.238063
578 4 0.0811722 0.156862 0.237161
577 2 0.0909351 0.135009 0.229929
579 4 0.100698 0.113156 0.222696
512 4 0.0194921 0.178974 0.217717
237 4 0.162519 0.17405 0.185802
448 2 0.162783 0.0904235 0.174088
235 2 0.168599 0.150026 0.189124
449 4 0.175948 0.10633 0.188189
236 4 0.174679 0.126001 0.192446
546 4 0.177146 0.148959 0.245823
722 4 0.187883 0.133925 0.237237
692 4 0.253666 0.0791371 0.191342
580 2 0.304158 0.0995742 0.186816
581 4 0.292889 0.107136 0.207816
30 3 0.28318 0.118419 0.221394
26 1 0.295067 0.119343 0.240798
27 3 0.300282 0.0979692 0.247514
29 3 0.314749 0.131172 0.23747
22 3 0.393181 0.081841 0.238262
333 4 0.41202 0.0833051 0.231965
312 4 0.42698 0.12497 0.20113
311 4 0.46559 0.12476 0.16935
310 2 0.446285 0.124865 0.18524
544 2 0.160688 0.163656 0.257584
285 4 0.297383 0.227826 0.175207
284 4 0.275268 0.228751 0.220049
283 2 0.286326 0.228288 0.197628
764 4 0.419688 0.213168 0.216918
763 2 0.426108 0.237041 0.220664
765 4 0.432527 0.260914 0.22441
522 4 0.499037 0.238626 0.235448
527 4 0.450919 0.247171 0.174674
520 2 0.47837 0.228083 0.244767
395 4 0.0697255 0.255972 0.195188
394 2 0.0582478 0.257179 0.217368
396 4 0.0467701 0.258385 0.239549
749 4 0.0830606 0.290289 0.231235
361 2 0.102074 0.271367 0.185158
750 4 0.119288 0.323894 0.223557
362 4 0.117166 0.279644 0.203294
372 4 0.131921 0.292061 0.205382
748 2 0.101174 0.307092 0.227396
370 2 0.148848 0.279219 0.218563
371 4 0.165776 0.266378 0.231744
345 4 0.236155 0.287372 0.227195
343 2 0.259674 0.293426 0.221247
344 4 0.283193 0.29948 0.215299
307 2 0.307828 0.317228 0.240768
309 4 0.300956 0.306101 0.219458
528 4 0.472302 0.288773 0.192357
526 2 0.461611 0.267972 0.183516
646 2 0.0701398 0.378481 0.174517
366 4 0.00637116 0.36137 0.25231
300 4 0.130197 0.337728 0.230962
648 4 0.0944476 0.375613 0.179624
298 2 0.128232 0.362632 0.232007
299 4 0.126267 0.387537 0.233051
536 4 0.183633 0.376544 0.173323
289 2 0.227045 0.410257 0.209503
290 4 0.251984 0.409025 0.20819
597 4 0.456715 0.37815 0.169639
643 2 0.439854 0.36763 0.211718
644 4 0.436207 0.360221 0.235318
645 4 0.443501 0.37504 0.188118
263 4 0.029505 0.468249 0.180741
262 2 0.0495063 0.464458 0.195258
264 4 0.0695076 0.460667 0.209775
417 4 0.181028 0.471282 0.202712
415 2 0.186325 0.446994 0.200029
638 4 0.238541 0.495878 0.189801
416 4 0.191622 0.422705 0.197347
291 4 0.202106 0.411488 0.210816
768 4 0.194897 0.497742 0.237306
766 2 0.215457 0.499242 0.223156
767 4 0.236018 0.500742 0.209007
1430 4 0.165225 0.481478 0.195023
1574 4 0.281394 0.514903 0.179504
303 4 0.348958 0.430112 0.177359
660 4 0.364868 0.494863 0.183002
658 2 0.361602 0.470871 0.176768
231 4 0.358856 0.500944 0.200347
232 2 0.043488 0.0316043 0.295149
233 4 0.0582198 0.0116496 0.291993
1403 4 0.076166 0.0159355 0.285923
234 4 0.0287563 0.0515591 0.298305
2756 4 0.0212166 0.0466606 0.316058
675 4 0.120332 0.0659905 0.246436
429 4 0.0888863 0.0113931 0.327379
1701 4 0.308082 0.0404915 0.270127
1699 2 0.295346 0.0261834 0.286197
1516 2 0.35578 0.00549377 0.277487
1518 4 0.34737 0.0260791 0.28892
697 2 0.383188 0.040159 0.309519
699 4 0.360438 0.0362971 0.299892
1747 2 0.459655 0.997228 0.31662
1749 4 0.479523 0.00913519 0.326035
743 4 0.473421 0.0461516 0.266531
257 4 0.432899 0.071844 0.318396
480 4 0.476287 0.0270268 0.331364
351 4 0.476694 0.0658585 0.26745
349 2 0.463081 0.0666192 0.288409
1748 4 0.439786 0.98532 0.307205
350 4 0.449468 0.0673798 0.309368
530 4 0.0259275 0.1576 0.275586
399 4 0.0890179 0.168776 0.313671
397 2 0.0939813 0.144431 0.316468
398 4 0.0989447 0.120085 0.319265
732 4 0.108109 0.105598 0.329262
721 2 0.186315 0.115914 0.25451
723 4 0.184746 0.0979041 0.271783
404 4 0.253293 0.14211 0.30995
403 2 0.237743 0.161678 0.309278
599 4 0.222384 0.131416 0.336624
28 3 0.282406 0.129531 0.257361
249 4 0.263399 0.133619 0.32407
248 4 0.29593 0.113556 0.291823
247 2 0.279664 0.123587 0.307946
632 4 0.342319 0.108225 0.297097
631 2 0.362835 0.110019 0.311276
633 4 0.383351 0.111813 0.325455
331 2 0.427277 0.0896346 0.250736
332 4 0.442534 0.0959642 0.269506
762 4 0.439915 0.108135 0.284851
760 2 0.448333 0.129738 0.294212
761 4 0.456751 0.151341 0.303573
390 4 0.0891328 0.227535 0.306179
392 4 0.141292 0.176631 0.289511
391 2 0.118524 0.186694 0.287157
393 4 0.095757 0.196758 0.284802
545 4 0.14423 0.178353 0.269345
388 2 0.10542 0.244895 0.313832
389 4 0.121706 0.262254 0.321486
405 4 0.222192 0.181246 0.308607
706 2 0.290561 0.18105 0.324203
708 4 0.269614 0.194427 0.326929
473 4 0.249605 0.195268 0.331918
420 4 0.407956 0.178447 0.328877
418 2 0.413901 0.202191 0.323776
521 4 0.457702 0.217539 0.254087
419 4 0.419846 0.225936 0.318676
443 4 0.0446398 0.262765 0.258927
444 4 0.0376091 0.28675 0.30224
442 2 0.0411244 0.274758 0.280584
401 4 0.186976 0.239426 0.284049
400 2 0.201837 0.241819 0.304013
402 4 0.216698 0.244211 0.323978
308 4 0.3147 0.328355 0.262079
496 2 0.316963 0.318823 0.302716
497 4 0.308078 0.325222 0.280238
498 4 0.325849 0.312424 0.325195
615 4 0.401624 0.314969 0.309348
543 4 0.413363 0.311035 0.293434
541 2 0.435648 0.321511 0.297774
542 4 0.457932 0.331986 0.302114
2493 4 0.00745356 0.374486 0.308182
364 2 0.0136247 0.372662 0.273407
365 4 0.0208782 0.383955 0.294503
603 4 0.0880611 0.351773 0.322624
601 2 0.0949404 0.373518 0.312377
734 4 0.132593 0.391343 0.252242
733 2 0.142508 0.395368 0.27484
602 4 0.10182 0.395264 0.30213
735 4 0.152422 0.399393 0.297438
677 4 0.162314 0.389905 0.311166
777 4 0.0850717 0.404192 0.294501
676 2 0.182144 0.37472 0.309983
678 4 0.201974 0.359536 0.3088
729 4 0.286312 0.376863 0.258605
727 2 0.289848 0.385358 0.281855
434 4 0.310502 0.383611 0.307881
728 4 0.293384 0.393852 0.305104
433 2 0.325989 0.387587 0.327104
613 2 0.386852 0.331442 0.320993
614 4 0.372081 0.347915 0.332638
447 4 0.444456 0.364252 0.25144
445 2 0.444602 0.384342 0.266325
446 4 0.444748 0.404432 0.281209
1756 2 0.071316 0.490916 0.289601
1757 4 0.0712844 0.467572 0.298558
776 4 0.0713398 0.45136 0.285156
775 2 0.0782057 0.427776 0.289828
549 4 0.0402611 0.481475 0.331088
413 4 0.169876 0.475684 0.285358
414 4 0.200481 0.48068 0.246127
412 2 0.185178 0.478182 0.265743
437 4 0.268147 0.470097 0.285237
436 2 0.284108 0.48347 0.271395
438 4 0.300068 0.496843 0.257553
713 4 0.411049 0.439013 0.304533
593 4 0.383389 0.485497 0.333592
120 3 0.503778 0.430269 0.311843
712 2 0.425198 0.457738 0.29591
714 4 0.439348 0.476463 0.287288
2755 2 0.0108095 0.0467098 0.338793
317 4 0.0655589 0.060256 0.354923
428 4 0.0585979 0.0401533 0.354878
427 2 0.0737421 0.0257732 0.341128
316 2 0.053781 0.0806761 0.363259
1782 4 0.102023 0.00253387 0.369162
606 4 0.171827 0.0607552 0.362117
604 2 0.196115 0.0640642 0.367049
605 4 0.220403 0.0673733 0.37198
683 4 0.298334 0.0464356 0.36217
682 2 0.296707 0.0686571 0.373516
725 4 0.34516 0.0696668 0.416865
698 4 0.405939 0.044021 0.319146
425 4 0.424749 0.0330834 0.427748
424 2 0.431347 0.0399594 0.404631
426 4 0.437944 0.0468354 0.381515
256 2 0.434014 0.0661716 0.342723
258 4 0.435129 0.0604992 0.367049
2586 4 0.999593 0.102116 0.400312
318 4 0.0420031 0.101096 0.371594
731 4 0.116486 0.0741437 0.367225
730 2 0.112297 0.089871 0.348243
686 4 0.154145 0.167213 0.407009
685 2 0.166683 0.149196 0.395037
687 4 0.179222 0.131179 0.383065
600 4 0.18203 0.12331 0.365024
598 2 0.202207 0.127363 0.350824
684 4 0.29508 0.0908785 0.384862
320 4 0.289582 0.10488 0.398087
468 4 0.37736 0.164212 0.412267
514 2 0.444319 0.161005 0.39842
515 4 0.46151 0.165306 0.38078
2653 2 0.0072493 0.219996 0.394919
2654 4 0.0299679 0.214994 0.404085
474 4 0.219048 0.20906 0.369022
472 2 0.234326 0.202164 0.35047
276 4 0.190831 0.237533 0.404415
707 4 0.311509 0.167673 0.321477
466 2 0.353841 0.171298 0.416936
451 2 0.497212 0.165011 0.363723
453 4 0.472272 0.163597 0.364807
304 2 0.492595 0.223504 0.411336
618 4 0.0504696 0.304559 0.399382
347 4 0.0400852 0.309319 0.415748
616 2 0.071872 0.297965 0.388263
617 4 0.0932744 0.29137 0.377145
275 4 0.157864 0.272576 0.390781
274 2 0.174348 0.255055 0.397598
508 2 0.247404 0.305485 0.364842
510 4 0.241835 0.32031 0.384191
374 4 0.242917 0.320305 0.404064
509 4 0.252973 0.29066 0.345493
488 4 0.303113 0.27607 0.384847
376 2 0.318809 0.280905 0.354754
377 4 0.316139 0.265238 0.374056
378 4 0.321479 0.296572 0.335451
487 2 0.300799 0.273698 0.40963
716 4 0.388616 0.25085 0.37713
715 2 0.366567 0.258791 0.385845
717 4 0.344518 0.266732 0.394561
269 4 0.470718 0.282478 0.367222
268 2 0.471257 0.269535 0.388608
406 2 0.0691637 0.405306 0.380167
408 4 0.0728036 0.383886 0.39254
373 2 0.232909 0.341557 0.412628
502 2 0.220561 0.39671 0.406642
503 4 0.221044 0.411763 0.386684
375 4 0.222901 0.362809 0.421193
504 4 0.220077 0.381656 0.426601
435 4 0.341476 0.391563 0.346327
336 4 0.350422 0.421497 0.402961
334 2 0.350883 0.399133 0.414134
561 4 0.454271 0.393105 0.411218
752 4 0.462945 0.394728 0.393011
751 2 0.479289 0.401757 0.375442
753 4 0.495633 0.408785 0.357873
407 4 0.0655237 0.426727 0.367794
681 4 0.0303599 0.41555 0.418601
547 2 0.0499078 0.462785 0.344608
548 4 0.0595545 0.444095 0.358129
500 4 0.120687 0.470691 0.354577
499 2 0.133095 0.492399 0.354458
1437 4 0.269466 0.494084 0.34167
668 4 0.300146 0.442239 0.378766
5 3 0.268744 0.48007 0.356628
1 1 0.282731 0.462765 0.351776
2 3 0.304156 0.470785 0.349372
4 3 0.282419 0.447255 0.369031
3 3 0.276232 0.45266 0.331924
667 2 0.313823 0.452884 0.39679
592 2 0.403046 0.500123 0.338578
119 3 0.510868 0.418947 0.347045
594 4 0.422703 0.51475 0.343564
718 2 0.0517162 0.0513423 0.484934
719 4 0.0760291 0.0456941 0.483463
720 4 0.0274034 0.0569905 0.486405
368 4 0.103564 0.0378857 0.433818
367 2 0.113287 0.0603901 0.438737
369 4 0.123009 0.0828945 0.443657
2428 2 0.21701 0.0154955 0.470021
341 4 0.197874 0.0392805 0.458324
340 2 0.184997 0.0592924 0.465997
2430 4 0.193246 0.0211714 0.464706
342 4 0.17212 0.0793043 0.473671
1152 4 0.163748 0.082465 0.491381
1182 4 0.225541 0.0694167 0.470273
1180 2 0.246297 0.0667325 0.483954
441 4 0.257163 0.00651028 0.464159
724 2 0.329769 0.0675137 0.436452
432 4 0.285708 0.056612 0.499006
963 4 0.276577 0.037775 0.500074
430 2 0.303523 0.074135 0.49813
2878 2 0.486722 0.061493 0.435803
2880 4 0.470217 0.0775017 0.445627
642 4 0.476943 0.0895915 0.460946
471 4 0.0382594 0.171183 0.491266
1034 4 0.111829 0.140773 0.460149
1033 2 0.0998461 0.160849 0.469012
319 2 0.278787 0.118895 0.415757
726 4 0.314377 0.0653607 0.456039
321 4 0.267992 0.13291 0.433428
431 4 0.321337 0.0916581 0.497253
574 2 0.409585 0.142387 0.448911
576 4 0.396945 0.125847 0.462762
516 4 0.427129 0.156705 0.41606
641 4 0.485276 0.127773 0.492146
640 2 0.48111 0.108682 0.476546
575 4 0.422224 0.158926 0.435059
458 4 0.0124897 0.19166 0.454852
457 2 0.995149 0.174466 0.449481
260 4 0.0865557 0.231545 0.441317
469 2 0.027556 0.191188 0.501774
261 4 0.0884015 0.201769 0.48145
259 2 0.0874786 0.216657 0.461384
1035 4 0.0878629 0.180924 0.477875
411 4 0.240156 0.208012 0.483758
409 2 0.262556 0.196903 0.483765
410 4 0.284956 0.185793 0.483771
467 4 0.330321 0.178384 0.421605
306 4 0.475227 0.239471 0.419617
346 2 0.033591 0.288296 0.427624
348 4 0.0270967 0.267273 0.4395
695 4 0.0779711 0.263364 0.492805
694 2 0.102314 0.265727 0.498004
696 4 0.126656 0.268091 0.503204
7 3 0.139734 0.344041 0.490547
1260 4 0.145864 0.263375 0.496772
10 3 0.174352 0.330919 0.485824
650 4 0.239761 0.281037 0.470137
489 4 0.298485 0.271326 0.434413
651 4 0.28225 0.279354 0.443822
649 2 0.261005 0.280196 0.45698
812 4 0.340948 0.310789 0.485154
267 4 0.353247 0.273105 0.412062
266 4 0.368066 0.295452 0.454272
265 2 0.360656 0.284279 0.433167
813 4 0.356931 0.267113 0.503531
811 2 0.348939 0.288951 0.494343
270 4 0.471797 0.256593 0.409995
2456 4 0.500961 0.28889 0.446221
583 2 0.459987 0.275472 0.446382
584 4 0.48458 0.278847 0.443382
585 4 0.435395 0.272097 0.449382
383 4 0.0745347 0.416645 0.487524
326 4 0.103706 0.359792 0.451711
327 4 0.13042 0.329466 0.481162
325 2 0.117063 0.344629 0.466436
6 1 0.162096 0.34844 0.493665
709 2 0.166228 0.364316 0.436701
710 4 0.16475 0.359125 0.412287
8 3 0.167622 0.367776 0.482091
711 4 0.167706 0.369507 0.461115
588 4 0.399199 0.420213 0.428902
238 2 0.385801 0.376835 0.452159
240 4 0.366737 0.382627 0.437053
335 4 0.351343 0.37677 0.425307
239 4 0.404865 0.371043 0.467265
559 2 0.433854 0.383445 0.421943
560 4 0.413437 0.373786 0.432668
680 4 0.0231106 0.437571 0.462909
1381 2 0.00288167 0.475486 0.458737
1383 4 0.0195252 0.456949 0.460873
679 2 0.0267353 0.426561 0.440755
570 4 0.105067 0.461462 0.410724
568 2 0.104729 0.459069 0.43561
384 4 0.1131 0.445903 0.474976
382 2 0.0938173 0.431274 0.48125
569 4 0.104391 0.456676 0.460497
636 4 0.193582 0.47232 0.417823
634 2 0.202433 0.461395 0.438498
772 2 0.233953 0.425048 0.480459
774 4 0.221683 0.434916 0.461036
635 4 0.211284 0.45047 0.459174
669 4 0.327499 0.463528 0.414813
1400 4 0.386284 0.509427 0.431285
586 2 0.407801 0.443688 0.429257
587 4 0.416402 0.467162 0.429613
1126 2 0.0216297 0.05835 0.52947
1127 4 0.0201851 0.0583362 0.504508
1128 4 0.0230744 0.0583637 0.554432
2237 4 0.007431 0.0100668 0.516353
1058 4 0.128933 0.0469681 0.551518
1057 2 0.136116 0.0673601 0.564078
961 2 0.281943 0.0218809 0.518614
962 4 0.28731 0.00598668 0.537155
1032 4 0.257081 0.0902279 0.567125
1181 4 0.267053 0.0640484 0.497635
1217 4 0.389982 0.0642392 0.522727
841 2 0.358954 0.0755058 0.506353
842 4 0.376708 0.0583087 0.510127
1216 2 0.411387 0.0597189 0.534833
1218 4 0.432792 0.0551986 0.54694
1062 4 0.498074 0.992996 0.56329
937 2 0.102996 0.153958 0.558043
1059 4 0.143299 0.0877521 0.576638
1155 4 0.148176 0.105389 0.583083
1151 4 0.163224 0.124718 0.518123
1150 2 0.163486 0.103591 0.504752
938 4 0.0840837 0.156705 0.54192
1153 2 0.164236 0.124513 0.58431
898 2 0.321515 0.157696 0.572297
899 4 0.298647 0.164174 0.564533
900 4 0.344383 0.151218 0.58006
843 4 0.3412 0.0927028 0.502579
3158 4 0.468342 0.135221 0.500547
3157 2 0.480341 0.152964 0.513446
878 4 0.0785961 0.196203 0.556866
877 2 0.0892772 0.207177 0.576631
470 4 0.0168526 0.211193 0.512282
797 4 0.255639 0.213085 0.578144
856 2 0.26173 0.189022 0.549273
857 4 0.26529 0.166009 0.540167
796 2 0.253081 0.237819 0.575524
858 4 0.25817 0.212034 0.55838
871 2 0.38387 0.239617 0.527546
872 4 0.397946 0.226466 0.543486
3159 4 0.492341 0.170706 0.526346
1258 2 0.156661 0.281406 0.510318
1259 4 0.167457 0.299437 0.523864
791 4 0.315645 0.246255 0.595464
873 4 0.369794 0.252769 0.511605
1136 4 0.0938638 0.336254 0.587767
1135 2 0.112891 0.352463 0.588385
9 3 0.166075 0.351367 0.516337
1189 2 0.213922 0.359493 0.542618
896 4 0.18157 0.347108 0.563893
1191 4 0.190698 0.361811 0.551587
895 2 0.165972 0.361265 0.577364
1190 4 0.237146 0.357175 0.533648
802 2 0.25508 0.39081 0.519945
803 4 0.253503 0.365992 0.522536
804 4 0.256658 0.415629 0.517354
929 4 0.34686 0.384358 0.536159
928 2 0.364474 0.386176 0.553812
930 4 0.382088 0.387994 0.571464
925 2 0.477716 0.385984 0.516888
927 4 0.469143 0.400365 0.498317
926 4 0.48629 0.371603 0.535458
1001 4 0.429954 0.421043 0.547573
1171 2 0.239231 0.436765 0.546565
1173 4 0.228497 0.439172 0.569019
1172 4 0.249964 0.434359 0.524111
882 4 0.309197 0.423856 0.531124
880 2 0.321386 0.443942 0.53968
881 4 0.333575 0.464027 0.548235
1952 4 0.327868 0.466767 0.566816
773 4 0.246222 0.41518 0.499883
1951 2 0.347131 0.476285 0.579603
1000 2 0.441998 0.437399 0.562154
661 2 0.491774 0.477484 0.512234
663 4 0.491244 0.452613 0.514744
662 4 0.492304 0.502356 0.509725
1002 4 0.454042 0.453755 0.576734
1910 4 0.437115 0.464234 0.574885
1909 2 0.431747 0.48753 0.582209
2319 4 0.0613118 0.0100848 0.65139
1185 4 0.0171475 0.0375318 0.627027
1183 2 0.0124726 0.0464694 0.649906
945 4 0.069893 0.0290629 0.649882
825 4 0.114126 0.0111287 0.619252
1030 2 0.239617 0.0781922 0.580367
951 4 0.226796 0.0471449 0.596896
1031 4 0.222154 0.0661566 0.593609
949 2 0.220371 0.0231619 0.599849
950 4 0.213947 0.999179 0.602802
2282 4 0.444422 0.0123179 0.654805
810 4 0.46716 0.0937127 0.636117
2283 4 0.445003 0.995811 0.607604
2281 2 0.444712 0.00406437 0.631205
1082 4 0.0401571 0.120106 0.635592
1083 4 0.0851891 0.111139 0.615782
1081 2 0.0626731 0.115622 0.625687
939 4 0.121908 0.151212 0.574166
1283 4 0.176118 0.112148 0.626412
1154 4 0.180297 0.143637 0.585537
1284 4 0.186382 0.119539 0.674794
1282 2 0.18125 0.115844 0.650603
1005 4 0.347663 0.091721 0.613416
1003 2 0.352778 0.0849234 0.636928
1004 4 0.357893 0.0781257 0.66044
808 2 0.48884 0.0915462 0.62385
45 3 0.466823 0.0759931 0.64534
809 4 0.51052 0.0893797 0.611584
1208 4 0.0551824 0.267392 0.654664
879 4 0.0999583 0.218151 0.596396
1272 4 0.0985734 0.201684 0.608162
1270 2 0.113423 0.197164 0.627764
1271 4 0.128272 0.192643 0.647366
1221 4 0.175114 0.154795 0.601641
1212 4 0.21833 0.166776 0.650644
1219 2 0.194005 0.162773 0.615948
1220 4 0.212896 0.17075 0.630254
1210 2 0.236633 0.182856 0.656264
1025 4 0.422176 0.209078 0.668742
1193 4 0.372009 0.225091 0.657831
1024 2 0.429 0.205553 0.644947
1026 4 0.435824 0.202028 0.621153
1244 4 0.0234969 0.251018 0.629772
1243 2 0.0252517 0.273133 0.641306
1245 4 0.0270064 0.295248 0.652839
1207 2 0.0793485 0.273797 0.655066
984 4 0.996229 0.328557 0.627712
948 4 0.160439 0.294013 0.618448
1209 4 0.103515 0.280202 0.655468
798 4 0.250523 0.262553 0.572904
946 2 0.185103 0.290209 0.619996
947 4 0.209767 0.286404 0.621544
1239 4 0.241945 0.320862 0.596063
790 2 0.305831 0.268742 0.590646
792 4 0.296018 0.291228 0.585828
1238 4 0.290249 0.308856 0.591235
1237 2 0.266097 0.314859 0.593649
953 4 0.436002 0.302 0.586531
954 4 0.453581 0.341692 0.611354
952 2 0.444791 0.321846 0.598942
3121 2 0.503912 0.271997 0.667643
983 4 0.0255578 0.357725 0.599609
1039 2 0.0519067 0.39836 0.610084
1041 4 0.0321508 0.387305 0.620699
1040 4 0.0716627 0.409414 0.599469
982 2 0.0108933 0.343141 0.613661
897 4 0.150375 0.375422 0.590834
1137 4 0.131918 0.368673 0.589004
992 4 0.118034 0.397086 0.649963
991 2 0.102033 0.402636 0.631569
1204 2 0.380429 0.383924 0.613795
1206 4 0.380613 0.378917 0.589298
1205 4 0.380246 0.38893 0.638291
993 4 0.0860318 0.408186 0.613175
1159 2 0.173708 0.445305 0.620331
1160 4 0.154146 0.434568 0.609051
1188 4 0.219038 0.489514 0.63819
1161 4 0.193269 0.456041 0.631611
889 2 0.308172 0.438953 0.596068
891 4 0.318245 0.454565 0.579335
890 4 0.298099 0.423341 0.612801
1953 4 0.366395 0.485802 0.592389
1269 4 0.462354 0.483744 0.625289
1184 4 0.00779776 0.055407 0.672785
4338 4 0.00206589 0.00236466 0.718446
943 2 0.0716224 0.0492303 0.664561
944 4 0.0733517 0.0693977 0.67924
1076 4 0.0734117 0.0860422 0.692359
43 3 0.434716 0.0628834 0.66
1163 4 0.48442 0.0498012 0.681835
42 3 0.467051 0.0596248 0.67888
41 1 0.455039 0.0730871 0.66461
845 4 0.50662 0.009239 0.750592
1075 2 0.0679932 0.0871741 0.716742
1077 4 0.0625748 0.088306 0.741126
1105 2 0.076627 0.157511 0.732895
1107 4 0.0727719 0.171406 0.712469
1106 4 0.0804821 0.143615 0.753321
1227 4 0.204991 0.166462 0.702327
1148 4 0.22876 0.120516 0.744485
1225 2 0.217655 0.150175 0.716454
1226 4 0.230318 0.133888 0.730581
44 3 0.451462 0.0935888 0.674871
1142 4 0.453373 0.160908 0.704108
1141 2 0.438652 0.176196 0.690889
851 4 0.0737695 0.189065 0.719535
852 4 0.0401786 0.209358 0.688542
850 2 0.0569741 0.199211 0.704038
1178 4 0.0257082 0.212167 0.674824
1177 2 0.0147351 0.234265 0.678876
909 4 0.162639 0.183064 0.671194
907 2 0.175405 0.177207 0.69188
908 4 0.188171 0.171351 0.712566
1211 4 0.254936 0.198936 0.661885
829 2 0.332806 0.184524 0.726952
830 4 0.31331 0.189194 0.712009
886 2 0.290854 0.189405 0.676467
888 4 0.273552 0.19502 0.659312
887 4 0.308156 0.183791 0.693622
831 4 0.352302 0.179854 0.741894
1192 2 0.36344 0.217013 0.679888
1194 4 0.354871 0.208935 0.701945
1262 4 0.406512 0.210905 0.723204
1143 4 0.42393 0.191483 0.67767
3356 4 0.483274 0.229155 0.736002
3355 2 0.489604 0.234037 0.712311
1261 2 0.42876 0.222184 0.724929
3357 4 0.495934 0.238919 0.688619
1263 4 0.451009 0.233463 0.726655
1145 4 0.478671 0.215883 0.749742
1179 4 0.00376198 0.256364 0.682927
821 4 0.143342 0.254135 0.729922
1065 4 0.250957 0.293275 0.706374
1064 4 0.284243 0.264802 0.730501
1063 2 0.2676 0.279039 0.718438
3122 4 0.503712 0.247546 0.672865
3274 2 0.0179253 0.390641 0.749677
892 2 0.0714671 0.409299 0.706286
894 4 0.0516091 0.40536 0.72096
3276 4 0.026719 0.404211 0.730605
1067 4 0.153913 0.414905 0.687915
941 4 0.145963 0.413794 0.706391
1028 4 0.223754 0.415268 0.697249
1066 2 0.178848 0.414425 0.689712
1068 4 0.203782 0.413945 0.69151
1027 2 0.244323 0.407002 0.685684
1029 4 0.264893 0.398737 0.674119
1139 4 0.2835 0.398508 0.666422
1098 4 0.277467 0.326207 0.757937
806 4 0.37524 0.354611 0.659544
807 4 0.357302 0.349112 0.705898
805 2 0.366271 0.351862 0.682721
1019 4 0.382635 0.386529 0.754977
1018 2 0.371431 0.369689 0.740279
1020 4 0.360226 0.352848 0.725581
1281 4 0.0149563 0.463459 0.692584
1279 2 0.0189545 0.443034 0.706442
1983 4 0.0072286 0.481182 0.699269
1981 2 0.0113326 0.496171 0.718856
1280 4 0.0229528 0.42261 0.720299
893 4 0.0913251 0.413239 0.691612
2172 4 0.135781 0.489405 0.688348
940 2 0.131404 0.416875 0.726483
1176 4 0.197641 0.492565 0.710198
1174 2 0.217926 0.478039 0.708545
1175 4 0.23821 0.463514 0.706892
1138 2 0.298746 0.411278 0.681577
1140 4 0.313992 0.424048 0.696731
1228 2 0.342245 0.437313 0.740364
1229 4 0.346737 0.461697 0.743594
1100 4 0.494949 0.446825 0.697135
1099 2 0.498427 0.466504 0.682107
1101 4 0.501904 0.486182 0.66708
1203 4 0.0626799 0.0706799 0.753778
1201 2 0.0730942 0.0488276 0.760039
1202 4 0.0835085 0.0269753 0.7663
911 4 0.102061 0.0660604 0.795474
2049 4 0.0939203 0.00983712 0.766081
910 2 0.0942636 0.0817769 0.813289
912 4 0.0864664 0.0974934 0.831104
1149 4 0.217602 0.0843259 0.777142
1048 2 0.318633 0.99919 0.756086
1255 2 0.296265 0.0831687 0.801954
1256 4 0.30724 0.0611831 0.806576
1050 4 0.325707 0.0229534 0.759316
846 4 0.461546 0.0212794 0.768596
1113 4 0.455691 0.026893 0.787955
844 2 0.484083 0.0152592 0.759594
1111 2 0.446393 0.0493908 0.782247
1112 4 0.437095 0.0718887 0.77654
980 4 0.44728 0.00572658 0.810301
864 4 0.0646829 0.0953583 0.772149
862 2 0.0415621 0.103869 0.767886
863 4 0.0184413 0.11238 0.763623
33 3 0.10933 0.119361 0.783333
31 1 0.110935 0.142419 0.781299
35 3 0.0956023 0.149978 0.766252
34 3 0.107404 0.152455 0.80192
32 3 0.132058 0.147783 0.773937
1147 2 0.223181 0.102421 0.760813
1130 4 0.217984 0.145952 0.793783
838 2 0.250035 0.116338 0.812704
1257 4 0.28529 0.105154 0.797332
839 4 0.271564 0.120171 0.80058
958 2 0.305008 0.149761 0.819115
959 4 0.298665 0.130432 0.804579
817 2 0.361089 0.0867532 0.817376
1084 2 0.3403 0.127255 0.78353
1085 4 0.344062 0.102806 0.787175
1086 4 0.336538 0.151704 0.779886
819 4 0.358399 0.105085 0.800586
1299 4 0.356376 0.158167 0.783894
1073 4 0.133188 0.243003 0.808907
1072 2 0.142428 0.221246 0.800754