ITEM: TIMESTEP
3260000
ITEM: NUMBER OF ATOMS
4590
ITEM: BOX BOUNDS pp pp pp
-9.9985700000000008e+00 9.9985700000000008e+00
-9.9985700000000008e+00 9.9985700000000008e+00
-9.9985700000000008e+00 9.9985700000000008e+00
ITEM: ATOMS id type xs ys zs
1666 2 0.0680583 0.0564768 0.0758759
701 4 0.0237413 0.0784818 0.00147572
1668 4 0.0822441 0.0548983 0.0553467
3290 4 0.0987688 0.0592315 0.040849
3289 2 0.101584 0.038146 0.0277091
3291 4 0.104398 0.0170604 0.0145692
566 4 0.121208 0.0109217 0.00159797
565 2 0.143689 0.00342599 0.00957205
2183 4 0.106105 0.00382317 0.986859
490 2 0.301543 0.0146129 0.0562088
491 4 0.310859 0.0240593 0.0350153
492 4 0.292228 0.00516643 0.0774024
700 2 0.0213129 0.103325 3.04833e-05
702 4 0.0188845 0.128168 0.998585
460 2 0.292164 0.167065 0.0648893
150 3 0.474612 0.11596 0.998191
423 4 0.0775901 0.171396 0.00219095
505 2 0.151588 0.242674 0.0513616
506 4 0.161591 0.220544 0.057312
737 4 0.168148 0.201201 0.0566905
736 2 0.190224 0.193311 0.0479974
738 4 0.2123 0.185421 0.0393042
354 4 0.223055 0.186064 0.0226823
352 2 0.247346 0.186584 0.0285847
461 4 0.285411 0.183686 0.0474733
353 4 0.271638 0.187103 0.0344872
665 4 0.358536 0.189552 0.0218331
664 2 0.340391 0.178812 0.00839558
3339 4 0.0347827 0.27852 0.996912
2807 4 0.0236412 0.272842 0.0120214
2806 2 0.0122991 0.25889 0.0293965
915 4 0.124672 0.243583 0.0162196
293 4 0.121382 0.269229 0.0478653
507 4 0.141585 0.264803 0.0454112
287 4 0.163973 0.286006 0.035817
286 2 0.159414 0.30756 0.0239919
292 2 0.109653 0.288145 0.059257
288 4 0.154854 0.329113 0.0121668
294 4 0.0979231 0.307062 0.0706487
456 4 0.0957621 0.323465 0.0814869
356 4 0.248805 0.256605 0.014423
483 4 0.252153 0.277384 0.0174722
612 4 0.271616 0.30441 0.0477459
610 2 0.261253 0.29479 0.0683669
609 4 0.267506 0.321676 0.0560577
482 4 0.297993 0.287093 3.82768e-06
481 2 0.275073 0.282238 0.00873802
571 2 0.332585 0.290417 0.000485698
572 4 0.310693 0.302485 0.999962
573 4 0.354477 0.278349 0.00100973
990 4 0.149584 0.345915 0.0233558
988 2 0.164823 0.365198 0.0279526
1289 4 0.181769 0.396716 0.0170829
989 4 0.180061 0.384481 0.0325494
1288 2 0.201122 0.404683 0.0034028
607 2 0.274163 0.345126 0.0504931
250 2 0.29223 0.396432 0.0632173
252 4 0.277067 0.376554 0.0628519
608 4 0.280819 0.368576 0.0449285
740 4 0.331663 0.338323 0.0717297
741 4 0.371961 0.3349 0.0423177
739 2 0.351812 0.336611 0.0570237
226 2 0.394202 0.40657 0.0314705
227 4 0.407446 0.391762 0.0162879
1305 4 0.416027 0.376984 0.00579436
1303 2 0.408946 0.356223 0.993793
1046 4 0.494557 0.360182 0.00642151
1045 2 0.496869 0.3612 0.0312972
280 2 0.466295 0.35911 0.0789932
282 4 0.490334 0.355699 0.0730191
281 4 0.442257 0.362522 0.0849672
552 4 0.00452345 0.468347 0.0573399
550 2 0.0109484 0.48089 0.0366864
313 2 0.0294731 0.442938 0.0731319
314 4 0.0229279 0.465073 0.0635195
1788 4 0.133378 0.499112 0.0428475
1786 2 0.153726 0.484679 0.0411714
1767 4 0.114903 0.496349 0.0431977
243 4 0.224537 0.430544 0.0643454
1440 4 0.214259 0.420934 0.0791109
241 2 0.207176 0.44594 0.0550336
242 4 0.189814 0.461337 0.0457218
1787 4 0.174074 0.470245 0.0394953
251 4 0.307392 0.41631 0.0635828
524 4 0.325163 0.424809 0.0628194
271 2 0.29217 0.477519 0.0658054
272 4 0.294553 0.455311 0.0770439
228 4 0.380959 0.421378 0.0466532
525 4 0.367738 0.433179 0.0379587
523 2 0.34645 0.428994 0.0503891
1583 4 0.475298 0.487191 0.028991
1582 2 0.472951 0.498093 0.0513696
1667 4 0.0538725 0.0580553 0.0964052
16 1 0.0336647 0.0496376 0.122157
19 3 0.0210079 0.0606782 0.138167
17 3 0.0351011 0.0628657 0.103392
20 3 0.0237414 0.0298875 0.11667
18 3 0.0550596 0.0457656 0.13026
2480 4 0.0113645 0.0746046 0.15437
1422 4 0.00414064 0.0531473 0.150328
652 2 0.266901 0.0699957 0.14683
654 4 0.27452 0.0603948 0.125036
1476 4 0.29236 0.0535609 0.123981
1474 2 0.305465 0.0622861 0.104557
486 4 0.336946 0.0148564 0.1395
297 4 0.378637 0.0453764 0.113085
295 2 0.399811 0.0567076 0.120044
484 2 0.353361 0.0223826 0.122206
485 4 0.369776 0.0299089 0.104912
296 4 0.420985 0.0680388 0.127004
747 4 0.505718 0.014016 0.0861768
745 2 0.488796 0.0285333 0.0974933
746 4 0.471874 0.0430505 0.10881
557 4 0.42725 0.0776604 0.109581
450 4 0.0808794 0.115483 0.0967795
236 4 0.14295 0.12054 0.123203
449 4 0.123346 0.124392 0.121638
448 2 0.102113 0.119937 0.109209
235 2 0.146637 0.12966 0.14619
237 4 0.150325 0.138779 0.169178
462 4 0.298917 0.150444 0.0823053
1475 4 0.318571 0.0710112 0.085133
29 3 0.251325 0.162637 0.131011
28 3 0.254355 0.135937 0.157888
580 2 0.306162 0.113936 0.129892
581 4 0.284256 0.123368 0.122384
30 3 0.282344 0.141419 0.133307
26 1 0.265917 0.151644 0.145317
27 3 0.275394 0.167039 0.159541
582 4 0.328067 0.104505 0.1374
758 4 0.345477 0.114689 0.139591
757 2 0.355094 0.107205 0.161424
556 2 0.447935 0.0890516 0.117798
558 4 0.468621 0.100443 0.126016
771 4 0.481543 0.110793 0.137575
769 2 0.475649 0.125166 0.157167
477 4 0.235997 0.174562 0.130841
371 4 0.194241 0.210399 0.151718
476 4 0.201795 0.210974 0.133104
475 2 0.218896 0.192768 0.131972
756 4 0.345275 0.239723 0.125275
754 2 0.339443 0.232507 0.148493
255 4 0.355496 0.246844 0.109386
253 2 0.379364 0.246316 0.101954
624 4 0.449714 0.225803 0.156475
629 4 0.444236 0.23475 0.139879
628 2 0.430553 0.246163 0.122337
338 4 0.0826939 0.252345 0.16556
611 4 0.250889 0.28517 0.088988
279 4 0.278799 0.281217 0.152155
277 2 0.267656 0.283215 0.129861
278 4 0.256512 0.285213 0.107568
285 4 0.282426 0.280142 0.172258
254 4 0.403232 0.245787 0.0945216
630 4 0.41687 0.257576 0.104796
619 2 0.0377092 0.370346 0.138005
620 4 0.0323983 0.389667 0.123049
621 4 0.04302 0.351026 0.152962
315 4 0.0360183 0.420804 0.0827442
454 2 0.112486 0.340044 0.0898909
455 4 0.129211 0.356622 0.098295
537 4 0.125324 0.387782 0.147499
535 2 0.134155 0.378383 0.126078
536 4 0.142985 0.368984 0.104657
625 2 0.210653 0.385472 0.148221
627 4 0.210671 0.407086 0.13565
626 4 0.210634 0.363858 0.160791
1439 4 0.227532 0.40786 0.125518
301 2 0.316818 0.411932 0.133995
386 4 0.322139 0.342433 0.0888378
302 4 0.336101 0.39627 0.131156
670 2 0.411122 0.352742 0.103858
385 2 0.327442 0.360378 0.105422
387 4 0.332745 0.378322 0.122007
12 3 0.383036 0.359451 0.137944
11 1 0.375169 0.381048 0.13885
15 3 0.354654 0.381978 0.129006
672 4 0.392962 0.357938 0.120241
13 3 0.373587 0.387529 0.161074
14 3 0.389987 0.394908 0.127593
671 4 0.429283 0.347547 0.0874757
1618 2 0.149459 0.512972 0.121608
1431 4 0.147887 0.476478 0.146666
1620 4 0.143799 0.493898 0.136753
1429 2 0.154675 0.455736 0.158869
1438 2 0.220896 0.414397 0.102314
639 4 0.271505 0.473221 0.130946
638 4 0.300911 0.439529 0.153326
637 2 0.286208 0.456375 0.142136
303 4 0.297536 0.427594 0.136834
659 4 0.32035 0.438277 0.154132
1559 4 0.386698 0.494737 0.137804
495 4 0.391638 0.412687 0.117495
493 2 0.39839 0.436322 0.122077
494 4 0.405141 0.459956 0.126659
1584 4 0.470604 0.508996 0.0737483
688 2 0.156591 0.044154 0.200026
690 4 0.147683 0.0674748 0.198627
674 4 0.155014 0.0795562 0.213222
689 4 0.1655 0.0208331 0.201425
1506 4 0.221189 0.0107842 0.171256
1505 4 0.183111 0.0126179 0.203621
1504 2 0.20215 0.0117011 0.187438
722 4 0.18619 0.0624987 0.243656
653 4 0.259282 0.0795966 0.168623
22 3 0.389006 0.0694748 0.214918
698 4 0.404828 0.0702232 0.22738
697 2 0.406393 0.0486253 0.23988
351 4 0.489761 0.0436728 0.189353
349 2 0.481631 0.0658401 0.19758
742 2 0.494441 0.00769235 0.250874
511 2 0.0109333 0.126394 0.22127
513 4 0.0346029 0.133258 0.225492
578 4 0.0451002 0.150484 0.222285
2479 2 0.00445078 0.090143 0.172698
2481 4 0.997537 0.105682 0.191027
673 2 0.148218 0.102982 0.218719
675 4 0.141422 0.126408 0.224217
546 4 0.121794 0.122528 0.23048
693 4 0.265681 0.0853462 0.185753
691 2 0.276986 0.0924844 0.206881
1701 4 0.309665 0.100669 0.222346
692 4 0.288292 0.0996226 0.22801
1699 2 0.33231 0.101769 0.211802
333 4 0.414178 0.0887819 0.223879
21 1 0.385993 0.0909181 0.207155
23 3 0.367026 0.0998876 0.217065
25 3 0.383441 0.0904159 0.18453
1700 4 0.354955 0.102868 0.201258
759 4 0.364712 0.0997204 0.183256
24 3 0.404602 0.103602 0.212743
350 4 0.473501 0.0880074 0.205808
331 2 0.43881 0.0930091 0.223133
332 4 0.463443 0.0972362 0.222387
770 4 0.469755 0.139539 0.17676
312 4 0.482006 0.130444 0.191652
310 2 0.483407 0.141844 0.213861
311 4 0.484808 0.153244 0.23607
577 2 0.0441273 0.173675 0.231579
529 2 0.0161735 0.223355 0.216565
530 4 0.0285783 0.207888 0.231798
579 4 0.0431545 0.196867 0.240873
362 4 0.156474 0.238048 0.190963
361 2 0.135174 0.250982 0.193006
370 2 0.184593 0.225812 0.168879
372 4 0.174946 0.241226 0.186041
755 4 0.333611 0.225291 0.171711
622 2 0.445423 0.242386 0.17469
531 4 0.00376871 0.238823 0.201332
339 4 0.049841 0.280545 0.190583
704 4 0.0323059 0.290385 0.183858
337 2 0.0662674 0.266445 0.178071
703 2 0.0238415 0.312375 0.192223
443 4 0.085592 0.242819 0.259847
363 4 0.113873 0.263916 0.195049
395 4 0.109469 0.272201 0.213528
394 2 0.100238 0.267046 0.236187
283 2 0.273167 0.275422 0.194999
284 4 0.263908 0.270702 0.217741
528 4 0.427174 0.314508 0.210524
526 2 0.431359 0.294578 0.196017
623 4 0.441132 0.258969 0.192905
527 4 0.435544 0.274649 0.181509
2952 4 0.503596 0.316356 0.200555
2615 4 0.0121305 0.344445 0.216985
705 4 0.0153771 0.334365 0.200589
648 4 0.103358 0.379919 0.202427
647 4 0.135549 0.379755 0.164159
300 4 0.0883053 0.368445 0.204989
646 2 0.119454 0.379837 0.183293
298 2 0.0921494 0.36338 0.229171
734 4 0.150989 0.364912 0.234832
289 2 0.212213 0.393831 0.255931
416 4 0.198161 0.403831 0.218424
290 4 0.196624 0.399367 0.237182
597 4 0.360729 0.39586 0.178265
345 4 0.340065 0.343718 0.213679
596 4 0.338836 0.362196 0.208067
645 4 0.382951 0.398004 0.17812
595 2 0.349782 0.379028 0.193166
343 2 0.347317 0.345399 0.237549
542 4 0.42642 0.331716 0.223185
541 2 0.433448 0.338991 0.246051
264 4 0.0191854 0.420607 0.229319
1430 4 0.161462 0.434995 0.171072
415 2 0.181258 0.41396 0.203034
417 4 0.164354 0.424088 0.187643
438 4 0.253712 0.466083 0.223821
436 2 0.266248 0.469913 0.245113
658 2 0.3313 0.448654 0.174072
643 2 0.391296 0.42113 0.182671
644 4 0.399641 0.444257 0.187222
660 4 0.342251 0.459031 0.194012
231 4 0.34494 0.475513 0.205416
447 4 0.407806 0.452092 0.205648
229 2 0.359856 0.493862 0.197292
445 2 0.415331 0.449545 0.229356
1403 4 0.0274258 0.0186867 0.274713
233 4 0.0442386 0.0246422 0.282881
232 2 0.0511372 0.0477637 0.289437
234 4 0.0580358 0.0708852 0.295993
317 4 0.0725249 0.0818654 0.304792
606 4 0.145349 0.0635177 0.33815
1405 2 0.211243 0.0274063 0.303267
1406 4 0.192204 0.0396282 0.313911
721 2 0.182164 0.0771349 0.263525
723 4 0.178138 0.0917711 0.283393
1407 4 0.230283 0.0151843 0.292624
699 4 0.407959 0.0270274 0.252381
1518 4 0.426562 0.0203146 0.249845
743 4 0.49067 0.0202847 0.272143
425 4 0.480661 0.0191603 0.289464
424 2 0.487951 0.0366616 0.305765
258 4 0.485312 0.0677979 0.333113
426 4 0.495242 0.0541629 0.322066
1516 2 0.426903 0.010294 0.27275
316 2 0.0664472 0.101312 0.290298
318 4 0.0603695 0.120758 0.275804
393 4 0.100466 0.147645 0.326767
392 4 0.11256 0.166911 0.282233
544 2 0.11555 0.138968 0.248254
545 4 0.109305 0.155408 0.266028
391 2 0.106513 0.157278 0.3045
599 4 0.169035 0.0853294 0.299552
403 2 0.228946 0.146192 0.302264
598 2 0.176657 0.095896 0.320892
404 4 0.227155 0.121726 0.297433
521 4 0.485179 0.171817 0.243916
405 4 0.230737 0.170659 0.307096
401 4 0.225152 0.183824 0.292089
400 2 0.216505 0.203883 0.304255
402 4 0.207858 0.223943 0.316421
763 2 0.456809 0.207692 0.330771
764 4 0.445708 0.229511 0.325684
442 2 0.0663645 0.247187 0.275223
444 4 0.047137 0.251554 0.290598
396 4 0.091007 0.26189 0.258845
496 2 0.331653 0.257235 0.33476
497 4 0.308707 0.248484 0.330064
366 4 0.0437336 0.353348 0.304878
263 4 0.0586052 0.396263 0.248137
749 4 0.0626993 0.343121 0.306425
365 4 0.999676 0.365513 0.325166
364 2 0.0217047 0.35943 0.315022
602 4 0.080969 0.433669 0.31417
748 2 0.0742065 0.34349 0.28423
777 4 0.0806386 0.416349 0.303612
750 4 0.0857137 0.34386 0.262034
299 4 0.0959936 0.358315 0.253352
735 4 0.150411 0.400805 0.269647
733 2 0.1507 0.382858 0.25224
677 4 0.160836 0.413864 0.279381
291 4 0.227801 0.388295 0.27468
414 4 0.236488 0.405284 0.281058
412 2 0.250589 0.416151 0.298615
413 4 0.26469 0.427018 0.316172
727 2 0.327073 0.408805 0.327093
344 4 0.354569 0.34708 0.261419
308 4 0.349132 0.392176 0.303454
729 4 0.342945 0.389965 0.322816
309 4 0.350381 0.348031 0.279993
307 2 0.349756 0.370104 0.291724
2924 4 0.500747 0.36176 0.332905
118 3 0.495653 0.382064 0.321325
543 4 0.440476 0.346267 0.268916
615 4 0.422169 0.350708 0.277065
614 4 0.435743 0.344708 0.324819
613 2 0.428956 0.347708 0.300942
2862 4 0.483251 0.405094 0.271899
120 3 0.481148 0.404894 0.295132
713 4 0.465088 0.409299 0.277833
116 1 0.493439 0.404063 0.314286
119 3 0.483173 0.416679 0.330834
262 2 0.0388953 0.408435 0.238728
775 2 0.0941986 0.426268 0.285094
1757 4 0.123758 0.448279 0.269329
776 4 0.107759 0.436188 0.266576
1756 2 0.130664 0.467374 0.283919
1758 4 0.137569 0.486468 0.29851
1775 4 0.138781 0.4847 0.317342
1544 4 0.200509 0.514558 0.33658
767 4 0.214896 0.495711 0.274003
676 2 0.173077 0.431778 0.291807
678 4 0.185318 0.449692 0.304233
768 4 0.180608 0.465837 0.294801
766 2 0.197752 0.480774 0.284402
437 4 0.278783 0.473743 0.266405
1437 4 0.294371 0.499064 0.291227
433 2 0.292316 0.453348 0.303704
435 4 0.283454 0.460806 0.281545
434 4 0.301178 0.44589 0.325863
446 4 0.422856 0.446998 0.253064
712 2 0.444124 0.422446 0.27425
714 4 0.42316 0.435593 0.270667
731 4 0.08033 0.0691659 0.423962
730 2 0.0890396 0.0739848 0.401025
604 2 0.131179 0.0683241 0.358183
605 4 0.117009 0.0731305 0.378215
683 4 0.252427 0.0736349 0.368925
249 4 0.28823 0.0299796 0.368591
684 4 0.269054 0.0265289 0.371223
682 2 0.260741 0.0500819 0.370074
247 2 0.311391 0.0291429 0.377973
633 4 0.332312 0.0483992 0.392073
248 4 0.334553 0.0283062 0.387356
631 2 0.343621 0.0659738 0.4058
1747 2 0.482605 0.00275469 0.357799
1749 4 0.489268 0.0267353 0.355409
256 2 0.477864 0.08577 0.34882
2586 4 0.0115852 0.134932 0.384943
2584 2 0.00570359 0.110892 0.388505
2585 4 0.999822 0.0868529 0.392068
399 4 0.102832 0.161906 0.339
732 4 0.0977493 0.0788037 0.378088
397 2 0.108101 0.145711 0.357306
398 4 0.11337 0.129516 0.375613
600 4 0.184279 0.106463 0.342233
685 2 0.212602 0.126542 0.36302
687 4 0.202165 0.113259 0.344585
686 4 0.223038 0.139824 0.381454
410 4 0.232561 0.142476 0.398729
409 2 0.244556 0.163548 0.404832
321 4 0.261931 0.0896434 0.379728
319 2 0.260579 0.0941631 0.404282
419 4 0.376761 0.159433 0.369089
418 2 0.363377 0.146851 0.386052
420 4 0.349993 0.134269 0.403015
716 4 0.396387 0.155867 0.368069
632 4 0.35493 0.0835484 0.419526
762 4 0.464314 0.169506 0.388379
257 4 0.470416 0.103742 0.364526
760 2 0.465579 0.146031 0.379864
761 4 0.466843 0.122556 0.371349
515 4 0.472592 0.0824397 0.416363
390 4 0.0862919 0.231329 0.411572
388 2 0.0991278 0.221548 0.392473
274 2 0.149492 0.22397 0.363828
276 4 0.12785 0.21156 0.362166
389 4 0.111964 0.211767 0.373375
473 4 0.237193 0.221439 0.350236
474 4 0.190415 0.235757 0.360603
472 2 0.213804 0.228598 0.355419
275 4 0.171135 0.23638 0.365489
708 4 0.254504 0.217616 0.340447
489 4 0.250493 0.251048 0.380158
707 4 0.302779 0.204595 0.341251
651 4 0.264642 0.240056 0.387602
649 2 0.268874 0.21826 0.3991
706 2 0.278642 0.211106 0.340849
650 4 0.273106 0.196464 0.410598
411 4 0.25655 0.184621 0.410935
377 4 0.404677 0.220759 0.354375
717 4 0.409575 0.202361 0.35522
715 2 0.402981 0.179114 0.361645
376 2 0.388428 0.23802 0.346425
765 4 0.467911 0.185873 0.335857
1258 2 0.125641 0.323407 0.390739
1259 4 0.14266 0.318649 0.37305
1260 4 0.108622 0.328165 0.408428
696 4 0.0968032 0.310605 0.415526
509 4 0.225638 0.304406 0.374131
488 4 0.218668 0.289244 0.385547
508 2 0.233214 0.328167 0.375918
487 2 0.234581 0.270146 0.382852
498 4 0.3546 0.265985 0.339457
378 4 0.372178 0.25528 0.338475
267 4 0.359905 0.331431 0.351722
266 4 0.364629 0.285142 0.370043
585 4 0.36689 0.273214 0.386697
583 2 0.370052 0.260237 0.407834
265 2 0.362267 0.308286 0.360882
504 4 0.17703 0.400353 0.338608
510 4 0.24079 0.351928 0.377704
374 4 0.260101 0.359273 0.37522
373 2 0.258025 0.383209 0.368295
375 4 0.255949 0.407145 0.36137
3 3 0.275912 0.409942 0.36265
2923 2 0.478134 0.351679 0.329407
2925 4 0.455522 0.341598 0.32591
751 2 0.477266 0.409417 0.370303
753 4 0.470933 0.409911 0.34612
752 4 0.483598 0.408923 0.394486
601 2 0.079896 0.436627 0.338975
3672 4 0.0351679 0.502383 0.350344
407 4 0.0186672 0.415528 0.417031
679 2 0.0347613 0.483857 0.38587
680 4 0.0456427 0.46364 0.375968
406 2 0.0297936 0.43376 0.40403
408 4 0.0409199 0.451991 0.39103
603 4 0.0788231 0.439584 0.36378
549 4 0.0859294 0.443525 0.382356
547 2 0.104117 0.450796 0.397896
548 4 0.122305 0.458067 0.413437
502 2 0.179597 0.417816 0.356318
503 4 0.182164 0.435279 0.374028
634 2 0.192269 0.475709 0.356837
636 4 0.187882 0.454852 0.369911
635 4 0.196656 0.496566 0.343763
728 4 0.311201 0.427646 0.331369
2 3 0.297164 0.436533 0.346714
5 3 0.262304 0.431023 0.334577
1 1 0.275724 0.431033 0.352977
668 4 0.278855 0.456581 0.382104
4 3 0.268131 0.44671 0.368305
667 2 0.285456 0.480494 0.385232
669 4 0.292058 0.504406 0.38836
2757 4 0.000831308 0.0829736 0.41197
368 4 0.0599689 0.0656558 0.421583
367 2 0.0480835 0.0768763 0.440504
369 4 0.0361982 0.0880968 0.459426
341 4 0.165582 0.0707534 0.457353
2430 4 0.180747 0.0586602 0.45226
441 4 0.219294 0.0153406 0.450963
2428 2 0.195474 0.0404294 0.443545
2429 4 0.2102 0.0221986 0.43483
2879 4 0.44685 0.00491394 0.439732
2878 2 0.466448 0.0148244 0.451684
2880 4 0.486047 0.0247348 0.463636
642 4 0.495281 0.0397827 0.452455
640 2 0.497912 0.0619193 0.441131
641 4 0.500543 0.084056 0.429807
718 2 0.0375671 0.0898254 0.501671
719 4 0.0409602 0.0840509 0.477581
259 2 0.0666959 0.164819 0.491092
1152 4 0.1471 0.13024 0.474216
342 4 0.140502 0.11336 0.46486
340 2 0.153042 0.0920569 0.461106
1150 2 0.161905 0.14113 0.49117
320 4 0.259226 0.0986827 0.428837
725 4 0.278995 0.0936354 0.433249
724 2 0.275068 0.0970338 0.457707
726 4 0.27114 0.100432 0.482166
432 4 0.260772 0.107013 0.499565
468 4 0.353865 0.076935 0.438323
467 4 0.389265 0.108475 0.454223
466 2 0.371565 0.0927049 0.446273
574 2 0.417482 0.130427 0.450768
576 4 0.398179 0.123968 0.465289
3158 4 0.495316 0.103405 0.431036
575 4 0.436786 0.136886 0.436248
516 4 0.440346 0.119362 0.426246
514 2 0.456469 0.100901 0.421304
260 4 0.0624333 0.176837 0.469584
471 4 0.0693508 0.195054 0.464682
469 2 0.0706972 0.210514 0.445077
470 4 0.0720437 0.225974 0.425472
2455 2 0.402729 0.22407 0.453186
2457 4 0.421547 0.213671 0.465951
616 2 0.0223669 0.26031 0.43907
617 4 0.0463062 0.257584 0.445752
695 4 0.0791569 0.280923 0.451697
694 2 0.0879801 0.295764 0.433611
878 4 0.093293 0.262575 0.477951
2456 4 0.383912 0.234469 0.440422
584 4 0.373214 0.247261 0.428971
304 2 0.491929 0.27571 0.417003
1010 4 0.450995 0.332024 0.455442
1009 2 0.45855 0.30866 0.450728
1011 4 0.466105 0.285296 0.446013
305 4 0.482759 0.289343 0.43585
709 2 0.126208 0.40494 0.489111
326 4 0.116299 0.332036 0.427238
325 2 0.128911 0.349794 0.439517
327 4 0.141523 0.367551 0.451797
8 3 0.15261 0.3815 0.494908
7 3 0.15912 0.367728 0.460548
6 1 0.166715 0.368104 0.482258
9 3 0.166662 0.346451 0.490599
1191 4 0.206853 0.367248 0.489519
1189 2 0.230612 0.360099 0.486422
10 3 0.187867 0.376534 0.482661
1190 4 0.254371 0.35295 0.483326
803 4 0.266848 0.367838 0.490131
335 4 0.381546 0.412258 0.45995
238 2 0.358905 0.392974 0.494265
240 4 0.367932 0.401711 0.472647
561 4 0.49852 0.412583 0.40746
2507 4 0.467207 0.338363 0.464481
560 4 0.500201 0.39534 0.45437
559 2 0.499361 0.403961 0.430915
2506 2 0.47522 0.361457 0.459224
2508 4 0.483233 0.384551 0.453966
540 4 0.0504434 0.460592 0.481226
1381 2 0.0167624 0.448928 0.463299
1382 4 0.0402382 0.445731 0.471289
569 4 0.111709 0.452274 0.42864
710 4 0.115605 0.421486 0.473651
570 4 0.126779 0.438537 0.4743
568 2 0.119244 0.445405 0.45147
1393 2 0.220794 0.498977 0.467721
1394 4 0.230669 0.493867 0.490116
1446 4 0.247812 0.486637 0.483017
588 4 0.324292 0.49746 0.445199
1400 4 0.311149 0.480544 0.446608
1401 4 0.323702 0.43251 0.440618
1399 2 0.317425 0.456527 0.443613
1444 2 0.26807 0.487417 0.497653
334 2 0.361682 0.419977 0.446872
336 4 0.341818 0.427696 0.433795
1126 2 0.00180125 0.0770313 0.538557
720 4 0.034174 0.0955999 0.525761
949 2 0.191866 0.0838783 0.551039
1182 4 0.218823 0.0626843 0.57709
1180 2 0.238284 0.0483518 0.570685
950 4 0.206594 0.0782965 0.570458
963 4 0.252554 0.0148889 0.561978
1181 4 0.257745 0.0340193 0.564281
961 2 0.275604 0.00523504 0.56116
1216 2 0.374871 0.0647622 0.524508
1218 4 0.384592 0.0438661 0.514811
4467 4 0.444797 0.993354 0.573864
1127 4 0.0149163 0.0958821 0.528667
1033 2 0.0644781 0.138234 0.54655
1034 4 0.0647883 0.136025 0.521646
261 4 0.0709586 0.152802 0.5126
1035 4 0.064168 0.140442 0.571454
1030 2 0.136875 0.0931849 0.545537
1032 4 0.114468 0.0894188 0.555974
1154 4 0.102441 0.0853063 0.571429
1031 4 0.159282 0.0969511 0.535101
951 4 0.177138 0.0894601 0.531619
1151 4 0.17671 0.15202 0.508123
939 4 0.186238 0.140682 0.521337
937 2 0.18313 0.153589 0.542525
938 4 0.180021 0.166496 0.563712
843 4 0.303408 0.0895687 0.543247
431 4 0.286026 0.0987066 0.54192
430 2 0.273399 0.10286 0.520742
841 2 0.32741 0.0826372 0.544271
1217 4 0.36515 0.0856583 0.534205
842 4 0.351411 0.0757058 0.545295
857 4 0.366106 0.155867 0.570857
899 4 0.374619 0.150644 0.553668
1272 4 0.111876 0.241303 0.542175
1270 2 0.123274 0.233107 0.562865
1271 4 0.134672 0.224912 0.583556
879 4 0.107143 0.246387 0.523193
898 2 0.391027 0.168741 0.548333
900 4 0.407435 0.186837 0.542998
872 4 0.40084 0.202248 0.532
873 4 0.378479 0.240868 0.554565
871 2 0.389659 0.221558 0.543283
813 4 0.371062 0.240009 0.57449
877 2 0.100218 0.254481 0.500572
1204 2 0.378806 0.310637 0.57409
1206 4 0.356851 0.317117 0.564031
930 4 0.340297 0.325174 0.570325
954 4 0.417264 0.293695 0.583417
952 2 0.439395 0.282725 0.579537
905 4 0.481394 0.271346 0.578252
983 4 0.0565649 0.387724 0.574731
982 2 0.032098 0.392701 0.576064
1041 4 0.0727017 0.395857 0.5653
711 4 0.13681 0.388394 0.504571
896 4 0.195166 0.38082 0.50363
897 4 0.190312 0.380828 0.553401
895 2 0.192739 0.380824 0.528515
1137 4 0.202048 0.395703 0.559364
1135 2 0.190956 0.398391 0.581611
802 2 0.284221 0.364968 0.507883
804 4 0.301594 0.362099 0.525635
929 4 0.313893 0.348729 0.534988
928 2 0.327095 0.336952 0.552656
239 4 0.349877 0.384237 0.515883
1001 4 0.46041 0.370533 0.546198
926 4 0.462204 0.380896 0.528287
925 2 0.484408 0.371471 0.521704
1000 2 0.449842 0.385661 0.563069
1002 4 0.439273 0.40079 0.57994
1936 2 0.0488273 0.477417 0.560757
1937 4 0.0626927 0.483254 0.540786
539 4 0.0498357 0.482813 0.526021
538 2 0.0501395 0.471702 0.503623
2243 4 0.156178 0.485769 0.584406
1171 2 0.243645 0.448924 0.576451
1173 4 0.218646 0.449359 0.576199
1160 4 0.204538 0.464825 0.573813
882 4 0.287629 0.453456 0.570633
880 2 0.291723 0.465776 0.549264
881 4 0.295816 0.478096 0.527895
1445 4 0.288327 0.488197 0.512289
1172 4 0.268643 0.44849 0.576702
1455 4 0.35265 0.494396 0.549247
1953 4 0.356161 0.481873 0.564668
1185 4 0.013149 0.0491421 0.633196
945 4 0.0275874 0.0524312 0.646942
1058 4 0.10439 0.0236999 0.646117
1057 2 0.102798 0.0479594 0.640275
1155 4 0.089797 0.0776179 0.619196
1059 4 0.101206 0.0722189 0.634434
825 4 0.098028 0.0264332 0.665623
2282 4 0.483269 0.0278196 0.609162
2281 2 0.464522 0.0201236 0.594516
43 3 0.486399 0.0474515 0.613728
41 1 0.487711 0.0705525 0.611988
44 3 0.466942 0.0800051 0.616194
42 3 0.502723 0.078344 0.627579
1163 4 0.508909 0.0817754 0.645693
1082 4 0.0556573 0.139306 0.588689
1081 2 0.0366581 0.1507 0.600282
1083 4 0.0176588 0.162094 0.611874
1153 2 0.0961189 0.0814621 0.595313
1221 4 0.139343 0.0938429 0.654245
1219 2 0.163401 0.100564 0.655347
1220 4 0.187459 0.107285 0.65645
1212 4 0.202593 0.100881 0.643794
1210 2 0.223802 0.114096 0.64464
1211 4 0.245011 0.127311 0.645487
1005 4 0.321923 0.0866558 0.612132
1004 4 0.304875 0.0984887 0.65763
1003 2 0.313399 0.0925723 0.634881
858 4 0.336631 0.177597 0.604912
888 4 0.258374 0.13393 0.657434
886 2 0.279633 0.123153 0.66499
856 2 0.351368 0.166732 0.587885
1142 4 0.363974 0.0840814 0.659626
1025 4 0.400839 0.139295 0.675099
1024 2 0.393623 0.156917 0.658896
45 3 0.494827 0.076384 0.591155
909 4 0.153223 0.216597 0.583034
907 2 0.170624 0.23142 0.593165
947 4 0.181068 0.247324 0.621678
908 4 0.188025 0.246243 0.603296
798 4 0.311706 0.224348 0.605301
796 2 0.318332 0.201968 0.614268
797 4 0.324957 0.179588 0.623236
811 2 0.350831 0.231129 0.586196
812 4 0.330601 0.222249 0.597903
1026 4 0.386406 0.17454 0.642692
3122 4 0.4907 0.230632 0.665964
946 2 0.190537 0.268181 0.631704
948 4 0.200007 0.289037 0.64173
1065 4 0.211225 0.30275 0.649941
1239 4 0.282686 0.287509 0.568862
1237 2 0.295117 0.28146 0.589696
1238 4 0.307548 0.275411 0.61053
1205 4 0.400761 0.304157 0.584149
790 2 0.335054 0.287263 0.639653
791 4 0.347182 0.300331 0.657184
792 4 0.322926 0.274196 0.622122
953 4 0.461526 0.271754 0.575657
904 2 0.497247 0.264369 0.596284
984 4 0.00763111 0.397678 0.577396
1281 4 0.0665278 0.351047 0.662178
894 4 0.085781 0.34994 0.656671
1039 2 0.0853596 0.409564 0.581945
1040 4 0.0980176 0.423272 0.59859
991 2 0.137242 0.405811 0.606474
992 4 0.16008 0.395633 0.606366
1136 4 0.179865 0.401078 0.603858
1029 4 0.267833 0.393429 0.668415
1139 4 0.276916 0.404693 0.6553
1910 4 0.453237 0.405763 0.593968
1909 2 0.440014 0.409464 0.614864
1938 4 0.0349619 0.471579 0.580728
936 4 0.0176447 0.473976 0.590638
2022 4 0.0524191 0.481911 0.652293
993 4 0.114404 0.415989 0.606582
1161 4 0.170688 0.494651 0.595385
1159 2 0.187613 0.479738 0.584599
889 2 0.375199 0.490076 0.640148
1269 4 0.406095 0.468713 0.663612
1267 2 0.415041 0.450906 0.648511
891 4 0.356003 0.502102 0.629561
1911 4 0.426791 0.413165 0.63576
1268 4 0.423987 0.433099 0.633409
943 2 0.0425967 0.0628893 0.663987
1076 4 0.0762231 0.0778828 0.689593
944 4 0.0576059 0.0733474 0.681032
1075 2 0.0763144 0.0750987 0.714441
2285 4 0.00551557 0.996799 0.706034
1077 4 0.0764057 0.0723146 0.739289
1283 4 0.150837 0.064919 0.702097
1282 2 0.162571 0.0778955 0.71996
1284 4 0.174306 0.090872 0.737823
831 4 0.321311 0.0757552 0.689278
35 3 0.0821316 0.167605 0.74362
32 3 0.0999263 0.139291 0.727049
31 1 0.0970305 0.150682 0.746824
1227 4 0.19165 0.0812618 0.743207
887 4 0.300892 0.112376 0.672546
830 4 0.287937 0.0995527 0.717923
829 2 0.304624 0.087654 0.7036
1141 2 0.378051 0.104657 0.661547
1143 4 0.392127 0.125232 0.663467
1105 2 0.0467244 0.174311 0.748048
851 4 0.00966226 0.184765 0.72965
1107 4 0.0264034 0.187608 0.742097
1208 4 0.0711272 0.250685 0.698863
821 4 0.0845153 0.236596 0.702944
822 4 0.122295 0.229372 0.734901
1278 4 0.139484 0.232393 0.744386
820 2 0.103405 0.232984 0.718922
1276 2 0.154667 0.212559 0.745517
1277 4 0.16985 0.192726 0.746648
977 4 0.303966 0.201477 0.725573
916 2 0.317542 0.240352 0.717502
918 4 0.313177 0.218877 0.729541
976 2 0.294438 0.199204 0.748578
3121 2 0.483475 0.24904 0.681265
3357 4 0.494714 0.214863 0.678322
1243 2 0.996557 0.285312 0.705841
3188 4 0.0345431 0.251092 0.735328
1207 2 0.0494045 0.256477 0.709807
1209 4 0.0276819 0.262268 0.720751
1244 4 0.0183563 0.294346 0.714109
1063 2 0.230372 0.296448 0.664736
1242 4 0.235046 0.281012 0.75266
1240 2 0.257016 0.285469 0.741588
1064 4 0.249518 0.290147 0.67953
1241 4 0.278987 0.289926 0.730515
917 4 0.321906 0.261827 0.705462
1097 4 0.308372 0.269997 0.693511
1096 2 0.288523 0.283736 0.686997
1098 4 0.268674 0.297476 0.680483
1008 4 0.330706 0.268014 0.741442
1006 2 0.353737 0.270634 0.750818
3123 4 0.476251 0.267449 0.696565
1279 2 0.0549553 0.363119 0.680767
3275 4 0.0509358 0.370738 0.717577
1280 4 0.0433828 0.37519 0.699356
3274 2 0.0567517 0.387646 0.735054
893 4 0.128448 0.369543 0.673876
892 2 0.107114 0.359742 0.665273
940 2 0.166395 0.391072 0.731579
942 4 0.148229 0.404416 0.742401
1028 4 0.219377 0.381697 0.664541
1068 4 0.222357 0.371112 0.681882
1067 4 0.183329 0.359683 0.710984
1066 2 0.202843 0.365397 0.696433
941 4 0.18456 0.377727 0.720758
1027 2 0.243605 0.387563 0.666478
1229 4 0.366795 0.377319 0.689243
1228 2 0.371297 0.40062 0.697115
2021 4 0.0477258 0.480525 0.70206
1981 2 0.0194775 0.489702 0.729481
2020 2 0.0500725 0.481218 0.677177
1983 4 0.0308622 0.477566 0.710818
2214 4 0.27994 0.502147 0.755039
1138 2 0.284121 0.425079 0.667857
1140 4 0.291326 0.445464 0.680415
1989 4 0.285436 0.456852 0.694559
1987 2 0.290731 0.45931 0.718871
1988 4 0.296026 0.461767 0.743184
890 4 0.394395 0.47805 0.650734
1230 4 0.3758 0.423921 0.704986
1100 4 0.437483 0.489874 0.742649
1099 2 0.434554 0.509289 0.727169
864 4 0.0683278 0.0680863 0.825659
2049 4 0.141645 0.0303077 0.759014
2047 2 0.159152 0.0139658 0.766199
1203 4 0.0834313 0.0595437 0.752129
1202 4 0.127078 0.0358598 0.746237
1201 2 0.105255 0.0477017 0.749183
911 4 0.0831635 0.0563794 0.830578
1147 2 0.216391 0.0505241 0.812602
1148 4 0.193201 0.0426636 0.817666
1149 4 0.23958 0.0583845 0.807538
1049 4 0.254993 0.070317 0.81405
1048 2 0.270045 0.0555299 0.827465
818 4 0.353028 0.0665897 0.79678
965 4 0.364181 0.0656638 0.81317
975 4 0.397814 0.988119 0.822995
817 2 0.333715 0.0817584 0.801482
846 4 0.485319 0.0114051 0.761306
1106 4 0.0670453 0.161013 0.753999
862 2 0.0602704 0.088007 0.812875
863 4 0.0522129 0.107928 0.800092
832 2 0.058736 0.133819 0.782912
833 4 0.0485278 0.126114 0.804397
834 4 0.0689443 0.141525 0.761427
33 3 0.0889673 0.135963 0.762847
34 3 0.117484 0.159312 0.753574
1073 4 0.114853 0.160487 0.772972
1225 2 0.194301 0.100022 0.759523
1226 4 0.196952 0.118782 0.775839
840 4 0.213258 0.129923 0.779287
838 2 0.230433 0.140782 0.793858
839 4 0.247607 0.15164 0.808429
959 4 0.264505 0.161416 0.802089
819 4 0.314402 0.0969271 0.806183
1085 4 0.324097 0.113297 0.811433
1084 2 0.332262 0.136919 0.810743
1086 4 0.340427 0.160542 0.810053
3268 2 0.502242 0.156919 0.790093
3270 4 0.491227 0.151266 0.768371
153 3 0.00413637 0.252327 0.807701
779 4 0.0756576 0.230796 0.820676