ITEM: TIMESTEP
1340000
ITEM: NUMBER OF ATOMS
4590
ITEM: BOX BOUNDS pp pp pp
-9.9985700000000008e+00 9.9985700000000008e+00
-9.9985700000000008e+00 9.9985700000000008e+00
-9.9985700000000008e+00 9.9985700000000008e+00
ITEM: ATOMS id type xs ys zs
463 2 0.0543065 0.080454 0.0246839
464 4 0.0623111 0.0575559 0.0186189
1668 4 0.053598 0.0239387 0.0406036
1666 2 0.0635986 0.0243595 0.0635163
1667 4 0.0735992 0.0247804 0.0864289
1476 4 0.221244 0.0317513 0.0492795
1474 2 0.239883 0.016648 0.0422318
1475 4 0.258521 0.00154473 0.0351841
490 2 0.286656 0.0202521 0.00702239
492 4 0.269631 0.0074506 0.0201157
986 4 0.350968 0.0355814 0.0279834
985 2 0.363644 0.0298067 0.00721946
745 2 0.461407 0.0661219 0.0234608
747 4 0.466655 0.0644708 0.0478516
2722 2 0.478664 0.0633505 0.0828476
2724 4 0.483363 0.0661268 0.0584471
1826 4 0.461394 0.027016 0.0582658
1825 2 0.472122 0.00483555 0.054009
465 4 0.0463019 0.103352 0.030749
591 4 0.0296434 0.0900036 0.0522472
701 4 0.0533559 0.117747 0.0187965
700 2 0.0432057 0.135032 0.0337421
702 4 0.0330556 0.152318 0.0486877
589 2 0.0381794 0.0974542 0.0745363
2760 4 0.0126032 0.14839 0.0483542
567 4 0.146099 0.124895 0.0569192
565 2 0.162298 0.111199 0.0701557
566 4 0.178496 0.0975033 0.0833922
1133 4 0.222794 0.139699 0.00915064
360 4 0.23954 0.132397 0.0198897
358 2 0.260808 0.136714 0.0323072
359 4 0.282077 0.141032 0.0447246
553 2 0.0418008 0.191454 0.0266548
422 4 0.0668952 0.171867 0.0584107
555 4 0.0576608 0.181547 0.0432531
554 4 0.0259409 0.20136 0.0100564
2835 4 0.0140233 0.214657 0.0153344
423 4 0.112623 0.171407 0.0381743
421 2 0.0897589 0.171637 0.0482925
506 4 0.181632 0.23042 0.0399009
737 4 0.192245 0.217759 0.0515838
736 2 0.205741 0.199933 0.0627773
354 4 0.237351 0.188974 0.076809
738 4 0.219236 0.182107 0.0739707
353 4 0.28293 0.193511 0.0567438
461 4 0.294828 0.208132 0.0668818
352 2 0.26014 0.191242 0.0667764
323 4 0.401211 0.237316 0.0374516
1071 4 0.382085 0.236339 0.0347346
1069 2 0.381949 0.239417 0.00992152
322 2 0.423717 0.234129 0.0478675
1014 4 0.496417 0.220854 0.998442
324 4 0.446223 0.230943 0.0582835
771 4 0.453825 0.168077 0.0733768
1170 4 0.0589879 0.321285 0.00811049
1056 4 0.0613522 0.303265 0.0147253
2808 4 0.0207351 0.279217 0.0548485
292 2 0.163315 0.316873 0.0393055
293 4 0.170182 0.294532 0.0481879
505 2 0.180672 0.255396 0.0391939
507 4 0.179713 0.280371 0.0384869
481 2 0.278367 0.284116 0.00498894
482 4 0.291678 0.268862 0.0196629
573 4 0.391234 0.274261 0.0552715
571 2 0.371162 0.286562 0.0636962
572 4 0.35109 0.298864 0.0721209
1168 2 0.0400903 0.335215 0.999508
294 4 0.156448 0.339214 0.030423
456 4 0.153916 0.35287 0.044697
454 2 0.155652 0.364222 0.0669077
607 2 0.246603 0.354728 0.0821118
252 4 0.268314 0.382059 0.0613132
250 2 0.275033 0.406133 0.0619639
608 4 0.262073 0.363283 0.0644286
524 4 0.36669 0.391359 0.0675836
671 4 0.413527 0.3607 0.0751477
523 2 0.361687 0.415856 0.0674977
227 4 0.393666 0.389043 0.00302124
226 2 0.406549 0.409959 0.00768057
281 4 0.431288 0.351455 0.0744536
280 2 0.453398 0.354898 0.0632965
282 4 0.475508 0.358342 0.0521393
104 3 0.49176 0.355696 0.0652547
550 2 0.0190962 0.485052 0.0446626
552 4 0.0267594 0.467656 0.0609053
314 4 0.0205654 0.458689 0.0779886
244 2 0.215751 0.47728 0.00730639
1440 4 0.236885 0.495998 0.0665387
245 4 0.220083 0.452736 0.00929746
251 4 0.281753 0.430208 0.0626147
272 4 0.249927 0.503792 0.0534731
525 4 0.356684 0.440354 0.0674117
228 4 0.419432 0.430876 0.0123399
19 3 0.0421828 0.0278272 0.133506
20 3 0.070692 0.00383544 0.138917
1422 4 0.0313021 0.0225404 0.151435
16 1 0.0652358 0.0255742 0.134879
17 3 0.0745521 0.032138 0.114897
2480 4 0.0205965 0.0338715 0.133708
18 3 0.0735216 0.0390945 0.151818
2479 2 0.998255 0.0450301 0.134934
652 2 0.246754 0.0627433 0.149877
654 4 0.242395 0.0594441 0.125478
484 2 0.326581 0.0268396 0.120669
486 4 0.314026 0.0111134 0.135509
297 4 0.332214 0.0582949 0.0931272
1661 4 0.297869 0.0087582 0.145574
485 4 0.339137 0.0425659 0.105829
296 4 0.379289 0.0751568 0.0925677
295 2 0.355752 0.0667258 0.0928474
2723 4 0.473964 0.0605742 0.107248
2744 4 0.492059 0.0055819 0.148511
1760 4 0.475433 0.0074459 0.158741
590 4 0.0467154 0.104905 0.0968254
582 4 0.326289 0.0944346 0.141182
580 2 0.310454 0.0930444 0.160482
557 4 0.382386 0.0829888 0.111852
758 4 0.349495 0.0967772 0.162509
556 2 0.396448 0.097692 0.126387
558 4 0.41051 0.112395 0.140922
339 4 0.100412 0.24187 0.138342
477 4 0.160786 0.208435 0.120521
475 2 0.17548 0.209292 0.140733
476 4 0.190175 0.210149 0.160945
460 2 0.307159 0.212777 0.0881315
277 2 0.2815 0.240702 0.143694
278 4 0.287498 0.245103 0.119823
462 4 0.31949 0.217423 0.109381
279 4 0.275503 0.236301 0.167566
255 4 0.334883 0.205515 0.112185
254 4 0.382608 0.192964 0.104094
630 4 0.388469 0.207683 0.0913765
253 2 0.358746 0.19924 0.108139
628 2 0.408657 0.219582 0.100098
769 2 0.464687 0.175194 0.0947441
770 4 0.475548 0.182311 0.116111
624 4 0.440839 0.243811 0.120231
629 4 0.428844 0.23148 0.108819
622 2 0.440735 0.242743 0.145211
337 2 0.0849956 0.257496 0.126368
338 4 0.0695795 0.273121 0.114395
611 4 0.219334 0.296823 0.116014
610 2 0.21849 0.321784 0.114825
755 4 0.300767 0.254707 0.109106
754 2 0.316139 0.273506 0.103149
756 4 0.331511 0.292305 0.0971924
741 4 0.343176 0.304215 0.0888157
739 2 0.353682 0.321687 0.103291
596 4 0.465143 0.32875 0.140596
619 2 0.0481871 0.400057 0.121346
620 4 0.061826 0.386556 0.137374
647 4 0.073776 0.370913 0.140096
455 4 0.157387 0.375573 0.0891183
646 2 0.094182 0.377167 0.153122
648 4 0.114588 0.383421 0.166147
535 2 0.154564 0.356726 0.149304
537 4 0.140438 0.344322 0.16579
612 4 0.217647 0.346745 0.113636
609 4 0.231134 0.346174 0.0997951
536 4 0.16869 0.369131 0.132819
387 4 0.329318 0.389696 0.150248
302 4 0.332882 0.410296 0.15204
740 4 0.364187 0.33916 0.117767
385 2 0.339697 0.370492 0.138056
386 4 0.350076 0.351287 0.125864
12 3 0.408174 0.376394 0.131815
11 1 0.410615 0.385626 0.152742
15 3 0.393781 0.378263 0.166198
672 4 0.393627 0.366549 0.12065
670 2 0.403577 0.363624 0.0978991
14 3 0.409739 0.408739 0.150893
495 4 0.414953 0.410916 0.131877
595 2 0.448683 0.342742 0.153185
597 4 0.432223 0.356735 0.165774
13 3 0.431122 0.379147 0.161453
621 4 0.0345482 0.413557 0.105318
315 4 0.0498693 0.421743 0.0946322
313 2 0.0352174 0.440216 0.0863104
1789 2 0.0531216 0.48933 0.114083
1791 4 0.0396378 0.489598 0.135138
1790 4 0.0666055 0.489062 0.0930286
626 4 0.164988 0.453593 0.134057
625 2 0.187777 0.448524 0.143009
627 4 0.210567 0.443455 0.151961
1438 2 0.245141 0.491524 0.0897121
638 4 0.228254 0.451712 0.150292
637 2 0.24413 0.468565 0.140854
1439 4 0.253398 0.487051 0.112885
639 4 0.260007 0.485418 0.131415
1559 4 0.354181 0.493934 0.0927481
301 2 0.340096 0.430515 0.164859
494 4 0.428994 0.453145 0.109066
493 2 0.421973 0.432031 0.120472
450 4 0.10957 0.0776358 0.18445
690 4 0.152845 0.00763627 0.216706
674 4 0.14604 0.00926959 0.233679
691 2 0.239088 0.0363788 0.199841
692 4 0.24101 0.0195567 0.218239
693 4 0.237166 0.0532009 0.181443
653 4 0.251112 0.0660424 0.174275
1700 4 0.323454 0.0697179 0.222952
1699 2 0.302712 0.0566301 0.227815
1701 4 0.281969 0.0435422 0.232678
21 1 0.360214 0.0684422 0.230414
25 3 0.368812 0.0610429 0.210666
759 4 0.374491 0.0647722 0.191692
23 3 0.3384 0.060924 0.232863
757 2 0.361993 0.0807747 0.177101
22 3 0.372902 0.0602268 0.247754
513 4 0.0358751 0.157752 0.190753
511 2 0.0112089 0.161558 0.189246
577 2 0.0633802 0.162279 0.208238
578 4 0.0394793 0.155476 0.211002
449 4 0.150693 0.106007 0.186623
448 2 0.130132 0.0918214 0.185537
236 4 0.146091 0.125222 0.192012
235 2 0.142474 0.149371 0.186634
722 4 0.212082 0.105777 0.243775
581 4 0.294619 0.0916543 0.179783
28 3 0.263501 0.118954 0.216402
30 3 0.287035 0.0963427 0.197626
26 1 0.285664 0.114747 0.21097
29 3 0.294777 0.133107 0.200095
27 3 0.297478 0.110958 0.23034
24 3 0.360723 0.0916306 0.231077
312 4 0.405414 0.125821 0.185642
310 2 0.424882 0.140109 0.192124
311 4 0.444351 0.154397 0.198605
237 4 0.138857 0.17352 0.181257
579 4 0.0872812 0.169082 0.205474
371 4 0.190036 0.249883 0.244048
283 2 0.272153 0.242555 0.2011
285 4 0.264318 0.228969 0.181626
522 4 0.486286 0.203151 0.245862
623 4 0.44063 0.241674 0.170192
703 2 0.00871265 0.324281 0.210233
704 4 0.00459344 0.305843 0.193855
396 4 0.0831667 0.264743 0.222089
443 4 0.0857557 0.273255 0.239397
394 2 0.0957048 0.267081 0.200582
395 4 0.108243 0.269419 0.179076
363 4 0.123607 0.259979 0.171016
361 2 0.148174 0.258115 0.17528
362 4 0.172741 0.25625 0.179544
372 4 0.178386 0.261523 0.196831
370 2 0.184211 0.255703 0.22044
284 4 0.279988 0.25614 0.220574
343 2 0.287918 0.322667 0.232195
345 4 0.29386 0.330734 0.209287
527 4 0.436252 0.257778 0.182182
526 2 0.453621 0.27297 0.191809
528 4 0.470991 0.288163 0.201436
705 4 0.0128319 0.34272 0.22661
300 4 0.130907 0.393558 0.171964
298 2 0.131002 0.395685 0.196876
299 4 0.131096 0.397812 0.221789
734 4 0.107206 0.357248 0.247015
643 2 0.44504 0.380764 0.202978
644 4 0.447931 0.390039 0.226017
645 4 0.442149 0.371489 0.179939
447 4 0.454569 0.398201 0.243058
263 4 0.0442482 0.457218 0.209262
262 2 0.0475551 0.43778 0.193887
264 4 0.0508619 0.418342 0.178512
417 4 0.156432 0.468768 0.188192
1430 4 0.156077 0.48767 0.19047
290 4 0.204083 0.427171 0.209722
416 4 0.192748 0.444307 0.212348
415 2 0.17459 0.456537 0.20027
289 2 0.214246 0.434169 0.231469
766 2 0.220013 0.500315 0.205716
768 4 0.204547 0.48991 0.189052
659 4 0.331431 0.463048 0.181711
658 2 0.334602 0.471018 0.205197
303 4 0.34731 0.450734 0.177677
660 4 0.337772 0.478989 0.228683
713 4 0.379909 0.471246 0.24195
712 2 0.404474 0.466765 0.24066
231 4 0.342393 0.497748 0.22509
445 2 0.448002 0.422127 0.239956
446 4 0.441435 0.446052 0.236854
714 4 0.429039 0.462284 0.239369
1403 4 0.0474751 0.00132518 0.293016
232 2 0.0408394 0.0354874 0.302778
234 4 0.0300573 0.057285 0.296966
317 4 0.0387811 0.0721354 0.307645
233 4 0.0516214 0.0136897 0.308591
673 2 0.140193 0.0182798 0.256258
675 4 0.134347 0.0272901 0.278837
723 4 0.243565 0.0770451 0.269929
1518 4 0.382002 0.999923 0.306707
697 2 0.36706 0.0319772 0.284056
699 4 0.368512 0.0142881 0.301668
698 4 0.365609 0.0496664 0.266445
333 4 0.38209 0.0643874 0.26742
331 2 0.404514 0.0754496 0.267508
743 4 0.47544 0.0346072 0.28475
742 2 0.475733 0.0128976 0.272349
351 4 0.472833 0.0503679 0.272083
349 2 0.459773 0.0711386 0.267267
316 2 0.0492428 0.0942582 0.302516
318 4 0.0597046 0.116381 0.297386
393 4 0.143941 0.164542 0.319273
546 4 0.205797 0.123921 0.253498
545 4 0.186733 0.165167 0.27438
721 2 0.227823 0.0914113 0.256852
544 2 0.196265 0.144544 0.263939
599 4 0.222883 0.140247 0.301572
404 4 0.235007 0.155664 0.297119
598 2 0.205552 0.136222 0.31914
762 4 0.412177 0.108598 0.299983
332 4 0.426937 0.0865118 0.267596
350 4 0.446713 0.0919092 0.262452
760 2 0.427202 0.124747 0.288209
761 4 0.442227 0.140896 0.276435
257 4 0.469095 0.0905158 0.326843
529 2 0.0128851 0.210009 0.253118
530 4 0.0358107 0.216939 0.260299
391 2 0.162696 0.171256 0.304163
392 4 0.181452 0.177971 0.289053
403 2 0.244482 0.178803 0.297073
401 4 0.236727 0.209092 0.289146
400 2 0.222197 0.228654 0.294747
402 4 0.207667 0.248217 0.300348
405 4 0.253957 0.201942 0.297028
765 4 0.379372 0.172432 0.275928
763 2 0.40069 0.185389 0.274241
521 4 0.438767 0.200092 0.261136
520 2 0.462526 0.201621 0.253499
764 4 0.422007 0.198347 0.272554
442 2 0.0745749 0.292185 0.251306
444 4 0.0633941 0.311115 0.263215
344 4 0.281976 0.3146 0.255104
309 4 0.299722 0.31404 0.266337
307 2 0.307101 0.326146 0.286933
615 4 0.412352 0.316843 0.309797
541 2 0.448728 0.306347 0.306604
542 4 0.470399 0.304652 0.294247
543 4 0.427058 0.308041 0.318961
2493 4 0.00356735 0.375495 0.311405
748 2 0.071661 0.369863 0.259438
749 4 0.0481106 0.366763 0.267245
365 4 0.0123146 0.394563 0.307436
364 2 0.0321875 0.383742 0.296799
366 4 0.0520604 0.372921 0.286162
549 4 0.0187696 0.397447 0.326297
750 4 0.0952114 0.372963 0.251631
733 2 0.127977 0.352389 0.260059
735 4 0.148748 0.347531 0.273102
678 4 0.159917 0.357621 0.335126
676 2 0.157848 0.347559 0.312331
601 2 0.112513 0.385861 0.323532
603 4 0.113134 0.36105 0.326564
677 4 0.155778 0.337497 0.289535
602 4 0.111892 0.410673 0.320499
308 4 0.31448 0.338251 0.307528
729 4 0.326556 0.351493 0.317442
727 2 0.321953 0.376063 0.316871
728 4 0.317349 0.400632 0.316299
497 4 0.33746 0.34055 0.328791
434 4 0.336739 0.409814 0.325044
614 4 0.398338 0.364844 0.310258
613 2 0.405345 0.340843 0.310027
777 4 0.107433 0.429128 0.311968
1757 4 0.104562 0.474999 0.26902
1756 2 0.092691 0.496483 0.273781
776 4 0.11865 0.465892 0.279979
775 2 0.113041 0.44751 0.295973
291 4 0.224409 0.441167 0.253216
1545 4 0.211627 0.482926 0.31405
414 4 0.207954 0.445011 0.264698
413 4 0.192096 0.488153 0.284396
412 2 0.200025 0.466582 0.274547
1543 2 0.192646 0.496869 0.322448
1436 4 0.231094 0.484322 0.316018
1435 2 0.250686 0.468816 0.316957
438 4 0.324414 0.475477 0.283608
437 4 0.281769 0.456735 0.301798
436 2 0.303091 0.466106 0.292703
1437 4 0.270279 0.453311 0.317896
5 3 0.292397 0.445994 0.319438
2 3 0.3153 0.41813 0.329025
433 2 0.355223 0.42061 0.312121
435 4 0.373707 0.431405 0.299199
120 3 0.492193 0.430677 0.314575
2861 4 0.486858 0.47589 0.267033
2860 2 0.493441 0.457692 0.282867
429 4 0.069488 0.00424242 0.385017
2584 2 0.00653845 0.0793534 0.397929
427 2 0.0785811 0.0269455 0.379815
428 4 0.0876742 0.0496486 0.374612
606 4 0.125281 0.0216623 0.381793
731 4 0.105609 0.0521952 0.384939
730 2 0.118891 0.0702052 0.373786
604 2 0.148584 0.02265 0.372782
1406 4 0.218291 0.998204 0.339367
605 4 0.171886 0.0236377 0.363771
682 2 0.227701 0.0580587 0.394154
684 4 0.221726 0.0414864 0.37641
683 4 0.233676 0.074631 0.411898
249 4 0.310584 0.0665819 0.337672
247 2 0.324258 0.0795608 0.354096
439 2 0.259588 0.00995326 0.41235
425 4 0.400054 0.0290126 0.369649
424 2 0.414649 0.0486328 0.364432
1749 4 0.479699 0.00714405 0.337145
480 4 0.491146 0.0251719 0.340199
256 2 0.458134 0.07482 0.342926
426 4 0.429244 0.0682531 0.359214
258 4 0.447173 0.0591242 0.35901
2878 2 0.494442 0.0624478 0.407781
399 4 0.141627 0.14736 0.330247
397 2 0.134401 0.126041 0.341132
732 4 0.132173 0.0882151 0.362632
398 4 0.127176 0.104723 0.352018
686 4 0.167058 0.152941 0.399905
600 4 0.188222 0.132197 0.336708
685 2 0.176418 0.144245 0.378411
687 4 0.185778 0.13555 0.356918
321 4 0.263924 0.115005 0.373322
319 2 0.262282 0.107972 0.39726
248 4 0.337932 0.0925396 0.37052
633 4 0.336995 0.110951 0.363014
632 4 0.383665 0.128832 0.361305
631 2 0.36033 0.119892 0.362159
420 4 0.415458 0.162345 0.381352
2654 4 0.00365226 0.258993 0.379062
275 4 0.16266 0.20184 0.345211
274 2 0.154694 0.225386 0.347915
276 4 0.146729 0.248932 0.35062
474 4 0.181478 0.20358 0.341681
472 2 0.20577 0.20499 0.347435
473 4 0.230062 0.206401 0.353189
708 4 0.231339 0.199864 0.373204
706 2 0.250986 0.188972 0.384183
707 4 0.270633 0.178079 0.395162
419 4 0.398667 0.206068 0.363829
716 4 0.395928 0.225526 0.35809
715 2 0.37254 0.234235 0.359618
717 4 0.349152 0.242943 0.361147
418 2 0.407063 0.184206 0.37259
617 4 0.0647851 0.257232 0.382936
347 4 0.0126224 0.286507 0.411611
618 4 0.0203858 0.269918 0.402133
616 2 0.0425854 0.263575 0.392535
390 4 0.0895133 0.278027 0.339422
388 2 0.110022 0.267803 0.349424
389 4 0.130531 0.257578 0.359426
374 4 0.239855 0.328244 0.353811
510 4 0.249222 0.310656 0.360498
651 4 0.248295 0.251648 0.415211
508 2 0.272039 0.300759 0.363066
509 4 0.294856 0.290861 0.365634
488 4 0.307024 0.279836 0.417468
498 4 0.309626 0.313814 0.36059
378 4 0.325796 0.300094 0.36282
496 2 0.323543 0.327182 0.34469
376 2 0.330217 0.275857 0.367084
377 4 0.334639 0.25162 0.371348
269 4 0.463575 0.277985 0.368655
268 2 0.484118 0.26711 0.377868
547 2 0.0296105 0.408929 0.345683
502 2 0.211507 0.399065 0.392166
504 4 0.204057 0.385493 0.372533
373 2 0.227534 0.348709 0.361201
375 4 0.215214 0.369173 0.368591
503 4 0.218958 0.412637 0.4118
669 4 0.350363 0.41595 0.394274
548 4 0.0404514 0.420412 0.365068
407 4 0.0446101 0.436614 0.377209
406 2 0.0514613 0.443597 0.400219
636 4 0.208656 0.4301 0.407542
3 3 0.281402 0.420687 0.345058
1 1 0.299321 0.432807 0.336667
668 4 0.320905 0.430026 0.356396
4 3 0.308573 0.445905 0.353438
667 2 0.335634 0.422988 0.375335
336 4 0.364003 0.42283 0.405964
561 4 0.472116 0.419478 0.411167
594 4 0.447523 0.498511 0.393679
753 4 0.494002 0.425138 0.352729
752 4 0.479585 0.434489 0.399691
593 4 0.455119 0.479786 0.347936
751 2 0.486793 0.429813 0.37621
592 2 0.451321 0.489149 0.370807
718 2 0.0577932 0.0339703 0.492654
719 4 0.0678997 0.0253542 0.47147
368 4 0.0988783 0.0491677 0.417793
367 2 0.0972872 0.0325937 0.436447
369 4 0.095696 0.0160197 0.4551
2430 4 0.211116 0.0364832 0.463334
2428 2 0.234042 0.0354824 0.453405
340 2 0.205867 0.0710898 0.486596
341 4 0.226625 0.0579596 0.491275
2429 4 0.256968 0.0344816 0.443476
441 4 0.267755 0.025939 0.429755
726 4 0.306273 0.0841639 0.464123
2880 4 0.472721 0.0681318 0.418784
642 4 0.467751 0.0741309 0.436997
2586 4 0.0167773 0.0846017 0.420128
937 2 0.144127 0.164938 0.491627
939 4 0.148044 0.14454 0.505547
342 4 0.185109 0.08422 0.481918
410 4 0.246739 0.156014 0.465042
432 4 0.317283 0.0957872 0.475415
467 4 0.32606 0.141584 0.425506
724 2 0.286193 0.0933904 0.452424
725 4 0.266113 0.102617 0.440726
320 4 0.26064 0.100939 0.421198
430 2 0.325573 0.089557 0.498167
466 2 0.340198 0.126099 0.439126
468 4 0.354337 0.110614 0.452745
453 4 0.490287 0.161651 0.415521
641 4 0.469105 0.106983 0.474675
640 2 0.468428 0.0905569 0.455836
3158 4 0.473727 0.126769 0.474899
3157 2 0.478808 0.151122 0.47239
469 2 0.0504644 0.222302 0.455642
470 4 0.0263093 0.218699 0.461002
471 4 0.0746194 0.225905 0.450282
260 4 0.0821254 0.21988 0.467494
261 4 0.126816 0.200122 0.478128
259 2 0.104471 0.210001 0.472811
938 4 0.140211 0.185335 0.477706
411 4 0.250141 0.200679 0.442811
409 2 0.24844 0.178346 0.453926
650 4 0.233993 0.207164 0.433024
649 2 0.241144 0.229406 0.424118
576 4 0.406405 0.191604 0.488203
516 4 0.438822 0.19071 0.42734
515 4 0.487287 0.179555 0.422103
574 2 0.417999 0.188485 0.46627
514 2 0.463055 0.185132 0.424721
575 4 0.429592 0.185366 0.444338
3159 4 0.483889 0.175475 0.469881
583 2 0.418423 0.249479 0.431184
584 4 0.441068 0.250397 0.441745
2814 4 0.0283497 0.32649 0.459432
348 4 0.030691 0.323937 0.439419
346 2 0.0216567 0.305222 0.425515
695 4 0.125961 0.310652 0.454607
694 2 0.130384 0.295315 0.473853
696 4 0.134807 0.279979 0.493099
487 2 0.286321 0.266267 0.421001
489 4 0.265619 0.252698 0.424533
585 4 0.395778 0.24856 0.420624
267 4 0.343381 0.283209 0.413019
265 2 0.36013 0.266064 0.420139
266 4 0.376879 0.248919 0.427258
2457 4 0.463643 0.301168 0.48017
2455 2 0.456216 0.279611 0.469908
2456 4 0.448788 0.258054 0.459646
2813 4 0.0083137 0.362643 0.487578
2812 2 0.0183317 0.344567 0.473505
709 2 0.15359 0.407367 0.421457
326 4 0.0816348 0.402953 0.432423
10 3 0.148312 0.34539 0.466728
7 3 0.132485 0.379072 0.469547
327 4 0.116693 0.391348 0.466142
325 2 0.0991637 0.397151 0.449283
6 1 0.152335 0.367806 0.466683
9 3 0.166664 0.373312 0.484084
8 3 0.161692 0.374129 0.446414
711 4 0.156213 0.384065 0.430135
804 4 0.287071 0.383705 0.499445
334 2 0.367264 0.400966 0.417648
335 4 0.370525 0.379102 0.429332
238 2 0.367843 0.364579 0.465726
240 4 0.371889 0.383328 0.449686
239 4 0.363797 0.34583 0.481766
2508 4 0.49884 0.3774 0.437659
559 2 0.482472 0.406442 0.429822
560 4 0.492828 0.393406 0.448476
408 4 0.0583124 0.45058 0.42323
680 4 0.0244386 0.463725 0.469711
679 2 0.021449 0.481931 0.452836
1381 2 0.0107965 0.446793 0.494196
1383 4 0.0064914 0.463829 0.476408
568 2 0.14368 0.452556 0.449159
384 4 0.133955 0.444617 0.487293
710 4 0.150967 0.430669 0.412779
570 4 0.15006 0.446605 0.425727
569 4 0.137299 0.458506 0.472592
772 2 0.205918 0.45331 0.484251
774 4 0.215673 0.468237 0.466724
635 4 0.213401 0.459075 0.448022
634 2 0.211028 0.444587 0.427782
588 4 0.377665 0.488631 0.433146
1399 2 0.352379 0.485354 0.467236
1400 4 0.360082 0.48652 0.443477
1401 4 0.344676 0.484187 0.490994
1126 2 0.0172652 0.0599876 0.532012
1127 4 0.0376099 0.0587913 0.517526
720 4 0.0476866 0.0425865 0.513839
1059 4 0.110272 0.0776645 0.574221
1155 4 0.12863 0.0809002 0.565746
1057 2 0.101187 0.0551386 0.580156
950 4 0.16349 0.0625177 0.555335
951 4 0.205535 0.0604091 0.582326
1031 4 0.21444 0.0527325 0.565078
1030 2 0.238708 0.0474885 0.562117
949 2 0.184512 0.0614634 0.568831
1182 4 0.237653 0.0651702 0.505837
961 2 0.295821 0.0151483 0.525184
963 4 0.296768 0.0315191 0.506309
1032 4 0.262975 0.0422446 0.559157
2195 4 0.295345 0.000640992 0.564075
1181 4 0.281955 0.0429324 0.512433
2194 2 0.289987 0.0185574 0.580672
962 4 0.294874 0.998777 0.54406
1180 2 0.259804 0.0540513 0.509135
841 2 0.372213 0.0640474 0.533771
843 4 0.350479 0.0757299 0.52973
842 4 0.393947 0.0523648 0.537812
1217 4 0.413029 0.0501395 0.543749
4466 4 0.458411 0.0154848 0.555092
1062 4 0.471203 0.00229215 0.563748
1218 4 0.442594 0.0700433 0.50867
1216 2 0.427811 0.0600914 0.526209
4465 2 0.441741 0.0244705 0.571417
1033 2 0.0684175 0.16106 0.510193
1035 4 0.0621479 0.137812 0.516932
1151 4 0.153762 0.128234 0.512634
1150 2 0.171181 0.111834 0.505367
1152 4 0.188599 0.0954339 0.4981
857 4 0.289137 0.140059 0.550906
899 4 0.308818 0.146236 0.553236
898 2 0.328346 0.161436 0.549655
856 2 0.272121 0.157329 0.557021
431 4 0.333862 0.0833267 0.520919
1199 4 0.0138891 0.179722 0.576536
1034 4 0.0746871 0.184307 0.503454
877 2 0.0752664 0.240878 0.568874
858 4 0.255105 0.174599 0.563136
798 4 0.272205 0.239084 0.568326
796 2 0.26581 0.215137 0.571615
797 4 0.259415 0.19119 0.574904
813 4 0.322536 0.235189 0.549269
900 4 0.347874 0.176635 0.546074
871 2 0.348298 0.212693 0.558254
872 4 0.355328 0.188773 0.560156
873 4 0.341268 0.236612 0.556352
904 2 0.487374 0.241823 0.57609
906 4 0.495511 0.224554 0.559943
878 4 0.0733213 0.259597 0.552413
1258 2 0.157958 0.267022 0.520704
1260 4 0.13562 0.275564 0.513407
1259 4 0.180295 0.258481 0.528
812 4 0.302411 0.277414 0.531586
811 2 0.312473 0.256301 0.540427
1238 4 0.26546 0.300514 0.581262
1137 4 0.140325 0.361345 0.560453
897 4 0.153938 0.355756 0.574938
895 2 0.177236 0.34897 0.568912
1189 2 0.231287 0.349035 0.541388
896 4 0.200535 0.342183 0.562887
1191 4 0.211034 0.356531 0.55399
1190 4 0.251541 0.34154 0.528787
803 4 0.264426 0.355972 0.534356
1173 4 0.256398 0.397962 0.579777
802 2 0.275748 0.369838 0.5169
1171 2 0.267591 0.418436 0.570791
928 2 0.375942 0.374609 0.557261
929 4 0.367643 0.385919 0.536563
1206 4 0.390556 0.344832 0.575929
930 4 0.38424 0.363299 0.577959
925 2 0.485404 0.390189 0.535623
926 4 0.486575 0.414423 0.52958
927 4 0.484234 0.365955 0.541666
538 2 0.0582582 0.471245 0.521802
540 4 0.0420081 0.452516 0.525014
539 4 0.0745083 0.489975 0.51859
936 4 0.00270228 0.452916 0.56937
1382 4 0.0151016 0.429756 0.511984
383 4 0.118464 0.416671 0.525761
382 2 0.126209 0.430644 0.506527
1160 4 0.199667 0.434516 0.582904
773 4 0.196164 0.438382 0.501777
1159 2 0.189577 0.457223 0.585689
1172 4 0.278783 0.438909 0.561806
882 4 0.289114 0.44712 0.546834
880 2 0.290094 0.464911 0.529293
881 4 0.291074 0.482701 0.511751
1001 4 0.470029 0.421124 0.555911
1000 2 0.469109 0.437379 0.574887
663 4 0.498345 0.443906 0.546677
1185 4 0.017808 0.0327349 0.654649
945 4 0.0368963 0.0284429 0.660494
1183 2 0.00490744 0.0532113 0.648366
943 2 0.0586402 0.0396493 0.66567
1058 4 0.0921022 0.0326126 0.58609
825 4 0.0962965 0.0173471 0.597941
823 2 0.111559 0.00126779 0.609504
2196 4 0.284629 0.0364739 0.597269
1004 4 0.334102 0.0560095 0.623802
1003 2 0.348576 0.0596528 0.643861
4467 4 0.42507 0.0334562 0.587743
2283 4 0.420923 0.0501533 0.598721
2282 4 0.442364 0.0443734 0.643528
2281 2 0.431643 0.0472634 0.621124
43 3 0.460475 0.0363192 0.64431
45 3 0.49514 0.0510158 0.644158
41 1 0.475694 0.0494456 0.655907
44 3 0.46684 0.0706028 0.659427
1081 2 0.0443476 0.164659 0.606768
1083 4 0.024285 0.157757 0.619998
1153 2 0.140098 0.0943657 0.583419
1154 4 0.151565 0.107831 0.601093
1221 4 0.166403 0.120746 0.607377
1219 2 0.183978 0.119518 0.625119
1220 4 0.201554 0.11829 0.642861
1212 4 0.22076 0.114864 0.649512
1210 2 0.24571 0.115463 0.651035
1283 4 0.191863 0.111057 0.658342
1211 4 0.27066 0.116062 0.652557
888 4 0.284769 0.125592 0.664325
3426 4 0.494153 0.137552 0.640835
1082 4 0.0644102 0.17156 0.593538
879 4 0.0772114 0.222159 0.585336
1209 4 0.0618587 0.243605 0.648554
1272 4 0.087213 0.214548 0.60107
1270 2 0.105071 0.213528 0.618541
1271 4 0.122929 0.212508 0.636012
909 4 0.140186 0.21543 0.62367
907 2 0.162207 0.220364 0.634437
908 4 0.184228 0.225297 0.645204
947 4 0.192927 0.237017 0.631364
946 2 0.211393 0.246606 0.617498
1141 2 0.368009 0.191323 0.661325
1143 4 0.384113 0.182442 0.644385
1025 4 0.402336 0.174904 0.648934
1026 4 0.450991 0.168615 0.65862
1024 2 0.426664 0.17176 0.653777
1243 2 0.0441687 0.300271 0.662688
1244 4 0.0690763 0.298991 0.660912
948 4 0.229858 0.256196 0.603633
791 4 0.249921 0.266247 0.63996
1237 2 0.257513 0.322803 0.589337
792 4 0.265557 0.291367 0.599646
790 2 0.257739 0.278807 0.619803
1204 2 0.407566 0.330348 0.587157
953 4 0.472913 0.277674 0.596212
905 4 0.479237 0.259093 0.592237
952 2 0.455546 0.294375 0.589529
954 4 0.43818 0.311076 0.582846
3121 2 0.488818 0.2516 0.658415
3123 4 0.482865 0.272248 0.645632
1205 4 0.424576 0.315865 0.598385
983 4 0.00929563 0.375431 0.647497
1039 2 0.0477726 0.394247 0.637315
1041 4 0.0261038 0.382443 0.641354
1040 4 0.0694413 0.406051 0.633275
1135 2 0.125778 0.365291 0.580403
1136 4 0.111231 0.369236 0.600353
993 4 0.0880829 0.409424 0.628166
1239 4 0.249565 0.345092 0.597413
991 2 0.10805 0.424466 0.627709
992 4 0.128018 0.439508 0.627251
2170 2 0.113918 0.491789 0.664405
2243 4 0.184771 0.496689 0.597131
1161 4 0.179488 0.47993 0.588474
891 4 0.32113 0.477123 0.605256
1952 4 0.323971 0.494448 0.594354
890 4 0.318128 0.429162 0.591418
889 2 0.319629 0.453142 0.598337
1002 4 0.468189 0.453633 0.593864
1910 4 0.467671 0.474317 0.594557
1909 2 0.452445 0.493802 0.598258
944 4 0.0803841 0.0508557 0.670847
2319 4 0.0164801 0.0340741 0.702417
1075 2 0.0389941 0.0420588 0.732973
1076 4 0.0298792 0.026558 0.7156
2317 2 0.000198551 0.0152426 0.70008
1005 4 0.363051 0.0632961 0.663921
1163 4 0.495335 0.045658 0.688399
42 3 0.479928 0.0396696 0.676295
1282 2 0.19544 0.119761 0.681507
1284 4 0.199018 0.128465 0.704672
1227 4 0.218501 0.133957 0.702918
1225 2 0.22008 0.141567 0.726683
886 2 0.296131 0.130658 0.686015
887 4 0.307493 0.135724 0.707704
830 4 0.325412 0.134257 0.715025
978 4 0.284843 0.158168 0.748532
829 2 0.33966 0.151936 0.725495
1146 4 0.481926 0.134788 0.735995
1144 2 0.47688 0.150217 0.716977
1145 4 0.471834 0.165646 0.69796
1105 2 0.056214 0.203108 0.733753
1107 4 0.0329574 0.204237 0.724641
851 4 0.0135227 0.199037 0.722629
850 2 0.000915098 0.218769 0.713862
822 4 0.148715 0.228861 0.703622
1278 4 0.15451 0.212838 0.715529
1276 2 0.15656 0.196726 0.734539
820 2 0.137447 0.247169 0.716389
1065 4 0.22417 0.23893 0.690516
916 2 0.286525 0.239506 0.739814
918 4 0.303215 0.222413 0.747193
976 2 0.296007 0.180538 0.748949
1142 4 0.351904 0.200204 0.678265
831 4 0.353908 0.169616 0.735964
1192 2 0.386059 0.219628 0.713332
1194 4 0.409454 0.212723 0.718826
1193 4 0.362665 0.226534 0.707839
1262 4 0.426285 0.216927 0.707443
1261 2 0.444439 0.200209 0.703427
1263 4 0.462593 0.183491 0.699411
3122 4 0.49477 0.230953 0.671199
1245 4 0.0192611 0.301551 0.664463
1207 2 0.0653768 0.249031 0.672707
1179 4 0.0117499 0.285181 0.674524
1208 4 0.0688949 0.254457 0.696859
1177 2 0.998858 0.264383 0.679663
821 4 0.126178 0.265478 0.729157
1064 4 0.209045 0.285295 0.701574
1063 2 0.216607 0.262113 0.696045
917 4 0.269836 0.256599 0.732434
1097 4 0.252091 0.263201 0.736715
807 4 0.42307 0.325159 0.72404
806 4 0.41148 0.277908 0.735603
805 2 0.417275 0.301533 0.729821
894 4 0.0705248 0.375468 0.709448
892 2 0.0762718 0.396983 0.698078
1067 4 0.171419 0.40894 0.699607
1066 2 0.193744 0.397723 0.698629
1068 4 0.216069 0.386507 0.697651
1028 4 0.223944 0.403545 0.690733
1027 2 0.246296 0.414659 0.689299
1242 4 0.194937 0.339586 0.756114
1140 4 0.312728 0.390981 0.724323
1138 2 0.294442 0.399428 0.709509
1139 4 0.276157 0.407876 0.694695
1018 2 0.417464 0.356933 0.738136
1019 4 0.4018 0.376348 0.739827
1020 4 0.433129 0.337518 0.736445
3330 4 0.46402 0.41743 0.687636
1280 4 0.0531022 0.427052 0.746848
1281 4 0.0601626 0.4627 0.712496
1279 2 0.0566324 0.444876 0.729672
2021 4 0.0598216 0.500625 0.740493
893 4 0.0820189 0.418497 0.686708
1983 4 0.0454358 0.488101 0.748846
2172 4 0.126214 0.471572 0.672483
941 4 0.153687 0.416912 0.700429
940 2 0.138767 0.418277 0.720447
942 4 0.123848 0.419642 0.740465
815 4 0.108464 0.431655 0.746363
1029 4 0.268648 0.425773 0.687866
1989 4 0.333151 0.455407 0.732846
1229 4 0.341181 0.442756 0.746348
3328 2 0.455412 0.419229 0.711042
3329 4 0.446803 0.421029 0.734448
1269 4 0.420518 0.493747 0.690177
1100 4 0.487639 0.500736 0.744293
1077 4 0.048109 0.0575596 0.750346
1203 4 0.0664528 0.0512715 0.760721
1201 2 0.0883942 0.0418787 0.768173
1202 4 0.110336 0.0324859 0.775625
2049 4 0.109206 0.0131141 0.78113
1148 4 0.201978 0.0248718 0.756705
1147 2 0.211903 0.0401805 0.773803
1149 4 0.221828 0.0554892 0.7909
1256 4 0.313424 0.0711383 0.758034
1049 4 0.254723 0.0316222 0.823723
1255 2 0.294941 0.0549686 0.762731
1257 4 0.276457 0.0387989 0.767429
1112 4 0.424955 0.0173137 0.793102
846 4 0.467086 0.047305 0.782298
1113 4 0.450721 0.0558712 0.774389
1111 2 0.437838 0.0365925 0.783745
844 2 0.490348 0.0555841 0.786234
864 4 0.0361238 0.0875825 0.819653
862 2 0.0285833 0.0986837 0.798556
832 2 0.0321391 0.149951 0.774684
863 4 0.0210428 0.109785 0.777459
833 4 0.0192877 0.128612 0.77253
32 3 0.0915501 0.156601 0.759543
1226 4 0.221659 0.149176 0.750448
1130 4 0.217748 0.159579 0.767667
840 4 0.226679 0.133448 0.837131
838 2 0.249939 0.135968 0.828309
839 4 0.273198 0.138487 0.819488
959 4 0.290634 0.132774 0.827102
819 4 0.371227 0.0911363 0.824219
1084 2 0.364224 0.114886 0.797221
1085 4 0.374635 0.0933386 0.804466