ITEM: TIMESTEP
3210000
ITEM: NUMBER OF ATOMS
4590
ITEM: BOX BOUNDS pp pp pp
-9.9985700000000008e+00 9.9985700000000008e+00
-9.9985700000000008e+00 9.9985700000000008e+00
-9.9985700000000008e+00 9.9985700000000008e+00
ITEM: ATOMS id type xs ys zs
463 2 0.0317055 0.0326737 0.000652795
464 4 0.0378993 0.00946286 0.00758609
465 4 0.0255117 0.0558846 0.99372
1666 2 0.0646115 0.0655337 0.0801801
701 4 0.0123952 0.0640853 0.00569624
1668 4 0.085187 0.0558663 0.0697702
3290 4 0.0869831 0.0592238 0.0505653
3289 2 0.0993734 0.0441731 0.0349086
3291 4 0.111764 0.0291223 0.0192518
566 4 0.127203 0.0161438 0.0160284
565 2 0.14817 0.0033494 0.0207029
2183 4 0.0975658 0.0221928 0.00674242
490 2 0.306927 0.0129757 0.0547423
491 4 0.324482 0.0267665 0.0434808
985 2 0.315841 0.0437321 0.00197303
986 4 0.292689 0.0530832 0.0032735
987 4 0.338994 0.034381 0.000672557
747 4 0.493032 0.012368 0.0908055
700 2 0.0231456 0.0849201 0.997006
359 4 0.248973 0.130645 0.999328
460 2 0.292586 0.163417 0.0615345
462 4 0.303496 0.151601 0.08068
150 3 0.471159 0.124619 0.0120785
422 4 0.061098 0.213822 0.00853753
505 2 0.143286 0.246131 0.0443396
506 4 0.161546 0.229352 0.0475387
915 4 0.108917 0.250215 0.00178732
737 4 0.172483 0.216698 0.0598019
736 2 0.186918 0.19676 0.055411
738 4 0.201353 0.176822 0.0510201
354 4 0.220251 0.1789 0.0455508
352 2 0.244146 0.183199 0.0395722
461 4 0.281677 0.175232 0.0423889
353 4 0.26804 0.187499 0.0335935
665 4 0.351951 0.181064 0.0271891
664 2 0.336472 0.171759 0.00989793
3339 4 0.0192531 0.304898 0.0129913
2807 4 0.0235004 0.289328 0.0238622
2806 2 0.0138047 0.27252 0.0396306
293 4 0.118471 0.271131 0.0566063
507 4 0.125027 0.26291 0.0411405
287 4 0.155744 0.280901 0.0235744
286 2 0.156216 0.305756 0.0262547
292 2 0.107593 0.290931 0.067321
288 4 0.156689 0.330611 0.028935
294 4 0.0967157 0.310731 0.0780357
456 4 0.100294 0.3307 0.0768865
356 4 0.239657 0.256699 0.0124477
483 4 0.249859 0.274632 0.00689777
612 4 0.267587 0.307181 0.0432148
610 2 0.261801 0.294061 0.0636985
609 4 0.282979 0.318032 0.0472405
482 4 0.298162 0.287289 0.00419048
481 2 0.27401 0.280961 0.00554412
571 2 0.330198 0.285609 0.00115836
572 4 0.312468 0.300179 0.0110832
519 4 0.496676 0.267821 0.0602094
990 4 0.149803 0.350608 0.0267296
988 2 0.162972 0.371577 0.0302056
1289 4 0.18989 0.401177 0.0217728
989 4 0.176141 0.392545 0.0336817
607 2 0.280525 0.342876 0.0458612
250 2 0.293726 0.403345 0.0528324
252 4 0.281517 0.382002 0.0573754
608 4 0.278071 0.367721 0.0444819
740 4 0.331422 0.353519 0.0697804
741 4 0.365612 0.347461 0.0337936
739 2 0.348517 0.35049 0.051787
226 2 0.392433 0.404467 0.0282303
227 4 0.401962 0.384567 0.0164672
1305 4 0.405509 0.366688 0.00945864
1303 2 0.413793 0.344663 0.00100704
1046 4 0.490948 0.356395 0.00162551
1045 2 0.495605 0.35371 0.0260444
280 2 0.467478 0.350663 0.0742604
282 4 0.491533 0.353393 0.0680085
1047 4 0.500262 0.351025 0.0504633
671 4 0.423471 0.347982 0.084412
281 4 0.443423 0.347933 0.0805123
552 4 0.00302123 0.456074 0.053863
550 2 0.0104931 0.478845 0.0467356
313 2 0.0164822 0.433692 0.0791388
314 4 0.0187838 0.454673 0.065735
1786 2 0.160121 0.480873 0.0422078
1767 4 0.125122 0.488422 0.0627964
243 4 0.224115 0.430233 0.0668834
1440 4 0.23361 0.419871 0.0817304
241 2 0.21241 0.448375 0.0542719
242 4 0.200705 0.466516 0.0416603
1787 4 0.182577 0.470942 0.0374902
251 4 0.305934 0.424687 0.0482894
524 4 0.319211 0.427572 0.0630815
271 2 0.295607 0.488071 0.0666149
272 4 0.292241 0.467549 0.0804977
228 4 0.382904 0.424367 0.0399934
525 4 0.366884 0.432579 0.0488346
523 2 0.343048 0.430075 0.0559581
1583 4 0.461678 0.466046 0.0436637
1582 2 0.468336 0.485236 0.0582453
1667 4 0.0440359 0.0752012 0.0905901
16 1 0.0339284 0.0558463 0.127966
19 3 0.0205989 0.0700645 0.140559
17 3 0.0384289 0.065841 0.107742
20 3 0.0230501 0.0361676 0.124352
18 3 0.0539526 0.0519111 0.139009
2480 4 0.00480463 0.0771335 0.153726
1422 4 0.00674234 0.054471 0.149987
652 2 0.264534 0.0647946 0.147974
654 4 0.265485 0.0525313 0.126206
1476 4 0.280402 0.0574401 0.113681
1474 2 0.299479 0.0709919 0.104872
1475 4 0.318555 0.0845437 0.0960622
486 4 0.337958 0.0106547 0.141185
297 4 0.384512 0.0393213 0.127723
295 2 0.398934 0.0595853 0.130282
484 2 0.353676 0.0244277 0.127459
485 4 0.369395 0.0382007 0.113732
745 2 0.477795 0.0321657 0.0918372
746 4 0.462558 0.0519634 0.092869
296 4 0.413356 0.0798493 0.132841
557 4 0.421461 0.0868424 0.113571
556 2 0.446136 0.0892397 0.116826
450 4 0.0820589 0.115153 0.104937
236 4 0.137494 0.111484 0.125143
449 4 0.130098 0.101942 0.10923
448 2 0.106079 0.108548 0.107084
235 2 0.140031 0.122722 0.147334
237 4 0.142567 0.13396 0.169525
29 3 0.243363 0.156159 0.135825
28 3 0.251567 0.124368 0.154969
580 2 0.310154 0.124377 0.143567
581 4 0.289371 0.137049 0.149282
30 3 0.277941 0.141353 0.134147
26 1 0.259825 0.144735 0.147527
27 3 0.266096 0.157318 0.165734
582 4 0.330937 0.111705 0.137851
758 4 0.350388 0.107328 0.139827
757 2 0.358789 0.101343 0.162604
558 4 0.47081 0.0916369 0.120081
771 4 0.479145 0.101354 0.136253
769 2 0.481569 0.116254 0.156185
477 4 0.242432 0.175191 0.130347
371 4 0.187416 0.217062 0.147053
476 4 0.203699 0.204443 0.14238
475 2 0.223065 0.189817 0.136364
756 4 0.340591 0.24047 0.127457
754 2 0.338387 0.242209 0.152303
255 4 0.361313 0.24008 0.122957
253 2 0.382778 0.239448 0.110149
254 4 0.404243 0.238815 0.0973415
630 4 0.420777 0.240448 0.106707
338 4 0.0845451 0.271087 0.161636
611 4 0.256015 0.280942 0.0841822
279 4 0.27897 0.290741 0.148766
277 2 0.271107 0.288426 0.125144
278 4 0.263244 0.286111 0.101522
285 4 0.26885 0.278982 0.161476
624 4 0.461116 0.240818 0.161718
629 4 0.451709 0.248073 0.145252
628 2 0.436243 0.24426 0.12598
619 2 0.0300569 0.376147 0.136612
620 4 0.0322706 0.397015 0.123017
621 4 0.0278433 0.35528 0.150207
2786 4 0.00106649 0.405503 0.105602
454 2 0.112824 0.339084 0.0968334
455 4 0.125354 0.347469 0.11678
537 4 0.123684 0.404407 0.144943
535 2 0.129748 0.384142 0.13161
536 4 0.135812 0.363878 0.118278
647 4 0.117245 0.409198 0.163566
625 2 0.223153 0.37817 0.142187
627 4 0.22539 0.400189 0.130553
626 4 0.220916 0.356151 0.153821
386 4 0.337096 0.34537 0.0871084
301 2 0.324193 0.414767 0.133421
302 4 0.33403 0.392247 0.12881
670 2 0.403552 0.353996 0.0982764
385 2 0.33781 0.35714 0.109157
387 4 0.338524 0.368909 0.131206
12 3 0.387323 0.368216 0.130281
11 1 0.37569 0.387811 0.133423
15 3 0.353881 0.384585 0.127711
672 4 0.383632 0.36001 0.112141
13 3 0.377203 0.393934 0.155753
14 3 0.385024 0.404305 0.120036
315 4 0.0141807 0.41271 0.0925427
1618 2 0.147588 0.495196 0.107332
1431 4 0.162692 0.48931 0.1452
1619 4 0.145972 0.504965 0.0843725
1620 4 0.149203 0.485427 0.130292
1429 2 0.159018 0.468642 0.158783
1439 4 0.211588 0.415251 0.126389
1438 2 0.222599 0.417561 0.10406
639 4 0.26758 0.48182 0.134261
638 4 0.295844 0.447382 0.156973
637 2 0.281712 0.464601 0.145617
303 4 0.314355 0.437287 0.138031
659 4 0.318017 0.441386 0.15789
1559 4 0.390894 0.511362 0.134515
495 4 0.401198 0.414323 0.123981
493 2 0.406133 0.43872 0.121614
494 4 0.411069 0.463117 0.119246
688 2 0.159938 0.0433007 0.194196
690 4 0.155505 0.0650793 0.205651
674 4 0.159848 0.0773831 0.220839
689 4 0.16437 0.0215221 0.18274
1505 4 0.181604 0.0104185 0.179886
1504 2 0.20656 0.00919476 0.178926
722 4 0.171048 0.0545874 0.250404
653 4 0.263582 0.0770579 0.169743
22 3 0.391587 0.0657919 0.216819
698 4 0.408974 0.0662901 0.224686
697 2 0.407172 0.0444855 0.236789
333 4 0.414672 0.0850778 0.219103
699 4 0.405369 0.022681 0.248892
351 4 0.495025 0.0488474 0.1893
349 2 0.488604 0.0702694 0.200482
742 2 0.494157 0.00315446 0.245752
511 2 0.0058859 0.125551 0.220721
513 4 0.0218083 0.142816 0.2293
578 4 0.0348441 0.147064 0.244879
673 2 0.145024 0.0975174 0.220664
675 4 0.1302 0.117652 0.220489
546 4 0.127579 0.12555 0.238732
693 4 0.265502 0.0950265 0.178821
691 2 0.277092 0.0950902 0.200976
1701 4 0.309032 0.0969818 0.219625
692 4 0.288681 0.0951539 0.223132
21 1 0.386778 0.086102 0.207149
23 3 0.369085 0.0958458 0.218569
25 3 0.381104 0.0828662 0.185332
1699 2 0.332486 0.0953671 0.211111
1700 4 0.35594 0.0937523 0.202598
759 4 0.36719 0.0953585 0.185381
24 3 0.405535 0.0996921 0.208519
350 4 0.482182 0.0916913 0.211664
331 2 0.439517 0.0876958 0.220123
332 4 0.464363 0.0903138 0.221143
770 4 0.483994 0.131154 0.176117
312 4 0.474787 0.129506 0.19316
310 2 0.478332 0.137053 0.216732
311 4 0.481877 0.144601 0.240304
531 4 0.000858168 0.248507 0.210539
577 2 0.0337235 0.17163 0.240358
529 2 0.0125156 0.231231 0.224352
530 4 0.0241731 0.213954 0.238165
579 4 0.032603 0.196195 0.235837
362 4 0.158049 0.233533 0.187917
370 2 0.181514 0.222167 0.170807
372 4 0.175611 0.227271 0.194562
755 4 0.336182 0.243948 0.177148
339 4 0.0375904 0.273377 0.178687
704 4 0.0382721 0.292081 0.185728
337 2 0.0610677 0.272232 0.170161
703 2 0.0309171 0.314944 0.192681
443 4 0.0627949 0.269983 0.249217
361 2 0.139308 0.249731 0.191323
363 4 0.120568 0.265928 0.19473
395 4 0.112102 0.26951 0.213729
396 4 0.0798248 0.280084 0.250432
394 2 0.0959632 0.274797 0.232081
283 2 0.27809 0.279601 0.184702
284 4 0.28733 0.280219 0.207927
622 2 0.449906 0.24917 0.182448
528 4 0.409716 0.315791 0.210799
526 2 0.419391 0.294279 0.202502
623 4 0.438695 0.257523 0.203178
527 4 0.429065 0.272768 0.194205
2615 4 0.00980481 0.341681 0.214038
705 4 0.0235621 0.337807 0.199635
300 4 0.103355 0.362948 0.202906
646 2 0.105436 0.393283 0.178812
648 4 0.093627 0.377368 0.194057
298 2 0.0938569 0.363455 0.226029
734 4 0.148224 0.372651 0.235755
289 2 0.218021 0.399643 0.248391
416 4 0.193802 0.418791 0.220755
290 4 0.201727 0.40396 0.229924
597 4 0.362311 0.395152 0.175017
345 4 0.356149 0.347634 0.217024
596 4 0.345663 0.361966 0.208518
645 4 0.380935 0.402247 0.176411
595 2 0.353987 0.378559 0.191767
343 2 0.355616 0.348667 0.242001
542 4 0.418991 0.334362 0.213666
541 2 0.427076 0.336547 0.237225
262 2 0.0395858 0.4249 0.248192
264 4 0.0357277 0.438938 0.227863
1430 4 0.155343 0.447974 0.172366
415 2 0.180417 0.432254 0.204483
417 4 0.167031 0.445717 0.188212
438 4 0.270614 0.471107 0.222975
436 2 0.27686 0.470529 0.24718
658 2 0.332104 0.453992 0.174255
643 2 0.390805 0.419539 0.191536
644 4 0.400675 0.436831 0.20666
660 4 0.346191 0.466598 0.190621
231 4 0.338141 0.481369 0.20381
447 4 0.416209 0.439185 0.218419
445 2 0.419468 0.439895 0.2432
229 2 0.354179 0.500213 0.200221
1403 4 0.0299116 0.0202841 0.268774
233 4 0.0289541 0.0362576 0.280117
232 2 0.0479026 0.0523546 0.277466
234 4 0.066851 0.0684516 0.274816
1402 2 0.0352596 0.996603 0.262792
1405 2 0.22632 0.0201372 0.292993
1406 4 0.206819 0.0354995 0.295976
721 2 0.180226 0.0695335 0.268224
723 4 0.189404 0.0844797 0.286044
1407 4 0.24582 0.00477486 0.290009
1518 4 0.422612 0.0192343 0.259534
743 4 0.485955 0.00914182 0.268601
425 4 0.48218 0.0191668 0.286126
424 2 0.484052 0.0380922 0.302359
258 4 0.47825 0.0738457 0.328642
426 4 0.485924 0.0570176 0.318591
1516 2 0.430778 0.0019035 0.275601
317 4 0.0662212 0.0814751 0.290075
316 2 0.0782877 0.103316 0.288482
393 4 0.0862264 0.168105 0.320271
318 4 0.0903542 0.125158 0.28689
392 4 0.102825 0.167038 0.273111
544 2 0.1123 0.136851 0.254982
545 4 0.0970218 0.148151 0.271231
391 2 0.0945257 0.167571 0.296691
399 4 0.0863163 0.160255 0.339375
599 4 0.197126 0.0990079 0.296662
403 2 0.236347 0.145993 0.297307
405 4 0.223823 0.167383 0.300591
598 2 0.1959 0.100188 0.321607
404 4 0.248871 0.124603 0.294023
521 4 0.491589 0.157389 0.251964
401 4 0.227169 0.18512 0.292139
400 2 0.213971 0.200504 0.306779
402 4 0.200772 0.215888 0.321418
763 2 0.438922 0.212197 0.321816
764 4 0.424528 0.213571 0.301418
442 2 0.0562604 0.26677 0.273137
444 4 0.0497259 0.263557 0.297056
366 4 0.0422113 0.338933 0.303855
496 2 0.334481 0.265544 0.327967
497 4 0.309614 0.267781 0.329316
498 4 0.359348 0.263307 0.326618
263 4 0.0434438 0.410863 0.26852
2493 4 0.00104978 0.381865 0.308554
749 4 0.0518132 0.356355 0.301747
365 4 0.00621127 0.36734 0.323798
364 2 0.0242113 0.353137 0.313826
602 4 0.0766377 0.417346 0.30681
748 2 0.0690014 0.355006 0.283638
601 2 0.0786958 0.422151 0.331261
777 4 0.0882359 0.405563 0.293944
299 4 0.0843587 0.363962 0.249153
750 4 0.0861896 0.353656 0.26553
735 4 0.163355 0.38842 0.280734
733 2 0.15579 0.380535 0.258244
677 4 0.157337 0.406221 0.285174
291 4 0.234315 0.395326 0.266859
414 4 0.250209 0.404276 0.274918
412 2 0.24859 0.410455 0.299092
504 4 0.165951 0.398098 0.341513
413 4 0.246971 0.416634 0.323266
727 2 0.330026 0.409095 0.324276
344 4 0.355083 0.3497 0.266978
308 4 0.361769 0.398817 0.304649
729 4 0.344759 0.391784 0.313861
309 4 0.366092 0.367201 0.266146
307 2 0.36393 0.383009 0.285398
2924 4 0.495875 0.36068 0.326907
118 3 0.49855 0.377234 0.311009
543 4 0.435162 0.338731 0.260784
615 4 0.428046 0.354438 0.269919
614 4 0.431998 0.348448 0.319408
613 2 0.430022 0.351443 0.294664
2923 2 0.472238 0.352909 0.329367
2862 4 0.500098 0.395869 0.278765
120 3 0.492986 0.410606 0.294488
713 4 0.478541 0.402615 0.279986
116 1 0.498143 0.400228 0.314093
119 3 0.482522 0.405767 0.330331
3672 4 0.0437242 0.485718 0.342964
775 2 0.100375 0.422802 0.280503
1757 4 0.124513 0.45283 0.27683
776 4 0.112514 0.44004 0.267063
1756 2 0.130448 0.475297 0.286059
1758 4 0.136384 0.497764 0.295289
1775 4 0.12761 0.493479 0.313208
767 4 0.219378 0.491212 0.278827
676 2 0.169115 0.424508 0.297506
678 4 0.180892 0.442794 0.309838
768 4 0.190839 0.454499 0.297223
766 2 0.205108 0.472855 0.288025
728 4 0.315293 0.426405 0.334691
437 4 0.283105 0.469951 0.271384
1437 4 0.286542 0.484635 0.289826
433 2 0.28894 0.451191 0.30691
435 4 0.274087 0.459709 0.288688
434 4 0.303792 0.442673 0.325131
446 4 0.422726 0.440604 0.26798
712 2 0.458485 0.415197 0.271947
714 4 0.438429 0.427779 0.263908
1472 4 0.455509 0.512423 0.329893
606 4 0.144863 0.0527312 0.348485
730 2 0.0848266 0.0719887 0.393026
604 2 0.127806 0.0697531 0.355155
605 4 0.110749 0.086775 0.361826
321 4 0.254353 0.0819351 0.380294
683 4 0.252969 0.0621779 0.38632
249 4 0.296612 0.0235651 0.357279
684 4 0.27996 0.0345452 0.354561
682 2 0.266465 0.0483616 0.370441
247 2 0.318816 0.0289658 0.367428
248 4 0.34102 0.0343665 0.377576
633 4 0.33307 0.0532417 0.382575
631 2 0.337899 0.0684409 0.401833
480 4 0.512677 0.0294555 0.37017
1747 2 0.481183 0.00578685 0.35701
1749 4 0.493159 0.0260886 0.365351
2584 2 0.00055587 0.106996 0.392946
2585 4 0.0080982 0.0866993 0.405449
732 4 0.0940449 0.0842267 0.373266
397 2 0.0887704 0.148425 0.361266
398 4 0.0912246 0.136595 0.383157
600 4 0.194674 0.101368 0.346553
685 2 0.215377 0.124335 0.371607
687 4 0.212471 0.110205 0.351184
686 4 0.218284 0.138464 0.392029
410 4 0.238008 0.138896 0.393702
319 2 0.260877 0.0965494 0.399504
409 2 0.248839 0.158418 0.404962
419 4 0.373386 0.156646 0.3722
418 2 0.365264 0.137182 0.38563
420 4 0.357142 0.117718 0.399061
256 2 0.477996 0.085495 0.350764
257 4 0.477742 0.0971442 0.372887
760 2 0.484334 0.137987 0.371537
761 4 0.473383 0.115609 0.369421
388 2 0.097103 0.220377 0.398817
274 2 0.149371 0.226844 0.371977
276 4 0.125217 0.22526 0.365711
389 4 0.113712 0.227728 0.381634
473 4 0.231762 0.217014 0.349099
474 4 0.18596 0.215411 0.369106
472 2 0.208861 0.216213 0.359103
275 4 0.173525 0.228428 0.378243
708 4 0.245976 0.208926 0.338117
489 4 0.250623 0.244756 0.378359
707 4 0.280622 0.178983 0.358213
651 4 0.262197 0.228803 0.384255
649 2 0.261388 0.2132 0.403776
706 2 0.263299 0.193954 0.348165
716 4 0.387188 0.162995 0.358122
377 4 0.408239 0.228837 0.350743
717 4 0.407052 0.208887 0.358278
715 2 0.39712 0.185941 0.3582
376 2 0.387433 0.242036 0.346494
765 4 0.453317 0.210822 0.342214
1258 2 0.126192 0.316314 0.392832
1259 4 0.142308 0.326127 0.376426
1260 4 0.110076 0.3065 0.409237
509 4 0.243227 0.297105 0.364271
488 4 0.228518 0.289575 0.376529
508 2 0.238434 0.321634 0.365002
487 2 0.23957 0.267165 0.377444
378 4 0.366626 0.255235 0.342244
267 4 0.374968 0.319648 0.341153
266 4 0.355176 0.289615 0.375895
585 4 0.353806 0.269893 0.377468
583 2 0.362518 0.259042 0.398242
265 2 0.365072 0.304632 0.358524
270 4 0.499743 0.250809 0.385796
510 4 0.23364 0.346163 0.365732
374 4 0.241661 0.355891 0.380807
373 2 0.251274 0.378154 0.374713
375 4 0.260887 0.400417 0.368618
3 3 0.280012 0.404981 0.362686
2925 4 0.4486 0.345137 0.331828
751 2 0.481509 0.403537 0.374272
753 4 0.484063 0.402469 0.349422
561 4 0.483121 0.410133 0.417532
752 4 0.478955 0.404606 0.399122
407 4 0.0140027 0.414359 0.405127
679 2 0.0437626 0.491814 0.390363
680 4 0.0522013 0.470112 0.399473
406 2 0.0288519 0.434382 0.407063
408 4 0.0437011 0.454405 0.408999
603 4 0.080754 0.426956 0.355712
549 4 0.0868203 0.440969 0.370393
547 2 0.100297 0.448778 0.389952
548 4 0.113775 0.456587 0.409511
502 2 0.175418 0.41475 0.357584
503 4 0.184884 0.431403 0.373655
634 2 0.192789 0.471387 0.36572
636 4 0.18905 0.450226 0.378503
635 4 0.196527 0.492548 0.352936
2 3 0.296968 0.433699 0.345354
5 3 0.261399 0.425711 0.337358
1 1 0.276974 0.426267 0.353964
668 4 0.275907 0.458337 0.365997
4 3 0.270162 0.440797 0.370724
667 2 0.286668 0.478416 0.376304
669 4 0.297428 0.498495 0.386611
368 4 0.064877 0.0758152 0.416632
731 4 0.0756083 0.0597507 0.412785
367 2 0.0496529 0.0833995 0.434959
341 4 0.161071 0.0756096 0.445419
439 2 0.237907 0.999647 0.464377
2430 4 0.179962 0.0664896 0.440347
441 4 0.219603 0.0166679 0.465025
2428 2 0.193597 0.0462225 0.445686
2429 4 0.207232 0.0259555 0.451026
1218 4 0.373853 0.0525478 0.497994
2878 2 0.465909 0.0120844 0.444363
2880 4 0.488068 0.0210072 0.451745
642 4 0.489911 0.0404252 0.444639
640 2 0.486419 0.0642737 0.437988
718 2 0.0359537 0.0949562 0.491894
719 4 0.0383004 0.103329 0.468451
369 4 0.0344288 0.0909837 0.453286
1152 4 0.146431 0.131474 0.476948
342 4 0.150843 0.112201 0.477933
340 2 0.155957 0.0939051 0.461676
1150 2 0.162625 0.142645 0.49238
320 4 0.267401 0.111164 0.418715
725 4 0.26955 0.0947797 0.429938
724 2 0.265315 0.100738 0.453849
726 4 0.26108 0.106695 0.47776
432 4 0.269822 0.0950095 0.492037
632 4 0.342728 0.0836402 0.42109
468 4 0.360195 0.0926215 0.426265
467 4 0.373766 0.123109 0.463508
466 2 0.366981 0.107865 0.444887
574 2 0.410377 0.140561 0.445688
576 4 0.389918 0.136456 0.459464
515 4 0.467344 0.0899894 0.417976
641 4 0.482926 0.0881222 0.431338
3158 4 0.490753 0.107036 0.435492
575 4 0.430835 0.144666 0.431913
516 4 0.439999 0.131846 0.418961
514 2 0.453671 0.110918 0.418469
260 4 0.0746177 0.166315 0.473656
471 4 0.0638691 0.18432 0.473544
469 2 0.0710953 0.199045 0.454672
390 4 0.0804937 0.213026 0.416001
470 4 0.0783214 0.21377 0.435801
650 4 0.260579 0.197597 0.423297
411 4 0.259669 0.177939 0.416223
2455 2 0.400442 0.231767 0.445418
2456 4 0.382666 0.24629 0.435505
2457 4 0.418218 0.217243 0.455331
616 2 0.0184823 0.255394 0.439045
617 4 0.0402137 0.264937 0.44691
695 4 0.0905834 0.26768 0.443279
694 2 0.0907871 0.287598 0.428165
696 4 0.0909907 0.307516 0.413052
878 4 0.0863098 0.257164 0.484629
584 4 0.371229 0.248192 0.419016
304 2 0.491937 0.274858 0.420272
1010 4 0.443865 0.321749 0.470714
1009 2 0.457557 0.302914 0.461605
1011 4 0.471248 0.28408 0.452495
305 4 0.481392 0.291535 0.43563
709 2 0.125976 0.408539 0.492227
326 4 0.111036 0.354242 0.41798
325 2 0.126935 0.358248 0.436857
327 4 0.142835 0.362254 0.455734
8 3 0.148028 0.377079 0.488007
711 4 0.140588 0.391029 0.502477
7 3 0.15974 0.3532 0.46145
6 1 0.160526 0.357955 0.483943
9 3 0.151645 0.340039 0.495712
1191 4 0.205984 0.359038 0.491389
1189 2 0.2309 0.360426 0.489828
10 3 0.182175 0.361358 0.490139
1190 4 0.255816 0.361815 0.488266
803 4 0.271472 0.373588 0.492306
238 2 0.36272 0.398954 0.499324
240 4 0.363738 0.414711 0.479937
2507 4 0.446687 0.339691 0.47701
560 4 0.492393 0.386877 0.460821
559 2 0.487757 0.398505 0.439176
2506 2 0.461877 0.357032 0.467329
2508 4 0.477068 0.374373 0.457649
540 4 0.0420901 0.465252 0.486414
1381 2 0.00964445 0.445048 0.46274
1382 4 0.0296554 0.457326 0.471343
569 4 0.117277 0.452773 0.429211
710 4 0.111363 0.426049 0.481978
570 4 0.0970296 0.435762 0.471654
568 2 0.107153 0.444268 0.450432
1401 4 0.323968 0.437916 0.429471
1399 2 0.318001 0.458407 0.442499
1400 4 0.312034 0.478897 0.455526
588 4 0.316585 0.498557 0.451614
1446 4 0.254984 0.483335 0.486378
335 4 0.370973 0.412436 0.461179
336 4 0.336376 0.422072 0.42638
334 2 0.353675 0.417254 0.44378
1126 2 0.00718121 0.0681335 0.544878
949 2 0.200383 0.085339 0.558641
1182 4 0.217491 0.0589178 0.567379
1180 2 0.238127 0.0464115 0.573932
950 4 0.216303 0.0773943 0.576208
963 4 0.260977 0.0211929 0.564116
1181 4 0.258762 0.0339052 0.580484
961 2 0.283727 0.0121887 0.569265
962 4 0.306478 0.00318463 0.574414
1216 2 0.365021 0.0681344 0.515436
1217 4 0.356189 0.0837211 0.532879
842 4 0.345388 0.0755729 0.546498
1127 4 0.0191558 0.0781498 0.525347
720 4 0.0336071 0.0865837 0.515337
1033 2 0.0705579 0.135627 0.556284
1034 4 0.0672509 0.140166 0.531919
261 4 0.0557989 0.148281 0.516333
259 2 0.0652083 0.157298 0.494995
1030 2 0.145727 0.092256 0.554095
1032 4 0.125563 0.0973332 0.567981
1154 4 0.106418 0.0953596 0.570032
1031 4 0.165892 0.0871788 0.54021
951 4 0.184462 0.0932836 0.541074
1151 4 0.178819 0.153816 0.507812
939 4 0.179442 0.153197 0.527763
937 2 0.182547 0.15622 0.552388
938 4 0.185652 0.159243 0.577014
843 4 0.301163 0.0975754 0.554292
431 4 0.294435 0.0965251 0.535541
430 2 0.282128 0.0957673 0.513789
841 2 0.323276 0.0865741 0.550395
857 4 0.359001 0.150075 0.570814
856 2 0.340258 0.154298 0.586815
899 4 0.378727 0.151863 0.565553
1272 4 0.0925131 0.24082 0.545075
1270 2 0.103004 0.226736 0.562873
1271 4 0.113495 0.212652 0.58067
898 2 0.386759 0.173827 0.556707
900 4 0.394791 0.195791 0.547861
872 4 0.408693 0.207123 0.540553
873 4 0.378135 0.245867 0.548666
871 2 0.393414 0.226495 0.544609
813 4 0.364699 0.239924 0.56277
811 2 0.347841 0.234114 0.580298
879 4 0.097199 0.256644 0.533433
877 2 0.0917544 0.256904 0.509031
1239 4 0.271916 0.276037 0.586302
1237 2 0.296117 0.274756 0.592456
1204 2 0.384015 0.308977 0.576785
1206 4 0.365566 0.319859 0.563886
1205 4 0.402465 0.298096 0.589684
983 4 0.056601 0.387326 0.576035
982 2 0.0320199 0.389812 0.579878
1041 4 0.0590234 0.403997 0.58711
984 4 0.00743883 0.392299 0.583721
896 4 0.201569 0.355205 0.512188
897 4 0.195097 0.373931 0.558103
895 2 0.198333 0.364568 0.535145
1137 4 0.204104 0.387736 0.566949
802 2 0.285629 0.367628 0.512035
804 4 0.299786 0.361668 0.531764
929 4 0.310846 0.357746 0.549208
928 2 0.329014 0.341559 0.554959
930 4 0.347182 0.325372 0.56071
239 4 0.361702 0.383198 0.518712
1001 4 0.460052 0.370341 0.543814
926 4 0.462525 0.365019 0.525999
925 2 0.485604 0.368548 0.517051
1000 2 0.454933 0.386878 0.561856
1002 4 0.449813 0.403415 0.579897
1936 2 0.0503226 0.485593 0.560471
1937 4 0.0642386 0.493855 0.541411
539 4 0.0530018 0.494734 0.525305
538 2 0.047546 0.479993 0.50586
2242 2 0.131757 0.50122 0.566168
1171 2 0.242242 0.452853 0.571555
1173 4 0.222456 0.45934 0.585399
1160 4 0.20419 0.46878 0.583884
882 4 0.278288 0.455989 0.566922
880 2 0.2925 0.460539 0.54686
881 4 0.306712 0.465089 0.526798
1445 4 0.298631 0.474584 0.509161
1444 2 0.276808 0.47896 0.49777
1172 4 0.262027 0.446367 0.557712
1455 4 0.340244 0.486966 0.556196
1953 4 0.354887 0.489856 0.569543
1185 4 0.0178023 0.0450574 0.634671
945 4 0.0266987 0.0558205 0.649095
1058 4 0.0942774 0.0289396 0.649437
1057 2 0.103848 0.048343 0.636903
1155 4 0.097321 0.0757953 0.615145
1059 4 0.113418 0.0677464 0.624369
1153 2 0.101869 0.0855775 0.592588
1925 4 0.413544 0.999135 0.63876
2282 4 0.479262 0.0326674 0.604563
2281 2 0.465954 0.017592 0.589703
43 3 0.482488 0.0526905 0.599123
41 1 0.481461 0.0707347 0.613675
44 3 0.459329 0.0764829 0.617616
42 3 0.49126 0.0647743 0.633615
1163 4 0.487468 0.0739453 0.651205
1035 4 0.0738649 0.131089 0.580649
1082 4 0.0601867 0.136272 0.594226
1081 2 0.0394631 0.148689 0.600671
1083 4 0.0187395 0.161106 0.607115
1221 4 0.133926 0.107028 0.661365
1219 2 0.156651 0.107127 0.650938
1220 4 0.179376 0.107226 0.64051
1212 4 0.195546 0.116471 0.648403
1210 2 0.21965 0.123033 0.647338
1211 4 0.243754 0.129595 0.646273
1005 4 0.32339 0.0962893 0.61306
1004 4 0.312902 0.104834 0.661202
1003 2 0.318146 0.100562 0.637131
858 4 0.321514 0.158522 0.602815
887 4 0.296258 0.110353 0.668794
1142 4 0.352291 0.0998131 0.660407
1025 4 0.391042 0.157695 0.668013
1024 2 0.387697 0.16818 0.645562
1141 2 0.364981 0.12123 0.662744
45 3 0.492646 0.0884937 0.604833
909 4 0.131312 0.215325 0.589682
907 2 0.153775 0.223779 0.596692
947 4 0.179099 0.245949 0.618312
908 4 0.176237 0.232234 0.603701
798 4 0.321403 0.223718 0.61519
796 2 0.316659 0.199261 0.61307
797 4 0.311915 0.174803 0.61095
812 4 0.330982 0.228305 0.597826
1026 4 0.384352 0.178665 0.623111
946 2 0.187719 0.263818 0.63353
948 4 0.196339 0.281688 0.648747
1065 4 0.208048 0.290346 0.663341
1063 2 0.232222 0.293777 0.668726
1238 4 0.320317 0.273475 0.59861
954 4 0.415715 0.284696 0.581843
790 2 0.334976 0.29898 0.626654
791 4 0.334596 0.317272 0.643696
792 4 0.335356 0.280687 0.609613
952 2 0.439256 0.276621 0.584254
905 4 0.483039 0.26873 0.589903
953 4 0.462796 0.268546 0.586665
3263 4 0.00378964 0.388478 0.602676
1039 2 0.0835134 0.407406 0.590824
1040 4 0.108003 0.410815 0.594539
1135 2 0.193849 0.394604 0.588694
1136 4 0.183593 0.401471 0.610439
1029 4 0.267599 0.405706 0.663273
1139 4 0.279744 0.409317 0.647785
1910 4 0.439021 0.398164 0.596618
1909 2 0.43739 0.40897 0.619106
1938 4 0.0364066 0.477332 0.579531
936 4 0.0260933 0.478745 0.59755
2022 4 0.0535446 0.474458 0.654069
934 2 0.00316277 0.488025 0.593909
991 2 0.142344 0.417527 0.600673
993 4 0.1198 0.427272 0.595987
2243 4 0.151003 0.489057 0.576504
1161 4 0.161806 0.49394 0.592327
992 4 0.164889 0.407782 0.605359
1159 2 0.182998 0.48136 0.588105
889 2 0.373958 0.491995 0.644747
890 4 0.382272 0.475367 0.661467
1269 4 0.397283 0.470901 0.649783
1267 2 0.416113 0.454544 0.648044
1911 4 0.435758 0.419776 0.641595
1268 4 0.434944 0.438186 0.646305
943 2 0.0380458 0.0550772 0.671363
1076 4 0.0669751 0.0528398 0.70297
944 4 0.0493929 0.0543338 0.693631
1075 2 0.0797914 0.0633708 0.721678
1077 4 0.0926077 0.0739018 0.740387
2049 4 0.148943 0.0272688 0.744531
1283 4 0.156264 0.0652129 0.703926
1282 2 0.1622 0.0752459 0.726046
1284 4 0.168137 0.0852789 0.748166
831 4 0.330762 0.0768911 0.694611
846 4 0.499049 0.00150854 0.755961
1106 4 0.0655668 0.156863 0.753395
35 3 0.0846013 0.165041 0.745388
32 3 0.105701 0.141513 0.725536
31 1 0.0957399 0.145185 0.745942
1227 4 0.187353 0.0901951 0.743555
888 4 0.252178 0.133478 0.664006
886 2 0.274218 0.121915 0.6664
830 4 0.299199 0.113426 0.707636
829 2 0.31498 0.0951587 0.701123
1143 4 0.37767 0.142647 0.665082
1105 2 0.0494556 0.174299 0.745547
851 4 0.0171006 0.198121 0.729904
1107 4 0.0333443 0.191735 0.737698
1208 4 0.07225 0.240053 0.701333
821 4 0.0816947 0.234378 0.719137
822 4 0.131187 0.227463 0.720977
1278 4 0.147743 0.231012 0.728018
820 2 0.106441 0.230921 0.720057
1276 2 0.156819 0.208745 0.734872
1277 4 0.165895 0.186478 0.741726
977 4 0.306446 0.202443 0.730371
916 2 0.316373 0.240626 0.708086
918 4 0.31193 0.21882 0.719485
3122 4 0.481069 0.234988 0.669237
3121 2 0.464695 0.246676 0.684086
1263 4 0.434787 0.221791 0.736956
3123 4 0.448322 0.258363 0.698934
1145 4 0.452249 0.215767 0.745357
1243 2 0.00471284 0.284434 0.700202
3188 4 0.0344767 0.265835 0.746128
1207 2 0.0516376 0.253198 0.706576
1209 4 0.0310252 0.266344 0.71182
1244 4 0.0285052 0.28657 0.707587
1240 2 0.25069 0.288798 0.735507
1242 4 0.231461 0.279929 0.748803
1064 4 0.256397 0.297208 0.67411
1241 4 0.269919 0.297666 0.722211
917 4 0.320817 0.262433 0.696688
1097 4 0.314905 0.281167 0.699857
1096 2 0.291483 0.288093 0.694506
1098 4 0.268062 0.295019 0.689154
1008 4 0.340569 0.271002 0.734893
1006 2 0.363563 0.271748 0.744686
1279 2 0.0556306 0.349851 0.689015
3275 4 0.0494428 0.362962 0.723604
1280 4 0.0403008 0.355287 0.708005
1281 4 0.0709603 0.344415 0.670024
3274 2 0.0612569 0.379959 0.737629
894 4 0.0838075 0.359402 0.679038
893 4 0.128593 0.381202 0.674597
892 2 0.1062 0.370302 0.676817
940 2 0.152667 0.392584 0.736759
1028 4 0.23709 0.370584 0.681613
1068 4 0.221511 0.359536 0.688342
1067 4 0.179712 0.365954 0.715033
1066 2 0.200611 0.362745 0.701687
941 4 0.17166 0.383125 0.723531
1027 2 0.252344 0.388145 0.672443
1229 4 0.361441 0.394718 0.684817
1228 2 0.371496 0.409073 0.70265
2021 4 0.0499115 0.4898 0.701525
1981 2 0.0287928 0.482553 0.734339
2020 2 0.051728 0.482129 0.677797
1983 4 0.0356658 0.47784 0.710765
2172 4 0.174859 0.501567 0.671574
2214 4 0.270187 0.495155 0.733591
1138 2 0.287437 0.427308 0.663352
1140 4 0.295129 0.445299 0.678918
1989 4 0.287267 0.452413 0.696914
1987 2 0.299757 0.46317 0.715714
1988 4 0.312247 0.473926 0.734515
1230 4 0.38155 0.423428 0.720483
1100 4 0.441944 0.485536 0.744233
862 2 0.0530068 0.0811346 0.813997
864 4 0.0640622 0.0746438 0.835464
2047 2 0.159184 0.0088036 0.757923
1203 4 0.101657 0.0677646 0.758685
1202 4 0.13439 0.0299646 0.758032
1201 2 0.118023 0.0488646 0.758358
1147 2 0.223799 0.0526518 0.820444
1148 4 0.19934 0.0573597 0.822632
1149 4 0.248258 0.0479439 0.818257
1049 4 0.26231 0.0584146 0.810186
818 4 0.353402 0.062695 0.801738
965 4 0.36887 0.063653 0.814866
975 4 0.39624 0.996872 0.826759
817 2 0.3348 0.0793446 0.803134
863 4 0.0419514 0.0876255 0.792531
832 2 0.0522946 0.121645 0.771969
833 4 0.0383961 0.105556 0.785127
33 3 0.0808836 0.127891 0.750257
834 4 0.0661931 0.137734 0.75881
34 3 0.112174 0.14578 0.762313
1073 4 0.12148 0.163392 0.767352
1225 2 0.193988 0.10386 0.763415
1226 4 0.200623 0.117524 0.783276
840 4 0.20991 0.128749 0.796974
838 2 0.234176 0.134627 0.795635
839 4 0.258442 0.140505 0.794295
959 4 0.275151 0.148884 0.802049
819 4 0.316198 0.0959942 0.804529
1085 4 0.312736 0.114773 0.810474
1084 2 0.326153 0.132526 0.821875
1086 4 0.339571 0.15028 0.833275
1299 4 0.356157 0.16197 0.830561
3268 2 0.500053 0.161842 0.793527
1146 4 0.476948 0.174592 0.759332
779 4 0.0661308 0.216162 0.831805
1214 4 0.0507612 0.215689 0.819734
1213 2 0.0325441 0.231164 0.812396