ITEM: TIMESTEP
1810000
ITEM: NUMBER OF ATOMS
4590
ITEM: BOX BOUNDS pp pp pp
-9.9985700000000008e+00 9.9985700000000008e+00
-9.9985700000000008e+00 9.9985700000000008e+00
-9.9985700000000008e+00 9.9985700000000008e+00
ITEM: ATOMS id type xs ys zs
463 2 0.0647379 0.0801425 0.00443421
464 4 0.0773493 0.0596264 0.997709
1666 2 0.0711594 0.996184 0.0722891
1668 4 0.0815609 0.0106062 0.0547114
566 4 0.185446 0.0428698 0.063083
1474 2 0.240647 0.0211888 0.0801
565 2 0.199872 0.0630357 0.0663052
1475 4 0.241777 0.0342781 0.0588262
567 4 0.214299 0.0832017 0.0695273
492 4 0.254916 0.0214076 0.0481709
490 2 0.264505 0.0398828 0.034318
491 4 0.274094 0.058358 0.0204652
2145 4 0.392545 0.0079016 0.034311
2143 2 0.378461 0.00775978 0.013652
745 2 0.454982 0.0642086 0.015741
2724 4 0.489599 0.0451823 0.0636675
747 4 0.477076 0.0755689 0.0129145
2722 2 0.468362 0.0446882 0.0768564
746 4 0.432889 0.0528483 0.0185674
2723 4 0.447126 0.0441941 0.0900453
465 4 0.0521265 0.100659 0.0111591
701 4 0.0565968 0.114393 0.024792
700 2 0.0542081 0.138253 0.0177097
360 4 0.187326 0.148938 0.0164329
358 2 0.210861 0.140613 0.0150193
359 4 0.234396 0.132288 0.0136058
828 4 0.438855 0.150654 0.998949
2469 4 0.492162 0.0799669 0.0262564
702 4 0.0518195 0.162113 0.0106273
423 4 0.0773087 0.171448 0.0120584
555 4 0.0358516 0.173164 0.020561
553 2 0.0325925 0.197221 0.0145769
554 4 0.0293334 0.221278 0.00859271
422 4 0.0994382 0.210934 0.0333167
421 2 0.0883734 0.191191 0.0226875
737 4 0.208218 0.230433 0.0612938
736 2 0.214664 0.206322 0.0597886
354 4 0.236196 0.175998 0.0703103
738 4 0.221109 0.18221 0.0582834
506 4 0.215222 0.244107 0.0490307
352 2 0.257495 0.177406 0.0833312
1071 4 0.384048 0.250849 0.0129494
2807 4 0.00410821 0.27455 0.045902
294 4 0.1502 0.311819 0.0543417
292 2 0.170249 0.303102 0.0422089
456 4 0.139636 0.326624 0.0638221
507 4 0.208622 0.292553 0.0385358
293 4 0.190299 0.294384 0.0300762
505 2 0.211922 0.26833 0.0437832
481 2 0.297266 0.291777 0.00466217
482 4 0.315218 0.290292 0.0220026
573 4 0.371333 0.263509 0.0245815
571 2 0.367321 0.277499 0.0449127
572 4 0.363309 0.291489 0.0652439
741 4 0.354348 0.292207 0.0845467
739 2 0.349011 0.316534 0.0867607
255 4 0.366152 0.265502 0.0855044
324 4 0.471063 0.274294 0.0519202
323 4 0.428798 0.265298 0.0267528
322 2 0.449931 0.269796 0.0393365
1168 2 0.0747539 0.35271 0.993576
1169 4 0.0588904 0.366849 0.00675212
329 4 0.0513943 0.382271 0.99762
1170 4 0.0906174 0.338571 0.9804
454 2 0.143377 0.347849 0.076497
608 4 0.235267 0.374579 0.0727287
252 4 0.254197 0.382057 0.0735175
250 2 0.27274 0.391063 0.0593666
251 4 0.291283 0.400068 0.0452157
524 4 0.310514 0.404599 0.0435022
226 2 0.389913 0.391912 0.0356073
228 4 0.381162 0.401644 0.0569119
671 4 0.407906 0.352938 0.054154
227 4 0.398664 0.382181 0.0143026
670 2 0.399978 0.356891 0.0775358
1303 2 0.394314 0.345121 0.00109049
1305 4 0.395031 0.363227 0.0183194
281 4 0.42681 0.35485 0.0578162
280 2 0.451667 0.354364 0.0551562
282 4 0.476524 0.353877 0.0524963
104 3 0.486398 0.353903 0.069802
1045 2 0.486144 0.348319 0.0112259
1047 4 0.485162 0.345748 0.0360775
552 4 0.0117338 0.431085 0.0263483
314 4 0.0209973 0.426454 0.0447874
313 2 0.0334404 0.415702 0.0636219
795 4 0.172201 0.457491 0.00702733
793 2 0.163598 0.48094 0.00588977
244 2 0.231077 0.475178 0.0117606
243 4 0.227774 0.483822 0.0685709
245 4 0.219263 0.453155 0.0110011
246 4 0.24289 0.497202 0.01252
1440 4 0.244334 0.468939 0.0727205
272 4 0.260643 0.480622 0.0711441
523 2 0.320375 0.41798 0.0621812
40 3 0.354113 0.437629 0.00983032
525 4 0.330235 0.43136 0.0808602
37 3 0.326746 0.462612 0.00538076
2479 2 0.00216759 0.0338843 0.131703
1422 4 0.026021 0.00749003 0.150343
2480 4 0.0237918 0.0251674 0.140735
18 3 0.0681015 0.00703402 0.132173
590 4 0.00579701 0.0836606 0.0957334
652 2 0.223268 0.0506841 0.141417
654 4 0.212957 0.0541434 0.118903
1476 4 0.239518 0.0080994 0.101374
297 4 0.387244 0.0196012 0.10893
485 4 0.379641 0.00235239 0.11549
295 2 0.390987 0.0426521 0.099995
296 4 0.39473 0.065703 0.0910605
557 4 0.411261 0.0655814 0.102129
1759 2 0.454898 0.00993942 0.135504
1760 4 0.472881 0.0264899 0.130222
2744 4 0.489488 0.029194 0.141375
235 2 0.121598 0.147044 0.148714
556 2 0.421417 0.0884274 0.102437
771 4 0.43909 0.122973 0.0882217
558 4 0.431573 0.111273 0.102746
769 2 0.44531 0.144867 0.0985732
237 4 0.110116 0.162686 0.132945
476 4 0.193081 0.216537 0.157569
477 4 0.173308 0.214008 0.111706
475 2 0.183195 0.215273 0.134638
353 4 0.278794 0.178814 0.0963521
461 4 0.287343 0.177087 0.11429
460 2 0.309279 0.188829 0.111823
254 4 0.389051 0.222302 0.0959982
630 4 0.402252 0.206679 0.0957204
462 4 0.331216 0.200571 0.109357
253 2 0.377601 0.243902 0.0907513
770 4 0.451529 0.166761 0.108925
628 2 0.421911 0.211544 0.110384
624 4 0.440892 0.223891 0.14354
629 4 0.44157 0.216409 0.125048
338 4 0.0584276 0.246384 0.136405
337 2 0.0677249 0.265195 0.150002
339 4 0.0770223 0.284006 0.1636
612 4 0.229984 0.326442 0.117085
610 2 0.243346 0.306014 0.122498
611 4 0.256708 0.285585 0.127912
754 2 0.328231 0.264933 0.102743
755 4 0.30726 0.255352 0.112417
278 4 0.290095 0.25372 0.124063
277 2 0.294707 0.243022 0.146187
756 4 0.349202 0.274514 0.0930695
595 2 0.398203 0.333028 0.144519
596 4 0.389073 0.312178 0.13417
622 2 0.442397 0.244767 0.157218
619 2 0.0669337 0.389334 0.110205
620 4 0.081517 0.39144 0.130405
621 4 0.0523503 0.387228 0.0900038
315 4 0.0458835 0.40495 0.0824564
455 4 0.147119 0.369075 0.0891719
647 4 0.0969218 0.397111 0.140608
537 4 0.117654 0.359593 0.124922
535 2 0.13972 0.370244 0.129907
536 4 0.161785 0.380895 0.134891
646 2 0.104044 0.394156 0.164393
607 2 0.237942 0.354921 0.0879471
609 4 0.240618 0.335263 0.103166
386 4 0.327337 0.350419 0.0947452
740 4 0.343674 0.340861 0.0889747
387 4 0.343317 0.380917 0.131011
385 2 0.335327 0.365668 0.112878
302 4 0.338655 0.398744 0.14159
12 3 0.383322 0.375692 0.110106
11 1 0.384284 0.383517 0.131717
15 3 0.363202 0.38821 0.13894
672 4 0.392051 0.360844 0.100918
14 3 0.397268 0.402742 0.132162
495 4 0.40261 0.409686 0.11405
13 3 0.39382 0.367204 0.145183
301 2 0.341539 0.421089 0.152432
597 4 0.407333 0.353877 0.154868
626 4 0.188122 0.424661 0.150905
1438 2 0.244016 0.47382 0.097241
625 2 0.207506 0.4369 0.160887
637 2 0.238929 0.490135 0.17063
1439 4 0.243698 0.478701 0.121761
1559 4 0.303704 0.481607 0.099293
493 2 0.42558 0.41949 0.112857
494 4 0.448551 0.429294 0.111664
1583 4 0.473995 0.471849 0.11922
1582 2 0.45659 0.486369 0.108666
1584 4 0.439184 0.500888 0.0981111
674 4 0.141621 0.990395 0.228058
690 4 0.146121 0.999654 0.209907
673 2 0.12161 0.00463417 0.232749
675 4 0.1016 0.0188738 0.237439
688 2 0.169022 0.996573 0.200356
653 4 0.23358 0.0472247 0.163931
693 4 0.239933 0.0474094 0.182843
1661 4 0.335876 0.00409893 0.16392
691 2 0.258005 0.0449745 0.199949
692 4 0.276078 0.0425396 0.217056
1700 4 0.331706 0.0602392 0.234168
1699 2 0.310319 0.0475289 0.231668
1701 4 0.288933 0.0348185 0.229167
23 3 0.339228 0.0784253 0.23969
21 1 0.36041 0.0729699 0.231946
25 3 0.361356 0.0756637 0.209352
22 3 0.364798 0.0509961 0.237147
759 4 0.362045 0.0706269 0.189155
24 3 0.376298 0.0864209 0.242195
511 2 0.0171189 0.123307 0.217398
578 4 0.0482872 0.140585 0.224587
513 4 0.0360344 0.127757 0.233133
577 2 0.055882 0.16427 0.227141
449 4 0.130083 0.127307 0.183264
448 2 0.141168 0.104989 0.181215
236 4 0.133081 0.131402 0.164483
450 4 0.152253 0.0826709 0.179166
28 3 0.24311 0.144079 0.178396
27 3 0.23115 0.155456 0.212163
546 4 0.185972 0.123875 0.242528
580 2 0.295201 0.112596 0.194709
581 4 0.275408 0.127055 0.199642
30 3 0.258189 0.129838 0.20982
26 1 0.249575 0.148605 0.200216
582 4 0.314995 0.0981372 0.189776
29 3 0.265392 0.165582 0.200432
757 2 0.378671 0.082334 0.174605
758 4 0.395297 0.0940411 0.160055
311 4 0.451302 0.146115 0.203352
310 2 0.45138 0.170239 0.196779
529 2 0.0224264 0.204813 0.239058
530 4 0.0458348 0.198106 0.233379
579 4 0.0634767 0.187955 0.229695
372 4 0.152611 0.230847 0.177126
362 4 0.133718 0.238897 0.176489
370 2 0.163287 0.23659 0.198994
371 4 0.173963 0.242333 0.220862
402 4 0.216462 0.224705 0.256141
279 4 0.29932 0.232323 0.16831
284 4 0.297381 0.239211 0.234835
283 2 0.293703 0.234203 0.210616
285 4 0.290025 0.229196 0.186396
312 4 0.451458 0.194363 0.190206
520 2 0.494328 0.179563 0.240483
763 2 0.436869 0.191405 0.248326
764 4 0.458089 0.178968 0.252821
521 4 0.475336 0.168905 0.252767
396 4 0.0610094 0.305225 0.216812
443 4 0.0724935 0.306343 0.232701
363 4 0.105098 0.279493 0.170697
394 2 0.0751291 0.296579 0.198075
395 4 0.0892489 0.287934 0.179338
361 2 0.119408 0.259195 0.173593
623 4 0.443901 0.265643 0.170896
527 4 0.447412 0.284813 0.176328
526 2 0.463287 0.292202 0.194177
528 4 0.479162 0.29959 0.212025
264 4 0.0156456 0.390475 0.215686
262 2 0.0234243 0.413289 0.222332
648 4 0.111165 0.3912 0.188178
300 4 0.10803 0.372409 0.192591
298 2 0.11887 0.364778 0.213791
299 4 0.12971 0.357147 0.234991
289 2 0.221067 0.411136 0.249904
345 4 0.260506 0.358739 0.227967
343 2 0.28262 0.349765 0.235423
344 4 0.304734 0.34079 0.242879
645 4 0.40404 0.375674 0.163386
643 2 0.405612 0.374949 0.18833
644 4 0.407185 0.374224 0.213273
447 4 0.402641 0.387633 0.228267
445 2 0.413841 0.408714 0.235706
263 4 0.0312029 0.436104 0.228977
638 4 0.228499 0.468132 0.176312
627 4 0.22689 0.449139 0.170869
417 4 0.190035 0.487172 0.212427
290 4 0.211062 0.42789 0.234271
416 4 0.20214 0.439586 0.221902
415 2 0.196088 0.463379 0.217165
303 4 0.344423 0.443434 0.163275
659 4 0.33781 0.459396 0.176663
658 2 0.350986 0.476137 0.189751
660 4 0.364161 0.492879 0.20284
2861 4 0.483375 0.430083 0.235488
446 4 0.425041 0.429795 0.243144
1403 4 0.0545019 0.0095448 0.279607
232 2 0.0558039 0.0457844 0.29438
234 4 0.0590347 0.0704553 0.291912
317 4 0.0465731 0.0776243 0.277832
233 4 0.052573 0.0211135 0.296847
723 4 0.216324 0.0700724 0.257002
1406 4 0.20881 0.0119997 0.307627
698 4 0.379895 0.0517853 0.250846
249 4 0.335559 0.0485668 0.320303
697 2 0.382814 0.0291977 0.261164
699 4 0.385733 0.00661016 0.271482
333 4 0.385745 0.0720465 0.251771
331 2 0.401138 0.0798557 0.269861
743 4 0.455278 0.0301739 0.273049
742 2 0.464949 0.0108654 0.260446
351 4 0.467919 0.0419661 0.282325
349 2 0.450518 0.0593743 0.286724
480 4 0.490406 0.997476 0.320149
316 2 0.0435386 0.0936304 0.258865
318 4 0.0405041 0.109636 0.239897
393 4 0.12262 0.139745 0.332507
399 4 0.127208 0.120748 0.332619
391 2 0.134597 0.144493 0.311078
392 4 0.146574 0.14924 0.289649
545 4 0.149478 0.135477 0.274689
721 2 0.208269 0.093676 0.255222
722 4 0.200214 0.11728 0.253442
544 2 0.167725 0.129676 0.258608
599 4 0.207289 0.135271 0.305469
404 4 0.22068 0.145651 0.316266
598 2 0.193343 0.12396 0.322869
403 2 0.23492 0.156794 0.298996
762 4 0.399346 0.139585 0.274382
332 4 0.41653 0.087665 0.287951
761 4 0.447552 0.13025 0.283854
350 4 0.433118 0.0767824 0.291124
760 2 0.423449 0.134917 0.279118
401 4 0.242426 0.186479 0.275255
400 2 0.229444 0.205592 0.265698
405 4 0.24916 0.167936 0.281726
765 4 0.415649 0.203843 0.243831
442 2 0.0738582 0.291342 0.252658
444 4 0.0752229 0.276341 0.272615
309 4 0.304058 0.336209 0.261919
496 2 0.314842 0.292836 0.336107
497 4 0.323218 0.300403 0.313797
541 2 0.466253 0.283063 0.311571
542 4 0.477682 0.26305 0.301873
615 4 0.448767 0.318776 0.333017
613 2 0.430808 0.333092 0.323133
543 4 0.454824 0.303075 0.321269
749 4 0.0527801 0.361225 0.271086
365 4 0.00956578 0.375027 0.314499
364 2 0.0213796 0.365853 0.294462
366 4 0.0331933 0.356679 0.274426
748 2 0.0774332 0.357172 0.270099
735 4 0.144402 0.339648 0.294177
601 2 0.0925203 0.379942 0.326799
734 4 0.126834 0.363706 0.254012
750 4 0.102086 0.353119 0.269111
733 2 0.135618 0.351677 0.274095
602 4 0.102277 0.388501 0.305428
677 4 0.160391 0.35046 0.303976
777 4 0.103039 0.40918 0.305028
676 2 0.167485 0.366458 0.321835
414 4 0.228386 0.401331 0.28366
291 4 0.231071 0.394382 0.265537
412 2 0.225386 0.410405 0.306765
307 2 0.318644 0.336658 0.282222
727 2 0.324674 0.378984 0.316752
308 4 0.33323 0.337107 0.302525
728 4 0.319727 0.4032 0.320535
729 4 0.329621 0.354769 0.312969
3 3 0.279653 0.412358 0.325164
614 4 0.412848 0.347408 0.31325
1757 4 0.122316 0.472445 0.295562
776 4 0.122933 0.455044 0.3062
775 2 0.112986 0.432112 0.305614
1756 2 0.115967 0.496308 0.291635
413 4 0.222386 0.419478 0.32987
1436 4 0.224409 0.482554 0.31964
1435 2 0.245894 0.470063 0.316886
768 4 0.212608 0.494064 0.259404
1545 4 0.213615 0.493488 0.333648
438 4 0.302688 0.464235 0.253839
437 4 0.28524 0.457701 0.300245
436 2 0.293964 0.460968 0.277042
1437 4 0.267379 0.457573 0.314133
5 3 0.286403 0.449098 0.320444
2 3 0.314897 0.425051 0.322094
434 4 0.329823 0.419499 0.30742
1 1 0.293931 0.429944 0.330195
713 4 0.410102 0.445249 0.300671
433 2 0.350848 0.430215 0.315684
712 2 0.422283 0.442477 0.279012
714 4 0.434464 0.439705 0.257352
2860 2 0.494824 0.436337 0.256819
368 4 0.0799004 0.0566098 0.416605
428 4 0.0569795 0.0340751 0.34719
427 2 0.0665266 0.0137292 0.358147
731 4 0.0932584 0.0527126 0.402102
606 4 0.149377 0.0520227 0.381705
730 2 0.107091 0.0701078 0.390646
604 2 0.163994 0.0344614 0.371549
605 4 0.17861 0.0169001 0.361393
682 2 0.236516 0.0308437 0.352321
683 4 0.219876 0.049066 0.35635
684 4 0.253156 0.0126215 0.348292
247 2 0.338417 0.0687181 0.334826
1748 4 0.443661 0.988881 0.366408
2879 4 0.47298 0.0298052 0.423872
424 2 0.428534 0.0494047 0.383025
426 4 0.43448 0.07119 0.37229
425 4 0.422589 0.0276194 0.393759
2878 2 0.481551 0.051696 0.432388
732 4 0.120924 0.0875031 0.379191
397 2 0.126698 0.100347 0.347065
398 4 0.126188 0.0799454 0.361512
600 4 0.179398 0.11265 0.340269
686 4 0.159085 0.135746 0.40226
685 2 0.164335 0.129607 0.378597
687 4 0.169585 0.123467 0.354935
410 4 0.24305 0.159909 0.390268
321 4 0.241494 0.107355 0.359583
319 2 0.252525 0.104709 0.381865
320 4 0.263556 0.102064 0.404147
248 4 0.341275 0.0888694 0.34935
633 4 0.356876 0.101642 0.352497
632 4 0.395673 0.12957 0.367179
631 2 0.376274 0.115606 0.359838
420 4 0.392732 0.149107 0.371881
258 4 0.442888 0.0871273 0.36414
257 4 0.470929 0.127607 0.372847
256 2 0.456908 0.107367 0.368494
515 4 0.433413 0.156097 0.37411
514 2 0.444981 0.161521 0.395603
2654 4 0.997546 0.229894 0.377471
618 4 0.00767303 0.240565 0.363935
274 2 0.15581 0.237483 0.366648
275 4 0.170429 0.217653 0.362374
474 4 0.174005 0.201611 0.352739
472 2 0.197503 0.194664 0.347762
473 4 0.221001 0.187717 0.342785
708 4 0.230748 0.183649 0.359827
706 2 0.255421 0.179615 0.359447
707 4 0.280094 0.175581 0.359066
717 4 0.322916 0.227461 0.374865
377 4 0.323913 0.242923 0.388866
418 2 0.382326 0.171518 0.368057
419 4 0.371921 0.19393 0.364233
716 4 0.36043 0.195295 0.38253
715 2 0.341673 0.211378 0.378698
390 4 0.0796775 0.267747 0.352358
616 2 0.027088 0.254122 0.371964
617 4 0.046503 0.267678 0.379993
276 4 0.141192 0.257312 0.370922
389 4 0.127515 0.270807 0.366604
388 2 0.103596 0.269277 0.359481
487 2 0.234102 0.282374 0.403479
510 4 0.253339 0.324194 0.337073
508 2 0.253935 0.311081 0.358353
509 4 0.25453 0.297967 0.379633
376 2 0.309063 0.261562 0.3813
488 4 0.239009 0.302019 0.388811
378 4 0.294213 0.280201 0.373735
498 4 0.306465 0.285268 0.358418
267 4 0.351034 0.300098 0.354234
265 2 0.351529 0.299594 0.379228
266 4 0.352025 0.29909 0.404221
585 4 0.369155 0.290917 0.409326
270 4 0.504318 0.26812 0.392351
269 4 0.457679 0.279146 0.378072
268 2 0.480998 0.273633 0.385212
2493 4 0.0103334 0.360543 0.328247
549 4 0.0713136 0.383579 0.357638
547 2 0.0684226 0.406133 0.368036
603 4 0.0827634 0.371383 0.348171
709 2 0.144512 0.406417 0.414761
374 4 0.253358 0.344055 0.332827
678 4 0.174578 0.382456 0.339693
502 2 0.194987 0.393405 0.370532
504 4 0.204333 0.375585 0.355691
373 2 0.232923 0.358257 0.335263
375 4 0.212489 0.372459 0.337698
503 4 0.185641 0.411225 0.385374
334 2 0.357877 0.398763 0.411877
336 4 0.349079 0.400589 0.388544
2925 4 0.49722 0.364157 0.365287
681 4 0.00304298 0.518671 0.401305
2463 4 0.99579 0.481548 0.362154
548 4 0.0655316 0.428688 0.378434
407 4 0.0485228 0.436783 0.385307
406 2 0.0408493 0.458822 0.394283
408 4 0.0331757 0.480861 0.40326
710 4 0.136205 0.426807 0.402912
1543 2 0.195714 0.508547 0.342476
636 4 0.201066 0.419867 0.393863
634 2 0.196454 0.434776 0.413398
668 4 0.29344 0.428121 0.372853
4 3 0.295241 0.432753 0.353191
667 2 0.316098 0.423537 0.382381
435 4 0.371874 0.44093 0.323948
669 4 0.338756 0.418952 0.391909
593 4 0.491207 0.492928 0.338378
561 4 0.486231 0.424271 0.397264
752 4 0.480945 0.429805 0.378858
753 4 0.485046 0.4385 0.329784
751 2 0.482995 0.434152 0.354321
718 2 0.045838 0.0480519 0.481463
719 4 0.062748 0.0313058 0.473795
369 4 0.0770966 0.0317226 0.459888
367 2 0.0784985 0.0441662 0.438247
720 4 0.028928 0.0647979 0.489131
2430 4 0.234187 0.0690006 0.460797
2428 2 0.231723 0.0454466 0.452777
2429 4 0.229259 0.0218927 0.444757
441 4 0.246328 0.0156805 0.436184
341 4 0.229637 0.0854929 0.450519
726 4 0.292442 0.0767485 0.462468
432 4 0.311633 0.0747617 0.464013
430 2 0.32716 0.0713293 0.483308
2880 4 0.490122 0.0735867 0.440903
642 4 0.482286 0.0844738 0.455456
340 2 0.212254 0.0961338 0.465003
1152 4 0.191147 0.110599 0.500716
342 4 0.194871 0.106775 0.479486
724 2 0.281729 0.0847691 0.441347
725 4 0.271016 0.0927896 0.420226
467 4 0.364322 0.0972286 0.444975
466 2 0.367864 0.120814 0.437467
468 4 0.371407 0.144399 0.429959
576 4 0.428197 0.131467 0.465828
641 4 0.509714 0.115643 0.483329
640 2 0.496 0.100058 0.469392
3158 4 0.506382 0.134626 0.480435
574 2 0.435071 0.147154 0.447611
575 4 0.441944 0.162841 0.429394
469 2 0.0676193 0.238807 0.459922
471 4 0.0805135 0.221317 0.472292
260 4 0.0828356 0.201357 0.471311
259 2 0.0963765 0.193035 0.490613
409 2 0.238787 0.168648 0.413304
650 4 0.231979 0.197137 0.438092
649 2 0.227763 0.220552 0.4304
411 4 0.234524 0.177387 0.436339
516 4 0.456549 0.166944 0.417096
470 4 0.0547251 0.256297 0.447552
2812 2 0.00178325 0.321143 0.476837
695 4 0.0962491 0.313712 0.444866
694 2 0.111659 0.296645 0.454685
696 4 0.127069 0.279577 0.464504
1260 4 0.138758 0.285228 0.479784
1258 2 0.163581 0.282306 0.479123
651 4 0.223547 0.243967 0.422709
1259 4 0.188405 0.279384 0.478461
489 4 0.229194 0.262728 0.418147
583 2 0.389571 0.284423 0.422219
584 4 0.409986 0.277929 0.435111
2456 4 0.427036 0.286339 0.425329
2457 4 0.451429 0.329843 0.42894
2455 2 0.439232 0.308091 0.427134
326 4 0.0591003 0.39822 0.456897
10 3 0.138144 0.342981 0.458989
7 3 0.124633 0.377434 0.463821
327 4 0.106645 0.382739 0.457612
325 2 0.0828728 0.39048 0.457254
6 1 0.141783 0.365062 0.454766
8 3 0.142409 0.368745 0.431865
711 4 0.152819 0.386026 0.426611
9 3 0.161786 0.371777 0.46442
239 4 0.378126 0.348114 0.475612
335 4 0.366675 0.396937 0.43521
238 2 0.367215 0.364878 0.460608
240 4 0.356303 0.381641 0.445604
2508 4 0.509361 0.384327 0.443143
2712 4 0.491116 0.415182 0.503468
559 2 0.498066 0.413362 0.416398
680 4 0.018891 0.485282 0.43499
679 2 0.010967 0.501976 0.418148
1383 4 0.00631937 0.472168 0.441585
1381 2 0.0204893 0.461193 0.459019
1382 4 0.0346593 0.450218 0.476453
570 4 0.13145 0.444434 0.411788
384 4 0.143232 0.4788 0.478727
569 4 0.108806 0.459733 0.453668
568 2 0.120128 0.452083 0.432728
773 4 0.161111 0.482861 0.467699
382 2 0.144985 0.459016 0.493915
635 4 0.191843 0.449685 0.432933
772 2 0.175097 0.475394 0.448365
774 4 0.189083 0.467927 0.429031
1399 2 0.316124 0.469759 0.490603
1401 4 0.296419 0.455064 0.495177
588 4 0.344795 0.497047 0.471823
1400 4 0.335829 0.484455 0.486029
1126 2 0.0185951 0.0547784 0.528763
1127 4 0.0174148 0.0629858 0.505174
1128 4 0.0197754 0.046571 0.552352
4509 4 0.00218004 0.0492857 0.561181
951 4 0.202352 0.054257 0.53801
1031 4 0.198614 0.0344554 0.537369
1030 2 0.184174 0.0274075 0.556526
949 2 0.218692 0.0656264 0.52288
1032 4 0.169733 0.0203596 0.575682
950 4 0.235032 0.0769958 0.507749
961 2 0.287079 0.0412718 0.551578
1180 2 0.276224 0.0777366 0.511619
963 4 0.293477 0.055255 0.531862
1181 4 0.298725 0.0688345 0.517915
962 4 0.280681 0.0272886 0.571294
2195 4 0.292678 0.0122354 0.57887
431 4 0.342688 0.0678969 0.502603
841 2 0.371257 0.0473461 0.528691
843 4 0.351257 0.0557186 0.516239
842 4 0.391258 0.0389737 0.541144
1217 4 0.410078 0.0407411 0.536491
1218 4 0.437759 0.0732345 0.562542
1216 2 0.423919 0.0569878 0.549517
1033 2 0.0696461 0.16454 0.527818
1034 4 0.0864414 0.146103 0.526037
1151 4 0.182025 0.152455 0.526514
1150 2 0.186586 0.131527 0.513615
1182 4 0.253723 0.0866388 0.505323
857 4 0.302478 0.133333 0.561728
899 4 0.320547 0.135293 0.572375
856 2 0.284161 0.148769 0.568896
858 4 0.265844 0.164206 0.576064
898 2 0.339627 0.146528 0.56076
900 4 0.358707 0.157764 0.549145
1035 4 0.0528507 0.182977 0.5296
1082 4 0.0500478 0.202182 0.536738
1081 2 0.0403576 0.200971 0.559756
1083 4 0.0306674 0.199761 0.582774
939 4 0.163328 0.156442 0.517733
937 2 0.139459 0.160818 0.511711
938 4 0.115589 0.165194 0.505688
878 4 0.102532 0.256365 0.551543
877 2 0.0966166 0.248524 0.574537
261 4 0.109917 0.184713 0.509916
797 4 0.260732 0.182102 0.569436
813 4 0.334139 0.232065 0.538868
811 2 0.312347 0.23786 0.549671
812 4 0.290555 0.243655 0.560474
796 2 0.268956 0.205393 0.565551
798 4 0.277179 0.228684 0.561667
873 4 0.345144 0.217019 0.530654
871 2 0.356627 0.195745 0.537037
872 4 0.368109 0.174471 0.54342
906 4 0.476725 0.226686 0.5695
2813 4 0.00561336 0.318097 0.501358
896 4 0.200402 0.330326 0.520398
1191 4 0.220078 0.333827 0.52546
904 2 0.462966 0.247044 0.56487
905 4 0.449207 0.267402 0.560241
952 2 0.417142 0.287597 0.568919
953 4 0.429349 0.268575 0.558226
1137 4 0.159365 0.370917 0.553054
897 4 0.173217 0.35542 0.554043
1135 2 0.139787 0.385744 0.548359
1136 4 0.120208 0.40057 0.543664
895 2 0.186809 0.342873 0.537221
1189 2 0.239903 0.349061 0.525692
1239 4 0.214602 0.332179 0.591553
1190 4 0.259729 0.364296 0.525924
803 4 0.278366 0.370762 0.521421
802 2 0.30182 0.371856 0.530017
804 4 0.325275 0.37295 0.538612
928 2 0.369419 0.382844 0.556134
929 4 0.371018 0.392947 0.533319
930 4 0.36782 0.372741 0.57895
925 2 0.454339 0.38838 0.535157
927 4 0.444194 0.388961 0.512312
1001 4 0.448347 0.398896 0.566904
926 4 0.464485 0.387798 0.558002
936 4 0.00403112 0.450155 0.536138
538 2 0.047402 0.469532 0.507388
540 4 0.0356583 0.450083 0.496949
539 4 0.0591456 0.488982 0.517827
1938 4 0.07045 0.500374 0.505718
383 4 0.146739 0.439232 0.509104
2242 2 0.156855 0.461019 0.572445
2244 4 0.151739 0.461808 0.547984
1173 4 0.229411 0.433614 0.55812
1171 2 0.24939 0.448069 0.553987
1172 4 0.269369 0.462524 0.549854
882 4 0.289564 0.459509 0.552833
880 2 0.295337 0.482036 0.543648
1000 2 0.446788 0.417487 0.583551
1185 4 0.0202093 0.031723 0.643141
945 4 0.0330526 0.0484999 0.649373
825 4 0.0767114 0.026386 0.627289
1057 2 0.0727769 0.0489677 0.59383
1058 4 0.0764967 0.0278399 0.606674
1155 4 0.0759538 0.0888061 0.578558
943 2 0.0506684 0.0551016 0.665844
1059 4 0.0690571 0.0700955 0.580986
1005 4 0.304304 0.027751 0.65545
1003 2 0.320735 0.0465931 0.655882
1004 4 0.337165 0.0654353 0.656314
4467 4 0.435868 0.991264 0.600523
2283 4 0.430263 0.0108693 0.602023
2282 4 0.445811 0.027828 0.646423
2281 2 0.438037 0.0193486 0.624223
43 3 0.45993 0.0346375 0.659307
45 3 0.492704 0.0512014 0.650992
41 1 0.475383 0.0506953 0.665769
808 2 0.507079 0.0750064 0.616865
1198 2 0.014495 0.1608 0.587837
1200 4 0.00319241 0.139095 0.58271
1153 2 0.0984873 0.0988113 0.582719
1154 4 0.121021 0.108817 0.58688
1221 4 0.127326 0.111769 0.605615
1219 2 0.13308 0.111281 0.629942
1220 4 0.138834 0.110792 0.65427
1283 4 0.159015 0.108094 0.651925
1212 4 0.228177 0.143249 0.636815
1210 2 0.250984 0.14516 0.646884
1211 4 0.27379 0.147072 0.656952
809 4 0.510159 0.0878054 0.595607
1199 4 0.0257977 0.182506 0.592964
879 4 0.0907013 0.240684 0.59753
1272 4 0.0895404 0.236961 0.615922
1270 2 0.105081 0.218479 0.622411
1271 4 0.120622 0.199998 0.6289
909 4 0.136687 0.208839 0.623838
907 2 0.157003 0.22134 0.631331
908 4 0.17732 0.23384 0.638824
947 4 0.166467 0.250654 0.637531
1025 4 0.400714 0.210135 0.648008
1143 4 0.387909 0.199063 0.659703
1141 2 0.365702 0.192477 0.669116
1024 2 0.417901 0.203742 0.631011
1026 4 0.435088 0.197348 0.614013
3123 4 0.449291 0.23215 0.660331
3121 2 0.472697 0.224084 0.663839
946 2 0.171925 0.274616 0.642137
948 4 0.177384 0.298578 0.646744
1237 2 0.235573 0.318569 0.591992
1238 4 0.256543 0.304959 0.592431
792 4 0.264285 0.300807 0.610594
791 4 0.312637 0.290687 0.602829
790 2 0.288461 0.295747 0.606712
1205 4 0.402108 0.318546 0.596712
954 4 0.404936 0.306619 0.579613
3113 4 0.496968 0.321785 0.667898
982 2 0.00940641 0.384904 0.610905
983 4 0.0263474 0.394199 0.626773
1041 4 0.0326761 0.411207 0.634748
1039 2 0.0558658 0.41812 0.628453
893 4 0.0901738 0.388802 0.661541
992 4 0.136097 0.401227 0.614322
991 2 0.117196 0.416064 0.621238
1204 2 0.39253 0.339085 0.586148
1206 4 0.382951 0.359623 0.575583
1040 4 0.0790555 0.425033 0.622159
993 4 0.0982957 0.4309 0.628154
2170 2 0.151167 0.49156 0.647061
2243 4 0.161971 0.460229 0.596907
2171 4 0.133553 0.509302 0.646681
2172 4 0.168781 0.473818 0.64744
1161 4 0.181398 0.454554 0.59313
1160 4 0.216248 0.441224 0.626424
1159 2 0.198823 0.447889 0.609777
890 4 0.320962 0.433386 0.640587
889 2 0.322401 0.453832 0.626267
891 4 0.323839 0.474278 0.611946
1187 4 0.312041 0.487171 0.621339
1952 4 0.355527 0.47561 0.616291
1910 4 0.45033 0.452742 0.609928
1002 4 0.445229 0.436078 0.600198
1909 2 0.434668 0.470365 0.601602
1268 4 0.441056 0.497522 0.657812
1911 4 0.419007 0.487988 0.593276
3330 4 0.493388 0.419378 0.664891
944 4 0.0682843 0.0617032 0.682314
1075 2 0.0610187 0.0605447 0.725114
1076 4 0.0599938 0.0632078 0.700273
2319 4 0.0366799 0.0186274 0.728085
2317 2 0.0123717 0.0178125 0.733883
2285 4 0.055415 0.0118248 0.725719
1077 4 0.0620436 0.0578815 0.749954
44 3 0.465214 0.0715279 0.666764
42 3 0.483395 0.0453266 0.686653
1282 2 0.175189 0.118772 0.667721
1284 4 0.191363 0.129451 0.683518
1227 4 0.211224 0.132416 0.68302
1225 2 0.22267 0.143075 0.702528
1226 4 0.234117 0.153734 0.722036
888 4 0.271607 0.145446 0.677286
886 2 0.286035 0.132404 0.693
887 4 0.300463 0.119362 0.708714
830 4 0.311533 0.137427 0.733652
829 2 0.321657 0.114748 0.736541
978 4 0.308724 0.151255 0.74698
831 4 0.331781 0.0920694 0.739431
1107 4 0.0125336 0.17906 0.734464
851 4 0.00203658 0.193404 0.725065
822 4 0.143796 0.222721 0.704488
1278 4 0.157869 0.231601 0.715425
820 2 0.120368 0.231406 0.70356
1276 2 0.179532 0.22845 0.727507
1130 4 0.240003 0.168452 0.736373
1277 4 0.201194 0.225299 0.73959
1129 2 0.224603 0.187831 0.739903
916 2 0.291154 0.226077 0.731087
918 4 0.287872 0.201595 0.72721
977 4 0.306628 0.199581 0.734295
976 2 0.307676 0.175418 0.740637
1142 4 0.343494 0.185891 0.67853
1192 2 0.387542 0.223534 0.749383
1194 4 0.40486 0.20779 0.740587
1144 2 0.484823 0.170804 0.738858
1145 4 0.474568 0.182192 0.719101
1262 4 0.417562 0.219611 0.726843
1261 2 0.436512 0.203456 0.724588
1263 4 0.455462 0.187301 0.722333
1243 2 0.0151229 0.305759 0.70062
1209 4 0.0391304 0.256967 0.675735
1207 2 0.059785 0.254314 0.689574
1244 4 0.0330139 0.322035 0.694281
821 4 0.0969398 0.240092 0.702631
1208 4 0.0804396 0.25166 0.703413
1065 4 0.202446 0.248272 0.708128
1064 4 0.222121 0.294226 0.709504
1063 2 0.212284 0.271249 0.708816
917 4 0.294437 0.25056 0.734965
1097 4 0.30547 0.265324 0.746665
1008 4 0.343089 0.255812 0.737099
806 4 0.44687 0.30574 0.736418
805 2 0.42768 0.321198 0.740654
892 2 0.0795344 0.396261 0.682903
894 4 0.068895 0.403721 0.704265
942 4 0.115641 0.411726 0.745428
940 2 0.137541 0.407019 0.734318
941 4 0.159441 0.402312 0.723209
1028 4 0.230891 0.431981 0.700342
1066 2 0.20184 0.411023 0.716232
1068 4 0.225448 0.419154 0.714913
807 4 0.408489 0.336657 0.744891
1230 4 0.369181 0.407088 0.747537
1020 4 0.405256 0.356397 0.745793
1281 4 0.0711814 0.422081 0.712635
1279 2 0.0700931 0.437946 0.731929
1983 4 0.0320396 0.48223 0.742845
2021 4 0.051236 0.478053 0.737885
1067 4 0.178232 0.402893 0.717551
1027 2 0.250688 0.427525 0.685734
1029 4 0.270485 0.423068 0.671126
1139 4 0.288823 0.416952 0.676389
1138 2 0.304424 0.421547 0.695381
1140 4 0.320025 0.426141 0.714372
1989 4 0.326898 0.458988 0.745204
1228 2 0.357238 0.429049 0.74705
1229 4 0.345295 0.451011 0.746563
1269 4 0.439753 0.498895 0.707783
3328 2 0.480279 0.440625 0.663518
3329 4 0.46717 0.461872 0.662145
1267 2 0.440405 0.498208 0.682797
1203 4 0.0624584 0.0484204 0.76805
1201 2 0.0804752 0.0321531 0.774046
1202 4 0.0984921 0.0158858 0.780041
2049 4 0.0954621 0.996215 0.7852
1148 4 0.199115 0.0529596 0.759473
1147 2 0.223001 0.0602829 0.760497
1149 4 0.246886 0.0676063 0.76152
1049 4 0.25175 0.072831 0.780163
1257 4 0.288481 0.0210696 0.773113
1255 2 0.302448 0.0130381 0.753993
1256 4 0.316416 0.00500654 0.734873
1048 2 0.264857 0.0590175 0.796368
1050 4 0.277963 0.0452039 0.812572
819 4 0.350001 0.0777527 0.819384
846 4 0.469609 0.0282145 0.799938
1113 4 0.460528 0.00998858 0.794397
844 2 0.483995 0.0486579 0.800471
845 4 0.498382 0.0691012 0.801004
862 2 0.0374497 0.0937068 0.832136
832 2 0.0336879 0.129979 0.785724
863 4 0.0259709 0.109275 0.816291
833 4 0.019168 0.113119 0.79713
33 3 0.066335 0.141352 0.779438
834 4 0.0482077 0.146839 0.774318
31 1 0.0804784 0.156417 0.768881
1106 4 0.050478 0.163167 0.762895
32 3 0.0919588 0.145435 0.752246
34 3 0.0957313 0.16498 0.784127
840 4 0.209875 0.13477 0.79505
838 2 0.232367 0.124171 0.797691
839 4 0.254858 0.113572 0.800333
959 4 0.259908 0.10049 0.814748
1084 2 0.364358 0.112277 0.800739
1085 4 0.348185 0.094851 0.808479
1086 4 0.380532 0.129704 0.792998
1299 4 0.385644 0.14697 0.785138
1297 2 0.383368 0.167265 0.799563
1146 4 0.495078 0.159416 0.758614
3270 4 0.482101 0.160319 0.773581
3268 2 0.489033 0.153885 0.796727
1105 2 0.0315058 0.171114 0.748679
1214 4 0.0361366 0.224801 0.797373
35 3 0.0683333 0.17335 0.759694
778 2 0.0723293 0.236256 0.808548
1213 2 0.0150519 0.238231 0.796888
779 4 0.0532765 0.250428 0.800717
780 4 0.0913821 0.222085 0.816379
1073 4 0.115516 0.170639 0.787752
1072 2 0.137415 0.177281 0.797826
1074 4 0.159314 0.183922 0.8079