ITEM: TIMESTEP
3240000
ITEM: NUMBER OF ATOMS
4590
ITEM: BOX BOUNDS pp pp pp
-9.9985700000000008e+00 9.9985700000000008e+00
-9.9985700000000008e+00 9.9985700000000008e+00
-9.9985700000000008e+00 9.9985700000000008e+00
ITEM: ATOMS id type xs ys zs
1666 2 0.0662093 0.0604718 0.0750295
701 4 0.0115447 0.0717774 0.00675545
1668 4 0.0823822 0.0543054 0.0569853
3290 4 0.0983958 0.0594503 0.0455973
3289 2 0.104059 0.0421108 0.0284961
3291 4 0.109721 0.0247713 0.0113948
566 4 0.128254 0.0182129 0.0114726
565 2 0.146676 0.00134478 0.012607
2183 4 0.0989537 0.0116814 0.999109
490 2 0.306406 0.0192996 0.0486095
491 4 0.323915 0.0318921 0.0359589
492 4 0.288897 0.00670716 0.0612601
700 2 0.0218207 0.0943189 0.00336943
702 4 0.0320966 0.11686 0.999983
460 2 0.285026 0.165643 0.066594
150 3 0.470563 0.111249 0.00406666
423 4 0.0806436 0.17188 0.000279969
505 2 0.152731 0.245771 0.0476569
506 4 0.160193 0.222232 0.0515791
737 4 0.169301 0.20546 0.0526958
736 2 0.190079 0.191551 0.0527745
738 4 0.210856 0.177641 0.0528532
354 4 0.22219 0.177769 0.0345892
352 2 0.2462 0.184717 0.0339625
461 4 0.273564 0.180004 0.0496371
353 4 0.270211 0.191665 0.0333358
665 4 0.35325 0.179086 0.0223059
664 2 0.334481 0.174694 0.00638021
3339 4 0.0288084 0.302862 0.00816864
2807 4 0.0227604 0.287739 0.0181559
2806 2 0.0135315 0.269792 0.0329178
915 4 0.124646 0.256301 0.009536
293 4 0.125577 0.270935 0.048582
507 4 0.145268 0.269311 0.0437348
287 4 0.156702 0.284827 0.0392642
286 2 0.158021 0.305944 0.0259418
292 2 0.112089 0.286449 0.0628147
288 4 0.159341 0.327062 0.0126195
294 4 0.0986009 0.301963 0.0770473
456 4 0.102969 0.321543 0.0745305
356 4 0.237739 0.261005 0.0160276
483 4 0.244604 0.28015 0.00924894
612 4 0.259522 0.301495 0.0485873
610 2 0.254779 0.293472 0.0717891
609 4 0.275235 0.315571 0.0485306
482 4 0.294453 0.279606 0.00531176
481 2 0.269528 0.279878 0.00728035
571 2 0.330452 0.284658 0.000444794
572 4 0.307005 0.293263 0.999293
573 4 0.3539 0.276052 0.00159617
990 4 0.162347 0.344287 0.0222739
988 2 0.167918 0.368582 0.0242386
1289 4 0.187901 0.407465 0.0211552
989 4 0.173488 0.392878 0.0262033
1288 2 0.203748 0.40887 0.00186606
607 2 0.279144 0.340243 0.0474343
250 2 0.29573 0.396975 0.0592574
252 4 0.281623 0.3765 0.0618896
608 4 0.283053 0.364915 0.0463379
740 4 0.33547 0.346157 0.0731628
741 4 0.374314 0.327857 0.0475324
739 2 0.354892 0.337007 0.0603476
226 2 0.400593 0.411128 0.0285984
227 4 0.410761 0.395444 0.0119911
1305 4 0.415574 0.376792 0.00604244
1303 2 0.415237 0.353145 0.997926
1046 4 0.489443 0.357374 0.00217966
1045 2 0.496317 0.356945 0.026216
280 2 0.464161 0.362142 0.0712772
282 4 0.487282 0.354719 0.0653179
281 4 0.44104 0.369564 0.0772365
552 4 0.00661548 0.462817 0.0552226
550 2 0.00641424 0.481197 0.0382725
313 2 0.0260953 0.441883 0.0767648
314 4 0.0259086 0.462484 0.062597
1788 4 0.134349 0.500258 0.0420779
1786 2 0.156498 0.488659 0.0419214
1767 4 0.1174 0.490886 0.0492363
243 4 0.218796 0.43541 0.0611558
1440 4 0.217284 0.419363 0.0743619
241 2 0.202579 0.454434 0.0605982
242 4 0.186362 0.473457 0.0600406
1787 4 0.178648 0.477059 0.0417649
251 4 0.309837 0.417451 0.0566252
524 4 0.325957 0.430155 0.0621991
271 2 0.298709 0.485901 0.0614171
272 4 0.299396 0.462619 0.0705078
228 4 0.390424 0.426812 0.0452058
525 4 0.371057 0.431375 0.0406301
523 2 0.348507 0.430765 0.0514146
1583 4 0.469322 0.480234 0.0366139
1582 2 0.474208 0.487038 0.0601725
1667 4 0.0500364 0.0666382 0.0930736
16 1 0.0362935 0.0560722 0.123057
19 3 0.026062 0.0642833 0.142196
17 3 0.0377865 0.0730157 0.107571
20 3 0.0239553 0.0390222 0.114356
18 3 0.0576781 0.0486038 0.12809
2480 4 0.00923443 0.0691114 0.158551
1422 4 0.0175104 0.0480361 0.1541
652 2 0.268719 0.0681362 0.144896
654 4 0.275903 0.0503412 0.128867
1476 4 0.292095 0.0588914 0.120285
1474 2 0.304829 0.0684524 0.101008
486 4 0.34073 0.00423211 0.142744
297 4 0.371131 0.0544896 0.119236
295 2 0.394488 0.0625408 0.123086
484 2 0.355562 0.0196575 0.129812
485 4 0.370394 0.0350829 0.116879
296 4 0.417845 0.0705921 0.126936
747 4 0.508034 0.0149591 0.0859447
745 2 0.488507 0.028696 0.0933718
746 4 0.468979 0.0424328 0.100799
557 4 0.427963 0.0761083 0.110815
450 4 0.0827203 0.128098 0.0948221
236 4 0.139221 0.123351 0.125317
449 4 0.121359 0.115998 0.124171
448 2 0.10204 0.122048 0.109497
235 2 0.145577 0.133347 0.147336
237 4 0.151932 0.143343 0.169356
462 4 0.296488 0.151281 0.0835509
1475 4 0.317564 0.0780134 0.081731
29 3 0.252737 0.154632 0.121284
28 3 0.255067 0.129805 0.149965
580 2 0.31014 0.117821 0.137559
581 4 0.286718 0.124762 0.132231
30 3 0.286289 0.14497 0.135376
26 1 0.264422 0.148794 0.140461
27 3 0.263067 0.166102 0.155553
582 4 0.333562 0.110879 0.142888
758 4 0.353321 0.116423 0.140577
757 2 0.360078 0.106708 0.162603
556 2 0.444715 0.0914127 0.121319
558 4 0.461466 0.106717 0.131823
771 4 0.480584 0.107871 0.133792
769 2 0.478658 0.121381 0.154743
477 4 0.239951 0.167929 0.130501
371 4 0.190964 0.215401 0.141921
476 4 0.20942 0.206807 0.138054
475 2 0.224685 0.187368 0.134278
756 4 0.342756 0.228007 0.122201
754 2 0.342396 0.230247 0.147102
255 4 0.358668 0.239983 0.116515
253 2 0.382117 0.243061 0.108399
624 4 0.452611 0.229073 0.162613
629 4 0.450071 0.234857 0.143364
628 2 0.436306 0.244865 0.125046
338 4 0.079621 0.260781 0.1557
611 4 0.250037 0.285449 0.0949909
279 4 0.290391 0.284226 0.15261
277 2 0.276557 0.284262 0.131783
278 4 0.262722 0.284297 0.110955
285 4 0.277524 0.289765 0.166861
254 4 0.405566 0.246138 0.100283
630 4 0.422541 0.254872 0.106728
619 2 0.0368659 0.37101 0.138682
620 4 0.0391902 0.395379 0.133591
621 4 0.0345416 0.34664 0.143773
315 4 0.026282 0.421281 0.0909327
454 2 0.115024 0.339786 0.0866557
455 4 0.12708 0.358029 0.0987808
537 4 0.129679 0.398353 0.152629
535 2 0.133792 0.384943 0.13193
536 4 0.137904 0.371534 0.111231
625 2 0.211244 0.376913 0.150335
627 4 0.209694 0.397095 0.135656
626 4 0.212795 0.356732 0.165014
1439 4 0.210261 0.41231 0.123369
301 2 0.323232 0.411515 0.134235
386 4 0.33903 0.343599 0.0928505
302 4 0.337082 0.395932 0.120431
670 2 0.407407 0.358331 0.103032
385 2 0.335635 0.359407 0.111923
387 4 0.332241 0.375216 0.130995
12 3 0.381341 0.366199 0.135841
11 1 0.373213 0.386835 0.141945
15 3 0.351743 0.388901 0.134636
672 4 0.388339 0.357383 0.119177
13 3 0.373912 0.388632 0.165068
14 3 0.38647 0.403266 0.132318
671 4 0.426475 0.359279 0.0868862
1618 2 0.146421 0.504257 0.114144
1431 4 0.15059 0.483928 0.151645
1620 4 0.141923 0.489024 0.133455
1429 2 0.157023 0.463806 0.16502
1438 2 0.213773 0.415836 0.0988652
639 4 0.271337 0.478994 0.138553
638 4 0.290975 0.43482 0.15135
637 2 0.281156 0.456907 0.144952
303 4 0.309383 0.427097 0.14804
659 4 0.323887 0.434789 0.158327
1559 4 0.386796 0.500571 0.137265
495 4 0.39641 0.417359 0.120648
493 2 0.402423 0.441498 0.123166
494 4 0.408436 0.465637 0.125685
1584 4 0.479094 0.493842 0.0837311
688 2 0.157102 0.0409983 0.199018
690 4 0.146624 0.0634645 0.202283
674 4 0.154288 0.0775981 0.216049
689 4 0.16758 0.018532 0.195754
1506 4 0.231564 0.0225294 0.172792
1505 4 0.185685 0.0117562 0.18952
1504 2 0.208625 0.0171428 0.181156
722 4 0.182018 0.0558436 0.243094
653 4 0.261535 0.0859311 0.160924
22 3 0.391174 0.0649804 0.212979
698 4 0.406622 0.0687038 0.22601
697 2 0.404174 0.0476096 0.239209
351 4 0.490817 0.0439283 0.187803
349 2 0.486599 0.0648696 0.200797
742 2 0.492462 0.00850411 0.244321
511 2 0.00600346 0.124824 0.224781
513 4 0.0280686 0.128265 0.236026
578 4 0.0318224 0.148125 0.237736
2479 2 0.00640377 0.088291 0.174341
2481 4 0.0035731 0.107471 0.19013
673 2 0.143558 0.100177 0.216542
675 4 0.132827 0.122755 0.217036
546 4 0.119941 0.128268 0.230964
693 4 0.263256 0.0879859 0.181166
691 2 0.277403 0.0855641 0.20164
1701 4 0.311516 0.0869393 0.225618
692 4 0.29155 0.0831422 0.222114
1699 2 0.332391 0.0922777 0.212933
333 4 0.41497 0.0858189 0.219815
21 1 0.386703 0.0865121 0.20623
23 3 0.367168 0.093686 0.216492
25 3 0.38419 0.0869105 0.183598
1700 4 0.353266 0.097616 0.200247
759 4 0.366835 0.0969921 0.184629
24 3 0.404402 0.100157 0.212472
350 4 0.482381 0.0858108 0.213792
331 2 0.439675 0.0895671 0.220726
332 4 0.464379 0.0933154 0.221637
770 4 0.476732 0.134892 0.175694
312 4 0.478439 0.134616 0.195529
310 2 0.487545 0.138636 0.218466
311 4 0.49665 0.142656 0.241403
577 2 0.0316504 0.173106 0.238776
529 2 0.017865 0.230875 0.218467
530 4 0.0339955 0.214241 0.227863
579 4 0.0314784 0.198087 0.239817
362 4 0.166454 0.242574 0.184265
361 2 0.144959 0.252985 0.191665
370 2 0.1851 0.221185 0.165529
372 4 0.179236 0.226968 0.189137
755 4 0.342036 0.232487 0.172002
622 2 0.443044 0.243769 0.180436
531 4 0.00173445 0.247509 0.20907
339 4 0.0521248 0.279577 0.193001
704 4 0.0347071 0.28741 0.187042
337 2 0.0658729 0.270179 0.174351
703 2 0.0248126 0.310082 0.190684
443 4 0.0750366 0.254425 0.245984
363 4 0.123464 0.263396 0.199065
395 4 0.103527 0.270272 0.200815
394 2 0.0996199 0.265444 0.225035
283 2 0.275788 0.281758 0.190484
284 4 0.274051 0.27375 0.214107
528 4 0.420186 0.317408 0.20844
526 2 0.425963 0.295713 0.197434
623 4 0.433476 0.258465 0.19826
527 4 0.43174 0.274018 0.186429
2952 4 0.495972 0.318349 0.198351
2615 4 0.00772841 0.329862 0.212762
705 4 0.014918 0.332754 0.194326
648 4 0.0897204 0.381051 0.194789
647 4 0.131736 0.385196 0.167989
300 4 0.0891137 0.369389 0.212037
646 2 0.110728 0.383123 0.181389
298 2 0.093581 0.363763 0.235987
734 4 0.15098 0.373738 0.237349
289 2 0.220812 0.39906 0.248043
416 4 0.199734 0.413668 0.215387
290 4 0.201494 0.403613 0.232836
597 4 0.357461 0.397964 0.176123
345 4 0.349018 0.346822 0.21393
596 4 0.346021 0.366641 0.213388
645 4 0.378777 0.400025 0.183762
595 2 0.351741 0.382303 0.194756
343 2 0.348227 0.346458 0.238918
542 4 0.418172 0.33511 0.217535
541 2 0.423115 0.340154 0.24152
264 4 0.0200568 0.428557 0.225854
1430 4 0.163456 0.443683 0.178394
415 2 0.180953 0.427798 0.206857
417 4 0.162171 0.441928 0.198327
438 4 0.259204 0.467756 0.22488
436 2 0.266933 0.470413 0.24851
658 2 0.334988 0.446541 0.177401
643 2 0.392408 0.420531 0.188111
644 4 0.406038 0.441036 0.192459
660 4 0.346089 0.458294 0.196475
231 4 0.348302 0.47332 0.211564
447 4 0.41567 0.447549 0.209498
229 2 0.355686 0.492235 0.196975
445 2 0.418395 0.444568 0.234173
1403 4 0.0286442 0.0202648 0.266073
233 4 0.0320734 0.0288577 0.284458
232 2 0.0471701 0.0487893 0.284465
234 4 0.0622668 0.0687209 0.284472
317 4 0.0672865 0.0776301 0.302443
606 4 0.148321 0.0596896 0.343061
1405 2 0.20845 0.0220633 0.30117
1406 4 0.185876 0.0305344 0.307793
721 2 0.18357 0.0707616 0.2631
723 4 0.185121 0.0856796 0.283105
1407 4 0.231023 0.0135923 0.294548
699 4 0.401725 0.0265153 0.252409
1518 4 0.420096 0.0183617 0.251348
743 4 0.491978 0.0190648 0.26698
425 4 0.479081 0.0245723 0.282228
424 2 0.483959 0.0388341 0.302178
258 4 0.476018 0.067667 0.329804
426 4 0.488836 0.0530959 0.322128
1516 2 0.430583 0.00424189 0.26912
316 2 0.0729051 0.101561 0.297868
318 4 0.0785238 0.125491 0.293292
393 4 0.0959596 0.160012 0.329812
392 4 0.111831 0.161983 0.282432
544 2 0.110667 0.138792 0.251662
545 4 0.101392 0.149316 0.27236
391 2 0.103895 0.160997 0.306122
599 4 0.182659 0.0936851 0.30062
403 2 0.230995 0.150005 0.298912
598 2 0.189411 0.101762 0.323299
404 4 0.243666 0.128635 0.296093
521 4 0.490003 0.158278 0.252497
405 4 0.218324 0.171375 0.301732
401 4 0.218463 0.183851 0.287095
400 2 0.214691 0.201955 0.303923
402 4 0.210919 0.220059 0.320751
763 2 0.448731 0.211697 0.331249
764 4 0.435387 0.228078 0.317877
442 2 0.0664171 0.25441 0.269455
444 4 0.0577977 0.254395 0.292926
396 4 0.0957127 0.260616 0.249255
496 2 0.331966 0.255357 0.329722
497 4 0.306993 0.254496 0.328837
366 4 0.0433937 0.340811 0.306726
263 4 0.0487112 0.403465 0.258259
749 4 0.0630563 0.346314 0.306582
365 4 0.00209958 0.366694 0.317934
364 2 0.0227467 0.353752 0.31233
602 4 0.0837939 0.41792 0.311905
748 2 0.0710426 0.348531 0.282993
777 4 0.0792147 0.415026 0.292945
750 4 0.079029 0.350749 0.259403
299 4 0.0980483 0.358137 0.259936
735 4 0.158869 0.390025 0.283967
733 2 0.154924 0.381882 0.260658
677 4 0.160185 0.405834 0.29696
291 4 0.24013 0.394507 0.263251
414 4 0.241369 0.406777 0.278684
412 2 0.250515 0.409906 0.301744
413 4 0.25966 0.413035 0.324803
727 2 0.328036 0.412367 0.322594
344 4 0.347436 0.346095 0.263906
308 4 0.35872 0.390857 0.308937
729 4 0.340488 0.391485 0.316758
309 4 0.351673 0.365633 0.266336
307 2 0.355196 0.378245 0.287637
2924 4 0.49515 0.362308 0.333779
118 3 0.492074 0.377389 0.317768
543 4 0.428059 0.345198 0.265506
615 4 0.415387 0.349504 0.281003
614 4 0.435536 0.350266 0.326764
613 2 0.425461 0.349885 0.303884
2862 4 0.495512 0.40474 0.274667
120 3 0.481979 0.40458 0.29376
713 4 0.475775 0.407448 0.271373
116 1 0.493064 0.400105 0.313145
119 3 0.483666 0.412159 0.330603
262 2 0.034384 0.416011 0.242057
775 2 0.094671 0.430456 0.280772
1757 4 0.12687 0.455618 0.26602
776 4 0.110127 0.445887 0.268599
1756 2 0.134263 0.472213 0.283199
1758 4 0.141656 0.488808 0.300379
1775 4 0.139101 0.488999 0.320229
1544 4 0.200985 0.500121 0.333023
767 4 0.219449 0.486342 0.264474
676 2 0.172585 0.427512 0.295732
678 4 0.184984 0.44919 0.294503
768 4 0.188731 0.468039 0.299433
766 2 0.20409 0.47719 0.281953
437 4 0.274662 0.473069 0.272141
1437 4 0.293265 0.491012 0.305655
433 2 0.288249 0.450569 0.301834
435 4 0.27904 0.453552 0.27878
434 4 0.297458 0.447585 0.324887
446 4 0.42112 0.441588 0.258849
712 2 0.453831 0.419421 0.27191
714 4 0.431887 0.431394 0.272446
731 4 0.0752296 0.0580758 0.419338
730 2 0.0860511 0.0691027 0.399679
604 2 0.127997 0.0695835 0.353748
605 4 0.107673 0.0794774 0.364435
683 4 0.250238 0.0694404 0.36972
249 4 0.296813 0.0202605 0.360645
684 4 0.282317 0.0327089 0.358655
682 2 0.266277 0.0510746 0.364188
247 2 0.315488 0.0267076 0.375971
633 4 0.328968 0.0511529 0.391965
248 4 0.334162 0.0331546 0.391296
631 2 0.339538 0.0710984 0.402719
1747 2 0.484905 0.00115644 0.357277
1749 4 0.4949 0.0225211 0.365574
256 2 0.478921 0.0840833 0.348438
2586 4 0.0108533 0.128967 0.384804
2584 2 0.0109221 0.104917 0.39164
2585 4 0.0109908 0.0808656 0.398476
399 4 0.090134 0.165255 0.348936
732 4 0.0968727 0.0801295 0.38002
397 2 0.0998734 0.146715 0.362595
398 4 0.109613 0.128175 0.376255
600 4 0.196163 0.109839 0.345979
685 2 0.2166 0.130291 0.362992
687 4 0.211931 0.119956 0.340709
686 4 0.221268 0.140627 0.385276
410 4 0.238489 0.137241 0.395612
409 2 0.244005 0.159424 0.405743
321 4 0.258057 0.0848024 0.380433
319 2 0.255727 0.0975038 0.401844
419 4 0.375563 0.157088 0.364217
418 2 0.366088 0.146064 0.384561
420 4 0.356613 0.13504 0.404905
716 4 0.393721 0.164164 0.372622
632 4 0.350108 0.0910438 0.413472
762 4 0.459556 0.166515 0.376121
257 4 0.481825 0.1005 0.367073
760 2 0.467884 0.14327 0.372181
761 4 0.476212 0.120026 0.36824
515 4 0.468049 0.086402 0.420303
390 4 0.0809283 0.224209 0.408084
388 2 0.0952442 0.222445 0.387661
274 2 0.146467 0.218755 0.363829
276 4 0.124059 0.207693 0.364649
389 4 0.10956 0.220681 0.367237
473 4 0.232679 0.229857 0.353644
474 4 0.185696 0.218006 0.366011
472 2 0.209188 0.223931 0.359828
275 4 0.168875 0.229818 0.363008
708 4 0.252275 0.226304 0.354919
489 4 0.242894 0.245913 0.381109
707 4 0.285979 0.194931 0.335413
651 4 0.258877 0.236778 0.389022
649 2 0.261507 0.21586 0.402464
706 2 0.269127 0.210617 0.345166
650 4 0.264138 0.194942 0.415906
411 4 0.249521 0.181608 0.415874
377 4 0.406118 0.223072 0.3467
717 4 0.413882 0.205093 0.352151
715 2 0.403802 0.184628 0.362387
376 2 0.389486 0.241461 0.343477
765 4 0.462074 0.195317 0.344621
1258 2 0.128067 0.323394 0.383956
1259 4 0.145319 0.324784 0.365911
1260 4 0.110815 0.322005 0.402
696 4 0.0932882 0.317024 0.41221
509 4 0.232186 0.305815 0.362211
488 4 0.224795 0.292268 0.376169
508 2 0.240509 0.329093 0.365956
487 2 0.233844 0.26909 0.378639
498 4 0.356939 0.256219 0.330606
378 4 0.372853 0.259849 0.340253
267 4 0.372398 0.321754 0.34045
266 4 0.363621 0.293058 0.380453
585 4 0.364716 0.273446 0.383078
583 2 0.372645 0.26113 0.403343
265 2 0.368009 0.307406 0.360452
504 4 0.169957 0.403789 0.337308
510 4 0.248832 0.352371 0.3697
374 4 0.253171 0.362062 0.387079
373 2 0.257882 0.380674 0.37106
375 4 0.262593 0.399286 0.355042
3 3 0.282516 0.405422 0.355308
2923 2 0.472407 0.352136 0.335894
2925 4 0.449665 0.341964 0.338009
751 2 0.483173 0.404619 0.374478
753 4 0.480381 0.404465 0.349631
752 4 0.485964 0.404773 0.399324
601 2 0.0840702 0.424681 0.335976
3672 4 0.0471598 0.49664 0.351921
407 4 0.0141573 0.420318 0.419965
679 2 0.0381991 0.490364 0.393047
680 4 0.0513496 0.469505 0.388908
406 2 0.0293555 0.437843 0.410634
408 4 0.0445538 0.455368 0.401302
603 4 0.0843466 0.431442 0.360046
549 4 0.0906331 0.442757 0.374906
547 2 0.107658 0.449706 0.391848
548 4 0.124683 0.456655 0.408791
502 2 0.174806 0.419325 0.35629
503 4 0.179654 0.434861 0.375272
634 2 0.191372 0.477971 0.362585
636 4 0.184182 0.455903 0.371886
635 4 0.198562 0.500038 0.353284
728 4 0.315584 0.433249 0.32843
2 3 0.300153 0.436863 0.344675
5 3 0.265369 0.430304 0.332846
1 1 0.279735 0.42792 0.350355
668 4 0.267983 0.456314 0.375455
4 3 0.271525 0.439161 0.368919
667 2 0.28278 0.475536 0.381517
669 4 0.297578 0.494757 0.387578
2757 4 0.00666083 0.0781367 0.417535
368 4 0.0573915 0.0674112 0.419893
367 2 0.0463482 0.076479 0.440411
369 4 0.0353049 0.0855469 0.460929
341 4 0.15663 0.0749536 0.448321
2430 4 0.172746 0.0644237 0.442399
441 4 0.213453 0.0103757 0.4551
2428 2 0.188186 0.0448288 0.444081
2429 4 0.203626 0.0252339 0.445763
2879 4 0.446399 0.997245 0.438997
2878 2 0.464575 0.0114678 0.448615
2880 4 0.482752 0.0256905 0.458232
642 4 0.493467 0.0357678 0.44283
640 2 0.489263 0.0595635 0.436406
641 4 0.485058 0.0833593 0.429982
718 2 0.0402864 0.0922944 0.502337
719 4 0.045354 0.092685 0.477856
259 2 0.0634455 0.161533 0.495822
1152 4 0.140807 0.134701 0.479191
342 4 0.140355 0.11743 0.469096
340 2 0.148492 0.096192 0.458709
1150 2 0.158966 0.141437 0.495005
320 4 0.253397 0.110205 0.423255
725 4 0.261646 0.0927985 0.430304
724 2 0.269189 0.0935324 0.454132
726 4 0.276732 0.0942663 0.477959
432 4 0.262648 0.0980613 0.491402
468 4 0.360387 0.0834619 0.428478
467 4 0.389994 0.110933 0.457965
466 2 0.37519 0.0971974 0.443222
574 2 0.416342 0.134152 0.450808
576 4 0.398079 0.127145 0.466381
3158 4 0.496162 0.0986997 0.427191
575 4 0.434605 0.141159 0.435234
516 4 0.436751 0.125385 0.421508
514 2 0.4524 0.105893 0.420905
260 4 0.06783 0.176315 0.476138
471 4 0.0683336 0.191446 0.462343
469 2 0.0740175 0.209515 0.446021
470 4 0.0797013 0.227583 0.429699
2455 2 0.405117 0.23359 0.448211
2457 4 0.422588 0.216412 0.453197
616 2 0.0201682 0.261919 0.43689
617 4 0.0442518 0.256397 0.440721
695 4 0.0771116 0.279488 0.441021
694 2 0.0851999 0.298256 0.426616
878 4 0.0913439 0.251111 0.483633
2456 4 0.387646 0.250768 0.443225
584 4 0.380574 0.248814 0.423607
304 2 0.497291 0.277478 0.419975
1010 4 0.440908 0.326953 0.463583
1009 2 0.453671 0.306821 0.456034
1011 4 0.466435 0.28669 0.448486
305 4 0.483958 0.282545 0.440512
709 2 0.126404 0.402525 0.486289
326 4 0.101214 0.350298 0.429011
325 2 0.123683 0.355204 0.438822
327 4 0.146152 0.36011 0.448633
8 3 0.152981 0.379391 0.492446
7 3 0.160752 0.360481 0.460908
6 1 0.166125 0.362672 0.483167
9 3 0.16203 0.342507 0.493892
1191 4 0.208231 0.364434 0.493153
1189 2 0.23214 0.359716 0.48756
10 3 0.188148 0.368149 0.485064
1190 4 0.256049 0.354998 0.481968
803 4 0.269047 0.369205 0.490501
335 4 0.37482 0.407805 0.460996
238 2 0.362179 0.390715 0.491278
240 4 0.357856 0.399014 0.468092
561 4 0.494159 0.412345 0.41616
2507 4 0.450063 0.344758 0.465273
560 4 0.493422 0.39417 0.462741
559 2 0.49379 0.403258 0.439451
2506 2 0.469991 0.359818 0.464158
2508 4 0.489919 0.374878 0.463043
540 4 0.047832 0.467227 0.483418
1381 2 0.0179471 0.458312 0.462226
1382 4 0.0367944 0.473702 0.467978
569 4 0.124955 0.453129 0.428165
710 4 0.108519 0.410273 0.470627
570 4 0.10775 0.430938 0.469544
568 2 0.116352 0.442033 0.448854
1393 2 0.218128 0.491273 0.468197
1394 4 0.227499 0.483121 0.489898
1446 4 0.248108 0.483679 0.488777
588 4 0.317837 0.499026 0.450768
1400 4 0.307955 0.48105 0.449052
1401 4 0.325885 0.435105 0.440787
1399 2 0.31692 0.458077 0.444919
1444 2 0.270033 0.480819 0.50045
334 2 0.359149 0.420392 0.446125
336 4 0.343477 0.432979 0.431255
1126 2 0.00283736 0.0692385 0.54358
720 4 0.0352189 0.0919038 0.526819
949 2 0.195325 0.0805654 0.555789
1182 4 0.221211 0.0622074 0.565856
1180 2 0.242648 0.0493946 0.567072
950 4 0.209175 0.0748311 0.575801
963 4 0.259619 0.0200232 0.558167
1181 4 0.264084 0.0365819 0.568289
961 2 0.277136 0.0059663 0.569154
1216 2 0.374028 0.0645366 0.519317
1218 4 0.382219 0.0441195 0.507433
4467 4 0.446406 0.996954 0.561751
1127 4 0.0169595 0.0832409 0.528424
1033 2 0.0646331 0.132906 0.557879
1034 4 0.0632323 0.139376 0.533767
261 4 0.0590611 0.146751 0.515505
1035 4 0.0660339 0.126437 0.58199
1030 2 0.1399 0.0932032 0.545665
1032 4 0.117949 0.10104 0.554716
1154 4 0.112776 0.0930956 0.574462
1031 4 0.161851 0.0853662 0.536614
951 4 0.181474 0.0862997 0.535778
1151 4 0.177125 0.148173 0.510818
939 4 0.182244 0.15107 0.529699
937 2 0.182971 0.158027 0.553704
938 4 0.183698 0.164983 0.57771
843 4 0.302327 0.10248 0.545599
431 4 0.284318 0.103268 0.536168
430 2 0.273483 0.100665 0.513785
841 2 0.326716 0.0970861 0.544485
1217 4 0.365838 0.0849537 0.531202
842 4 0.351106 0.0916927 0.543372
857 4 0.365872 0.157357 0.57555
899 4 0.376004 0.150738 0.559847
1272 4 0.102866 0.241325 0.540033
1270 2 0.116553 0.232155 0.558841
1271 4 0.13024 0.222984 0.57765
879 4 0.109683 0.257282 0.529745
898 2 0.385092 0.171612 0.54951
900 4 0.39418 0.192487 0.539173
872 4 0.404403 0.207885 0.533218
873 4 0.392797 0.242807 0.567077
871 2 0.3986 0.225346 0.550147
813 4 0.375685 0.237177 0.574303
877 2 0.100514 0.254197 0.506689
1204 2 0.385888 0.30662 0.577022
1206 4 0.364021 0.318165 0.57332
930 4 0.34414 0.326262 0.570975
954 4 0.428168 0.293223 0.575987
952 2 0.44833 0.279555 0.581634
905 4 0.484321 0.262007 0.573268
983 4 0.058992 0.385376 0.569992
982 2 0.0345669 0.386121 0.575287
1041 4 0.0681589 0.403298 0.574663
711 4 0.144288 0.394776 0.50195
896 4 0.191224 0.372569 0.506771
897 4 0.209324 0.369155 0.553262
895 2 0.200274 0.370862 0.530016
1137 4 0.205011 0.38684 0.560822
1135 2 0.192891 0.391812 0.582118
802 2 0.283363 0.364653 0.510489
804 4 0.297679 0.360102 0.530477
929 4 0.310246 0.350922 0.543702
928 2 0.327193 0.338592 0.557338
239 4 0.366502 0.382415 0.514465
1001 4 0.45719 0.374993 0.547067
926 4 0.472885 0.374176 0.532517
925 2 0.49317 0.365231 0.520957
1000 2 0.447565 0.385382 0.567672
1002 4 0.437939 0.395772 0.588278
1936 2 0.0481181 0.474974 0.564151
1937 4 0.0631188 0.479663 0.544704
539 4 0.0471336 0.478114 0.532221
538 2 0.0474828 0.472671 0.50782
2243 4 0.156195 0.49144 0.578216
1171 2 0.242312 0.456236 0.571405
1173 4 0.218132 0.45313 0.565853
1160 4 0.211551 0.464014 0.581646
882 4 0.284836 0.458668 0.570248
880 2 0.294919 0.467703 0.549227
881 4 0.305001 0.476738 0.528206
1445 4 0.291959 0.477959 0.512123
1172 4 0.266493 0.459342 0.576957
1455 4 0.351578 0.493264 0.548409
1953 4 0.352181 0.482684 0.567242
1185 4 0.0167312 0.0418153 0.631337
945 4 0.0252192 0.0503862 0.648048
1058 4 0.0934894 0.0226432 0.651818
1057 2 0.101092 0.043717 0.640715
1155 4 0.096345 0.0687653 0.614943
1059 4 0.108695 0.0647908 0.629613
825 4 0.109595 0.0182589 0.664175
2282 4 0.483454 0.0310979 0.608048
2281 2 0.470764 0.0161425 0.59254
43 3 0.479404 0.0500306 0.602561
41 1 0.485872 0.0695183 0.613368
44 3 0.469028 0.0766144 0.627661
42 3 0.504798 0.0652389 0.625724
1163 4 0.504496 0.0724417 0.643376
1082 4 0.0568393 0.138564 0.595987
1081 2 0.0363925 0.149314 0.605555
1083 4 0.0159458 0.160063 0.615123
1153 2 0.104561 0.0809305 0.594702
1221 4 0.128737 0.102251 0.654516
1219 2 0.153404 0.104148 0.650895
1220 4 0.178071 0.106046 0.647274
1212 4 0.198372 0.106063 0.643696
1210 2 0.22092 0.115668 0.648647
1211 4 0.243468 0.125273 0.653598
1005 4 0.320296 0.0801157 0.61608
1004 4 0.306256 0.0945977 0.661839
1003 2 0.313276 0.0873567 0.63896
858 4 0.32611 0.160474 0.605716
888 4 0.252007 0.138402 0.665651
886 2 0.272691 0.124354 0.665627
856 2 0.345991 0.158915 0.590633
1142 4 0.36072 0.09627 0.661156
1025 4 0.396662 0.148219 0.669545
1024 2 0.392489 0.163198 0.649965
45 3 0.490422 0.0857513 0.598056
909 4 0.147912 0.215734 0.58046
907 2 0.166731 0.228502 0.590854
947 4 0.178794 0.245109 0.618885
908 4 0.185549 0.24127 0.601247
798 4 0.315885 0.222161 0.604563
796 2 0.317738 0.198218 0.611526
797 4 0.319592 0.174275 0.61849
811 2 0.354954 0.231308 0.58699
812 4 0.334223 0.22544 0.599677
1026 4 0.388316 0.178177 0.630384
3122 4 0.502633 0.232786 0.660335
946 2 0.18928 0.260312 0.635741
948 4 0.199767 0.275514 0.652596
1065 4 0.209886 0.290854 0.661594
1239 4 0.273109 0.291076 0.581735
1237 2 0.294713 0.283167 0.591528
1238 4 0.316316 0.275258 0.60132
1205 4 0.407756 0.295075 0.580723
790 2 0.336626 0.29722 0.631788
791 4 0.340417 0.313723 0.650185
792 4 0.332834 0.280717 0.613391
953 4 0.468491 0.265887 0.587281
904 2 0.4963 0.251823 0.59271
984 4 0.0101417 0.386867 0.580582
1281 4 0.0661748 0.352096 0.660874
894 4 0.0856535 0.353481 0.663254
1039 2 0.0877042 0.409573 0.588938
1040 4 0.10725 0.415848 0.603214
991 2 0.14256 0.411294 0.603092
992 4 0.161752 0.395829 0.607296
1136 4 0.18077 0.396783 0.603415
1029 4 0.258234 0.407645 0.664645
1139 4 0.277553 0.408881 0.66468
1910 4 0.447694 0.407388 0.600636
1909 2 0.444102 0.416557 0.623619
1938 4 0.0331175 0.470284 0.583597
936 4 0.0241332 0.48494 0.594045
2022 4 0.0530448 0.462545 0.653946
993 4 0.123367 0.426759 0.598888
1161 4 0.168429 0.486989 0.592295
1159 2 0.18999 0.475502 0.58697
889 2 0.37153 0.494004 0.647751
1269 4 0.392951 0.468757 0.658369
1267 2 0.410777 0.454041 0.648837
891 4 0.355196 0.501973 0.63058
1911 4 0.44051 0.425727 0.646602
1268 4 0.428602 0.439325 0.639304
943 2 0.0370571 0.0618293 0.666866
1076 4 0.0660461 0.0743646 0.695311
944 4 0.0488949 0.0732725 0.685683
1075 2 0.0788979 0.0719074 0.716617
2285 4 0.0143828 0.990522 0.704646
1077 4 0.0917498 0.0694503 0.737924
1283 4 0.146341 0.056807 0.705803
1282 2 0.160982 0.0666092 0.723544
1284 4 0.175622 0.0764113 0.741285
831 4 0.329461 0.0737044 0.695541
35 3 0.080826 0.165044 0.739612
32 3 0.10155 0.137349 0.725598
31 1 0.0949872 0.148009 0.744897
1227 4 0.190358 0.0878555 0.750215
887 4 0.293375 0.110306 0.665603
830 4 0.295009 0.101456 0.718857
829 2 0.312235 0.08758 0.707199
1141 2 0.379108 0.112259 0.666762
1143 4 0.397495 0.128249 0.672368
1105 2 0.0466579 0.176007 0.747534
851 4 0.0137148 0.183068 0.736446
1107 4 0.0282335 0.192883 0.746579
1208 4 0.0666993 0.237217 0.695135
821 4 0.0809704 0.240006 0.708927
822 4 0.123388 0.238077 0.735342
1278 4 0.137458 0.227916 0.745363
820 2 0.102179 0.239042 0.722135
1276 2 0.153658 0.209024 0.742943
1277 4 0.169857 0.190133 0.740522
977 4 0.299885 0.205661 0.724848
916 2 0.319677 0.23911 0.715583
918 4 0.314598 0.214633 0.715065
976 2 0.295754 0.202953 0.749359
3121 2 0.486896 0.244069 0.676153
3357 4 0.501139 0.217975 0.674854
1243 2 0.00220549 0.279861 0.702412
3188 4 0.0323872 0.255021 0.736604
1207 2 0.050977 0.252581 0.707049
1209 4 0.0352548 0.267944 0.718963
1244 4 0.026797 0.283497 0.705099
1063 2 0.232033 0.289388 0.673108
1242 4 0.231707 0.273292 0.742676
1240 2 0.252808 0.286243 0.739185
1064 4 0.254179 0.287922 0.684621
1241 4 0.27391 0.299195 0.735694
917 4 0.324755 0.263586 0.716101
1097 4 0.317096 0.272766 0.698588
1096 2 0.29539 0.281297 0.689572
1098 4 0.273685 0.289829 0.680557
1008 4 0.343528 0.261785 0.724569
1006 2 0.361946 0.267083 0.740628
3123 4 0.47116 0.255353 0.691972
1279 2 0.0553191 0.356073 0.683044
3275 4 0.0452881 0.365581 0.72527
1280 4 0.0444634 0.36005 0.705214
3274 2 0.0576441 0.381248 0.740338
893 4 0.126324 0.380881 0.673048
892 2 0.105989 0.367181 0.668151
940 2 0.158104 0.391035 0.732559
942 4 0.142987 0.400346 0.750164
1028 4 0.222504 0.372732 0.666933
1068 4 0.222363 0.359119 0.682937
1067 4 0.182815 0.363828 0.713178
1066 2 0.202589 0.361474 0.698057
941 4 0.173221 0.381724 0.714953
1027 2 0.240369 0.390189 0.665789
1229 4 0.364135 0.384733 0.681219
1228 2 0.372336 0.405023 0.693313
2021 4 0.0462197 0.485159 0.698023
1981 2 0.0196701 0.486208 0.730652
2020 2 0.0496323 0.473852 0.675984
1983 4 0.029033 0.48025 0.708246
2214 4 0.277281 0.499296 0.75095
1138 2 0.282801 0.432595 0.670619
1140 4 0.28805 0.456309 0.676558
1989 4 0.291518 0.462224 0.695791
1987 2 0.294444 0.463255 0.720601
1988 4 0.297371 0.464286 0.745412
890 4 0.387865 0.486036 0.664923
1230 4 0.380537 0.425312 0.705408
1100 4 0.439597 0.481589 0.741648
1099 2 0.441047 0.499822 0.7246
864 4 0.0764742 0.0753664 0.826815
2049 4 0.148029 0.0258077 0.74914
2047 2 0.164179 0.00749325 0.754519
1203 4 0.0914036 0.0636409 0.758048
1202 4 0.128729 0.0307675 0.752867
1201 2 0.110067 0.0472042 0.755457
911 4 0.0908247 0.0616026 0.829313
1147 2 0.214453 0.0508044 0.812439
1148 4 0.191934 0.0436488 0.820617
1149 4 0.236972 0.0579599 0.804262
1049 4 0.257036 0.0641512 0.800998
1048 2 0.273706 0.0568286 0.818134
818 4 0.352796 0.0673692 0.798205
965 4 0.362598 0.0625165 0.815347
975 4 0.394416 0.994657 0.817774
817 2 0.332783 0.0823531 0.798538
846 4 0.494272 0.00302479 0.762253
1106 4 0.0650822 0.159131 0.74849
862 2 0.0592064 0.0875439 0.813446
863 4 0.0419387 0.0997213 0.800078
832 2 0.0552904 0.131474 0.779433
833 4 0.042528 0.119104 0.797019
834 4 0.0680528 0.143844 0.761846
33 3 0.0842039 0.132717 0.758618
34 3 0.113791 0.15638 0.755608
1073 4 0.124212 0.155017 0.771931
1225 2 0.194482 0.104236 0.76865
1226 4 0.198605 0.120616 0.787086
840 4 0.21892 0.124431 0.790026
838 2 0.237045 0.141398 0.792984
839 4 0.255171 0.158365 0.795942
959 4 0.273084 0.15167 0.796694
819 4 0.312769 0.097337 0.79887
1085 4 0.317117 0.11321 0.81056
1084 2 0.325175 0.136553 0.814476
1086 4 0.333233 0.159897 0.818392
3268 2 0.502479 0.161037 0.79231
3270 4 0.485024 0.162918 0.774506
153 3 0.0024243 0.247874 0.811909