ITEM: TIMESTEP
2540000
ITEM: NUMBER OF ATOMS
4590
ITEM: BOX BOUNDS pp pp pp
-9.9985700000000008e+00 9.9985700000000008e+00
-9.9985700000000008e+00 9.9985700000000008e+00
-9.9985700000000008e+00 9.9985700000000008e+00
ITEM: ATOMS id type xs ys zs
463 2 0.0455826 0.0528137 0.027547
464 4 0.0500208 0.0306062 0.0381446
465 4 0.0411443 0.0750211 0.0169494
1668 4 0.0677538 0.0249502 0.048807
1666 2 0.0608241 0.0243706 0.0728241
3290 4 0.0851251 0.0292479 0.0397632
3289 2 0.0985778 0.0335682 0.0191347
565 2 0.144665 0.0349961 0.0495009
567 4 0.124457 0.0448978 0.0603975
566 4 0.164874 0.0250945 0.0386042
490 2 0.290367 0.989671 0.0459648
491 4 0.266699 0.993253 0.03874
297 4 0.357727 0.0298454 0.0789038
2144 4 0.344124 0.034779 0.0131748
2143 2 0.356276 0.0129375 0.0138609
295 2 0.379694 0.0406885 0.083908
296 4 0.401661 0.0515317 0.0889123
745 2 0.474534 0.058781 0.0483256
746 4 0.454462 0.0719881 0.0552434
747 4 0.494607 0.045574 0.0414078
701 4 0.0493551 0.0810192 0.000323191
555 4 0.0364984 0.144186 0.0218775
358 2 0.227414 0.163993 0.998029
462 4 0.32603 0.158874 0.065556
359 4 0.241562 0.149717 0.0129026
422 4 0.0763807 0.206169 0.0422168
421 2 0.0912183 0.197067 0.0242674
423 4 0.106056 0.187965 0.00631796
505 2 0.157186 0.24849 0.0707653
3234 4 0.123897 0.182071 0.00435613
737 4 0.182071 0.227893 0.0610747
736 2 0.20413 0.218869 0.0686359
738 4 0.226188 0.209846 0.0761972
352 2 0.252037 0.186384 0.0771954
506 4 0.17229 0.230054 0.0783251
354 4 0.237596 0.200027 0.0620128
665 4 0.333633 0.197109 0.0353945
664 2 0.331149 0.187973 0.0122526
1071 4 0.397205 0.247077 0.0188726
1069 2 0.411493 0.233835 0.00319875
828 4 0.505225 0.223687 0.0301415
826 2 0.48656 0.218005 0.0145043
324 4 0.463802 0.247957 0.0388718
2807 4 0.0344594 0.275671 0.0212811
2806 2 0.00948504 0.275232 0.0224072
294 4 0.104969 0.309949 0.0398202
292 2 0.1256 0.296729 0.044797
456 4 0.0996034 0.323949 0.0524987
293 4 0.146231 0.283509 0.0497739
507 4 0.142081 0.266926 0.0632055
739 2 0.313484 0.334186 0.0514251
741 4 0.304563 0.327205 0.0291349
611 4 0.266342 0.249291 0.0856228
573 4 0.384796 0.254687 0.00490405
254 4 0.384667 0.260369 0.0884464
630 4 0.402567 0.254625 0.0838971
956 4 0.336821 0.293457 0.99543
571 2 0.366584 0.271577 0.00777791
322 2 0.47505 0.247065 0.0611845
454 2 0.102572 0.345595 0.0646566
455 4 0.10554 0.367241 0.0768144
1223 4 0.128691 0.415481 0.996929
250 2 0.290168 0.380385 0.0695293
251 4 0.310309 0.393125 0.0619661
524 4 0.310096 0.397362 0.0421271
740 4 0.322405 0.341167 0.0737153
252 4 0.270027 0.367645 0.0770925
523 2 0.333976 0.404463 0.0442471
226 2 0.38661 0.385642 0.0343367
228 4 0.371569 0.397766 0.0502099
227 4 0.401652 0.373519 0.0184636
1305 4 0.41211 0.370643 0.0024511
525 4 0.357856 0.411564 0.046367
386 4 0.323499 0.352809 0.0893454
281 4 0.441045 0.361298 0.0709608
280 2 0.46571 0.3592 0.0744857
282 4 0.490375 0.357101 0.0780106
671 4 0.427033 0.374318 0.0756047
552 4 0.0322758 0.458577 0.0571837
314 4 0.0418077 0.440594 0.0570322
550 2 0.0177343 0.473137 0.0429814
551 4 0.0031927 0.487698 0.0287791
313 2 0.0435907 0.430241 0.0797217
243 4 0.222576 0.464418 0.0520655
1440 4 0.222391 0.460826 0.0714318
1290 4 0.218104 0.439002 0.0120484
241 2 0.210241 0.485098 0.0453312
245 4 0.230905 0.454491 0.00635658
1288 2 0.205807 0.417401 0.00933174
273 4 0.24987 0.507689 0.0447891
271 2 0.267049 0.498494 0.0604579
272 4 0.284227 0.489298 0.0761267
1583 4 0.452879 0.474418 0.0545725
1582 2 0.439037 0.480452 0.0745022
1667 4 0.0538944 0.0237911 0.0968412
16 1 0.0346251 0.0382228 0.123975
2480 4 0.00987911 0.0629643 0.141616
18 3 0.0502632 0.0548968 0.119996
19 3 0.0133 0.0473475 0.124594
2479 2 0.00994178 0.0832853 0.156184
17 3 0.0356408 0.0228462 0.106896
20 3 0.0392043 0.0278249 0.143712
450 4 0.143327 0.0773365 0.134093
652 2 0.250855 0.0431972 0.141896
653 4 0.239003 0.0485561 0.163249
654 4 0.262708 0.0378382 0.120542
1476 4 0.261681 0.0441941 0.101175
1474 2 0.270895 0.0221701 0.0937444
1475 4 0.28011 0.000146198 0.0863139
484 2 0.335132 0.00996548 0.110336
485 4 0.345478 0.025512 0.0937095
557 4 0.421554 0.0533015 0.0957697
556 2 0.41809 0.0720754 0.111916
558 4 0.414625 0.0908493 0.128063
2481 4 0.0100044 0.103606 0.170752
236 4 0.146433 0.141247 0.11674
449 4 0.135159 0.124705 0.120302
448 2 0.139243 0.101021 0.127197
235 2 0.145984 0.162643 0.12967
460 2 0.306799 0.166084 0.0798165
580 2 0.311276 0.137563 0.16101
581 4 0.287555 0.144884 0.15803
771 4 0.433558 0.098903 0.127513
769 2 0.440331 0.107446 0.150015
770 4 0.447104 0.115989 0.172516
370 2 0.161241 0.213259 0.157571
372 4 0.139331 0.224445 0.153102
237 4 0.145536 0.184039 0.1426
279 4 0.244054 0.226982 0.138154
461 4 0.287568 0.173294 0.094077
353 4 0.266478 0.172742 0.092378
277 2 0.24857 0.230842 0.113867
278 4 0.253086 0.234702 0.0895791
285 4 0.246197 0.228039 0.158255
755 4 0.331907 0.248202 0.165475
283 2 0.263264 0.245235 0.164437
624 4 0.441789 0.246893 0.131227
338 4 0.0452592 0.266087 0.118674
337 2 0.0610696 0.273424 0.1366
703 2 0.00693274 0.324446 0.167508
704 4 0.028808 0.317806 0.15738
339 4 0.0768801 0.280762 0.154527
612 4 0.272055 0.298905 0.0830833
609 4 0.265903 0.313157 0.0951738
610 2 0.269199 0.274098 0.084353
754 2 0.32998 0.250755 0.140677
756 4 0.328054 0.253307 0.115879
607 2 0.26005 0.33531 0.0851639
253 2 0.360023 0.259018 0.092447
255 4 0.335378 0.257666 0.0964476
323 4 0.486299 0.246174 0.0834972
629 4 0.441768 0.239975 0.111272
628 2 0.422167 0.2473 0.0975846
622 2 0.438418 0.257223 0.153747
621 4 0.0347913 0.410673 0.115428
619 2 0.0496718 0.396447 0.129618
620 4 0.0645522 0.382221 0.143809
647 4 0.130955 0.384582 0.152664
537 4 0.140838 0.385715 0.135975
535 2 0.156685 0.398839 0.12177
646 2 0.11609 0.371435 0.167875
536 4 0.172532 0.411963 0.107564
608 4 0.254197 0.357462 0.075154
385 2 0.338668 0.367138 0.103121
387 4 0.353837 0.381467 0.116897
12 3 0.38154 0.369804 0.125288
11 1 0.376073 0.388592 0.137383
15 3 0.353562 0.391885 0.13636
672 4 0.400403 0.374271 0.117931
302 4 0.344865 0.402299 0.119018
14 3 0.387165 0.406843 0.128313
104 3 0.494218 0.352771 0.0980712
670 2 0.413718 0.374295 0.096768
315 4 0.0453737 0.419888 0.102411
1438 2 0.220187 0.457579 0.0961255
625 2 0.22251 0.443846 0.164232
1439 4 0.217983 0.454332 0.120819
627 4 0.214453 0.449403 0.141223
638 4 0.26238 0.459253 0.148124
637 2 0.267389 0.483438 0.144225
303 4 0.32351 0.441635 0.141321
301 2 0.334188 0.421967 0.130169
659 4 0.335848 0.448749 0.153378
494 4 0.377337 0.469688 0.112229
495 4 0.389562 0.421233 0.114071
493 2 0.38345 0.445461 0.11315
1674 4 0.420095 0.490676 0.113317
1584 4 0.425196 0.486486 0.0944319
674 4 0.157749 0.0595042 0.212987
690 4 0.154615 0.0441666 0.197186
673 2 0.165202 0.0695569 0.234634
689 4 0.196086 0.0162266 0.196713
688 2 0.175351 0.0301966 0.196949
1505 4 0.206896 0.0141985 0.180683
693 4 0.251851 0.0635966 0.171252
691 2 0.258123 0.0699502 0.194607
1699 2 0.306527 0.0792583 0.218447
1701 4 0.28268 0.0853773 0.214082
1700 4 0.330374 0.0731394 0.222813
692 4 0.264395 0.0763038 0.217963
22 3 0.380462 0.051289 0.22724
698 4 0.393358 0.0547218 0.241931
21 1 0.372984 0.0727502 0.223683
333 4 0.395583 0.0749157 0.243494
25 3 0.382511 0.0809633 0.204698
23 3 0.349893 0.0723711 0.22143
2744 4 0.496013 0.997043 0.172857
351 4 0.493758 0.0641673 0.225851
743 4 0.505982 0.0520937 0.238357
349 2 0.472479 0.0747063 0.23368
1760 4 0.486321 0.00447645 0.155016
511 2 0.00288946 0.143637 0.208905
578 4 0.040931 0.153682 0.218239
513 4 0.0278583 0.142711 0.207968
28 3 0.24176 0.129957 0.168993
29 3 0.252419 0.165681 0.176381
26 1 0.2568 0.143287 0.180591
27 3 0.254388 0.139347 0.203126
30 3 0.278103 0.138226 0.174329
582 4 0.334997 0.130242 0.163991
758 4 0.354412 0.125985 0.170035
759 4 0.38753 0.0966566 0.193353
24 3 0.378954 0.0858826 0.241857
757 2 0.370971 0.111321 0.181694
312 4 0.461766 0.117821 0.185957
311 4 0.48671 0.137358 0.224646
310 2 0.474238 0.127589 0.205301
521 4 0.492695 0.146646 0.241465
350 4 0.451199 0.0852453 0.24151
577 2 0.0433634 0.173933 0.232701
529 2 0.0117618 0.219632 0.233693
530 4 0.0328157 0.207964 0.240459
362 4 0.130597 0.231879 0.169266
371 4 0.183151 0.202073 0.162041
476 4 0.191035 0.18747 0.172316
477 4 0.24078 0.182352 0.172255
475 2 0.215908 0.184911 0.172285
402 4 0.239948 0.205116 0.248082
395 4 0.0756666 0.286415 0.173968
396 4 0.0685331 0.315089 0.214312
443 4 0.0717337 0.300107 0.22614
394 2 0.0720998 0.300752 0.19414
442 2 0.0677061 0.28643 0.24668
361 2 0.121272 0.255008 0.167465
363 4 0.111947 0.278138 0.165664
284 4 0.280332 0.26243 0.170619
345 4 0.307977 0.327514 0.242718
528 4 0.430356 0.308519 0.216554
623 4 0.435047 0.267552 0.176266
527 4 0.42538 0.26468 0.193014
526 2 0.427868 0.2866 0.204784
542 4 0.435942 0.313736 0.235895
299 4 0.0989364 0.337053 0.242737
648 4 0.101225 0.358288 0.183085
300 4 0.0928794 0.362635 0.200198
298 2 0.0959079 0.349844 0.221467
290 4 0.222549 0.401484 0.223055
289 2 0.227428 0.397191 0.2472
13 3 0.382627 0.385493 0.159426
597 4 0.380204 0.378666 0.181168
596 4 0.350189 0.344997 0.20276
595 2 0.365197 0.361832 0.191964
645 4 0.39977 0.388159 0.173812
643 2 0.411163 0.399751 0.192812
644 4 0.422555 0.411343 0.211812
416 4 0.215125 0.418211 0.228407
1429 2 0.176232 0.48223 0.176163
626 4 0.230567 0.43829 0.18724
1430 4 0.175501 0.462143 0.191034
417 4 0.18645 0.450102 0.20269
415 2 0.200787 0.434156 0.215549
658 2 0.349865 0.461665 0.169562
660 4 0.363881 0.47458 0.185746
231 4 0.36538 0.490406 0.199103
447 4 0.418008 0.424883 0.224322
445 2 0.417214 0.430777 0.248608
1403 4 0.0208156 0.00749858 0.272737
233 4 0.010274 0.0203976 0.261821
232 2 0.016433 0.0422648 0.272264
234 4 0.0225921 0.064132 0.282708
317 4 0.0371071 0.0758249 0.275087
1406 4 0.178748 0.000928226 0.319801
606 4 0.164282 0.0458533 0.333938
1518 4 0.404796 0.0165593 0.289676
697 2 0.39263 0.0355757 0.257996
699 4 0.391903 0.0164296 0.274061
425 4 0.438268 0.0302891 0.276558
424 2 0.449011 0.0509201 0.28573
258 4 0.476213 0.0732173 0.307506
426 4 0.459754 0.0715511 0.294902
331 2 0.417732 0.0846812 0.249757
1749 4 0.480547 0.0233625 0.323828
316 2 0.058308 0.0819872 0.286823
318 4 0.0795089 0.0881494 0.298558
391 2 0.106348 0.149751 0.293694
392 4 0.113799 0.14765 0.269919
393 4 0.0988969 0.151852 0.317469
544 2 0.158303 0.154317 0.267333
545 4 0.133932 0.148787 0.266514
675 4 0.172654 0.0796096 0.256281
546 4 0.182673 0.159848 0.268153
723 4 0.229727 0.0878719 0.26796
722 4 0.182159 0.0971972 0.255671
721 2 0.205943 0.0925345 0.261816
599 4 0.231569 0.113079 0.314217
404 4 0.221922 0.128422 0.304781
403 2 0.217777 0.152998 0.302777
256 2 0.479818 0.0978875 0.309395
332 4 0.439881 0.0944468 0.256021
761 4 0.477789 0.139051 0.322348
257 4 0.483422 0.122558 0.311285
579 4 0.0457958 0.194185 0.247162
405 4 0.213632 0.177574 0.300773
401 4 0.215931 0.174605 0.279593
400 2 0.227939 0.189861 0.263837
765 4 0.436195 0.205149 0.298674
763 2 0.456124 0.203871 0.31372
764 4 0.476053 0.202593 0.328765
444 4 0.0636784 0.272752 0.26722
750 4 0.10004 0.329079 0.26105
496 2 0.353206 0.295555 0.330833
497 4 0.359593 0.315839 0.317683
541 2 0.432489 0.316319 0.260524
543 4 0.429037 0.318903 0.285153
615 4 0.433968 0.318237 0.305208
366 4 0.0650454 0.349549 0.304094
262 2 0.0510863 0.416071 0.261048
263 4 0.0398746 0.393756 0.262276
365 4 0.0199694 0.369284 0.313004
749 4 0.075909 0.33163 0.304776
364 2 0.0425074 0.359416 0.308549
748 2 0.0879747 0.330354 0.282913
602 4 0.0923336 0.395256 0.301325
777 4 0.107858 0.40342 0.291071
735 4 0.160565 0.39074 0.277697
601 2 0.102822 0.390505 0.323519
677 4 0.175297 0.404832 0.279582
733 2 0.165301 0.366391 0.280836
734 4 0.170037 0.342041 0.283975
291 4 0.232307 0.392899 0.271344
414 4 0.238891 0.394592 0.289603
343 2 0.323144 0.342176 0.256141
412 2 0.254334 0.412234 0.298291
344 4 0.33831 0.356838 0.269564
309 4 0.341219 0.341474 0.281226
613 2 0.418492 0.337555 0.308742
614 4 0.403017 0.356874 0.312276
307 2 0.353415 0.35298 0.299774
727 2 0.34523 0.403993 0.325275
729 4 0.355695 0.382151 0.319064
308 4 0.36561 0.364487 0.318323
2924 4 0.49112 0.378904 0.317911
2537 4 0.503067 0.368648 0.304976
2923 2 0.469205 0.367001 0.316116
2925 4 0.44729 0.355098 0.314321
264 4 0.062298 0.438387 0.25982
1757 4 0.107251 0.456156 0.28521
776 4 0.11863 0.447543 0.270147
775 2 0.113244 0.425482 0.280609
1756 2 0.103617 0.479634 0.293003
1545 4 0.253675 0.501595 0.346738
676 2 0.184765 0.41757 0.298902
678 4 0.194234 0.430308 0.318222
768 4 0.190851 0.466979 0.281619
766 2 0.196967 0.484181 0.264535
504 4 0.211894 0.425277 0.325375
413 4 0.269776 0.429875 0.30698
438 4 0.302737 0.453316 0.251613
437 4 0.280138 0.433069 0.291363
436 2 0.291437 0.443193 0.271488
1437 4 0.2743 0.440942 0.327256
5 3 0.282007 0.420943 0.323882
1435 2 0.263319 0.46301 0.331452
433 2 0.332772 0.461073 0.314693
1436 4 0.252339 0.485078 0.335649
434 4 0.330571 0.447863 0.335809
435 4 0.334972 0.474282 0.293578
2862 4 0.49329 0.417187 0.274537
446 4 0.416419 0.436671 0.272894
714 4 0.427566 0.429837 0.289337
713 4 0.476172 0.418127 0.290358
712 2 0.451869 0.423982 0.289847
119 3 0.493968 0.426989 0.332355
1782 4 0.0788798 0.00239423 0.357763
427 2 0.0467133 0.00360703 0.338672
429 4 0.0626557 0.0123569 0.355832
730 2 0.118041 0.0711693 0.390144
604 2 0.152005 0.0640377 0.345929
731 4 0.106043 0.0548928 0.404851
732 4 0.130039 0.0874459 0.375437
319 2 0.239403 0.0663441 0.40968
249 4 0.322516 0.0689256 0.354546
684 4 0.304667 0.0603536 0.355564
683 4 0.259815 0.0584367 0.377595
682 2 0.282241 0.0593951 0.366579
321 4 0.250866 0.050833 0.393769
247 2 0.346766 0.0741906 0.351484
248 4 0.371017 0.0794555 0.348422
633 4 0.38854 0.0839734 0.358991
2585 4 0.0174054 0.0923747 0.41817
605 4 0.139728 0.0822222 0.35792
399 4 0.0981425 0.140817 0.332933
398 4 0.097968 0.157784 0.379974
397 2 0.0980552 0.1493 0.356453
598 2 0.232369 0.110717 0.339096
600 4 0.233169 0.108355 0.363975
685 2 0.219037 0.12033 0.393633
687 4 0.214889 0.11612 0.369338
707 4 0.253547 0.158185 0.358751
631 2 0.388788 0.0885464 0.383571
632 4 0.389035 0.0931194 0.408152
418 2 0.3784 0.139 0.404914
419 4 0.387235 0.155412 0.388247
760 2 0.465394 0.146581 0.342716
762 4 0.453 0.154111 0.363084
470 4 0.0636922 0.212616 0.400433
390 4 0.0770499 0.225477 0.407976
388 2 0.088342 0.241694 0.392658
473 4 0.203141 0.204008 0.34629
474 4 0.176148 0.245285 0.354557
472 2 0.189644 0.224647 0.350423
708 4 0.21893 0.19355 0.351558
706 2 0.236239 0.175867 0.355155
651 4 0.22839 0.229042 0.388414
649 2 0.230349 0.212648 0.407191
489 4 0.225367 0.248418 0.390012
377 4 0.352941 0.226802 0.379111
717 4 0.356912 0.213719 0.365478
716 4 0.379455 0.173082 0.383948
715 2 0.368184 0.1934 0.374713
376 2 0.346268 0.242005 0.360416
268 2 0.497238 0.232635 0.367151
515 4 0.450707 0.189781 0.401993
270 4 0.487117 0.244808 0.386505
617 4 0.0508583 0.282807 0.424434
389 4 0.0996342 0.257912 0.377339
275 4 0.158428 0.252804 0.355772
276 4 0.110239 0.244522 0.366258
274 2 0.134333 0.248663 0.361015
695 4 0.0995055 0.333657 0.41405
488 4 0.259546 0.279745 0.371275
508 2 0.244793 0.320848 0.364689
509 4 0.257037 0.299063 0.363874
487 2 0.242457 0.264081 0.380643
378 4 0.339595 0.257209 0.341721
2456 4 0.377476 0.260466 0.413919
498 4 0.346819 0.275271 0.343983
266 4 0.344179 0.315379 0.388126
585 4 0.363807 0.316994 0.393524
583 2 0.362743 0.293053 0.400658
584 4 0.36168 0.269113 0.407791
2455 2 0.397869 0.246397 0.410547
304 2 0.482021 0.27081 0.411385
306 4 0.472554 0.255826 0.393749
2457 4 0.418261 0.232327 0.407176
407 4 0.0633486 0.422907 0.389726
547 2 0.0918096 0.396267 0.375976
549 4 0.103441 0.379541 0.36148
603 4 0.113311 0.385754 0.345714
548 4 0.0801777 0.412992 0.390472
510 4 0.232548 0.342633 0.365504
375 4 0.218768 0.400211 0.341352
374 4 0.217414 0.356254 0.365157
373 2 0.218091 0.378232 0.353254
3 3 0.30165 0.395997 0.344118
265 2 0.338746 0.336896 0.376608
267 4 0.333314 0.358414 0.36509
561 4 0.473317 0.406424 0.40557
752 4 0.486207 0.41003 0.391706
679 2 0.0351014 0.50113 0.388518
680 4 0.0568885 0.488976 0.386853
406 2 0.0574896 0.446779 0.385143
408 4 0.0516306 0.47065 0.380559
569 4 0.0945479 0.424684 0.395005
568 2 0.112076 0.431345 0.411545
635 4 0.146974 0.45979 0.401714
502 2 0.20711 0.434734 0.348021
503 4 0.202326 0.444191 0.370667
636 4 0.186516 0.45645 0.371284
634 2 0.166745 0.45812 0.386499
2 3 0.314724 0.430841 0.338866
1 1 0.295675 0.418309 0.341906
1401 4 0.311301 0.48613 0.403367
668 4 0.29666 0.441878 0.363979
4 3 0.284909 0.42557 0.361136
667 2 0.296674 0.457237 0.383709
669 4 0.296688 0.472596 0.403439
728 4 0.334765 0.425835 0.331485
592 2 0.477884 0.495238 0.359457
593 4 0.482213 0.470647 0.358152
753 4 0.479028 0.427066 0.345241
751 2 0.482617 0.418548 0.368473
2755 2 0.00424813 0.0524649 0.420788
2757 4 0.0174508 0.0735146 0.417998
718 2 0.0279781 0.0690686 0.472289
719 4 0.0500789 0.0617889 0.463139
369 4 0.0573813 0.0680877 0.445025
367 2 0.075317 0.0576252 0.431096
720 4 0.00587729 0.0763483 0.48144
368 4 0.0932527 0.0471627 0.417167
441 4 0.211286 0.0170423 0.457205
2430 4 0.176233 0.0621085 0.436363
2428 2 0.184243 0.0418425 0.448624
2429 4 0.192252 0.0215765 0.460884
320 4 0.227941 0.0818552 0.425592
2879 4 0.431104 0.0203371 0.454237
2878 2 0.452212 0.033358 0.457416
2880 4 0.47332 0.0463789 0.460595
642 4 0.468755 0.0658122 0.456975
640 2 0.493455 0.0696881 0.457227
725 4 0.235547 0.0819711 0.444184
686 4 0.223185 0.12454 0.417928
341 4 0.1766 0.0819123 0.433877
410 4 0.227326 0.141921 0.427412
409 2 0.234764 0.16473 0.434457
340 2 0.183023 0.0974655 0.45237
1152 4 0.19789 0.115242 0.488272
342 4 0.189447 0.113019 0.470864
1150 2 0.188527 0.135229 0.500022
430 2 0.304544 0.0931733 0.491507
432 4 0.289206 0.104917 0.475633
724 2 0.252342 0.0942928 0.458015
726 4 0.269136 0.106615 0.471847
467 4 0.368814 0.0693205 0.456735
466 2 0.374338 0.0867525 0.439682
420 4 0.369566 0.122588 0.421581
468 4 0.379863 0.104185 0.42263
576 4 0.392057 0.146967 0.480424
574 2 0.412939 0.157413 0.471481
516 4 0.443766 0.167146 0.44604
469 2 0.0566528 0.199013 0.420197
260 4 0.0597723 0.181676 0.459101
471 4 0.0496134 0.185411 0.439961
259 2 0.0717064 0.174986 0.480029
650 4 0.232308 0.196253 0.425967
411 4 0.242202 0.187538 0.441502
575 4 0.433821 0.16786 0.462538
514 2 0.447237 0.178464 0.424017
616 2 0.0303499 0.269882 0.418307
618 4 0.00984158 0.256958 0.412179
696 4 0.142023 0.314506 0.432111
694 2 0.120764 0.324081 0.42308
1260 4 0.156796 0.318853 0.444957
1258 2 0.177062 0.321757 0.430602
1259 4 0.197328 0.32466 0.416248
2507 4 0.49942 0.329945 0.467289
305 4 0.491487 0.285794 0.429021
326 4 0.0886281 0.365254 0.426053
325 2 0.0994644 0.371258 0.447771
10 3 0.158582 0.352696 0.472863
7 3 0.123407 0.364603 0.47658
327 4 0.110301 0.377263 0.46949
6 1 0.145027 0.36723 0.483984
8 3 0.15176 0.389053 0.479883
711 4 0.150945 0.41008 0.477232
335 4 0.324438 0.405781 0.450796
238 2 0.358336 0.389882 0.470757
240 4 0.34343 0.398394 0.452576
239 4 0.373241 0.38137 0.488937
2506 2 0.498221 0.353971 0.46047
559 2 0.476362 0.397597 0.428764
2508 4 0.497022 0.377997 0.453651
560 4 0.479407 0.38877 0.451959
538 2 0.0661679 0.47413 0.488106
540 4 0.0545861 0.471236 0.466136
1381 2 0.0179635 0.466771 0.456422
1382 4 0.0356295 0.477876 0.470198
570 4 0.129605 0.438006 0.428085
710 4 0.129616 0.443227 0.446458
772 2 0.141198 0.483515 0.450634
709 2 0.140281 0.426653 0.461845
774 4 0.13244 0.462235 0.440854
1399 2 0.331203 0.495179 0.4155
588 4 0.359891 0.502695 0.446767
336 4 0.334809 0.449413 0.428674
334 2 0.329623 0.427597 0.439735
949 2 0.228222 0.0771063 0.542229
950 4 0.248712 0.0690057 0.530409
1182 4 0.25362 0.0515368 0.540003
961 2 0.326299 0.0186815 0.557837
1180 2 0.278065 0.0523425 0.545198
963 4 0.313973 0.0371542 0.546347
1181 4 0.302509 0.0531482 0.550392
431 4 0.319882 0.0814292 0.507382
1217 4 0.399278 0.0590314 0.511799
841 2 0.355751 0.0608288 0.511604
843 4 0.33233 0.0663669 0.504823
842 4 0.379171 0.0552907 0.518385
1216 2 0.408771 0.0780531 0.524961
4467 4 0.433988 0.021594 0.568775
2283 4 0.425868 0.0376079 0.579574
939 4 0.163905 0.167374 0.515389
937 2 0.140583 0.162423 0.52292
938 4 0.11726 0.157472 0.530451
1032 4 0.148186 0.0923695 0.588819
951 4 0.207732 0.0852069 0.554049
1031 4 0.189624 0.0863373 0.561485
1151 4 0.179164 0.155215 0.511771
1030 2 0.168905 0.0893534 0.575152
898 2 0.367902 0.154661 0.571658
899 4 0.349539 0.137773 0.569993
1218 4 0.418264 0.0970748 0.538123
1035 4 0.0701375 0.180069 0.564618
261 4 0.0836405 0.168296 0.500958
1033 2 0.0845623 0.173103 0.54542
1034 4 0.0989871 0.166136 0.526222
1272 4 0.105716 0.244928 0.580106
879 4 0.0929782 0.242742 0.564148
811 2 0.318224 0.234405 0.561905
812 4 0.294817 0.228249 0.568181
796 2 0.281221 0.196182 0.580693
798 4 0.277972 0.219055 0.57113
813 4 0.341631 0.24056 0.555629
900 4 0.386265 0.171549 0.573323
872 4 0.382366 0.189659 0.567539
873 4 0.357699 0.229013 0.549005
871 2 0.370032 0.209336 0.558272
878 4 0.0780463 0.245627 0.516509
877 2 0.0855123 0.244184 0.540328
1190 4 0.24573 0.329346 0.524065
803 4 0.264752 0.32706 0.530582
1239 4 0.257685 0.296473 0.576565
954 4 0.394832 0.28234 0.57076
952 2 0.419017 0.276313 0.572754
953 4 0.443201 0.270287 0.574747
1137 4 0.161798 0.363365 0.564371
9 3 0.145738 0.362868 0.506763
1135 2 0.157712 0.382562 0.579861
897 4 0.149246 0.356703 0.549322
1191 4 0.198882 0.335327 0.507628
1189 2 0.222306 0.332337 0.515847
896 4 0.184973 0.345368 0.516218
895 2 0.16711 0.351035 0.53277
802 2 0.285131 0.340539 0.535893
804 4 0.305509 0.354019 0.541205
929 4 0.322218 0.363838 0.537971
928 2 0.336814 0.353847 0.555644
930 4 0.351409 0.343856 0.573317
1001 4 0.453489 0.391748 0.546374
926 4 0.46894 0.383645 0.537726
925 2 0.481721 0.381452 0.516348
1000 2 0.446017 0.403807 0.566964
539 4 0.0777497 0.477024 0.510076
934 2 0.00566926 0.490438 0.56753
936 4 0.0268883 0.502041 0.573877
1172 4 0.270163 0.466587 0.562372
882 4 0.287745 0.460808 0.553657
880 2 0.287626 0.48104 0.538966
1171 2 0.253529 0.464423 0.580914
1058 4 0.0735311 0.00418938 0.625596
1057 2 0.0806406 0.0259114 0.615458
1059 4 0.0877501 0.0476334 0.605319
1183 2 0.992482 0.0567233 0.671863
1155 4 0.0903998 0.0602894 0.619844
1004 4 0.313416 0.0792233 0.655262
45 3 0.496694 0.0575793 0.642477
2282 4 0.452062 0.0523818 0.619528
2281 2 0.438965 0.0449949 0.599551
43 3 0.463933 0.0420854 0.632265
41 1 0.47495 0.0544795 0.648495
44 3 0.464491 0.0750096 0.651242
1199 4 0.00362403 0.15927 0.587995
1083 4 0.0198498 0.148781 0.597045
1153 2 0.0988786 0.0829029 0.613369
1154 4 0.107357 0.105516 0.606895
1221 4 0.124111 0.104534 0.620699
1219 2 0.139012 0.117313 0.636186
1220 4 0.153913 0.130091 0.651673
1283 4 0.155788 0.116385 0.666515
1212 4 0.229883 0.144534 0.633865
1210 2 0.242146 0.151929 0.654362
1003 2 0.295182 0.0798663 0.638166
1005 4 0.276947 0.0805092 0.62107
858 4 0.287936 0.153383 0.596185
856 2 0.309212 0.14477 0.586268
857 4 0.330487 0.136157 0.576352
1082 4 0.0617636 0.166907 0.576664
1081 2 0.0408067 0.157844 0.586855
1270 2 0.120246 0.231434 0.595336
1271 4 0.134775 0.217939 0.610566
909 4 0.149919 0.20781 0.617693
907 2 0.160714 0.209493 0.640183
908 4 0.17151 0.211176 0.662673
797 4 0.284469 0.173309 0.590255
1025 4 0.361817 0.203087 0.646064
1024 2 0.381384 0.218132 0.650063
1026 4 0.40095 0.233177 0.654061
1143 4 0.358729 0.18624 0.655468
906 4 0.475057 0.224898 0.616336
904 2 0.465781 0.242685 0.601411
3122 4 0.484907 0.223589 0.6623
3123 4 0.435256 0.226324 0.657012
3121 2 0.460082 0.224957 0.659656
1064 4 0.214213 0.317739 0.672276
1237 2 0.280592 0.30248 0.584589
792 4 0.309367 0.293291 0.602694
790 2 0.319012 0.299082 0.625024
1238 4 0.303498 0.308486 0.592613
791 4 0.328657 0.304873 0.647353
1205 4 0.37957 0.292341 0.580607
1204 2 0.375205 0.31689 0.578743
905 4 0.456505 0.260472 0.586485
983 4 0.0359662 0.388865 0.628441
1041 4 0.0540366 0.383257 0.636027
1039 2 0.0730724 0.399429 0.634884
982 2 0.0189859 0.393874 0.610784
893 4 0.103074 0.338757 0.652349
992 4 0.153785 0.397067 0.61467
892 2 0.101005 0.358722 0.667257
1136 4 0.153626 0.401759 0.595351
1040 4 0.0921082 0.4156 0.633742
991 2 0.132218 0.407881 0.621234
1028 4 0.224072 0.37512 0.671479
1206 4 0.37084 0.341439 0.576879
1002 4 0.438545 0.415866 0.587553
1910 4 0.443165 0.415381 0.607592
993 4 0.11065 0.418695 0.627798
1161 4 0.18356 0.495232 0.593717
1160 4 0.218682 0.459636 0.594046
1159 2 0.201121 0.477434 0.593881
1173 4 0.236894 0.462259 0.599456
2172 4 0.206505 0.483311 0.639925
2170 2 0.186754 0.496694 0.647404
1175 4 0.256732 0.47955 0.613
1174 2 0.273404 0.488863 0.629139
1911 4 0.428298 0.437346 0.649985
1909 2 0.435732 0.426363 0.628788
1268 4 0.423022 0.456177 0.646378
1267 2 0.425913 0.480155 0.652852
3330 4 0.497644 0.412041 0.6575
1185 4 0.0174669 0.0573765 0.672562
945 4 0.035058 0.0636048 0.679953
943 2 0.0406402 0.0719504 0.702852
1076 4 0.0334923 0.0676892 0.73588
831 4 0.313891 0.0691495 0.732118
42 3 0.474164 0.0430093 0.668419
1163 4 0.488719 0.0434906 0.683246
944 4 0.0462224 0.0802959 0.725751
3385 2 0.000553794 0.126412 0.738983
1282 2 0.17032 0.119178 0.68667
1284 4 0.184852 0.121971 0.706825
1227 4 0.176971 0.112256 0.722673
1225 2 0.188292 0.121815 0.742813
1211 4 0.254409 0.159323 0.674859
888 4 0.273784 0.161268 0.683397
886 2 0.288532 0.141247 0.686012
887 4 0.303281 0.121227 0.688628
829 2 0.311938 0.0872035 0.71493
830 4 0.309984 0.105258 0.697742
976 2 0.304156 0.154015 0.739838
977 4 0.300708 0.169286 0.720342
1142 4 0.349976 0.151941 0.690791
1107 4 0.0357637 0.18948 0.747941
851 4 0.0252593 0.186108 0.73011
850 2 0.00966277 0.205641 0.730723
1105 2 0.0492749 0.170918 0.757844
947 4 0.164499 0.225472 0.673416
1208 4 0.0865416 0.250579 0.664976
822 4 0.128555 0.21097 0.701789
1278 4 0.132474 0.216004 0.721892
820 2 0.11097 0.224797 0.690619
821 4 0.0933859 0.238624 0.679448
1276 2 0.145448 0.218185 0.743155
946 2 0.181054 0.242618 0.680975
916 2 0.314831 0.203538 0.716306
918 4 0.317921 0.179041 0.720246
917 4 0.31174 0.228035 0.712367
1097 4 0.309 0.24353 0.724257
1008 4 0.326199 0.249959 0.734988
1141 2 0.354353 0.169091 0.67313
1261 2 0.43465 0.226733 0.744623
1263 4 0.442938 0.203821 0.750239
1145 4 0.453377 0.19424 0.737187
1207 2 0.0652287 0.25847 0.675401
1209 4 0.0439158 0.26636 0.685826
1244 4 0.0223751 0.319191 0.706915
948 4 0.197609 0.259764 0.688534
1065 4 0.200822 0.26956 0.671853
1063 2 0.207517 0.29365 0.672065
1240 2 0.233634 0.292528 0.726846
1242 4 0.213718 0.3054 0.718919
1096 2 0.286487 0.254368 0.725182
1241 4 0.253551 0.279657 0.734773
1098 4 0.263974 0.265207 0.726107
1262 4 0.426363 0.249645 0.739006
1192 2 0.424907 0.28378 0.736255
1194 4 0.417262 0.262333 0.725924
1193 4 0.432552 0.305228 0.746586
1279 2 0.0656669 0.384049 0.706974
3275 4 0.0438136 0.407449 0.734942
1280 4 0.0532025 0.390194 0.72776
1281 4 0.0781312 0.377904 0.686189
894 4 0.0989359 0.378688 0.682166
940 2 0.154964 0.402118 0.728953
942 4 0.130046 0.403421 0.727351
815 4 0.1152 0.405092 0.738603
1027 2 0.248136 0.381551 0.669302
941 4 0.179882 0.400815 0.730555
1068 4 0.216058 0.390204 0.683124
1067 4 0.192617 0.384611 0.726942
1066 2 0.204338 0.387407 0.705033
1029 4 0.2722 0.387982 0.667125
1139 4 0.268703 0.401191 0.682486
1138 2 0.277844 0.420892 0.694876
1230 4 0.376271 0.403843 0.736057
1228 2 0.366238 0.389447 0.718246
1229 4 0.356204 0.37505 0.700434
3183 4 0.484866 0.405666 0.671357
1140 4 0.286985 0.440593 0.707265
1989 4 0.30269 0.443914 0.719034
1987 2 0.31169 0.454137 0.740002
1100 4 0.472342 0.474737 0.72893
1099 2 0.470625 0.497129 0.717938
1250 4 0.475074 0.462541 0.744771
1075 2 0.04351 0.0548378 0.754845
1077 4 0.0535277 0.0419865 0.773809
1203 4 0.0662947 0.026082 0.781136
1201 2 0.089895 0.0275678 0.773013
2049 4 0.129188 0.0238281 0.753435
1202 4 0.113495 0.0290536 0.764889
1148 4 0.167353 0.0600501 0.786706
2047 2 0.142005 0.0023702 0.754117
1147 2 0.190954 0.0528081 0.790672
1149 4 0.214555 0.0455661 0.794638
1049 4 0.228239 0.035368 0.786815
1048 2 0.249658 0.0425263 0.776083
1050 4 0.271077 0.0496846 0.765352
818 4 0.377667 0.075644 0.821567
844 2 0.504499 0.0277922 0.769066
846 4 0.483211 0.0150609 0.765914
862 2 0.0295627 0.0815264 0.822153
35 3 0.0769364 0.14639 0.755704
3387 4 0.0226839 0.121786 0.749662
832 2 0.0372069 0.127642 0.793307
863 4 0.0195278 0.0974277 0.805672
833 4 0.0193942 0.118479 0.808271
33 3 0.0712139 0.128131 0.788132
834 4 0.0550196 0.136805 0.778342
1106 4 0.0627862 0.152355 0.767746
31 1 0.0869999 0.134652 0.772425
32 3 0.0969041 0.115862 0.763593
34 3 0.103319 0.147685 0.782536
1073 4 0.113855 0.15818 0.796371
1226 4 0.199613 0.131374 0.762954
840 4 0.213963 0.136679 0.777748
838 2 0.224228 0.142888 0.799686
839 4 0.234493 0.149098 0.821623
978 4 0.307603 0.138744 0.759334
817 2 0.373433 0.0906704 0.802036
819 4 0.369199 0.105697 0.782505
1084 2 0.370367 0.147859 0.785032
1085 4 0.369253 0.124274 0.776807
3268 2 0.488868 0.156393 0.807713
3270 4 0.478922 0.156631 0.784774
1146 4 0.471059 0.156966 0.765449
778 2 0.0631599 0.217648 0.816681
779 4 0.04047 0.222269 0.807247
1214 4 0.0395954 0.237924 0.794455
1074 4 0.123491 0.204969 0.781584
780 4 0.0858498 0.213027 0.826114
1277 4 0.158422 0.220366 0.764417
1072 2 0.118673 0.181574 0.788977
1131 4 0.174104 0.229027 0.772734
1130 4 0.206241 0.192705 0.784925
1129 2 0.190173 0.210866 0.778829
1086 4 0.371482 0.171445 0.793257
1299 4 0.363052 0.187672 0.785922
1297 2 0.37378 0.20323 0.802294
1298 4 0.384508 0.218788 0.818666
49 3 0.410201 0.25175 0.835221
1044 4 0.373351 0.264668 0.77496
1144 2 0.462218 0.175603 0.751318
1213 2 0.0177704 0.248555 0.800441
1006 2 0.347479 0.258736 0.744749
1007 4 0.36876 0.267513 0.75451
1043 4 0.39583 0.259536 0.819335
1042 2 0.384591 0.262102 0.797148
806 4 0.435466 0.318731 0.762157
805 2 0.417238 0.331847 0.773152
1166 4 0.41679 0.265191 0.818562
1167 4 0.465525 0.274239 0.811942
1165 2 0.441158 0.269715 0.815252
1307 4 0.469542 0.271269 0.832101
3274 2 0.0427992 0.395496 0.75688
3276 4 0.0417849 0.383543 0.778818
816 4 0.0942282 0.416596 0.782518
814 2 0.104714 0.410844 0.760561
801 4 0.320342 0.356594 0.821352