ITEM: TIMESTEP
490000
ITEM: NUMBER OF ATOMS
4590
ITEM: BOX BOUNDS pp pp pp
-9.9985700000000008e+00 9.9985700000000008e+00
-9.9985700000000008e+00 9.9985700000000008e+00
-9.9985700000000008e+00 9.9985700000000008e+00
ITEM: ATOMS id type xs ys zs
463 2 0.0204421 0.0590542 0.0427074
465 4 0.0148647 0.0720888 0.0633028
464 4 0.0260194 0.0460196 0.022112
3290 4 0.0184768 0.0378601 0.00375645
3289 2 0.0180945 0.0132166 0.0079671
591 4 0.0341941 0.076353 0.0673376
702 4 0.0922648 0.0828308 0.0258963
534 4 0.180754 0.0324975 0.00953679
1476 4 0.205941 0.011297 0.0530738
490 2 0.284517 0.0408629 0.0253715
491 4 0.300131 0.0523141 0.00955215
492 4 0.268903 0.0294118 0.0411909
557 4 0.376492 0.073687 0.0706576
745 2 0.462824 0.0742409 0.0310386
747 4 0.470849 0.0597974 0.0122727
746 4 0.454798 0.0886843 0.0498045
1826 4 0.45771 0.0059678 0.0670227
2975 4 0.46773 0.0652945 0.99303
701 4 0.0601497 0.12066 0.0320828
700 2 0.0762072 0.101745 0.0289895
423 4 0.0702791 0.144517 0.00734104
565 2 0.171756 0.109648 0.0569239
566 4 0.165328 0.133578 0.0535702
567 4 0.178183 0.0857188 0.0602776
358 2 0.292442 0.132911 0.0172254
360 4 0.285275 0.128304 0.0407325
556 2 0.380294 0.0972888 0.0633307
558 4 0.384095 0.120891 0.0560038
421 2 0.0597621 0.167046 0.00998653
553 2 0.0275796 0.211223 0.0309339
554 4 0.021781 0.222841 0.0523015
422 4 0.0492452 0.189575 0.012632
555 4 0.0333781 0.199604 0.00956631
353 4 0.282794 0.238592 0.0819967
352 2 0.259563 0.233528 0.0897336
324 4 0.404398 0.24524 0.0939638
665 4 0.366057 0.203301 0.0197032
770 4 0.448563 0.17926 0.0657219
771 4 0.451566 0.167533 0.0172021
769 2 0.450064 0.173396 0.041462
828 4 0.433237 0.161332 0.0159077
292 2 0.14619 0.307631 0.0383534
293 4 0.155257 0.294669 0.0577175
294 4 0.137122 0.320592 0.0189892
507 4 0.16634 0.281826 0.0469272
506 4 0.185934 0.249719 0.0798803
505 2 0.176137 0.265773 0.0634038
481 2 0.239427 0.312859 0.0813416
356 4 0.214456 0.264616 0.00298912
483 4 0.250443 0.29199 0.0896075
572 4 0.324552 0.259579 0.0543568
571 2 0.347916 0.266239 0.0484456
573 4 0.37128 0.272899 0.0425345
1071 4 0.369275 0.266243 0.0235873
1069 2 0.39157 0.262519 0.0128987
322 2 0.424005 0.2561 0.0828838
280 2 0.456775 0.320364 0.0423247
281 4 0.441985 0.314675 0.0616654
671 4 0.42474 0.322071 0.0695668
282 4 0.471565 0.326053 0.022984
323 4 0.443613 0.266961 0.0718038
328 2 0.0228674 0.407491 0.0300853
329 4 0.0254855 0.402952 0.00563702
330 4 0.0202494 0.412031 0.0545336
455 4 0.0924328 0.376145 0.0714339
621 4 0.024189 0.383226 0.0731791
1169 4 0.0522644 0.355279 0.00334747
454 2 0.108135 0.356896 0.0685853
456 4 0.123836 0.337648 0.0657366
482 4 0.228411 0.333727 0.0730757
252 4 0.314091 0.376112 0.0550201
250 2 0.297597 0.388659 0.0410314
251 4 0.281103 0.401207 0.0270428
608 4 0.309273 0.370563 0.0739756
227 4 0.463473 0.417225 0.0383013
551 4 0.0738196 0.459278 0.0775341
315 4 0.0296149 0.421351 0.0693661
550 2 0.0892715 0.451153 0.0596339
552 4 0.104723 0.443029 0.0417338
245 4 0.20935 0.451625 0.0299466
244 2 0.233094 0.45912 0.0276591
246 4 0.256838 0.466614 0.0253716
272 4 0.274801 0.475686 0.0265304
271 2 0.288749 0.496235 0.0236423
562 2 0.457979 0.485012 0.0426711
564 4 0.461871 0.492039 0.0663492
563 4 0.454087 0.477985 0.018993
226 2 0.485282 0.429454 0.0383867
228 4 0.50709 0.441683 0.0384721
1667 4 0.074613 0.0594429 0.0900878
1666 2 0.0796699 0.0358533 0.0966556
19 3 0.0330438 0.0433799 0.145614
20 3 0.0646771 0.0629992 0.13995
1422 4 0.0311585 0.0215037 0.147645
16 1 0.0520486 0.0522385 0.155551
18 3 0.0644368 0.0353013 0.165454
2480 4 0.0127518 0.0326988 0.148793
1668 4 0.0847268 0.0122636 0.103223
450 4 0.156615 0.0669224 0.170659
1506 4 0.230613 0.00367778 0.162023
652 2 0.29772 0.061214 0.131303
654 4 0.296783 0.0510486 0.108479
653 4 0.298657 0.0713794 0.154128
296 4 0.363605 0.0583227 0.0703158
295 2 0.359495 0.0464134 0.0919133
297 4 0.355385 0.034504 0.113511
758 4 0.41502 0.0538451 0.157999
485 4 0.362109 0.0170818 0.118717
1759 2 0.483781 0.0133693 0.153975
1761 4 0.462395 0.00136563 0.158847
2723 4 0.50293 0.0697479 0.116034
589 2 0.0435425 0.0947037 0.0815164
590 4 0.052891 0.113054 0.0956952
448 2 0.165605 0.0899669 0.174306
582 4 0.297626 0.086167 0.167431
476 4 0.139441 0.193645 0.111594
475 2 0.129497 0.195325 0.134473
477 4 0.119552 0.197005 0.157353
737 4 0.189931 0.187468 0.105597
736 2 0.21217 0.198878 0.106216
738 4 0.23441 0.210288 0.106835
354 4 0.236332 0.228464 0.0974705
461 4 0.297438 0.226573 0.0891283
460 2 0.308386 0.20534 0.0965079
462 4 0.319334 0.184106 0.103888
254 4 0.378785 0.170593 0.130665
630 4 0.396565 0.182184 0.126848
255 4 0.331351 0.171637 0.114864
253 2 0.355068 0.171115 0.122765
622 2 0.376524 0.245303 0.138905
628 2 0.415825 0.196301 0.119434
624 4 0.401363 0.244103 0.141506
629 4 0.435085 0.210417 0.11202
337 2 0.0751393 0.258134 0.136171
339 4 0.0538109 0.252709 0.124303
338 4 0.0964677 0.26356 0.148038
279 4 0.234719 0.282618 0.16252
277 2 0.25189 0.271923 0.147825
754 2 0.284525 0.281421 0.101929
755 4 0.271762 0.263159 0.113278
756 4 0.297287 0.299684 0.0905807
278 4 0.269061 0.261227 0.13313
741 4 0.357902 0.317097 0.0868908
623 4 0.351685 0.246503 0.136305
739 2 0.357038 0.334119 0.105185
670 2 0.425249 0.335824 0.090442
527 4 0.464952 0.250141 0.170906
620 4 0.0268652 0.347493 0.10806
619 2 0.0255271 0.365359 0.0906196
647 4 0.0669205 0.377356 0.14457
537 4 0.152826 0.378432 0.121514
535 2 0.162575 0.377158 0.144504
626 4 0.216926 0.389902 0.0966428
625 2 0.204652 0.408753 0.10756
611 4 0.241839 0.351463 0.147388
609 4 0.288116 0.346423 0.112321
607 2 0.298694 0.358493 0.0931482
612 4 0.289721 0.34798 0.133389
610 2 0.26578 0.349722 0.140388
387 4 0.322127 0.390111 0.149055
302 4 0.318118 0.394003 0.167378
385 2 0.338729 0.371623 0.14627
740 4 0.356174 0.351141 0.123479
15 3 0.396994 0.351549 0.152569
386 4 0.355332 0.353136 0.143484
14 3 0.41468 0.384255 0.146636
495 4 0.411503 0.403024 0.140775
672 4 0.425757 0.349577 0.111317
11 1 0.417334 0.361431 0.149867
13 3 0.43056 0.357558 0.168535
12 3 0.427721 0.352465 0.131404
595 2 0.478877 0.364656 0.16077
596 4 0.501798 0.372248 0.154274
313 2 0.0153501 0.432858 0.0863738
627 4 0.192379 0.427604 0.118477
637 2 0.241134 0.478314 0.159208
639 4 0.234436 0.479546 0.13515
1438 2 0.232569 0.488604 0.101787
1439 4 0.24359 0.4746 0.119326
525 4 0.346142 0.472598 0.0956383
523 2 0.329157 0.490879 0.094054
493 2 0.421876 0.421347 0.12729
494 4 0.432249 0.439669 0.113804
17 3 0.0456524 0.0672357 0.171778
673 2 0.13555 0.0466033 0.250773
675 4 0.120597 0.0663639 0.247441
1505 4 0.203931 0.018206 0.201744
1504 2 0.217272 0.0109419 0.181883
689 4 0.210268 0.0236343 0.219642
688 2 0.187135 0.0245351 0.229087
693 4 0.231166 0.0568644 0.191286
690 4 0.164001 0.0254358 0.238532
691 2 0.246841 0.0725912 0.202782
21 1 0.388123 0.0681396 0.233677
23 3 0.405056 0.0541847 0.241222
24 3 0.369145 0.0653412 0.246733
25 3 0.383334 0.0634783 0.211906
759 4 0.384184 0.0697401 0.194017
757 2 0.399602 0.0617926 0.176008
742 2 0.455798 0.0347707 0.24471
744 4 0.449379 0.0219026 0.224255
380 4 0.00244974 0.138802 0.172948
379 2 0.0105903 0.154013 0.191046
381 4 0.0187309 0.169224 0.209144
511 2 0.0469468 0.162843 0.231837
513 4 0.0700347 0.153951 0.235451
578 4 0.0728583 0.134606 0.242513
237 4 0.15268 0.162648 0.185881
577 2 0.0821999 0.119922 0.22456
579 4 0.0915415 0.105239 0.206607
235 2 0.170421 0.14503 0.186119
449 4 0.174596 0.113011 0.177953
236 4 0.188162 0.127413 0.186357
546 4 0.18725 0.161048 0.243468
721 2 0.192775 0.119907 0.257681
722 4 0.191686 0.141987 0.245999
692 4 0.262516 0.0883179 0.214277
580 2 0.292416 0.105214 0.182769
581 4 0.287206 0.124262 0.198106
30 3 0.293541 0.120432 0.216065
26 1 0.304564 0.123082 0.235817
28 3 0.293274 0.111925 0.252742
27 3 0.325726 0.114264 0.233925
29 3 0.306271 0.145642 0.240967
22 3 0.395166 0.0899717 0.235379
333 4 0.408613 0.0911193 0.250484
312 4 0.411073 0.110128 0.193576
311 4 0.448277 0.136162 0.172629
310 2 0.429675 0.123145 0.183102
512 4 0.0238588 0.171735 0.228224
285 4 0.296735 0.221711 0.181037
284 4 0.247983 0.211698 0.185902
283 2 0.272359 0.216705 0.183469
764 4 0.409309 0.210648 0.220094
763 2 0.426841 0.228467 0.22063
520 2 0.476238 0.221685 0.253405
521 4 0.453535 0.211248 0.254316
395 4 0.0638366 0.263529 0.196271
394 2 0.0521428 0.262302 0.218337
396 4 0.0404491 0.261076 0.240404
363 4 0.0975394 0.263986 0.168704
361 2 0.113264 0.263996 0.188144
750 4 0.108591 0.32918 0.221571
362 4 0.128989 0.264006 0.207584
372 4 0.143156 0.25386 0.217462
748 2 0.0931618 0.309833 0.225151
749 4 0.0777328 0.290486 0.228732
370 2 0.161062 0.271205 0.219387
371 4 0.178967 0.288551 0.221312
345 4 0.23197 0.296362 0.240437
343 2 0.252451 0.298078 0.226199
344 4 0.272933 0.299794 0.21196
307 2 0.306978 0.299856 0.237523
309 4 0.28645 0.29447 0.224302
765 4 0.444374 0.246286 0.221166
528 4 0.480928 0.286468 0.201332
526 2 0.47294 0.268305 0.186119
646 2 0.0789281 0.369152 0.164909
536 4 0.172324 0.375884 0.167493
300 4 0.110454 0.338516 0.237945
648 4 0.0909356 0.360948 0.185249
298 2 0.118238 0.362148 0.240414
299 4 0.126022 0.385781 0.242883
290 4 0.236362 0.39925 0.230292
729 4 0.289395 0.373726 0.262387
597 4 0.455957 0.357063 0.167266
643 2 0.445703 0.354542 0.208987
644 4 0.447598 0.359437 0.233434
645 4 0.443809 0.349646 0.184541
263 4 0.0440262 0.471577 0.190404
262 2 0.0459325 0.453902 0.207986
264 4 0.0478389 0.436228 0.225569
417 4 0.154542 0.440654 0.206465
415 2 0.178559 0.438626 0.199812
638 4 0.247832 0.477082 0.183267
416 4 0.202575 0.436599 0.193159
291 4 0.217993 0.423805 0.190791
289 2 0.227178 0.411527 0.210542
768 4 0.216312 0.480058 0.243335
766 2 0.227092 0.482801 0.220941
767 4 0.237872 0.485544 0.198548
414 4 0.196421 0.476077 0.245873
1430 4 0.167453 0.494656 0.214266
301 2 0.320617 0.418862 0.168363
303 4 0.323115 0.44372 0.169348
437 4 0.278274 0.456302 0.244305
660 4 0.371292 0.480744 0.180085
658 2 0.356233 0.460799 0.179295
659 4 0.341174 0.440855 0.178505
231 4 0.37931 0.495324 0.189288
2755 2 0.00504016 0.0631805 0.328844
232 2 0.0392378 0.0330473 0.292304
233 4 0.0578429 0.0165124 0.294676
1403 4 0.0684058 0.00432711 0.305343
234 4 0.0206328 0.0495822 0.289932
2756 4 0.013775 0.0594691 0.305712
674 4 0.150503 0.0268427 0.254105
1464 4 0.146733 0.00113285 0.29018
1701 4 0.29638 0.0519327 0.302636
1699 2 0.288851 0.0319277 0.289664
1700 4 0.281321 0.0119227 0.276692
1516 2 0.362025 0.00451563 0.284989
1518 4 0.354201 0.0274301 0.291224
697 2 0.374891 0.0493499 0.323922
699 4 0.360793 0.0381525 0.306572
1747 2 0.468625 0.0185637 0.300927
1749 4 0.488796 0.0170221 0.315622
743 4 0.462218 0.0476387 0.265164
257 4 0.439169 0.0780833 0.331974
480 4 0.479884 0.0350362 0.322013
351 4 0.450328 0.0542715 0.279815
349 2 0.441236 0.0698805 0.297103
1748 4 0.448454 0.0201054 0.286232
530 4 0.0121121 0.154982 0.267663
397 2 0.0808182 0.141414 0.308526
399 4 0.067461 0.158916 0.296674
544 2 0.169532 0.17808 0.248066
398 4 0.0941754 0.123912 0.320377
732 4 0.110062 0.110444 0.325095
723 4 0.193864 0.0978267 0.269363
404 4 0.234115 0.134798 0.284639
403 2 0.2342 0.159333 0.289452
599 4 0.23145 0.137304 0.330187
249 4 0.249639 0.131031 0.298375
248 4 0.279143 0.0916024 0.289681
247 2 0.264391 0.111317 0.294028
632 4 0.355811 0.094052 0.286215
631 2 0.363784 0.112676 0.30087
633 4 0.371758 0.131299 0.315525
350 4 0.432143 0.0854894 0.314391
331 2 0.424092 0.108759 0.259109
332 4 0.439572 0.1264 0.267734
762 4 0.439431 0.130569 0.287629
760 2 0.458532 0.137854 0.302025
761 4 0.477633 0.145139 0.316421
390 4 0.0868073 0.243313 0.310788
392 4 0.13638 0.188821 0.263587
391 2 0.11992 0.184392 0.281879
393 4 0.10346 0.179962 0.300172
545 4 0.151814 0.195113 0.252665
388 2 0.102522 0.232523 0.326968
389 4 0.118237 0.221734 0.343149
405 4 0.234286 0.183869 0.294266
401 4 0.20443 0.253944 0.276976
400 2 0.215224 0.254251 0.299528
706 2 0.289941 0.186387 0.321066
707 4 0.313387 0.179707 0.315513
420 4 0.405198 0.1911 0.31097
443 4 0.0249369 0.265296 0.252818
444 4 0.0277632 0.292 0.295004
442 2 0.02635 0.278648 0.273911
402 4 0.226017 0.254558 0.32208
308 4 0.327505 0.305241 0.250745
496 2 0.31193 0.312488 0.304022
497 4 0.297878 0.315324 0.283536
498 4 0.325983 0.309651 0.324507
615 4 0.392766 0.330308 0.290179
543 4 0.409905 0.320066 0.295831
541 2 0.434354 0.325255 0.295133
2493 4 0.0152527 0.384944 0.311062
366 4 0.00375256 0.373774 0.242711
364 2 0.0093148 0.378279 0.266668
365 4 0.014877 0.382784 0.290625
603 4 0.0955882 0.368348 0.333466
601 2 0.0943349 0.385294 0.315124
734 4 0.135822 0.390095 0.260335
733 2 0.144789 0.387387 0.283517
602 4 0.0930816 0.402241 0.296782
735 4 0.153757 0.384679 0.306699
677 4 0.164979 0.381197 0.322185
676 2 0.188408 0.375515 0.315555
678 4 0.211838 0.369832 0.308926
433 2 0.328012 0.395308 0.326032
727 2 0.291288 0.38823 0.282665
434 4 0.313017 0.398001 0.306207
728 4 0.293181 0.402735 0.302944
613 2 0.377686 0.334262 0.309728
614 4 0.362607 0.338217 0.329276
542 4 0.458803 0.330444 0.294435
447 4 0.455355 0.367634 0.248876
445 2 0.442207 0.385721 0.260065
446 4 0.42906 0.403807 0.271255
1756 2 0.0766971 0.49866 0.272322
549 4 0.0216241 0.4636 0.332023
1757 4 0.0689534 0.475942 0.27933
776 4 0.0687862 0.460065 0.291545
777 4 0.0984658 0.419862 0.289677
775 2 0.083626 0.439963 0.290611
413 4 0.15594 0.467118 0.273833
412 2 0.176181 0.471598 0.259853
1435 2 0.246026 0.502788 0.330114
436 2 0.287304 0.473301 0.260264
438 4 0.296334 0.490299 0.276222
1437 4 0.269097 0.499646 0.339227
713 4 0.402536 0.451499 0.278727
593 4 0.397073 0.483482 0.330293
2862 4 0.497893 0.438712 0.284743
712 2 0.420845 0.458019 0.294457
714 4 0.439155 0.464539 0.310186
317 4 0.0678171 0.0606431 0.36037
428 4 0.0761131 0.0543986 0.342192
2584 2 0.997066 0.0742152 0.402157
2586 4 0.0177998 0.0816394 0.390318
427 2 0.0787232 0.0319682 0.331457
429 4 0.0813332 0.00953771 0.320722
731 4 0.124281 0.0920698 0.369378
1782 4 0.0995016 0.00327313 0.377619
606 4 0.187401 0.0670721 0.350998
604 2 0.204815 0.0686045 0.368874
605 4 0.222229 0.0701368 0.386751
683 4 0.281858 0.050708 0.374718
682 2 0.285981 0.0746894 0.380469
698 4 0.38899 0.0605472 0.341272
425 4 0.415825 0.0311966 0.411862
478 2 0.496202 0.0446039 0.338364
424 2 0.436681 0.0376642 0.399682
426 4 0.457538 0.0441317 0.387502
256 2 0.444312 0.0628385 0.351114
258 4 0.449456 0.0475937 0.370253
316 2 0.0548448 0.0815713 0.364718
318 4 0.0418724 0.1025 0.369066
730 2 0.117172 0.101257 0.347236
685 2 0.16625 0.125709 0.400457
687 4 0.179396 0.106476 0.391376
600 4 0.188873 0.129026 0.355075
598 2 0.210162 0.133165 0.342631
684 4 0.290104 0.0986707 0.38622
320 4 0.273571 0.101437 0.396453
514 2 0.442811 0.164611 0.403105
515 4 0.462803 0.156152 0.390698
2653 2 0.00470133 0.223551 0.396193
2654 4 0.0295613 0.223214 0.398848
474 4 0.227555 0.186969 0.369215
472 2 0.247238 0.195333 0.356261
708 4 0.266494 0.193066 0.326618
473 4 0.266921 0.203697 0.343307
418 2 0.418261 0.206489 0.325725
716 4 0.386407 0.254187 0.37352
419 4 0.431324 0.221879 0.34048
451 2 0.488421 0.175996 0.36534
453 4 0.467122 0.170906 0.377408
304 2 0.497313 0.221189 0.40712
306 4 0.485118 0.239803 0.418521
616 2 0.0803974 0.309484 0.387564
618 4 0.0622891 0.305899 0.404429
347 4 0.0415028 0.302154 0.405184
617 4 0.0985056 0.313068 0.370699
275 4 0.181197 0.271911 0.373822
274 2 0.197167 0.25319 0.378256
276 4 0.213138 0.234469 0.38269
508 2 0.244391 0.306169 0.367134
510 4 0.236482 0.309639 0.390598
374 4 0.22286 0.324153 0.39688
509 4 0.2523 0.302699 0.343669
488 4 0.298022 0.263748 0.377564
376 2 0.317309 0.277962 0.353715
377 4 0.317793 0.26167 0.372676
378 4 0.316825 0.294254 0.334754
487 2 0.290945 0.270946 0.400439
715 2 0.366872 0.260053 0.387982
717 4 0.347336 0.265919 0.402443
270 4 0.473694 0.255596 0.415838
269 4 0.481854 0.290396 0.380865
268 2 0.477774 0.272996 0.398351
406 2 0.0635881 0.402229 0.368637
407 4 0.0541801 0.41337 0.348326
681 4 0.0361349 0.41404 0.402376
408 4 0.0729962 0.391087 0.388948
373 2 0.216255 0.340556 0.414557
502 2 0.208106 0.394279 0.407461
435 4 0.343008 0.392614 0.345858
336 4 0.349105 0.407204 0.39249
561 4 0.468027 0.402111 0.410278
752 4 0.468973 0.408671 0.391748
559 2 0.459892 0.381037 0.420997
751 2 0.481094 0.414416 0.370647
547 2 0.0355311 0.446966 0.344477
548 4 0.0494381 0.430332 0.35693
500 4 0.102413 0.510655 0.379228
499 2 0.122467 0.502648 0.366621
501 4 0.14252 0.494642 0.354013
503 4 0.212682 0.414195 0.393052
668 4 0.300452 0.432262 0.397337
5 3 0.275422 0.452182 0.361938
1 1 0.297171 0.446143 0.358911
2 3 0.309972 0.465055 0.356154
4 3 0.304828 0.434546 0.377493
3 3 0.29915 0.432916 0.339949
667 2 0.315721 0.444653 0.412782
753 4 0.493214 0.420162 0.349546
718 2 0.0657012 0.0619621 0.493698
368 4 0.0812413 0.0333601 0.428959
719 4 0.0884795 0.0609743 0.483434
367 2 0.0991806 0.0445723 0.442288
369 4 0.11712 0.0557846 0.455616
341 4 0.185603 0.0257183 0.474019
340 2 0.183874 0.0479214 0.485387
2430 4 0.200646 0.0125232 0.476287
1180 2 0.247761 0.0656745 0.473757
1182 4 0.22927 0.081817 0.468996
439 2 0.288714 0.995577 0.436922
1181 4 0.266253 0.049532 0.478518
441 4 0.27111 0.00518481 0.451855
726 4 0.287778 0.0684754 0.434954
724 2 0.309469 0.0573324 0.42943
432 4 0.297056 0.0627769 0.485649
963 4 0.281425 0.0503414 0.491208
430 2 0.313958 0.0792517 0.493901
725 4 0.33116 0.0461894 0.423907
2878 2 0.494955 0.079047 0.4393
2880 4 0.474673 0.0885869 0.45038
459 4 0.00482943 0.151137 0.433347
1034 4 0.111497 0.145506 0.48484
686 4 0.153105 0.144942 0.409539
321 4 0.258352 0.128372 0.435742
319 2 0.265961 0.114905 0.416098
468 4 0.364425 0.164894 0.420303
574 2 0.395297 0.149994 0.441429
576 4 0.382684 0.134696 0.456662
575 4 0.407909 0.165292 0.426195
516 4 0.422819 0.17307 0.415512
641 4 0.495736 0.126965 0.492728
642 4 0.465117 0.0973089 0.466581
640 2 0.480426 0.112137 0.479654
458 4 0.0210417 0.197411 0.443175
457 2 0.0129356 0.174274 0.438261
470 4 0.0182965 0.21619 0.493543
260 4 0.0786514 0.230649 0.43845
261 4 0.0881284 0.201755 0.47815
259 2 0.0833899 0.216202 0.4583
1035 4 0.104497 0.19497 0.487068
1033 2 0.107997 0.170238 0.485954
411 4 0.254742 0.223329 0.477055
409 2 0.27698 0.211918 0.476391
410 4 0.299218 0.200507 0.475727
466 2 0.354437 0.186196 0.428768
467 4 0.344449 0.207498 0.437234
346 2 0.0442884 0.29483 0.428928
348 4 0.0470741 0.287506 0.452672
695 4 0.0886263 0.252615 0.478088
694 2 0.1096 0.261765 0.488166
10 3 0.162047 0.32233 0.496886
696 4 0.130573 0.270915 0.498244
650 4 0.242135 0.302363 0.448222
489 4 0.283868 0.278145 0.423315
651 4 0.284528 0.276313 0.443228
649 2 0.263331 0.289338 0.445725
812 4 0.326067 0.300306 0.489864
267 4 0.345334 0.267728 0.42262
266 4 0.366425 0.295815 0.458214
265 2 0.355879 0.281772 0.440417
811 2 0.34504 0.286313 0.498192
2456 4 0.493418 0.297705 0.445927
583 2 0.45664 0.277984 0.4548
584 4 0.480057 0.2833 0.447831
585 4 0.433223 0.272669 0.461769
7 3 0.135533 0.348565 0.498154
326 4 0.111489 0.343321 0.434408
327 4 0.126132 0.338423 0.481972
325 2 0.11881 0.340872 0.45819
6 1 0.158199 0.344695 0.498795
711 4 0.169476 0.367207 0.463994
8 3 0.168238 0.355987 0.481184
375 4 0.20965 0.356959 0.432235
504 4 0.20353 0.374363 0.421869
709 2 0.166288 0.375834 0.440743
710 4 0.1631 0.38446 0.417492
334 2 0.359322 0.394788 0.411637
238 2 0.390319 0.375499 0.466398
240 4 0.380118 0.372837 0.443726
335 4 0.36954 0.382371 0.430784
239 4 0.40052 0.378162 0.489071
560 4 0.451756 0.359963 0.431715
383 4 0.0747875 0.437676 0.49676
680 4 0.0308756 0.445424 0.440951
1381 2 0.0136353 0.475255 0.448106
1383 4 0.0179775 0.45157 0.45484
679 2 0.0335053 0.429732 0.421663
935 4 0.0201898 0.457065 0.5075
570 4 0.139662 0.492407 0.428323
540 4 0.100074 0.501745 0.462607
384 4 0.112992 0.449055 0.466566
382 2 0.0938896 0.443365 0.481663
569 4 0.111228 0.456974 0.449221
568 2 0.125445 0.474691 0.438772
634 2 0.219405 0.460867 0.446623
636 4 0.219037 0.471995 0.424235
772 2 0.236076 0.42285 0.490519
635 4 0.219772 0.449738 0.46901
774 4 0.217493 0.43027 0.475526
669 4 0.330989 0.457043 0.428226
586 2 0.394771 0.432156 0.437093
588 4 0.377215 0.414364 0.437723
587 4 0.412328 0.449948 0.436463
1126 2 0.026234 0.0607203 0.53487
1127 4 0.027739 0.0515141 0.511672
1128 4 0.0247289 0.0699265 0.558069
2236 2 0.00683659 0.997767 0.5157
720 4 0.0429229 0.06295 0.503962
2237 4 0.0151332 0.0194543 0.506426
1058 4 0.130169 0.0548738 0.554201
1057 2 0.13794 0.0786086 0.553003
1030 2 0.234967 0.0696501 0.580591
342 4 0.182145 0.0701245 0.496754
1152 4 0.16454 0.0766927 0.490061
961 2 0.282429 0.0385127 0.513214
962 4 0.283434 0.0266839 0.535219
1217 4 0.3892 0.0382403 0.517513
841 2 0.365818 0.0735382 0.512328
842 4 0.381382 0.0547425 0.517773
1216 2 0.398135 0.0308419 0.539663
1218 4 0.407071 0.0234435 0.561812
1060 2 0.489178 0.00892297 0.528572
1062 4 0.47578 0.0167884 0.548163
937 2 0.11119 0.160437 0.56933
1151 4 0.170283 0.118552 0.51681
1059 4 0.145712 0.102344 0.551806
1155 4 0.152264 0.111476 0.56895
1150 2 0.167411 0.0976225 0.503436
1153 2 0.164808 0.128429 0.582383
1032 4 0.245167 0.0883053 0.567433
1154 4 0.177353 0.145381 0.595815
898 2 0.310393 0.144252 0.558721
899 4 0.286397 0.14068 0.55267
431 4 0.330859 0.0957266 0.502154
843 4 0.350253 0.0923339 0.506883
900 4 0.334389 0.147824 0.564772
3158 4 0.489039 0.146019 0.499036
3157 2 0.474969 0.165206 0.506722
878 4 0.0589631 0.192586 0.567563
471 4 0.0332221 0.175062 0.517759
469 2 0.0257593 0.195626 0.505651
938 4 0.102117 0.178934 0.555163
797 4 0.235491 0.221984 0.57549
856 2 0.241068 0.195581 0.552992
857 4 0.231991 0.174709 0.54264
858 4 0.250145 0.216452 0.563343
3159 4 0.460898 0.184392 0.514407
1258 2 0.157444 0.273513 0.524161
1260 4 0.148086 0.264169 0.502941
1136 4 0.0992639 0.331071 0.561667
1259 4 0.166801 0.282857 0.545382
873 4 0.379775 0.259508 0.507675
871 2 0.401786 0.26362 0.518802
813 4 0.364014 0.272319 0.506519
872 4 0.423797 0.267732 0.529928
953 4 0.443393 0.31856 0.574976
1135 2 0.113209 0.347235 0.574685
897 4 0.148111 0.365139 0.584887
9 3 0.166569 0.352473 0.51899
1189 2 0.227935 0.357136 0.54317
896 4 0.193056 0.360177 0.56353
1191 4 0.2035 0.354673 0.547863
895 2 0.170583 0.362658 0.574208
1190 4 0.252371 0.3596 0.538476
773 4 0.254658 0.415429 0.505513
802 2 0.270184 0.393183 0.523515
803 4 0.268425 0.369806 0.532211
804 4 0.271943 0.416559 0.514818
929 4 0.337334 0.404682 0.553118
928 2 0.358288 0.399014 0.565527
930 4 0.379243 0.393346 0.577935
925 2 0.472573 0.376508 0.510413
927 4 0.479675 0.400479 0.510055
926 4 0.465471 0.352537 0.510771
1001 4 0.452456 0.40529 0.55358
1171 2 0.238998 0.436615 0.542299
1173 4 0.230885 0.44466 0.564539
1172 4 0.24711 0.428569 0.520058
2243 4 0.171425 0.509617 0.591053
882 4 0.331299 0.43545 0.522322
880 2 0.323009 0.452871 0.538228
881 4 0.314719 0.470291 0.554134
1952 4 0.329733 0.481849 0.56388
1951 2 0.342144 0.490882 0.583617
1000 2 0.447873 0.427056 0.565001
661 2 0.480314 0.475325 0.521909
663 4 0.483687 0.450594 0.523389
662 4 0.47694 0.500056 0.520429
2319 4 0.0654939 0.998999 0.659761
945 4 0.0682128 0.0184178 0.664029
1185 4 0.00329125 0.0249635 0.639673
1183 2 0.0124537 0.0428061 0.654602
943 2 0.0688662 0.042173 0.671803
825 4 0.117652 0.016953 0.628677
951 4 0.233585 0.0408913 0.608226
1031 4 0.224767 0.050995 0.593749
949 2 0.233435 0.0167634 0.601669
1283 4 0.187965 0.0770406 0.632411
808 2 0.475313 0.0922508 0.625989
810 4 0.454249 0.085115 0.637415
43 3 0.437276 0.0556788 0.661679
45 3 0.460517 0.0847373 0.655925
1082 4 0.0429694 0.106038 0.653108
1083 4 0.0709943 0.096576 0.612787
1081 2 0.0569818 0.101307 0.632947
939 4 0.120264 0.14194 0.583497
909 4 0.158517 0.167011 0.661796
1284 4 0.181823 0.117695 0.660875
1282 2 0.184894 0.0973677 0.646643
1221 4 0.180802 0.165575 0.5946
1005 4 0.331387 0.10353 0.632991
1003 2 0.3438 0.100992 0.654547
809 4 0.496377 0.0993866 0.614563
877 2 0.0744641 0.209244 0.577927
1208 4 0.0639046 0.259442 0.639625
879 4 0.089965 0.225902 0.58829
1272 4 0.0999229 0.216849 0.602131
1270 2 0.117979 0.208547 0.617304
1271 4 0.136035 0.200245 0.632478
1212 4 0.205534 0.175339 0.656988
1219 2 0.185674 0.171074 0.6185
1220 4 0.190546 0.176572 0.6424
796 2 0.242495 0.244163 0.584666
1210 2 0.229637 0.175983 0.663607
791 4 0.315397 0.249098 0.577436
906 4 0.487694 0.216485 0.621702
1024 2 0.421404 0.198878 0.645291
1026 4 0.437461 0.203494 0.626689
904 2 0.505368 0.223203 0.605341
1244 4 0.0202766 0.258808 0.620339
1243 2 0.0285702 0.277262 0.635031
1245 4 0.0368638 0.295716 0.649722
1207 2 0.0817666 0.265365 0.656088
948 4 0.145394 0.295678 0.605511
798 4 0.249499 0.266342 0.593842
946 2 0.16952 0.295199 0.612057
947 4 0.193647 0.29472 0.618604
1239 4 0.249105 0.332554 0.598754
790 2 0.305695 0.270955 0.584738
792 4 0.295993 0.292813 0.592039
1238 4 0.294753 0.313163 0.592355
1237 2 0.271929 0.322858 0.595554
954 4 0.448389 0.319585 0.624722
952 2 0.445891 0.319072 0.599849
3123 4 0.504269 0.286048 0.648771
3121 2 0.490697 0.26988 0.662172
1039 2 0.0473496 0.411745 0.621567
1041 4 0.0236915 0.404705 0.617578
984 4 0.00236002 0.344475 0.630853
1137 4 0.127154 0.363398 0.587703
993 4 0.088726 0.411255 0.620862
992 4 0.123691 0.399153 0.654503
991 2 0.106209 0.405204 0.637683
1204 2 0.392271 0.38609 0.613035
1206 4 0.388124 0.379871 0.589175
1205 4 0.396418 0.39231 0.636895
1040 4 0.0710078 0.418785 0.625555
2129 4 0.0144227 0.493524 0.638013
1159 2 0.16036 0.443556 0.613435
1160 4 0.137099 0.451799 0.609414
1188 4 0.207863 0.480261 0.633225
1161 4 0.183621 0.435313 0.617455
889 2 0.298823 0.435249 0.594052
891 4 0.27941 0.45015 0.588928
890 4 0.318236 0.420347 0.599175
1002 4 0.443289 0.448821 0.576422
1910 4 0.435072 0.46057 0.590468
1267 2 0.442309 0.505836 0.653071
1909 2 0.425425 0.483637 0.590593
1269 4 0.461097 0.498799 0.638149
1184 4 0.0216161 0.0606487 0.669531
944 4 0.0695195 0.0659283 0.679577
1076 4 0.078617 0.0820714 0.684621
1163 4 0.486643 0.029454 0.667644
42 3 0.467677 0.0603742 0.683276
41 1 0.451074 0.0713733 0.671764
845 4 0.491995 0.025024 0.750457
864 4 0.0702517 0.104911 0.746569
1075 2 0.0709366 0.0902116 0.70698
1077 4 0.0632562 0.0983518 0.729339
1105 2 0.0776207 0.155679 0.730021
1106 4 0.0926033 0.148336 0.748644
907 2 0.170398 0.166488 0.68379
908 4 0.182279 0.165965 0.705784
1227 4 0.200188 0.159123 0.703145
1148 4 0.219764 0.112096 0.736578
1225 2 0.214289 0.140998 0.713036
1226 4 0.228389 0.122873 0.722926
829 2 0.330403 0.161054 0.716239
831 4 0.353909 0.155585 0.722777
1004 4 0.356214 0.098453 0.676102
44 3 0.438842 0.0842366 0.686708
1107 4 0.0626382 0.163022 0.711399
851 4 0.0688341 0.18137 0.705004
852 4 0.0538845 0.2285 0.697523
850 2 0.0613593 0.204935 0.701263
1215 4 0.00111509 0.235375 0.725212
1178 4 0.0386115 0.21847 0.687453
1177 2 0.0243618 0.235919 0.676605
1213 2 0.996567 0.216095 0.740468
1179 4 0.010112 0.253367 0.665757
830 4 0.306898 0.166523 0.709701
1211 4 0.25374 0.176628 0.670226
886 2 0.286342 0.185173 0.692194
888 4 0.26244 0.187172 0.685134
887 4 0.310245 0.183174 0.699253
1064 4 0.27539 0.25353 0.723706
1193 4 0.363498 0.233366 0.667748
1192 2 0.35893 0.216417 0.685553
1194 4 0.354362 0.199467 0.703358
1262 4 0.407844 0.221942 0.739315
1143 4 0.404207 0.183616 0.681025
1142 4 0.436912 0.161806 0.711935
1025 4 0.405347 0.194262 0.663893
1141 2 0.42056 0.172711 0.69648
3122 4 0.477125 0.253712 0.675572
3356 4 0.492438 0.228563 0.736435
3355 2 0.49028 0.235839 0.712611
1261 2 0.426901 0.234507 0.729109
1145 4 0.493816 0.228512 0.755829
3357 4 0.488121 0.243115 0.688787
1263 4 0.445957 0.247072 0.718904
821 4 0.143115 0.256225 0.735357
1209 4 0.0996285 0.271288 0.672552
820 2 0.164837 0.258473 0.747533
1065 4 0.238106 0.285133 0.713129
1063 2 0.256748 0.269332 0.718418
806 4 0.338414 0.333855 0.667576
3274 2 0.00802622 0.384769 0.738864
892 2 0.0563606 0.408455 0.70646
894 4 0.0344792 0.39713 0.710719
3276 4 0.0265041 0.382655 0.722152
893 4 0.0782419 0.41978 0.702201
1067 4 0.159261 0.414746 0.689844
942 4 0.129528 0.417766 0.75055
1028 4 0.225623 0.399215 0.684151
1066 2 0.183115 0.409217 0.684783
1068 4 0.206968 0.403689 0.679722
1027 2 0.2504 0.402558 0.684468
1029 4 0.275177 0.405902 0.684785
807 4 0.361034 0.362241 0.701975
805 2 0.349724 0.348048 0.684775
1019 4 0.401726 0.39583 0.720133
1018 2 0.381983 0.380499 0.72076
1230 4 0.347513 0.415493 0.753865
1020 4 0.362241 0.365168 0.721387
1281 4 0.0216711 0.460075 0.731306
1279 2 0.00852543 0.443001 0.718623
1983 4 0.0194962 0.475185 0.717265
1981 2 0.0258044 0.493177 0.733442
1280 4 0.99538 0.425927 0.70594
2128 2 0.0246754 0.502172 0.659114
2172 4 0.112887 0.490064 0.675259
940 2 0.138394 0.420469 0.727328
941 4 0.147259 0.423173 0.704106
1174 2 0.215198 0.488799 0.713782
1175 4 0.234747 0.474054 0.708724
1987 2 0.330771 0.490328 0.747631
1139 4 0.286395 0.420872 0.676157
1138 2 0.301699 0.437163 0.687364
1140 4 0.317003 0.453453 0.698571
1228 2 0.344542 0.437584 0.742537
1229 4 0.34157 0.459675 0.731208
1989 4 0.348164 0.476653 0.735983
3329 4 0.498113 0.466599 0.741388
1100 4 0.474346 0.447589 0.714035
1099 2 0.479507 0.468375 0.701133
1101 4 0.484668 0.489162 0.68823
1203 4 0.0740798 0.0650087 0.776825
1202 4 0.0894466 0.0204568 0.7601
1201 2 0.0817632 0.0427327 0.768463
911 4 0.10922 0.0637223 0.790685
2049 4 0.104588 0.00762716 0.761036
910 2 0.104773 0.0791049 0.809889
1149 4 0.224328 0.0718949 0.765967
1255 2 0.295729 0.0714643 0.79694
1256 4 0.308592 0.0554886 0.811241
1050 4 0.336483 0.0223444 0.760223
975 4 0.382273 0.998856 0.842374
817 2 0.360249 0.0792242 0.83721
846 4 0.474372 0.0270162 0.797214
1113 4 0.458629 0.0382075 0.804728
844 2 0.483183 0.0260201 0.773835
1111 2 0.443639 0.0581544 0.803117
1112 4 0.428649 0.0781013 0.801506
980 4 0.441048 0.038998 0.831919
862 2 0.0473146 0.107417 0.756202
863 4 0.0243775 0.109923 0.765834
833 4 0.00860905 0.105283 0.777342
832 2 0.998331 0.109425 0.799756
33 3 0.118348 0.140037 0.78495
912 4 0.100325 0.0944875 0.829093
31 1 0.110968 0.161444 0.779881
35 3 0.0938235 0.160416 0.764927
1147 2 0.222046 0.0919956 0.751272
1130 4 0.200731 0.151717 0.762041
840 4 0.240793 0.125735 0.836725