ITEM: TIMESTEP
1850000
ITEM: NUMBER OF ATOMS
4590
ITEM: BOX BOUNDS pp pp pp
-9.9985700000000008e+00 9.9985700000000008e+00
-9.9985700000000008e+00 9.9985700000000008e+00
-9.9985700000000008e+00 9.9985700000000008e+00
ITEM: ATOMS id type xs ys zs
463 2 0.0623171 0.0794607 0.00407993
1668 4 0.0824101 0.0270435 0.0521392
566 4 0.173305 0.0372908 0.0580612
1474 2 0.249376 0.0142035 0.0921216
565 2 0.190654 0.0510779 0.0696417
1475 4 0.259884 0.00922826 0.0699853
492 4 0.256344 0.0121827 0.0495559
490 2 0.266242 0.0318123 0.0376441
491 4 0.27614 0.0514418 0.0257322
2264 4 0.286409 0.0468538 0.00745566
986 4 0.304336 0.0336284 0.997985
2145 4 0.395059 0.0236069 0.0319685
2143 2 0.377343 0.0187088 0.0150168
745 2 0.456796 0.059168 0.0160839
2724 4 0.493125 0.0462598 0.07006
747 4 0.475659 0.074046 0.00915676
2722 2 0.468825 0.0520836 0.0709592
746 4 0.437932 0.0442901 0.0230111
2469 4 0.4849 0.0715896 0.027364
2975 4 0.517997 0.00806916 0.00586392
465 4 0.0526039 0.100903 0.0125096
701 4 0.0556612 0.120774 0.0128263
700 2 0.0471617 0.142675 0.021386
702 4 0.0386621 0.164576 0.0299457
567 4 0.208003 0.0648649 0.0812223
360 4 0.195325 0.16672 0.0205565
358 2 0.21376 0.150348 0.0247157
359 4 0.232195 0.133976 0.0288749
1133 4 0.17916 0.165095 0.00727239
423 4 0.07152 0.179837 0.00239499
555 4 0.0353211 0.184773 0.0283863
553 2 0.0271912 0.202887 0.0131885
554 4 0.0190613 0.221 0.997991
422 4 0.093043 0.192906 0.0456002
421 2 0.0822815 0.186371 0.0239976
737 4 0.21497 0.228569 0.0509951
736 2 0.217706 0.205508 0.0602643
354 4 0.238131 0.172683 0.0678126
738 4 0.220443 0.182448 0.0695335
506 4 0.227447 0.244899 0.0516623
352 2 0.258562 0.167659 0.0813215
1071 4 0.385128 0.251275 0.0242386
1069 2 0.400995 0.241146 0.00778194
2807 4 0.0143967 0.280422 0.0367846
294 4 0.14259 0.317201 0.0448586
456 4 0.140413 0.33307 0.0570209
292 2 0.166206 0.309272 0.0470042
507 4 0.205665 0.289581 0.0462055
293 4 0.189822 0.301342 0.0491498
505 2 0.216556 0.26724 0.0489339
481 2 0.295674 0.309245 0.00471248
482 4 0.312554 0.324529 0.0150393
573 4 0.369101 0.26317 0.0180058
571 2 0.359536 0.277779 0.035902
572 4 0.349972 0.292388 0.0537982
741 4 0.347406 0.293768 0.0745984
324 4 0.48232 0.279795 0.0391827
323 4 0.436557 0.264197 0.0264104
322 2 0.459438 0.271996 0.0327965
103 3 0.503404 0.332323 0.03737
1169 4 0.0646045 0.374903 0.988928
329 4 0.048601 0.38343 0.998369
454 2 0.141468 0.351214 0.0741928
608 4 0.245181 0.378532 0.076317
252 4 0.265213 0.374843 0.0709081
250 2 0.275638 0.390738 0.0546648
251 4 0.286063 0.406633 0.0384214
524 4 0.304011 0.411322 0.0443582
523 2 0.32041 0.421094 0.0605069
226 2 0.393655 0.390458 0.0346723
228 4 0.396154 0.405083 0.0547977
671 4 0.408421 0.344963 0.0558185
227 4 0.391156 0.375832 0.014547
670 2 0.400505 0.347806 0.079365
1303 2 0.388882 0.34472 0.991987
1305 4 0.386453 0.356768 0.0137612
281 4 0.42759 0.349928 0.0538723
280 2 0.452418 0.348299 0.0514019
282 4 0.477246 0.346671 0.0489316
104 3 0.487511 0.349149 0.067515
1045 2 0.490056 0.342886 0.00759127
1047 4 0.485287 0.339857 0.0319482
552 4 0.0164389 0.437085 0.0345106
314 4 0.0232191 0.440174 0.0533522
313 2 0.0391737 0.426673 0.0670764
795 4 0.172486 0.452567 0.00393383
793 2 0.166884 0.476798 0.00651728
244 2 0.235634 0.478818 0.013807
243 4 0.22957 0.49114 0.0692932
245 4 0.212985 0.472638 0.00520582
1440 4 0.242511 0.478958 0.0796314
1224 4 0.178364 0.444172 0.986222
271 2 0.272995 0.492094 0.0531995
272 4 0.254246 0.479669 0.0641221
37 3 0.329084 0.463814 0.0111531
40 3 0.359796 0.443424 0.00532648
525 4 0.336809 0.430865 0.0766556
39 3 0.361366 0.480924 0.00233498
2479 2 0.00292123 0.0251888 0.130317
1422 4 0.0297544 0.0161793 0.163427
2480 4 0.0211051 0.014817 0.14399
18 3 0.0699272 0.0135585 0.140742
590 4 0.00163485 0.0795853 0.0868112
652 2 0.230685 0.0516475 0.147345
654 4 0.224891 0.0605579 0.124713
1476 4 0.238868 0.0191786 0.114258
653 4 0.23648 0.0427372 0.169977
1661 4 0.331823 0.998388 0.158829
297 4 0.37792 0.015637 0.103966
485 4 0.362327 0.00353448 0.108602
295 2 0.383113 0.0382793 0.0947167
296 4 0.388306 0.0609215 0.0854677
557 4 0.40126 0.0723619 0.0972409
2723 4 0.444526 0.0579073 0.0718583
1759 2 0.44975 0.00678904 0.1356
1760 4 0.470127 0.0179778 0.126394
2744 4 0.487907 0.0233168 0.133426
235 2 0.109442 0.158048 0.147245
236 4 0.120296 0.138392 0.158245
758 4 0.381823 0.108646 0.159867
556 2 0.418228 0.0902395 0.10144
771 4 0.433475 0.126242 0.0967785
558 4 0.435197 0.108117 0.10564
769 2 0.444862 0.144196 0.109937
770 4 0.456249 0.162151 0.123096
338 4 0.0558165 0.255894 0.125574
237 4 0.0985884 0.177704 0.136244
476 4 0.21792 0.202532 0.157228
477 4 0.189883 0.202333 0.11582
475 2 0.203902 0.202432 0.136524
353 4 0.278994 0.162635 0.0948304
461 4 0.283303 0.177007 0.109069
460 2 0.306992 0.184912 0.110297
462 4 0.330681 0.192817 0.111525
278 4 0.298296 0.238053 0.118617
277 2 0.299311 0.244467 0.142762
254 4 0.396746 0.231902 0.0887068
630 4 0.405198 0.214847 0.0939172
253 2 0.378988 0.249488 0.089483
628 2 0.422524 0.218359 0.111599
624 4 0.432139 0.22495 0.147376
629 4 0.43985 0.22187 0.129281
622 2 0.436645 0.246494 0.159239
337 2 0.0558675 0.268173 0.147354
612 4 0.244168 0.32404 0.112075
610 2 0.241078 0.301116 0.121568
611 4 0.237988 0.278192 0.131061
754 2 0.328115 0.265995 0.102255
755 4 0.310945 0.252419 0.11434
739 2 0.342524 0.317371 0.0812483
255 4 0.361231 0.267074 0.0902591
756 4 0.345286 0.279572 0.0901706
596 4 0.400145 0.304277 0.140766
619 2 0.0663653 0.389875 0.10942
620 4 0.0789921 0.385183 0.130485
621 4 0.0537385 0.394566 0.0883551
315 4 0.0551283 0.413172 0.0808006
455 4 0.142524 0.369357 0.0913648
647 4 0.0851483 0.394836 0.146153
537 4 0.113245 0.373971 0.134333
535 2 0.137697 0.372808 0.12924
536 4 0.162149 0.371645 0.124148
646 2 0.0923303 0.395229 0.170099
607 2 0.241295 0.355875 0.0861526
609 4 0.237409 0.333218 0.0959881
386 4 0.325927 0.34759 0.10255
595 2 0.396714 0.328587 0.145499
740 4 0.337642 0.340974 0.0878981
387 4 0.344994 0.373977 0.14051
385 2 0.335461 0.360784 0.12153
302 4 0.344709 0.396303 0.136365
12 3 0.388883 0.369344 0.109444
11 1 0.385418 0.383511 0.127233
15 3 0.363231 0.383825 0.13236
672 4 0.392589 0.350648 0.102911
14 3 0.392484 0.404813 0.121344
495 4 0.402331 0.420681 0.114757
13 3 0.397637 0.375854 0.145411
597 4 0.393282 0.352898 0.150231
645 4 0.402433 0.364504 0.16475
626 4 0.182987 0.427948 0.139862
1438 2 0.237639 0.482285 0.103929
625 2 0.197634 0.441325 0.155084
1439 4 0.232766 0.485612 0.128226
1559 4 0.305818 0.485156 0.0942359
301 2 0.34664 0.41761 0.149307
493 2 0.426695 0.423744 0.110047
494 4 0.45106 0.426807 0.105337
1583 4 0.47128 0.460061 0.113408
1582 2 0.460816 0.480821 0.104205
1584 4 0.450353 0.501582 0.0950022
690 4 0.156984 0.00160952 0.223935
673 2 0.132254 0.010576 0.242806
675 4 0.110349 0.0226207 0.242298
693 4 0.237358 0.0488767 0.190227
691 2 0.258695 0.0469618 0.203121
692 4 0.280032 0.045047 0.216014
1700 4 0.328063 0.0579645 0.25491
1699 2 0.305982 0.0577221 0.243182
1701 4 0.283901 0.0574798 0.231454
23 3 0.339129 0.0738506 0.246691
21 1 0.360059 0.0699699 0.237455
25 3 0.359995 0.0756485 0.215401
22 3 0.365063 0.0476116 0.239508
759 4 0.370634 0.0780427 0.197801
511 2 0.0150488 0.121258 0.215156
578 4 0.049329 0.137052 0.228501
513 4 0.0381244 0.121691 0.224774
577 2 0.0523291 0.161812 0.230259
318 4 0.0677145 0.113019 0.2484
449 4 0.135512 0.137714 0.170534
448 2 0.141233 0.115007 0.1793
450 4 0.146954 0.0922998 0.188066
28 3 0.244249 0.146096 0.172326
27 3 0.227634 0.154003 0.2051
546 4 0.200927 0.135638 0.244602
26 1 0.247885 0.150208 0.194871
580 2 0.295537 0.112937 0.199882
581 4 0.276275 0.128375 0.195907
30 3 0.257911 0.132188 0.204538
582 4 0.3148 0.0974991 0.203857
29 3 0.261228 0.169016 0.197442
24 3 0.37612 0.0823205 0.248764
757 2 0.376228 0.0933442 0.178834
311 4 0.455783 0.128609 0.206941
531 4 0.999466 0.221432 0.251023
529 2 0.0194986 0.210611 0.240689
530 4 0.0395308 0.19979 0.230355
579 4 0.0553292 0.186573 0.232017
372 4 0.149369 0.237958 0.182953
362 4 0.129834 0.235538 0.17892
370 2 0.15948 0.233978 0.205471
371 4 0.169592 0.229998 0.22799
279 4 0.300326 0.250881 0.166908
284 4 0.294944 0.245702 0.226586
283 2 0.29426 0.240591 0.20212
285 4 0.293575 0.23548 0.177654
310 2 0.450266 0.152402 0.201588
312 4 0.444748 0.176194 0.196236
520 2 0.497942 0.174916 0.244287
763 2 0.434737 0.194509 0.245167
765 4 0.411086 0.200773 0.240011
339 4 0.0559184 0.280453 0.169135
396 4 0.0654289 0.305014 0.214326
443 4 0.0691952 0.296484 0.23146
394 2 0.0715871 0.292854 0.193364
363 4 0.0955114 0.271751 0.175552
395 4 0.0777454 0.280694 0.172403
361 2 0.112673 0.253645 0.177236
623 4 0.441152 0.268038 0.171101
527 4 0.450754 0.286449 0.175794
526 2 0.470693 0.290005 0.190457
528 4 0.490631 0.293561 0.205119
264 4 0.034503 0.389578 0.216412
262 2 0.0294144 0.411548 0.22721
648 4 0.0995123 0.395621 0.194046
300 4 0.115723 0.383704 0.194868
298 2 0.121953 0.366847 0.212252
299 4 0.128183 0.349991 0.229636
289 2 0.222984 0.418609 0.243715
345 4 0.272874 0.335887 0.214942
343 2 0.289163 0.341301 0.233123
344 4 0.305451 0.346714 0.251305
643 2 0.409292 0.373732 0.186954
644 4 0.416151 0.382959 0.209157
447 4 0.401891 0.389763 0.222294
445 2 0.415023 0.40419 0.237933
263 4 0.0243257 0.433518 0.238009
637 2 0.236268 0.491776 0.173822
638 4 0.222502 0.471662 0.168245
627 4 0.212281 0.454701 0.170307
417 4 0.177925 0.481543 0.200277
290 4 0.219933 0.436278 0.226288
416 4 0.201878 0.445937 0.225951
415 2 0.189902 0.46374 0.213114
303 4 0.348571 0.438916 0.162249
659 4 0.35387 0.456707 0.170874
658 2 0.353623 0.474479 0.18846
660 4 0.353375 0.492251 0.206046
2861 4 0.484348 0.41251 0.238644
446 4 0.428155 0.418617 0.253573
1403 4 0.0548833 0.0147916 0.283429
232 2 0.0523963 0.0487418 0.292734
234 4 0.0577659 0.0724605 0.286923
317 4 0.0431685 0.0766733 0.272425
233 4 0.0470267 0.0250231 0.298545
723 4 0.213443 0.0683865 0.255601
1406 4 0.21454 0.018218 0.303475
698 4 0.378306 0.0512652 0.255567
249 4 0.33772 0.0536127 0.324955
697 2 0.384311 0.0290215 0.26528
699 4 0.390316 0.00677789 0.274993
333 4 0.385596 0.0694219 0.259546
331 2 0.404862 0.0797711 0.271667
247 2 0.346771 0.0707774 0.340723
743 4 0.455447 0.0314282 0.285592
742 2 0.460594 0.0108504 0.272355
351 4 0.468628 0.0440241 0.275578
349 2 0.456047 0.0648342 0.281396
350 4 0.443467 0.0856442 0.287215
316 2 0.0554415 0.0948461 0.260412
393 4 0.113547 0.141052 0.32237
399 4 0.111823 0.125561 0.335814
391 2 0.13118 0.137785 0.304947
392 4 0.148813 0.134518 0.287523
545 4 0.162119 0.143715 0.275088
721 2 0.208131 0.0927273 0.253483
722 4 0.202819 0.117068 0.251365
544 2 0.181523 0.139676 0.259845
599 4 0.204436 0.128577 0.303258
404 4 0.217727 0.142545 0.305703
598 2 0.18856 0.124584 0.322157
403 2 0.229322 0.154583 0.287108
762 4 0.40965 0.132574 0.2873
332 4 0.424127 0.0901203 0.283788
761 4 0.458219 0.14131 0.29539
760 2 0.433934 0.136942 0.291345
402 4 0.2289 0.2233 0.241355
401 4 0.225872 0.18161 0.268805
400 2 0.227386 0.202455 0.25508
405 4 0.240917 0.166622 0.268512
764 4 0.458388 0.188246 0.250323
521 4 0.474027 0.174543 0.251573
442 2 0.0789027 0.294284 0.254397
444 4 0.0886101 0.292084 0.277334
496 2 0.327335 0.289376 0.316637
497 4 0.339116 0.285554 0.294917
541 2 0.456617 0.27866 0.310848
542 4 0.469525 0.257425 0.313611
615 4 0.440241 0.312707 0.323551
613 2 0.419908 0.327027 0.326136
543 4 0.443708 0.299894 0.308085
749 4 0.049206 0.360426 0.277739
365 4 0.0107419 0.366473 0.313966
364 2 0.0226462 0.356174 0.294539
366 4 0.0345504 0.345875 0.275113
748 2 0.0728448 0.363808 0.270326
2493 4 0.0181579 0.360705 0.331249
735 4 0.153601 0.34392 0.27733
601 2 0.103481 0.388866 0.328492
734 4 0.114693 0.364802 0.253861
750 4 0.0964837 0.36719 0.262914
733 2 0.134147 0.354361 0.265596
602 4 0.116739 0.391447 0.30745
677 4 0.158938 0.353663 0.293689
777 4 0.114875 0.40989 0.299716
676 2 0.163072 0.369162 0.312869
414 4 0.225105 0.411953 0.278164
291 4 0.226034 0.40094 0.261141
412 2 0.232868 0.414798 0.301761
309 4 0.304337 0.326555 0.259558
307 2 0.315802 0.334104 0.280457
727 2 0.323767 0.374405 0.323656
308 4 0.327267 0.341654 0.301355
728 4 0.320431 0.398803 0.327991
729 4 0.327104 0.350007 0.319322
3 3 0.274522 0.416042 0.318693
374 4 0.242325 0.336172 0.329
614 4 0.399574 0.341346 0.32872
1757 4 0.111691 0.469932 0.280738
776 4 0.103235 0.45832 0.295276
775 2 0.109055 0.434105 0.297496
1756 2 0.107322 0.49455 0.280973
413 4 0.240632 0.417644 0.325358
1436 4 0.234275 0.480984 0.336445
1435 2 0.252207 0.468403 0.324389
768 4 0.190682 0.485943 0.265305
438 4 0.305721 0.477868 0.25329
437 4 0.282578 0.459406 0.293592
436 2 0.29415 0.468637 0.273441
1437 4 0.27014 0.455822 0.312333
5 3 0.291107 0.449326 0.312799
2 3 0.311973 0.41911 0.319469
434 4 0.333115 0.410412 0.314567
1 1 0.292255 0.429829 0.324512
713 4 0.418024 0.450933 0.30657
433 2 0.356778 0.418025 0.317265
435 4 0.380441 0.425638 0.319963
712 2 0.426662 0.44317 0.284428
714 4 0.435301 0.435406 0.262286
2860 2 0.493174 0.424896 0.25849
753 4 0.487643 0.440566 0.333971
428 4 0.0639713 0.0363773 0.364395
427 2 0.0705966 0.0128209 0.369531
731 4 0.094038 0.0532499 0.414566
606 4 0.139114 0.0413457 0.397694
730 2 0.105448 0.0628785 0.394509
604 2 0.158169 0.0330636 0.383784
398 4 0.122617 0.091248 0.370553
605 4 0.177225 0.0247816 0.369875
682 2 0.240246 0.0286532 0.353106
683 4 0.218726 0.0302448 0.365737
684 4 0.261766 0.0270615 0.340475
1749 4 0.49418 0.998339 0.343448
424 2 0.427746 0.044241 0.372672
426 4 0.436812 0.0615914 0.357118
425 4 0.418679 0.0268906 0.388227
732 4 0.116857 0.0725071 0.374451
397 2 0.11722 0.108404 0.353184
686 4 0.166409 0.138404 0.403976
600 4 0.172684 0.120591 0.341056
685 2 0.171141 0.126606 0.382444
687 4 0.175873 0.114809 0.360913
410 4 0.242118 0.143492 0.393343
321 4 0.245391 0.0940745 0.377968
319 2 0.258817 0.0984123 0.39861
320 4 0.272244 0.10275 0.419252
248 4 0.355821 0.0879421 0.356491
633 4 0.370009 0.0968711 0.344453
632 4 0.399181 0.134129 0.360627
631 2 0.384595 0.1155 0.35254
420 4 0.384462 0.147191 0.365858
258 4 0.449605 0.0762701 0.361221
257 4 0.474102 0.119017 0.369782
256 2 0.461854 0.0976437 0.365502
515 4 0.449252 0.16471 0.363184
514 2 0.444985 0.165013 0.387819
618 4 0.0109685 0.243549 0.372667
274 2 0.161284 0.236962 0.359315
275 4 0.173935 0.215396 0.359201
474 4 0.175829 0.195426 0.363779
472 2 0.199092 0.194389 0.354671
473 4 0.222355 0.193352 0.345564
708 4 0.24197 0.19733 0.349068
409 2 0.240988 0.161025 0.411134
706 2 0.257979 0.178138 0.348297
707 4 0.273987 0.158947 0.347527
717 4 0.320426 0.235843 0.38854
377 4 0.309124 0.250501 0.388216
418 2 0.377242 0.171127 0.366201
419 4 0.370023 0.195063 0.366543
716 4 0.359777 0.206212 0.379926
715 2 0.340102 0.221027 0.384233
390 4 0.0821407 0.251721 0.361769
616 2 0.0316659 0.249972 0.385139
617 4 0.0523633 0.256395 0.39761
276 4 0.148632 0.258529 0.359428
389 4 0.130141 0.265733 0.362373
388 2 0.106141 0.258727 0.362071
487 2 0.247942 0.275417 0.402309
488 4 0.25453 0.295379 0.388771
510 4 0.249829 0.320145 0.337941
508 2 0.258445 0.305341 0.356157
509 4 0.267061 0.290537 0.374372
376 2 0.307166 0.269852 0.372503
378 4 0.305208 0.289203 0.35679
498 4 0.315555 0.293198 0.338358
267 4 0.350443 0.323081 0.356356
265 2 0.355116 0.302164 0.369234
266 4 0.359789 0.281247 0.382111
585 4 0.359405 0.279134 0.400307
269 4 0.45751 0.26549 0.373323
268 2 0.481003 0.267711 0.381588
549 4 0.0699514 0.387465 0.352377
547 2 0.0614729 0.40565 0.367297
603 4 0.0902228 0.386284 0.349533
709 2 0.150217 0.399583 0.416908
678 4 0.167206 0.384661 0.332049
502 2 0.19485 0.395137 0.368818
504 4 0.204097 0.37561 0.356234
373 2 0.232676 0.35483 0.342564
375 4 0.223027 0.373487 0.356128
503 4 0.185602 0.414664 0.381402
334 2 0.351391 0.405736 0.417598
336 4 0.338846 0.415072 0.398088
2925 4 0.502763 0.362356 0.362093
559 2 0.494289 0.415488 0.418835
548 4 0.0529944 0.423835 0.382217
407 4 0.0497105 0.432991 0.39906
406 2 0.0409 0.456303 0.397043
408 4 0.0320894 0.479616 0.395025
710 4 0.142628 0.420615 0.405718
570 4 0.127513 0.434729 0.409029
1545 4 0.2265 0.498797 0.337851
636 4 0.197888 0.419825 0.396157
634 2 0.191647 0.437228 0.41299
668 4 0.291938 0.42693 0.365334
4 3 0.291723 0.434232 0.347288
667 2 0.310535 0.428936 0.381926
669 4 0.329132 0.430942 0.398519
593 4 0.471991 0.507495 0.339296
561 4 0.487059 0.430878 0.400502
752 4 0.480554 0.428048 0.381865
751 2 0.484099 0.434307 0.357918
718 2 0.040087 0.0468891 0.483845
719 4 0.0631411 0.0469505 0.474166
369 4 0.077893 0.036744 0.466684
367 2 0.0929 0.0434842 0.447854
720 4 0.017033 0.0468277 0.493525
368 4 0.107907 0.0502245 0.429025
2430 4 0.244953 0.0695032 0.464273
2428 2 0.235064 0.0498203 0.452442
2429 4 0.225175 0.0301375 0.440611
441 4 0.219389 0.0118199 0.443846
341 4 0.237113 0.0882464 0.468401
726 4 0.288885 0.0787935 0.468239
432 4 0.304169 0.0796095 0.482239
430 2 0.326239 0.0716591 0.490893
431 4 0.348309 0.0637087 0.499548
2879 4 0.47882 0.0279686 0.430803
2878 2 0.474745 0.0518291 0.437068
2880 4 0.47067 0.0756896 0.443332
642 4 0.473137 0.0873514 0.460037
340 2 0.214756 0.0984505 0.47301
1152 4 0.186866 0.110864 0.497223
342 4 0.1924 0.108655 0.47762
724 2 0.285936 0.0965103 0.450843
725 4 0.282988 0.114227 0.433448
467 4 0.356845 0.0849546 0.436515
466 2 0.369879 0.106279 0.437251
468 4 0.382914 0.127604 0.437987
576 4 0.43856 0.133277 0.469121
640 2 0.489867 0.10232 0.471046
574 2 0.433984 0.147124 0.448811
575 4 0.429408 0.160972 0.428501
469 2 0.0739665 0.230547 0.447831
471 4 0.0742781 0.214698 0.467167
260 4 0.0907284 0.203633 0.462642
259 2 0.100164 0.196573 0.484694
650 4 0.242731 0.194846 0.440641
649 2 0.246285 0.216061 0.427895
411 4 0.239859 0.178557 0.428925
651 4 0.249839 0.237276 0.415148
516 4 0.440718 0.165316 0.412454
2814 4 0.0014293 0.326053 0.450963
470 4 0.0736549 0.246395 0.428494
2812 2 0.0045344 0.327851 0.475708
695 4 0.111891 0.303767 0.430051
694 2 0.122079 0.285967 0.444352
696 4 0.132267 0.268166 0.458653
1260 4 0.147081 0.274008 0.469555
1258 2 0.171425 0.279539 0.470944
1259 4 0.19577 0.285071 0.472332
489 4 0.241353 0.255454 0.415847
583 2 0.379005 0.274273 0.415051
584 4 0.398605 0.269412 0.429795
2456 4 0.410393 0.285399 0.426026
2457 4 0.448139 0.317837 0.421163
2455 2 0.429266 0.301618 0.423595
326 4 0.0618353 0.382461 0.471622
325 2 0.0817883 0.37113 0.461689
10 3 0.133926 0.338129 0.457869
7 3 0.116635 0.371198 0.458506
327 4 0.101741 0.3598 0.451755
6 1 0.136845 0.360601 0.455603
8 3 0.144871 0.365442 0.434376
711 4 0.157806 0.37855 0.428098
9 3 0.15173 0.368309 0.471648
239 4 0.369398 0.363219 0.494277
335 4 0.363935 0.3964 0.437108
238 2 0.368729 0.371768 0.47079
240 4 0.368061 0.380317 0.447302
1382 4 0.044829 0.458905 0.465749
1381 2 0.0228872 0.465531 0.455757
1383 4 0.0009454 0.472157 0.445765
680 4 0.00254119 0.483807 0.428999
540 4 0.045995 0.456684 0.486107
382 2 0.145914 0.467006 0.491668
773 4 0.148065 0.482563 0.458127
568 2 0.113926 0.445701 0.426923
569 4 0.100339 0.456673 0.444817
384 4 0.144472 0.48744 0.477331
635 4 0.185405 0.45463 0.429823
774 4 0.182036 0.472308 0.422892
772 2 0.165051 0.477436 0.44051
1401 4 0.307236 0.450593 0.494845
1399 2 0.319518 0.47137 0.488315
1400 4 0.3318 0.492147 0.481784
1126 2 0.00782042 0.0560821 0.534937
1127 4 0.0108748 0.0547893 0.510155
1128 4 0.00476607 0.0573749 0.55972
4509 4 0.00185162 0.0419543 0.573375
1059 4 0.0659125 0.0788874 0.587363
951 4 0.199158 0.0557438 0.538696
1031 4 0.186107 0.0428361 0.531716
1030 2 0.182415 0.0287642 0.552052
949 2 0.219604 0.0667742 0.529451
1032 4 0.178723 0.0146923 0.572387
950 4 0.240051 0.0778046 0.520207
961 2 0.290252 0.0387556 0.558772
1180 2 0.274518 0.0745694 0.517181
963 4 0.286662 0.0531076 0.538615
1181 4 0.295115 0.0633771 0.52588
962 4 0.293842 0.0244037 0.57893
1182 4 0.253921 0.0857618 0.508481
841 2 0.379658 0.0404681 0.511732
843 4 0.355959 0.0480055 0.509144
842 4 0.403358 0.0329307 0.514319
1217 4 0.415443 0.0440103 0.526537
1218 4 0.445698 0.0601216 0.562949
1216 2 0.430571 0.052066 0.544743
1033 2 0.0599528 0.169153 0.517242
1155 4 0.0749055 0.0922686 0.57538
1200 4 0.997484 0.147761 0.594587
3266 4 0.999162 0.142458 0.575061
1034 4 0.078996 0.153195 0.514437
939 4 0.145067 0.152737 0.533501
937 2 0.131264 0.163007 0.515357
938 4 0.117461 0.173276 0.497213
1153 2 0.0963644 0.104284 0.579888
1151 4 0.160349 0.142946 0.524942
1150 2 0.173608 0.126905 0.511082
857 4 0.300577 0.137175 0.568535
899 4 0.320826 0.138537 0.565846
856 2 0.28346 0.153627 0.576379
858 4 0.266344 0.170079 0.584224
898 2 0.344353 0.145614 0.561201
900 4 0.36788 0.15269 0.556555
1035 4 0.0409096 0.185112 0.520046
1082 4 0.0398231 0.202723 0.529356
1081 2 0.0351289 0.200968 0.553852
1083 4 0.0304347 0.199213 0.578348
261 4 0.109601 0.189513 0.506746
797 4 0.265221 0.18679 0.572466
811 2 0.319458 0.2314 0.543452
812 4 0.299018 0.231988 0.55784
796 2 0.272812 0.20981 0.566332
798 4 0.280402 0.23283 0.560198
813 4 0.339899 0.230811 0.529063
873 4 0.354604 0.216961 0.532217
871 2 0.36001 0.193247 0.538015
872 4 0.365415 0.169533 0.543812
906 4 0.471857 0.224951 0.575395
904 2 0.460311 0.245875 0.56804
2813 4 0.0076395 0.329649 0.500453
878 4 0.0992254 0.26161 0.559453
877 2 0.0915689 0.250807 0.580663
954 4 0.408513 0.308533 0.577713
905 4 0.448766 0.266798 0.560685
952 2 0.423637 0.288623 0.577635
953 4 0.438761 0.268712 0.577558
1137 4 0.168423 0.381122 0.549259
1135 2 0.148831 0.396496 0.547026
1136 4 0.129239 0.411869 0.544793
896 4 0.216324 0.347196 0.543198
1191 4 0.220158 0.33922 0.525462
897 4 0.168256 0.360963 0.544007
895 2 0.19229 0.35408 0.543602
1189 2 0.24346 0.348279 0.525103
1190 4 0.266762 0.357337 0.524745
803 4 0.282472 0.370433 0.523447
802 2 0.303216 0.380744 0.532857
804 4 0.32396 0.391055 0.542267
928 2 0.350265 0.371566 0.564055
929 4 0.341666 0.382621 0.543342
930 4 0.358863 0.360511 0.584768
1206 4 0.365852 0.340885 0.588705
925 2 0.464588 0.395274 0.531264
927 4 0.468941 0.404861 0.508585
1001 4 0.457685 0.392617 0.572368
926 4 0.460235 0.385687 0.553943
2712 4 0.483004 0.395575 0.49812
936 4 0.996696 0.437027 0.553115
538 2 0.0486805 0.473631 0.504294
539 4 0.0513661 0.490577 0.522481
1938 4 0.0583162 0.50865 0.526859
383 4 0.147355 0.446572 0.506006
2242 2 0.163414 0.467802 0.568182
2244 4 0.165683 0.475577 0.544527
1173 4 0.23212 0.44061 0.57441
1171 2 0.25475 0.445758 0.565106
1172 4 0.27738 0.450906 0.555802
882 4 0.282776 0.469113 0.549913
880 2 0.297733 0.487562 0.542099
1185 4 0.0186009 0.0387676 0.653439
945 4 0.0365121 0.0413465 0.657565
825 4 0.0763051 0.0261129 0.619157
1057 2 0.0650455 0.0554401 0.596003
1058 4 0.0641785 0.0319928 0.604643
943 2 0.0503338 0.055315 0.673025
823 2 0.0862508 0.00839088 0.633724
2195 4 0.294439 0.00524952 0.586493
1005 4 0.313138 0.0383554 0.666347
1003 2 0.326053 0.0590079 0.660703
1004 4 0.338969 0.0796605 0.65506
2283 4 0.448521 0.0173866 0.597527
2282 4 0.45228 0.0233555 0.647034
2281 2 0.4504 0.020371 0.622281
43 3 0.4676 0.0256721 0.658664
45 3 0.490748 0.0514443 0.643912
41 1 0.476014 0.0471959 0.660749
44 3 0.458653 0.0625796 0.660147
1198 2 0.0157563 0.164265 0.590233
1154 4 0.117823 0.116299 0.584397
1221 4 0.127594 0.105525 0.598269
1219 2 0.131794 0.104565 0.622898
1220 4 0.135994 0.103606 0.647528
1283 4 0.151009 0.115165 0.655072
1212 4 0.248318 0.152432 0.624696
1210 2 0.254075 0.14465 0.647749
1211 4 0.259832 0.136868 0.670803
3008 4 0.494711 0.0991816 0.597414
1199 4 0.0340282 0.180768 0.585879
879 4 0.0839123 0.240004 0.601873
1272 4 0.0775536 0.226842 0.615589
1270 2 0.0972481 0.213697 0.623622
1271 4 0.116943 0.200553 0.631654
909 4 0.137004 0.204556 0.630494
907 2 0.155048 0.220871 0.624716
908 4 0.173093 0.237186 0.618938
1025 4 0.398853 0.192335 0.6348
1143 4 0.390528 0.197735 0.652704
1024 2 0.414254 0.199362 0.616398
1026 4 0.429655 0.206389 0.597997
3123 4 0.454504 0.195954 0.667171
3121 2 0.475645 0.2093 0.666798
3122 4 0.496786 0.222646 0.666425
947 4 0.173242 0.252458 0.63178
946 2 0.1789 0.275075 0.640816
948 4 0.184558 0.297692 0.649853
1237 2 0.22319 0.320634 0.602173
1238 4 0.241487 0.307347 0.612844
792 4 0.261205 0.306357 0.612706
791 4 0.304505 0.283027 0.60368
790 2 0.282855 0.294692 0.608193
1205 4 0.41393 0.32734 0.58632
982 2 0.00204785 0.393866 0.626088
983 4 0.0216927 0.393174 0.64154
1041 4 0.0332397 0.409117 0.634384
893 4 0.0958338 0.394397 0.661609
992 4 0.145815 0.407292 0.631972
991 2 0.122019 0.408455 0.624383
1239 4 0.204893 0.333921 0.591503
1204 2 0.389891 0.334112 0.587512
1039 2 0.0557567 0.409365 0.623516
1040 4 0.0782736 0.409613 0.612648
993 4 0.0982237 0.409619 0.616794
2170 2 0.15211 0.49032 0.661261
2243 4 0.161146 0.460028 0.591838
2172 4 0.15744 0.467165 0.669047
1161 4 0.180338 0.463209 0.597652
1160 4 0.215768 0.435451 0.619447
1159 2 0.198053 0.44933 0.608549
890 4 0.304895 0.431062 0.629919
889 2 0.315686 0.453454 0.627214
891 4 0.326477 0.475846 0.624509
1187 4 0.314486 0.493284 0.623753
1952 4 0.363763 0.478022 0.627082
1951 2 0.359007 0.494848 0.609208
1000 2 0.453357 0.413219 0.58586
1910 4 0.435364 0.438797 0.612686
1002 4 0.449029 0.43382 0.599352
1909 2 0.431551 0.462507 0.605724
1911 4 0.427738 0.486217 0.598762
3328 2 0.493934 0.44032 0.648744
3329 4 0.491349 0.462116 0.636767
944 4 0.0641555 0.0692835 0.688485
1075 2 0.0632655 0.0587796 0.729054
1076 4 0.05965 0.0568357 0.70439
2319 4 0.038905 0.0270215 0.733207
2317 2 0.0158942 0.0193176 0.739235
2285 4 0.0511085 0.0163622 0.722157
1256 4 0.315168 0.00206982 0.729452
42 3 0.486864 0.0490147 0.680951
1163 4 0.489527 0.0380414 0.698368
1282 2 0.168956 0.122647 0.670791
1284 4 0.186904 0.13013 0.686509
1227 4 0.205616 0.136463 0.686761
1225 2 0.210204 0.149927 0.707325
1226 4 0.214791 0.163391 0.727888
888 4 0.276187 0.147677 0.680944
886 2 0.288596 0.137436 0.700083
887 4 0.301004 0.127195 0.719223
830 4 0.30618 0.123247 0.738865
829 2 0.328193 0.114508 0.730848
978 4 0.324713 0.153079 0.738765
831 4 0.350205 0.105769 0.722832
1107 4 0.0302326 0.189647 0.731039
851 4 0.015729 0.202234 0.7355
1105 2 0.0419958 0.178151 0.74987
822 4 0.144051 0.232733 0.704487
1278 4 0.161393 0.236852 0.711955
820 2 0.120703 0.241621 0.705501
821 4 0.0973545 0.25051 0.706515
1276 2 0.179358 0.223925 0.723588
1130 4 0.231591 0.170664 0.736612
1277 4 0.197323 0.210997 0.735221
1129 2 0.221167 0.192559 0.742706
1065 4 0.19378 0.266019 0.723583
1131 4 0.210744 0.214455 0.7488
916 2 0.289061 0.222656 0.729902
918 4 0.287602 0.197716 0.730941
977 4 0.297505 0.193942 0.748287
976 2 0.311109 0.17351 0.743526
917 4 0.29052 0.247595 0.728863
1141 2 0.370102 0.198328 0.667112
1142 4 0.349676 0.198922 0.681521
1192 2 0.389554 0.22987 0.74588
1194 4 0.408403 0.214401 0.751411
1144 2 0.486168 0.172512 0.744746
1145 4 0.475804 0.185384 0.725983
1262 4 0.422846 0.216816 0.737848
1261 2 0.440688 0.202758 0.727399
1263 4 0.458531 0.188699 0.71695
1243 2 0.0083856 0.308912 0.693525
1209 4 0.0478751 0.264806 0.687576
1207 2 0.0651288 0.253672 0.701842
1244 4 0.0321092 0.314767 0.688225
1208 4 0.0823825 0.242538 0.716108
1064 4 0.237642 0.288483 0.715085
1063 2 0.215711 0.277251 0.719334
1008 4 0.334167 0.263408 0.728955
3113 4 0.490945 0.331009 0.674337
806 4 0.430501 0.302715 0.74064
805 2 0.411352 0.318722 0.742144
3112 2 0.510901 0.330837 0.6894
892 2 0.0827502 0.398178 0.682578
894 4 0.0696667 0.401959 0.703547
942 4 0.11827 0.416283 0.744831
940 2 0.141564 0.413429 0.736203
941 4 0.164858 0.410575 0.727576
1066 2 0.196423 0.40561 0.702409
1067 4 0.174084 0.40092 0.712613
1139 4 0.301233 0.416594 0.674716
807 4 0.392203 0.334729 0.743648
1020 4 0.39416 0.353782 0.750052
1281 4 0.0680551 0.422351 0.70542
1279 2 0.0656922 0.435107 0.726795
1983 4 0.0249588 0.475463 0.742247
2021 4 0.0423052 0.481565 0.734758
1028 4 0.236563 0.41743 0.684831
1068 4 0.218763 0.4103 0.692206
1027 2 0.259877 0.417677 0.675801
1029 4 0.283192 0.417925 0.666771
1138 2 0.309803 0.423392 0.697199
1140 4 0.318374 0.43019 0.719683
1228 2 0.355372 0.427782 0.756789
1229 4 0.34257 0.44844 0.750914
3330 4 0.49652 0.418525 0.660721
1269 4 0.455189 0.501215 0.701643
1077 4 0.066881 0.0607234 0.753718
1203 4 0.0632896 0.0455177 0.765897
1201 2 0.0834759 0.0321985 0.772244
1202 4 0.103662 0.0188793 0.778591
1148 4 0.198581 0.0489456 0.750225
1147 2 0.218271 0.0618777 0.758606
1149 4 0.237961 0.0748097 0.766987
1049 4 0.247299 0.0781342 0.785915
1257 4 0.278128 0.0179765 0.759045
1255 2 0.296648 0.0100232 0.744248
1048 2 0.261653 0.0615657 0.797942
1050 4 0.276006 0.0449971 0.809969
819 4 0.376176 0.0846548 0.824239
846 4 0.462718 0.0347066 0.791085
1113 4 0.451771 0.0167557 0.787657
844 2 0.479128 0.0525141 0.797314
862 2 0.0388041 0.0979638 0.840315
832 2 0.0344376 0.136565 0.795094
863 4 0.0248512 0.109329 0.822957
833 4 0.0202585 0.118765 0.805451
33 3 0.0668621 0.15163 0.792468
834 4 0.0486167 0.154366 0.784736
31 1 0.0825824 0.15866 0.776917
1106 4 0.0537591 0.166655 0.768702
32 3 0.0930834 0.140196 0.768089
34 3 0.0984462 0.172105 0.787212
840 4 0.203073 0.138164 0.788714
838 2 0.222924 0.123542 0.792875
839 4 0.242775 0.10892 0.797035
959 4 0.257146 0.102702 0.808165
958 2 0.269078 0.105004 0.830017
1084 2 0.370477 0.109606 0.800448
1085 4 0.359904 0.0928612 0.815712
1086 4 0.38105 0.12635 0.785183
1299 4 0.3929 0.142487 0.787176
3269 4 0.48866 0.141213 0.82786
1146 4 0.496532 0.15964 0.76351
3270 4 0.487689 0.156021 0.780106
3268 2 0.488175 0.148617 0.803983
1214 4 0.0359486 0.230394 0.801141
35 3 0.072325 0.170182 0.760163
778 2 0.0694474 0.235719 0.815689
1213 2 0.0149102 0.243899 0.800734
780 4 0.0928001 0.227162 0.818261
1073 4 0.116014 0.173993 0.79707
1072 2 0.139676 0.18162 0.799736
1074 4 0.163339 0.189247 0.802401
869 4 0.0982961 0.23456 0.835893
1297 2 0.391867 0.164817 0.79838
1193 4 0.370705 0.24534 0.740349
1298 4 0.390833 0.187146 0.809583
47 3 0.388425 0.204623 0.819239
1043 4 0.407456 0.241735 0.802891
46 1 0.406956 0.213715 0.829391
49 3 0.408421 0.236143 0.823627
1166 4 0.426413 0.245651 0.8154
48 3 0.425839 0.2024 0.822054
779 4 0.0460946 0.244275 0.813118
1240 2 0.232641 0.279903 0.770872