ITEM: TIMESTEP
2250000
ITEM: NUMBER OF ATOMS
4590
ITEM: BOX BOUNDS pp pp pp
-9.9985700000000008e+00 9.9985700000000008e+00
-9.9985700000000008e+00 9.9985700000000008e+00
-9.9985700000000008e+00 9.9985700000000008e+00
ITEM: ATOMS id type xs ys zs
463 2 0.0621421 0.0583396 0.0170051
3290 4 0.0773769 0.0159787 0.0267692
464 4 0.0747162 0.0379033 0.0240357
567 4 0.165819 0.0800045 0.0545474
3289 2 0.0889756 0.0105669 0.00528989
566 4 0.180073 0.0354176 0.0369537
565 2 0.172946 0.057711 0.0457505
490 2 0.292684 0.017178 0.04823
491 4 0.305708 0.0217182 0.0273746
986 4 0.313852 0.0321304 0.012959
2263 2 0.282891 0.0557088 0.00560505
2265 4 0.269651 0.0766506 0.00896919
492 4 0.27966 0.0126377 0.0690853
2264 4 0.296131 0.034767 0.0022409
557 4 0.396555 0.0610853 0.0749654
745 2 0.460203 0.0548272 0.0524787
747 4 0.483207 0.0629732 0.057923
746 4 0.437199 0.0466811 0.0470343
2724 4 0.494983 0.0580387 0.0745858
1826 4 0.497116 0.0400931 0.0843731
465 4 0.049568 0.0787759 0.0099745
701 4 0.0536246 0.0963083 0.0182826
700 2 0.0410483 0.114779 0.00706516
359 4 0.230498 0.166443 0.0363772
358 2 0.208983 0.163714 0.0239344
1254 4 0.257086 0.0873641 0.995453
828 4 0.458701 0.155903 0.00473261
836 4 0.0647733 0.242425 0.012003
422 4 0.0933695 0.192746 0.0469801
421 2 0.0930176 0.192334 0.0219824
360 4 0.187467 0.160985 0.0114916
737 4 0.185187 0.217163 0.0694217
736 2 0.1911 0.202145 0.0885179
506 4 0.200591 0.231045 0.0652572
665 4 0.363426 0.184173 0.0376112
664 2 0.347543 0.181803 0.0184467
323 4 0.47546 0.224708 0.0381439
322 2 0.467165 0.239534 0.0564896
324 4 0.45887 0.254359 0.0748353
826 2 0.445943 0.176342 0.998048
2807 4 0.0104609 0.258003 0.0465147
2806 2 0.998749 0.279758 0.0503537
294 4 0.135946 0.312921 0.0511205
292 2 0.151262 0.293455 0.0545369
456 4 0.12348 0.326508 0.0429925
507 4 0.18454 0.278402 0.0658788
293 4 0.166578 0.273989 0.0579532
505 2 0.192566 0.254723 0.065568
739 2 0.337132 0.329632 0.0856924
356 4 0.277682 0.271839 0.00547556
254 4 0.394101 0.279278 0.0698936
573 4 0.387224 0.261088 0.00999215
571 2 0.363658 0.268116 0.00547148
741 4 0.34533 0.325556 0.062425
1071 4 0.402475 0.257919 0.995394
630 4 0.411622 0.270751 0.0697047
253 2 0.37181 0.276743 0.0809317
315 4 0.0523412 0.401571 0.078716
621 4 0.0709934 0.397248 0.0834548
454 2 0.110954 0.347226 0.0492392
455 4 0.0984269 0.367944 0.0554859
607 2 0.244002 0.356679 0.0822984
608 4 0.243495 0.372186 0.0626906
252 4 0.261485 0.370313 0.055813
250 2 0.281538 0.376223 0.0420984
251 4 0.301592 0.382134 0.0283837
524 4 0.316231 0.393547 0.0334325
523 2 0.339201 0.403408 0.0339689
226 2 0.395022 0.394688 0.0125454
228 4 0.377347 0.402331 0.028494
525 4 0.362172 0.413269 0.0345054
670 2 0.408459 0.38012 0.08086
671 4 0.421803 0.384994 0.0602846
281 4 0.442491 0.388165 0.0593015
280 2 0.46134 0.371856 0.0573254
282 4 0.480189 0.355547 0.0553492
104 3 0.481796 0.347287 0.0727661
1047 4 0.494405 0.349389 0.0421963
1045 2 0.493888 0.345246 0.0175437
313 2 0.0559683 0.423721 0.0676977
552 4 0.0396257 0.448117 0.0522874
314 4 0.0595954 0.445871 0.0566795
550 2 0.0195856 0.457436 0.040594
551 4 0.999546 0.466755 0.0289006
243 4 0.218634 0.468091 0.0485603
241 2 0.208647 0.49101 0.0481953
1440 4 0.228044 0.460516 0.065309
1583 4 0.470526 0.465726 0.0715735
16 1 0.053383 0.00194874 0.117572
1422 4 0.02787 0.0251466 0.142271
2480 4 0.0222857 0.0294137 0.121758
18 3 0.0745596 0.0063685 0.10918
19 3 0.0437861 0.0215071 0.125557
2479 2 0.0167716 0.0535902 0.124963
2481 4 0.0112575 0.0777667 0.128168
1420 2 0.0174654 0.0105861 0.159733
652 2 0.233563 0.0380271 0.142915
654 4 0.231877 0.0295759 0.119443
1476 4 0.232759 0.0133956 0.107546
653 4 0.235248 0.0464783 0.166386
1474 2 0.253653 0.00625332 0.0958167
296 4 0.37696 0.0588408 0.0792618
485 4 0.346428 0.00780444 0.106774
297 4 0.363295 0.0158819 0.100907
295 2 0.370128 0.0373613 0.0900844
236 4 0.135569 0.142709 0.131007
449 4 0.152325 0.131762 0.13665
450 4 0.143241 0.0900061 0.162624
448 2 0.147783 0.110884 0.149637
28 3 0.221435 0.130513 0.175639
556 2 0.406963 0.077833 0.0903398
558 4 0.417371 0.0945806 0.105714
758 4 0.33909 0.116514 0.164863
771 4 0.432287 0.106362 0.112084
769 2 0.437791 0.110828 0.136062
770 4 0.443294 0.115294 0.16004
338 4 0.0558809 0.237199 0.134126
235 2 0.13817 0.167556 0.129981
237 4 0.140771 0.192402 0.128955
362 4 0.144136 0.231687 0.166661
738 4 0.197014 0.187127 0.107614
354 4 0.21771 0.184028 0.104751
476 4 0.199111 0.218935 0.150908
477 4 0.232141 0.181689 0.146173
475 2 0.215626 0.200312 0.148541
352 2 0.242483 0.187315 0.103934
279 4 0.253499 0.243331 0.154017
353 4 0.267256 0.190602 0.103116
461 4 0.281024 0.197823 0.0902677
460 2 0.303839 0.201796 0.0996944
462 4 0.326654 0.20577 0.109121
628 2 0.422126 0.25902 0.0891271
629 4 0.43263 0.247289 0.108549
624 4 0.427434 0.238471 0.125911
337 2 0.053607 0.256285 0.150117
395 4 0.054438 0.295239 0.163301
704 4 0.0107331 0.321552 0.147856
612 4 0.238088 0.322574 0.107023
755 4 0.311232 0.256972 0.148498
610 2 0.243499 0.298163 0.106882
611 4 0.24891 0.273753 0.106741
278 4 0.263109 0.258632 0.107389
277 2 0.258304 0.250982 0.130703
754 2 0.324926 0.264146 0.128846
756 4 0.338619 0.27132 0.109194
740 4 0.328935 0.333708 0.10896
255 4 0.349518 0.274207 0.0919698
622 2 0.434215 0.249596 0.147252
623 4 0.440995 0.260722 0.168593
527 4 0.450807 0.278066 0.170221
619 2 0.0850841 0.391431 0.103274
620 4 0.0991748 0.385614 0.123093
647 4 0.1079 0.38021 0.140521
537 4 0.12429 0.386513 0.132023
535 2 0.144169 0.392752 0.1182
536 4 0.164048 0.398992 0.104377
646 2 0.0997807 0.371318 0.162434
609 4 0.24451 0.341172 0.101906
386 4 0.321268 0.351792 0.111926
385 2 0.333542 0.368462 0.125949
387 4 0.345816 0.385132 0.139973
12 3 0.3959 0.389893 0.114674
11 1 0.383663 0.398772 0.13201
15 3 0.36147 0.396945 0.127233
672 4 0.395114 0.375245 0.101435
13 3 0.388572 0.387057 0.151429
302 4 0.34518 0.408099 0.136267
597 4 0.379343 0.37006 0.16205
626 4 0.179048 0.444062 0.146286
1438 2 0.224611 0.459572 0.0900578
625 2 0.202628 0.448873 0.139502
1439 4 0.221179 0.458629 0.114807
638 4 0.240416 0.46851 0.139032
637 2 0.245681 0.492944 0.13835
627 4 0.226208 0.453684 0.132719
272 4 0.264484 0.50286 0.097697
1559 4 0.32582 0.48556 0.113735
301 2 0.329126 0.421323 0.150145
303 4 0.313072 0.434546 0.164023
14 3 0.389397 0.421109 0.134571
494 4 0.391244 0.482544 0.116589
495 4 0.389433 0.432593 0.118113
493 2 0.390339 0.457568 0.117351
1584 4 0.459634 0.493712 0.111559
1582 2 0.46508 0.479719 0.0915664
689 4 0.202121 0.997491 0.22124
690 4 0.170958 0.0359019 0.228598
688 2 0.186539 0.0166963 0.224919
693 4 0.239255 0.0566904 0.183168
1505 4 0.212755 0.0099846 0.208888
691 2 0.254841 0.0596376 0.202497
692 4 0.270427 0.0625847 0.221825
1699 2 0.305586 0.0611435 0.234125
1701 4 0.285028 0.0482588 0.228081
1700 4 0.326144 0.0740282 0.240169
21 1 0.366118 0.0731758 0.225833
25 3 0.368896 0.0735558 0.203232
22 3 0.371557 0.0522871 0.233785
23 3 0.343995 0.0777071 0.231167
759 4 0.370205 0.0839107 0.186532
1760 4 0.497217 0.999254 0.188255
511 2 0.00871265 0.148083 0.208602
578 4 0.0447851 0.157907 0.232558
513 4 0.0280947 0.156891 0.221714
546 4 0.161179 0.151803 0.2454
27 3 0.23887 0.117825 0.206424
26 1 0.239636 0.133598 0.189697
29 3 0.238768 0.154721 0.19926
582 4 0.320977 0.10714 0.159529
580 2 0.300368 0.118943 0.167347
581 4 0.279758 0.130745 0.175165
30 3 0.259008 0.131165 0.177974
24 3 0.380036 0.0888487 0.235785
757 2 0.354647 0.100212 0.175698
333 4 0.390577 0.0775046 0.248487
312 4 0.44065 0.131877 0.169958
311 4 0.47757 0.14502 0.20102
310 2 0.45911 0.138449 0.185489
521 4 0.486213 0.149634 0.218718
577 2 0.0450074 0.181771 0.240018
529 2 0.00813541 0.222909 0.237643
579 4 0.0452297 0.205634 0.247478
361 2 0.126474 0.249356 0.165634
372 4 0.144995 0.217095 0.17933
371 4 0.191431 0.205678 0.164699
370 2 0.168213 0.211386 0.172014
339 4 0.0513332 0.275371 0.166108
396 4 0.0666685 0.315587 0.207313
443 4 0.0626665 0.308907 0.225745
394 2 0.0605533 0.305413 0.185307
442 2 0.0448554 0.307388 0.243228
363 4 0.108813 0.267025 0.164606
299 4 0.0935202 0.348824 0.243529
285 4 0.263613 0.249896 0.16974
284 4 0.292654 0.28495 0.190441
283 2 0.278134 0.267423 0.180091
345 4 0.281016 0.326903 0.23787
526 2 0.446674 0.293564 0.189401
528 4 0.44254 0.309062 0.208582
703 2 0.0071039 0.336005 0.167934
648 4 0.0916614 0.362425 0.184347
300 4 0.0900169 0.344369 0.193844
298 2 0.0917686 0.346597 0.218687
596 4 0.346348 0.340456 0.185195
595 2 0.362845 0.355258 0.173622
645 4 0.383774 0.390938 0.171835
643 2 0.396608 0.397198 0.19236
644 4 0.409441 0.403458 0.212886
447 4 0.409885 0.409345 0.231284
109 3 0.492993 0.361355 0.218048
2861 4 0.504636 0.412594 0.229253
264 4 0.0510541 0.4134 0.216698
262 2 0.0359506 0.418076 0.236068
1430 4 0.18254 0.492809 0.196548
289 2 0.21907 0.411065 0.238771
417 4 0.188513 0.473713 0.19069
290 4 0.214566 0.424633 0.218258
416 4 0.218164 0.435325 0.202855
415 2 0.203339 0.454519 0.196772
659 4 0.32488 0.450155 0.17048
658 2 0.339208 0.464662 0.184951
660 4 0.353536 0.479169 0.199423
231 4 0.363533 0.483971 0.217458
445 2 0.412783 0.429669 0.245556
232 2 0.0279176 0.0253136 0.295261
234 4 0.0391497 0.04742 0.298474
317 4 0.0526969 0.0609708 0.290569
233 4 0.0166856 0.00320714 0.292048
316 2 0.0470809 0.0724256 0.269064
673 2 0.137273 0.0489103 0.255226
675 4 0.117608 0.0512496 0.27049
674 4 0.156939 0.0465711 0.239962
1406 4 0.20367 0.00187573 0.278531
698 4 0.384827 0.0563934 0.247932
1518 4 0.379192 0.0107286 0.280345
697 2 0.389925 0.0401884 0.266279
699 4 0.395022 0.0239834 0.284625
425 4 0.413016 0.0375946 0.323852
743 4 0.488448 0.0462388 0.264513
351 4 0.474872 0.0460398 0.278887
349 2 0.462281 0.0647874 0.268155
350 4 0.44969 0.083535 0.257423
256 2 0.473475 0.0795395 0.320822
424 2 0.437562 0.0396231 0.328158
318 4 0.041465 0.0838803 0.24756
391 2 0.136488 0.152346 0.323381
392 4 0.140248 0.147727 0.299098
545 4 0.130359 0.140202 0.283034
544 2 0.145769 0.146003 0.264217
723 4 0.237824 0.0979241 0.256331
722 4 0.191133 0.0874634 0.270864
721 2 0.214479 0.0926938 0.263597
599 4 0.224745 0.12094 0.309078
404 4 0.218736 0.137318 0.316701
598 2 0.216001 0.108669 0.329031
403 2 0.224172 0.158123 0.303942
331 2 0.413231 0.08763 0.251557
332 4 0.435886 0.0977553 0.254627
762 4 0.432567 0.14848 0.304217
761 4 0.474673 0.121979 0.30926
760 2 0.45362 0.135229 0.306739
257 4 0.473298 0.104381 0.317983
530 4 0.031428 0.218673 0.245686
405 4 0.229609 0.178927 0.291183
401 4 0.230089 0.185124 0.272168
400 2 0.240931 0.207073 0.267082
402 4 0.251773 0.229023 0.261996
473 4 0.218417 0.214001 0.33214
269 4 0.50566 0.216639 0.333478
765 4 0.418303 0.216095 0.29812
764 4 0.450151 0.188257 0.324793
763 2 0.434227 0.202176 0.311457
444 4 0.0270442 0.305868 0.26071
750 4 0.0982946 0.334571 0.257734
734 4 0.184299 0.320917 0.300219
374 4 0.220561 0.327099 0.332855
343 2 0.291858 0.323776 0.260183
309 4 0.321276 0.314056 0.287163
344 4 0.302701 0.320649 0.282495
496 2 0.349611 0.282065 0.324004
497 4 0.3664 0.295091 0.310827
613 2 0.404608 0.333625 0.311096
615 4 0.425878 0.324517 0.320572
541 2 0.455287 0.320813 0.288611
542 4 0.46806 0.314625 0.268026
543 4 0.442513 0.327001 0.309195
365 4 0.0128368 0.349825 0.328273
366 4 0.0427028 0.337976 0.289954
749 4 0.0614814 0.342436 0.290652
364 2 0.0277698 0.343901 0.309113
748 2 0.079888 0.338503 0.274193
602 4 0.123104 0.411026 0.310331
777 4 0.116302 0.405338 0.291886
677 4 0.170537 0.38578 0.291968
735 4 0.174371 0.369831 0.303318
733 2 0.179335 0.345374 0.301769
676 2 0.173529 0.3991 0.312916
413 4 0.265469 0.413006 0.307124
291 4 0.223575 0.397497 0.259284
728 4 0.330451 0.413369 0.325082
2 3 0.309681 0.420376 0.319518
614 4 0.383338 0.342734 0.30162
307 2 0.335801 0.332732 0.295251
727 2 0.334553 0.389768 0.317917
729 4 0.338654 0.366166 0.310751
308 4 0.350326 0.351408 0.303339
2924 4 0.497593 0.380661 0.320009
2537 4 0.486472 0.380792 0.301137
118 3 0.485566 0.403029 0.308939
263 4 0.0208471 0.422752 0.255438
1757 4 0.112042 0.466986 0.276839
776 4 0.124041 0.451052 0.27315
775 2 0.120172 0.428195 0.282518
1756 2 0.115238 0.490966 0.283158
678 4 0.17652 0.41242 0.333864
768 4 0.197471 0.457296 0.257542
412 2 0.249764 0.412993 0.287668
766 2 0.197533 0.482256 0.256069
414 4 0.234058 0.41298 0.268213
438 4 0.285114 0.473381 0.255463
1435 2 0.252569 0.464878 0.325154
437 4 0.275343 0.443466 0.294326
436 2 0.280229 0.458423 0.274895
1437 4 0.261858 0.45146 0.30621
5 3 0.274203 0.429296 0.312125
1 1 0.288819 0.423634 0.328646
434 4 0.325938 0.426276 0.306552
433 2 0.336452 0.447442 0.314715
435 4 0.346967 0.468608 0.322878
446 4 0.415682 0.449994 0.259827
116 1 0.498114 0.422359 0.311642
2860 2 0.495503 0.421273 0.25085
714 4 0.429428 0.43973 0.271708
119 3 0.48897 0.43545 0.328477
2862 4 0.486371 0.429952 0.272448
120 3 0.498648 0.434069 0.292116
713 4 0.475389 0.435615 0.29098
712 2 0.452408 0.437673 0.281344
428 4 0.0487999 0.0346699 0.336725
427 2 0.0544919 0.0130584 0.347938
605 4 0.1579 0.0768316 0.369557
732 4 0.122998 0.0850162 0.387187
730 2 0.111274 0.0734924 0.406026
604 2 0.163038 0.0553474 0.357844
606 4 0.168176 0.0338633 0.34613
683 4 0.24385 0.0345913 0.387603
682 2 0.24812 0.0198197 0.367887
321 4 0.234819 0.0519993 0.383944
319 2 0.229045 0.0599537 0.406935
684 4 0.252391 0.00504813 0.34817
249 4 0.301964 0.069201 0.332812
247 2 0.325996 0.0646241 0.337982
248 4 0.350027 0.0600471 0.343152
633 4 0.365992 0.0711897 0.347142
480 4 0.493137 0.0108 0.342795
426 4 0.462108 0.0416516 0.332464
258 4 0.473652 0.0546983 0.323661
393 4 0.132728 0.156966 0.347665
399 4 0.122776 0.140265 0.354294
398 4 0.114977 0.103459 0.387238
397 2 0.118877 0.121862 0.370766
686 4 0.215428 0.121038 0.41298
600 4 0.207256 0.0963973 0.348984
685 2 0.216519 0.112699 0.389433
687 4 0.217609 0.104359 0.365886
410 4 0.234771 0.125356 0.41428
632 4 0.381637 0.0899585 0.390774
631 2 0.373814 0.0805741 0.368958
420 4 0.378601 0.120833 0.394064
468 4 0.386769 0.105179 0.402942
418 2 0.371093 0.144679 0.393681
419 4 0.363586 0.168526 0.393298
2654 4 0.00894986 0.24605 0.390158
390 4 0.0697183 0.234309 0.378822
470 4 0.0682013 0.217181 0.389844
469 2 0.073271 0.205262 0.411232
388 2 0.0932166 0.239135 0.371771
389 4 0.116715 0.243961 0.36472
474 4 0.176812 0.240034 0.341731
472 2 0.197615 0.227018 0.336935
708 4 0.222182 0.200619 0.346264
706 2 0.243067 0.189814 0.354765
489 4 0.216712 0.242125 0.415911
707 4 0.263951 0.179009 0.363266
377 4 0.336259 0.236207 0.387048
717 4 0.350811 0.224033 0.392475
716 4 0.365755 0.179529 0.409702
715 2 0.358283 0.201781 0.401089
268 2 0.498625 0.233457 0.35059
514 2 0.452248 0.172917 0.411814
515 4 0.469193 0.179335 0.394585
618 4 0.0218366 0.260729 0.38706
616 2 0.0369033 0.252651 0.405306
274 2 0.145159 0.256255 0.36568
276 4 0.122687 0.258147 0.376479
275 4 0.167631 0.254362 0.354881
510 4 0.231595 0.317665 0.346895
487 2 0.228805 0.262546 0.408042
488 4 0.240897 0.282968 0.400173
508 2 0.241178 0.305171 0.366318
509 4 0.250762 0.292677 0.385741
376 2 0.337451 0.255337 0.370992
378 4 0.338642 0.274467 0.354935
498 4 0.332822 0.269039 0.33718
265 2 0.363416 0.326151 0.367033
266 4 0.371537 0.304399 0.376313
585 4 0.361476 0.288491 0.384302
583 2 0.378234 0.278289 0.399803
584 4 0.394992 0.268086 0.415303
306 4 0.492265 0.260149 0.385635
270 4 0.49159 0.250275 0.367703
601 2 0.115952 0.397512 0.330115
547 2 0.0845727 0.415487 0.370117
549 4 0.0990375 0.400013 0.356832
603 4 0.108801 0.383998 0.349899
373 2 0.227195 0.350287 0.339451
502 2 0.210934 0.40571 0.367244
504 4 0.222421 0.389958 0.351588
375 4 0.233829 0.373474 0.346048
3 3 0.28196 0.403976 0.338891
267 4 0.355295 0.347902 0.357753
2923 2 0.490821 0.365712 0.338873
2925 4 0.484048 0.350764 0.357737
680 4 0.0053903 0.480207 0.410162
548 4 0.0701078 0.43096 0.383403
407 4 0.0535944 0.442184 0.388442
406 2 0.0377328 0.460818 0.393577
408 4 0.0218713 0.479452 0.398712
570 4 0.126013 0.430088 0.412331
1436 4 0.243281 0.478296 0.344097
635 4 0.178743 0.462819 0.418694
503 4 0.199447 0.421462 0.3829
636 4 0.208237 0.427221 0.399628
634 2 0.19349 0.44502 0.409161
1401 4 0.336538 0.471021 0.407637
668 4 0.307265 0.44256 0.35453
4 3 0.290067 0.44071 0.344307
667 2 0.321521 0.434102 0.373249
669 4 0.335777 0.425644 0.391969
336 4 0.353266 0.423872 0.402252
593 4 0.471803 0.501055 0.363046
752 4 0.483476 0.424078 0.390559
561 4 0.483829 0.424457 0.411378
753 4 0.48477 0.445254 0.345275
751 2 0.484123 0.434666 0.367917
718 2 0.0319526 0.0442405 0.483299
719 4 0.0559174 0.0437713 0.476182
369 4 0.0686316 0.0599777 0.478371
367 2 0.0833198 0.0666359 0.459264
731 4 0.0995503 0.0619685 0.424866
368 4 0.098008 0.073294 0.440156
2430 4 0.187109 0.0613645 0.439291
2428 2 0.183949 0.0370375 0.444127
2429 4 0.180789 0.0127105 0.448964
341 4 0.206023 0.0706891 0.441183
320 4 0.223271 0.0679081 0.429926
725 4 0.236274 0.0639481 0.445492
724 2 0.25467 0.0658348 0.462321
430 2 0.311178 0.0769718 0.497311
432 4 0.287505 0.0780927 0.489343
726 4 0.273066 0.0677215 0.479149
843 4 0.34419 0.0660044 0.492072
467 4 0.388242 0.0864679 0.449294
2879 4 0.437607 0.018577 0.435676
2878 2 0.455121 0.0337099 0.445133
2880 4 0.472634 0.0488427 0.454591
642 4 0.468652 0.0587016 0.472922
640 2 0.484002 0.0780189 0.468875
2584 2 0.00473037 0.0969984 0.43214
2586 4 0.0130868 0.113366 0.449094
409 2 0.243822 0.14821 0.418858
340 2 0.20495 0.0933211 0.451758
1152 4 0.20187 0.132732 0.472745
342 4 0.203876 0.115953 0.462332
1150 2 0.185303 0.131073 0.491398
466 2 0.387506 0.0958235 0.426118
576 4 0.424903 0.118287 0.470347
574 2 0.424763 0.133863 0.450788
575 4 0.424623 0.149439 0.43123
471 4 0.0783407 0.193344 0.432619
617 4 0.0519701 0.244573 0.423552
261 4 0.0898778 0.170788 0.497563
259 2 0.0845079 0.179111 0.474605
260 4 0.0791379 0.187435 0.451648
411 4 0.252874 0.171063 0.423436
651 4 0.210877 0.223452 0.416733
649 2 0.229478 0.206755 0.416087
650 4 0.248079 0.190059 0.415441
516 4 0.435303 0.166498 0.429043
695 4 0.12423 0.292048 0.464207
694 2 0.139348 0.294693 0.444468
696 4 0.154466 0.297337 0.424729
1260 4 0.168878 0.309558 0.43002
1258 2 0.189349 0.314621 0.443455
1259 4 0.20982 0.319684 0.456889
2456 4 0.41103 0.27385 0.423772
2455 2 0.43474 0.276724 0.431171
2457 4 0.45845 0.279598 0.438571
326 4 0.0726332 0.399208 0.451884
325 2 0.0914745 0.38282 0.45316
10 3 0.139482 0.343155 0.446703
709 2 0.139035 0.41115 0.442722
7 3 0.111858 0.353577 0.469533
327 4 0.110316 0.366432 0.454436
6 1 0.134683 0.352057 0.467108
8 3 0.14384 0.373308 0.468826
9 3 0.143117 0.338418 0.483878
711 4 0.143458 0.390182 0.455604
238 2 0.323313 0.414459 0.479651
240 4 0.342794 0.423589 0.466911
2508 4 0.49426 0.374715 0.449362
559 2 0.493387 0.404652 0.423277
560 4 0.502945 0.384847 0.435176
1382 4 0.0274942 0.456613 0.471334
1381 2 0.00921352 0.455697 0.4543
540 4 0.0441827 0.454105 0.480787
538 2 0.0520252 0.460262 0.503716
384 4 0.152709 0.502232 0.472534
568 2 0.112589 0.451182 0.412299
569 4 0.099165 0.472277 0.412267
772 2 0.155689 0.488879 0.4347
774 4 0.163481 0.474378 0.41588
382 2 0.160715 0.486615 0.490344
710 4 0.134612 0.432118 0.42984
1400 4 0.324641 0.496603 0.448925
1399 2 0.330589 0.483812 0.428281
588 4 0.333525 0.497512 0.464388
334 2 0.344981 0.423336 0.425837
335 4 0.336696 0.422799 0.449422
720 4 0.00798793 0.0447097 0.490416
1059 4 0.083599 0.054262 0.579323
1032 4 0.13344 0.0870354 0.564798
1030 2 0.156877 0.0876331 0.556106
951 4 0.191801 0.0817298 0.531483
1031 4 0.180314 0.0882308 0.547415
949 2 0.208823 0.0683493 0.518977
1182 4 0.242432 0.055071 0.518014
950 4 0.225845 0.0549688 0.506472
961 2 0.308613 0.0230676 0.559221
1180 2 0.265307 0.0470754 0.524177
963 4 0.298697 0.0435511 0.548865
1181 4 0.288182 0.0390799 0.53034
431 4 0.334851 0.0758509 0.505279
842 4 0.390151 0.0725557 0.510656
1217 4 0.403005 0.0876333 0.518506
841 2 0.36717 0.06928 0.501364
939 4 0.1531 0.143958 0.511322
937 2 0.131677 0.155112 0.504855
1151 4 0.168736 0.129413 0.510052
938 4 0.110254 0.166266 0.498388
898 2 0.351016 0.163118 0.584437
1216 2 0.426729 0.0886787 0.526332
1218 4 0.450454 0.0897241 0.534159
1035 4 0.0634765 0.17242 0.556095
1082 4 0.0640157 0.182574 0.573687
1081 2 0.0475029 0.168803 0.58645
1033 2 0.0784841 0.174149 0.536171
1034 4 0.0934918 0.175878 0.516247
877 2 0.0909559 0.246298 0.572427
797 4 0.260916 0.172686 0.580194
811 2 0.297006 0.232026 0.546973
812 4 0.273853 0.23331 0.556325
796 2 0.260613 0.196123 0.571486
798 4 0.26031 0.219559 0.562779
813 4 0.320159 0.230741 0.537621
900 4 0.362903 0.179709 0.569994
872 4 0.36154 0.192193 0.554992
873 4 0.339926 0.232037 0.533874
871 2 0.350733 0.212115 0.544433
878 4 0.0884291 0.270516 0.566746
896 4 0.207234 0.332982 0.534205
1191 4 0.225457 0.32584 0.53285
1189 2 0.243138 0.329687 0.515593
1239 4 0.251728 0.324071 0.579987
1190 4 0.260818 0.333534 0.498337
954 4 0.41042 0.307858 0.577466
1205 4 0.395063 0.302509 0.589092
905 4 0.440208 0.266863 0.591877
952 2 0.424095 0.287202 0.57408
953 4 0.437771 0.266545 0.570694
1137 4 0.168464 0.38012 0.560339
897 4 0.178523 0.372237 0.545843
895 2 0.192879 0.35261 0.540024
803 4 0.277491 0.334249 0.507608
802 2 0.298994 0.343268 0.516632
804 4 0.320498 0.352287 0.525657
929 4 0.327638 0.362786 0.541396
239 4 0.303832 0.405329 0.49239
928 2 0.340927 0.352569 0.559949
930 4 0.354216 0.342352 0.578502
925 2 0.503501 0.401781 0.530661
926 4 0.504844 0.405108 0.555406
1001 4 0.488896 0.409218 0.567338
1000 2 0.467848 0.407478 0.580722
539 4 0.0598677 0.466419 0.526646
936 4 0.0314476 0.461572 0.539323
1938 4 0.0468689 0.472326 0.541118
1936 2 0.0571429 0.494217 0.547477
934 2 0.00647366 0.462787 0.539241
383 4 0.168721 0.470998 0.508153
2244 4 0.154826 0.466517 0.521547
2242 2 0.161915 0.472264 0.544826
2243 4 0.169004 0.478011 0.568105
1172 4 0.241887 0.461787 0.562275
882 4 0.247102 0.474626 0.546604
1161 4 0.175359 0.488539 0.584408
880 2 0.25895 0.495574 0.539822
1155 4 0.0888289 0.070659 0.589139
1057 2 0.0725064 0.0430818 0.598743
1185 4 0.0222671 0.0632544 0.643704
945 4 0.0379236 0.0587239 0.655115
825 4 0.0512216 0.0199055 0.629461
1058 4 0.0614137 0.0319016 0.618163
823 2 0.0639979 0.00173469 0.64094
1183 2 0.99918 0.0690547 0.636055
1003 2 0.313148 0.0736133 0.650426
1004 4 0.329122 0.0735601 0.63119
2282 4 0.458484 0.0303294 0.635054
2281 2 0.453735 0.00882877 0.623207
43 3 0.476661 0.0361586 0.641113
41 1 0.479014 0.0552827 0.654042
44 3 0.462218 0.070441 0.648892
1199 4 0.0190064 0.143008 0.608282
1083 4 0.03099 0.155033 0.599212
1153 2 0.104594 0.0870159 0.599584
1154 4 0.120359 0.103373 0.610028
1221 4 0.124903 0.117383 0.623034
1219 2 0.135601 0.117027 0.645631
1220 4 0.146299 0.11667 0.668227
1283 4 0.155284 0.13354 0.673233
1212 4 0.239624 0.150236 0.635096
1210 2 0.264015 0.147356 0.639784
856 2 0.296814 0.156879 0.593047
857 4 0.32051 0.149033 0.591591
1211 4 0.288406 0.144475 0.644471
888 4 0.287033 0.148533 0.6642
899 4 0.339128 0.146527 0.59888
879 4 0.0934827 0.222079 0.578108
1272 4 0.0975636 0.20913 0.592648
1270 2 0.120578 0.206224 0.601978
1271 4 0.143593 0.203317 0.611309
909 4 0.162078 0.193652 0.609807
907 2 0.172245 0.207977 0.627601
908 4 0.182411 0.222302 0.645394
947 4 0.183248 0.239648 0.656427
858 4 0.273118 0.164725 0.594503
1025 4 0.375826 0.190285 0.652192
1024 2 0.386695 0.203896 0.634254
1143 4 0.361154 0.196264 0.66509
1026 4 0.397564 0.217507 0.616316
904 2 0.448136 0.249258 0.607763
906 4 0.456063 0.231652 0.62365
3122 4 0.488527 0.215991 0.665416
946 2 0.197372 0.256855 0.667812
1237 2 0.266856 0.312889 0.596459
792 4 0.287429 0.298935 0.632451
791 4 0.329563 0.320131 0.64907
790 2 0.308496 0.309533 0.64076
1238 4 0.281984 0.301708 0.61293
1204 2 0.372648 0.31288 0.585195
1206 4 0.350233 0.323251 0.581297
983 4 0.0298706 0.393366 0.620476
1041 4 0.0500678 0.391399 0.617589
1039 2 0.0699795 0.404863 0.624477
982 2 0.00683963 0.390348 0.629731
1136 4 0.167732 0.407285 0.602318
1135 2 0.168098 0.393703 0.581328
993 4 0.110309 0.420948 0.628508
1002 4 0.4468 0.405739 0.594107
992 4 0.155226 0.42041 0.606534
991 2 0.132767 0.420679 0.617521
1040 4 0.0898913 0.418326 0.631365
1160 4 0.215624 0.4887 0.614062
1159 2 0.195491 0.48862 0.599235
1175 4 0.225765 0.477398 0.627002
1174 2 0.244858 0.490074 0.636999
1171 2 0.248601 0.467368 0.585705
1173 4 0.255314 0.47295 0.609135
889 2 0.337544 0.479617 0.644873
891 4 0.341433 0.484378 0.620637
1951 2 0.346878 0.502399 0.586103
1952 4 0.35563 0.494211 0.608047
3330 4 0.492227 0.416867 0.654362
1911 4 0.42393 0.457289 0.625681
1910 4 0.432681 0.419584 0.59402
1909 2 0.428306 0.438437 0.60985
3328 2 0.495926 0.433518 0.63608
943 2 0.0427433 0.0562684 0.679527
944 4 0.047563 0.0538129 0.703938
1075 2 0.0516116 0.0389834 0.735813
1076 4 0.0359861 0.0499403 0.719658
1077 4 0.067237 0.0280265 0.751967
1005 4 0.297174 0.0736665 0.669661
831 4 0.338148 0.0716266 0.722836
42 3 0.477273 0.0495122 0.676241
1163 4 0.489704 0.0525567 0.692048
32 3 0.100367 0.150777 0.747031
1282 2 0.159981 0.1248 0.696184
1284 4 0.164678 0.11606 0.719134
1227 4 0.183923 0.114486 0.722415
1225 2 0.193523 0.128527 0.740742
1226 4 0.203122 0.142568 0.759069
886 2 0.298646 0.138607 0.683994
887 4 0.310258 0.12868 0.703788
830 4 0.316637 0.110345 0.699622
829 2 0.327392 0.0909857 0.711229
1105 2 0.0354462 0.175534 0.74866
1107 4 0.0170224 0.18989 0.739735
851 4 0.015893 0.20261 0.723647
822 4 0.14244 0.232539 0.697105
1278 4 0.154666 0.222748 0.708626
820 2 0.1189 0.240616 0.699519
1276 2 0.171494 0.221432 0.727072
1277 4 0.188322 0.220116 0.745518
916 2 0.298921 0.211129 0.728199
918 4 0.310278 0.188907 0.729738
917 4 0.287564 0.233352 0.72666
1142 4 0.328074 0.184695 0.700764
1008 4 0.344326 0.233163 0.734369
1141 2 0.344614 0.190479 0.682927
1194 4 0.40583 0.236869 0.734998
1262 4 0.411718 0.218052 0.732699
3123 4 0.448172 0.190662 0.680603
3121 2 0.46835 0.203326 0.673009
1261 2 0.429993 0.206113 0.744891
1209 4 0.0374409 0.259606 0.674846
1207 2 0.0570246 0.257949 0.690303
1208 4 0.0766083 0.256292 0.70576
1245 4 0.00817716 0.30653 0.716486
821 4 0.0953604 0.248693 0.701933
948 4 0.211496 0.274062 0.679197
1065 4 0.219524 0.280931 0.694948
1064 4 0.236244 0.327725 0.700557
1063 2 0.227884 0.304328 0.697753
1098 4 0.242872 0.278721 0.740806
1241 4 0.232398 0.294058 0.747499
1097 4 0.272896 0.245629 0.718351
1096 2 0.257884 0.262175 0.729578
1192 2 0.408154 0.257095 0.749513
893 4 0.0685944 0.338406 0.68799
1279 2 0.0981132 0.405547 0.714493
892 2 0.0865649 0.355525 0.691019
894 4 0.104535 0.372644 0.694048
1281 4 0.113196 0.388842 0.703602
940 2 0.162505 0.408858 0.724752
941 4 0.172649 0.400306 0.703559
1067 4 0.175105 0.414293 0.689483
1028 4 0.232534 0.40913 0.672224
1029 4 0.278142 0.389899 0.679352
1027 2 0.255338 0.399515 0.675788
1139 4 0.289613 0.405577 0.683514
1230 4 0.359638 0.4095 0.720575
3183 4 0.498135 0.413511 0.674209
1981 2 0.995372 0.493026 0.730711
2021 4 0.0294766 0.492429 0.718581
2020 2 0.0479992 0.501906 0.704715
1983 4 0.0148825 0.47836 0.725289
1280 4 0.0830299 0.422252 0.725384
3275 4 0.0843204 0.425541 0.745154
942 4 0.152362 0.417411 0.745945
1080 4 0.160857 0.433945 0.751568
1066 2 0.199225 0.419338 0.685245
1068 4 0.223345 0.424383 0.681007
890 4 0.333655 0.474855 0.669109
1138 2 0.300442 0.421688 0.699274
1140 4 0.311272 0.437798 0.715033
1989 4 0.298842 0.443565 0.729792
1228 2 0.359491 0.421744 0.698774
1229 4 0.359345 0.433988 0.676974
1268 4 0.430163 0.475416 0.648536
1267 2 0.43253 0.494749 0.664214
1100 4 0.47854 0.477197 0.721356
1099 2 0.470428 0.499612 0.71381
1250 4 0.48339 0.47701 0.740577
1203 4 0.078931 0.0439695 0.755831
911 4 0.0483123 0.0739153 0.836926
1201 2 0.0961619 0.0348611 0.771493
2049 4 0.127056 0.0138759 0.779806
1202 4 0.113393 0.0257526 0.787156
1148 4 0.174733 0.0503979 0.764263
1147 2 0.195632 0.0604988 0.773558
1149 4 0.216531 0.0705997 0.782852
1049 4 0.236897 0.0668183 0.784345
1048 2 0.256594 0.0526663 0.790422
1050 4 0.276291 0.0385144 0.796499
817 2 0.375252 0.0716116 0.816743
819 4 0.37223 0.0823318 0.794357
846 4 0.474942 0.0358435 0.772858
1113 4 0.475578 0.0161487 0.766807
844 2 0.496528 0.048375 0.774338
832 2 0.0371488 0.132036 0.784183
863 4 0.00919361 0.107949 0.810279
833 4 0.0216743 0.119735 0.799492
33 3 0.0697623 0.135165 0.76227
834 4 0.0526233 0.144338 0.768873
31 1 0.0831194 0.154134 0.761876
862 2 0.0204881 0.094266 0.827898
1073 4 0.110226 0.167658 0.781451
34 3 0.092012 0.158 0.782957
1130 4 0.211683 0.158703 0.76563
840 4 0.204041 0.144212 0.782684
838 2 0.223363 0.140104 0.798012
839 4 0.242686 0.135997 0.81334
959 4 0.2612 0.130785 0.818563
978 4 0.305912 0.146128 0.775715
958 2 0.27751 0.114027 0.827415
960 4 0.293819 0.0972695 0.836266
1084 2 0.378393 0.126483 0.790849
1085 4 0.37072 0.102738 0.792427
1086 4 0.386067 0.150227 0.789271
1299 4 0.389538 0.16347 0.774979
3268 2 0.494009 0.15144 0.813817
3270 4 0.473117 0.155666 0.800747
1146 4 0.487027 0.164797 0.787932
35 3 0.0708651 0.172129 0.755193
1106 4 0.0538699 0.161178 0.757585
778 2 0.0505352 0.233795 0.812614
779 4 0.027762 0.23091 0.802703
780 4 0.0733084 0.23668 0.822525
1072 2 0.126848 0.186178 0.779023
1074 4 0.143469 0.204698 0.776594
869 4 0.0890163 0.224577 0.827943
1129 2 0.201845 0.181261 0.76121
1131 4 0.192006 0.203819 0.756791
977 4 0.299256 0.186142 0.74647
976 2 0.302584 0.166135 0.761093
1006 2 0.354578 0.246788 0.752657
1297 2 0.392501 0.18103 0.79253
1298 4 0.395464 0.198591 0.81008
47 3 0.403321 0.20674 0.825931
49 3 0.39148 0.241717 0.832934
1263 4 0.448269 0.194175 0.757083
1145 4 0.465193 0.189665 0.75044
1144 2 0.47611 0.177231 0.769186
1213 2 0.00158754 0.260699 0.805538
1214 4 0.0217936 0.248847 0.796796
1240 2 0.214229 0.286192 0.762768
1242 4 0.196059 0.278326 0.778038
801 4 0.296477 0.334374 0.826138
1166 4 0.404933 0.25749 0.819679
1043 4 0.381882 0.259072 0.823184
1042 2 0.37128 0.267713 0.802254
1007 4 0.364829 0.260414 0.770944
1044 4 0.360677 0.276354 0.781323
1193 4 0.410478 0.277321 0.764027
806 4 0.422593 0.328397 0.777975
1167 4 0.450531 0.266773 0.801365
1165 2 0.427732 0.262131 0.810522
1306 2 0.48012 0.274063 0.822585