ITEM: TIMESTEP
2570000
ITEM: NUMBER OF ATOMS
4590
ITEM: BOX BOUNDS pp pp pp
-9.9985700000000008e+00 9.9985700000000008e+00
-9.9985700000000008e+00 9.9985700000000008e+00
-9.9985700000000008e+00 9.9985700000000008e+00
ITEM: ATOMS id type xs ys zs
463 2 0.0423615 0.0523983 0.0226749
464 4 0.0543719 0.0337505 0.0342157
465 4 0.030351 0.071046 0.0111342
1668 4 0.0672327 0.0173047 0.0463422
1666 2 0.0568975 0.0208397 0.0688336
3290 4 0.079022 0.0174074 0.027328
3289 2 0.094457 0.0298606 0.0121011
565 2 0.138012 0.0262774 0.0470875
567 4 0.116847 0.0392178 0.0439642
566 4 0.159178 0.0133369 0.0502108
491 4 0.268342 0.00357946 0.0404562
985 2 0.306862 0.040672 0.000228105
2143 2 0.354875 0.0161514 0.0121367
987 4 0.330732 0.0415498 0.00761698
745 2 0.474213 0.0567761 0.0536224
746 4 0.457965 0.0694722 0.0677644
747 4 0.490461 0.04408 0.0394803
555 4 0.040583 0.145802 0.0160373
700 2 0.0415671 0.103678 0.00189142
702 4 0.0427209 0.128185 0.00671029
553 2 0.025064 0.159384 0.00190047
462 4 0.333909 0.15707 0.0630376
359 4 0.251845 0.160976 0.0077867
460 2 0.311375 0.162736 0.0722731
422 4 0.0668189 0.182473 0.036795
421 2 0.088604 0.1872 0.0254703
423 4 0.110389 0.191926 0.0141455
505 2 0.14583 0.242525 0.0646124
506 4 0.167014 0.229714 0.0611103
737 4 0.181194 0.239584 0.0715188
736 2 0.201079 0.224891 0.067794
738 4 0.220964 0.210198 0.0640693
354 4 0.235638 0.197799 0.0637087
352 2 0.253322 0.185903 0.0767835
665 4 0.318164 0.188107 0.0405969
664 2 0.325501 0.184018 0.0170462
1071 4 0.397552 0.241015 0.0181219
1069 2 0.409237 0.224091 0.00390194
573 4 0.384674 0.253471 0.0101875
826 2 0.495385 0.220862 0.00757032
324 4 0.461131 0.251225 0.0401834
322 2 0.474018 0.242945 0.0599454
323 4 0.486905 0.234665 0.0797075
519 4 0.504708 0.22797 0.0740655
2807 4 0.028138 0.269872 0.015333
2806 2 0.00341008 0.266839 0.0174569
294 4 0.097529 0.306046 0.0517816
292 2 0.115247 0.289153 0.056868
456 4 0.105332 0.317993 0.0660275
293 4 0.132964 0.272259 0.0619544
507 4 0.124646 0.255337 0.0681144
741 4 0.317585 0.325373 0.0263995
611 4 0.273996 0.253026 0.0757775
612 4 0.259891 0.300693 0.0812211
610 2 0.266943 0.276859 0.0784993
630 4 0.405617 0.252899 0.0782659
571 2 0.367445 0.269754 0.00223947
454 2 0.101126 0.339245 0.078512
607 2 0.247302 0.336211 0.0823084
608 4 0.247455 0.360062 0.0748045
1289 4 0.190656 0.402459 0.00102466
739 2 0.321473 0.336334 0.0485338
250 2 0.284769 0.379083 0.0655021
251 4 0.30538 0.393235 0.0657807
524 4 0.313918 0.392385 0.0480633
740 4 0.325361 0.347294 0.070668
252 4 0.264158 0.36493 0.0652235
523 2 0.335519 0.404592 0.0449717
226 2 0.387541 0.388089 0.0341609
228 4 0.366976 0.40018 0.0416458
227 4 0.408107 0.375997 0.0266759
525 4 0.357121 0.416798 0.0418802
386 4 0.342745 0.352961 0.0763149
1305 4 0.420527 0.368916 0.0122196
281 4 0.438994 0.364337 0.0761021
280 2 0.463831 0.36182 0.0746889
282 4 0.488667 0.359302 0.0732757
671 4 0.419232 0.369177 0.0754725
552 4 0.0285003 0.452038 0.052673
314 4 0.0239819 0.438513 0.0668367
550 2 0.0119897 0.469654 0.0461726
313 2 0.0376134 0.423415 0.0813767
243 4 0.221043 0.459582 0.055018
1440 4 0.222863 0.456147 0.0748237
1290 4 0.214431 0.444685 0.0133708
241 2 0.211212 0.480508 0.0454975
1288 2 0.202543 0.423572 0.00719773
271 2 0.270832 0.498505 0.062021
272 4 0.288306 0.488882 0.0770945
1583 4 0.462033 0.463379 0.0739961
1582 2 0.445247 0.477372 0.0861448
1667 4 0.0465623 0.0243748 0.0913251
16 1 0.0339812 0.0350561 0.1173
2480 4 0.0174516 0.0573148 0.14168
18 3 0.044716 0.0532622 0.107724
19 3 0.0137969 0.0417462 0.126587
2479 2 0.0245388 0.0797303 0.150194
17 3 0.0298234 0.0194262 0.100943
20 3 0.0472217 0.025784 0.133343
1422 4 0.0035906 0.0399309 0.147456
450 4 0.149635 0.0787826 0.139246
652 2 0.247419 0.0441694 0.1453
653 4 0.230569 0.046268 0.163653
654 4 0.264269 0.0420709 0.126946
1476 4 0.266523 0.042118 0.1071
1474 2 0.272125 0.0196076 0.0977689
297 4 0.353809 0.0225326 0.0878514
295 2 0.377039 0.0317224 0.0888948
296 4 0.400269 0.0409122 0.0899382
484 2 0.330901 0.00807345 0.108744
485 4 0.334255 0.0210177 0.0876158
557 4 0.408038 0.0557207 0.100451
556 2 0.418645 0.0734344 0.114554
2481 4 0.0316261 0.102146 0.158709
236 4 0.136644 0.135895 0.117507
449 4 0.125958 0.120531 0.125204
448 2 0.137797 0.0996568 0.132225
235 2 0.140781 0.159844 0.123384
580 2 0.311674 0.134502 0.160009
581 4 0.287997 0.139614 0.153808
582 4 0.33535 0.12939 0.166211
758 4 0.354701 0.13474 0.167823
558 4 0.429253 0.091148 0.128656
771 4 0.437399 0.109434 0.125204
769 2 0.441365 0.114875 0.149284
370 2 0.16301 0.207121 0.150078
372 4 0.145598 0.22059 0.138219
237 4 0.144918 0.183792 0.12926
362 4 0.138988 0.229357 0.154408
279 4 0.245738 0.228423 0.133711
371 4 0.180421 0.193653 0.161936
461 4 0.288841 0.168402 0.0815086
353 4 0.271006 0.174008 0.0898584
277 2 0.254389 0.234834 0.111144
278 4 0.26304 0.241244 0.0885779
285 4 0.256968 0.238792 0.146781
624 4 0.448373 0.242383 0.130977
629 4 0.438994 0.23836 0.112549
338 4 0.0372737 0.263403 0.129094
337 2 0.0567145 0.270622 0.143062
703 2 0.0103482 0.317324 0.167659
704 4 0.0297191 0.309146 0.154129
339 4 0.0761553 0.277842 0.157031
361 2 0.130035 0.249116 0.166844
609 4 0.24715 0.31236 0.0898122
755 4 0.31932 0.242375 0.162241
283 2 0.27114 0.249686 0.164263
754 2 0.326678 0.247741 0.138955
756 4 0.334036 0.253107 0.115669
254 4 0.391936 0.259644 0.0893491
253 2 0.367324 0.2579 0.0933967
255 4 0.342712 0.256156 0.0974443
628 2 0.422306 0.24563 0.0954075
622 2 0.436298 0.253445 0.149872
621 4 0.0412575 0.399602 0.110126
619 2 0.0440168 0.386144 0.131017
620 4 0.0467761 0.372686 0.151908
315 4 0.0512449 0.408317 0.0959168
455 4 0.096919 0.360496 0.0909965
647 4 0.127595 0.391075 0.156924
537 4 0.146616 0.394157 0.151655
535 2 0.161856 0.400162 0.132764
536 4 0.177096 0.406167 0.113873
385 2 0.348944 0.370611 0.0929049
387 4 0.355143 0.388261 0.109495
12 3 0.39139 0.37428 0.136015
11 1 0.380861 0.394509 0.139027
15 3 0.359965 0.393503 0.130029
672 4 0.399909 0.382234 0.119709
302 4 0.346673 0.407207 0.119787
14 3 0.39324 0.411053 0.128469
670 2 0.409571 0.375706 0.0975907
13 3 0.379487 0.398937 0.161763
104 3 0.495088 0.356279 0.0935467
1438 2 0.21973 0.456477 0.0996281
625 2 0.229489 0.431392 0.151928
1439 4 0.216598 0.456808 0.124432
627 4 0.227832 0.440112 0.128552
638 4 0.280448 0.456545 0.148998
637 2 0.272556 0.480202 0.150798
303 4 0.325762 0.447955 0.139864
301 2 0.336217 0.427581 0.129825
659 4 0.329948 0.463897 0.151609
494 4 0.378655 0.476398 0.108854
495 4 0.393104 0.429974 0.120548
493 2 0.38588 0.453186 0.114701
1674 4 0.41807 0.491018 0.11521
1584 4 0.428461 0.491365 0.0982936
674 4 0.162534 0.0611097 0.210102
690 4 0.165824 0.0482916 0.195544
673 2 0.167261 0.0739716 0.231017
689 4 0.209859 0.0246399 0.194035
688 2 0.187842 0.0364657 0.194789
1505 4 0.206467 0.00589336 0.186911
693 4 0.236753 0.0586275 0.180457
691 2 0.254824 0.0675408 0.195262
1699 2 0.305351 0.0826472 0.213323
1700 4 0.326147 0.0757807 0.225388
692 4 0.272894 0.0764541 0.210067
22 3 0.37109 0.052131 0.227898
698 4 0.382738 0.0565616 0.243713
21 1 0.367544 0.0743215 0.222983
333 4 0.393971 0.0734187 0.244744
25 3 0.37157 0.0778376 0.200846
23 3 0.345527 0.079684 0.227976
351 4 0.494473 0.0602963 0.238423
349 2 0.476733 0.0778424 0.240034
511 2 0.999999 0.14866 0.205402
578 4 0.0390734 0.156129 0.227338
513 4 0.0230564 0.149032 0.215067
28 3 0.245994 0.11731 0.166497
29 3 0.244879 0.154912 0.171912
27 3 0.254128 0.131911 0.200162
477 4 0.240751 0.169422 0.184886
1701 4 0.284555 0.0895138 0.201258
26 1 0.255843 0.13523 0.177464
30 3 0.277837 0.136707 0.17174
759 4 0.369227 0.0903749 0.185752
24 3 0.381944 0.0872373 0.235798
757 2 0.361964 0.112557 0.176787
331 2 0.41741 0.0812709 0.240986
770 4 0.445332 0.120316 0.173363
312 4 0.454968 0.115164 0.189695
311 4 0.484201 0.135193 0.224979
310 2 0.469584 0.125179 0.207337
521 4 0.489903 0.14559 0.241595
350 4 0.458992 0.0953885 0.241645
332 4 0.44085 0.089123 0.237228
577 2 0.0431915 0.179734 0.234484
529 2 0.012491 0.225738 0.232369
530 4 0.0308816 0.215695 0.246011
579 4 0.0473096 0.203338 0.24163
476 4 0.198567 0.185602 0.163451
475 2 0.219659 0.177512 0.174168
402 4 0.240172 0.203886 0.246941
395 4 0.0818758 0.291289 0.170058
396 4 0.0723823 0.304514 0.217341
443 4 0.0683122 0.298119 0.23643
394 2 0.077129 0.297902 0.193699
442 2 0.068585 0.276275 0.248594
363 4 0.121083 0.268874 0.179279
284 4 0.285313 0.26058 0.181746
345 4 0.303495 0.325636 0.247376
528 4 0.42207 0.297884 0.224302
623 4 0.424224 0.264508 0.168767
527 4 0.43451 0.267228 0.186804
526 2 0.42829 0.282556 0.205553
542 4 0.425758 0.315225 0.233139
263 4 0.0500089 0.390838 0.237501
646 2 0.117787 0.375105 0.173474
299 4 0.0949123 0.334644 0.239485
648 4 0.10798 0.359134 0.190025
300 4 0.0920147 0.364065 0.199152
298 2 0.0934635 0.349355 0.219318
290 4 0.214754 0.403874 0.228558
416 4 0.209253 0.421919 0.237393
597 4 0.372293 0.383381 0.1771
596 4 0.34935 0.340911 0.190164
595 2 0.360822 0.362146 0.183632
645 4 0.391306 0.387998 0.179007
643 2 0.404625 0.396756 0.19827
644 4 0.417944 0.405515 0.217533
1429 2 0.175002 0.484753 0.175811
626 4 0.231146 0.422673 0.175303
1430 4 0.187543 0.467818 0.189269
417 4 0.19134 0.453135 0.202673
415 2 0.200296 0.437527 0.220033
658 2 0.34307 0.469172 0.172229
660 4 0.356191 0.474446 0.19285
231 4 0.356184 0.493282 0.198553
447 4 0.421387 0.422567 0.227119
445 2 0.421628 0.428662 0.251367
1403 4 0.0157545 0.00321249 0.277571
233 4 0.00926633 0.0128804 0.261301
232 2 0.0100971 0.0372252 0.266941
234 4 0.0109279 0.06157 0.272582
317 4 0.0259282 0.0689961 0.282743
316 2 0.0482364 0.0759846 0.291614
318 4 0.0705446 0.0829731 0.300484
1406 4 0.170698 0.995135 0.314362
606 4 0.171774 0.0572901 0.329234
1518 4 0.408319 0.0167721 0.278169
697 2 0.385531 0.0369452 0.258964
699 4 0.388324 0.0173289 0.274214
480 4 0.496062 0.0166529 0.326404
425 4 0.423025 0.0542497 0.286603
424 2 0.446813 0.0594105 0.29232
258 4 0.46532 0.0802174 0.307129
426 4 0.470601 0.0645713 0.298036
1749 4 0.475965 0.0185511 0.320985
391 2 0.110609 0.147541 0.300273
392 4 0.121432 0.155461 0.27917
393 4 0.0997856 0.139621 0.321375
544 2 0.155876 0.162817 0.269457
545 4 0.136067 0.147683 0.267522
675 4 0.171987 0.0868335 0.251931
723 4 0.230346 0.0957757 0.282413
722 4 0.192457 0.0858513 0.251322
721 2 0.211401 0.0908135 0.266867
599 4 0.230037 0.109793 0.310184
404 4 0.237284 0.126136 0.300561
403 2 0.226052 0.14846 0.299752
256 2 0.484117 0.0953037 0.313781
761 4 0.493738 0.126797 0.329127
257 4 0.502915 0.11039 0.320432
546 4 0.175685 0.177951 0.271393
405 4 0.21482 0.170784 0.298942
401 4 0.232073 0.177833 0.28885
400 2 0.236122 0.190859 0.267896
765 4 0.439418 0.195783 0.307351
763 2 0.461599 0.199631 0.318232
444 4 0.0688578 0.254432 0.260758
750 4 0.0990659 0.330348 0.258767
748 2 0.0835331 0.334336 0.27795
496 2 0.347275 0.289756 0.329275
497 4 0.346378 0.314628 0.331673
498 4 0.348171 0.264884 0.326877
541 2 0.428839 0.318576 0.257725
543 4 0.43192 0.321926 0.282311
615 4 0.417269 0.322153 0.294973
2493 4 0.00146312 0.362593 0.320774
366 4 0.0564737 0.350734 0.309315
262 2 0.0552372 0.409087 0.253774
365 4 0.0109401 0.3709 0.304758
749 4 0.0680002 0.338324 0.297134
364 2 0.0337069 0.360817 0.307036
602 4 0.0986327 0.388225 0.299634
777 4 0.0981335 0.408618 0.299319
735 4 0.154718 0.393202 0.287909
601 2 0.102595 0.380839 0.323191
677 4 0.157886 0.411903 0.285641
733 2 0.163219 0.370435 0.28203
289 2 0.222272 0.398394 0.251767
734 4 0.171721 0.347668 0.276151
291 4 0.229789 0.392914 0.274975
414 4 0.23856 0.39282 0.294336
343 2 0.321119 0.339381 0.258585
412 2 0.253506 0.411236 0.302249
309 4 0.337525 0.342727 0.286443
344 4 0.338744 0.353125 0.269795
614 4 0.413321 0.352771 0.334313
307 2 0.35077 0.35221 0.305412
727 2 0.351196 0.403243 0.327058
729 4 0.359614 0.380894 0.319655
308 4 0.364015 0.361693 0.324381
613 2 0.415295 0.337462 0.314643
2924 4 0.500068 0.366078 0.314566
2923 2 0.479245 0.352237 0.314625
2925 4 0.458423 0.338395 0.314684
2862 4 0.490203 0.419774 0.276315
713 4 0.478526 0.408779 0.291514
264 4 0.0604656 0.427336 0.270048
1757 4 0.122188 0.460929 0.272853
776 4 0.126298 0.441856 0.274769
775 2 0.112216 0.425237 0.287044
1756 2 0.116818 0.482142 0.28495
676 2 0.174498 0.426863 0.296838
678 4 0.191111 0.441824 0.308035
768 4 0.192077 0.457267 0.274456
766 2 0.200104 0.480658 0.270768
504 4 0.204505 0.44262 0.321938
413 4 0.268452 0.429653 0.310162
438 4 0.29418 0.451423 0.260685
437 4 0.288043 0.440894 0.309185
436 2 0.291111 0.446158 0.284935
1437 4 0.274854 0.450579 0.320063
5 3 0.284812 0.422564 0.325931
1435 2 0.265744 0.470714 0.331759
433 2 0.33235 0.464315 0.32088
435 4 0.334128 0.484432 0.306139
728 4 0.342778 0.425593 0.33446
120 3 0.493343 0.42406 0.298488
446 4 0.421868 0.434756 0.275616
714 4 0.433193 0.42989 0.291609
712 2 0.45586 0.419334 0.291562
1782 4 0.0822578 0.00236212 0.358888
427 2 0.0518262 0.997898 0.335847
429 4 0.0638108 0.00751703 0.35557
730 2 0.12451 0.0675353 0.396935
604 2 0.156807 0.0697544 0.344912
732 4 0.13088 0.0714509 0.373076
319 2 0.244914 0.0667788 0.402039
321 4 0.249238 0.05254 0.381945
249 4 0.3265 0.0667818 0.342517
684 4 0.309286 0.0608059 0.352048
683 4 0.26706 0.0474123 0.375249
682 2 0.288173 0.0541091 0.363648
247 2 0.349932 0.0726156 0.349004
248 4 0.373364 0.0784493 0.355491
633 4 0.388952 0.0838643 0.366754
1747 2 0.468004 0.00149931 0.337448
2585 4 0.015811 0.0971122 0.413124
605 4 0.141839 0.0822187 0.36059
399 4 0.0996426 0.150904 0.336138
398 4 0.112182 0.155998 0.384279
397 2 0.105912 0.153451 0.360208
598 2 0.230345 0.10518 0.334757
600 4 0.230654 0.100566 0.359329
685 2 0.222431 0.118415 0.390446
687 4 0.21679 0.1136 0.366568
707 4 0.244022 0.154433 0.353329
686 4 0.228072 0.123229 0.414325
631 2 0.392702 0.091452 0.390281
632 4 0.396453 0.0990397 0.413808
418 2 0.371533 0.139243 0.406605
419 4 0.378683 0.16264 0.401444
420 4 0.364382 0.115846 0.411766
760 2 0.479915 0.14033 0.344969
762 4 0.466093 0.153862 0.360811
515 4 0.450073 0.171778 0.408417
470 4 0.0570051 0.208019 0.39877
390 4 0.0655067 0.223562 0.408705
388 2 0.0848012 0.237284 0.400666
276 4 0.115437 0.250439 0.376216
473 4 0.210821 0.214225 0.347259
474 4 0.173823 0.247631 0.351251
472 2 0.192322 0.230928 0.349255
708 4 0.223165 0.199783 0.356342
706 2 0.233594 0.177108 0.354835
651 4 0.223236 0.236872 0.389301
649 2 0.22527 0.216294 0.403358
489 4 0.242176 0.24013 0.384634
650 4 0.227304 0.195717 0.417416
377 4 0.358202 0.219626 0.36969
717 4 0.365587 0.202375 0.364567
716 4 0.392735 0.177801 0.398623
715 2 0.379161 0.190088 0.381595
376 2 0.348794 0.239062 0.357084
2455 2 0.399288 0.233461 0.412949
2457 4 0.417493 0.219078 0.42227
764 4 0.483779 0.203479 0.329113
268 2 0.489883 0.237795 0.366629
270 4 0.476467 0.240568 0.387545
389 4 0.104096 0.251005 0.392627
275 4 0.157347 0.260142 0.350719
274 2 0.136392 0.255291 0.363467
488 4 0.25162 0.288226 0.374718
508 2 0.243892 0.327419 0.368639
487 2 0.246898 0.264178 0.379676
509 4 0.25611 0.305605 0.368907
378 4 0.339385 0.258498 0.344478
2456 4 0.381082 0.247844 0.403629
266 4 0.34599 0.327119 0.382776
585 4 0.353043 0.308628 0.38609
583 2 0.364311 0.287589 0.393543
584 4 0.375579 0.266549 0.400997
306 4 0.469066 0.257441 0.396118
547 2 0.0916611 0.394992 0.381067
549 4 0.0986565 0.376972 0.365209
603 4 0.106557 0.373453 0.346747
548 4 0.0846657 0.413013 0.396925
510 4 0.231674 0.349232 0.368371
375 4 0.201307 0.399507 0.333839
374 4 0.220678 0.358466 0.354842
373 2 0.210993 0.378987 0.344341
3 3 0.296339 0.397126 0.351183
267 4 0.323538 0.368507 0.365934
265 2 0.334764 0.347813 0.374355
119 3 0.491171 0.409313 0.333064
561 4 0.468042 0.399377 0.40807
752 4 0.480418 0.409213 0.39429
407 4 0.0669937 0.416701 0.388882
680 4 0.0453996 0.48304 0.390336
406 2 0.0600196 0.440711 0.389154
408 4 0.0530455 0.46472 0.389426
569 4 0.0987864 0.427673 0.402006
568 2 0.115349 0.439569 0.416475
635 4 0.145514 0.471936 0.397577
634 2 0.164501 0.464377 0.383172
502 2 0.197613 0.440028 0.345833
503 4 0.19072 0.437435 0.369727
636 4 0.183489 0.456817 0.368767
1436 4 0.256635 0.490848 0.343456
434 4 0.330573 0.444197 0.335621
2 3 0.319692 0.423997 0.33913
1 1 0.297796 0.419251 0.344345
1401 4 0.313301 0.485891 0.405669
668 4 0.296186 0.451899 0.367591
4 3 0.290952 0.433308 0.361491
667 2 0.298264 0.461853 0.390433
669 4 0.300342 0.471808 0.413276
592 2 0.479972 0.500721 0.363931
593 4 0.480581 0.475725 0.363811
753 4 0.485374 0.423559 0.346641
751 2 0.482896 0.416386 0.370466
2755 2 0.999669 0.0579974 0.419487
2757 4 0.00317282 0.082754 0.419378
718 2 0.0324705 0.0705141 0.470873
719 4 0.05025 0.0564947 0.460265
369 4 0.0633791 0.0614062 0.445615
720 4 0.014691 0.0845335 0.481481
731 4 0.118139 0.0636197 0.420795
367 2 0.0860624 0.0545346 0.43765
368 4 0.108746 0.047663 0.429686
441 4 0.21536 0.0152923 0.457382
2430 4 0.169811 0.0637313 0.454325
2428 2 0.182855 0.0426655 0.457683
2429 4 0.195898 0.0215998 0.461041
320 4 0.24059 0.0810176 0.422132
341 4 0.172246 0.0817703 0.446769
467 4 0.348912 0.0770091 0.447736
2879 4 0.429224 0.0203929 0.454433
2878 2 0.442606 0.0406082 0.460551
2880 4 0.455989 0.0608236 0.466669
642 4 0.471876 0.0698507 0.463335
640 2 0.495892 0.076756 0.46248
2584 2 0.00272999 0.114667 0.425202
725 4 0.246935 0.0896136 0.441116
410 4 0.241593 0.13158 0.427388
409 2 0.240817 0.156537 0.426076
340 2 0.183201 0.100799 0.458731
1152 4 0.201485 0.114706 0.488645
342 4 0.194157 0.119827 0.470692
430 2 0.308705 0.090348 0.489379
432 4 0.288686 0.0992004 0.477293
724 2 0.259246 0.0904274 0.462864
726 4 0.271557 0.0912412 0.484611
466 2 0.369876 0.088672 0.440685
468 4 0.390839 0.100335 0.433635
574 2 0.413639 0.153109 0.476786
516 4 0.441572 0.153897 0.454337
575 4 0.427176 0.142261 0.458779
514 2 0.445822 0.162837 0.431377
469 2 0.0525766 0.195172 0.419758
260 4 0.0533825 0.181882 0.459921
471 4 0.0481482 0.182325 0.440747
259 2 0.0620695 0.174657 0.482226
411 4 0.240041 0.181495 0.424765
576 4 0.400102 0.163958 0.494793
617 4 0.0522139 0.27028 0.42821
616 2 0.030535 0.260168 0.420934
618 4 0.00885608 0.250055 0.413658
695 4 0.1045 0.308595 0.422494
696 4 0.148476 0.330327 0.432216
694 2 0.126488 0.319461 0.427355
1260 4 0.159098 0.318085 0.443595
1258 2 0.182401 0.317699 0.434539
1259 4 0.205704 0.317313 0.425483
304 2 0.481054 0.266287 0.416198
305 4 0.493041 0.275133 0.436279
326 4 0.0935274 0.358638 0.426208
325 2 0.0982847 0.372099 0.446734
10 3 0.142867 0.348693 0.472342
7 3 0.116471 0.374208 0.47906
327 4 0.103042 0.38556 0.467261
6 1 0.137124 0.36638 0.485489
8 3 0.152687 0.38342 0.483077
711 4 0.152927 0.403211 0.474837
335 4 0.341945 0.405897 0.439574
238 2 0.358047 0.389505 0.474533
240 4 0.353134 0.404767 0.455348
239 4 0.36296 0.374242 0.493719
2506 2 0.494148 0.351091 0.463891
559 2 0.472389 0.393376 0.43195
2508 4 0.483843 0.369373 0.450298
560 4 0.476736 0.387376 0.455831
927 4 0.491201 0.374604 0.493044
1382 4 0.0340718 0.474467 0.468782
1381 2 0.0131764 0.470543 0.455623
538 2 0.0642123 0.479778 0.486756
540 4 0.0521685 0.47866 0.464873
384 4 0.135687 0.499898 0.483099
772 2 0.142451 0.4888 0.449472
710 4 0.138591 0.442912 0.448022
570 4 0.131912 0.451465 0.430943
774 4 0.139009 0.471276 0.431973
709 2 0.145759 0.423062 0.46143
334 2 0.332047 0.428667 0.436616
336 4 0.32215 0.451436 0.433657
1399 2 0.333555 0.492302 0.418854
1400 4 0.35381 0.498712 0.432038
588 4 0.364504 0.503025 0.447721
949 2 0.216376 0.0754865 0.538712
950 4 0.234162 0.0613194 0.528314
1031 4 0.17899 0.0833894 0.551453
1030 2 0.17387 0.08592 0.575795
1182 4 0.252188 0.0525795 0.534355
961 2 0.325854 0.0197742 0.570579
1180 2 0.274842 0.0457372 0.542427
963 4 0.317886 0.0349225 0.552353
1181 4 0.297496 0.038895 0.550498
843 4 0.331616 0.0649762 0.512045
1217 4 0.388177 0.0700331 0.51654
841 2 0.355393 0.0581742 0.51573
842 4 0.379169 0.0513722 0.519416
1216 2 0.408063 0.0786178 0.52903
962 4 0.333823 0.00462596 0.588806
4467 4 0.4295 0.019212 0.573403
261 4 0.0707566 0.167431 0.504531
1033 2 0.0816032 0.165988 0.536634
1082 4 0.0632629 0.14895 0.567065
1081 2 0.0427589 0.146038 0.581076
937 2 0.143521 0.158612 0.528927
938 4 0.121471 0.161716 0.5403
1034 4 0.0878969 0.167927 0.512513
939 4 0.165571 0.155508 0.517555
951 4 0.19859 0.0896535 0.549111
1151 4 0.184551 0.149688 0.520113
1150 2 0.193018 0.132197 0.504379
431 4 0.328723 0.0814956 0.501465
857 4 0.326469 0.128751 0.577839
898 2 0.360647 0.152682 0.566951
899 4 0.342497 0.135607 0.569003
1218 4 0.42795 0.0872026 0.541521
1035 4 0.0753095 0.164049 0.560754
1272 4 0.10406 0.242103 0.579959
879 4 0.099066 0.245214 0.561401
811 2 0.320195 0.234965 0.569807
812 4 0.295771 0.229616 0.569655
796 2 0.283203 0.193444 0.580233
798 4 0.279911 0.216037 0.57004
813 4 0.344619 0.240314 0.569959
900 4 0.378797 0.169757 0.564899
872 4 0.382575 0.189989 0.566106
873 4 0.359034 0.233323 0.557816
871 2 0.370805 0.211656 0.561961
878 4 0.0824446 0.257104 0.515761
877 2 0.0907553 0.251159 0.538581
1190 4 0.249339 0.335371 0.509054
1191 4 0.202055 0.319195 0.50724
1189 2 0.225697 0.327283 0.508147
896 4 0.186015 0.326781 0.516355
803 4 0.260093 0.32604 0.522147
954 4 0.403425 0.292382 0.567686
1205 4 0.385381 0.297157 0.57164
1204 2 0.37377 0.319058 0.574917
952 2 0.424761 0.279827 0.571199
953 4 0.446096 0.267272 0.574712
905 4 0.460957 0.252103 0.57141
1137 4 0.164886 0.371533 0.56029
9 3 0.136044 0.359722 0.50769
1135 2 0.159296 0.381396 0.582576
897 4 0.161314 0.35433 0.549995
895 2 0.173665 0.340555 0.533175
802 2 0.280704 0.337426 0.530558
804 4 0.301315 0.348811 0.538969
929 4 0.307735 0.366532 0.545092
928 2 0.328764 0.356271 0.553905
930 4 0.349793 0.346009 0.562719
1206 4 0.362159 0.340958 0.578195
1001 4 0.458751 0.389791 0.546737
926 4 0.468548 0.397356 0.531383
925 2 0.479874 0.38598 0.512213
1000 2 0.455828 0.399191 0.569721
539 4 0.0762561 0.480896 0.508639
934 2 0.00658674 0.484583 0.571477
936 4 0.0271779 0.496173 0.579654
1936 2 0.0561463 0.498431 0.550271
1938 4 0.0408807 0.487584 0.566839
1172 4 0.276263 0.471463 0.579732
882 4 0.285912 0.46808 0.561715
880 2 0.280556 0.482361 0.541903
881 4 0.2752 0.496643 0.52209
1058 4 0.0660191 0.00890813 0.623468
1057 2 0.0760725 0.0305759 0.616078
825 4 0.0647072 0.994813 0.6384
1059 4 0.0861259 0.0522437 0.608688
1155 4 0.0837546 0.064446 0.624091
1153 2 0.0986037 0.083835 0.618729
2283 4 0.435632 0.031987 0.587415
2282 4 0.461663 0.0503532 0.625961
2281 2 0.448648 0.0411701 0.606688
43 3 0.476566 0.0396741 0.632667
41 1 0.484325 0.0532348 0.649822
44 3 0.471642 0.0726331 0.650939
1199 4 0.00832646 0.153919 0.584946
1083 4 0.022255 0.143127 0.595086
1032 4 0.16875 0.0884507 0.600138
1154 4 0.113453 0.103224 0.613367
1221 4 0.131087 0.110983 0.608131
1219 2 0.144948 0.116724 0.628133
1220 4 0.158809 0.122465 0.648135
1283 4 0.164011 0.129646 0.666575
1212 4 0.220976 0.139771 0.640807
1210 2 0.239364 0.146197 0.656484
1004 4 0.310943 0.0874433 0.66912
1003 2 0.295605 0.0901571 0.64956
1005 4 0.280267 0.0928708 0.630001
858 4 0.297136 0.159742 0.603913
856 2 0.311803 0.144247 0.590876
1270 2 0.116795 0.229993 0.597745
1271 4 0.12953 0.217883 0.615531
909 4 0.147225 0.207845 0.615889
907 2 0.162803 0.209125 0.635405
908 4 0.178381 0.210405 0.654921
797 4 0.286495 0.170851 0.590426
1025 4 0.364332 0.192802 0.649806
1024 2 0.384318 0.20782 0.649335
1026 4 0.404304 0.222837 0.648864
1143 4 0.360901 0.176468 0.660486
906 4 0.469211 0.247191 0.620486
904 2 0.465084 0.249647 0.595948
3122 4 0.489134 0.231523 0.665131
3123 4 0.443172 0.238674 0.646771
3121 2 0.466153 0.235098 0.655951
1064 4 0.216422 0.316857 0.664155
1239 4 0.260548 0.286806 0.579568
1237 2 0.283465 0.29349 0.587006
792 4 0.326803 0.302954 0.601305
790 2 0.323175 0.310501 0.624865
1238 4 0.306381 0.300174 0.594444
791 4 0.319548 0.318047 0.648424
983 4 0.0434572 0.390831 0.616153
1041 4 0.0561786 0.38714 0.62997
1039 2 0.0763861 0.401857 0.629499
982 2 0.0225139 0.393943 0.602854
893 4 0.101044 0.33911 0.670063
992 4 0.160586 0.396715 0.623413
1136 4 0.153706 0.391259 0.604862
991 2 0.138448 0.407382 0.628027
993 4 0.11631 0.418049 0.632642
1002 4 0.452906 0.40859 0.592706
1910 4 0.449555 0.415197 0.612727
2022 4 0.0342621 0.496417 0.654821
1040 4 0.0965937 0.416575 0.629028
1161 4 0.188537 0.502776 0.597075
1160 4 0.214103 0.461139 0.586423
1159 2 0.20132 0.481958 0.591749
1173 4 0.231649 0.453049 0.592817
2172 4 0.204066 0.478696 0.650937
2170 2 0.18785 0.497729 0.650998
1171 2 0.253956 0.462256 0.586274
1175 4 0.268477 0.482156 0.613671
1174 2 0.283729 0.49035 0.631711
1176 4 0.29898 0.498543 0.64975
889 2 0.349303 0.498539 0.654326
891 4 0.348427 0.491827 0.630256
1911 4 0.419278 0.436939 0.646063
1909 2 0.434416 0.426068 0.629395
1268 4 0.421687 0.456916 0.64965
1267 2 0.429168 0.47982 0.656328
3330 4 0.488055 0.412669 0.654264
1185 4 0.0194483 0.0532758 0.672463
945 4 0.0394099 0.0509341 0.676765
943 2 0.0423035 0.0621189 0.698939
1076 4 0.0352598 0.0704177 0.738396
944 4 0.045197 0.0733037 0.721114
831 4 0.331726 0.0689853 0.71291
42 3 0.482342 0.0418971 0.669739
1163 4 0.497581 0.0395384 0.681651
3385 2 0.00193841 0.128283 0.743646
35 3 0.079889 0.15237 0.753312
1282 2 0.166034 0.117345 0.68825
1284 4 0.168056 0.105045 0.709924
1227 4 0.176961 0.117236 0.721925
1225 2 0.18988 0.124951 0.741894
1211 4 0.257752 0.152623 0.672161
888 4 0.269489 0.153177 0.687376
886 2 0.288515 0.139094 0.679322
887 4 0.307542 0.125012 0.671269
829 2 0.317393 0.0835842 0.698536
830 4 0.303061 0.0981831 0.684161
976 2 0.299997 0.148704 0.736418
1142 4 0.354043 0.148625 0.701454
1141 2 0.357472 0.162547 0.68097
1107 4 0.0385704 0.185058 0.734355
851 4 0.0219414 0.180937 0.726132
850 2 0.00936283 0.201253 0.718768
1208 4 0.0827173 0.235563 0.666764
822 4 0.13647 0.22345 0.696064
1278 4 0.13736 0.217812 0.715585
820 2 0.1125 0.224835 0.689085
821 4 0.08853 0.22622 0.682107
1276 2 0.148022 0.211447 0.737287
947 4 0.178487 0.223439 0.669666
946 2 0.181163 0.247892 0.674142
977 4 0.306182 0.166516 0.719996
916 2 0.312146 0.204234 0.726509
918 4 0.314313 0.180049 0.732473
917 4 0.30998 0.228419 0.720545
1261 2 0.435352 0.227672 0.739595
1263 4 0.431422 0.203036 0.741266
1145 4 0.448505 0.195912 0.750111
3357 4 0.500777 0.227334 0.681431
1207 2 0.0717406 0.256398 0.675167
1209 4 0.0607638 0.277233 0.68357
1244 4 0.0179652 0.306862 0.697314
1243 2 0.00301535 0.305452 0.717307
948 4 0.183839 0.272346 0.678618
1065 4 0.203612 0.27015 0.676609
1063 2 0.210017 0.293504 0.670382
1240 2 0.227799 0.289907 0.727305
1242 4 0.210159 0.304812 0.717723
1241 4 0.24544 0.275001 0.736888
1097 4 0.307755 0.246537 0.727012
1008 4 0.327741 0.24907 0.731858
1096 2 0.284302 0.255193 0.727454
1098 4 0.260848 0.263849 0.727896
1006 2 0.344893 0.259767 0.746574
1262 4 0.439281 0.252308 0.737924
1192 2 0.419685 0.281399 0.736053
1194 4 0.428134 0.261301 0.723812
1279 2 0.0631377 0.391479 0.710344
3275 4 0.0340004 0.389997 0.741722
1280 4 0.0418578 0.389918 0.723379
892 2 0.101979 0.361626 0.680896
1281 4 0.0844176 0.39304 0.697309
894 4 0.102914 0.384141 0.691729
940 2 0.15852 0.40478 0.735692
942 4 0.135178 0.412619 0.740039
815 4 0.11672 0.413849 0.744857
1028 4 0.226982 0.376825 0.674088
1027 2 0.25172 0.380447 0.673809
941 4 0.181862 0.396942 0.731345
1068 4 0.212383 0.388052 0.682448
1067 4 0.197348 0.407487 0.726002
1066 2 0.204866 0.397769 0.704225
1029 4 0.276458 0.384069 0.67353
1139 4 0.283213 0.40279 0.677261
1230 4 0.380025 0.396852 0.739603
1228 2 0.368478 0.390765 0.718277
1229 4 0.356931 0.384679 0.696951
3183 4 0.495966 0.401836 0.668643
1138 2 0.289124 0.424303 0.688551
1140 4 0.295034 0.445815 0.699841
1989 4 0.309831 0.450444 0.713621
1987 2 0.306162 0.457048 0.737456
1100 4 0.473005 0.471845 0.717384
1099 2 0.46814 0.496028 0.713301
1250 4 0.476712 0.46345 0.73555
1075 2 0.0449839 0.054225 0.75478
1077 4 0.054708 0.0380324 0.771163
1203 4 0.0678009 0.0229457 0.765455
1201 2 0.0924701 0.0254301 0.768686
2049 4 0.135501 0.0310334 0.763118
1202 4 0.117139 0.0279145 0.771918
2047 2 0.143993 0.00809976 0.757911
1148 4 0.179039 0.0615837 0.779559
1147 2 0.198922 0.0501895 0.78956
1149 4 0.218805 0.0387953 0.799561
1049 4 0.235107 0.0326494 0.79054
1048 2 0.251476 0.041862 0.774036
1050 4 0.267845 0.0510746 0.757533
818 4 0.377409 0.0760939 0.818605
844 2 0.497544 0.0255156 0.76532
846 4 0.478059 0.0114378 0.758442
1105 2 0.0498498 0.165535 0.745162
862 2 0.0290809 0.0904421 0.831196
3387 4 0.0235533 0.124522 0.755639
832 2 0.0398465 0.129894 0.792539
863 4 0.016584 0.109501 0.820912
833 4 0.0251502 0.123114 0.811597
33 3 0.0712856 0.126331 0.779111
834 4 0.0545428 0.136675 0.77348
1106 4 0.0611291 0.146011 0.755968
31 1 0.0884823 0.137055 0.767813
32 3 0.100539 0.121401 0.756034
34 3 0.102586 0.147541 0.782963
1073 4 0.110065 0.163944 0.793235
1226 4 0.202799 0.132666 0.761862
840 4 0.208975 0.128179 0.780434
838 2 0.219566 0.136339 0.801563
839 4 0.230158 0.144499 0.822691
978 4 0.293811 0.130892 0.752839
817 2 0.373453 0.0912676 0.799129
819 4 0.369497 0.106441 0.779654
1084 2 0.365884 0.14997 0.783598
1085 4 0.371192 0.125616 0.785569
3268 2 0.48556 0.153774 0.809609
3270 4 0.470774 0.159553 0.790292
1146 4 0.480747 0.166261 0.774235
778 2 0.0713452 0.215516 0.819846
779 4 0.0494963 0.227612 0.818622
1214 4 0.0393799 0.23452 0.802773
1213 2 0.0187515 0.248516 0.804708
1074 4 0.124992 0.210984 0.801305
780 4 0.0931941 0.20342 0.82107
1277 4 0.158683 0.205082 0.75899
1072 2 0.117528 0.187464 0.79727
1131 4 0.170174 0.219971 0.764848
1130 4 0.206328 0.191733 0.784751
1129 2 0.188251 0.205852 0.7748
1086 4 0.360577 0.174324 0.781628
1299 4 0.350318 0.191342 0.784145
1297 2 0.364324 0.205412 0.799345
1298 4 0.37833 0.219482 0.814545
47 3 0.398695 0.221369 0.818568
1144 2 0.464626 0.181086 0.762173
49 3 0.410905 0.253107 0.834576
1044 4 0.373513 0.260135 0.774552
1007 4 0.362045 0.270463 0.761291
1043 4 0.393636 0.260212 0.820332
1042 2 0.383574 0.260174 0.797442
805 2 0.41023 0.32799 0.766027
1166 4 0.414574 0.268315 0.818701
1193 4 0.411235 0.301498 0.748295
806 4 0.422569 0.306457 0.762986
1167 4 0.463625 0.278049 0.818549