ITEM: TIMESTEP
2130000
ITEM: NUMBER OF ATOMS
4590
ITEM: BOX BOUNDS pp pp pp
-9.9985700000000008e+00 9.9985700000000008e+00
-9.9985700000000008e+00 9.9985700000000008e+00
-9.9985700000000008e+00 9.9985700000000008e+00
ITEM: ATOMS id type xs ys zs
1668 4 0.0595573 0.0389697 0.0486869
1666 2 0.0521214 0.0315156 0.0713656
463 2 0.0653475 0.073612 0.0208782
3290 4 0.0724432 0.0313305 0.0126745
464 4 0.0691538 0.0489132 0.0200663
566 4 0.183448 0.0482526 0.0360002
565 2 0.192732 0.0629274 0.05399
567 4 0.202016 0.0776022 0.0719798
490 2 0.282416 0.0180942 0.0489241
491 4 0.286961 0.0288695 0.026824
986 4 0.299361 0.0348497 0.0127701
2263 2 0.276833 0.070053 0.00122979
2265 4 0.256625 0.0828221 0.00856187
296 4 0.393763 0.0481604 0.0780928
745 2 0.47378 0.047047 0.0515227
747 4 0.49619 0.052605 0.0611168
746 4 0.451369 0.041489 0.0419285
465 4 0.0615412 0.0983108 0.0216901
701 4 0.0549701 0.0970633 0.00331884
2624 4 0.989708 0.1581 0.0293826
836 4 0.0483906 0.248151 0.0118289
422 4 0.0781589 0.194035 0.0348261
421 2 0.089655 0.194413 0.0126253
358 2 0.230527 0.169649 0.0297215
360 4 0.211063 0.175156 0.0150251
737 4 0.210267 0.225414 0.0608739
736 2 0.216018 0.204068 0.072554
738 4 0.221769 0.182721 0.0842341
506 4 0.210733 0.234355 0.042935
359 4 0.249992 0.164142 0.0444179
665 4 0.359577 0.188274 0.0328524
664 2 0.345433 0.184754 0.0125366
254 4 0.388961 0.252519 0.0787952
630 4 0.396345 0.234944 0.0832618
323 4 0.471615 0.226273 0.0666298
2807 4 0.0148362 0.280186 0.0200844
835 2 0.0587232 0.25603 0.990467
294 4 0.148092 0.322174 0.0342767
292 2 0.163397 0.30737 0.047383
507 4 0.18898 0.275421 0.0614046
293 4 0.178702 0.292566 0.0604894
505 2 0.199857 0.254888 0.0521698
481 2 0.294908 0.287602 0.0113275
482 4 0.30086 0.310998 0.0178364
483 4 0.288956 0.264206 0.00481863
573 4 0.372555 0.261041 0.00944384
571 2 0.363969 0.279893 0.0234457
572 4 0.355382 0.298745 0.0374475
741 4 0.351134 0.319079 0.0716837
255 4 0.34484 0.275769 0.0824746
253 2 0.3669 0.264144 0.0806349
324 4 0.466727 0.274732 0.0779695
322 2 0.469171 0.250503 0.0722996
315 4 0.0777932 0.41127 0.0731894
621 4 0.078976 0.391278 0.0685806
456 4 0.137996 0.336609 0.0268067
454 2 0.115284 0.343235 0.0348945
455 4 0.0925709 0.349861 0.0429822
608 4 0.253505 0.370209 0.0572601
607 2 0.25189 0.35379 0.0760485
252 4 0.245148 0.377259 0.0404694
250 2 0.265556 0.391685 0.0396969
251 4 0.285963 0.406112 0.0389243
523 2 0.324071 0.408033 0.0486995
524 4 0.300821 0.399928 0.0530466
226 2 0.394722 0.388513 0.0222999
228 4 0.384475 0.402158 0.0405753
670 2 0.40936 0.372401 0.0835335
525 4 0.347322 0.416139 0.0443524
1305 4 0.416604 0.357707 5.43042e-05
227 4 0.404969 0.374868 0.00402455
671 4 0.431123 0.365145 0.0735893
1047 4 0.50155 0.35651 0.0361718
281 4 0.439197 0.371927 0.0571355
280 2 0.462125 0.362818 0.0530737
282 4 0.485053 0.353708 0.049012
104 3 0.491015 0.350675 0.0677867
313 2 0.0564255 0.422342 0.0664064
552 4 0.0271702 0.449748 0.0528404
314 4 0.0350577 0.433414 0.0596235
550 2 0.0040716 0.450889 0.0433361
244 2 0.248521 0.468346 0.00127022
243 4 0.226544 0.494002 0.0608996
245 4 0.229268 0.453226 0.996181
242 4 0.182397 0.49738 0.0376549
241 2 0.20447 0.495691 0.0492773
1290 4 0.211176 0.444794 0.989783
246 4 0.267773 0.483466 0.0063595
37 3 0.353479 0.472785 0.00737936
494 4 0.399543 0.463973 0.0835851
1667 4 0.0446854 0.0240615 0.0940442
1422 4 0.0269587 0.0137144 0.146148
2480 4 0.0242132 0.0361734 0.141186
18 3 0.0702774 0.00643603 0.124758
19 3 0.0347384 0.019834 0.126132
2479 2 0.0201368 0.0512105 0.12163
2481 4 0.0160604 0.0662475 0.102074
652 2 0.240917 0.0549532 0.146159
654 4 0.248965 0.0500473 0.123
1475 4 0.27552 0.00163401 0.0904598
1474 2 0.260497 0.0171913 0.103009
1476 4 0.245475 0.0327485 0.115558
485 4 0.365953 0.00895431 0.113635
297 4 0.368738 0.00752329 0.0930283
295 2 0.381251 0.0278419 0.0855605
557 4 0.396377 0.0671668 0.0862092
484 2 0.351142 0.994687 0.127857
2723 4 0.497812 0.0911271 0.108285
235 2 0.124827 0.163496 0.14809
236 4 0.138689 0.144054 0.155508
582 4 0.314882 0.105809 0.166931
758 4 0.334843 0.11188 0.169505
556 2 0.404873 0.0897591 0.092735
558 4 0.413369 0.112351 0.0992607
771 4 0.430059 0.109593 0.108165
769 2 0.441778 0.118651 0.12831
770 4 0.453496 0.12771 0.148454
338 4 0.0434125 0.234548 0.130436
237 4 0.110966 0.182938 0.140672
354 4 0.23313 0.169749 0.0925418
476 4 0.176705 0.1859 0.156962
477 4 0.224326 0.180978 0.142514
475 2 0.200515 0.183439 0.149738
352 2 0.255452 0.175629 0.102151
353 4 0.277774 0.181509 0.11176
461 4 0.284879 0.192243 0.127465
460 2 0.304136 0.200604 0.113885
462 4 0.323394 0.208965 0.100305
628 2 0.410328 0.236053 0.10396
629 4 0.424311 0.237162 0.124659
624 4 0.437987 0.22992 0.136864
337 2 0.047114 0.256459 0.141897
339 4 0.0508155 0.27837 0.153359
395 4 0.0666801 0.292371 0.156351
610 2 0.249028 0.311725 0.111072
611 4 0.254393 0.287506 0.107942
279 4 0.260586 0.25058 0.155753
755 4 0.297143 0.257944 0.127992
278 4 0.257647 0.26711 0.108648
277 2 0.259117 0.258845 0.1322
754 2 0.316732 0.264768 0.114031
285 4 0.280838 0.254051 0.159024
756 4 0.336321 0.271592 0.10007
739 2 0.335349 0.327171 0.0893051
622 2 0.451815 0.250304 0.141157
623 4 0.465644 0.270688 0.14545
619 2 0.084513 0.382426 0.0912998
620 4 0.0900499 0.373574 0.114019
647 4 0.100933 0.374335 0.135018
537 4 0.117979 0.369485 0.116267
535 2 0.135638 0.386147 0.110291
536 4 0.153297 0.402809 0.104314
646 2 0.0989992 0.361627 0.156465
612 4 0.243663 0.335945 0.114203
609 4 0.250274 0.337372 0.0948369
740 4 0.319563 0.335263 0.106927
386 4 0.324713 0.349443 0.121028
385 2 0.332598 0.373151 0.120052
387 4 0.340482 0.396859 0.119076
302 4 0.343745 0.41714 0.119454
12 3 0.386936 0.38348 0.113347
11 1 0.382258 0.398088 0.130489
15 3 0.360408 0.404383 0.129228
672 4 0.387596 0.379657 0.0934776
14 3 0.395984 0.416685 0.128453
13 3 0.386278 0.387452 0.150716
597 4 0.384253 0.370705 0.164876
1440 4 0.233845 0.488686 0.0789977
626 4 0.175281 0.422137 0.140663
1438 2 0.238075 0.465226 0.0865388
625 2 0.19109 0.441034 0.136401
1439 4 0.242306 0.441765 0.09408
638 4 0.21335 0.477011 0.139285
637 2 0.231264 0.494082 0.142868
627 4 0.206898 0.459932 0.132139
1559 4 0.332522 0.48792 0.108487
272 4 0.263697 0.492196 0.0801219
301 2 0.340613 0.435032 0.136637
495 4 0.398665 0.434422 0.123918
493 2 0.399104 0.449198 0.103751
303 4 0.33748 0.452924 0.15382
1584 4 0.471334 0.497163 0.117081
1582 2 0.479699 0.475669 0.107427
1583 4 0.488065 0.454175 0.0977722
1420 2 0.0192057 0.00279099 0.167261
318 4 0.0576914 0.083453 0.231901
673 2 0.139928 0.0400994 0.243728
675 4 0.126942 0.0611399 0.240007
653 4 0.232869 0.0598591 0.169318
1505 4 0.217582 0.00819483 0.213578
689 4 0.200614 0.00385074 0.205188
690 4 0.170265 0.0267158 0.237698
688 2 0.18544 0.0152833 0.221443
693 4 0.250349 0.0569179 0.180538
691 2 0.262542 0.0574054 0.202361
692 4 0.274736 0.0578928 0.224185
1699 2 0.308881 0.0672933 0.230265
1701 4 0.285388 0.067278 0.238825
1700 4 0.332373 0.0673087 0.221705
21 1 0.368293 0.0708658 0.223868
25 3 0.370328 0.0653483 0.201867
22 3 0.369315 0.0517362 0.236603
759 4 0.360364 0.0713853 0.183984
23 3 0.34788 0.0812591 0.227569
698 4 0.379208 0.0580883 0.252065
1759 2 0.464826 0.998424 0.182877
1761 4 0.443155 0.991134 0.172757
2744 4 0.499204 0.0162202 0.181866
511 2 0.00552805 0.135223 0.212136
578 4 0.0385092 0.153046 0.217301
513 4 0.0290833 0.14063 0.205725
450 4 0.135815 0.0936681 0.169449
449 4 0.157292 0.137863 0.160162
448 2 0.146554 0.115765 0.164806
28 3 0.221932 0.13514 0.173023
27 3 0.234123 0.141782 0.20795
26 1 0.240674 0.135978 0.186677
546 4 0.16826 0.12817 0.239211
580 2 0.291345 0.112982 0.171375
581 4 0.267809 0.120155 0.17582
30 3 0.250791 0.115582 0.187247
29 3 0.255523 0.151963 0.178777
24 3 0.385617 0.0849772 0.230126
757 2 0.347604 0.0916325 0.176744
520 2 0.498845 0.155181 0.219754
312 4 0.424402 0.148659 0.196813
311 4 0.463956 0.137167 0.225171
310 2 0.444179 0.142913 0.210992
521 4 0.478536 0.147925 0.232407
577 2 0.0420803 0.176238 0.225936
529 2 0.00690903 0.21566 0.243183
530 4 0.0311936 0.21154 0.238887
579 4 0.0456514 0.19943 0.234571
372 4 0.156501 0.23187 0.195492
362 4 0.144285 0.241056 0.181298
370 2 0.168867 0.21238 0.18588
371 4 0.181233 0.192889 0.176268
401 4 0.214645 0.179642 0.25667
400 2 0.22731 0.200712 0.252106
396 4 0.0561246 0.303703 0.2039
443 4 0.062021 0.306868 0.222246
394 2 0.0614024 0.298037 0.180125
442 2 0.0462745 0.300336 0.240537
363 4 0.104329 0.270388 0.187922
361 2 0.124307 0.255722 0.18461
284 4 0.272188 0.260424 0.207864
283 2 0.276513 0.257238 0.183444
596 4 0.354718 0.330438 0.167494
527 4 0.469581 0.276039 0.165177
526 2 0.465962 0.289335 0.186041
528 4 0.462344 0.302631 0.206904
704 4 0.0282352 0.341158 0.170743
703 2 0.0147534 0.34863 0.19043
705 4 0.00127159 0.356103 0.210117
264 4 0.0287959 0.421586 0.200144
750 4 0.0790952 0.356687 0.258529
648 4 0.0970659 0.348919 0.177911
300 4 0.102076 0.348415 0.197458
298 2 0.0972932 0.348829 0.221997
299 4 0.0925108 0.349243 0.246535
345 4 0.254961 0.345479 0.2387
343 2 0.277019 0.336173 0.245914
645 4 0.376944 0.3921 0.169591
595 2 0.369485 0.350571 0.166185
643 2 0.392863 0.397873 0.187988
447 4 0.399474 0.419059 0.214141
644 4 0.408782 0.403645 0.206385
108 3 0.502644 0.400243 0.218776
445 2 0.416827 0.422031 0.231895
2861 4 0.49242 0.412572 0.229784
109 3 0.497293 0.362876 0.214363
262 2 0.0295965 0.423984 0.225019
263 4 0.0303971 0.426383 0.249895
1430 4 0.170766 0.50456 0.189041
289 2 0.236357 0.440333 0.233162
417 4 0.185868 0.491077 0.19553
290 4 0.225342 0.44212 0.210787
416 4 0.208163 0.447068 0.203706
415 2 0.197016 0.469073 0.199618
659 4 0.335707 0.441624 0.170842
658 2 0.336406 0.451076 0.19398
438 4 0.301431 0.457969 0.252651
229 2 0.361364 0.493466 0.230962
660 4 0.337105 0.460528 0.217117
231 4 0.344066 0.475919 0.226716
1403 4 0.0202995 0.996395 0.290246
232 2 0.023677 0.0409553 0.291881
234 4 0.0278233 0.0653606 0.288364
317 4 0.0421822 0.0651658 0.275785
233 4 0.0195308 0.01655 0.295398
316 2 0.0499368 0.0743094 0.253843
674 4 0.152914 0.019059 0.24745
1406 4 0.201564 0.0121864 0.267132
333 4 0.389777 0.0744262 0.247607
1518 4 0.361957 0.0123285 0.29249
697 2 0.374787 0.0436537 0.271997
699 4 0.370365 0.029219 0.291929
331 2 0.413284 0.0821687 0.251166
743 4 0.48983 0.0317796 0.262457
351 4 0.473865 0.0391381 0.254485
349 2 0.464184 0.0617767 0.258838
425 4 0.426057 0.0195254 0.326765
391 2 0.134098 0.151945 0.31489
392 4 0.147046 0.162398 0.296228
545 4 0.155387 0.14879 0.282913
544 2 0.161824 0.13848 0.261062
722 4 0.187944 0.0883943 0.257618
723 4 0.237198 0.0969213 0.256206
721 2 0.212571 0.0926578 0.256912
599 4 0.213276 0.109208 0.302392
404 4 0.222247 0.127125 0.300076
598 2 0.200506 0.109952 0.323876
403 2 0.22305 0.145259 0.28288
405 4 0.223854 0.163392 0.265684
764 4 0.46681 0.162371 0.271428
350 4 0.454502 0.0844152 0.26319
332 4 0.436791 0.0899112 0.254725
762 4 0.43778 0.104586 0.271499
761 4 0.451483 0.121727 0.316433
760 2 0.444631 0.113156 0.293966
257 4 0.461461 0.105927 0.325658
402 4 0.239975 0.221782 0.247543
473 4 0.223566 0.200218 0.32844
765 4 0.432729 0.197091 0.259865
763 2 0.44977 0.179731 0.265647
444 4 0.0305279 0.293803 0.258828
366 4 0.0447017 0.327486 0.308524
734 4 0.133542 0.316184 0.28154
309 4 0.309705 0.323909 0.270327
344 4 0.299077 0.326867 0.253128
510 4 0.260545 0.325366 0.338303
496 2 0.344388 0.287768 0.311451
497 4 0.3599 0.284833 0.292062
613 2 0.397823 0.318722 0.314961
615 4 0.410378 0.302707 0.32949
614 4 0.385269 0.334737 0.300432
541 2 0.445843 0.292463 0.307032
542 4 0.461791 0.287836 0.288339
543 4 0.429894 0.29709 0.325725
749 4 0.0478401 0.342794 0.29501
365 4 0.00397317 0.349301 0.327656
364 2 0.0243374 0.338394 0.31809
748 2 0.0634676 0.349741 0.27677
735 4 0.163241 0.354008 0.295254
733 2 0.148392 0.335096 0.288397
602 4 0.117465 0.392299 0.319338
777 4 0.112432 0.392553 0.300266
676 2 0.174202 0.393663 0.307366
677 4 0.160949 0.372591 0.30503
678 4 0.187456 0.414736 0.309702
373 2 0.237865 0.358588 0.334747
374 4 0.257917 0.344759 0.329104
307 2 0.307417 0.33348 0.293313
727 2 0.327079 0.381869 0.315774
728 4 0.336374 0.404848 0.312498
308 4 0.305129 0.343051 0.316299
729 4 0.317783 0.358889 0.319049
2924 4 0.481809 0.382056 0.318558
2537 4 0.492345 0.382454 0.30045
118 3 0.493325 0.40233 0.312592
1758 4 0.126204 0.503192 0.294438
1757 4 0.12809 0.455049 0.281043
776 4 0.114467 0.441131 0.288573
775 2 0.11345 0.416842 0.294419
1756 2 0.127147 0.47912 0.28774
768 4 0.199575 0.461635 0.274256
291 4 0.247373 0.438545 0.255537
413 4 0.220155 0.419844 0.306124
412 2 0.237434 0.424318 0.288614
766 2 0.198698 0.484851 0.265014
414 4 0.254713 0.428792 0.271104
3 3 0.286825 0.414609 0.32874
2 3 0.321242 0.421652 0.31538
1435 2 0.258184 0.483067 0.315497
437 4 0.286276 0.462368 0.300103
436 2 0.293853 0.460169 0.276377
1437 4 0.272584 0.479841 0.295313
5 3 0.29215 0.441327 0.302751
1 1 0.301111 0.431212 0.321082
434 4 0.340824 0.426393 0.305721
433 2 0.353082 0.447013 0.312773
435 4 0.36534 0.467632 0.319825
2860 2 0.488736 0.423265 0.252084
714 4 0.423558 0.433991 0.262998
446 4 0.43418 0.425003 0.24965
119 3 0.491337 0.435755 0.330571
2862 4 0.485052 0.433958 0.274383
120 3 0.483298 0.433415 0.293862
713 4 0.452104 0.464648 0.290309
712 2 0.437831 0.44932 0.276654
116 1 0.496469 0.425228 0.31054
428 4 0.0368938 0.0273664 0.341447
427 2 0.0532152 0.00869521 0.344637
606 4 0.156909 0.0106381 0.386597
604 2 0.168187 0.0303749 0.376183
605 4 0.179464 0.0501117 0.365769
683 4 0.219148 0.053836 0.387375
682 2 0.236066 0.0415555 0.373658
321 4 0.228251 0.0713114 0.390886
319 2 0.225347 0.0770111 0.415058
684 4 0.252983 0.029275 0.35994
249 4 0.320357 0.0633889 0.356742
247 2 0.339755 0.0787594 0.353187
1749 4 0.48873 0.00334414 0.356061
480 4 0.49816 0.00777181 0.338518
424 2 0.436218 0.0350536 0.343522
426 4 0.446379 0.0505818 0.36028
258 4 0.457981 0.0665078 0.356231
393 4 0.121151 0.141491 0.333552
399 4 0.12578 0.132072 0.35222
732 4 0.122334 0.0902701 0.396894
398 4 0.108963 0.100438 0.387108
397 2 0.117371 0.116255 0.369664
686 4 0.208526 0.122256 0.400782
600 4 0.187736 0.110696 0.34536
685 2 0.195496 0.112453 0.381827
687 4 0.182466 0.102649 0.362872
410 4 0.220108 0.131064 0.415083
707 4 0.245863 0.156159 0.361387
248 4 0.359153 0.0941299 0.349631
633 4 0.371618 0.107086 0.341855
632 4 0.387156 0.124301 0.38616
631 2 0.379387 0.115693 0.364008
420 4 0.384278 0.145105 0.387262
468 4 0.373273 0.116506 0.398913
466 2 0.359749 0.100914 0.413025
256 2 0.459721 0.0862175 0.340945
514 2 0.447006 0.161376 0.398459
515 4 0.455712 0.156663 0.375499
390 4 0.0663926 0.235838 0.38323
274 2 0.15626 0.236743 0.370218
388 2 0.0903764 0.235584 0.376167
389 4 0.11436 0.23533 0.369103
276 4 0.132183 0.237654 0.376898
275 4 0.180338 0.235831 0.363538
474 4 0.185317 0.226694 0.346792
472 2 0.204442 0.213456 0.337616
708 4 0.242293 0.198783 0.33548
651 4 0.222641 0.229417 0.406159
649 2 0.235549 0.211023 0.417122
706 2 0.244078 0.177471 0.348433
717 4 0.326686 0.231714 0.385306
377 4 0.328734 0.232 0.364969
418 2 0.378714 0.168267 0.379664
419 4 0.373151 0.191429 0.372066
716 4 0.359368 0.193894 0.386788
715 2 0.343027 0.212804 0.386047
269 4 0.467187 0.239346 0.343485
268 2 0.476907 0.24608 0.365516
2654 4 0.998534 0.270888 0.373557
618 4 0.0102087 0.260686 0.385643
616 2 0.0211148 0.273914 0.403843
489 4 0.224011 0.248209 0.411974
487 2 0.227431 0.263279 0.392317
488 4 0.23085 0.278349 0.372661
508 2 0.254315 0.305857 0.352647
509 4 0.248085 0.286347 0.366991
376 2 0.326129 0.254654 0.354713
378 4 0.323524 0.277308 0.344456
498 4 0.328876 0.290703 0.330841
265 2 0.354363 0.315683 0.372811
266 4 0.366469 0.294694 0.378984
585 4 0.3688 0.27831 0.387865
583 2 0.388255 0.278597 0.403568
584 4 0.407711 0.278884 0.419271
270 4 0.486627 0.252814 0.387547
2456 4 0.418677 0.271128 0.404281
2455 2 0.439818 0.261474 0.413501
547 2 0.0847249 0.413961 0.386507
549 4 0.093889 0.39561 0.372209
601 2 0.114646 0.389101 0.343976
603 4 0.111826 0.385902 0.368613
502 2 0.206271 0.402494 0.368957
504 4 0.214304 0.381265 0.358469
375 4 0.217812 0.372417 0.34039
267 4 0.342257 0.336671 0.366638
2925 4 0.498878 0.349863 0.352808
2923 2 0.490344 0.365959 0.335683
548 4 0.0755608 0.432312 0.400805
407 4 0.0710476 0.451286 0.394847
406 2 0.0498595 0.464037 0.398543
408 4 0.0286715 0.476788 0.40224
570 4 0.127347 0.440171 0.417599
774 4 0.16175 0.492234 0.406426
503 4 0.198239 0.423723 0.379445
1436 4 0.243785 0.486294 0.335682
1543 2 0.217061 0.495449 0.359472
1545 4 0.227578 0.478413 0.344494
636 4 0.193428 0.430277 0.397491
634 2 0.181127 0.451205 0.403482
668 4 0.305086 0.442919 0.358554
4 3 0.304721 0.446889 0.337804
667 2 0.313354 0.431931 0.379437
669 4 0.321622 0.420943 0.400319
336 4 0.340775 0.425752 0.406711
752 4 0.494086 0.442393 0.388744
561 4 0.492218 0.428459 0.406805
753 4 0.476238 0.443013 0.342034
751 2 0.485162 0.442703 0.365389
718 2 0.0338872 0.0345686 0.48852
719 4 0.0563179 0.0323298 0.477702
369 4 0.0580657 0.0409899 0.459259
367 2 0.0809344 0.0487678 0.452801
720 4 0.0114565 0.0368074 0.499338
730 2 0.111507 0.0834148 0.418363
731 4 0.100679 0.0765596 0.439833
368 4 0.103803 0.0565457 0.446343
2430 4 0.190031 0.0732596 0.448619
2428 2 0.187701 0.0485217 0.445828
2429 4 0.185371 0.0237838 0.443038
441 4 0.201876 0.0116383 0.445776
725 4 0.23307 0.0724841 0.453122
430 2 0.310087 0.0723496 0.488478
432 4 0.286899 0.0816355 0.487354
726 4 0.280452 0.0778893 0.468171
724 2 0.256761 0.0751867 0.460647
431 4 0.333275 0.0630636 0.489602
2879 4 0.435974 0.0267943 0.442514
2878 2 0.45516 0.0401928 0.451322
2880 4 0.474345 0.0535914 0.460129
642 4 0.473837 0.0719487 0.470888
640 2 0.494231 0.0849974 0.464646
261 4 0.110547 0.164648 0.495565
259 2 0.099688 0.16884 0.473436
409 2 0.232912 0.151945 0.420107
341 4 0.192795 0.0899282 0.438607
340 2 0.18951 0.113299 0.446865
1152 4 0.184434 0.149764 0.470298
342 4 0.186225 0.13667 0.455123
1150 2 0.173357 0.142075 0.491354
320 4 0.222442 0.0827108 0.439229
467 4 0.346225 0.0853208 0.427137
516 4 0.438299 0.16609 0.421418
576 4 0.440672 0.138399 0.472522
574 2 0.434445 0.154857 0.454759
575 4 0.428217 0.171315 0.436997
469 2 0.0810521 0.207309 0.432372
470 4 0.0681455 0.221723 0.416533
471 4 0.0939586 0.192896 0.44821
260 4 0.0888295 0.173031 0.451306
411 4 0.245716 0.172825 0.425131
650 4 0.248458 0.192628 0.428085
617 4 0.032021 0.287143 0.422043
695 4 0.113509 0.277878 0.43354
694 2 0.137681 0.284173 0.432416
696 4 0.161853 0.290467 0.431292
10 3 0.132252 0.330521 0.440669
1260 4 0.180511 0.297737 0.425656
1258 2 0.196929 0.311378 0.438678
1259 4 0.213346 0.325019 0.451699
2457 4 0.460959 0.251819 0.422722
326 4 0.0615366 0.391431 0.445456
325 2 0.0847469 0.383762 0.450715
709 2 0.142022 0.400444 0.434013
7 3 0.114323 0.363246 0.441392
327 4 0.107957 0.376094 0.455974
6 1 0.129806 0.350049 0.452128
8 3 0.15005 0.36136 0.452909
9 3 0.122322 0.345709 0.473659
711 4 0.150913 0.380654 0.446441
239 4 0.330771 0.391463 0.500659
335 4 0.366619 0.409067 0.446137
238 2 0.340966 0.399048 0.479126
240 4 0.351162 0.406633 0.457592
2508 4 0.490812 0.378524 0.454128
559 2 0.490822 0.41152 0.425143
560 4 0.489426 0.394581 0.443482
2712 4 0.496737 0.404555 0.500417
1383 4 0.00434051 0.474193 0.439141
540 4 0.0426311 0.450655 0.479242
1381 2 0.0140557 0.464966 0.460252
1382 4 0.0237709 0.45574 0.481362
710 4 0.133131 0.420235 0.421585
384 4 0.160909 0.498644 0.471453
772 2 0.15643 0.496126 0.430545
569 4 0.0907753 0.470204 0.433762
382 2 0.159193 0.476272 0.482487
568 2 0.109061 0.455188 0.425681
773 4 0.15111 0.500017 0.454664
635 4 0.168827 0.472133 0.409474
1400 4 0.324882 0.494112 0.446642
1399 2 0.333416 0.475466 0.432336
1401 4 0.34195 0.456819 0.41803
334 2 0.353697 0.41741 0.426424
1059 4 0.0868063 0.067746 0.578434
1032 4 0.133859 0.0434752 0.549109
1030 2 0.1553 0.0536155 0.541194
1155 4 0.104555 0.078522 0.579296
951 4 0.194365 0.0608197 0.52582
1031 4 0.176741 0.0637557 0.533278
949 2 0.21728 0.0579481 0.516238
1182 4 0.245455 0.0505878 0.525696
950 4 0.240196 0.0550766 0.506656
961 2 0.309893 0.027704 0.556802
1180 2 0.269963 0.0543509 0.528917
963 4 0.308891 0.0459339 0.539718
1181 4 0.294471 0.058114 0.532139
962 4 0.310896 0.00947411 0.573885
2195 4 0.300322 0.994072 0.567018
842 4 0.396049 0.0573939 0.518664
1217 4 0.415646 0.0519705 0.523343
843 4 0.349387 0.05635 0.500712
841 2 0.372718 0.0568719 0.509688
1216 2 0.423554 0.0748309 0.529671
939 4 0.146286 0.138513 0.524163
937 2 0.125374 0.151348 0.519353
1151 4 0.16228 0.134385 0.51241
938 4 0.104461 0.164182 0.514543
858 4 0.272253 0.152683 0.578629
900 4 0.362346 0.160727 0.562307
898 2 0.344753 0.150279 0.576678
1218 4 0.431462 0.0976913 0.535999
1033 2 0.0750573 0.188925 0.520138
1035 4 0.0621778 0.190435 0.541516
1082 4 0.0636268 0.203377 0.556602
1034 4 0.0879367 0.187415 0.49876
877 2 0.0915254 0.236673 0.579602
797 4 0.274781 0.171975 0.573354
811 2 0.307021 0.22671 0.529518
812 4 0.282885 0.220772 0.526804
796 2 0.275283 0.192558 0.559168
798 4 0.275784 0.213142 0.544981
813 4 0.331157 0.232648 0.532233
872 4 0.367529 0.175179 0.549919
873 4 0.33828 0.214319 0.539274
871 2 0.352904 0.194749 0.544597
878 4 0.0917386 0.254344 0.561914
954 4 0.405981 0.304054 0.561317
905 4 0.445517 0.253051 0.564325
952 2 0.419069 0.283085 0.557547
953 4 0.432157 0.262117 0.553777
1136 4 0.161806 0.412772 0.568396
1135 2 0.166422 0.388208 0.56771
1137 4 0.171038 0.363644 0.567025
896 4 0.210766 0.333488 0.526554
1191 4 0.230132 0.337709 0.527285
897 4 0.177674 0.364837 0.547117
895 2 0.19422 0.349162 0.536835
1189 2 0.254187 0.333674 0.521786
1190 4 0.278243 0.329638 0.516287
803 4 0.289068 0.346701 0.511127
802 2 0.309322 0.355428 0.522908
804 4 0.329576 0.364155 0.53469
929 4 0.326633 0.350427 0.549164
928 2 0.346109 0.347837 0.564629
925 2 0.481218 0.397974 0.533248
927 4 0.481921 0.394429 0.508506
1001 4 0.472353 0.390106 0.57168
926 4 0.480515 0.401518 0.557989
539 4 0.0516619 0.45085 0.528427
936 4 0.0307135 0.450686 0.529345
1938 4 0.0506948 0.468866 0.536968
538 2 0.0471465 0.450752 0.503835
1936 2 0.053869 0.493571 0.539155
934 2 0.00860276 0.456055 0.539712
2243 4 0.157521 0.482693 0.573809
383 4 0.157477 0.4539 0.49352
2244 4 0.171154 0.462192 0.530282
2242 2 0.164338 0.472442 0.552045
1172 4 0.23611 0.454919 0.559756
882 4 0.249186 0.468306 0.551049
880 2 0.261699 0.489946 0.550502
1057 2 0.0711055 0.0529006 0.591015
1185 4 0.0143524 0.0699336 0.6607
945 4 0.0339868 0.072998 0.654326
825 4 0.0629085 0.0342529 0.621702
1058 4 0.0554047 0.0380553 0.603596
823 2 0.0739108 0.0167572 0.635775
2283 4 0.46668 0.0108727 0.590839
2282 4 0.449966 0.0326897 0.632617
2281 2 0.458323 0.0217812 0.611728
43 3 0.454855 0.0390083 0.650375
41 1 0.468617 0.0556866 0.658791
44 3 0.457076 0.0757981 0.659648
45 3 0.487091 0.0578823 0.645655
810 4 0.500378 0.0696021 0.638011
4467 4 0.448566 0.00648217 0.585889
1198 2 0.0177444 0.159856 0.599871
1153 2 0.110436 0.0997371 0.59115
1154 4 0.116317 0.120952 0.603004
1221 4 0.120423 0.132024 0.62126
1219 2 0.135476 0.118368 0.635823
1220 4 0.15053 0.104712 0.650387
1283 4 0.158265 0.120337 0.658431
1212 4 0.244857 0.128615 0.620709
1210 2 0.262065 0.134612 0.637829
856 2 0.291979 0.143075 0.590618
899 4 0.32716 0.139831 0.591048
857 4 0.311706 0.133467 0.602607
1211 4 0.279273 0.140608 0.654949
1081 2 0.0544812 0.193898 0.577855
1083 4 0.0453357 0.184419 0.599108
1199 4 0.0264422 0.182349 0.606472
1209 4 0.0366649 0.240736 0.660303
879 4 0.0913122 0.219001 0.59729
1272 4 0.0925454 0.205745 0.612076
1270 2 0.116863 0.202955 0.617182
1271 4 0.14118 0.200166 0.622288
909 4 0.145449 0.205069 0.640988
907 2 0.167014 0.21603 0.634665
908 4 0.188579 0.226991 0.628343
947 4 0.180302 0.243498 0.635718
1025 4 0.361384 0.193142 0.632009
1024 2 0.384932 0.201527 0.632613
1143 4 0.362713 0.193766 0.652685
1026 4 0.40848 0.209911 0.633217
904 2 0.449705 0.243894 0.587211
906 4 0.453893 0.234737 0.610097
3122 4 0.491585 0.218053 0.680991
946 2 0.188237 0.263219 0.648883
1237 2 0.241872 0.313271 0.590735
1239 4 0.219993 0.325237 0.588925
948 4 0.196172 0.282939 0.662048
792 4 0.278673 0.296675 0.605062
791 4 0.310636 0.303125 0.642975
790 2 0.294654 0.2999 0.624019
1238 4 0.263751 0.301304 0.592546
1205 4 0.398456 0.298231 0.578821
1204 2 0.387442 0.319083 0.587134
983 4 0.0153103 0.397719 0.634092
1041 4 0.0315085 0.403722 0.624538
1039 2 0.0548729 0.412179 0.62175
992 4 0.135125 0.398282 0.63789
991 2 0.116525 0.409791 0.625777
993 4 0.0979242 0.421301 0.613664
1206 4 0.376429 0.339934 0.595446
930 4 0.365584 0.345247 0.580095
1000 2 0.462007 0.408198 0.585495
1040 4 0.0782373 0.420635 0.618962
1171 2 0.241894 0.445374 0.582131
1173 4 0.247678 0.43583 0.604506
1161 4 0.172967 0.475182 0.585217
1160 4 0.21063 0.47435 0.618102
1159 2 0.191798 0.474766 0.601659
1175 4 0.226876 0.469608 0.627883
1174 2 0.232294 0.490735 0.64011
2170 2 0.173094 0.498862 0.661951
2172 4 0.197322 0.493745 0.665414
889 2 0.328084 0.477376 0.644094
890 4 0.310353 0.470333 0.660255
891 4 0.345815 0.48442 0.627933
1952 4 0.330802 0.49158 0.616863
1911 4 0.419917 0.484515 0.594775
3330 4 0.481521 0.424325 0.659445
1910 4 0.438765 0.440206 0.608274
1002 4 0.451662 0.426289 0.599309
1909 2 0.429341 0.462361 0.601525
3328 2 0.488408 0.434536 0.637685
3329 4 0.495296 0.444747 0.615925
1269 4 0.451906 0.498222 0.655068
943 2 0.0400791 0.0572098 0.672733
944 4 0.0461714 0.0414216 0.691139
1075 2 0.0610258 0.0441127 0.731088
1076 4 0.0585876 0.0389026 0.706755
1004 4 0.320331 0.0821451 0.675119
1005 4 0.290674 0.0418981 0.673964
1003 2 0.305503 0.0620216 0.674542
42 3 0.475109 0.0499251 0.680094
1163 4 0.492269 0.0580022 0.684182
32 3 0.0944362 0.14983 0.747872
1282 2 0.167887 0.123136 0.681339
1284 4 0.177509 0.125934 0.704246
1227 4 0.196672 0.120828 0.704442
1225 2 0.210911 0.13198 0.721706
1226 4 0.22515 0.143132 0.738971
1130 4 0.216541 0.156785 0.752592
888 4 0.292886 0.138828 0.669812
886 2 0.295563 0.133482 0.694091
887 4 0.29824 0.128137 0.718369
830 4 0.316666 0.128844 0.723483
829 2 0.329277 0.114314 0.739453
1105 2 0.0274396 0.173838 0.748951
1107 4 0.00720984 0.182702 0.73723
822 4 0.135237 0.227706 0.698128
1278 4 0.152716 0.217408 0.699081
820 2 0.112543 0.237203 0.693658
1276 2 0.163048 0.211576 0.721091
1277 4 0.17338 0.205745 0.7431
1129 2 0.204676 0.178729 0.750893
1131 4 0.192812 0.200673 0.749194
977 4 0.296044 0.176279 0.744037
916 2 0.292635 0.214506 0.731752
918 4 0.291767 0.195543 0.748025
917 4 0.293502 0.23347 0.715479
1141 2 0.351536 0.195705 0.674967
1142 4 0.340359 0.197643 0.697249
3123 4 0.442579 0.216525 0.671154
1194 4 0.429601 0.2338 0.747862
3121 2 0.467082 0.217289 0.676072
1262 4 0.419502 0.221619 0.735869
1261 2 0.432135 0.200396 0.739765
1263 4 0.444768 0.179173 0.743661
1207 2 0.0576634 0.250475 0.669759
1208 4 0.0786619 0.260213 0.679214
1243 2 0.00827767 0.320038 0.711134
1244 4 0.0146518 0.338264 0.72702
821 4 0.0898489 0.2467 0.689188
1065 4 0.206241 0.28367 0.678888
1064 4 0.18626 0.29187 0.723991
1063 2 0.19625 0.28777 0.701439
1097 4 0.294171 0.252567 0.723347
1096 2 0.277391 0.2689 0.732112
1008 4 0.327679 0.263242 0.727129
1098 4 0.26061 0.285233 0.740877
806 4 0.413715 0.329132 0.73872
1006 2 0.343206 0.256731 0.745614
893 4 0.0691049 0.344392 0.685788
892 2 0.0809504 0.366002 0.690012
894 4 0.0927958 0.387613 0.694236
941 4 0.158196 0.407859 0.707643
1281 4 0.0994532 0.398357 0.70909
1066 2 0.195272 0.405982 0.694681
1067 4 0.171454 0.398813 0.697227
1068 4 0.21909 0.413151 0.692134
1028 4 0.225641 0.419756 0.67524
1230 4 0.386496 0.414536 0.716825
1228 2 0.363629 0.419311 0.707908
2021 4 0.0367414 0.466541 0.732109
2020 2 0.0487202 0.481896 0.716427
2022 4 0.060699 0.497251 0.700746
1280 4 0.0707501 0.436478 0.724045
1983 4 0.0188378 0.473708 0.733036
940 2 0.151243 0.416482 0.730059
1279 2 0.0851017 0.417418 0.716568
942 4 0.14429 0.425106 0.752475
2016 4 0.181717 0.49596 0.751486
1027 2 0.250111 0.418844 0.680296
1029 4 0.274581 0.417933 0.685351
1139 4 0.292558 0.42517 0.680635
1138 2 0.30308 0.43552 0.700817
1140 4 0.313602 0.44587 0.721
1989 4 0.300924 0.446218 0.736918
1229 4 0.340763 0.424086 0.698991
3183 4 0.489241 0.417358 0.677913
1268 4 0.466454 0.470309 0.693925
1267 2 0.45918 0.484265 0.674496
1250 4 0.48423 0.476636 0.748662
1077 4 0.0634641 0.0493229 0.755421
1203 4 0.0626492 0.0314483 0.766456
1201 2 0.0827359 0.0211568 0.777217
2049 4 0.121456 0.00917675 0.781217
1202 4 0.102823 0.0108654 0.787977
1148 4 0.191355 0.036123 0.745485
1147 2 0.206423 0.0474713 0.761896
1149 4 0.221492 0.0588197 0.778308
1049 4 0.240525 0.0569928 0.785423
1970 4 0.215506 0.00885829 0.811467
1048 2 0.261753 0.0444268 0.789505
1050 4 0.282981 0.0318609 0.793586
817 2 0.375046 0.0696547 0.814701
819 4 0.380096 0.0842211 0.795016
846 4 0.478187 0.030485 0.800664
1113 4 0.478659 0.0198201 0.783339
844 2 0.491497 0.0516509 0.800828
1106 4 0.0476693 0.164974 0.760671
832 2 0.0402661 0.136211 0.788195
863 4 0.0158537 0.119692 0.818268
833 4 0.0256841 0.120348 0.80088
33 3 0.0735401 0.151563 0.779065
834 4 0.0548481 0.152074 0.77551
31 1 0.0811537 0.16354 0.760707
840 4 0.189287 0.101075 0.780638
838 2 0.210922 0.106608 0.791885
839 4 0.232557 0.11214 0.803132
978 4 0.277125 0.139391 0.772001
959 4 0.246187 0.119726 0.8165
958 2 0.263394 0.115184 0.834063
976 2 0.286585 0.157835 0.758019
831 4 0.341887 0.0997843 0.755423
1084 2 0.378852 0.129555 0.792246
1085 4 0.376804 0.104656 0.793253
1086 4 0.380899 0.154454 0.791239
1144 2 0.475871 0.159699 0.767035
1146 4 0.494744 0.146479 0.776741
3270 4 0.500897 0.132795 0.787669
35 3 0.0634962 0.170699 0.748233
1214 4 0.0180631 0.237319 0.798784
778 2 0.0572732 0.235162 0.811445
779 4 0.0357326 0.225799 0.802871
780 4 0.0788139 0.244525 0.820019
1073 4 0.110866 0.187747 0.777133
1072 2 0.124402 0.180302 0.796793
1074 4 0.137939 0.172857 0.816453
34 3 0.0937408 0.181709 0.767769
869 4 0.0920547 0.23611 0.833456
1299 4 0.376297 0.172007 0.78307
1297 2 0.388849 0.182587 0.801929
1298 4 0.401402 0.193167 0.820788
47 3 0.400852 0.212016 0.824441