ITEM: TIMESTEP
230000
ITEM: NUMBER OF ATOMS
4590
ITEM: BOX BOUNDS pp pp pp
-9.9985700000000008e+00 9.9985700000000008e+00
-9.9985700000000008e+00 9.9985700000000008e+00
-9.9985700000000008e+00 9.9985700000000008e+00
ITEM: ATOMS id type xs ys zs
463 2 0.0324171 0.0493828 0.0275551
465 4 0.0347143 0.0741465 0.0301363
464 4 0.0301199 0.0246191 0.0249738
1667 4 0.0743733 0.0153721 0.0584319
702 4 0.10306 0.086322 0.0764765
534 4 0.213094 0.0606906 0.0123463
490 2 0.283907 0.0470172 0.0333068
491 4 0.28931 0.0606436 0.0535629
492 4 0.278504 0.0333908 0.0130508
296 4 0.375728 0.0512286 0.0639607
745 2 0.451648 0.0693082 0.0361802
746 4 0.446633 0.078233 0.0589921
747 4 0.456662 0.0603834 0.0133684
2975 4 0.470892 0.0454259 0.0126055
2974 2 0.492412 0.0430257 0.000103811
589 2 0.0369162 0.121811 0.0743396
590 4 0.0424061 0.145585 0.0688785
3233 4 0.005133 0.125688 0.00252146
591 4 0.0314264 0.0980367 0.0798007
701 4 0.0793091 0.0868205 0.0324725
700 2 0.0911846 0.0865712 0.0544745
422 4 0.11594 0.137474 0.0239168
421 2 0.104694 0.137195 0.00158705
565 2 0.199148 0.118095 0.0422942
566 4 0.183328 0.109086 0.0251554
567 4 0.214968 0.127104 0.059433
358 2 0.275998 0.121172 0.0241929
359 4 0.295167 0.108707 0.0140766
360 4 0.256828 0.133636 0.0343091
557 4 0.367313 0.0820693 0.0280952
556 2 0.36944 0.0972227 0.0478698
558 4 0.371566 0.112376 0.0676443
553 2 0.0446085 0.225572 0.0215462
555 4 0.0675176 0.219466 0.0136044
554 4 0.0216995 0.231678 0.0294879
506 4 0.194187 0.255853 0.0323316
571 2 0.314005 0.248218 0.0466457
573 4 0.290903 0.254098 0.0541897
666 4 0.314587 0.215216 0.0156206
572 4 0.337106 0.242339 0.0391017
324 4 0.39317 0.234373 0.0593779
322 2 0.412169 0.243212 0.0730199
664 2 0.335944 0.203005 0.0111521
665 4 0.357301 0.190795 0.00668353
771 4 0.443411 0.185013 0.0493043
770 4 0.490075 0.167053 0.0485166
769 2 0.466743 0.176033 0.0489104
1014 4 0.474047 0.203789 0.994607
292 2 0.137308 0.307772 0.0209982
294 4 0.124391 0.323651 0.00664055
293 4 0.150226 0.291892 0.0353559
483 4 0.218723 0.304582 0.0762175
505 2 0.18067 0.27608 0.0381053
507 4 0.167153 0.296307 0.043879
481 2 0.237359 0.307555 0.059816
357 4 0.244251 0.26656 0.0087212
482 4 0.255996 0.310529 0.0434145
1071 4 0.377551 0.258162 0.0261428
1069 2 0.398742 0.269202 0.0187771
956 4 0.379732 0.319232 0.000262042
1070 4 0.419933 0.280241 0.0114113
671 4 0.460436 0.325708 0.0695589
280 2 0.456854 0.327219 0.025992
282 4 0.459716 0.329858 0.00129334
330 4 0.0151961 0.402344 0.0359031
621 4 0.0106235 0.360632 0.0787997
328 2 0.025687 0.399235 0.0134208
454 2 0.122089 0.376537 0.0825654
455 4 0.107553 0.384478 0.0638356
288 4 0.15738 0.412722 0.0158972
286 2 0.160705 0.387941 0.0159152
287 4 0.164029 0.363159 0.0159332
252 4 0.287846 0.391463 0.0657368
250 2 0.283146 0.395674 0.0415427
251 4 0.278446 0.399885 0.0173486
608 4 0.319606 0.39762 0.0714673
281 4 0.453993 0.324579 0.0506907
552 4 0.076523 0.407909 0.0551211
550 2 0.0644165 0.426519 0.043619
551 4 0.05231 0.445128 0.0321168
315 4 0.00871867 0.427748 0.0698691
1788 4 0.0736205 0.4968 0.0727929
241 2 0.16853 0.502394 0.0727119
242 4 0.149648 0.499062 0.0566634
1786 2 0.098238 0.494223 0.0692546
1787 4 0.122855 0.491646 0.0657162
245 4 0.222633 0.44874 0.0249848
244 2 0.244745 0.460215 0.0271129
246 4 0.266858 0.47169 0.0292411
272 4 0.286342 0.465276 0.0358393
271 2 0.299368 0.481388 0.0218425
524 4 0.338782 0.482468 0.0785276
227 4 0.481227 0.437693 0.0513323
562 2 0.442562 0.483004 0.0290801
563 4 0.459628 0.466723 0.0207822
226 2 0.497003 0.456677 0.0473411
1666 2 0.0685485 0.0198752 0.082327
1668 4 0.0627238 0.0243783 0.106222
19 3 0.0403235 0.0465439 0.155454
20 3 0.0764663 0.0551449 0.161568
450 4 0.177017 0.0533134 0.137671
448 2 0.175596 0.076359 0.147265
1505 4 0.214706 0.043692 0.166261
1504 2 0.231027 0.024782 0.165163
1506 4 0.247348 0.00587206 0.164064
652 2 0.307154 0.03306 0.148704
654 4 0.296041 0.0204866 0.16724
653 4 0.318268 0.0456334 0.130168
295 2 0.366917 0.0506679 0.0873536
297 4 0.358105 0.0501073 0.110746
758 4 0.421708 0.047729 0.155179
380 4 0.994145 0.149433 0.153756
237 4 0.171926 0.154352 0.13503
449 4 0.174175 0.0994047 0.15686
235 2 0.175031 0.135278 0.150896
236 4 0.178135 0.116204 0.166762
693 4 0.228238 0.100179 0.151248
582 4 0.293096 0.10545 0.145462
580 2 0.286536 0.117329 0.166463
312 4 0.417415 0.111526 0.16583
629 4 0.450714 0.173979 0.138298
476 4 0.13029 0.162302 0.110654
475 2 0.116136 0.170665 0.129492
477 4 0.101981 0.179028 0.148331
337 2 0.0857361 0.248609 0.146717
737 4 0.183345 0.211581 0.104765
736 2 0.20344 0.198677 0.11217
738 4 0.223536 0.185773 0.119575
354 4 0.258122 0.207445 0.104024
284 4 0.276551 0.233425 0.155621
352 2 0.272497 0.22706 0.109837
460 2 0.33387 0.210401 0.0999634
461 4 0.328177 0.230535 0.0862747
283 2 0.267374 0.211382 0.163041
255 4 0.355781 0.181058 0.105706
462 4 0.339563 0.190266 0.113652
630 4 0.409906 0.168077 0.110003
254 4 0.402672 0.171018 0.0915237
253 2 0.379227 0.176038 0.098615
628 2 0.43031 0.171028 0.12415
517 2 0.493435 0.246337 0.0982221
518 4 0.484598 0.223714 0.104164
339 4 0.0773296 0.258993 0.125582
277 2 0.238443 0.276088 0.162486
353 4 0.286873 0.246675 0.115649
754 2 0.285261 0.301524 0.124885
755 4 0.274079 0.284511 0.139401
756 4 0.296443 0.318536 0.110369
278 4 0.253983 0.286859 0.146126
741 4 0.345195 0.30932 0.0887383
622 2 0.383654 0.267083 0.147738
624 4 0.405364 0.255265 0.151504
739 2 0.355347 0.33202 0.0913494
623 4 0.361944 0.278902 0.143971
323 4 0.431168 0.252051 0.0866619
528 4 0.456208 0.257913 0.175676
672 4 0.427648 0.313096 0.105148
670 2 0.444042 0.319402 0.0873535
526 2 0.479832 0.264912 0.171419
519 4 0.502271 0.268959 0.0922807
619 2 0.014668 0.345387 0.0982008
620 4 0.0187124 0.330141 0.117602
456 4 0.136626 0.368596 0.101295
537 4 0.176915 0.327685 0.136262
648 4 0.113987 0.346609 0.168515
535 2 0.189935 0.341112 0.152856
626 4 0.22749 0.409262 0.133948
609 4 0.302766 0.356276 0.0940008
607 2 0.311186 0.376948 0.0827341
612 4 0.281035 0.349667 0.146266
610 2 0.267218 0.347531 0.166995
740 4 0.3655 0.354719 0.0939604
387 4 0.342164 0.39743 0.139977
15 3 0.390923 0.354679 0.135032
385 2 0.348681 0.378215 0.125365
386 4 0.355199 0.359001 0.110753
11 1 0.41131 0.364319 0.13821
14 3 0.413671 0.382653 0.124185
13 3 0.413581 0.370927 0.160336
12 3 0.427773 0.349024 0.13329
495 4 0.429564 0.391037 0.118186
493 2 0.434531 0.413769 0.127338
597 4 0.474945 0.387742 0.163004
595 2 0.493411 0.403434 0.156845
313 2 0.011254 0.445954 0.0868188
314 4 0.0137894 0.46416 0.103769
243 4 0.187412 0.505725 0.0887604
625 2 0.227251 0.41942 0.111102
627 4 0.227012 0.429578 0.088256
637 2 0.257179 0.487777 0.13601
525 4 0.32961 0.48383 0.127667
523 2 0.334196 0.483149 0.103098
638 4 0.265711 0.479461 0.157992
658 2 0.386202 0.458496 0.15842
659 4 0.361448 0.455551 0.160357
660 4 0.410956 0.461441 0.156484
494 4 0.439499 0.436501 0.136489
16 1 0.0556878 0.0545823 0.170873
17 3 0.0495743 0.0758799 0.177052
18 3 0.0558172 0.0410489 0.18972
1422 4 0.00201367 0.0207874 0.167971
579 4 0.0982168 0.0834859 0.226397
1420 2 0.0145011 0.999163 0.169248
673 2 0.125352 0.0470673 0.23412
674 4 0.146951 0.0595906 0.235483
675 4 0.103754 0.034544 0.232758
689 4 0.217115 0.0266926 0.216944
688 2 0.206791 0.0162646 0.237189
21 1 0.374798 0.0462179 0.222956
23 3 0.382856 0.0276237 0.234257
24 3 0.351788 0.0477087 0.225552
25 3 0.380044 0.0447482 0.200843
759 4 0.398762 0.0497225 0.199567
22 3 0.384519 0.0650924 0.231811
757 2 0.410235 0.0487258 0.177373
1760 4 0.48374 0.0125683 0.159371
742 2 0.459114 0.0562533 0.227297
743 4 0.466247 0.079144 0.234391
744 4 0.451981 0.0333625 0.220204
379 2 0.0109111 0.157982 0.170218
381 4 0.0276772 0.166531 0.18668
511 2 0.0376924 0.161958 0.222306
513 4 0.0474744 0.147785 0.240434
577 2 0.0964752 0.106641 0.217124
578 4 0.0947336 0.129796 0.20785
692 4 0.223491 0.0826736 0.197849
723 4 0.206559 0.105112 0.230743
691 2 0.225865 0.0914265 0.174548
721 2 0.186094 0.114839 0.241314
581 4 0.279977 0.129208 0.187465
30 3 0.308079 0.130793 0.206306
26 1 0.310466 0.1209 0.22668
28 3 0.298774 0.100863 0.227169
27 3 0.332748 0.116602 0.230451
29 3 0.302635 0.13505 0.243318
310 2 0.434599 0.110876 0.183982
311 4 0.451782 0.110226 0.202134
333 4 0.423739 0.137912 0.25064
512 4 0.0279105 0.176131 0.204178
395 4 0.0387877 0.247503 0.219347
338 4 0.0941425 0.238225 0.167851
363 4 0.0914125 0.250334 0.183549
285 4 0.258197 0.189338 0.170462
764 4 0.357629 0.217419 0.190647
763 2 0.376926 0.228953 0.201591
765 4 0.396223 0.240486 0.212534
520 2 0.474423 0.214298 0.24046
521 4 0.45035 0.207747 0.23879
522 4 0.498495 0.220849 0.24213
394 2 0.0201153 0.252945 0.23506
750 4 0.0577594 0.284646 0.237046
748 2 0.0797589 0.274909 0.243858
370 2 0.165588 0.262487 0.214239
361 2 0.108191 0.25378 0.201764
362 4 0.12497 0.257226 0.219978
372 4 0.141525 0.256389 0.211246
371 4 0.189651 0.268586 0.217231
279 4 0.222902 0.265318 0.178847
343 2 0.257998 0.281147 0.250581
344 4 0.278595 0.270171 0.241611
307 2 0.310133 0.278709 0.220617
309 4 0.294697 0.284802 0.201915
308 4 0.325569 0.272615 0.239319
647 4 0.0654407 0.357616 0.163735
263 4 0.0624449 0.409359 0.21627
300 4 0.119923 0.339707 0.21811
298 2 0.129423 0.343602 0.240908
646 2 0.0897137 0.352112 0.166125
536 4 0.202955 0.354539 0.16945
611 4 0.2534 0.345395 0.187724
303 4 0.311613 0.389397 0.197688
301 2 0.326212 0.403649 0.183234
729 4 0.318202 0.37315 0.241514
643 2 0.454041 0.383298 0.194743
644 4 0.448519 0.371075 0.215845
645 4 0.459562 0.395521 0.173641
447 4 0.456523 0.362231 0.231403
262 2 0.0467287 0.428369 0.220369
264 4 0.0310125 0.447379 0.224469
417 4 0.136732 0.425155 0.182721
415 2 0.160176 0.428897 0.190568
416 4 0.18362 0.432639 0.198414
291 4 0.199271 0.427548 0.18637
289 2 0.218803 0.425355 0.201826
290 4 0.238334 0.423163 0.217282
768 4 0.237723 0.482099 0.214597
766 2 0.254439 0.481098 0.19603
767 4 0.271155 0.480096 0.177463
1574 4 0.318836 0.497163 0.193679
302 4 0.340811 0.417901 0.16878
229 2 0.409647 0.492184 0.234976
231 4 0.399112 0.48343 0.214058
232 2 0.0261445 0.0430696 0.300351
233 4 0.041925 0.0255791 0.29197
1402 2 0.065252 0.0127554 0.273318
1403 4 0.0700407 0.0372789 0.274238
234 4 0.010364 0.0605601 0.308732
429 4 0.0825466 0.0138707 0.326097
690 4 0.196467 0.00583666 0.257433
248 4 0.219051 0.0822379 0.287136
1701 4 0.224079 0.026115 0.319773
1699 2 0.244416 0.0236565 0.305436
1700 4 0.264754 0.021198 0.2911
257 4 0.398422 0.056421 0.335679
478 2 0.477057 0.043315 0.324173
480 4 0.461664 0.0237725 0.321655
351 4 0.448313 0.0748174 0.271466
529 2 0.00319201 0.129282 0.266085
530 4 0.0222593 0.141809 0.276317
398 4 0.0569181 0.13858 0.326817
731 4 0.136427 0.0823753 0.309832
546 4 0.16334 0.139211 0.266528
544 2 0.152176 0.16098 0.261366
722 4 0.165629 0.124567 0.251885
249 4 0.241742 0.119491 0.31159
247 2 0.230397 0.100865 0.299363
403 2 0.222844 0.157111 0.296303
600 4 0.195586 0.138538 0.33021
404 4 0.234764 0.135938 0.302202
632 4 0.349963 0.120917 0.295587
631 2 0.369832 0.113334 0.308737
633 4 0.3897 0.105752 0.321887
349 2 0.449482 0.0866599 0.293456
331 2 0.445225 0.149766 0.255437
332 4 0.466711 0.161621 0.260233
350 4 0.45065 0.0985024 0.315446
392 4 0.110748 0.166669 0.274904
391 2 0.0999423 0.189211 0.274368
393 4 0.0891369 0.211753 0.273831
545 4 0.141013 0.182749 0.256203
405 4 0.210923 0.178284 0.290404
706 2 0.309984 0.173733 0.311296
708 4 0.304578 0.170993 0.335554
707 4 0.31539 0.176472 0.287038
762 4 0.47544 0.176609 0.26969
418 2 0.426714 0.219576 0.302372
419 4 0.435099 0.198597 0.313085
761 4 0.476965 0.171618 0.319424
760 2 0.476203 0.174113 0.294557
420 4 0.418329 0.240554 0.291658
396 4 0.00144299 0.258387 0.250774
444 4 0.022074 0.258065 0.315233
443 4 0.0130041 0.260255 0.266104
442 2 0.0175391 0.25916 0.290668
390 4 0.0762921 0.278015 0.320098
749 4 0.101758 0.265172 0.250669
345 4 0.237401 0.292123 0.259552
400 2 0.20685 0.25895 0.30857
402 4 0.228505 0.256218 0.320766
401 4 0.185195 0.261682 0.296373
508 2 0.232907 0.313388 0.324152
496 2 0.311755 0.291032 0.299432
497 4 0.335199 0.282549 0.297537
498 4 0.288311 0.299515 0.301327
543 4 0.398684 0.303403 0.320518
615 4 0.397817 0.323742 0.323417
613 2 0.378623 0.337021 0.332386
541 2 0.421059 0.309614 0.311246
542 4 0.443433 0.315825 0.301973
366 4 0.00591114 0.351573 0.276764
364 2 0.0239879 0.34176 0.29098
365 4 0.0420647 0.331947 0.305197
602 4 0.0601436 0.402576 0.28276
299 4 0.138922 0.347497 0.263706
601 2 0.0822198 0.391983 0.287821
603 4 0.104296 0.381389 0.292881
734 4 0.152118 0.36279 0.261835
733 2 0.161706 0.366772 0.284581
676 2 0.183711 0.338923 0.336133
677 4 0.173649 0.356157 0.321068
735 4 0.171294 0.370754 0.307328
509 4 0.245596 0.3309 0.311601
727 2 0.328091 0.390602 0.256441
433 2 0.322831 0.387564 0.33006
728 4 0.337979 0.408054 0.271368
434 4 0.340731 0.37966 0.314494
445 2 0.460601 0.376939 0.251207
446 4 0.46468 0.391647 0.271012
1757 4 0.0674782 0.493694 0.262522
777 4 0.0889776 0.448619 0.284263
549 4 0.0501071 0.442162 0.312307
775 2 0.0943207 0.4628 0.304151
776 4 0.0996638 0.476982 0.324039
414 4 0.1469 0.474567 0.271894
412 2 0.163209 0.468079 0.289702
413 4 0.179517 0.461592 0.30751
436 2 0.29222 0.446621 0.280487
437 4 0.286591 0.440742 0.256845
438 4 0.297849 0.452499 0.304129
713 4 0.418083 0.453617 0.277063
712 2 0.438936 0.462446 0.287664
714 4 0.459788 0.471275 0.298266
316 2 0.0371799 0.0775929 0.347756
317 4 0.0367318 0.0576804 0.362871
428 4 0.0706636 0.0276931 0.372664
427 2 0.0766051 0.0207819 0.349381
606 4 0.165482 0.0594607 0.373839
604 2 0.190298 0.0566178 0.372708
605 4 0.215114 0.0537749 0.371578
683 4 0.30201 0.0846544 0.365131
682 2 0.284433 0.085829 0.382874
698 4 0.381662 0.0464283 0.338974
697 2 0.3634 0.0305429 0.345244
699 4 0.345137 0.0146574 0.351515
256 2 0.417239 0.0555522 0.352121
479 4 0.492449 0.0628576 0.326692
258 4 0.436056 0.0546835 0.368563
426 4 0.416292 0.0437311 0.39802
318 4 0.0376279 0.0975055 0.332641
732 4 0.130685 0.095487 0.357747
730 2 0.133556 0.0889311 0.333789
397 2 0.0772797 0.124625 0.330798
399 4 0.0976413 0.11067 0.334778
685 2 0.15334 0.151873 0.414606
598 2 0.18813 0.159992 0.340666
686 4 0.175414 0.158799 0.405122
684 4 0.266855 0.0870037 0.400618
320 4 0.27297 0.0974907 0.415993
451 2 0.475095 0.143647 0.371829
453 4 0.453957 0.156913 0.373375
514 2 0.435397 0.154691 0.412653
515 4 0.451233 0.157061 0.393449
2653 2 0.0115189 0.223551 0.364205
2654 4 0.0365032 0.22261 0.364486
599 4 0.180675 0.181445 0.351122
474 4 0.238181 0.196437 0.350404
274 2 0.19089 0.244172 0.390029
276 4 0.215639 0.240879 0.388687
275 4 0.16614 0.247464 0.391372
472 2 0.261979 0.196718 0.342739
473 4 0.285777 0.197 0.335073
488 4 0.298103 0.217916 0.383819
487 2 0.291772 0.234564 0.401368
715 2 0.357311 0.234545 0.36133
716 4 0.3375 0.223106 0.371424
717 4 0.377121 0.245984 0.351237
616 2 0.0711599 0.329741 0.370315
618 4 0.054147 0.316106 0.382556
347 4 0.044701 0.312104 0.399078
346 2 0.0496978 0.295262 0.41687
389 4 0.117088 0.257462 0.340446
388 2 0.0966898 0.267739 0.330272
678 4 0.193772 0.32169 0.351198
375 4 0.176391 0.331948 0.394462
373 2 0.195458 0.315776 0.394757
510 4 0.220219 0.295877 0.336703
374 4 0.214525 0.299604 0.395052
376 2 0.290152 0.296763 0.349892
377 4 0.312777 0.286365 0.352176
378 4 0.267528 0.307161 0.347608
489 4 0.285441 0.251211 0.418916
268 2 0.486148 0.269735 0.393396
270 4 0.472665 0.277345 0.41303
408 4 0.0667041 0.425957 0.406385
406 2 0.0704588 0.41765 0.383103
407 4 0.0742136 0.409343 0.35982
548 4 0.060093 0.406216 0.345607
617 4 0.0881727 0.343375 0.358074
503 4 0.25538 0.411593 0.402983
435 4 0.304932 0.395468 0.345627
614 4 0.359429 0.350299 0.341355
336 4 0.377569 0.359942 0.397661
561 4 0.455895 0.377511 0.397066
752 4 0.457133 0.390082 0.381414
559 2 0.47878 0.375998 0.407025
560 4 0.501664 0.374484 0.416984
547 2 0.0551001 0.424189 0.328957
680 4 0.0462186 0.45828 0.42489
499 2 0.113445 0.478595 0.378672
500 4 0.118275 0.493325 0.359054
501 4 0.108615 0.463864 0.39829
570 4 0.164037 0.474623 0.40865
5 3 0.295676 0.446261 0.366735
1 1 0.31234 0.461403 0.363314
2 3 0.30348 0.482629 0.363667
4 3 0.328227 0.459626 0.380132
3 3 0.322238 0.457749 0.342648
593 4 0.420392 0.475135 0.347948
594 4 0.372498 0.48952 0.348015
592 2 0.396445 0.482327 0.347982
751 2 0.444723 0.411626 0.378765
753 4 0.432313 0.43317 0.376116
2237 4 0.0366751 0.0279493 0.493402
718 2 0.0516424 0.0626769 0.474151
720 4 0.0367248 0.0453955 0.484348
719 4 0.06656 0.0799583 0.463953
2236 2 0.0292442 0.0055412 0.501638
367 2 0.124352 0.0470402 0.458651
369 4 0.125709 0.0682209 0.471869
368 4 0.122995 0.0258595 0.445433
342 4 0.183323 0.0737821 0.499383
340 2 0.179727 0.0491398 0.497145
341 4 0.176132 0.0244974 0.494907
1181 4 0.247443 0.0600157 0.490311
2430 4 0.189107 0.0202948 0.508384
441 4 0.269164 0.0348595 0.428522
439 2 0.27765 0.0131858 0.419389
726 4 0.31872 0.0708919 0.457371
1180 2 0.257722 0.0827985 0.490985
724 2 0.342793 0.0776399 0.45771
424 2 0.39531 0.0366675 0.409642
425 4 0.374329 0.0296038 0.421263
725 4 0.366866 0.0843879 0.458049
2878 2 0.48383 0.0759356 0.453277
457 2 0.0083563 0.165906 0.43186
458 4 0.0166466 0.142415 0.429714
471 4 0.0127162 0.165223 0.497251
687 4 0.131266 0.144947 0.42409
321 4 0.278655 0.145619 0.428323
319 2 0.275812 0.121555 0.422158
1182 4 0.268002 0.105581 0.491659
574 2 0.39625 0.155125 0.461234
575 4 0.405207 0.163432 0.439418
516 4 0.419561 0.152321 0.431857
576 4 0.387293 0.146817 0.48305
642 4 0.466372 0.112897 0.469773
2880 4 0.468767 0.0946193 0.460292
640 2 0.466687 0.125448 0.491396
459 4 6.59748e-05 0.189398 0.434005
469 2 0.0299196 0.180169 0.486963
470 4 0.0471229 0.195114 0.476675
260 4 0.108317 0.213952 0.421092
261 4 0.114303 0.186004 0.462127
259 2 0.11131 0.199978 0.441609
1035 4 0.122571 0.177744 0.479197
1033 2 0.11899 0.175818 0.503868
695 4 0.116189 0.238299 0.482461
468 4 0.32853 0.169111 0.436833
411 4 0.262095 0.202091 0.47351
409 2 0.285823 0.19911 0.466211
410 4 0.30955 0.196128 0.458912
467 4 0.373716 0.178935 0.417794
466 2 0.351123 0.174023 0.427313
306 4 0.483865 0.225127 0.41864
304 2 0.485383 0.200456 0.414869
305 4 0.486901 0.175785 0.411098
348 4 0.0546946 0.278419 0.434661
327 4 0.113078 0.34439 0.473843
694 2 0.116342 0.260929 0.493094
696 4 0.116494 0.283559 0.503726
325 2 0.0942068 0.337775 0.458833
10 3 0.164729 0.324931 0.469438
6 1 0.158696 0.334659 0.489126
651 4 0.252896 0.274213 0.450139
649 2 0.25892 0.295689 0.461438
650 4 0.264944 0.317165 0.472737
266 4 0.324687 0.291601 0.435669
267 4 0.35964 0.256104 0.431318
265 2 0.342164 0.273853 0.433493
812 4 0.324765 0.308682 0.492171
583 2 0.463354 0.276336 0.463003
584 4 0.485909 0.268439 0.455649
585 4 0.440799 0.284233 0.470358
326 4 0.0753355 0.33116 0.443824
7 3 0.136594 0.340936 0.488016
502 2 0.252148 0.396338 0.422528
711 4 0.163738 0.382449 0.483282
504 4 0.248915 0.381084 0.442074
709 2 0.181948 0.385986 0.466517
710 4 0.200159 0.389522 0.449753
774 4 0.234276 0.410437 0.474805
8 3 0.171667 0.353517 0.492939
772 2 0.235276 0.398567 0.496789
334 2 0.373411 0.369259 0.420488
238 2 0.376781 0.375927 0.480416
240 4 0.360366 0.375153 0.461571
335 4 0.369253 0.378577 0.443315
239 4 0.393197 0.3767 0.49926
1381 2 0.0230013 0.489053 0.447047
1383 4 0.0353913 0.475799 0.429842
681 4 0.0302693 0.415594 0.445487
679 2 0.038244 0.436937 0.435189
383 4 0.0711392 0.42332 0.458302
539 4 0.0783855 0.474906 0.491913
540 4 0.125529 0.49085 0.496815
568 2 0.154253 0.465931 0.429955
569 4 0.144468 0.457239 0.45126
382 2 0.0958483 0.419849 0.456691
384 4 0.120557 0.416377 0.455081
538 2 0.101957 0.482878 0.494364
636 4 0.240429 0.471176 0.443329
634 2 0.236876 0.450612 0.457101
635 4 0.233324 0.430048 0.470873
668 4 0.305943 0.446343 0.433339
667 2 0.301598 0.436311 0.455825
669 4 0.297252 0.426279 0.478312
588 4 0.390012 0.438415 0.417101
587 4 0.431685 0.426863 0.442215
663 4 0.446342 0.456616 0.486718
586 2 0.410848 0.432639 0.429658
1126 2 0.0410049 0.0551161 0.529266
1127 4 0.0336877 0.0325621 0.521332
1128 4 0.0483221 0.0776701 0.5372
1058 4 0.139499 0.0658966 0.56063
1057 2 0.151559 0.0754337 0.580348
1030 2 0.251438 0.0838929 0.565428
1152 4 0.197817 0.0891852 0.498363
961 2 0.291074 0.0309056 0.51776
963 4 0.299652 0.0542805 0.520043
962 4 0.282496 0.00753074 0.515477
432 4 0.303777 0.0671544 0.505224
430 2 0.324919 0.0778445 0.513218
1217 4 0.400406 0.0493859 0.55582
1216 2 0.408239 0.0280174 0.566174
841 2 0.376613 0.0713701 0.537227
842 4 0.39581 0.0553507 0.537216
1218 4 0.416072 0.00664896 0.576528
1062 4 0.481299 0.0286162 0.544978
938 4 0.0865858 0.140867 0.567439
937 2 0.103913 0.137475 0.549735
939 4 0.121241 0.134083 0.532031
1154 4 0.1664 0.151502 0.590326
1032 4 0.253838 0.090282 0.541374
1151 4 0.177038 0.129359 0.519694
1150 2 0.187428 0.109272 0.509029
899 4 0.306795 0.142864 0.553699
898 2 0.323111 0.161775 0.552538
843 4 0.357415 0.0873896 0.537239
431 4 0.346061 0.0885347 0.521212
641 4 0.467002 0.137999 0.513019
877 2 0.0746552 0.20811 0.572066
878 4 0.052848 0.20299 0.560957
1199 4 0.0125522 0.20205 0.563514
1034 4 0.115409 0.173892 0.528539
879 4 0.0964625 0.213231 0.583174
856 2 0.236047 0.2255 0.539057
858 4 0.252944 0.214788 0.554054
1221 4 0.181257 0.176291 0.580294
857 4 0.219149 0.236212 0.524059
797 4 0.218769 0.228983 0.580943
900 4 0.339426 0.180686 0.551378
872 4 0.406401 0.233963 0.504889
3159 4 0.483735 0.179941 0.536154
983 4 0.0339228 0.320936 0.554506
982 2 0.0226336 0.33026 0.574773
1258 2 0.15538 0.291646 0.52413
1260 4 0.135723 0.289486 0.508829
9 3 0.161343 0.319568 0.506551
1259 4 0.175037 0.293806 0.539431
813 4 0.33821 0.281528 0.531952
871 2 0.399967 0.254863 0.517012
873 4 0.393533 0.275763 0.529135
811 2 0.331488 0.295105 0.512062
1189 2 0.221018 0.353261 0.566425
773 4 0.236276 0.386697 0.518773
1190 4 0.23375 0.354184 0.544926
802 2 0.275198 0.358224 0.548975
803 4 0.274518 0.361694 0.573727
804 4 0.275879 0.354754 0.524223
928 2 0.360305 0.378842 0.580406
929 4 0.359298 0.386099 0.5565
925 2 0.462109 0.38262 0.531837
927 4 0.45934 0.403941 0.544602
926 4 0.464879 0.3613 0.519072
1161 4 0.151423 0.444229 0.559684
1159 2 0.161971 0.456948 0.57845
1171 2 0.233847 0.454886 0.569729
1173 4 0.222158 0.46208 0.54883
882 4 0.317759 0.447348 0.515179
880 2 0.335678 0.462522 0.523773
881 4 0.353596 0.477696 0.532367
1952 4 0.354063 0.47335 0.565462
1002 4 0.406704 0.432559 0.565486
1951 2 0.360338 0.490865 0.582167
1000 2 0.431077 0.436585 0.561622
1001 4 0.45545 0.440611 0.557758
662 4 0.463245 0.480938 0.52701
661 2 0.454794 0.468777 0.506864
1185 4 0.998838 0.0570647 0.636746
825 4 0.13879 0.0249601 0.635782
823 2 0.154295 0.00534511 0.63558
1031 4 0.249037 0.0775039 0.589482
949 2 0.268476 0.0229349 0.597938
951 4 0.267488 0.0478693 0.596363
950 4 0.269463 0.998001 0.599512
1092 4 0.325016 0.992479 0.659129
809 4 0.463227 0.0615378 0.612425
808 2 0.453752 0.072221 0.63295
1083 4 0.066073 0.0912753 0.615429
1082 4 0.0346367 0.102335 0.652713
1081 2 0.0503548 0.0968053 0.634071
1059 4 0.163619 0.0849707 0.600065
1153 2 0.162212 0.127741 0.596885
1155 4 0.158023 0.103979 0.603445
909 4 0.152796 0.162322 0.655616
1284 4 0.176115 0.0916235 0.652513
1283 4 0.215315 0.121868 0.645489
1282 2 0.195715 0.106746 0.649001
1005 4 0.334499 0.100542 0.659071
810 4 0.444277 0.0829042 0.653475
1272 4 0.111946 0.226191 0.583394
1270 2 0.129052 0.216635 0.598927
1271 4 0.146157 0.207078 0.614459
1210 2 0.234268 0.180696 0.655522
1212 4 0.214617 0.179742 0.640091
1219 2 0.195956 0.175663 0.600511
1220 4 0.210655 0.175034 0.620727
796 2 0.226613 0.232995 0.604343
798 4 0.234458 0.237006 0.627742
791 4 0.322378 0.233941 0.577909
1211 4 0.253919 0.18165 0.670953
904 2 0.485833 0.238337 0.59566
906 4 0.464429 0.233486 0.58368
1024 2 0.449615 0.200697 0.649441
1025 4 0.452637 0.216341 0.630171
905 4 0.507237 0.243187 0.60764
1243 2 0.0591206 0.269982 0.623525
1244 4 0.0436579 0.261884 0.605622
1245 4 0.0745834 0.278079 0.641428
1209 4 0.109688 0.262483 0.651121
946 2 0.189818 0.270807 0.62109
947 4 0.206815 0.252469 0.621209
948 4 0.172821 0.289145 0.620972
792 4 0.295883 0.276352 0.577911
790 2 0.309131 0.255147 0.57791
1238 4 0.290768 0.291934 0.590462
1237 2 0.293733 0.31057 0.606866
954 4 0.426956 0.271641 0.599078
952 2 0.447091 0.285969 0.602881
953 4 0.467226 0.300297 0.606685
984 4 0.0113443 0.339585 0.595041
1040 4 0.0778765 0.406595 0.633217
1039 2 0.0576919 0.393408 0.626594
1041 4 0.0375073 0.380221 0.619971
3263 4 0.00491393 0.347455 0.61284
1137 4 0.113332 0.383003 0.570626
897 4 0.151407 0.392616 0.588985
1136 4 0.105819 0.355155 0.611476
1135 2 0.109576 0.369079 0.591051
992 4 0.144856 0.412651 0.651995
991 2 0.120927 0.408745 0.645882
993 4 0.0969993 0.40484 0.639769
1191 4 0.208286 0.352337 0.587924
896 4 0.191137 0.362686 0.594124
895 2 0.171272 0.377651 0.591554
1239 4 0.296697 0.329206 0.62327
806 4 0.325474 0.356327 0.652268
930 4 0.361312 0.371585 0.604312
1204 2 0.401344 0.406088 0.626741
1205 4 0.420779 0.394957 0.637857
1172 4 0.245536 0.447692 0.590629
1187 4 0.211021 0.481922 0.606586
1160 4 0.172519 0.469666 0.597216
1186 2 0.211148 0.497076 0.626474
889 2 0.30923 0.460959 0.604465
891 4 0.286862 0.471525 0.608101
1206 4 0.381909 0.417218 0.615625
890 4 0.331598 0.450393 0.600829
1269 4 0.427534 0.465321 0.655161
944 4 0.0678539 0.0627941 0.672228
943 2 0.0681347 0.0378101 0.671278
945 4 0.0684154 0.0128262 0.670328
1147 2 0.216356 0.0772539 0.730538
1149 4 0.216723 0.056729 0.744813
1090 2 0.337168 0.00136456 0.679093
1091 4 0.34932 0.0102504 0.699056
1163 4 0.463423 0.035173 0.671793
1162 2 0.483166 0.0429392 0.685025
42 3 0.439907 0.0696748 0.692252
2320 2 0.491931 0.00617002 0.736151
2283 4 0.423733 0.00155836 0.669737
45 3 0.425454 0.0812161 0.659836
1076 4 0.0326842 0.0913345 0.669475
862 2 0.0513571 0.123854 0.741997
864 4 0.051739 0.119727 0.717339
1075 2 0.0338151 0.10015 0.692846
1077 4 0.0349461 0.108966 0.716217
907 2 0.15222 0.149646 0.677161
908 4 0.151645 0.136971 0.698706
1227 4 0.156239 0.127907 0.716717
1148 4 0.215989 0.0977788 0.716263
1225 2 0.178843 0.118217 0.721229
1226 4 0.201447 0.108527 0.725741
829 2 0.327858 0.152373 0.713724
1003 2 0.339152 0.0866193 0.679312
831 4 0.338308 0.138504 0.731713
1004 4 0.343805 0.0726965 0.699553
43 3 0.410047 0.0925006 0.692285
41 1 0.42983 0.0872496 0.681355
1142 4 0.404901 0.14929 0.729485
44 3 0.444157 0.105498 0.681704
3425 4 0.500671 0.152131 0.694984
851 4 0.0690031 0.174758 0.717711
852 4 0.0322027 0.199569 0.694672
850 2 0.0506029 0.187163 0.706191
1213 2 0.0223719 0.215184 0.748587
1107 4 0.0699374 0.190626 0.731715
1178 4 0.00986063 0.2336 0.711011
1215 4 0.0155813 0.231485 0.730886
1105 2 0.0890289 0.196922 0.746583
1207 2 0.106768 0.244724 0.668479
1208 4 0.103847 0.226965 0.685836
1129 2 0.194176 0.196711 0.741141
1131 4 0.193146 0.221614 0.743122
1130 4 0.195206 0.171807 0.739159
830 4 0.317407 0.166242 0.695734
886 2 0.288221 0.190038 0.68692
888 4 0.268072 0.19523 0.673054
887 4 0.30837 0.184847 0.700785
976 2 0.289769 0.199787 0.746848
978 4 0.274943 0.182422 0.736659
1193 4 0.374597 0.226428 0.690055
1192 2 0.361934 0.205195 0.693792
1194 4 0.34927 0.183962 0.697528
1143 4 0.432094 0.191074 0.72557
1141 2 0.418497 0.170182 0.727528
1026 4 0.446594 0.185053 0.66871
1261 2 0.441333 0.230374 0.718148
1263 4 0.452753 0.235144 0.696422
1262 4 0.429913 0.225604 0.739874
1145 4 0.499919 0.212999 0.738009
820 2 0.166356 0.268181 0.739739
821 4 0.172132 0.278483 0.7177
1065 4 0.240934 0.270376 0.69902
1063 2 0.257833 0.288415 0.695249
1064 4 0.274731 0.306454 0.691477
807 4 0.343484 0.339559 0.695802
3123 4 0.47639 0.281516 0.676544
3121 2 0.496869 0.267654 0.680236
3274 2 0.00594415 0.389471 0.724712
892 2 0.0519729 0.378781 0.693975
893 4 0.0567154 0.37596 0.669588
894 4 0.0472303 0.381602 0.718363
3276 4 0.0274933 0.377851 0.719634
940 2 0.139397 0.393047 0.741838
1067 4 0.156825 0.401794 0.715483
941 4 0.160878 0.403655 0.734682
1028 4 0.22047 0.396112 0.690782
1066 2 0.179615 0.404198 0.705483
1068 4 0.202405 0.406601 0.695483
1027 2 0.241841 0.400723 0.67865
805 2 0.334479 0.347943 0.674035
1029 4 0.263212 0.405333 0.666517
1019 4 0.392234 0.36515 0.725153
1281 4 0.0261745 0.459987 0.710658
1280 4 0.065107 0.429101 0.705087
1279 2 0.0456407 0.444544 0.707872
1983 4 0.0288653 0.479024 0.719602
1981 2 0.0347296 0.492963 0.739514
1176 4 0.202313 0.490094 0.722494
1174 2 0.216204 0.499766 0.704091
1139 4 0.278001 0.422946 0.732751
1138 2 0.292823 0.437195 0.718523
1140 4 0.307645 0.451445 0.704295
1228 2 0.364631 0.459463 0.710641
1229 4 0.356311 0.482615 0.715104
1230 4 0.37295 0.43631 0.706177
1267 2 0.443972 0.47749 0.669544
1100 4 0.428426 0.445885 0.725569
1099 2 0.451578 0.44492 0.716174
1101 4 0.474729 0.443955 0.70678
1294 2 0.0108582 0.032262 0.813594
911 4 0.0825957 0.0481923 0.815734
1203 4 0.116467 0.0827217 0.765118
1201 2 0.110022 0.0585638 0.765314
1202 4 0.103577 0.0344059 0.76551
2049 4 0.113099 0.0162804 0.764323
1255 2 0.287018 0.0682453 0.813809
1256 4 0.304948 0.0794436 0.827162
1257 4 0.269088 0.057047 0.800457
975 4 0.364603 0.0106581 0.814739
973 2 0.35634 0.00415644 0.837424
1112 4 0.427067 0.0737875 0.811447
846 4 0.475556 0.0636908 0.749945
1113 4 0.415821 0.0384057 0.777946
844 2 0.476268 0.0496995 0.770655
1111 2 0.421444 0.0560966 0.794697
845 4 0.47698 0.0357082 0.791365
863 4 0.0509751 0.127981 0.766655
832 2 0.0113394 0.12279 0.78648
833 4 0.0334642 0.12677 0.775533
34 3 0.0986171 0.143264 0.831332
31 1 0.11215 0.152826 0.815088
33 3 0.126796 0.136943 0.806625
839 4 0.263416 0.142464 0.787579
838 2 0.270498 0.128001 0.806707
840 4 0.27758 0.113539 0.825834
1084 2 0.35391 0.133089 0.798709
1085 4 0.373837 0.128261 0.813019
1086 4 0.333984 0.137917 0.784398
819 4 0.37147 0.118284 0.829988
1214 4 0.0291626 0.198882 0.766289
1073 4 0.0754105 0.226258 0.785396
32 3 0.124336 0.169841 0.824634
1106 4 0.10812 0.203219 0.76145
35 3 0.0993199 0.161299 0.798288
1072 2 0.099047 0.234218 0.783626
1074 4 0.122684 0.242178 0.781856
1277 4 0.201235 0.221652 0.762049
977 4 0.304594 0.217152 0.757038