ITEM: TIMESTEP
3420000
ITEM: NUMBER OF ATOMS
4590
ITEM: BOX BOUNDS pp pp pp
-9.9985700000000008e+00 9.9985700000000008e+00
-9.9985700000000008e+00 9.9985700000000008e+00
-9.9985700000000008e+00 9.9985700000000008e+00
ITEM: ATOMS id type xs ys zs
1666 2 0.0681974 0.0463208 0.0799876
1668 4 0.0780836 0.0301844 0.0636458
465 4 0.0285038 0.0693689 0.0114631
463 2 0.0279793 0.0445081 0.00884664
464 4 0.0274548 0.0196473 0.00623016
3290 4 0.0823879 0.0327841 0.0430338
3289 2 0.0950428 0.0299797 0.0216523
3291 4 0.107698 0.0271753 0.000270829
490 2 0.29724 0.0114256 0.0604371
491 4 0.305375 0.0335894 0.0686689
747 4 0.500365 0.0164247 0.0767742
701 4 0.0336625 0.0886468 0.00987757
358 2 0.215761 0.151406 0.00576266
359 4 0.238653 0.144643 0.0132045
461 4 0.284474 0.165413 0.0412245
150 3 0.445448 0.125967 0.000816745
2723 4 0.489858 0.0940853 0.054107
505 2 0.14792 0.242119 0.0407824
506 4 0.167219 0.228575 0.0491079
737 4 0.186864 0.230368 0.0490936
736 2 0.197552 0.208066 0.0527761
738 4 0.20824 0.185764 0.0564586
354 4 0.225329 0.17851 0.0486045
352 2 0.248968 0.179119 0.0404804
462 4 0.320703 0.168573 0.0755495
460 2 0.302588 0.166993 0.058387
353 4 0.272607 0.179728 0.0323562
665 4 0.35579 0.19765 0.00949691
2807 4 0.0365393 0.270888 0.0125916
2806 2 0.0185232 0.262103 0.0275393
2808 4 0.000507099 0.253319 0.0424869
915 4 0.130381 0.25929 0.0121388
507 4 0.128621 0.255662 0.032457
293 4 0.0925907 0.269882 0.0459884
287 4 0.154069 0.290223 0.0306134
286 2 0.151571 0.315078 0.0316819
292 2 0.0988769 0.290228 0.0590912
294 4 0.105163 0.310575 0.072194
356 4 0.22521 0.267068 0.0139732
612 4 0.23687 0.324043 0.0592323
610 2 0.24564 0.307558 0.0758607
483 4 0.245239 0.270388 0.0183503
482 4 0.288178 0.294174 0.0279008
481 2 0.266709 0.282281 0.0231256
572 4 0.30285 0.301702 0.0161393
571 2 0.319615 0.288485 0.00312311
315 4 0.0155537 0.412625 0.0580194
288 4 0.149073 0.339934 0.0327504
990 4 0.162332 0.352889 0.0388808
609 4 0.245885 0.342363 0.0585973
988 2 0.180826 0.366015 0.028352
1289 4 0.21002 0.396011 0.0190718
989 4 0.19932 0.379142 0.0178233
1288 2 0.210576 0.412116 0.999954
739 2 0.334123 0.334794 0.0639712
607 2 0.267289 0.354269 0.0535657
250 2 0.296509 0.40837 0.0560399
252 4 0.287425 0.386003 0.0495314
608 4 0.288692 0.366175 0.048534
741 4 0.347127 0.339576 0.0431576
226 2 0.388834 0.398444 0.0372466
227 4 0.391675 0.377699 0.0235809
1303 2 0.404712 0.35441 0.0120102
1305 4 0.411465 0.374587 0.0251432
1045 2 0.49271 0.357537 0.0264477
280 2 0.462709 0.358179 0.0792055
282 4 0.485758 0.363717 0.0712516
1047 4 0.492327 0.362637 0.0509228
1046 4 0.493092 0.352438 0.00197266
550 2 0.0286027 0.496448 0.0459519
313 2 0.0252114 0.435536 0.0553708
552 4 0.0286441 0.476305 0.060765
314 4 0.0348692 0.458446 0.0527222
1790 4 0.0665193 0.496332 0.0708653
1786 2 0.150719 0.499475 0.0275743
1766 4 0.0854292 0.496954 0.0656311
1440 4 0.213921 0.422511 0.0674436
243 4 0.205667 0.441948 0.0646201
241 2 0.186886 0.456971 0.0577833
242 4 0.168104 0.471994 0.0509465
1787 4 0.170086 0.487899 0.0383491
251 4 0.305593 0.430738 0.0625483
524 4 0.325223 0.433762 0.0694613
271 2 0.266393 0.473236 0.0651759
272 4 0.26985 0.448533 0.0669019
273 4 0.262936 0.497939 0.06345
228 4 0.385993 0.419189 0.0509123
525 4 0.374136 0.42367 0.0669321
523 2 0.349679 0.428716 0.0681967
1583 4 0.478546 0.490671 0.061855
1667 4 0.0583111 0.0624573 0.0963295
16 1 0.0326992 0.0616796 0.121617
19 3 0.0238756 0.0755549 0.137988
17 3 0.0526761 0.0704911 0.114376
20 3 0.0183016 0.0602838 0.104027
18 3 0.0365611 0.0405456 0.130383
1422 4 0.0109518 0.0642151 0.150868
1420 2 0.00147183 0.0447591 0.163389
1475 4 0.309683 0.0455032 0.085148
652 2 0.257262 0.074042 0.142966
654 4 0.258732 0.055516 0.126238
1476 4 0.278686 0.0482759 0.124291
1474 2 0.294185 0.0468896 0.10472
297 4 0.382359 0.0343338 0.129364
295 2 0.406895 0.0359751 0.133886
484 2 0.352312 0.0144139 0.145441
485 4 0.371613 0.0302983 0.144847
296 4 0.431431 0.0376164 0.138409
745 2 0.487058 0.0255727 0.0958636
746 4 0.47375 0.0347206 0.114953
557 4 0.436757 0.0511256 0.125153
556 2 0.456206 0.0668392 0.125189
558 4 0.475655 0.0825529 0.125225
2480 4 0.0134657 0.0869495 0.154061
450 4 0.0672835 0.0939402 0.11809
236 4 0.11956 0.132472 0.130928
449 4 0.10318 0.12875 0.118751
448 2 0.0852317 0.111345 0.118421
235 2 0.139303 0.131134 0.146213
237 4 0.159046 0.129796 0.161497
580 2 0.302962 0.120532 0.136179
581 4 0.283854 0.136035 0.140616
30 3 0.267925 0.144304 0.144733
26 1 0.274439 0.160044 0.159849
582 4 0.322071 0.105029 0.131742
653 4 0.255793 0.092568 0.159693
27 3 0.296642 0.156897 0.164973
758 4 0.340475 0.104777 0.141046
757 2 0.34792 0.10172 0.164719
771 4 0.477462 0.101582 0.128965
769 2 0.480527 0.10909 0.152617
338 4 0.0714869 0.246656 0.158079
371 4 0.215939 0.235836 0.155197
476 4 0.233218 0.232284 0.147126
475 2 0.249312 0.213727 0.142452
477 4 0.265405 0.195171 0.137777
29 3 0.271753 0.181259 0.150843
756 4 0.358441 0.242202 0.152003
630 4 0.409698 0.237292 0.10704
624 4 0.453783 0.228663 0.159619
629 4 0.440612 0.227058 0.14499
628 2 0.425155 0.232175 0.126015
456 4 0.10158 0.32036 0.0888578
611 4 0.25441 0.291072 0.0924891
279 4 0.266267 0.301129 0.15594
277 2 0.266358 0.300447 0.130946
278 4 0.266449 0.299765 0.105952
740 4 0.321119 0.330012 0.0847849
285 4 0.274599 0.282902 0.160239
255 4 0.354278 0.251425 0.13495
253 2 0.375249 0.25224 0.121359
254 4 0.396221 0.253056 0.107768
619 2 0.0347611 0.369586 0.140523
620 4 0.0186814 0.381145 0.125258
621 4 0.0508408 0.358027 0.155787
454 2 0.118662 0.338126 0.0930745
455 4 0.135744 0.355892 0.0972912
537 4 0.134715 0.394071 0.142472
535 2 0.135333 0.384953 0.119198
536 4 0.135951 0.375836 0.0959241
647 4 0.114462 0.389771 0.147129
625 2 0.19777 0.38705 0.14683
627 4 0.194417 0.395913 0.123692
1439 4 0.210241 0.400004 0.111948
1438 2 0.212081 0.411257 0.0896958
386 4 0.312273 0.346575 0.0939018
385 2 0.321918 0.36455 0.108359
387 4 0.331563 0.382526 0.122817
302 4 0.338792 0.403263 0.122081
12 3 0.386406 0.369967 0.135878
11 1 0.372022 0.38778 0.138102
15 3 0.354549 0.385151 0.123734
672 4 0.405385 0.366083 0.132455
13 3 0.364264 0.388473 0.159959
14 3 0.383479 0.407338 0.133139
281 4 0.439661 0.35264 0.0871594
670 2 0.418764 0.368967 0.11153
671 4 0.432144 0.371851 0.0906055
104 3 0.497448 0.374269 0.0841227
1431 4 0.156959 0.477404 0.144477
1620 4 0.152617 0.489022 0.126958
1429 2 0.162428 0.464423 0.165135
1573 2 0.241795 0.492217 0.153437
1574 4 0.244301 0.477713 0.133225
639 4 0.240787 0.459708 0.124353
301 2 0.320509 0.417828 0.130955
638 4 0.283965 0.435657 0.13197
637 2 0.262376 0.447683 0.128161
303 4 0.302225 0.432393 0.139829
659 4 0.324877 0.437422 0.164943
495 4 0.381889 0.424631 0.145632
1559 4 0.375542 0.485439 0.121747
493 2 0.381308 0.445673 0.132139
494 4 0.380727 0.466715 0.118646
1584 4 0.466499 0.483234 0.109816
1582 2 0.472522 0.486953 0.0858355
1674 4 0.456722 0.496778 0.118243
1416 4 0.999703 0.0120152 0.187982
688 2 0.16104 0.0437657 0.221857
690 4 0.14506 0.0611522 0.230074
674 4 0.150595 0.0730118 0.215259
1506 4 0.227076 0.0276424 0.175997
689 4 0.17702 0.0263792 0.21364
1505 4 0.191457 0.0140504 0.208358
1504 2 0.209266 0.0208464 0.192178
22 3 0.382477 0.0601837 0.207684
698 4 0.39662 0.0609711 0.221785
697 2 0.401587 0.039358 0.233334
699 4 0.406554 0.017745 0.244883
333 4 0.407612 0.0777475 0.220035
21 1 0.378079 0.0827623 0.207794
351 4 0.495188 0.0523916 0.205072
742 2 0.489062 0.00635283 0.243541
349 2 0.480565 0.0712006 0.21266
511 2 0.0192401 0.117956 0.225455
513 4 0.0325446 0.135722 0.236967
578 4 0.0451099 0.148481 0.229295
2479 2 0.00559735 0.0977631 0.175188
512 4 0.00593553 0.100189 0.213943
673 2 0.142661 0.0961832 0.220291
675 4 0.134727 0.119355 0.225322
546 4 0.139155 0.13813 0.232512
722 4 0.161753 0.0948203 0.247447
693 4 0.256596 0.0896518 0.178826
28 3 0.261901 0.158037 0.17927
691 2 0.269226 0.0984593 0.198526
1701 4 0.300907 0.102876 0.221345
692 4 0.281856 0.107267 0.218226
1699 2 0.324377 0.0980495 0.214201
23 3 0.360712 0.0869494 0.222601
25 3 0.372161 0.0893539 0.186813
1700 4 0.347847 0.093223 0.207057
759 4 0.355364 0.0986641 0.188392
24 3 0.397165 0.0940895 0.214563
350 4 0.465943 0.0900096 0.220248
331 2 0.429117 0.0902098 0.22276
332 4 0.450621 0.102672 0.225484
770 4 0.483591 0.116598 0.176269
312 4 0.471529 0.131707 0.18109
310 2 0.476666 0.141818 0.203374
311 4 0.481802 0.151929 0.225658
521 4 0.496585 0.147809 0.23815
577 2 0.0468931 0.172229 0.236914
529 2 0.011906 0.220336 0.234096
530 4 0.034043 0.210176 0.239744
579 4 0.0486763 0.195976 0.244533
362 4 0.155751 0.221702 0.180097
361 2 0.144578 0.237848 0.195577
370 2 0.195409 0.231485 0.16879
372 4 0.174879 0.227134 0.182384
754 2 0.366083 0.227016 0.170339
755 4 0.373725 0.211831 0.188674
622 2 0.445504 0.245776 0.175861
337 2 0.0669963 0.267197 0.171609
339 4 0.0625056 0.287739 0.185139
704 4 0.0433989 0.295385 0.183562
703 2 0.0290517 0.313195 0.193668
705 4 0.0147045 0.331005 0.203775
363 4 0.133405 0.253994 0.211058
395 4 0.126556 0.267381 0.222878
394 2 0.113277 0.256664 0.241153
283 2 0.267269 0.274175 0.182494
284 4 0.259939 0.265448 0.204749
528 4 0.420067 0.315708 0.202443
526 2 0.435294 0.296918 0.196099
623 4 0.437225 0.262888 0.192102
527 4 0.45052 0.278127 0.189754
542 4 0.427533 0.333398 0.209633
750 4 0.0718395 0.350574 0.246995
646 2 0.111822 0.385246 0.171578
648 4 0.109182 0.380721 0.196027
300 4 0.110597 0.362182 0.203186
298 2 0.100157 0.352124 0.223557
734 4 0.1421 0.392152 0.215318
299 4 0.0897172 0.342066 0.243929
733 2 0.1458 0.395124 0.239868
626 4 0.201123 0.378188 0.169969
416 4 0.194691 0.41693 0.220679
290 4 0.212142 0.406818 0.225246
289 2 0.217152 0.40084 0.249002
645 4 0.370039 0.412573 0.185225
597 4 0.361237 0.397021 0.179016
345 4 0.356501 0.364192 0.219198
596 4 0.349037 0.354835 0.202938
595 2 0.355137 0.375928 0.190977
343 2 0.356235 0.356468 0.242977
541 2 0.419017 0.345637 0.229704
417 4 0.157557 0.443745 0.20061
1430 4 0.167897 0.451441 0.185793
415 2 0.176124 0.430338 0.210645
438 4 0.281708 0.468852 0.234553
658 2 0.328641 0.457983 0.178663
643 2 0.383748 0.433172 0.188821
644 4 0.397457 0.453771 0.192418
660 4 0.332405 0.478545 0.192383
231 4 0.351511 0.482163 0.184738
447 4 0.413464 0.463989 0.202765
445 2 0.425222 0.449899 0.219746
446 4 0.43698 0.435808 0.236728
1403 4 0.0256582 0.00249166 0.269666
233 4 0.0323084 0.0163285 0.285185
232 2 0.0313576 0.0402152 0.292512
234 4 0.0304068 0.064102 0.29984
317 4 0.0487075 0.0728096 0.304144
723 4 0.164866 0.0747267 0.293133
721 2 0.163309 0.0847735 0.27029
1340 4 0.225608 0.0015268 0.298968
1405 2 0.210508 0.0271285 0.285312
1406 4 0.207727 0.051801 0.288264
1407 4 0.213289 0.00245596 0.28236
743 4 0.471466 0.0132528 0.259909
425 4 0.482417 0.0276763 0.269575
424 2 0.480877 0.0493189 0.282
426 4 0.479336 0.0709615 0.294426
316 2 0.0688456 0.0843987 0.294906
318 4 0.0889836 0.0959878 0.285669
544 2 0.125415 0.139259 0.253371
599 4 0.15621 0.086565 0.305975
392 4 0.112879 0.14181 0.293646
545 4 0.111675 0.140387 0.274231
391 2 0.110441 0.139085 0.318381
403 2 0.22615 0.145302 0.299011
598 2 0.169407 0.0899168 0.326946
404 4 0.246896 0.132516 0.304604
405 4 0.205403 0.158087 0.293417
258 4 0.469441 0.0846614 0.303829
256 2 0.47556 0.097118 0.324628
444 4 0.0432941 0.238181 0.279145
442 2 0.0680561 0.241607 0.278612
443 4 0.0928181 0.245033 0.278079
396 4 0.0999984 0.245946 0.259429
401 4 0.203548 0.175713 0.285962
400 2 0.206598 0.197642 0.297581
402 4 0.209648 0.21957 0.309201
377 4 0.395767 0.240849 0.334047
763 2 0.454065 0.200678 0.319371
765 4 0.453577 0.17815 0.308533
764 4 0.454553 0.223205 0.330209
2493 4 0.00901041 0.401874 0.319665
262 2 0.019138 0.415643 0.260968
365 4 0.0081574 0.383835 0.327574
366 4 0.040449 0.365351 0.294162
749 4 0.0576258 0.353543 0.294847
364 2 0.0243032 0.374593 0.310868
748 2 0.0647326 0.352059 0.270921
735 4 0.149499 0.398096 0.264417
677 4 0.168634 0.40132 0.269458
291 4 0.222162 0.394862 0.272758
414 4 0.224503 0.393374 0.293135
412 2 0.23057 0.406075 0.3138
727 2 0.316867 0.413376 0.315506
308 4 0.314576 0.377449 0.296904
729 4 0.321961 0.396356 0.297912
344 4 0.355969 0.348745 0.266756
309 4 0.350112 0.34389 0.286334
307 2 0.332344 0.36067 0.291619
543 4 0.410501 0.357876 0.249776
2860 2 0.494986 0.388524 0.253769
615 4 0.418719 0.351035 0.267423
614 4 0.440335 0.347518 0.31238
613 2 0.429527 0.349276 0.289901
2862 4 0.475922 0.404684 0.253013
120 3 0.487113 0.411682 0.287884
116 1 0.490964 0.410445 0.310296
119 3 0.470833 0.410913 0.321825
2923 2 0.476184 0.354386 0.319475
2925 4 0.455698 0.340356 0.322414
2924 4 0.496671 0.368416 0.316536
713 4 0.474476 0.41425 0.270468
263 4 0.0431794 0.422257 0.259111
777 4 0.0589925 0.417665 0.312526
602 4 0.0716518 0.422291 0.328327
775 2 0.0788871 0.425065 0.299312
776 4 0.0987817 0.432465 0.286097
1757 4 0.114628 0.44456 0.281404
1756 2 0.119136 0.465896 0.293637
1758 4 0.123643 0.487232 0.30587
1775 4 0.142919 0.492406 0.30149
1544 4 0.204842 0.494359 0.327909
767 4 0.211039 0.496437 0.287518
676 2 0.176906 0.422645 0.279557
678 4 0.185177 0.443971 0.289656
768 4 0.179411 0.458604 0.279208
766 2 0.195225 0.47752 0.283363
436 2 0.286396 0.481148 0.255813
437 4 0.291084 0.493445 0.277073
433 2 0.295179 0.465639 0.308975
435 4 0.292803 0.486708 0.295723
434 4 0.297555 0.444569 0.322227
712 2 0.452339 0.422337 0.262116
714 4 0.430203 0.430425 0.253765
2756 4 0.999674 0.0404044 0.401412
606 4 0.155137 0.0573983 0.364711
730 2 0.0898298 0.0714063 0.39478
604 2 0.130915 0.0511961 0.364673
605 4 0.106693 0.044994 0.364635
732 4 0.0960503 0.0581119 0.374538
683 4 0.247887 0.0671693 0.378094
249 4 0.296736 0.0274959 0.392933
684 4 0.28299 0.0315577 0.37868
682 2 0.265439 0.0493635 0.378387
247 2 0.319809 0.0318451 0.384336
321 4 0.255633 0.0838985 0.38767
248 4 0.342881 0.0361944 0.375739
633 4 0.357235 0.038553 0.388412
631 2 0.362828 0.0616046 0.39632
1749 4 0.499649 0.0362908 0.35851
1747 2 0.489839 0.015296 0.34912
2586 4 0.0144267 0.147253 0.397924
393 4 0.108003 0.136361 0.343116
399 4 0.0967185 0.128068 0.355811
397 2 0.108834 0.138545 0.375011
398 4 0.12095 0.149022 0.39421
731 4 0.0836094 0.0847007 0.415023
600 4 0.182603 0.0932686 0.347918
685 2 0.20893 0.124836 0.358364
687 4 0.195792 0.107992 0.345368
686 4 0.222068 0.141679 0.371359
410 4 0.235179 0.147062 0.385198
409 2 0.247092 0.164492 0.398594
319 2 0.255998 0.0975486 0.408616
632 4 0.368421 0.0846562 0.404227
419 4 0.396333 0.16312 0.366486
418 2 0.374549 0.156609 0.376889
420 4 0.352765 0.150098 0.387293
762 4 0.461337 0.149046 0.385757
257 4 0.48168 0.109575 0.345426
760 2 0.475408 0.138044 0.36826
761 4 0.489478 0.127042 0.350763
515 4 0.455726 0.0955666 0.404972
514 2 0.451941 0.118312 0.414641
617 4 0.037518 0.237778 0.415823
388 2 0.094053 0.215336 0.398509
274 2 0.144256 0.210503 0.364299
276 4 0.119487 0.209607 0.367601
389 4 0.101104 0.211202 0.374879
275 4 0.169024 0.211399 0.360998
473 4 0.227413 0.226956 0.363676
474 4 0.183669 0.210065 0.346304
472 2 0.205541 0.21851 0.35499
708 4 0.244645 0.219966 0.368503
651 4 0.22969 0.242141 0.415741
707 4 0.292488 0.234371 0.370571
706 2 0.268566 0.227169 0.369537
411 4 0.259005 0.181921 0.41199
497 4 0.303383 0.241547 0.355355
716 4 0.389021 0.180526 0.360374
717 4 0.400702 0.220862 0.333223
715 2 0.394861 0.200694 0.346798
696 4 0.0500531 0.304038 0.419276
1258 2 0.148015 0.316219 0.376063
1259 4 0.144215 0.316739 0.351355
1260 4 0.151816 0.3157 0.40077
489 4 0.238648 0.257538 0.407594
509 4 0.21987 0.307268 0.367638
488 4 0.229684 0.30067 0.383929
508 2 0.229299 0.329214 0.375031
487 2 0.234166 0.279104 0.395761
496 2 0.326683 0.250487 0.356882
376 2 0.381323 0.255669 0.34808
378 4 0.36688 0.270489 0.362113
498 4 0.349984 0.259428 0.358408
266 4 0.377531 0.287789 0.37361
265 2 0.380001 0.310385 0.363193
270 4 0.485597 0.262873 0.365475
306 4 0.48159 0.279783 0.374708
304 2 0.481643 0.281306 0.399665
504 4 0.168559 0.383521 0.361413
502 2 0.175303 0.407536 0.363152
510 4 0.238728 0.35116 0.382424
374 4 0.24208 0.359052 0.363903
373 2 0.248538 0.383042 0.366722
375 4 0.254996 0.407032 0.369542
267 4 0.38247 0.33298 0.352775
561 4 0.48641 0.416075 0.401021
753 4 0.475332 0.412743 0.34151
601 2 0.0726581 0.428874 0.352427
679 2 0.0445754 0.49135 0.383459
680 4 0.0529488 0.467796 0.383989
406 2 0.0310584 0.439904 0.406961
408 4 0.0399039 0.453785 0.38814
603 4 0.0736645 0.435458 0.376528
549 4 0.0862747 0.432931 0.390708
547 2 0.107557 0.437021 0.403179
548 4 0.12884 0.441111 0.415649
413 4 0.236637 0.418776 0.334466
635 4 0.186671 0.490566 0.334992
503 4 0.182046 0.43155 0.36489
634 2 0.187904 0.466827 0.342744
636 4 0.189138 0.443087 0.350496
728 4 0.311774 0.430395 0.3331
3 3 0.273812 0.416956 0.368376
2 3 0.290532 0.427748 0.336491
5 3 0.25327 0.427171 0.338521
1 1 0.272391 0.43129 0.350185
668 4 0.281194 0.469423 0.366571
4 3 0.272652 0.453332 0.35743
667 2 0.295255 0.488797 0.359351
751 2 0.476712 0.421045 0.365055
752 4 0.478092 0.429347 0.3886
341 4 0.176333 0.0640172 0.445172
2430 4 0.175537 0.0585064 0.426853
441 4 0.220073 0.0146357 0.443484
2428 2 0.188241 0.0376008 0.432024
2429 4 0.200945 0.0166953 0.437195
1218 4 0.40152 0.0544011 0.47932
2879 4 0.444603 0.0123592 0.462308
2878 2 0.461686 0.0173317 0.44474
2880 4 0.478769 0.0223041 0.427173
642 4 0.488706 0.0386462 0.421847
640 2 0.486645 0.063433 0.424406
368 4 0.0749277 0.0922448 0.430346
367 2 0.0615296 0.0984455 0.450526
719 4 0.0297793 0.10291 0.47938
369 4 0.0481315 0.104646 0.470706
718 2 0.0137506 0.103063 0.498569
1152 4 0.160641 0.127119 0.473319
1150 2 0.164384 0.132499 0.497448
342 4 0.167548 0.110247 0.462095
340 2 0.17194 0.0871318 0.453633
320 4 0.256363 0.111199 0.429562
725 4 0.268423 0.0979591 0.439274
724 2 0.266227 0.094043 0.463871
726 4 0.264032 0.0901268 0.488468
432 4 0.279583 0.0994721 0.497736
468 4 0.362175 0.0893381 0.422227
467 4 0.389042 0.124074 0.446149
466 2 0.375609 0.106706 0.434188
576 4 0.394112 0.134768 0.46237
641 4 0.484585 0.0882198 0.426964
574 2 0.416275 0.139766 0.45193
3158 4 0.494673 0.106886 0.425818
575 4 0.438438 0.144764 0.441489
516 4 0.448155 0.141058 0.42431
259 2 0.0553347 0.174618 0.485473
260 4 0.0675315 0.178538 0.464001
471 4 0.0597594 0.19629 0.464175
469 2 0.0736526 0.212851 0.451609
390 4 0.0870018 0.219471 0.422138
470 4 0.0875458 0.229412 0.439043
649 2 0.241877 0.220493 0.418565
650 4 0.254065 0.198844 0.421389
2455 2 0.397887 0.233063 0.439715
2457 4 0.415488 0.219661 0.428063
2456 4 0.380286 0.246466 0.451366
616 2 0.0168227 0.251653 0.417918
694 2 0.0732466 0.295755 0.423592
695 4 0.0964402 0.287472 0.427907
878 4 0.109883 0.268463 0.488309
326 4 0.143689 0.319669 0.418469
585 4 0.350037 0.294001 0.419148
583 2 0.361495 0.280147 0.436525
584 4 0.372953 0.266293 0.453902
1010 4 0.442766 0.329149 0.457887
1009 2 0.455424 0.313264 0.443305
1011 4 0.468082 0.297379 0.428724
305 4 0.481696 0.28283 0.424623
709 2 0.134938 0.404653 0.494721
325 2 0.151269 0.339786 0.431237
327 4 0.158849 0.359902 0.444006
8 3 0.152684 0.374502 0.481923
711 4 0.142167 0.38098 0.498254
7 3 0.175233 0.366769 0.452864
6 1 0.174061 0.367863 0.475812
9 3 0.178642 0.346869 0.484566
1191 4 0.211193 0.380813 0.485724
1189 2 0.233311 0.369324 0.483734
10 3 0.189347 0.382947 0.483393
896 4 0.202532 0.400082 0.49696
1190 4 0.255429 0.357835 0.481743
335 4 0.373359 0.414539 0.446263
238 2 0.382103 0.392211 0.481602
240 4 0.375598 0.39887 0.458397
559 2 0.478985 0.401861 0.420204
2507 4 0.441992 0.348404 0.461115
560 4 0.47156 0.387647 0.439388
2506 2 0.461064 0.364449 0.459117
2508 4 0.480136 0.380494 0.457119
407 4 0.0222128 0.426022 0.425782
1382 4 0.0262084 0.447985 0.478485
540 4 0.0465701 0.450533 0.477496
1381 2 0.00310138 0.444957 0.469426
570 4 0.118434 0.430859 0.47333
568 2 0.130733 0.436633 0.452341
710 4 0.127709 0.428327 0.491187
569 4 0.143032 0.442406 0.431351
336 4 0.329524 0.436927 0.437431
1444 2 0.26926 0.489703 0.493206
1446 4 0.254559 0.492066 0.47312
588 4 0.33015 0.488607 0.454534
586 2 0.330758 0.492572 0.479214
1399 2 0.315915 0.466704 0.432755
1401 4 0.312079 0.442355 0.428561
1400 4 0.31975 0.491053 0.436948
334 2 0.351442 0.425733 0.441847
1032 4 0.110723 0.0811886 0.559068
1154 4 0.095627 0.0813924 0.572843
1030 2 0.127678 0.0818151 0.540701
1031 4 0.144633 0.0824416 0.522335
1180 2 0.225934 0.0629535 0.574123
963 4 0.248367 0.0380117 0.579165
1182 4 0.216365 0.0783954 0.556943
961 2 0.268181 0.0228346 0.577678
843 4 0.322424 0.0691138 0.529743
962 4 0.287996 0.00765736 0.576191
2195 4 0.299643 0.00267887 0.56101
431 4 0.304125 0.0760188 0.534456
841 2 0.347417 0.0692457 0.529046
1216 2 0.396258 0.0588438 0.503357
1217 4 0.390996 0.0632865 0.527393
842 4 0.372411 0.0693775 0.528349
1033 2 0.0472148 0.143835 0.53151
1034 4 0.0459177 0.150887 0.507557
1035 4 0.048512 0.136783 0.555463
1082 4 0.0608873 0.140912 0.572017
951 4 0.162317 0.0915619 0.525341
950 4 0.20516 0.0944622 0.55097
949 2 0.183738 0.093012 0.538155
1151 4 0.168126 0.137878 0.521578
939 4 0.178324 0.139142 0.539254
937 2 0.200371 0.150916 0.53858
938 4 0.222419 0.16269 0.537906
430 2 0.291854 0.0877454 0.516096
857 4 0.366201 0.139507 0.58082
899 4 0.374502 0.148419 0.564501
898 2 0.385126 0.165972 0.550212
808 2 0.497781 0.100461 0.576317
809 4 0.499415 0.106839 0.552196
261 4 0.0431379 0.170698 0.506945
879 4 0.112586 0.24191 0.530598
1270 2 0.122561 0.240589 0.570128
900 4 0.395751 0.183526 0.535923
872 4 0.398392 0.202502 0.538199
873 4 0.383169 0.24158 0.565436
871 2 0.39078 0.222041 0.551817
813 4 0.363785 0.248901 0.562909
877 2 0.111234 0.255186 0.509454
1272 4 0.116186 0.250926 0.548272
804 4 0.29441 0.326866 0.516895
929 4 0.31225 0.329651 0.525793
1204 2 0.382889 0.31257 0.568258
1206 4 0.360365 0.320047 0.560388
930 4 0.359575 0.328558 0.541913
1205 4 0.405413 0.305093 0.576128
928 2 0.335912 0.329104 0.533853
983 4 0.0560232 0.396112 0.550934
982 2 0.0358835 0.408829 0.558538
1041 4 0.0670254 0.382976 0.558793
1039 2 0.0845475 0.386685 0.57624
897 4 0.186104 0.397041 0.544094
895 2 0.194318 0.398562 0.520527
1137 4 0.190454 0.413499 0.555011
1135 2 0.180715 0.408809 0.577557
802 2 0.279663 0.344777 0.507572
803 4 0.264917 0.362688 0.498249
239 4 0.388609 0.385551 0.504808
1001 4 0.448685 0.390166 0.534234
926 4 0.455886 0.372619 0.530871
925 2 0.476807 0.367288 0.51826
1000 2 0.445446 0.396652 0.558164
1002 4 0.442208 0.403138 0.582093
927 4 0.497729 0.361957 0.505649
984 4 0.0157438 0.421547 0.566143
1936 2 0.0231295 0.468535 0.554499
1937 4 0.0312502 0.47164 0.531055
539 4 0.0496495 0.472031 0.522541
538 2 0.0481098 0.461282 0.500019
1938 4 0.0150089 0.465431 0.577942
2242 2 0.14796 0.49679 0.568276
1161 4 0.177464 0.476876 0.583708
882 4 0.267752 0.463268 0.56965
880 2 0.274568 0.478281 0.550853
881 4 0.281383 0.493293 0.532055
1445 4 0.283962 0.48734 0.513292
587 4 0.331366 0.496536 0.503893
1185 4 0.0170071 0.0415883 0.646654
945 4 0.0344924 0.0495272 0.653103
1057 2 0.0984752 0.0424222 0.65228
1155 4 0.11262 0.0664973 0.617454
1059 4 0.10299 0.0589391 0.634059
1153 2 0.104124 0.0739448 0.595149
825 4 0.0994961 0.00937411 0.661977
1181 4 0.235504 0.0475115 0.591302
1142 4 0.370045 0.0571872 0.661128
1141 2 0.374342 0.0813844 0.656523
2282 4 0.486058 0.0272558 0.61205
2281 2 0.47592 0.00906404 0.598213
41 1 0.498082 0.0599757 0.623263
44 3 0.476172 0.0606316 0.630876
1081 2 0.0460308 0.155548 0.585811
1221 4 0.159723 0.0961604 0.644061
1219 2 0.174428 0.114954 0.636595
1220 4 0.189133 0.133748 0.629129
1212 4 0.203688 0.139768 0.641573
1210 2 0.225077 0.133834 0.653084
1005 4 0.309154 0.103514 0.597978
1003 2 0.300481 0.103583 0.621429
1004 4 0.291809 0.103651 0.64488
887 4 0.299085 0.116924 0.657421
856 2 0.351282 0.153228 0.595461
1024 2 0.396533 0.144447 0.658905
1143 4 0.378639 0.105582 0.651918
1025 4 0.39381 0.119789 0.655782
810 4 0.496148 0.0940833 0.600438
3045 4 0.998596 0.202289 0.62941
1083 4 0.0311742 0.170183 0.599605
1199 4 0.0137834 0.171011 0.608025
1271 4 0.128937 0.230253 0.591984
909 4 0.148811 0.229101 0.58738
907 2 0.16257 0.238122 0.606208
908 4 0.17633 0.247143 0.625036
796 2 0.329603 0.20115 0.607798
797 4 0.320498 0.177895 0.609003
858 4 0.336363 0.166949 0.610101
798 4 0.338709 0.224406 0.606594
1026 4 0.399256 0.169104 0.662028
811 2 0.351691 0.246505 0.584662
812 4 0.339597 0.24411 0.606414
3357 4 0.485873 0.203398 0.6624
906 4 0.472432 0.221724 0.630335
904 2 0.467728 0.237754 0.611732
3122 4 0.475192 0.220541 0.666479
947 4 0.178412 0.263506 0.636573
946 2 0.198506 0.274812 0.646246
948 4 0.218601 0.286118 0.655919
1065 4 0.23441 0.294853 0.646475
1063 2 0.254298 0.295811 0.661599
1239 4 0.278526 0.268248 0.587074
1237 2 0.296979 0.284999 0.589084
1238 4 0.315433 0.301751 0.591095
792 4 0.320717 0.306474 0.609634
954 4 0.414466 0.300867 0.59245
790 2 0.344392 0.303133 0.616949
791 4 0.368067 0.299792 0.624265
905 4 0.463024 0.253784 0.593128
953 4 0.448786 0.265686 0.601677
952 2 0.431626 0.283277 0.597063
3262 2 0.00184376 0.409748 0.606523
894 4 0.0921696 0.342718 0.661826
991 2 0.127882 0.403799 0.610712
992 4 0.152485 0.407978 0.609159
892 2 0.115497 0.349896 0.656396
1040 4 0.10207 0.390394 0.593687
993 4 0.103279 0.399619 0.612264
893 4 0.138824 0.357075 0.650965
1136 4 0.170976 0.404119 0.600103
1027 2 0.236636 0.384557 0.657575
1028 4 0.22851 0.363856 0.669005
1029 4 0.244762 0.405258 0.646146
1910 4 0.42834 0.411952 0.594636
3263 4 0.0106076 0.416519 0.584106
936 4 0.0131912 0.47929 0.592973
2022 4 0.0378871 0.471322 0.646915
2243 4 0.157838 0.478592 0.582291
1160 4 0.2159 0.444961 0.585904
1159 2 0.196682 0.460919 0.584806
1139 4 0.24836 0.419138 0.659952
1173 4 0.226378 0.4489 0.604711
1171 2 0.249369 0.451718 0.595294
1172 4 0.272359 0.454536 0.585877
891 4 0.35722 0.49328 0.631818
889 2 0.377168 0.494847 0.64681
1269 4 0.402197 0.476615 0.661159
1951 2 0.359973 0.490469 0.593626
1952 4 0.358244 0.48096 0.616686
890 4 0.397117 0.496413 0.661803
1909 2 0.429023 0.419866 0.618344
1911 4 0.429707 0.42778 0.642052
1267 2 0.417635 0.457007 0.659619
1268 4 0.433073 0.437399 0.658078
943 2 0.0398211 0.0641845 0.672646
944 4 0.0451499 0.0788418 0.692189
1075 2 0.0662765 0.0810434 0.730715
1076 4 0.049421 0.081585 0.712255
1077 4 0.083132 0.0805017 0.749175
1058 4 0.0939608 0.0259052 0.6705
1203 4 0.10136 0.0719648 0.745165
830 4 0.312067 0.0640203 0.740381
829 2 0.316782 0.0767333 0.719373
3387 4 0.0131687 0.12326 0.717957
32 3 0.109857 0.153099 0.722741
31 1 0.101828 0.156925 0.743956
1211 4 0.246466 0.1279 0.664594
886 2 0.278488 0.125495 0.668712
831 4 0.321497 0.0894463 0.698365
888 4 0.257891 0.134066 0.680003
1208 4 0.0751164 0.246887 0.704413
821 4 0.0841494 0.246488 0.723452
822 4 0.130577 0.23162 0.734593
1278 4 0.132695 0.211183 0.732384
820 2 0.107363 0.239054 0.729022
1276 2 0.15355 0.205439 0.744924
35 3 0.0870558 0.174248 0.743374
977 4 0.319558 0.207963 0.738662
916 2 0.314978 0.237113 0.705945
918 4 0.319053 0.219288 0.722999
3121 2 0.467541 0.244065 0.670121
1207 2 0.0548147 0.256013 0.715804
1243 2 0.00879805 0.295932 0.718498
3188 4 0.0280032 0.25038 0.739264
1209 4 0.0345131 0.265139 0.727194
1244 4 0.00806987 0.318796 0.728591
1245 4 0.00952624 0.273068 0.708405
1241 4 0.239913 0.30592 0.719158
1240 2 0.245928 0.296475 0.741514
1064 4 0.274186 0.296769 0.676723
1098 4 0.290773 0.308231 0.673986
917 4 0.310903 0.254938 0.688891
1097 4 0.322572 0.271871 0.686926
1096 2 0.306673 0.290051 0.680456
3123 4 0.459891 0.267589 0.673762
1262 4 0.458026 0.256406 0.749815
1194 4 0.452153 0.275034 0.744062
1281 4 0.0738903 0.346867 0.668393
1279 2 0.0580711 0.351434 0.68721
3275 4 0.0456579 0.37086 0.716816
1280 4 0.0422519 0.356002 0.706026
3274 2 0.0586505 0.383505 0.734034
940 2 0.161893 0.395273 0.726649
942 4 0.149146 0.413253 0.738456
1068 4 0.214841 0.354912 0.67911
1067 4 0.187768 0.36324 0.720322
1066 2 0.201304 0.359076 0.699716
941 4 0.17464 0.377292 0.714843
1229 4 0.334051 0.391345 0.693566
1228 2 0.339618 0.405242 0.713593
2021 4 0.0370073 0.463602 0.696314
1981 2 0.0275621 0.492199 0.730279
2020 2 0.0374472 0.467462 0.671614
1983 4 0.0365603 0.47722 0.712394
1080 4 0.154337 0.432113 0.742809
1138 2 0.263835 0.430623 0.675884
1140 4 0.27931 0.442107 0.691815
1989 4 0.291937 0.442027 0.707139
1987 2 0.290726 0.454648 0.728689
1230 4 0.345186 0.419138 0.73362
1250 4 0.4567 0.495302 0.746702
1100 4 0.445984 0.488248 0.731679
862 2 0.0764023 0.0704256 0.810454
1283 4 0.143799 0.0603589 0.753522
1282 2 0.159103 0.0791543 0.759663
2047 2 0.155471 0.0181043 0.757467
864 4 0.0875997 0.0499995 0.819541
1201 2 0.108983 0.0542181 0.761044
2049 4 0.152609 0.0428323 0.759815
1202 4 0.116605 0.0364715 0.776922
1147 2 0.200133 0.0593203 0.833377
1149 4 0.214358 0.0633602 0.813215
1049 4 0.233139 0.0627473 0.816608
1048 2 0.254575 0.0608211 0.829336
818 4 0.346613 0.073051 0.790301
965 4 0.364526 0.0788549 0.799615
846 4 0.487805 0.0104879 0.773223
1106 4 0.0714797 0.162237 0.750645
863 4 0.0652048 0.0908518 0.801367
832 2 0.0695312 0.126914 0.776109
833 4 0.0639255 0.107993 0.791464
834 4 0.0751368 0.145835 0.760755
33 3 0.0912233 0.137729 0.751538
34 3 0.119631 0.162166 0.757883
1073 4 0.118835 0.156262 0.777544
1072 2 0.110824 0.160256 0.80089
1074 4 0.102813 0.164249 0.824237
1284 4 0.174406 0.0979497 0.765803
1227 4 0.180164 0.115133 0.75537
1130 4 0.174914 0.130711 0.767893
1225 2 0.203903 0.108301 0.759238
1226 4 0.227642 0.101468 0.763107
840 4 0.239854 0.103951 0.780093
1129 2 0.174375 0.155607 0.765641
838 2 0.249147 0.126513 0.785547
817 2 0.331981 0.0900671 0.801325
839 4 0.25844 0.149076 0.791001
959 4 0.263548 0.15888 0.807168
819 4 0.317349 0.107083 0.812349
1085 4 0.306023 0.124364 0.810243
1084 2 0.318852 0.145392 0.814531
964 2 0.385755 0.0844407 0.811586
966 4 0.406985 0.0900264 0.823556
1038 4 0.404618 0.108904 0.824084
1299 4 0.345419 0.161672 0.805385
3270 4 0.489815 0.158776 0.781519
1146 4 0.481759 0.155595 0.764069
3268 2 0.497231 0.145269 0.801209
1107 4 0.0271591 0.185255 0.753214
1105 2 0.0493194 0.173746 0.751929
779 4 0.0699282 0.223536 0.830749