ITEM: TIMESTEP
1600000
ITEM: NUMBER OF ATOMS
4590
ITEM: BOX BOUNDS pp pp pp
-9.9985700000000008e+00 9.9985700000000008e+00
-9.9985700000000008e+00 9.9985700000000008e+00
-9.9985700000000008e+00 9.9985700000000008e+00
ITEM: ATOMS id type xs ys zs
463 2 0.0612292 0.0705985 0.0109646
464 4 0.0640796 0.0457606 0.0113293
1666 2 0.0806266 0.0185872 0.0756672
1668 4 0.0904856 0.0314534 0.0566293
3290 4 0.078962 0.0341933 0.00514312
1476 4 0.221118 0.998022 0.0598211
1474 2 0.238215 0.0158239 0.0558249
565 2 0.175233 0.0737958 0.0581849
566 4 0.161494 0.0531842 0.054783
490 2 0.283656 0.031369 0.0187631
492 4 0.27094 0.0287469 0.0401314
1475 4 0.255313 0.0336254 0.0518288
986 4 0.312999 0.0409343 0.989607
491 4 0.296372 0.0339912 0.997395
985 2 0.336121 0.0319392 0.992713
745 2 0.460035 0.0745126 0.0145244
747 4 0.442262 0.0834941 0.0296446
2724 4 0.466735 0.0405774 0.0608466
1826 4 0.478468 0.0232736 0.0602571
1825 2 0.495318 0.00541689 0.055525
2722 2 0.467405 0.0522378 0.0829546
746 4 0.477809 0.0655311 0.999404
591 4 0.0245296 0.0792993 0.0653185
465 4 0.0583788 0.0954364 0.0105999
701 4 0.0430083 0.104263 0.0237781
700 2 0.037483 0.127781 0.0302241
702 4 0.0319576 0.151299 0.03667
2760 4 0.0116638 0.150953 0.0328802
555 4 0.0299586 0.173369 0.0384369
567 4 0.188972 0.0944075 0.0615867
1133 4 0.212608 0.138436 0.00224832
360 4 0.215876 0.15142 0.0169433
358 2 0.22768 0.147553 0.0386431
359 4 0.239485 0.143685 0.0603429
828 4 0.424429 0.155009 0.00427276
553 2 0.0250726 0.193655 0.0246596
422 4 0.083094 0.188681 0.0378789
554 4 0.0201866 0.21394 0.0108822
423 4 0.115604 0.185308 3.12491e-05
421 2 0.0993488 0.186994 0.0189551
506 4 0.190577 0.255657 0.0323373
737 4 0.19387 0.239642 0.043505
736 2 0.211418 0.221935 0.0454309
354 4 0.227624 0.19565 0.0648256
738 4 0.228966 0.204229 0.0473568
352 2 0.251239 0.191746 0.0720561
353 4 0.274854 0.187842 0.0792866
1071 4 0.379799 0.251746 0.0155661
1170 4 0.0823195 0.341451 0.010592
1056 4 0.0761215 0.324397 0.00183395
507 4 0.167079 0.297463 0.0181668
293 4 0.175424 0.309781 0.0314793
292 2 0.172851 0.326621 0.0497816
505 2 0.178828 0.27656 0.0252521
481 2 0.302876 0.292018 0.0142842
482 4 0.301908 0.29251 0.0392642
756 4 0.324847 0.288923 0.0621142
754 2 0.315308 0.269129 0.0740463
323 4 0.412995 0.274922 0.0385455
573 4 0.395012 0.269491 0.0432099
571 2 0.385599 0.282382 0.0624562
322 2 0.435264 0.265486 0.0322035
324 4 0.457534 0.25605 0.0258614
1168 2 0.0641802 0.358216 0.00670751
329 4 0.0310469 0.387012 0.00164006
1169 4 0.0460408 0.374981 0.00282299
456 4 0.161854 0.36114 0.0624245
454 2 0.161829 0.386039 0.0601433
455 4 0.161804 0.410938 0.0578622
294 4 0.170278 0.343461 0.068084
607 2 0.233882 0.359235 0.0761772
608 4 0.243608 0.365652 0.0540548
252 4 0.261829 0.373409 0.0584312
250 2 0.281749 0.38814 0.0550596
251 4 0.301669 0.402872 0.0516881
524 4 0.320323 0.409112 0.0584428
226 2 0.391213 0.38435 0.031453
228 4 0.384314 0.391872 0.0542783
671 4 0.407001 0.369794 0.0627916
227 4 0.398112 0.376827 0.0086277
1305 4 0.414357 0.364731 0.00747576
281 4 0.425059 0.363851 0.0571955
280 2 0.449087 0.357245 0.0592487
282 4 0.473114 0.350638 0.0613019
104 3 0.487854 0.35347 0.0753062
1045 2 0.49152 0.367103 0.0109443
552 4 0.0168469 0.432382 0.0340475
314 4 0.0302948 0.43348 0.0486533
313 2 0.0366836 0.425176 0.0713558
550 2 0.00567977 0.454636 0.0317566
795 4 0.155161 0.48395 0.00374209
1440 4 0.243231 0.493271 0.0808919
246 4 0.233321 0.493601 0.0175054
244 2 0.23091 0.477268 0.998728
272 4 0.270541 0.488176 0.0558281
1559 4 0.318781 0.489093 0.0654944
523 2 0.333574 0.418776 0.0773163
37 3 0.327063 0.465343 0.00159255
40 3 0.358034 0.44452 0.00192813
589 2 0.0235792 0.0825087 0.0900971
1667 4 0.0707677 0.00572101 0.094705
19 3 0.0403716 0.0197176 0.137243
1422 4 0.027617 0.0149463 0.154328
16 1 0.0625622 0.0196814 0.130462
17 3 0.0633135 0.0192095 0.107476
2480 4 0.0271935 0.0359028 0.144152
18 3 0.0731553 0.0389317 0.13792
590 4 0.0226287 0.0857181 0.114876
653 4 0.234819 0.0528134 0.161336
652 2 0.251687 0.0567991 0.143315
654 4 0.268554 0.0607847 0.125293
486 4 0.330714 0.993529 0.132121
484 2 0.339305 0.0147444 0.122059
297 4 0.363003 0.0352208 0.0980113
485 4 0.347897 0.0359603 0.111996
295 2 0.382756 0.0498527 0.102582
296 4 0.40251 0.0644845 0.107153
758 4 0.394732 0.0763662 0.156958
2723 4 0.468075 0.0638982 0.105063
1760 4 0.462459 0.0216731 0.156035
237 4 0.143443 0.157509 0.148348
557 4 0.404205 0.0841269 0.100257
556 2 0.421022 0.102626 0.100596
771 4 0.42792 0.139165 0.102753
558 4 0.43784 0.121126 0.100936
769 2 0.449146 0.152359 0.103521
477 4 0.153539 0.209523 0.121736
475 2 0.15995 0.223157 0.141692
461 4 0.291908 0.181076 0.0857798
460 2 0.313577 0.185569 0.0974175
278 4 0.307142 0.24696 0.106084
462 4 0.335246 0.190062 0.109055
255 4 0.346784 0.243082 0.0939152
254 4 0.389875 0.225309 0.0758041
630 4 0.397856 0.211542 0.0874607
253 2 0.368329 0.234196 0.0848597
628 2 0.420984 0.215312 0.0961826
770 4 0.470371 0.165552 0.104289
624 4 0.457166 0.226255 0.117779
629 4 0.444112 0.219082 0.104905
622 2 0.461682 0.239918 0.138227
338 4 0.0693089 0.24505 0.139409
337 2 0.0861232 0.263208 0.142979
339 4 0.102938 0.281366 0.146548
537 4 0.106102 0.340452 0.157152
611 4 0.233577 0.306315 0.149306
610 2 0.229635 0.321493 0.129831
612 4 0.225693 0.336671 0.110356
755 4 0.305768 0.249335 0.0859783
277 2 0.303025 0.247429 0.130742
279 4 0.298909 0.247899 0.1554
285 4 0.288237 0.257637 0.168085
572 4 0.376187 0.295272 0.0817025
741 4 0.381812 0.309293 0.0939897
739 2 0.360666 0.320275 0.101564
623 4 0.466198 0.25358 0.158675
595 2 0.42612 0.31985 0.158228
527 4 0.460227 0.259766 0.176808
619 2 0.0578479 0.40202 0.117582
620 4 0.0783451 0.404396 0.131703
647 4 0.085494 0.403745 0.149694
621 4 0.0373507 0.399644 0.103462
315 4 0.0430723 0.416871 0.0940583
646 2 0.0898357 0.393457 0.172066
535 2 0.118961 0.351172 0.13858
536 4 0.131819 0.361893 0.120008
609 4 0.224156 0.352818 0.0982995
302 4 0.331938 0.397351 0.142645
387 4 0.320877 0.393451 0.126976
385 2 0.329871 0.372298 0.117136
740 4 0.339519 0.331258 0.109139
670 2 0.401453 0.370204 0.0871684
386 4 0.338865 0.351145 0.107296
12 3 0.391043 0.356137 0.12461
11 1 0.391258 0.369608 0.143256
15 3 0.370559 0.369604 0.152752
672 4 0.395905 0.370614 0.111545
14 3 0.397038 0.391155 0.136876
495 4 0.405582 0.406484 0.124423
13 3 0.406872 0.361344 0.1583
597 4 0.417862 0.343202 0.161638
1438 2 0.2455 0.471046 0.0921211
626 4 0.160729 0.42093 0.132929
625 2 0.175702 0.435838 0.146298
627 4 0.190676 0.450746 0.159667
638 4 0.209997 0.455215 0.161385
637 2 0.223529 0.474369 0.152715
639 4 0.23706 0.493523 0.144044
1439 4 0.247768 0.448821 0.10335
301 2 0.332128 0.41858 0.155854
303 4 0.332319 0.439809 0.169062
525 4 0.346824 0.42844 0.0961898
493 2 0.422005 0.42405 0.117571
494 4 0.438427 0.441615 0.11072
1583 4 0.475641 0.504805 0.126067
450 4 0.143823 0.0647479 0.208399
448 2 0.141886 0.0868101 0.196794
693 4 0.236708 0.0460377 0.180291
691 2 0.248718 0.0346526 0.199035
692 4 0.260728 0.0232676 0.217778
1700 4 0.311463 0.0562835 0.239365
1699 2 0.295259 0.0391251 0.231106
1701 4 0.279056 0.0219667 0.222847
23 3 0.330055 0.0649544 0.238378
21 1 0.35299 0.0621202 0.236291
25 3 0.358901 0.062529 0.214301
22 3 0.358822 0.0417864 0.245328
24 3 0.364126 0.0789137 0.247796
759 4 0.36765 0.0610065 0.196091
757 2 0.381191 0.0686863 0.176524
2744 4 0.47782 0.0274356 0.169452
511 2 0.00109816 0.145578 0.210166
578 4 0.0458056 0.140497 0.211218
513 4 0.0256671 0.140938 0.210288
577 2 0.0572496 0.161916 0.21717
235 2 0.135105 0.137053 0.160062
449 4 0.139948 0.108872 0.185189
236 4 0.126766 0.116598 0.171777
722 4 0.199572 0.107763 0.23745
28 3 0.25263 0.151049 0.181332
580 2 0.311016 0.109686 0.1797
581 4 0.286051 0.108306 0.179532
30 3 0.272198 0.119848 0.189158
26 1 0.268206 0.141345 0.195531
29 3 0.287956 0.153519 0.19513
27 3 0.25983 0.141465 0.216955
582 4 0.335981 0.111065 0.179868
310 2 0.44309 0.163471 0.190081
311 4 0.446491 0.138752 0.188483
529 2 0.0162926 0.193224 0.235209
530 4 0.0402843 0.190484 0.228723
579 4 0.0686935 0.183335 0.223122
372 4 0.175276 0.240434 0.179282
476 4 0.16636 0.23679 0.161647
370 2 0.183057 0.250614 0.200753
284 4 0.27828 0.241196 0.21425
283 2 0.283259 0.249416 0.191167
312 4 0.439688 0.188191 0.191678
520 2 0.487001 0.191636 0.247942
521 4 0.462188 0.193871 0.250061
396 4 0.0609911 0.298596 0.215369
443 4 0.05834 0.287211 0.231779
394 2 0.0772197 0.29028 0.198261
362 4 0.148394 0.282708 0.192166
395 4 0.0934484 0.281965 0.181154
363 4 0.105836 0.278043 0.166327
361 2 0.127115 0.280376 0.179246
371 4 0.190838 0.260795 0.222224
345 4 0.266631 0.325661 0.218537
596 4 0.434379 0.296497 0.154817
526 2 0.453399 0.280552 0.188912
528 4 0.446572 0.301338 0.201017
264 4 0.0390371 0.400421 0.21531
648 4 0.0941774 0.38317 0.194437
300 4 0.114081 0.380465 0.189435
298 2 0.121583 0.375372 0.212736
299 4 0.129085 0.370278 0.236037
343 2 0.280295 0.337379 0.235891
645 4 0.420399 0.361887 0.175224
643 2 0.420836 0.370089 0.19884
644 4 0.421274 0.378292 0.222456
447 4 0.432423 0.391568 0.231952
445 2 0.425657 0.414664 0.238732
263 4 0.0253738 0.43888 0.244205
262 2 0.0322054 0.419651 0.229757
1430 4 0.15083 0.481609 0.177609
417 4 0.168654 0.472324 0.179839
290 4 0.212888 0.436226 0.221139
416 4 0.200663 0.445847 0.207679
415 2 0.184658 0.459086 0.193759
289 2 0.221202 0.427488 0.243041
768 4 0.201026 0.496637 0.21955
659 4 0.32986 0.458773 0.173021
658 2 0.34109 0.475564 0.187756
712 2 0.38497 0.452389 0.244486
713 4 0.360323 0.449534 0.241394
660 4 0.352319 0.492356 0.202491
446 4 0.418892 0.43776 0.245511
232 2 0.0552591 0.0297088 0.30793
234 4 0.0501099 0.0533064 0.301464
317 4 0.0336597 0.0589764 0.290693
233 4 0.0604082 0.00611124 0.314397
675 4 0.129954 0.0114059 0.277992
673 2 0.12462 0.00431602 0.254616
723 4 0.226967 0.0667819 0.245862
721 2 0.21327 0.0872726 0.241656
1518 4 0.366596 0.00584227 0.299088
697 2 0.37923 0.028862 0.271085
699 4 0.381878 0.0091573 0.286248
698 4 0.376582 0.0485668 0.255923
333 4 0.379038 0.0684854 0.255216
331 2 0.400786 0.0782116 0.262805
743 4 0.454965 0.0281397 0.273973
742 2 0.450629 0.0035221 0.273375
351 4 0.470319 0.0393911 0.280719
349 2 0.45457 0.0586504 0.278225
316 2 0.0395162 0.0829289 0.28655
318 4 0.0453727 0.106881 0.282407
393 4 0.123288 0.135472 0.304558
399 4 0.121637 0.127732 0.32378
391 2 0.145189 0.145566 0.297954
392 4 0.167091 0.15566 0.291351
546 4 0.200587 0.112112 0.257575
545 4 0.178998 0.153718 0.274998
544 2 0.189792 0.132915 0.266287
599 4 0.207512 0.129131 0.30914
404 4 0.22303 0.136953 0.322434
598 2 0.191698 0.120877 0.32666
403 2 0.229918 0.160941 0.323962
332 4 0.422534 0.0879378 0.270394
350 4 0.438821 0.0779096 0.275732
762 4 0.446923 0.137665 0.314787
760 2 0.443253 0.146052 0.291519
761 4 0.439582 0.154438 0.268252
401 4 0.226877 0.192088 0.308418
400 2 0.226938 0.207775 0.288948
402 4 0.226999 0.223463 0.269479
405 4 0.236806 0.184928 0.325489
765 4 0.40513 0.18166 0.267889
763 2 0.425245 0.193286 0.258649
764 4 0.44536 0.204913 0.249409
442 2 0.0621215 0.288375 0.256467
444 4 0.0659029 0.289539 0.281156
750 4 0.0991691 0.330319 0.257946
734 4 0.116283 0.335947 0.267694
496 2 0.334966 0.325501 0.334802
541 2 0.456847 0.281052 0.323999
542 4 0.457492 0.265363 0.304541
543 4 0.456202 0.296741 0.343457
615 4 0.449738 0.31532 0.346274
2493 4 0.00952471 0.358343 0.31761
749 4 0.0661501 0.356061 0.285292
365 4 0.0180867 0.373604 0.308731
364 2 0.0330411 0.361709 0.292605
366 4 0.0479955 0.349814 0.276478
603 4 0.0727764 0.384721 0.335834
748 2 0.0826596 0.34319 0.271619
733 2 0.1382 0.343106 0.277365
601 2 0.092246 0.396381 0.325339
677 4 0.152524 0.349419 0.305704
735 4 0.160118 0.350266 0.287037
676 2 0.168896 0.360202 0.321223
344 4 0.293959 0.349098 0.253244
309 4 0.308629 0.337735 0.260138
307 2 0.32019 0.341652 0.281959
729 4 0.338638 0.363329 0.320772
727 2 0.329217 0.386475 0.321587
308 4 0.331752 0.345569 0.30378
497 4 0.328941 0.347062 0.323666
614 4 0.423018 0.353792 0.328762
613 2 0.436378 0.334556 0.337518
602 4 0.111716 0.408041 0.314843
777 4 0.12235 0.424481 0.31633
1757 4 0.107284 0.473196 0.284824
1756 2 0.100103 0.497146 0.284773
776 4 0.122501 0.470131 0.295916
775 2 0.122426 0.447306 0.306123
291 4 0.229516 0.41875 0.264943
1545 4 0.211625 0.487251 0.321512
414 4 0.232931 0.423253 0.284227
413 4 0.194303 0.43714 0.312788
412 2 0.213617 0.430196 0.298507
1436 4 0.229394 0.490289 0.330324
728 4 0.319795 0.409621 0.322402
1435 2 0.249273 0.476383 0.324274
438 4 0.317773 0.492987 0.277291
437 4 0.279664 0.468511 0.298488
436 2 0.298718 0.480749 0.28789
1437 4 0.269153 0.462477 0.318223
5 3 0.291271 0.458184 0.314183
3 3 0.278458 0.427781 0.332325
434 4 0.335713 0.426471 0.322739
714 4 0.409617 0.455245 0.247578
2861 4 0.496834 0.456861 0.251693
2860 2 0.498713 0.444564 0.273383
428 4 0.0894459 0.0347202 0.356582
427 2 0.0873226 0.0123443 0.367536
606 4 0.146066 0.0608024 0.401521
731 4 0.0952201 0.0593448 0.411863
730 2 0.0964335 0.07258 0.390685
604 2 0.145525 0.0364146 0.396032
605 4 0.144983 0.0120269 0.390544
368 4 0.100982 0.0403692 0.412873
682 2 0.237078 0.0588424 0.371953
683 4 0.229189 0.0747435 0.389563
684 4 0.244966 0.0429413 0.354343
249 4 0.295629 0.0762305 0.370139
247 2 0.31824 0.0814025 0.360801
2879 4 0.488059 0.0783717 0.388541
480 4 0.481738 0.0156405 0.342485
424 2 0.423896 0.044628 0.387421
426 4 0.420927 0.0646664 0.372764
425 4 0.426865 0.0245897 0.402078
2586 4 0.994376 0.124712 0.417347
732 4 0.0976468 0.0858153 0.369506
397 2 0.110052 0.110574 0.3378
398 4 0.0984668 0.0934163 0.351821
687 4 0.16618 0.126744 0.353608
600 4 0.175884 0.112623 0.344181
685 2 0.165756 0.135041 0.377191
686 4 0.165332 0.143337 0.400774
321 4 0.267475 0.114547 0.374532
319 2 0.270559 0.100663 0.395097
248 4 0.34085 0.0865744 0.351464
633 4 0.339567 0.100505 0.365891
632 4 0.37937 0.129705 0.373876
631 2 0.359469 0.115105 0.369883
420 4 0.374457 0.14892 0.372652
258 4 0.433618 0.0786303 0.377223
257 4 0.471126 0.0966119 0.349464
256 2 0.452372 0.0876211 0.363343
515 4 0.484654 0.154755 0.400447
2654 4 0.0183469 0.211294 0.367391
618 4 0.0171248 0.230273 0.373704
616 2 0.0245985 0.247312 0.390407
274 2 0.150226 0.224173 0.358139
276 4 0.133067 0.240728 0.350609
275 4 0.167385 0.207618 0.365668
474 4 0.182189 0.209258 0.350462
472 2 0.200851 0.198722 0.363341
473 4 0.219514 0.188186 0.376221
708 4 0.23455 0.1806 0.385692
651 4 0.243683 0.248437 0.426974
706 2 0.252368 0.197209 0.38005
707 4 0.270186 0.213818 0.374408
377 4 0.316614 0.246151 0.369651
489 4 0.261042 0.252439 0.435084
418 2 0.381653 0.172844 0.371639
717 4 0.329143 0.231357 0.365333
419 4 0.38885 0.196769 0.370626
716 4 0.3725 0.207029 0.370716
715 2 0.350822 0.219193 0.368024
269 4 0.447355 0.249411 0.377521
390 4 0.0810246 0.285484 0.353835
617 4 0.0320722 0.26435 0.40711
389 4 0.115791 0.249572 0.352283
388 2 0.0984076 0.267528 0.353059
510 4 0.248169 0.329411 0.37154
508 2 0.261554 0.309778 0.379322
509 4 0.274939 0.290145 0.387105
498 4 0.34099 0.30394 0.345938
376 2 0.322773 0.267423 0.358043
488 4 0.284404 0.277794 0.398862
487 2 0.272723 0.265117 0.416973
378 4 0.328931 0.288695 0.346435
267 4 0.375366 0.281129 0.352939
265 2 0.374502 0.271928 0.376172
266 4 0.373637 0.262727 0.399405
268 2 0.468929 0.254846 0.388933
549 4 0.0544841 0.378167 0.3394
547 2 0.0483553 0.393263 0.358366
548 4 0.0422264 0.408359 0.377333
678 4 0.185269 0.370984 0.336742
502 2 0.200551 0.398081 0.359881
504 4 0.200613 0.384249 0.339052
373 2 0.229055 0.351031 0.347142
375 4 0.213337 0.369921 0.342531
503 4 0.200489 0.411913 0.38071
374 4 0.244774 0.332141 0.351753
2925 4 0.493487 0.353073 0.384611
2923 2 0.499631 0.366977 0.364759
561 4 0.493357 0.420564 0.40914
408 4 0.0766152 0.465806 0.396538
407 4 0.0512015 0.423333 0.389407
406 2 0.0639083 0.44457 0.392973
636 4 0.187523 0.426189 0.387147
634 2 0.195318 0.438894 0.407222
2 3 0.315001 0.431183 0.324218
1 1 0.296057 0.44276 0.330239
668 4 0.301525 0.440356 0.365006
4 3 0.299876 0.453367 0.35052
667 2 0.322068 0.434719 0.378098
669 4 0.342611 0.429083 0.39119
433 2 0.356438 0.440092 0.325922
435 4 0.377163 0.453712 0.329105
336 4 0.343815 0.420978 0.408913
752 4 0.476478 0.423064 0.399753
119 3 0.492833 0.422194 0.340416
753 4 0.482018 0.436148 0.351807
593 4 0.450274 0.501099 0.364615
751 2 0.479248 0.429606 0.37578
718 2 0.0580921 0.0313857 0.486461
719 4 0.0732555 0.0218322 0.469026
369 4 0.0890125 0.0202593 0.457066
720 4 0.0429286 0.0409393 0.503896
367 2 0.0949972 0.0303143 0.43497
2430 4 0.211155 0.0752961 0.449216
2428 2 0.226565 0.0572187 0.441409
341 4 0.218851 0.0898134 0.459807
2429 4 0.241974 0.0391414 0.433603
441 4 0.245866 0.0192847 0.434195
439 2 0.249258 0.997464 0.422467
726 4 0.30173 0.0758765 0.464922
1181 4 0.28228 0.0574574 0.516898
432 4 0.309061 0.0744539 0.483611
2878 2 0.479749 0.070101 0.410625
2880 4 0.471439 0.0618304 0.432709
642 4 0.467416 0.0714064 0.449781
340 2 0.206453 0.0969149 0.480327
342 4 0.194055 0.104016 0.500846
409 2 0.245833 0.1661 0.426118
410 4 0.264721 0.150149 0.422376
1152 4 0.205033 0.121017 0.499967
320 4 0.273643 0.0867794 0.415661
724 2 0.290236 0.071889 0.443078
725 4 0.278742 0.0679015 0.421234
467 4 0.360953 0.104516 0.411587
466 2 0.371717 0.123663 0.423534
468 4 0.382481 0.142809 0.435481
641 4 0.461748 0.115792 0.472108
640 2 0.464582 0.0935992 0.460944
3158 4 0.475577 0.130476 0.467953
3157 2 0.492546 0.139684 0.452064
516 4 0.442368 0.164346 0.42536
514 2 0.463511 0.15955 0.412903
575 4 0.441358 0.165558 0.444697
576 4 0.409685 0.143626 0.47658
574 2 0.425522 0.154592 0.460639
469 2 0.0661231 0.235211 0.456411
470 4 0.0530404 0.254474 0.447303
471 4 0.0792059 0.215948 0.46552
260 4 0.0807704 0.211836 0.484486
259 2 0.102507 0.208337 0.496338
650 4 0.234117 0.200148 0.435769
649 2 0.2389 0.224292 0.431372
411 4 0.226945 0.18205 0.429859
583 2 0.396703 0.253787 0.435608
584 4 0.408381 0.253077 0.457705
348 4 0.0035154 0.32632 0.454651
2814 4 0.0137329 0.328118 0.472763
2812 2 0.0112444 0.315213 0.494034
695 4 0.101339 0.291251 0.453003
694 2 0.116928 0.278634 0.467936
696 4 0.132517 0.266018 0.482869
1260 4 0.151332 0.266054 0.488363
1258 2 0.169937 0.281374 0.495022
585 4 0.385024 0.254497 0.41351
2456 4 0.425886 0.256251 0.447244
2457 4 0.462801 0.284152 0.466205
2455 2 0.444344 0.270201 0.456725
326 4 0.0849371 0.423207 0.465472
709 2 0.143292 0.408609 0.431699
10 3 0.153214 0.345255 0.471726
7 3 0.126727 0.371326 0.468313
327 4 0.112914 0.383038 0.475694
325 2 0.0989255 0.403122 0.470583
6 1 0.14927 0.367676 0.471078
8 3 0.160654 0.377205 0.453246
711 4 0.159076 0.390358 0.438252
9 3 0.156073 0.37749 0.490973
239 4 0.385487 0.362166 0.484752
334 2 0.354258 0.400577 0.418907
335 4 0.3647 0.380175 0.428902
238 2 0.377524 0.362624 0.461055
240 4 0.369562 0.363081 0.437358
2712 4 0.496683 0.396192 0.46635
559 2 0.487866 0.413297 0.432426
681 4 0.0127365 0.495035 0.421609
680 4 0.0152151 0.459755 0.456963
679 2 0.0139758 0.477395 0.439286
1383 4 0.0185461 0.439615 0.459045
1381 2 0.0243827 0.436823 0.483197
384 4 0.13091 0.454191 0.491762
710 4 0.127509 0.426861 0.425146
570 4 0.120205 0.441047 0.43551
569 4 0.131057 0.467269 0.476686
568 2 0.125631 0.454158 0.456098
635 4 0.203112 0.451598 0.427298
773 4 0.20616 0.466922 0.487403
772 2 0.198035 0.462156 0.464241
774 4 0.18991 0.457391 0.44108
1401 4 0.332518 0.434478 0.469911
1400 4 0.32392 0.478979 0.448783
588 4 0.334682 0.493938 0.457365
1399 2 0.328219 0.456729 0.459347
560 4 0.482374 0.40603 0.455711
1126 2 0.017946 0.0542456 0.525985
1128 4 0.998771 0.0499661 0.541451
1127 4 0.0371208 0.0585252 0.51052
1059 4 0.103832 0.0643105 0.568595
1155 4 0.117054 0.0802784 0.570879
1057 2 0.0918839 0.0521669 0.586897
951 4 0.192354 0.0527532 0.550832
1031 4 0.209119 0.0570451 0.560968
1030 2 0.225854 0.0419957 0.571861
949 2 0.197486 0.0583401 0.527006
950 4 0.202617 0.063927 0.503181
1032 4 0.242589 0.0269463 0.582753
961 2 0.290394 0.0235947 0.515754
2194 2 0.289322 0.00830795 0.570869
1180 2 0.264439 0.0744934 0.512817
962 4 0.298899 0.00418418 0.529023
2195 4 0.288713 0.0039697 0.546252
430 2 0.319254 0.0714741 0.506247
963 4 0.281888 0.0430053 0.502484
431 4 0.329446 0.0684943 0.528884
841 2 0.371283 0.0540112 0.52505
843 4 0.347209 0.0601114 0.522149
842 4 0.395357 0.047911 0.527951
1217 4 0.413276 0.0391045 0.527706
1218 4 0.44601 0.0739564 0.542353
1216 2 0.429643 0.0565304 0.535029
4465 2 0.439441 0.00907975 0.572487
4467 4 0.439242 0.0330526 0.579589
1035 4 0.0738783 0.153625 0.554867
939 4 0.170176 0.169797 0.528681
1153 2 0.131091 0.0916606 0.588159
1151 4 0.183457 0.155017 0.529618
1150 2 0.194245 0.138017 0.514792
1182 4 0.246598 0.0915294 0.508735
857 4 0.304045 0.141216 0.556305
899 4 0.320991 0.134359 0.551588
856 2 0.285899 0.157297 0.562412
898 2 0.338411 0.151915 0.54791
1033 2 0.0774127 0.159871 0.530916
1082 4 0.0746293 0.191806 0.567353
1081 2 0.0509775 0.18734 0.574123
1034 4 0.080947 0.166116 0.506964
937 2 0.147588 0.180257 0.526326
938 4 0.125 0.190717 0.523972
261 4 0.124243 0.204839 0.50819
858 4 0.267753 0.173378 0.568519
797 4 0.271429 0.192066 0.57311
813 4 0.304691 0.216401 0.542023
811 2 0.288358 0.234665 0.537034
873 4 0.31935 0.224442 0.552569
900 4 0.35583 0.169471 0.544232
871 2 0.336578 0.206767 0.548572
872 4 0.353806 0.189092 0.544576
906 4 0.49863 0.242512 0.542574
878 4 0.0680003 0.263574 0.571873
2813 4 0.00875585 0.302309 0.515305
1259 4 0.188542 0.296693 0.501682
895 2 0.188528 0.341716 0.563815
896 4 0.213474 0.343233 0.563078
1238 4 0.262261 0.327761 0.578138
812 4 0.272026 0.252928 0.532045
1204 2 0.388249 0.318588 0.579049
1206 4 0.374922 0.339715 0.580141
904 2 0.487652 0.260089 0.556564
905 4 0.476675 0.277667 0.570554
952 2 0.44097 0.298863 0.578951
953 4 0.464612 0.290872 0.580498
1137 4 0.146219 0.350049 0.562588
897 4 0.163581 0.340199 0.564552
1135 2 0.12896 0.366217 0.570706
1189 2 0.234555 0.357148 0.534674
1191 4 0.212821 0.355237 0.546887
1190 4 0.256289 0.35906 0.522462
803 4 0.265189 0.375975 0.519202
802 2 0.281954 0.390421 0.530839
804 4 0.298719 0.404868 0.542476
928 2 0.367207 0.378178 0.558714
929 4 0.367154 0.39969 0.545969
930 4 0.367259 0.356666 0.571458
925 2 0.455269 0.410423 0.534945
927 4 0.453633 0.391944 0.51818
1001 4 0.467447 0.419336 0.565699
538 2 0.0438888 0.472466 0.525135
540 4 0.0326739 0.450861 0.51942
539 4 0.0551037 0.49407 0.530849
1382 4 0.0302193 0.434031 0.507349
383 4 0.14089 0.427988 0.533169
382 2 0.1359 0.44109 0.512465
1173 4 0.229187 0.456497 0.550712
1172 4 0.276857 0.467174 0.54002
1171 2 0.253022 0.461836 0.545366
882 4 0.279909 0.461082 0.522266
880 2 0.290371 0.479709 0.509275
891 4 0.336352 0.458775 0.589074
926 4 0.456905 0.428901 0.551709
1185 4 0.0248987 0.0462837 0.639418
945 4 0.043332 0.036904 0.641597
1183 2 0.00120808 0.0488926 0.646976
825 4 0.0870352 0.0224763 0.612182
1058 4 0.0799362 0.0400232 0.605199
823 2 0.0983389 0.0123042 0.632029
2196 4 0.289932 0.0126462 0.595486
1004 4 0.348157 0.0626525 0.660428
1003 2 0.344675 0.0379183 0.659299
1005 4 0.341193 0.0131841 0.658171
2283 4 0.439233 0.035142 0.600125
2282 4 0.441466 0.0493888 0.648008
2281 2 0.440349 0.0422654 0.624067
43 3 0.461583 0.0538376 0.648167
45 3 0.496972 0.0638701 0.640126
41 1 0.48284 0.0573886 0.656767
810 4 0.50193 0.0837351 0.63788
42 3 0.490501 0.0377611 0.665998
1154 4 0.145127 0.103043 0.60544
1221 4 0.143748 0.118302 0.617224
1219 2 0.155582 0.130211 0.635753
1220 4 0.167415 0.14212 0.654282
1212 4 0.234155 0.151762 0.663117
1210 2 0.255046 0.139474 0.656972
1211 4 0.275938 0.127186 0.650828
888 4 0.291774 0.135269 0.659403
3426 4 0.493977 0.150844 0.641495
877 2 0.0707761 0.240788 0.581786
1083 4 0.0273257 0.182875 0.580892
879 4 0.0735519 0.218001 0.591699
1272 4 0.0837396 0.228174 0.605871
1209 4 0.05627 0.240287 0.647999
1199 4 0.00998177 0.178705 0.590288
1270 2 0.102891 0.222387 0.620869
1271 4 0.122042 0.216601 0.635867
909 4 0.135116 0.217529 0.651635
907 2 0.159661 0.221802 0.653752
908 4 0.184205 0.226075 0.65587
947 4 0.18467 0.232454 0.636419
796 2 0.280477 0.209382 0.588713
798 4 0.289525 0.226699 0.604315
1025 4 0.396908 0.199916 0.644229
1024 2 0.407215 0.200639 0.62146
1143 4 0.377101 0.201802 0.647988
1026 4 0.417521 0.201363 0.598691
3123 4 0.452465 0.257939 0.664053
946 2 0.192196 0.250505 0.620839
948 4 0.199721 0.268555 0.60526
791 4 0.291732 0.278507 0.613393
790 2 0.277531 0.294225 0.60011
792 4 0.26333 0.309943 0.586826
1205 4 0.401577 0.29746 0.577958
954 4 0.417328 0.306853 0.577405
3121 2 0.476708 0.262435 0.668205
983 4 0.0242189 0.403162 0.627692
1039 2 0.0618387 0.41082 0.630862
1041 4 0.0420469 0.395558 0.630124
982 2 0.00320183 0.400535 0.614404
1136 4 0.111701 0.382386 0.578823
992 4 0.139041 0.407728 0.652811
1239 4 0.242224 0.369181 0.597723
1237 2 0.252242 0.348471 0.58793
1040 4 0.0816306 0.426081 0.6316
2129 4 0.999365 0.488975 0.635673
2242 2 0.145256 0.49179 0.579011
993 4 0.102434 0.428586 0.625874
991 2 0.120737 0.418157 0.639342
2170 2 0.148631 0.489675 0.649726
2172 4 0.163748 0.476245 0.664433
1160 4 0.216312 0.47114 0.62467
1159 2 0.194384 0.469756 0.612735
2243 4 0.164477 0.476695 0.584289
1161 4 0.172456 0.468371 0.6008
890 4 0.287651 0.447689 0.591533
889 2 0.312001 0.453232 0.590303
1952 4 0.343414 0.478027 0.591537
1000 2 0.47159 0.432868 0.586312
1002 4 0.475733 0.446401 0.606924
1910 4 0.465678 0.463357 0.601408
1909 2 0.456283 0.485849 0.595837
4335 4 0.503708 0.464047 0.65108
943 2 0.0555608 0.0451194 0.661799
944 4 0.0677896 0.0533349 0.682002
1075 2 0.0654921 0.0599606 0.718205
1076 4 0.0577795 0.0659579 0.695189
1257 4 0.272024 0.0461822 0.733246
1255 2 0.287511 0.0385409 0.751327
44 3 0.482082 0.0736571 0.673294
1283 4 0.175843 0.129489 0.667917
1282 2 0.198436 0.13909 0.672668
1284 4 0.221028 0.148692 0.677419
1227 4 0.237529 0.142757 0.688837
1225 2 0.240792 0.157513 0.708757
886 2 0.300551 0.132213 0.682615
887 4 0.309329 0.129157 0.705827
830 4 0.307528 0.110496 0.713369
829 2 0.303939 0.106187 0.737736
831 4 0.300349 0.101878 0.762102
1144 2 0.489877 0.162157 0.716153
1107 4 0.0183365 0.20544 0.740598
851 4 0.00700804 0.21737 0.7292
822 4 0.143717 0.225066 0.711998
1278 4 0.15312 0.217095 0.726893
820 2 0.129559 0.244465 0.705041
1226 4 0.244056 0.172269 0.728676
1130 4 0.246614 0.182555 0.74687
916 2 0.298337 0.233322 0.730339
918 4 0.30771 0.210174 0.729117
977 4 0.32037 0.19519 0.725186
976 2 0.313027 0.173707 0.735662
1142 4 0.335609 0.211688 0.674092
1141 2 0.356355 0.206745 0.66104
1192 2 0.408234 0.232583 0.7251
1193 4 0.396364 0.236469 0.74676
1145 4 0.481878 0.18431 0.707759
1194 4 0.420104 0.228697 0.703439
1262 4 0.433978 0.223476 0.689174
1261 2 0.448664 0.207192 0.701189
1263 4 0.46335 0.190908 0.713203
1207 2 0.0660555 0.257764 0.662966
1243 2 0.00686883 0.306737 0.700458
1244 4 0.0240824 0.314454 0.716869
1208 4 0.0758409 0.27524 0.677932
821 4 0.115401 0.263865 0.698084
1065 4 0.220994 0.259485 0.704592
1064 4 0.196262 0.297939 0.724847
1063 2 0.208628 0.278712 0.714719
1241 4 0.24959 0.315451 0.752414
1096 2 0.270351 0.294608 0.738959
917 4 0.288964 0.25647 0.731562
1097 4 0.276971 0.270508 0.739686
3122 4 0.500951 0.266931 0.672356
806 4 0.456455 0.292049 0.732346
805 2 0.446322 0.309572 0.747025
892 2 0.06443 0.395699 0.687672
893 4 0.0454673 0.392503 0.671691
894 4 0.0833926 0.398895 0.703652
942 4 0.122038 0.417652 0.7509
1028 4 0.226283 0.403481 0.690327
1067 4 0.171922 0.419481 0.713898
1066 2 0.190638 0.40662 0.703433
1068 4 0.209353 0.39376 0.692968
1027 2 0.248895 0.410778 0.682539
1230 4 0.349257 0.415149 0.743563
1281 4 0.0524827 0.443938 0.707683
1279 2 0.0551414 0.432874 0.729947
2021 4 0.0574101 0.469644 0.732976
2020 2 0.0712391 0.490153 0.729327
1983 4 0.0396048 0.469735 0.744336
940 2 0.144551 0.413555 0.740821
941 4 0.167064 0.409459 0.730743
1138 2 0.30362 0.429575 0.697671
1139 4 0.279924 0.422944 0.693229
1140 4 0.327316 0.436206 0.702112
1029 4 0.271507 0.418075 0.674752
1989 4 0.335039 0.47277 0.750507
1269 4 0.428355 0.470745 0.703133
3330 4 0.493672 0.433222 0.6755
3328 2 0.47463 0.434603 0.691645
3329 4 0.455588 0.435983 0.70779
1267 2 0.438171 0.478932 0.681644
1077 4 0.0732047 0.0539633 0.741221
1203 4 0.0732727 0.0502083 0.761258
864 4 0.0374026 0.0751975 0.830501
1201 2 0.09197 0.0378868 0.772383
1202 4 0.110667 0.0255653 0.783508
2049 4 0.108672 0.00978412 0.796652
1148 4 0.176308 0.0221693 0.803943
1147 2 0.195524 0.0356953 0.795403
1149 4 0.214741 0.0492214 0.786862
1049 4 0.232445 0.0431505 0.794034
1256 4 0.302998 0.0308997 0.769409
1048 2 0.243551 0.0587565 0.810106
1050 4 0.254657 0.0743625 0.826177
846 4 0.45497 0.0478308 0.787545
1113 4 0.440078 0.0343797 0.795316
1111 2 0.435261 0.00991904 0.793406
844 2 0.473068 0.0650256 0.786139
845 4 0.491167 0.0822203 0.784733
862 2 0.0243346 0.0932275 0.819129
832 2 0.0265829 0.139639 0.783246
863 4 0.0112666 0.111257 0.807757
833 4 0.00862997 0.126643 0.79482
33 3 0.0615545 0.139887 0.768693
834 4 0.0445359 0.152635 0.771671
32 3 0.0878127 0.148645 0.743267
31 1 0.0762314 0.156388 0.761572
978 4 0.305684 0.152224 0.746138
838 2 0.248723 0.135855 0.837041
819 4 0.359566 0.0874698 0.812825
1084 2 0.354133 0.117948 0.792482
1085 4 0.345412 0.0960422 0.800804
1086 4 0.362853 0.139854 0.78416
1299 4 0.375413 0.154282 0.784812
3269 4 0.489729 0.150969 0.793817
1105 2 0.0322066 0.187524 0.751173
1106 4 0.0460767 0.169608 0.761747
1214 4 0.000386383 0.21209 0.779392
35 3 0.0646435 0.175109 0.755748
780 4 0.070044 0.234585 0.788947
34 3 0.0913484 0.161367 0.778457
1073 4 0.102629 0.177964 0.78271
1072 2 0.125436 0.179446 0.79285
1074 4 0.148244 0.180929 0.802989
1276 2 0.168525 0.205909 0.743102
1277 4 0.183929 0.194723 0.759312
840 4 0.238082 0.155211 0.825323
1129 2 0.223842 0.183785 0.757122
1131 4 0.20107 0.185015 0.767373
1297 2 0.382245 0.17443 0.797948
1298 4 0.389077 0.194578 0.811084
1042 2 0.390273 0.25378 0.799765
47 3 0.407831 0.189343 0.816928
1043 4 0.406033 0.238424 0.811638
46 1 0.421399 0.207108 0.822358
49 3 0.420061 0.222996 0.805501