ITEM: TIMESTEP
2290000
ITEM: NUMBER OF ATOMS
4590
ITEM: BOX BOUNDS pp pp pp
-9.9985700000000008e+00 9.9985700000000008e+00
-9.9985700000000008e+00 9.9985700000000008e+00
-9.9985700000000008e+00 9.9985700000000008e+00
ITEM: ATOMS id type xs ys zs
463 2 0.0522634 0.0517653 0.0161477
3290 4 0.0779362 0.0167081 0.0295545
464 4 0.0702034 0.0361181 0.0237964
465 4 0.0343235 0.0674125 0.00849913
1667 4 0.0509243 0.00244076 0.0814266
567 4 0.156693 0.077461 0.0565697
3289 2 0.0931661 0.00810977 0.0116856
565 2 0.16319 0.0551464 0.0473489
566 4 0.169687 0.0328317 0.0381281
490 2 0.297076 0.0106253 0.05326
491 4 0.307187 0.00467271 0.0311803
986 4 0.311812 0.019976 0.0196644
2264 4 0.30254 0.0378399 0.0137853
557 4 0.407358 0.056937 0.0788371
296 4 0.391804 0.046658 0.0841061
745 2 0.456314 0.051856 0.0515027
747 4 0.479755 0.047424 0.0589899
746 4 0.432873 0.056288 0.0440156
2724 4 0.498184 0.0596714 0.0683421
1826 4 0.498568 0.0368196 0.074353
701 4 0.0409737 0.0869989 0.00850447
700 2 0.0398765 0.11189 0.00640004
555 4 0.0299947 0.154435 0.00891607
359 4 0.231906 0.156834 0.0332832
358 2 0.21185 0.165147 0.0208802
828 4 0.464706 0.169287 0.00906397
836 4 0.0450957 0.255744 0.0192343
422 4 0.0959585 0.206007 0.0543709
421 2 0.095759 0.196117 0.0314071
423 4 0.0955594 0.186228 0.00844329
360 4 0.191795 0.17346 0.00847714
737 4 0.181878 0.210057 0.0805221
506 4 0.189006 0.215922 0.0640462
505 2 0.180573 0.238945 0.0689465
666 4 0.324371 0.18626 0.00755382
665 4 0.368929 0.185332 0.0302344
664 2 0.34665 0.185796 0.0188941
1071 4 0.409122 0.258724 0.992567
323 4 0.469312 0.23043 0.0354336
322 2 0.45576 0.234942 0.055956
324 4 0.442208 0.239454 0.0764784
2807 4 0.00521997 0.261677 0.038075
294 4 0.141592 0.317395 0.051135
292 2 0.149914 0.294504 0.0567843
456 4 0.124044 0.318053 0.0603148
293 4 0.158237 0.271613 0.0624336
507 4 0.17214 0.261968 0.0738468
483 4 0.287499 0.276248 0.00412244
739 2 0.341355 0.333056 0.0762013
254 4 0.3852 0.268602 0.0652474
573 4 0.393871 0.263575 0.00319206
741 4 0.354799 0.326059 0.0563151
630 4 0.394444 0.270684 0.0825045
253 2 0.362945 0.269878 0.0765733
454 2 0.112981 0.339795 0.0548304
455 4 0.101918 0.361537 0.049346
608 4 0.260623 0.375366 0.075285
252 4 0.277083 0.370206 0.0657566
250 2 0.290447 0.377647 0.0459781
251 4 0.303812 0.385088 0.0261995
524 4 0.315182 0.399703 0.0340106
523 2 0.33894 0.405277 0.0285657
226 2 0.396669 0.39265 0.0113473
228 4 0.379227 0.398051 0.0284294
525 4 0.362698 0.410851 0.0231208
670 2 0.40972 0.373935 0.0807848
671 4 0.42167 0.380994 0.0599866
281 4 0.44083 0.377521 0.0552187
280 2 0.463642 0.367316 0.056035
282 4 0.486453 0.35711 0.0568512
104 3 0.490126 0.350384 0.0760276
1047 4 0.501384 0.358473 0.0456347
1045 2 0.505095 0.360531 0.0209939
313 2 0.0541269 0.419041 0.0699406
552 4 0.037978 0.457555 0.0606495
314 4 0.0527598 0.443333 0.0641802
550 2 0.0221533 0.465909 0.0431861
551 4 0.00632855 0.474262 0.0257226
1224 4 0.164096 0.464895 0.998426
243 4 0.226238 0.478639 0.0515134
1440 4 0.227421 0.478702 0.0719101
1290 4 0.229119 0.438758 0.00309466
1583 4 0.477082 0.461668 0.0894651
16 1 0.0473947 0.00243109 0.12092
1422 4 0.0242675 0.0284695 0.152879
2480 4 0.0191704 0.0362029 0.131383
18 3 0.0684475 0.0120672 0.122446
19 3 0.0312277 0.0175886 0.127796
2479 2 0.0059544 0.0572903 0.128967
1420 2 0.00815219 0.0133144 0.164533
17 3 0.0433978 0.99673 0.0989953
652 2 0.236966 0.043153 0.152244
654 4 0.247427 0.0356135 0.130822
1476 4 0.247388 0.0182683 0.120308
492 4 0.286965 0.0165779 0.0753396
1474 2 0.261396 0.0105233 0.101099
485 4 0.343909 0.00313397 0.0961234
297 4 0.36221 0.00685239 0.090465
295 2 0.377007 0.0267552 0.0872855
556 2 0.417777 0.0757898 0.091533
236 4 0.133039 0.146191 0.141214
449 4 0.147696 0.137665 0.129957
450 4 0.149346 0.0892347 0.142306
448 2 0.148521 0.11345 0.136131
582 4 0.320335 0.115742 0.169139
558 4 0.428197 0.0946426 0.104229
771 4 0.440728 0.0974506 0.120135
769 2 0.438332 0.108448 0.142462
770 4 0.435935 0.119446 0.164789
338 4 0.0437232 0.241563 0.131549
235 2 0.145604 0.167625 0.138405
237 4 0.15817 0.189058 0.135596
361 2 0.121062 0.241546 0.161981
372 4 0.146824 0.215779 0.161788
736 2 0.194905 0.190976 0.090083
738 4 0.207931 0.171895 0.0996439
354 4 0.225709 0.181415 0.101191
476 4 0.216243 0.220491 0.155237
477 4 0.237431 0.17715 0.168404
475 2 0.226837 0.19882 0.16182
352 2 0.249193 0.189994 0.101476
371 4 0.196638 0.219776 0.159977
370 2 0.171731 0.217778 0.160882
279 4 0.247451 0.243048 0.158279
353 4 0.272677 0.198572 0.101761
461 4 0.285025 0.190527 0.0874078
460 2 0.30872 0.195363 0.0937574
462 4 0.332416 0.200198 0.100107
277 2 0.247771 0.250957 0.134561
624 4 0.426065 0.244557 0.125531
337 2 0.0459072 0.259857 0.148452
395 4 0.0561252 0.294227 0.154196
704 4 0.0135313 0.326209 0.145324
339 4 0.0480912 0.278151 0.165356
363 4 0.114817 0.26552 0.158598
612 4 0.253091 0.320111 0.106358
755 4 0.323766 0.247996 0.150761
610 2 0.253253 0.295724 0.100843
611 4 0.253416 0.271336 0.0953291
278 4 0.248091 0.258867 0.110844
754 2 0.330461 0.259137 0.129401
756 4 0.337156 0.270278 0.108042
628 2 0.412999 0.258557 0.0940736
255 4 0.34069 0.271153 0.0878992
629 4 0.431553 0.24643 0.105643
622 2 0.43259 0.256724 0.146377
315 4 0.0554941 0.394748 0.075701
621 4 0.0650371 0.382173 0.0874116
619 2 0.0768226 0.384937 0.109289
620 4 0.0886082 0.387702 0.131167
647 4 0.103071 0.380981 0.143356
537 4 0.120031 0.374608 0.134583
535 2 0.141553 0.379418 0.1228
536 4 0.163075 0.384229 0.111017
646 2 0.0993152 0.36741 0.164018
609 4 0.24644 0.338987 0.106528
607 2 0.253532 0.357176 0.0909065
386 4 0.32092 0.345115 0.1142
385 2 0.332331 0.365115 0.123946
740 4 0.32791 0.340053 0.0960875
387 4 0.343742 0.385114 0.133691
12 3 0.393543 0.378549 0.11746
11 1 0.384017 0.393867 0.131734
15 3 0.361611 0.394876 0.127788
672 4 0.397771 0.366875 0.101583
13 3 0.38791 0.387171 0.153607
302 4 0.343744 0.407429 0.125387
14 3 0.393662 0.414634 0.127973
626 4 0.187383 0.43888 0.156853
1438 2 0.223416 0.463637 0.091459
625 2 0.206803 0.447218 0.143491
1439 4 0.21941 0.448571 0.111008
638 4 0.242411 0.466325 0.138442
637 2 0.247072 0.49089 0.138611
627 4 0.226222 0.455555 0.130129
272 4 0.2814 0.502363 0.0938879
303 4 0.323995 0.435207 0.161981
1559 4 0.335409 0.490381 0.11813
301 2 0.333869 0.421318 0.143684
494 4 0.364583 0.476014 0.112685
495 4 0.385158 0.431055 0.120172
493 2 0.374871 0.453534 0.116428
1584 4 0.442978 0.492177 0.109635
1582 2 0.46003 0.476923 0.0995502
674 4 0.155283 0.0469226 0.244573
653 4 0.226505 0.0506924 0.173666
689 4 0.205081 0.0128015 0.211837
690 4 0.16585 0.0311379 0.236846
688 2 0.185466 0.0219697 0.224341
693 4 0.238561 0.045712 0.191271
1505 4 0.22532 0.0109989 0.214813
691 2 0.255478 0.0581713 0.204827
692 4 0.272395 0.0706305 0.218383
1699 2 0.313419 0.0829564 0.229445
1701 4 0.290159 0.0738475 0.228364
21 1 0.373939 0.0745445 0.222438
25 3 0.376081 0.0759798 0.199811
22 3 0.379958 0.0534277 0.229294
23 3 0.351898 0.0784226 0.228566
333 4 0.398143 0.0784257 0.246577
698 4 0.38882 0.0604779 0.24656
1784 4 0.437616 0.00500996 0.172502
511 2 0.0068762 0.142603 0.216421
578 4 0.0360564 0.153535 0.241745
513 4 0.0163339 0.156295 0.235083
318 4 0.0506922 0.0950744 0.258439
28 3 0.217215 0.134234 0.184976
27 3 0.244833 0.138066 0.210179
26 1 0.239349 0.140519 0.187974
29 3 0.242152 0.162755 0.181968
758 4 0.339241 0.123982 0.170427
580 2 0.296705 0.122592 0.173601
581 4 0.273076 0.129442 0.178063
30 3 0.252956 0.127293 0.175381
1700 4 0.336679 0.0920653 0.230526
759 4 0.373587 0.0948405 0.192149
24 3 0.387854 0.0900155 0.232705
757 2 0.356414 0.109411 0.181288
312 4 0.438196 0.122271 0.18458
311 4 0.480757 0.136847 0.206416
310 2 0.459476 0.129559 0.195498
521 4 0.488615 0.150162 0.218575
577 2 0.0395833 0.176755 0.250321
529 2 0.00719979 0.220827 0.241434
530 4 0.0271502 0.213067 0.254355
362 4 0.127307 0.217573 0.165365
396 4 0.0648351 0.312211 0.200037
443 4 0.0532894 0.309756 0.216801
394 2 0.0604802 0.303219 0.177117
442 2 0.0449492 0.306804 0.240187
703 2 0.00833171 0.330882 0.169331
705 4 0.00313214 0.335555 0.193337
285 4 0.263424 0.249484 0.166651
284 4 0.286988 0.282131 0.19631
283 2 0.275206 0.265808 0.181481
345 4 0.283424 0.321903 0.241241
623 4 0.439116 0.268891 0.167223
527 4 0.435715 0.281886 0.182208
526 2 0.441786 0.297882 0.200441
528 4 0.447857 0.313879 0.218674
264 4 0.0443877 0.411306 0.207037
262 2 0.0342797 0.406482 0.229392
263 4 0.0241717 0.401658 0.251746
2615 4 0.00619682 0.348449 0.207767
299 4 0.106178 0.336939 0.245798
648 4 0.0955592 0.35384 0.18468
300 4 0.0882857 0.342017 0.199378
298 2 0.097232 0.339478 0.222588
289 2 0.21573 0.406907 0.248191
597 4 0.37954 0.373816 0.170244
596 4 0.353435 0.331314 0.173826
595 2 0.366487 0.352565 0.172035
645 4 0.401168 0.37989 0.17
643 2 0.407313 0.395877 0.188216
644 4 0.413457 0.411864 0.206433
447 4 0.403241 0.412422 0.223729
1430 4 0.186077 0.477532 0.173768
417 4 0.190703 0.469557 0.191165
290 4 0.204424 0.420789 0.230737
416 4 0.21255 0.436445 0.221612
415 2 0.201627 0.453001 0.206389
659 4 0.327702 0.453356 0.169777
658 2 0.339211 0.469716 0.184779
660 4 0.35072 0.486077 0.199781
231 4 0.360969 0.491065 0.216634
445 2 0.409243 0.42498 0.244501
232 2 0.0307226 0.0217843 0.290999
234 4 0.0413602 0.0443243 0.29299
317 4 0.0329838 0.051953 0.276541
316 2 0.041838 0.0735137 0.26749
673 2 0.144129 0.0545949 0.265595
675 4 0.132976 0.0622672 0.286616
1406 4 0.199592 0.00794941 0.293189
1518 4 0.385461 0.998262 0.277417
697 2 0.388631 0.0397855 0.260594
699 4 0.388443 0.0190931 0.274629
425 4 0.417182 0.0318246 0.319191
351 4 0.490432 0.0535438 0.260107
349 2 0.47231 0.0704441 0.256768
424 2 0.441128 0.0369512 0.324236
426 4 0.465075 0.0420779 0.329282
258 4 0.476757 0.0581169 0.325908
391 2 0.135429 0.146721 0.327219
392 4 0.14941 0.149401 0.306664
545 4 0.141802 0.14578 0.28845
544 2 0.157785 0.150866 0.269906
546 4 0.173768 0.155951 0.251362
723 4 0.236722 0.0961596 0.247459
722 4 0.197766 0.10062 0.278496
721 2 0.217244 0.09839 0.262978
599 4 0.227585 0.123543 0.309925
404 4 0.21478 0.13885 0.310697
598 2 0.21761 0.112778 0.330168
403 2 0.218935 0.158272 0.295509
331 2 0.420361 0.0898471 0.245542
350 4 0.454188 0.0873444 0.253429
256 2 0.474684 0.083031 0.3255
332 4 0.442579 0.101269 0.244508
762 4 0.440845 0.1602 0.303774
761 4 0.465966 0.117115 0.307427
760 2 0.453406 0.138658 0.305601
257 4 0.472612 0.107945 0.325091
579 4 0.0431102 0.199976 0.258897
405 4 0.223091 0.177695 0.280321
401 4 0.231523 0.183609 0.264236
400 2 0.229086 0.207437 0.271409
402 4 0.226649 0.231265 0.278582
765 4 0.431639 0.230034 0.312284
764 4 0.461528 0.19095 0.321218
763 2 0.446584 0.210492 0.316751
444 4 0.0366089 0.303853 0.263573
750 4 0.0977431 0.325942 0.258747
734 4 0.165396 0.324986 0.300829
343 2 0.293754 0.323324 0.263966
309 4 0.323589 0.320904 0.290409
344 4 0.304085 0.324745 0.286692
496 2 0.350201 0.28226 0.320639
497 4 0.358285 0.300899 0.306065
541 2 0.441242 0.316299 0.288064
542 4 0.449403 0.311319 0.26496
543 4 0.433082 0.321278 0.311168
2493 4 0.997155 0.355265 0.335596
365 4 0.0071619 0.349258 0.319781
366 4 0.0527585 0.338217 0.302468
749 4 0.0725528 0.341517 0.299041
364 2 0.0299602 0.343737 0.311124
748 2 0.085148 0.333729 0.278894
602 4 0.104291 0.387283 0.302755
777 4 0.117276 0.400107 0.294395
735 4 0.169686 0.372673 0.286396
601 2 0.107417 0.38374 0.327309
677 4 0.182453 0.382351 0.29611
733 2 0.167541 0.348829 0.293613
676 2 0.182199 0.404925 0.306857
291 4 0.227035 0.393024 0.265644
412 2 0.249602 0.412501 0.293918
414 4 0.238992 0.41034 0.27138
2 3 0.31092 0.415549 0.318481
613 2 0.397175 0.338536 0.317139
728 4 0.332292 0.413969 0.322394
614 4 0.3726 0.340063 0.321485
307 2 0.341677 0.335971 0.298835
727 2 0.341935 0.392638 0.313607
729 4 0.351577 0.371308 0.30482
308 4 0.359764 0.351039 0.307261
615 4 0.421751 0.33701 0.312794
2924 4 0.485651 0.378796 0.320046
2537 4 0.495765 0.379356 0.302371
118 3 0.491353 0.400067 0.313639
1757 4 0.114728 0.469685 0.284409
776 4 0.119842 0.449387 0.286295
775 2 0.118559 0.424747 0.290345
1756 2 0.111151 0.494263 0.281532
678 4 0.181944 0.4275 0.317605
768 4 0.196089 0.459865 0.266483
766 2 0.199768 0.482755 0.257121
413 4 0.260212 0.414662 0.316456
438 4 0.286496 0.467949 0.25368
1435 2 0.259549 0.466978 0.325859
437 4 0.276714 0.437608 0.292208
436 2 0.281605 0.452779 0.272944
1437 4 0.27014 0.449759 0.311146
5 3 0.276396 0.428141 0.311968
1 1 0.291426 0.422877 0.328249
434 4 0.322826 0.434125 0.316501
433 2 0.343214 0.447871 0.311968
435 4 0.363603 0.461616 0.307436
446 4 0.415244 0.437537 0.265273
714 4 0.428985 0.4402 0.280144
2862 4 0.499453 0.436402 0.272779
120 3 0.495476 0.431702 0.293642
713 4 0.478898 0.442673 0.281951
712 2 0.453941 0.441436 0.281047
428 4 0.055132 0.036089 0.333445
427 2 0.0552895 0.0116191 0.338581
605 4 0.139503 0.0714283 0.359374
730 2 0.107302 0.0798111 0.400405
604 2 0.158393 0.0582626 0.349626
606 4 0.177283 0.0450969 0.339878
683 4 0.243745 0.0335803 0.380813
682 2 0.248406 0.0243287 0.358056
321 4 0.238541 0.0523683 0.386359
319 2 0.230881 0.059822 0.408963
684 4 0.253066 0.015077 0.3353
249 4 0.311221 0.0563579 0.336192
247 2 0.335327 0.0550617 0.342704
248 4 0.359432 0.0537655 0.349217
633 4 0.366964 0.072533 0.345452
631 2 0.379032 0.0821693 0.365116
1749 4 0.489679 0.00565782 0.356813
480 4 0.491883 0.0157428 0.340395
732 4 0.117734 0.0926063 0.381627
393 4 0.121448 0.144042 0.347775
399 4 0.101259 0.139862 0.34954
398 4 0.0994445 0.10136 0.381399
397 2 0.100352 0.120611 0.36547
686 4 0.2295 0.122771 0.40868
600 4 0.207635 0.102013 0.350412
685 2 0.216202 0.11638 0.388494
687 4 0.202904 0.109989 0.368307
410 4 0.244966 0.132211 0.414994
632 4 0.3911 0.0918055 0.38478
420 4 0.385947 0.118959 0.385224
468 4 0.385112 0.104247 0.402364
418 2 0.378372 0.142093 0.390935
419 4 0.370798 0.165227 0.396645
515 4 0.472059 0.159908 0.398855
2654 4 0.0132602 0.244571 0.390865
390 4 0.0756796 0.220279 0.387769
470 4 0.0637343 0.213688 0.403566
617 4 0.0639007 0.240379 0.414378
388 2 0.0964679 0.230138 0.37798
389 4 0.117256 0.239996 0.36819
276 4 0.124231 0.252786 0.381255
473 4 0.205148 0.207074 0.332568
474 4 0.173882 0.244085 0.344954
472 2 0.189515 0.225579 0.338761
708 4 0.209393 0.192143 0.346903
706 2 0.231889 0.188223 0.357089
651 4 0.220136 0.237675 0.405258
649 2 0.230987 0.21562 0.40984
707 4 0.254384 0.184302 0.367275
650 4 0.241839 0.193565 0.414422
377 4 0.34311 0.247014 0.400919
717 4 0.351375 0.230382 0.407738
716 4 0.366524 0.184698 0.394164
715 2 0.358949 0.20754 0.400951
268 2 0.503222 0.238205 0.351572
270 4 0.498748 0.254421 0.37007
618 4 0.0268406 0.25824 0.385949
616 2 0.0453707 0.249309 0.400164
274 2 0.143574 0.256824 0.365934
275 4 0.162916 0.260862 0.350613
374 4 0.233892 0.324358 0.331861
489 4 0.217806 0.251114 0.419362
510 4 0.233569 0.31356 0.348335
487 2 0.230256 0.272418 0.415323
488 4 0.242706 0.293722 0.411283
508 2 0.236181 0.301773 0.370231
509 4 0.238792 0.289986 0.392127
378 4 0.33507 0.264827 0.354889
376 2 0.33909 0.25592 0.377904
498 4 0.342118 0.263621 0.335213
265 2 0.352257 0.325486 0.363618
266 4 0.362668 0.314322 0.383421
585 4 0.36755 0.297956 0.391187
583 2 0.384298 0.282934 0.402098
267 4 0.341846 0.336651 0.343815
304 2 0.491289 0.272279 0.404369
306 4 0.488435 0.267905 0.379917
547 2 0.0843322 0.412278 0.367681
549 4 0.097704 0.393173 0.358661
603 4 0.110543 0.380197 0.351862
373 2 0.228824 0.348406 0.336463
502 2 0.202832 0.399668 0.365073
504 4 0.210673 0.388759 0.343985
375 4 0.223755 0.372454 0.341064
503 4 0.19499 0.410576 0.38616
3 3 0.282947 0.405964 0.341682
2923 2 0.476012 0.361524 0.335341
2925 4 0.466373 0.344251 0.350636
680 4 0.994527 0.461099 0.408954
548 4 0.0709603 0.431384 0.3767
407 4 0.0607375 0.448977 0.384759
406 2 0.0425991 0.46174 0.396305
408 4 0.0244607 0.474503 0.40785
569 4 0.0884208 0.46647 0.408746
568 2 0.108261 0.452819 0.415468
1543 2 0.230494 0.499928 0.358029
1436 4 0.248957 0.484197 0.340573
635 4 0.187363 0.468775 0.419253
636 4 0.188409 0.421915 0.401827
634 2 0.187886 0.445345 0.41054
1545 4 0.254797 0.494158 0.356917
1401 4 0.332872 0.480312 0.391802
668 4 0.307801 0.442283 0.357407
4 3 0.296065 0.441629 0.341104
667 2 0.325662 0.440182 0.374777
669 4 0.343524 0.43808 0.392147
336 4 0.344268 0.440095 0.412437
119 3 0.490545 0.433915 0.330904
593 4 0.469694 0.494721 0.37005
752 4 0.476873 0.422485 0.388537
561 4 0.491064 0.415262 0.400257
753 4 0.490098 0.446328 0.346616
751 2 0.483485 0.434407 0.367576
718 2 0.0367511 0.05038 0.486019
719 4 0.0614326 0.0482885 0.489429
369 4 0.0756967 0.0617699 0.484412
367 2 0.0805541 0.0657689 0.460213
720 4 0.0120696 0.0524716 0.482609
731 4 0.0968703 0.0670159 0.419184
368 4 0.0854115 0.0697679 0.436014
441 4 0.199316 0.999189 0.439547
2430 4 0.18427 0.0591643 0.437183
2428 2 0.184477 0.0346395 0.442048
2429 4 0.184685 0.0101147 0.446914
341 4 0.203671 0.0682644 0.439292
320 4 0.223221 0.0672757 0.431568
725 4 0.234353 0.0678032 0.447332
724 2 0.257812 0.0692706 0.45586
430 2 0.306155 0.0690399 0.493419
432 4 0.282714 0.0693645 0.484724
726 4 0.28127 0.070738 0.464388
2879 4 0.435482 0.0185562 0.426093
2878 2 0.447894 0.0304153 0.444272
2880 4 0.460306 0.0422743 0.462451
642 4 0.462509 0.0511104 0.48005
640 2 0.478333 0.0692066 0.473173
2586 4 0.00943651 0.0966033 0.463155
938 4 0.117509 0.172181 0.503802
409 2 0.246519 0.156133 0.422101
340 2 0.207761 0.0905557 0.449853
1152 4 0.202891 0.117974 0.478826
342 4 0.211852 0.112847 0.460415
1150 2 0.18784 0.126195 0.497021
467 4 0.370312 0.0882227 0.447363
466 2 0.377712 0.0962348 0.424864
576 4 0.416659 0.123781 0.47581
641 4 0.494158 0.0873028 0.466296
514 2 0.45668 0.163368 0.418264
574 2 0.427759 0.135259 0.456568
575 4 0.438859 0.146736 0.437326
469 2 0.0753722 0.20396 0.423443
260 4 0.0865516 0.17562 0.45063
471 4 0.0870101 0.194231 0.44332
261 4 0.0980461 0.176122 0.499295
259 2 0.0922988 0.175871 0.474962
411 4 0.248073 0.180055 0.429208
516 4 0.441302 0.166828 0.437673
695 4 0.123828 0.26851 0.456038
694 2 0.137521 0.286338 0.44509
696 4 0.151214 0.304166 0.434143
1260 4 0.169966 0.302726 0.425394
1258 2 0.190163 0.314099 0.434771
1259 4 0.210359 0.325472 0.444148
584 4 0.401046 0.267912 0.413008
2456 4 0.414366 0.251884 0.41636
2455 2 0.430311 0.264298 0.431085
2457 4 0.446256 0.276712 0.44581
326 4 0.0747779 0.39783 0.460299
325 2 0.0890466 0.377664 0.456432
10 3 0.156093 0.359124 0.44998
709 2 0.143067 0.417894 0.449113
7 3 0.121176 0.350479 0.459926
327 4 0.103315 0.357499 0.452566
6 1 0.14091 0.359999 0.466932
8 3 0.136905 0.382078 0.472841
9 3 0.148833 0.348202 0.485274
711 4 0.141147 0.399786 0.466248
238 2 0.332653 0.415301 0.489939
240 4 0.347441 0.413038 0.469905
2508 4 0.493126 0.372531 0.443902
559 2 0.489095 0.402997 0.421956
1382 4 0.0284924 0.456638 0.467987
1381 2 0.0197488 0.461424 0.445056
540 4 0.0442585 0.465652 0.480151
1383 4 0.0110052 0.466209 0.422125
710 4 0.144986 0.436002 0.431979
382 2 0.161615 0.498059 0.494898
774 4 0.172814 0.48368 0.419373
570 4 0.128101 0.439167 0.422191
772 2 0.160532 0.49632 0.437109
1399 2 0.327223 0.489868 0.414207
1400 4 0.321575 0.499423 0.436611
335 4 0.333597 0.42217 0.457886
334 2 0.338932 0.431132 0.435161
951 4 0.184956 0.0698354 0.549397
1031 4 0.170433 0.0803991 0.557824
949 2 0.207211 0.0670463 0.538346
1182 4 0.238611 0.0467044 0.530349
950 4 0.229465 0.0642572 0.527294
961 2 0.313899 0.0286353 0.555938
1180 2 0.263054 0.0422136 0.527599
963 4 0.303846 0.0418158 0.53722
1181 4 0.287497 0.0377227 0.524849
431 4 0.329595 0.0687154 0.502114
962 4 0.323952 0.0154549 0.574657
842 4 0.396872 0.0697387 0.500635
1217 4 0.411341 0.0756888 0.512863
841 2 0.372144 0.0734275 0.500274
843 4 0.347417 0.0771164 0.499912
1032 4 0.128346 0.0991675 0.577242
1030 2 0.14939 0.0897833 0.567533
939 4 0.162392 0.151772 0.51215
937 2 0.139951 0.161976 0.507976
1151 4 0.172789 0.134416 0.515216
898 2 0.35452 0.175126 0.581137
1216 2 0.430333 0.0862277 0.525249
1218 4 0.449325 0.0967667 0.537635
1035 4 0.0714725 0.162453 0.561094
1082 4 0.0639032 0.178676 0.569761
1033 2 0.079789 0.168592 0.538327
1034 4 0.0881055 0.174732 0.515561
877 2 0.0980622 0.253603 0.581982
1272 4 0.107786 0.212353 0.581085
811 2 0.305303 0.229945 0.538965
812 4 0.280972 0.231409 0.544537
796 2 0.270953 0.199188 0.573659
798 4 0.279726 0.216588 0.557992
813 4 0.329634 0.228481 0.533394
900 4 0.365887 0.1931 0.567988
872 4 0.36721 0.193569 0.5485
873 4 0.344812 0.227783 0.519717
871 2 0.356011 0.210676 0.534108
878 4 0.0967479 0.277445 0.574566
896 4 0.216799 0.33364 0.540268
1191 4 0.223122 0.314552 0.533223
1189 2 0.24068 0.325817 0.519439
1239 4 0.261044 0.324871 0.573951
1205 4 0.402144 0.29627 0.576632
1204 2 0.383867 0.313252 0.574968
954 4 0.413767 0.301577 0.562323
952 2 0.430331 0.287384 0.574546
1137 4 0.181085 0.376539 0.559486
897 4 0.180615 0.368126 0.541751
895 2 0.198707 0.350883 0.541009
1135 2 0.175208 0.393603 0.576791
1190 4 0.258237 0.337083 0.505655
803 4 0.274433 0.348489 0.505401
802 2 0.295543 0.350084 0.518706
804 4 0.316653 0.351678 0.53201
929 4 0.314881 0.357242 0.550645
239 4 0.317865 0.417564 0.509973
928 2 0.338583 0.351408 0.556063
930 4 0.362285 0.345574 0.561481
1000 2 0.474167 0.411782 0.569496
539 4 0.0439823 0.467207 0.530133
936 4 0.0254646 0.478229 0.5401
1938 4 0.043582 0.48435 0.538459
1936 2 0.0571218 0.502505 0.549054
934 2 0.00160803 0.472137 0.544452
538 2 0.0441204 0.466429 0.505142
383 4 0.16852 0.487477 0.516474
2244 4 0.153174 0.481642 0.52757
2242 2 0.161641 0.484066 0.550971
2243 4 0.170107 0.486489 0.574372
1172 4 0.249981 0.453733 0.556667
882 4 0.259522 0.461264 0.542206
880 2 0.265058 0.482475 0.53018
1001 4 0.49224 0.412508 0.552232
1057 2 0.0818371 0.0414861 0.605223
1185 4 0.0284427 0.0719518 0.648744
945 4 0.0432133 0.0683596 0.659145
825 4 0.0534022 0.0236138 0.633292
1058 4 0.0674264 0.0288361 0.621269
823 2 0.0618361 0.00340614 0.645363
1059 4 0.0962478 0.0541361 0.589176
1155 4 0.0989752 0.0740996 0.587166
1003 2 0.314347 0.0797469 0.657222
1004 4 0.331653 0.0787571 0.639203
1005 4 0.297041 0.0807367 0.675241
2282 4 0.455284 0.0253626 0.635178
2281 2 0.451274 0.00594524 0.619945
43 3 0.460808 0.0391908 0.649056
41 1 0.473217 0.0569592 0.657346
44 3 0.459815 0.0758126 0.659169
45 3 0.490824 0.061246 0.643552
1081 2 0.0522305 0.165661 0.587637
1199 4 0.0226679 0.146158 0.598398
1083 4 0.0405578 0.152645 0.605512
1198 2 0.999504 0.14245 0.589746
1153 2 0.103857 0.0940573 0.601415
1154 4 0.10874 0.114015 0.615664
1221 4 0.1279 0.115262 0.621943
1219 2 0.144518 0.111338 0.640208
1220 4 0.161136 0.107415 0.658474
1212 4 0.241861 0.153863 0.631604
1210 2 0.26414 0.15541 0.642848
856 2 0.301016 0.161988 0.598196
857 4 0.32433 0.153588 0.601527
1211 4 0.286419 0.156958 0.654092
858 4 0.277703 0.170389 0.594865
899 4 0.343153 0.157152 0.594286
879 4 0.0993766 0.22976 0.589399
1270 2 0.126834 0.199685 0.591178
1271 4 0.145882 0.187016 0.60127
909 4 0.160687 0.193405 0.613468
907 2 0.16129 0.209789 0.632346
908 4 0.161893 0.226172 0.651225
947 4 0.169325 0.245569 0.653138
797 4 0.262179 0.181789 0.589326
1025 4 0.385005 0.187057 0.653487
1024 2 0.384571 0.207009 0.638424
1143 4 0.367162 0.190705 0.661552
1026 4 0.384136 0.226961 0.623361
904 2 0.44914 0.250913 0.609585
906 4 0.453845 0.226506 0.612301
946 2 0.18534 0.263617 0.659692
1237 2 0.277159 0.316277 0.591028
792 4 0.294759 0.303573 0.627308
791 4 0.311805 0.335811 0.661526
790 2 0.303282 0.319692 0.644417
1238 4 0.293274 0.307683 0.608106
1206 4 0.36559 0.330233 0.573305
905 4 0.444435 0.275319 0.606869
953 4 0.446895 0.273192 0.586768
983 4 0.0332052 0.404398 0.637002
1041 4 0.0499894 0.395004 0.631226
1039 2 0.0736406 0.401677 0.635837
982 2 0.00921056 0.398463 0.633232
1040 4 0.0972918 0.40835 0.640449
1136 4 0.169332 0.410668 0.594096
1002 4 0.456095 0.411057 0.586759
3330 4 0.488865 0.415399 0.648702
993 4 0.112142 0.416798 0.630011
992 4 0.156311 0.419625 0.606734
991 2 0.134227 0.418211 0.618372
1161 4 0.177254 0.482128 0.591406
1160 4 0.224984 0.487278 0.605406
1159 2 0.201119 0.484703 0.598406
1175 4 0.22962 0.473512 0.618468
1174 2 0.247067 0.484421 0.632673
1171 2 0.254021 0.461171 0.580194
1173 4 0.25806 0.468609 0.603721
1176 4 0.264514 0.495329 0.646879
889 2 0.342574 0.482593 0.640414
891 4 0.336186 0.484998 0.61636
1952 4 0.353016 0.486068 0.605838
1911 4 0.432296 0.458065 0.631206
1910 4 0.445957 0.419965 0.601838
1909 2 0.439127 0.439015 0.616522
3328 2 0.493227 0.432682 0.631167
3183 4 0.499381 0.41857 0.665615
1268 4 0.438861 0.473736 0.639866
1267 2 0.438244 0.485042 0.662159
3329 4 0.497589 0.449965 0.613633
943 2 0.0463434 0.0715947 0.68374
944 4 0.0494735 0.0748298 0.708335
1075 2 0.0456806 0.0481016 0.733882
1076 4 0.0363358 0.0618826 0.715229
831 4 0.33946 0.0641987 0.716342
42 3 0.481124 0.051409 0.678222
1163 4 0.479994 0.0523792 0.698376
1283 4 0.161192 0.124141 0.669956
32 3 0.093662 0.143071 0.747125
1282 2 0.1624 0.1261 0.694853
1284 4 0.163609 0.128058 0.719751
1227 4 0.180207 0.121997 0.726393
1225 2 0.193522 0.128945 0.746383
888 4 0.280748 0.144507 0.669558
886 2 0.30079 0.134674 0.680819
887 4 0.320832 0.124841 0.692081
830 4 0.329748 0.111154 0.702143
829 2 0.334604 0.0876762 0.709242
1107 4 0.0286171 0.193744 0.738213
851 4 0.0304679 0.198837 0.718236
850 2 0.00782762 0.20938 0.717032
822 4 0.139885 0.225555 0.700397
1278 4 0.148595 0.217013 0.716068
820 2 0.116944 0.235098 0.697597
821 4 0.0940033 0.24464 0.694796
1276 2 0.168619 0.217577 0.73103
1277 4 0.188644 0.218142 0.745992
1131 4 0.204581 0.205662 0.748602
916 2 0.307934 0.220122 0.718269
918 4 0.312797 0.195931 0.722309
917 4 0.303072 0.244313 0.71423
1142 4 0.322404 0.188252 0.683721
1008 4 0.323182 0.239046 0.741798
1097 4 0.287505 0.238828 0.725574
977 4 0.310301 0.18129 0.736531
1141 2 0.344783 0.189478 0.672636
1194 4 0.402843 0.242549 0.726125
3122 4 0.490405 0.210701 0.669208
1262 4 0.412669 0.224851 0.727338
3123 4 0.441171 0.205995 0.676598
3121 2 0.465788 0.208348 0.672903
1261 2 0.432189 0.211153 0.734855
1263 4 0.45171 0.197456 0.742372
1145 4 0.469559 0.195919 0.753087
1209 4 0.0383301 0.278271 0.693058
1207 2 0.0594269 0.266304 0.699133
1208 4 0.0805237 0.254337 0.705208
948 4 0.201355 0.281664 0.666247
1065 4 0.221095 0.284157 0.665973
1064 4 0.223778 0.313581 0.706318
1063 2 0.222437 0.298869 0.686145
1098 4 0.249787 0.260148 0.750544
1096 2 0.268646 0.249488 0.738059
1192 2 0.402616 0.261908 0.741948
893 4 0.077368 0.329838 0.657956
1279 2 0.0855362 0.40358 0.710957
892 2 0.0840775 0.348101 0.673661
894 4 0.090787 0.366364 0.689366
1281 4 0.0852759 0.384969 0.694261
940 2 0.164431 0.402444 0.728055
942 4 0.161013 0.412692 0.750604
941 4 0.167849 0.392196 0.705505
1067 4 0.173428 0.406658 0.692347
1028 4 0.230646 0.413029 0.667827
1029 4 0.278043 0.397347 0.670708
1027 2 0.254344 0.405188 0.669268
1139 4 0.283627 0.406132 0.688543
1983 4 0.0212701 0.496157 0.714844
1280 4 0.0857966 0.422191 0.727652
1066 2 0.1949 0.415776 0.683348
1068 4 0.216372 0.424895 0.674349
1138 2 0.295434 0.419586 0.706
1140 4 0.307241 0.433041 0.723458
1989 4 0.295625 0.439517 0.738804
1987 2 0.312105 0.452044 0.752828
1230 4 0.364371 0.424753 0.717459
890 4 0.348961 0.480189 0.664468
1228 2 0.360096 0.432472 0.694064
1229 4 0.355821 0.44019 0.670669
1100 4 0.464024 0.470595 0.724389
1099 2 0.471811 0.491623 0.713327
1250 4 0.464989 0.472617 0.74385
1077 4 0.0550255 0.0343206 0.752535
1203 4 0.0721664 0.0393387 0.762769
864 4 0.024118 0.0703452 0.831748
1201 2 0.0936945 0.0317961 0.773008
2049 4 0.124701 0.00745321 0.778962
1202 4 0.115223 0.0242536 0.783246
1148 4 0.174856 0.0650375 0.769752
1147 2 0.197542 0.0612856 0.779572
1149 4 0.220229 0.0575337 0.789392
1049 4 0.234696 0.0491453 0.781148
1048 2 0.250504 0.0454302 0.800161
1050 4 0.266312 0.0417151 0.819174
817 2 0.366418 0.0749146 0.808213
818 4 0.358428 0.0651549 0.829802
846 4 0.476176 0.0312279 0.771418
1113 4 0.478256 0.0124996 0.776404
844 2 0.497089 0.0434 0.777717
832 2 0.0371594 0.134188 0.784649
863 4 0.00803859 0.110988 0.807451
833 4 0.0194107 0.123982 0.799001
33 3 0.0711162 0.133416 0.775605
834 4 0.0549082 0.144394 0.770296
862 2 0.0160783 0.0906666 0.8196
1106 4 0.056739 0.163919 0.766854
31 1 0.0857912 0.149576 0.767737
34 3 0.103741 0.151731 0.782283
1226 4 0.206837 0.135894 0.766373
1130 4 0.204825 0.16122 0.771527
840 4 0.210231 0.147533 0.790202
838 2 0.225153 0.140751 0.809084
839 4 0.240075 0.13397 0.827966
959 4 0.258312 0.142195 0.829263
978 4 0.305141 0.146974 0.772538
958 2 0.272102 0.122297 0.835513
960 4 0.285891 0.102398 0.841763
819 4 0.374408 0.0846743 0.786624
1084 2 0.379583 0.13012 0.784889
1085 4 0.376524 0.105464 0.787699
1086 4 0.382642 0.154776 0.782078
3268 2 0.486118 0.148225 0.810239
3270 4 0.468951 0.145528 0.792262
1146 4 0.466978 0.150699 0.774282
1105 2 0.0426781 0.178832 0.752533
35 3 0.0750076 0.169531 0.765693
778 2 0.0503877 0.214984 0.803471
779 4 0.0325314 0.224771 0.788961
780 4 0.068244 0.205196 0.817981
1214 4 0.0199782 0.23962 0.788006
1073 4 0.122138 0.15879 0.780909
1072 2 0.135162 0.180104 0.779782
1074 4 0.148186 0.201418 0.778654
869 4 0.0806644 0.216695 0.830054
1129 2 0.204703 0.183441 0.760064
976 2 0.307721 0.164132 0.754535
1299 4 0.382539 0.174206 0.776677
1006 2 0.341111 0.248841 0.756212
1297 2 0.385054 0.187315 0.79782
1298 4 0.387569 0.200424 0.818962
47 3 0.405471 0.208242 0.825417
49 3 0.398249 0.244934 0.829181
1144 2 0.468268 0.173309 0.763685
1213 2 0.00388253 0.255574 0.798569
1241 4 0.253213 0.278437 0.75622
1240 2 0.229398 0.285292 0.752901
1242 4 0.205582 0.292146 0.749583
801 4 0.301271 0.335328 0.830882
1166 4 0.409216 0.249665 0.809362
1043 4 0.390955 0.259867 0.812058
1042 2 0.375226 0.268784 0.794788
1007 4 0.359041 0.258637 0.770627
1044 4 0.359496 0.277702 0.777518
1193 4 0.402389 0.281267 0.757771
806 4 0.413505 0.326574 0.775375
805 2 0.391949 0.335677 0.766562
1167 4 0.45801 0.244596 0.799658
1165 2 0.433613 0.24713 0.80451
1306 2 0.488455 0.272542 0.810402
1307 4 0.475875 0.252864 0.801476
848 4 0.00238414 0.40513 0.824464