ITEM: TIMESTEP
1150000
ITEM: NUMBER OF ATOMS
4590
ITEM: BOX BOUNDS pp pp pp
-9.9985700000000008e+00 9.9985700000000008e+00
-9.9985700000000008e+00 9.9985700000000008e+00
-9.9985700000000008e+00 9.9985700000000008e+00
ITEM: ATOMS id type xs ys zs
1668 4 0.0764067 0.0278425 0.0766496
1475 4 0.263471 0.0151819 0.0688713
297 4 0.338242 0.0530777 0.0534091
295 2 0.354118 0.0702731 0.0446079
747 4 0.454744 0.0632775 0.00781811
2974 2 0.470895 0.0278664 0.0274459
2976 4 0.48245 0.00962043 0.0400453
2975 4 0.45934 0.0461124 0.0148465
986 4 0.441307 0.0484806 0.00779578
2467 2 0.490533 0.00377711 0.0788414
745 2 0.442011 0.0844329 0.00388097
2468 4 0.482574 0.996183 0.0563881
565 2 0.172862 0.165472 0.0397467
567 4 0.194988 0.164156 0.028175
358 2 0.33776 0.139151 0.0726346
296 4 0.369994 0.0874684 0.0358067
557 4 0.370507 0.0937727 0.0190268
556 2 0.392007 0.104858 0.0126994
769 2 0.394712 0.146774 0.0576982
359 4 0.359269 0.150426 0.0666843
558 4 0.413507 0.115944 0.00637204
770 4 0.375624 0.161266 0.0648263
827 4 0.354486 0.0889237 0.0112782
771 4 0.4138 0.132281 0.0505701
746 4 0.429278 0.105588 0.999944
566 4 0.150736 0.166788 0.0513183
664 2 0.382153 0.202314 0.0486277
665 4 0.378877 0.180963 0.0612214
666 4 0.385429 0.223664 0.0360339
554 4 0.0731692 0.261146 0.0129626
555 4 0.0937739 0.289021 0.0490063
553 2 0.0834716 0.275084 0.0309844
287 4 0.165267 0.31481 0.0300659
292 2 0.157279 0.276072 0.0137359
293 4 0.157646 0.298906 0.0239181
286 2 0.147584 0.329564 0.0203294
507 4 0.172133 0.300019 0.0394456
505 2 0.185006 0.296883 0.0606504
506 4 0.197878 0.293747 0.0818552
481 2 0.237925 0.274444 0.0720727
483 4 0.215393 0.28278 0.0789985
537 4 0.199666 0.311688 0.0900665
482 4 0.260458 0.266108 0.0651469
573 4 0.261218 0.261564 0.0445293
571 2 0.262629 0.268618 0.0205828
322 2 0.398135 0.2758 0.0570035
1069 2 0.39141 0.304906 0.0071799
324 4 0.402644 0.280884 0.0329411
1070 4 0.409358 0.289291 0.0148761
741 4 0.358367 0.324006 0.0334991
955 2 0.337601 0.324743 0.000364116
1071 4 0.373463 0.320521 0.999484
957 4 0.359432 0.32372 0.01251
671 4 0.449862 0.323286 0.0543673
280 2 0.444617 0.300228 0.0271961
281 4 0.460596 0.313751 0.0408711
282 4 0.428639 0.286705 0.0135211
670 2 0.435469 0.325534 0.0746889
288 4 0.1299 0.344318 0.0105929
454 2 0.148077 0.360191 0.0703996
456 4 0.169667 0.36171 0.0578794
250 2 0.297886 0.390991 0.0325401
251 4 0.302193 0.37301 0.0157086
252 4 0.29358 0.408973 0.0493716
609 4 0.304295 0.408837 0.0663608
739 2 0.357006 0.332235 0.0570707
740 4 0.355645 0.340463 0.0806422
495 4 0.391585 0.378418 0.072491
493 2 0.393726 0.40295 0.0768254
14 3 0.392845 0.363886 0.0886226
3347 4 0.489703 0.33596 0.997005
330 4 0.00517644 0.457865 0.0100235
245 4 0.238833 0.467754 0.0524421
626 4 0.232313 0.454759 0.0655001
625 2 0.209882 0.44408 0.0683268
627 4 0.187452 0.4334 0.0711535
244 2 0.258811 0.460809 0.0391061
246 4 0.278788 0.453865 0.0257701
272 4 0.28098 0.467522 0.0111524
494 4 0.395866 0.427482 0.0811599
563 4 0.460543 0.472809 0.0552637
228 4 0.469048 0.485698 0.0676398
562 2 0.444895 0.480113 0.0371812
564 4 0.429248 0.487418 0.0190987
854 4 0.429171 0.471946 0.00808778
1674 4 0.423293 0.507038 0.0191158
1666 2 0.0838734 0.0498974 0.0857606
19 3 0.0601721 0.0666835 0.132855
18 3 0.0727341 0.0378858 0.154239
16 1 0.0582721 0.0560103 0.15337
17 3 0.036694 0.0484314 0.155839
1667 4 0.0913401 0.0719523 0.0948715
1539 4 0.177767 0.997405 0.167505
492 4 0.2709 0.0173068 0.0876282
491 4 0.267961 0.0622371 0.109385
490 2 0.269431 0.039772 0.0985064
486 4 0.366984 0.0218438 0.0996054
2722 2 0.482582 0.0466335 0.157331
2723 4 0.46178 0.0578193 0.149125
2469 4 0.498493 0.0113713 0.101295
701 4 0.0815293 0.080237 0.109947
700 2 0.0837269 0.101251 0.123318
476 4 0.102482 0.125834 0.148566
702 4 0.0859245 0.122265 0.136688
449 4 0.192015 0.0952515 0.161052
237 4 0.246508 0.133865 0.172693
360 4 0.316251 0.127876 0.0785849
581 4 0.293823 0.104282 0.151523
582 4 0.264811 0.141665 0.167696
580 2 0.279317 0.122973 0.159609
628 2 0.385825 0.134157 0.131831
630 4 0.383616 0.152221 0.114684
312 4 0.401007 0.106308 0.161241
629 4 0.388035 0.116094 0.148977
738 4 0.189004 0.218741 0.109278
737 4 0.209473 0.17336 0.114001
736 2 0.199238 0.196051 0.111639
277 2 0.236732 0.240622 0.164575
279 4 0.214925 0.230147 0.170893
461 4 0.30485 0.243119 0.0863125
460 2 0.32673 0.235099 0.0953745
354 4 0.289911 0.243455 0.100043
278 4 0.258539 0.251096 0.158256
352 2 0.276575 0.246112 0.121025
353 4 0.26324 0.248769 0.142008
284 4 0.273663 0.239467 0.15613
462 4 0.34861 0.227079 0.104436
254 4 0.375527 0.171217 0.114781
255 4 0.362401 0.219383 0.11769
253 2 0.368964 0.1953 0.116235
765 4 0.360909 0.223776 0.135768
624 4 0.359475 0.235133 0.11778
763 2 0.343869 0.224042 0.154064
622 2 0.377133 0.250412 0.108839
648 4 0.0397961 0.298165 0.164546
339 4 0.0597339 0.259 0.135916
337 2 0.0749133 0.257965 0.155758
536 4 0.223096 0.315197 0.134105
535 2 0.211381 0.313443 0.112086
755 4 0.263299 0.267682 0.150794
387 4 0.322283 0.325016 0.136818
323 4 0.393625 0.270717 0.0810659
623 4 0.394791 0.26569 0.099898
12 3 0.407346 0.334795 0.107492
528 4 0.461695 0.268885 0.114802
518 4 0.477558 0.278254 0.107666
526 2 0.443592 0.266196 0.131838
527 4 0.425488 0.263507 0.148874
517 2 0.497501 0.269701 0.0952435
672 4 0.421076 0.327781 0.0950105
551 4 0.0785887 0.346593 0.127687
455 4 0.126487 0.358672 0.0829199
552 4 0.1092 0.363905 0.092135
550 2 0.0938945 0.355249 0.109911
291 4 0.226396 0.417216 0.145931
302 4 0.315666 0.338364 0.150108
385 2 0.337154 0.334179 0.118927
15 3 0.370316 0.339178 0.105931
386 4 0.352026 0.343342 0.101037
11 1 0.39023 0.35016 0.107147
13 3 0.391119 0.362817 0.126574
104 3 0.492457 0.346395 0.123814
1791 4 0.0391735 0.479626 0.148318
1466 4 0.0300356 0.477438 0.166174
1789 2 0.0485202 0.491148 0.128192
416 4 0.215194 0.417852 0.162654
415 2 0.19604 0.433922 0.162933
289 2 0.249041 0.424309 0.153811
417 4 0.176887 0.449992 0.163213
607 2 0.31579 0.417985 0.0865931
767 4 0.27866 0.4924 0.158949
766 2 0.283856 0.467962 0.157966
768 4 0.289053 0.443524 0.156982
290 4 0.271685 0.431403 0.16169
608 4 0.327286 0.427134 0.106825
525 4 0.3882 0.491717 0.119944
658 2 0.363663 0.443363 0.0972296
659 4 0.339133 0.44371 0.10206
660 4 0.388193 0.443017 0.0923987
523 2 0.368251 0.500713 0.107848
226 2 0.480334 0.468085 0.081337
227 4 0.491619 0.450473 0.0950341
1420 2 0.0377529 0.00546899 0.181643
20 3 0.0630712 0.0705942 0.17019
2480 4 0.0249199 0.0372422 0.168651
1422 4 0.0242184 0.0264254 0.179962
2479 2 0.00656152 0.0539975 0.171372
674 4 0.149121 0.0174427 0.247846
673 2 0.126484 0.00684133 0.24845
448 2 0.190236 0.0762308 0.177184
1506 4 0.245404 0.0332448 0.183015
450 4 0.188456 0.0572101 0.193315
691 2 0.235427 0.0811625 0.246052
1504 2 0.228253 0.0161237 0.189169
693 4 0.230063 0.0844777 0.221857
689 4 0.168181 0.0212496 0.241119
688 2 0.18408 0.00369452 0.233106
652 2 0.285653 0.0221335 0.185917
653 4 0.307602 0.0145729 0.195204
654 4 0.263704 0.029694 0.176629
25 3 0.321933 0.0528798 0.242497
311 4 0.381911 0.0723303 0.192571
758 4 0.372811 0.0553882 0.195464
759 4 0.343472 0.0598936 0.235709
757 2 0.358141 0.0576409 0.215586
743 4 0.481275 0.068673 0.244306
379 2 0.995437 0.111474 0.19349
512 4 0.0171756 0.138696 0.204058
511 2 0.0361741 0.153733 0.210234
380 4 0.993473 0.0892118 0.182277
513 4 0.0551726 0.168769 0.21641
475 2 0.0956812 0.136567 0.170101
578 4 0.102066 0.0867813 0.242986
477 4 0.0888808 0.1473 0.191635
577 2 0.112185 0.0922981 0.220797
579 4 0.122305 0.0978149 0.198609
236 4 0.202707 0.109847 0.17037
235 2 0.224607 0.121856 0.171532
310 2 0.391459 0.0893194 0.176906
333 4 0.488667 0.0882577 0.246848
762 4 0.47444 0.154866 0.243617
521 4 0.49418 0.153377 0.245884
393 4 0.0603809 0.183844 0.228388
394 2 0.00750475 0.23482 0.226153
395 4 0.0287457 0.233243 0.213056
443 4 0.987459 0.247549 0.256004
546 4 0.168286 0.178234 0.245726
283 2 0.292352 0.23168 0.170802
285 4 0.31104 0.223893 0.185475
27 3 0.320639 0.183807 0.246475
764 4 0.326829 0.224308 0.17236
646 2 0.0563579 0.316373 0.168947
363 4 0.0848301 0.248267 0.192805
647 4 0.0729197 0.33458 0.173349
338 4 0.0900927 0.256931 0.175599
749 4 0.0991154 0.281757 0.231261
361 2 0.100125 0.261747 0.207281
371 4 0.15798 0.311801 0.201629
370 2 0.146294 0.292366 0.212159
372 4 0.134609 0.27293 0.222689
362 4 0.11542 0.275226 0.221756
344 4 0.24362 0.316204 0.254812
754 2 0.269219 0.285901 0.166863
756 4 0.275138 0.30412 0.182932
612 4 0.272157 0.317992 0.196611
610 2 0.25894 0.311555 0.216836
307 2 0.312806 0.286848 0.236563
308 4 0.311024 0.275835 0.214187
611 4 0.245723 0.305118 0.237061
264 4 0.0264966 0.412906 0.229968
303 4 0.315619 0.362099 0.194124
301 2 0.315643 0.350232 0.172116
729 4 0.332587 0.357255 0.198779
727 2 0.337168 0.374217 0.216569
644 4 0.411287 0.377609 0.238204
728 4 0.341749 0.391179 0.234359
596 4 0.468466 0.407716 0.156916
595 2 0.468376 0.406058 0.181865
597 4 0.468286 0.4044 0.206813
643 2 0.432476 0.385204 0.227319
645 4 0.453666 0.3928 0.216433
262 2 0.00406837 0.423254 0.233849
1465 2 0.0305937 0.49532 0.183642
1757 4 0.10115 0.457275 0.252375
1756 2 0.107727 0.478121 0.240237
638 4 0.26458 0.498619 0.172106
231 4 0.444207 0.455742 0.203343
229 2 0.442881 0.480401 0.207263
234 4 0.00457017 0.0400162 0.301305
232 2 0.0282832 0.0333799 0.296966
233 4 0.0519962 0.0267436 0.292626
1404 4 0.0685931 0.017549 0.292854
1402 2 0.0757691 0.00544654 0.272185
316 2 0.0740211 0.0495997 0.321036
317 4 0.0673201 0.0313409 0.305323
428 4 0.0739572 0.0130583 0.310524
675 4 0.103848 0.99624 0.249055
692 4 0.240791 0.0778473 0.270248
23 3 0.333838 0.0510923 0.278172
21 1 0.332118 0.0644384 0.259269
22 3 0.353248 0.0705355 0.252523
351 4 0.425146 0.0691374 0.26786
349 2 0.408725 0.0820556 0.254125
699 4 0.361764 0.0642802 0.306897
697 2 0.3788 0.058353 0.324211
479 4 0.470855 0.0436111 0.307642
478 2 0.450116 0.0518841 0.29639
2664 4 0.482466 0.0344254 0.321736
480 4 0.429377 0.060157 0.285137
397 2 0.0699925 0.105323 0.334021
398 4 0.0695051 0.128516 0.324692
723 4 0.241747 0.0970061 0.276437
721 2 0.24089 0.102113 0.300899
722 4 0.240034 0.107219 0.32536
404 4 0.252871 0.135066 0.330477
28 3 0.309158 0.148088 0.248703
24 3 0.31999 0.083601 0.264178
26 1 0.318659 0.165673 0.260488
403 2 0.249854 0.159134 0.32441
632 4 0.374872 0.100825 0.244985
29 3 0.33977 0.159672 0.268019
631 2 0.369405 0.119315 0.260903
350 4 0.392303 0.0949738 0.240391
707 4 0.351138 0.152067 0.282284
633 4 0.363937 0.137806 0.276822
706 2 0.358693 0.147825 0.305738
708 4 0.366247 0.143583 0.329193
331 2 0.486108 0.113125 0.246338
332 4 0.483549 0.137992 0.245829
391 2 0.0726862 0.193534 0.247878
392 4 0.0849915 0.203223 0.267369
388 2 0.121572 0.222741 0.313392
389 4 0.130949 0.209439 0.332374
390 4 0.112196 0.236043 0.29441
545 4 0.170199 0.203135 0.28905
544 2 0.169243 0.190684 0.267388
402 4 0.178678 0.221829 0.289188
400 2 0.185573 0.242849 0.300841
30 3 0.305404 0.171252 0.278147
405 4 0.246837 0.183201 0.318342
473 4 0.256298 0.199201 0.328791
717 4 0.418508 0.218282 0.31929
761 4 0.448139 0.188565 0.269567
760 2 0.46129 0.171716 0.256592
748 2 0.0981598 0.300311 0.247995
750 4 0.0972043 0.318865 0.264729
401 4 0.192468 0.263868 0.312495
676 2 0.189281 0.31954 0.311469
345 4 0.221437 0.311983 0.299431
677 4 0.202899 0.316284 0.290754
343 2 0.232529 0.314093 0.277122
735 4 0.201892 0.330277 0.276885
496 2 0.29885 0.309774 0.296721
497 4 0.284985 0.311573 0.317451
377 4 0.275127 0.295917 0.324081
498 4 0.312715 0.307974 0.275992
309 4 0.314589 0.297861 0.25894
376 2 0.26883 0.27609 0.337952
365 4 0.0229019 0.365039 0.293495
601 2 0.048325 0.383226 0.308819
603 4 0.0289594 0.36786 0.312565
602 4 0.0676906 0.398592 0.305072
549 4 0.0677421 0.410414 0.322381
364 2 0.997945 0.364538 0.294931
299 4 0.151732 0.35906 0.248404
300 4 0.112908 0.330218 0.261114
298 2 0.13232 0.344639 0.254759
734 4 0.17107 0.361194 0.252494
733 2 0.186481 0.345735 0.26469
433 2 0.294325 0.383061 0.325337
435 4 0.273665 0.392271 0.314682
434 4 0.314985 0.37385 0.335991
543 4 0.393966 0.33624 0.336801
615 4 0.374483 0.340664 0.330397
447 4 0.398231 0.382183 0.252391
614 4 0.328353 0.35966 0.333846
613 2 0.351418 0.350162 0.332122
445 2 0.377255 0.378387 0.265459
446 4 0.356279 0.374591 0.278527
2461 2 0.0133 0.494937 0.32391
777 4 0.120226 0.483577 0.278783
775 2 0.120159 0.491498 0.302499
776 4 0.120092 0.499419 0.326214
1437 4 0.26649 0.458387 0.320048
1435 2 0.260275 0.482474 0.317526
1436 4 0.254059 0.506561 0.315004
3 3 0.306155 0.456759 0.337188
1803 4 0.333968 0.479767 0.259964
436 2 0.348263 0.461253 0.327183
437 4 0.369257 0.45743 0.314154
118 3 0.492344 0.415209 0.328009
119 3 0.487285 0.451287 0.317182
116 1 0.494921 0.437434 0.334158
318 4 0.080722 0.0678586 0.336749
399 4 0.0704799 0.0821304 0.343351
369 4 0.05321 0.00436757 0.410143
367 2 0.0780585 0.00381262 0.412868
732 4 0.0870871 0.075317 0.353165
730 2 0.111854 0.0758976 0.35655
731 4 0.136621 0.0764783 0.359934
368 4 0.102907 0.00325768 0.415593
1700 4 0.326224 0.0171677 0.363217
683 4 0.276316 0.0840125 0.366688
425 4 0.328044 0.0301578 0.405206
698 4 0.395837 0.0524258 0.341526
257 4 0.409368 0.0387098 0.350055
426 4 0.376562 0.0296219 0.393106
424 2 0.352303 0.0298898 0.399156
1428 4 0.471818 0.0191115 0.32974
258 4 0.452738 0.0193975 0.334347
256 2 0.431053 0.0290536 0.342201
2586 4 0.00732955 0.134179 0.398829
2584 2 0.00745306 0.119541 0.378558
2585 4 0.00757657 0.104904 0.358287
606 4 0.146348 0.0834732 0.376143
600 4 0.149161 0.151134 0.337641
604 2 0.171023 0.0859099 0.379371
249 4 0.238971 0.12085 0.340597
605 4 0.195697 0.0883467 0.3826
248 4 0.206564 0.0930796 0.366661
247 2 0.222767 0.106965 0.353629
682 2 0.283188 0.0946909 0.388227
319 2 0.314373 0.135283 0.412619
684 4 0.290059 0.105369 0.409766
320 4 0.295503 0.121154 0.420952
321 4 0.333244 0.149412 0.404285
598 2 0.152889 0.166737 0.35682
599 4 0.156618 0.18234 0.375999
686 4 0.157398 0.187978 0.395457
275 4 0.166258 0.197117 0.364879
474 4 0.220197 0.229381 0.345719
276 4 0.210253 0.22075 0.362308
472 2 0.238247 0.214291 0.337255
274 2 0.188256 0.208934 0.363593
715 2 0.406426 0.20796 0.338595
466 2 0.390391 0.187152 0.40129
716 4 0.394345 0.197639 0.3579
467 4 0.392082 0.190336 0.376548
270 4 0.485099 0.23799 0.381684
452 4 0.452114 0.181639 0.387297
451 2 0.451774 0.175876 0.411625
269 4 0.459008 0.249885 0.340715
268 2 0.472054 0.243938 0.361199
419 4 0.447459 0.251468 0.32464
347 4 0.0586375 0.317564 0.403945
618 4 0.0715405 0.319213 0.388714
616 2 0.0949786 0.310534 0.387998
617 4 0.118417 0.301855 0.387283
374 4 0.128345 0.304301 0.369376
373 2 0.150851 0.308014 0.359135
678 4 0.175663 0.322796 0.332185
375 4 0.173356 0.311727 0.348893
509 4 0.22804 0.312311 0.369285
378 4 0.262533 0.256263 0.351823
508 2 0.249673 0.32437 0.365859
541 2 0.408403 0.316144 0.340387
420 4 0.41011 0.282731 0.335971
542 4 0.422841 0.296047 0.343972
418 2 0.428784 0.267099 0.330305
346 2 0.0416822 0.335577 0.400306
348 4 0.0247269 0.353589 0.396667
510 4 0.271307 0.336429 0.362434
336 4 0.333375 0.367371 0.408128
753 4 0.482908 0.40706 0.342942
561 4 0.487335 0.396582 0.396497
751 2 0.478133 0.396327 0.365015
752 4 0.473358 0.385595 0.387087
547 2 0.0811936 0.424146 0.338371
407 4 0.0904045 0.440585 0.373879
548 4 0.0946451 0.437878 0.354361
406 2 0.105221 0.447911 0.392641
501 4 0.0932894 0.488033 0.383379
500 4 0.120949 0.504939 0.345302
408 4 0.120037 0.455236 0.411402
569 4 0.11094 0.469478 0.421976
499 2 0.107119 0.496486 0.36434
1544 4 0.205168 0.486001 0.410771
5 3 0.291632 0.487924 0.352534
438 4 0.327268 0.465076 0.340213
1 1 0.306381 0.470849 0.355623
4 3 0.300826 0.458952 0.374754
2 3 0.327555 0.479485 0.358122
592 2 0.420883 0.485252 0.375884
588 4 0.409777 0.467125 0.410953
593 4 0.416841 0.482159 0.400365
594 4 0.424925 0.488344 0.351404
713 4 0.441935 0.493435 0.342871
714 4 0.475455 0.457534 0.333479
712 2 0.458695 0.475484 0.338175
117 3 0.482521 0.441387 0.353126
719 4 0.0480806 0.00864368 0.428566
441 4 0.316645 0.0206755 0.418694
962 4 0.317275 0.0227489 0.438755
961 2 0.311141 0.0352008 0.459552
963 4 0.305008 0.0476528 0.480349
458 4 0.0123017 0.133765 0.418031
457 2 0.029812 0.149265 0.42688
459 4 0.0473223 0.164766 0.435729
725 4 0.385982 0.107989 0.45545
724 2 0.404047 0.104983 0.438426
726 4 0.422111 0.101977 0.421402
642 4 0.49367 0.127188 0.458142
2880 4 0.490669 0.120198 0.440923
640 2 0.482029 0.131662 0.479813
305 4 0.495705 0.166094 0.422465
260 4 0.0621977 0.178519 0.436977
259 2 0.0850108 0.188673 0.435694
685 2 0.14141 0.196339 0.412768
687 4 0.125422 0.2047 0.430078
261 4 0.107824 0.198827 0.434412
1035 4 0.120693 0.207097 0.448583
1033 2 0.115502 0.220455 0.469072
1034 4 0.110312 0.233812 0.489562
489 4 0.321614 0.220032 0.445169
487 2 0.326024 0.243996 0.439561
468 4 0.388701 0.183967 0.426032
514 2 0.413203 0.174201 0.454521
411 4 0.339521 0.213953 0.45144
516 4 0.39056 0.182773 0.460765
409 2 0.36013 0.200102 0.448509
410 4 0.380738 0.18625 0.445579
575 4 0.388571 0.179946 0.481731
453 4 0.451434 0.170113 0.435953
515 4 0.435846 0.165629 0.448277
583 2 0.489072 0.238497 0.473639
585 4 0.474104 0.227779 0.456719
2847 4 0.0120311 0.317728 0.466227
695 4 0.045609 0.259432 0.482261
694 2 0.0699308 0.261837 0.487538
1258 2 0.124785 0.275055 0.487514
1259 4 0.138517 0.295695 0.484266
9 3 0.12779 0.312141 0.477802
696 4 0.0942527 0.264241 0.492814
1260 4 0.111052 0.254414 0.490763
857 4 0.224668 0.278567 0.496505
488 4 0.330434 0.26796 0.433953
266 4 0.354945 0.259166 0.448173
267 4 0.383909 0.287114 0.47785
265 2 0.369427 0.27314 0.463011
2845 2 0.00316604 0.341102 0.46669
326 4 0.062247 0.350362 0.437968
325 2 0.0707919 0.344634 0.460757
327 4 0.0793369 0.338906 0.483546
6 1 0.121048 0.333538 0.483729
7 3 0.0987665 0.33601 0.478575
711 4 0.124155 0.386976 0.440318
10 3 0.133175 0.348981 0.472193
709 2 0.148523 0.385803 0.445793
503 4 0.234535 0.388783 0.419578
504 4 0.189464 0.382126 0.440195
502 2 0.212 0.385455 0.429886
710 4 0.172892 0.384629 0.451268
772 2 0.297004 0.420409 0.473903
668 4 0.323664 0.385254 0.40922
667 2 0.317551 0.402789 0.425964
773 4 0.292951 0.406145 0.494035
335 4 0.376864 0.359789 0.43162
334 2 0.35512 0.36358 0.419874
238 2 0.397457 0.39711 0.42624
240 4 0.380289 0.379217 0.429449
239 4 0.414624 0.415003 0.423031
881 4 0.349062 0.393535 0.49872
880 2 0.359195 0.415947 0.494228
559 2 0.490893 0.393611 0.421067
3307 2 0.49629 0.390439 0.486511
560 4 0.494451 0.390639 0.445637
3309 4 0.49446 0.399102 0.463128
1381 2 0.0204406 0.4926 0.453934
1383 4 0.0334845 0.475601 0.441047
680 4 0.017207 0.466224 0.434299
679 2 0.00913223 0.444267 0.425475
384 4 0.126207 0.413931 0.460205
568 2 0.128788 0.486948 0.423171
383 4 0.116541 0.452817 0.430287
382 2 0.121374 0.433374 0.445246
1543 2 0.184469 0.493565 0.422583
1555 2 0.242804 0.497243 0.415477
1557 4 0.267413 0.493558 0.41792
635 4 0.311657 0.451764 0.45302
636 4 0.277031 0.479392 0.429814
634 2 0.294344 0.465578 0.441417
774 4 0.301057 0.434673 0.45377
669 4 0.311439 0.420324 0.442708
882 4 0.369329 0.43836 0.489737
663 4 0.448167 0.480821 0.4464
586 2 0.42072 0.445528 0.417197
587 4 0.431663 0.423931 0.42344
342 4 0.207391 0.0647648 0.515126
340 2 0.217565 0.0429712 0.508291
2430 4 0.216148 0.010455 0.512159
341 4 0.227738 0.0211776 0.501456
1032 4 0.239098 0.078337 0.579739
430 2 0.305338 0.0625892 0.512551
431 4 0.319295 0.0738598 0.529968
1031 4 0.286173 0.0617764 0.576511
843 4 0.329579 0.0776502 0.546543
1030 2 0.262635 0.0700567 0.578125
432 4 0.291381 0.0513185 0.495134
1217 4 0.394537 0.0580471 0.536439
1216 2 0.41667 0.0620953 0.525534
841 2 0.354082 0.0749988 0.542332
842 4 0.378586 0.0723474 0.538121
1218 4 0.438803 0.0661435 0.514629
470 4 0.0197983 0.149659 0.53158
938 4 0.0561668 0.142488 0.582308
1128 4 0.998361 0.100827 0.583966
1058 4 0.124111 0.0896362 0.544381
1057 2 0.117492 0.0996793 0.566301
1152 4 0.208553 0.0847628 0.521547
1151 4 0.222757 0.0808489 0.569334
1150 2 0.215655 0.0828058 0.54544
1181 4 0.231474 0.107223 0.527714
1180 2 0.242741 0.128885 0.522335
1182 4 0.254009 0.150548 0.516955
900 4 0.272683 0.14332 0.520324
898 2 0.291623 0.15919 0.524143
641 4 0.470388 0.136137 0.501484
469 2 0.0224554 0.169994 0.517276
471 4 0.0251125 0.190329 0.502972
1199 4 0.0254752 0.240155 0.567446
1198 2 0.000739859 0.240231 0.563794
878 4 0.0375229 0.241276 0.583252
1244 4 0.0563992 0.250631 0.583608
798 4 0.211306 0.255269 0.561519
796 2 0.236189 0.252876 0.562057
899 4 0.310563 0.175061 0.527961
649 2 0.275728 0.242498 0.506502
650 4 0.252497 0.233642 0.509158
576 4 0.399816 0.208383 0.521299
574 2 0.394194 0.194164 0.501515
3159 4 0.501175 0.164863 0.58273
983 4 0.0577923 0.308546 0.564577
1245 4 0.0651694 0.291182 0.55569
982 2 0.0348032 0.318368 0.564112
1243 2 0.0607843 0.270907 0.569649
984 4 0.0118141 0.328189 0.563647
858 4 0.186878 0.258913 0.522703
948 4 0.171407 0.293732 0.576761
856 2 0.205773 0.26874 0.509604
946 2 0.188059 0.275188 0.578755
804 4 0.268224 0.327026 0.527186
797 4 0.261072 0.250483 0.562594
792 4 0.293507 0.297921 0.582286
651 4 0.29896 0.251354 0.503846
1237 2 0.30339 0.327954 0.56372
791 4 0.27891 0.250992 0.573048
1238 4 0.288372 0.308 0.56493
790 2 0.286208 0.274456 0.577667
872 4 0.384696 0.252277 0.57999
871 2 0.389623 0.275346 0.571701
873 4 0.394549 0.298416 0.563413
813 4 0.392621 0.311798 0.548048
906 4 0.481106 0.303529 0.552489
953 4 0.468426 0.306417 0.567267
904 2 0.498859 0.289137 0.562633
3354 4 0.0131413 0.347794 0.568387
8 3 0.123864 0.336695 0.506544
1190 4 0.234728 0.362126 0.570613
803 4 0.242525 0.361875 0.552202
1189 2 0.221547 0.372073 0.589388
802 2 0.255374 0.34445 0.539694
930 4 0.325146 0.353606 0.580056
1239 4 0.318409 0.347908 0.562509
811 2 0.395013 0.336115 0.553354
812 4 0.397405 0.360432 0.55866
927 4 0.407049 0.376673 0.549436
929 4 0.356466 0.385465 0.557589
928 2 0.340806 0.369535 0.568822
926 4 0.447912 0.40548 0.550459
925 2 0.42748 0.391076 0.549947
538 2 0.0715871 0.463918 0.568861
540 4 0.0822149 0.47601 0.549729
1160 4 0.118161 0.477516 0.545286
1159 2 0.137467 0.477092 0.561169
1161 4 0.156773 0.476667 0.577052
2244 4 0.0995286 0.485801 0.542293
891 4 0.302145 0.433357 0.574113
889 2 0.319016 0.448793 0.584227
1953 4 0.390717 0.492622 0.565703
1951 2 0.373736 0.479486 0.57852
1000 2 0.451867 0.445096 0.562649
1001 4 0.450936 0.46549 0.577084
1911 4 0.452055 0.484323 0.586189
1002 4 0.452797 0.424701 0.548214
823 2 0.148583 0.0251543 0.640198
825 4 0.12896 0.0381591 0.631773
824 4 0.168206 0.0121495 0.648623
951 4 0.292675 0.0561078 0.593458
949 2 0.306472 0.0357943 0.598167
950 4 0.32027 0.0154809 0.602875
2283 4 0.390387 0.0247606 0.640311
2281 2 0.395899 0.002834 0.650989
3008 4 0.497043 0.044253 0.59604
809 4 0.477615 0.0447417 0.597917
808 2 0.470341 0.05602 0.619014
42 3 0.459467 0.0551567 0.658692
810 4 0.463067 0.0672983 0.64011
41 1 0.452635 0.077046 0.66052
43 3 0.430298 0.0774341 0.666789
1082 4 0.0614808 0.102825 0.655601
1076 4 0.0617073 0.0862622 0.666885
1126 2 0.022406 0.0953431 0.588082
1083 4 0.0524249 0.103612 0.606427
1081 2 0.0569529 0.103219 0.631014
1127 4 0.0464509 0.0898588 0.592198
937 2 0.0790657 0.133939 0.587575
939 4 0.101964 0.12539 0.592841
1155 4 0.119678 0.118495 0.60225
1059 4 0.110873 0.109722 0.588222
1153 2 0.138971 0.132607 0.609585
1154 4 0.158265 0.146719 0.616919
1221 4 0.16401 0.165759 0.61855
45 3 0.455244 0.0874221 0.640415
3425 4 0.469027 0.0959773 0.656487
3424 2 0.485479 0.114343 0.652336
877 2 0.0482214 0.218932 0.586638
879 4 0.0589198 0.196588 0.590025
1272 4 0.0757943 0.185165 0.588479
1271 4 0.121251 0.205309 0.583129
1270 2 0.0985226 0.195237 0.585804
1212 4 0.202049 0.180295 0.667161
1219 2 0.174895 0.176108 0.63854
1220 4 0.185779 0.186457 0.65853
1210 2 0.22683 0.180463 0.663841
1211 4 0.251612 0.180631 0.660522
888 4 0.268073 0.176649 0.649932
886 2 0.292171 0.18184 0.654117
887 4 0.316269 0.187031 0.658302
1194 4 0.330764 0.200285 0.654378
1193 4 0.378163 0.184412 0.655842
1192 2 0.354463 0.192349 0.65511
1136 4 0.163604 0.300632 0.594868
1135 2 0.151091 0.321937 0.598703
947 4 0.204711 0.256643 0.580749
807 4 0.316099 0.30872 0.661358
805 2 0.328696 0.330244 0.659558
952 2 0.454165 0.320633 0.58209
954 4 0.439903 0.334848 0.596912
1039 2 0.0549136 0.384394 0.609036
1041 4 0.0352376 0.377768 0.622969
3264 4 0.0314578 0.381556 0.642494
3262 2 0.032581 0.362624 0.658788
3240 4 0.013302 0.389613 0.643244
1040 4 0.0745895 0.39102 0.595103
897 4 0.14658 0.359148 0.608632
993 4 0.0939937 0.389994 0.600361
1137 4 0.138578 0.343242 0.602538
991 2 0.113563 0.374782 0.597068
992 4 0.133132 0.359571 0.593775
895 2 0.168303 0.370933 0.612432
1172 4 0.219528 0.398802 0.610046
1191 4 0.208366 0.382021 0.608163
896 4 0.190025 0.382717 0.616231
806 4 0.341292 0.351768 0.657758
1206 4 0.401702 0.399124 0.661085
539 4 0.0609592 0.451827 0.587993
1188 4 0.162239 0.483102 0.595892
1186 2 0.170168 0.463846 0.60973
1171 2 0.207798 0.420426 0.614514
1173 4 0.196068 0.44205 0.618983
1187 4 0.178097 0.444589 0.623569
1139 4 0.247973 0.458306 0.659961
1230 4 0.326482 0.43501 0.653359
1204 2 0.402211 0.422321 0.651768
890 4 0.335886 0.46423 0.594341
1952 4 0.356755 0.46635 0.591337
1205 4 0.40272 0.445519 0.642452
1269 4 0.461204 0.481639 0.611047
1267 2 0.462395 0.492598 0.633489
945 4 0.0474179 0.0217735 0.687768
943 2 0.0545006 0.044975 0.681709
944 4 0.0615832 0.0681764 0.675651
1283 4 0.128491 0.0564991 0.674783
1147 2 0.224154 0.0573874 0.728653
1148 4 0.221268 0.0734095 0.709676
1149 4 0.227039 0.0413654 0.747631
1092 4 0.33051 0.00509684 0.697612
1163 4 0.469893 0.0659934 0.67592
1162 2 0.488657 0.0542595 0.687557
864 4 0.0485483 0.110441 0.722025
1075 2 0.0584786 0.10195 0.686086
1077 4 0.0552499 0.117637 0.705286
1107 4 0.0607867 0.125266 0.722336
851 4 0.0603829 0.137171 0.707878
850 2 0.0609231 0.15723 0.69296
862 2 0.0307515 0.103292 0.738066
1282 2 0.134271 0.0805779 0.678244
1105 2 0.0815334 0.127899 0.736041
1284 4 0.140051 0.104657 0.681706
909 4 0.139072 0.122362 0.72335
907 2 0.162515 0.129596 0.718527
1106 4 0.10228 0.130532 0.749745
1226 4 0.224887 0.0922598 0.711395
908 4 0.185958 0.13683 0.713704
1227 4 0.202252 0.136032 0.70289
1225 2 0.21357 0.114146 0.707143
829 2 0.329297 0.155805 0.685656
1004 4 0.387899 0.0905848 0.714527
1003 2 0.369587 0.106879 0.709592
1005 4 0.351274 0.123172 0.704657
831 4 0.342054 0.139798 0.700016
44 3 0.465568 0.08762 0.676624
852 4 0.0614634 0.177289 0.678043
1177 2 0.00852174 0.243821 0.690536
1073 4 0.0964648 0.217363 0.743906
1072 2 0.0967101 0.229817 0.722226
830 4 0.316539 0.171812 0.671296
1144 2 0.502161 0.180135 0.728772
1025 4 0.437644 0.189554 0.680374
1262 4 0.470868 0.200534 0.730646
1142 4 0.4651 0.171825 0.73953
1024 2 0.449479 0.186629 0.702204
1026 4 0.461315 0.183705 0.724034
1261 2 0.470965 0.225412 0.733146
1145 4 0.477342 0.182856 0.730103
1179 4 0.0248215 0.25652 0.676457
1074 4 0.0969555 0.24227 0.700546
1209 4 0.123221 0.302522 0.700771
1207 2 0.111728 0.280895 0.705806
1208 4 0.100235 0.259268 0.710841
821 4 0.139211 0.314204 0.69493
820 2 0.162927 0.306432 0.696463
822 4 0.186643 0.29866 0.697995
1063 2 0.220501 0.297537 0.698089
1064 4 0.199435 0.284909 0.693404
1065 4 0.241567 0.310164 0.702775
1263 4 0.471063 0.25029 0.735646
3123 4 0.482357 0.247243 0.653251
3263 4 0.0337041 0.343692 0.675082
892 2 0.0172785 0.3577 0.756414
894 4 0.0238897 0.369315 0.735282
1280 4 0.0406618 0.368573 0.722439
1279 2 0.0487688 0.389815 0.712034
816 4 0.0588579 0.360467 0.724759
814 2 0.0808898 0.349904 0.730069
815 4 0.102922 0.339341 0.735379
942 4 0.115833 0.350339 0.746476
1028 4 0.235135 0.383269 0.725059
1066 2 0.193235 0.382152 0.743125
1068 4 0.215456 0.37971 0.731925
1027 2 0.242966 0.406861 0.72236
1018 2 0.383939 0.405462 0.761448
1020 4 0.406506 0.402232 0.751178
1281 4 0.0568759 0.411056 0.701629
1983 4 0.0660147 0.42872 0.704693
1981 2 0.0657758 0.450455 0.717051
1982 4 0.0655368 0.47219 0.72941
2172 4 0.115288 0.499709 0.686322
1029 4 0.250798 0.430452 0.719661
1140 4 0.248202 0.428276 0.699947
2016 4 0.175363 0.494713 0.73843
1138 2 0.248087 0.443291 0.679954
1987 2 0.328516 0.469934 0.722697
1228 2 0.334496 0.443377 0.675517
1988 4 0.311443 0.469272 0.740952
1229 4 0.34251 0.451743 0.697675
1989 4 0.345589 0.470595 0.704442
1101 4 0.454753 0.502213 0.673
2991 4 0.029717 0.0327368 0.773247
2989 2 0.0230158 0.0566026 0.769976
2990 4 0.0163146 0.0804684 0.766706
2049 4 0.118209 0.0425274 0.770641
1202 4 0.108626 0.057089 0.761663
1201 2 0.11067 0.0806874 0.76967
2047 2 0.129732 0.020437 0.772741
1257 4 0.235362 0.0891717 0.752354
1255 2 0.237213 0.091933 0.777136
817 2 0.317855 0.0413328 0.812396
819 4 0.309764 0.0600186 0.826906
1085 4 0.311635 0.0779659 0.829938
818 4 0.325947 0.0226469 0.797885
975 4 0.390901 0.016124 0.818431
1050 4 0.355773 0.00402838 0.784445
974 4 0.345361 0.0145695 0.79783
1113 4 0.417178 0.0616628 0.773533
973 2 0.368131 0.0153468 0.808131
2322 4 0.498363 0.0539761 0.760384
1111 2 0.439724 0.0620774 0.784336
845 4 0.482142 0.063825 0.793378
1112 4 0.46227 0.0624919 0.795139
844 2 0.488872 0.0838374 0.779984
3083 4 0.998796 0.0867336 0.762578
863 4 0.0129547 0.0961433 0.754108
833 4 0.0116227 0.0979449 0.773087
832 2 0.0130299 0.116918 0.789311
834 4 0.0144371 0.135891 0.805534
1125 4 0.0195829 0.151423 0.819026
1123 2 0.0403508 0.145376 0.831568
1203 4 0.112713 0.104286 0.777677
911 4 0.102445 0.123428 0.810202
34 3 0.11343 0.124467 0.7662
31 1 0.118258 0.128691 0.788499
35 3 0.102889 0.143077 0.797187
32 3 0.117518 0.10887 0.800151
33 3 0.13954 0.137732 0.790421
910 2 0.0912877 0.118518 0.832033
1256 4 0.239065 0.0946942 0.801918
840 4 0.251052 0.0951592 0.818762
1084 2 0.314831 0.0955178 0.81242
1086 4 0.318028 0.11307 0.794902
47 3 0.412742 0.159165 0.82089
1143 4 0.431466 0.175803 0.776322
48 3 0.43253 0.162809 0.789144
1130 4 0.132524 0.232696 0.794664
1129 2 0.155835 0.22956 0.786184
1131 4 0.179147 0.226423 0.777704
1277 4 0.197679 0.227811 0.768335
978 4 0.249016 0.201221 0.769984
1276 2 0.212484 0.247849 0.770448
977 4 0.294933 0.220792 0.766924