ITEM: TIMESTEP
1320000
ITEM: NUMBER OF ATOMS
4590
ITEM: BOX BOUNDS pp pp pp
-9.9985700000000008e+00 9.9985700000000008e+00
-9.9985700000000008e+00 9.9985700000000008e+00
-9.9985700000000008e+00 9.9985700000000008e+00
ITEM: ATOMS id type xs ys zs
1666 2 0.0730964 0.0656179 0.0747125
1668 4 0.0611857 0.0541896 0.0559319
297 4 0.340678 0.0530992 0.052279
295 2 0.350226 0.0714568 0.0382428
486 4 0.388513 0.0229999 0.0789379
747 4 0.464451 0.0597401 0.00909558
2974 2 0.463798 0.0258661 0.0337168
2976 4 0.472552 0.00819792 0.0490917
2975 4 0.455045 0.0435342 0.0183419
745 2 0.452769 0.0799105 0.0181436
296 4 0.359774 0.0898144 0.0242065
358 2 0.344074 0.167821 0.0706017
557 4 0.373376 0.0914273 0.0106939
556 2 0.397739 0.0947351 0.0152405
769 2 0.3879 0.144591 0.0380919
770 4 0.377082 0.165216 0.0471907
771 4 0.398718 0.123967 0.028993
827 4 0.355732 0.0829284 0.00650218
558 4 0.422102 0.098043 0.019787
746 4 0.441088 0.100081 0.0271915
566 4 0.145578 0.170839 0.0274679
565 2 0.170078 0.175821 0.0278368
567 4 0.194577 0.180802 0.0282057
359 4 0.362082 0.174385 0.0545459
664 2 0.388562 0.200991 0.0481316
665 4 0.373965 0.182526 0.0396975
666 4 0.403159 0.219457 0.0565657
555 4 0.0931903 0.278505 0.0452469
553 2 0.0847726 0.270524 0.0230969
286 2 0.14184 0.336597 0.0281514
287 4 0.160059 0.319478 0.0285674
293 4 0.164175 0.301282 0.0263841
292 2 0.168321 0.279082 0.0156532
507 4 0.164697 0.306559 0.0442368
505 2 0.180588 0.303895 0.0633563
506 4 0.196479 0.301231 0.0824757
481 2 0.236456 0.289412 0.0695116
483 4 0.214924 0.29253 0.0818338
573 4 0.257181 0.26855 0.047201
482 4 0.257988 0.286294 0.0571894
571 2 0.259683 0.27153 0.0225021
322 2 0.39694 0.282826 0.0557578
1069 2 0.385315 0.303965 0.00754478
324 4 0.39408 0.290457 0.0321196
1070 4 0.404569 0.288972 0.0129917
741 4 0.354951 0.32544 0.0363433
957 4 0.352965 0.322915 0.0175855
955 2 0.335603 0.32721 0.000113037
1071 4 0.366061 0.318958 0.00209782
671 4 0.461237 0.309906 0.0608642
280 2 0.443132 0.291317 0.0304404
281 4 0.463428 0.299155 0.0427609
282 4 0.422836 0.283478 0.0181199
670 2 0.44843 0.326282 0.0747567
288 4 0.123621 0.353716 0.0277355
454 2 0.152047 0.365819 0.0802509
552 4 0.110468 0.368794 0.0787944
456 4 0.175665 0.363852 0.0722818
250 2 0.279668 0.401231 0.0321364
251 4 0.25903 0.400262 0.0180542
252 4 0.300306 0.402199 0.0462186
739 2 0.366411 0.329157 0.0582529
740 4 0.377871 0.332874 0.0801626
495 4 0.396383 0.368782 0.0701993
493 2 0.39151 0.393294 0.0694384
14 3 0.390559 0.352683 0.0769419
4210 2 0.0340553 0.498642 0.993833
245 4 0.234077 0.438267 0.0483002
626 4 0.217449 0.440139 0.059762
625 2 0.201765 0.453254 0.074156
244 2 0.246338 0.449358 0.0295428
1778 4 0.231703 0.491566 0.0321473
609 4 0.295691 0.415278 0.0609966
246 4 0.258598 0.46045 0.0107853
272 4 0.277746 0.454141 0.00568182
607 2 0.313872 0.425922 0.0744626
494 4 0.386637 0.417806 0.0686775
1672 2 0.399257 0.497095 0.0363625
1673 4 0.376161 0.506243 0.0335228
563 4 0.474143 0.459422 0.0370925
228 4 0.490021 0.455089 0.0486145
562 2 0.451171 0.467146 0.0309463
564 4 0.428199 0.474871 0.0248002
854 4 0.428435 0.471071 0.00582762
1674 4 0.422353 0.487946 0.0392023
19 3 0.0557978 0.0738664 0.161388
18 3 0.0753014 0.0480218 0.141487
16 1 0.0634865 0.0519762 0.161061
1667 4 0.0850071 0.0770461 0.0934931
701 4 0.0827074 0.0703854 0.111825
17 3 0.0454342 0.0377412 0.161856
1475 4 0.2792 0.0134831 0.0860784
492 4 0.272318 0.029958 0.0946623
491 4 0.283817 0.0583834 0.134165
490 2 0.278067 0.0441707 0.114414
484 2 0.381448 0.00435837 0.0940297
2723 4 0.448986 0.0643065 0.147735
2722 2 0.469931 0.0518965 0.153433
2724 4 0.490877 0.0394865 0.15913
700 2 0.0915966 0.090507 0.123712
476 4 0.107176 0.106713 0.154575
702 4 0.100486 0.110629 0.135598
360 4 0.326066 0.161256 0.0866575
581 4 0.284896 0.117951 0.154234
580 2 0.26333 0.1294 0.159621
628 2 0.38852 0.136006 0.14433
630 4 0.385226 0.15918 0.13554
312 4 0.408066 0.106671 0.162816
629 4 0.391814 0.112831 0.15312
337 2 0.0803536 0.232043 0.159209
2625 4 0.00624413 0.170656 0.115655
339 4 0.087504 0.213944 0.14351
737 4 0.201039 0.201337 0.109819
736 2 0.207818 0.225098 0.105993
738 4 0.214597 0.248859 0.102166
461 4 0.302321 0.224105 0.110394
460 2 0.327227 0.223875 0.112586
354 4 0.283443 0.234074 0.113124
352 2 0.276648 0.23981 0.136493
353 4 0.269853 0.245547 0.159862
462 4 0.352133 0.223644 0.114777
254 4 0.378044 0.169275 0.118851
255 4 0.368326 0.217893 0.125372
253 2 0.373185 0.193584 0.122112
765 4 0.368891 0.232187 0.138955
624 4 0.364358 0.236419 0.121201
763 2 0.355158 0.232348 0.15985
622 2 0.376591 0.24744 0.102385
648 4 0.0484407 0.323247 0.151907
537 4 0.18642 0.310591 0.0980162
536 4 0.193702 0.335849 0.140557
535 2 0.190061 0.32322 0.119287
755 4 0.263455 0.262318 0.166373
387 4 0.321787 0.328216 0.118525
302 4 0.329635 0.330559 0.137193
301 2 0.326175 0.331547 0.161936
323 4 0.399801 0.275195 0.0793959
623 4 0.388824 0.258461 0.0835676
385 2 0.344136 0.329056 0.107345
15 3 0.383308 0.324962 0.101368
386 4 0.366485 0.329897 0.0961657
528 4 0.464998 0.275403 0.0984173
518 4 0.484834 0.274318 0.097285
526 2 0.463462 0.274023 0.123335
527 4 0.461927 0.272643 0.148254
104 3 0.488935 0.341401 0.123683
551 4 0.0849451 0.354879 0.119484
455 4 0.128429 0.367786 0.08822
550 2 0.0977068 0.361836 0.0991391
12 3 0.417926 0.338614 0.0985232
11 1 0.395536 0.343842 0.0978098
13 3 0.390954 0.359474 0.114334
672 4 0.435624 0.342657 0.0886493
1791 4 0.0495792 0.468492 0.135118
1466 4 0.0493753 0.474834 0.15492
1789 2 0.0525175 0.491511 0.125808
417 4 0.16277 0.459264 0.131472
627 4 0.186082 0.46637 0.08855
291 4 0.215182 0.420293 0.148466
416 4 0.202106 0.428461 0.133612
415 2 0.182438 0.443863 0.132542
289 2 0.239347 0.425954 0.151494
768 4 0.270773 0.442478 0.170582
290 4 0.263512 0.431614 0.154522
608 4 0.332052 0.436567 0.0879286
767 4 0.27322 0.491673 0.161948
766 2 0.271997 0.467075 0.166265
525 4 0.381567 0.482291 0.14715
658 2 0.362523 0.431488 0.0970589
659 4 0.340284 0.439276 0.105421
660 4 0.384763 0.4237 0.0886965
523 2 0.365071 0.495055 0.13336
524 4 0.348576 0.507818 0.11957
20 3 0.0768462 0.0481626 0.179106
2480 4 0.0317748 0.0407874 0.175862
1422 4 0.0220112 0.0240999 0.176967
2479 2 0.0140576 0.0551517 0.186106
675 4 0.095419 0.0139657 0.244079
674 4 0.138325 0.0267602 0.221805
673 2 0.116872 0.0203629 0.232942
689 4 0.154905 0.016975 0.225762
578 4 0.129979 0.0527079 0.215025
577 2 0.12445 0.0741593 0.20343
450 4 0.163881 0.0534864 0.183812
448 2 0.173919 0.0753092 0.17687
1506 4 0.25051 0.0230833 0.18292
1504 2 0.233103 0.0051777 0.184182
688 2 0.177459 0.00980371 0.217696
654 4 0.266693 0.0284823 0.19306
652 2 0.289755 0.0313775 0.183845
653 4 0.312817 0.0342728 0.174629
24 3 0.317221 0.0759574 0.242634
25 3 0.345078 0.0507962 0.239705
311 4 0.39954 0.0589913 0.175253
758 4 0.389373 0.0590758 0.193323
759 4 0.358648 0.0674366 0.231882
757 2 0.37401 0.0632562 0.212602
381 4 0.996496 0.136433 0.211716
512 4 0.00233067 0.146058 0.227708
511 2 0.0252823 0.155901 0.226471
475 2 0.102466 0.125842 0.169972
477 4 0.0977557 0.14497 0.18537
579 4 0.118922 0.0956106 0.191835
449 4 0.183956 0.0971319 0.169928
237 4 0.228672 0.14075 0.179956
691 2 0.221456 0.109414 0.23664
693 4 0.217308 0.122208 0.215562
236 4 0.185757 0.115293 0.176653
235 2 0.207214 0.128022 0.178304
582 4 0.241764 0.140849 0.165008
22 3 0.353106 0.0871334 0.242542
310 2 0.403803 0.082831 0.169035
28 3 0.327904 0.140761 0.245818
762 4 0.481215 0.149995 0.248761
521 4 0.490048 0.156826 0.231465
332 4 0.491257 0.138891 0.237044
760 2 0.462694 0.166477 0.251996
333 4 0.48234 0.090293 0.244755
331 2 0.486799 0.114592 0.2409
513 4 0.0482339 0.165743 0.225234
393 4 0.0541106 0.160967 0.244563
394 2 0.011719 0.231036 0.232797
395 4 0.0252053 0.231539 0.211748
546 4 0.153111 0.196418 0.248925
277 2 0.238168 0.234381 0.179246
279 4 0.215588 0.223946 0.181772
284 4 0.280376 0.238874 0.17437
283 2 0.303121 0.236653 0.184515
285 4 0.325865 0.234433 0.194661
27 3 0.33307 0.177802 0.242092
278 4 0.260749 0.244817 0.176719
764 4 0.341426 0.23251 0.180744
338 4 0.0732032 0.250142 0.174909
646 2 0.0607319 0.323141 0.173681
363 4 0.0861503 0.266672 0.176401
749 4 0.0908051 0.299615 0.223279
361 2 0.0963451 0.281277 0.193949
370 2 0.146289 0.290937 0.224658
372 4 0.121295 0.290504 0.224109
362 4 0.10654 0.295883 0.211497
748 2 0.0909932 0.314048 0.243696
371 4 0.171282 0.291369 0.225208
754 2 0.267723 0.282611 0.180343
756 4 0.271991 0.302903 0.194314
612 4 0.264022 0.320185 0.198045
610 2 0.257332 0.315496 0.221677
307 2 0.31553 0.294736 0.220313
308 4 0.327386 0.296514 0.19837
611 4 0.250642 0.310807 0.245308
647 4 0.0730231 0.323036 0.195455
734 4 0.166339 0.362377 0.24915
303 4 0.322714 0.332535 0.186679
729 4 0.309781 0.346419 0.194057
727 2 0.305619 0.367451 0.206922
728 4 0.301456 0.388483 0.219787
447 4 0.409731 0.38839 0.235106
445 2 0.390642 0.399096 0.247195
596 4 0.499435 0.401191 0.160852
644 4 0.428979 0.386851 0.236818
595 2 0.479955 0.394144 0.174854
597 4 0.460476 0.387097 0.188857
643 2 0.434534 0.385538 0.212475
645 4 0.440088 0.384225 0.188131
264 4 0.0187582 0.416926 0.213893
1465 2 0.0396455 0.477224 0.177828
1467 4 0.0299157 0.479614 0.200737
1758 4 0.104818 0.480575 0.238417
1756 2 0.114626 0.458676 0.231385
1757 4 0.124433 0.436778 0.224353
1775 4 0.0913269 0.49573 0.245879
231 4 0.456249 0.476924 0.204505
229 2 0.45049 0.498376 0.193022
232 2 0.0229789 0.0365883 0.302981
233 4 0.0456615 0.0375686 0.292507
1404 4 0.0552507 0.0222118 0.297679
1402 2 0.0676123 0.0174226 0.276479
316 2 0.0701508 0.0587912 0.317086
317 4 0.0599666 0.0386205 0.306381
428 4 0.0650884 0.0213273 0.314367
1403 4 0.0799739 0.0126333 0.255279
21 1 0.338761 0.0704653 0.249289
23 3 0.339693 0.0686676 0.272404
699 4 0.36023 0.0782412 0.325333
351 4 0.422378 0.0665635 0.26846
1426 2 0.463111 0.996444 0.326943
479 4 0.451628 0.0318163 0.309486
478 2 0.439897 0.0398848 0.288932
2664 4 0.47067 0.0315075 0.310244
480 4 0.428166 0.0479533 0.268379
1428 4 0.45857 0.0199758 0.319815
258 4 0.447244 0.0329739 0.328959
2662 2 0.493921 0.0363769 0.302442
391 2 0.0760505 0.158536 0.256307
392 4 0.0979904 0.156104 0.26805
692 4 0.225604 0.0966202 0.257719
723 4 0.240036 0.101653 0.27011
721 2 0.239475 0.112036 0.292849
722 4 0.238913 0.12242 0.315588
403 2 0.254934 0.153579 0.332938
30 3 0.306121 0.165087 0.264564
26 1 0.327185 0.161163 0.256846
632 4 0.377801 0.103383 0.26478
350 4 0.390326 0.100069 0.249731
631 2 0.361215 0.122063 0.263706
707 4 0.348333 0.146562 0.283486
633 4 0.344629 0.140743 0.262632
706 2 0.357024 0.158342 0.303756
29 3 0.342219 0.161148 0.27452
708 4 0.365715 0.170122 0.324026
349 2 0.406352 0.0833163 0.259095
388 2 0.111934 0.242432 0.320703
389 4 0.116133 0.225008 0.303269
544 2 0.166681 0.199621 0.26968
545 4 0.18025 0.202824 0.290436
402 4 0.18267 0.222573 0.293519
400 2 0.18936 0.246137 0.298534
405 4 0.24907 0.177376 0.327991
473 4 0.257047 0.193947 0.335735
717 4 0.418458 0.18504 0.333768
761 4 0.444172 0.18296 0.255231
419 4 0.462104 0.255035 0.327516
390 4 0.107734 0.259855 0.338138
750 4 0.0911814 0.328481 0.264112
401 4 0.196051 0.269701 0.303549
676 2 0.180864 0.319838 0.308125
345 4 0.209109 0.322859 0.296451
677 4 0.193185 0.331836 0.289974
343 2 0.227122 0.316585 0.280284
344 4 0.245134 0.310311 0.264117
496 2 0.285724 0.291542 0.278554
497 4 0.267484 0.289667 0.295553
377 4 0.273371 0.279948 0.312642
498 4 0.303963 0.293418 0.261554
309 4 0.303675 0.292959 0.242255
420 4 0.420583 0.282807 0.329858
418 2 0.441343 0.268921 0.328687
365 4 0.032214 0.352914 0.28476
601 2 0.0640262 0.374064 0.309288
603 4 0.047565 0.360686 0.29605
602 4 0.0804874 0.387442 0.322525
364 2 0.0122627 0.367854 0.286738
299 4 0.148299 0.361382 0.257354
300 4 0.102121 0.345166 0.267616
298 2 0.12521 0.353274 0.262485
735 4 0.19278 0.325866 0.270794
733 2 0.179559 0.344122 0.259972
433 2 0.313076 0.378628 0.315123
435 4 0.289066 0.38298 0.320581
434 4 0.337085 0.374275 0.309666
614 4 0.33854 0.355639 0.318339
613 2 0.357613 0.344174 0.32974
446 4 0.371553 0.409802 0.259285
777 4 0.138355 0.479526 0.271775
775 2 0.128329 0.482697 0.294459
776 4 0.118303 0.485867 0.317144
1435 2 0.237047 0.456869 0.320969
1436 4 0.252157 0.469602 0.305648
1437 4 0.221936 0.444137 0.33629
413 4 0.257108 0.487826 0.298773
437 4 0.377633 0.465966 0.322184
1803 4 0.364962 0.501377 0.246522
119 3 0.492978 0.455782 0.316121
118 3 0.497553 0.420835 0.33034
318 4 0.080335 0.0789619 0.327792
732 4 0.0926116 0.0732632 0.341025
730 2 0.112433 0.0653331 0.354041
731 4 0.132254 0.057403 0.367057
606 4 0.148605 0.0658572 0.360601
1701 4 0.319207 0.0144198 0.377813
1699 2 0.306249 0.0243225 0.358859
1700 4 0.293292 0.0342251 0.339906
425 4 0.329445 0.0164612 0.396032
441 4 0.317733 0.0155484 0.413556
697 2 0.376567 0.0651925 0.339046
698 4 0.392903 0.0521437 0.352758
426 4 0.377474 0.0286848 0.402708
424 2 0.353459 0.022573 0.39937
257 4 0.410567 0.0462421 0.360255
726 4 0.428096 0.0706339 0.406182
256 2 0.428905 0.039608 0.344607
399 4 0.0778746 0.0848333 0.346356
397 2 0.0738694 0.109213 0.350197
398 4 0.0698642 0.133593 0.354038
2586 4 0.0179874 0.146017 0.37531
458 4 0.0354174 0.149454 0.386315
457 2 0.0470572 0.15177 0.408322
598 2 0.136869 0.154095 0.357443
600 4 0.126304 0.133422 0.348159
249 4 0.241907 0.122541 0.335316
604 2 0.169785 0.0791013 0.359515
605 4 0.190965 0.0923454 0.358428
248 4 0.210942 0.0902395 0.357643
247 2 0.226425 0.10639 0.34648
404 4 0.260798 0.129781 0.337884
683 4 0.261954 0.0989678 0.35916
682 2 0.268886 0.106125 0.382092
319 2 0.310455 0.129658 0.411558
684 4 0.275819 0.113282 0.405025
321 4 0.332937 0.13805 0.404534
725 4 0.399542 0.109873 0.418252
724 2 0.413819 0.0902532 0.412217
599 4 0.147434 0.174768 0.366727
686 4 0.143308 0.183149 0.384733
685 2 0.132403 0.188119 0.406677
275 4 0.16362 0.185806 0.362476
472 2 0.240013 0.203293 0.351473
474 4 0.22298 0.21264 0.367211
276 4 0.206771 0.210341 0.356415
274 2 0.185195 0.198073 0.359445
715 2 0.41318 0.193012 0.356871
466 2 0.383552 0.193304 0.403472
716 4 0.407901 0.200984 0.379974
467 4 0.39109 0.191834 0.379677
487 2 0.342286 0.246975 0.416367
270 4 0.471209 0.205246 0.372366
452 4 0.477961 0.192671 0.386042
451 2 0.463422 0.18933 0.406109
268 2 0.464322 0.223146 0.356324
269 4 0.457435 0.241046 0.340282
618 4 0.0721968 0.325854 0.387924
616 2 0.0936377 0.315372 0.380468
617 4 0.115078 0.30489 0.373011
374 4 0.121911 0.299676 0.355733
373 2 0.145677 0.305703 0.350834
375 4 0.169444 0.31173 0.345935
678 4 0.168543 0.307841 0.326275
509 4 0.256496 0.306808 0.388869
376 2 0.269022 0.267423 0.33384
378 4 0.264674 0.254897 0.355039
508 2 0.257031 0.315304 0.365359
615 4 0.376685 0.332708 0.341141
541 2 0.409017 0.311801 0.343605
543 4 0.389398 0.323435 0.353848
488 4 0.339261 0.261166 0.396004
542 4 0.428636 0.300167 0.333362
347 4 0.0688256 0.341513 0.398792
346 2 0.0472019 0.353431 0.394845
348 4 0.0255783 0.365348 0.390898
549 4 0.0885894 0.399328 0.336894
510 4 0.257567 0.3238 0.34185
668 4 0.321149 0.381612 0.408176
667 2 0.311859 0.398927 0.423637
336 4 0.337435 0.369985 0.406299
753 4 0.491102 0.415534 0.348161
751 2 0.486803 0.411312 0.372427
752 4 0.482503 0.40709 0.396694
547 2 0.0985129 0.4199 0.347067
407 4 0.125612 0.451414 0.364256
548 4 0.108437 0.440473 0.357239
406 2 0.1228 0.45773 0.388284
408 4 0.119988 0.464046 0.412313
1544 4 0.206275 0.498808 0.410842
3 3 0.312982 0.45008 0.342949
5 3 0.287789 0.477855 0.346343
1 1 0.307489 0.469594 0.354237
4 3 0.305753 0.465365 0.376986
438 4 0.330976 0.465454 0.340172
2 3 0.324127 0.485105 0.350806
436 2 0.354304 0.46571 0.331178
593 4 0.406616 0.467466 0.383602
586 2 0.414012 0.444948 0.416689
588 4 0.403081 0.462271 0.40235
592 2 0.421361 0.477973 0.366358
714 4 0.484652 0.464985 0.333295
712 2 0.466959 0.482445 0.335996
117 3 0.49493 0.450492 0.35328
594 4 0.436106 0.48848 0.349113
369 4 0.0497227 0.00921608 0.415705
718 2 0.0161267 0.00587216 0.442618
719 4 0.0331322 0.0132429 0.425836
962 4 0.309989 0.0210696 0.429847
961 2 0.307093 0.0368695 0.449008
963 4 0.304197 0.0526695 0.468169
432 4 0.311249 0.0616267 0.483603
459 4 0.058697 0.154086 0.43033
320 4 0.287974 0.121267 0.418582
640 2 0.489246 0.122632 0.468619
641 4 0.471043 0.130557 0.48382
260 4 0.0640349 0.170675 0.438925
687 4 0.121497 0.193088 0.428622
259 2 0.0850043 0.184294 0.438915
261 4 0.105974 0.197912 0.438905
1035 4 0.121738 0.20889 0.440888
1033 2 0.122745 0.227604 0.457439
1034 4 0.123752 0.246318 0.47399
489 4 0.345311 0.232785 0.436731
468 4 0.376015 0.194773 0.427268
514 2 0.413996 0.180992 0.448883
411 4 0.337299 0.222686 0.452691
516 4 0.390305 0.183935 0.456317
409 2 0.354968 0.205273 0.449567
410 4 0.372638 0.18786 0.446442
575 4 0.388538 0.179088 0.474844
266 4 0.380318 0.253386 0.47225
574 2 0.388404 0.183425 0.499468
515 4 0.437686 0.178048 0.44145
453 4 0.448884 0.185989 0.426175
583 2 0.49734 0.241664 0.469346
585 4 0.508588 0.223947 0.455753
694 2 0.0673578 0.260294 0.487287
695 4 0.0436919 0.258096 0.49505
1258 2 0.123272 0.283434 0.482125
1259 4 0.134834 0.305522 0.484028
9 3 0.136669 0.325534 0.483771
696 4 0.0910237 0.262493 0.479523
1260 4 0.111709 0.261347 0.480222
267 4 0.379808 0.302862 0.479505
265 2 0.380063 0.278124 0.475877
584 4 0.486092 0.25938 0.482939
2847 4 0.0258772 0.332247 0.479079
2845 2 0.00491765 0.344157 0.472445
326 4 0.0471391 0.362701 0.461691
325 2 0.071738 0.360589 0.465642
711 4 0.137047 0.417413 0.463167
10 3 0.138389 0.35188 0.456927
6 1 0.133023 0.34788 0.478696
7 3 0.110786 0.352731 0.482032
327 4 0.0963368 0.358476 0.469594
709 2 0.154732 0.399932 0.46578
8 3 0.145808 0.361351 0.492605
503 4 0.2297 0.368024 0.437844
504 4 0.191383 0.375507 0.469094
502 2 0.210541 0.371765 0.453469
710 4 0.172417 0.382451 0.468394
882 4 0.381399 0.40331 0.490698
335 4 0.384212 0.362216 0.422184
334 2 0.360824 0.3661 0.414241
238 2 0.39647 0.397952 0.438665
240 4 0.383091 0.377085 0.435387
239 4 0.409849 0.418819 0.441944
3307 2 0.496592 0.40115 0.482089
3308 4 0.491748 0.383095 0.498694
1381 2 0.00973985 0.490943 0.46227
1383 4 0.0116002 0.46608 0.460376
680 4 0.999565 0.462346 0.44572
569 4 0.117661 0.475795 0.426301
382 2 0.117312 0.433796 0.441501
384 4 0.119622 0.413105 0.455346
568 2 0.133877 0.494188 0.431188
383 4 0.115002 0.454488 0.427655
1556 4 0.220345 0.492428 0.42373
1555 2 0.244116 0.486734 0.428996
1557 4 0.267886 0.48104 0.434262
636 4 0.284371 0.49019 0.428451
635 4 0.31341 0.449808 0.43362
669 4 0.302569 0.416243 0.439098
773 4 0.305623 0.424478 0.493894
774 4 0.305734 0.435032 0.445013
634 2 0.29889 0.469999 0.431036
772 2 0.305678 0.429755 0.469454
663 4 0.440191 0.470446 0.445904
661 2 0.453403 0.485085 0.461277
587 4 0.424943 0.427626 0.431029
342 4 0.208438 0.0646435 0.516774
340 2 0.217681 0.0422795 0.510482
341 4 0.226925 0.0199155 0.504191
1032 4 0.228362 0.0806465 0.59812
1151 4 0.216712 0.0799511 0.582308
2430 4 0.209885 0.00878487 0.498619
430 2 0.32216 0.0774447 0.4996
431 4 0.333072 0.0932627 0.515597
1217 4 0.397067 0.0826566 0.53031
1216 2 0.407928 0.0655474 0.515665
1218 4 0.418789 0.0484382 0.501019
3007 2 0.495569 0.0474059 0.564129
3009 4 0.500867 0.0507947 0.53993
1128 4 0.0098943 0.104045 0.579184
1058 4 0.102503 0.117916 0.519766
1057 2 0.109032 0.114086 0.543596
1059 4 0.115562 0.110257 0.567427
1152 4 0.203855 0.0729382 0.534493
1150 2 0.210283 0.0764447 0.558401
1181 4 0.231571 0.148388 0.564558
1180 2 0.247034 0.143448 0.54554
843 4 0.343084 0.106854 0.529222
1182 4 0.262496 0.138507 0.526522
900 4 0.27001 0.155275 0.519239
841 2 0.366022 0.10076 0.537088
842 4 0.38896 0.0946655 0.544954
1199 4 0.0254599 0.212551 0.566768
1198 2 0.0026633 0.222586 0.56458
878 4 0.0361968 0.226606 0.578668
877 2 0.0578128 0.217708 0.587542
1244 4 0.0310703 0.243617 0.566603
1271 4 0.113294 0.174418 0.551552
1270 2 0.105378 0.1889 0.570334
857 4 0.230511 0.246109 0.519644
898 2 0.285002 0.17479 0.523661
650 4 0.28497 0.206704 0.530242
899 4 0.299994 0.194306 0.528082
649 2 0.285579 0.230242 0.521829
576 4 0.38827 0.187762 0.524092
1243 2 0.0356229 0.265446 0.577914
982 2 0.0297642 0.319075 0.571
796 2 0.233721 0.253841 0.57056
858 4 0.181805 0.255108 0.526534
856 2 0.206158 0.250609 0.523089
947 4 0.190993 0.261219 0.559076
946 2 0.178798 0.269233 0.57938
798 4 0.209312 0.258759 0.568285
797 4 0.258131 0.248924 0.572835
792 4 0.296869 0.302289 0.582777
651 4 0.286188 0.25378 0.513416
872 4 0.382724 0.243288 0.537855
871 2 0.386058 0.26734 0.543819
873 4 0.389391 0.291392 0.549782
813 4 0.388738 0.310644 0.543967
906 4 0.482855 0.293035 0.570416
953 4 0.476024 0.31088 0.568205
952 2 0.454627 0.302766 0.57828
954 4 0.433229 0.294652 0.588354
1010 4 0.496621 0.322213 0.511557
984 4 0.0116827 0.333238 0.561117
1190 4 0.248708 0.371075 0.567725
803 4 0.252823 0.353176 0.559887
804 4 0.290052 0.343479 0.527939
1237 2 0.319609 0.338845 0.586078
802 2 0.271437 0.348328 0.543913
930 4 0.335247 0.358303 0.563799
1239 4 0.336002 0.357585 0.58379
811 2 0.401136 0.331394 0.550361
812 4 0.413535 0.352144 0.556756
927 4 0.421204 0.359617 0.57431
929 4 0.354176 0.402425 0.549811
928 2 0.344711 0.380364 0.556805
881 4 0.358106 0.391346 0.533301
880 2 0.369752 0.397328 0.511999
926 4 0.429027 0.408936 0.571629
925 2 0.425115 0.384276 0.57297
538 2 0.0684413 0.46114 0.565894
539 4 0.0542157 0.442915 0.575415
540 4 0.0826669 0.479365 0.556372
1160 4 0.120214 0.475514 0.549613
1159 2 0.129105 0.45836 0.565484
1161 4 0.137995 0.441206 0.581354
2244 4 0.101776 0.478804 0.545523
891 4 0.305039 0.424392 0.572597
889 2 0.320466 0.440001 0.584578
1953 4 0.384513 0.499776 0.571506
1951 2 0.365876 0.484503 0.578184
1000 2 0.438488 0.447528 0.581236
1002 4 0.438325 0.425901 0.568688
2114 4 0.000990606 0.0118876 0.610007
4338 4 0.0181183 0.00253851 0.616968
1082 4 0.0630806 0.0692826 0.660119
1083 4 0.0609482 0.0882341 0.613891
1081 2 0.0620144 0.0787584 0.637005
823 2 0.153965 0.0277659 0.648327
825 4 0.138869 0.0433663 0.660733
1283 4 0.128125 0.0593312 0.665563
2133 4 0.182704 0.00197583 0.646686
824 4 0.169061 0.0121654 0.63592
1030 2 0.252167 0.0740436 0.60198
1031 4 0.275972 0.0674407 0.60584
951 4 0.275582 0.0543011 0.622185
949 2 0.297166 0.0436748 0.615373
950 4 0.31875 0.0330485 0.608561
2283 4 0.398141 0.0123839 0.647746
809 4 0.481144 0.0432916 0.605553
808 2 0.472774 0.0526905 0.627158
810 4 0.464404 0.0620894 0.648764
42 3 0.460375 0.0512784 0.669172
41 1 0.455717 0.0737475 0.670781
3008 4 0.490272 0.044017 0.588329
938 4 0.0757018 0.1005 0.617659
1126 2 0.0311205 0.0942265 0.588028
1127 4 0.0523467 0.0844077 0.596873
939 4 0.113017 0.114636 0.587517
937 2 0.0943593 0.107568 0.602588
1155 4 0.125831 0.123233 0.576746
1153 2 0.139267 0.140218 0.589243
1154 4 0.152703 0.157203 0.60174
1221 4 0.165546 0.162417 0.617029
887 4 0.324316 0.158738 0.663941
45 3 0.456793 0.0831339 0.65006
3425 4 0.471017 0.0943649 0.664321
3424 2 0.487069 0.113102 0.660265
879 4 0.0794287 0.20881 0.596416
1272 4 0.0974616 0.203382 0.589117
1212 4 0.212944 0.178012 0.646579
1219 2 0.181368 0.176516 0.630297
1220 4 0.19719 0.190615 0.643566
1210 2 0.236789 0.1796 0.653933
888 4 0.275496 0.16871 0.659705
886 2 0.299906 0.163724 0.661823
1194 4 0.335534 0.173038 0.654601
1211 4 0.260634 0.181188 0.661286
1193 4 0.385097 0.179478 0.656266
1192 2 0.360315 0.176258 0.655434
1245 4 0.0401756 0.287275 0.589225
983 4 0.0478456 0.304913 0.580882
1136 4 0.155848 0.28403 0.614842
1135 2 0.149717 0.30714 0.607527
948 4 0.166603 0.277247 0.599684
1137 4 0.143586 0.33025 0.600211
1238 4 0.303216 0.320104 0.588367
791 4 0.274834 0.257698 0.577603
790 2 0.285851 0.279994 0.58019
807 4 0.289203 0.319645 0.677144
805 2 0.309809 0.32246 0.663264
806 4 0.330415 0.325275 0.649384
3123 4 0.491861 0.260869 0.637691
1039 2 0.0632375 0.378898 0.606147
1041 4 0.0484055 0.375214 0.625937
3264 4 0.0356269 0.384909 0.637715
3262 2 0.0315221 0.366872 0.654538
3240 4 0.0244808 0.400197 0.642226
993 4 0.0935924 0.370044 0.5801
1040 4 0.0780694 0.382582 0.586358
897 4 0.152011 0.346695 0.596715
991 2 0.113169 0.358053 0.590007
992 4 0.132746 0.346063 0.599914
895 2 0.173981 0.35622 0.60391
1189 2 0.229629 0.372282 0.583841
1172 4 0.216481 0.392566 0.602859
1191 4 0.21055 0.373488 0.599957
896 4 0.195952 0.365745 0.611105
1206 4 0.386167 0.403769 0.650375
3238 2 0.00538992 0.415192 0.648216
1188 4 0.145091 0.45541 0.594122
1171 2 0.206566 0.414895 0.608176
1186 2 0.166769 0.454753 0.606566
1173 4 0.196652 0.437225 0.613494
1187 4 0.188446 0.454095 0.61901
1139 4 0.240089 0.465736 0.652847
1230 4 0.352457 0.445478 0.644641
890 4 0.335894 0.45561 0.596558
1204 2 0.394894 0.427083 0.652717
1952 4 0.34724 0.46923 0.584862
1205 4 0.403621 0.450397 0.65506
1001 4 0.43865 0.469154 0.593783
1911 4 0.45028 0.476904 0.580719
1269 4 0.451248 0.484891 0.597863
1267 2 0.453283 0.490132 0.622226
945 4 0.0652645 0.00397848 0.679077
943 2 0.0631502 0.0279871 0.685733
944 4 0.061036 0.0519958 0.692388
1076 4 0.0601509 0.0683057 0.679829
1282 2 0.127936 0.0762266 0.683994
1147 2 0.242186 0.0457265 0.717758
1148 4 0.230261 0.0513462 0.696512
1226 4 0.226895 0.0706475 0.693872
1149 4 0.25411 0.0401068 0.739004
1092 4 0.350024 0.0134637 0.7021
1004 4 0.401896 0.090521 0.70564
43 3 0.434403 0.0763787 0.679568
1163 4 0.477337 0.0612339 0.682677
1162 2 0.495458 0.0511463 0.696642
2320 2 0.50168 0.0383348 0.749454
864 4 0.0662496 0.100972 0.735827
1075 2 0.0660494 0.0846738 0.697787
1077 4 0.071948 0.101042 0.715744
1107 4 0.0794083 0.112028 0.728833
851 4 0.0815666 0.117136 0.710432
850 2 0.0807546 0.13831 0.697158
862 2 0.0435847 0.097496 0.745797
852 4 0.0799427 0.159484 0.683885
1105 2 0.0937451 0.119762 0.747802
1284 4 0.127748 0.0931219 0.702425
909 4 0.151599 0.113893 0.748166
907 2 0.172191 0.118918 0.734902
908 4 0.192782 0.123942 0.721638
1227 4 0.198298 0.109106 0.70815
1225 2 0.212597 0.0898768 0.701011
829 2 0.332689 0.133672 0.697232
830 4 0.323911 0.15059 0.681048
831 4 0.341466 0.116755 0.713416
1003 2 0.377947 0.0959078 0.710394
1005 4 0.353998 0.101295 0.715148
44 3 0.471337 0.0836625 0.684785
1178 4 0.00614785 0.252601 0.725299
1072 2 0.104398 0.217816 0.72777
1074 4 0.09973 0.240713 0.718874
1073 4 0.109066 0.19492 0.736666
1144 2 0.491951 0.171575 0.741559
1025 4 0.433444 0.172933 0.682688
1262 4 0.468529 0.199867 0.735676
1142 4 0.452275 0.172104 0.734624
1024 2 0.44661 0.179955 0.702752
1026 4 0.459775 0.186976 0.722815
1261 2 0.461993 0.223997 0.735238
1145 4 0.469488 0.18073 0.735497
1177 2 0.0186026 0.254848 0.703735
1179 4 0.0310574 0.257096 0.682171
1209 4 0.131741 0.286254 0.725718
1207 2 0.111288 0.272187 0.722724
1208 4 0.0908353 0.25812 0.719729
821 4 0.142428 0.302086 0.720419
820 2 0.155006 0.308741 0.69986
822 4 0.167584 0.315395 0.6793
1063 2 0.210048 0.312277 0.685183
1064 4 0.185093 0.31083 0.685743
1065 4 0.235004 0.313724 0.684622
3263 4 0.0274173 0.348836 0.671361
892 2 0.020942 0.354215 0.739674
894 4 0.0309631 0.355273 0.71679
1280 4 0.0498307 0.360076 0.711824
1279 2 0.0539578 0.383711 0.704786
816 4 0.0675821 0.34925 0.718564
1281 4 0.058085 0.407346 0.697747
814 2 0.0883746 0.35017 0.732421
942 4 0.120363 0.341108 0.758746
815 4 0.109167 0.35109 0.746277
1028 4 0.246257 0.380574 0.738371
1066 2 0.205127 0.373991 0.749876
1068 4 0.226941 0.381964 0.740615
1027 2 0.244144 0.399456 0.722117
1018 2 0.390514 0.394727 0.750806
1019 4 0.369917 0.385618 0.739944
1983 4 0.0653586 0.410739 0.714625
1981 2 0.0685753 0.429229 0.731147
1982 4 0.0717919 0.447719 0.747668
1140 4 0.2413 0.4327 0.690369
2016 4 0.168443 0.490369 0.728868
1138 2 0.240695 0.449218 0.671608
1029 4 0.242031 0.418338 0.705864
1987 2 0.323076 0.483448 0.725038
1988 4 0.311816 0.496439 0.743193
1989 4 0.334335 0.470457 0.706882
1228 2 0.347917 0.453709 0.66781
1229 4 0.343377 0.46194 0.69098
2991 4 0.0243397 0.0426178 0.79441
2989 2 0.0171176 0.0625326 0.781128
2990 4 0.00989559 0.0824475 0.767846
2048 4 0.146443 0.997075 0.757824
2049 4 0.124503 0.035461 0.781187
1202 4 0.109941 0.0480272 0.77244
2047 2 0.135473 0.0162677 0.769505
1201 2 0.112502 0.0713788 0.781003
1257 4 0.262216 0.0875343 0.760715
817 2 0.318498 0.0366606 0.824605
1085 4 0.306411 0.0782085 0.832286
818 4 0.32959 0.0150271 0.818761
1255 2 0.257243 0.0857285 0.785153
974 4 0.346022 0.0151431 0.807863
973 2 0.366046 0.00533109 0.819174
1050 4 0.343441 0.00188315 0.794157
1113 4 0.415416 0.0406796 0.780976
2322 4 0.491673 0.0468736 0.770718
1111 2 0.437287 0.050819 0.77434
845 4 0.478112 0.0607652 0.774209
1112 4 0.459158 0.0609584 0.767704
3083 4 0.00204167 0.0936538 0.754094
863 4 0.0209198 0.0940199 0.755767
833 4 0.0106341 0.0992896 0.771008
832 2 0.00946824 0.117492 0.78811
834 4 0.00830234 0.135694 0.805213
1125 4 0.0099571 0.155417 0.812507
1123 2 0.0331903 0.159529 0.820782
1124 4 0.0564234 0.163642 0.829058
1106 4 0.108082 0.127497 0.766771
1203 4 0.115063 0.0947304 0.789566
911 4 0.10253 0.113162 0.819279
34 3 0.114441 0.112918 0.776521
31 1 0.116911 0.11917 0.79873
35 3 0.0984173 0.130472 0.805724
32 3 0.119519 0.100242 0.811539
33 3 0.135735 0.13252 0.801154
1256 4 0.25227 0.0839227 0.80959
840 4 0.242001 0.0994131 0.817165
1084 2 0.30759 0.0912063 0.810959
1086 4 0.30877 0.104204 0.789632
47 3 0.398567 0.156959 0.806261
1023 4 0.396632 0.157906 0.826404
846 4 0.482121 0.110137 0.781073
844 2 0.480117 0.0854509 0.777641
1130 4 0.120271 0.23744 0.777751
1129 2 0.143768 0.231914 0.771231
1131 4 0.167265 0.226388 0.76471
1277 4 0.18403 0.237017 0.772695
978 4 0.255372 0.190864 0.75904
977 4 0.295621 0.216081 0.774687
918 4 0.292383 0.235152 0.77419
976 2 0.275497 0.203472 0.766863
1298 4 0.298434 0.22674 0.790724
1297 2 0.317736 0.216907 0.803211
48 3 0.398583 0.172745 0.772151
1299 4 0.337038 0.207073 0.815698
1042 2 0.393629 0.233405 0.794022
1043 4 0.401145 0.20972 0.79125
49 3 0.393287 0.194043 0.80318
46 1 0.404513 0.17574 0.794384
1263 4 0.455456 0.248127 0.734799
1143 4 0.422121 0.176442 0.774281
1141 2 0.437198 0.174273 0.754453
50 3 0.427007 0.178873 0.796072
1306 2 0.479921 0.251707 0.803424
1307 4 0.497078 0.233598 0.80512
1276 2 0.199142 0.25454 0.782168