ITEM: TIMESTEP
1870000
ITEM: NUMBER OF ATOMS
4590
ITEM: BOX BOUNDS pp pp pp
-9.9985700000000008e+00 9.9985700000000008e+00
-9.9985700000000008e+00 9.9985700000000008e+00
-9.9985700000000008e+00 9.9985700000000008e+00
ITEM: ATOMS id type xs ys zs
1666 2 0.0453299 0.0760117 0.0618923
1668 4 0.0370656 0.069725 0.0391468
1474 2 0.300188 0.0102614 0.0772832
2974 2 0.468127 0.0312165 0.0109478
2976 4 0.478222 0.0109097 0.0214795
566 4 0.171744 0.164877 0.0325365
2264 4 0.237277 0.164779 0.0203567
297 4 0.317253 0.117834 0.0274202
295 2 0.337059 0.111511 0.0135318
556 2 0.395924 0.119184 0.00798724
296 4 0.356866 0.105187 0.999643
557 4 0.371922 0.119657 0.000997176
558 4 0.419926 0.118711 0.0149773
746 4 0.435873 0.106128 0.0109749
565 2 0.195356 0.167746 0.0248284
567 4 0.218969 0.170614 0.0171202
1133 4 0.213469 0.183288 0.00287932
360 4 0.325637 0.1684 0.0107618
769 2 0.402011 0.18247 0.00664637
770 4 0.384842 0.180982 0.0247624
359 4 0.369476 0.176009 0.0335864
358 2 0.347556 0.172205 0.0221741
664 2 0.392168 0.194057 0.0586429
665 4 0.38586 0.175167 0.043525
666 4 0.398476 0.212947 0.0737609
323 4 0.403782 0.230801 0.068603
623 4 0.401447 0.225837 0.0874902
555 4 0.0603931 0.271638 0.0154473
287 4 0.163576 0.309264 0.0365574
292 2 0.128314 0.286372 0.0277911
507 4 0.154296 0.299767 0.05219
293 4 0.150457 0.296133 0.0340824
294 4 0.106171 0.276611 0.0214998
286 2 0.174058 0.321647 0.0175317
551 4 0.113293 0.329868 0.0517805
505 2 0.171839 0.303654 0.0695771
481 2 0.223804 0.294941 0.08135
482 4 0.241846 0.28904 0.0650766
573 4 0.261958 0.283567 0.0647295
571 2 0.275042 0.284242 0.0434335
572 4 0.288127 0.284916 0.0221375
357 4 0.285918 0.274116 0.00593077
322 2 0.41041 0.249707 0.0536428
1069 2 0.399391 0.290564 0.0185742
957 4 0.371744 0.319447 0.023619
1071 4 0.378093 0.303399 0.0159593
955 2 0.352192 0.317148 0.00820418
1070 4 0.420689 0.277728 0.0211892
324 4 0.417038 0.268613 0.0386825
671 4 0.446916 0.316518 0.0768603
280 2 0.448564 0.303548 0.041777
281 4 0.459074 0.317748 0.0594715
282 4 0.438055 0.289349 0.0240825
670 2 0.426174 0.325112 0.0878638
455 4 0.148713 0.381954 0.066007
552 4 0.130418 0.375659 0.062297
550 2 0.121856 0.352763 0.0570387
454 2 0.168533 0.388069 0.0520447
288 4 0.184541 0.334029 0.998506
456 4 0.188353 0.394185 0.0380823
1290 4 0.26584 0.409453 0.0106626
252 4 0.26772 0.400682 0.0703297
1288 2 0.272999 0.389006 0.998178
609 4 0.283306 0.410558 0.0768906
741 4 0.360465 0.328693 0.0382503
739 2 0.36501 0.331708 0.0626517
495 4 0.380518 0.363009 0.0837973
330 4 0.997025 0.419201 0.983751
245 4 0.259123 0.488615 0.0606694
626 4 0.239603 0.480408 0.0608716
625 2 0.218235 0.46938 0.0677248
244 2 0.266382 0.472503 0.0429806
246 4 0.273642 0.456392 0.0252918
251 4 0.261833 0.423 0.0259678
250 2 0.264777 0.411841 0.0481487
272 4 0.264145 0.441053 0.016975
1560 4 0.319459 0.493323 0.0887228
1672 2 0.409034 0.442746 0.0700478
853 2 0.40565 0.439864 0.0120621
854 4 0.416536 0.450824 0.0317226
1674 4 0.422277 0.445378 0.0490029
563 4 0.48235 0.459267 0.0362121
562 2 0.457482 0.459452 0.0388024
564 4 0.432613 0.459637 0.0413927
228 4 0.490575 0.441398 0.0315171
1667 4 0.0535942 0.0822984 0.0846378
18 3 0.0705273 0.0365367 0.156843
1475 4 0.293713 0.0319633 0.0878794
492 4 0.304021 0.0374552 0.103497
490 2 0.28726 0.0549728 0.109612
491 4 0.2705 0.0724904 0.115728
485 4 0.380773 0.980282 0.115652
2469 4 0.50432 0.00698459 0.0826692
2723 4 0.449255 0.0742893 0.153366
2722 2 0.463555 0.0544492 0.148163
2724 4 0.477855 0.0346092 0.14296
1760 4 0.491476 0.0315655 0.131183
2744 4 0.489631 0.0224107 0.150724
701 4 0.0724713 0.0894455 0.0891094
700 2 0.0751436 0.112599 0.0981618
702 4 0.0778159 0.135753 0.107214
476 4 0.0790275 0.155651 0.109804
475 2 0.0988924 0.153664 0.124858
477 4 0.118757 0.151676 0.139912
237 4 0.237242 0.136541 0.157614
582 4 0.247164 0.126246 0.142682
449 4 0.18658 0.112007 0.163531
235 2 0.213662 0.132676 0.164976
580 2 0.268071 0.133455 0.154348
628 2 0.369393 0.145255 0.14504
312 4 0.387426 0.1059 0.145137
629 4 0.375632 0.121327 0.148741
630 4 0.363155 0.169183 0.141339
310 2 0.383008 0.0861495 0.15982
339 4 0.0768353 0.223681 0.138118
337 2 0.0659434 0.237345 0.156002
736 2 0.238212 0.181154 0.118255
738 4 0.25026 0.194738 0.101064
737 4 0.226165 0.167571 0.135445
461 4 0.304586 0.233157 0.0946995
460 2 0.326897 0.232908 0.105984
354 4 0.28803 0.236382 0.105246
352 2 0.27596 0.241875 0.126443
353 4 0.26389 0.247368 0.14764
278 4 0.257067 0.240727 0.163615
254 4 0.345323 0.175057 0.148124
462 4 0.349208 0.23266 0.117268
255 4 0.357046 0.219861 0.129261
253 2 0.351185 0.197459 0.138692
765 4 0.355313 0.234726 0.137479
624 4 0.367158 0.235736 0.122519
622 2 0.384303 0.230787 0.105005
763 2 0.344042 0.249591 0.154127
483 4 0.205761 0.300842 0.0976235
506 4 0.189382 0.307541 0.0869641
537 4 0.175295 0.314119 0.0995427
535 2 0.179391 0.323749 0.122251
755 4 0.243529 0.248475 0.153155
754 2 0.240843 0.272079 0.160956
387 4 0.313664 0.312132 0.11716
301 2 0.311151 0.310655 0.160783
302 4 0.311036 0.315569 0.136267
284 4 0.272643 0.251363 0.165861
385 2 0.334386 0.319682 0.105379
15 3 0.362269 0.329416 0.112339
386 4 0.355108 0.327232 0.0935983
12 3 0.398972 0.327504 0.118828
672 4 0.405431 0.333706 0.0988673
528 4 0.48598 0.267211 0.104871
526 2 0.471409 0.285747 0.0965489
527 4 0.456837 0.304283 0.0882269
315 4 0.00866723 0.376599 0.101353
647 4 0.0636266 0.352336 0.159453
417 4 0.153025 0.412436 0.150164
415 2 0.174432 0.400784 0.144585
536 4 0.183487 0.333378 0.14496
291 4 0.205621 0.389673 0.121906
289 2 0.22726 0.398876 0.130404
416 4 0.19584 0.389131 0.139006
493 2 0.387031 0.387146 0.0833798
494 4 0.393543 0.411283 0.0829624
14 3 0.386312 0.346842 0.0891896
740 4 0.369555 0.334723 0.0870532
11 1 0.381904 0.340895 0.111181
13 3 0.38076 0.359898 0.124447
595 2 0.486799 0.406122 0.130799
597 4 0.496384 0.407949 0.15382
645 4 0.492622 0.400891 0.174532
596 4 0.477214 0.404295 0.107778
104 3 0.501896 0.369237 0.147237
1791 4 0.0740893 0.482986 0.124996
1466 4 0.0606237 0.484978 0.138029
1465 2 0.0429352 0.47424 0.152065
627 4 0.196867 0.458352 0.074578
290 4 0.2489 0.40808 0.138901
638 4 0.252551 0.486622 0.126627
607 2 0.302003 0.421531 0.0893483
608 4 0.3207 0.432504 0.101806
768 4 0.243272 0.428155 0.133406
767 4 0.264984 0.473197 0.134134
766 2 0.254128 0.450676 0.13377
1673 4 0.395792 0.440115 0.0910927
659 4 0.338263 0.44268 0.105304
660 4 0.381329 0.426456 0.0857375
658 2 0.359796 0.434568 0.0955206
1559 4 0.366133 0.491202 0.106548
1558 2 0.342796 0.492263 0.0976354
524 4 0.383183 0.489877 0.116778
16 1 0.0677289 0.0470928 0.177316
19 3 0.0640591 0.0697769 0.174096
17 3 0.0494345 0.0380313 0.187916
2480 4 0.0318493 0.0301992 0.196335
1422 4 0.0302753 0.009831 0.194682
2479 2 0.0139131 0.0465987 0.202211
380 4 0.997852 0.0820305 0.211974
20 3 0.0862059 0.0439708 0.190258
578 4 0.103804 0.0521302 0.185497
674 4 0.147484 0.0177674 0.214451
673 2 0.135983 0.00707538 0.233908
689 4 0.159068 0.00738615 0.203809
577 2 0.12377 0.0671288 0.184252
579 4 0.143737 0.0821274 0.183007
1504 2 0.23471 0.990032 0.176855
652 2 0.289415 0.0130646 0.198313
654 4 0.275129 0.00688514 0.178745
1506 4 0.257684 0.99847 0.171739
653 4 0.303702 0.0192441 0.21788
25 3 0.334619 0.0468832 0.244399
311 4 0.37859 0.0663995 0.174503
758 4 0.374195 0.0583008 0.192512
759 4 0.354909 0.0585387 0.23865
757 2 0.364552 0.0584197 0.215581
511 2 0.0364061 0.149291 0.20912
513 4 0.0607041 0.148647 0.214983
381 4 0.00191957 0.131266 0.204224
512 4 0.0121082 0.149936 0.203257
379 2 0.999886 0.106648 0.208099
393 4 0.0735129 0.165599 0.218528
450 4 0.150947 0.0769805 0.165568
448 2 0.168763 0.0944937 0.16455
391 2 0.0878039 0.168232 0.238876
691 2 0.235628 0.0969432 0.2557
693 4 0.21827 0.0863721 0.241135
236 4 0.190081 0.128811 0.172337
581 4 0.288978 0.140664 0.166015
26 1 0.328754 0.157519 0.242661
30 3 0.306049 0.155775 0.242343
28 3 0.338315 0.137838 0.234937
521 4 0.483672 0.144478 0.207074
332 4 0.477943 0.129785 0.220209
762 4 0.467683 0.145687 0.217201
760 2 0.452511 0.158977 0.231978
331 2 0.489477 0.108875 0.227621
394 2 0.0263944 0.228983 0.234863
395 4 0.0470481 0.217958 0.226085
396 4 0.00574064 0.240008 0.243641
279 4 0.262183 0.198874 0.190501
277 2 0.259625 0.219801 0.177058
27 3 0.335218 0.174812 0.228938
338 4 0.0550514 0.251008 0.173887
363 4 0.0607426 0.270416 0.177678
361 2 0.0674233 0.286083 0.195984
749 4 0.0669158 0.321193 0.219266
648 4 0.0584625 0.334619 0.20593
362 4 0.0741041 0.30175 0.214289
370 2 0.116729 0.303314 0.226648
372 4 0.0948367 0.296028 0.217015
371 4 0.138622 0.310601 0.236282
734 4 0.147794 0.325443 0.244701
756 4 0.238157 0.295682 0.168757
610 2 0.240035 0.301266 0.208947
612 4 0.236501 0.306783 0.184817
611 4 0.243569 0.29575 0.233077
285 4 0.316572 0.270254 0.180494
283 2 0.294607 0.260809 0.173177
307 2 0.325652 0.291154 0.212647
308 4 0.318245 0.288856 0.188877
303 4 0.311265 0.30574 0.185298
729 4 0.311535 0.318543 0.200436
498 4 0.315624 0.294542 0.246095
309 4 0.333059 0.293452 0.236418
764 4 0.33277 0.264456 0.170776
748 2 0.0717755 0.338749 0.236394
646 2 0.0610445 0.343477 0.182692
727 2 0.298788 0.338855 0.207513
728 4 0.286041 0.359168 0.214591
446 4 0.417472 0.362937 0.237296
445 2 0.427466 0.379131 0.221077
447 4 0.43746 0.395324 0.204857
644 4 0.452099 0.408197 0.202909
643 2 0.47236 0.404544 0.188721
1467 4 0.0252468 0.463503 0.166101
414 4 0.21855 0.478042 0.25492
229 2 0.462366 0.488603 0.240241
234 4 0.0110277 0.0446775 0.277744
232 2 0.0345165 0.036931 0.281411
233 4 0.0580053 0.0291845 0.285078
1404 4 0.0707427 0.0146883 0.285028
316 2 0.082681 0.0487868 0.308661
317 4 0.0725428 0.0286694 0.297812
428 4 0.0755904 0.00825552 0.302387
427 2 0.0673936 0.997941 0.323638
1402 2 0.089238 0.0103482 0.268772
318 4 0.0928191 0.0689042 0.319509
732 4 0.109337 0.0784377 0.319904
24 3 0.320185 0.0767367 0.262234
21 1 0.338499 0.0626073 0.26041
23 3 0.342618 0.0523063 0.28079
22 3 0.356928 0.0750446 0.254505
349 2 0.392465 0.0763449 0.261177
351 4 0.413802 0.0659737 0.269074
479 4 0.456399 0.0322922 0.298818
478 2 0.441224 0.0420548 0.28151
2664 4 0.475312 0.0302597 0.294257
480 4 0.426048 0.0518173 0.264201
1428 4 0.463898 0.0190502 0.306557
258 4 0.452331 0.0320984 0.317226
256 2 0.439024 0.0429557 0.335398
399 4 0.0917728 0.088225 0.318105
721 2 0.241309 0.132339 0.295777
722 4 0.231621 0.13696 0.318359
723 4 0.250997 0.127717 0.273194
692 4 0.252985 0.107514 0.270265
29 3 0.336054 0.161936 0.264239
632 4 0.368099 0.0981831 0.268799
350 4 0.371129 0.086716 0.25328
631 2 0.356192 0.119348 0.262846
707 4 0.341527 0.148029 0.275062
633 4 0.344285 0.140513 0.256893
706 2 0.344757 0.160656 0.2964
761 4 0.437338 0.172267 0.246755
392 4 0.102095 0.170865 0.259223
546 4 0.150387 0.168691 0.290695
544 2 0.157273 0.19002 0.279612
545 4 0.164159 0.21135 0.26853
402 4 0.179766 0.223279 0.272721
400 2 0.189814 0.246066 0.274944
474 4 0.188957 0.216363 0.33293
276 4 0.180012 0.197604 0.333463
378 4 0.252084 0.260752 0.31879
708 4 0.347986 0.173283 0.317738
419 4 0.423977 0.227843 0.330125
401 4 0.199862 0.268854 0.277168
676 2 0.179052 0.290758 0.304865
345 4 0.197397 0.286817 0.270924
677 4 0.185279 0.282272 0.282184
343 2 0.218294 0.29642 0.261112
735 4 0.181672 0.297515 0.26864
733 2 0.164733 0.311479 0.25667
344 4 0.239191 0.306023 0.2513
678 4 0.172826 0.299244 0.327545
376 2 0.271957 0.267935 0.305425
496 2 0.30753 0.277544 0.262549
497 4 0.299436 0.260546 0.279002
377 4 0.291831 0.275117 0.29206
541 2 0.393631 0.302954 0.323177
542 4 0.412475 0.286544 0.322294
543 4 0.374787 0.319364 0.32406
420 4 0.408889 0.271016 0.309896
418 2 0.416433 0.249429 0.320011
264 4 0.00190039 0.407359 0.259062
365 4 0.0240973 0.366119 0.288787
601 2 0.0418941 0.381482 0.324074
603 4 0.0336878 0.366641 0.305701
364 2 0.999229 0.367969 0.290614
299 4 0.144019 0.343742 0.25247
750 4 0.0766352 0.356304 0.253521
298 2 0.120022 0.349401 0.256628
300 4 0.0960249 0.35506 0.260787
433 2 0.305678 0.380052 0.312726
435 4 0.281956 0.379512 0.304844
434 4 0.329401 0.380593 0.320607
614 4 0.344654 0.37873 0.333417
615 4 0.371473 0.336527 0.334027
613 2 0.358064 0.357629 0.333722
2461 2 0.985745 0.498376 0.308453
1757 4 0.0743961 0.434434 0.276453
776 4 0.0731408 0.502733 0.319234
1775 4 0.101198 0.490479 0.257753
1756 2 0.0844719 0.453831 0.264311
1758 4 0.0945476 0.473227 0.252168
777 4 0.0887734 0.498869 0.271891
775 2 0.0809571 0.500801 0.295562
412 2 0.219052 0.457929 0.269765
1436 4 0.215339 0.439393 0.305037
413 4 0.219555 0.437815 0.28461
1435 2 0.236585 0.441623 0.31803
3 3 0.294124 0.470176 0.324665
1801 2 0.367933 0.483646 0.292343
437 4 0.358271 0.470604 0.333314
1802 4 0.365613 0.481292 0.317128
231 4 0.478999 0.480318 0.25697
712 2 0.465792 0.472302 0.334426
713 4 0.442535 0.478679 0.327823
1742 4 0.4248 0.488119 0.328262
730 2 0.130765 0.0680909 0.327584
1780 2 0.124071 0.0127347 0.403641
731 4 0.152193 0.057744 0.335263
606 4 0.15889 0.0680067 0.351309
604 2 0.183508 0.0662767 0.347291
605 4 0.208126 0.0645467 0.343273
1701 4 0.327571 0.0322379 0.392239
441 4 0.322491 0.0180257 0.403614
425 4 0.334036 0.0298215 0.41226
683 4 0.263756 0.0904621 0.365743
698 4 0.40922 0.0467052 0.346071
1699 2 0.336916 0.0398176 0.370321
1700 4 0.346262 0.0473974 0.348403
699 4 0.360504 0.0528189 0.336584
697 2 0.384862 0.049762 0.341328
257 4 0.425718 0.053813 0.35357
2879 4 0.49493 0.064647 0.401065
2489 4 0.994636 0.104314 0.39719
397 2 0.0753576 0.100147 0.33272
2584 2 0.0234107 0.103853 0.351922
398 4 0.0589424 0.11207 0.347334
2586 4 0.0446621 0.113257 0.361147
458 4 0.0415426 0.126807 0.376041
457 2 0.0411367 0.144886 0.393308
459 4 0.0407307 0.162965 0.410575
600 4 0.137291 0.133141 0.407135
598 2 0.136297 0.155158 0.395327
248 4 0.214701 0.0815955 0.350134
249 4 0.233925 0.125091 0.334664
247 2 0.224313 0.103343 0.342399
403 2 0.239863 0.167163 0.342746
404 4 0.238917 0.143268 0.335446
682 2 0.271914 0.106812 0.38281
319 2 0.31205 0.143673 0.39659
684 4 0.280073 0.123163 0.399877
320 4 0.299084 0.124611 0.406271
321 4 0.325016 0.162734 0.38691
725 4 0.40541 0.090816 0.410927
2878 2 0.498119 0.0862728 0.413203
717 4 0.44412 0.136439 0.352783
260 4 0.0442442 0.170719 0.429362
259 2 0.0600645 0.189512 0.424702
261 4 0.0758848 0.208305 0.420042
599 4 0.135304 0.177175 0.383519
389 4 0.109469 0.246852 0.367588
686 4 0.126282 0.192525 0.391924
685 2 0.109386 0.206757 0.403634
275 4 0.145826 0.183363 0.367067
274 2 0.162919 0.190483 0.350265
687 4 0.0924895 0.22099 0.415344
472 2 0.212803 0.213961 0.340059
405 4 0.240809 0.191059 0.350046
473 4 0.236648 0.21156 0.347188
466 2 0.409878 0.19564 0.406738
467 4 0.414752 0.1891 0.383102
716 4 0.42402 0.179854 0.367337
269 4 0.442535 0.230608 0.334868
715 2 0.43407 0.158147 0.36006
270 4 0.46507 0.228764 0.379471
452 4 0.477789 0.212073 0.382568
268 2 0.453803 0.229686 0.35717
451 2 0.47264 0.212308 0.407034
616 2 0.0827982 0.319844 0.36789
618 4 0.0641549 0.331486 0.379809
388 2 0.110716 0.27182 0.367112
390 4 0.111964 0.296788 0.366636
617 4 0.101441 0.308201 0.355971
374 4 0.12183 0.310505 0.357708
373 2 0.145324 0.311839 0.349255
375 4 0.168817 0.313174 0.340802
509 4 0.203516 0.321479 0.367518
347 4 0.0719279 0.345977 0.392305
549 4 0.0620315 0.399081 0.358624
602 4 0.0501004 0.396324 0.342447
346 2 0.0510502 0.356372 0.401319
510 4 0.230692 0.347207 0.334348
508 2 0.217104 0.334343 0.350933
668 4 0.314388 0.383527 0.409984
336 4 0.32236 0.371258 0.396048
667 2 0.319374 0.407256 0.416088
334 2 0.343254 0.358543 0.390856
335 4 0.364148 0.345829 0.385665
240 4 0.374428 0.340475 0.40213
238 2 0.394942 0.354699 0.403561
2537 4 0.499491 0.340091 0.341358
752 4 0.475173 0.404819 0.391795
561 4 0.478218 0.390184 0.406253
587 4 0.41667 0.389171 0.402278
239 4 0.415456 0.368923 0.404993
547 2 0.0706838 0.419304 0.370513
548 4 0.079336 0.439526 0.382403
500 4 0.0742613 0.510201 0.339294
407 4 0.088582 0.456442 0.375703
406 2 0.0998896 0.461172 0.397496
1556 4 0.239755 0.479533 0.405251
1544 4 0.22428 0.488173 0.415442
636 4 0.295353 0.478138 0.403797
1555 2 0.263097 0.488314 0.403457
5 3 0.266753 0.470427 0.350519
1557 4 0.286439 0.497096 0.401663
1 1 0.284055 0.458372 0.341918
438 4 0.309258 0.463904 0.340634
1437 4 0.257831 0.443854 0.331022
4 3 0.276344 0.437935 0.334089
2 3 0.299621 0.454615 0.358433
436 2 0.333764 0.467254 0.336974
593 4 0.406129 0.449444 0.376628
592 2 0.418402 0.463284 0.359806
588 4 0.403324 0.436185 0.391678
714 4 0.48905 0.465925 0.341029
586 2 0.409997 0.412678 0.396978
753 4 0.501542 0.436284 0.36324
117 3 0.495294 0.458561 0.362054
751 2 0.488358 0.420551 0.377517
594 4 0.430675 0.477124 0.342983
367 2 0.0795546 0.029452 0.428893
369 4 0.0575178 0.0177009 0.427681
719 4 0.0371476 0.0230626 0.429482
718 2 0.0153833 0.0204382 0.441507
1781 4 0.112759 0.0282554 0.419652
368 4 0.101591 0.0412031 0.430105
962 4 0.320796 0.0228652 0.423836
961 2 0.304894 0.0372954 0.436646
963 4 0.288993 0.0517256 0.449455
432 4 0.298015 0.0638965 0.463656
430 2 0.307091 0.0733227 0.484962
424 2 0.357565 0.0310734 0.420626
426 4 0.381095 0.0323254 0.428992
726 4 0.427259 0.0889338 0.455868
431 4 0.316167 0.0827489 0.506268
724 2 0.416335 0.0898749 0.433398
2880 4 0.501308 0.107899 0.425341
642 4 0.49362 0.109876 0.442458
640 2 0.477185 0.120039 0.458325
641 4 0.460749 0.130201 0.474193
696 4 0.0932903 0.250094 0.483411
1035 4 0.0826078 0.221706 0.431323
1033 2 0.0894567 0.239202 0.44782
1034 4 0.0963055 0.256699 0.464317
488 4 0.303554 0.245896 0.448173
487 2 0.327516 0.245458 0.455299
468 4 0.405003 0.202179 0.430374
411 4 0.368777 0.239353 0.457372
516 4 0.414152 0.193475 0.461355
409 2 0.388254 0.22442 0.452592
410 4 0.40773 0.209488 0.447812
575 4 0.414872 0.189644 0.479736
266 4 0.361565 0.235586 0.475834
489 4 0.351479 0.24502 0.462424
265 2 0.360672 0.236768 0.500794
583 2 0.500821 0.23706 0.469995
514 2 0.437314 0.200815 0.455452
515 4 0.460476 0.208154 0.44955
453 4 0.467492 0.212543 0.431501
584 4 0.501096 0.247695 0.492623
2802 4 0.00675802 0.307568 0.423599
1258 2 0.119944 0.282341 0.478292
1259 4 0.131406 0.30456 0.477948
9 3 0.153734 0.309396 0.476449
1260 4 0.108481 0.260122 0.478637
6 1 0.142332 0.329602 0.476764
7 3 0.119722 0.325389 0.476336
348 4 0.0301725 0.366767 0.410333
326 4 0.0610248 0.351005 0.476295
325 2 0.0856692 0.346821 0.475724
384 4 0.119482 0.420288 0.471463
10 3 0.147997 0.342006 0.458524
327 4 0.110314 0.342638 0.475152
709 2 0.154764 0.402227 0.476183
711 4 0.129763 0.401982 0.476443
503 4 0.198489 0.339269 0.496616
502 2 0.191565 0.362716 0.491373
710 4 0.179765 0.402472 0.475922
504 4 0.184641 0.386163 0.486129
882 4 0.355059 0.34659 0.498252
559 2 0.494981 0.388201 0.424699
3307 2 0.487375 0.372719 0.477879
3308 4 0.469571 0.366896 0.494441
570 4 0.158979 0.504449 0.430585
408 4 0.111197 0.465903 0.419289
382 2 0.118606 0.436079 0.452096
569 4 0.129347 0.464622 0.424543
383 4 0.117731 0.451869 0.43273
568 2 0.144163 0.484536 0.427564
1545 4 0.17639 0.498108 0.425865
1543 2 0.200335 0.49314 0.420654
634 2 0.308061 0.462419 0.418514
669 4 0.32436 0.430985 0.422192
635 4 0.32077 0.4467 0.433231
772 2 0.340319 0.439606 0.463557
773 4 0.349458 0.446485 0.485791
774 4 0.33118 0.432728 0.441323
663 4 0.485608 0.47843 0.443418
342 4 0.209583 0.0520189 0.516961
340 2 0.189748 0.0375844 0.512125
341 4 0.169913 0.0231499 0.507288
2430 4 0.159001 0.0157856 0.521915
1152 4 0.224599 0.0625861 0.510915
1150 2 0.230522 0.0766955 0.530689
1030 2 0.256704 0.0642338 0.57794
1217 4 0.385248 0.0576936 0.516804
842 4 0.379756 0.0720271 0.5297
1216 2 0.395324 0.0427369 0.499485
841 2 0.358437 0.0788285 0.518546
3007 2 0.491157 0.0359981 0.581762
1218 4 0.4054 0.0277802 0.482167
470 4 0.00131742 0.153252 0.502477
1058 4 0.081835 0.111216 0.519089
1057 2 0.0909821 0.114634 0.542107
1059 4 0.100129 0.118051 0.565125
1155 4 0.111874 0.128389 0.577993
1271 4 0.102029 0.13746 0.59108
1153 2 0.135398 0.136784 0.579141
1151 4 0.236445 0.0908049 0.550464
1032 4 0.244077 0.0831804 0.567607
1180 2 0.22103 0.130219 0.542679
1181 4 0.224086 0.107441 0.552527
1182 4 0.217974 0.152997 0.53283
843 4 0.337118 0.0856298 0.507392
576 4 0.396772 0.161473 0.516877
1198 2 0.00482519 0.220604 0.56131
695 4 0.0800302 0.219078 0.520329
1199 4 0.0217066 0.214451 0.578698
694 2 0.0866602 0.234586 0.50187
900 4 0.229736 0.16281 0.519614
856 2 0.222908 0.251553 0.529092
857 4 0.205669 0.250686 0.547182
898 2 0.248928 0.178737 0.521392
650 4 0.282937 0.204603 0.513058
899 4 0.268121 0.194664 0.52317
649 2 0.296836 0.225368 0.513952
651 4 0.310736 0.246132 0.514845
267 4 0.359779 0.23795 0.525754
574 2 0.405822 0.175559 0.498306
1245 4 0.0412512 0.288523 0.588412
798 4 0.218337 0.269439 0.572672
947 4 0.204643 0.25704 0.565266
946 2 0.182289 0.267009 0.570376
948 4 0.159935 0.276978 0.575485
796 2 0.242762 0.272564 0.577008
1136 4 0.164908 0.295999 0.577848
858 4 0.240148 0.25242 0.511003
872 4 0.354521 0.287243 0.576237
871 2 0.363056 0.306462 0.589764
813 4 0.387178 0.326158 0.590554
2457 4 0.488219 0.297515 0.513407
1010 4 0.474846 0.30722 0.522942
2455 2 0.501709 0.27694 0.508947
8 3 0.147422 0.341268 0.496164
803 4 0.267803 0.363753 0.567188
804 4 0.285513 0.395185 0.53256
802 2 0.276658 0.379469 0.549874
930 4 0.331211 0.392072 0.576188
928 2 0.350325 0.387853 0.56063
929 4 0.36944 0.383635 0.545073
881 4 0.3595 0.386602 0.527917
880 2 0.357279 0.366596 0.513085
1011 4 0.476541 0.355197 0.508939
1009 2 0.475693 0.331208 0.51594
926 4 0.464765 0.397101 0.582318
1002 4 0.480397 0.410299 0.578952
540 4 0.0939044 0.477236 0.590589
2244 4 0.0913483 0.486428 0.573085
2154 4 0.210545 0.501345 0.565169
1910 4 0.420498 0.485573 0.559494
889 2 0.332902 0.496088 0.57852
1953 4 0.408238 0.496222 0.548475
1952 4 0.365089 0.497859 0.573697
1951 2 0.386663 0.49704 0.561086
890 4 0.349908 0.508305 0.564855
1909 2 0.44323 0.480091 0.568349
1081 2 0.0564498 0.0767032 0.639207
1082 4 0.0610117 0.0693288 0.662658
2114 4 0.999991 0.00697077 0.614359
825 4 0.160537 0.0393805 0.65933
1283 4 0.144106 0.052204 0.658113
823 2 0.177052 0.020636 0.658294
824 4 0.193567 0.00189152 0.657257
1031 4 0.269331 0.0452873 0.588272
951 4 0.285852 0.0343516 0.590959
949 2 0.302986 0.0164465 0.594278
950 4 0.320119 0.998541 0.597598
3008 4 0.483498 0.0285949 0.604383
809 4 0.474961 0.045726 0.608091
808 2 0.467485 0.0580747 0.628507
810 4 0.460009 0.0704234 0.648923
1083 4 0.051888 0.0840777 0.615755
1127 4 0.0437744 0.103058 0.613351
1126 2 0.0195987 0.102112 0.607041
938 4 0.0681965 0.0838133 0.605329
939 4 0.0976517 0.118413 0.58445
937 2 0.0829241 0.101113 0.59489
1270 2 0.0875328 0.156179 0.59912
1154 4 0.158922 0.145179 0.580289
1221 4 0.176114 0.13811 0.585113
1219 2 0.195345 0.142248 0.600547
1220 4 0.214577 0.146385 0.61598
1212 4 0.230663 0.157691 0.613064
1194 4 0.311434 0.152979 0.657847
887 4 0.304103 0.158627 0.674553
1192 2 0.330232 0.142414 0.645191
1193 4 0.349031 0.131849 0.632534
45 3 0.46155 0.0933674 0.650366
3424 2 0.497031 0.112791 0.66447
1244 4 0.0405302 0.241199 0.572269
878 4 0.0402163 0.222801 0.578325
877 2 0.055977 0.204565 0.584974
879 4 0.0717377 0.186328 0.591623
1272 4 0.073037 0.174898 0.60716
1210 2 0.245846 0.169336 0.629159
1211 4 0.261028 0.180981 0.645254
886 2 0.287512 0.175445 0.666363
888 4 0.270922 0.192263 0.658173
954 4 0.508207 0.255655 0.583169
982 2 0.0209583 0.317347 0.592736
983 4 0.0410971 0.30491 0.600794
1243 2 0.0408907 0.264861 0.580341
1137 4 0.159365 0.335348 0.608206
1135 2 0.162137 0.315673 0.593027
822 4 0.159338 0.310856 0.648116
820 2 0.149439 0.29761 0.66687
1064 4 0.173744 0.323483 0.644847
797 4 0.267188 0.275689 0.581343
792 4 0.291461 0.324627 0.595267
791 4 0.284473 0.275189 0.592475
790 2 0.287967 0.299908 0.593871
806 4 0.280929 0.344929 0.661275
873 4 0.37159 0.32568 0.603291
1041 4 0.067866 0.375694 0.648176
3264 4 0.0480117 0.373902 0.653099
3262 2 0.0544843 0.355921 0.669223
3240 4 0.0367386 0.387479 0.64364
1039 2 0.0883807 0.386 0.638271
3238 2 0.0210369 0.406724 0.640765
1040 4 0.108895 0.396307 0.628366
993 4 0.122915 0.381163 0.631738
991 2 0.13673 0.366074 0.617362
992 4 0.150544 0.350985 0.602986
1063 2 0.186529 0.341494 0.656564
897 4 0.170106 0.351354 0.603037
1189 2 0.243688 0.373373 0.592716
896 4 0.211974 0.378669 0.601717
895 2 0.19104 0.365012 0.602377
1172 4 0.23632 0.405003 0.605909
1191 4 0.226598 0.389863 0.60054
1065 4 0.199314 0.359506 0.668282
1190 4 0.260778 0.356884 0.584892
1239 4 0.319167 0.382919 0.589971
1238 4 0.301589 0.3388 0.605631
1237 2 0.310378 0.360859 0.597801
811 2 0.408659 0.338605 0.587579
1204 2 0.39295 0.390926 0.608886
1205 4 0.372787 0.397361 0.622199
1206 4 0.413113 0.384492 0.595573
925 2 0.444463 0.38278 0.585137
927 4 0.424162 0.36846 0.587957
812 4 0.430139 0.351051 0.584604
539 4 0.0635002 0.437921 0.596124
538 2 0.0787023 0.457579 0.593356
3239 4 0.00533522 0.425969 0.637889
1160 4 0.109212 0.480262 0.578626
1159 2 0.133422 0.480527 0.58487
1161 4 0.157632 0.480793 0.591114
1171 2 0.223861 0.424681 0.615006
1188 4 0.173412 0.486763 0.598881
1186 2 0.18309 0.468752 0.613273
1173 4 0.211402 0.444358 0.624103
1187 4 0.192769 0.450741 0.627665
891 4 0.315896 0.483871 0.592184
1000 2 0.477221 0.43489 0.582168
1911 4 0.465961 0.474608 0.577204
1001 4 0.474044 0.459482 0.585385
1269 4 0.471565 0.473544 0.597388
1267 2 0.470346 0.487935 0.617798
945 4 0.0515649 0.0043338 0.675296
943 2 0.0494514 0.0285532 0.681139
944 4 0.0473378 0.0527727 0.686981
1076 4 0.0648941 0.0607801 0.680524
1075 2 0.0678434 0.0791422 0.697236
1282 2 0.143418 0.0702341 0.675422
1284 4 0.142729 0.0882643 0.692732
1147 2 0.251182 0.0601299 0.67807
1149 4 0.245444 0.0380019 0.667941
1092 4 0.300914 0.00591168 0.687534
1004 4 0.319517 0.0771665 0.746644
42 3 0.455249 0.0618157 0.669279
1163 4 0.471114 0.0694466 0.682788
1162 2 0.487596 0.0556409 0.695553
1113 4 0.420679 0.0758039 0.752904
864 4 0.0578191 0.094826 0.72719
1077 4 0.0707926 0.0975043 0.713949
1107 4 0.0782816 0.0994039 0.730647
851 4 0.0792021 0.11457 0.717205
862 2 0.0374832 0.092842 0.741601
850 2 0.0857713 0.132216 0.700753
852 4 0.0923405 0.149862 0.684302
1105 2 0.0967559 0.102443 0.747219
909 4 0.163332 0.0899511 0.69223
907 2 0.1812 0.107288 0.689917
908 4 0.199068 0.124624 0.687605
1227 4 0.217611 0.130374 0.684881
1225 2 0.237829 0.115936 0.687699
1226 4 0.258047 0.101497 0.690517
1148 4 0.256919 0.082258 0.6882
829 2 0.320715 0.145949 0.703235
831 4 0.340171 0.132839 0.711881
1005 4 0.330407 0.120715 0.724606
1003 2 0.324962 0.0989408 0.735625
830 4 0.301258 0.159058 0.694589
41 1 0.454893 0.0847896 0.670385
43 3 0.433279 0.0917351 0.675181
44 3 0.469346 0.0917156 0.687165
3425 4 0.476717 0.0987331 0.668333
1025 4 0.42785 0.163826 0.678732
1024 2 0.439523 0.171894 0.699319
1177 2 0.011705 0.242161 0.720912
1073 4 0.063529 0.23397 0.74631
1072 2 0.0876545 0.239909 0.743505
1074 4 0.11178 0.245847 0.7407
1208 4 0.128673 0.238828 0.732874
1130 4 0.139755 0.23584 0.749121
978 4 0.309812 0.201931 0.720639
976 2 0.296804 0.207864 0.741152
1142 4 0.450295 0.17258 0.738024
1144 2 0.487644 0.172672 0.733617
1262 4 0.457757 0.198445 0.721574
1026 4 0.451197 0.179962 0.719905
1261 2 0.457631 0.223378 0.719694
1145 4 0.465111 0.18268 0.729456
1263 4 0.457504 0.24831 0.717814
1179 4 0.0291755 0.255028 0.708486
1209 4 0.14233 0.277964 0.704901
1207 2 0.135501 0.258396 0.718887
821 4 0.13954 0.284364 0.685625
807 4 0.238256 0.343443 0.687305
805 2 0.259592 0.344186 0.67429
1019 4 0.370511 0.324207 0.717269
1018 2 0.381144 0.333957 0.696847
3123 4 0.479098 0.270196 0.667061
3263 4 0.0609569 0.33794 0.685347
1279 2 0.0420296 0.387934 0.74672
1281 4 0.0409686 0.412086 0.740338
894 4 0.0309513 0.347386 0.752813
892 2 0.0120925 0.331824 0.747585
1028 4 0.221805 0.376617 0.708255
1066 2 0.194876 0.370342 0.737869
1068 4 0.206627 0.382348 0.71935
1027 2 0.234377 0.395134 0.697108
1020 4 0.391778 0.343707 0.676425
1983 4 0.0379988 0.431471 0.743987
1981 2 0.0564608 0.446947 0.750683
2172 4 0.128317 0.504709 0.680872
2016 4 0.167824 0.496128 0.720234
1029 4 0.246948 0.413651 0.685961
1175 4 0.199182 0.437684 0.726555
1174 2 0.183743 0.456842 0.722103
1176 4 0.168305 0.475999 0.717651
1140 4 0.237212 0.430747 0.684369
1138 2 0.258355 0.443793 0.687186
1139 4 0.279498 0.456839 0.690003
1987 2 0.291084 0.456844 0.732631
1229 4 0.299016 0.459114 0.694266
1989 4 0.303299 0.464475 0.712192
2028 4 0.288403 0.471595 0.699307
1228 2 0.314656 0.447863 0.67833
2026 2 0.290966 0.495716 0.69324
1230 4 0.330297 0.436611 0.662394
2991 4 0.00683014 0.0417278 0.801933
2989 2 0.00551728 0.0597819 0.784685
2049 4 0.115547 0.02161 0.795044
1202 4 0.107971 0.0321087 0.808229
2047 2 0.126417 0.00839354 0.776814
1201 2 0.114265 0.0555449 0.802203
1203 4 0.120559 0.0789812 0.796177
817 2 0.330708 0.0462653 0.824996
1085 4 0.308661 0.0797772 0.833174
818 4 0.336893 0.025194 0.813041
819 4 0.324523 0.0673367 0.836952
974 4 0.340661 0.00716812 0.801401
1111 2 0.444769 0.069361 0.754741
845 4 0.48657 0.0611053 0.767481
1112 4 0.468858 0.0629181 0.756578
833 4 0.0109321 0.0942309 0.773268
832 2 0.0187357 0.111138 0.789954
2990 4 0.00420441 0.0778359 0.767436
863 4 0.0171473 0.090858 0.756013
1125 4 0.037294 0.142416 0.81464
834 4 0.0265394 0.128044 0.806641
1106 4 0.11523 0.105483 0.763792
911 4 0.118166 0.108915 0.820609
34 3 0.1202 0.0932142 0.77847
31 1 0.129648 0.104226 0.796577
35 3 0.11696 0.122293 0.802167
32 3 0.130524 0.0897633 0.814444
33 3 0.151214 0.111008 0.791351
1255 2 0.24862 0.0935116 0.787019
1256 4 0.23216 0.100856 0.804348
840 4 0.238875 0.104927 0.823319
838 2 0.238635 0.126058 0.836684
1257 4 0.26508 0.0861676 0.76969
1084 2 0.297946 0.0940304 0.815646
1086 4 0.287231 0.108284 0.798119
1023 4 0.400256 0.157773 0.819801
1052 4 0.414018 0.149689 0.83196
1021 2 0.37839 0.145668 0.820511
844 2 0.490747 0.0802454 0.783018
1129 2 0.157248 0.238805 0.766739
1131 4 0.174741 0.24177 0.784357
1277 4 0.19024 0.243366 0.797852
977 4 0.283797 0.213797 0.761665
918 4 0.285465 0.228662 0.773317
1298 4 0.280409 0.209104 0.779631
1297 2 0.289014 0.203823 0.802505