ITEM: TIMESTEP
3320000
ITEM: NUMBER OF ATOMS
4590
ITEM: BOX BOUNDS pp pp pp
-9.9985700000000008e+00 9.9985700000000008e+00
-9.9985700000000008e+00 9.9985700000000008e+00
-9.9985700000000008e+00 9.9985700000000008e+00
ITEM: ATOMS id type xs ys zs
701 4 0.0368824 0.0469262 0.0692076
700 2 0.0517651 0.0665094 0.0647152
1667 4 0.0170977 0.049298 0.0667258
996 4 0.0982939 0.0115695 0.999827
490 2 0.26746 0.065624 0.0732052
492 4 0.276491 0.0472929 0.0587969
1474 2 0.275127 0.00451563 0.0687666
1475 4 0.275841 0.0295006 0.0681174
2974 2 0.467892 0.029424 0.0350708
745 2 0.418221 0.0759031 0.0311522
747 4 0.435704 0.0580302 0.0314073
2975 4 0.451374 0.0479281 0.0319194
986 4 0.434602 0.0437508 0.0196955
2976 4 0.48441 0.0109198 0.0382221
2468 4 0.500539 0.0046202 0.0456014
2467 2 0.508007 0.00536255 0.0694521
3836 4 0.496278 0.997654 0.0285596
702 4 0.0666478 0.0860926 0.0602227
476 4 0.0526145 0.100012 0.0600456
475 2 0.0645491 0.121107 0.0661913
477 4 0.0764838 0.142201 0.0723371
566 4 0.205985 0.141591 0.0355411
565 2 0.216091 0.145368 0.0129848
491 4 0.258429 0.083955 0.0876135
746 4 0.400737 0.093776 0.0308971
769 2 0.385976 0.150536 0.0291198
556 2 0.370171 0.0987795 0.014468
558 4 0.38658 0.107081 0.0314096
771 4 0.380534 0.126214 0.0311144
737 4 0.22533 0.171412 0.0458064
736 2 0.20813 0.189552 0.0463426
738 4 0.190931 0.207692 0.0468788
573 4 0.267571 0.258637 0.0515741
770 4 0.391418 0.174859 0.0271252
359 4 0.393259 0.18804 0.0118464
664 2 0.397395 0.211969 0.0454764
665 4 0.397567 0.192559 0.0297155
666 4 0.397224 0.231379 0.0612373
623 4 0.388893 0.24176 0.0768054
2808 4 0.0121287 0.278687 0.0140271
3338 4 0.0158148 0.266897 0.997768
481 2 0.235624 0.285519 0.0622714
505 2 0.190753 0.3177 0.073782
483 4 0.214451 0.295893 0.070593
506 4 0.200343 0.29729 0.0845832
537 4 0.194047 0.281011 0.0957975
482 4 0.256798 0.275145 0.0539497
571 2 0.290376 0.259351 0.0413457
572 4 0.31318 0.260066 0.0311173
357 4 0.320289 0.273177 0.0183256
355 2 0.32839 0.296001 0.0121101
323 4 0.405982 0.246161 0.0694771
1069 2 0.407574 0.316296 0.0382849
322 2 0.417034 0.265976 0.0589711
956 4 0.336231 0.338697 0.0145884
324 4 0.428086 0.285792 0.048465
1070 4 0.427061 0.300644 0.0375893
280 2 0.456957 0.306587 0.0599891
282 4 0.444982 0.295131 0.0412664
281 4 0.468932 0.318043 0.0787118
292 2 0.152736 0.342531 0.0421796
294 4 0.131169 0.335625 0.0315791
507 4 0.181164 0.33811 0.0629808
286 2 0.203022 0.333444 0.02401
287 4 0.190941 0.34109 0.0445223
293 4 0.174303 0.349437 0.0527801
552 4 0.173264 0.351019 0.0740611
456 4 0.205347 0.399649 0.0583147
454 2 0.196172 0.376389 0.0583163
455 4 0.186997 0.35313 0.0583179
1290 4 0.273124 0.40072 0.0650028
1288 2 0.283633 0.387526 0.0465466
1289 4 0.294143 0.374331 0.0280903
251 4 0.257858 0.413098 0.0583343
903 4 0.295154 0.372633 0.00885247
901 2 0.309504 0.352397 0.00572256
1071 4 0.388088 0.331948 0.0389805
955 2 0.355063 0.339982 0.0309857
957 4 0.373896 0.341267 0.047383
741 4 0.388147 0.337423 0.0591402
739 2 0.390698 0.342678 0.0834518
1304 4 0.376806 0.364376 0.00704571
1303 2 0.372561 0.388144 0.000544255
1788 4 0.0926764 0.467198 0.0823591
1786 2 0.107909 0.483953 0.0717581
625 2 0.16385 0.487241 0.0561268
1690 2 0.123873 0.495017 0.0172113
626 4 0.184399 0.474029 0.0507997
245 4 0.202336 0.469948 0.0599381
244 2 0.221349 0.455783 0.0519957
246 4 0.240361 0.441619 0.0440533
272 4 0.256562 0.428226 0.0471372
271 2 0.266257 0.437897 0.0262168
273 4 0.275952 0.447568 0.00529638
1672 2 0.41066 0.436901 0.0745399
853 2 0.399535 0.450638 0.0197576
855 4 0.381727 0.446234 0.00276713
37 3 0.366929 0.429477 0.00736141
854 4 0.417342 0.455041 0.036748
1674 4 0.419635 0.446023 0.053059
564 4 0.436068 0.450738 0.0449856
563 4 0.472049 0.476486 0.0216803
562 2 0.454058 0.463612 0.0333329
228 4 0.484556 0.485875 0.00773838
19 3 0.0599575 0.00700735 0.147414
578 4 0.0727161 0.0213801 0.161642
577 2 0.0885808 0.0392364 0.15425
579 4 0.104446 0.0570928 0.146859
450 4 0.12283 0.0536886 0.140409
448 2 0.142426 0.0684616 0.145199
582 4 0.246921 0.0854332 0.161904
449 4 0.162021 0.0832346 0.149989
486 4 0.43387 0.000158251 0.103437
393 4 0.0536869 0.165419 0.170272
312 4 0.353248 0.121264 0.143998
628 2 0.366966 0.163711 0.151176
629 4 0.362266 0.139424 0.147537
310 2 0.344244 0.108556 0.163558
2722 2 0.499859 0.0869026 0.127749
2723 4 0.494132 0.1087 0.116921
391 2 0.0595232 0.189666 0.172062
392 4 0.0653596 0.213913 0.173852
339 4 0.0691249 0.226998 0.159322
2759 4 0.00370252 0.167641 0.125477
755 4 0.244463 0.246 0.148258
460 2 0.326547 0.225286 0.117095
461 4 0.306028 0.213157 0.109541
354 4 0.285693 0.215502 0.115459
352 2 0.274626 0.230339 0.132268
353 4 0.263558 0.245176 0.149077
462 4 0.347065 0.237415 0.124648
255 4 0.364967 0.235855 0.131949
253 2 0.374569 0.218755 0.147458
622 2 0.373799 0.24425 0.0965829
624 4 0.358705 0.24674 0.11636
254 4 0.384171 0.201654 0.162968
630 4 0.371666 0.187997 0.154815
536 4 0.161234 0.271365 0.13228
535 2 0.17764 0.276188 0.114039
754 2 0.231527 0.267214 0.151051
756 4 0.218591 0.288428 0.153844
301 2 0.321959 0.320208 0.144538
303 4 0.320929 0.30257 0.162231
764 4 0.331283 0.286759 0.161437
284 4 0.272454 0.258578 0.160241
283 2 0.292082 0.273702 0.163586
765 4 0.355052 0.251974 0.134498
763 2 0.343167 0.269367 0.147968
12 3 0.4063 0.322716 0.130741
671 4 0.459306 0.326173 0.094424
527 4 0.478547 0.32773 0.0924437
526 2 0.502797 0.33113 0.0873856
647 4 0.065798 0.33897 0.142823
550 2 0.161269 0.357019 0.0951634
551 4 0.149275 0.36302 0.116266
302 4 0.322988 0.337845 0.126845
387 4 0.326212 0.355619 0.11856
385 2 0.351143 0.356474 0.116855
493 2 0.393304 0.388796 0.111526
495 4 0.391284 0.3645 0.117076
386 4 0.376074 0.357329 0.115151
15 3 0.376403 0.344715 0.126855
740 4 0.393249 0.347934 0.107763
14 3 0.410882 0.358846 0.121452
11 1 0.398071 0.343974 0.133827
13 3 0.39932 0.349301 0.156376
494 4 0.395323 0.413093 0.105976
672 4 0.415756 0.339409 0.115134
670 2 0.437531 0.332791 0.104779
596 4 0.491007 0.386565 0.155538
1465 2 0.0660311 0.462513 0.103218
1466 4 0.0440038 0.471965 0.110333
1467 4 0.0880585 0.45306 0.0961031
1791 4 0.0412072 0.491108 0.109081
290 4 0.211253 0.429298 0.164854
766 2 0.21055 0.467195 0.159839
768 4 0.2195 0.444562 0.154111
250 2 0.260984 0.420949 0.0818666
252 4 0.264111 0.4288 0.105399
609 4 0.280575 0.418875 0.113015
607 2 0.30543 0.421544 0.113518
608 4 0.330286 0.424213 0.114022
1317 4 0.336655 0.505361 0.128087
659 4 0.337229 0.433562 0.0989975
660 4 0.386993 0.432069 0.103698
1673 4 0.401686 0.427779 0.0960207
658 2 0.362111 0.432816 0.101348
524 4 0.407798 0.481594 0.138288
523 2 0.405969 0.46118 0.123966
525 4 0.40414 0.440767 0.109644
1559 4 0.393877 0.496733 0.137885
1558 2 0.369714 0.501625 0.142061
2479 2 0.0228208 0.0196394 0.203056
380 4 0.0163151 0.0549837 0.211135
2481 4 0.0234849 0.0385689 0.219378
379 2 0.0321058 0.0742951 0.209431
20 3 0.0747533 0.00998238 0.181908
580 2 0.250427 0.0631477 0.172686
1506 4 0.25482 0.0133309 0.205805
581 4 0.253933 0.0408623 0.183468
654 4 0.261296 0.0312235 0.19914
652 2 0.268987 0.0421194 0.22029
653 4 0.276678 0.0530152 0.241439
758 4 0.344234 0.0778981 0.188628
759 4 0.369903 0.0628965 0.228837
757 2 0.357069 0.0703973 0.208733
350 4 0.38038 0.0550528 0.234708
349 2 0.404566 0.0513185 0.229582
22 3 0.365673 0.0476748 0.24137
632 4 0.371629 0.0671853 0.242303
25 3 0.341744 0.0194132 0.236724
480 4 0.442579 0.0386112 0.235412
351 4 0.428752 0.0475841 0.224456
513 4 0.0403293 0.150283 0.168436
511 2 0.0430354 0.128502 0.180412
512 4 0.0457415 0.106721 0.192388
381 4 0.0478965 0.0936065 0.207727
237 4 0.227121 0.0893271 0.160912
235 2 0.202126 0.0895838 0.161498
236 4 0.17713 0.0898405 0.162085
30 3 0.344964 0.15036 0.251957
311 4 0.335239 0.0958487 0.183119
26 1 0.363773 0.139926 0.244475
28 3 0.360122 0.131281 0.223254
761 4 0.415085 0.119546 0.19588
27 3 0.380983 0.155154 0.243441
333 4 0.491369 0.0814249 0.230985
521 4 0.462622 0.141946 0.226614
762 4 0.453566 0.125306 0.227292
760 2 0.434326 0.122426 0.211586
332 4 0.472607 0.127705 0.233593
331 2 0.481988 0.104565 0.232289
520 2 0.477156 0.160408 0.218063
337 2 0.0643494 0.24683 0.173781
396 4 0.0132063 0.245887 0.250416
546 4 0.0875449 0.234698 0.239742
544 2 0.111247 0.237564 0.24717
279 4 0.256746 0.215008 0.201871
277 2 0.256692 0.231539 0.183112
278 4 0.256638 0.248071 0.164354
522 4 0.49169 0.178869 0.209512
394 2 0.0270375 0.258016 0.233483
395 4 0.0408688 0.270146 0.216549
338 4 0.0595739 0.266662 0.188241
363 4 0.0593496 0.27146 0.20687
361 2 0.0696708 0.294097 0.204377
362 4 0.079992 0.316734 0.201884
545 4 0.134949 0.240431 0.254598
372 4 0.0967621 0.320868 0.191907
612 4 0.228883 0.3036 0.16273
611 4 0.233682 0.319559 0.209878
610 2 0.231283 0.311579 0.186304
344 4 0.226247 0.309471 0.227043
343 2 0.206812 0.310316 0.242751
285 4 0.31171 0.288825 0.166932
729 4 0.310818 0.305622 0.178214
727 2 0.294764 0.319945 0.190954
308 4 0.323865 0.291405 0.178541
498 4 0.337544 0.29657 0.228823
307 2 0.336513 0.286709 0.199592
309 4 0.349161 0.282013 0.220643
749 4 0.0671115 0.331359 0.203962
648 4 0.0812508 0.332536 0.189945
748 2 0.0678849 0.344688 0.225103
646 2 0.0735244 0.335753 0.166384
750 4 0.0686583 0.358016 0.246244
733 2 0.155745 0.334516 0.241503
370 2 0.115889 0.333693 0.201647
371 4 0.135016 0.346517 0.211388
734 4 0.140634 0.35177 0.231548
417 4 0.138517 0.362868 0.219105
299 4 0.136782 0.368658 0.239095
415 2 0.151472 0.382858 0.211506
298 2 0.112454 0.366866 0.24458
416 4 0.164426 0.402849 0.203907
289 2 0.195315 0.41505 0.177821
291 4 0.179377 0.400801 0.190787
728 4 0.278711 0.334269 0.203693
445 2 0.385296 0.375888 0.230121
447 4 0.408685 0.384307 0.227425
446 4 0.361908 0.367469 0.232818
644 4 0.422711 0.372925 0.218069
595 2 0.488929 0.390016 0.180215
643 2 0.444857 0.383825 0.21408
645 4 0.467003 0.394724 0.210091
597 4 0.48685 0.393466 0.204892
767 4 0.2016 0.489828 0.165567
412 2 0.237627 0.484867 0.232092
414 4 0.229255 0.484815 0.208532
229 2 0.455715 0.482273 0.206465
231 4 0.469913 0.463121 0.214002
234 4 0.0143453 0.0518659 0.290721
232 2 0.0358071 0.0399144 0.295383
233 4 0.0572689 0.0279629 0.300045
317 4 0.063529 0.021631 0.316735
1404 4 0.0717017 0.0126785 0.302318
1402 2 0.0816883 0.00260448 0.281728
428 4 0.0717084 0.00518201 0.32145
693 4 0.331645 0.0509034 0.283121
691 2 0.313261 0.0674335 0.286862
24 3 0.337804 0.0426538 0.266084
21 1 0.35292 0.0318678 0.252171
23 3 0.366901 0.0182428 0.264713
257 4 0.421309 0.0832298 0.319054
479 4 0.458925 0.038987 0.28267
478 2 0.450752 0.0387991 0.259041
2664 4 0.475203 0.0316652 0.290377
1428 4 0.45632 0.0291743 0.295825
258 4 0.448434 0.0489682 0.294741
2662 2 0.500135 0.0306094 0.291949
256 2 0.434872 0.066099 0.306897
1426 2 0.447928 0.00941392 0.308642
403 2 0.233202 0.148004 0.320927
404 4 0.252129 0.133238 0.327919
405 4 0.214274 0.16277 0.313936
692 4 0.294878 0.0839637 0.290602
721 2 0.269898 0.0980858 0.31203
723 4 0.275869 0.0792842 0.296667
722 4 0.263927 0.116887 0.327393
29 3 0.369705 0.122881 0.259059
631 2 0.372509 0.0872889 0.257144
707 4 0.366857 0.119906 0.278522
633 4 0.373389 0.107392 0.271984
706 2 0.361839 0.133724 0.298747
708 4 0.356821 0.147543 0.318972
444 4 0.995155 0.229525 0.302201
442 2 0.00941964 0.23993 0.284497
443 4 0.023684 0.250336 0.266793
600 4 0.117039 0.208464 0.327474
473 4 0.199809 0.17429 0.323295
269 4 0.419778 0.221514 0.323682
419 4 0.401551 0.230358 0.324628
402 4 0.151067 0.2535 0.257391
375 4 0.16682 0.323741 0.330101
400 2 0.161468 0.276209 0.256238
735 4 0.170857 0.317262 0.251459
401 4 0.171869 0.298917 0.255086
676 2 0.173398 0.321454 0.291953
677 4 0.171978 0.309963 0.269792
345 4 0.187376 0.31116 0.258459
678 4 0.174819 0.332945 0.314114
378 4 0.273278 0.303252 0.306923
376 2 0.295633 0.310657 0.298521
377 4 0.317988 0.318063 0.290119
615 4 0.329245 0.328977 0.301885
497 4 0.326395 0.311649 0.275181
418 2 0.391784 0.251176 0.31481
496 2 0.331969 0.304109 0.252002
541 2 0.352867 0.299575 0.303508
542 4 0.372197 0.287132 0.31334
543 4 0.333536 0.312018 0.293675
420 4 0.382017 0.271994 0.304992
2537 4 0.502366 0.331973 0.32933
364 2 0.000625892 0.398537 0.292672
365 4 0.016363 0.417967 0.292594
601 2 0.0447959 0.411455 0.323998
300 4 0.0881251 0.365073 0.250065
510 4 0.180884 0.351119 0.315832
508 2 0.19563 0.370414 0.309877
509 4 0.210376 0.389708 0.303923
434 4 0.330869 0.389715 0.306915
433 2 0.315191 0.408394 0.312436
613 2 0.329802 0.352119 0.311336
614 4 0.33036 0.375261 0.320786
2 3 0.284937 0.41375 0.317857
603 4 0.0282439 0.421545 0.308205
1757 4 0.0139696 0.426407 0.27562
1756 2 0.0325771 0.443109 0.275617
1758 4 0.0511845 0.45981 0.275615
1775 4 0.0675528 0.472169 0.278431
775 2 0.0500831 0.480959 0.310987
777 4 0.0507787 0.475326 0.286636
1776 4 0.115332 0.457846 0.27486
1774 2 0.0914422 0.465007 0.276646
413 4 0.246 0.484918 0.255652
4 3 0.24988 0.419165 0.305434
1436 4 0.242626 0.479662 0.275153
1435 2 0.249343 0.46152 0.290993
1437 4 0.256061 0.443378 0.306834
3 3 0.267463 0.446092 0.325686
1 1 0.264597 0.423235 0.322905
436 2 0.301911 0.461397 0.316679
438 4 0.287662 0.440988 0.319054
435 4 0.299513 0.427073 0.317957
437 4 0.31616 0.481805 0.314304
1802 4 0.328305 0.493828 0.303786
1801 2 0.350481 0.491426 0.315084
1803 4 0.372656 0.489024 0.326382
593 4 0.37329 0.472068 0.337876
119 3 0.480248 0.452739 0.331071
316 2 0.0788828 0.0376288 0.32829
318 4 0.0942367 0.0536266 0.339844
732 4 0.100694 0.0634452 0.357369
730 2 0.125455 0.0656821 0.360023
731 4 0.150217 0.0679189 0.362678
399 4 0.0889209 0.0714629 0.344531
606 4 0.166606 0.0682973 0.350212
604 2 0.188431 0.0717277 0.361919
605 4 0.210257 0.075158 0.373625
1701 4 0.360303 0.00350219 0.388473
699 4 0.377835 0.0601335 0.364254
1699 2 0.370329 0.0218224 0.374724
1700 4 0.380355 0.0401425 0.360976
697 2 0.397505 0.0663936 0.350144
962 4 0.347803 0.0155628 0.411718
425 4 0.363943 0.007533 0.406654
698 4 0.417175 0.0726537 0.336035
397 2 0.0720514 0.0878509 0.353018
398 4 0.0551819 0.104239 0.361505
2584 2 0.022316 0.11461 0.359869
2586 4 0.0447896 0.117291 0.370496
458 4 0.0407314 0.124066 0.389368
457 2 0.0482378 0.144482 0.401699
249 4 0.250268 0.119323 0.340102
248 4 0.221963 0.0903111 0.369392
247 2 0.236116 0.104817 0.354747
683 4 0.267145 0.130414 0.339554
682 2 0.28423 0.14767 0.345513
684 4 0.301316 0.164925 0.351471
319 2 0.334811 0.169441 0.344726
321 4 0.355715 0.158896 0.335952
726 4 0.389239 0.132844 0.401223
717 4 0.369717 0.154854 0.350029
715 2 0.378143 0.153202 0.373512
716 4 0.386569 0.151549 0.396995
467 4 0.401269 0.145848 0.409263
642 4 0.491226 0.124553 0.386594
641 4 0.493064 0.138909 0.338727
640 2 0.492145 0.131731 0.36266
459 4 0.0557441 0.164897 0.414029
598 2 0.125209 0.214567 0.350304
599 4 0.133379 0.22067 0.373133
686 4 0.137564 0.231854 0.389045
685 2 0.120135 0.228207 0.406598
275 4 0.149682 0.228864 0.377371
389 4 0.147722 0.24727 0.384258
274 2 0.173085 0.220306 0.379426
474 4 0.202375 0.201587 0.365116
472 2 0.201092 0.187938 0.344206
276 4 0.196489 0.211748 0.381482
320 4 0.313907 0.179986 0.353501
268 2 0.440684 0.220595 0.337366
270 4 0.461591 0.219676 0.351051
452 4 0.470549 0.229697 0.365708
451 2 0.470555 0.21947 0.388524
453 4 0.470562 0.209244 0.411341
2802 4 0.00523485 0.288983 0.405724
347 4 0.061302 0.309991 0.380211
346 2 0.0434078 0.298414 0.393287
618 4 0.0748233 0.320772 0.366815
348 4 0.0255136 0.286838 0.406362
616 2 0.097427 0.310992 0.371128
373 2 0.150967 0.317847 0.348516
388 2 0.142998 0.271586 0.380854
390 4 0.138275 0.295903 0.37745
617 4 0.120031 0.301212 0.375442
374 4 0.135114 0.311953 0.366932
488 4 0.390641 0.25895 0.393382
487 2 0.388924 0.251177 0.417084
602 4 0.061348 0.401366 0.339791
549 4 0.0639072 0.391859 0.357121
547 2 0.0676219 0.407468 0.376298
5 3 0.256583 0.414014 0.342125
335 4 0.316965 0.372532 0.399095
240 4 0.321879 0.372508 0.37906
238 2 0.337033 0.391641 0.373632
239 4 0.352187 0.410774 0.368204
587 4 0.360455 0.409006 0.349234
752 4 0.455425 0.383873 0.382393
561 4 0.451303 0.365968 0.38985
751 2 0.466442 0.404544 0.373645
559 2 0.465144 0.359566 0.409665
776 4 0.0493876 0.486593 0.335338
500 4 0.0665566 0.478283 0.340098
499 2 0.0692175 0.463599 0.36016
501 4 0.0718784 0.448915 0.380222
407 4 0.0781637 0.441439 0.397602
548 4 0.0713366 0.423077 0.395474
406 2 0.0923948 0.452619 0.414855
568 2 0.135126 0.492387 0.422432
1555 2 0.232695 0.487062 0.395467
1557 4 0.247952 0.478122 0.413144
636 4 0.246842 0.480529 0.432963
588 4 0.374937 0.453923 0.332698
586 2 0.367696 0.431464 0.340966
592 2 0.394347 0.482097 0.346886
2862 4 0.492947 0.472113 0.34513
594 4 0.415404 0.492126 0.355897
116 1 0.489579 0.445131 0.350907
713 4 0.430996 0.491066 0.343165
712 2 0.450929 0.476179 0.345665
714 4 0.470862 0.461292 0.348165
753 4 0.477459 0.425214 0.364897
117 3 0.474547 0.448536 0.367983
718 2 0.015485 0.00799894 0.457415
369 4 0.0569135 0.0214857 0.466675
367 2 0.0768433 0.0111514 0.455667
719 4 0.0385991 0.0172668 0.459655
1781 4 0.117019 0.00292569 0.440448
368 4 0.0967731 0.000817169 0.444658
342 4 0.233454 0.0412341 0.510644
340 2 0.214618 0.0257201 0.505191
341 4 0.195783 0.010206 0.499739
963 4 0.315626 0.0439638 0.437384
432 4 0.309513 0.0602084 0.447271
430 2 0.316333 0.0595067 0.471317
961 2 0.331715 0.0297633 0.424551
431 4 0.323153 0.0588049 0.495362
1217 4 0.409501 0.0657646 0.510533
842 4 0.391436 0.0663964 0.501903
724 2 0.388044 0.109071 0.40888
725 4 0.386849 0.0852989 0.416537
2657 4 0.485219 0.126805 0.450394
260 4 0.0586242 0.182328 0.423224
259 2 0.0741893 0.200456 0.430592
261 4 0.0897544 0.218585 0.437959
687 4 0.102706 0.224561 0.424151
1035 4 0.088214 0.236818 0.430128
1033 2 0.0938229 0.25301 0.448336
409 2 0.39707 0.212458 0.456058
411 4 0.383773 0.233527 0.458165
466 2 0.407728 0.165999 0.422584
410 4 0.410368 0.191388 0.453952
266 4 0.393075 0.250104 0.458002
468 4 0.414187 0.186149 0.435904
574 2 0.419153 0.172379 0.484831
515 4 0.46911 0.208636 0.431575
575 4 0.418609 0.192808 0.470425
516 4 0.427016 0.190054 0.45116
514 2 0.448063 0.199345 0.441368
1034 4 0.0994319 0.269202 0.466544
696 4 0.0978089 0.276336 0.485251
1260 4 0.112378 0.281491 0.473625
1258 2 0.12138 0.303133 0.464919
1259 4 0.130383 0.324774 0.456213
9 3 0.166024 0.316796 0.438375
489 4 0.387207 0.243403 0.440786
265 2 0.387805 0.268655 0.473916
267 4 0.382534 0.287206 0.48983
3308 4 0.470382 0.325033 0.475369
1011 4 0.466267 0.325549 0.494564
1009 2 0.466607 0.300612 0.496363
1010 4 0.466947 0.275676 0.498162
326 4 0.0860202 0.369383 0.441371
503 4 0.133231 0.336305 0.469688
7 3 0.138217 0.338929 0.450605
6 1 0.154686 0.336705 0.4347
327 4 0.121786 0.340593 0.461187
325 2 0.103903 0.354988 0.451279
10 3 0.145162 0.336519 0.414015
709 2 0.144889 0.401485 0.499603
502 2 0.141244 0.347831 0.49038
8 3 0.169331 0.354612 0.436512
334 2 0.311473 0.37603 0.423236
336 4 0.305982 0.379527 0.447377
668 4 0.296613 0.395025 0.451759
882 4 0.314834 0.390673 0.459967
880 2 0.327089 0.386241 0.481306
3309 4 0.495043 0.348348 0.438641
560 4 0.478986 0.353164 0.429479
3307 2 0.482712 0.336691 0.457005
680 4 0.990897 0.454006 0.448771
1381 2 0.00425303 0.487984 0.466011
1383 4 0.00456604 0.468559 0.450271
711 4 0.136843 0.423563 0.491058
408 4 0.106626 0.463799 0.432107
383 4 0.121106 0.460174 0.444021
384 4 0.132005 0.419907 0.471598
569 4 0.124522 0.470251 0.4272
382 2 0.126555 0.440041 0.457809
773 4 0.327739 0.485266 0.498966
635 4 0.278757 0.459773 0.465388
669 4 0.286421 0.443139 0.460805
774 4 0.297082 0.457814 0.470554
772 2 0.312411 0.47154 0.48476
667 2 0.291517 0.419082 0.456282
634 2 0.262799 0.470151 0.449176
663 4 0.454531 0.483156 0.483771
1058 4 0.0865696 0.0945542 0.519398
1152 4 0.244397 0.057256 0.507143
1150 2 0.24455 0.0631007 0.531453
1151 4 0.244702 0.0689453 0.555763
1032 4 0.237721 0.0664535 0.575508
1181 4 0.236161 0.0826805 0.565724
841 2 0.367187 0.0613304 0.498513
843 4 0.342938 0.0562643 0.495123
1216 2 0.432608 0.0652515 0.520071
1218 4 0.455715 0.0647384 0.529609
1270 2 0.0842717 0.150408 0.5688
1271 4 0.0989821 0.130722 0.573409
1057 2 0.0957052 0.104624 0.540382
1059 4 0.104841 0.114693 0.561366
1155 4 0.114433 0.12368 0.572476
939 4 0.0994835 0.112783 0.579647
1153 2 0.136759 0.132764 0.565824
1154 4 0.159084 0.141847 0.559172
1180 2 0.235715 0.105648 0.575598
898 2 0.241202 0.160893 0.556819
900 4 0.235714 0.144432 0.574822
1221 4 0.171313 0.150472 0.574079
1219 2 0.195116 0.144644 0.579042
1220 4 0.218919 0.138816 0.584004
1182 4 0.235269 0.128615 0.585471
576 4 0.419697 0.15195 0.499238
1199 4 0.0271367 0.201867 0.556035
877 2 0.0604821 0.199952 0.562022
1272 4 0.0695614 0.170094 0.56419
878 4 0.0396589 0.213664 0.563909
1198 2 0.00576384 0.211506 0.547348
879 4 0.0813052 0.186241 0.560135
651 4 0.21283 0.230882 0.52801
858 4 0.198021 0.236176 0.514615
649 2 0.226614 0.210081 0.526427
650 4 0.240398 0.189281 0.524843
856 2 0.187371 0.24952 0.532882
899 4 0.24669 0.177354 0.538817
984 4 0.00139965 0.307689 0.574739
695 4 0.102322 0.260119 0.53234
694 2 0.100065 0.268227 0.508795
946 2 0.171308 0.289478 0.571064
857 4 0.176721 0.262863 0.55115
947 4 0.189264 0.278013 0.557975
798 4 0.207872 0.279704 0.562103
796 2 0.230577 0.290024 0.563877
797 4 0.253282 0.300345 0.565651
872 4 0.360115 0.321912 0.574382
2455 2 0.50594 0.254941 0.497979
2457 4 0.483448 0.26512 0.494021
954 4 0.491492 0.291063 0.55572
952 2 0.483697 0.304072 0.575599
3263 4 0.0441018 0.343106 0.568726
3262 2 0.0485637 0.358375 0.588016
710 4 0.152934 0.379407 0.508148
504 4 0.149257 0.359357 0.511071
1189 2 0.250912 0.374283 0.581326
1191 4 0.228939 0.385225 0.586079
804 4 0.282663 0.372638 0.509172
803 4 0.279315 0.364011 0.558315
802 2 0.280989 0.368324 0.533743
1190 4 0.272886 0.363341 0.576572
1238 4 0.289295 0.358946 0.574341
1237 2 0.314255 0.359133 0.57582
1239 4 0.339214 0.35932 0.5773
930 4 0.349107 0.366842 0.562165
929 4 0.355831 0.379898 0.514363
928 2 0.352469 0.37337 0.538264
881 4 0.339344 0.381809 0.502645
1081 2 0.0571175 0.0811538 0.639662
1082 4 0.0634059 0.0680009 0.659976
1126 2 0.0268707 0.079718 0.593822
1128 4 0.00368321 0.075158 0.585654
1030 2 0.245458 0.0504927 0.593131
1031 4 0.253194 0.0345319 0.610754
2133 4 0.184614 0.0210505 0.663872
2131 2 0.185957 0.00639765 0.643656
951 4 0.264715 0.0205717 0.618439
949 2 0.28929 0.0165022 0.616271
950 4 0.313864 0.0124328 0.614103
1226 4 0.266388 0.0754732 0.6565
3008 4 0.50083 0.0411571 0.601717
809 4 0.485775 0.0297386 0.608518
808 2 0.480299 0.0441217 0.628224
810 4 0.474822 0.0585047 0.64793
45 3 0.474148 0.0810932 0.644853
1083 4 0.0508292 0.0943067 0.619349
1127 4 0.0500582 0.0842781 0.601991
938 4 0.067163 0.0893264 0.609745
937 2 0.0833232 0.101054 0.594696
1210 2 0.239207 0.140897 0.61749
1212 4 0.233751 0.146826 0.593821
908 4 0.236725 0.124854 0.656685
907 2 0.213284 0.126947 0.66513
1211 4 0.244663 0.134968 0.64116
1227 4 0.254142 0.123464 0.649599
888 4 0.263134 0.140258 0.648926
886 2 0.284678 0.150528 0.65638
887 4 0.306222 0.160798 0.663833
1225 2 0.260265 0.0994687 0.65305
3425 4 0.483668 0.0934298 0.66147
1244 4 0.043188 0.22681 0.578144
1243 2 0.0472092 0.24905 0.588838
1194 4 0.322183 0.173664 0.661686
1192 2 0.333528 0.188435 0.645004
1193 4 0.344872 0.203207 0.628321
3123 4 0.484779 0.214978 0.630377
982 2 0.0202445 0.297047 0.58726
983 4 0.0390894 0.286404 0.599781
1245 4 0.0512303 0.271291 0.599532
948 4 0.153351 0.300942 0.584153
1136 4 0.162292 0.306188 0.601232
1135 2 0.166067 0.326155 0.6158
790 2 0.270365 0.323039 0.584447
791 4 0.263633 0.298983 0.583364
871 2 0.37714 0.318386 0.592351
873 4 0.394166 0.31486 0.61032
813 4 0.4038 0.323577 0.625239
953 4 0.475902 0.317081 0.595479
3112 2 0.484322 0.275625 0.66799
1041 4 0.0677155 0.384728 0.612439
3264 4 0.0530255 0.373645 0.607307
3240 4 0.0487082 0.392248 0.608864
3238 2 0.0292595 0.40735 0.613205
3239 4 0.00981092 0.422453 0.617545
1039 2 0.0905274 0.385217 0.622664
1040 4 0.113339 0.385706 0.632889
993 4 0.130439 0.395662 0.628944
991 2 0.147692 0.377914 0.632487
822 4 0.160594 0.345249 0.646534
992 4 0.164944 0.360166 0.636029
1137 4 0.169843 0.346123 0.630368
1064 4 0.17922 0.35546 0.643523
897 4 0.181718 0.362336 0.625989
896 4 0.21038 0.38239 0.590253
895 2 0.196049 0.372363 0.608121
1172 4 0.222035 0.394218 0.601842
1063 2 0.198618 0.357378 0.659181
792 4 0.277097 0.347094 0.585531
811 2 0.397198 0.344868 0.636566
927 4 0.401055 0.381489 0.649918
812 4 0.390596 0.366159 0.647892
925 2 0.413128 0.397579 0.635066
1206 4 0.382615 0.384175 0.644642
906 4 0.485556 0.333966 0.600103
926 4 0.4252 0.413668 0.620215
539 4 0.0723709 0.448988 0.581238
2244 4 0.110789 0.487022 0.599515
1160 4 0.125716 0.478387 0.60907
540 4 0.107525 0.470586 0.609494
538 2 0.0899479 0.459787 0.595366
1159 2 0.148645 0.477671 0.619015
1171 2 0.222247 0.41904 0.60484
1186 2 0.20846 0.47105 0.627678
1173 4 0.22246 0.443862 0.607838
1187 4 0.228654 0.457343 0.622247
1188 4 0.188265 0.484757 0.633109
1161 4 0.171575 0.476955 0.62896
1029 4 0.24699 0.421121 0.676119
1002 4 0.414404 0.429442 0.622686
1911 4 0.429983 0.492629 0.627107
1001 4 0.437178 0.473058 0.631614
1000 2 0.425791 0.45125 0.62715
1269 4 0.443242 0.488539 0.639725
944 4 0.0496832 0.0355818 0.666293
943 2 0.0393668 0.0137389 0.672745
1076 4 0.0607791 0.0509013 0.671883
1075 2 0.0636218 0.0654065 0.692049
864 4 0.0617399 0.0799982 0.732391
862 2 0.0412269 0.0778451 0.746525
1077 4 0.0664646 0.0799118 0.712216
825 4 0.147997 0.0696227 0.688483
823 2 0.157021 0.0493233 0.677008
1106 4 0.117066 0.0789321 0.751686
1148 4 0.249478 0.0652603 0.651576
2256 4 0.172422 0.0164811 0.678155
824 4 0.166046 0.0290238 0.665533
2254 2 0.166813 0.999332 0.695465
1147 2 0.250389 0.0445686 0.665583
1149 4 0.251299 0.0238768 0.67959
1004 4 0.349297 0.091106 0.750983
41 1 0.462915 0.0764824 0.664119
43 3 0.440479 0.0818756 0.661687
42 3 0.464705 0.0540197 0.668743
1163 4 0.475688 0.0662834 0.684937
1162 2 0.485584 0.0554393 0.705177
851 4 0.0702556 0.0995335 0.71004
850 2 0.0678693 0.123326 0.702732
852 4 0.065483 0.147118 0.695424
1107 4 0.0762958 0.089494 0.724724
1283 4 0.145615 0.0896836 0.69373
1282 2 0.159244 0.105888 0.680431
1105 2 0.0966812 0.084213 0.738205
1284 4 0.172873 0.122093 0.667133
909 4 0.189843 0.129039 0.673576
830 4 0.322205 0.159224 0.673794
829 2 0.334768 0.139184 0.681902
1005 4 0.346678 0.103258 0.702546
1003 2 0.347988 0.0971819 0.726764
831 4 0.34733 0.119143 0.69001
44 3 0.472093 0.0885157 0.681708
3268 2 0.473682 0.136729 0.745593
3270 4 0.481592 0.153564 0.728884
1214 4 0.000560007 0.193867 0.740589
1073 4 0.0698824 0.255649 0.74216
1215 4 0.00219798 0.242598 0.729485
1213 2 0.00137899 0.218233 0.735037
977 4 0.312904 0.247479 0.74067
1297 2 0.286887 0.214761 0.730365
1298 4 0.298367 0.234128 0.741243
918 4 0.29435 0.25281 0.743758
1299 4 0.275407 0.195395 0.719487
1025 4 0.384381 0.192857 0.704323
1024 2 0.40693 0.196045 0.714645
976 2 0.337315 0.251846 0.73747
1020 4 0.381523 0.25319 0.736505
1142 4 0.430726 0.199595 0.743331
1144 2 0.463354 0.184866 0.722287
1262 4 0.43637 0.215918 0.736183
1026 4 0.42948 0.199233 0.724967
1145 4 0.446832 0.201569 0.730842
1146 4 0.479876 0.168162 0.713732
1261 2 0.440822 0.240066 0.740902
1178 4 0.0139998 0.257135 0.73439
1177 2 0.0374601 0.265276 0.737309
1179 4 0.0609203 0.273417 0.740228
1072 2 0.0946183 0.257645 0.739105
1208 4 0.129099 0.27583 0.727521
1074 4 0.119354 0.259641 0.73605
1207 2 0.131327 0.297795 0.715784
821 4 0.13968 0.328163 0.688622
1209 4 0.133555 0.319761 0.704048
1130 4 0.135307 0.26642 0.742695
815 4 0.118688 0.328267 0.710056
806 4 0.252413 0.307872 0.6845
978 4 0.361725 0.256212 0.734269
1263 4 0.445273 0.264213 0.74562
3114 4 0.465519 0.28705 0.679868
892 2 0.0391147 0.356843 0.709316
1280 4 0.070838 0.364044 0.729622
816 4 0.077305 0.356185 0.713019
894 4 0.0602801 0.350061 0.720771
893 4 0.0179494 0.363625 0.697862
820 2 0.150137 0.336706 0.667578
942 4 0.135652 0.338065 0.707057
1279 2 0.0789364 0.384976 0.740642
814 2 0.0979965 0.342226 0.711537
940 2 0.151545 0.351038 0.72135
1078 2 0.169353 0.406052 0.736416
941 4 0.167438 0.364011 0.735643
1080 4 0.172811 0.381452 0.73925
805 2 0.236206 0.326761 0.686895
1065 4 0.218017 0.359295 0.67484
807 4 0.219999 0.345649 0.689289
1028 4 0.223957 0.376881 0.679733
1066 2 0.202518 0.367943 0.712887
1068 4 0.218072 0.364438 0.693626
1027 2 0.235474 0.399001 0.677926
1067 4 0.186965 0.371448 0.732148
1204 2 0.361676 0.383117 0.658267
1205 4 0.340738 0.382059 0.671891
1079 4 0.165894 0.430653 0.733583
1174 2 0.184961 0.48846 0.726048
1175 4 0.181887 0.482824 0.701882
2172 4 0.173981 0.483866 0.684889
1140 4 0.236974 0.438493 0.680454
1228 2 0.312062 0.450717 0.691352
1138 2 0.25532 0.452685 0.689792
1139 4 0.273666 0.466877 0.699129
1987 2 0.306815 0.451179 0.745628
1229 4 0.293119 0.462021 0.703122
1989 4 0.294834 0.458408 0.724906
2028 4 0.284102 0.469959 0.714918
1230 4 0.331006 0.439412 0.679583
2026 2 0.28234 0.494765 0.712327
1099 2 0.486367 0.488709 0.705731
2989 2 0.0180139 0.0460931 0.785259
2990 4 0.0181245 0.0701515 0.77845
2991 4 0.0179033 0.0220346 0.792067
863 4 0.0207139 0.0756921 0.760659
3083 4 0.00521899 0.0818343 0.769416
833 4 0.021227 0.0888559 0.776211
2049 4 0.0970683 0.00719847 0.777257
1202 4 0.1038 0.0253386 0.781571
1201 2 0.115187 0.0475372 0.779917
1203 4 0.126574 0.0697358 0.778263
32 3 0.145106 0.0749869 0.790082
1085 4 0.312534 0.0703533 0.806746
960 4 0.320913 0.0715025 0.824647
819 4 0.321617 0.0552647 0.814488
1050 4 0.346371 0.00497773 0.792393
817 2 0.33812 0.0390904 0.804937
818 4 0.354622 0.0229161 0.795385
974 4 0.358452 0.00792739 0.80731
2320 2 0.483888 0.0486243 0.767479
844 2 0.485985 0.0532931 0.829264
845 4 0.478927 0.0573767 0.805627
2322 4 0.471942 0.0567087 0.787902
1112 4 0.473731 0.0740336 0.798519
832 2 0.0191511 0.105219 0.795002
834 4 0.0170751 0.121582 0.813794
1125 4 0.0329994 0.131262 0.816346
34 3 0.117981 0.089619 0.768569
911 4 0.143461 0.0919852 0.804706
31 1 0.13783 0.0941757 0.779689
35 3 0.134426 0.110358 0.795348
33 3 0.153989 0.101091 0.764541
910 2 0.148294 0.0931474 0.82921
1256 4 0.221499 0.129223 0.827465