ITEM: TIMESTEP
3220000
ITEM: NUMBER OF ATOMS
4590
ITEM: BOX BOUNDS pp pp pp
-9.9985700000000008e+00 9.9985700000000008e+00
-9.9985700000000008e+00 9.9985700000000008e+00
-9.9985700000000008e+00 9.9985700000000008e+00
ITEM: ATOMS id type xs ys zs
701 4 0.0347655 0.066769 0.0754595
700 2 0.0546829 0.0772003 0.0645204
490 2 0.279162 0.061874 0.0627533
492 4 0.266634 0.0414673 0.0699502
491 4 0.29169 0.0822807 0.0555565
1474 2 0.272827 0.0042855 0.0823906
2974 2 0.46161 0.0163042 0.021927
745 2 0.425977 0.0682022 0.0243702
747 4 0.437355 0.0487161 0.0135998
2975 4 0.443133 0.0297815 0.0118204
986 4 0.427149 0.0352398 0.00390178
2976 4 0.480087 0.00282697 0.0320336
2468 4 0.488984 0.00072515 0.0493212
702 4 0.0746002 0.0876316 0.0535812
476 4 0.0752099 0.107474 0.0516581
475 2 0.068472 0.130959 0.0569739
477 4 0.0617342 0.154443 0.0622897
566 4 0.187884 0.14026 0.00686138
565 2 0.211124 0.148711 0.00316799
746 4 0.414598 0.0876883 0.0351407
769 2 0.400912 0.156526 0.0205725
556 2 0.384463 0.10113 0.00616017
558 4 0.405371 0.0991863 0.0197342
771 4 0.392739 0.132908 0.0213592
737 4 0.235881 0.187436 0.0456768
736 2 0.211826 0.191961 0.05078
738 4 0.18777 0.196487 0.0558833
770 4 0.409084 0.180143 0.0197859
359 4 0.397095 0.195562 0.0171995
664 2 0.400056 0.208772 0.0513675
665 4 0.402513 0.190037 0.0349929
666 4 0.397598 0.227508 0.0677421
323 4 0.396137 0.244348 0.0586554
623 4 0.384878 0.241018 0.0737333
2808 4 0.0128006 0.267238 0.0112065
292 2 0.150842 0.332625 0.0379952
294 4 0.129202 0.329634 0.0258312
555 4 0.0951506 0.247679 5.87132e-05
507 4 0.181306 0.323018 0.0576726
286 2 0.202449 0.330231 0.019888
481 2 0.235425 0.269405 0.0650534
505 2 0.188985 0.300488 0.0653264
483 4 0.212487 0.278045 0.0601143
506 4 0.196663 0.277957 0.0729802
287 4 0.189481 0.331564 0.0412242
482 4 0.258362 0.260765 0.0699925
573 4 0.267141 0.26107 0.0527546
571 2 0.291159 0.261592 0.0458227
572 4 0.315176 0.262114 0.0388907
357 4 0.314919 0.272522 0.0217008
355 2 0.323048 0.293415 0.0106296
1069 2 0.406525 0.315728 0.0395968
322 2 0.411225 0.262527 0.0504678
956 4 0.339595 0.328201 0.00969321
1071 4 0.388766 0.332931 0.0433121
324 4 0.426313 0.280707 0.0422802
1070 4 0.424285 0.298524 0.0358815
280 2 0.456448 0.303574 0.0603224
282 4 0.44201 0.290822 0.0443811
281 4 0.470886 0.316326 0.0762638
293 4 0.172481 0.335616 0.0501592
552 4 0.173634 0.334366 0.071037
456 4 0.211573 0.381693 0.072332
454 2 0.198432 0.36179 0.0648258
455 4 0.18529 0.341887 0.0573196
1290 4 0.270655 0.406044 0.0444919
1288 2 0.278109 0.38609 0.0313988
1289 4 0.285562 0.366135 0.0183057
251 4 0.257585 0.416668 0.0564264
903 4 0.291872 0.367111 0.999146
955 2 0.357275 0.33759 0.0246751
957 4 0.374955 0.346979 0.0396569
741 4 0.381857 0.343856 0.0577309
739 2 0.388151 0.348166 0.0815425
1304 4 0.363287 0.361841 0.00133854
1787 4 0.101112 0.498268 0.0533292
1786 2 0.0952116 0.480574 0.0699809
626 4 0.202919 0.482493 0.0552478
625 2 0.182745 0.496726 0.0512968
245 4 0.195316 0.463655 0.0580049
244 2 0.213642 0.447216 0.0536375
246 4 0.231968 0.430776 0.0492701
250 2 0.262268 0.416472 0.0809867
272 4 0.250732 0.43079 0.0418079
271 2 0.267935 0.442224 0.0277194
273 4 0.285138 0.453659 0.013631
1672 2 0.409941 0.437578 0.0736608
853 2 0.404524 0.441367 0.0172482
855 4 0.385574 0.440525 0.000957946
37 3 0.368033 0.427267 0.00608463
854 4 0.423474 0.442209 0.0335384
1674 4 0.424466 0.441395 0.0536701
564 4 0.437764 0.45111 0.0430823
563 4 0.476418 0.475953 0.0233495
562 2 0.457091 0.463531 0.0332159
228 4 0.471633 0.480098 0.00407604
1667 4 0.0190107 0.0765142 0.0859872
19 3 0.0578232 0.0136998 0.149454
578 4 0.0792797 0.0172606 0.15938
577 2 0.0952615 0.0350224 0.152012
579 4 0.111243 0.0527842 0.144644
450 4 0.121828 0.0658491 0.15546
582 4 0.238018 0.0796443 0.153322
1475 4 0.276234 0.0290458 0.083099
580 2 0.251167 0.0601705 0.16187
486 4 0.422612 0.00115128 0.116165
513 4 0.0444041 0.157095 0.164082
312 4 0.366635 0.12868 0.158414
628 2 0.382682 0.162464 0.155905
629 4 0.384086 0.137903 0.151437
310 2 0.353581 0.108343 0.164831
2722 2 0.48205 0.0847207 0.131025
2723 4 0.460533 0.0974066 0.1299
391 2 0.0520581 0.189038 0.153335
392 4 0.0694177 0.206977 0.151921
393 4 0.0346985 0.171098 0.154749
755 4 0.245998 0.238197 0.160342
460 2 0.322762 0.228345 0.120021
461 4 0.300883 0.217367 0.114924
354 4 0.282811 0.210406 0.120823
352 2 0.274184 0.220905 0.141811
353 4 0.265556 0.231405 0.1628
462 4 0.344641 0.239323 0.125117
255 4 0.360976 0.240303 0.134274
253 2 0.37442 0.223106 0.146468
622 2 0.371466 0.244769 0.0944995
624 4 0.358054 0.24852 0.115266
254 4 0.387863 0.205909 0.158662
630 4 0.381279 0.187025 0.160372
536 4 0.172853 0.256727 0.132479
537 4 0.197265 0.266516 0.0899477
535 2 0.185059 0.261621 0.111213
754 2 0.233567 0.259769 0.158041
756 4 0.221136 0.281341 0.155739
612 4 0.216363 0.29858 0.165648
301 2 0.315274 0.318164 0.150108
303 4 0.312648 0.299362 0.166379
764 4 0.327696 0.285184 0.16406
765 4 0.352871 0.25699 0.131318
763 2 0.340284 0.271087 0.147689
12 3 0.412217 0.327316 0.126051
671 4 0.45929 0.328967 0.0863248
527 4 0.475567 0.32379 0.0929065
647 4 0.0556697 0.358272 0.15018
550 2 0.158067 0.337312 0.0903799
551 4 0.142499 0.340257 0.109723
290 4 0.217612 0.415876 0.163884
302 4 0.3179 0.336967 0.133837
387 4 0.327579 0.351121 0.123016
385 2 0.351844 0.355068 0.118455
493 2 0.390651 0.392485 0.109601
495 4 0.391534 0.368071 0.114927
386 4 0.376109 0.359016 0.113894
15 3 0.379873 0.345937 0.125865
740 4 0.394445 0.352476 0.105354
14 3 0.411908 0.363964 0.117715
11 1 0.402078 0.347435 0.130698
13 3 0.404973 0.352272 0.153206
526 2 0.497701 0.333936 0.08722
672 4 0.418061 0.345145 0.109544
670 2 0.438676 0.337056 0.0979343
1465 2 0.0540912 0.470407 0.106288
1466 4 0.0313166 0.480044 0.109978
1467 4 0.0768658 0.460769 0.102598
1791 4 0.0360648 0.49905 0.108621
1788 4 0.089311 0.46288 0.0866326
767 4 0.216069 0.485289 0.159679
766 2 0.215802 0.460358 0.16156
768 4 0.215534 0.435427 0.16344
252 4 0.26695 0.416276 0.105547
609 4 0.275076 0.421835 0.123378
607 2 0.299159 0.428431 0.122082
608 4 0.323242 0.435027 0.120787
659 4 0.332895 0.443385 0.10507
494 4 0.389768 0.416899 0.104276
660 4 0.381896 0.433589 0.106984
1673 4 0.395416 0.433762 0.0936516
658 2 0.357396 0.438487 0.106027
524 4 0.405094 0.490571 0.131431
523 2 0.400159 0.468604 0.120555
525 4 0.395225 0.446638 0.109678
1559 4 0.389875 0.501942 0.136705
20 3 0.0826989 0.000346678 0.174365
17 3 0.0465919 0.00255545 0.183547
2480 4 0.0323216 0.99902 0.19592
2479 2 0.0315826 0.0203449 0.208954
380 4 0.0290785 0.0615931 0.221255
2481 4 0.0308435 0.0416696 0.221988
448 2 0.141917 0.0741907 0.167791
449 4 0.162005 0.0825323 0.180122
237 4 0.222838 0.0757802 0.166022
1504 2 0.234076 0.99888 0.194303
1506 4 0.245383 0.0210429 0.196785
581 4 0.264315 0.0406968 0.170419
654 4 0.257968 0.0340014 0.187134
652 2 0.270413 0.038922 0.208255
653 4 0.282857 0.0438427 0.229376
758 4 0.344375 0.0728978 0.184446
759 4 0.363391 0.0627346 0.229567
757 2 0.353883 0.0678162 0.207006
350 4 0.379806 0.0655776 0.236721
349 2 0.403127 0.0569748 0.23402
22 3 0.358835 0.056849 0.246951
632 4 0.371252 0.0686805 0.252565
25 3 0.343137 0.0233731 0.241867
480 4 0.443748 0.0483023 0.24013
351 4 0.426448 0.048372 0.231319
743 4 0.493993 0.0600388 0.242609
333 4 0.489349 0.0793302 0.24173
379 2 0.0295004 0.0858322 0.215134
511 2 0.0350585 0.138237 0.17758
512 4 0.0257128 0.119378 0.191078
381 4 0.0299222 0.110071 0.209012
235 2 0.200763 0.0828995 0.175359
236 4 0.178687 0.0900188 0.184696
30 3 0.328505 0.155373 0.246948
311 4 0.340526 0.0880064 0.171249
26 1 0.350202 0.14872 0.245038
28 3 0.353715 0.139042 0.224244
761 4 0.417151 0.120527 0.189496
521 4 0.474342 0.136289 0.220177
762 4 0.456413 0.13071 0.218747
760 2 0.436782 0.125619 0.204121
332 4 0.468056 0.123858 0.233696
331 2 0.478702 0.101594 0.237713
520 2 0.483655 0.156543 0.208854
339 4 0.0619775 0.217218 0.169374
337 2 0.0651027 0.238765 0.181667
546 4 0.085138 0.238071 0.240783
544 2 0.108926 0.245525 0.242717
279 4 0.259163 0.22109 0.221693
277 2 0.258338 0.230447 0.198521
278 4 0.257514 0.239803 0.175348
284 4 0.273172 0.248702 0.167208
522 4 0.492969 0.176797 0.197531
396 4 0.0119339 0.25127 0.239578
394 2 0.0296869 0.265404 0.229079
395 4 0.0474398 0.279539 0.21858
338 4 0.0682279 0.260313 0.19396
363 4 0.0653457 0.274927 0.207792
361 2 0.0692542 0.299591 0.206525
362 4 0.0731627 0.324255 0.205257
545 4 0.132715 0.252978 0.244651
372 4 0.0881913 0.332259 0.193549
611 4 0.214285 0.304633 0.215244
610 2 0.215324 0.301606 0.190446
344 4 0.224716 0.303406 0.232792
343 2 0.202187 0.306354 0.243229
285 4 0.306527 0.285821 0.170427
283 2 0.28985 0.267262 0.168817
729 4 0.301003 0.300619 0.180766
727 2 0.286969 0.313823 0.1967
308 4 0.319304 0.289498 0.180583
728 4 0.272936 0.327027 0.212634
498 4 0.355624 0.302286 0.230902
307 2 0.337405 0.289582 0.197833
309 4 0.355505 0.289666 0.215083
749 4 0.0580826 0.33876 0.208139
648 4 0.0703378 0.338945 0.193906
748 2 0.0635478 0.354586 0.226709
646 2 0.0630037 0.348608 0.172043
750 4 0.069013 0.370411 0.24528
733 2 0.150214 0.33343 0.245396
370 2 0.110734 0.337537 0.202991
371 4 0.133276 0.342815 0.212433
734 4 0.137826 0.348107 0.229386
417 4 0.141164 0.361823 0.217114
299 4 0.136461 0.369642 0.233023
415 2 0.159403 0.373376 0.204503
298 2 0.113172 0.375598 0.239905
300 4 0.0898842 0.381554 0.246788
416 4 0.177641 0.384929 0.191891
289 2 0.195562 0.405253 0.168997
291 4 0.173512 0.394629 0.17411
445 2 0.38809 0.369411 0.235794
447 4 0.412652 0.365186 0.233777
446 4 0.363529 0.373636 0.237811
595 2 0.493198 0.390108 0.170309
644 4 0.423629 0.379675 0.226411
643 2 0.445203 0.385614 0.215254
645 4 0.466777 0.391552 0.204097
597 4 0.474774 0.38355 0.185889
412 2 0.258954 0.493587 0.227208
413 4 0.269713 0.485151 0.248142
229 2 0.480635 0.491477 0.21234
230 4 0.456525 0.495463 0.217635
2756 4 0.00184223 0.0715194 0.299621
234 4 0.0136071 0.0572945 0.294329
232 2 0.032247 0.0412769 0.29893
233 4 0.050887 0.0252593 0.303531
317 4 0.0667294 0.0253365 0.31498
1404 4 0.0629874 0.00932873 0.305517
1402 2 0.0803195 0.00173972 0.289172
428 4 0.0682529 0.00994155 0.325193
316 2 0.0771577 0.042391 0.329999
693 4 0.327064 0.0625577 0.271994
691 2 0.304792 0.0737653 0.273875
24 3 0.334711 0.0435485 0.27252
21 1 0.351388 0.0377851 0.257451
23 3 0.369166 0.0279748 0.268681
479 4 0.454578 0.0460553 0.288899
478 2 0.449163 0.0471788 0.264515
2664 4 0.46583 0.0405627 0.304037
1428 4 0.447384 0.0359305 0.300477
258 4 0.435926 0.0501038 0.297402
2662 2 0.49062 0.0429671 0.301829
256 2 0.430055 0.0650933 0.316534
1426 2 0.442677 0.0126744 0.308362
403 2 0.229653 0.155264 0.32374
404 4 0.243897 0.134716 0.323913
249 4 0.243737 0.115411 0.329277
692 4 0.28252 0.0849729 0.275756
721 2 0.262543 0.109329 0.29972
723 4 0.266192 0.0961229 0.278805
722 4 0.258893 0.122535 0.320635
29 3 0.355331 0.133531 0.261813
631 2 0.368429 0.0927329 0.258785
707 4 0.367425 0.13094 0.276953
633 4 0.365605 0.116785 0.265005
706 2 0.360263 0.137295 0.30005
708 4 0.3531 0.143649 0.323148
444 4 0.0338208 0.242142 0.306056
442 2 0.0262384 0.248557 0.28311
405 4 0.215408 0.175813 0.323568
473 4 0.209753 0.194065 0.322094
27 3 0.363956 0.167039 0.247134
419 4 0.420511 0.240821 0.32319
443 4 0.018656 0.254973 0.260164
402 4 0.137077 0.258083 0.26393
735 4 0.162603 0.318753 0.261405
375 4 0.158478 0.321761 0.332124
400 2 0.150332 0.279121 0.261305
401 4 0.163588 0.300158 0.258679
676 2 0.171162 0.319566 0.294534
677 4 0.175212 0.309522 0.271997
345 4 0.179658 0.309302 0.253666
678 4 0.167112 0.329609 0.31707
378 4 0.279965 0.288052 0.293802
376 2 0.302506 0.298809 0.292635
377 4 0.325047 0.309567 0.291468
615 4 0.327343 0.322113 0.305653
497 4 0.336768 0.311031 0.276385
418 2 0.408278 0.261205 0.315441
496 2 0.346196 0.306658 0.253643
541 2 0.359277 0.29632 0.305235
542 4 0.377258 0.2816 0.314465
543 4 0.341297 0.31104 0.296004
420 4 0.396044 0.281588 0.307693
2537 4 0.484589 0.32894 0.321856
364 2 0.00159738 0.398356 0.286264
365 4 0.0173518 0.417136 0.291195
603 4 0.0360835 0.413261 0.298696
601 2 0.0471178 0.404535 0.319366
510 4 0.17943 0.345009 0.312123
508 2 0.189538 0.367528 0.316111
509 4 0.199646 0.390047 0.320099
434 4 0.320961 0.382873 0.311669
433 2 0.30901 0.40398 0.317742
613 2 0.331817 0.346158 0.310849
614 4 0.336291 0.370203 0.316045
264 4 0.000398399 0.443071 0.277008
1757 4 0.0145956 0.427853 0.274473
1756 2 0.0309872 0.446569 0.276964
1758 4 0.0473789 0.465285 0.279455
1775 4 0.0678401 0.465288 0.285775
775 2 0.0521602 0.486334 0.310192
777 4 0.0562034 0.479948 0.286358
1776 4 0.115564 0.450635 0.288675
1774 2 0.0917021 0.457961 0.287225
5 3 0.244821 0.429366 0.331159
2 3 0.28037 0.420331 0.32426
4 3 0.256028 0.423131 0.295759
1436 4 0.253358 0.477543 0.256527
1435 2 0.256028 0.461823 0.275787
1437 4 0.258697 0.446104 0.295047
3 3 0.267536 0.454232 0.314325
1 1 0.262024 0.431792 0.316433
436 2 0.305684 0.457416 0.324333
438 4 0.28593 0.442352 0.321496
435 4 0.29706 0.425087 0.323814
437 4 0.325438 0.47248 0.327171
1802 4 0.328142 0.492236 0.320607
1801 2 0.351964 0.486596 0.315518
1803 4 0.375785 0.480956 0.310429
593 4 0.383801 0.468988 0.325702
588 4 0.385429 0.450991 0.331666
119 3 0.490254 0.459719 0.331759
318 4 0.087586 0.0594455 0.345018
732 4 0.103478 0.0657702 0.354099
730 2 0.128112 0.0663779 0.349858
731 4 0.152745 0.0669856 0.345616
399 4 0.0888119 0.0784094 0.352065
606 4 0.17123 0.061328 0.350731
604 2 0.187869 0.0745563 0.363897
1701 4 0.365806 0.00359136 0.400084
699 4 0.380667 0.0521095 0.371919
1699 2 0.365733 0.0220385 0.383206
1700 4 0.365661 0.0404856 0.366327
697 2 0.397592 0.0676464 0.362053
257 4 0.424184 0.0800829 0.335666
397 2 0.0697664 0.0914111 0.361729
398 4 0.0507209 0.104413 0.371394
2584 2 0.0143049 0.113188 0.357694
2586 4 0.0350434 0.117884 0.370849
458 4 0.0418066 0.135693 0.376828
457 2 0.0437677 0.152983 0.394783
605 4 0.204508 0.0877845 0.377063
248 4 0.220555 0.09436 0.368266
247 2 0.232146 0.104886 0.348772
683 4 0.254328 0.129162 0.338289
682 2 0.275366 0.13901 0.347541
684 4 0.296404 0.148858 0.356792
319 2 0.328344 0.155701 0.345516
320 4 0.305632 0.165523 0.349102
698 4 0.414517 0.0831833 0.352188
321 4 0.351056 0.145878 0.341929
726 4 0.402796 0.141684 0.406619
717 4 0.359957 0.147295 0.36018
715 2 0.374615 0.151415 0.380013
716 4 0.389272 0.155534 0.399847
467 4 0.406349 0.160128 0.406305
724 2 0.405095 0.117964 0.414186
641 4 0.468814 0.126998 0.361308
640 2 0.489197 0.126869 0.375789
2850 4 0.00216509 0.215659 0.366293
459 4 0.0457287 0.170273 0.412739
260 4 0.0442451 0.189318 0.415975
600 4 0.111355 0.216471 0.33636
598 2 0.125018 0.220149 0.356975
599 4 0.138681 0.223826 0.37759
686 4 0.13394 0.231892 0.393995
685 2 0.118671 0.224347 0.412301
275 4 0.149665 0.235163 0.388761
274 2 0.17294 0.226287 0.386605
474 4 0.195656 0.205823 0.36861
472 2 0.202705 0.199944 0.345352
276 4 0.196216 0.217412 0.38445
269 4 0.413278 0.229766 0.338459
268 2 0.4319 0.214611 0.345438
270 4 0.450523 0.199455 0.352416
452 4 0.462878 0.208001 0.36619
451 2 0.470077 0.215243 0.389014
453 4 0.477276 0.222484 0.411837
347 4 0.0561668 0.307507 0.385126
346 2 0.0324277 0.309125 0.392808
618 4 0.0587628 0.305838 0.36521
348 4 0.00868861 0.310744 0.40049
616 2 0.0832955 0.301071 0.365985
389 4 0.138967 0.250495 0.394349
373 2 0.141022 0.315688 0.348964
388 2 0.131165 0.272499 0.385396
390 4 0.123364 0.294503 0.376444
617 4 0.107828 0.296304 0.366761
374 4 0.123566 0.309616 0.365805
488 4 0.385126 0.275644 0.391325
487 2 0.388634 0.265556 0.413933
602 4 0.058152 0.395808 0.340037
549 4 0.0542563 0.394288 0.360463
547 2 0.0607318 0.41103 0.377867
335 4 0.325542 0.376869 0.399189
240 4 0.332979 0.363484 0.385956
238 2 0.340767 0.380532 0.369406
239 4 0.348555 0.397579 0.352856
587 4 0.361626 0.408085 0.341324
752 4 0.468503 0.382521 0.376357
561 4 0.455881 0.371562 0.388348
751 2 0.474443 0.405023 0.367215
559 2 0.46899 0.367729 0.409292
776 4 0.048117 0.492721 0.334026
500 4 0.0458083 0.476585 0.346946
499 2 0.0621105 0.464005 0.361129
501 4 0.0784128 0.451425 0.375312
407 4 0.0814195 0.442145 0.392351
548 4 0.0672073 0.427773 0.395272
406 2 0.0888834 0.45284 0.413683
1555 2 0.233948 0.490529 0.382566
1557 4 0.249814 0.47813 0.397388
636 4 0.258424 0.466859 0.411453
586 2 0.373528 0.429538 0.336495
592 2 0.401701 0.479195 0.339865
594 4 0.419601 0.489402 0.354027
118 3 0.499637 0.426038 0.346659
116 1 0.494808 0.448233 0.3514
713 4 0.43535 0.491817 0.343792
712 2 0.456748 0.478958 0.345179
714 4 0.478147 0.466098 0.346567
753 4 0.480383 0.427525 0.358074
117 3 0.476257 0.449071 0.364976
369 4 0.0531515 0.00801048 0.445147
367 2 0.0781074 0.00646749 0.4452
1781 4 0.121231 0.0101231 0.441436
368 4 0.103063 0.00492451 0.445252
342 4 0.225798 0.0554888 0.493804
340 2 0.218782 0.0314912 0.493537
341 4 0.211766 0.00749367 0.49327
963 4 0.317456 0.0311337 0.449947
432 4 0.311808 0.0500602 0.453456
430 2 0.323533 0.0554201 0.47488
961 2 0.329364 0.0158658 0.434127
962 4 0.341271 0.000597983 0.418306
431 4 0.335259 0.06078 0.496303
1217 4 0.414521 0.0620037 0.494967
725 4 0.407395 0.0942442 0.421753
259 2 0.0644155 0.202593 0.422463
261 4 0.0845859 0.215869 0.428952
687 4 0.103403 0.216801 0.430607
1035 4 0.0910205 0.231251 0.438318
1033 2 0.094792 0.248967 0.455554
409 2 0.404752 0.223852 0.447946
411 4 0.386296 0.240669 0.446628
466 2 0.4167 0.178161 0.420192
468 4 0.427051 0.196194 0.434079
410 4 0.423208 0.207035 0.449264
574 2 0.420101 0.187645 0.488049
515 4 0.478175 0.222155 0.43303
575 4 0.4226 0.197325 0.465131
516 4 0.437897 0.198729 0.451186
514 2 0.458036 0.210442 0.442108
1034 4 0.0985635 0.266682 0.472791
696 4 0.106237 0.276102 0.488077
1260 4 0.115203 0.278246 0.471443
1258 2 0.122348 0.301658 0.466342
1259 4 0.129494 0.325069 0.461242
9 3 0.153979 0.318659 0.420801
503 4 0.137933 0.327921 0.474829
7 3 0.145951 0.327884 0.456341
489 4 0.392141 0.255469 0.436541
266 4 0.391346 0.257724 0.455956
265 2 0.397191 0.269637 0.477148
267 4 0.403036 0.281551 0.49834
3308 4 0.466528 0.331787 0.478119
1011 4 0.473792 0.314625 0.481814
1009 2 0.46329 0.29387 0.490985
1010 4 0.452787 0.273115 0.500156
326 4 0.0847863 0.361779 0.4599
6 1 0.151283 0.336315 0.435613
327 4 0.128181 0.338791 0.450459
325 2 0.106484 0.350285 0.455179
10 3 0.134467 0.349927 0.428499
709 2 0.147103 0.400385 0.494661
502 2 0.149713 0.343705 0.490232
8 3 0.171049 0.348354 0.43727
334 2 0.315483 0.380782 0.421743
336 4 0.305425 0.384696 0.444297
668 4 0.303591 0.400933 0.453753
882 4 0.321106 0.389951 0.453536
880 2 0.333348 0.388347 0.475278
881 4 0.345591 0.386744 0.49702
3309 4 0.494365 0.357176 0.445237
560 4 0.482098 0.363896 0.430236
3307 2 0.480446 0.344482 0.461678
680 4 0.000669254 0.451183 0.445954
1381 2 0.00203558 0.489511 0.465208
711 4 0.134967 0.420003 0.485015
408 4 0.0963473 0.463536 0.435016
383 4 0.108708 0.47006 0.446963
384 4 0.119279 0.434576 0.480577
568 2 0.12936 0.491421 0.420905
569 4 0.113046 0.474193 0.428792
382 2 0.113993 0.452318 0.46377
667 2 0.299285 0.42523 0.457788
634 2 0.275024 0.465406 0.430095
772 2 0.314033 0.480554 0.477262
774 4 0.294705 0.468795 0.466618
669 4 0.294978 0.449527 0.461822
635 4 0.291623 0.463953 0.448737
773 4 0.333362 0.492313 0.487907
1152 4 0.228537 0.0573045 0.513148
1150 2 0.23324 0.0628318 0.537075
1151 4 0.237943 0.068359 0.561002
1032 4 0.239379 0.0563033 0.577036
1181 4 0.242916 0.0728899 0.579134
842 4 0.396856 0.0525896 0.500449
841 2 0.372456 0.0545609 0.505541
843 4 0.348056 0.0565323 0.510634
1216 2 0.43827 0.0614061 0.502765
1218 4 0.462018 0.0608084 0.510564
1058 4 0.0876893 0.088464 0.51642
1270 2 0.084789 0.154605 0.562275
1271 4 0.0975458 0.133157 0.56072
1057 2 0.0941995 0.101519 0.536727
1059 4 0.10071 0.114573 0.557034
1155 4 0.112672 0.121733 0.567011
939 4 0.0957245 0.120841 0.575494
1153 2 0.135881 0.130347 0.570521
1154 4 0.15909 0.13896 0.574032
1180 2 0.239403 0.0973833 0.582728
898 2 0.247778 0.157001 0.563053
900 4 0.239345 0.137689 0.576511
1221 4 0.177112 0.135982 0.565213
1219 2 0.199542 0.135407 0.576246
1199 4 0.0370267 0.213185 0.563446
877 2 0.0673803 0.20602 0.572393
1272 4 0.0720323 0.176053 0.56383
878 4 0.0490558 0.222783 0.575291
1198 2 0.0153493 0.219883 0.552939
879 4 0.0857048 0.189257 0.569495
651 4 0.208646 0.216434 0.525601
858 4 0.192272 0.220889 0.515788
649 2 0.224681 0.202667 0.538963
650 4 0.240716 0.188901 0.552325
856 2 0.187972 0.242461 0.527677
899 4 0.256211 0.176313 0.549595
576 4 0.417602 0.177965 0.510966
984 4 0.00409243 0.306576 0.568113
695 4 0.100169 0.261683 0.535575
694 2 0.103203 0.268893 0.511826
948 4 0.162899 0.295165 0.577344
946 2 0.180011 0.285545 0.561859
857 4 0.183672 0.264033 0.539566
947 4 0.197124 0.275925 0.546373
798 4 0.214448 0.269589 0.553472
796 2 0.235541 0.280602 0.561151
797 4 0.256634 0.291615 0.568831
790 2 0.263296 0.32298 0.58142
871 2 0.396359 0.333463 0.579097
2455 2 0.488457 0.252488 0.51712
2457 4 0.468438 0.262545 0.506018
954 4 0.475529 0.286826 0.580719
3263 4 0.0511654 0.343402 0.570528
710 4 0.159238 0.380767 0.504308
504 4 0.161493 0.35949 0.505636
1189 2 0.243845 0.377247 0.570134
1191 4 0.224307 0.391368 0.57677
804 4 0.285542 0.349773 0.501756
803 4 0.27559 0.364295 0.548562
802 2 0.280566 0.357034 0.525159
1190 4 0.263383 0.363127 0.563499
1238 4 0.279534 0.359896 0.567929
1237 2 0.302752 0.367682 0.572978
1239 4 0.32597 0.375467 0.578026
792 4 0.265974 0.346963 0.574878
872 4 0.398461 0.337006 0.554435
930 4 0.3362 0.37124 0.560021
929 4 0.34775 0.373056 0.5114
928 2 0.341975 0.372148 0.535711
663 4 0.453692 0.492279 0.501796
1081 2 0.0603603 0.0674486 0.635442
1082 4 0.0644749 0.0483055 0.650992
825 4 0.15948 0.0704989 0.665385
1030 2 0.244103 0.0415904 0.596693
1148 4 0.247452 0.0604665 0.646701
1031 4 0.248827 0.0268775 0.61635
951 4 0.263262 0.0133449 0.622043
949 2 0.288113 0.0145084 0.619541
950 4 0.312963 0.0156718 0.617038
1226 4 0.259218 0.0741688 0.653426
1147 2 0.257771 0.0432105 0.661564
3008 4 0.48973 0.0347691 0.594007
809 4 0.47926 0.0251023 0.609328
808 2 0.475734 0.0403278 0.628845
810 4 0.472208 0.0555532 0.648363
45 3 0.473684 0.0789909 0.646466
41 1 0.463726 0.0738062 0.66628
43 3 0.441531 0.0805668 0.665994
1083 4 0.0562457 0.0865916 0.619893
1127 4 0.0496408 0.0972161 0.603873
1126 2 0.0263927 0.090575 0.597501
1128 4 0.00314452 0.0839339 0.591129
938 4 0.0679878 0.0934132 0.606784
937 2 0.0818561 0.107127 0.591139
1283 4 0.148736 0.0866781 0.658702
1220 4 0.221972 0.134833 0.58728
1182 4 0.23589 0.121877 0.586321
1210 2 0.242196 0.138692 0.619817
1212 4 0.237563 0.140473 0.595311
908 4 0.238095 0.126906 0.657866
907 2 0.214744 0.127382 0.666794
1211 4 0.24683 0.136911 0.644323
1227 4 0.25648 0.123985 0.650026
888 4 0.263328 0.142459 0.653013
886 2 0.28643 0.150531 0.658142
887 4 0.309532 0.158603 0.66327
1225 2 0.257849 0.0990769 0.651726
3425 4 0.484928 0.0911021 0.662877
1244 4 0.0573195 0.230647 0.591481
1194 4 0.315282 0.176702 0.664661
1192 2 0.327006 0.187568 0.645435
1193 4 0.33873 0.198434 0.626208
3123 4 0.489035 0.216233 0.633591
3121 2 0.500932 0.23643 0.642292
1243 2 0.0489618 0.250667 0.603912
982 2 0.0182235 0.29599 0.585817
983 4 0.0323546 0.285404 0.603521
1245 4 0.0406041 0.270687 0.616344
820 2 0.151076 0.327563 0.662073
1136 4 0.167382 0.307715 0.59212
1135 2 0.168173 0.325425 0.609752
791 4 0.260618 0.298996 0.587961
873 4 0.394256 0.329921 0.603758
813 4 0.401891 0.327786 0.622046
952 2 0.474563 0.307784 0.59432
953 4 0.473597 0.328743 0.607921
3262 2 0.0530598 0.362438 0.586629
1041 4 0.0599507 0.391509 0.619451
3264 4 0.0549542 0.381474 0.602729
3240 4 0.0418923 0.390664 0.613312
3238 2 0.0221268 0.405941 0.612262
1039 2 0.0846116 0.392443 0.623469
1040 4 0.109273 0.393378 0.627487
993 4 0.129904 0.392423 0.633302
991 2 0.146983 0.374189 0.632278
992 4 0.164061 0.355956 0.631253
822 4 0.160857 0.342508 0.644576
1137 4 0.168965 0.343135 0.627385
1064 4 0.17882 0.351027 0.638326
897 4 0.182611 0.360003 0.622358
896 4 0.206729 0.385187 0.586513
895 2 0.19467 0.372595 0.604435
1172 4 0.217843 0.398955 0.593042
1063 2 0.195041 0.357434 0.656243
811 2 0.40001 0.347728 0.637009
927 4 0.406392 0.383572 0.64532
812 4 0.39813 0.367671 0.651973
925 2 0.413931 0.405777 0.636642
1206 4 0.392609 0.384121 0.660331
906 4 0.483567 0.344334 0.613025
904 2 0.498152 0.359379 0.599384
3239 4 0.00236131 0.421219 0.611213
2244 4 0.11563 0.483563 0.596586
1160 4 0.130045 0.479117 0.584452
540 4 0.122525 0.464924 0.595285
539 4 0.105083 0.418651 0.587847
538 2 0.113804 0.441788 0.591566
1159 2 0.151976 0.480983 0.596315
1171 2 0.22645 0.420244 0.602936
1186 2 0.206644 0.474484 0.609941
1173 4 0.235058 0.441532 0.612829
1187 4 0.222556 0.457181 0.618461
1188 4 0.190732 0.491788 0.601422
1161 4 0.173907 0.482849 0.608178
926 4 0.421469 0.427982 0.627965
1002 4 0.438306 0.438363 0.623902
1911 4 0.429388 0.501738 0.624259
1001 4 0.436234 0.486868 0.635886
1000 2 0.43727 0.462616 0.629894
4337 4 0.0119797 0.000918663 0.668496
944 4 0.0584274 0.0343112 0.677366
943 2 0.0417212 0.0158221 0.679424
1076 4 0.0650683 0.0521789 0.671785
1075 2 0.064894 0.0680038 0.691143
864 4 0.0629268 0.0751532 0.727282
862 2 0.0425814 0.075526 0.741812
823 2 0.16622 0.0482377 0.67456
2256 4 0.167416 0.00779353 0.685817
2133 4 0.176551 0.00950061 0.671403
824 4 0.17296 0.0259766 0.683736
1149 4 0.268089 0.0259544 0.676428
1092 4 0.337154 0.0111434 0.695393
42 3 0.464523 0.0510336 0.669431
1163 4 0.47822 0.0612833 0.68517
1162 2 0.49084 0.0544024 0.705629
44 3 0.474945 0.0841905 0.683736
4581 4 0.499869 0.0173168 0.74194
2321 4 0.496824 0.0372267 0.740703
1077 4 0.0647197 0.0838286 0.7105
851 4 0.0636377 0.103251 0.71108
850 2 0.0585176 0.121727 0.69503
852 4 0.0533976 0.140204 0.678981
1107 4 0.0724041 0.0927449 0.725181
1282 2 0.160324 0.10594 0.66965
1105 2 0.0948392 0.0917915 0.736178
1106 4 0.117274 0.0908382 0.747176
1284 4 0.171913 0.125202 0.680597
909 4 0.191394 0.127858 0.675723
830 4 0.329075 0.163878 0.667962
1004 4 0.353137 0.0915477 0.739925
829 2 0.343333 0.143999 0.673132
1005 4 0.356261 0.113503 0.695104
1003 2 0.354699 0.102526 0.717514
831 4 0.357591 0.124121 0.678302
3268 2 0.481325 0.143642 0.739889
3270 4 0.485155 0.166146 0.729686
1214 4 0.00384671 0.192554 0.736854
977 4 0.310133 0.244681 0.740557
1297 2 0.278516 0.21846 0.749777
1298 4 0.291921 0.239222 0.745983
1025 4 0.40257 0.179438 0.695482
1024 2 0.416633 0.194236 0.709919
1142 4 0.440572 0.213508 0.742281
1144 2 0.470408 0.197698 0.725637
1262 4 0.436558 0.226173 0.729204
1026 4 0.430696 0.209034 0.724356
1145 4 0.449401 0.211259 0.72564
1146 4 0.491415 0.184138 0.725635
1261 2 0.443378 0.249457 0.735245
1178 4 0.00709923 0.254248 0.723258
1073 4 0.0780401 0.253031 0.7256
1177 2 0.0270864 0.269165 0.721477
1179 4 0.0470735 0.284082 0.719696
1072 2 0.103041 0.253043 0.725989
1208 4 0.139202 0.264989 0.716823
1074 4 0.128041 0.253055 0.726377
1207 2 0.139938 0.288522 0.708408
821 4 0.141294 0.312619 0.679571
1209 4 0.140674 0.312056 0.699993
1130 4 0.142494 0.264407 0.735523
815 4 0.117273 0.325371 0.721194
918 4 0.295599 0.257234 0.740979
806 4 0.257318 0.328537 0.701687
976 2 0.333543 0.249949 0.733528
978 4 0.356953 0.255218 0.726499
1020 4 0.372871 0.251094 0.737207
1263 4 0.450199 0.272742 0.741287
892 2 0.0411698 0.366512 0.716663
1280 4 0.077894 0.366114 0.737949
816 4 0.072911 0.347729 0.726928
894 4 0.060997 0.361621 0.73109
893 4 0.0213425 0.371404 0.702236
942 4 0.132528 0.337084 0.729614
1279 2 0.088228 0.388353 0.742826
814 2 0.0950919 0.33655 0.724061
940 2 0.151608 0.353165 0.731205
1078 2 0.162566 0.409928 0.741059
1281 4 0.098562 0.410593 0.747702
941 4 0.170688 0.369246 0.732796
1080 4 0.167107 0.385391 0.742625
805 2 0.236733 0.341406 0.695698
1065 4 0.211262 0.363841 0.674159
807 4 0.216149 0.354274 0.689709
1028 4 0.217599 0.381591 0.676538
1066 2 0.198343 0.377928 0.711225
1068 4 0.213924 0.372452 0.692452
1027 2 0.229822 0.403378 0.675476
1067 4 0.182762 0.383405 0.729998
1204 2 0.372345 0.388678 0.674252
1205 4 0.352082 0.393234 0.688174
1079 4 0.158024 0.434466 0.739494
2170 2 0.16669 0.499696 0.678202
1029 4 0.242045 0.425164 0.674414
1174 2 0.179476 0.477747 0.728324
1175 4 0.190236 0.477435 0.705756
2172 4 0.177918 0.491115 0.698829
1176 4 0.168716 0.47806 0.750891
1140 4 0.251072 0.423826 0.691575
1228 2 0.316814 0.460483 0.681663
1138 2 0.263013 0.445751 0.690197
1139 4 0.274954 0.467676 0.688818
1987 2 0.303253 0.461001 0.734639
1229 4 0.294689 0.465702 0.692076
1989 4 0.30005 0.467059 0.710593
2028 4 0.286467 0.478033 0.700559
1230 4 0.338939 0.455264 0.671251
1100 4 0.495281 0.467923 0.70911
1099 2 0.48618 0.487944 0.697215
2989 2 0.0074619 0.0451504 0.778199
2990 4 0.010359 0.0685851 0.769977
2991 4 0.00456485 0.0217157 0.786421
863 4 0.0222361 0.0758987 0.756341
2049 4 0.109241 0.00931803 0.786211
1202 4 0.117131 0.0221341 0.773841
1201 2 0.122489 0.0464021 0.776586
1203 4 0.127848 0.0706701 0.779331
32 3 0.144126 0.079331 0.792739
1085 4 0.318459 0.08086 0.812659
960 4 0.333828 0.0714375 0.819244
819 4 0.33273 0.0739852 0.800387
973 2 0.365826 0.00249445 0.81878
1050 4 0.35087 0.00915133 0.787122
817 2 0.341565 0.0511657 0.79525
818 4 0.3504 0.0283462 0.790113
974 4 0.349123 0.0154991 0.805474
2320 2 0.488562 0.0481074 0.761644
844 2 0.49269 0.0631958 0.826018
845 4 0.486441 0.0626808 0.801814
2322 4 0.4803 0.0589881 0.782585
1112 4 0.481582 0.076509 0.790258
3083 4 0.00443066 0.083845 0.760331
833 4 0.0196681 0.0864364 0.771791
832 2 0.0220543 0.101803 0.79137
834 4 0.0244406 0.11717 0.81095
1125 4 0.0435005 0.122552 0.817528
34 3 0.118184 0.0882355 0.767042
911 4 0.140166 0.0976227 0.805324
31 1 0.136432 0.096112 0.779015
35 3 0.130261 0.113967 0.791734
33 3 0.153411 0.102262 0.764444
910 2 0.140829 0.103584 0.829597
1256 4 0.228962 0.120394 0.816075
840 4 0.241953 0.13088 0.828054
1255 2 0.24584 0.112365 0.799467
1084 2 0.296649 0.090587 0.805249
1086 4 0.27484 0.100314 0.797839
1257 4 0.262719 0.104336 0.782858
3269 4 0.477495 0.121139 0.750092
1113 4 0.47031 0.120456 0.769226