ITEM: TIMESTEP
1180000
ITEM: NUMBER OF ATOMS
4590
ITEM: BOX BOUNDS pp pp pp
-9.9985700000000008e+00 9.9985700000000008e+00
-9.9985700000000008e+00 9.9985700000000008e+00
-9.9985700000000008e+00 9.9985700000000008e+00
ITEM: ATOMS id type xs ys zs
1668 4 0.0833194 0.0323644 0.0656453
1475 4 0.268448 0.0205467 0.0718114
297 4 0.349807 0.0511327 0.059643
295 2 0.36352 0.0686728 0.048264
747 4 0.456114 0.0623312 0.011774
2974 2 0.472242 0.026364 0.0297685
2976 4 0.485594 0.00768391 0.0396658
2975 4 0.45889 0.0450442 0.0198713
986 4 0.446711 0.0457406 0.00475419
2467 2 0.492737 0.00248417 0.0825148
745 2 0.447089 0.0846182 0.00491602
2468 4 0.487934 0.00294352 0.0579811
565 2 0.165275 0.176949 0.0365705
567 4 0.183552 0.174935 0.0196275
358 2 0.333699 0.146364 0.0730825
296 4 0.377233 0.086213 0.0368851
557 4 0.372388 0.094458 0.0197873
556 2 0.395378 0.100043 0.0116978
769 2 0.393335 0.140662 0.0529334
359 4 0.358538 0.148417 0.0710855
558 4 0.418368 0.105628 0.00360822
770 4 0.374191 0.154898 0.0604155
827 4 0.359451 0.086439 0.00757134
771 4 0.41248 0.126425 0.0454512
746 4 0.438065 0.106905 0.998058
566 4 0.146998 0.178964 0.0535135
664 2 0.376536 0.194349 0.0463661
665 4 0.373869 0.169493 0.0458786
666 4 0.379203 0.219205 0.0468535
554 4 0.0810583 0.277388 0.00285752
555 4 0.0995381 0.296228 0.0453342
553 2 0.0902982 0.286808 0.0240959
287 4 0.168814 0.313294 0.0297213
292 2 0.162974 0.271581 0.0196338
293 4 0.161618 0.293928 0.0307679
286 2 0.147983 0.326993 0.0278298
507 4 0.173772 0.300703 0.0429019
505 2 0.189038 0.298271 0.0625546
506 4 0.204303 0.29584 0.0822072
481 2 0.234404 0.270085 0.0739721
483 4 0.213085 0.277572 0.0846774
537 4 0.204326 0.314193 0.0887658
482 4 0.255724 0.262599 0.0632667
573 4 0.252605 0.273897 0.0475593
571 2 0.258915 0.275633 0.0234274
322 2 0.391014 0.283934 0.0588348
1069 2 0.389017 0.304513 0.00756953
324 4 0.400227 0.287221 0.0358239
1070 4 0.407048 0.290646 0.0179504
741 4 0.349682 0.332415 0.025331
955 2 0.336467 0.315188 0.99677
1071 4 0.370986 0.31838 0.997189
957 4 0.357022 0.320351 0.0100368
671 4 0.44856 0.316822 0.0570842
280 2 0.440645 0.295108 0.0293751
281 4 0.457559 0.309758 0.0405325
282 4 0.423731 0.280458 0.0182176
670 2 0.436433 0.330569 0.074088
288 4 0.127152 0.340692 0.0259383
454 2 0.141899 0.365708 0.0822912
456 4 0.161527 0.374815 0.0697627
250 2 0.299045 0.390255 0.0378604
251 4 0.301284 0.36576 0.0333707
252 4 0.296807 0.41475 0.0423501
609 4 0.296014 0.411428 0.0625689
739 2 0.350979 0.330939 0.0502572
740 4 0.352277 0.329462 0.0751834
495 4 0.388876 0.37372 0.0691872
493 2 0.389234 0.397727 0.0761639
14 3 0.393414 0.36506 0.0866279
3347 4 0.492391 0.325866 0.994502
330 4 0.985457 0.464871 0.0224323
245 4 0.246242 0.466348 0.055143
626 4 0.230668 0.455633 0.050873
625 2 0.209812 0.445719 0.0604601
627 4 0.188956 0.435805 0.0700472
244 2 0.261168 0.456339 0.0377585
246 4 0.276094 0.44633 0.0203739
272 4 0.278291 0.457886 0.00312511
494 4 0.389591 0.421735 0.0831406
563 4 0.466817 0.471626 0.0601713
228 4 0.470158 0.487349 0.0720552
562 2 0.450441 0.480017 0.0432417
564 4 0.434066 0.488408 0.0263121
854 4 0.434041 0.4768 0.00800487
1674 4 0.419254 0.494408 0.0389852
1666 2 0.0841561 0.0481123 0.0850484
19 3 0.0651862 0.071106 0.138067
18 3 0.0691538 0.0349683 0.149146
16 1 0.0607385 0.0558033 0.154933
17 3 0.0379562 0.0541316 0.157639
1667 4 0.0849929 0.0638602 0.104452
1539 4 0.179274 0.997364 0.162787
492 4 0.262244 0.0260657 0.0907187
491 4 0.279927 0.05337 0.128699
490 2 0.271085 0.0397179 0.109709
486 4 0.374954 0.0358724 0.098533
2722 2 0.474332 0.0413978 0.171095
2723 4 0.452703 0.0539259 0.171709
2469 4 0.497539 0.00202483 0.107048
701 4 0.0816605 0.0831815 0.0972866
700 2 0.0827278 0.0956685 0.118923
476 4 0.0949016 0.125346 0.142481
702 4 0.0837952 0.108156 0.140558
449 4 0.203945 0.08246 0.168242
237 4 0.232512 0.140742 0.179848
360 4 0.30886 0.144311 0.0750795
581 4 0.298603 0.131702 0.162049
582 4 0.249438 0.137481 0.16913
580 2 0.27402 0.134592 0.165589
628 2 0.380525 0.138397 0.131383
630 4 0.384189 0.149833 0.109452
312 4 0.387925 0.112756 0.16124
629 4 0.376861 0.12696 0.153314
738 4 0.180905 0.214894 0.113457
737 4 0.200782 0.169776 0.121821
736 2 0.190843 0.192335 0.117639
277 2 0.234254 0.240756 0.162552
279 4 0.21062 0.232756 0.16418
461 4 0.305193 0.237119 0.087484
460 2 0.326831 0.23021 0.0979345
354 4 0.290194 0.237625 0.101709
278 4 0.257887 0.248755 0.160925
352 2 0.279121 0.242045 0.123688
353 4 0.268049 0.246465 0.145666
284 4 0.271879 0.236839 0.164101
462 4 0.34847 0.2233 0.108385
254 4 0.375086 0.166902 0.115713
255 4 0.362949 0.215367 0.117845
253 2 0.369018 0.191135 0.116779
765 4 0.358544 0.224326 0.13529
624 4 0.363673 0.23235 0.118259
763 2 0.343799 0.224063 0.155481
622 2 0.376227 0.250916 0.107173
648 4 0.0454737 0.29225 0.148865
339 4 0.072902 0.262144 0.131947
337 2 0.0816357 0.253017 0.153525
536 4 0.204784 0.314422 0.13877
535 2 0.204555 0.314307 0.113768
755 4 0.265543 0.264937 0.154398
387 4 0.325792 0.326347 0.136819
323 4 0.381802 0.280647 0.0818457
623 4 0.388781 0.269482 0.0960877
12 3 0.409557 0.335532 0.103366
528 4 0.47357 0.287484 0.131097
518 4 0.482171 0.277022 0.117195
526 2 0.450426 0.278101 0.129896
527 4 0.427281 0.268717 0.128696
517 2 0.499059 0.262151 0.106295
672 4 0.424306 0.344316 0.0910919
551 4 0.0718018 0.357017 0.119662
455 4 0.12227 0.356601 0.0948196
552 4 0.109442 0.371081 0.0898942
550 2 0.090622 0.364049 0.104778
291 4 0.228176 0.413644 0.143375
302 4 0.310159 0.331251 0.148089
385 2 0.339634 0.327313 0.116018
15 3 0.372838 0.335178 0.0966938
386 4 0.353475 0.328278 0.0952179
11 1 0.390485 0.348363 0.102472
13 3 0.386812 0.357806 0.123346
104 3 0.494657 0.347467 0.122171
1791 4 0.047946 0.480323 0.14936
1466 4 0.0373324 0.469922 0.163591
1789 2 0.0538383 0.491699 0.127888
416 4 0.208648 0.414188 0.138752
415 2 0.190992 0.431012 0.144267
289 2 0.250912 0.420717 0.151004
417 4 0.173336 0.447836 0.149782
607 2 0.310647 0.425746 0.0769234
767 4 0.272063 0.485964 0.179487
766 2 0.279491 0.464324 0.169402
768 4 0.286919 0.442684 0.159317
290 4 0.273649 0.427789 0.158634
608 4 0.325279 0.440065 0.0912779
525 4 0.375817 0.484162 0.113745
658 2 0.362191 0.44314 0.097236
659 4 0.33872 0.444458 0.105755
660 4 0.385661 0.441823 0.0887166
523 2 0.362676 0.503259 0.104373
226 2 0.484427 0.471185 0.0847171
227 4 0.498695 0.455021 0.097379
1420 2 0.0286053 0.0013584 0.17444
20 3 0.0701174 0.0628204 0.174464
2480 4 0.0228777 0.0456247 0.168456
1422 4 0.022196 0.0248297 0.168678
2479 2 0.00344478 0.0608416 0.172454
674 4 0.150187 0.0115563 0.248659
673 2 0.126561 0.00489965 0.243895
448 2 0.204335 0.0619359 0.182517
1506 4 0.243971 0.0280415 0.179429
450 4 0.204726 0.0414118 0.196793
691 2 0.230712 0.0934912 0.239378
1504 2 0.227962 0.0143521 0.1929
693 4 0.228474 0.105883 0.217777
689 4 0.169301 0.0177758 0.247869
688 2 0.185687 0.00135008 0.238549
652 2 0.283133 0.0181568 0.183953
653 4 0.306671 0.0203726 0.192093
654 4 0.259596 0.0159409 0.175813
25 3 0.32287 0.0581137 0.241492
311 4 0.386051 0.0700107 0.187125
758 4 0.376427 0.0618977 0.201818
759 4 0.345739 0.0626773 0.241294
757 2 0.361083 0.0622875 0.221556
743 4 0.488571 0.073583 0.250695
379 2 0.99173 0.11219 0.198201
512 4 0.0162043 0.13327 0.196418
511 2 0.0329404 0.149875 0.204746
380 4 0.983183 0.0907463 0.188594
513 4 0.0496764 0.16648 0.213074
475 2 0.0897056 0.139857 0.162168
578 4 0.0964859 0.0862573 0.231633
477 4 0.0845096 0.154369 0.181856
577 2 0.106804 0.0863351 0.208858
579 4 0.117122 0.0864129 0.186083
236 4 0.202384 0.103133 0.166488
235 2 0.217448 0.121937 0.173168
310 2 0.386988 0.0913834 0.174183
333 4 0.484507 0.0889262 0.261964
762 4 0.476095 0.151681 0.23629
521 4 0.494856 0.150858 0.24035
393 4 0.0680357 0.168934 0.219444
394 2 0.00638807 0.244768 0.227127
395 4 0.0220317 0.254404 0.210168
443 4 0.995544 0.23053 0.263622
546 4 0.155401 0.199821 0.238659
283 2 0.292705 0.230082 0.176174
285 4 0.313532 0.223325 0.188248
27 3 0.324497 0.181823 0.250588
764 4 0.329054 0.2238 0.175673
646 2 0.0539007 0.312111 0.161503
363 4 0.0918353 0.246821 0.194967
647 4 0.0623277 0.331972 0.174141
338 4 0.0903695 0.24389 0.175103
749 4 0.0991781 0.281631 0.245338
361 2 0.100101 0.264127 0.211009
371 4 0.165392 0.317483 0.212192
370 2 0.146423 0.302114 0.217591
372 4 0.127454 0.286745 0.22299
362 4 0.108368 0.281433 0.227051
344 4 0.254945 0.316241 0.252772
754 2 0.268195 0.286637 0.166533
756 4 0.270848 0.308337 0.178667
612 4 0.274797 0.326156 0.18717
610 2 0.265902 0.324831 0.2105
307 2 0.313531 0.286043 0.23778
308 4 0.312236 0.270527 0.218216
611 4 0.257007 0.323506 0.23383
264 4 0.0343577 0.417435 0.226996
303 4 0.323875 0.352788 0.191086
301 2 0.317017 0.34202 0.169587
729 4 0.332708 0.35394 0.210193
727 2 0.335799 0.375089 0.223168
644 4 0.413712 0.375781 0.240193
728 4 0.33889 0.396238 0.236142
596 4 0.479856 0.406642 0.155191
595 2 0.468626 0.405814 0.177515
597 4 0.457395 0.404985 0.19984
643 2 0.43362 0.382011 0.226409
645 4 0.453529 0.388242 0.212625
262 2 0.0111872 0.423105 0.23449
1465 2 0.0255271 0.48853 0.175406
1757 4 0.105248 0.460319 0.24755
1756 2 0.111933 0.484119 0.243802
638 4 0.257682 0.500764 0.178187
231 4 0.437006 0.459257 0.223444
229 2 0.43474 0.483433 0.217479
234 4 0.00122204 0.0304358 0.30061
232 2 0.0259278 0.0301931 0.29677
233 4 0.0506335 0.0299504 0.29293
1404 4 0.0640071 0.0165236 0.292145
1402 2 0.0764614 0.00821099 0.272121
316 2 0.071624 0.0456815 0.32223
317 4 0.0611056 0.0272549 0.309001
428 4 0.0685426 0.00936077 0.309284
675 4 0.102936 0.998243 0.23913
692 4 0.23295 0.0810989 0.260979
23 3 0.324729 0.0447804 0.276655
21 1 0.330003 0.0625252 0.262665
22 3 0.35283 0.0653603 0.262534
351 4 0.426204 0.0694096 0.267744
349 2 0.413878 0.0877947 0.256114
699 4 0.372386 0.0614101 0.309031
697 2 0.383416 0.0546717 0.330435
479 4 0.455436 0.0363801 0.314972
478 2 0.448913 0.0525377 0.29704
2664 4 0.474841 0.0354361 0.313831
480 4 0.44239 0.0686954 0.279107
397 2 0.0633726 0.101646 0.331447
398 4 0.0550479 0.122224 0.319939
723 4 0.228248 0.0963282 0.274029
721 2 0.234311 0.104746 0.296779
722 4 0.240373 0.113163 0.319529
404 4 0.255134 0.135221 0.3321
28 3 0.318113 0.145391 0.257267
24 3 0.320072 0.0819892 0.270471
26 1 0.323358 0.165777 0.267031
403 2 0.256189 0.157784 0.321378
632 4 0.384395 0.113936 0.239994
29 3 0.343956 0.164419 0.277626
631 2 0.367025 0.12417 0.254783
350 4 0.401552 0.10618 0.244485
707 4 0.354166 0.148859 0.282868
633 4 0.349654 0.134404 0.269572
706 2 0.351028 0.145205 0.307403
708 4 0.34789 0.14155 0.331938
331 2 0.484007 0.111693 0.251639
332 4 0.483506 0.134459 0.241313
391 2 0.0788833 0.17808 0.240032
392 4 0.089731 0.187226 0.26062
388 2 0.129523 0.224438 0.313581
389 4 0.136699 0.20644 0.329385
390 4 0.122348 0.242436 0.297777
545 4 0.178143 0.20731 0.282561
544 2 0.166772 0.203565 0.26061
402 4 0.190705 0.220154 0.291217
400 2 0.183437 0.239172 0.305731
30 3 0.307255 0.171566 0.282059
405 4 0.257243 0.180347 0.310656
473 4 0.248912 0.19806 0.313292
717 4 0.409933 0.227245 0.325578
761 4 0.437175 0.17565 0.256575
760 2 0.456635 0.163666 0.246432
748 2 0.101198 0.302836 0.258431
750 4 0.103217 0.324042 0.271524
401 4 0.176169 0.25819 0.320245
676 2 0.193374 0.321269 0.315215
345 4 0.224902 0.322084 0.292319
677 4 0.205615 0.322365 0.29344
343 2 0.239923 0.319163 0.272545
735 4 0.201441 0.337996 0.282327
496 2 0.298857 0.303631 0.294526
497 4 0.289223 0.29552 0.316126
377 4 0.274761 0.287059 0.327693
498 4 0.308491 0.311743 0.272926
309 4 0.314826 0.30156 0.257343
376 2 0.267148 0.27004 0.344355
365 4 0.022208 0.358423 0.289529
601 2 0.0519671 0.375844 0.31252
603 4 0.0368589 0.358263 0.303148
602 4 0.0670752 0.393425 0.321892
549 4 0.0809559 0.405844 0.317895
364 2 0.997501 0.360652 0.292654
299 4 0.152757 0.358524 0.245393
300 4 0.10938 0.337214 0.258241
298 2 0.131068 0.347869 0.251817
734 4 0.169798 0.349324 0.245298
733 2 0.185619 0.34366 0.263812
433 2 0.300899 0.384292 0.324453
435 4 0.27824 0.393508 0.319272
434 4 0.323557 0.375077 0.329635
543 4 0.395172 0.332535 0.336058
615 4 0.377558 0.336576 0.327691
447 4 0.393755 0.374028 0.243071
614 4 0.339666 0.36829 0.319998
613 2 0.358612 0.352433 0.323844
445 2 0.376092 0.376262 0.260627
446 4 0.358429 0.378497 0.278182
2461 2 0.00827863 0.499305 0.314807
777 4 0.106964 0.49053 0.288827
775 2 0.11791 0.495366 0.310781
776 4 0.128857 0.500202 0.332735
1437 4 0.274331 0.4584 0.331687
1435 2 0.259892 0.47549 0.320524
1436 4 0.245453 0.49258 0.30936
3 3 0.313457 0.459435 0.336354
1803 4 0.351646 0.49156 0.275119
436 2 0.351149 0.47369 0.323643
437 4 0.370689 0.474203 0.308052
118 3 0.501126 0.421713 0.334414
119 3 0.494919 0.456402 0.320181
116 1 0.503971 0.444475 0.337907
318 4 0.0821425 0.064108 0.335459
399 4 0.0716974 0.0810674 0.342954
369 4 0.0545844 0.00684303 0.412795
367 2 0.079318 0.00345924 0.414199
732 4 0.0875955 0.0743914 0.350304
730 2 0.110827 0.0728285 0.359415
731 4 0.134059 0.0712655 0.368527
368 4 0.104052 7.54493e-05 0.415604
1700 4 0.318599 0.0213368 0.349723
683 4 0.273951 0.0855432 0.365173
425 4 0.330789 0.0146047 0.413151
698 4 0.394445 0.0479333 0.351839
257 4 0.411775 0.0439607 0.360859
426 4 0.372424 0.0328278 0.392291
424 2 0.351607 0.0237162 0.402721
1428 4 0.465285 0.0214226 0.323646
258 4 0.452089 0.0314344 0.334053
256 2 0.431932 0.0376976 0.347456
2586 4 0.00889457 0.131976 0.395935
2584 2 0.0041212 0.114719 0.378482
2585 4 0.999348 0.0974619 0.36103
606 4 0.147495 0.0864087 0.370531
600 4 0.172438 0.137801 0.347312
604 2 0.172072 0.0909094 0.371456
249 4 0.243462 0.120135 0.338296
605 4 0.19665 0.0954102 0.37238
248 4 0.216374 0.0948634 0.371886
247 2 0.229918 0.107499 0.355091
682 2 0.275882 0.100202 0.385337
319 2 0.313606 0.129762 0.409836
684 4 0.277813 0.114861 0.4055
320 4 0.29406 0.115969 0.417112
321 4 0.333151 0.143554 0.402561
598 2 0.164002 0.159097 0.357337
599 4 0.155566 0.180393 0.367361
686 4 0.151669 0.190979 0.383678
275 4 0.175011 0.187108 0.365161
474 4 0.224953 0.221984 0.350093
276 4 0.20606 0.225631 0.357902
472 2 0.236933 0.210022 0.331693
274 2 0.190535 0.20637 0.361532
715 2 0.399624 0.218076 0.346431
466 2 0.388688 0.188571 0.405574
716 4 0.389315 0.208907 0.367283
467 4 0.392844 0.196523 0.382235
270 4 0.483111 0.22057 0.376554
452 4 0.448672 0.192561 0.393567
451 2 0.442802 0.178137 0.413129
269 4 0.461207 0.25015 0.342701
268 2 0.472159 0.23536 0.359627
419 4 0.457059 0.2571 0.325155
347 4 0.0575465 0.324472 0.409945
618 4 0.0694016 0.317991 0.395417
616 2 0.0918192 0.308247 0.390156
617 4 0.114237 0.298502 0.384896
374 4 0.121843 0.29898 0.365961
373 2 0.144139 0.303963 0.355802
678 4 0.181134 0.320172 0.33699
375 4 0.166436 0.308947 0.345642
509 4 0.2275 0.317967 0.379507
378 4 0.259535 0.253022 0.361016
508 2 0.249113 0.325312 0.369305
541 2 0.402651 0.309099 0.340532
420 4 0.409777 0.267596 0.337606
542 4 0.410131 0.285664 0.345007
418 2 0.433418 0.262348 0.33138
346 2 0.044535 0.343824 0.400923
348 4 0.0315236 0.363176 0.391902
510 4 0.270727 0.332658 0.359104
336 4 0.333986 0.374463 0.416883
753 4 0.485615 0.417828 0.347373
561 4 0.48539 0.400623 0.406403
751 2 0.479251 0.407005 0.368996
752 4 0.472887 0.396183 0.390618
547 2 0.0895588 0.421457 0.335429
407 4 0.0982851 0.439132 0.373127
548 4 0.0981618 0.437069 0.352962
406 2 0.103303 0.451847 0.394063
501 4 0.0866661 0.494114 0.378006
500 4 0.121291 0.512457 0.346936
408 4 0.108322 0.464561 0.415
569 4 0.111688 0.480764 0.425981
499 2 0.103978 0.503286 0.362471
1544 4 0.204534 0.502265 0.401082
5 3 0.290845 0.478871 0.359346
438 4 0.331609 0.473177 0.339235
1 1 0.311416 0.469327 0.357243
4 3 0.314508 0.453439 0.373868
2 3 0.32756 0.485573 0.359387
592 2 0.428944 0.489943 0.379214
588 4 0.406988 0.468027 0.404785
593 4 0.420569 0.483005 0.401729
594 4 0.437319 0.496881 0.3567
713 4 0.444516 0.490529 0.340164
714 4 0.483677 0.459492 0.33821
712 2 0.464097 0.47501 0.339187
117 3 0.493043 0.450454 0.357245
719 4 0.0494272 0.00643399 0.432451
441 4 0.313016 0.0177649 0.42254
962 4 0.309904 0.0216452 0.441536
961 2 0.309891 0.0345666 0.462942
963 4 0.309877 0.047488 0.484348
458 4 0.0217519 0.146581 0.402261
457 2 0.0387579 0.153622 0.419184
459 4 0.0557639 0.160664 0.436108
725 4 0.405259 0.108964 0.450303
724 2 0.408034 0.0953085 0.429542
726 4 0.410809 0.0816532 0.408781
642 4 0.495404 0.12764 0.45988
2880 4 0.490037 0.11067 0.449987
640 2 0.4831 0.131449 0.481311
305 4 0.49993 0.173682 0.428682
260 4 0.0675174 0.17669 0.434495
259 2 0.0898361 0.18796 0.434723
685 2 0.140101 0.197109 0.40498
687 4 0.128534 0.203238 0.426283
261 4 0.112155 0.199229 0.434952
1035 4 0.124629 0.211541 0.443829
1033 2 0.119154 0.226891 0.462791
1034 4 0.113679 0.242242 0.481753
489 4 0.330292 0.217361 0.436807
487 2 0.331503 0.2417 0.431207
468 4 0.384531 0.180619 0.428912
514 2 0.406805 0.168353 0.458389
411 4 0.331816 0.201694 0.450186
516 4 0.383092 0.173012 0.464807
409 2 0.355203 0.192914 0.449116
410 4 0.37859 0.184133 0.448045
575 4 0.385077 0.182558 0.480793
453 4 0.436932 0.163713 0.432691
515 4 0.430517 0.163694 0.451972
583 2 0.4839 0.236914 0.472046
585 4 0.474898 0.229427 0.449953
2847 4 0.0186945 0.320866 0.464775
695 4 0.0456783 0.258869 0.483779
694 2 0.070006 0.263291 0.487492
1258 2 0.124605 0.277376 0.488418
1259 4 0.13779 0.297454 0.481477
9 3 0.130344 0.311883 0.46953
696 4 0.0943337 0.267712 0.491206
1260 4 0.111419 0.257297 0.495358
857 4 0.217313 0.266633 0.504994
488 4 0.332713 0.266038 0.425606
266 4 0.365507 0.247558 0.447739
267 4 0.381039 0.2808 0.481716
265 2 0.373273 0.264179 0.464728
2845 2 0.00738449 0.343155 0.46411
326 4 0.0545502 0.37289 0.449577
325 2 0.0671743 0.354213 0.460393
327 4 0.0797985 0.335536 0.47121
6 1 0.122866 0.333102 0.475209
7 3 0.0999652 0.333719 0.473131
711 4 0.126619 0.406619 0.44815
10 3 0.132082 0.348577 0.461273
709 2 0.148617 0.395536 0.443858
503 4 0.228525 0.395352 0.432555
504 4 0.18603 0.377034 0.451512
502 2 0.207278 0.386193 0.442034
710 4 0.170615 0.384452 0.439566
772 2 0.302533 0.423115 0.474816
668 4 0.324588 0.388679 0.40634
667 2 0.314802 0.404931 0.422628
773 4 0.299703 0.411308 0.496674
335 4 0.378473 0.35496 0.428769
334 2 0.356229 0.364711 0.422826
238 2 0.40541 0.389096 0.420769
240 4 0.389266 0.370013 0.421427
239 4 0.421554 0.408178 0.42011
881 4 0.332765 0.397904 0.504873
880 2 0.346981 0.418437 0.506091
559 2 0.494728 0.404089 0.429337
3307 2 0.502217 0.402382 0.489574
560 4 0.504066 0.407555 0.452271
3309 4 0.500606 0.418045 0.470151
1381 2 0.0189012 0.494856 0.448789
1383 4 0.0314778 0.473465 0.445712
680 4 0.0268474 0.458229 0.432838
679 2 0.00988024 0.441578 0.425089
384 4 0.133179 0.425057 0.454948
568 2 0.131964 0.49528 0.427814
383 4 0.109201 0.463629 0.434019
382 2 0.12119 0.444343 0.444484
1543 2 0.186387 0.499777 0.418103
1555 2 0.242339 0.491502 0.417381
1557 4 0.266471 0.492184 0.423889
635 4 0.313519 0.451251 0.44504
636 4 0.279182 0.487022 0.438552
634 2 0.29635 0.469136 0.441796
774 4 0.305364 0.434923 0.452959
669 4 0.305016 0.421183 0.438916
882 4 0.361197 0.43897 0.507309
663 4 0.441497 0.476881 0.439501
586 2 0.414362 0.447167 0.416433
587 4 0.421736 0.426307 0.428081
342 4 0.218731 0.0621596 0.513872
340 2 0.221288 0.0422049 0.499024
2430 4 0.215291 0.0101356 0.496046
341 4 0.223845 0.0222502 0.484177
1032 4 0.239966 0.0770454 0.574914
430 2 0.306303 0.0687292 0.509868
431 4 0.31803 0.0779622 0.529928
1031 4 0.287502 0.0736779 0.590071
843 4 0.334014 0.078738 0.54242
1030 2 0.263734 0.0753617 0.582492
432 4 0.294576 0.0594962 0.489808
1217 4 0.388558 0.0713408 0.534715
1216 2 0.410994 0.0671648 0.524498
841 2 0.358454 0.0787794 0.547697
842 4 0.382894 0.0788207 0.552975
1218 4 0.433429 0.0629888 0.514282
470 4 0.999814 0.140755 0.522868
938 4 0.0618348 0.142529 0.59157
1128 4 0.995122 0.105687 0.58045
1058 4 0.123064 0.0877037 0.546445
1057 2 0.123242 0.104507 0.56496
1152 4 0.207965 0.0721732 0.528468
1151 4 0.22949 0.0921679 0.568936
1150 2 0.218728 0.0821705 0.548702
1181 4 0.222497 0.119192 0.546219
1180 2 0.243125 0.131339 0.538999
1182 4 0.263752 0.143485 0.531778
900 4 0.267459 0.148444 0.512956
898 2 0.286974 0.161737 0.52118
641 4 0.470797 0.135259 0.502742
469 2 0.00254802 0.164039 0.514176
471 4 0.00528205 0.187323 0.505484
1199 4 0.0267205 0.242223 0.565434
1198 2 0.00194558 0.241166 0.56223
878 4 0.0376658 0.233138 0.580547
1244 4 0.0542871 0.244453 0.576713
798 4 0.219591 0.258939 0.563776
796 2 0.243549 0.252123 0.565951
899 4 0.306489 0.175029 0.529404
649 2 0.267211 0.241685 0.494351
650 4 0.246696 0.228412 0.499656
576 4 0.392949 0.205518 0.524515
574 2 0.389013 0.194038 0.502654
3159 4 0.504109 0.166122 0.579759
983 4 0.0515399 0.308216 0.566259
1245 4 0.0637208 0.292431 0.566232
982 2 0.0289603 0.318743 0.564135
1243 2 0.059004 0.268442 0.571473
984 4 0.00638061 0.329271 0.562011
858 4 0.188157 0.272953 0.545128
948 4 0.167594 0.29385 0.579034
856 2 0.202735 0.269793 0.525061
946 2 0.188894 0.280754 0.578983
804 4 0.258433 0.327859 0.546609
797 4 0.267507 0.245307 0.568126
792 4 0.293039 0.304056 0.586815
651 4 0.287725 0.254959 0.489046
1237 2 0.310166 0.329544 0.559519
791 4 0.280652 0.25659 0.57711
1238 4 0.295254 0.311616 0.568542
790 2 0.286846 0.280323 0.581963
872 4 0.388229 0.26053 0.585146
871 2 0.388438 0.281302 0.57123
873 4 0.388647 0.302075 0.557315
813 4 0.380884 0.3173 0.546984
906 4 0.475768 0.300083 0.563456
953 4 0.46264 0.311762 0.551787
904 2 0.49761 0.287926 0.56291
3354 4 0.0126061 0.346671 0.568186
8 3 0.128534 0.337877 0.497198
1190 4 0.236191 0.361183 0.574556
803 4 0.247103 0.373685 0.563113
1189 2 0.220726 0.373691 0.589708
802 2 0.252768 0.350772 0.554861
930 4 0.329314 0.360654 0.565741
1239 4 0.325078 0.347472 0.550497
811 2 0.388051 0.340319 0.55361
812 4 0.395218 0.363339 0.560235
927 4 0.404578 0.378331 0.551074
929 4 0.353139 0.402234 0.55145
928 2 0.341227 0.381444 0.558596
926 4 0.44201 0.407373 0.567077
925 2 0.423294 0.392852 0.559076
538 2 0.0681741 0.46446 0.566823
540 4 0.0875873 0.470874 0.552429
1160 4 0.114316 0.464196 0.543223
1159 2 0.135448 0.465997 0.556465
1161 4 0.156581 0.467797 0.569708
2244 4 0.1022 0.480533 0.542534
891 4 0.30806 0.426283 0.579949
889 2 0.317625 0.447745 0.588496
1953 4 0.385251 0.487129 0.572588
1951 2 0.364756 0.482802 0.586241
1000 2 0.447098 0.448141 0.577318
1001 4 0.447672 0.468731 0.591492
1911 4 0.450383 0.48849 0.594468
1002 4 0.446523 0.427551 0.563143
823 2 0.143261 0.0257968 0.647658
825 4 0.132618 0.0472579 0.640493
824 4 0.153904 0.00433572 0.654823
951 4 0.2958 0.0573046 0.586337
949 2 0.301195 0.0337122 0.59262
950 4 0.306589 0.0101198 0.598903
2283 4 0.406456 0.0241487 0.643642
2281 2 0.402389 2.55874e-05 0.648811
3008 4 0.506969 0.0446818 0.59868
809 4 0.486407 0.0451932 0.602691
808 2 0.475853 0.0568661 0.622122
42 3 0.462621 0.0576619 0.661635
810 4 0.4653 0.068539 0.641552
41 1 0.455152 0.0792909 0.663993
43 3 0.432135 0.0790025 0.666915
1082 4 0.0633119 0.0958978 0.651835
1076 4 0.0657419 0.0858544 0.668638
1126 2 0.0192251 0.10096 0.585129
1083 4 0.049133 0.109081 0.605728
1081 2 0.0562224 0.10249 0.628781
1127 4 0.0433278 0.0962327 0.589808
937 2 0.0849636 0.133379 0.594122
939 4 0.108092 0.124228 0.596674
1155 4 0.126137 0.12771 0.6013
1059 4 0.12342 0.121311 0.583474
1153 2 0.148457 0.13519 0.609728
1154 4 0.170777 0.142671 0.618157
1221 4 0.167059 0.162696 0.622729
45 3 0.460462 0.0911415 0.645284
3425 4 0.471217 0.0998331 0.66219
3424 2 0.485095 0.120619 0.662912
877 2 0.0532906 0.214196 0.585262
879 4 0.0689154 0.195253 0.589976
1272 4 0.0802891 0.177889 0.59027
1271 4 0.120884 0.201062 0.572499
1270 2 0.100586 0.189475 0.581385
1212 4 0.206187 0.188558 0.663194
1219 2 0.176863 0.176771 0.640922
1220 4 0.186667 0.190845 0.659114
1210 2 0.230349 0.183246 0.666823
1211 4 0.254511 0.177933 0.670451
888 4 0.270223 0.175529 0.658449
886 2 0.294537 0.180464 0.661558
887 4 0.318851 0.1854 0.664668
1194 4 0.333068 0.189057 0.651093
1193 4 0.380472 0.190074 0.666986
1192 2 0.35677 0.189566 0.659039
1136 4 0.149625 0.299847 0.587216
1135 2 0.144454 0.321886 0.597833
947 4 0.210194 0.267659 0.578933
807 4 0.310932 0.321331 0.665701
805 2 0.32784 0.338439 0.658875
952 2 0.450429 0.318228 0.572625
954 4 0.438217 0.324694 0.593464
1039 2 0.0561569 0.388058 0.603732
1041 4 0.0391308 0.393052 0.621349
3264 4 0.0354162 0.388162 0.641163
3262 2 0.0366736 0.365899 0.652475
3240 4 0.0157266 0.382778 0.634492
1040 4 0.073183 0.383064 0.586115
897 4 0.148034 0.358942 0.616341
993 4 0.0905259 0.378105 0.594725
1137 4 0.139282 0.343925 0.60845
991 2 0.114119 0.370462 0.597909
992 4 0.137712 0.36282 0.601093
895 2 0.169507 0.371658 0.617903
1172 4 0.217107 0.399058 0.615064
1191 4 0.205262 0.3862 0.604859
896 4 0.190979 0.384373 0.619464
806 4 0.344748 0.355548 0.652049
1206 4 0.408354 0.405466 0.654972
539 4 0.048761 0.458046 0.581216
1188 4 0.152878 0.475531 0.58927
1186 2 0.165018 0.462782 0.607025
1171 2 0.201804 0.418695 0.612744
1173 4 0.186502 0.438333 0.610423
1187 4 0.177158 0.450032 0.624781
1139 4 0.239594 0.451054 0.658469
1230 4 0.324324 0.434451 0.653673
1204 2 0.39933 0.428193 0.649756
890 4 0.327191 0.469208 0.597043
1952 4 0.344261 0.478475 0.599895
1205 4 0.390305 0.45092 0.644541
1269 4 0.464095 0.483529 0.610549
1267 2 0.460312 0.495982 0.631898
945 4 0.0635049 0.0215276 0.694402
943 2 0.0646822 0.0442436 0.684021
944 4 0.0658596 0.0669596 0.673639
1283 4 0.142359 0.0562433 0.671877
1147 2 0.233897 0.0483154 0.728795
1148 4 0.229074 0.0632617 0.709339
1149 4 0.23872 0.0333691 0.748251
1092 4 0.332598 0.00525652 0.700363
1163 4 0.471806 0.0663857 0.681085
1162 2 0.491029 0.0562427 0.693445
864 4 0.0563616 0.113278 0.727092
1075 2 0.0670647 0.0997084 0.689411
1077 4 0.0683874 0.113562 0.710183
1107 4 0.0690799 0.126443 0.723648
851 4 0.066633 0.132802 0.705255
850 2 0.070277 0.154366 0.693135
862 2 0.0374009 0.10298 0.739726
1282 2 0.146209 0.0785528 0.68249
1105 2 0.0890586 0.129023 0.738459
1284 4 0.15006 0.100862 0.693103
909 4 0.152997 0.127783 0.721022
907 2 0.177782 0.129384 0.723911
1106 4 0.109037 0.131603 0.75327
1226 4 0.230095 0.0823982 0.701668
908 4 0.202566 0.130985 0.7268
1227 4 0.219379 0.129622 0.71415
1225 2 0.224737 0.10601 0.707909
829 2 0.330838 0.151142 0.692509
1004 4 0.378368 0.0874868 0.724125
1003 2 0.362654 0.101641 0.710788
1005 4 0.346939 0.115796 0.69745
831 4 0.335604 0.130859 0.706331
44 3 0.465374 0.0887761 0.682539
852 4 0.0739211 0.17593 0.681015
1177 2 0.00705637 0.247836 0.691302
1073 4 0.107716 0.212634 0.747734
1072 2 0.100981 0.229122 0.730185
830 4 0.326071 0.171425 0.678687
1144 2 0.494433 0.1774 0.732207
1025 4 0.428149 0.184469 0.677334
1262 4 0.470175 0.206478 0.721971
1142 4 0.45529 0.180489 0.731648
1024 2 0.443722 0.187905 0.696592
1026 4 0.459295 0.191341 0.71585
1261 2 0.469589 0.226266 0.737245
1145 4 0.472503 0.187758 0.726126
1179 4 0.0249904 0.264925 0.68791
1074 4 0.0942463 0.245611 0.712637
1209 4 0.119273 0.306559 0.70218
1207 2 0.111456 0.282816 0.701613
1208 4 0.10364 0.259072 0.701047
821 4 0.136409 0.303627 0.690788
820 2 0.161213 0.306648 0.689894
822 4 0.186017 0.30967 0.689
1063 2 0.225051 0.300228 0.691546
1064 4 0.201739 0.304098 0.699717
1065 4 0.248363 0.296359 0.683376
1263 4 0.469004 0.246053 0.752519
3123 4 0.488726 0.246465 0.651458
3263 4 0.0379311 0.343636 0.663787
892 2 0.0175283 0.364306 0.743981
894 4 0.0317162 0.37228 0.725
1280 4 0.0501729 0.363123 0.721678
1279 2 0.0563183 0.385413 0.712163
816 4 0.0630393 0.361323 0.737439
814 2 0.0846194 0.350422 0.743815
815 4 0.1062 0.339522 0.750191
942 4 0.114736 0.355852 0.755844
1028 4 0.237025 0.382379 0.729275
1066 2 0.196285 0.38366 0.747565
1068 4 0.220188 0.385963 0.740596
1027 2 0.245056 0.405644 0.724869
1018 2 0.378237 0.396724 0.759543
1020 4 0.398114 0.404148 0.746315
1281 4 0.0624638 0.407704 0.702648
1983 4 0.0675628 0.427677 0.705142
1981 2 0.0649597 0.445303 0.722684
1982 4 0.0623566 0.462929 0.740226
2172 4 0.115649 0.500741 0.691232
1029 4 0.253087 0.428909 0.720462
1140 4 0.24341 0.427771 0.702561
2016 4 0.177656 0.49113 0.744776
1138 2 0.241502 0.439412 0.680515
1987 2 0.329296 0.477163 0.728523
1228 2 0.33069 0.445856 0.674994
1988 4 0.318522 0.480303 0.750866
1229 4 0.337057 0.45726 0.696315
1989 4 0.34007 0.474023 0.706179
1101 4 0.45815 0.499983 0.671931
2991 4 0.0455049 0.0416634 0.77927
2989 2 0.0302107 0.060041 0.771954
2990 4 0.0149164 0.0784185 0.764637
2049 4 0.121628 0.0563175 0.772917
1202 4 0.119049 0.0655743 0.754312
1201 2 0.117997 0.0864521 0.768031
2047 2 0.129313 0.0325359 0.772169
1257 4 0.232948 0.0770241 0.752304
1255 2 0.234356 0.0896534 0.773837
817 2 0.322402 0.0354572 0.815663
819 4 0.312033 0.0550841 0.827171
1085 4 0.312827 0.0738097 0.826906
818 4 0.332771 0.0158303 0.804154
975 4 0.388771 0.0120204 0.832713
1050 4 0.359909 0.995477 0.78904
974 4 0.352453 0.0119561 0.798337
1113 4 0.417665 0.0506128 0.776607
973 2 0.370612 0.0119883 0.815525
2322 4 0.501654 0.0452838 0.769854
1111 2 0.440631 0.0604043 0.775246
845 4 0.482042 0.06709 0.781187
1112 4 0.463597 0.0701959 0.773885
844 2 0.487258 0.0912986 0.777736
3083 4 0.000104505 0.0900085 0.75666
863 4 0.0184402 0.0926817 0.75236
833 4 0.0107361 0.096062 0.770799
832 2 0.012673 0.112896 0.789185
834 4 0.01461 0.12973 0.807571
1125 4 0.0187682 0.146907 0.81537
1123 2 0.0404962 0.145482 0.82766
1203 4 0.116945 0.10733 0.781749
911 4 0.105704 0.11933 0.815584
34 3 0.112957 0.128304 0.772787
31 1 0.117745 0.130002 0.795428
35 3 0.100017 0.139094 0.806459
32 3 0.121869 0.10896 0.803756
33 3 0.13661 0.143143 0.798571
910 2 0.0968104 0.10942 0.836747
1256 4 0.235763 0.102283 0.795371
840 4 0.243884 0.0945364 0.811804
1084 2 0.318028 0.0947228 0.814227
1086 4 0.323229 0.115636 0.801547
47 3 0.412326 0.158969 0.816688
1143 4 0.432617 0.178888 0.776191
48 3 0.416575 0.167036 0.780226
1130 4 0.140656 0.228957 0.795124
1129 2 0.162751 0.223727 0.784653
1131 4 0.184846 0.218496 0.774182
1277 4 0.198306 0.229612 0.765162
978 4 0.247415 0.202766 0.767714
1276 2 0.212076 0.24883 0.773301
977 4 0.295624 0.216029 0.768592