ITEM: TIMESTEP
1730000
ITEM: NUMBER OF ATOMS
4590
ITEM: BOX BOUNDS pp pp pp
-9.9985700000000008e+00 9.9985700000000008e+00
-9.9985700000000008e+00 9.9985700000000008e+00
-9.9985700000000008e+00 9.9985700000000008e+00
ITEM: ATOMS id type xs ys zs
1666 2 0.0475234 0.0616372 0.0657476
1668 4 0.0360923 0.0657732 0.0438981
1667 4 0.0589545 0.0575011 0.0875972
3289 2 0.0370986 0.993358 0.013259
747 4 0.461634 0.0627867 0.993158
2974 2 0.47355 0.0283041 0.0162833
2975 4 0.469858 0.0460017 0.999011
745 2 0.451295 0.0797486 0.00834305
2976 4 0.477242 0.0106065 0.033556
566 4 0.196252 0.147568 0.0323374
2264 4 0.275492 0.153258 0.00624534
297 4 0.330981 0.115628 0.0401796
295 2 0.347692 0.10831 0.0230808
556 2 0.401766 0.108179 0.00664204
769 2 0.405838 0.166721 0.0108444
557 4 0.378928 0.11003 0.996635
771 4 0.424088 0.16006 0.995104
558 4 0.424605 0.106329 0.0166495
746 4 0.440956 0.0967106 0.0235279
565 2 0.209474 0.168218 0.0274434
567 4 0.222695 0.188868 0.0225494
1133 4 0.220214 0.182688 0.00222519
360 4 0.328473 0.171055 0.0321281
358 2 0.352783 0.174297 0.0369921
770 4 0.387589 0.173383 0.0265852
359 4 0.377094 0.177539 0.0418561
664 2 0.393817 0.208062 0.0528685
665 4 0.390242 0.190346 0.0355899
666 4 0.397392 0.225778 0.0701471
323 4 0.412838 0.238714 0.0690619
623 4 0.395943 0.243263 0.0773325
555 4 0.0492318 0.286388 0.0269362
553 2 0.058054 0.280076 0.00440822
287 4 0.160121 0.310691 0.0397047
292 2 0.129374 0.281594 0.0286839
507 4 0.160957 0.294295 0.0489173
293 4 0.148442 0.297232 0.0328139
294 4 0.110306 0.265956 0.0245538
505 2 0.175482 0.300472 0.0683087
481 2 0.233686 0.298965 0.0780877
483 4 0.210497 0.301806 0.0869987
506 4 0.190008 0.306649 0.0877001
573 4 0.276898 0.294195 0.0640807
482 4 0.256874 0.296123 0.0691766
571 2 0.278286 0.281163 0.0427866
572 4 0.279673 0.268132 0.0214925
322 2 0.415283 0.261515 0.0590948
1069 2 0.396703 0.296994 0.0237094
957 4 0.36247 0.313289 0.0328966
1071 4 0.375448 0.308896 0.0180745
955 2 0.344921 0.313556 0.0150884
741 4 0.356281 0.330948 0.0389911
324 4 0.417727 0.284315 0.0491277
1070 4 0.417957 0.285092 0.0293443
671 4 0.455466 0.333142 0.0591607
280 2 0.4517 0.304152 0.0361067
281 4 0.465492 0.322189 0.0465763
282 4 0.437908 0.286114 0.025637
286 2 0.164271 0.332436 0.0280804
454 2 0.164739 0.379176 0.0561005
455 4 0.143996 0.366115 0.0511683
552 4 0.131457 0.353289 0.0531168
550 2 0.108321 0.353177 0.0625984
551 4 0.0851857 0.353065 0.0720799
288 4 0.168421 0.354181 0.0164561
456 4 0.185482 0.392236 0.0610327
251 4 0.275598 0.417174 0.023384
1290 4 0.270758 0.399155 0.015837
739 2 0.3673 0.335356 0.0609984
495 4 0.399097 0.371249 0.0752974
493 2 0.390755 0.394527 0.0715936
14 3 0.39666 0.353463 0.0825552
670 2 0.436294 0.338683 0.0742245
245 4 0.2454 0.486876 0.0485009
626 4 0.23045 0.482876 0.0616772
625 2 0.209644 0.474925 0.0730367
244 2 0.249984 0.466286 0.0350771
627 4 0.188837 0.466974 0.0843962
250 2 0.27801 0.421138 0.0479532
252 4 0.280422 0.425102 0.0725224
246 4 0.254569 0.445695 0.0216532
272 4 0.269125 0.433988 0.0141595
494 4 0.382413 0.417805 0.0678898
1672 2 0.401862 0.453423 0.067234
853 2 0.406532 0.449733 0.0114507
854 4 0.420116 0.462412 0.0281813
1674 4 0.414661 0.457976 0.0462426
563 4 0.47247 0.423509 0.0474225
562 2 0.451918 0.436908 0.0425984
564 4 0.431367 0.450308 0.0377744
228 4 0.485747 0.435521 0.0360412
701 4 0.0695605 0.0746144 0.0912379
18 3 0.061412 0.0472565 0.144821
1475 4 0.30153 0.0303604 0.0923554
492 4 0.3076 0.0371171 0.111223
490 2 0.292681 0.0571769 0.111699
491 4 0.277763 0.0772366 0.112174
1474 2 0.29601 0.00690307 0.0856879
485 4 0.37731 0.0113437 0.0960889
2723 4 0.43931 0.0606595 0.139557
2722 2 0.45734 0.043684 0.143008
2724 4 0.47537 0.0267084 0.14646
1760 4 0.490737 0.0145135 0.142845
1759 2 0.498701 0.015807 0.119179
2744 4 0.483532 0.0158534 0.161151
700 2 0.071864 0.0969222 0.102294
702 4 0.0741674 0.11923 0.11335
476 4 0.082966 0.133762 0.12545
475 2 0.0804028 0.135219 0.150279
737 4 0.243545 0.160129 0.112774
582 4 0.250646 0.130941 0.150924
628 2 0.357324 0.14132 0.151602
312 4 0.369509 0.108741 0.159355
629 4 0.351453 0.117585 0.156832
630 4 0.363195 0.165055 0.146373
339 4 0.073223 0.226812 0.139608
337 2 0.071046 0.245551 0.156019
738 4 0.245826 0.210082 0.113276
736 2 0.244686 0.185105 0.113025
461 4 0.307157 0.226504 0.100533
460 2 0.329663 0.230314 0.110738
354 4 0.293337 0.232484 0.114535
352 2 0.28235 0.242997 0.134383
254 4 0.377081 0.173699 0.134315
462 4 0.352169 0.234124 0.120944
255 4 0.361508 0.221091 0.130826
253 2 0.369294 0.197395 0.132571
765 4 0.363563 0.238722 0.137063
624 4 0.371238 0.235453 0.120104
622 2 0.38359 0.239358 0.0987183
763 2 0.352308 0.250233 0.156194
537 4 0.179352 0.311334 0.103593
535 2 0.200815 0.312869 0.116328
353 4 0.271364 0.25351 0.154231
755 4 0.253745 0.259598 0.16008
387 4 0.327126 0.307539 0.120822
301 2 0.335372 0.301319 0.161104
302 4 0.335725 0.297673 0.13637
385 2 0.345222 0.319407 0.108298
15 3 0.378402 0.329633 0.10528
386 4 0.363318 0.331275 0.0957737
12 3 0.414794 0.336057 0.110498
518 4 0.492192 0.26473 0.0929285
528 4 0.474442 0.261777 0.103227
526 2 0.456609 0.279219 0.101511
527 4 0.438776 0.296661 0.0997958
315 4 0.00462935 0.373146 0.125576
647 4 0.0739249 0.34757 0.150256
417 4 0.140239 0.409928 0.147216
415 2 0.16459 0.4156 0.147006
536 4 0.222277 0.314404 0.129063
291 4 0.197549 0.414936 0.129656
289 2 0.219611 0.41559 0.141405
290 4 0.241672 0.416244 0.153153
740 4 0.378319 0.339764 0.0830058
672 4 0.417122 0.344223 0.0892883
11 1 0.39475 0.345455 0.104249
13 3 0.389808 0.362901 0.118727
595 2 0.483804 0.413927 0.125262
597 4 0.482612 0.392464 0.138032
645 4 0.467753 0.397289 0.151089
104 3 0.496469 0.357386 0.140971
1791 4 0.0555534 0.484118 0.130009
1466 4 0.0537405 0.475424 0.149033
1465 2 0.0345041 0.461997 0.157685
416 4 0.18894 0.421272 0.146795
609 4 0.286799 0.419132 0.0900464
607 2 0.306593 0.424439 0.104372
608 4 0.326387 0.429746 0.118698
768 4 0.256791 0.427631 0.148544
767 4 0.267587 0.47609 0.142556
766 2 0.262189 0.451861 0.14555
638 4 0.261993 0.493717 0.133272
1673 4 0.389063 0.448869 0.0882254
659 4 0.346446 0.43309 0.119094
660 4 0.380383 0.43281 0.0823672
658 2 0.363415 0.43295 0.100731
596 4 0.484997 0.435391 0.112492
380 4 0.0100943 0.0777946 0.204407
16 1 0.0584327 0.0506566 0.167579
19 3 0.0527321 0.0727862 0.171603
17 3 0.0413556 0.0371205 0.174948
2480 4 0.0286076 0.0308455 0.188449
1422 4 0.0274844 0.0118102 0.182654
2479 2 0.0113692 0.0477832 0.194862
20 3 0.0775451 0.0453942 0.17879
578 4 0.0981417 0.0491336 0.175409
674 4 0.145796 0.0151544 0.214378
673 2 0.122758 0.0102191 0.222749
689 4 0.165469 0.0173646 0.209017
577 2 0.119395 0.0617007 0.179351
579 4 0.140649 0.0742678 0.183293
675 4 0.0997205 0.00528385 0.231121
653 4 0.289374 0.015931 0.213946
311 4 0.381302 0.0745871 0.193926
758 4 0.373474 0.0593289 0.204907
759 4 0.346323 0.0613903 0.246851
757 2 0.359898 0.0603596 0.225879
511 2 0.0493927 0.148336 0.218116
513 4 0.0664899 0.153412 0.23564
381 4 0.0210344 0.126262 0.198757
512 4 0.0322955 0.14326 0.200592
379 2 0.0155643 0.102028 0.201582
477 4 0.0778395 0.136676 0.175108
450 4 0.141797 0.0933929 0.176367
448 2 0.162431 0.107512 0.176606
449 4 0.183066 0.121632 0.176844
237 4 0.238007 0.146916 0.155203
691 2 0.246836 0.103909 0.24023
693 4 0.235385 0.0917342 0.221634
236 4 0.197168 0.134992 0.181484
235 2 0.217588 0.140954 0.168344
581 4 0.290966 0.117998 0.177524
580 2 0.270806 0.124469 0.164224
28 3 0.332719 0.145284 0.236643
310 2 0.375405 0.0916643 0.176641
333 4 0.493364 0.0862007 0.245521
521 4 0.478838 0.145976 0.22347
332 4 0.477636 0.127274 0.221723
762 4 0.461186 0.136318 0.225409
760 2 0.443456 0.144792 0.240869
331 2 0.4855 0.106737 0.233622
396 4 0.00213855 0.245806 0.242431
394 2 0.0210421 0.233167 0.232036
395 4 0.0399457 0.220527 0.22164
277 2 0.251459 0.226004 0.177125
279 4 0.238395 0.205885 0.184176
26 1 0.32516 0.166191 0.243288
27 3 0.329704 0.181383 0.226623
278 4 0.264523 0.246124 0.170073
30 3 0.302687 0.165537 0.246918
338 4 0.0688691 0.26429 0.172429
363 4 0.0736871 0.258204 0.190231
361 2 0.0803599 0.280727 0.198795
749 4 0.074738 0.319322 0.210111
443 4 0.0135266 0.258952 0.252969
748 2 0.0809457 0.332226 0.230608
370 2 0.128883 0.306533 0.221308
372 4 0.108253 0.303331 0.207549
362 4 0.0870327 0.30325 0.20736
371 4 0.149514 0.309735 0.235067
734 4 0.155746 0.325023 0.247146
648 4 0.0746885 0.336883 0.199102
285 4 0.326029 0.269256 0.188367
284 4 0.28266 0.249994 0.172593
283 2 0.304344 0.259625 0.18048
754 2 0.253832 0.280674 0.173533
756 4 0.253919 0.30175 0.186986
612 4 0.25695 0.300693 0.206826
610 2 0.254701 0.30139 0.231719
307 2 0.328613 0.294418 0.218685
308 4 0.325375 0.289701 0.194345
303 4 0.335018 0.304966 0.185838
729 4 0.329479 0.323566 0.190566
309 4 0.331851 0.299136 0.243025
764 4 0.341053 0.261744 0.175325
264 4 0.0129158 0.41631 0.233291
646 2 0.0743067 0.342227 0.174679
727 2 0.319895 0.346642 0.189662
728 4 0.310311 0.369718 0.188758
446 4 0.444442 0.367228 0.243691
445 2 0.446096 0.384794 0.225974
447 4 0.447749 0.40236 0.208257
644 4 0.466714 0.396971 0.201084
643 2 0.467233 0.39713 0.176086
1467 4 0.0152677 0.44857 0.166336
1757 4 0.0963267 0.444062 0.257668
231 4 0.460051 0.482404 0.256597
229 2 0.45892 0.489697 0.232707
230 4 0.457789 0.49699 0.208818
232 2 0.0203184 0.0294499 0.295245
233 4 0.0443561 0.0263106 0.28912
1404 4 0.0641455 0.0219697 0.285919
1402 2 0.0749768 0.0138542 0.264896
316 2 0.0705589 0.0516641 0.307427
317 4 0.0588772 0.0311307 0.299236
428 4 0.0670753 0.0158598 0.305286
427 2 0.0694393 0.999985 0.324458
318 4 0.0822406 0.0721974 0.315618
732 4 0.0984692 0.0745312 0.326801
25 3 0.324691 0.0528097 0.247004
21 1 0.32934 0.0605206 0.267922
23 3 0.326125 0.0436153 0.283487
22 3 0.351292 0.0673409 0.268778
351 4 0.411969 0.0532652 0.270459
349 2 0.395164 0.0714449 0.266956
479 4 0.455069 0.0231181 0.298217
478 2 0.441461 0.0329614 0.279694
2664 4 0.475298 0.0235424 0.299977
480 4 0.427852 0.0428048 0.261171
1428 4 0.461958 0.0182352 0.313062
258 4 0.449887 0.0325871 0.316038
2662 2 0.496544 0.0358427 0.295235
393 4 0.053805 0.16594 0.245863
397 2 0.0700059 0.10685 0.329818
399 4 0.0863891 0.0894628 0.32244
721 2 0.250703 0.12305 0.300326
722 4 0.252737 0.128996 0.324527
723 4 0.248669 0.117104 0.276125
24 3 0.31567 0.0785923 0.272918
692 4 0.258288 0.116083 0.258826
632 4 0.373918 0.108678 0.261861
350 4 0.378359 0.0896247 0.263454
631 2 0.357635 0.127501 0.259465
707 4 0.348866 0.159417 0.26898
633 4 0.341351 0.146323 0.257069
761 4 0.425726 0.153266 0.256329
391 2 0.067197 0.175719 0.264577
392 4 0.0805891 0.185498 0.283291
546 4 0.127513 0.184857 0.270597
544 2 0.149799 0.196192 0.270721
545 4 0.172086 0.207527 0.270845
402 4 0.174229 0.226933 0.269257
378 4 0.250501 0.256669 0.321271
400 2 0.180424 0.249477 0.27812
29 3 0.336118 0.172791 0.262647
706 2 0.354792 0.171796 0.289881
708 4 0.360718 0.184175 0.310781
717 4 0.434642 0.179809 0.326335
442 2 0.0135112 0.28074 0.265235
444 4 0.0134958 0.302528 0.277502
611 4 0.252453 0.302087 0.256611
401 4 0.186619 0.272022 0.286984
676 2 0.177828 0.297891 0.309418
345 4 0.19858 0.285327 0.280632
677 4 0.183708 0.291875 0.285872
343 2 0.222485 0.285456 0.273302
735 4 0.192599 0.299096 0.268834
733 2 0.174172 0.31206 0.25799
344 4 0.24639 0.285584 0.265972
376 2 0.274188 0.261273 0.31472
496 2 0.318425 0.281212 0.279213
497 4 0.315355 0.265524 0.298439
377 4 0.297874 0.265877 0.308169
498 4 0.321496 0.296899 0.259987
541 2 0.393068 0.305715 0.328245
542 4 0.394978 0.281102 0.324281
365 4 0.0334885 0.376683 0.290429
601 2 0.0520985 0.379591 0.324902
603 4 0.0457337 0.368542 0.303394
364 2 0.011725 0.36449 0.292118
750 4 0.0871535 0.34513 0.251105
299 4 0.15075 0.344126 0.248514
298 2 0.126976 0.349852 0.253725
300 4 0.103201 0.355578 0.258936
433 2 0.310216 0.387623 0.29234
435 4 0.29329 0.402716 0.281811
543 4 0.391158 0.330329 0.332209
434 4 0.327143 0.37253 0.30287
614 4 0.342886 0.367768 0.313011
615 4 0.386358 0.343767 0.31892
613 2 0.364622 0.355767 0.315965
1756 2 0.102703 0.467306 0.251014
1758 4 0.109079 0.490549 0.24436
412 2 0.225339 0.451091 0.275577
1436 4 0.227205 0.441014 0.308969
413 4 0.21307 0.439774 0.294193
414 4 0.237608 0.462408 0.25696
3 3 0.298047 0.454983 0.322696
1803 4 0.365177 0.479249 0.285753
1801 2 0.354846 0.501566 0.290269
119 3 0.502031 0.459133 0.318287
712 2 0.458941 0.463967 0.331799
713 4 0.435301 0.471361 0.328386
714 4 0.482582 0.456573 0.335213
1781 4 0.0961325 0.0163186 0.411585
730 2 0.118934 0.0672649 0.339193
1780 2 0.117094 0.00799427 0.400792
731 4 0.139399 0.0599985 0.351585
606 4 0.155207 0.071493 0.353354
604 2 0.178219 0.0748614 0.362534
605 4 0.201232 0.0782298 0.371713
439 2 0.306431 0.999495 0.404043
1701 4 0.326597 0.0372972 0.399111
441 4 0.315251 0.0226899 0.40711
1699 2 0.331251 0.0389527 0.3746
1700 4 0.335905 0.0406082 0.350089
699 4 0.352941 0.0392818 0.339629
697 2 0.377359 0.0446554 0.339453
698 4 0.401778 0.050029 0.339276
257 4 0.416444 0.0434455 0.351596
256 2 0.433166 0.0380163 0.333817
2584 2 0.0139236 0.112236 0.34426
398 4 0.0536227 0.124238 0.337197
2586 4 0.0338434 0.127265 0.342672
458 4 0.0348602 0.135884 0.361726
457 2 0.0450873 0.147008 0.381647
459 4 0.0553144 0.158133 0.401567
600 4 0.142913 0.119353 0.375053
598 2 0.138837 0.143983 0.373662
599 4 0.134761 0.168613 0.372271
248 4 0.206387 0.0879961 0.355019
249 4 0.241419 0.117942 0.33561
247 2 0.223903 0.102969 0.345314
683 4 0.233693 0.0918866 0.398677
403 2 0.246254 0.153444 0.350008
404 4 0.252962 0.129965 0.344633
682 2 0.255951 0.101525 0.392606
319 2 0.307835 0.144469 0.385219
684 4 0.278209 0.111164 0.386535
321 4 0.320576 0.165879 0.38733
320 4 0.295095 0.123058 0.383107
260 4 0.0481747 0.169796 0.415661
389 4 0.108461 0.225914 0.353504
686 4 0.13322 0.184346 0.383138
685 2 0.115376 0.194902 0.397114
275 4 0.147457 0.175458 0.356906
388 2 0.111877 0.250119 0.358761
274 2 0.160059 0.194338 0.346422
472 2 0.214825 0.197927 0.340535
474 4 0.190566 0.20398 0.340659
276 4 0.172662 0.213217 0.335937
405 4 0.239546 0.176924 0.355384
473 4 0.239085 0.191874 0.340411
466 2 0.39572 0.205066 0.402944
467 4 0.400134 0.201194 0.37864
269 4 0.455465 0.246534 0.338468
715 2 0.426112 0.188597 0.348133
716 4 0.417581 0.197385 0.369932
270 4 0.482477 0.218647 0.369986
452 4 0.468882 0.207811 0.381874
268 2 0.468971 0.23259 0.354227
451 2 0.462135 0.206393 0.405908
419 4 0.437302 0.237694 0.336435
618 4 0.0662725 0.331459 0.382599
616 2 0.0851478 0.320342 0.370544
390 4 0.115293 0.274324 0.364017
617 4 0.104023 0.309225 0.358489
374 4 0.115146 0.2936 0.364618
373 2 0.134084 0.3012 0.35017
375 4 0.153022 0.3088 0.335721
678 4 0.171947 0.303907 0.332963
509 4 0.201507 0.335413 0.366778
508 2 0.224772 0.333147 0.357902
510 4 0.248037 0.330881 0.349027
420 4 0.414295 0.280392 0.324261
418 2 0.425799 0.259043 0.330348
347 4 0.0485315 0.340622 0.377614
549 4 0.0691146 0.390661 0.362914
602 4 0.0584632 0.39064 0.34641
346 2 0.0422709 0.360595 0.391292
348 4 0.0360104 0.380567 0.40497
547 2 0.0729739 0.415207 0.365711
668 4 0.322284 0.391934 0.39953
336 4 0.338606 0.385444 0.390942
334 2 0.355217 0.36939 0.400509
335 4 0.371828 0.353337 0.410077
240 4 0.389752 0.358912 0.417521
238 2 0.40876 0.375155 0.41774
587 4 0.422936 0.410026 0.421827
752 4 0.469655 0.404899 0.387493
561 4 0.481431 0.407008 0.40355
239 4 0.427769 0.391397 0.417959
548 4 0.0768332 0.439752 0.368509
407 4 0.0945668 0.443038 0.377117
406 2 0.103448 0.458068 0.395017
499 2 0.0835334 0.498558 0.347031
501 4 0.0931829 0.483522 0.364524
408 4 0.112329 0.473097 0.412917
1556 4 0.235485 0.49019 0.422642
1544 4 0.222549 0.479713 0.413231
1435 2 0.245363 0.437906 0.325875
1555 2 0.258895 0.49415 0.414801
5 3 0.279535 0.481346 0.342188
1557 4 0.282305 0.498109 0.406959
1 1 0.290922 0.461685 0.343737
438 4 0.317119 0.45548 0.336874
1437 4 0.263521 0.434798 0.342781
4 3 0.277314 0.445368 0.353062
2 3 0.309319 0.464627 0.357229
636 4 0.29514 0.482217 0.40916
437 4 0.366716 0.450239 0.333211
436 2 0.341918 0.452859 0.335042
593 4 0.405116 0.457573 0.385858
592 2 0.416756 0.466319 0.36553
588 4 0.419024 0.443681 0.385047
1742 4 0.436717 0.489445 0.333466
586 2 0.42098 0.426853 0.403437
753 4 0.495609 0.432736 0.355055
117 3 0.49157 0.454116 0.354037
751 2 0.482632 0.418817 0.371274
594 4 0.428395 0.475065 0.345203
367 2 0.0735963 0.0309386 0.430974
369 4 0.0505408 0.0406145 0.431007
719 4 0.0427789 0.0235609 0.437156
718 2 0.0211607 0.0174064 0.448108
368 4 0.0966518 0.0212627 0.430941
962 4 0.307819 0.0297487 0.422969
961 2 0.293668 0.0450946 0.436733
963 4 0.279518 0.0604405 0.450497
432 4 0.297888 0.0646208 0.460524
425 4 0.327026 0.0326144 0.417656
424 2 0.349097 0.0263208 0.427579
426 4 0.371167 0.0200272 0.437502
726 4 0.403853 0.0652414 0.417739
1218 4 0.412507 0.061737 0.47216
1216 2 0.39351 0.0639606 0.488265
430 2 0.309304 0.0817056 0.47477
724 2 0.397751 0.0894853 0.417323
725 4 0.391648 0.113729 0.416907
642 4 0.491731 0.120625 0.446353
640 2 0.473632 0.135528 0.455042
641 4 0.455533 0.150432 0.463732
259 2 0.0647189 0.188336 0.418446
696 4 0.0869696 0.247539 0.475907
687 4 0.0975317 0.205457 0.41109
261 4 0.081263 0.206875 0.42123
1035 4 0.094105 0.221827 0.419894
1033 2 0.0976895 0.233753 0.441576
1034 4 0.101274 0.245679 0.463257
651 4 0.314866 0.232719 0.51734
489 4 0.343 0.247673 0.453929
468 4 0.391306 0.208938 0.427249
411 4 0.360388 0.239106 0.460135
516 4 0.403831 0.194618 0.454598
409 2 0.373748 0.219538 0.452151
410 4 0.387109 0.199969 0.444167
575 4 0.401351 0.186616 0.472305
266 4 0.366996 0.242355 0.479004
574 2 0.400024 0.174904 0.494356
514 2 0.42792 0.192514 0.448234
515 4 0.452009 0.19041 0.441871
453 4 0.455388 0.204974 0.429943
326 4 0.0556274 0.343917 0.481714
1258 2 0.112319 0.281856 0.471543
1259 4 0.129438 0.299956 0.473661
9 3 0.140291 0.316872 0.472762
1260 4 0.0951996 0.263755 0.469424
10 3 0.146726 0.339489 0.443356
488 4 0.3074 0.25524 0.419636
487 2 0.3252 0.251457 0.436782
584 4 0.495485 0.255901 0.494061
325 2 0.0803948 0.340924 0.480042
6 1 0.139473 0.338698 0.464929
7 3 0.117726 0.346133 0.465889
327 4 0.105162 0.33793 0.478371
709 2 0.156844 0.404566 0.475265
8 3 0.152674 0.352385 0.478226
711 4 0.137657 0.414986 0.463081
503 4 0.213199 0.356793 0.463602
502 2 0.203951 0.37455 0.478581
710 4 0.176031 0.394145 0.487449
504 4 0.194703 0.392307 0.49356
667 2 0.319046 0.407602 0.418745
882 4 0.384312 0.380218 0.469457
3309 4 0.494774 0.403902 0.458722
559 2 0.495722 0.404982 0.423966
3307 2 0.499189 0.3949 0.481627
1381 2 0.00868469 0.489446 0.468682
1383 4 0.00479753 0.46662 0.459245
680 4 0.996862 0.45383 0.446597
384 4 0.127205 0.431207 0.465353
569 4 0.126973 0.476827 0.425499
382 2 0.120697 0.446536 0.446703
568 2 0.146272 0.492272 0.429262
383 4 0.11419 0.461866 0.428052
1543 2 0.202832 0.490538 0.42415
1545 4 0.183114 0.501363 0.435068
570 4 0.165572 0.507716 0.433025
772 2 0.325048 0.447936 0.471762
634 2 0.306114 0.462684 0.42026
774 4 0.32004 0.437765 0.449477
773 4 0.330056 0.458107 0.494048
669 4 0.315809 0.42327 0.43796
635 4 0.317089 0.443151 0.431359
661 2 0.479919 0.483073 0.460497
663 4 0.47997 0.479509 0.435748
662 4 0.479868 0.486636 0.485245
2428 2 0.157429 0.994576 0.526903
342 4 0.203477 0.073018 0.524126
340 2 0.190308 0.0528051 0.517553
1152 4 0.206626 0.0893337 0.535628
341 4 0.177139 0.0325922 0.51098
2430 4 0.1687 0.0131237 0.514488
1150 2 0.224533 0.0891767 0.553078
1151 4 0.242439 0.0890198 0.570528
1032 4 0.260294 0.0828531 0.566953
1217 4 0.374514 0.0661842 0.50437
842 4 0.365385 0.0711792 0.521226
3007 2 0.483786 0.0422918 0.579035
3009 4 0.500616 0.0510796 0.562766
470 4 0.023114 0.169555 0.513239
1058 4 0.097193 0.126348 0.52281
1057 2 0.10309 0.117921 0.5456
1059 4 0.108987 0.109494 0.56839
1155 4 0.114967 0.123315 0.580413
939 4 0.0979715 0.11576 0.584513
1180 2 0.212635 0.143391 0.546565
1181 4 0.211123 0.126252 0.564708
1182 4 0.214146 0.160529 0.528421
900 4 0.231076 0.169402 0.524621
431 4 0.32072 0.0987904 0.489017
843 4 0.335155 0.106741 0.503275
841 2 0.35027 0.08896 0.51225
576 4 0.398696 0.163192 0.516407
1199 4 0.0288897 0.222179 0.574492
1198 2 0.00567823 0.222516 0.565203
469 2 0.00353509 0.181798 0.522827
1244 4 0.0550392 0.243663 0.580969
695 4 0.089884 0.226018 0.520952
694 2 0.0884268 0.236778 0.498429
898 2 0.250003 0.184692 0.530379
650 4 0.272565 0.219081 0.54026
899 4 0.26893 0.199982 0.536137
649 2 0.293716 0.2259 0.5288
982 2 0.030584 0.324143 0.584705
1243 2 0.0536046 0.268221 0.585447
983 4 0.0519689 0.311288 0.583084
1245 4 0.0521699 0.292778 0.589926
857 4 0.208269 0.256082 0.54113
947 4 0.211598 0.254564 0.560441
798 4 0.22653 0.258159 0.573743
856 2 0.223834 0.261792 0.522414
946 2 0.189009 0.262417 0.567738
948 4 0.16642 0.27027 0.575035
796 2 0.249601 0.265261 0.580262
858 4 0.2394 0.267502 0.503698
797 4 0.272671 0.272363 0.586781
872 4 0.349555 0.275498 0.583521
871 2 0.369642 0.290359 0.584426
873 4 0.389729 0.305221 0.58533
267 4 0.353828 0.256226 0.525209
265 2 0.360412 0.249291 0.502107
906 4 0.499406 0.321442 0.594919
1010 4 0.499345 0.32729 0.523537
2457 4 0.503534 0.307181 0.524163
803 4 0.266711 0.369576 0.566048
804 4 0.285759 0.390084 0.524608
802 2 0.276235 0.37983 0.545328
930 4 0.3316 0.371219 0.570078
1239 4 0.323876 0.374879 0.588593
928 2 0.339374 0.382084 0.548943
929 4 0.347148 0.392948 0.527807
881 4 0.355578 0.386333 0.509925
880 2 0.369945 0.383275 0.489691
1011 4 0.494796 0.377 0.520535
1009 2 0.49707 0.352145 0.522036
927 4 0.421916 0.368109 0.579862
925 2 0.434124 0.384591 0.565562
3308 4 0.503603 0.385898 0.504533
926 4 0.446332 0.401073 0.551262
1002 4 0.44647 0.414603 0.566244
539 4 0.0882764 0.420298 0.572281
538 2 0.0946678 0.444395 0.570356
540 4 0.101059 0.468491 0.568431
1160 4 0.109328 0.485379 0.571261
1159 2 0.13339 0.484904 0.578039
2244 4 0.0894655 0.483434 0.567381
2154 4 0.215643 0.479524 0.588502
2152 2 0.236387 0.493483 0.588404
1952 4 0.359007 0.498724 0.545736
890 4 0.347834 0.491276 0.562244
889 2 0.346178 0.487225 0.586862
1953 4 0.407966 0.507919 0.541366
1951 2 0.383486 0.503322 0.543551
1909 2 0.427634 0.487292 0.570693
1000 2 0.449719 0.437566 0.575589
1081 2 0.0672873 0.073507 0.64979
1083 4 0.0676924 0.0756301 0.62488
2114 4 0.996927 0.00784818 0.621763
823 2 0.159366 0.0155543 0.656606
824 4 0.18047 0.00838016 0.645278
1031 4 0.267525 0.0388458 0.589576
1030 2 0.263909 0.0608494 0.578265
951 4 0.27775 0.0293997 0.60292
949 2 0.296821 0.0146037 0.596395
3008 4 0.466956 0.0335039 0.595305
809 4 0.478892 0.0386406 0.610784
808 2 0.468898 0.0490598 0.631199
810 4 0.458904 0.059479 0.651613
45 3 0.453987 0.0821404 0.651823
1126 2 0.0272491 0.0887512 0.615126
1127 4 0.0495403 0.0796165 0.621822
938 4 0.0755129 0.0917316 0.622183
1128 4 0.00495782 0.0978859 0.60843
1271 4 0.100944 0.133046 0.59203
937 2 0.0867422 0.103746 0.603348
1153 2 0.139157 0.12276 0.586714
1270 2 0.0931269 0.156747 0.590514
1154 4 0.163348 0.122204 0.593014
1221 4 0.167055 0.132428 0.610321
1219 2 0.185298 0.146115 0.620572
1220 4 0.20354 0.159801 0.630822
1194 4 0.333642 0.152522 0.658122
1192 2 0.358169 0.156796 0.655811
1193 4 0.382696 0.16107 0.6535
3426 4 0.499103 0.127935 0.661921
3424 2 0.481187 0.110997 0.666082
3425 4 0.463271 0.0940599 0.670244
878 4 0.0416873 0.230215 0.588199
877 2 0.0539108 0.208473 0.589949
879 4 0.0661343 0.186731 0.591698
1272 4 0.0853101 0.180449 0.588998
1210 2 0.243192 0.179583 0.638061
1212 4 0.219988 0.17086 0.634796
1211 4 0.266396 0.188307 0.641326
887 4 0.321247 0.161207 0.669224
886 2 0.301584 0.168774 0.65576
888 4 0.281921 0.17634 0.642296
1137 4 0.156406 0.326643 0.610986
1135 2 0.163025 0.305372 0.599633
1136 4 0.169645 0.284101 0.58828
822 4 0.18212 0.285133 0.656316
792 4 0.280307 0.326916 0.604297
791 4 0.290654 0.279169 0.593625
790 2 0.285481 0.303042 0.598961
1238 4 0.298078 0.333146 0.598267
806 4 0.286219 0.319932 0.645989
805 2 0.267087 0.325217 0.661196
813 4 0.380925 0.322913 0.588975
953 4 0.49086 0.304569 0.604994
952 2 0.482747 0.28092 0.605216
954 4 0.474634 0.25727 0.605439
1041 4 0.0556431 0.391569 0.643584
3264 4 0.0361814 0.390582 0.642293
3262 2 0.0234958 0.370918 0.651102
3240 4 0.0195839 0.401939 0.644342
1039 2 0.0739769 0.379241 0.631875
1040 4 0.0923107 0.366914 0.620167
993 4 0.102386 0.348736 0.619477
991 2 0.12715 0.346793 0.61662
992 4 0.151913 0.34485 0.613763
897 4 0.167582 0.337941 0.623004
1189 2 0.244126 0.36275 0.588845
896 4 0.206105 0.366232 0.608297
895 2 0.186844 0.352086 0.61565
1172 4 0.2284 0.38947 0.597181
1191 4 0.222233 0.370235 0.598324
1065 4 0.198387 0.350966 0.662108
1171 2 0.219111 0.411899 0.603168
1190 4 0.266019 0.355265 0.579367
1237 2 0.310977 0.354012 0.59343
811 2 0.399469 0.339456 0.591738
1206 4 0.413491 0.383764 0.592142
1204 2 0.407656 0.390602 0.615474
1205 4 0.401822 0.397439 0.638806
812 4 0.418013 0.355998 0.594501
1161 4 0.157453 0.484429 0.584818
1188 4 0.169161 0.47924 0.600141
1186 2 0.187222 0.46227 0.596823
1173 4 0.209823 0.434329 0.609154
1187 4 0.205282 0.4453 0.593504
891 4 0.344523 0.483175 0.611479
1230 4 0.357481 0.44403 0.6687
1911 4 0.447554 0.479278 0.583505
1001 4 0.452967 0.460529 0.584934
1269 4 0.463436 0.475991 0.592978
1267 2 0.469399 0.493905 0.609371
1082 4 0.0668821 0.0713839 0.6747
943 2 0.0569381 0.0198287 0.686736
944 4 0.0696937 0.0413328 0.686953
1076 4 0.0613322 0.0589412 0.689624
1075 2 0.0619159 0.0785237 0.705159
825 4 0.138262 0.0227283 0.667935
1283 4 0.141462 0.0414504 0.673709
1282 2 0.140418 0.0622228 0.687587
1148 4 0.25576 0.0785038 0.697244
1147 2 0.259788 0.0539434 0.694848
1149 4 0.263816 0.0293829 0.692452
1092 4 0.315737 0.0148648 0.693387
1004 4 0.358772 0.0811035 0.74671
42 3 0.455014 0.0506642 0.67185
41 1 0.447609 0.0724388 0.671415
43 3 0.424469 0.0725284 0.67313
1163 4 0.464795 0.0614198 0.689029
1162 2 0.48281 0.0539024 0.704653
44 3 0.456923 0.0838883 0.689319
864 4 0.05129 0.106021 0.734632
1077 4 0.0624997 0.0981061 0.720695
1107 4 0.0697572 0.110432 0.7335
851 4 0.0777966 0.110764 0.716208
862 2 0.0299151 0.102164 0.747018
850 2 0.0914771 0.123975 0.699976
852 4 0.105158 0.137187 0.683744
1284 4 0.139374 0.0829952 0.701465
1105 2 0.0848043 0.100317 0.750718
909 4 0.142811 0.0965015 0.717019
907 2 0.164186 0.109469 0.716657
1226 4 0.237124 0.0833104 0.69659
908 4 0.185561 0.122437 0.716295
1227 4 0.195082 0.105722 0.711785
1225 2 0.216103 0.0945164 0.704188
829 2 0.323154 0.151329 0.7058
831 4 0.336246 0.142378 0.72513
1005 4 0.337471 0.12384 0.73186
1003 2 0.348122 0.102472 0.739285
1177 2 0.00116823 0.233622 0.701773
1073 4 0.0780006 0.206485 0.742871
1072 2 0.0942609 0.225269 0.745691
1074 4 0.110521 0.244053 0.74851
830 4 0.310062 0.160281 0.68647
978 4 0.275645 0.18698 0.739482
1142 4 0.45636 0.169787 0.734882
1144 2 0.492317 0.176276 0.734213
1025 4 0.432823 0.17634 0.673024
1262 4 0.458172 0.197492 0.720543
1024 2 0.443532 0.17793 0.695562
1026 4 0.454241 0.179521 0.7181
1261 2 0.456046 0.221531 0.727082
1145 4 0.469269 0.181056 0.725779
1263 4 0.453921 0.245571 0.73362
1179 4 0.0156713 0.245252 0.685053
1209 4 0.143898 0.261395 0.707101
1207 2 0.136976 0.255384 0.730363
821 4 0.155067 0.27576 0.697316
820 2 0.168593 0.280446 0.676816
1064 4 0.192273 0.301408 0.664823
807 4 0.247956 0.330502 0.676402
1019 4 0.373647 0.323776 0.722926
3123 4 0.484903 0.267481 0.671972
3263 4 0.0108103 0.351255 0.659912
1280 4 0.0523314 0.368213 0.748661
1279 2 0.054884 0.388194 0.733848
1281 4 0.0574365 0.408174 0.719034
894 4 0.035665 0.359207 0.743446
816 4 0.0625071 0.359129 0.763291
1063 2 0.19533 0.326187 0.663466
1028 4 0.210047 0.375242 0.706677
1066 2 0.196005 0.353532 0.733846
1068 4 0.209062 0.356759 0.712768
1027 2 0.224499 0.395624 0.70573
1018 2 0.384001 0.34154 0.708699
1020 4 0.394355 0.359304 0.694471
1983 4 0.0558013 0.424823 0.72945
1981 2 0.0548451 0.448577 0.737196
1982 4 0.0538889 0.472331 0.744942
1029 4 0.23895 0.416007 0.704783
1175 4 0.214796 0.46105 0.731527
1174 2 0.199056 0.479631 0.725856
1176 4 0.183315 0.498212 0.720185
1138 2 0.261177 0.448123 0.687506
1140 4 0.25313 0.43064 0.703467
1139 4 0.269223 0.465606 0.671544
1987 2 0.297972 0.466563 0.727352
1229 4 0.320618 0.467019 0.693465
1989 4 0.307387 0.458056 0.705807
2028 4 0.281444 0.481657 0.674906
1228 2 0.339049 0.455524 0.681082
2991 4 0.00657805 0.0379817 0.793876
2989 2 0.00739698 0.0603759 0.782786
2049 4 0.113185 0.0114571 0.788514
1202 4 0.108165 0.0307169 0.78723
2047 2 0.132982 0.00510489 0.774624
1201 2 0.113847 0.054956 0.789544
1203 4 0.119529 0.0791952 0.791857
1106 4 0.0998515 0.0902019 0.767935
1257 4 0.222228 0.0708841 0.772807
817 2 0.328025 0.0430623 0.821159
819 4 0.315624 0.0598329 0.834949
1085 4 0.305034 0.0743762 0.827033
818 4 0.340425 0.0262918 0.807369
974 4 0.339957 0.0063401 0.804499
1050 4 0.336046 0.992382 0.791722
1113 4 0.432228 0.0536145 0.762884
1111 2 0.456391 0.0596637 0.765053
845 4 0.498353 0.0655816 0.77632
1112 4 0.480555 0.0657128 0.767222
2322 4 0.507473 0.0469266 0.778956
2990 4 0.00821592 0.0827702 0.771695
863 4 0.00854015 0.098308 0.759404
1125 4 0.022234 0.136588 0.810506
1123 2 0.0454499 0.133706 0.819332
1124 4 0.0686658 0.130825 0.828158
832 2 0.000529324 0.11621 0.794162
834 4 0.00161921 0.133224 0.812451
911 4 0.114917 0.0993295 0.818352
34 3 0.117325 0.0973783 0.774848
31 1 0.125239 0.104821 0.795351
35 3 0.10965 0.118072 0.805353
32 3 0.129429 0.086607 0.808762
33 3 0.144975 0.116661 0.7924
1255 2 0.232282 0.0798462 0.793873
1256 4 0.242336 0.0888083 0.814939
840 4 0.240727 0.106234 0.824018
1084 2 0.293785 0.0852554 0.807532
1086 4 0.282537 0.0961346 0.788031
1023 4 0.404864 0.156559 0.825748
844 2 0.50015 0.0881955 0.786835
1208 4 0.130053 0.249374 0.753626
1130 4 0.138761 0.244842 0.770553
1129 2 0.161121 0.240147 0.78071
1277 4 0.190495 0.254209 0.785157
1131 4 0.183481 0.235453 0.790867
977 4 0.296086 0.217323 0.773573
918 4 0.283476 0.228807 0.781699
976 2 0.285866 0.202152 0.756527
1298 4 0.293728 0.214749 0.792128
1297 2 0.310078 0.204866 0.808259
1299 4 0.326427 0.194984 0.82439