ITEM: TIMESTEP
960000
ITEM: NUMBER OF ATOMS
4590
ITEM: BOX BOUNDS pp pp pp
-9.9985700000000008e+00 9.9985700000000008e+00
-9.9985700000000008e+00 9.9985700000000008e+00
-9.9985700000000008e+00 9.9985700000000008e+00
ITEM: ATOMS id type xs ys zs
1668 4 0.054679 0.0601504 0.0598724
1666 2 0.0713379 0.0664955 0.0774052
1475 4 0.291526 0.0302976 0.0724771
492 4 0.275442 0.0346332 0.079303
1474 2 0.29801 0.00644898 0.0686851
297 4 0.328908 0.069224 0.0567996
1607 4 0.381193 0.018968 0.00232974
747 4 0.449881 0.0586693 0.0130816
2974 2 0.471007 0.0219162 0.025563
2976 4 0.482061 0.000452989 0.032069
2975 4 0.459954 0.0433794 0.019057
986 4 0.442297 0.0409175 0.0113809
745 2 0.440477 0.0818358 0.0133289
985 2 0.42011 0.0332379 0.00278226
566 4 0.153101 0.146212 0.0612964
360 4 0.31338 0.166099 0.0665443
358 2 0.336936 0.159775 0.0610416
295 2 0.335799 0.0837616 0.037659
296 4 0.342689 0.0982992 0.0185184
557 4 0.362805 0.101649 0.0209853
556 2 0.387509 0.0990476 0.0181362
769 2 0.389034 0.150379 0.0440955
359 4 0.360493 0.153451 0.0555388
558 4 0.412213 0.0964467 0.0152872
771 4 0.405873 0.13254 0.0392585
746 4 0.431073 0.105002 0.0135761
565 2 0.158045 0.16801 0.0500899
554 4 0.0992098 0.242993 0.0166588
567 4 0.162989 0.189808 0.0388835
482 4 0.255536 0.250842 0.057354
770 4 0.372196 0.168219 0.0489326
664 2 0.379955 0.208179 0.035552
665 4 0.375845 0.186959 0.0481209
666 4 0.384066 0.2294 0.0229831
555 4 0.0716997 0.280616 0.0347812
656 4 0.999463 0.303529 0.0694351
553 2 0.0854548 0.261804 0.02572
287 4 0.144913 0.31384 0.0540318
292 2 0.153528 0.276947 0.0203661
293 4 0.164376 0.291058 0.0379273
507 4 0.156583 0.295402 0.0562054
294 4 0.142681 0.262837 0.00280497
505 2 0.178335 0.290445 0.0674949
506 4 0.200087 0.285488 0.0787843
481 2 0.235967 0.262879 0.0672208
483 4 0.216398 0.274916 0.0770876
573 4 0.274208 0.252262 0.049199
572 4 0.273731 0.273435 0.00389818
571 2 0.27397 0.262849 0.0265486
323 4 0.394047 0.267538 0.0758914
322 2 0.405177 0.275851 0.055102
1069 2 0.396662 0.302473 0.00424232
324 4 0.416307 0.284164 0.0343125
1070 4 0.417296 0.29674 0.0171466
671 4 0.454799 0.320807 0.0646389
280 2 0.451014 0.307892 0.0306322
281 4 0.46618 0.316413 0.0485922
282 4 0.435848 0.299371 0.0126721
670 2 0.43739 0.332097 0.0785909
330 4 0.000311369 0.396431 0.00350605
286 2 0.148419 0.335859 0.0427166
288 4 0.151926 0.357878 0.0314015
552 4 0.108251 0.378188 0.0812959
250 2 0.303803 0.390913 0.0414005
251 4 0.296865 0.380487 0.0197597
252 4 0.310742 0.401339 0.0630414
741 4 0.352051 0.331122 0.0508669
739 2 0.351299 0.330909 0.0758582
495 4 0.41154 0.385559 0.0810181
1046 4 0.497876 0.367022 0.99955
245 4 0.229302 0.455135 0.0709193
626 4 0.212254 0.445399 0.0637377
244 2 0.236296 0.46087 0.0476091
246 4 0.24329 0.466606 0.0242989
625 2 0.194437 0.44151 0.0808429
609 4 0.322358 0.417132 0.0698302
272 4 0.263011 0.465137 0.0254998
271 2 0.267949 0.473369 0.00241244
563 4 0.454647 0.460179 0.0466566
228 4 0.466283 0.472635 0.0562902
226 2 0.466443 0.457116 0.0758946
562 2 0.448536 0.476969 0.0291651
564 4 0.442425 0.493758 0.0116736
19 3 0.0570732 0.0715857 0.145468
18 3 0.0575961 0.0335913 0.14622
16 1 0.0565246 0.0528403 0.159132
1667 4 0.0879969 0.0728406 0.0949379
1539 4 0.167311 0.00849995 0.150842
490 2 0.274423 0.053592 0.0955727
652 2 0.287227 0.0210988 0.167545
491 4 0.273403 0.0725507 0.111842
653 4 0.308512 0.00835845 0.164412
310 2 0.395287 0.0818336 0.157935
2722 2 0.471621 0.0460254 0.147025
2723 4 0.448732 0.0560056 0.145736
2724 4 0.494511 0.0360452 0.148313
2623 2 0.0037887 0.163691 0.107784
476 4 0.088776 0.134846 0.146405
2624 4 0.000713478 0.139136 0.10421
701 4 0.0952524 0.0892827 0.105259
702 4 0.088268 0.114419 0.147921
700 2 0.0917602 0.101851 0.12659
449 4 0.206723 0.089391 0.162535
236 4 0.22103 0.101294 0.169053
237 4 0.218745 0.150621 0.16116
235 2 0.219888 0.125958 0.165106
582 4 0.282907 0.153909 0.146353
580 2 0.298417 0.136801 0.155941
628 2 0.401477 0.138114 0.12651
630 4 0.393514 0.161057 0.120561
312 4 0.407167 0.10008 0.145643
629 4 0.409441 0.115171 0.132459
2625 4 0.00686391 0.188246 0.111359
738 4 0.167456 0.215537 0.119922
737 4 0.199052 0.176776 0.120035
736 2 0.183254 0.196156 0.119979
461 4 0.304341 0.214416 0.10557
460 2 0.327164 0.210759 0.0960361
354 4 0.288493 0.225372 0.10145
278 4 0.261997 0.242623 0.156091
352 2 0.28176 0.234938 0.123548
353 4 0.275027 0.244505 0.145646
284 4 0.28091 0.235985 0.161138
462 4 0.349988 0.207102 0.0865022
254 4 0.391588 0.178754 0.129434
255 4 0.368563 0.202266 0.0917808
253 2 0.380076 0.19051 0.110607
765 4 0.369915 0.238281 0.15009
624 4 0.375447 0.240381 0.131543
622 2 0.376785 0.248199 0.10783
646 2 0.0630248 0.32359 0.164828
338 4 0.0771992 0.251602 0.16241
339 4 0.09618 0.267554 0.118982
337 2 0.0866896 0.259578 0.140696
536 4 0.190339 0.279066 0.129303
535 2 0.192316 0.303935 0.127633
537 4 0.194292 0.328805 0.125963
754 2 0.268397 0.285727 0.158165
755 4 0.270093 0.261987 0.150502
756 4 0.2667 0.309467 0.165827
623 4 0.378123 0.256017 0.0841183
740 4 0.350546 0.330695 0.10085
528 4 0.449702 0.265161 0.113707
518 4 0.469473 0.264447 0.112637
526 2 0.442055 0.282946 0.129531
527 4 0.434407 0.300731 0.145356
517 2 0.49104 0.255298 0.103899
551 4 0.0600127 0.370228 0.0918039
550 2 0.0841319 0.374208 0.0865499
648 4 0.0547248 0.344791 0.154494
454 2 0.145818 0.376683 0.0890828
455 4 0.124368 0.389232 0.0863261
456 4 0.167267 0.364133 0.0918396
417 4 0.170053 0.413866 0.137209
415 2 0.191048 0.40691 0.14887
416 4 0.212044 0.399953 0.160531
302 4 0.31389 0.355954 0.150651
387 4 0.324413 0.340374 0.146217
385 2 0.340546 0.345032 0.127691
15 3 0.369364 0.360204 0.0977802
386 4 0.35668 0.34969 0.109165
11 1 0.390594 0.360241 0.106022
13 3 0.390095 0.361639 0.129178
14 3 0.402458 0.378154 0.0972585
12 3 0.401103 0.340692 0.0999772
493 2 0.412217 0.407959 0.0921073
672 4 0.419982 0.343387 0.092543
1791 4 0.0501165 0.486658 0.138808
315 4 0.0110822 0.434452 0.150759
1466 4 0.0417584 0.496961 0.154535
627 4 0.176619 0.437621 0.0979482
607 2 0.328746 0.430748 0.0898047
767 4 0.292805 0.481499 0.162677
638 4 0.277321 0.49219 0.156775
525 4 0.363648 0.476229 0.0926771
608 4 0.335134 0.444364 0.109779
658 2 0.379911 0.447259 0.111091
659 4 0.354996 0.44675 0.113125
660 4 0.404827 0.447768 0.109058
494 4 0.412894 0.430358 0.103197
523 2 0.349189 0.496412 0.0956322
227 4 0.466602 0.441598 0.0954991
20 3 0.0739762 0.0533698 0.173755
17 3 0.0367672 0.0528015 0.170914
2480 4 0.0365331 0.0406769 0.186512
1422 4 0.031454 0.023174 0.175615
2479 2 0.0131145 0.046998 0.192578
673 2 0.141868 0.0253236 0.250005
674 4 0.162205 0.0215485 0.235957
448 2 0.204422 0.0717937 0.180148
1506 4 0.247432 0.0264845 0.174291
450 4 0.202121 0.0541964 0.197761
693 4 0.23725 0.0754849 0.21734
691 2 0.221547 0.0773049 0.236712
689 4 0.178654 0.0101083 0.23744
1504 2 0.233744 0.0055821 0.175241
654 4 0.265942 0.0338392 0.170677
25 3 0.331126 0.0485737 0.234575
311 4 0.383407 0.0635871 0.170228
758 4 0.37585 0.0561642 0.185589
759 4 0.349732 0.0609758 0.227962
22 3 0.358113 0.0716244 0.246118
757 2 0.362791 0.05857 0.206775
380 4 0.00557791 0.101225 0.19
578 4 0.070727 0.0967748 0.203162
379 2 0.0215247 0.120479 0.190389
381 4 0.0374715 0.139734 0.190778
512 4 0.0313039 0.145657 0.20871
511 2 0.0326318 0.167569 0.220679
475 2 0.09004 0.141037 0.170597
477 4 0.091304 0.147227 0.194789
577 2 0.093058 0.100486 0.21378
579 4 0.115389 0.104198 0.224397
581 4 0.313928 0.119694 0.16553
28 3 0.309248 0.146402 0.250215
521 4 0.488352 0.159098 0.237565
513 4 0.0339597 0.189481 0.232649
363 4 0.0825571 0.238772 0.175857
443 4 0.999393 0.234269 0.248191
394 2 0.00754026 0.246943 0.221662
395 4 0.0241203 0.243828 0.203207
393 4 0.0530382 0.186373 0.239066
279 4 0.219296 0.236296 0.181336
546 4 0.173909 0.175896 0.248464
277 2 0.240647 0.239459 0.168713
283 2 0.301278 0.232622 0.175246
285 4 0.321646 0.229259 0.189353
27 3 0.307818 0.183552 0.24469
763 2 0.354963 0.230336 0.168488
764 4 0.340011 0.222391 0.186887
520 2 0.497289 0.177149 0.222751
749 4 0.07984 0.277757 0.225764
647 4 0.0713248 0.302389 0.175163
748 2 0.0879912 0.29421 0.242736
361 2 0.087456 0.251488 0.196821
371 4 0.155429 0.288942 0.20554
370 2 0.133052 0.280617 0.212965
372 4 0.110675 0.272292 0.220391
362 4 0.092355 0.264203 0.217785
344 4 0.239371 0.313979 0.236448
612 4 0.260863 0.322636 0.180533
610 2 0.259197 0.322743 0.205481
307 2 0.302539 0.303392 0.234356
308 4 0.296545 0.296918 0.210961
611 4 0.25753 0.32285 0.230429
298 2 0.117609 0.342318 0.251054
299 4 0.136772 0.358156 0.253721
291 4 0.232548 0.402361 0.165268
303 4 0.304044 0.350302 0.199353
301 2 0.308967 0.353128 0.175002
729 4 0.317949 0.36132 0.20925
727 2 0.332418 0.365292 0.229252
447 4 0.386424 0.383223 0.244517
644 4 0.404906 0.37561 0.242644
595 2 0.463736 0.397734 0.186941
597 4 0.456196 0.381465 0.204367
643 2 0.42733 0.380605 0.232776
645 4 0.449754 0.385601 0.222908
596 4 0.471275 0.414003 0.169516
262 2 0.014829 0.430224 0.237812
264 4 0.0371389 0.419547 0.24148
289 2 0.247795 0.420876 0.17233
290 4 0.263043 0.439392 0.179392
768 4 0.278765 0.44256 0.190737
766 2 0.285785 0.462029 0.176707
231 4 0.441391 0.470013 0.195675
229 2 0.425487 0.488713 0.200429
234 4 0.0135095 0.0304795 0.311275
232 2 0.0290973 0.0311848 0.291738
233 4 0.0446852 0.0318901 0.272201
1404 4 0.0590403 0.01865 0.269299
1402 2 0.083898 0.0176246 0.271793
2755 2 0.00175779 0.0647585 0.330393
675 4 0.121532 0.0290987 0.264053
1403 4 0.108756 0.0165991 0.274287
692 4 0.205844 0.0791248 0.256084
723 4 0.208931 0.0772968 0.275601
24 3 0.322586 0.0778116 0.256708
21 1 0.338322 0.0614426 0.251932
23 3 0.341912 0.0482042 0.270647
1496 4 0.366834 0.00110371 0.28695
479 4 0.482073 0.0483849 0.29694
478 2 0.463791 0.0654326 0.297499
258 4 0.437185 0.0175136 0.329644
2664 4 0.50093 0.0421839 0.298108
398 4 0.0431596 0.124545 0.314571
397 2 0.0595861 0.11006 0.326634
721 2 0.218373 0.0883839 0.295926
722 4 0.227814 0.099471 0.316251
29 3 0.331918 0.169653 0.269961
26 1 0.310878 0.167134 0.260508
632 4 0.380145 0.101286 0.256451
707 4 0.348574 0.158982 0.277787
633 4 0.350992 0.140143 0.268323
631 2 0.365568 0.120714 0.262387
706 2 0.346426 0.153355 0.302055
350 4 0.397597 0.111248 0.257552
708 4 0.344279 0.147728 0.326322
333 4 0.473774 0.106056 0.254983
331 2 0.478509 0.130607 0.255139
332 4 0.483244 0.155158 0.255296
351 4 0.436733 0.091347 0.281491
349 2 0.417165 0.101297 0.269522
480 4 0.445509 0.0824803 0.298057
444 4 0.00250176 0.210581 0.292122
391 2 0.0618951 0.186774 0.262445
442 2 0.000947354 0.222425 0.270156
392 4 0.0707519 0.187175 0.285824
388 2 0.109632 0.2297 0.321751
390 4 0.121177 0.245023 0.305717
545 4 0.182372 0.217544 0.274819
544 2 0.178141 0.19672 0.261641
400 2 0.172602 0.233814 0.30193
402 4 0.174726 0.210618 0.292839
30 3 0.294855 0.169114 0.276571
717 4 0.383612 0.232933 0.336129
762 4 0.48606 0.173802 0.25185
761 4 0.464868 0.199938 0.288844
760 2 0.475464 0.18687 0.270347
750 4 0.0961424 0.310663 0.259708
300 4 0.0984464 0.32648 0.248387
343 2 0.247804 0.299775 0.255218
401 4 0.170479 0.257009 0.311021
676 2 0.201321 0.329914 0.322853
735 4 0.19288 0.331322 0.285871
345 4 0.256236 0.285571 0.273988
496 2 0.312457 0.318105 0.288184
497 4 0.306753 0.309622 0.311003
377 4 0.305306 0.316203 0.329411
498 4 0.318161 0.326589 0.265366
309 4 0.308534 0.309866 0.257752
541 2 0.387936 0.303788 0.330407
543 4 0.371709 0.320724 0.321744
615 4 0.375762 0.333472 0.306717
364 2 0.00315203 0.374587 0.289318
365 4 0.020961 0.381987 0.273404
601 2 0.0527947 0.393283 0.296204
603 4 0.0410837 0.38375 0.276275
602 4 0.0645057 0.402816 0.316133
734 4 0.154082 0.350796 0.261047
677 4 0.204094 0.339787 0.300049
733 2 0.173481 0.341059 0.273459
433 2 0.297704 0.375812 0.325832
434 4 0.320626 0.368382 0.319158
728 4 0.346886 0.369263 0.249253
613 2 0.355554 0.345325 0.315453
614 4 0.335346 0.357179 0.324188
445 2 0.381723 0.38305 0.269074
446 4 0.377022 0.382877 0.293631
549 4 0.0574223 0.420998 0.316629
2463 4 0.00582295 0.470683 0.30914
2461 2 0.0196931 0.487807 0.320954
1757 4 0.103449 0.479186 0.265626
777 4 0.0988245 0.471042 0.299447
775 2 0.104252 0.482917 0.320771
1756 2 0.10791 0.50365 0.263016
412 2 0.222434 0.498915 0.311783
413 4 0.245806 0.498488 0.320657
414 4 0.199062 0.499342 0.30291
1437 4 0.288078 0.454721 0.318757
1435 2 0.276473 0.476661 0.315734
436 2 0.334944 0.457249 0.323881
437 4 0.346524 0.442458 0.307379
1742 4 0.406202 0.486281 0.331211
316 2 0.0581736 0.0557659 0.341316
317 4 0.0498243 0.0322004 0.341684
318 4 0.0665228 0.0793314 0.340948
428 4 0.052423 0.0137777 0.335204
368 4 0.0930669 0.00801982 0.400487
606 4 0.144076 0.0753556 0.36286
732 4 0.0850348 0.0812673 0.348102
730 2 0.107418 0.0831202 0.359091
1700 4 0.29321 0.0363048 0.36278
1699 2 0.301364 0.0134219 0.356859
683 4 0.289901 0.0690501 0.391816
699 4 0.347995 0.0565956 0.352368
697 2 0.372775 0.0532729 0.352082
698 4 0.397555 0.0499503 0.351797
257 4 0.397113 0.0308783 0.35641
1428 4 0.458118 0.0153707 0.33097
256 2 0.417149 0.024196 0.343027
399 4 0.0760126 0.095575 0.338698
458 4 0.0235103 0.116502 0.411357
2757 4 0.999448 0.0886344 0.337448
2586 4 0.0129108 0.117483 0.394314
2584 2 0.00475512 0.102792 0.375799
604 2 0.163935 0.0889498 0.369642
731 4 0.129801 0.0849731 0.370079
598 2 0.157637 0.157107 0.373295
249 4 0.229323 0.103416 0.336456
404 4 0.242567 0.117063 0.343373
600 4 0.166131 0.141802 0.391149
605 4 0.183794 0.102544 0.376424
248 4 0.201946 0.0959258 0.377628
247 2 0.215635 0.0996709 0.357042
403 2 0.250171 0.140877 0.342902
682 2 0.282812 0.0906513 0.402224
320 4 0.290849 0.123174 0.410517
405 4 0.257775 0.164692 0.342431
684 4 0.275723 0.112252 0.412631
321 4 0.319614 0.16249 0.399224
319 2 0.305231 0.142832 0.40487
452 4 0.463692 0.153962 0.387125
451 2 0.451291 0.152592 0.408793
599 4 0.149142 0.172412 0.355441
389 4 0.0980865 0.214377 0.337785
686 4 0.145506 0.217174 0.40874
275 4 0.167102 0.248785 0.359792
473 4 0.242403 0.177661 0.339087
474 4 0.20283 0.193902 0.364989
276 4 0.200638 0.2133 0.3706
472 2 0.222617 0.185782 0.352038
274 2 0.18387 0.231042 0.365196
715 2 0.39885 0.21489 0.344341
466 2 0.394973 0.187868 0.392481
716 4 0.414087 0.196847 0.352554
467 4 0.4099 0.191146 0.372692
468 4 0.380046 0.184589 0.41227
269 4 0.48927 0.231749 0.370074
268 2 0.47756 0.230143 0.392107
419 4 0.438871 0.246833 0.349642
346 2 0.0553449 0.319764 0.374955
348 4 0.0379877 0.321768 0.392841
347 4 0.072702 0.31776 0.35707
618 4 0.08209 0.304592 0.366986
616 2 0.106069 0.297576 0.366015
617 4 0.130048 0.290559 0.365045
374 4 0.156741 0.310699 0.382269
678 4 0.198548 0.320041 0.345657
375 4 0.202123 0.308114 0.361423
373 2 0.179432 0.309406 0.371846
376 2 0.292152 0.298351 0.340964
378 4 0.278998 0.280499 0.352517
542 4 0.404164 0.286853 0.339069
420 4 0.40612 0.283177 0.359996
418 2 0.422495 0.265005 0.354819
2814 4 0.0041389 0.396351 0.415284
510 4 0.238912 0.390376 0.37224
508 2 0.230245 0.367354 0.367761
509 4 0.221579 0.344332 0.363282
435 4 0.274782 0.383242 0.332506
561 4 0.463116 0.404334 0.392995
751 2 0.449867 0.391171 0.359379
752 4 0.454663 0.388982 0.38382
559 2 0.479115 0.391765 0.40753
753 4 0.445071 0.39336 0.334937
547 2 0.074469 0.425948 0.334238
500 4 0.0938149 0.494183 0.353007
407 4 0.105784 0.426208 0.365488
548 4 0.0915158 0.430899 0.351847
406 2 0.103721 0.434519 0.38898
776 4 0.109679 0.494792 0.342095
408 4 0.101659 0.44283 0.412471
1543 2 0.184698 0.495374 0.405534
1544 4 0.20874 0.493837 0.398838
1556 4 0.220008 0.49561 0.41564
5 3 0.293388 0.501962 0.353895
438 4 0.323364 0.472041 0.340382
3 3 0.307429 0.467045 0.355064
1 1 0.31208 0.489595 0.357937
4 3 0.319597 0.493442 0.37955
2 3 0.328575 0.495732 0.343124
594 4 0.406552 0.483194 0.350181
592 2 0.405722 0.478269 0.37468
593 4 0.404892 0.473343 0.39918
588 4 0.420216 0.474734 0.413502
118 3 0.486086 0.419216 0.342306
713 4 0.42302 0.482445 0.339393
714 4 0.462524 0.453185 0.330228
712 2 0.442772 0.467815 0.33481
119 3 0.479875 0.456655 0.340259
116 1 0.490332 0.439754 0.352234
117 3 0.481948 0.439534 0.373654
718 2 0.0376633 0.0216507 0.457319
720 4 0.0253995 0.00937093 0.475318
2237 4 0.0165335 0.995866 0.486522
719 4 0.0499271 0.0339305 0.439319
369 4 0.0672542 0.0249375 0.439834
367 2 0.0801605 0.0164786 0.420161
441 4 0.310585 0.02645 0.420454
962 4 0.303263 0.0219983 0.440018
961 2 0.308685 0.035637 0.460261
963 4 0.314106 0.0492757 0.480504
432 4 0.29698 0.0558514 0.485569
425 4 0.32935 0.0243366 0.422523
439 2 0.302004 0.00308132 0.418118
426 4 0.379128 0.0275069 0.418942
424 2 0.354239 0.0259217 0.420733
725 4 0.411141 0.0754059 0.417136
457 2 0.0313534 0.138673 0.419846
459 4 0.0391966 0.160845 0.428336
1181 4 0.22168 0.131886 0.49702
724 2 0.404841 0.0894989 0.436805
726 4 0.398541 0.103592 0.456474
514 2 0.401554 0.162106 0.449178
453 4 0.43889 0.151222 0.430461
2878 2 0.49542 0.107599 0.428761
2880 4 0.487356 0.119369 0.449295
640 2 0.484927 0.130116 0.486563
642 4 0.496921 0.128505 0.464683
515 4 0.425693 0.159028 0.44343
260 4 0.0572621 0.17009 0.426413
259 2 0.0779506 0.178731 0.437481
685 2 0.127695 0.207701 0.423511
687 4 0.109883 0.198228 0.438282
261 4 0.0986392 0.187371 0.448549
1035 4 0.116057 0.191361 0.456401
1033 2 0.112166 0.19676 0.480502
487 2 0.319521 0.243169 0.435159
489 4 0.322388 0.218334 0.434707
411 4 0.328699 0.20684 0.420671
650 4 0.266012 0.226937 0.502535
649 2 0.26393 0.251554 0.498686
516 4 0.377416 0.165185 0.454925
409 2 0.352319 0.199913 0.425063
410 4 0.375939 0.192987 0.429455
575 4 0.371032 0.177864 0.468759
266 4 0.342737 0.24477 0.458697
574 2 0.372946 0.184911 0.492673
305 4 0.493686 0.173438 0.432091
270 4 0.465849 0.228537 0.41414
2847 4 0.994511 0.328475 0.471329
695 4 0.0542857 0.254839 0.487038
694 2 0.0763465 0.261637 0.477431
696 4 0.0984072 0.268435 0.467825
1258 2 0.121312 0.296964 0.481495
1260 4 0.116873 0.277347 0.466641
1259 4 0.125751 0.316581 0.496349
9 3 0.143651 0.325282 0.498708
857 4 0.203786 0.26621 0.499519
651 4 0.261848 0.276172 0.494836
488 4 0.316654 0.268003 0.435612
267 4 0.386692 0.259493 0.477455
265 2 0.364714 0.252132 0.468076
583 2 0.471211 0.25866 0.473632
585 4 0.449245 0.252444 0.463432
584 4 0.493176 0.264876 0.483833
681 4 0.0159742 0.412027 0.416667
326 4 0.0757969 0.361812 0.449509
6 1 0.147666 0.346641 0.490577
327 4 0.108382 0.365823 0.48723
325 2 0.0920894 0.363818 0.46837
7 3 0.127698 0.357989 0.489303
711 4 0.139846 0.4001 0.434343
10 3 0.156947 0.345434 0.469815
709 2 0.164145 0.398672 0.440062
504 4 0.199818 0.404582 0.432324
502 2 0.217249 0.386804 0.430027
710 4 0.188444 0.397244 0.445781
503 4 0.23468 0.369026 0.42773
772 2 0.285906 0.405806 0.493492
669 4 0.295993 0.408625 0.455586
336 4 0.327184 0.352721 0.429138
668 4 0.316886 0.368327 0.434604
667 2 0.306439 0.388476 0.445095
774 4 0.291523 0.418931 0.472965
880 2 0.347924 0.410443 0.489286
882 4 0.346589 0.409337 0.464342
335 4 0.37611 0.363053 0.428715
334 2 0.351647 0.357887 0.428926
238 2 0.40591 0.388426 0.433268
240 4 0.395843 0.365639 0.435407
560 4 0.495113 0.379197 0.422065
239 4 0.415977 0.411213 0.431128
3309 4 0.498848 0.42211 0.47077
679 2 0.0230912 0.434754 0.424285
680 4 0.0302082 0.45748 0.431903
1383 4 0.0405396 0.468721 0.44571
1381 2 0.0306745 0.491409 0.449331
570 4 0.141849 0.496977 0.418866
568 2 0.128851 0.475618 0.418703
569 4 0.115853 0.454259 0.418541
383 4 0.111178 0.435278 0.4243
382 2 0.100155 0.432887 0.446615
384 4 0.0891321 0.430497 0.46893
1555 2 0.239299 0.4901 0.430563
1557 4 0.25859 0.48459 0.445485
636 4 0.27068 0.476854 0.458792
635 4 0.29562 0.43852 0.479019
634 2 0.28315 0.457687 0.468906
586 2 0.413949 0.452029 0.421893
587 4 0.407682 0.429324 0.430283
661 2 0.448788 0.478592 0.46162
663 4 0.43821 0.456156 0.464768
1058 4 0.110515 0.0781489 0.584237
342 4 0.202781 0.0691748 0.511718
340 2 0.214099 0.0480697 0.518906
2430 4 0.212129 0.0129572 0.525312
341 4 0.225417 0.0269646 0.526093
430 2 0.304542 0.0635448 0.508126
431 4 0.312105 0.0712381 0.530682
843 4 0.330859 0.0783967 0.535157
1031 4 0.291995 0.0729382 0.579887
1217 4 0.3975 0.0762504 0.52514
1216 2 0.405311 0.0533822 0.531559
1218 4 0.413122 0.030514 0.537978
841 2 0.35586 0.0786039 0.53539
842 4 0.380862 0.078811 0.535623
3007 2 0.495493 0.0358791 0.573651
1128 4 0.00516382 0.10121 0.583865
470 4 0.0325809 0.14627 0.520899
1059 4 0.134555 0.119402 0.569372
1057 2 0.122535 0.0987753 0.576804
939 4 0.104788 0.135263 0.569077
1155 4 0.123847 0.136242 0.573965
937 2 0.0825957 0.138538 0.58012
1153 2 0.140694 0.151704 0.584079
1151 4 0.195554 0.11742 0.546175
1150 2 0.199356 0.102985 0.526117
1152 4 0.203158 0.0885495 0.506058
1180 2 0.245415 0.129756 0.504591
1182 4 0.26915 0.127627 0.512161
900 4 0.275262 0.146043 0.518028
898 2 0.29097 0.161712 0.529558
641 4 0.472933 0.131726 0.508443
469 2 0.024041 0.167286 0.531415
878 4 0.0317398 0.235543 0.580686
471 4 0.0155012 0.188302 0.541931
1199 4 0.0132267 0.226694 0.578672
877 2 0.0489738 0.217582 0.578332
879 4 0.0662078 0.19962 0.575977
1034 4 0.108276 0.202159 0.504604
858 4 0.173269 0.244357 0.532563
899 4 0.306677 0.177381 0.541088
576 4 0.37486 0.191959 0.516586
3157 2 0.49689 0.188724 0.577408
983 4 0.0279748 0.304541 0.551212
1245 4 0.0418421 0.297957 0.564021
1243 2 0.040359 0.275476 0.574864
982 2 0.0237342 0.329178 0.551652
856 2 0.188527 0.255283 0.516041
798 4 0.202555 0.253284 0.574784
796 2 0.227501 0.254089 0.57628
1238 4 0.305415 0.29267 0.563488
1237 2 0.309987 0.31561 0.572321
792 4 0.298615 0.28094 0.577447
872 4 0.368503 0.274141 0.557295
871 2 0.369832 0.298945 0.554435
873 4 0.371162 0.323748 0.551576
906 4 0.462036 0.269781 0.567024
953 4 0.452359 0.286956 0.564179
904 2 0.483537 0.27582 0.55578
952 2 0.436122 0.291876 0.582547
984 4 0.0194936 0.353816 0.552092
3354 4 0.0243108 0.369976 0.564508
3352 2 0.0101685 0.387466 0.553587
8 3 0.161872 0.358046 0.504948
1190 4 0.239783 0.353114 0.571548
803 4 0.235444 0.365879 0.555964
802 2 0.250519 0.359157 0.537182
804 4 0.265594 0.352436 0.5184
930 4 0.328873 0.350328 0.57602
773 4 0.280289 0.392681 0.514019
813 4 0.373073 0.342639 0.547554
811 2 0.38337 0.365314 0.545328
812 4 0.393668 0.38799 0.543103
927 4 0.412146 0.39552 0.54765
926 4 0.457488 0.407507 0.530297
925 2 0.434817 0.401513 0.538974
539 4 0.0743562 0.456933 0.532664
538 2 0.0881334 0.477509 0.53613
540 4 0.101911 0.498084 0.539597
1160 4 0.139752 0.498761 0.538138
1159 2 0.157822 0.493653 0.554647
1161 4 0.175893 0.488544 0.571155
881 4 0.349258 0.411548 0.514229
1951 2 0.35916 0.477079 0.572552
1953 4 0.374939 0.485807 0.55523
1002 4 0.444178 0.431684 0.565315
1000 2 0.444497 0.454652 0.555439
1001 4 0.444816 0.477621 0.545563
1911 4 0.461666 0.486034 0.541291
945 4 0.0441034 0.0262395 0.656241
823 2 0.14195 0.0144225 0.632519
825 4 0.126381 0.0284153 0.618844
951 4 0.302403 0.0572765 0.588802
949 2 0.312276 0.0383888 0.601877
950 4 0.322148 0.0195012 0.614953
2283 4 0.406954 0.0189959 0.601178
2281 2 0.410156 0.0023288 0.61954
3008 4 0.47426 0.0335441 0.586647
809 4 0.482901 0.0474822 0.597836
808 2 0.472775 0.0595759 0.617236
42 3 0.457807 0.0581878 0.655181
810 4 0.462648 0.0716697 0.636636
41 1 0.450765 0.0796325 0.659617
1082 4 0.0559438 0.0911986 0.659783
938 4 0.0604033 0.141812 0.591163
1083 4 0.0628004 0.0875236 0.610385
1126 2 0.0287327 0.0940059 0.588082
1081 2 0.0593721 0.0893611 0.635084
1127 4 0.0523016 0.0868016 0.592299
1154 4 0.157541 0.167166 0.594193
1032 4 0.25699 0.104793 0.596029
1030 2 0.274492 0.0888658 0.587958
45 3 0.454585 0.0927088 0.641367
3425 4 0.467029 0.0985017 0.660151
1179 4 0.0101577 0.244923 0.635573
1272 4 0.085623 0.196834 0.581313
1271 4 0.132266 0.206104 0.596778
1270 2 0.108945 0.201469 0.589045
947 4 0.186931 0.247965 0.586703
1221 4 0.174059 0.168771 0.606365
1212 4 0.202768 0.18762 0.650579
1219 2 0.191139 0.181445 0.619511
1220 4 0.208218 0.19412 0.632658
1210 2 0.223343 0.193534 0.663497
1193 4 0.36238 0.188469 0.663793
1192 2 0.33738 0.188239 0.663453
3159 4 0.47949 0.180839 0.59354
1025 4 0.449709 0.188753 0.666357
1244 4 0.0388759 0.252994 0.585706
1136 4 0.13847 0.298025 0.585681
948 4 0.155469 0.286719 0.583701
1135 2 0.140762 0.321919 0.592682
946 2 0.1712 0.267342 0.585202
797 4 0.252447 0.254894 0.577776
791 4 0.2634 0.249454 0.593857
790 2 0.281007 0.265197 0.585652
807 4 0.320201 0.301015 0.648722
805 2 0.318933 0.321939 0.662351
954 4 0.419886 0.296796 0.600914
3123 4 0.493886 0.265 0.645432
1039 2 0.0614442 0.393117 0.614224
1041 4 0.0406828 0.395359 0.627976
3264 4 0.0287345 0.39297 0.643268
3262 2 0.0366285 0.376409 0.660256
3240 4 0.0123751 0.400679 0.652091
897 4 0.147558 0.362338 0.608565
1040 4 0.0822057 0.390875 0.600472
993 4 0.0932849 0.390266 0.583359
1137 4 0.143055 0.345813 0.599682
991 2 0.112486 0.376125 0.590878
992 4 0.131687 0.361984 0.598396
895 2 0.171491 0.369574 0.608444
1189 2 0.227331 0.365363 0.589439
1172 4 0.222284 0.395191 0.606086
1191 4 0.21488 0.377611 0.607331
896 4 0.195425 0.37681 0.608322
1239 4 0.314559 0.33855 0.581155
929 4 0.359198 0.386006 0.593575
928 2 0.344035 0.368167 0.584798
1188 4 0.174375 0.474476 0.584638
1171 2 0.215831 0.419332 0.605228
1173 4 0.209377 0.443473 0.604371
1187 4 0.212766 0.460675 0.613558
1186 2 0.193571 0.467576 0.599098
889 2 0.29994 0.462067 0.599721
891 4 0.275619 0.456288 0.599227
890 4 0.324262 0.467847 0.600215
1230 4 0.34372 0.445086 0.653842
1952 4 0.343382 0.468352 0.589874
1206 4 0.430398 0.436578 0.652315
1269 4 0.434547 0.485189 0.627032
1267 2 0.452644 0.487366 0.644147
1268 4 0.470742 0.489543 0.661261
943 2 0.0461088 0.0474398 0.669344
944 4 0.0481142 0.0686401 0.682448
1283 4 0.128201 0.0792448 0.688714
2255 4 0.176007 0.00478569 0.712859
1147 2 0.217079 0.0534573 0.72045
1148 4 0.226687 0.0644558 0.700155
1149 4 0.207471 0.0424588 0.740746
1226 4 0.220982 0.0833222 0.708138
1004 4 0.360783 0.0716564 0.695154
1163 4 0.466791 0.0649738 0.675279
1162 2 0.484321 0.0517617 0.68725
2320 2 0.491646 0.028382 0.738834
43 3 0.428075 0.0792264 0.664455
4581 4 0.50303 0.00927672 0.713058
1076 4 0.0587962 0.085005 0.679037
864 4 0.0472245 0.123927 0.724873
1075 2 0.0554622 0.106126 0.691997
1077 4 0.0521281 0.127247 0.704957
1107 4 0.0626582 0.13375 0.719563
851 4 0.0571842 0.147405 0.707254
850 2 0.0416817 0.162923 0.695252
862 2 0.0389031 0.109891 0.743818
1105 2 0.0841648 0.13838 0.731446
1282 2 0.133128 0.0957909 0.706801
1284 4 0.138056 0.112337 0.724888
1106 4 0.105671 0.14301 0.743329
909 4 0.153447 0.149097 0.677376
908 4 0.196872 0.146136 0.701996
907 2 0.175159 0.147617 0.689686
1227 4 0.209158 0.131155 0.699597
1225 2 0.21507 0.107239 0.703867
829 2 0.331779 0.142863 0.695884
830 4 0.323124 0.164799 0.687573
1003 2 0.36114 0.0960824 0.700485
1005 4 0.361498 0.120508 0.705816
831 4 0.340433 0.120926 0.704195
3424 2 0.484492 0.115901 0.664331
44 3 0.462602 0.0877991 0.677827
852 4 0.0261791 0.178441 0.68325
1214 4 0.0131141 0.214962 0.731183
1073 4 0.123114 0.218923 0.718331
1072 2 0.114046 0.24202 0.721404
1211 4 0.243918 0.199448 0.676414
1194 4 0.312379 0.188009 0.663114
887 4 0.308973 0.17305 0.676164
888 4 0.261236 0.187895 0.674942
886 2 0.285104 0.180472 0.675553
1262 4 0.473403 0.212092 0.721707
1142 4 0.45685 0.18327 0.72638
1024 2 0.455952 0.193424 0.690113
1141 2 0.45269 0.173812 0.749149
1026 4 0.462196 0.198094 0.71387
1261 2 0.463461 0.232803 0.731577
1145 4 0.493073 0.211279 0.713518
1074 4 0.104978 0.265118 0.724478
1209 4 0.142618 0.310829 0.69214
1207 2 0.12597 0.294278 0.700749
1208 4 0.109323 0.277727 0.709359
821 4 0.162355 0.317009 0.694524
820 2 0.180662 0.301326 0.701165
822 4 0.198968 0.285643 0.707806
1063 2 0.238248 0.303783 0.710775
1064 4 0.218833 0.288108 0.709184
1065 4 0.257664 0.319458 0.712367
1263 4 0.45352 0.253514 0.741447
3263 4 0.0445224 0.359847 0.677244
892 2 0.0157663 0.359578 0.730155
894 4 0.0304838 0.376964 0.719844
1280 4 0.0496422 0.38161 0.724334
1279 2 0.0468087 0.405705 0.718286
816 4 0.0665987 0.37326 0.727288
814 2 0.0883712 0.365519 0.736839
815 4 0.110144 0.357778 0.746389
942 4 0.129379 0.348919 0.748438
1029 4 0.240046 0.406342 0.674314
1028 4 0.226395 0.3741 0.710019
1066 2 0.197607 0.380693 0.743291
1068 4 0.216205 0.381032 0.726583
1027 2 0.23322 0.390221 0.692166
806 4 0.317665 0.342863 0.67598
1019 4 0.37374 0.396401 0.726944
1981 2 0.0735307 0.454797 0.715209
1281 4 0.0439753 0.4298 0.712238
1983 4 0.0496287 0.44946 0.71017
1982 4 0.0974327 0.460133 0.720249
2016 4 0.187197 0.498128 0.743956
1140 4 0.254738 0.418639 0.67071
1138 2 0.253467 0.440676 0.682455
1139 4 0.252197 0.462713 0.6942
1987 2 0.324456 0.472796 0.728948
1989 4 0.326339 0.483212 0.706295
1229 4 0.331191 0.465875 0.697563
1204 2 0.410086 0.42962 0.665128
1018 2 0.378194 0.420566 0.731571
1228 2 0.337455 0.455481 0.675703
1020 4 0.382647 0.444731 0.736198
1205 4 0.389774 0.422661 0.677941
1101 4 0.45537 0.488864 0.695172
2168 4 0.468815 0.496215 0.680448
2991 4 0.0229162 0.0307479 0.775214
2989 2 0.0216194 0.0553229 0.770791
2990 4 0.0203227 0.0798979 0.766367
1202 4 0.131712 0.0515268 0.772674
2049 4 0.140995 0.0320909 0.774693
1201 2 0.12101 0.074124 0.772568
2047 2 0.144557 0.0101229 0.763295
1257 4 0.217606 0.0730876 0.77596
1255 2 0.23703 0.0797744 0.790213
817 2 0.326759 0.0470779 0.805621
819 4 0.311032 0.0661137 0.809558
818 4 0.342485 0.028042 0.801684
1050 4 0.341207 0.00575908 0.772994
975 4 0.394123 0.00882528 0.804389
974 4 0.349627 0.0202632 0.784641
973 2 0.371875 0.0145443 0.794515
1113 4 0.424197 0.067823 0.774306
2322 4 0.481846 0.0278405 0.76183
1111 2 0.446225 0.0617901 0.784481
845 4 0.481987 0.0707582 0.797952
1112 4 0.468254 0.0557572 0.794656
863 4 0.0305816 0.0958544 0.762763
833 4 0.0181213 0.0948291 0.777978
832 2 0.0169701 0.107737 0.799361
834 4 0.0158188 0.120644 0.820744
3083 4 0.00272542 0.0868739 0.767382
1203 4 0.110308 0.0967211 0.772462
911 4 0.106474 0.12426 0.815569
34 3 0.104599 0.116134 0.775759
31 1 0.113395 0.130561 0.791662
35 3 0.0965309 0.140876 0.802969
32 3 0.126135 0.118422 0.806478
33 3 0.126887 0.146398 0.78139
1085 4 0.315149 0.0857895 0.812219