ITEM: TIMESTEP
2310000
ITEM: NUMBER OF ATOMS
4590
ITEM: BOX BOUNDS pp pp pp
-9.9985700000000008e+00 9.9985700000000008e+00
-9.9985700000000008e+00 9.9985700000000008e+00
-9.9985700000000008e+00 9.9985700000000008e+00
ITEM: ATOMS id type xs ys zs
1666 2 0.0201242 0.0745159 0.0640882
1668 4 0.0028677 0.0636079 0.0785245
491 4 0.26414 0.0755327 0.0914488
490 2 0.269035 0.051015 0.0917755
2974 2 0.465042 0.0149881 0.0122746
745 2 0.436909 0.0698511 0.015511
747 4 0.439709 0.0473694 0.00493214
2469 4 0.498858 0.990889 0.0783324
2976 4 0.484459 0.000659005 0.0188211
986 4 0.433179 0.0334699 0.991741
1667 4 0.0373808 0.0854238 0.0496518
701 4 0.0468647 0.103424 0.0491879
700 2 0.0493161 0.119642 0.0680592
566 4 0.18404 0.151716 0.0368432
565 2 0.19581 0.159803 0.016319
297 4 0.328723 0.112028 0.024771
295 2 0.345378 0.112172 0.00612241
556 2 0.401516 0.106195 0.998058
558 4 0.422297 0.100752 0.0108535
746 4 0.434109 0.0923327 0.0260898
555 4 0.0326792 0.240438 0.0133354
770 4 0.400125 0.189399 0.0246928
359 4 0.382129 0.1944 0.0214176
664 2 0.393107 0.214147 0.0550151
665 4 0.386466 0.195859 0.0393108
666 4 0.399748 0.232434 0.0707194
623 4 0.39147 0.244922 0.0823781
323 4 0.397631 0.250026 0.0636007
358 2 0.358567 0.198133 0.0139302
769 2 0.417894 0.174415 0.015477
771 4 0.435662 0.159431 0.00626129
292 2 0.133854 0.290776 0.0510108
507 4 0.161295 0.317141 0.0615165
293 4 0.148547 0.310946 0.0525888
294 4 0.11916 0.270607 0.0494328
287 4 0.164008 0.311297 0.0416241
552 4 0.142855 0.328083 0.0580612
455 4 0.157885 0.3285 0.0469093
286 2 0.17864 0.306186 0.0220034
505 2 0.178893 0.308541 0.077057
481 2 0.221201 0.274783 0.0680568
482 4 0.238959 0.260089 0.0583655
288 4 0.193271 0.301075 0.00238268
483 4 0.203444 0.289477 0.0777482
573 4 0.257588 0.268396 0.0553119
571 2 0.271345 0.263527 0.035009
572 4 0.285103 0.258658 0.0147061
357 4 0.295151 0.268319 0.00019987
1069 2 0.405067 0.318713 0.0319409
322 2 0.410444 0.268478 0.0526225
955 2 0.349656 0.321248 0.0201637
324 4 0.423257 0.28693 0.0416442
957 4 0.366238 0.330937 0.036174
956 4 0.333074 0.311559 0.00415332
1070 4 0.426055 0.305279 0.0339891
280 2 0.452804 0.314388 0.0599575
281 4 0.461459 0.316153 0.0833487
282 4 0.444149 0.312623 0.0365662
454 2 0.167306 0.351507 0.0442428
456 4 0.176728 0.374513 0.0415764
1290 4 0.269703 0.384526 0.0349169
250 2 0.276142 0.395197 0.064521
1288 2 0.273219 0.373377 0.0128143
251 4 0.27184 0.402203 0.0409078
1071 4 0.384079 0.332148 0.0298927
741 4 0.377826 0.342115 0.0464759
739 2 0.376075 0.341613 0.0714131
1788 4 0.0671438 0.480977 0.0261374
1786 2 0.089228 0.492083 0.0298956
626 4 0.219047 0.474112 0.0774712
625 2 0.202443 0.490301 0.068123
245 4 0.237544 0.467514 0.0736238
244 2 0.248402 0.451811 0.0574766
246 4 0.259259 0.436109 0.0413294
272 4 0.27086 0.421001 0.0326967
271 2 0.278381 0.432492 0.0118025
1672 2 0.40081 0.435004 0.0656006
853 2 0.397098 0.431716 0.00529079
1674 4 0.41051 0.438412 0.0428089
854 4 0.413105 0.432084 0.0244959
563 4 0.459029 0.473767 0.020534
562 2 0.437688 0.461225 0.0240626
564 4 0.416348 0.448683 0.0275912
228 4 0.47767 0.468538 0.0229055
19 3 0.0765461 0.0392831 0.160598
237 4 0.237414 0.0894018 0.163298
1475 4 0.27359 0.0173344 0.110385
492 4 0.273929 0.0264972 0.0921022
1506 4 0.252544 0.00548389 0.164209
581 4 0.297203 0.0754448 0.135186
582 4 0.255809 0.0819566 0.162477
580 2 0.276506 0.0787007 0.148832
654 4 0.254937 0.0249497 0.162865
486 4 0.395588 0.0254887 0.0910655
484 2 0.412865 0.0244055 0.109108
485 4 0.430142 0.0233223 0.12715
2722 2 0.482468 0.0688063 0.153634
2724 4 0.488165 0.0458801 0.145442
1759 2 0.489796 0.0174049 0.112448
2744 4 0.490663 0.027785 0.149209
702 4 0.0517675 0.135861 0.0869304
476 4 0.061597 0.148633 0.0998134
475 2 0.0809975 0.155534 0.113997
477 4 0.100398 0.162435 0.128181
737 4 0.223737 0.154386 0.102418
235 2 0.212532 0.0918159 0.163776
236 4 0.18765 0.0942301 0.164254
628 2 0.386314 0.144116 0.1575
2723 4 0.476771 0.0917326 0.161826
738 4 0.226565 0.200109 0.12247
736 2 0.225151 0.177248 0.112444
460 2 0.318827 0.236396 0.114756
461 4 0.29591 0.233416 0.105211
354 4 0.278199 0.237212 0.113969
352 2 0.269631 0.244246 0.136381
353 4 0.261062 0.251281 0.158792
630 4 0.370613 0.160377 0.146812
254 4 0.36141 0.177459 0.14078
462 4 0.341744 0.239375 0.124301
255 4 0.355403 0.226737 0.134753
253 2 0.358406 0.202098 0.137766
765 4 0.352385 0.244615 0.138922
624 4 0.35998 0.23778 0.120564
622 2 0.375725 0.241351 0.101471
339 4 0.0535218 0.249963 0.140052
337 2 0.0478153 0.253343 0.16416
506 4 0.196492 0.29994 0.0925975
537 4 0.202566 0.306389 0.110979
535 2 0.191952 0.30815 0.13355
536 4 0.181339 0.309912 0.15612
755 4 0.24566 0.262151 0.164462
301 2 0.317569 0.309588 0.149467
302 4 0.31415 0.323832 0.129204
763 2 0.342808 0.262775 0.153193
12 3 0.392927 0.326816 0.132749
671 4 0.447855 0.316122 0.0966019
527 4 0.467797 0.314332 0.101238
670 2 0.425702 0.324345 0.104775
526 2 0.492475 0.311597 0.0982931
647 4 0.0530694 0.347734 0.159155
550 2 0.127328 0.335808 0.076073
551 4 0.111801 0.343533 0.0940848
289 2 0.232141 0.398855 0.149693
416 4 0.196266 0.377932 0.161073
290 4 0.248946 0.413399 0.138238
291 4 0.215336 0.38431 0.161148
415 2 0.176367 0.388764 0.171649
387 4 0.309482 0.329229 0.109895
385 2 0.332726 0.336718 0.104524
252 4 0.280444 0.388191 0.0881343
609 4 0.286754 0.391889 0.106968
607 2 0.2994 0.412688 0.112683
493 2 0.391416 0.391576 0.0986003
495 4 0.39574 0.366968 0.0976453
386 4 0.355969 0.344207 0.099153
15 3 0.360855 0.337469 0.116912
740 4 0.374325 0.34111 0.0963502
672 4 0.403548 0.332568 0.112949
14 3 0.393621 0.349424 0.102731
11 1 0.382031 0.344051 0.122101
13 3 0.381365 0.362404 0.136283
1791 4 0.0467457 0.49259 0.131499
1466 4 0.0556867 0.479473 0.119923
1465 2 0.0688633 0.458253 0.121038
1467 4 0.08204 0.437032 0.122152
638 4 0.249241 0.496071 0.128593
766 2 0.250839 0.45325 0.13731
768 4 0.254956 0.430252 0.146216
767 4 0.246722 0.476248 0.128404
608 4 0.312047 0.433487 0.118398
659 4 0.3262 0.435256 0.10625
494 4 0.387093 0.416185 0.0995552
660 4 0.375565 0.433041 0.0985783
1673 4 0.391109 0.431596 0.0883924
658 2 0.350882 0.434148 0.102414
1559 4 0.3759 0.489759 0.133977
524 4 0.390845 0.493183 0.118916
523 2 0.389849 0.470895 0.107626
525 4 0.388853 0.448608 0.0963366
595 2 0.464224 0.423607 0.161434
596 4 0.477815 0.432971 0.142652
18 3 0.0672616 0.00355988 0.169657
16 1 0.065012 0.0258722 0.175615
17 3 0.0427197 0.031516 0.175024
2480 4 0.0263012 0.0268971 0.186935
2479 2 0.0136077 0.0483401 0.188997
20 3 0.073019 0.0291338 0.196684
1422 4 0.0218498 0.00608444 0.186719
2481 4 0.00091425 0.0697831 0.191059
578 4 0.0880505 0.038347 0.180391
577 2 0.107463 0.0539162 0.182828
579 4 0.126875 0.0694853 0.185266
689 4 0.187804 0.00587926 0.233137
674 4 0.173675 0.00482323 0.247254
652 2 0.275934 0.0296509 0.175601
653 4 0.29693 0.0343521 0.188337
25 3 0.332089 0.0411153 0.245207
758 4 0.350601 0.0722383 0.193035
759 4 0.347285 0.0582266 0.240924
757 2 0.348943 0.0652325 0.216979
311 4 0.368344 0.0701027 0.186436
2743 2 0.498064 0.0179063 0.170953
380 4 0.997755 0.0841488 0.1775
379 2 0.0118594 0.10452 0.180852
511 2 0.0515297 0.157308 0.20234
512 4 0.0391805 0.137788 0.192765
381 4 0.0259642 0.124892 0.184204
448 2 0.156103 0.0949961 0.173939
450 4 0.133625 0.0845148 0.170764
449 4 0.17858 0.105477 0.177115
28 3 0.315239 0.131569 0.228645
26 1 0.32438 0.148709 0.241337
312 4 0.39208 0.110301 0.168508
629 4 0.402015 0.127855 0.168188
310 2 0.380212 0.0902019 0.177472
521 4 0.488637 0.128001 0.222699
332 4 0.489683 0.117435 0.237928
762 4 0.475746 0.133169 0.234786
760 2 0.451912 0.125891 0.23683
761 4 0.428079 0.118613 0.238874
520 2 0.503474 0.145595 0.212927
513 4 0.063879 0.176827 0.211914
393 4 0.0736499 0.185254 0.195746
391 2 0.0946433 0.198661 0.193579
392 4 0.115637 0.212069 0.191412
279 4 0.24854 0.209023 0.203276
277 2 0.251954 0.229144 0.18883
27 3 0.327796 0.166984 0.22779
394 2 0.0176202 0.257545 0.235305
395 4 0.0262415 0.272044 0.216848
338 4 0.0421088 0.256724 0.188268
363 4 0.042639 0.267679 0.206357
361 2 0.0562034 0.288658 0.207392
749 4 0.0601105 0.324091 0.215887
648 4 0.0716177 0.323828 0.19897
362 4 0.0697678 0.309637 0.208427
372 4 0.0872327 0.310794 0.199818
370 2 0.107955 0.314503 0.213309
371 4 0.128678 0.318212 0.2268
734 4 0.135519 0.328241 0.241479
733 2 0.155063 0.314577 0.248997
754 2 0.237129 0.284567 0.171528
756 4 0.228598 0.306983 0.178595
611 4 0.241457 0.328664 0.23383
610 2 0.236737 0.327571 0.2093
612 4 0.232016 0.326478 0.184771
278 4 0.255368 0.249265 0.174385
284 4 0.273297 0.25459 0.176403
283 2 0.294265 0.268172 0.177412
285 4 0.315234 0.281754 0.178422
308 4 0.330198 0.286148 0.185275
303 4 0.320987 0.295345 0.169731
729 4 0.317129 0.29987 0.18741
727 2 0.304433 0.317205 0.200196
764 4 0.333231 0.280935 0.167465
307 2 0.340425 0.277008 0.206181
309 4 0.350651 0.267867 0.227087
498 4 0.337141 0.270857 0.241163
748 2 0.0645809 0.336212 0.237294
646 2 0.0623435 0.335781 0.179063
417 4 0.156468 0.399597 0.182226
728 4 0.291737 0.334541 0.212981
446 4 0.382616 0.36534 0.240949
445 2 0.40699 0.367884 0.235986
447 4 0.431364 0.370428 0.231024
644 4 0.452541 0.371423 0.227338
643 2 0.456971 0.390379 0.211646
645 4 0.4614 0.409335 0.195955
1758 4 0.0672902 0.478778 0.241955
414 4 0.211505 0.473315 0.215878
412 2 0.220973 0.463713 0.236934
597 4 0.450632 0.414242 0.180215
229 2 0.4511 0.484433 0.232688
231 4 0.453166 0.46097 0.224298
427 2 0.089903 0.0103086 0.333276
2755 2 0.00754795 0.0722928 0.31744
234 4 0.018665 0.0442438 0.290169
232 2 0.0410416 0.0331491 0.29134
233 4 0.0634183 0.0220545 0.292512
1404 4 0.081328 0.0167152 0.29489
317 4 0.0778639 0.0344203 0.300485
2756 4 0.0109393 0.0608691 0.295458
2478 4 0.0077619 0.0559527 0.277268
428 4 0.0881545 0.023698 0.312232
316 2 0.0897228 0.0563785 0.302028
1402 2 0.0945303 0.00644203 0.276307
318 4 0.101582 0.0783368 0.303571
730 2 0.136109 0.0868514 0.318076
731 4 0.159642 0.0815721 0.324673
606 4 0.164064 0.0690437 0.340047
693 4 0.249868 0.0392769 0.267017
691 2 0.259807 0.0618746 0.270982
24 3 0.318762 0.0608509 0.274372
350 4 0.36356 0.0705299 0.248721
21 1 0.337381 0.0503561 0.265338
23 3 0.345021 0.0339234 0.279829
22 3 0.35401 0.0659708 0.26237
349 2 0.38781 0.0662347 0.253041
351 4 0.41206 0.0619394 0.257361
480 4 0.422347 0.0471116 0.248191
479 4 0.451899 0.0314842 0.285382
478 2 0.437123 0.0392979 0.266786
2664 4 0.469256 0.0236188 0.280352
1428 4 0.45435 0.0147674 0.288164
258 4 0.451717 0.0261797 0.303894
2662 2 0.488998 0.0373695 0.287159
256 2 0.439824 0.0371219 0.322973
397 2 0.0758049 0.102808 0.324795
732 4 0.112576 0.0921307 0.31148
399 4 0.0938499 0.0951225 0.309287
721 2 0.264438 0.110913 0.309337
692 4 0.269747 0.0844723 0.274948
30 3 0.310104 0.154395 0.258145
723 4 0.271222 0.101435 0.287216
722 4 0.257653 0.12039 0.331458
29 3 0.344759 0.142014 0.250183
632 4 0.357887 0.0834869 0.253113
631 2 0.356864 0.107955 0.258158
707 4 0.346166 0.148524 0.268693
633 4 0.355841 0.132423 0.263203
706 2 0.359583 0.153507 0.289195
708 4 0.372999 0.158489 0.309697
546 4 0.143239 0.192903 0.275656
544 2 0.165126 0.203824 0.270477
545 4 0.187014 0.214746 0.265298
402 4 0.184937 0.232206 0.256593
473 4 0.219175 0.184976 0.325132
396 4 0.0089989 0.243046 0.253761
443 4 0.00676776 0.247994 0.273052
442 2 0.012173 0.253308 0.296879
444 4 0.0175782 0.258622 0.320706
375 4 0.164879 0.296024 0.329318
344 4 0.232855 0.322003 0.251363
343 2 0.212366 0.308127 0.254944
400 2 0.188124 0.255613 0.264786
401 4 0.191311 0.27902 0.27298
676 2 0.179287 0.303749 0.298479
345 4 0.191877 0.29425 0.258525
677 4 0.182744 0.295735 0.275048
735 4 0.174607 0.300913 0.256516
678 4 0.17583 0.311763 0.321909
510 4 0.178056 0.331255 0.328244
378 4 0.274188 0.258007 0.321691
376 2 0.285307 0.274688 0.306748
496 2 0.319212 0.277487 0.25728
497 4 0.301282 0.284117 0.273397
377 4 0.296426 0.291369 0.291806
541 2 0.363356 0.296038 0.304002
542 4 0.382816 0.284365 0.314501
420 4 0.401053 0.27802 0.322549
543 4 0.343895 0.30771 0.293504
615 4 0.346766 0.326325 0.288617
418 2 0.403611 0.253411 0.326159
364 2 0.00633909 0.368144 0.304612
365 4 0.028419 0.379456 0.307724
601 2 0.045575 0.408747 0.325429
603 4 0.0320277 0.399692 0.306464
750 4 0.0690514 0.348333 0.258701
299 4 0.135009 0.338983 0.259725
298 2 0.111015 0.345544 0.262255
300 4 0.0870211 0.352106 0.264786
508 2 0.189366 0.352637 0.321916
509 4 0.200677 0.37402 0.315588
433 2 0.311792 0.381435 0.32934
434 4 0.335801 0.375935 0.325039
614 4 0.341738 0.372848 0.306254
613 2 0.344252 0.349586 0.297435
1757 4 0.033906 0.444997 0.257609
1756 2 0.0505981 0.461888 0.249782
264 4 0.0198332 0.431043 0.252797
776 4 0.0557963 0.492539 0.320807
775 2 0.0617507 0.495268 0.296677
1775 4 0.0775288 0.488625 0.25757
777 4 0.067705 0.497996 0.272546
413 4 0.23044 0.454111 0.25799
1436 4 0.242378 0.453024 0.274761
1435 2 0.249616 0.445546 0.297495
1437 4 0.256855 0.438067 0.320229
4 3 0.26383 0.448236 0.335391
3 3 0.296776 0.459758 0.320351
1801 2 0.373015 0.481797 0.31379
1802 4 0.361638 0.46129 0.322463
1803 4 0.384392 0.502303 0.305117
119 3 0.495722 0.465978 0.326291
1781 4 0.109838 0.00572829 0.417635
604 2 0.18881 0.0719853 0.34209
605 4 0.213556 0.0749269 0.344132
441 4 0.327009 0.00232504 0.400781
1701 4 0.333576 0.999894 0.382706
425 4 0.343908 0.999968 0.399893
699 4 0.364357 0.0363589 0.353804
698 4 0.411941 0.0359496 0.338432
1699 2 0.338998 0.0172765 0.365571
1700 4 0.344419 0.0346595 0.348436
697 2 0.388149 0.0361543 0.346118
725 4 0.394382 0.064168 0.414412
257 4 0.427931 0.0480641 0.342052
2757 4 0.00415661 0.0837166 0.339421
2585 4 0.0052476 0.0956183 0.355334
398 4 0.05776 0.110493 0.340302
2584 2 0.0282437 0.105409 0.356048
2586 4 0.0512398 0.115199 0.356761
458 4 0.0475041 0.130882 0.371616
457 2 0.0467278 0.143704 0.393068
459 4 0.0459516 0.156526 0.41452
600 4 0.109619 0.145598 0.354519
248 4 0.216334 0.0852233 0.360227
247 2 0.2348 0.101212 0.354881
403 2 0.244075 0.155186 0.342042
249 4 0.253265 0.1172 0.349536
404 4 0.255875 0.133852 0.347593
683 4 0.264634 0.123005 0.363203
682 2 0.285162 0.130175 0.375547
684 4 0.30569 0.137345 0.387892
320 4 0.311305 0.156689 0.384228
319 2 0.33123 0.160464 0.369602
724 2 0.396357 0.0858137 0.402053
717 4 0.404368 0.161136 0.338781
726 4 0.398332 0.107459 0.389694
598 2 0.11411 0.16897 0.362184
599 4 0.1186 0.192342 0.369848
389 4 0.124256 0.221268 0.379993
686 4 0.122814 0.202081 0.387026
685 2 0.108783 0.202012 0.407721
275 4 0.131882 0.205876 0.373012
274 2 0.155579 0.203823 0.365303
388 2 0.123308 0.24614 0.377608
405 4 0.232276 0.17652 0.33649
474 4 0.193429 0.21536 0.355377
472 2 0.206302 0.200168 0.340254
276 4 0.179276 0.201771 0.357594
321 4 0.351155 0.164238 0.354975
715 2 0.396576 0.172623 0.359578
716 4 0.388785 0.184111 0.380375
467 4 0.394098 0.178742 0.398348
269 4 0.411173 0.214132 0.342581
419 4 0.406169 0.228802 0.329769
270 4 0.445878 0.220013 0.378101
452 4 0.461497 0.212104 0.374817
268 2 0.428526 0.217073 0.360341
451 2 0.46607 0.212627 0.399394
346 2 0.0562396 0.33544 0.394543
347 4 0.080722 0.338893 0.398267
348 4 0.0317572 0.331988 0.390819
618 4 0.0922352 0.32361 0.392461
616 2 0.10124 0.303598 0.380477
390 4 0.12236 0.271011 0.375222
617 4 0.110246 0.283587 0.368492
374 4 0.126415 0.28455 0.359143
373 2 0.145647 0.290287 0.34423
435 4 0.287783 0.386935 0.333641
334 2 0.328675 0.368537 0.410886
336 4 0.307561 0.380672 0.416552
238 2 0.373542 0.382592 0.38452
239 4 0.392663 0.393414 0.372584
587 4 0.404661 0.407836 0.381778
335 4 0.34979 0.356402 0.40522
240 4 0.354421 0.37177 0.396455
2537 4 0.497514 0.352332 0.345652
752 4 0.472355 0.394022 0.373575
561 4 0.476888 0.378356 0.383211
559 2 0.488739 0.373395 0.404661
602 4 0.0591222 0.417801 0.344394
549 4 0.0686917 0.414701 0.360577
548 4 0.0978106 0.446777 0.385555
500 4 0.0652904 0.498235 0.33724
499 2 0.0710558 0.488191 0.3594
501 4 0.0768213 0.478147 0.38156
547 2 0.0832512 0.430739 0.373066
407 4 0.0872773 0.462323 0.389639
406 2 0.100759 0.470006 0.409246
1 1 0.282202 0.462117 0.338251
436 2 0.3326 0.451954 0.337914
438 4 0.307849 0.455497 0.337797
5 3 0.275387 0.483783 0.339919
2 3 0.293129 0.456102 0.35758
1557 4 0.291708 0.502747 0.410293
437 4 0.357351 0.44841 0.338031
586 2 0.410153 0.432107 0.379338
593 4 0.402261 0.470458 0.373756
588 4 0.415645 0.456377 0.376897
592 2 0.413106 0.487837 0.35942
594 4 0.423952 0.505215 0.345083
751 2 0.482583 0.415652 0.366317
712 2 0.465149 0.490111 0.343417
714 4 0.485913 0.476223 0.344494
713 4 0.444385 0.503999 0.34234
753 4 0.49281 0.437283 0.359058
117 3 0.489578 0.45997 0.362881
1772 4 0.000856471 0.00614978 0.44741
720 4 0.00416414 0.023265 0.456872
369 4 0.071854 0.0277058 0.462556
719 4 0.0530701 0.0205621 0.466952
718 2 0.0286171 0.0219135 0.461912
367 2 0.0913394 0.0238962 0.447358
368 4 0.110825 0.0200866 0.43216
961 2 0.326562 0.0334183 0.419597
963 4 0.31832 0.0566821 0.423603
432 4 0.309667 0.0554653 0.441682
430 2 0.316154 0.0691644 0.461567
431 4 0.322641 0.0828635 0.481453
843 4 0.335394 0.0806587 0.496742
962 4 0.334804 0.0101545 0.415591
640 2 0.486642 0.0994716 0.448475
641 4 0.467371 0.0943783 0.46357
261 4 0.0765974 0.202064 0.433996
260 4 0.0391965 0.174445 0.415581
259 2 0.057897 0.188255 0.424789
687 4 0.0947525 0.201942 0.428417
1035 4 0.0851715 0.21869 0.42639
1033 2 0.0858096 0.23333 0.446649
1034 4 0.0864477 0.24797 0.466908
696 4 0.0961457 0.252243 0.48259
488 4 0.324686 0.23586 0.418174
487 2 0.334821 0.234744 0.441005
466 2 0.400716 0.188083 0.420577
468 4 0.407333 0.197423 0.442807
411 4 0.358544 0.220604 0.473418
409 2 0.380984 0.210693 0.468584
410 4 0.403425 0.200781 0.46375
266 4 0.355492 0.238106 0.478786
489 4 0.344956 0.233627 0.463835
575 4 0.417177 0.201209 0.476711
516 4 0.417665 0.205083 0.45627
574 2 0.426143 0.190201 0.497293
514 2 0.440165 0.212885 0.448649
515 4 0.462665 0.220686 0.441029
453 4 0.470642 0.213151 0.42397
2802 4 0.00875102 0.298113 0.441386
1260 4 0.0973912 0.2651 0.469425
1258 2 0.109668 0.286876 0.468914
1259 4 0.121945 0.308652 0.468403
9 3 0.142068 0.314093 0.454487
7 3 0.123057 0.319303 0.486489
6 1 0.136217 0.329629 0.470699
8 3 0.155291 0.337849 0.481043
327 4 0.110056 0.330177 0.470306
265 2 0.359453 0.257695 0.493812
1009 2 0.469108 0.308921 0.503146
1011 4 0.473773 0.333389 0.500968
2457 4 0.477457 0.276543 0.491038
2455 2 0.489053 0.255525 0.498035
326 4 0.0615534 0.342278 0.471645
10 3 0.124537 0.346727 0.461219
325 2 0.0858047 0.336227 0.470976
709 2 0.14994 0.412169 0.491659
711 4 0.126405 0.414384 0.483511
504 4 0.187015 0.401188 0.489192
710 4 0.173475 0.409953 0.499807
668 4 0.298424 0.391075 0.431294
667 2 0.307964 0.413753 0.435748
560 4 0.50059 0.368434 0.426112
3309 4 0.491642 0.361226 0.441217
3307 2 0.482906 0.353605 0.463371
3308 4 0.47417 0.345985 0.485525
1381 2 0.018441 0.490535 0.461322
1383 4 0.00938439 0.467528 0.465043
680 4 0.992681 0.462849 0.454361
569 4 0.132148 0.477671 0.433726
384 4 0.114728 0.423481 0.47008
382 2 0.119258 0.44271 0.454754
408 4 0.11424 0.477688 0.428852
568 2 0.152484 0.492037 0.431435
383 4 0.123787 0.46194 0.439428
635 4 0.322 0.45286 0.448931
634 2 0.309955 0.470985 0.43662
669 4 0.317505 0.436432 0.440203
636 4 0.29791 0.48911 0.424308
774 4 0.336758 0.442163 0.44223
772 2 0.35196 0.436902 0.461371
773 4 0.367162 0.43164 0.480513
663 4 0.48116 0.484502 0.445888
1152 4 0.199084 0.0594285 0.543926
342 4 0.192996 0.0429346 0.533951
340 2 0.179179 0.0264821 0.521161
1150 2 0.215936 0.0760649 0.551953
341 4 0.165362 0.0100297 0.50837
949 2 0.301321 0.0425971 0.589184
951 4 0.302393 0.060457 0.571719
1031 4 0.285049 0.0681887 0.57694
1217 4 0.388176 0.0466027 0.51525
842 4 0.37788 0.0632449 0.516552
841 2 0.356637 0.0719518 0.506647
1216 2 0.410337 0.0546912 0.506965
1218 4 0.432498 0.0627797 0.49868
3007 2 0.50157 0.055779 0.583373
1270 2 0.0766301 0.146927 0.578422
1271 4 0.0903722 0.127477 0.570806
1058 4 0.0840746 0.131095 0.505667
1057 2 0.0902162 0.126261 0.529418
1059 4 0.0963578 0.121428 0.553169
1155 4 0.107877 0.118888 0.569115
939 4 0.0927629 0.10789 0.566783
1153 2 0.128684 0.132544 0.571519
1154 4 0.149491 0.146199 0.573922
1151 4 0.232788 0.0927013 0.55998
1180 2 0.232222 0.135663 0.564425
1181 4 0.233843 0.111151 0.569082
1182 4 0.230602 0.160176 0.559767
1032 4 0.251343 0.0949926 0.55152
1030 2 0.268196 0.0815906 0.56423
1198 2 0.01158 0.235567 0.555993
1199 4 0.0288611 0.225196 0.570791
878 4 0.0453507 0.230697 0.579438
695 4 0.0719709 0.24082 0.524849
694 2 0.0840583 0.246532 0.50372
900 4 0.222965 0.175551 0.5698
898 2 0.227733 0.188796 0.549135
899 4 0.232501 0.202041 0.528471
650 4 0.245765 0.199866 0.51354
649 2 0.246841 0.224842 0.51399
576 4 0.435109 0.179192 0.517875
856 2 0.215868 0.266139 0.539687
857 4 0.197922 0.276863 0.553401
798 4 0.211821 0.268494 0.580032
947 4 0.194074 0.270991 0.57283
946 2 0.174202 0.285026 0.5786
858 4 0.233815 0.255415 0.525973
651 4 0.247917 0.249818 0.51444
267 4 0.363413 0.277284 0.508838
882 4 0.382142 0.333645 0.522807
954 4 0.469332 0.262933 0.589399
1010 4 0.464444 0.284453 0.505325
502 2 0.195807 0.382233 0.502924
503 4 0.204599 0.363277 0.516656
803 4 0.272184 0.357241 0.573498
804 4 0.274845 0.366557 0.524439
802 2 0.273515 0.361899 0.548968
930 4 0.329907 0.387653 0.581337
928 2 0.348784 0.390127 0.565128
929 4 0.36766 0.3926 0.548919
881 4 0.36267 0.377282 0.53755
880 2 0.372406 0.355464 0.530178
926 4 0.426433 0.410916 0.588887
539 4 0.109679 0.433712 0.552031
540 4 0.103507 0.478697 0.572982
2244 4 0.111099 0.495695 0.570129
538 2 0.106593 0.456204 0.562506
1160 4 0.119845 0.481637 0.581091
2154 4 0.229386 0.497956 0.551643
1909 2 0.450321 0.487238 0.571058
1911 4 0.467638 0.474092 0.583406
1081 2 0.0730241 0.0714492 0.6436
1083 4 0.07366 0.0782178 0.619538
1126 2 0.0328081 0.0785502 0.608032
1127 4 0.053104 0.0743622 0.622022
1082 4 0.0723881 0.0646806 0.667661
938 4 0.0790515 0.0731492 0.600037
950 4 0.300248 0.0247372 0.60665
3008 4 0.490767 0.0539007 0.605844
809 4 0.476157 0.0400647 0.608674
808 2 0.470146 0.0505126 0.63058
810 4 0.464136 0.0609606 0.652487
1128 4 0.0125121 0.0827383 0.594042
1272 4 0.0628879 0.166378 0.586038
1221 4 0.156697 0.147803 0.593553
937 2 0.0859072 0.0905194 0.58341
1219 2 0.178201 0.159766 0.597987
1220 4 0.199704 0.171729 0.602421
888 4 0.253363 0.166615 0.658446
1192 2 0.329446 0.150174 0.647777
886 2 0.276618 0.158633 0.662993
1194 4 0.31789 0.155049 0.669408
1193 4 0.341002 0.145299 0.626147
45 3 0.460203 0.0832518 0.653933
877 2 0.0534306 0.20801 0.586158
1244 4 0.0537879 0.23978 0.594758
879 4 0.0615104 0.185322 0.592878
1212 4 0.208097 0.168177 0.620734
1210 2 0.221085 0.170533 0.641969
1211 4 0.234073 0.172889 0.663204
982 2 0.00856929 0.298901 0.592081
983 4 0.0264719 0.285197 0.602892
1245 4 0.0460064 0.288037 0.605316
1243 2 0.0498971 0.263909 0.600037
3263 4 0.0446153 0.333049 0.672234
948 4 0.15433 0.299061 0.58437
1135 2 0.1582 0.329355 0.614443
822 4 0.155439 0.323046 0.653595
820 2 0.14887 0.300733 0.662768
1136 4 0.158201 0.308304 0.60095
796 2 0.231616 0.271351 0.595037
797 4 0.251412 0.274208 0.610042
791 4 0.2678 0.285445 0.605288
790 2 0.270748 0.31002 0.601745
792 4 0.273697 0.334595 0.598202
872 4 0.326512 0.279434 0.603008
871 2 0.349288 0.289246 0.599823
813 4 0.383725 0.315095 0.598239
873 4 0.372065 0.299058 0.596637
3123 4 0.490399 0.256537 0.658825
952 2 0.485646 0.280293 0.596994
1041 4 0.0417477 0.37264 0.627542
3264 4 0.0433129 0.375904 0.646495
3240 4 0.02756 0.381987 0.635605
3238 2 0.00987209 0.396423 0.645798
1039 2 0.0622315 0.376547 0.613747
3262 2 0.0439641 0.354476 0.659365
1064 4 0.159148 0.342554 0.646246
1137 4 0.158199 0.350406 0.627935
1040 4 0.0827153 0.380455 0.599951
993 4 0.103664 0.381258 0.601296
991 2 0.125357 0.373097 0.610677
992 4 0.147049 0.364935 0.620058
897 4 0.166252 0.36568 0.61977
1189 2 0.250607 0.366838 0.599883
896 4 0.211558 0.385589 0.612579
895 2 0.188905 0.375635 0.616174
1172 4 0.235937 0.394292 0.594048
1191 4 0.231305 0.381047 0.607005
1238 4 0.288968 0.345665 0.59834
1190 4 0.269909 0.352629 0.59276
1239 4 0.323426 0.381869 0.599959
1237 2 0.306197 0.363767 0.599149
811 2 0.383044 0.339669 0.602801
1204 2 0.385104 0.381308 0.641982
1205 4 0.392753 0.383533 0.665682
1206 4 0.377456 0.379082 0.618281
927 4 0.388007 0.38119 0.600744
812 4 0.382362 0.364244 0.607362
925 2 0.40722 0.396053 0.594815
1002 4 0.446356 0.412892 0.594385
1159 2 0.142763 0.488303 0.58854
1161 4 0.165682 0.494969 0.595989
1188 4 0.168632 0.481052 0.610433
1171 2 0.228133 0.417911 0.596578
1186 2 0.187813 0.465019 0.610879
1173 4 0.22033 0.441531 0.599108
1187 4 0.206994 0.448986 0.611324
1001 4 0.456201 0.461912 0.595274
1000 2 0.451279 0.437402 0.594829
1269 4 0.46686 0.47624 0.602048
1267 2 0.463629 0.486438 0.624648
943 2 0.0536322 0.0266718 0.683949
1076 4 0.0748748 0.0552687 0.684261
1075 2 0.0742355 0.0748958 0.699739
945 4 0.0489053 0.00347339 0.675907
944 4 0.0583592 0.0498702 0.691991
824 4 0.195402 0.00484351 0.672289
1283 4 0.181046 0.0662264 0.702009
825 4 0.189686 0.0488297 0.695381
1149 4 0.242838 0.0503146 0.717837
823 2 0.192544 0.0268366 0.683835
1147 2 0.240508 0.0660821 0.698572
1148 4 0.238179 0.0818496 0.679307
1048 2 0.329298 0.00131819 0.75048
1092 4 0.306938 0.995613 0.670924
4581 4 0.502609 0.00647917 0.738667
41 1 0.456067 0.0737936 0.674233
43 3 0.433783 0.0767838 0.679968
42 3 0.460502 0.0512487 0.673132
1163 4 0.473166 0.0603734 0.68918
1162 2 0.485579 0.0448822 0.704382
2321 4 0.493639 0.0241994 0.739097
44 3 0.469747 0.0833509 0.690355
864 4 0.0691096 0.0927008 0.733631
1077 4 0.0735961 0.094523 0.715216
851 4 0.0739515 0.113216 0.712252
850 2 0.061883 0.132877 0.702609
852 4 0.0498146 0.152537 0.692966
1107 4 0.0833879 0.105839 0.727717
862 2 0.0495564 0.0885548 0.748653
1105 2 0.102421 0.105061 0.743913
1282 2 0.173929 0.0895598 0.707493
1284 4 0.166812 0.112893 0.712978
909 4 0.167249 0.12747 0.699556
907 2 0.187258 0.140665 0.692436
908 4 0.207267 0.15386 0.685317
1227 4 0.217897 0.135754 0.68126
1225 2 0.233416 0.116674 0.676753
1226 4 0.248935 0.0975948 0.672245
887 4 0.299873 0.15065 0.66754
829 2 0.307278 0.122573 0.691896
1005 4 0.32128 0.100083 0.71135
830 4 0.310335 0.146218 0.684365
831 4 0.304221 0.0989272 0.699427
1003 2 0.341386 0.0885987 0.720785
1004 4 0.361493 0.0771145 0.730221
3424 2 0.486776 0.113228 0.665835
3425 4 0.469875 0.0956247 0.671281
1113 4 0.497549 0.104252 0.729878
1111 2 0.483329 0.092611 0.746833
1073 4 0.0736057 0.253273 0.744777
1130 4 0.140415 0.245241 0.737493
1208 4 0.13319 0.235158 0.722401
1074 4 0.121079 0.239935 0.736462
1207 2 0.139278 0.248051 0.701862
1072 2 0.0973423 0.246604 0.740619
976 2 0.325973 0.22781 0.739304
978 4 0.346714 0.232117 0.726021
1025 4 0.426575 0.168226 0.674052
1024 2 0.438981 0.179482 0.692614
1142 4 0.442467 0.184353 0.726845
1144 2 0.485111 0.178803 0.723542
1262 4 0.459845 0.206852 0.713525
1026 4 0.451387 0.190739 0.711176
1261 2 0.467785 0.230541 0.712547
1145 4 0.46252 0.189286 0.725761
1177 2 0.0127662 0.258894 0.722228
1179 4 0.0342218 0.271087 0.726247
821 4 0.142301 0.27842 0.671942
1209 4 0.145365 0.260944 0.681322
1019 4 0.389034 0.272903 0.700009
1018 2 0.375943 0.293756 0.695655
1020 4 0.362853 0.31461 0.691301
1263 4 0.475725 0.254231 0.711569
892 2 0.020188 0.35566 0.736625
1279 2 0.0541299 0.407631 0.737029
894 4 0.0408272 0.369708 0.737991
1280 4 0.0549766 0.382666 0.738122
816 4 0.0583544 0.36719 0.748682
814 2 0.0807427 0.356144 0.750071
815 4 0.103131 0.345098 0.751461
1063 2 0.178185 0.347166 0.661787
1065 4 0.197222 0.351778 0.677327
807 4 0.21217 0.366133 0.672032
1028 4 0.211174 0.392222 0.713676
1066 2 0.190137 0.366703 0.739222
1068 4 0.201953 0.374194 0.718499
1027 2 0.225382 0.409624 0.702699
805 2 0.230543 0.35499 0.684816
806 4 0.248916 0.343847 0.697601
1281 4 0.0532831 0.432597 0.735936
2016 4 0.14059 0.490945 0.727583
1176 4 0.160766 0.486578 0.731431
2172 4 0.170007 0.482749 0.672184
1140 4 0.239279 0.4341 0.672651
1175 4 0.208742 0.475997 0.740763
1174 2 0.184754 0.481287 0.736097
1029 4 0.23959 0.427025 0.691722
1138 2 0.256761 0.450286 0.680238
1139 4 0.274244 0.466472 0.687824
1987 2 0.280799 0.449752 0.733705
1229 4 0.290593 0.469952 0.699162
1989 4 0.281002 0.467856 0.71646
2028 4 0.276426 0.478977 0.701983
1228 2 0.312284 0.460845 0.690693
1230 4 0.333976 0.451739 0.682224
1099 2 0.448047 0.498707 0.686832
1100 4 0.443825 0.492027 0.710554
2989 2 0.0229558 0.0522109 0.785644
2990 4 0.0204851 0.0758715 0.777946
2991 4 0.0254264 0.0285503 0.793341
3083 4 0.0138629 0.0901313 0.763721
2049 4 0.116328 0.0234627 0.776694
1202 4 0.1049 0.0391476 0.782816
1201 2 0.120078 0.0589017 0.784961
1203 4 0.135255 0.0786558 0.787107
32 3 0.150521 0.0805922 0.802137
819 4 0.327058 0.0731591 0.801204
2364 4 0.384374 0.995598 0.821959
817 2 0.334355 0.0494429 0.798127
1050 4 0.340841 0.0167359 0.766424
973 2 0.369866 0.00679203 0.79069
818 4 0.341653 0.0257268 0.79505
974 4 0.353895 0.02264 0.779783
2322 4 0.470066 0.0454693 0.777732
845 4 0.473174 0.0643521 0.773762
1112 4 0.469109 0.0809704 0.763788
844 2 0.468701 0.0726131 0.796934
2320 2 0.481853 0.0348343 0.758414
846 4 0.464229 0.0808741 0.820106
863 4 0.0300033 0.0844088 0.763676
833 4 0.0226206 0.0943635 0.780177
832 2 0.0265852 0.1111 0.798325
834 4 0.0305499 0.127836 0.816474
1125 4 0.046188 0.137512 0.823642
1106 4 0.121455 0.104283 0.760109
911 4 0.144206 0.0977423 0.815143
34 3 0.136048 0.0978259 0.772035
31 1 0.15119 0.0998047 0.789504
35 3 0.145658 0.117593 0.802605
33 3 0.172652 0.102523 0.781115
1256 4 0.223418 0.110094 0.811235
840 4 0.222579 0.123528 0.825698
1255 2 0.240855 0.098365 0.797686
1085 4 0.319557 0.090891 0.802777
1257 4 0.258292 0.086636 0.784137
1084 2 0.296545 0.0951086 0.793956
1086 4 0.273532 0.0993263 0.785134
960 4 0.32919 0.0838335 0.818152
48 3 0.403948 0.165703 0.774356
47 3 0.412656 0.165788 0.810918
1023 4 0.422102 0.15809 0.827565
1129 2 0.160979 0.241066 0.75109
1131 4 0.181543 0.236892 0.764687
1277 4 0.192735 0.245133 0.7803
977 4 0.305232 0.223504 0.752587