ITEM: TIMESTEP
2390000
ITEM: NUMBER OF ATOMS
4590
ITEM: BOX BOUNDS pp pp pp
-9.9985700000000008e+00 9.9985700000000008e+00
-9.9985700000000008e+00 9.9985700000000008e+00
-9.9985700000000008e+00 9.9985700000000008e+00
ITEM: ATOMS id type xs ys zs
2974 2 0.463169 0.0139726 0.0080214
745 2 0.43574 0.0662173 0.0143095
747 4 0.44388 0.0428566 0.0179421
2975 4 0.44934 0.0338958 0.0019379
986 4 0.430866 0.0322164 0.00524878
1667 4 0.0372007 0.0935078 0.0692338
701 4 0.0205139 0.106732 0.0667765
700 2 0.0333835 0.125954 0.0762655
566 4 0.199465 0.143102 0.0430705
565 2 0.212576 0.153239 0.0243485
297 4 0.331522 0.107555 0.0355364
295 2 0.349028 0.108759 0.0177251
556 2 0.404904 0.115078 0.00479716
558 4 0.428538 0.109039 0.0102876
746 4 0.4276 0.0895779 0.0106768
555 4 0.0267999 0.246648 0.993228
738 4 0.220544 0.201296 0.075602
770 4 0.399354 0.188297 0.0202438
359 4 0.380118 0.189837 0.0160178
664 2 0.392602 0.214261 0.0494496
665 4 0.386787 0.197207 0.0321138
666 4 0.398416 0.231315 0.0667854
323 4 0.409067 0.247187 0.0731429
358 2 0.356877 0.186657 0.0073607
769 2 0.414192 0.177968 0.0029715
360 4 0.333637 0.183478 0.998704
292 2 0.136429 0.30637 0.0387195
507 4 0.168622 0.31439 0.0608399
293 4 0.156014 0.317427 0.0496435
294 4 0.116844 0.295313 0.0277954
552 4 0.15404 0.323681 0.0675218
455 4 0.166961 0.332189 0.0539277
287 4 0.17289 0.315374 0.0425241
286 2 0.190598 0.313044 0.0250266
505 2 0.182578 0.302433 0.0777939
481 2 0.223413 0.265854 0.0699272
482 4 0.239641 0.249464 0.0602737
288 4 0.208307 0.310715 0.00752909
573 4 0.243441 0.251924 0.0408877
571 2 0.262956 0.256826 0.0260448
572 4 0.282471 0.261728 0.0112018
357 4 0.299698 0.26313 0.000825684
956 4 0.337395 0.31255 0.00799026
1069 2 0.413357 0.312381 0.0341722
322 2 0.419473 0.262286 0.0561452
955 2 0.356258 0.323006 0.0206407
957 4 0.375121 0.333462 0.0332911
1071 4 0.394437 0.328726 0.0340238
324 4 0.429878 0.277385 0.0391475
1070 4 0.432278 0.296035 0.0343206
280 2 0.458337 0.302273 0.0658279
282 4 0.4504 0.30076 0.042166
454 2 0.163458 0.354645 0.0435055
456 4 0.159955 0.377101 0.0330832
1290 4 0.26992 0.397138 0.0253094
250 2 0.267094 0.404493 0.0649855
1288 2 0.272614 0.379617 0.00767656
251 4 0.265659 0.408762 0.0403909
741 4 0.384849 0.332498 0.0500314
739 2 0.383696 0.339112 0.0741167
1788 4 0.0737618 0.482208 0.0498446
1786 2 0.0936904 0.49632 0.0444722
626 4 0.211436 0.488162 0.0704846
625 2 0.186787 0.491053 0.06745
245 4 0.219835 0.471414 0.0659455
244 2 0.228392 0.449605 0.0572087
246 4 0.23695 0.427797 0.048472
272 4 0.254239 0.424773 0.0392192
271 2 0.259446 0.431648 0.0157499
1672 2 0.397232 0.438377 0.0721577
853 2 0.393534 0.437638 0.0135828
1674 4 0.399675 0.447307 0.0489313
854 4 0.407673 0.438351 0.0341925
564 4 0.417011 0.453576 0.0443898
563 4 0.455129 0.479662 0.025227
562 2 0.43607 0.466619 0.0348084
228 4 0.473092 0.487939 0.0258511
226 2 0.493126 0.481603 0.0394037
1666 2 0.0346136 0.0695235 0.0758096
1668 4 0.0320266 0.0455393 0.0823854
19 3 0.0513885 0.0499601 0.158492
18 3 0.0590669 0.013903 0.149254
491 4 0.27821 0.0727233 0.0915164
490 2 0.265981 0.0509792 0.0931989
1475 4 0.250211 0.0127101 0.105331
492 4 0.253752 0.0292351 0.0948814
486 4 0.396503 0.00890426 0.110869
484 2 0.417042 0.0168923 0.122681
485 4 0.437581 0.0248804 0.134494
2722 2 0.483341 0.0671204 0.151818
2724 4 0.491039 0.0434764 0.154442
1759 2 0.491572 0.022257 0.116026
1760 4 0.488275 0.0307191 0.139322
1761 4 0.494868 0.0137949 0.0927298
702 4 0.0462531 0.145177 0.0857546
476 4 0.062684 0.150435 0.096913
475 2 0.0632484 0.159621 0.120161
737 4 0.244141 0.166005 0.102029
582 4 0.253144 0.100523 0.170934
628 2 0.379782 0.143877 0.153691
630 4 0.37522 0.16846 0.153949
312 4 0.38989 0.100554 0.156873
629 4 0.384345 0.119295 0.153433
2723 4 0.475643 0.0907644 0.149193
477 4 0.0638128 0.168806 0.14341
339 4 0.0406581 0.231926 0.156868
736 2 0.232342 0.183651 0.0888157
460 2 0.321508 0.231124 0.115038
461 4 0.29795 0.224727 0.109627
354 4 0.279539 0.228641 0.118504
352 2 0.273247 0.236532 0.14138
353 4 0.266955 0.244423 0.164256
623 4 0.393227 0.241113 0.0828302
254 4 0.377124 0.189821 0.152875
462 4 0.345066 0.237522 0.120449
255 4 0.351103 0.229121 0.136167
253 2 0.364114 0.209471 0.144521
765 4 0.355217 0.247541 0.135526
624 4 0.363972 0.239225 0.123343
622 2 0.3786 0.240169 0.103087
483 4 0.207185 0.282244 0.0795806
506 4 0.196534 0.290477 0.0947479
537 4 0.197875 0.294139 0.113585
535 2 0.196705 0.303144 0.136882
536 4 0.195535 0.312148 0.160179
755 4 0.252458 0.255801 0.162762
301 2 0.31759 0.312232 0.145671
302 4 0.314357 0.328143 0.126655
303 4 0.320823 0.296321 0.164686
764 4 0.335179 0.282025 0.165692
763 2 0.345198 0.264783 0.150609
12 3 0.401804 0.325703 0.130074
281 4 0.466275 0.303785 0.0894898
671 4 0.454603 0.316277 0.0984345
527 4 0.473828 0.319495 0.098035
670 2 0.433405 0.327133 0.106049
526 2 0.498741 0.317508 0.0988049
647 4 0.0519252 0.351903 0.158021
550 2 0.140201 0.333175 0.0860565
551 4 0.126362 0.342669 0.104591
289 2 0.234278 0.39915 0.161097
290 4 0.253234 0.415129 0.157851
387 4 0.317268 0.33463 0.10805
252 4 0.268528 0.400224 0.0895801
609 4 0.285509 0.394973 0.099199
607 2 0.302158 0.407178 0.113306
385 2 0.341057 0.341263 0.104145
493 2 0.384587 0.388236 0.0991562
495 4 0.384155 0.363423 0.102203
386 4 0.364847 0.347896 0.100239
15 3 0.369197 0.335918 0.115063
740 4 0.382543 0.345726 0.0982021
672 4 0.412208 0.337989 0.113663
14 3 0.400052 0.35651 0.108614
11 1 0.388622 0.343596 0.124138
13 3 0.384075 0.356178 0.143096
1791 4 0.0435932 0.492778 0.136745
1466 4 0.0488398 0.475089 0.13026
1465 2 0.0697427 0.46685 0.119289
1467 4 0.0906456 0.458611 0.108318
638 4 0.236421 0.479642 0.118921
766 2 0.237125 0.452646 0.145717
768 4 0.248819 0.434671 0.158574
767 4 0.225431 0.470622 0.13286
608 4 0.318807 0.419383 0.127414
659 4 0.3298 0.43164 0.11485
494 4 0.385018 0.41305 0.0961097
660 4 0.37619 0.431428 0.0961786
1673 4 0.394789 0.429446 0.0953842
658 2 0.352995 0.431534 0.105514
1559 4 0.381886 0.487428 0.13753
524 4 0.399151 0.477171 0.141174
523 2 0.394583 0.461537 0.122204
525 4 0.390015 0.445903 0.103233
595 2 0.470552 0.439951 0.160561
596 4 0.477664 0.448006 0.137984
16 1 0.0549634 0.0285747 0.166755
17 3 0.036096 0.0216844 0.177967
2480 4 0.0169204 0.0165555 0.178069
2479 2 0.00641651 0.0348159 0.191538
20 3 0.0726244 0.0286519 0.181133
1422 4 0.0112976 0.997187 0.179995
2481 4 0.995913 0.0530763 0.205007
578 4 0.0697622 0.0501236 0.172273
380 4 0.99978 0.0722611 0.19657
577 2 0.0853247 0.0688878 0.17783
689 4 0.168785 0.0163049 0.214019
674 4 0.155036 0.0192985 0.227625
673 2 0.137983 0.00760019 0.241679
1506 4 0.253989 0.0137141 0.18474
581 4 0.292498 0.0738798 0.155372
654 4 0.254179 0.0329126 0.19092
580 2 0.272821 0.0872013 0.163153
652 2 0.276954 0.0347825 0.201068
653 4 0.299729 0.0366525 0.211215
25 3 0.337381 0.0473784 0.249029
758 4 0.354983 0.073903 0.197503
759 4 0.355193 0.061967 0.246064
757 2 0.355088 0.067935 0.221783
311 4 0.363319 0.0660667 0.181476
379 2 0.0117994 0.0924343 0.187982
511 2 0.0499254 0.149267 0.182389
512 4 0.0315177 0.132371 0.181449
381 4 0.0238184 0.112608 0.179393
513 4 0.068333 0.166162 0.183329
450 4 0.116579 0.0997179 0.177201
579 4 0.100887 0.087652 0.183388
448 2 0.141158 0.10352 0.179772
393 4 0.0776557 0.173318 0.201465
237 4 0.232836 0.0971243 0.167037
235 2 0.208333 0.101342 0.169687
236 4 0.183831 0.10556 0.172337
449 4 0.165737 0.107322 0.182342
28 3 0.313653 0.137768 0.230748
26 1 0.32506 0.152921 0.244115
30 3 0.31129 0.170132 0.249845
310 2 0.376604 0.0833103 0.169174
27 3 0.343014 0.161178 0.232342
521 4 0.494692 0.118853 0.206786
762 4 0.480849 0.120281 0.220219
760 2 0.460388 0.126301 0.233267
761 4 0.439926 0.13232 0.246316
337 2 0.0385751 0.240656 0.180205
391 2 0.0975245 0.185076 0.191866
392 4 0.117393 0.196834 0.182266
279 4 0.263539 0.214756 0.218266
277 2 0.262399 0.230652 0.198999
278 4 0.261259 0.246548 0.179733
394 2 0.0116454 0.260176 0.232023
395 4 0.0255267 0.275242 0.217688
338 4 0.0364921 0.249386 0.203543
363 4 0.0404496 0.267906 0.206363
361 2 0.0501148 0.290954 0.207108
749 4 0.0491265 0.330818 0.214775
648 4 0.0629077 0.329291 0.201251
362 4 0.05978 0.314002 0.207854
372 4 0.0775179 0.318102 0.196863
370 2 0.10106 0.317188 0.205237
371 4 0.124601 0.316275 0.213612
734 4 0.138876 0.317881 0.228771
754 2 0.243909 0.276804 0.173297
756 4 0.235359 0.297806 0.183832
611 4 0.24449 0.320236 0.241469
610 2 0.243954 0.317257 0.21665
612 4 0.243418 0.314278 0.19183
284 4 0.28013 0.250782 0.176759
283 2 0.298119 0.268147 0.176741
285 4 0.316109 0.285513 0.176724
308 4 0.329388 0.292062 0.181166
729 4 0.313826 0.303124 0.182841
727 2 0.297825 0.317912 0.195107
728 4 0.281823 0.332699 0.207374
307 2 0.340955 0.287891 0.202937
309 4 0.352523 0.28372 0.224707
498 4 0.334208 0.2796 0.232561
748 2 0.0595317 0.337299 0.236568
646 2 0.0574165 0.340597 0.179636
417 4 0.156626 0.404038 0.193162
291 4 0.215322 0.383172 0.164344
416 4 0.195243 0.384492 0.168115
415 2 0.175934 0.394265 0.180638
446 4 0.387479 0.359921 0.241925
445 2 0.408605 0.365496 0.22977
447 4 0.429732 0.371071 0.217614
644 4 0.43894 0.388282 0.220779
643 2 0.453725 0.405096 0.209648
1757 4 0.0335623 0.454083 0.238871
414 4 0.231437 0.472759 0.218877
412 2 0.223875 0.46097 0.239589
645 4 0.468509 0.421909 0.198516
597 4 0.463441 0.431896 0.183138
229 2 0.462958 0.477669 0.230359
231 4 0.473289 0.454918 0.231259
2755 2 0.0106233 0.0673351 0.315971
234 4 0.0248334 0.0539314 0.276294
232 2 0.0474996 0.0453035 0.282375
233 4 0.0701658 0.0366756 0.288456
2756 4 0.018166 0.0569339 0.294521
2478 4 0.00630701 0.0558427 0.278732
1404 4 0.0799942 0.0221362 0.296248
1403 4 0.102313 0.999526 0.25763
317 4 0.0823844 0.0398018 0.303414
428 4 0.0842157 0.0237197 0.315198
316 2 0.0934432 0.0604005 0.312278
1402 2 0.0911537 0.0108312 0.276939
318 4 0.104502 0.0809992 0.321142
427 2 0.0925249 0.00798266 0.332762
606 4 0.159278 0.0873581 0.341986
693 4 0.263254 0.0539234 0.240451
691 2 0.265307 0.0741052 0.255069
24 3 0.331128 0.0602518 0.283855
350 4 0.370097 0.0739889 0.252429
21 1 0.346929 0.0515006 0.26929
23 3 0.355751 0.0318955 0.27802
22 3 0.363919 0.0667888 0.266689
349 2 0.394708 0.0729701 0.256719
480 4 0.433108 0.0589242 0.256387
351 4 0.41932 0.0719513 0.261009
479 4 0.453154 0.0264743 0.288727
478 2 0.443131 0.0426993 0.272557
2664 4 0.470645 0.0211942 0.293633
1428 4 0.451992 0.0162843 0.302013
258 4 0.441605 0.0331773 0.303094
2662 2 0.494119 0.0284239 0.288959
256 2 0.433729 0.0384574 0.326229
397 2 0.0798562 0.110218 0.338501
731 4 0.162408 0.100386 0.325317
730 2 0.138084 0.0985094 0.319844
732 4 0.113759 0.0966325 0.314371
399 4 0.0995246 0.0982506 0.328748
721 2 0.267487 0.101974 0.311647
692 4 0.267359 0.0942871 0.269686
723 4 0.270749 0.0932893 0.288428
722 4 0.264225 0.110658 0.334866
29 3 0.332857 0.142321 0.263227
632 4 0.365265 0.0860016 0.26079
631 2 0.352111 0.106638 0.265919
707 4 0.339882 0.147553 0.276702
633 4 0.338956 0.127274 0.271048
706 2 0.345536 0.160165 0.297539
443 4 0.00141832 0.249152 0.264684
546 4 0.145596 0.198868 0.268016
544 2 0.167588 0.208944 0.261691
545 4 0.18958 0.219021 0.255366
402 4 0.18133 0.237881 0.257241
708 4 0.35119 0.172776 0.318375
419 4 0.4052 0.234586 0.323967
442 2 0.00697701 0.259437 0.286786
444 4 0.0125357 0.269722 0.308889
733 2 0.159023 0.312782 0.242674
299 4 0.130758 0.327602 0.244983
344 4 0.240785 0.312882 0.260262
343 2 0.217008 0.306713 0.26493
400 2 0.181713 0.261193 0.266273
401 4 0.182096 0.284506 0.275304
676 2 0.169697 0.309288 0.297354
345 4 0.193231 0.300545 0.269598
677 4 0.17485 0.301949 0.274014
735 4 0.17917 0.307683 0.256576
678 4 0.164544 0.316627 0.320694
510 4 0.175454 0.33231 0.327302
378 4 0.276511 0.258486 0.309114
376 2 0.293433 0.275718 0.302642
496 2 0.323087 0.284395 0.254436
497 4 0.311967 0.289189 0.276311
377 4 0.310356 0.292949 0.296171
541 2 0.373072 0.293533 0.285355
542 4 0.389151 0.27447 0.283546
420 4 0.40749 0.26492 0.284276
543 4 0.356993 0.312595 0.287163
615 4 0.338668 0.322393 0.290161
418 2 0.406345 0.249753 0.304122
364 2 0.0107652 0.375709 0.300699
365 4 0.0352637 0.37922 0.297138
601 2 0.0463245 0.407261 0.328525
603 4 0.04219 0.395758 0.306714
750 4 0.0699369 0.34378 0.25836
298 2 0.109464 0.334273 0.256262
300 4 0.0881693 0.340944 0.267542
508 2 0.187407 0.354217 0.32575
509 4 0.199359 0.376124 0.324199
434 4 0.318 0.372795 0.324372
614 4 0.330356 0.367222 0.310704
613 2 0.334512 0.344807 0.300432
1758 4 0.0733873 0.473382 0.262157
1756 2 0.0534748 0.463733 0.250514
264 4 0.0230208 0.448581 0.257444
776 4 0.0540548 0.488187 0.326403
775 2 0.0646903 0.495907 0.305131
1775 4 0.0778783 0.491695 0.268921
413 4 0.216313 0.449181 0.260302
1436 4 0.222646 0.431376 0.267006
1435 2 0.23696 0.432249 0.287488
1437 4 0.251274 0.433122 0.307971
4 3 0.262869 0.429044 0.32291
3 3 0.282966 0.461298 0.323282
1 1 0.275115 0.443652 0.33614
436 2 0.324073 0.455704 0.327698
1801 2 0.370706 0.488889 0.312089
1802 4 0.356273 0.47756 0.329075
437 4 0.347874 0.460883 0.322052
119 3 0.491983 0.466885 0.321876
604 2 0.182164 0.0781143 0.345983
605 4 0.205049 0.0688704 0.34998
248 4 0.220186 0.0766509 0.362903
441 4 0.328254 0.00158899 0.407162
1701 4 0.338204 0.00118017 0.390857
699 4 0.357937 0.0519546 0.350347
698 4 0.407374 0.0480276 0.343922
1699 2 0.341532 0.0192095 0.373855
1700 4 0.34486 0.0372388 0.356854
697 2 0.382655 0.0499911 0.347135
725 4 0.405102 0.0853115 0.413201
257 4 0.425852 0.0437375 0.349365
2585 4 0.00675166 0.0933349 0.350937
398 4 0.0601879 0.122186 0.348253
2584 2 0.0267653 0.107278 0.356434
2586 4 0.046779 0.121222 0.36193
458 4 0.0431617 0.121601 0.382065
457 2 0.0390418 0.135383 0.402516
600 4 0.11653 0.135366 0.366886
598 2 0.118885 0.15961 0.37253
247 2 0.23794 0.0934497 0.357632
403 2 0.249453 0.147925 0.341528
249 4 0.255694 0.110248 0.352361
404 4 0.261637 0.126415 0.345273
683 4 0.266283 0.123299 0.363808
682 2 0.288967 0.12596 0.373982
684 4 0.311652 0.12862 0.384155
320 4 0.323339 0.140972 0.37433
319 2 0.333531 0.153843 0.355472
724 2 0.387996 0.100757 0.403506
717 4 0.40299 0.166678 0.344187
726 4 0.370889 0.116202 0.393811
321 4 0.343723 0.166713 0.336613
715 2 0.394266 0.169792 0.367411
716 4 0.385543 0.172907 0.390636
599 4 0.12124 0.183854 0.378175
389 4 0.125558 0.218004 0.376695
686 4 0.118237 0.20201 0.386023
685 2 0.103129 0.201101 0.405926
275 4 0.132644 0.199868 0.377061
274 2 0.157058 0.200755 0.371736
388 2 0.117921 0.241126 0.371017
473 4 0.225536 0.184171 0.341156
405 4 0.23727 0.169436 0.337783
474 4 0.185904 0.213003 0.351095
472 2 0.20572 0.198587 0.346125
276 4 0.181472 0.201642 0.366411
467 4 0.391846 0.164798 0.40904
269 4 0.405008 0.220521 0.340157
270 4 0.450779 0.228124 0.358811
452 4 0.458399 0.23666 0.375228
268 2 0.427894 0.224323 0.349484
451 2 0.464486 0.227626 0.397734
453 4 0.470573 0.218593 0.42024
347 4 0.0678202 0.314312 0.387588
618 4 0.0852857 0.320793 0.395238
346 2 0.0478296 0.327741 0.394313
375 4 0.149425 0.310523 0.333474
616 2 0.0973132 0.302299 0.383468
390 4 0.110284 0.264248 0.36534
617 4 0.109341 0.283806 0.371698
374 4 0.122203 0.277625 0.359501
373 2 0.135814 0.294074 0.346487
348 4 0.0278391 0.341169 0.401039
549 4 0.0543019 0.412155 0.369669
433 2 0.298241 0.386188 0.331813
435 4 0.278481 0.399581 0.339254
334 2 0.318748 0.370971 0.405683
238 2 0.36722 0.385635 0.382273
239 4 0.383426 0.400722 0.370658
587 4 0.390529 0.415635 0.356825
335 4 0.333845 0.360645 0.388636
240 4 0.351014 0.370548 0.393889
752 4 0.468157 0.399656 0.381394
561 4 0.475722 0.382053 0.388481
559 2 0.491715 0.377151 0.407066
602 4 0.0504591 0.418765 0.350337
500 4 0.0632778 0.49701 0.340396
499 2 0.0700561 0.483358 0.360216
547 2 0.0646442 0.428783 0.385216
501 4 0.0768343 0.469706 0.380037
548 4 0.0749866 0.445412 0.400764
407 4 0.0881162 0.454659 0.388637
406 2 0.105709 0.460569 0.405392
636 4 0.302651 0.493952 0.404097
438 4 0.300273 0.450524 0.333345
5 3 0.262104 0.451563 0.353075
2 3 0.293076 0.432358 0.345027
1557 4 0.292019 0.493061 0.38849
586 2 0.400209 0.436942 0.365626
593 4 0.400651 0.476627 0.374882
588 4 0.40989 0.45825 0.374427
751 2 0.477548 0.418007 0.367244
592 2 0.417037 0.490621 0.3622
712 2 0.465895 0.492803 0.338071
714 4 0.483954 0.475551 0.339261
753 4 0.48694 0.436357 0.353093
117 3 0.484456 0.458807 0.357803
1772 4 0.00365124 0.00628584 0.443133
720 4 0.0160459 0.0155642 0.454822
369 4 0.0791502 0.0196861 0.463449
719 4 0.0625403 0.0218608 0.472123
718 2 0.0392931 0.0187125 0.463473
1781 4 0.127171 0.0164204 0.421175
367 2 0.0937039 0.0198006 0.443118
368 4 0.108258 0.0199152 0.422787
341 4 0.180902 0.0113453 0.514645
962 4 0.33431 0.011524 0.421931
961 2 0.327593 0.0287131 0.438801
963 4 0.320876 0.0459021 0.455671
432 4 0.30666 0.0595413 0.456617
430 2 0.315952 0.0680204 0.478226
431 4 0.325245 0.0764996 0.499834
1216 2 0.41017 0.0593061 0.486662
1218 4 0.42809 0.0608051 0.46929
459 4 0.0349219 0.149165 0.422968
640 2 0.482507 0.0997889 0.436446
641 4 0.45969 0.104434 0.445555
260 4 0.0358889 0.167673 0.432776
259 2 0.0558766 0.182083 0.43702
1033 2 0.0779498 0.233373 0.44906
261 4 0.0758643 0.196494 0.441264
687 4 0.0880217 0.200192 0.425829
1035 4 0.077329 0.214271 0.432939
488 4 0.318839 0.247966 0.420525
487 2 0.332441 0.243157 0.440947
466 2 0.400101 0.181827 0.425382
468 4 0.408357 0.198856 0.441723
411 4 0.359469 0.226537 0.47222
409 2 0.38148 0.216987 0.465184
410 4 0.40349 0.207437 0.458147
266 4 0.350086 0.241406 0.479798
489 4 0.346043 0.238347 0.461368
575 4 0.413647 0.208789 0.474263
516 4 0.420121 0.209542 0.454678
574 2 0.422286 0.195861 0.493844
514 2 0.442747 0.217001 0.447089
515 4 0.465374 0.22446 0.439501
696 4 0.0707349 0.253337 0.482442
2847 4 0.0155907 0.321245 0.439832
2802 4 0.0184749 0.305837 0.427884
325 2 0.0848046 0.338609 0.474486
1034 4 0.0785706 0.252476 0.465182
326 4 0.0621449 0.348576 0.478006
1260 4 0.0863877 0.265135 0.478157
1258 2 0.100562 0.285405 0.474496
1259 4 0.114736 0.305675 0.470836
9 3 0.132842 0.304243 0.453052
7 3 0.120827 0.318425 0.48572
6 1 0.132243 0.323254 0.466342
327 4 0.107464 0.328643 0.470967
8 3 0.15383 0.329797 0.471785
265 2 0.351972 0.25858 0.497873
2457 4 0.466963 0.26841 0.501253
1011 4 0.46638 0.324383 0.481285
3308 4 0.479734 0.33861 0.4764
1009 2 0.45882 0.301637 0.488401
2845 2 0.000913414 0.339913 0.44766
10 3 0.121561 0.340092 0.455341
336 4 0.303651 0.381298 0.422731
668 4 0.313523 0.398762 0.423077
3307 2 0.493381 0.350159 0.45892
1381 2 0.0121745 0.488851 0.463872
569 4 0.134497 0.467314 0.436998
383 4 0.128824 0.449655 0.429023
711 4 0.120381 0.413963 0.488878
568 2 0.152581 0.48403 0.441325
709 2 0.144019 0.412876 0.496957
384 4 0.122684 0.421717 0.470041
408 4 0.123302 0.466479 0.422148
382 2 0.125754 0.435686 0.449532
570 4 0.170665 0.500746 0.445652
669 4 0.321033 0.446413 0.436255
634 2 0.316006 0.478406 0.41842
635 4 0.32936 0.46286 0.432743
667 2 0.317278 0.422588 0.429666
774 4 0.331687 0.453243 0.450013
772 2 0.34698 0.45006 0.469536
773 4 0.362274 0.446877 0.489059
663 4 0.502445 0.486245 0.458278
1152 4 0.204898 0.0555217 0.529524
342 4 0.185544 0.0570946 0.534297
340 2 0.183223 0.03422 0.524471
1150 2 0.219617 0.0725177 0.540464
1217 4 0.392249 0.0578071 0.504035
842 4 0.384622 0.049262 0.521037
841 2 0.36192 0.0583255 0.515783
843 4 0.339217 0.067389 0.510529
3007 2 0.492545 0.0577342 0.574706
1271 4 0.0922876 0.133315 0.574194
1058 4 0.0723076 0.129483 0.510163
1057 2 0.0840323 0.12979 0.532245
1059 4 0.0957571 0.130097 0.554327
1155 4 0.109508 0.130754 0.567301
939 4 0.0956122 0.116016 0.566675
1153 2 0.131519 0.142372 0.564915
1154 4 0.153531 0.15399 0.562529
1221 4 0.165966 0.153171 0.578837
1151 4 0.234336 0.0895136 0.551404
1180 2 0.227004 0.121928 0.560852
1181 4 0.219583 0.0980985 0.562361
1182 4 0.234424 0.145757 0.559342
900 4 0.220362 0.15893 0.552895
1031 4 0.289095 0.0809117 0.580974
1032 4 0.253475 0.0927319 0.547925
1030 2 0.271285 0.0868218 0.564449
1198 2 0.0113544 0.234837 0.559057
1199 4 0.0335296 0.238975 0.569842
878 4 0.0491676 0.236162 0.58147
695 4 0.0758157 0.232273 0.527511
694 2 0.0732753 0.242805 0.504976
898 2 0.237283 0.1772 0.550647
649 2 0.249197 0.21876 0.518707
651 4 0.236783 0.237708 0.508122
899 4 0.254205 0.19547 0.548399
650 4 0.26161 0.199812 0.529292
576 4 0.430925 0.182934 0.513426
2456 4 0.498891 0.231039 0.510458
856 2 0.212723 0.261917 0.535578
857 4 0.197299 0.278142 0.546715
947 4 0.198864 0.269843 0.566255
946 2 0.1839 0.285859 0.578285
858 4 0.228147 0.245693 0.52444
267 4 0.353858 0.275753 0.515948
1010 4 0.45126 0.278891 0.495517
2455 2 0.482927 0.249725 0.505856
502 2 0.201124 0.390798 0.515602
503 4 0.216194 0.371284 0.519756
710 4 0.167656 0.411789 0.505035
504 4 0.186054 0.410313 0.511447
803 4 0.274735 0.36199 0.567232
804 4 0.274377 0.338545 0.523062
802 2 0.274556 0.350267 0.545147
1190 4 0.267429 0.357969 0.585122
882 4 0.376237 0.353028 0.51162
928 2 0.351093 0.390289 0.580623
929 4 0.362992 0.400881 0.56135
881 4 0.362498 0.38746 0.545182
880 2 0.369367 0.370244 0.528401
1002 4 0.434359 0.414814 0.589136
539 4 0.120603 0.429113 0.54913
540 4 0.122978 0.47845 0.556934
2244 4 0.108705 0.489085 0.562713
538 2 0.121791 0.453782 0.553032
1160 4 0.125481 0.497657 0.562308
1159 2 0.146184 0.498689 0.576291
1953 4 0.413032 0.498027 0.534526
1909 2 0.439118 0.489953 0.566449
1910 4 0.428767 0.500162 0.546107
1081 2 0.0802813 0.0616426 0.639606
1083 4 0.0832874 0.0718476 0.616978
1126 2 0.0396937 0.0723866 0.603788
1127 4 0.0635969 0.0710649 0.611004
1128 4 0.0157906 0.0737082 0.596572
3477 4 0.00148116 0.0825735 0.605203
951 4 0.288777 0.0616357 0.582068
949 2 0.297599 0.0474619 0.600681
950 4 0.306421 0.0332881 0.619295
3008 4 0.478595 0.0502371 0.594054
809 4 0.473738 0.0350927 0.607096
808 2 0.468417 0.0482441 0.627685
810 4 0.463096 0.0613954 0.648274
45 3 0.462174 0.0835863 0.651406
1270 2 0.0789493 0.153221 0.581337
938 4 0.0917826 0.0827708 0.603834
937 2 0.0936974 0.0993933 0.585255
1219 2 0.1871 0.155523 0.591989
1211 4 0.233764 0.155156 0.665762
1220 4 0.208234 0.157874 0.605142
1212 4 0.212321 0.166707 0.622087
1210 2 0.223042 0.160932 0.643925
1225 2 0.240734 0.112451 0.668179
1226 4 0.245243 0.087914 0.666506
1194 4 0.316653 0.15301 0.670349
1192 2 0.333175 0.148112 0.652232
1193 4 0.349697 0.143215 0.634116
3424 2 0.493643 0.104493 0.669637
877 2 0.0604328 0.214079 0.584729
1272 4 0.065611 0.173127 0.58848
1244 4 0.0510783 0.237851 0.601828
879 4 0.0716981 0.191996 0.587987
3123 4 0.494125 0.238894 0.650426
983 4 0.00948144 0.284667 0.613146
1245 4 0.0295229 0.2814 0.613641
1243 2 0.0403006 0.259625 0.607735
948 4 0.168935 0.301875 0.590316
1135 2 0.159972 0.321717 0.617737
822 4 0.153092 0.327049 0.657525
820 2 0.148077 0.305054 0.668307
1136 4 0.158361 0.299085 0.607232
798 4 0.217933 0.264877 0.570223
796 2 0.23802 0.270767 0.583897
797 4 0.258108 0.276657 0.597571
791 4 0.261184 0.293898 0.589118
790 2 0.266991 0.318133 0.591152
872 4 0.328397 0.284461 0.60523
871 2 0.348395 0.29946 0.605779
813 4 0.387592 0.310472 0.60513
873 4 0.368392 0.314459 0.606328
811 2 0.394059 0.334617 0.60571
954 4 0.478445 0.253199 0.602067
952 2 0.488632 0.276031 0.602411
1041 4 0.0517556 0.373955 0.633436
3264 4 0.0438541 0.364896 0.650049
3240 4 0.0367601 0.380854 0.642185
3238 2 0.0160055 0.394068 0.637733
1039 2 0.0764255 0.37134 0.630315
3262 2 0.0374229 0.342663 0.65951
1064 4 0.161151 0.343216 0.648837
1137 4 0.161583 0.34435 0.628242
1040 4 0.101095 0.368725 0.627195
993 4 0.112934 0.382602 0.634314
991 2 0.134111 0.369388 0.63578
992 4 0.155287 0.356175 0.637246
897 4 0.16876 0.364038 0.627242
1189 2 0.246062 0.369274 0.591514
896 4 0.207282 0.384229 0.602561
895 2 0.188021 0.374134 0.614902
1172 4 0.225304 0.394558 0.610339
1191 4 0.224696 0.380578 0.597907
1063 2 0.177805 0.351994 0.665292
792 4 0.272798 0.342367 0.593186
1238 4 0.284534 0.352026 0.579331
1239 4 0.319631 0.377895 0.60382
1237 2 0.302083 0.36496 0.591576
930 4 0.339195 0.379698 0.599896
1204 2 0.395243 0.378615 0.647713
1206 4 0.398243 0.368367 0.625104
927 4 0.39466 0.376532 0.608343
812 4 0.400526 0.358763 0.60629
925 2 0.404619 0.396955 0.597907
926 4 0.414578 0.417378 0.587471
1161 4 0.166886 0.499722 0.590274
1188 4 0.16624 0.479437 0.587537
1171 2 0.223243 0.418509 0.603461
1186 2 0.185922 0.466583 0.596055
1173 4 0.221182 0.442459 0.596583
1187 4 0.205604 0.453728 0.604574
1911 4 0.449469 0.479744 0.586792
1001 4 0.452807 0.461249 0.591167
1000 2 0.443583 0.438031 0.590152
1269 4 0.457483 0.474802 0.604445
1267 2 0.460113 0.487409 0.625877
1082 4 0.0772752 0.0514377 0.662233
943 2 0.0421607 0.0256166 0.673856
1076 4 0.0615493 0.0522786 0.676545
1075 2 0.0659088 0.069267 0.694365
945 4 0.0371278 0.00402486 0.685417
944 4 0.0471936 0.0472083 0.662295
1283 4 0.189645 0.0623997 0.694951
825 4 0.19904 0.0482053 0.68497
823 2 0.197061 0.0233078 0.683797
1147 2 0.243088 0.0662533 0.69963
1149 4 0.233005 0.0479614 0.713375
1148 4 0.253171 0.0845453 0.685885
1003 2 0.342963 0.0778644 0.732629
2321 4 0.492628 0.0240489 0.74051
41 1 0.454032 0.0740022 0.670392
43 3 0.432048 0.0806014 0.673792
42 3 0.45467 0.0511125 0.6682
1163 4 0.46782 0.0584705 0.686788
1162 2 0.478381 0.0459168 0.705657
44 3 0.467054 0.0801617 0.688582
1164 4 0.488942 0.0333631 0.724526
4581 4 0.500278 0.00673074 0.738262
864 4 0.0633034 0.0950142 0.728585
1077 4 0.0702683 0.0862554 0.712186
851 4 0.0697104 0.103161 0.699469
850 2 0.0668262 0.126296 0.690434
852 4 0.063942 0.149431 0.681399
862 2 0.0455361 0.0947563 0.746176
1107 4 0.0767 0.101111 0.716714
1105 2 0.0982559 0.0977265 0.728924
1106 4 0.119812 0.0943423 0.741133
1282 2 0.192552 0.0869775 0.69851
1284 4 0.195458 0.111555 0.702068
909 4 0.188489 0.129297 0.709996
907 2 0.203843 0.139578 0.693152
908 4 0.219196 0.149859 0.676307
1227 4 0.236225 0.136987 0.669853
888 4 0.251926 0.149956 0.670729
886 2 0.276229 0.154285 0.674707
887 4 0.300531 0.158615 0.678685
829 2 0.315211 0.121248 0.696645
1005 4 0.334449 0.0953861 0.716955
830 4 0.312216 0.143878 0.686442
831 4 0.318205 0.0986188 0.706849
3425 4 0.474416 0.0885132 0.669261
1113 4 0.495483 0.102858 0.738445
1146 4 0.503355 0.165319 0.715594
1208 4 0.130495 0.249367 0.728345
1074 4 0.12551 0.254956 0.747346
976 2 0.335433 0.223317 0.732076
978 4 0.351694 0.216409 0.714384
1025 4 0.410326 0.173883 0.684331
1024 2 0.428923 0.18245 0.698682
1142 4 0.442161 0.188096 0.732454
1144 2 0.481682 0.176966 0.720044
1262 4 0.461979 0.204803 0.713992
1026 4 0.44752 0.191017 0.713032
1261 2 0.464477 0.229645 0.712646
1145 4 0.460009 0.188613 0.724495
3263 4 0.0309916 0.320429 0.66897
1177 2 0.011576 0.241096 0.717045
1179 4 0.0343939 0.239755 0.706909
1130 4 0.140609 0.244851 0.743214
1072 2 0.100966 0.256902 0.751705
1207 2 0.136661 0.256482 0.705182
821 4 0.143062 0.283059 0.679088
1209 4 0.142828 0.263598 0.682019
1019 4 0.384431 0.278132 0.743836
1018 2 0.387805 0.292089 0.723366
1020 4 0.391179 0.306047 0.702897
1263 4 0.466974 0.254488 0.7113
892 2 0.0282202 0.362608 0.725837
1279 2 0.0565669 0.411664 0.739575
1280 4 0.051122 0.387533 0.735941
816 4 0.0638037 0.373426 0.740811
893 4 0.0125919 0.354018 0.708312
814 2 0.0862152 0.362343 0.741085
815 4 0.108627 0.35126 0.741358
942 4 0.125366 0.345514 0.751531
1065 4 0.194459 0.360772 0.681747
807 4 0.206072 0.34517 0.676008
1028 4 0.217259 0.383796 0.708973
1066 2 0.195785 0.382835 0.741998
1068 4 0.213532 0.392219 0.727092
1027 2 0.219352 0.401765 0.691712
805 2 0.22608 0.336349 0.688135
806 4 0.246088 0.327528 0.700261
1205 4 0.392242 0.388863 0.670321
1281 4 0.0620118 0.435796 0.74321
1983 4 0.0602307 0.439616 0.762102
2016 4 0.157612 0.493672 0.737238
1176 4 0.169625 0.48365 0.725743
2172 4 0.156308 0.492347 0.684914
1140 4 0.229918 0.4366 0.677967
1175 4 0.214596 0.462745 0.719317
1174 2 0.192111 0.473198 0.72253
1029 4 0.221444 0.419734 0.674452
1138 2 0.249695 0.451686 0.680511
1139 4 0.269472 0.466772 0.683056
1987 2 0.28206 0.449482 0.731961
1229 4 0.284258 0.464217 0.695236
1989 4 0.282827 0.466417 0.713582
2028 4 0.275658 0.478609 0.69843
1228 2 0.305383 0.459414 0.682753
1230 4 0.326508 0.45461 0.67027
1099 2 0.456122 0.493765 0.680883
1100 4 0.439209 0.495426 0.699224
2989 2 0.0328596 0.057598 0.786294
2990 4 0.0306598 0.0803253 0.776105
2991 4 0.0350594 0.0348707 0.796482
2049 4 0.119449 0.0170743 0.800289
1202 4 0.116745 0.0300319 0.78555
1201 2 0.122014 0.0543986 0.783632
1203 4 0.127282 0.0787654 0.781713
819 4 0.327678 0.0637446 0.808846
817 2 0.329463 0.0388482 0.807377
1085 4 0.320422 0.0819712 0.80784
1004 4 0.351477 0.0603427 0.748303
1050 4 0.342818 0.00939478 0.775928
973 2 0.367894 0.997416 0.802084
818 4 0.331249 0.0139518 0.805908
974 4 0.34745 0.0101769 0.795419
2322 4 0.486021 0.0506357 0.782346
845 4 0.4756 0.0672466 0.788915
844 2 0.475303 0.0704052 0.813716
2320 2 0.489325 0.0373423 0.761428
846 4 0.475005 0.0735638 0.838518
863 4 0.0277687 0.0944983 0.763767
3083 4 0.0118776 0.0857826 0.769312
833 4 0.0206047 0.0949704 0.783016
832 2 0.027064 0.116903 0.793136
834 4 0.0335232 0.138836 0.803256
1125 4 0.0330758 0.145805 0.822244
32 3 0.141705 0.0877734 0.794382
911 4 0.129147 0.100319 0.807063
34 3 0.124341 0.0943801 0.76171
31 1 0.134999 0.104253 0.779802
35 3 0.120679 0.118364 0.790502
33 3 0.153698 0.115935 0.772571
910 2 0.12194 0.0941372 0.830193
1256 4 0.228065 0.129694 0.804811
840 4 0.220499 0.121829 0.822672
1255 2 0.242363 0.112342 0.793874
1257 4 0.256661 0.0949887 0.782937
1084 2 0.296778 0.0838671 0.799932
1086 4 0.273134 0.085763 0.792024
960 4 0.317372 0.0716511 0.823891
47 3 0.415372 0.164509 0.814491
1023 4 0.421036 0.156734 0.834167
48 3 0.402297 0.169579 0.77962
1111 2 0.482963 0.0936515 0.758032
1112 4 0.470442 0.0844448 0.777618
1129 2 0.160572 0.243352 0.758194
1131 4 0.180535 0.241854 0.773175
977 4 0.319172 0.230225 0.749769
918 4 0.303049 0.238841 0.745962
1298 4 0.300985 0.223397 0.75711
1297 2 0.295933 0.202086 0.769172
1299 4 0.290881 0.180774 0.781234
46 1 0.407342 0.180145 0.799653
1043 4 0.405499 0.204767 0.807222
49 3 0.388212 0.189802 0.808552