ITEM: TIMESTEP
3010000
ITEM: NUMBER OF ATOMS
4590
ITEM: BOX BOUNDS pp pp pp
-9.9985700000000008e+00 9.9985700000000008e+00
-9.9985700000000008e+00 9.9985700000000008e+00
-9.9985700000000008e+00 9.9985700000000008e+00
ITEM: ATOMS id type xs ys zs
1667 4 0.00719847 0.0610612 0.0520566
701 4 0.0115099 0.0725902 0.0686352
490 2 0.28108 0.0503163 0.0860369
492 4 0.287794 0.0279272 0.0771583
2974 2 0.460435 0.0101738 0.0233998
745 2 0.430432 0.0642042 0.015515
747 4 0.434634 0.0401592 0.0100967
2467 2 0.496375 0.00305541 0.0712357
986 4 0.432305 0.0249672 0.996225
2975 4 0.441603 0.022579 0.0126
700 2 0.0311394 0.0871733 0.0634199
702 4 0.0507688 0.101756 0.0582047
476 4 0.0694292 0.108419 0.0601939
475 2 0.0839442 0.126737 0.0690788
477 4 0.0984591 0.145055 0.0779638
566 4 0.205255 0.137937 0.0198861
565 2 0.224619 0.151072 0.0110726
769 2 0.412464 0.158018 0.0250356
556 2 0.393396 0.10311 0.00544189
558 4 0.410972 0.101046 0.0231052
746 4 0.42623 0.0882493 0.0209332
771 4 0.431779 0.14246 0.0218666
737 4 0.223641 0.210209 0.0751649
573 4 0.260944 0.246695 0.0600919
770 4 0.393148 0.173576 0.0282047
359 4 0.383149 0.189518 0.0280082
664 2 0.398625 0.21139 0.051411
665 4 0.399437 0.190491 0.0377092
666 4 0.397812 0.232289 0.0651127
323 4 0.399756 0.245536 0.05124
358 2 0.367066 0.191106 0.00892964
623 4 0.387171 0.248974 0.0660001
555 4 0.0822334 0.253027 0.00686918
292 2 0.157767 0.32239 0.0354532
294 4 0.14006 0.315432 0.0192291
293 4 0.175474 0.329348 0.0516773
507 4 0.185187 0.324273 0.0645794
287 4 0.196511 0.329415 0.050282
286 2 0.214499 0.328308 0.03295
288 4 0.232486 0.327201 0.0156179
481 2 0.229682 0.259445 0.0730577
505 2 0.192352 0.302357 0.0742498
483 4 0.206451 0.267721 0.0689355
506 4 0.199517 0.28044 0.0839202
482 4 0.252913 0.251168 0.07718
571 2 0.277534 0.253979 0.042861
572 4 0.294123 0.261264 0.0256302
357 4 0.309531 0.27253 0.0169068
355 2 0.321494 0.290667 0.00453333
956 4 0.339518 0.325674 0.000880788
1069 2 0.413029 0.314386 0.0294964
955 2 0.358651 0.331721 0.015798
1071 4 0.396027 0.332112 0.0341787
322 2 0.414823 0.261578 0.0393741
324 4 0.429891 0.277619 0.0275081
1070 4 0.430031 0.296661 0.0248141
280 2 0.458698 0.297838 0.0520149
282 4 0.444952 0.286764 0.0343063
281 4 0.472445 0.308911 0.0697234
671 4 0.459856 0.324223 0.0777628
527 4 0.478543 0.323681 0.0790307
329 4 0.00845694 0.380899 0.0347936
456 4 0.181218 0.391125 0.0503512
552 4 0.168925 0.332128 0.0690369
454 2 0.182911 0.366466 0.0541251
455 4 0.184603 0.341807 0.0578989
1290 4 0.266027 0.396242 0.0407262
250 2 0.262637 0.415126 0.0773256
1288 2 0.274182 0.375818 0.0288286
1289 4 0.282338 0.355395 0.0169311
251 4 0.259018 0.410191 0.0530826
903 4 0.293008 0.363433 0.0035055
957 4 0.377784 0.337769 0.0307152
741 4 0.387242 0.343319 0.0470203
739 2 0.392196 0.346808 0.0712785
1787 4 0.102198 0.493167 0.0531343
1786 2 0.091685 0.476782 0.0688248
627 4 0.162127 0.500239 0.0299349
1690 2 0.117641 0.497108 0.0138474
626 4 0.189586 0.479129 0.066006
625 2 0.175857 0.489684 0.0479704
245 4 0.203696 0.46675 0.0589192
244 2 0.225778 0.455756 0.0548358
246 4 0.247861 0.444762 0.0507525
272 4 0.254879 0.427668 0.0451962
271 2 0.264158 0.432625 0.0225136
1672 2 0.41101 0.434612 0.0734571
853 2 0.393143 0.437751 0.0210348
854 4 0.413169 0.438031 0.0360039
855 4 0.373117 0.437472 0.00606576
37 3 0.356294 0.421978 0.00456771
1674 4 0.425029 0.437245 0.0529212
564 4 0.431474 0.442101 0.0355595
563 4 0.464853 0.478658 0.0284762
562 2 0.448164 0.46038 0.0320179
228 4 0.485126 0.476187 0.0258059
226 2 0.491335 0.497849 0.0149708
19 3 0.0633595 0.0312461 0.158884
16 1 0.061777 0.0103308 0.168807
582 4 0.236835 0.0795241 0.146062
580 2 0.251443 0.063054 0.157916
491 4 0.274366 0.0727055 0.0949155
1475 4 0.304337 0.022605 0.0896386
1760 4 0.48618 0.051943 0.141434
486 4 0.4318 0.00629189 0.111964
1759 2 0.492595 0.0370047 0.122438
2724 4 0.474174 0.0587883 0.15594
1761 4 0.499011 0.0220664 0.103441
2744 4 0.492703 0.0582591 0.158622
237 4 0.21871 0.0871187 0.149183
235 2 0.202268 0.0911187 0.16759
628 2 0.372704 0.163126 0.165708
2722 2 0.464418 0.0815146 0.159618
2723 4 0.454663 0.104241 0.163295
738 4 0.210784 0.175851 0.109149
736 2 0.217212 0.19303 0.0921568
755 4 0.247479 0.244582 0.164006
460 2 0.326993 0.219347 0.1135
461 4 0.304678 0.208173 0.111958
354 4 0.286047 0.213972 0.116223
352 2 0.275304 0.225503 0.135635
353 4 0.264562 0.237033 0.155047
284 4 0.278375 0.250154 0.165747
630 4 0.380522 0.182678 0.152226
462 4 0.349308 0.230521 0.115041
255 4 0.367422 0.231243 0.120918
253 2 0.380235 0.213738 0.133351
622 2 0.374462 0.247077 0.0874495
624 4 0.361754 0.245179 0.108899
254 4 0.393048 0.196233 0.145785
765 4 0.354032 0.244908 0.126597
550 2 0.150452 0.335961 0.0854444
551 4 0.131978 0.339793 0.101852
536 4 0.197365 0.259598 0.142338
537 4 0.186327 0.270323 0.0947578
535 2 0.191846 0.26496 0.118548
754 2 0.232972 0.264871 0.162244
756 4 0.218466 0.28516 0.160483
301 2 0.326201 0.314949 0.136434
303 4 0.32012 0.297096 0.15285
285 4 0.314454 0.28441 0.160693
283 2 0.296415 0.267282 0.16322
764 4 0.332489 0.282745 0.151193
763 2 0.34326 0.263826 0.138895
12 3 0.414214 0.32613 0.118394
647 4 0.0456983 0.359178 0.155353
302 4 0.332282 0.332801 0.120018
387 4 0.329366 0.351016 0.112704
385 2 0.353622 0.353462 0.10715
493 2 0.391415 0.390494 0.101262
495 4 0.393201 0.365957 0.105725
386 4 0.377878 0.355907 0.101596
15 3 0.382243 0.34509 0.115032
740 4 0.39715 0.350298 0.0955367
14 3 0.4151 0.362679 0.109673
11 1 0.403926 0.346409 0.121872
13 3 0.404795 0.351478 0.144498
494 4 0.389628 0.415031 0.0968
526 2 0.499294 0.337538 0.0806416
672 4 0.420254 0.343533 0.101417
670 2 0.440055 0.333878 0.0895899
1788 4 0.0811723 0.460397 0.0845153
1791 4 0.0597511 0.495213 0.145323
1465 2 0.074482 0.463616 0.121771
1466 4 0.0680239 0.476653 0.142106
1467 4 0.08094 0.45058 0.101436
638 4 0.219831 0.487151 0.153835
767 4 0.215483 0.469223 0.163344
637 2 0.198934 0.495022 0.142587
252 4 0.266256 0.420061 0.101569
609 4 0.273527 0.437333 0.109492
607 2 0.297669 0.441321 0.114633
608 4 0.321811 0.44531 0.119775
659 4 0.329028 0.437108 0.103284
1316 4 0.297173 0.496544 0.141006
660 4 0.377833 0.430698 0.0944704
1673 4 0.396991 0.43198 0.093993
658 2 0.353431 0.433903 0.0988773
524 4 0.399916 0.486169 0.130445
523 2 0.393841 0.465461 0.117817
525 4 0.387767 0.444754 0.105189
578 4 0.0815834 0.0287029 0.173304
20 3 0.0783933 0.00773826 0.184163
17 3 0.041396 0.00861726 0.179334
2480 4 0.0268596 0.00182887 0.192976
2479 2 0.0238023 0.0247165 0.202567
380 4 0.01893 0.0615275 0.199278
2481 4 0.020745 0.0476042 0.212158
577 2 0.0942411 0.0502574 0.173905
579 4 0.106899 0.071812 0.174505
674 4 0.148509 0.00776602 0.225905
673 2 0.127963 0.999617 0.237593
450 4 0.124524 0.066961 0.168118
448 2 0.145993 0.0766109 0.176552
1504 2 0.238724 0.00486147 0.193636
449 4 0.167463 0.0862607 0.184986
581 4 0.266051 0.0465839 0.16977
1506 4 0.252094 0.0258847 0.191524
654 4 0.268064 0.0376925 0.187245
652 2 0.284198 0.0327057 0.205684
653 4 0.300332 0.027719 0.224123
758 4 0.34251 0.0703287 0.187368
759 4 0.358692 0.0611701 0.23379
757 2 0.350601 0.0657494 0.210579
350 4 0.373504 0.0626124 0.2402
349 2 0.396979 0.0554132 0.235481
22 3 0.35669 0.0594599 0.250695
311 4 0.3451 0.078507 0.167529
480 4 0.435531 0.0406699 0.242153
351 4 0.420454 0.0482141 0.230762
513 4 0.0530897 0.158337 0.176803
379 2 0.0310257 0.0820741 0.191747
511 2 0.0406216 0.137023 0.18073
512 4 0.0281535 0.115708 0.184657
381 4 0.0431214 0.102621 0.184217
236 4 0.185826 0.0951187 0.185998
30 3 0.333577 0.130132 0.228941
312 4 0.359308 0.126377 0.170225
629 4 0.364885 0.143574 0.179189
310 2 0.352204 0.102442 0.168877
26 1 0.345352 0.145493 0.240943
28 3 0.357314 0.159265 0.226604
521 4 0.4628 0.145681 0.221776
762 4 0.445841 0.138519 0.227183
760 2 0.4278 0.145548 0.243004
332 4 0.460936 0.13254 0.237184
331 2 0.47079 0.109733 0.239999
520 2 0.483349 0.15393 0.210164
393 4 0.0436083 0.175604 0.177059
391 2 0.0601514 0.193975 0.180804
392 4 0.0766946 0.212345 0.184549
339 4 0.0750793 0.230928 0.191789
337 2 0.0638043 0.250087 0.203234
396 4 0.00263854 0.246138 0.247946
544 2 0.130345 0.245241 0.245159
546 4 0.106573 0.242172 0.238043
279 4 0.264063 0.216197 0.21582
277 2 0.264043 0.227829 0.193687
278 4 0.264023 0.239461 0.171554
394 2 0.0151013 0.264511 0.236444
395 4 0.0275641 0.282884 0.224943
338 4 0.0525294 0.269246 0.214678
363 4 0.0403751 0.28349 0.208882
361 2 0.05146 0.305897 0.209364
362 4 0.0625448 0.328304 0.209845
372 4 0.0781571 0.330561 0.197305
733 2 0.154285 0.327113 0.239592
612 4 0.229673 0.295304 0.173504
611 4 0.239948 0.32279 0.213997
610 2 0.234811 0.309047 0.19375
344 4 0.230691 0.318646 0.232965
343 2 0.209846 0.314984 0.246278
729 4 0.313892 0.302129 0.17076
727 2 0.300872 0.319545 0.183102
308 4 0.32866 0.289757 0.168541
728 4 0.287852 0.336962 0.195444
498 4 0.348753 0.290459 0.230045
307 2 0.340715 0.285963 0.190115
309 4 0.35277 0.28217 0.21169
749 4 0.0542567 0.343479 0.217322
648 4 0.0643512 0.343834 0.19914
748 2 0.0642542 0.358433 0.234688
646 2 0.0550248 0.351506 0.177247
370 2 0.102033 0.335524 0.202828
371 4 0.125908 0.340487 0.208351
734 4 0.136556 0.339725 0.227271
417 4 0.139869 0.351101 0.215414
299 4 0.137869 0.357569 0.234606
415 2 0.150064 0.368712 0.200885
416 4 0.160259 0.386323 0.186356
298 2 0.116488 0.367159 0.243328
290 4 0.22636 0.402576 0.172277
289 2 0.203237 0.394504 0.177312
291 4 0.180114 0.386431 0.182346
445 2 0.393309 0.37608 0.24038
447 4 0.407834 0.39372 0.23023
595 2 0.483969 0.390596 0.166775
644 4 0.421573 0.406677 0.225466
643 2 0.436343 0.398228 0.207146
645 4 0.451112 0.389778 0.188825
597 4 0.459744 0.385479 0.170257
766 2 0.222391 0.445512 0.167247
768 4 0.229299 0.421801 0.17115
412 2 0.240059 0.462336 0.222167
413 4 0.22465 0.447779 0.235427
414 4 0.255468 0.476894 0.208907
1574 4 0.297872 0.488775 0.214953
229 2 0.466246 0.490289 0.21459
231 4 0.486509 0.478528 0.205855
427 2 0.0517139 0.999932 0.32126
234 4 0.999449 0.0478641 0.299957
232 2 0.023201 0.0415392 0.29537
233 4 0.0469525 0.0352142 0.290784
317 4 0.0622516 0.0333719 0.301343
1404 4 0.0635244 0.0240314 0.287021
316 2 0.0778569 0.0503004 0.311094
1402 2 0.0760369 0.0101449 0.270414
428 4 0.0630861 0.0144585 0.304382
318 4 0.0934623 0.0672289 0.320845
693 4 0.320181 0.062999 0.275268
691 2 0.306913 0.0799528 0.287985
24 3 0.324656 0.0465548 0.265524
25 3 0.349591 0.0228222 0.250271
632 4 0.365579 0.0737942 0.249683
21 1 0.34718 0.0420162 0.262289
23 3 0.357861 0.0399212 0.282781
257 4 0.415398 0.0662335 0.333157
743 4 0.489579 0.0726245 0.254408
479 4 0.454803 0.0348694 0.287932
478 2 0.445167 0.0377696 0.265043
2664 4 0.471006 0.0288346 0.296002
1428 4 0.45158 0.0255165 0.301969
258 4 0.44024 0.042025 0.297135
2662 2 0.490967 0.0432513 0.300345
256 2 0.427819 0.0541293 0.315146
1426 2 0.449887 0.00144465 0.308516
2755 2 0.999244 0.0877058 0.316517
2757 4 0.99899 0.10879 0.329954
403 2 0.232034 0.165122 0.331596
404 4 0.247071 0.145457 0.335109
692 4 0.293645 0.0969066 0.300702
721 2 0.264877 0.110777 0.31048
723 4 0.27426 0.0927467 0.295917
722 4 0.255495 0.128807 0.325042
27 3 0.330733 0.158383 0.253162
761 4 0.409759 0.152577 0.258825
29 3 0.359848 0.13473 0.255519
631 2 0.362759 0.0968873 0.258844
707 4 0.359706 0.13338 0.275635
633 4 0.359938 0.11998 0.268006
706 2 0.355968 0.140147 0.299414
708 4 0.35223 0.146913 0.323192
333 4 0.480643 0.0869254 0.242813
443 4 0.00683986 0.236258 0.262729
405 4 0.216997 0.184788 0.328082
402 4 0.172079 0.247833 0.25985
545 4 0.154117 0.248311 0.252275
735 4 0.172013 0.314502 0.251913
400 2 0.180049 0.271038 0.264667
401 4 0.188019 0.294243 0.269483
676 2 0.172167 0.321504 0.292457
345 4 0.189 0.311321 0.259591
677 4 0.174338 0.308241 0.271372
678 4 0.169996 0.334767 0.313541
378 4 0.290791 0.283915 0.312187
376 2 0.311476 0.295044 0.303618
377 4 0.332162 0.306173 0.295049
615 4 0.334405 0.325705 0.301513
497 4 0.336974 0.303279 0.276924
496 2 0.342863 0.296869 0.253484
541 2 0.366249 0.307349 0.303715
542 4 0.386327 0.299629 0.31646
543 4 0.346171 0.315069 0.290969
418 2 0.407755 0.265088 0.332645
420 4 0.402535 0.286645 0.321101
750 4 0.0742517 0.373388 0.252054
364 2 0.00782541 0.393445 0.293754
365 4 0.0310818 0.397347 0.302067
603 4 0.0343629 0.385115 0.317906
601 2 0.0546545 0.37848 0.330922
375 4 0.154591 0.33203 0.326887
300 4 0.0951079 0.37675 0.25205
510 4 0.177857 0.353917 0.314727
508 2 0.200829 0.354797 0.324562
434 4 0.32692 0.384233 0.316364
433 2 0.312583 0.404649 0.314687
614 4 0.320325 0.373689 0.301485
613 2 0.327365 0.349697 0.301499
446 4 0.378784 0.358439 0.250529
264 4 0.0104187 0.443829 0.252524
1757 4 0.0255213 0.433193 0.260765
1756 2 0.0470806 0.43999 0.271451
1758 4 0.0686399 0.446787 0.282136
1775 4 0.0778664 0.46398 0.283637
777 4 0.0712802 0.482922 0.289358
775 2 0.0674513 0.482376 0.314061
1776 4 0.125123 0.466935 0.267549
1774 2 0.101495 0.465458 0.275593
1436 4 0.228553 0.443882 0.256125
1435 2 0.241588 0.441956 0.277375
4 3 0.253478 0.421451 0.31216
1437 4 0.254624 0.440029 0.298624
3 3 0.271739 0.454356 0.306853
1 1 0.267707 0.437053 0.321778
436 2 0.313142 0.45835 0.307571
438 4 0.29294 0.444827 0.313419
2 3 0.287664 0.426793 0.326837
435 4 0.298245 0.425065 0.313011
437 4 0.333344 0.471873 0.301723
1801 2 0.363187 0.477712 0.323194
1802 4 0.348915 0.485082 0.304032
119 3 0.494337 0.4566 0.323765
1781 4 0.109333 0.00499756 0.41399
732 4 0.100327 0.0619239 0.338198
730 2 0.125225 0.0638828 0.339382
731 4 0.150124 0.0658417 0.340567
399 4 0.0863016 0.075226 0.337944
699 4 0.37396 0.049205 0.386137
1699 2 0.359702 0.0136016 0.385719
1700 4 0.363185 0.0359224 0.375003
697 2 0.388925 0.0569717 0.367674
698 4 0.403891 0.0647383 0.349211
2585 4 0.00610119 0.127785 0.333812
397 2 0.0754085 0.0975772 0.340579
398 4 0.0645155 0.119928 0.343215
2584 2 0.0279313 0.123929 0.345377
2586 4 0.0497614 0.120072 0.356942
458 4 0.0503122 0.130406 0.373605
457 2 0.0470693 0.147038 0.391991
459 4 0.0438265 0.16367 0.410377
606 4 0.151503 0.085125 0.346097
605 4 0.19425 0.0914553 0.371264
604 2 0.172876 0.0882902 0.35868
248 4 0.210421 0.101017 0.366089
247 2 0.227078 0.114415 0.353118
249 4 0.243735 0.127813 0.340148
683 4 0.262571 0.136155 0.340776
682 2 0.279828 0.146717 0.355467
684 4 0.297085 0.157278 0.370158
319 2 0.332689 0.161322 0.347982
321 4 0.356283 0.158241 0.340301
726 4 0.408646 0.146977 0.402212
717 4 0.36949 0.149001 0.351622
715 2 0.381813 0.152612 0.373076
716 4 0.394136 0.156223 0.39453
467 4 0.395276 0.156945 0.413487
724 2 0.412687 0.123588 0.410073
725 4 0.416728 0.100198 0.417933
642 4 0.49755 0.102316 0.391576
641 4 0.456046 0.117899 0.368439
640 2 0.476798 0.110107 0.380008
600 4 0.0933423 0.187971 0.338706
598 2 0.105723 0.202489 0.354865
599 4 0.118104 0.217008 0.371023
389 4 0.129172 0.246302 0.378679
686 4 0.118596 0.231415 0.383176
685 2 0.108345 0.2266 0.405468
275 4 0.135028 0.226785 0.374956
274 2 0.158823 0.219192 0.376115
473 4 0.223403 0.202982 0.33151
474 4 0.197924 0.222816 0.369695
472 2 0.210664 0.212899 0.350603
276 4 0.182617 0.211599 0.377274
320 4 0.309094 0.164402 0.355663
419 4 0.412976 0.243532 0.344188
269 4 0.413843 0.223857 0.341791
268 2 0.436471 0.218746 0.351122
270 4 0.459098 0.213635 0.360452
452 4 0.466411 0.230395 0.367373
451 2 0.474527 0.226884 0.390761
453 4 0.482643 0.223373 0.414149
347 4 0.0603413 0.304484 0.397035
346 2 0.0408229 0.296306 0.410352
618 4 0.0683567 0.319484 0.386486
373 2 0.136491 0.320241 0.33948
388 2 0.127915 0.26929 0.368925
616 2 0.089372 0.309832 0.376981
390 4 0.126658 0.292278 0.359172
617 4 0.110387 0.300179 0.367475
374 4 0.11839 0.308453 0.352073
2537 4 0.488117 0.289989 0.339066
602 4 0.0749461 0.371846 0.343938
549 4 0.0789273 0.383354 0.359971
547 2 0.0826517 0.404373 0.372991
509 4 0.2238 0.355677 0.334397
240 4 0.322581 0.393278 0.3932
335 4 0.329503 0.377023 0.403194
238 2 0.336048 0.39687 0.372441
239 4 0.349515 0.400463 0.351683
587 4 0.365195 0.414088 0.350023
752 4 0.464715 0.393881 0.384639
561 4 0.482861 0.383822 0.388767
751 2 0.477299 0.410046 0.370302
559 2 0.49411 0.36899 0.40546
776 4 0.0636224 0.48183 0.338763
500 4 0.0546053 0.464554 0.344305
499 2 0.0654753 0.460467 0.366448
501 4 0.0763453 0.456379 0.388591
548 4 0.0863762 0.425392 0.38601
407 4 0.0885247 0.443493 0.394759
406 2 0.106079 0.454899 0.408431
1555 2 0.241566 0.489334 0.388006
5 3 0.258444 0.445276 0.340889
636 4 0.258713 0.469034 0.409007
1557 4 0.264137 0.485427 0.398029
1803 4 0.377459 0.470342 0.342356
586 2 0.379355 0.433298 0.357485
593 4 0.395419 0.467046 0.350879
588 4 0.393515 0.452507 0.364947
592 2 0.415346 0.481759 0.347465
594 4 0.435272 0.496472 0.344051
712 2 0.470803 0.484609 0.341284
714 4 0.486981 0.465544 0.341359
753 4 0.489882 0.42621 0.355966
117 3 0.486411 0.448105 0.359509
719 4 0.0504508 0.00778679 0.460053
718 2 0.0255137 0.00633447 0.458954
369 4 0.0666351 0.0105626 0.469755
720 4 0.000576512 0.00488216 0.457855
367 2 0.0811319 0.00677002 0.449739
341 4 0.190151 0.0100472 0.485132
963 4 0.297795 0.0293514 0.429892
432 4 0.303209 0.0388088 0.445514
430 2 0.317043 0.0475556 0.464416
961 2 0.314553 0.0127922 0.421517
431 4 0.330878 0.0563024 0.483318
843 4 0.349263 0.0601117 0.488515
841 2 0.373496 0.0560544 0.493149
1216 2 0.427962 0.0597472 0.487417
1218 4 0.442031 0.0609578 0.466782
576 4 0.421312 0.170346 0.500648
260 4 0.0467842 0.183986 0.416231
259 2 0.0634129 0.199867 0.426052
261 4 0.0800415 0.215748 0.435874
687 4 0.0980943 0.221784 0.427759
1035 4 0.0930933 0.225302 0.445866
1033 2 0.0951833 0.24561 0.460302
466 2 0.407169 0.177486 0.421349
409 2 0.40297 0.229241 0.441967
410 4 0.419155 0.210604 0.445952
411 4 0.386784 0.247877 0.437983
468 4 0.419062 0.198026 0.429212
515 4 0.476479 0.21034 0.428881
575 4 0.421883 0.202451 0.462311
516 4 0.430514 0.197996 0.444229
574 2 0.421598 0.186399 0.48148
514 2 0.453496 0.204168 0.436555
2802 4 0.00336614 0.292425 0.418843
348 4 0.0213046 0.288127 0.423668
1034 4 0.0972734 0.265918 0.474738
696 4 0.100624 0.26659 0.493454
1260 4 0.111796 0.277298 0.479637
1258 2 0.11585 0.299995 0.469964
1259 4 0.119904 0.322693 0.460291
9 3 0.14794 0.327649 0.430589
7 3 0.138528 0.329071 0.466948
488 4 0.333996 0.274221 0.411528
489 4 0.376619 0.263859 0.435541
487 2 0.355307 0.26904 0.423535
266 4 0.392417 0.262162 0.448614
265 2 0.392932 0.276437 0.469136
267 4 0.393448 0.290711 0.489658
3308 4 0.472442 0.335969 0.470598
1011 4 0.478464 0.316337 0.468501
1009 2 0.471134 0.300123 0.486066
1010 4 0.463803 0.283909 0.503632
326 4 0.0727296 0.357601 0.479774
6 1 0.142794 0.341782 0.448257
327 4 0.11674 0.343971 0.46033
325 2 0.0947347 0.350786 0.470052
10 3 0.124335 0.354129 0.443209
709 2 0.141387 0.401584 0.493008
8 3 0.160741 0.355813 0.452664
503 4 0.179435 0.335366 0.485171
334 2 0.313766 0.384267 0.421223
336 4 0.29803 0.391511 0.439253
668 4 0.304538 0.400073 0.456795
882 4 0.337968 0.374213 0.475591
3307 2 0.486659 0.349173 0.454827
1381 2 0.00553971 0.473055 0.48321
1383 4 0.00552798 0.456031 0.464897
384 4 0.140995 0.431718 0.476657
383 4 0.12265 0.4602 0.439875
711 4 0.126506 0.41961 0.484131
408 4 0.123634 0.466305 0.422104
382 2 0.131823 0.445959 0.458266
569 4 0.140135 0.46711 0.43146
568 2 0.150293 0.487273 0.420715
667 2 0.301579 0.424808 0.454654
774 4 0.311713 0.462987 0.45137
635 4 0.294309 0.466894 0.444064
634 2 0.276511 0.467964 0.426536
669 4 0.29862 0.449543 0.452513
773 4 0.358173 0.47464 0.437002
772 2 0.334943 0.468813 0.444186
663 4 0.452667 0.491176 0.455986
1058 4 0.11026 0.0783897 0.51735
1152 4 0.227204 0.0525204 0.514044
342 4 0.211421 0.0406538 0.518471
340 2 0.200786 0.0253505 0.501802
1150 2 0.227994 0.0617223 0.537279
1151 4 0.228785 0.0709241 0.560514
1181 4 0.246162 0.0827364 0.560485
1032 4 0.243796 0.0669765 0.570634
2430 4 0.173534 0.00534679 0.49603
842 4 0.397729 0.051997 0.497782
1217 4 0.413894 0.0585365 0.508051
3007 2 0.493222 0.0399348 0.574568
1270 2 0.0909929 0.154826 0.553163
1271 4 0.0959583 0.130794 0.557957
1057 2 0.107352 0.0956568 0.535198
1059 4 0.104445 0.112924 0.553047
1155 4 0.114703 0.127163 0.560251
939 4 0.0999284 0.119757 0.570305
1153 2 0.138701 0.127313 0.567271
1154 4 0.162698 0.127463 0.574291
1180 2 0.238439 0.103556 0.571978
898 2 0.247193 0.159113 0.567665
1182 4 0.230716 0.124375 0.583472
1221 4 0.174519 0.143742 0.574267
1199 4 0.0278973 0.224603 0.572089
879 4 0.0681265 0.184866 0.551409
877 2 0.055191 0.200173 0.566361
1272 4 0.0860276 0.178858 0.548368
878 4 0.0422554 0.215479 0.581313
1198 2 0.00528511 0.225327 0.561443
651 4 0.218494 0.215885 0.523018
858 4 0.203692 0.229382 0.525396
649 2 0.238261 0.202205 0.529895
650 4 0.258028 0.188525 0.536772
899 4 0.25584 0.175376 0.550755
695 4 0.0868238 0.285679 0.537566
982 2 0.0123659 0.279352 0.575393
694 2 0.0937241 0.276134 0.51551
946 2 0.175261 0.291851 0.569302
856 2 0.197318 0.252973 0.530686
857 4 0.190943 0.276564 0.535977
947 4 0.191912 0.278303 0.556482
798 4 0.209487 0.269403 0.560312
796 2 0.22949 0.273522 0.574737
790 2 0.266262 0.31628 0.584818
872 4 0.359974 0.301936 0.580024
2455 2 0.483846 0.254085 0.512081
2457 4 0.461881 0.265988 0.513111
3353 4 0.998831 0.339863 0.529645
936 4 0.00307682 0.351473 0.512787
710 4 0.156269 0.383559 0.501885
504 4 0.163566 0.371912 0.515391
502 2 0.1715 0.353639 0.500281
1189 2 0.242323 0.36492 0.575246
1191 4 0.221788 0.37795 0.581048
803 4 0.270465 0.347239 0.5524
804 4 0.263253 0.354586 0.503464
802 2 0.266859 0.350912 0.527932
1190 4 0.262859 0.351889 0.569444
1238 4 0.279885 0.353453 0.569773
792 4 0.270045 0.340916 0.582844
1237 2 0.298955 0.367105 0.578441
929 4 0.359279 0.375711 0.540982
881 4 0.353533 0.374516 0.523114
880 2 0.34575 0.374364 0.499352
928 2 0.348669 0.380292 0.563155
930 4 0.33806 0.384874 0.585327
1382 4 0.00555144 0.49008 0.501522
1081 2 0.0812746 0.0782159 0.642668
4337 4 0.0191286 0.00057656 0.658034
944 4 0.0691154 0.0344631 0.667732
825 4 0.160705 0.06518 0.665012
1082 4 0.0891665 0.0635311 0.661302
1030 2 0.244656 0.0489158 0.587904
1031 4 0.245516 0.0308551 0.605174
824 4 0.172741 0.0170449 0.658778
823 2 0.166723 0.0411125 0.661895
2133 4 0.174201 0.998476 0.662752
951 4 0.259818 0.0306952 0.618934
949 2 0.274278 0.0106277 0.615274
3008 4 0.488546 0.0243655 0.593565
809 4 0.475444 0.0137037 0.606608
808 2 0.469041 0.0308801 0.623612
810 4 0.462638 0.0480565 0.640617
45 3 0.464552 0.0714367 0.640808
41 1 0.457293 0.0639024 0.661037
42 3 0.460592 0.0411711 0.662284
43 3 0.434649 0.0683411 0.663478
3425 4 0.476445 0.0799522 0.658477
1083 4 0.0733828 0.0929007 0.624033
1127 4 0.0593583 0.086208 0.612781
1126 2 0.0354188 0.0891937 0.606211
1128 4 0.0114793 0.0921793 0.599641
938 4 0.0746245 0.092825 0.603997
937 2 0.0872765 0.106291 0.587151
900 4 0.238546 0.142851 0.584576
1219 2 0.197839 0.141514 0.583008
1211 4 0.242167 0.137839 0.649621
1210 2 0.237186 0.144257 0.625974
1220 4 0.221159 0.139287 0.591748
1212 4 0.232205 0.150675 0.602327
1227 4 0.249609 0.128435 0.661615
888 4 0.261032 0.142372 0.652251
886 2 0.283293 0.152314 0.657799
1225 2 0.253175 0.104838 0.669075
887 4 0.305554 0.162256 0.663348
3424 2 0.49564 0.0955693 0.654894
1244 4 0.0523358 0.21604 0.59873
1243 2 0.039766 0.23677 0.604848
1194 4 0.324436 0.164021 0.66366
1192 2 0.341621 0.170565 0.646717
1193 4 0.358805 0.177109 0.629775
3123 4 0.482295 0.240879 0.634775
983 4 0.0226504 0.266263 0.594051
1245 4 0.0271961 0.2575 0.610967
3263 4 0.058436 0.328501 0.619016
948 4 0.158609 0.305399 0.582123
1135 2 0.169701 0.322662 0.616568
1136 4 0.167768 0.304011 0.600028
791 4 0.262479 0.291643 0.586792
797 4 0.249493 0.277641 0.589163
871 2 0.367998 0.311452 0.60171
873 4 0.376023 0.320968 0.623395
813 4 0.388646 0.335001 0.626331
954 4 0.452637 0.289403 0.590323
952 2 0.460551 0.311746 0.598282
953 4 0.468465 0.334089 0.606242
3262 2 0.057563 0.353489 0.619103
1041 4 0.0708555 0.388773 0.625282
3264 4 0.05669 0.378477 0.619191
3240 4 0.0563626 0.397423 0.614732
3238 2 0.0317861 0.402015 0.614442
3239 4 0.00720957 0.406608 0.614153
822 4 0.165133 0.342689 0.651588
1039 2 0.0937639 0.396951 0.63107
1040 4 0.116672 0.405129 0.636858
993 4 0.133941 0.393859 0.6368
991 2 0.150359 0.375003 0.63649
992 4 0.166776 0.356147 0.636179
1137 4 0.171634 0.341314 0.633108
1064 4 0.179668 0.352863 0.645018
897 4 0.180179 0.354687 0.623682
896 4 0.215357 0.38001 0.598743
895 2 0.197768 0.367348 0.611212
1172 4 0.229694 0.392423 0.59008
1063 2 0.194983 0.359544 0.663618
1239 4 0.318026 0.380756 0.587109
811 2 0.399591 0.352574 0.640352
1206 4 0.398959 0.383565 0.659512
927 4 0.408703 0.387677 0.644232
812 4 0.410535 0.370147 0.654372
925 2 0.412547 0.405321 0.626937
906 4 0.471538 0.348806 0.593633
904 2 0.495673 0.35463 0.596587
540 4 0.114054 0.471206 0.591887
539 4 0.0781368 0.437398 0.600113
2244 4 0.123915 0.486804 0.583177
1160 4 0.133371 0.473546 0.593712
538 2 0.0960956 0.454302 0.596
1159 2 0.156567 0.480223 0.600238
1171 2 0.223512 0.416442 0.593251
1186 2 0.212433 0.476709 0.599079
1173 4 0.21733 0.440461 0.596421
1187 4 0.228346 0.457453 0.598003
1188 4 0.19652 0.495966 0.600156
1161 4 0.179762 0.486899 0.606765
926 4 0.416392 0.422965 0.609643
1002 4 0.420801 0.442283 0.614533
1911 4 0.449876 0.503779 0.604188
1001 4 0.447813 0.484271 0.611683
1000 2 0.434307 0.463277 0.613108
1269 4 0.461239 0.496491 0.617739
1267 2 0.468715 0.493738 0.64144
1268 4 0.47619 0.490985 0.66514
943 2 0.0491741 0.0198371 0.671421
1076 4 0.0748921 0.0529133 0.673131
1075 2 0.0728043 0.0649801 0.694931
945 4 0.0292328 0.00521121 0.675109
864 4 0.0614321 0.0736605 0.732354
1077 4 0.0707165 0.0770468 0.71673
1283 4 0.147365 0.0772212 0.674083
1148 4 0.244369 0.0653679 0.673197
2254 2 0.1816 0.00105168 0.700641
2256 4 0.177393 0.00932942 0.677426
1149 4 0.239975 0.0332607 0.711283
1147 2 0.242172 0.0493143 0.69224
2255 4 0.185807 0.992774 0.723857
1226 4 0.256741 0.081241 0.676535
1004 4 0.339264 0.081857 0.737006
1092 4 0.340015 0.0170909 0.698587
1163 4 0.472996 0.0525993 0.678875
1162 2 0.489029 0.0444781 0.696259
44 3 0.469258 0.0741638 0.678065
1107 4 0.0805799 0.0827726 0.728992
851 4 0.0732418 0.0954487 0.715299
850 2 0.0734378 0.119322 0.707868
852 4 0.0736338 0.143194 0.700436
1105 2 0.102292 0.0872061 0.740572
1282 2 0.157731 0.099906 0.67585
908 4 0.231107 0.135431 0.664964
1284 4 0.168097 0.122591 0.677618
909 4 0.183644 0.13413 0.680657
907 2 0.207376 0.13478 0.672811
829 2 0.331723 0.151264 0.698682
830 4 0.317729 0.155084 0.678317
1005 4 0.347727 0.127467 0.718329
1003 2 0.343495 0.104662 0.727668
831 4 0.345716 0.147445 0.719048
3268 2 0.495874 0.143772 0.736472
1215 4 0.997686 0.235622 0.733119
1213 2 0.998287 0.210646 0.734111
1214 4 0.998889 0.185669 0.735102
1073 4 0.0871254 0.24491 0.726214
977 4 0.311457 0.223669 0.737701
918 4 0.298134 0.233594 0.747295
1297 2 0.287343 0.196495 0.745152
1299 4 0.273414 0.177151 0.737603
976 2 0.335394 0.22837 0.732215
978 4 0.359331 0.233072 0.726729
1025 4 0.38309 0.193867 0.698579
1020 4 0.370915 0.237314 0.742318
1024 2 0.40429 0.198625 0.710952
3270 4 0.491607 0.164303 0.722855
1142 4 0.433376 0.205106 0.739954
1144 2 0.461736 0.19127 0.716116
1262 4 0.434172 0.220908 0.730203
1026 4 0.42549 0.203383 0.723325
1261 2 0.434814 0.245561 0.72608
1145 4 0.443544 0.207644 0.721226
1146 4 0.479928 0.174896 0.711006
1178 4 0.997146 0.25406 0.728632
1177 2 0.0177246 0.267533 0.724141
1179 4 0.0383035 0.281006 0.71965
820 2 0.150279 0.329114 0.666429
1072 2 0.111904 0.248178 0.726938
1208 4 0.146341 0.264209 0.717399
1074 4 0.136682 0.251446 0.727662
1207 2 0.147419 0.286803 0.706743
821 4 0.135425 0.315539 0.68127
1209 4 0.148498 0.309396 0.696086
1130 4 0.146235 0.263671 0.738146
815 4 0.110276 0.332587 0.730707
806 4 0.249836 0.322062 0.710471
1263 4 0.435457 0.270214 0.721956
892 2 0.0377765 0.357431 0.725702
1279 2 0.0791341 0.402155 0.729006
1280 4 0.0650405 0.381505 0.728627
816 4 0.0765938 0.36844 0.721718
894 4 0.062284 0.360356 0.729703
893 4 0.013269 0.354507 0.721701
814 2 0.093435 0.350513 0.726212
942 4 0.126384 0.338668 0.738728
940 2 0.147493 0.352017 0.739901
805 2 0.231 0.336927 0.703439
1065 4 0.210299 0.366226 0.682219
807 4 0.212164 0.351791 0.696407
1028 4 0.215252 0.38613 0.689672
1066 2 0.19597 0.37532 0.718107
1068 4 0.212849 0.370727 0.700241
1027 2 0.225367 0.404516 0.676077
1067 4 0.179092 0.379914 0.735973
941 4 0.168603 0.365366 0.741074
1204 2 0.380772 0.393623 0.673413
1205 4 0.362585 0.403681 0.687314
1983 4 0.0890994 0.439596 0.738798
1281 4 0.0932277 0.422804 0.729384
1981 2 0.101193 0.459112 0.7487
1029 4 0.235482 0.422902 0.662482
1176 4 0.1885 0.471978 0.740445
1175 4 0.203046 0.500936 0.702359
1174 2 0.195773 0.486457 0.721402
2016 4 0.1758 0.483128 0.750831
1140 4 0.252106 0.431596 0.670836
1138 2 0.269016 0.44987 0.673142
1139 4 0.285926 0.468143 0.675448
1987 2 0.293497 0.458352 0.729201
1229 4 0.302211 0.464495 0.68728
1989 4 0.293168 0.465777 0.705328
2028 4 0.291458 0.477218 0.691172
1228 2 0.325121 0.461433 0.677744
1230 4 0.34803 0.45837 0.668208
1101 4 0.482662 0.492027 0.684433
1099 2 0.493239 0.477899 0.702145
862 2 0.0452212 0.075625 0.751288
2989 2 0.0188346 0.0370355 0.77517
2990 4 0.0190577 0.0617007 0.771076
2991 4 0.0186116 0.0123702 0.779263
863 4 0.0290103 0.0775896 0.770223
833 4 0.0183254 0.0767289 0.785017
3083 4 0.00855843 0.0776924 0.770961
2049 4 0.112674 0.00525205 0.806941
1202 4 0.120896 0.021864 0.797075
1201 2 0.125568 0.0462162 0.793863
1203 4 0.130241 0.0705684 0.790651
32 3 0.141354 0.0826398 0.805286
1085 4 0.313868 0.0714437 0.817129
819 4 0.329375 0.0640496 0.823225
1084 2 0.300179 0.0867931 0.80291
973 2 0.380087 0.0005061 0.811829
1050 4 0.349594 0.00919761 0.79163
817 2 0.339947 0.0458176 0.809771
818 4 0.350519 0.0275857 0.796318
974 4 0.366006 0.0174134 0.799952
844 2 0.496589 0.0579611 0.81928
845 4 0.495952 0.0618305 0.794586
2322 4 0.501213 0.0531881 0.778348
1112 4 0.495582 0.0713969 0.777175
832 2 0.0208705 0.0940532 0.802866
834 4 0.0234156 0.111378 0.820714
1125 4 0.0187525 0.130234 0.824028
1106 4 0.124004 0.0916397 0.752152