ITEM: TIMESTEP
1420000
ITEM: NUMBER OF ATOMS
4590
ITEM: BOX BOUNDS pp pp pp
-9.9985700000000008e+00 9.9985700000000008e+00
-9.9985700000000008e+00 9.9985700000000008e+00
-9.9985700000000008e+00 9.9985700000000008e+00
ITEM: ATOMS id type xs ys zs
1666 2 0.0725174 0.0666454 0.072273
1668 4 0.0571509 0.0641711 0.0527045
1667 4 0.087884 0.0691197 0.0918415
297 4 0.343691 0.0768455 0.0508564
295 2 0.35445 0.0931908 0.0352919
486 4 0.383819 0.00353999 0.0537963
484 2 0.385497 0.00127488 0.0786405
747 4 0.467527 0.0652335 0.00546181
2974 2 0.470392 0.0308082 0.0270001
2976 4 0.480489 0.0124293 0.0406176
2975 4 0.460294 0.0491871 0.0133826
745 2 0.458503 0.0869957 0.013838
986 4 0.450752 0.0557475 0.998729
2264 4 0.300828 0.141624 0.0159585
296 4 0.365208 0.109536 0.0197273
557 4 0.380187 0.108596 0.00868702
556 2 0.404557 0.108245 0.0142721
769 2 0.384457 0.158259 0.0308947
771 4 0.388049 0.140682 0.0134778
827 4 0.360324 0.103743 0.00275224
558 4 0.428926 0.107894 0.0198573
746 4 0.44948 0.108758 0.0222142
566 4 0.149383 0.195487 0.0234046
567 4 0.196877 0.181075 0.0172917
565 2 0.17313 0.188281 0.0203482
738 4 0.22288 0.230818 0.0846731
358 2 0.347645 0.179574 0.0676723
770 4 0.380865 0.175835 0.0483117
359 4 0.368894 0.187302 0.056998
664 2 0.392647 0.217693 0.0645469
665 4 0.38548 0.195607 0.0552716
666 4 0.399814 0.239778 0.0738222
555 4 0.0870989 0.274076 0.0386217
553 2 0.0876655 0.268786 0.0141907
287 4 0.161058 0.313237 0.0282564
293 4 0.152439 0.296165 0.0319198
292 2 0.152169 0.282254 0.0111448
507 4 0.165272 0.305354 0.044928
554 4 0.088232 0.263496 0.98976
505 2 0.178535 0.302859 0.0659767
481 2 0.229077 0.283858 0.069918
573 4 0.26107 0.268994 0.04347
482 4 0.248091 0.271608 0.0592615
571 2 0.261791 0.268973 0.0184769
322 2 0.410819 0.280926 0.067984
1069 2 0.394589 0.300727 0.0153227
324 4 0.416978 0.284117 0.0439619
1070 4 0.415647 0.291579 0.025226
741 4 0.354731 0.321289 0.0322758
957 4 0.357837 0.308643 0.0172957
1071 4 0.373532 0.309876 0.00541943
671 4 0.454221 0.315895 0.0567445
280 2 0.449703 0.296687 0.0293991
281 4 0.466996 0.306615 0.044484
282 4 0.43241 0.286758 0.0143142
670 2 0.443605 0.322946 0.0782562
286 2 0.147234 0.333998 0.0300064
288 4 0.133409 0.354759 0.0317563
454 2 0.147747 0.37553 0.0785151
455 4 0.134344 0.356905 0.0685835
456 4 0.16115 0.394156 0.0884468
250 2 0.272894 0.397145 0.0424981
251 4 0.257228 0.385155 0.0271353
1290 4 0.264106 0.386999 0.00846103
739 2 0.366162 0.329171 0.0530698
740 4 0.377592 0.337054 0.0738639
495 4 0.399586 0.370669 0.0683511
493 2 0.395724 0.395325 0.0668248
14 3 0.388388 0.357494 0.0747276
328 2 8.6563e-05 0.445924 0.0441099
330 4 0.0136293 0.4613 0.05844
245 4 0.226914 0.436351 0.0374006
626 4 0.214855 0.438099 0.0528817
625 2 0.191767 0.443738 0.0606509
244 2 0.24547 0.442953 0.0219971
1778 4 0.232687 0.501941 0.0348053
627 4 0.16868 0.449376 0.06842
246 4 0.264025 0.449556 0.00659357
252 4 0.28856 0.409135 0.0578608
609 4 0.28699 0.42712 0.0685401
607 2 0.310315 0.426104 0.0774908
494 4 0.391861 0.419982 0.0652985
1672 2 0.391739 0.476859 0.0419589
1674 4 0.414758 0.470375 0.0346596
660 4 0.384434 0.421857 0.0841934
1673 4 0.36872 0.483343 0.0492583
854 4 0.435135 0.454903 0.0183683
563 4 0.482331 0.457041 0.03675
228 4 0.500062 0.454369 0.0453354
562 2 0.458347 0.46371 0.0344151
564 4 0.434362 0.470378 0.0320801
853 2 0.41701 0.445827 0.00373027
18 3 0.0694575 0.0656279 0.136627
16 1 0.0662021 0.0693836 0.159292
701 4 0.0889108 0.0801524 0.108445
1475 4 0.289807 0.0294593 0.0928437
492 4 0.289089 0.0496057 0.0946606
491 4 0.285729 0.0770605 0.136322
490 2 0.287409 0.0633331 0.115491
485 4 0.387174 0.99901 0.103485
2723 4 0.424315 0.0487937 0.144362
2722 2 0.448779 0.0438669 0.145926
2724 4 0.473242 0.03894 0.14749
1760 4 0.49054 0.0344687 0.15317
2467 2 0.499542 0.00483175 0.0777189
700 2 0.0944965 0.0998899 0.122742
476 4 0.088538 0.113532 0.152821
702 4 0.100082 0.119627 0.13704
581 4 0.278265 0.125543 0.178111
580 2 0.258608 0.138772 0.170127
628 2 0.398314 0.146848 0.142122
312 4 0.385052 0.112774 0.161794
629 4 0.398891 0.12604 0.155974
339 4 0.0703218 0.224911 0.13373
337 2 0.082953 0.238013 0.150875
737 4 0.236077 0.214962 0.130227
736 2 0.229478 0.22289 0.10745
360 4 0.326396 0.171846 0.0783465
461 4 0.306328 0.242375 0.111528
460 2 0.330145 0.235619 0.115031
354 4 0.291313 0.23211 0.120583
352 2 0.285374 0.235495 0.144634
353 4 0.279435 0.23888 0.168685
630 4 0.397738 0.167655 0.128269
462 4 0.353962 0.228864 0.118534
254 4 0.379565 0.169459 0.118997
255 4 0.364609 0.216268 0.128268
253 2 0.372087 0.192863 0.123632
765 4 0.357268 0.230775 0.138116
624 4 0.369966 0.236314 0.125295
763 2 0.353486 0.233438 0.162688
622 2 0.388244 0.24966 0.114667
648 4 0.0668121 0.31547 0.156101
506 4 0.191798 0.300364 0.0870254
483 4 0.210062 0.296107 0.0805745
537 4 0.187894 0.317424 0.0965961
387 4 0.329784 0.310688 0.11829
301 2 0.318084 0.311911 0.160976
302 4 0.329203 0.305989 0.139378
323 4 0.40466 0.277734 0.0920061
623 4 0.406523 0.263007 0.104039
385 2 0.348044 0.320571 0.104359
15 3 0.382836 0.325617 0.0939803
386 4 0.366305 0.330455 0.090429
528 4 0.476974 0.285759 0.108607
518 4 0.486193 0.284788 0.0915084
526 2 0.469801 0.281504 0.132179
527 4 0.462627 0.277248 0.15575
552 4 0.116166 0.35514 0.0774621
551 4 0.084607 0.350806 0.11601
550 2 0.100387 0.352973 0.0967362
535 2 0.187563 0.340033 0.10727
536 4 0.187233 0.362641 0.117945
291 4 0.217263 0.398891 0.148249
416 4 0.205565 0.408594 0.135497
289 2 0.241265 0.405211 0.145225
11 1 0.395346 0.344605 0.0927241
13 3 0.393328 0.356732 0.112403
12 3 0.417436 0.338939 0.0897137
672 4 0.432989 0.329998 0.0997678
104 3 0.497927 0.345654 0.118758
595 2 0.489751 0.393437 0.154352
1791 4 0.040235 0.489261 0.136137
1466 4 0.0331348 0.476133 0.148769
1789 2 0.0492454 0.5037 0.11782
417 4 0.161063 0.431217 0.132583
415 2 0.183314 0.419906 0.13404
608 4 0.333639 0.425089 0.0864416
768 4 0.275638 0.425958 0.15172
290 4 0.265267 0.411531 0.142201
767 4 0.265878 0.474993 0.150692
766 2 0.270758 0.450475 0.151206
525 4 0.38614 0.507607 0.151831
658 2 0.362327 0.432485 0.0890454
659 4 0.340221 0.443112 0.0938974
19 3 0.0559768 0.0899604 0.162523
17 3 0.052534 0.0528894 0.167675
2480 4 0.0368391 0.038619 0.168893
1422 4 0.0326343 0.0238104 0.182348
2479 2 0.018554 0.0508179 0.180811
20 3 0.0861821 0.0688359 0.170207
675 4 0.101832 0.00452522 0.249245
674 4 0.142671 0.0167939 0.223123
673 2 0.122252 0.0106596 0.236184
689 4 0.150692 0.00104996 0.213957
578 4 0.0869074 0.0609447 0.187428
577 2 0.107617 0.0673846 0.19987
450 4 0.138098 0.0768699 0.193983
1506 4 0.248756 0.0187325 0.166672
1504 2 0.228887 0.00546003 0.174035
654 4 0.267671 0.0145685 0.172826
652 2 0.285693 0.0266429 0.18526
653 4 0.303714 0.0387172 0.197695
24 3 0.307108 0.0732559 0.247456
25 3 0.329667 0.0456241 0.235404
21 1 0.327649 0.0628184 0.250201
311 4 0.389336 0.067784 0.183201
758 4 0.378464 0.0554221 0.194098
759 4 0.344921 0.062281 0.230547
757 2 0.361692 0.0588515 0.212322
22 3 0.344357 0.0781483 0.246327
743 4 0.497855 0.0880353 0.247852
2744 4 0.481015 0.0446898 0.166361
381 4 0.99132 0.12484 0.206713
512 4 0.000296075 0.130945 0.223534
511 2 0.020916 0.144407 0.227867
513 4 0.041536 0.157869 0.232199
393 4 0.0610228 0.161205 0.234859
448 2 0.155719 0.0939762 0.189286
475 2 0.0963155 0.124187 0.174061
477 4 0.104093 0.134842 0.195302
579 4 0.128327 0.0738244 0.212312
449 4 0.17334 0.111082 0.184589
237 4 0.222415 0.155602 0.17297
691 2 0.234828 0.12717 0.24062
693 4 0.220919 0.124406 0.220027
236 4 0.186781 0.124963 0.190063
235 2 0.204598 0.140283 0.181517
582 4 0.23895 0.152002 0.162142
310 2 0.387194 0.090279 0.172497
521 4 0.495128 0.161794 0.22984
332 4 0.490672 0.144288 0.225523
333 4 0.496186 0.0947175 0.229136
331 2 0.493429 0.119503 0.227329
762 4 0.475758 0.154404 0.23125
760 2 0.455903 0.160461 0.245189
394 2 0.0123254 0.235779 0.227083
395 4 0.0314803 0.23789 0.211151
546 4 0.146401 0.220145 0.251853
277 2 0.243098 0.233371 0.181413
279 4 0.219488 0.2253 0.18303
284 4 0.28505 0.235549 0.186766
283 2 0.309142 0.234743 0.193407
285 4 0.333234 0.233937 0.200049
27 3 0.33358 0.17185 0.232694
278 4 0.266708 0.241442 0.179797
764 4 0.349705 0.236102 0.18726
646 2 0.0610081 0.329751 0.175787
338 4 0.0955843 0.251116 0.16802
363 4 0.0892191 0.258651 0.184981
749 4 0.0819946 0.303109 0.21758
361 2 0.0944309 0.278976 0.19858
370 2 0.141447 0.300641 0.216998
372 4 0.117675 0.307868 0.214202
362 4 0.0996426 0.2993 0.212178
748 2 0.083165 0.322637 0.23315
371 4 0.16522 0.293414 0.219794
755 4 0.272686 0.257202 0.169591
754 2 0.269325 0.281306 0.175321
756 4 0.265964 0.305411 0.181052
612 4 0.262657 0.321058 0.196544
610 2 0.255499 0.32165 0.220494
307 2 0.311946 0.29551 0.216571
308 4 0.312951 0.301536 0.192325
303 4 0.306965 0.317834 0.182573
309 4 0.310941 0.289483 0.240816
611 4 0.24834 0.322242 0.244444
647 4 0.0552041 0.344032 0.195473
734 4 0.158877 0.353044 0.252833
729 4 0.304312 0.332251 0.197326
727 2 0.306987 0.353839 0.209655
728 4 0.309661 0.375426 0.221984
447 4 0.426496 0.385054 0.220505
644 4 0.441887 0.375166 0.226883
597 4 0.472319 0.381295 0.167537
643 2 0.455262 0.373665 0.205811
645 4 0.468638 0.372164 0.184739
264 4 0.00428231 0.415542 0.222522
1465 2 0.0273838 0.478559 0.172981
1467 4 0.0216327 0.480985 0.197192
1775 4 0.0966166 0.496561 0.243436
1758 4 0.105359 0.47793 0.241739
1756 2 0.116337 0.455734 0.245207
1757 4 0.127314 0.433539 0.248675
231 4 0.482856 0.48401 0.197915
234 4 0.999805 0.0482843 0.309336
232 2 0.0240336 0.0464075 0.303452
233 4 0.0482623 0.0445307 0.297567
1404 4 0.0598499 0.0297057 0.293573
1402 2 0.0724783 0.0201447 0.274227
316 2 0.0786338 0.0620271 0.312541
317 4 0.0676183 0.0423171 0.301801
428 4 0.0733013 0.026195 0.309601
427 2 0.0689689 0.00932285 0.327538
1403 4 0.0851067 0.0105837 0.25488
318 4 0.0896493 0.0817371 0.323281
23 3 0.329655 0.0548624 0.271905
699 4 0.348043 0.0662695 0.325343
349 2 0.4083 0.0853263 0.259615
697 2 0.367167 0.053689 0.335403
351 4 0.423823 0.0675065 0.25145
479 4 0.449195 0.0282301 0.302762
478 2 0.437773 0.0418195 0.285154
2664 4 0.468064 0.0241339 0.3051
480 4 0.426351 0.055409 0.267546
1428 4 0.452588 0.0158216 0.313253
258 4 0.437445 0.024112 0.319891
2662 2 0.491975 0.0271781 0.298453
391 2 0.0814326 0.157161 0.248725
692 4 0.248738 0.129933 0.261213
721 2 0.24941 0.115048 0.292983
722 4 0.240668 0.117162 0.316313
249 4 0.244505 0.116721 0.335581
28 3 0.325881 0.139372 0.249973
723 4 0.258152 0.112933 0.269653
26 1 0.329311 0.162107 0.253091
30 3 0.310716 0.171596 0.262191
404 4 0.259137 0.13094 0.338377
632 4 0.373903 0.0993583 0.264339
350 4 0.392777 0.103146 0.267781
631 2 0.358431 0.118987 0.263628
707 4 0.346466 0.148677 0.279378
633 4 0.342959 0.138616 0.262917
706 2 0.356115 0.159112 0.29995
717 4 0.414789 0.160815 0.336369
392 4 0.101842 0.153116 0.262591
389 4 0.0997722 0.220825 0.339874
544 2 0.157792 0.221895 0.274042
545 4 0.169183 0.223644 0.296231
402 4 0.185713 0.234461 0.302336
29 3 0.347563 0.16553 0.267005
708 4 0.365764 0.169547 0.320521
761 4 0.436049 0.166517 0.259128
750 4 0.0843355 0.342165 0.248721
400 2 0.201522 0.251385 0.29291
401 4 0.217332 0.268308 0.283485
676 2 0.179261 0.314661 0.311815
345 4 0.204017 0.315283 0.283898
677 4 0.185786 0.312701 0.287757
343 2 0.225057 0.310963 0.271097
735 4 0.189408 0.317215 0.269709
678 4 0.172736 0.31662 0.335872
344 4 0.246096 0.306643 0.258297
496 2 0.291563 0.290512 0.271354
497 4 0.291201 0.285508 0.295849
377 4 0.282732 0.268096 0.30061
498 4 0.291925 0.295515 0.246859
376 2 0.287256 0.260554 0.324016
615 4 0.366139 0.326046 0.33081
420 4 0.434752 0.283888 0.333157
418 2 0.448469 0.263409 0.328961
365 4 0.0268525 0.361927 0.282234
601 2 0.0595445 0.374417 0.304956
603 4 0.0449746 0.361103 0.289606
602 4 0.0741143 0.387731 0.320306
364 2 0.00395084 0.361148 0.292238
549 4 0.0712051 0.406918 0.326098
299 4 0.149089 0.368354 0.242331
300 4 0.104182 0.346623 0.24578
298 2 0.126636 0.357488 0.244056
733 2 0.174142 0.33513 0.261271
433 2 0.288288 0.371437 0.311664
435 4 0.267029 0.384591 0.31207
434 4 0.309548 0.358283 0.311257
614 4 0.327579 0.355238 0.318095
445 2 0.403558 0.382278 0.230061
613 2 0.346859 0.340642 0.324453
446 4 0.38062 0.379501 0.239617
2463 4 0.995365 0.474325 0.3171
2461 2 0.0115126 0.491447 0.325541
777 4 0.128561 0.487126 0.271941
775 2 0.113137 0.489214 0.291509
776 4 0.0977123 0.491302 0.311077
1435 2 0.240491 0.46748 0.331031
1436 4 0.222292 0.475427 0.315838
413 4 0.219372 0.482779 0.296865
3 3 0.315051 0.467996 0.324573
437 4 0.379714 0.472622 0.328005
436 2 0.355342 0.476949 0.331532
438 4 0.330969 0.481276 0.335059
1803 4 0.361149 0.489865 0.269165
119 3 0.498927 0.454986 0.321084
367 2 0.0699306 0.00808613 0.397464
369 4 0.0450724 0.00984939 0.39543
719 4 0.0322253 0.00104756 0.407716
1781 4 0.106742 0.00941621 0.415967
368 4 0.0947888 0.00632288 0.399499
732 4 0.0937339 0.070778 0.339832
730 2 0.110847 0.0666506 0.357589
731 4 0.127959 0.0625233 0.375346
606 4 0.143288 0.0703648 0.367377
1700 4 0.308295 0.0533424 0.354601
1701 4 0.319802 0.0239319 0.393374
1699 2 0.314049 0.0386371 0.373987
425 4 0.327742 0.022258 0.410397
441 4 0.308581 0.0186808 0.40853
698 4 0.38629 0.0411086 0.345463
426 4 0.377722 0.0222644 0.412056
424 2 0.352732 0.0222612 0.411227
257 4 0.405402 0.0429598 0.353338
726 4 0.39697 0.0655051 0.4248
256 2 0.421423 0.0335359 0.336615
2584 2 0.0206137 0.124933 0.363734
397 2 0.0691431 0.105849 0.349531
398 4 0.0541165 0.123893 0.358122
2586 4 0.0428448 0.130079 0.373955
458 4 0.0393276 0.132637 0.392348
457 2 0.0425523 0.150456 0.409589
399 4 0.0841696 0.0878053 0.34094
598 2 0.129985 0.159751 0.356285
600 4 0.117917 0.140011 0.346805
604 2 0.166989 0.0748899 0.360825
605 4 0.190691 0.079415 0.354273
248 4 0.20003 0.0957564 0.344699
247 2 0.222268 0.106239 0.34014
683 4 0.242387 0.0873958 0.382327
403 2 0.25843 0.155671 0.341988
682 2 0.262273 0.0987884 0.392323
319 2 0.307137 0.129324 0.404568
684 4 0.28216 0.110181 0.402318
321 4 0.318451 0.146749 0.390656
320 4 0.295824 0.111898 0.418479
725 4 0.403312 0.104604 0.394275
724 2 0.400141 0.0850545 0.409537
388 2 0.11503 0.24056 0.338173
599 4 0.142053 0.179492 0.365764
686 4 0.136476 0.178585 0.385009
685 2 0.125649 0.194448 0.401019
275 4 0.154364 0.179334 0.350514
687 4 0.114823 0.210311 0.41703
472 2 0.237434 0.205853 0.353203
474 4 0.214011 0.214022 0.350075
276 4 0.199741 0.200239 0.348354
274 2 0.177052 0.189787 0.349434
405 4 0.257724 0.180402 0.3456
473 4 0.260858 0.197683 0.35633
715 2 0.405617 0.175654 0.354281
466 2 0.379685 0.196906 0.401534
716 4 0.396446 0.190493 0.372194
467 4 0.378964 0.200704 0.376831
269 4 0.466719 0.229061 0.339227
270 4 0.483272 0.219049 0.38534
452 4 0.465795 0.214811 0.394144
268 2 0.474996 0.224055 0.362283
618 4 0.0625982 0.323977 0.388519
616 2 0.0845338 0.313475 0.382713
390 4 0.130288 0.260295 0.336471
617 4 0.106469 0.302972 0.376907
374 4 0.109912 0.29801 0.357604
373 2 0.133068 0.306184 0.352899
375 4 0.156225 0.314358 0.348193
509 4 0.261091 0.309942 0.377859
378 4 0.291779 0.253013 0.347422
508 2 0.260991 0.326839 0.359429
488 4 0.343042 0.264734 0.405037
510 4 0.260891 0.343735 0.340999
541 2 0.403877 0.308631 0.330597
543 4 0.382586 0.317971 0.3214
419 4 0.462187 0.24293 0.324765
542 4 0.425169 0.29929 0.339795
347 4 0.0455671 0.336803 0.387595
346 2 0.0339657 0.358418 0.382757
348 4 0.0223642 0.380032 0.377919
668 4 0.317867 0.387236 0.401493
336 4 0.329642 0.37235 0.408864
334 2 0.353676 0.366085 0.411738
752 4 0.488642 0.396725 0.388376
561 4 0.485999 0.402036 0.407524
547 2 0.0839048 0.417438 0.344892
407 4 0.114129 0.437296 0.371181
548 4 0.0966046 0.427958 0.363686
406 2 0.117648 0.444526 0.394857
408 4 0.121167 0.451756 0.418532
1437 4 0.258689 0.459532 0.346224
5 3 0.287329 0.491906 0.333374
1 1 0.305338 0.480568 0.341485
4 3 0.298779 0.466701 0.358894
2 3 0.320831 0.495618 0.349398
593 4 0.396796 0.456729 0.387692
588 4 0.409787 0.457862 0.401897
751 2 0.49382 0.416847 0.374465
592 2 0.411498 0.465697 0.369565
714 4 0.48359 0.460386 0.338392
712 2 0.462226 0.473259 0.340146
117 3 0.493717 0.457543 0.358218
594 4 0.426201 0.474664 0.351438
713 4 0.440863 0.486131 0.341901
720 4 0.00299417 0.00955903 0.447387
718 2 0.0176097 0.0053033 0.427552
962 4 0.315982 0.0311026 0.422395
961 2 0.310122 0.0422925 0.443973
963 4 0.304262 0.0534823 0.465551
432 4 0.309721 0.0604834 0.48383
1218 4 0.440166 0.0678608 0.510733
459 4 0.045777 0.168275 0.42683
640 2 0.476064 0.12701 0.456931
641 4 0.456038 0.140571 0.463274
260 4 0.0574634 0.181065 0.437384
259 2 0.0803149 0.190331 0.433245
261 4 0.103166 0.199597 0.429106
1035 4 0.114261 0.214536 0.435616
1033 2 0.107882 0.232935 0.451299
489 4 0.333135 0.233957 0.443187
468 4 0.380407 0.193107 0.426236
514 2 0.410961 0.197008 0.450508
411 4 0.339532 0.222947 0.459174
516 4 0.389569 0.189606 0.461127
409 2 0.357178 0.206412 0.452822
410 4 0.374825 0.189876 0.44647
575 4 0.380294 0.189282 0.477564
451 2 0.453982 0.2023 0.412284
515 4 0.432353 0.204411 0.439888
453 4 0.442168 0.189789 0.430425
585 4 0.482982 0.228683 0.44297
2847 4 0.0216045 0.32586 0.467111
1034 4 0.101502 0.251334 0.466981
1258 2 0.114004 0.285329 0.476821
1259 4 0.124379 0.307135 0.470337
9 3 0.121408 0.326086 0.464666
696 4 0.0904548 0.257865 0.498472
1260 4 0.103629 0.263523 0.483304
487 2 0.338089 0.249346 0.424112
266 4 0.361457 0.252376 0.469694
267 4 0.370066 0.298731 0.486362
265 2 0.365761 0.275553 0.478028
583 2 0.486482 0.238614 0.465649
584 4 0.489981 0.248545 0.488327
2845 2 0.00144463 0.340519 0.469078
326 4 0.0540919 0.379277 0.458184
325 2 0.076706 0.377431 0.468689
10 3 0.132632 0.354527 0.442694
6 1 0.128606 0.348139 0.46418
7 3 0.112169 0.361525 0.473111
327 4 0.0993202 0.375585 0.479195
709 2 0.153379 0.397713 0.476212
8 3 0.14789 0.350459 0.476874
711 4 0.136771 0.408867 0.461214
503 4 0.212672 0.36437 0.438051
504 4 0.183874 0.380079 0.475796
502 2 0.198273 0.372225 0.456924
710 4 0.169988 0.38656 0.49121
667 2 0.314373 0.406591 0.416931
669 4 0.310878 0.425945 0.43237
882 4 0.372101 0.365584 0.500447
335 4 0.377711 0.359819 0.414613
238 2 0.401901 0.388005 0.43348
240 4 0.394924 0.367259 0.421393
239 4 0.408878 0.40875 0.445568
3307 2 0.506167 0.393766 0.485427
1381 2 0.00620333 0.491658 0.46495
1383 4 0.00446262 0.468408 0.455917
680 4 0.991248 0.458244 0.444001
570 4 0.159405 0.498828 0.449031
569 4 0.126005 0.469157 0.426563
382 2 0.117699 0.433004 0.448621
384 4 0.116662 0.410624 0.459722
568 2 0.142705 0.483992 0.437797
383 4 0.118735 0.455384 0.437521
1544 4 0.225908 0.499116 0.43632
1556 4 0.233033 0.514465 0.448086
774 4 0.308915 0.434807 0.450595
1555 2 0.256877 0.507581 0.44504
772 2 0.309421 0.431504 0.475375
634 2 0.301607 0.467921 0.431152
1557 4 0.28072 0.500698 0.441995
636 4 0.291341 0.490449 0.427641
635 4 0.311872 0.445394 0.434663
773 4 0.309927 0.428201 0.500154
663 4 0.439627 0.472555 0.460337
661 2 0.459956 0.481241 0.472019
587 4 0.402414 0.428299 0.44155
586 2 0.4061 0.44308 0.421723
342 4 0.217501 0.0768191 0.51526
340 2 0.21789 0.0527402 0.508535
341 4 0.218279 0.0286613 0.501809
2430 4 0.215282 0.0129757 0.511748
1152 4 0.204922 0.0829187 0.529984
1150 2 0.213805 0.0885371 0.552671
1151 4 0.222689 0.0941554 0.575358
2428 2 0.199013 0.00489219 0.528929
430 2 0.31828 0.0763248 0.501179
431 4 0.326839 0.0921662 0.518527
1216 2 0.41528 0.0654361 0.510861
1217 4 0.390395 0.0630113 0.510989
842 4 0.389386 0.0750731 0.527282
3007 2 0.491629 0.0610162 0.567518
3009 4 0.499562 0.0772529 0.550237
1128 4 0.0097364 0.110743 0.590567
1058 4 0.124879 0.110646 0.524308
1057 2 0.122563 0.11207 0.549164
1059 4 0.120246 0.113493 0.574019
1155 4 0.132588 0.125756 0.580166
1181 4 0.213687 0.166087 0.567863
1180 2 0.233397 0.156371 0.555934
1032 4 0.234627 0.0809396 0.582985
1182 4 0.253107 0.146655 0.544005
900 4 0.263045 0.155005 0.528844
843 4 0.342911 0.0930953 0.531274
841 2 0.366149 0.0840842 0.529278
3159 4 0.483862 0.169183 0.578478
1199 4 0.0326633 0.2057 0.574114
1198 2 0.0090103 0.210251 0.567406
878 4 0.0394209 0.222734 0.582416
1244 4 0.0371348 0.240921 0.577495
470 4 0.0111002 0.18314 0.517816
1271 4 0.119384 0.156826 0.576265
796 2 0.239439 0.24287 0.568374
858 4 0.188911 0.227163 0.503556
798 4 0.214727 0.242298 0.564608
856 2 0.209046 0.241729 0.506312
898 2 0.278751 0.174415 0.530169
650 4 0.292263 0.210988 0.519736
899 4 0.294457 0.193824 0.531494
649 2 0.291496 0.23541 0.52504
576 4 0.3922 0.169524 0.521932
574 2 0.386247 0.179403 0.499748
1243 2 0.0384714 0.265508 0.581843
982 2 0.0225145 0.319462 0.576345
695 4 0.0413531 0.266349 0.494258
694 2 0.0659039 0.262107 0.496365
857 4 0.229181 0.256295 0.509068
947 4 0.200873 0.254884 0.557092
946 2 0.184982 0.26839 0.570885
797 4 0.264151 0.243441 0.57214
651 4 0.290729 0.259833 0.530343
791 4 0.264926 0.262758 0.569079
790 2 0.282788 0.276468 0.579949
872 4 0.371998 0.265131 0.554067
871 2 0.384899 0.28636 0.556904
873 4 0.3978 0.30759 0.559742
813 4 0.388488 0.325318 0.560466
906 4 0.486652 0.315141 0.592331
953 4 0.476887 0.29723 0.59169
984 4 0.0175878 0.336502 0.558723
3354 4 0.00293546 0.348732 0.566018
1189 2 0.231827 0.36668 0.577552
1190 4 0.252681 0.358984 0.566105
803 4 0.254647 0.370453 0.549509
804 4 0.290551 0.353827 0.518928
802 2 0.272599 0.36214 0.534219
930 4 0.320081 0.366297 0.578028
928 2 0.324858 0.382029 0.55919
1239 4 0.329178 0.350424 0.569625
811 2 0.408345 0.338442 0.568125
812 4 0.428201 0.351565 0.575784
929 4 0.329636 0.39776 0.540351
881 4 0.349187 0.395911 0.532941
880 2 0.360644 0.380748 0.516694
927 4 0.422608 0.370343 0.574106
925 2 0.441841 0.386316 0.573785
1011 4 0.48762 0.368088 0.496771
3308 4 0.501549 0.380252 0.50595
926 4 0.461075 0.40229 0.573465
538 2 0.0823326 0.452741 0.580665
539 4 0.0683078 0.433241 0.587609
540 4 0.0963575 0.472241 0.573721
1160 4 0.11849 0.492346 0.557697
1159 2 0.133508 0.483183 0.575464
1161 4 0.148526 0.474019 0.593232
2244 4 0.098995 0.485943 0.558669
1188 4 0.163187 0.463399 0.588116
1951 2 0.369956 0.497178 0.565004
1952 4 0.352602 0.486238 0.579298
1002 4 0.454871 0.418799 0.582923
1909 2 0.432912 0.489017 0.572134
2114 4 0.00438809 0.0033181 0.603122
1082 4 0.0610485 0.0625071 0.662406
1081 2 0.063846 0.0770476 0.642259
823 2 0.167088 0.0281935 0.65517
825 4 0.160781 0.0494883 0.666655
824 4 0.173396 0.00689869 0.643684
1030 2 0.253022 0.0752616 0.598939
1031 4 0.271418 0.0695836 0.614894
951 4 0.288324 0.0583123 0.621238
949 2 0.302251 0.0375944 0.622651
950 4 0.316177 0.0168764 0.624065
2283 4 0.387059 0.998367 0.631844
809 4 0.481608 0.0398639 0.605187
808 2 0.471728 0.0508324 0.625367
810 4 0.461847 0.061801 0.645547
3008 4 0.483696 0.0447796 0.584799
1083 4 0.0666436 0.0915882 0.622111
938 4 0.0785873 0.107816 0.616789
1126 2 0.0281851 0.102044 0.605029
1127 4 0.0466338 0.0933446 0.619491
939 4 0.115643 0.126377 0.588805
937 2 0.097115 0.117096 0.602797
1153 2 0.151834 0.137347 0.591138
1221 4 0.170325 0.16829 0.610871
1154 4 0.171081 0.148937 0.602111
886 2 0.296859 0.161237 0.655076
887 4 0.321282 0.156396 0.657374
45 3 0.457267 0.0843478 0.646331
3424 2 0.488601 0.111543 0.654181
3425 4 0.472227 0.0936836 0.660352
877 2 0.0613707 0.216658 0.592734
879 4 0.0833205 0.210582 0.603052
1272 4 0.091094 0.193818 0.594485
1270 2 0.105239 0.175322 0.585375
1212 4 0.214497 0.200911 0.648775
1219 2 0.183795 0.183786 0.62514
1220 4 0.197266 0.199281 0.639409
1210 2 0.233561 0.185489 0.653667
888 4 0.272437 0.166077 0.652778
1211 4 0.252624 0.170067 0.658558
1194 4 0.337404 0.158065 0.64413
1192 2 0.361041 0.165658 0.6471
1193 4 0.384678 0.173251 0.65007
983 4 0.0274413 0.302421 0.593967
1245 4 0.039808 0.290094 0.58619
1136 4 0.160094 0.280068 0.602517
1135 2 0.15216 0.303509 0.606082
1137 4 0.144227 0.326951 0.609648
822 4 0.17049 0.301443 0.665673
948 4 0.169091 0.281896 0.584678
1064 4 0.186279 0.305573 0.677141
1238 4 0.308651 0.306563 0.5821
1237 2 0.318915 0.328494 0.575863
792 4 0.30065 0.290178 0.590819
806 4 0.316884 0.326446 0.665237
952 2 0.453839 0.294988 0.601119
954 4 0.43079 0.292746 0.610548
3123 4 0.48209 0.259371 0.656881
1039 2 0.06776 0.385926 0.621991
1041 4 0.049636 0.384732 0.639175
3264 4 0.0340392 0.382645 0.651671
3262 2 0.0205178 0.365744 0.66419
3240 4 0.0181969 0.393673 0.648319
1040 4 0.0858841 0.387121 0.604808
993 4 0.104681 0.380551 0.598406
897 4 0.155056 0.338427 0.600093
991 2 0.12132 0.362717 0.603908
992 4 0.137958 0.344883 0.60941
895 2 0.172953 0.3544 0.593042
1172 4 0.218526 0.384576 0.603333
1191 4 0.210973 0.374375 0.589
896 4 0.190851 0.370373 0.585991
1171 2 0.209464 0.405282 0.614026
1206 4 0.373508 0.414976 0.611375
3238 2 0.00977395 0.416775 0.643789
1186 2 0.17285 0.446378 0.603675
1173 4 0.200403 0.425988 0.624719
1187 4 0.182514 0.429358 0.619235
1139 4 0.242484 0.461643 0.645329
1138 2 0.244396 0.446501 0.665134
891 4 0.323707 0.430684 0.589231
889 2 0.331019 0.454551 0.590675
1230 4 0.357705 0.419463 0.665982
890 4 0.338331 0.478418 0.592118
1204 2 0.388263 0.418455 0.631259
1205 4 0.403017 0.421935 0.651143
1911 4 0.450601 0.48518 0.589384
1000 2 0.456184 0.442626 0.590387
1001 4 0.457498 0.466454 0.59785
1269 4 0.454012 0.481914 0.607455
1267 2 0.457889 0.49701 0.627006
943 2 0.0629964 0.0184223 0.673017
944 4 0.0590209 0.0410744 0.682827
1076 4 0.0554336 0.0609652 0.681511
1075 2 0.0605269 0.0782738 0.698821
4520 4 0.0254535 0.00685502 0.682123
1283 4 0.153981 0.0570176 0.685067
1282 2 0.144813 0.0768134 0.697283
1284 4 0.135644 0.0966091 0.7095
1147 2 0.239955 0.0419257 0.704926
1148 4 0.221397 0.0522165 0.691701
1226 4 0.218115 0.0699509 0.683869
1149 4 0.258513 0.0316349 0.71815
1092 4 0.317054 0.0222954 0.696263
1004 4 0.383929 0.0748494 0.715697
42 3 0.460667 0.0537894 0.667485
41 1 0.454522 0.0759562 0.667323
43 3 0.432264 0.0776167 0.673665
1163 4 0.474196 0.0651708 0.681629
1162 2 0.491343 0.0531722 0.695311
864 4 0.0588014 0.0976227 0.735931
1077 4 0.0656201 0.0955824 0.716132
1107 4 0.0745567 0.105325 0.729037
851 4 0.0772882 0.108432 0.708508
850 2 0.0781842 0.130521 0.696827
862 2 0.0373399 0.0961138 0.748671
852 4 0.0790802 0.15261 0.685146
1105 2 0.092012 0.104183 0.746903
909 4 0.168835 0.14053 0.746397
907 2 0.189215 0.134964 0.733023
908 4 0.209595 0.129399 0.719649
1227 4 0.208926 0.113233 0.707169
1225 2 0.213521 0.0915922 0.695519
830 4 0.321472 0.154729 0.677465
829 2 0.334226 0.140538 0.693624
831 4 0.34698 0.126347 0.709783
1003 2 0.374578 0.0980109 0.714564
1005 4 0.365227 0.121172 0.71343
44 3 0.467913 0.0875621 0.682302
1144 2 0.491748 0.162516 0.728693
1142 4 0.451334 0.165962 0.73639
1178 4 0.99652 0.235177 0.713072
1177 2 0.0129723 0.251706 0.704054
1072 2 0.0975171 0.214314 0.728995
1074 4 0.105907 0.236858 0.735819
1073 4 0.0891268 0.19177 0.722172
978 4 0.277103 0.193823 0.742112
1025 4 0.443407 0.186507 0.679087
1262 4 0.469332 0.190389 0.739187
1024 2 0.449223 0.184465 0.703318
1026 4 0.455039 0.182423 0.72755
1261 2 0.472191 0.21388 0.74726
1145 4 0.469332 0.173545 0.72972
1179 4 0.0294246 0.268234 0.695037
1209 4 0.126262 0.282852 0.710263
1207 2 0.114774 0.268526 0.727234
1208 4 0.103286 0.254201 0.744204
821 4 0.135278 0.298741 0.701079
820 2 0.152884 0.300092 0.683376
1063 2 0.204383 0.321869 0.671495
1065 4 0.222487 0.338165 0.665849
805 2 0.293922 0.32108 0.673552
807 4 0.27096 0.315715 0.681867
3263 4 0.00699642 0.348844 0.676709
892 2 0.022511 0.34798 0.740405
894 4 0.0396158 0.357181 0.724659
1280 4 0.0527254 0.353354 0.709716
1279 2 0.0554489 0.37811 0.707506
816 4 0.0671668 0.345122 0.722014
1281 4 0.0581724 0.402867 0.705296
814 2 0.0885847 0.342497 0.734645
815 4 0.110003 0.339872 0.747277
1028 4 0.232296 0.376729 0.721313
1066 2 0.201489 0.365075 0.743746
1068 4 0.223639 0.361103 0.732846
1027 2 0.241178 0.395863 0.70789
1067 4 0.17934 0.369046 0.754646
1983 4 0.0494827 0.416471 0.71756
1981 2 0.0641218 0.435729 0.723885
1982 4 0.0787608 0.454987 0.730209
1140 4 0.246308 0.431358 0.684939
1029 4 0.25006 0.414997 0.694467
1987 2 0.318089 0.479726 0.721071
1989 4 0.33107 0.463659 0.706981
1228 2 0.34621 0.438354 0.677651
1229 4 0.334714 0.457244 0.689321
2991 4 0.0205757 0.0434241 0.800549
2989 2 0.0136973 0.06271 0.786199
2990 4 0.00681884 0.0819959 0.771849
2049 4 0.129534 0.0358095 0.776728
1202 4 0.110455 0.0361794 0.775385
2047 2 0.137298 0.0131182 0.769656
1201 2 0.111848 0.0589894 0.785531
817 2 0.314892 0.0377959 0.826472
818 4 0.325264 0.0190397 0.813595
1257 4 0.24899 0.0802449 0.773582
974 4 0.341068 0.0123528 0.80439
973 2 0.362358 0.00877833 0.817005
1050 4 0.337378 0.997938 0.791099
1113 4 0.411707 0.0407562 0.782306
2322 4 0.488188 0.0368495 0.76972
1111 2 0.435707 0.0474893 0.780348
845 4 0.48004 0.0540797 0.778671
1112 4 0.459707 0.0542224 0.77839
844 2 0.48032 0.0785293 0.783898
3083 4 0.999767 0.0933443 0.756355
863 4 0.0158784 0.0946049 0.761411
833 4 0.999529 0.0986835 0.774595
832 2 0.00593818 0.116347 0.79109
834 4 0.0123475 0.134011 0.807585
1125 4 0.0310997 0.133712 0.816473
1123 2 0.0410618 0.156419 0.819691
1106 4 0.109467 0.103041 0.764769
1203 4 0.113241 0.0817994 0.795677
911 4 0.1014 0.105845 0.823504
34 3 0.118316 0.099755 0.782445
31 1 0.120595 0.105786 0.804735
35 3 0.106587 0.123077 0.809577
32 3 0.115179 0.0877282 0.817915
33 3 0.142546 0.111926 0.809075
1256 4 0.263683 0.0852367 0.82112
840 4 0.248286 0.0923183 0.831359
1255 2 0.256336 0.0827408 0.797351
1084 2 0.311465 0.0910712 0.813712
1086 4 0.316529 0.109145 0.797193
47 3 0.395063 0.156465 0.811616
1023 4 0.397898 0.157261 0.831321
48 3 0.399372 0.165507 0.77539
46 1 0.402857 0.17261 0.797203
846 4 0.480599 0.102979 0.789124
1143 4 0.420741 0.17013 0.775727
1141 2 0.436038 0.168046 0.756058
1124 4 0.0510239 0.179125 0.822909
1130 4 0.128388 0.232324 0.77918
1129 2 0.152284 0.238455 0.775114
1131 4 0.176181 0.244586 0.771047
977 4 0.302313 0.218248 0.77773
918 4 0.290152 0.233932 0.781216
976 2 0.289708 0.206036 0.759921
1298 4 0.302991 0.228692 0.794204
1297 2 0.319329 0.222524 0.812098
1299 4 0.335667 0.216356 0.829993
1042 2 0.377963 0.225947 0.803582