ITEM: TIMESTEP
1810000
ITEM: NUMBER OF ATOMS
4590
ITEM: BOX BOUNDS pp pp pp
-9.9985700000000008e+00 9.9985700000000008e+00
-9.9985700000000008e+00 9.9985700000000008e+00
-9.9985700000000008e+00 9.9985700000000008e+00
ITEM: ATOMS id type xs ys zs
1666 2 0.0418623 0.0655669 0.0602139
1668 4 0.0319783 0.0535489 0.0406422
1667 4 0.0517463 0.077585 0.0797856
1474 2 0.309886 0.0117417 0.0716254
2974 2 0.472339 0.0245375 0.00905801
2976 4 0.477616 0.00622453 0.0252432
2467 2 0.482992 0.997017 0.0673691
2469 4 0.48876 0.993312 0.0914146
2975 4 0.467061 0.0428505 0.992873
566 4 0.180377 0.146154 0.0258391
2264 4 0.245373 0.163695 0.0172751
565 2 0.202832 0.156411 0.0218703
297 4 0.328881 0.117458 0.0328767
295 2 0.347246 0.110183 0.0175478
556 2 0.402177 0.107881 0.00577146
296 4 0.365611 0.102908 0.00221887
769 2 0.401842 0.170307 0.00409467
770 4 0.390246 0.168362 0.0261611
359 4 0.37284 0.164162 0.0322916
745 2 0.453732 0.0826984 0.00512044
558 4 0.424962 0.100083 0.0124967
746 4 0.444226 0.105652 0.00793747
567 4 0.225287 0.166667 0.0179015
1133 4 0.223051 0.184881 0.0071514
360 4 0.32888 0.184011 0.0190913
358 2 0.35086 0.174087 0.0256914
664 2 0.394366 0.195809 0.0570682
665 4 0.384943 0.179311 0.0408145
666 4 0.40379 0.212308 0.0733218
323 4 0.413501 0.229198 0.0719654
623 4 0.402402 0.226483 0.0878854
322 2 0.415136 0.246869 0.0543509
1292 4 0.327908 0.194509 0.0013874
555 4 0.0521216 0.275675 0.0185503
287 4 0.152879 0.317567 0.0372931
292 2 0.122997 0.287154 0.0278936
507 4 0.155104 0.303012 0.0499861
293 4 0.142695 0.300252 0.0359932
294 4 0.103299 0.274056 0.0197939
286 2 0.162274 0.329393 0.0173671
505 2 0.170158 0.300901 0.0698381
481 2 0.228395 0.301249 0.0766932
483 4 0.203823 0.300983 0.0813117
573 4 0.269352 0.292248 0.0668171
482 4 0.252966 0.301515 0.0720746
571 2 0.272256 0.283102 0.0437281
572 4 0.275161 0.273957 0.020639
357 4 0.279124 0.272053 0.00185839
1069 2 0.39555 0.288691 0.0201628
957 4 0.366013 0.319154 0.0213919
1071 4 0.373436 0.300122 0.0178267
955 2 0.344903 0.316312 0.00829738
741 4 0.368236 0.325009 0.0410293
324 4 0.416772 0.264539 0.0367365
1070 4 0.417665 0.27726 0.0224988
671 4 0.45057 0.320012 0.0717483
280 2 0.445261 0.299034 0.0372636
281 4 0.454744 0.316069 0.0529181
282 4 0.435777 0.281999 0.0216091
670 2 0.429933 0.326736 0.0841608
454 2 0.171779 0.380338 0.0539787
455 4 0.153141 0.36569 0.0619319
552 4 0.135197 0.373493 0.0664887
550 2 0.118482 0.354994 0.0683847
551 4 0.101766 0.336496 0.0702807
288 4 0.171669 0.34122 0.997441
456 4 0.190417 0.394986 0.0460254
1290 4 0.276152 0.405556 0.0240909
252 4 0.270327 0.413422 0.0736052
1288 2 0.2782 0.389737 0.00483564
739 2 0.372558 0.329912 0.0651634
495 4 0.391276 0.364625 0.0810613
493 2 0.3878 0.38938 0.0815633
494 4 0.384325 0.414136 0.0820653
330 4 0.00700833 0.43221 0.0188066
245 4 0.236481 0.480797 0.0610637
626 4 0.216288 0.478328 0.0615727
625 2 0.201445 0.460883 0.0715992
627 4 0.186602 0.443437 0.0816256
244 2 0.2534 0.47149 0.04518
246 4 0.27032 0.462183 0.0292963
251 4 0.269591 0.424194 0.0247774
250 2 0.269959 0.418808 0.0491913
272 4 0.266923 0.443811 0.0225776
1672 2 0.406165 0.44537 0.0698528
853 2 0.408863 0.436792 0.00964758
1674 4 0.414412 0.447452 0.0463404
854 4 0.421217 0.447159 0.0287548
563 4 0.482705 0.449089 0.0387177
562 2 0.45794 0.449631 0.042115
564 4 0.433174 0.450174 0.0455122
228 4 0.496295 0.435903 0.0411093
701 4 0.0490889 0.0823544 0.0978982
18 3 0.0686332 0.0417553 0.138953
16 1 0.0653307 0.0490982 0.160715
1475 4 0.306597 0.0344225 0.0816224
492 4 0.306937 0.0399868 0.101461
490 2 0.295527 0.0613374 0.0952037
491 4 0.284117 0.0826879 0.0889467
2723 4 0.451226 0.0699776 0.147804
2722 2 0.464871 0.0493497 0.144132
2724 4 0.478516 0.0287218 0.14046
1760 4 0.494174 0.0179289 0.141736
2744 4 0.486302 0.0270683 0.157816
700 2 0.0664028 0.100355 0.0990732
702 4 0.0837166 0.118356 0.100248
476 4 0.0928213 0.135351 0.104348
475 2 0.0916771 0.145016 0.12738
477 4 0.0905328 0.154681 0.150412
237 4 0.233069 0.14011 0.154577
582 4 0.245129 0.124426 0.158446
449 4 0.170946 0.126 0.166144
580 2 0.268582 0.120023 0.165912
628 2 0.358854 0.144878 0.149745
312 4 0.384524 0.115075 0.160222
629 4 0.372947 0.129983 0.164053
630 4 0.344761 0.159772 0.135437
339 4 0.0759084 0.227693 0.14042
337 2 0.0637907 0.244907 0.153912
736 2 0.241129 0.180999 0.113713
738 4 0.229199 0.19204 0.0947145
737 4 0.253058 0.169958 0.132712
461 4 0.304991 0.242195 0.0966968
460 2 0.326932 0.239493 0.108379
354 4 0.28747 0.23826 0.106802
352 2 0.276735 0.241652 0.129128
353 4 0.266001 0.245043 0.151454
254 4 0.353014 0.176718 0.142342
462 4 0.348873 0.236791 0.120061
255 4 0.356555 0.225728 0.133057
253 2 0.354785 0.201223 0.1377
765 4 0.359643 0.2435 0.137765
624 4 0.367365 0.238954 0.121316
622 2 0.384883 0.232719 0.104601
763 2 0.348043 0.250009 0.158937
506 4 0.185212 0.29879 0.0896901
537 4 0.175682 0.304532 0.1057
535 2 0.188208 0.317739 0.122842
536 4 0.200734 0.330945 0.139985
755 4 0.245918 0.250201 0.154928
387 4 0.31625 0.314793 0.117552
301 2 0.313028 0.304117 0.160394
302 4 0.311832 0.308101 0.135739
385 2 0.338005 0.321338 0.107109
15 3 0.370701 0.32801 0.11137
518 4 0.500402 0.274669 0.0967079
528 4 0.483472 0.265577 0.0908486
526 2 0.467915 0.28501 0.0884979
527 4 0.452358 0.304443 0.0861473
315 4 0.0168034 0.39169 0.117298
647 4 0.0645469 0.353013 0.148687
417 4 0.141412 0.405291 0.152191
415 2 0.166241 0.402337 0.152191
291 4 0.202379 0.388917 0.138232
289 2 0.219655 0.406756 0.135315
416 4 0.191069 0.399383 0.152192
14 3 0.393872 0.34966 0.091072
386 4 0.35976 0.327884 0.0966663
12 3 0.40702 0.329374 0.119851
740 4 0.37688 0.334815 0.0892976
672 4 0.409295 0.333461 0.0965733
11 1 0.38902 0.341512 0.112249
13 3 0.385166 0.359145 0.12683
595 2 0.481859 0.407092 0.123973
597 4 0.483758 0.396506 0.146545
645 4 0.490299 0.407668 0.16123
102 3 0.498084 0.34314 0.127271
596 4 0.479959 0.417678 0.101401
1791 4 0.0633037 0.479925 0.121276
1466 4 0.055159 0.477701 0.138462
1465 2 0.0358647 0.473968 0.153921
1467 4 0.0165705 0.470235 0.169379
290 4 0.236932 0.424594 0.132397
637 2 0.236513 0.501861 0.123964
609 4 0.286706 0.419237 0.0834851
607 2 0.306863 0.419543 0.0982767
608 4 0.32702 0.419848 0.113068
768 4 0.253964 0.428676 0.121744
767 4 0.268892 0.476227 0.125837
766 2 0.261428 0.452452 0.12379
638 4 0.249972 0.480808 0.124851
1673 4 0.397918 0.443287 0.0933652
659 4 0.340358 0.432703 0.120593
660 4 0.382217 0.431681 0.0932524
658 2 0.361288 0.432192 0.106923
1559 4 0.352096 0.48666 0.114923
19 3 0.0700086 0.0717755 0.162219
17 3 0.0433279 0.0456464 0.166469
2480 4 0.0344464 0.0379477 0.181387
1422 4 0.0365063 0.0186427 0.188364
2479 2 0.018022 0.0533719 0.192227
20 3 0.0787298 0.037438 0.174968
2481 4 0.00159752 0.0687962 0.203067
578 4 0.0938252 0.0507603 0.175846
674 4 0.134228 0.019662 0.204459
673 2 0.127164 0.0134694 0.227631
689 4 0.151203 0.0144371 0.193949
577 2 0.115611 0.0608701 0.182798
579 4 0.137398 0.0709799 0.18975
675 4 0.1201 0.00727687 0.250803
652 2 0.283074 0.0133944 0.203256
25 3 0.330921 0.0410133 0.235523
654 4 0.262012 0.017377 0.190384
1506 4 0.2442 0.0146679 0.18232
311 4 0.373346 0.0690054 0.176138
758 4 0.377267 0.0637791 0.195004
759 4 0.344845 0.0581367 0.232656
757 2 0.361056 0.0609579 0.21383
333 4 0.500089 0.0770765 0.230294
511 2 0.0365781 0.152605 0.211911
513 4 0.0608694 0.156518 0.216362
381 4 0.00714051 0.131481 0.199327
512 4 0.0122868 0.148693 0.207461
379 2 0.0113203 0.106968 0.201937
450 4 0.143972 0.0858009 0.178679
448 2 0.157459 0.105901 0.172411
691 2 0.222553 0.103264 0.238181
693 4 0.203811 0.102631 0.221642
236 4 0.18829 0.131507 0.175109
235 2 0.210679 0.135809 0.164843
581 4 0.292035 0.115619 0.173379
26 1 0.32427 0.157541 0.248198
30 3 0.301614 0.159855 0.248297
28 3 0.329933 0.135171 0.245767
310 2 0.378935 0.0920403 0.16818
521 4 0.485419 0.142052 0.2183
332 4 0.489816 0.125949 0.227703
762 4 0.47124 0.133699 0.228115
760 2 0.454798 0.149845 0.237817
331 2 0.494953 0.101513 0.228998
761 4 0.438355 0.16599 0.24752
394 2 0.0181421 0.22731 0.240935
395 4 0.0379434 0.212089 0.239746
393 4 0.0702838 0.156163 0.234744
279 4 0.249914 0.192387 0.182368
277 2 0.253013 0.215888 0.174414
27 3 0.333019 0.16939 0.230529
278 4 0.256112 0.239389 0.166459
284 4 0.27474 0.247311 0.168108
338 4 0.0516731 0.262121 0.167404
363 4 0.0612962 0.275007 0.180929
361 2 0.0725015 0.291977 0.195477
749 4 0.0734081 0.325803 0.212131
443 4 0.999314 0.261607 0.248915
648 4 0.0665904 0.334966 0.195279
370 2 0.119564 0.301723 0.223333
372 4 0.0983821 0.296083 0.211304
362 4 0.0837068 0.308947 0.210025
371 4 0.140746 0.307362 0.235362
734 4 0.144454 0.317043 0.250522
756 4 0.238351 0.295105 0.175594
610 2 0.236757 0.292486 0.217563
754 2 0.242135 0.272653 0.165261
612 4 0.241388 0.299948 0.194152
611 4 0.232125 0.285025 0.240973
285 4 0.318063 0.262289 0.188096
283 2 0.296402 0.2548 0.178102
307 2 0.32661 0.28628 0.211166
308 4 0.321041 0.281213 0.187324
303 4 0.314224 0.300133 0.185049
729 4 0.315738 0.317333 0.194078
309 4 0.33218 0.291347 0.235009
764 4 0.336443 0.256519 0.180108
748 2 0.0799967 0.340342 0.231377
264 4 0.0065653 0.387958 0.2396
646 2 0.0655687 0.34399 0.171983
727 2 0.309575 0.338 0.206729
728 4 0.303412 0.358667 0.219381
446 4 0.429564 0.366708 0.239033
445 2 0.437018 0.383925 0.222504
447 4 0.444472 0.401141 0.205975
644 4 0.45289 0.414504 0.193703
643 2 0.471594 0.411086 0.177466
414 4 0.245709 0.461756 0.243741
229 2 0.457087 0.490495 0.242789
230 4 0.447202 0.495639 0.220406
1568 4 0.471026 0.504804 0.200991
234 4 0.00397498 0.0407944 0.292402
232 2 0.0277583 0.0376232 0.285368
233 4 0.0515416 0.034452 0.278334
1404 4 0.0658269 0.0229505 0.28213
316 2 0.0743771 0.0530888 0.308823
317 4 0.0649692 0.0350873 0.294241
428 4 0.0671798 0.0151445 0.299766
427 2 0.0595494 0.998271 0.316566
1402 2 0.0850552 0.0117542 0.270724
318 4 0.0837849 0.0710902 0.323404
732 4 0.102183 0.0810355 0.326528
21 1 0.329866 0.0555145 0.253052
23 3 0.334473 0.0443407 0.272859
24 3 0.30878 0.0651402 0.254106
22 3 0.345489 0.0721365 0.250084
349 2 0.396195 0.0649655 0.256767
698 4 0.404389 0.0514266 0.34309
351 4 0.408973 0.0453354 0.248017
479 4 0.456003 0.0247613 0.29548
478 2 0.439746 0.0314014 0.277682
2664 4 0.475929 0.0234817 0.292599
480 4 0.423489 0.0380415 0.259883
1428 4 0.465505 0.0191485 0.308608
258 4 0.450709 0.0320377 0.312626
2662 2 0.496673 0.0341951 0.283649
256 2 0.434855 0.0358362 0.331583
743 4 0.503857 0.0623844 0.244137
399 4 0.0866689 0.0889223 0.319533
721 2 0.237338 0.124192 0.290599
722 4 0.232541 0.127492 0.314915
723 4 0.242134 0.120893 0.266282
692 4 0.241295 0.103896 0.254719
29 3 0.333164 0.165863 0.267948
632 4 0.375216 0.103858 0.266573
350 4 0.383418 0.0845957 0.265517
631 2 0.358783 0.122597 0.264578
707 4 0.340607 0.150962 0.277854
633 4 0.34235 0.141336 0.262584
706 2 0.337066 0.160113 0.300852
391 2 0.0822756 0.169231 0.252368
392 4 0.0942674 0.182299 0.269992
546 4 0.125828 0.187412 0.278797
544 2 0.149118 0.196424 0.280037
545 4 0.172408 0.205435 0.281276
402 4 0.180493 0.223409 0.277355
400 2 0.185123 0.246663 0.285291
708 4 0.333526 0.169264 0.32385
419 4 0.430431 0.230116 0.327566
442 2 0.992628 0.277736 0.266814
444 4 0.985943 0.293864 0.284712
401 4 0.189753 0.269918 0.293228
676 2 0.186336 0.301095 0.313862
345 4 0.19457 0.281197 0.277768
677 4 0.19094 0.289037 0.292447
343 2 0.216518 0.287415 0.267529
735 4 0.179415 0.294539 0.278306
733 2 0.161935 0.305791 0.264414
344 4 0.238465 0.293633 0.25729
378 4 0.256661 0.252004 0.315227
376 2 0.274092 0.267794 0.306742
496 2 0.313238 0.281583 0.271164
497 4 0.300354 0.267641 0.287436
377 4 0.291524 0.283585 0.298257
498 4 0.326122 0.295525 0.254891
541 2 0.399194 0.305015 0.32167
542 4 0.420849 0.296027 0.312983
543 4 0.37754 0.314003 0.330358
420 4 0.416318 0.276679 0.316016
418 2 0.423375 0.253398 0.321791
2537 4 0.494321 0.331112 0.34112
365 4 0.0285157 0.364354 0.306056
601 2 0.0533408 0.383551 0.325764
603 4 0.0475105 0.370445 0.305285
364 2 0.00427164 0.368844 0.301904
299 4 0.148849 0.33466 0.260028
750 4 0.0865852 0.354881 0.250622
298 2 0.126873 0.346577 0.259584
300 4 0.104896 0.358493 0.25914
433 2 0.31011 0.389236 0.299102
435 4 0.294643 0.403158 0.285241
510 4 0.24347 0.34394 0.340066
434 4 0.325577 0.375315 0.312964
614 4 0.341653 0.365626 0.320794
615 4 0.377165 0.330495 0.318458
613 2 0.359409 0.348061 0.319626
1775 4 0.107655 0.492054 0.264384
1757 4 0.0808709 0.432184 0.278775
1756 2 0.094093 0.451929 0.270999
1758 4 0.107315 0.471675 0.263223
412 2 0.233195 0.45915 0.26523
1436 4 0.219611 0.440141 0.29725
413 4 0.220681 0.456543 0.286719
1435 2 0.236147 0.439654 0.315999
3 3 0.29245 0.463599 0.318021
1801 2 0.359905 0.499411 0.290624
1803 4 0.371069 0.5114 0.271735
231 4 0.466971 0.48535 0.265172
712 2 0.46137 0.467384 0.328226
713 4 0.437452 0.473274 0.32393
714 4 0.485287 0.461495 0.332521
1742 4 0.434301 0.490632 0.331444
730 2 0.121146 0.0689525 0.337465
1780 2 0.116796 0.00707892 0.402319
731 4 0.140108 0.0568695 0.348401
606 4 0.160981 0.0509668 0.351273
604 2 0.183926 0.0597607 0.346648
605 4 0.20687 0.0685545 0.342022
1701 4 0.326711 0.030541 0.39148
441 4 0.321508 0.0189287 0.405092
1699 2 0.331725 0.0326653 0.367077
425 4 0.329066 0.0353707 0.411425
1700 4 0.336739 0.0347895 0.342673
699 4 0.355396 0.0414419 0.342261
697 2 0.379893 0.0464342 0.342676
257 4 0.419 0.0396347 0.350541
2879 4 0.505218 0.0683864 0.402522
397 2 0.0714219 0.102678 0.333798
2584 2 0.0171886 0.105912 0.349238
398 4 0.0561748 0.116434 0.348063
2586 4 0.037858 0.117706 0.356909
458 4 0.0361582 0.126315 0.376365
457 2 0.0358281 0.144372 0.393657
459 4 0.035498 0.162429 0.410948
600 4 0.149219 0.129174 0.393685
598 2 0.146877 0.15349 0.388355
248 4 0.217571 0.0811631 0.353575
249 4 0.224396 0.125958 0.332419
247 2 0.220984 0.10356 0.342997
683 4 0.254459 0.080558 0.389551
403 2 0.238568 0.161225 0.33817
404 4 0.240028 0.137599 0.330115
682 2 0.273702 0.0962291 0.392606
319 2 0.324173 0.12828 0.399092
684 4 0.292944 0.1119 0.39566
320 4 0.307823 0.111984 0.408699
321 4 0.340523 0.144577 0.389486
725 4 0.399459 0.0894567 0.394449
599 4 0.144535 0.177807 0.383025
389 4 0.120161 0.240439 0.353133
686 4 0.143589 0.196945 0.391044
685 2 0.122412 0.202593 0.403079
275 4 0.145944 0.174639 0.362741
274 2 0.160213 0.190672 0.349916
687 4 0.101236 0.20824 0.415115
474 4 0.189944 0.21811 0.339855
472 2 0.213338 0.209589 0.337554
276 4 0.174482 0.206706 0.337091
405 4 0.237108 0.18485 0.346225
473 4 0.236732 0.201067 0.335253
466 2 0.40519 0.19982 0.405031
467 4 0.398726 0.199358 0.380882
716 4 0.402047 0.186209 0.36639
717 4 0.442753 0.165821 0.345701
269 4 0.436177 0.238758 0.344243
715 2 0.4224 0.176015 0.356046
270 4 0.471526 0.211492 0.366776
452 4 0.465101 0.214737 0.385558
268 2 0.453851 0.225125 0.355509
451 2 0.463496 0.200997 0.406386
616 2 0.0842296 0.316167 0.373101
388 2 0.115415 0.264963 0.354232
390 4 0.110668 0.289487 0.355331
617 4 0.104571 0.306169 0.362544
374 4 0.120785 0.304501 0.35049
373 2 0.143901 0.313624 0.347739
375 4 0.167018 0.322747 0.344988
678 4 0.181731 0.313153 0.335276
509 4 0.208751 0.310891 0.354315
508 2 0.22611 0.327415 0.34719
618 4 0.0638885 0.326164 0.383659
347 4 0.0587275 0.346143 0.387325
549 4 0.0711117 0.398347 0.361751
602 4 0.0591712 0.396657 0.346244
346 2 0.0454079 0.357593 0.40512
547 2 0.0700796 0.421509 0.371112
668 4 0.32349 0.384311 0.40577
336 4 0.326065 0.366433 0.414393
334 2 0.347376 0.354693 0.408631
335 4 0.368687 0.342954 0.402868
240 4 0.382142 0.357259 0.407068
238 2 0.401426 0.372454 0.4118
752 4 0.474139 0.410975 0.391113
561 4 0.476069 0.396109 0.405108
587 4 0.42526 0.405782 0.412004
239 4 0.42071 0.38765 0.416532
548 4 0.0690475 0.444672 0.380472
407 4 0.0866763 0.455011 0.377734
406 2 0.0935848 0.46016 0.401207
499 2 0.0933684 0.495357 0.351609
501 4 0.112694 0.497501 0.367329
408 4 0.100493 0.46531 0.424679
1544 4 0.228224 0.489753 0.424105
1555 2 0.263468 0.493675 0.406186
5 3 0.266974 0.479505 0.340728
1557 4 0.287572 0.500036 0.404259
1 1 0.281916 0.462442 0.338663
438 4 0.307285 0.466494 0.333701
1437 4 0.252682 0.439167 0.334748
4 3 0.271026 0.442072 0.340869
2 3 0.297785 0.464222 0.35522
437 4 0.355294 0.478724 0.326901
436 2 0.331289 0.472609 0.330301
593 4 0.412123 0.468279 0.388664
592 2 0.421152 0.471676 0.365597
588 4 0.420708 0.451708 0.392749
586 2 0.422984 0.428745 0.402377
753 4 0.497747 0.439423 0.357437
117 3 0.490777 0.459373 0.354041
751 2 0.485943 0.425199 0.374275
594 4 0.430181 0.475073 0.342529
367 2 0.0736324 0.0210064 0.430538
369 4 0.0500815 0.0183291 0.422578
719 4 0.0383386 0.0245049 0.438413
718 2 0.0173293 0.026383 0.451839
1781 4 0.101734 0.0123197 0.421576
368 4 0.0971834 0.0236838 0.438498
962 4 0.311936 0.0301293 0.417742
961 2 0.29781 0.0461904 0.43069
963 4 0.283684 0.0622515 0.443638
432 4 0.298341 0.0672953 0.455994
430 2 0.303268 0.0796178 0.477185
424 2 0.350869 0.0292625 0.422031
426 4 0.372672 0.0231544 0.432638
726 4 0.404223 0.0661174 0.438419
1218 4 0.41696 0.0469782 0.4957
724 2 0.401841 0.077787 0.416434
431 4 0.308195 0.0919402 0.498376
642 4 0.488383 0.117022 0.443206
640 2 0.466939 0.122126 0.455008
641 4 0.445496 0.12723 0.466811
260 4 0.0508927 0.171352 0.420414
259 2 0.0665239 0.190867 0.420559
261 4 0.082155 0.210382 0.420705
696 4 0.100596 0.252297 0.474679
1035 4 0.0939046 0.22543 0.42028
1033 2 0.100786 0.240604 0.438924
694 2 0.0877443 0.23933 0.491763
1034 4 0.107668 0.255778 0.457567
488 4 0.310988 0.245482 0.428569
468 4 0.411654 0.200282 0.42918
411 4 0.365634 0.237162 0.464556
516 4 0.408369 0.202942 0.460179
409 2 0.381928 0.221115 0.454448
410 4 0.398222 0.205067 0.44434
575 4 0.40703 0.192917 0.476821
266 4 0.368966 0.245518 0.482381
574 2 0.40484 0.180335 0.498318
583 2 0.502529 0.23602 0.470747
585 4 0.499039 0.231224 0.446457
514 2 0.431584 0.197343 0.452773
515 4 0.4548 0.191743 0.445367
453 4 0.461891 0.187257 0.427214
584 4 0.50602 0.240817 0.495037
2802 4 0.00989169 0.302729 0.432935
1258 2 0.112144 0.292142 0.470722
1259 4 0.12452 0.31362 0.473993
9 3 0.146684 0.312223 0.479538
1260 4 0.0997678 0.270664 0.467451
487 2 0.331904 0.247138 0.44217
489 4 0.35282 0.248794 0.45577
348 4 0.0320883 0.369043 0.422915
326 4 0.0574086 0.355221 0.480864
325 2 0.0821981 0.352032 0.480165
10 3 0.154111 0.345337 0.46323
6 1 0.141141 0.334738 0.47866
7 3 0.119033 0.336724 0.472624
327 4 0.106988 0.348842 0.479466
709 2 0.146244 0.406793 0.475847
8 3 0.144123 0.344449 0.499522
711 4 0.121246 0.407296 0.476076
503 4 0.202406 0.358742 0.477805
502 2 0.196435 0.383019 0.477477
710 4 0.171241 0.406291 0.475618
504 4 0.190464 0.407297 0.477149
667 2 0.321957 0.406536 0.417123
882 4 0.366889 0.356934 0.480974
3309 4 0.504002 0.390579 0.454584
559 2 0.49444 0.39623 0.422069
3307 2 0.494567 0.381419 0.47585
1381 2 0.00447862 0.490894 0.460462
383 4 0.112829 0.453949 0.426017
568 2 0.141601 0.484479 0.426539
384 4 0.118926 0.425591 0.466752
569 4 0.120924 0.470529 0.424798
382 2 0.115878 0.43977 0.446385
1543 2 0.204458 0.497019 0.42686
635 4 0.327324 0.446784 0.428807
669 4 0.320424 0.42876 0.428477
774 4 0.320367 0.437779 0.445178
634 2 0.312522 0.466023 0.422811
636 4 0.29772 0.485262 0.416815
773 4 0.353882 0.434748 0.482168
772 2 0.337124 0.436263 0.463673
661 2 0.484764 0.502809 0.460981
663 4 0.486198 0.492628 0.438189
342 4 0.198169 0.0726713 0.512875
340 2 0.186846 0.0503794 0.513083
341 4 0.175524 0.0280875 0.513292
2430 4 0.174457 0.00785322 0.508378
1151 4 0.237628 0.0857035 0.558513
1030 2 0.25712 0.0648152 0.584916
1032 4 0.2485 0.0864084 0.575718
1217 4 0.373697 0.0595888 0.517378
842 4 0.363931 0.0663321 0.532241
1216 2 0.395329 0.0532835 0.506539
3007 2 0.482886 0.0513443 0.576719
3009 4 0.490475 0.0623497 0.555589
470 4 0.0156745 0.16295 0.520583
1058 4 0.0866243 0.121136 0.513685
1057 2 0.0937743 0.119074 0.537556
1059 4 0.100924 0.117012 0.561426
1155 4 0.113081 0.126599 0.571857
939 4 0.0973461 0.121243 0.581065
1271 4 0.102563 0.139877 0.579921
1152 4 0.212873 0.0860454 0.515064
1150 2 0.225251 0.0858744 0.536788
1180 2 0.217815 0.140231 0.541934
1181 4 0.214658 0.115451 0.540856
843 4 0.322796 0.0871407 0.512858
841 2 0.343364 0.0767364 0.52255
1198 2 0.00468631 0.220077 0.564459
469 2 0.00232049 0.184086 0.520939
695 4 0.0748926 0.226362 0.508847
1199 4 0.0197392 0.216924 0.584173
1182 4 0.220973 0.165011 0.543013
900 4 0.229087 0.173935 0.526374
856 2 0.230834 0.24659 0.523172
898 2 0.251437 0.184752 0.523429
650 4 0.277319 0.214751 0.524651
899 4 0.273786 0.195569 0.520484
649 2 0.299875 0.225487 0.525707
651 4 0.322431 0.236224 0.526763
858 4 0.248492 0.24377 0.505696
576 4 0.40265 0.167754 0.519814
265 2 0.363885 0.239862 0.5062
267 4 0.358804 0.234206 0.53002
982 2 0.0288871 0.31924 0.591974
983 4 0.0471004 0.302182 0.590403
1245 4 0.0453277 0.286316 0.579674
798 4 0.225803 0.25433 0.573449
857 4 0.213175 0.24941 0.540648
947 4 0.217765 0.262036 0.557166
946 2 0.197631 0.270653 0.569231
948 4 0.177497 0.279269 0.581296
796 2 0.249223 0.25871 0.581033
797 4 0.272643 0.26309 0.588617
872 4 0.344922 0.292979 0.560538
871 2 0.359336 0.301841 0.578947
2457 4 0.48536 0.298019 0.525742
1010 4 0.477091 0.31536 0.519054
803 4 0.256178 0.363203 0.55501
804 4 0.297016 0.385156 0.536275
802 2 0.276597 0.374179 0.545642
1190 4 0.258737 0.357597 0.573723
930 4 0.334107 0.381179 0.576676
928 2 0.343763 0.387028 0.554366
929 4 0.353419 0.392877 0.532056
881 4 0.35597 0.374621 0.526457
880 2 0.36143 0.365778 0.503716
1011 4 0.480093 0.365105 0.514915
1009 2 0.478592 0.340233 0.516984
925 2 0.438876 0.38461 0.58059
3308 4 0.485131 0.372259 0.497116
926 4 0.461075 0.394232 0.574281
1002 4 0.472216 0.412498 0.573553
539 4 0.0665681 0.434804 0.584973
538 2 0.080959 0.45423 0.578593
540 4 0.0953499 0.473656 0.572212
1160 4 0.110565 0.485087 0.572264
1159 2 0.133135 0.488525 0.58246
2244 4 0.0956592 0.486767 0.558207
2153 4 0.247948 0.510189 0.576101
1910 4 0.409472 0.489279 0.566363
889 2 0.335485 0.495587 0.58223
1953 4 0.405391 0.486892 0.54674
1909 2 0.42902 0.47636 0.575088
1000 2 0.469758 0.43636 0.580608
1081 2 0.0637604 0.0769543 0.643623
1082 4 0.0657727 0.0599798 0.661872
823 2 0.164482 0.0141649 0.660835
825 4 0.147129 0.0290136 0.671011
1283 4 0.135382 0.0456068 0.671195
1031 4 0.26574 0.0432219 0.594114
951 4 0.27607 0.0275748 0.599091
949 2 0.29761 0.0166532 0.592616
3008 4 0.475298 0.0403389 0.597849
809 4 0.475871 0.0402632 0.618013
808 2 0.468339 0.0525951 0.638418
810 4 0.460806 0.064927 0.658823
1083 4 0.0617481 0.0939288 0.625375
1127 4 0.0424756 0.0891384 0.61926
1126 2 0.0202807 0.0932449 0.608503
938 4 0.0793083 0.0911593 0.616707
937 2 0.0883272 0.106201 0.598886
1153 2 0.137195 0.128883 0.57806
1270 2 0.0914722 0.159571 0.590613
1154 4 0.161309 0.131167 0.584264
1221 4 0.173023 0.13307 0.599956
1219 2 0.194301 0.143868 0.607428
1220 4 0.21558 0.154665 0.6149
1212 4 0.230483 0.165426 0.623722
1192 2 0.348018 0.150317 0.655373
1193 4 0.366755 0.13401 0.658234
45 3 0.456521 0.0874991 0.656814
1244 4 0.0502366 0.237774 0.590644
878 4 0.0381956 0.22358 0.585711
877 2 0.049772 0.203588 0.595274
879 4 0.0613483 0.183595 0.604837
1272 4 0.080382 0.179266 0.601305
1210 2 0.247013 0.17642 0.638924
1211 4 0.263542 0.187415 0.654125
886 2 0.297102 0.185138 0.668141
888 4 0.275311 0.197214 0.666013
1194 4 0.32928 0.166623 0.652512
1243 2 0.0477821 0.262045 0.585159
1137 4 0.164008 0.333204 0.605007
1135 2 0.164741 0.313361 0.589812
1136 4 0.165475 0.293518 0.574616
822 4 0.167999 0.303514 0.655073
1064 4 0.185861 0.310445 0.64832
807 4 0.235179 0.332528 0.677587
1063 2 0.197853 0.330885 0.656296
792 4 0.291415 0.317632 0.600698
791 4 0.292839 0.269131 0.588598
790 2 0.292127 0.293382 0.594648
805 2 0.257195 0.333449 0.665771
806 4 0.279211 0.334371 0.653955
873 4 0.37375 0.310704 0.597355
813 4 0.390451 0.320437 0.594659
953 4 0.500285 0.303325 0.604681
952 2 0.504637 0.279545 0.598295
954 4 0.508988 0.255766 0.591908
984 4 0.0106738 0.336299 0.593546
1041 4 0.0578649 0.388584 0.633391
3264 4 0.0447187 0.388416 0.648946
3262 2 0.0394252 0.371136 0.666225
3240 4 0.0360135 0.408302 0.649283
1039 2 0.0798667 0.377733 0.628558
3238 2 0.0128986 0.414877 0.642381
1040 4 0.101869 0.366882 0.623725
993 4 0.114068 0.36181 0.64066
991 2 0.131313 0.354086 0.624285
992 4 0.148557 0.346363 0.607909
897 4 0.166854 0.350861 0.610931
1189 2 0.242687 0.368288 0.589637
896 4 0.208353 0.375865 0.598546
895 2 0.187603 0.363363 0.604739
1172 4 0.23306 0.39753 0.600839
1191 4 0.226636 0.378979 0.605552
1065 4 0.209844 0.351324 0.664272
1239 4 0.32244 0.380224 0.591348
1238 4 0.30166 0.335356 0.598815
1237 2 0.31205 0.35779 0.595082
811 2 0.407213 0.338984 0.594187
1204 2 0.392864 0.389445 0.621659
1205 4 0.377979 0.399172 0.639237
1206 4 0.40775 0.379717 0.60408
927 4 0.416677 0.374988 0.586899
812 4 0.423976 0.35753 0.593716
1161 4 0.155705 0.491962 0.592656
1171 2 0.214423 0.414198 0.600613
1188 4 0.161435 0.487991 0.611661
1186 2 0.176318 0.4679 0.611584
1173 4 0.195787 0.430866 0.600387
1187 4 0.191201 0.447808 0.611508
891 4 0.313847 0.494652 0.594725
1911 4 0.448569 0.46344 0.583813
1001 4 0.4673 0.460221 0.587664
1269 4 0.457621 0.472944 0.598736
1267 2 0.460264 0.485921 0.619944
943 2 0.0401697 0.0300556 0.678556
944 4 0.0472335 0.0533952 0.684083
1076 4 0.0598068 0.0670727 0.680278
1075 2 0.0621939 0.0834626 0.699009
1282 2 0.137225 0.0671168 0.683808
1284 4 0.139069 0.0886268 0.696422
1147 2 0.265603 0.0670575 0.691613
1149 4 0.263957 0.0421463 0.692993
1092 4 0.311393 0.0103625 0.69216
42 3 0.453478 0.0570394 0.678165
41 1 0.451686 0.0799692 0.677756
43 3 0.429999 0.0859014 0.683492
1163 4 0.46842 0.0662186 0.691512
1162 2 0.484389 0.0523916 0.70489
1113 4 0.434953 0.0553845 0.746034
864 4 0.0570883 0.10731 0.735612
1077 4 0.064581 0.0998525 0.71774
1107 4 0.0753143 0.103693 0.733163
851 4 0.0813096 0.107707 0.71412
862 2 0.0347172 0.105109 0.74656
850 2 0.0934163 0.128927 0.708797
852 4 0.105523 0.150147 0.703475
1105 2 0.0894593 0.0944108 0.751573
909 4 0.151716 0.103355 0.701986
907 2 0.176261 0.107985 0.703129
1226 4 0.251546 0.100002 0.67851
908 4 0.200805 0.112615 0.704272
1227 4 0.212172 0.12651 0.694249
1225 2 0.231859 0.113256 0.686379
1148 4 0.267248 0.0919687 0.690233
829 2 0.321813 0.158523 0.707609
831 4 0.327679 0.143345 0.726593
1005 4 0.33061 0.126529 0.715627
1004 4 0.334246 0.0888698 0.748327
1003 2 0.332428 0.107699 0.731977
3424 2 0.48942 0.114564 0.669455
44 3 0.466659 0.088937 0.693047
3425 4 0.470262 0.0987111 0.672066
1177 2 0.00493364 0.239773 0.712914
1073 4 0.0654781 0.234477 0.733226
1072 2 0.0899678 0.235319 0.738198
1074 4 0.114458 0.236161 0.743171
887 4 0.318893 0.173062 0.670268
830 4 0.315948 0.173701 0.688625
978 4 0.295932 0.195367 0.731114
1142 4 0.450131 0.166295 0.742938
1144 2 0.491881 0.167615 0.740315
1025 4 0.423541 0.158053 0.691533
1262 4 0.465925 0.190523 0.724396
1024 2 0.438953 0.166991 0.709076
1026 4 0.454364 0.175929 0.72662
1261 2 0.46157 0.214905 0.72097
1145 4 0.467662 0.172092 0.736006
1263 4 0.457215 0.239287 0.717544
1179 4 0.0161741 0.262065 0.714298
1209 4 0.152063 0.276178 0.703169
1207 2 0.139703 0.263332 0.720702
821 4 0.148808 0.268479 0.685155
1208 4 0.127344 0.250486 0.738235
820 2 0.158403 0.285997 0.670114
1019 4 0.372573 0.32887 0.722947
1018 2 0.385397 0.33176 0.701678
3123 4 0.489657 0.248325 0.67537
3263 4 0.0341317 0.353856 0.683504
1280 4 0.0452292 0.366883 0.752322
1279 2 0.0495146 0.389454 0.742455
1281 4 0.0538 0.412025 0.732588
894 4 0.0284022 0.366694 0.74371
892 2 0.0150041 0.345835 0.746965
816 4 0.0592728 0.353567 0.760004
1028 4 0.228305 0.372658 0.710204
1066 2 0.195542 0.362231 0.73681
1068 4 0.212454 0.363491 0.718437
1027 2 0.232116 0.397295 0.708292
1020 4 0.398222 0.33465 0.680409
1983 4 0.0566399 0.432072 0.731758
1981 2 0.0642149 0.452752 0.743595
2172 4 0.14131 0.498809 0.684909
1029 4 0.235927 0.421932 0.70638
1175 4 0.214305 0.454493 0.725226
1174 2 0.197202 0.472505 0.722357
1176 4 0.180099 0.490517 0.719489
1138 2 0.265317 0.451227 0.687858
1140 4 0.2484 0.434969 0.696498
1139 4 0.282235 0.467485 0.679218
1987 2 0.288251 0.463303 0.736101
1229 4 0.304085 0.456473 0.697016
1989 4 0.292667 0.461777 0.711538
2028 4 0.294859 0.47352 0.695098
1988 4 0.283834 0.46483 0.760664
1230 4 0.347138 0.437313 0.680281
1228 2 0.325612 0.446893 0.688648
2991 4 0.00601965 0.0425202 0.783559
2989 2 0.00685771 0.0666411 0.777028
2049 4 0.106992 0.025841 0.784414
1202 4 0.0998384 0.0325991 0.802599
2047 2 0.121502 0.00804893 0.774511
1201 2 0.109177 0.0557182 0.800733
1203 4 0.118515 0.0788374 0.798867
1257 4 0.24024 0.0864247 0.764893
817 2 0.326014 0.042364 0.821275
1085 4 0.304661 0.074599 0.827272
818 4 0.331697 0.0199987 0.811649
1050 4 0.332563 0.990994 0.797552
974 4 0.34381 0.00355242 0.807801
1111 2 0.455777 0.0650923 0.755898
845 4 0.494232 0.0688669 0.7705
1112 4 0.4766 0.0748001 0.765762
833 4 0.999189 0.11008 0.768474
832 2 0.00163777 0.127752 0.785993
2990 4 0.00769577 0.0907621 0.770497
863 4 0.012346 0.102909 0.757509
1125 4 0.0219104 0.141982 0.811965
1123 2 0.0388753 0.143329 0.830283
834 4 0.00408662 0.145423 0.803512
1106 4 0.103604 0.0851291 0.769984
911 4 0.117294 0.108863 0.817747
34 3 0.121961 0.0904263 0.778301
31 1 0.130304 0.102733 0.796115
35 3 0.118149 0.121812 0.798748
32 3 0.128778 0.0900746 0.815261
33 3 0.152588 0.107998 0.792359
1255 2 0.236802 0.0883851 0.789582
1256 4 0.233363 0.0903456 0.81427
840 4 0.24451 0.102151 0.824571
1084 2 0.300379 0.0966511 0.816292
1086 4 0.296097 0.118703 0.805313
1023 4 0.401198 0.153858 0.821961
1052 4 0.417733 0.143696 0.8184
1130 4 0.140403 0.247385 0.753816
1129 2 0.158956 0.245092 0.770421
1131 4 0.177509 0.242799 0.787025
977 4 0.282701 0.216909 0.77426
918 4 0.277263 0.2306 0.787092
976 2 0.289316 0.206138 0.752687
1298 4 0.291855 0.219217 0.791264
1297 2 0.296575 0.203999 0.810533
1299 4 0.301295 0.18878 0.829802
47 3 0.396093 0.172689 0.815141
48 3 0.400456 0.183016 0.779267
46 1 0.40642 0.187775 0.80118
1042 2 0.406517 0.246185 0.793356