ITEM: TIMESTEP
2360000
ITEM: NUMBER OF ATOMS
4590
ITEM: BOX BOUNDS pp pp pp
-9.9985700000000008e+00 9.9985700000000008e+00
-9.9985700000000008e+00 9.9985700000000008e+00
-9.9985700000000008e+00 9.9985700000000008e+00
ITEM: ATOMS id type xs ys zs
1666 2 0.0300432 0.0634873 0.0835985
1667 4 0.0427676 0.0843414 0.078272
2974 2 0.466107 0.0132384 0.00945365
745 2 0.43951 0.0701928 0.0137601
747 4 0.447093 0.0465506 0.0108045
2975 4 0.449062 0.0292537 0.000612961
701 4 0.0343145 0.102254 0.0812142
700 2 0.0391473 0.126757 0.0824026
566 4 0.189626 0.143628 0.0366957
565 2 0.201591 0.152538 0.0166302
2264 4 0.231398 0.153815 0.995403
297 4 0.324311 0.104524 0.0328169
295 2 0.341164 0.104784 0.0143481
556 2 0.400171 0.111436 0.00703439
558 4 0.423495 0.112087 0.0160203
746 4 0.431928 0.093835 0.0167157
555 4 0.0316777 0.242688 0.00167665
770 4 0.388409 0.184847 0.0219024
359 4 0.371002 0.188666 0.0335947
664 2 0.390766 0.211899 0.0550397
665 4 0.388114 0.193336 0.0384998
666 4 0.393418 0.230461 0.0715796
623 4 0.398034 0.242282 0.0857743
323 4 0.403874 0.248368 0.0707854
358 2 0.351998 0.190609 0.0174631
769 2 0.407892 0.181311 0.00663481
292 2 0.135849 0.295104 0.051575
507 4 0.165845 0.315478 0.0649356
293 4 0.15304 0.31312 0.0538386
294 4 0.118659 0.277089 0.0493114
287 4 0.171113 0.318579 0.0464455
552 4 0.150603 0.325301 0.0707107
455 4 0.158806 0.331433 0.0545633
286 2 0.18201 0.309929 0.0256699
505 2 0.182563 0.306529 0.0812327
481 2 0.226083 0.272746 0.0715572
482 4 0.242299 0.258037 0.0594793
288 4 0.192906 0.301279 0.00489426
483 4 0.209867 0.287455 0.0836351
573 4 0.23962 0.255813 0.0393952
571 2 0.2626 0.257186 0.0296365
572 4 0.285579 0.258559 0.0198777
956 4 0.336856 0.312132 0.00518594
1069 2 0.410458 0.317142 0.0300976
322 2 0.410723 0.266504 0.0549935
955 2 0.356632 0.318063 0.0192886
957 4 0.376409 0.323994 0.0333913
1071 4 0.392796 0.334841 0.0300441
324 4 0.417572 0.284639 0.0392015
1070 4 0.42812 0.299443 0.0301511
280 2 0.456964 0.300289 0.0589296
281 4 0.465596 0.307425 0.0812849
282 4 0.448333 0.293153 0.0365744
454 2 0.161757 0.354839 0.0462802
550 2 0.136798 0.333505 0.0898756
456 4 0.164707 0.378246 0.0379972
1290 4 0.278188 0.388977 0.0371686
250 2 0.269062 0.398799 0.064518
1288 2 0.280947 0.379322 0.01427
251 4 0.261509 0.402211 0.040928
741 4 0.385422 0.333318 0.0480219
739 2 0.382726 0.34012 0.071931
1788 4 0.0685127 0.486762 0.0426352
1786 2 0.0907927 0.497849 0.0402157
1787 4 0.113073 0.508936 0.0377963
626 4 0.223966 0.484717 0.0746915
625 2 0.201818 0.495735 0.0710483
245 4 0.22122 0.464591 0.0743018
244 2 0.236509 0.450177 0.0607495
246 4 0.251797 0.435762 0.0471972
272 4 0.263757 0.423013 0.0373921
271 2 0.271603 0.436928 0.0181568
1672 2 0.396554 0.438947 0.0707406
853 2 0.392741 0.43636 0.0137096
1674 4 0.407006 0.445467 0.0489823
854 4 0.410376 0.440269 0.030998
564 4 0.42452 0.448819 0.0407251
563 4 0.458777 0.48438 0.0328163
562 2 0.441648 0.4666 0.0367707
228 4 0.476699 0.482731 0.0397792
226 2 0.499744 0.473373 0.0423365
1668 4 0.0173187 0.0426331 0.088925
19 3 0.0626571 0.0439926 0.153
18 3 0.0661954 0.00739337 0.162612
491 4 0.28451 0.0683872 0.0821329
490 2 0.269944 0.0490536 0.0883958
1475 4 0.255356 0.0149882 0.108136
492 4 0.255378 0.0297201 0.0946588
581 4 0.297395 0.0687332 0.167129
654 4 0.259321 0.0288534 0.188811
486 4 0.390675 0.0163959 0.0946394
484 2 0.409835 0.0233823 0.109105
485 4 0.428995 0.0303688 0.12357
2722 2 0.488418 0.0656967 0.155335
2724 4 0.494026 0.0414092 0.15337
1759 2 0.490488 0.0140308 0.119354
2744 4 0.499642 0.0222722 0.151573
1760 4 0.493031 0.0323162 0.136217
702 4 0.0439802 0.151261 0.083591
476 4 0.0593 0.162763 0.0893631
475 2 0.0710818 0.163668 0.111398
477 4 0.0828635 0.164574 0.133433
450 4 0.122405 0.0973299 0.182817
237 4 0.239018 0.0777836 0.167308
737 4 0.230722 0.160134 0.101389
582 4 0.25353 0.0925988 0.164478
580 2 0.275462 0.080666 0.165804
628 2 0.370261 0.137509 0.148944
630 4 0.361349 0.160589 0.145326
312 4 0.393962 0.103337 0.159475
629 4 0.379173 0.11443 0.152563
2723 4 0.482811 0.0899841 0.157299
339 4 0.0491309 0.232077 0.152575
2834 4 0.992981 0.231606 0.123113
738 4 0.228554 0.205588 0.0806544
736 2 0.229638 0.182861 0.0910218
460 2 0.319133 0.234754 0.110505
461 4 0.296028 0.232118 0.101319
354 4 0.279062 0.2322 0.113176
352 2 0.269818 0.240449 0.134894
254 4 0.36093 0.181913 0.145612
462 4 0.342239 0.237389 0.119691
255 4 0.355319 0.229463 0.131181
253 2 0.358125 0.205688 0.138397
765 4 0.35151 0.24769 0.134772
624 4 0.360249 0.242995 0.118524
622 2 0.379141 0.242639 0.102149
337 2 0.0400892 0.242727 0.173311
506 4 0.199281 0.297579 0.0975298
537 4 0.203373 0.302407 0.115716
535 2 0.194781 0.304345 0.139117
536 4 0.18619 0.306283 0.162518
755 4 0.243933 0.259921 0.158715
353 4 0.260574 0.248699 0.156612
301 2 0.31303 0.308465 0.145418
302 4 0.310153 0.323698 0.125801
387 4 0.316106 0.331509 0.108368
763 2 0.340849 0.264171 0.150261
12 3 0.401979 0.328964 0.130059
671 4 0.453097 0.317164 0.0922171
527 4 0.47148 0.312903 0.0989621
670 2 0.431827 0.327005 0.10093
526 2 0.496051 0.315642 0.0952279
647 4 0.0561055 0.356863 0.160923
551 4 0.122993 0.341709 0.10904
289 2 0.227381 0.392374 0.157791
291 4 0.209357 0.381213 0.171048
290 4 0.245404 0.403536 0.144533
252 4 0.276615 0.395387 0.088108
609 4 0.278736 0.400405 0.107786
385 2 0.339866 0.337289 0.10315
493 2 0.386656 0.39626 0.103741
495 4 0.396367 0.37325 0.10255
386 4 0.363627 0.343068 0.0979322
15 3 0.367836 0.337706 0.117781
740 4 0.38003 0.346922 0.0958401
672 4 0.410557 0.336846 0.109643
14 3 0.397958 0.355027 0.103278
11 1 0.388522 0.346003 0.12246
13 3 0.386988 0.362267 0.138938
1791 4 0.0426036 0.496576 0.139619
1466 4 0.0445674 0.47888 0.129417
1465 2 0.0623528 0.463206 0.121467
1467 4 0.0801382 0.447533 0.113517
637 2 0.222503 0.499055 0.127972
638 4 0.242418 0.483937 0.12799
766 2 0.247563 0.446954 0.147541
768 4 0.245298 0.422493 0.152201
767 4 0.249827 0.471415 0.142881
607 2 0.300636 0.410476 0.114427
608 4 0.322537 0.420547 0.121069
659 4 0.324728 0.434751 0.106714
494 4 0.376944 0.419269 0.104932
660 4 0.374641 0.437814 0.1067
1673 4 0.386102 0.432427 0.092499
658 2 0.349684 0.436283 0.106707
1559 4 0.381178 0.491758 0.144597
524 4 0.400044 0.485915 0.136086
523 2 0.395885 0.465509 0.122248
525 4 0.391726 0.445103 0.10841
595 2 0.471544 0.433888 0.16461
596 4 0.474643 0.444274 0.142078
16 1 0.0591698 0.0283227 0.169754
17 3 0.0366818 0.0273967 0.174506
2480 4 0.0209598 0.0200799 0.183413
2479 2 0.0109929 0.0396633 0.195343
20 3 0.0705618 0.0343549 0.188528
1422 4 0.0166469 0.00152019 0.188131
2481 4 0.00102608 0.0592467 0.207273
578 4 0.0762097 0.0482677 0.170681
577 2 0.0910953 0.0677631 0.175531
579 4 0.105981 0.0872585 0.180381
689 4 0.164835 0.0126434 0.209899
674 4 0.158987 0.0115246 0.227895
1506 4 0.252673 0.0111026 0.18027
652 2 0.282088 0.0305536 0.199007
653 4 0.304855 0.0322538 0.209204
25 3 0.339948 0.0467543 0.24548
758 4 0.360739 0.0791462 0.196633
759 4 0.354614 0.0655184 0.244355
757 2 0.357676 0.0723323 0.220494
311 4 0.371651 0.0666674 0.185133
350 4 0.369805 0.0726618 0.255492
2743 2 0.504354 0.0185359 0.175843
480 4 0.430136 0.0580015 0.25241
379 2 0.0194757 0.0953619 0.190087
511 2 0.0570618 0.145055 0.197135
512 4 0.0370783 0.131692 0.190259
381 4 0.0292184 0.116498 0.180948
448 2 0.147291 0.0957433 0.18098
235 2 0.215758 0.0854069 0.172409
236 4 0.192498 0.0930301 0.17751
449 4 0.172176 0.0941567 0.179142
28 3 0.322252 0.131553 0.22548
26 1 0.325533 0.147664 0.241853
310 2 0.382806 0.085002 0.172304
521 4 0.485828 0.129507 0.212762
332 4 0.497144 0.118276 0.224917
762 4 0.479061 0.123695 0.229844
760 2 0.45629 0.129075 0.238659
761 4 0.433518 0.134455 0.247473
520 2 0.500376 0.147187 0.202714
331 2 0.50616 0.0967467 0.233883
513 4 0.0770452 0.158418 0.204011
393 4 0.0965124 0.160139 0.196718
391 2 0.0995666 0.181517 0.184115
392 4 0.102621 0.202894 0.171512
279 4 0.245229 0.207704 0.198146
277 2 0.24928 0.228565 0.18497
278 4 0.253331 0.249425 0.171794
27 3 0.344916 0.159147 0.237208
394 2 0.0170142 0.255694 0.236254
395 4 0.0373651 0.263763 0.224175
338 4 0.0310474 0.253378 0.194048
363 4 0.0417705 0.266892 0.204707
361 2 0.0516688 0.289842 0.203993
749 4 0.0545931 0.328691 0.213991
648 4 0.0678408 0.328308 0.200263
362 4 0.0615672 0.312792 0.20328
372 4 0.081121 0.314422 0.202709
370 2 0.102561 0.312204 0.215382
371 4 0.124 0.309986 0.228054
734 4 0.131868 0.323413 0.23887
754 2 0.241211 0.283699 0.165952
756 4 0.238488 0.307477 0.173188
611 4 0.245783 0.313965 0.235451
610 2 0.23888 0.316386 0.211541
612 4 0.231978 0.318808 0.187631
344 4 0.237767 0.315448 0.254095
284 4 0.272905 0.251567 0.174427
283 2 0.292795 0.266648 0.175885
285 4 0.312685 0.281729 0.177343
308 4 0.326875 0.290408 0.181531
303 4 0.315908 0.293231 0.165035
729 4 0.31103 0.301577 0.181808
727 2 0.298072 0.317754 0.195793
764 4 0.330188 0.280651 0.165751
307 2 0.342064 0.286826 0.201067
309 4 0.357253 0.283244 0.220602
498 4 0.344671 0.289476 0.235305
748 2 0.0616262 0.340782 0.234715
646 2 0.0619732 0.342586 0.180593
417 4 0.162717 0.413867 0.184135
416 4 0.191396 0.373318 0.178306
415 2 0.177057 0.393592 0.181221
728 4 0.285115 0.333931 0.209778
446 4 0.390352 0.354773 0.2445
445 2 0.407895 0.361822 0.228137
447 4 0.425437 0.368871 0.211774
644 4 0.43922 0.383172 0.212138
643 2 0.454915 0.402496 0.209813
645 4 0.47061 0.421821 0.207488
597 4 0.468445 0.423502 0.187142
1758 4 0.0730516 0.474435 0.258826
414 4 0.223738 0.469565 0.216294
412 2 0.225021 0.46213 0.240132
229 2 0.460272 0.482159 0.235486
231 4 0.465326 0.457686 0.234626
2755 2 0.00660907 0.0667933 0.320175
234 4 0.0167414 0.042271 0.285984
232 2 0.040899 0.0364324 0.288723
233 4 0.0650565 0.0305937 0.291462
2756 4 0.00982281 0.0527413 0.299744
2478 4 0.00787767 0.0578958 0.280156
1404 4 0.0822244 0.022483 0.291483
317 4 0.0806893 0.0383387 0.301887
428 4 0.0901943 0.0207439 0.308629
316 2 0.0908113 0.0610371 0.304626
1402 2 0.0967282 0.0117229 0.274191
318 4 0.100933 0.0837355 0.307365
731 4 0.158372 0.0911616 0.319526
606 4 0.166094 0.0724279 0.32239
693 4 0.269389 0.0459308 0.255678
691 2 0.271775 0.0688018 0.265496
24 3 0.321647 0.0610132 0.275134
21 1 0.342307 0.0546357 0.266716
23 3 0.351662 0.0382671 0.280242
22 3 0.356224 0.0729507 0.266498
349 2 0.39422 0.0702931 0.26034
351 4 0.418634 0.0679244 0.265188
479 4 0.453123 0.0275138 0.284702
478 2 0.44163 0.0427576 0.268556
2664 4 0.47223 0.020562 0.28166
1428 4 0.45879 0.0135978 0.292762
258 4 0.45052 0.026934 0.304
2662 2 0.494147 0.0302986 0.288732
256 2 0.440591 0.0363517 0.324926
397 2 0.0734412 0.108519 0.332082
2757 4 0.00339534 0.0808453 0.340605
730 2 0.133515 0.0938571 0.319614
732 4 0.108657 0.0965525 0.319702
399 4 0.0886239 0.0937876 0.318753
721 2 0.25641 0.103912 0.305887
692 4 0.274161 0.0916728 0.275315
30 3 0.308037 0.162241 0.242028
723 4 0.256499 0.0967447 0.281933
722 4 0.256321 0.11108 0.329841
29 3 0.327609 0.137537 0.262627
632 4 0.369965 0.0878728 0.261163
631 2 0.355447 0.107419 0.266851
707 4 0.341854 0.140975 0.276643
633 4 0.340929 0.126965 0.27254
706 2 0.347849 0.15624 0.295517
708 4 0.353844 0.171505 0.314391
396 4 0.996663 0.247625 0.248334
443 4 0.00121638 0.25032 0.266207
546 4 0.145593 0.184826 0.265765
544 2 0.163895 0.201369 0.261696
545 4 0.182197 0.217912 0.257628
402 4 0.177284 0.236675 0.256418
419 4 0.395293 0.237225 0.326358
442 2 0.00151348 0.254669 0.290828
444 4 0.00181058 0.259019 0.315448
733 2 0.153098 0.314313 0.248445
375 4 0.163414 0.300415 0.333743
343 2 0.214724 0.308675 0.261045
400 2 0.182365 0.259915 0.264118
401 4 0.187445 0.283154 0.271817
676 2 0.174756 0.304834 0.298579
345 4 0.19168 0.301903 0.267996
677 4 0.17439 0.297104 0.274803
735 4 0.174327 0.305213 0.25802
678 4 0.175122 0.312563 0.322355
510 4 0.18238 0.329582 0.317132
378 4 0.271982 0.254813 0.313298
376 2 0.286369 0.271543 0.301538
496 2 0.327877 0.289833 0.253826
497 4 0.311083 0.290189 0.272346
377 4 0.300755 0.288273 0.289777
541 2 0.368367 0.294772 0.293397
542 4 0.392111 0.286943 0.293745
420 4 0.408311 0.272995 0.293929
543 4 0.344624 0.302601 0.293049
615 4 0.342937 0.32259 0.289517
418 2 0.401802 0.25511 0.310143
364 2 0.0177383 0.372628 0.30069
365 4 0.0399571 0.382506 0.294865
601 2 0.0436996 0.414507 0.327027
603 4 0.0400759 0.399197 0.307594
750 4 0.0686593 0.352873 0.25544
299 4 0.13216 0.336739 0.253618
298 2 0.108889 0.343104 0.260184
300 4 0.0856179 0.34947 0.26675
508 2 0.185506 0.354388 0.317371
509 4 0.188632 0.379194 0.317611
433 2 0.312772 0.380019 0.339664
434 4 0.335042 0.373841 0.330121
614 4 0.327659 0.360159 0.318772
613 2 0.335298 0.341375 0.304144
1757 4 0.0377946 0.44087 0.24738
1756 2 0.0554231 0.457653 0.253103
264 4 0.0224622 0.452311 0.254496
776 4 0.0578333 0.488735 0.323488
775 2 0.0641429 0.495492 0.300257
1775 4 0.0721179 0.495407 0.257948
413 4 0.226304 0.454695 0.26397
1436 4 0.222214 0.435857 0.267059
1435 2 0.235849 0.434532 0.287975
1437 4 0.249485 0.433208 0.308892
4 3 0.267063 0.438102 0.315869
3 3 0.291027 0.466799 0.322693
1 1 0.277645 0.450505 0.332379
1801 2 0.374281 0.490502 0.315879
1802 4 0.358289 0.478015 0.330491
119 3 0.490178 0.468977 0.319029
429 4 0.0960909 0.993398 0.35008
427 2 0.0931426 0.00707113 0.329355
1781 4 0.112358 0.00313407 0.419861
604 2 0.187233 0.0754122 0.335405
605 4 0.208373 0.0783965 0.34842
441 4 0.321536 0.000761065 0.400475
1701 4 0.33442 0.00930083 0.386371
425 4 0.337336 0.00542373 0.404993
699 4 0.365485 0.0421883 0.356727
698 4 0.412084 0.0435579 0.338635
1699 2 0.341041 0.0242604 0.367462
1700 4 0.347662 0.0392199 0.348553
697 2 0.388785 0.0428731 0.347681
962 4 0.323069 0.0118098 0.416912
257 4 0.430663 0.0457693 0.345852
2585 4 0.000509152 0.100533 0.344099
398 4 0.0582585 0.12325 0.345411
2584 2 0.0225801 0.109562 0.351618
2586 4 0.044651 0.118591 0.359136
458 4 0.0468082 0.135274 0.371651
457 2 0.0424742 0.14329 0.394935
600 4 0.122013 0.138474 0.367415
598 2 0.124639 0.163275 0.369196
248 4 0.221962 0.074387 0.362612
247 2 0.237565 0.0925674 0.355457
403 2 0.246916 0.150898 0.34309
249 4 0.253168 0.110748 0.348302
404 4 0.254302 0.127062 0.344667
683 4 0.267119 0.11911 0.357994
682 2 0.286014 0.125514 0.373065
684 4 0.304909 0.131919 0.388136
320 4 0.316838 0.136805 0.373837
319 2 0.333956 0.149105 0.360388
724 2 0.393726 0.0930435 0.388067
717 4 0.406982 0.159504 0.336953
726 4 0.385986 0.111901 0.373587
321 4 0.351074 0.161404 0.346939
599 4 0.127264 0.188077 0.370977
389 4 0.123193 0.221684 0.376937
686 4 0.118619 0.204194 0.382414
685 2 0.105396 0.200575 0.403324
275 4 0.133693 0.20503 0.375218
274 2 0.156473 0.207324 0.365169
388 2 0.118017 0.245754 0.372576
473 4 0.225305 0.183541 0.351413
405 4 0.239531 0.174734 0.341512
474 4 0.190094 0.216787 0.338936
472 2 0.2077 0.200164 0.345175
276 4 0.179253 0.209618 0.355119
715 2 0.400703 0.162878 0.360918
716 4 0.394424 0.166253 0.384884
467 4 0.384927 0.17696 0.399673
269 4 0.402325 0.2216 0.33422
270 4 0.439537 0.221394 0.367626
452 4 0.458109 0.227579 0.372132
268 2 0.420931 0.221497 0.350923
451 2 0.46287 0.220241 0.395555
347 4 0.0653493 0.331085 0.400798
618 4 0.0796479 0.318283 0.393435
616 2 0.0922948 0.302421 0.37882
390 4 0.112841 0.269825 0.368216
617 4 0.104942 0.286559 0.364204
374 4 0.124921 0.281836 0.3597
373 2 0.144167 0.291125 0.346721
346 2 0.0415057 0.332866 0.393484
348 4 0.0176621 0.334647 0.386171
435 4 0.290503 0.386198 0.349208
334 2 0.329064 0.364484 0.411953
238 2 0.370598 0.389128 0.382828
239 4 0.385019 0.408802 0.377339
587 4 0.40215 0.413335 0.368114
335 4 0.349088 0.354923 0.400431
240 4 0.356176 0.369454 0.388317
2537 4 0.498147 0.350229 0.328808
752 4 0.468554 0.397623 0.373641
561 4 0.478562 0.388732 0.388887
559 2 0.492865 0.378352 0.406575
751 2 0.478778 0.41721 0.361937
602 4 0.0473232 0.429817 0.34646
549 4 0.05343 0.417883 0.360752
500 4 0.0609418 0.489684 0.342622
499 2 0.0740915 0.478099 0.360456
501 4 0.0872412 0.466513 0.378289
547 2 0.073254 0.424435 0.374509
548 4 0.0930781 0.430988 0.388266
407 4 0.087084 0.449358 0.389142
406 2 0.102418 0.46009 0.405721
1544 4 0.225836 0.503087 0.41112
438 4 0.304004 0.452594 0.334337
5 3 0.26214 0.460229 0.345932
2 3 0.290898 0.436464 0.344883
1557 4 0.279994 0.487978 0.408154
436 2 0.328768 0.456031 0.334616
437 4 0.353533 0.459469 0.334894
586 2 0.402546 0.437294 0.375255
593 4 0.402918 0.480236 0.376592
588 4 0.402943 0.461253 0.382397
592 2 0.418145 0.492346 0.360887
116 1 0.500263 0.457032 0.336176
712 2 0.468522 0.494906 0.336616
714 4 0.487239 0.478349 0.337471
753 4 0.489003 0.436797 0.350234
117 3 0.488029 0.459913 0.355442
1772 4 0.00423255 0.00582052 0.448859
720 4 0.0139008 0.0108573 0.467057
369 4 0.082061 0.0267899 0.465585
719 4 0.0630758 0.0191035 0.470869
718 2 0.0384883 0.0149804 0.468963
367 2 0.0931779 0.0240817 0.443353
368 4 0.104295 0.0213735 0.421121
961 2 0.322809 0.0315919 0.432202
963 4 0.322549 0.051374 0.447492
432 4 0.304054 0.0599957 0.452165
430 2 0.314458 0.0671948 0.473732
431 4 0.324862 0.0743939 0.495298
725 4 0.401467 0.0741862 0.402547
843 4 0.339869 0.0629874 0.499303
1218 4 0.434502 0.0644446 0.475853
459 4 0.0381401 0.151306 0.418219
640 2 0.487627 0.0924329 0.438548
641 4 0.46539 0.0917202 0.449958
261 4 0.0814082 0.198101 0.439609
260 4 0.0444499 0.165854 0.429866
259 2 0.062929 0.181978 0.434737
687 4 0.0921723 0.196956 0.424234
1035 4 0.0884409 0.214811 0.433527
1033 2 0.0808029 0.232326 0.449653
696 4 0.0717218 0.250527 0.48464
488 4 0.319498 0.220887 0.41534
487 2 0.331981 0.22751 0.435967
466 2 0.394676 0.186711 0.420531
468 4 0.404425 0.196463 0.441389
411 4 0.352926 0.222722 0.469413
409 2 0.375813 0.21432 0.463867
410 4 0.3987 0.205919 0.458321
266 4 0.353098 0.24259 0.471788
489 4 0.344465 0.234132 0.456595
575 4 0.413522 0.207619 0.472799
516 4 0.415218 0.206453 0.453792
574 2 0.423724 0.197883 0.493446
514 2 0.436792 0.21425 0.443842
515 4 0.458365 0.222047 0.433893
453 4 0.46763 0.212903 0.418979
2847 4 0.00722688 0.312519 0.442672
2802 4 0.00967246 0.306435 0.424825
325 2 0.0763543 0.327456 0.471233
1034 4 0.0731649 0.249842 0.465779
1260 4 0.0885231 0.257046 0.478257
1258 2 0.0996865 0.279341 0.476388
1259 4 0.11085 0.301636 0.474519
9 3 0.13103 0.302663 0.460319
7 3 0.111952 0.315145 0.4902
6 1 0.125951 0.321387 0.473047
327 4 0.100783 0.322125 0.471151
265 2 0.354236 0.256728 0.492378
2457 4 0.46469 0.271284 0.49186
2455 2 0.482448 0.255527 0.499705
326 4 0.0519259 0.332788 0.471315
8 3 0.145363 0.330327 0.482083
10 3 0.115502 0.336963 0.460129
709 2 0.152268 0.416517 0.494337
504 4 0.185367 0.396432 0.50397
336 4 0.309039 0.374046 0.423476
668 4 0.313263 0.392065 0.4303
667 2 0.320679 0.415927 0.431196
1011 4 0.472154 0.335271 0.486492
560 4 0.507168 0.367972 0.424263
3309 4 0.498165 0.364967 0.440561
3307 2 0.492825 0.347182 0.457306
3308 4 0.487485 0.329398 0.47405
1381 2 0.0129268 0.486832 0.453732
1383 4 0.995032 0.469647 0.450626
711 4 0.129631 0.420033 0.484318
569 4 0.137097 0.472174 0.43026
384 4 0.117937 0.425093 0.469557
382 2 0.120516 0.444709 0.454269
408 4 0.117752 0.470821 0.422301
568 2 0.153444 0.48949 0.437882
383 4 0.123095 0.464325 0.438981
635 4 0.321929 0.457305 0.43661
634 2 0.310377 0.475756 0.424311
669 4 0.328094 0.439789 0.432092
636 4 0.298824 0.494208 0.412012
773 4 0.362815 0.446407 0.489601
772 2 0.348969 0.448421 0.468878
774 4 0.335123 0.450435 0.448156
663 4 0.496346 0.484531 0.469904
1152 4 0.205714 0.0534892 0.533173
342 4 0.189314 0.0497901 0.521719
340 2 0.183827 0.0307202 0.506506
341 4 0.178341 0.0116504 0.491294
951 4 0.300458 0.0628433 0.580794
1031 4 0.291072 0.0818894 0.578592
1217 4 0.396805 0.067037 0.508609
842 4 0.385069 0.0531654 0.518309
841 2 0.362469 0.0580764 0.508806
1216 2 0.415654 0.0657408 0.492231
1270 2 0.0762809 0.151766 0.584751
1271 4 0.0872726 0.13519 0.569598
1058 4 0.0789185 0.129639 0.506134
1057 2 0.086838 0.12679 0.529679
1059 4 0.0947576 0.12394 0.553223
1155 4 0.105177 0.134032 0.564824
939 4 0.0929111 0.11757 0.570757
1153 2 0.129311 0.140567 0.564697
1154 4 0.153445 0.147103 0.564571
1150 2 0.220953 0.0712471 0.541983
1151 4 0.236191 0.0890049 0.550794
1180 2 0.224017 0.125171 0.561035
1181 4 0.224339 0.100222 0.562644
1182 4 0.223695 0.150121 0.559426
1032 4 0.255286 0.0912411 0.544937
1030 2 0.273179 0.0865653 0.561765
1198 2 0.00984693 0.238999 0.557621
1199 4 0.0296477 0.231765 0.571066
878 4 0.046915 0.229227 0.580778
695 4 0.0749675 0.226496 0.528375
694 2 0.0733446 0.238512 0.506508
877 2 0.0577537 0.207244 0.585723
900 4 0.214738 0.165645 0.552604
898 2 0.234043 0.181527 0.553138
899 4 0.253348 0.197408 0.553671
650 4 0.256649 0.202298 0.534811
649 2 0.251471 0.224223 0.523964
576 4 0.433927 0.188148 0.514093
856 2 0.213324 0.263415 0.538556
857 4 0.19377 0.269272 0.552995
798 4 0.21114 0.267405 0.582992
947 4 0.200575 0.277481 0.570564
946 2 0.182273 0.292915 0.577773
858 4 0.232879 0.257558 0.524117
651 4 0.246293 0.246148 0.513116
267 4 0.355374 0.270867 0.512969
1010 4 0.461391 0.288191 0.499469
1009 2 0.466772 0.311731 0.49298
502 2 0.196531 0.37635 0.513833
503 4 0.207694 0.356268 0.523697
710 4 0.174906 0.413002 0.504355
803 4 0.274572 0.350336 0.566765
804 4 0.269565 0.346886 0.517129
802 2 0.272068 0.348611 0.541947
882 4 0.369158 0.352381 0.50293
928 2 0.347932 0.391374 0.575626
929 4 0.365855 0.394774 0.558527
881 4 0.367347 0.383166 0.542296
880 2 0.368253 0.367774 0.522613
539 4 0.118924 0.42981 0.545619
540 4 0.114674 0.477965 0.558413
2244 4 0.112293 0.496084 0.562856
538 2 0.116799 0.453888 0.552016
1160 4 0.128007 0.488024 0.570421
1953 4 0.416834 0.492296 0.536425
1909 2 0.445971 0.483965 0.566738
1911 4 0.460774 0.473486 0.58395
1910 4 0.431169 0.494444 0.549526
1081 2 0.0800532 0.071171 0.645915
1083 4 0.0812733 0.0805621 0.622774
1126 2 0.040434 0.0789859 0.605291
1127 4 0.063297 0.0816891 0.615046
1128 4 0.0175711 0.0762826 0.595537
3477 4 0.00822985 0.0826385 0.610813
938 4 0.0919305 0.081783 0.605672
824 4 0.202621 0.997958 0.680598
949 2 0.300509 0.0448829 0.598189
950 4 0.30056 0.0269225 0.615585
3007 2 0.490842 0.0559613 0.58042
3008 4 0.482517 0.0366308 0.593918
809 4 0.472534 0.0307923 0.608996
808 2 0.466854 0.0445715 0.629072
810 4 0.461174 0.0583507 0.649148
45 3 0.458021 0.0815821 0.65111
1221 4 0.162034 0.142219 0.582692
937 2 0.0924208 0.0996763 0.588215
1219 2 0.183146 0.15276 0.590958
1211 4 0.23053 0.152901 0.662492
1192 2 0.336233 0.139975 0.652019
1194 4 0.317841 0.148143 0.666858
1193 4 0.354625 0.131806 0.63718
3424 2 0.487594 0.105371 0.660737
1272 4 0.0652892 0.168341 0.599904
1244 4 0.0559176 0.24696 0.579709
879 4 0.0685924 0.18526 0.590667
1220 4 0.204259 0.163301 0.599223
888 4 0.248331 0.154137 0.667674
1212 4 0.214036 0.164474 0.616723
1210 2 0.222283 0.158687 0.639608
982 2 0.99472 0.289289 0.592088
983 4 0.0131425 0.28085 0.606736
1245 4 0.0326177 0.275134 0.613828
1243 2 0.0442676 0.261047 0.596768
948 4 0.16397 0.308349 0.584982
1135 2 0.1564 0.322875 0.613801
822 4 0.157126 0.321049 0.651091
820 2 0.15493 0.297774 0.659959
1136 4 0.151019 0.302624 0.600157
796 2 0.232815 0.273318 0.593964
797 4 0.254491 0.279232 0.604936
791 4 0.268214 0.289579 0.596814
790 2 0.271751 0.314328 0.59724
872 4 0.327666 0.278061 0.607017
871 2 0.345057 0.295904 0.609104
813 4 0.382592 0.308673 0.609892
873 4 0.362448 0.313748 0.61119
954 4 0.477326 0.266262 0.59602
3123 4 0.497836 0.248434 0.646601
952 2 0.493236 0.284592 0.602025
1041 4 0.0491475 0.371707 0.627694
3264 4 0.0439311 0.364759 0.64455
3240 4 0.036045 0.381354 0.640167
3238 2 0.0152155 0.395112 0.638744
1039 2 0.0725028 0.374901 0.619357
3262 2 0.0400848 0.342674 0.655626
1064 4 0.158189 0.342436 0.647775
1137 4 0.161781 0.343125 0.627444
1040 4 0.095858 0.378095 0.61102
993 4 0.112194 0.380379 0.624379
991 2 0.133265 0.368185 0.630074
992 4 0.154337 0.35599 0.63577
897 4 0.1664 0.362701 0.623738
1189 2 0.246387 0.362991 0.589581
896 4 0.20868 0.379807 0.603233
895 2 0.18754 0.371254 0.613485
1172 4 0.22226 0.393133 0.603327
1191 4 0.225134 0.375364 0.594096
1063 2 0.17586 0.348284 0.664471
792 4 0.275287 0.339076 0.597666
1238 4 0.285414 0.345811 0.581344
1190 4 0.26764 0.350617 0.585066
1239 4 0.318436 0.376934 0.602358
1237 2 0.301925 0.361372 0.591851
930 4 0.330009 0.387973 0.592726
811 2 0.391092 0.332187 0.610034
1204 2 0.388233 0.377251 0.645664
1205 4 0.379552 0.383117 0.668367
1206 4 0.396913 0.371384 0.622962
927 4 0.395856 0.372621 0.603915
812 4 0.399592 0.355701 0.610177
925 2 0.407907 0.391287 0.592446
926 4 0.419958 0.409953 0.580977
1002 4 0.440528 0.412276 0.578862
1159 2 0.151085 0.491389 0.579435
1161 4 0.174163 0.494755 0.588449
1188 4 0.176774 0.475526 0.59054
1171 2 0.229317 0.41702 0.601128
1186 2 0.197874 0.462316 0.592881
1173 4 0.236374 0.440906 0.59893
1187 4 0.218974 0.449106 0.595222
1001 4 0.462825 0.455614 0.590057
1000 2 0.451676 0.433945 0.58446
1269 4 0.460068 0.46841 0.603755
1267 2 0.462311 0.485723 0.621655
1101 4 0.462201 0.498035 0.657945
1082 4 0.0788331 0.0617798 0.669056
943 2 0.0377399 0.0243571 0.678802
1076 4 0.0679077 0.0529925 0.683264
1075 2 0.0703489 0.0712405 0.700182
945 4 0.0224864 0.00504541 0.683226
944 4 0.0529934 0.0436687 0.674378
1283 4 0.19389 0.0605935 0.703392
825 4 0.194037 0.0468745 0.686445
823 2 0.198329 0.0224162 0.683522
1147 2 0.245869 0.0686138 0.699655
1149 4 0.246972 0.0527706 0.718967
1048 2 0.335205 0.999251 0.752397
1004 4 0.35577 0.0758464 0.753306
41 1 0.451833 0.0715525 0.670597
43 3 0.429131 0.0746723 0.674247
42 3 0.456109 0.0489934 0.669199
1163 4 0.468336 0.0575285 0.687092
1162 2 0.481826 0.045887 0.704632
44 3 0.463987 0.0804097 0.688267
1164 4 0.495316 0.0342454 0.722173
864 4 0.0704551 0.0922479 0.735961
1077 4 0.0727902 0.0894886 0.7171
851 4 0.0732781 0.107318 0.710187
850 2 0.0643923 0.125897 0.696009
852 4 0.0555065 0.144477 0.68183
862 2 0.050848 0.0930248 0.751458
1107 4 0.0848844 0.098475 0.724862
1105 2 0.106887 0.100203 0.736612
1148 4 0.244767 0.084457 0.680343
1282 2 0.191497 0.0849829 0.708352
1284 4 0.189104 0.109372 0.713313
909 4 0.187224 0.129042 0.709402
907 2 0.204229 0.13633 0.692583
908 4 0.221235 0.143618 0.675765
1227 4 0.238047 0.13585 0.664431
1225 2 0.240043 0.111017 0.662314
1226 4 0.24204 0.0861829 0.660196
886 2 0.273184 0.153814 0.670394
887 4 0.298037 0.15349 0.673114
829 2 0.308323 0.121042 0.696374
1005 4 0.324502 0.0913205 0.717479
830 4 0.306985 0.139292 0.679336
831 4 0.309661 0.102791 0.713412
1003 2 0.340136 0.0835834 0.735392
3425 4 0.4691 0.0900764 0.667755
1113 4 0.496934 0.0975066 0.731205
1111 2 0.485739 0.0873642 0.751129
1130 4 0.135831 0.249411 0.745999
1208 4 0.137253 0.241303 0.727297
1074 4 0.12076 0.241634 0.736409
1072 2 0.0997026 0.248278 0.748141
976 2 0.332597 0.227501 0.741862
977 4 0.312456 0.23775 0.752562
918 4 0.294249 0.239563 0.750278
978 4 0.352737 0.217251 0.731163
1025 4 0.415988 0.179707 0.682104
1024 2 0.433709 0.18405 0.6992
1142 4 0.446036 0.188265 0.735278
1144 2 0.481816 0.176522 0.722944
1262 4 0.464852 0.202773 0.715517
1026 4 0.451431 0.188393 0.716296
1261 2 0.465164 0.227708 0.713689
1145 4 0.463268 0.191509 0.730463
1141 2 0.430721 0.18477 0.754731
3263 4 0.0362384 0.32059 0.666701
1177 2 0.0100219 0.251737 0.716167
1179 4 0.0307142 0.250321 0.702203
1207 2 0.141704 0.253779 0.706091
821 4 0.152733 0.274499 0.668827
1209 4 0.146154 0.266255 0.684884
1019 4 0.39237 0.273696 0.727504
1018 2 0.383279 0.288754 0.709733
1020 4 0.374189 0.303812 0.691962
1263 4 0.465476 0.252643 0.71186
892 2 0.0302328 0.361666 0.739274
1279 2 0.0561963 0.410911 0.739676
894 4 0.0468363 0.371031 0.755455
1280 4 0.0507179 0.38674 0.742986
816 4 0.0647579 0.375313 0.749473
893 4 0.0136293 0.352302 0.723094
1065 4 0.19353 0.354132 0.681167
807 4 0.205278 0.337921 0.680164
1028 4 0.212798 0.386395 0.714566
1066 2 0.193622 0.380339 0.750109
1068 4 0.208213 0.391652 0.733248
1027 2 0.218964 0.404608 0.698583
805 2 0.227451 0.342578 0.69074
806 4 0.249624 0.347235 0.701316
1281 4 0.0616746 0.435081 0.736365
2016 4 0.158217 0.495072 0.733948
1176 4 0.166978 0.478434 0.728885
2172 4 0.168938 0.488124 0.684548
1140 4 0.228618 0.44258 0.677005
1175 4 0.211184 0.457817 0.739906
1174 2 0.189081 0.468126 0.734395
1029 4 0.22513 0.42282 0.6826
1138 2 0.249463 0.455892 0.680674
1139 4 0.270308 0.469204 0.684344
1987 2 0.28052 0.452549 0.732643
1229 4 0.285261 0.469958 0.69577
1989 4 0.28057 0.471269 0.716068
2028 4 0.272809 0.480385 0.701063
1228 2 0.30807 0.46377 0.687605
1230 4 0.330878 0.457582 0.67944
1988 4 0.28047 0.433828 0.749218
1099 2 0.457367 0.488019 0.680339
1100 4 0.452534 0.478003 0.702733
2989 2 0.0268119 0.0588721 0.789741
2990 4 0.0268494 0.0823101 0.781033
2991 4 0.0267744 0.035434 0.79845
863 4 0.0312409 0.0938016 0.766954
2049 4 0.118735 0.0154311 0.792479
1202 4 0.113158 0.0320695 0.784101
1201 2 0.122686 0.0551264 0.782432
1203 4 0.132214 0.0781832 0.780764
32 3 0.148552 0.0838993 0.795109
819 4 0.320995 0.0669477 0.815128
817 2 0.329652 0.044283 0.809082
1050 4 0.344546 0.0163577 0.768059
973 2 0.366282 0.00724103 0.797871
818 4 0.338308 0.0216183 0.803037
974 4 0.349605 0.0218319 0.786287
2322 4 0.481002 0.0459191 0.781815
845 4 0.480623 0.0652875 0.787106
1112 4 0.474544 0.0772217 0.771053
844 2 0.48305 0.0733083 0.810664
2320 2 0.485491 0.0347072 0.759922
846 4 0.485476 0.0813292 0.834222
3083 4 0.0114229 0.0888215 0.772675
833 4 0.0211614 0.103023 0.779762
832 2 0.0254911 0.118806 0.798665
834 4 0.0298207 0.134589 0.817568
1125 4 0.0328068 0.153601 0.823796
1106 4 0.128891 0.101931 0.748361
911 4 0.138785 0.0974331 0.809911
34 3 0.128953 0.0957514 0.765308
31 1 0.144231 0.102017 0.781609
35 3 0.13563 0.118902 0.794242
33 3 0.16405 0.108866 0.771676
1256 4 0.22957 0.124037 0.809546
840 4 0.220039 0.123343 0.826275
1255 2 0.24202 0.103258 0.803347
1085 4 0.322262 0.0846268 0.806096
1257 4 0.254469 0.082479 0.797148
1084 2 0.29793 0.0872365 0.800965
1086 4 0.273598 0.0898462 0.795834
960 4 0.323081 0.0831403 0.825177
47 3 0.409286 0.162158 0.813155
1023 4 0.417139 0.15365 0.830168
1129 2 0.156532 0.248588 0.759999