ITEM: TIMESTEP
2690000
ITEM: NUMBER OF ATOMS
4590
ITEM: BOX BOUNDS pp pp pp
-9.9985700000000008e+00 9.9985700000000008e+00
-9.9985700000000008e+00 9.9985700000000008e+00
-9.9985700000000008e+00 9.9985700000000008e+00
ITEM: ATOMS id type xs ys zs
1667 4 0.021569 0.0770469 0.0704397
1666 2 0.00208614 0.0642838 0.0795339
491 4 0.28499 0.0727547 0.070965
2974 2 0.467318 0.0178956 0.0179983
745 2 0.444718 0.0758404 0.0109755
747 4 0.445916 0.0513856 0.00590561
2975 4 0.452234 0.033458 0.00552949
986 4 0.432449 0.0374537 0.00431213
2467 2 0.494394 0.00865947 0.0657025
701 4 0.0187317 0.0959597 0.0734175
567 4 0.241476 0.165161 0.0109233
297 4 0.343371 0.13128 0.0386595
295 2 0.353244 0.124556 0.0166936
556 2 0.402995 0.112112 0.999633
558 4 0.424219 0.104484 0.0104291
746 4 0.44352 0.100295 0.0160454
566 4 0.212834 0.170224 0.0516014
565 2 0.227155 0.167693 0.0312623
573 4 0.255829 0.23255 0.0585055
571 2 0.264173 0.245335 0.038704
770 4 0.393731 0.185818 0.0188506
359 4 0.374557 0.190653 0.0182272
664 2 0.394073 0.209218 0.0515079
665 4 0.385422 0.193594 0.0340086
666 4 0.402723 0.224843 0.0690072
323 4 0.40663 0.242566 0.0634901
358 2 0.351876 0.194689 0.00850981
769 2 0.405209 0.169679 0.00358754
623 4 0.391402 0.241037 0.0747542
292 2 0.157221 0.30984 0.0503349
294 4 0.14077 0.296353 0.0371956
482 4 0.246895 0.249996 0.0641505
293 4 0.173672 0.323327 0.0634741
507 4 0.187348 0.326261 0.0709735
287 4 0.190087 0.332332 0.0534538
286 2 0.207101 0.32918 0.0354045
481 2 0.232017 0.262564 0.0798312
288 4 0.224114 0.326027 0.0173552
572 4 0.272518 0.258119 0.0189025
357 4 0.291476 0.260818 0.0178439
355 2 0.306984 0.278405 0.00916199
956 4 0.331996 0.310047 0.0120591
356 4 0.322492 0.295992 0.000480043
1069 2 0.402412 0.311812 0.0328786
955 2 0.348693 0.320167 0.0276799
1071 4 0.381799 0.325706 0.0355691
322 2 0.415874 0.263143 0.0527053
957 4 0.365389 0.330286 0.0433007
324 4 0.425117 0.28372 0.0419204
1070 4 0.423026 0.297919 0.0301881
280 2 0.45515 0.307462 0.0484833
282 4 0.440928 0.293711 0.0331927
281 4 0.469372 0.321214 0.0637738
527 4 0.47508 0.329282 0.0798752
328 2 0.00523031 0.402631 0.0165576
456 4 0.169125 0.389509 0.0522745
552 4 0.172347 0.333623 0.0809471
454 2 0.173315 0.365572 0.0581602
455 4 0.177506 0.341635 0.0640459
1290 4 0.264553 0.395258 0.0238981
250 2 0.263607 0.400111 0.0596505
1288 2 0.276119 0.379337 0.00847295
251 4 0.257323 0.408486 0.036945
252 4 0.269892 0.391736 0.0823561
741 4 0.383731 0.33581 0.0517096
739 2 0.389847 0.34496 0.0741608
671 4 0.460342 0.337865 0.0727129
1788 4 0.0891368 0.467617 0.0672826
1786 2 0.0977283 0.485419 0.0519715
627 4 0.167014 0.47413 0.0609705
1467 4 0.0901552 0.450734 0.0803323
626 4 0.210477 0.469876 0.0853332
625 2 0.188745 0.472003 0.0731519
245 4 0.218078 0.461076 0.0676095
244 2 0.239989 0.452163 0.0595062
246 4 0.261899 0.44325 0.0514029
272 4 0.262752 0.426747 0.0384365
271 2 0.274044 0.43544 0.0178921
1672 2 0.399103 0.43985 0.0610893
853 2 0.397217 0.450723 0.00756621
1674 4 0.40589 0.444552 0.0374883
854 4 0.415221 0.454969 0.0243892
227 4 0.50304 0.498231 0.0648158
564 4 0.422008 0.436804 0.0312296
563 4 0.469967 0.450734 0.0286545
562 2 0.445988 0.443769 0.029942
228 4 0.474542 0.469175 0.0357579
226 2 0.488791 0.483703 0.0502868
19 3 0.0662319 0.0293914 0.144346
18 3 0.0747972 0.99277 0.149817
16 1 0.0663348 0.0119871 0.159692
578 4 0.079956 0.0361393 0.164379
582 4 0.228528 0.0785096 0.133246
580 2 0.243218 0.0613526 0.143971
490 2 0.284902 0.0581447 0.0912558
1475 4 0.293692 0.0285182 0.119968
492 4 0.284813 0.0435346 0.111547
581 4 0.257907 0.0441956 0.154697
654 4 0.26476 0.0292418 0.16618
1474 2 0.295937 0.00631907 0.108684
484 2 0.414747 0.0155862 0.0884398
485 4 0.404195 0.0371416 0.0814266
2722 2 0.473121 0.0669002 0.14814
2724 4 0.490406 0.0498792 0.142083
1760 4 0.500072 0.0328618 0.138659
2723 4 0.455836 0.0839211 0.154197
2469 4 0.491925 0.0188318 0.0884093
700 2 0.0335366 0.114936 0.0801928
702 4 0.0483414 0.133912 0.0869681
476 4 0.0656498 0.138469 0.0962643
475 2 0.0738878 0.128897 0.117844
477 4 0.0821258 0.119324 0.139423
237 4 0.219806 0.0969027 0.139218
235 2 0.199135 0.102502 0.152123
236 4 0.178464 0.108102 0.165028
628 2 0.391524 0.158711 0.15122
629 4 0.389692 0.133796 0.152252
312 4 0.371305 0.125766 0.151298
310 2 0.357279 0.109751 0.16441
738 4 0.226139 0.168114 0.106438
737 4 0.236324 0.203153 0.140632
736 2 0.231232 0.185634 0.123535
755 4 0.252864 0.241156 0.167602
460 2 0.328649 0.227133 0.120564
461 4 0.305845 0.219168 0.114105
354 4 0.285953 0.219906 0.117487
352 2 0.278569 0.231487 0.138381
353 4 0.271185 0.243068 0.159274
630 4 0.393356 0.183626 0.150188
254 4 0.387979 0.201408 0.158354
462 4 0.351453 0.235099 0.127023
255 4 0.367313 0.241903 0.137527
253 2 0.377646 0.221655 0.147941
624 4 0.367256 0.241566 0.118542
622 2 0.379329 0.241302 0.0966482
505 2 0.201056 0.310525 0.0847438
483 4 0.217139 0.275131 0.0955119
506 4 0.214765 0.294788 0.0985141
537 4 0.209058 0.290774 0.118874
535 2 0.192135 0.292418 0.137206
536 4 0.175211 0.294061 0.155539
754 2 0.235515 0.258406 0.162439
756 4 0.218167 0.275656 0.157276
301 2 0.324039 0.318627 0.141973
302 4 0.322313 0.333759 0.122143
303 4 0.325766 0.303496 0.161803
765 4 0.356255 0.253068 0.130765
764 4 0.335805 0.287587 0.160614
763 2 0.34603 0.270328 0.145689
550 2 0.15617 0.336536 0.0997878
551 4 0.139992 0.33945 0.118628
290 4 0.242353 0.402877 0.148366
609 4 0.286679 0.394728 0.0924811
387 4 0.330194 0.351333 0.118064
607 2 0.300527 0.413862 0.100683
385 2 0.354095 0.355415 0.111958
493 2 0.388029 0.394068 0.0987022
495 4 0.392701 0.370404 0.105288
386 4 0.377995 0.359496 0.105852
15 3 0.384457 0.347593 0.117311
740 4 0.395962 0.35411 0.096612
14 3 0.414126 0.367637 0.105664
11 1 0.406393 0.35228 0.121246
13 3 0.408951 0.360777 0.142686
12 3 0.418722 0.332949 0.119387
672 4 0.419523 0.348089 0.0997316
670 2 0.439932 0.342977 0.0862223
1791 4 0.0597005 0.490663 0.116555
1465 2 0.0813222 0.463292 0.100067
1466 4 0.0724891 0.47585 0.119802
638 4 0.22586 0.464175 0.1366
767 4 0.240744 0.466745 0.150711
637 2 0.212984 0.479 0.121121
639 4 0.200108 0.493826 0.105642
766 2 0.247537 0.442761 0.152661
768 4 0.254329 0.418777 0.15461
608 4 0.314376 0.432997 0.108884
659 4 0.328647 0.445696 0.0974574
494 4 0.383358 0.417732 0.0921161
660 4 0.376905 0.435661 0.0890221
1673 4 0.392317 0.435147 0.0846903
658 2 0.352776 0.440678 0.0932398
524 4 0.409463 0.487907 0.117637
523 2 0.399284 0.466609 0.109393
525 4 0.389105 0.445311 0.101148
1559 4 0.398135 0.493127 0.1334
17 3 0.0447375 0.00795379 0.166507
2480 4 0.0293721 0.0113862 0.177975
2479 2 0.0172864 0.0332561 0.178881
380 4 0.0134751 0.0702676 0.18792
2481 4 0.00520075 0.0551261 0.179787
20 3 0.078973 0.0176442 0.177773
577 2 0.0924712 0.0571967 0.169393
689 4 0.159114 0.0142095 0.212348
674 4 0.139411 0.0130917 0.208086
673 2 0.119759 0.00611145 0.221879
1403 4 0.0889662 0.00221506 0.250434
1504 2 0.23217 0.00298226 0.180844
1506 4 0.246505 0.0201082 0.169601
688 2 0.180223 0.00241159 0.205992
652 2 0.283936 0.0277839 0.18216
653 4 0.303111 0.0263261 0.198139
25 3 0.32904 0.0379593 0.246549
758 4 0.339847 0.0756277 0.186055
759 4 0.350024 0.0740535 0.234991
757 2 0.344936 0.0748406 0.210523
350 4 0.36711 0.0751013 0.239975
349 2 0.39134 0.0690256 0.241049
351 4 0.41557 0.0629499 0.242123
480 4 0.432008 0.0585254 0.25086
333 4 0.488773 0.082928 0.232844
743 4 0.481585 0.0643188 0.240806
742 2 0.493568 0.0465279 0.227958
379 2 0.0326554 0.0853562 0.182477
511 2 0.0629166 0.13371 0.179784
512 4 0.045888 0.116422 0.185814
381 4 0.0518357 0.100445 0.177033
513 4 0.0799452 0.150997 0.173755
449 4 0.160587 0.11489 0.170138
579 4 0.104986 0.078254 0.174406
450 4 0.114623 0.0953107 0.172304
448 2 0.137605 0.105101 0.171221
30 3 0.307458 0.148759 0.242701
28 3 0.342719 0.161759 0.240399
311 4 0.343252 0.093735 0.177522
761 4 0.415736 0.133817 0.246706
521 4 0.470732 0.135605 0.209648
762 4 0.459021 0.127715 0.222419
760 2 0.437379 0.130766 0.234563
332 4 0.465537 0.117909 0.205695
520 2 0.483178 0.156601 0.204224
331 2 0.477155 0.100419 0.21927
339 4 0.0589871 0.219287 0.175145
337 2 0.0507545 0.241427 0.183344
394 2 0.0183523 0.246495 0.235934
395 4 0.0334609 0.252893 0.217067
393 4 0.0924657 0.167576 0.177039
391 2 0.0819855 0.18955 0.182737
392 4 0.0715053 0.211525 0.188435
545 4 0.166974 0.247682 0.246694
279 4 0.264554 0.208338 0.209809
277 2 0.267237 0.226679 0.193028
278 4 0.269921 0.245019 0.176247
522 4 0.495624 0.177598 0.198799
338 4 0.0425219 0.263568 0.191542
363 4 0.040171 0.270442 0.209856
361 2 0.0490698 0.293743 0.211606
648 4 0.0596199 0.33161 0.205336
362 4 0.0579687 0.317044 0.213355
372 4 0.0771024 0.324505 0.205536
749 4 0.0484127 0.329577 0.22342
370 2 0.0995424 0.329328 0.215454
371 4 0.121982 0.33415 0.225372
611 4 0.232437 0.323659 0.20519
610 2 0.224059 0.307044 0.188489
612 4 0.215681 0.290429 0.171788
344 4 0.226607 0.318646 0.225751
343 2 0.206233 0.319371 0.240226
285 4 0.316022 0.290811 0.16695
284 4 0.276037 0.260791 0.167774
283 2 0.296029 0.275801 0.167362
729 4 0.320089 0.307516 0.179044
727 2 0.30617 0.322354 0.193579
308 4 0.330889 0.292226 0.178515
307 2 0.34318 0.281959 0.197717
309 4 0.355471 0.271693 0.216919
498 4 0.349129 0.281403 0.233704
647 4 0.050579 0.365114 0.169329
748 2 0.0536849 0.343511 0.243501
646 2 0.0550994 0.348362 0.187333
734 4 0.128124 0.342119 0.241209
733 2 0.148572 0.332886 0.252247
289 2 0.223824 0.393355 0.162194
291 4 0.205295 0.383833 0.176022
417 4 0.165182 0.404275 0.205095
416 4 0.189733 0.370584 0.177475
415 2 0.177457 0.387429 0.191285
728 4 0.292252 0.337193 0.208115
445 2 0.417347 0.379378 0.251636
447 4 0.430389 0.393162 0.235355
644 4 0.450215 0.392428 0.237469
643 2 0.456558 0.3998 0.214434
645 4 0.4629 0.407171 0.191399
264 4 0.0267813 0.435518 0.246064
262 2 0.00178454 0.435503 0.245482
412 2 0.241077 0.463767 0.224869
413 4 0.230267 0.450972 0.243433
414 4 0.251886 0.476562 0.206305
1574 4 0.291355 0.484859 0.230332
595 2 0.486919 0.43105 0.176707
597 4 0.465539 0.426955 0.189006
229 2 0.472311 0.480455 0.22003
231 4 0.471298 0.456698 0.227762
234 4 0.01395 0.0620136 0.27021
232 2 0.0326402 0.047588 0.278441
233 4 0.0513305 0.0331625 0.286673
2756 4 0.00314436 0.0708313 0.284359
317 4 0.0679684 0.0308124 0.298962
1404 4 0.0603942 0.0171197 0.288673
316 2 0.0805169 0.0507919 0.30724
1402 2 0.0746802 0.00966736 0.269554
428 4 0.0653693 0.0117912 0.306114
318 4 0.0930654 0.0707714 0.315519
730 2 0.134177 0.0798973 0.325878
606 4 0.173902 0.0665824 0.337237
693 4 0.277774 0.0447957 0.267361
691 2 0.285023 0.0609164 0.285046
692 4 0.292273 0.0770371 0.302731
24 3 0.324327 0.0621624 0.275004
21 1 0.339757 0.0518199 0.261099
23 3 0.354995 0.0397484 0.273767
22 3 0.351076 0.0679604 0.249244
632 4 0.357698 0.0842099 0.251311
479 4 0.45055 0.0310229 0.288284
478 2 0.441279 0.0447742 0.269572
2664 4 0.468398 0.0203093 0.284073
1428 4 0.456569 0.0193676 0.298452
258 4 0.453632 0.0365015 0.307311
2662 2 0.492478 0.0255035 0.288356
256 2 0.439063 0.0508442 0.321706
2585 4 0.00532369 0.110449 0.323794
732 4 0.109646 0.081056 0.321183
399 4 0.0939029 0.081122 0.331472
403 2 0.239152 0.162554 0.324024
26 1 0.324605 0.158092 0.254428
721 2 0.275163 0.109989 0.310765
723 4 0.287429 0.0942097 0.295741
722 4 0.262897 0.125768 0.32579
404 4 0.251776 0.141995 0.330594
29 3 0.330801 0.144106 0.271875
631 2 0.350708 0.107164 0.258343
707 4 0.344656 0.137352 0.282753
633 4 0.343717 0.130117 0.265374
706 2 0.353591 0.144754 0.304901
708 4 0.362527 0.152156 0.327049
444 4 0.0191136 0.255886 0.315928
396 4 0.00324362 0.240097 0.254801
544 2 0.14884 0.232688 0.25515
546 4 0.130706 0.217694 0.263607
405 4 0.226529 0.183113 0.317454
27 3 0.317742 0.178248 0.263134
269 4 0.397702 0.224416 0.322688
419 4 0.388829 0.240382 0.330426
268 2 0.42049 0.216876 0.329692
442 2 0.0177987 0.251158 0.291411
443 4 0.0164839 0.24643 0.266894
375 4 0.16735 0.317418 0.325399
402 4 0.168378 0.254396 0.265828
400 2 0.177815 0.277374 0.26297
401 4 0.187251 0.300351 0.260112
676 2 0.183422 0.3225 0.295032
345 4 0.185858 0.320097 0.254702
677 4 0.18464 0.3154 0.271089
735 4 0.16902 0.323654 0.263284
378 4 0.290568 0.287793 0.30334
376 2 0.311777 0.299937 0.29806
497 4 0.340462 0.308936 0.27454
377 4 0.332987 0.31208 0.29278
496 2 0.344795 0.29517 0.254122
541 2 0.370623 0.3119 0.298842
542 4 0.392843 0.305104 0.308075
420 4 0.389834 0.285891 0.309723
543 4 0.348403 0.318696 0.289608
418 2 0.389331 0.263137 0.320074
615 4 0.334922 0.330522 0.296523
364 2 0.00793547 0.365721 0.301443
365 4 0.0292215 0.359587 0.289848
601 2 0.0559651 0.372193 0.32564
603 4 0.0410264 0.367152 0.306234
750 4 0.0589571 0.357445 0.263581
300 4 0.0786759 0.365905 0.266615
299 4 0.126374 0.35912 0.253215
298 2 0.102525 0.362512 0.259915
678 4 0.182204 0.3296 0.318975
510 4 0.184342 0.349984 0.319146
508 2 0.193445 0.367692 0.334269
434 4 0.309094 0.385123 0.315688
433 2 0.307683 0.409273 0.322011
614 4 0.325813 0.376886 0.312898
446 4 0.404305 0.365594 0.267917
613 2 0.330368 0.353704 0.30471
1757 4 0.0450366 0.435559 0.251681
1756 2 0.0574828 0.456463 0.257449
1758 4 0.0699291 0.477368 0.263218
1775 4 0.0750469 0.493821 0.272952
1436 4 0.218397 0.450861 0.259262
1435 2 0.234937 0.439418 0.274117
1437 4 0.251477 0.427976 0.288972
4 3 0.25922 0.438043 0.304717
3 3 0.268192 0.473199 0.316031
1 1 0.269005 0.450674 0.321544
436 2 0.307077 0.481349 0.310466
438 4 0.288886 0.465427 0.316851
435 4 0.306273 0.433423 0.328333
2 3 0.29101 0.444347 0.323751
437 4 0.325268 0.497271 0.304082
1802 4 0.34361 0.494382 0.309844
119 3 0.489628 0.462346 0.320608
731 4 0.158709 0.0787386 0.330573
699 4 0.37039 0.0542269 0.356444
1699 2 0.360222 0.0247121 0.385032
1700 4 0.359249 0.0421423 0.367132
697 2 0.394423 0.0610513 0.35542
1701 4 0.361195 0.00728196 0.402933
698 4 0.418455 0.0678757 0.354396
257 4 0.424494 0.0651869 0.3361
397 2 0.0762571 0.0947577 0.34278
398 4 0.0586112 0.108393 0.354088
2584 2 0.0241044 0.115949 0.339357
2586 4 0.0428851 0.121449 0.35492
458 4 0.0404459 0.130899 0.373045
457 2 0.0499061 0.139165 0.394663
600 4 0.100854 0.155361 0.350553
604 2 0.185158 0.0846968 0.350288
605 4 0.196415 0.102811 0.363339
248 4 0.214339 0.101633 0.354231
247 2 0.234739 0.114944 0.34859
249 4 0.255139 0.128255 0.34295
683 4 0.258371 0.14615 0.348577
682 2 0.279719 0.1454 0.361572
684 4 0.301067 0.14465 0.374567
320 4 0.315081 0.134674 0.362712
321 4 0.356032 0.158049 0.34606
319 2 0.335557 0.146361 0.354386
726 4 0.389288 0.140339 0.402581
467 4 0.389954 0.156433 0.413435
717 4 0.37501 0.159181 0.353394
715 2 0.386943 0.158202 0.375345
716 4 0.398875 0.157223 0.397296
642 4 0.489944 0.090501 0.407723
640 2 0.466513 0.0936219 0.399573
641 4 0.443082 0.0967427 0.391422
598 2 0.109151 0.176837 0.360306
599 4 0.117448 0.198313 0.370059
389 4 0.128082 0.230467 0.371127
686 4 0.11373 0.216748 0.376556
685 2 0.102014 0.216568 0.398644
275 4 0.130533 0.211956 0.368749
274 2 0.154511 0.206474 0.373236
473 4 0.215163 0.183474 0.334159
474 4 0.195199 0.209554 0.371868
472 2 0.205181 0.196514 0.353013
276 4 0.17849 0.200991 0.377723
270 4 0.443277 0.209336 0.336696
452 4 0.442437 0.222213 0.351289
451 2 0.453376 0.218618 0.373483
453 4 0.464315 0.215023 0.395678
515 4 0.467144 0.206834 0.41412
2800 2 0.997609 0.269878 0.406563
2802 4 0.00353775 0.293515 0.412162
347 4 0.0646438 0.307269 0.384467
346 2 0.0408814 0.302612 0.390699
348 4 0.017119 0.297954 0.396931
618 4 0.0757437 0.310035 0.36861
388 2 0.128203 0.255413 0.369426
616 2 0.0963862 0.298714 0.36019
390 4 0.128323 0.280358 0.367725
617 4 0.117029 0.287393 0.351771
374 4 0.135369 0.291595 0.353879
373 2 0.15136 0.304506 0.339639
2537 4 0.503554 0.325644 0.33472
549 4 0.068525 0.396699 0.349128
602 4 0.0709038 0.377234 0.345046
547 2 0.0850862 0.41047 0.361827
509 4 0.202549 0.385401 0.349392
334 2 0.314131 0.380022 0.409807
335 4 0.333501 0.369459 0.398041
238 2 0.360679 0.386348 0.368606
239 4 0.378721 0.398411 0.35619
240 4 0.342638 0.374285 0.381023
587 4 0.38787 0.416646 0.350053
752 4 0.478342 0.397171 0.382496
561 4 0.470039 0.383395 0.39516
559 2 0.480786 0.375761 0.416406
751 2 0.48564 0.416666 0.368645
500 4 0.0725288 0.4891 0.34339
499 2 0.0857357 0.469855 0.352357
501 4 0.0989426 0.450611 0.361324
548 4 0.101647 0.42424 0.374527
407 4 0.0942069 0.442308 0.379202
406 2 0.104383 0.448206 0.401267
1544 4 0.210496 0.480315 0.382603
1556 4 0.22818 0.471357 0.38622
1543 2 0.197633 0.48177 0.403995
5 3 0.258159 0.4471 0.341248
636 4 0.293818 0.492011 0.401169
1555 2 0.251218 0.480179 0.390297
1557 4 0.274255 0.489001 0.394373
586 2 0.382467 0.440004 0.357152
593 4 0.378787 0.48243 0.360364
588 4 0.377064 0.463362 0.364252
592 2 0.398633 0.492129 0.348649
712 2 0.45967 0.484119 0.338481
714 4 0.48133 0.47166 0.337595
753 4 0.492939 0.436161 0.354794
117 3 0.488696 0.458194 0.357952
367 2 0.0816872 0.00482061 0.448205
368 4 0.0934147 0.0124757 0.427492
963 4 0.328276 0.0422362 0.456325
432 4 0.32408 0.0503333 0.473978
430 2 0.331083 0.0433905 0.496955
961 2 0.334602 0.0222722 0.442665
962 4 0.340928 0.00230825 0.429005
1216 2 0.416676 0.0524513 0.482232
1217 4 0.400905 0.0368172 0.493723
1218 4 0.432446 0.0680854 0.47074
260 4 0.0677381 0.15705 0.432289
459 4 0.0593664 0.147431 0.416282
724 2 0.383852 0.122082 0.418777
725 4 0.378416 0.103825 0.434973
259 2 0.0738295 0.181294 0.432834
261 4 0.0799208 0.205538 0.433379
1035 4 0.0850853 0.223642 0.43809
1033 2 0.0872195 0.245245 0.450498
687 4 0.0902988 0.216387 0.420732
466 2 0.398654 0.175437 0.427159
468 4 0.407355 0.194441 0.440882
411 4 0.393 0.247244 0.464894
409 2 0.40642 0.227045 0.458803
410 4 0.419841 0.206847 0.452712
575 4 0.434538 0.193912 0.457517
516 4 0.426143 0.19633 0.440753
574 2 0.440138 0.183625 0.479608
514 2 0.446644 0.201582 0.427436
2847 4 0.00354716 0.303733 0.429277
696 4 0.0905484 0.268455 0.480707
1034 4 0.0893537 0.266847 0.462905
1260 4 0.0998988 0.281652 0.469109
1258 2 0.11245 0.3031 0.466355
1259 4 0.125002 0.324549 0.4636
9 3 0.143719 0.329125 0.44736
488 4 0.330815 0.255056 0.439237
489 4 0.378855 0.253425 0.453032
487 2 0.354835 0.25424 0.446135
266 4 0.380163 0.259982 0.471927
265 2 0.389779 0.280248 0.482972
267 4 0.399394 0.300515 0.494017
326 4 0.0669588 0.359833 0.472725
7 3 0.129737 0.334051 0.481898
6 1 0.140701 0.344426 0.46454
327 4 0.114923 0.34655 0.467852
325 2 0.0909407 0.353191 0.470289
8 3 0.161286 0.351987 0.472122
10 3 0.128197 0.361987 0.457197
711 4 0.138844 0.41126 0.478679
709 2 0.159603 0.41037 0.492587
336 4 0.294762 0.390586 0.421572
668 4 0.296411 0.398918 0.439825
882 4 0.380585 0.374905 0.496507
3308 4 0.486147 0.333612 0.493639
560 4 0.491534 0.368127 0.437652
3309 4 0.497303 0.362361 0.454272
3307 2 0.491725 0.347987 0.473955
680 4 0.0062173 0.447963 0.46489
1383 4 0.0128888 0.465616 0.457942
1381 2 0.0255767 0.486795 0.461896
382 2 0.119602 0.437778 0.456421
384 4 0.121399 0.417811 0.471362
408 4 0.11456 0.454104 0.423331
569 4 0.125035 0.470551 0.429978
383 4 0.117805 0.457745 0.441479
568 2 0.146886 0.482704 0.430179
1395 4 0.186374 0.498368 0.437362
570 4 0.168736 0.494857 0.43038
1545 4 0.184771 0.483226 0.425388
667 2 0.298327 0.42355 0.443669
669 4 0.300242 0.448183 0.447513
634 2 0.301212 0.478925 0.42115
635 4 0.308605 0.465838 0.441132
774 4 0.318474 0.452944 0.450712
772 2 0.341442 0.461423 0.455787
773 4 0.36441 0.469902 0.460863
2430 4 0.163226 0.00516553 0.520567
341 4 0.179585 0.0119688 0.52983
1152 4 0.198568 0.066089 0.52441
342 4 0.185784 0.0579303 0.511127
340 2 0.182684 0.0349495 0.520479
1150 2 0.21481 0.0777257 0.539442
1030 2 0.258165 0.0676525 0.571498
1031 4 0.27254 0.0474765 0.574887
431 4 0.338086 0.0364477 0.519932
842 4 0.401377 0.0238287 0.509041
841 2 0.37979 0.0314984 0.519059
843 4 0.358203 0.0391681 0.529076
1058 4 0.124321 0.10795 0.510632
1270 2 0.0966319 0.147574 0.573011
1271 4 0.109532 0.126161 0.573503
1057 2 0.121884 0.113849 0.534808
1059 4 0.119447 0.119747 0.558983
1155 4 0.128638 0.120277 0.575188
939 4 0.114578 0.108455 0.576589
1153 2 0.151589 0.130009 0.57712
1032 4 0.243791 0.0878285 0.568108
1154 4 0.174539 0.139741 0.579052
1151 4 0.231052 0.0893624 0.554474
1180 2 0.232437 0.12003 0.571602
1181 4 0.225214 0.096113 0.570617
1182 4 0.239659 0.143948 0.572586
900 4 0.231925 0.162325 0.577623
1199 4 0.0166103 0.204728 0.57803
879 4 0.0697768 0.177212 0.558637
1198 2 0.00134858 0.213438 0.560242
877 2 0.0521488 0.18899 0.571893
1272 4 0.0837319 0.168987 0.57252
651 4 0.230325 0.239338 0.51435
858 4 0.21894 0.254606 0.507599
898 2 0.244067 0.177752 0.56214
649 2 0.239549 0.21711 0.521132
650 4 0.248773 0.194881 0.527914
899 4 0.256209 0.193179 0.546656
576 4 0.445738 0.173339 0.501699
2455 2 0.486072 0.244968 0.498349
695 4 0.0944116 0.254951 0.5287
694 2 0.09248 0.261703 0.504704
856 2 0.206152 0.262127 0.527726
857 4 0.193364 0.269647 0.547852
947 4 0.200701 0.267522 0.56506
946 2 0.181292 0.280663 0.573764
798 4 0.213564 0.257899 0.576836
1011 4 0.47688 0.321194 0.507875
2457 4 0.462408 0.252818 0.500238
1010 4 0.465883 0.272753 0.502103
1009 2 0.471382 0.296974 0.504989
502 2 0.202304 0.371913 0.510661
503 4 0.214082 0.349875 0.511545
504 4 0.190526 0.393951 0.509777
710 4 0.180363 0.409481 0.506495
1189 2 0.233105 0.360614 0.583211
803 4 0.259822 0.36151 0.562454
804 4 0.272945 0.355717 0.514548
802 2 0.266384 0.358614 0.538501
1190 4 0.252832 0.348214 0.574142
1238 4 0.268583 0.359195 0.579481
792 4 0.267921 0.340635 0.584784
929 4 0.359669 0.372467 0.552115
881 4 0.351649 0.382775 0.536526
880 2 0.366117 0.37884 0.516517
928 2 0.339711 0.379309 0.565532
539 4 0.11427 0.428961 0.569468
538 2 0.113614 0.452578 0.577652
1159 2 0.152848 0.492196 0.581665
1081 2 0.0676675 0.0740111 0.635567
1127 4 0.044367 0.0840096 0.609832
1082 4 0.0707354 0.0667768 0.659304
943 2 0.0253887 0.0291497 0.667003
944 4 0.0470437 0.0412901 0.669978
4337 4 0.999757 0.00106267 0.654228
938 4 0.0778736 0.0817152 0.597529
951 4 0.262335 0.0331434 0.585871
949 2 0.268912 0.0209829 0.606705
950 4 0.275488 0.00882245 0.627539
3008 4 0.492817 0.034461 0.594397
809 4 0.487515 0.0211742 0.608901
808 2 0.477988 0.0358469 0.626765
810 4 0.468461 0.0505195 0.644629
45 3 0.4645 0.0730149 0.641621
41 1 0.458201 0.0672896 0.662744
43 3 0.435639 0.0717826 0.665769
42 3 0.461788 0.0447856 0.665883
1083 4 0.0645995 0.0812453 0.61183
1126 2 0.0215764 0.0889521 0.600814
1128 4 0.998786 0.0938946 0.591795
937 2 0.0962258 0.095085 0.587059
1221 4 0.172137 0.157521 0.587611
1219 2 0.194773 0.159573 0.598031
1211 4 0.239808 0.147615 0.665343
1210 2 0.23107 0.159802 0.645335
1220 4 0.217409 0.161625 0.608452
1194 4 0.315504 0.158271 0.653343
1192 2 0.325208 0.147941 0.632745
887 4 0.304896 0.168916 0.663943
886 2 0.280981 0.161878 0.665865
1193 4 0.334912 0.137611 0.612146
3424 2 0.496888 0.0976349 0.649926
3425 4 0.476462 0.0851968 0.657223
878 4 0.0345209 0.200769 0.585148
1244 4 0.0403158 0.210877 0.600396
1243 2 0.0426792 0.234845 0.607113
1212 4 0.222333 0.171988 0.625327
3123 4 0.48559 0.233943 0.64842
983 4 0.0402463 0.274041 0.601544
1245 4 0.0450425 0.258813 0.61383
982 2 0.0216834 0.287944 0.592201
3263 4 0.030686 0.319653 0.62504
948 4 0.161882 0.293803 0.582469
1135 2 0.162849 0.321538 0.615142
822 4 0.162526 0.329412 0.653956
1136 4 0.157462 0.30742 0.595221
820 2 0.154075 0.311679 0.669426
796 2 0.235233 0.266661 0.585716
797 4 0.256902 0.275423 0.594597
791 4 0.259719 0.294031 0.600957
790 2 0.26382 0.317333 0.592871
872 4 0.335452 0.280007 0.598199
871 2 0.354683 0.295769 0.60083
813 4 0.369577 0.325551 0.615898
873 4 0.373913 0.311531 0.603461
953 4 0.475929 0.327476 0.616313
954 4 0.464564 0.281991 0.598916
952 2 0.470247 0.304734 0.607614
906 4 0.493141 0.336556 0.623614
3262 2 0.0414348 0.342049 0.627877
1041 4 0.0671526 0.37027 0.64101
3264 4 0.0521836 0.364445 0.630715
3240 4 0.0506735 0.378973 0.645491
3238 2 0.0300541 0.39311 0.645077
3239 4 0.00943471 0.407247 0.644664
1039 2 0.0886843 0.380733 0.648228
1137 4 0.168236 0.335656 0.635063
1040 4 0.110216 0.391195 0.655446
993 4 0.121114 0.374973 0.650735
991 2 0.141672 0.361121 0.647467
992 4 0.16223 0.347269 0.6442
1064 4 0.175455 0.342118 0.65142
897 4 0.177241 0.352432 0.633446
896 4 0.203146 0.383734 0.604295
895 2 0.190194 0.368083 0.618871
1172 4 0.21731 0.391639 0.591048
1191 4 0.213377 0.373014 0.59228
1171 2 0.217314 0.415719 0.597783
1239 4 0.306004 0.38888 0.594289
1237 2 0.287294 0.374038 0.586885
930 4 0.319752 0.386152 0.578949
811 2 0.3775 0.346907 0.626208
1204 2 0.374092 0.394869 0.667769
1206 4 0.374561 0.379585 0.647986
927 4 0.376653 0.384933 0.629866
812 4 0.385422 0.368264 0.636519
925 2 0.392036 0.398807 0.615864
926 4 0.40742 0.41268 0.601862
540 4 0.112958 0.476195 0.585836
1160 4 0.130534 0.4815 0.585252
2244 4 0.113194 0.494858 0.584267
1186 2 0.206282 0.479819 0.594643
1173 4 0.217319 0.439798 0.604517
1187 4 0.21999 0.459607 0.600004
1188 4 0.192573 0.50003 0.589283
1909 2 0.444043 0.4953 0.585483
1911 4 0.457246 0.47946 0.599623
1002 4 0.424749 0.420965 0.595504
1001 4 0.45401 0.461249 0.600159
1000 2 0.43938 0.441107 0.597831
1269 4 0.459049 0.471636 0.616766
1267 2 0.460773 0.479934 0.640289
1268 4 0.462497 0.488231 0.663813
1076 4 0.0657743 0.0499426 0.672201
1075 2 0.061327 0.0662152 0.690657
945 4 0.00373363 0.0170093 0.664028
864 4 0.0522968 0.0778758 0.726858
1077 4 0.0568797 0.0824877 0.709112
862 2 0.0359595 0.0744456 0.745473
824 4 0.172419 7.68439e-05 0.673436
825 4 0.178237 0.0496663 0.670651
823 2 0.175328 0.0248716 0.672043
1283 4 0.174691 0.0631945 0.684819
1149 4 0.221161 0.0561863 0.723573
1147 2 0.239647 0.0688851 0.712519
1148 4 0.258133 0.0815839 0.701465
1004 4 0.331345 0.0616112 0.728977
1003 2 0.331469 0.0851903 0.720659
1163 4 0.473467 0.0581348 0.681435
1162 2 0.486437 0.0478389 0.700169
44 3 0.470782 0.0791236 0.678239
1164 4 0.499406 0.0375429 0.718903
851 4 0.0617033 0.101417 0.709638
850 2 0.0578539 0.123435 0.698434
852 4 0.0540045 0.145454 0.68723
1107 4 0.0695622 0.0866146 0.719557
1105 2 0.0886759 0.0938851 0.733944
1282 2 0.174676 0.0881953 0.685194
1284 4 0.174661 0.113196 0.68557
909 4 0.18342 0.12915 0.694977
907 2 0.206378 0.135893 0.687723
908 4 0.229337 0.142635 0.680469
1227 4 0.248848 0.137742 0.67601
888 4 0.257065 0.154839 0.667786
1226 4 0.264747 0.100811 0.705743
1225 2 0.256798 0.119276 0.690876
829 2 0.328495 0.143405 0.68863
830 4 0.322238 0.159641 0.670673
1005 4 0.331593 0.10877 0.712341
831 4 0.334753 0.127169 0.706586
1178 4 0.00264602 0.245549 0.72158
1130 4 0.154708 0.250403 0.741848
977 4 0.303081 0.22212 0.741696
1298 4 0.290119 0.213964 0.752732
976 2 0.326177 0.229603 0.735716
978 4 0.349272 0.237086 0.729735
1025 4 0.409733 0.190732 0.680337
1020 4 0.366545 0.239745 0.718683
1018 2 0.378225 0.246252 0.739812
1146 4 0.494595 0.172919 0.718567
1024 2 0.425374 0.194094 0.699552
1142 4 0.435962 0.183451 0.730338
1144 2 0.473646 0.18422 0.726223
1262 4 0.449402 0.213331 0.725548
1026 4 0.441016 0.197456 0.718766
1261 2 0.441176 0.234627 0.735746
1145 4 0.452698 0.195522 0.733879
1177 2 0.0167684 0.263267 0.711006
1179 4 0.0308908 0.280984 0.700432
1072 2 0.113098 0.25911 0.749195
1208 4 0.144967 0.258005 0.72468
1074 4 0.137059 0.257788 0.742173
1207 2 0.148245 0.266689 0.701463
821 4 0.145625 0.293947 0.684896
1209 4 0.151523 0.275373 0.678246
805 2 0.226836 0.330751 0.710244
806 4 0.244961 0.314827 0.716809
893 4 0.00268103 0.339019 0.734397
892 2 0.0227075 0.353741 0.737111
1279 2 0.0548258 0.405197 0.7477
1280 4 0.0555013 0.380242 0.746292
816 4 0.0592488 0.365096 0.731562
894 4 0.0427339 0.368464 0.739825
814 2 0.0820776 0.356112 0.726734
815 4 0.104907 0.347128 0.721907
942 4 0.119713 0.350133 0.736078
940 2 0.14 0.364355 0.739444
941 4 0.160287 0.378577 0.742811
1063 2 0.191556 0.349588 0.669031
1065 4 0.207657 0.357059 0.686641
807 4 0.208711 0.346674 0.703679
1028 4 0.221307 0.3708 0.692687
1066 2 0.192881 0.37504 0.721612
1068 4 0.207497 0.365756 0.703575
1027 2 0.231814 0.391095 0.682542
1067 4 0.178265 0.384325 0.739649
1029 4 0.24232 0.411389 0.672397
1140 4 0.262199 0.413276 0.674851
1205 4 0.373623 0.410152 0.687552
1982 4 0.066982 0.492457 0.734332
1281 4 0.0541503 0.430151 0.749107
1983 4 0.0684692 0.444005 0.746619
1981 2 0.0677256 0.468231 0.740475
1176 4 0.188328 0.486205 0.730106
1175 4 0.17048 0.466524 0.68774
1174 2 0.179404 0.476364 0.708923
2016 4 0.171698 0.486253 0.74214
2026 2 0.271052 0.497553 0.693021
1138 2 0.272458 0.435228 0.681017
1139 4 0.282717 0.457181 0.687183
1987 2 0.278888 0.45825 0.730563
1229 4 0.295113 0.468415 0.696413
1989 4 0.28887 0.473844 0.713759
2028 4 0.279066 0.47405 0.695954
1228 2 0.319315 0.47146 0.690923
1230 4 0.343518 0.474504 0.685432
1101 4 0.446664 0.489334 0.67674
1099 2 0.439941 0.474418 0.695648
1100 4 0.433218 0.459502 0.714556
2168 4 0.464106 0.494884 0.681715
2989 2 0.0168739 0.0397752 0.790212
2990 4 0.0137401 0.0582553 0.773664
2991 4 0.0200077 0.0212951 0.80676
3083 4 0.000210235 0.070999 0.765892
863 4 0.0196223 0.0710153 0.764087
833 4 0.0110679 0.0758149 0.781021
2049 4 0.0971593 0.0204751 0.785343
1202 4 0.108936 0.035313 0.780911
1201 2 0.117717 0.0587201 0.780481
2047 2 0.103342 0.00189815 0.769792
1085 4 0.326021 0.0692965 0.805594
1084 2 0.304872 0.0808535 0.798935
1257 4 0.266724 0.0795037 0.792348
1050 4 0.365194 0.0127832 0.772254
960 4 0.339672 0.0727414 0.820136
819 4 0.343487 0.0624345 0.804095
817 2 0.348827 0.0380248 0.803189
818 4 0.354168 0.013615 0.802283
974 4 0.362569 0.00148915 0.789
2322 4 0.496477 0.0477073 0.783405
845 4 0.48788 0.0659073 0.786691
844 2 0.491512 0.0722207 0.81061
1112 4 0.492406 0.0805462 0.772963
832 2 0.0129366 0.096895 0.794337
834 4 0.0148053 0.117975 0.807653
1125 4 0.0259995 0.131032 0.817361
1106 4 0.10779 0.101156 0.748331
1203 4 0.126497 0.0821272 0.780052
32 3 0.135897 0.0930575 0.794942
911 4 0.121983 0.111165 0.802134
34 3 0.123252 0.0982821 0.759936
31 1 0.134267 0.108259 0.777755
35 3 0.122581 0.126449 0.784912
33 3 0.155632 0.11461 0.771307
910 2 0.110864 0.105588 0.823824