ITEM: TIMESTEP
1520000
ITEM: NUMBER OF ATOMS
4590
ITEM: BOX BOUNDS pp pp pp
-9.9985700000000008e+00 9.9985700000000008e+00
-9.9985700000000008e+00 9.9985700000000008e+00
-9.9985700000000008e+00 9.9985700000000008e+00
ITEM: ATOMS id type xs ys zs
1666 2 0.0662226 0.060739 0.0681803
1668 4 0.0688641 0.0558032 0.0438114
1474 2 0.287425 0.00470343 0.0840844
747 4 0.46731 0.0685646 0.011206
2974 2 0.472485 0.0273144 0.0253264
2976 4 0.477471 0.00495983 0.0353565
2975 4 0.4675 0.0496689 0.0152964
986 4 0.453038 0.0564755 0.00431578
2264 4 0.261606 0.169371 0.0154252
297 4 0.340936 0.0782873 0.0456668
295 2 0.352946 0.0892278 0.0266601
296 4 0.364955 0.100168 0.00765349
557 4 0.381273 0.109552 0.00367954
556 2 0.403969 0.106388 0.0136825
771 4 0.413089 0.148493 0.018015
827 4 0.363258 0.118744 0.00585091
745 2 0.455714 0.0884228 0.0210226
558 4 0.426664 0.103223 0.0236855
746 4 0.444118 0.108281 0.0308391
566 4 0.149901 0.195955 0.0244086
567 4 0.187891 0.184023 0.994158
565 2 0.168896 0.189989 0.00928329
1133 4 0.20884 0.183586 0.993457
769 2 0.402644 0.165619 0.032941
360 4 0.322723 0.186728 0.0432557
358 2 0.347639 0.184777 0.043999
770 4 0.392199 0.182745 0.0478669
359 4 0.372555 0.182826 0.0447424
664 2 0.387567 0.216757 0.0644381
665 4 0.382131 0.199318 0.0473648
666 4 0.393002 0.234196 0.0815115
555 4 0.0844521 0.273235 0.0461687
553 2 0.0876771 0.276765 0.0216265
287 4 0.163351 0.310506 0.0313984
292 2 0.155308 0.281029 0.00522658
507 4 0.162251 0.298559 0.0460503
293 4 0.157226 0.292889 0.0271546
505 2 0.178481 0.296351 0.0649415
481 2 0.235435 0.296466 0.0737675
506 4 0.194711 0.294143 0.0838328
483 4 0.213476 0.301511 0.0846095
573 4 0.253399 0.274507 0.0514913
482 4 0.257393 0.291422 0.0629254
571 2 0.263674 0.26866 0.0294592
322 2 0.402539 0.274292 0.0640916
1069 2 0.391256 0.298717 0.0161334
324 4 0.404744 0.28004 0.0398578
1070 4 0.408219 0.280852 0.0204082
741 4 0.354901 0.331222 0.0345944
957 4 0.355801 0.316982 0.020346
1071 4 0.374293 0.316582 0.0118586
739 2 0.366498 0.332452 0.0567117
955 2 0.340428 0.313236 0.000985014
671 4 0.451075 0.310219 0.050165
280 2 0.443414 0.287956 0.0249085
281 4 0.46162 0.300453 0.0366373
282 4 0.425208 0.27546 0.0131797
670 2 0.444417 0.317791 0.0730455
286 2 0.162672 0.335183 0.0274278
288 4 0.161993 0.35986 0.0234572
454 2 0.15256 0.375567 0.0638662
455 4 0.132077 0.362604 0.0577325
456 4 0.173042 0.38853 0.0699998
250 2 0.278133 0.395657 0.0491105
251 4 0.282851 0.385582 0.0267182
1290 4 0.282911 0.393023 0.00860012
252 4 0.273415 0.405732 0.0715028
740 4 0.378095 0.333681 0.078829
495 4 0.402269 0.363478 0.0672957
493 2 0.391631 0.385021 0.0603769
14 3 0.395507 0.348378 0.0752512
330 4 0.0213326 0.439778 0.0377822
245 4 0.219484 0.432482 0.0441387
626 4 0.199759 0.433754 0.0422292
625 2 0.183676 0.444546 0.0580418
244 2 0.236814 0.43338 0.0261373
627 4 0.167594 0.455339 0.0738544
246 4 0.254144 0.434277 0.00813591
609 4 0.285229 0.419674 0.0786575
494 4 0.380992 0.406565 0.0534581
1672 2 0.38955 0.467669 0.0535872
660 4 0.375591 0.41951 0.0684583
1673 4 0.36837 0.470594 0.0665488
854 4 0.425904 0.447495 0.017724
1674 4 0.410731 0.464745 0.0406257
563 4 0.476779 0.44573 0.0413181
228 4 0.495836 0.446543 0.049566
562 2 0.452218 0.449791 0.038989
564 4 0.427657 0.453853 0.03666
18 3 0.0701446 0.0551358 0.144537
16 1 0.0647498 0.0522199 0.166916
17 3 0.0448678 0.0407378 0.168337
1667 4 0.0635812 0.0656748 0.0925491
701 4 0.0764012 0.0666823 0.106376
1475 4 0.277083 0.0272697 0.0870844
492 4 0.278044 0.0434399 0.0984959
490 2 0.284393 0.0675648 0.100189
485 4 0.404425 0.99237 0.106508
2723 4 0.419506 0.0305328 0.144335
2722 2 0.442751 0.0382529 0.149361
2724 4 0.465996 0.0459729 0.154387
1760 4 0.476242 0.0331186 0.144655
1759 2 0.489129 0.023209 0.125657
700 2 0.0785317 0.087168 0.120553
476 4 0.0894897 0.126415 0.136393
702 4 0.0806622 0.107654 0.134729
475 2 0.0960466 0.132955 0.159619
491 4 0.290742 0.0916896 0.101881
628 2 0.370632 0.13483 0.148433
312 4 0.373392 0.103906 0.158618
629 4 0.387425 0.116757 0.152501
630 4 0.353838 0.152902 0.144366
738 4 0.240375 0.206993 0.0864956
736 2 0.246666 0.203707 0.11047
737 4 0.252958 0.200421 0.134445
461 4 0.309195 0.243417 0.112105
460 2 0.331128 0.236651 0.122021
354 4 0.289242 0.23677 0.114614
352 2 0.280681 0.245798 0.136302
353 4 0.272119 0.254826 0.15799
462 4 0.353061 0.229884 0.131937
254 4 0.360965 0.166698 0.132883
255 4 0.365407 0.216399 0.136174
253 2 0.363186 0.191549 0.134529
765 4 0.363817 0.229415 0.150257
624 4 0.371159 0.235103 0.133682
622 2 0.385172 0.241763 0.114075
623 4 0.399185 0.248423 0.0944675
763 2 0.355456 0.237828 0.172269
648 4 0.0790767 0.316183 0.169591
339 4 0.0761515 0.230063 0.132476
337 2 0.0729495 0.244669 0.152516
551 4 0.098225 0.3303 0.101619
537 4 0.185487 0.301504 0.100454
302 4 0.324453 0.305702 0.141021
755 4 0.259714 0.269206 0.157194
387 4 0.328468 0.3119 0.122912
385 2 0.347081 0.317847 0.107312
323 4 0.400335 0.268543 0.0883253
528 4 0.476769 0.256403 0.0970132
518 4 0.493605 0.266893 0.0983411
526 2 0.461675 0.269709 0.111856
527 4 0.446581 0.283015 0.126699
672 4 0.437758 0.325362 0.095926
552 4 0.133374 0.349153 0.071456
550 2 0.1158 0.339726 0.0865376
535 2 0.194911 0.32244 0.110357
536 4 0.204334 0.343375 0.12026
291 4 0.210181 0.411766 0.141115
289 2 0.234637 0.416232 0.143782
15 3 0.380486 0.324077 0.0997765
386 4 0.365694 0.323795 0.0917116
11 1 0.397172 0.339228 0.0965093
13 3 0.395867 0.356009 0.112481
12 3 0.417504 0.328651 0.0984805
595 2 0.483218 0.390432 0.138088
596 4 0.494987 0.398377 0.117507
1791 4 0.0447588 0.494566 0.143384
1466 4 0.047909 0.482236 0.159802
1789 2 0.0631778 0.505826 0.130769
417 4 0.148223 0.433852 0.122768
416 4 0.194715 0.426182 0.139514
1440 4 0.168489 0.485093 0.0972052
415 2 0.171469 0.430017 0.131141
1438 2 0.18804 0.492732 0.110791
607 2 0.303591 0.428458 0.093179
290 4 0.259094 0.420698 0.14645
608 4 0.321953 0.437241 0.1077
768 4 0.276687 0.431109 0.14967
767 4 0.267371 0.480237 0.150233
766 2 0.272029 0.455673 0.149952
658 2 0.358119 0.428715 0.0837944
659 4 0.340647 0.437919 0.0991306
1559 4 0.359947 0.507321 0.09265
524 4 0.358269 0.513371 0.112076
19 3 0.0622442 0.0728611 0.177215
2480 4 0.0322865 0.0264997 0.178516
1422 4 0.0400767 0.0103635 0.187089
2479 2 0.0138786 0.0417339 0.185881
20 3 0.0810812 0.0402604 0.177351
578 4 0.091774 0.0545104 0.187452
675 4 0.108507 0.00511157 0.247475
674 4 0.149472 0.017774 0.221742
673 2 0.128989 0.0114428 0.234608
689 4 0.159895 0.00897436 0.207002
577 2 0.112248 0.0627161 0.199227
579 4 0.132723 0.0709218 0.211001
1506 4 0.253407 0.997775 0.174641
1504 2 0.231146 0.987125 0.178664
654 4 0.264322 0.0133495 0.180955
652 2 0.275062 0.0127848 0.203527
653 4 0.285802 0.01222 0.226099
25 3 0.3331 0.0482334 0.248476
311 4 0.385652 0.0671809 0.190267
758 4 0.3761 0.0516265 0.19688
759 4 0.350495 0.0596031 0.239088
757 2 0.363297 0.0556148 0.217984
2744 4 0.475343 0.0294921 0.162801
744 4 0.503097 0.0381581 0.222938
2745 4 0.48991 0.0284282 0.210627
2743 2 0.482627 0.0289601 0.186714
742 2 0.50254 0.0592319 0.236383
511 2 0.0203921 0.14696 0.227987
513 4 0.0413287 0.154423 0.239439
393 4 0.0546029 0.163868 0.228267
381 4 0.994672 0.122172 0.209659
450 4 0.149887 0.0751819 0.200081
448 2 0.162209 0.0966522 0.196563
477 4 0.102603 0.139495 0.182844
449 4 0.174531 0.118123 0.193045
237 4 0.237908 0.135203 0.181347
691 2 0.222946 0.122286 0.249124
693 4 0.214483 0.132575 0.227965
236 4 0.188829 0.131565 0.190218
235 2 0.213368 0.133384 0.185782
582 4 0.255352 0.139728 0.173033
581 4 0.290511 0.104207 0.174711
580 2 0.272932 0.121967 0.173872
27 3 0.322693 0.166884 0.235151
26 1 0.327179 0.159722 0.256545
310 2 0.379522 0.0855433 0.174443
521 4 0.488605 0.156428 0.226765
332 4 0.479174 0.13919 0.228406
762 4 0.469873 0.156503 0.225189
760 2 0.452501 0.156464 0.243172
394 2 0.0199978 0.235814 0.23721
395 4 0.0429572 0.228693 0.23033
277 2 0.244214 0.234962 0.177357
279 4 0.227949 0.217423 0.184635
284 4 0.280858 0.254559 0.174963
283 2 0.303365 0.25156 0.185435
285 4 0.325871 0.24856 0.195906
278 4 0.26048 0.252502 0.170078
764 4 0.347096 0.246242 0.19428
338 4 0.0697475 0.259276 0.172556
363 4 0.0624159 0.261843 0.190944
749 4 0.0849534 0.299771 0.223103
748 2 0.0872597 0.320065 0.237526
361 2 0.0799626 0.276107 0.201614
370 2 0.137178 0.299875 0.215705
372 4 0.11655 0.288535 0.207273
362 4 0.0975093 0.290371 0.212283
371 4 0.157806 0.311214 0.224136
301 2 0.319617 0.308036 0.165441
754 2 0.263651 0.289067 0.171864
756 4 0.267587 0.308928 0.186535
612 4 0.266439 0.300166 0.20465
610 2 0.265717 0.305991 0.228955
307 2 0.318304 0.290591 0.219636
308 4 0.329931 0.301302 0.200264
303 4 0.31478 0.310369 0.189861
309 4 0.306677 0.279881 0.239008
611 4 0.264994 0.311815 0.25326
729 4 0.308469 0.328087 0.195556
646 2 0.0642512 0.336305 0.168897
647 4 0.0494257 0.356427 0.168202
750 4 0.089566 0.340358 0.251948
734 4 0.163025 0.340199 0.246764
299 4 0.150387 0.35355 0.254465
298 2 0.125493 0.353617 0.256808
727 2 0.305194 0.350777 0.205536
728 4 0.301919 0.373467 0.215516
445 2 0.399944 0.386484 0.236795
446 4 0.379815 0.393077 0.250082
447 4 0.420073 0.379891 0.223508
644 4 0.433657 0.376361 0.209314
597 4 0.471449 0.382487 0.158668
643 2 0.452371 0.381938 0.193697
645 4 0.471084 0.387515 0.178081
1465 2 0.0438717 0.472328 0.182401
1467 4 0.0398344 0.462421 0.205
1756 2 0.105139 0.467833 0.247806
1757 4 0.118053 0.448274 0.239097
231 4 0.451918 0.478218 0.236089
229 2 0.453431 0.496432 0.219026
232 2 0.0282252 0.0412384 0.294887
233 4 0.0528783 0.0427603 0.291003
1404 4 0.0606121 0.0258771 0.29436
1402 2 0.0761706 0.0158578 0.277545
316 2 0.0770698 0.0556737 0.317786
317 4 0.0664691 0.0362752 0.306102
428 4 0.0639811 0.0197775 0.314894
427 2 0.0516301 0.00892988 0.333735
1403 4 0.091729 0.00583843 0.260731
318 4 0.0876705 0.0750722 0.329469
24 3 0.320704 0.0792326 0.265885
22 3 0.356366 0.0768376 0.254258
21 1 0.338717 0.0649063 0.262937
23 3 0.34508 0.0558781 0.283343
699 4 0.349017 0.0713004 0.352612
351 4 0.400562 0.0591804 0.262961
349 2 0.399763 0.0815081 0.274187
479 4 0.446361 0.0285167 0.301354
478 2 0.432537 0.0400186 0.283983
2664 4 0.465321 0.0323506 0.299088
480 4 0.418712 0.0515206 0.266611
1428 4 0.45664 0.0203504 0.312342
258 4 0.437441 0.0247664 0.317908
2662 2 0.488914 0.0344308 0.291074
391 2 0.0705668 0.165126 0.247469
392 4 0.0865307 0.166384 0.266672
692 4 0.231409 0.111997 0.270283
721 2 0.230991 0.12923 0.30153
722 4 0.221422 0.131471 0.324521
723 4 0.240559 0.126989 0.278538
249 4 0.227236 0.118382 0.338521
28 3 0.331632 0.136955 0.256055
632 4 0.384561 0.108423 0.272154
350 4 0.398963 0.103836 0.285412
631 2 0.366895 0.125932 0.269599
707 4 0.35368 0.157428 0.279053
633 4 0.349229 0.143441 0.267043
761 4 0.435129 0.156425 0.261155
546 4 0.133207 0.205996 0.249826
544 2 0.151689 0.215776 0.263536
545 4 0.17017 0.225557 0.277246
402 4 0.187002 0.237199 0.274793
30 3 0.309099 0.16382 0.269773
376 2 0.270801 0.249872 0.323956
706 2 0.360293 0.174926 0.295643
29 3 0.345648 0.171234 0.264592
708 4 0.366906 0.192425 0.312234
444 4 0.00500999 0.292098 0.290215
390 4 0.108269 0.260634 0.324317
400 2 0.192591 0.260046 0.283278
401 4 0.198179 0.282892 0.291762
676 2 0.180652 0.303852 0.313596
345 4 0.204103 0.296945 0.279582
677 4 0.194373 0.301955 0.292781
343 2 0.22649 0.301264 0.269317
735 4 0.186658 0.306887 0.275617
344 4 0.248876 0.305583 0.259052
733 2 0.174842 0.323543 0.26119
496 2 0.298292 0.275434 0.280562
497 4 0.290814 0.266238 0.302577
377 4 0.275705 0.255413 0.300073
498 4 0.305769 0.28463 0.258546
615 4 0.365682 0.342833 0.330623
543 4 0.381575 0.33033 0.328421
365 4 0.0239117 0.360203 0.291224
601 2 0.055295 0.373757 0.312604
603 4 0.0370664 0.375279 0.295558
602 4 0.0735236 0.372236 0.329651
364 2 0.999529 0.364936 0.288346
549 4 0.0802277 0.390918 0.332769
300 4 0.1006 0.353684 0.25915
433 2 0.2975 0.377121 0.305361
435 4 0.273937 0.384598 0.301612
434 4 0.321062 0.369643 0.30911
614 4 0.324864 0.350744 0.302839
613 2 0.345273 0.346789 0.316731
2690 4 0.987057 0.46821 0.295644
2461 2 0.99775 0.496098 0.322762
1758 4 0.0922247 0.487392 0.256514
777 4 0.101685 0.505974 0.281476
775 2 0.0896241 0.496962 0.301438
776 4 0.0775634 0.487949 0.321401
412 2 0.220497 0.491563 0.290979
1435 2 0.237383 0.458966 0.331704
1436 4 0.215034 0.468384 0.325618
413 4 0.211081 0.475561 0.307726
3 3 0.306826 0.458042 0.321483
438 4 0.325536 0.463515 0.33321
437 4 0.369606 0.440019 0.330664
436 2 0.347571 0.451767 0.331937
367 2 0.0621485 0.0128223 0.40989
369 4 0.0413944 0.0218794 0.420493
429 4 0.0392791 0.998082 0.352575
1781 4 0.101884 0.00994949 0.40278
368 4 0.0829026 0.00376531 0.399287
732 4 0.0901844 0.0794442 0.349754
730 2 0.11251 0.0824525 0.360603
731 4 0.134836 0.0854607 0.371451
606 4 0.146463 0.0675729 0.374517
1780 2 0.121333 0.00274911 0.388813
604 2 0.168177 0.0707864 0.362545
1700 4 0.323397 0.0601211 0.355648
1701 4 0.310856 0.0295366 0.393171
1699 2 0.317126 0.0448288 0.374409
425 4 0.322904 0.0333175 0.408617
441 4 0.308777 0.02038 0.409105
697 2 0.367186 0.05414 0.351851
698 4 0.385355 0.0369796 0.35109
424 2 0.346099 0.0293493 0.41707
257 4 0.401343 0.0259766 0.352494
724 2 0.410066 0.0727843 0.413616
256 2 0.419392 0.0253715 0.335201
2584 2 0.00919448 0.120314 0.353751
397 2 0.0610894 0.101323 0.348603
398 4 0.0414109 0.111941 0.359793
2586 4 0.0317652 0.128514 0.360715
458 4 0.0224548 0.143648 0.372149
457 2 0.0322028 0.158472 0.389767
399 4 0.0807679 0.0907055 0.337414
598 2 0.130087 0.146033 0.345564
600 4 0.120529 0.127361 0.331956
605 4 0.189891 0.0739999 0.350572
248 4 0.209429 0.0731645 0.350312
247 2 0.218333 0.0957731 0.344417
683 4 0.225272 0.112202 0.401712
404 4 0.244767 0.128904 0.343956
403 2 0.255795 0.150447 0.350239
682 2 0.247243 0.10942 0.390105
319 2 0.297969 0.134208 0.385504
684 4 0.269214 0.106638 0.378498
321 4 0.310451 0.155635 0.382297
320 4 0.285487 0.112782 0.388712
717 4 0.415177 0.175026 0.34327
725 4 0.409596 0.0866651 0.392825
459 4 0.0419509 0.173296 0.407385
389 4 0.111657 0.226224 0.360444
599 4 0.139645 0.164706 0.359172
686 4 0.1251 0.177324 0.36636
685 2 0.118571 0.189613 0.387134
275 4 0.152394 0.17469 0.348902
472 2 0.229686 0.198638 0.358661
474 4 0.207639 0.210419 0.359238
276 4 0.18779 0.207617 0.361696
274 2 0.170092 0.191153 0.355299
405 4 0.266822 0.17199 0.356522
473 4 0.251732 0.186858 0.358085
378 4 0.265898 0.24433 0.34784
715 2 0.405559 0.187745 0.362529
466 2 0.375273 0.201503 0.410506
716 4 0.39594 0.200464 0.381787
467 4 0.376676 0.204894 0.385773
419 4 0.468377 0.258917 0.344765
269 4 0.486972 0.253079 0.346287
270 4 0.479259 0.219158 0.382211
452 4 0.467664 0.210315 0.395238
268 2 0.483116 0.236118 0.364249
451 2 0.456632 0.211121 0.417662
2800 2 0.00660209 0.304595 0.405322
618 4 0.0600659 0.328866 0.388738
347 4 0.0402413 0.328929 0.38915
388 2 0.109963 0.243429 0.34238
616 2 0.0747194 0.312056 0.377429
617 4 0.0893728 0.295247 0.36612
374 4 0.108858 0.292548 0.363854
373 2 0.130963 0.30164 0.356514
375 4 0.153069 0.310732 0.349173
678 4 0.166931 0.30575 0.334412
509 4 0.235535 0.31831 0.386174
508 2 0.247723 0.329287 0.367302
488 4 0.332387 0.268572 0.423904
510 4 0.259911 0.340264 0.34843
541 2 0.395798 0.310032 0.331723
542 4 0.41002 0.289735 0.335025
418 2 0.446803 0.268547 0.33658
420 4 0.425229 0.278177 0.328394
2802 4 0.00997009 0.32258 0.422363
346 2 0.0330924 0.351277 0.380512
348 4 0.0259435 0.373626 0.371873
668 4 0.312379 0.389879 0.40969
336 4 0.328971 0.378578 0.406224
334 2 0.352187 0.36949 0.40432
335 4 0.375403 0.360402 0.402416
240 4 0.392232 0.364962 0.411612
752 4 0.488726 0.404197 0.39134
561 4 0.487994 0.400902 0.411509
547 2 0.0860455 0.412427 0.344113
407 4 0.0974285 0.443695 0.372141
548 4 0.0918632 0.433936 0.355457
406 2 0.107324 0.45329 0.393002
500 4 0.0923603 0.494233 0.334906
408 4 0.11722 0.462885 0.413863
1437 4 0.259731 0.449549 0.337789
1 1 0.301492 0.472662 0.338693
4 3 0.284074 0.463994 0.351338
2 3 0.319918 0.475268 0.352216
593 4 0.405022 0.462729 0.392063
588 4 0.400849 0.455391 0.409307
592 2 0.416383 0.472369 0.371983
586 2 0.410054 0.436113 0.422301
713 4 0.43721 0.483872 0.335316
751 2 0.494767 0.417866 0.371294
1742 4 0.430694 0.499941 0.344631
714 4 0.482769 0.463307 0.33382
712 2 0.459989 0.47359 0.334568
594 4 0.427744 0.482008 0.351904
719 4 0.0332912 0.0229162 0.437686
718 2 0.0136095 0.00766439 0.439965
341 4 0.198062 0.0287872 0.496377
962 4 0.307365 0.0331584 0.422528
961 2 0.298133 0.0456095 0.442147
963 4 0.288902 0.0580605 0.461767
432 4 0.292123 0.077051 0.469608
430 2 0.311738 0.0786377 0.485031
426 4 0.369293 0.0253811 0.425523
726 4 0.410536 0.0589034 0.434407
642 4 0.501051 0.10962 0.449539
640 2 0.483643 0.127486 0.451258
641 4 0.466235 0.145352 0.452976
471 4 0.00907871 0.206503 0.509848
260 4 0.0532003 0.170893 0.423769
259 2 0.0749158 0.183166 0.422037
687 4 0.112043 0.201902 0.407907
261 4 0.0966314 0.195438 0.420305
1035 4 0.100309 0.213653 0.417676
1033 2 0.101849 0.230064 0.436477
487 2 0.340268 0.251842 0.440732
489 4 0.348149 0.235111 0.457559
468 4 0.373869 0.198112 0.435239
514 2 0.414581 0.195254 0.454188
411 4 0.344962 0.222783 0.473257
516 4 0.393303 0.195756 0.467309
409 2 0.362543 0.207751 0.463762
410 4 0.380123 0.192719 0.454266
575 4 0.385741 0.193021 0.484271
266 4 0.347565 0.238636 0.48733
515 4 0.435859 0.194753 0.441066
453 4 0.445601 0.211928 0.440086
585 4 0.507079 0.209222 0.464271
583 2 0.499057 0.231037 0.473487
584 4 0.491035 0.252852 0.482702
2847 4 0.0146655 0.317561 0.440743
695 4 0.0328748 0.255925 0.482219
694 2 0.0576047 0.259043 0.480247
1034 4 0.103389 0.246475 0.455278
1258 2 0.107008 0.285827 0.467129
1259 4 0.117285 0.308423 0.470131
9 3 0.123674 0.323598 0.482305
1260 4 0.0967314 0.263232 0.464127
696 4 0.0823346 0.26216 0.478275
265 2 0.357739 0.260213 0.494819
2456 4 0.49628 0.265036 0.497961
2845 2 0.998996 0.333228 0.452327
326 4 0.0459501 0.363069 0.465473
325 2 0.0708553 0.365237 0.465021
10 3 0.131637 0.347556 0.454371
6 1 0.125709 0.345918 0.476299
7 3 0.105453 0.356349 0.479471
327 4 0.0957605 0.367406 0.464569
709 2 0.152935 0.399329 0.47956
8 3 0.141646 0.35628 0.489604
503 4 0.226144 0.364371 0.465984
504 4 0.189572 0.393085 0.484388
502 2 0.207858 0.378728 0.475186
710 4 0.172099 0.38499 0.486793
667 2 0.309063 0.408131 0.426455
239 4 0.424854 0.398734 0.428817
238 2 0.408543 0.381848 0.420214
882 4 0.386068 0.377432 0.499642
3308 4 0.493794 0.393718 0.509383
680 4 0.00503142 0.451799 0.44851
711 4 0.13377 0.413668 0.472328
384 4 0.117812 0.417756 0.460826
569 4 0.129843 0.469648 0.42909
382 2 0.121975 0.434855 0.443065
568 2 0.147146 0.486249 0.436174
383 4 0.126138 0.451954 0.425303
1543 2 0.206659 0.496699 0.442176
1544 4 0.23143 0.498104 0.43907
772 2 0.302584 0.429691 0.476663
774 4 0.317438 0.433446 0.456903
634 2 0.295511 0.464741 0.432913
635 4 0.306415 0.44594 0.445274
636 4 0.284607 0.483542 0.420552
669 4 0.305747 0.426383 0.443219
773 4 0.28773 0.425936 0.496422
587 4 0.419259 0.416836 0.435295
663 4 0.46513 0.470572 0.448208
661 2 0.477476 0.484611 0.464811
662 4 0.489822 0.498649 0.481414
342 4 0.2115 0.0696772 0.521836
340 2 0.204781 0.0492322 0.509107
2430 4 0.182342 0.0156812 0.497393
1152 4 0.201714 0.0836442 0.531119
1217 4 0.398981 0.0741736 0.502228
842 4 0.389225 0.0904657 0.508987
843 4 0.339461 0.0927462 0.513362
841 2 0.364343 0.0916059 0.511174
1216 2 0.418036 0.0580956 0.504126
3007 2 0.494283 0.0553964 0.578111
1218 4 0.43709 0.0420176 0.506024
3008 4 0.485118 0.0490802 0.6005
1058 4 0.118068 0.111917 0.524688
1057 2 0.114029 0.115571 0.549091
1059 4 0.109991 0.119224 0.573495
1150 2 0.21738 0.0867609 0.550356
1151 4 0.233045 0.0898775 0.569593
1180 2 0.228984 0.152113 0.562476
1182 4 0.248178 0.160317 0.548712
431 4 0.331354 0.0802243 0.500455
900 4 0.256842 0.175903 0.555008
1199 4 0.0412216 0.218061 0.565589
1198 2 0.0165227 0.221485 0.56374
878 4 0.0526794 0.230895 0.574771
1244 4 0.0439583 0.243327 0.587232
470 4 0.0354839 0.164378 0.515233
469 2 0.0222813 0.185441 0.51254
1181 4 0.209789 0.143909 0.57624
796 2 0.251626 0.259643 0.571087
858 4 0.216525 0.24266 0.48617
798 4 0.227281 0.261242 0.565616
856 2 0.220971 0.251074 0.509292
947 4 0.215005 0.262234 0.549333
898 2 0.271556 0.189475 0.540026
650 4 0.273722 0.210588 0.512913
899 4 0.28627 0.203048 0.525044
649 2 0.278846 0.234973 0.510847
797 4 0.275971 0.258044 0.576557
576 4 0.398243 0.159828 0.519522
574 2 0.391992 0.176424 0.501897
1243 2 0.0426467 0.268259 0.585881
857 4 0.225416 0.259488 0.532414
946 2 0.198034 0.267569 0.566902
651 4 0.283971 0.259359 0.50878
791 4 0.2946 0.256672 0.585167
1237 2 0.323309 0.332599 0.588237
872 4 0.351654 0.27329 0.549958
871 2 0.368691 0.28531 0.563759
873 4 0.385727 0.297329 0.57756
813 4 0.397061 0.310364 0.585
267 4 0.367914 0.281791 0.502308
2457 4 0.491768 0.314838 0.497617
2455 2 0.494024 0.289937 0.497789
1010 4 0.488649 0.326366 0.515882
984 4 0.0134116 0.342518 0.560979
1189 2 0.231792 0.370196 0.574057
896 4 0.204183 0.374376 0.599803
1190 4 0.245061 0.356687 0.557728
803 4 0.262244 0.361188 0.548122
804 4 0.283596 0.388787 0.512301
802 2 0.27292 0.374987 0.530212
930 4 0.333439 0.373162 0.577553
928 2 0.333871 0.385497 0.555808
1239 4 0.334427 0.354105 0.581985
811 2 0.405915 0.33211 0.576403
929 4 0.334302 0.397833 0.534064
881 4 0.34571 0.401504 0.516745
880 2 0.365889 0.389468 0.508194
812 4 0.41477 0.353855 0.567806
1011 4 0.489478 0.376231 0.519554
926 4 0.46329 0.399666 0.586156
1009 2 0.489063 0.351298 0.517718
538 2 0.0905821 0.45958 0.573111
540 4 0.0910681 0.483901 0.567329
1160 4 0.104667 0.494981 0.573426
1159 2 0.129448 0.496539 0.576371
2244 4 0.0965812 0.503053 0.558848
1951 2 0.377104 0.494016 0.557425
1952 4 0.355785 0.48395 0.565753
1910 4 0.413412 0.503503 0.561503
1909 2 0.429891 0.491391 0.575888
2114 4 0.00309216 0.014589 0.62762
1082 4 0.0598816 0.0641372 0.657309
1081 2 0.0626872 0.0815839 0.639619
823 2 0.176752 0.0289737 0.655919
824 4 0.191925 0.0104567 0.648701
1030 2 0.264012 0.0788708 0.586078
1031 4 0.285019 0.0653686 0.584823
951 4 0.299479 0.0515834 0.590794
949 2 0.306026 0.0323956 0.605428
950 4 0.312574 0.0132077 0.620061
809 4 0.482181 0.0332285 0.612607
808 2 0.472766 0.0440627 0.63308
810 4 0.46335 0.0548969 0.653553
42 3 0.463128 0.0498477 0.677548
41 1 0.455072 0.0707395 0.672276
1128 4 0.00449219 0.110434 0.594779
1083 4 0.0654928 0.0990305 0.621929
1126 2 0.0288005 0.109249 0.600513
1127 4 0.0531088 0.108064 0.606247
938 4 0.0851097 0.0991859 0.627141
1155 4 0.123108 0.130497 0.582762
1271 4 0.10918 0.144645 0.587085
939 4 0.10589 0.126161 0.590518
937 2 0.0955001 0.112674 0.608829
1153 2 0.146598 0.131267 0.591292
1032 4 0.243005 0.0923729 0.587334
1221 4 0.171058 0.150972 0.603578
1154 4 0.170089 0.132036 0.599823
886 2 0.29918 0.156971 0.645208
887 4 0.323236 0.156564 0.652013
1194 4 0.342046 0.158733 0.646669
888 4 0.275124 0.157378 0.638402
1192 2 0.366431 0.153209 0.646792
1193 4 0.390816 0.147684 0.646915
45 3 0.456671 0.0739407 0.649786
3424 2 0.481752 0.109093 0.650445
3425 4 0.468443 0.0907656 0.661037
877 2 0.0758011 0.221902 0.577882
879 4 0.0989228 0.212908 0.580993
1272 4 0.0991236 0.193337 0.581733
1270 2 0.104152 0.168991 0.584409
1212 4 0.209796 0.17767 0.650041
1219 2 0.181717 0.164964 0.621348
1220 4 0.192376 0.178957 0.639118
1210 2 0.234051 0.172701 0.646546
1211 4 0.258305 0.167732 0.643051
982 2 0.0182427 0.32181 0.574132
983 4 0.0230737 0.301101 0.587285
1245 4 0.041335 0.293192 0.584529
1136 4 0.176317 0.284283 0.602407
1135 2 0.166816 0.307173 0.599095
1137 4 0.157316 0.330063 0.595784
948 4 0.181062 0.272905 0.584472
1065 4 0.209362 0.331989 0.6633
790 2 0.307879 0.277795 0.583532
1238 4 0.31219 0.311094 0.594489
792 4 0.321157 0.298918 0.581897
906 4 0.490448 0.309207 0.584595
953 4 0.479677 0.306634 0.600994
952 2 0.45598 0.29959 0.597256
954 4 0.432282 0.292545 0.593518
3123 4 0.475481 0.271357 0.663781
1039 2 0.0719994 0.394834 0.621049
1041 4 0.0522171 0.402657 0.634188
3264 4 0.0355883 0.397912 0.645617
3262 2 0.0365681 0.379863 0.662893
1040 4 0.0917816 0.387011 0.607909
993 4 0.111323 0.380031 0.604897
897 4 0.165856 0.343033 0.606827
991 2 0.12909 0.36244 0.605177
992 4 0.146857 0.344849 0.605456
895 2 0.18502 0.358705 0.603315
1172 4 0.213472 0.40197 0.595305
1191 4 0.218524 0.383705 0.590386
1171 2 0.204306 0.421647 0.607715
1206 4 0.389673 0.388074 0.623002
1204 2 0.406768 0.405998 0.626421
927 4 0.430683 0.365296 0.57015
925 2 0.446986 0.382481 0.578153
1002 4 0.455485 0.415959 0.575113
3240 4 0.0316696 0.417978 0.649535
539 4 0.0900961 0.435259 0.578893
3238 2 0.00961731 0.429291 0.652836
1161 4 0.154228 0.498097 0.579316
1188 4 0.173772 0.49347 0.581977
1186 2 0.178316 0.474766 0.597935
1173 4 0.19514 0.441324 0.620124
1187 4 0.18286 0.456062 0.613894
1139 4 0.235047 0.472317 0.68817
891 4 0.321795 0.452729 0.605289
890 4 0.336195 0.48653 0.571365
889 2 0.328995 0.469629 0.588327
1230 4 0.352295 0.40471 0.666919
1205 4 0.423862 0.423921 0.629841
1911 4 0.44637 0.479279 0.590273
1000 2 0.454023 0.438885 0.584985
1001 4 0.452561 0.46181 0.594858
1269 4 0.461834 0.4796 0.600597
1267 2 0.465637 0.49453 0.62029
945 4 0.0434112 0.998897 0.6787
4337 4 0.0141562 0.994737 0.677042
943 2 0.0522727 0.0219528 0.682586
944 4 0.0611341 0.0450083 0.686471
1076 4 0.0540931 0.0610129 0.676017
1075 2 0.0591468 0.0758898 0.695468
1283 4 0.149471 0.0603813 0.672976
825 4 0.16158 0.0474907 0.663136
1147 2 0.253486 0.0577704 0.70801
1148 4 0.236776 0.0706232 0.694566
1226 4 0.241498 0.0890808 0.68967
1149 4 0.270196 0.0449176 0.721455
1092 4 0.316566 0.0182775 0.689662
1004 4 0.384458 0.0792481 0.726759
43 3 0.43288 0.072115 0.678911
1163 4 0.476092 0.0645353 0.686545
1162 2 0.494207 0.055821 0.701413
864 4 0.050303 0.0915634 0.727102
1077 4 0.0642005 0.0907668 0.714918
1107 4 0.0677807 0.0978688 0.732347
851 4 0.0723069 0.107889 0.714843
862 2 0.0288761 0.0872143 0.739232
850 2 0.0806455 0.126945 0.700967
852 4 0.088984 0.146 0.687091
1282 2 0.153594 0.0841215 0.679652
1284 4 0.157718 0.107862 0.686329
1105 2 0.0852083 0.0955478 0.750125
909 4 0.153783 0.122739 0.700047
907 2 0.178245 0.125924 0.704129
908 4 0.202706 0.12911 0.70821
1227 4 0.221712 0.130598 0.709305
1225 2 0.231605 0.10984 0.699488
830 4 0.323448 0.145126 0.668478
829 2 0.329172 0.135885 0.690995
831 4 0.334896 0.126644 0.713512
1003 2 0.367395 0.0969774 0.72232
1005 4 0.350332 0.114707 0.717882
44 3 0.467686 0.0866842 0.68346
1142 4 0.455451 0.166657 0.741659
1177 2 0.00727885 0.232263 0.686936
1179 4 0.024025 0.246286 0.674767
1072 2 0.0946918 0.220676 0.737267
1074 4 0.109169 0.240531 0.74189
1073 4 0.0802147 0.200821 0.732643
978 4 0.28923 0.188809 0.750714
1144 2 0.492162 0.167323 0.734636
1025 4 0.437734 0.173906 0.680318
1262 4 0.463352 0.193915 0.731896
1024 2 0.445099 0.176416 0.70408
1026 4 0.452464 0.178926 0.727843
1261 2 0.465238 0.218617 0.73528
1145 4 0.468975 0.174988 0.729273
1263 4 0.467124 0.243318 0.738664
1209 4 0.120682 0.28414 0.71046
1207 2 0.122596 0.267521 0.729043
1208 4 0.12451 0.250902 0.747626
821 4 0.124158 0.275266 0.691458
820 2 0.14409 0.287838 0.6831
822 4 0.164021 0.30041 0.674742
1064 4 0.173009 0.310901 0.6904
1063 2 0.191185 0.321445 0.67685
805 2 0.293355 0.329874 0.682613
807 4 0.283542 0.307023 0.680013
3263 4 0.0375479 0.361814 0.680168
892 2 0.0197886 0.351249 0.751386
894 4 0.0380317 0.365283 0.741619
1280 4 0.0573901 0.367258 0.744713
1279 2 0.0543369 0.384415 0.726783
816 4 0.0717672 0.351342 0.739398
1281 4 0.0512838 0.401572 0.708853
814 2 0.0854714 0.33618 0.753802
1028 4 0.237375 0.36184 0.72035
1066 2 0.198227 0.356399 0.739251
1068 4 0.218066 0.358036 0.724122
1027 2 0.236506 0.381754 0.705255
1029 4 0.235637 0.401669 0.690161
806 4 0.303167 0.352724 0.685212
1018 2 0.393676 0.388495 0.728155
1020 4 0.388416 0.41128 0.719304
1019 4 0.398937 0.36571 0.737005
1983 4 0.0603941 0.417408 0.717071
1981 2 0.0666371 0.438669 0.728654
1982 4 0.0728802 0.45993 0.740237
1138 2 0.235486 0.447318 0.688314
1140 4 0.235925 0.422319 0.688458
1175 4 0.214379 0.460838 0.719803
1174 2 0.191774 0.470387 0.724595
1176 4 0.169168 0.479937 0.729387
1988 4 0.301233 0.47271 0.741613
1987 2 0.316578 0.462212 0.724895
1989 4 0.331922 0.451714 0.708176
1229 4 0.327499 0.438773 0.693856
1228 2 0.339897 0.421742 0.680387
2991 4 0.998346 0.0341361 0.79455
2989 2 0.00364129 0.0549953 0.781821
2990 4 0.00893652 0.0758544 0.769092
2048 4 0.154062 0.00767529 0.741707
2049 4 0.113034 0.0293555 0.760344
1202 4 0.112108 0.0376314 0.77941
2047 2 0.133548 0.0185154 0.751026
1201 2 0.114784 0.0601318 0.789981
1203 4 0.117459 0.0826322 0.800553
817 2 0.323208 0.043098 0.820644
818 4 0.328675 0.0224626 0.807626
1085 4 0.312968 0.0819542 0.828833
1050 4 0.344406 0.0056812 0.781451
974 4 0.341597 0.00808957 0.801173
973 2 0.356913 0.00102834 0.819632
1113 4 0.425903 0.040278 0.78441
2322 4 0.506876 0.0463597 0.77707
1111 2 0.450224 0.0458754 0.785936
845 4 0.494275 0.0537181 0.791405
1112 4 0.474545 0.0514729 0.787461
844 2 0.497222 0.076741 0.800702
3083 4 0.99102 0.0818267 0.760896
863 4 0.00744917 0.0828652 0.751363
833 4 0.00438981 0.0941461 0.766998
832 2 0.0101036 0.110795 0.784757
834 4 0.0158173 0.127443 0.802515
1125 4 0.0302881 0.132777 0.815836
1123 2 0.0465006 0.150967 0.821444
1106 4 0.102636 0.0932269 0.767904
911 4 0.103142 0.101292 0.831159
34 3 0.110101 0.0993151 0.786503
31 1 0.114577 0.108544 0.807316
35 3 0.0956174 0.117702 0.815995
32 3 0.122084 0.0919397 0.821355
33 3 0.131052 0.124772 0.805409
1257 4 0.271148 0.113863 0.764574
1256 4 0.248195 0.103796 0.807846
840 4 0.255538 0.104316 0.827749
1255 2 0.259671 0.108829 0.78621
1084 2 0.308846 0.0940555 0.807345
1086 4 0.304724 0.106157 0.785857
47 3 0.3999 0.150933 0.812828
1023 4 0.402309 0.15385 0.833846
48 3 0.399532 0.157236 0.775776
846 4 0.500169 0.0997638 0.809999
1143 4 0.420484 0.16626 0.777406
1141 2 0.437967 0.166459 0.759532
1124 4 0.0627131 0.169158 0.827051
1131 4 0.161376 0.254485 0.806786
977 4 0.316127 0.226329 0.769937