ITEM: TIMESTEP
2650000
ITEM: NUMBER OF ATOMS
4590
ITEM: BOX BOUNDS pp pp pp
-9.9985700000000008e+00 9.9985700000000008e+00
-9.9985700000000008e+00 9.9985700000000008e+00
-9.9985700000000008e+00 9.9985700000000008e+00
ITEM: ATOMS id type xs ys zs
1667 4 0.0145871 0.0840408 0.0761842
491 4 0.288033 0.066652 0.072394
484 2 0.408012 0.0171807 0.0756867
485 4 0.405548 0.0414051 0.0700045
2974 2 0.46472 0.016357 0.0178183
745 2 0.439318 0.0747919 0.0013916
747 4 0.442686 0.0500706 0.00303339
2975 4 0.452628 0.0334715 0.00417741
986 4 0.434911 0.0328483 0.998562
2976 4 0.476811 0.999242 0.0314593
701 4 0.00920163 0.102133 0.0756368
700 2 0.0276222 0.118449 0.0800684
702 4 0.0460427 0.134766 0.0845
566 4 0.228565 0.164954 0.0589566
565 2 0.230074 0.164321 0.0340066
567 4 0.231582 0.163689 0.00905656
297 4 0.332445 0.129081 0.0304768
295 2 0.348464 0.125891 0.0115455
556 2 0.403307 0.119718 0.997573
558 4 0.424509 0.113489 0.00926995
746 4 0.435951 0.0995131 0.99975
482 4 0.246989 0.249826 0.0679484
573 4 0.259979 0.245529 0.0532711
571 2 0.270086 0.247417 0.030479
572 4 0.280192 0.249304 0.00768686
360 4 0.335307 0.199095 0.00644843
770 4 0.390669 0.1838 0.0249595
359 4 0.374409 0.184974 0.0342392
664 2 0.395327 0.205884 0.0560772
665 4 0.393056 0.184272 0.0437096
666 4 0.397599 0.227496 0.0684448
323 4 0.405387 0.241381 0.0589636
358 2 0.354858 0.192035 0.0203438
769 2 0.408115 0.179522 0.00756645
623 4 0.389504 0.243584 0.0733854
292 2 0.157699 0.308798 0.0462729
294 4 0.141346 0.294299 0.0341268
293 4 0.174053 0.323296 0.058419
507 4 0.187343 0.323315 0.0686027
287 4 0.194217 0.329193 0.0523838
286 2 0.208342 0.32587 0.0320214
505 2 0.198298 0.305073 0.0817322
481 2 0.229526 0.258314 0.0837011
288 4 0.222467 0.322547 0.011659
552 4 0.174232 0.334067 0.0760986
357 4 0.298234 0.255509 0.0104375
355 2 0.312052 0.276095 0.0072011
956 4 0.330245 0.308753 0.0180146
356 4 0.32587 0.29668 0.00396466
902 4 0.324706 0.312734 0.998444
1069 2 0.399236 0.310762 0.0356267
955 2 0.346897 0.322119 0.0310245
1071 4 0.379354 0.324791 0.041378
322 2 0.415777 0.262238 0.0498964
324 4 0.426167 0.283095 0.0408292
1070 4 0.419118 0.296733 0.0298754
280 2 0.453175 0.309332 0.048061
282 4 0.439676 0.293648 0.0340265
281 4 0.466674 0.325016 0.0620955
527 4 0.476582 0.327696 0.078814
328 2 0.00180381 0.40446 0.0145259
329 4 0.0242914 0.411602 0.0062508
454 2 0.172803 0.361985 0.049663
456 4 0.164486 0.383414 0.0398236
455 4 0.18112 0.340556 0.0595023
1290 4 0.263523 0.392935 0.0215455
250 2 0.263061 0.393533 0.0561386
1288 2 0.276256 0.379657 0.00461147
251 4 0.254632 0.404072 0.0350898
252 4 0.27149 0.382993 0.0771874
609 4 0.280599 0.40083 0.0820189
957 4 0.363548 0.335485 0.0440345
741 4 0.381719 0.342615 0.0490699
739 2 0.387469 0.347974 0.072806
671 4 0.460625 0.338529 0.0754438
1788 4 0.0996164 0.459254 0.0551304
1786 2 0.105372 0.480958 0.0441312
627 4 0.163702 0.483301 0.0484089
626 4 0.205529 0.478787 0.0754429
625 2 0.184616 0.481044 0.0619259
245 4 0.215782 0.461925 0.0724316
244 2 0.231909 0.44947 0.0579413
246 4 0.248037 0.437016 0.043451
272 4 0.261171 0.423334 0.0362276
271 2 0.272271 0.432653 0.0158529
1672 2 0.399596 0.440025 0.0653978
853 2 0.396008 0.452445 0.0112433
1674 4 0.407956 0.444845 0.0423315
854 4 0.413201 0.458439 0.0283801
564 4 0.423209 0.442535 0.0304849
563 4 0.473187 0.442248 0.028796
562 2 0.448198 0.442392 0.0296404
228 4 0.481254 0.457075 0.0408379
226 2 0.488238 0.476656 0.0547292
19 3 0.0615874 0.0374229 0.146704
18 3 0.0668015 0.999779 0.147139
16 1 0.0632647 0.0186258 0.160204
582 4 0.227872 0.0707181 0.145487
580 2 0.246333 0.0541599 0.148678
490 2 0.291797 0.0504774 0.0910862
1475 4 0.292207 0.0215374 0.125864
492 4 0.295561 0.0343029 0.109778
581 4 0.264795 0.0376017 0.15187
1506 4 0.250648 0.0106207 0.172763
654 4 0.265136 0.0201222 0.163133
2722 2 0.470011 0.0660043 0.140536
2724 4 0.490746 0.0522787 0.143151
1760 4 0.493953 0.034442 0.134999
2744 4 0.501527 0.0384738 0.152252
476 4 0.0559754 0.131639 0.102426
475 2 0.068531 0.132335 0.124037
477 4 0.0810866 0.13303 0.145648
237 4 0.222159 0.0899347 0.146286
235 2 0.201024 0.0976316 0.157206
628 2 0.385282 0.158003 0.149645
629 4 0.379341 0.133716 0.149833
312 4 0.363817 0.121252 0.143506
2723 4 0.449276 0.0797299 0.137922
738 4 0.236547 0.184094 0.088368
737 4 0.239671 0.201846 0.135014
736 2 0.238109 0.19297 0.111691
755 4 0.253149 0.241031 0.162965
460 2 0.326127 0.229636 0.113615
461 4 0.303616 0.219906 0.108738
354 4 0.286392 0.217625 0.119736
352 2 0.278806 0.231617 0.13902
353 4 0.271219 0.245609 0.158303
630 4 0.391222 0.18229 0.149457
254 4 0.377044 0.192862 0.158246
462 4 0.348637 0.239366 0.118492
255 4 0.357908 0.231833 0.133431
253 2 0.367476 0.212347 0.145838
624 4 0.368739 0.238697 0.118614
622 2 0.379122 0.24114 0.0959998
483 4 0.212062 0.266802 0.0994539
506 4 0.209253 0.28683 0.0948617
537 4 0.207074 0.292341 0.113816
535 2 0.197756 0.291106 0.136985
536 4 0.188438 0.28987 0.160155
754 2 0.23739 0.260373 0.164612
756 4 0.221631 0.279715 0.166258
301 2 0.322999 0.316 0.137818
302 4 0.319106 0.330627 0.117917
303 4 0.326892 0.301372 0.15772
285 4 0.31976 0.28924 0.16511
284 4 0.279149 0.260137 0.167213
283 2 0.299455 0.274689 0.166162
765 4 0.358813 0.25126 0.129547
764 4 0.337638 0.285885 0.158761
763 2 0.348225 0.268573 0.144154
12 3 0.414644 0.331717 0.118103
647 4 0.0453008 0.353424 0.164295
550 2 0.159179 0.338646 0.0955308
551 4 0.144126 0.343226 0.114963
289 2 0.217888 0.395779 0.153285
290 4 0.23279 0.415556 0.149827
291 4 0.202985 0.376002 0.156744
387 4 0.326456 0.350619 0.116386
607 2 0.301876 0.409987 0.091432
385 2 0.350325 0.354591 0.110085
493 2 0.385435 0.393545 0.0993359
495 4 0.388539 0.369317 0.104679
386 4 0.374193 0.358562 0.103785
15 3 0.380638 0.346959 0.116062
740 4 0.393219 0.353333 0.0965421
14 3 0.410783 0.366962 0.105631
11 1 0.402577 0.351154 0.120503
13 3 0.404925 0.3588 0.142284
672 4 0.417812 0.348108 0.0994443
670 2 0.439218 0.343319 0.0874441
1791 4 0.0522489 0.488652 0.109767
1465 2 0.0780689 0.463089 0.0919459
1466 4 0.0610444 0.471137 0.108395
1467 4 0.0950935 0.455041 0.075497
638 4 0.219877 0.470468 0.130677
766 2 0.243947 0.449843 0.142935
768 4 0.249516 0.425926 0.147639
767 4 0.238379 0.473761 0.138232
637 2 0.203442 0.485848 0.11979
608 4 0.323153 0.419144 0.100845
659 4 0.325882 0.439412 0.101966
494 4 0.38233 0.417773 0.0939929
660 4 0.37515 0.435347 0.0944215
1673 4 0.391236 0.435205 0.088464
658 2 0.350516 0.43738 0.0981938
524 4 0.404021 0.491842 0.120543
523 2 0.394542 0.471726 0.109112
525 4 0.385063 0.45161 0.0976815
1559 4 0.397744 0.500894 0.139249
595 2 0.482535 0.433785 0.159816
596 4 0.502375 0.442366 0.14725
578 4 0.0791974 0.0412034 0.16268
17 3 0.0435805 0.0160335 0.171821
2480 4 0.0304918 0.0149333 0.188879
2479 2 0.0162552 0.0354879 0.188796
20 3 0.080412 0.0211716 0.174974
380 4 0.0152772 0.0712076 0.189944
2481 4 0.00201865 0.0560425 0.188713
577 2 0.0896947 0.0628482 0.169498
689 4 0.161469 0.0190079 0.202484
674 4 0.144389 0.0140388 0.210831
673 2 0.124316 0.00453209 0.222316
688 2 0.17907 0.001253 0.202892
652 2 0.28844 0.0174815 0.171799
653 4 0.311745 0.0148408 0.180465
758 4 0.341455 0.0816846 0.19147
759 4 0.357029 0.0633603 0.235315
757 2 0.349242 0.0725225 0.213393
350 4 0.370323 0.0685746 0.243536
480 4 0.434661 0.0469387 0.23808
333 4 0.480844 0.0745853 0.218906
743 4 0.489529 0.0667178 0.236001
379 2 0.0304491 0.0882666 0.179746
511 2 0.0669926 0.136504 0.18266
512 4 0.0465086 0.122401 0.180069
381 4 0.0456209 0.105326 0.169549
449 4 0.161138 0.109367 0.159429
579 4 0.100192 0.084493 0.176317
513 4 0.0874766 0.150606 0.18525
450 4 0.119154 0.0915043 0.179897
448 2 0.140146 0.100436 0.169663
236 4 0.17989 0.105328 0.168127
30 3 0.300617 0.141567 0.249667
28 3 0.331582 0.154616 0.232681
311 4 0.356583 0.0918151 0.183278
310 2 0.3602 0.106534 0.163392
521 4 0.460068 0.13944 0.215529
762 4 0.456819 0.132441 0.234414
760 2 0.433322 0.139124 0.239746
332 4 0.46551 0.12213 0.221157
520 2 0.476174 0.15751 0.209267
331 2 0.473177 0.0983578 0.220032
339 4 0.0378049 0.220882 0.175879
393 4 0.0865785 0.168746 0.19355
337 2 0.0362033 0.244726 0.183233
391 2 0.0887666 0.190295 0.18106
392 4 0.0909547 0.211845 0.168569
279 4 0.282027 0.225476 0.219721
277 2 0.275891 0.235107 0.197478
278 4 0.269755 0.244738 0.175234
522 4 0.492281 0.175581 0.203006
394 2 0.0195559 0.250769 0.23599
395 4 0.0366312 0.251552 0.217742
338 4 0.0346017 0.26857 0.190587
363 4 0.0382592 0.269813 0.209836
361 2 0.0474887 0.29271 0.213798
648 4 0.0577176 0.326466 0.204541
362 4 0.0567182 0.315608 0.217759
372 4 0.0740149 0.316883 0.208186
749 4 0.0481192 0.332832 0.22117
370 2 0.0969067 0.319493 0.217898
371 4 0.119799 0.322102 0.227611
734 4 0.127359 0.334788 0.241055
733 2 0.150219 0.327486 0.248076
611 4 0.236259 0.326388 0.21134
610 2 0.23492 0.310265 0.192275
612 4 0.233581 0.294143 0.173211
344 4 0.229804 0.319484 0.229594
343 2 0.21136 0.317979 0.246409
729 4 0.319347 0.307741 0.173947
727 2 0.308944 0.324975 0.188777
308 4 0.334483 0.296104 0.175175
307 2 0.344086 0.284794 0.1953
309 4 0.353689 0.273483 0.215426
498 4 0.344642 0.28498 0.228167
748 2 0.0538676 0.350038 0.238377
646 2 0.0515092 0.339945 0.184418
417 4 0.16546 0.394315 0.211547
416 4 0.188726 0.374057 0.172189
415 2 0.177093 0.384186 0.191868
728 4 0.29854 0.342209 0.203608
445 2 0.41414 0.379006 0.245071
446 4 0.390978 0.382521 0.253807
447 4 0.437302 0.37549 0.236334
644 4 0.448696 0.387284 0.222709
643 2 0.455121 0.406086 0.207529
412 2 0.23249 0.476473 0.225917
413 4 0.215515 0.465548 0.240671
414 4 0.249465 0.487397 0.211162
1574 4 0.298922 0.497205 0.256854
645 4 0.461546 0.424887 0.19235
597 4 0.462695 0.425204 0.172383
229 2 0.468845 0.471944 0.220998
231 4 0.480413 0.449832 0.222547
230 4 0.457277 0.494057 0.21945
234 4 0.00732284 0.0467028 0.286396
232 2 0.0317164 0.0412329 0.285937
233 4 0.0561101 0.035763 0.285478
2756 4 0.0053411 0.0645068 0.291974
317 4 0.0735337 0.0405152 0.293666
1404 4 0.0701646 0.0229131 0.287838
316 2 0.0796661 0.0627019 0.303429
2478 4 0.9915 0.0585908 0.280655
1402 2 0.0813685 0.0113453 0.268711
428 4 0.0766301 0.023418 0.30563
427 2 0.0877292 0.0100195 0.323587
693 4 0.26975 0.0445182 0.262261
25 3 0.323671 0.0531953 0.255184
691 2 0.280981 0.0605179 0.277851
692 4 0.292212 0.0765176 0.293441
349 2 0.39449 0.0622256 0.244451
351 4 0.418657 0.0558766 0.245366
24 3 0.339346 0.0636064 0.287796
21 1 0.343189 0.0543735 0.266858
23 3 0.35236 0.0331782 0.269109
22 3 0.358044 0.0677305 0.255454
632 4 0.364315 0.0853248 0.251291
479 4 0.451659 0.027947 0.281105
478 2 0.44316 0.0374429 0.259592
2664 4 0.469069 0.0209839 0.282821
1428 4 0.452393 0.0151128 0.291946
258 4 0.445165 0.0354546 0.297031
2662 2 0.494059 0.0213399 0.282067
256 2 0.436036 0.0510757 0.314288
2755 2 0.000816059 0.0859665 0.303981
2585 4 0.998529 0.119574 0.333004
2757 4 0.996291 0.107426 0.315989
318 4 0.0857986 0.0848885 0.313193
732 4 0.102658 0.0854755 0.322471
399 4 0.0880161 0.09544 0.329533
730 2 0.125118 0.0867811 0.333381
403 2 0.241948 0.157182 0.322949
26 1 0.321481 0.150039 0.253063
721 2 0.272587 0.106671 0.308256
723 4 0.277214 0.0908549 0.289451
722 4 0.267959 0.122486 0.327061
29 3 0.334329 0.134879 0.265043
761 4 0.409826 0.145807 0.245079
631 2 0.358871 0.107336 0.261828
707 4 0.345427 0.138015 0.281573
633 4 0.353426 0.129347 0.272366
706 2 0.348736 0.142543 0.30594
708 4 0.352044 0.147072 0.330306
544 2 0.150677 0.220218 0.260482
546 4 0.128159 0.210018 0.264231
405 4 0.229906 0.17771 0.315286
545 4 0.173196 0.230419 0.256734
473 4 0.218146 0.183252 0.329777
27 3 0.319861 0.169568 0.265111
269 4 0.396775 0.222426 0.328493
396 4 0.00248073 0.249987 0.254239
443 4 0.00267182 0.264953 0.268742
375 4 0.16453 0.314387 0.33592
402 4 0.16898 0.249864 0.25891
678 4 0.173889 0.324781 0.320482
400 2 0.176648 0.273136 0.263885
401 4 0.184316 0.296409 0.26886
676 2 0.176403 0.319414 0.296191
345 4 0.192917 0.316473 0.263223
677 4 0.178917 0.314047 0.2719
735 4 0.173078 0.320185 0.255097
378 4 0.306571 0.289629 0.319858
376 2 0.323881 0.301309 0.306106
497 4 0.347185 0.3089 0.272009
377 4 0.341191 0.31299 0.292354
496 2 0.345914 0.29694 0.250088
541 2 0.377187 0.309123 0.295388
542 4 0.39861 0.300257 0.304749
420 4 0.393086 0.285576 0.317965
543 4 0.355764 0.31799 0.286028
418 2 0.390855 0.262925 0.328315
615 4 0.347659 0.332241 0.2961
364 2 0.00491901 0.375046 0.292049
365 4 0.0286302 0.367239 0.290628
601 2 0.049064 0.372556 0.330144
603 4 0.0367773 0.370577 0.308457
750 4 0.059616 0.367244 0.255584
300 4 0.08001 0.364133 0.260933
299 4 0.127248 0.34915 0.254241
298 2 0.103629 0.356641 0.257587
510 4 0.177792 0.340247 0.331517
434 4 0.321792 0.385531 0.325071
433 2 0.30712 0.40577 0.324569
614 4 0.334303 0.377748 0.311957
613 2 0.340981 0.354994 0.304028
264 4 0.0253839 0.425039 0.25217
1757 4 0.0392257 0.438933 0.251826
1756 2 0.051875 0.459656 0.257802
1758 4 0.0645244 0.48038 0.263778
775 2 0.0675718 0.499323 0.311947
777 4 0.0736514 0.501468 0.287789
1775 4 0.0819424 0.488904 0.27605
1774 2 0.0979089 0.500532 0.260719
1436 4 0.219525 0.448001 0.247283
1435 2 0.229347 0.441219 0.269253
1437 4 0.239169 0.434437 0.291224
4 3 0.254878 0.434082 0.303103
3 3 0.266675 0.470201 0.303918
1 1 0.262419 0.451307 0.316698
436 2 0.30515 0.479365 0.311811
438 4 0.285835 0.463606 0.313757
435 4 0.292447 0.42601 0.324067
2 3 0.281932 0.444703 0.326934
437 4 0.324464 0.495124 0.309866
1802 4 0.338527 0.490265 0.32297
1801 2 0.360283 0.497886 0.313284
119 3 0.489182 0.468802 0.327455
429 4 0.0988283 0.996621 0.341544
441 4 0.338542 0.00277584 0.4112
699 4 0.367073 0.0587546 0.359754
1699 2 0.35968 0.0258582 0.389262
1700 4 0.362281 0.0405027 0.369163
697 2 0.390736 0.0644044 0.35398
1701 4 0.35708 0.0112136 0.40936
698 4 0.414398 0.0700543 0.348206
257 4 0.426906 0.0666968 0.331546
397 2 0.0721274 0.101733 0.347785
398 4 0.0562387 0.108027 0.366036
2584 2 0.0204408 0.120411 0.345019
2586 4 0.0423525 0.121248 0.357034
458 4 0.0426107 0.134439 0.371655
457 2 0.0512166 0.139446 0.394591
731 4 0.147577 0.0880868 0.344291
606 4 0.163999 0.0814652 0.334136
604 2 0.181904 0.0889128 0.349919
605 4 0.19981 0.0963603 0.365702
248 4 0.220067 0.0960721 0.365702
247 2 0.237957 0.108727 0.353661
249 4 0.255847 0.121381 0.341619
404 4 0.253991 0.136653 0.330612
683 4 0.257606 0.137565 0.350764
682 2 0.280689 0.142926 0.358741
684 4 0.303771 0.148288 0.366718
320 4 0.313939 0.131217 0.367741
321 4 0.358069 0.146804 0.350126
319 2 0.336004 0.13901 0.358934
726 4 0.387571 0.140875 0.408959
467 4 0.391797 0.158549 0.415544
717 4 0.373779 0.158615 0.35811
715 2 0.387421 0.155517 0.378834
716 4 0.401062 0.152419 0.399559
724 2 0.37826 0.121665 0.421977
642 4 0.499888 0.0919724 0.413242
640 2 0.475544 0.0967202 0.410079
641 4 0.4512 0.101468 0.406915
600 4 0.0892921 0.161628 0.347424
598 2 0.100012 0.180739 0.359467
599 4 0.110733 0.199849 0.37151
389 4 0.125734 0.227279 0.379788
686 4 0.114794 0.21267 0.384952
685 2 0.102459 0.211876 0.406687
275 4 0.12823 0.207179 0.376074
274 2 0.152701 0.202156 0.377136
474 4 0.178876 0.186709 0.360545
472 2 0.198511 0.18498 0.345161
276 4 0.177172 0.197133 0.378198
419 4 0.388624 0.240274 0.338665
268 2 0.42079 0.216931 0.332768
270 4 0.444805 0.211437 0.337043
452 4 0.456658 0.21686 0.352181
451 2 0.454859 0.215984 0.377105
453 4 0.45306 0.215108 0.402028
2802 4 0.00461163 0.295235 0.407896
347 4 0.0607339 0.31822 0.391613
346 2 0.0364102 0.31602 0.39697
348 4 0.0120866 0.313821 0.402327
618 4 0.0687205 0.306922 0.377598
388 2 0.124959 0.250785 0.371302
616 2 0.0920465 0.298686 0.373958
390 4 0.124184 0.274292 0.362815
617 4 0.115373 0.29045 0.370319
374 4 0.134569 0.290151 0.367789
373 2 0.149549 0.302269 0.351854
2537 4 0.492581 0.317759 0.328003
549 4 0.068689 0.39196 0.353545
602 4 0.0613507 0.374536 0.35183
547 2 0.0852438 0.40865 0.362063
508 2 0.186187 0.36332 0.336239
509 4 0.194582 0.386394 0.340962
334 2 0.31631 0.376597 0.416905
335 4 0.326237 0.368066 0.395602
238 2 0.358767 0.381613 0.379267
239 4 0.372532 0.399937 0.369271
240 4 0.345001 0.36329 0.389264
587 4 0.383816 0.41499 0.364897
752 4 0.470445 0.396935 0.383688
561 4 0.470078 0.380789 0.394978
559 2 0.481063 0.371716 0.415526
776 4 0.0614921 0.497179 0.336106
500 4 0.0650479 0.480683 0.348379
499 2 0.0784722 0.466469 0.363965
501 4 0.0918965 0.452255 0.379551
548 4 0.101799 0.42534 0.370581
407 4 0.104843 0.439346 0.382828
406 2 0.111005 0.448334 0.405331
1544 4 0.214024 0.46941 0.388048
1556 4 0.232809 0.471219 0.380254
1543 2 0.199963 0.480495 0.4055
5 3 0.246831 0.45604 0.332612
1545 4 0.185903 0.49158 0.422953
636 4 0.286454 0.496545 0.410264
1555 2 0.255649 0.478516 0.387344
1557 4 0.278489 0.485813 0.394435
586 2 0.387532 0.4376 0.35489
593 4 0.384833 0.477604 0.352305
588 4 0.391249 0.46021 0.344882
592 2 0.403693 0.493817 0.349737
2862 4 0.499605 0.484901 0.340601
751 2 0.480384 0.415795 0.370624
712 2 0.458794 0.488398 0.341379
714 4 0.479557 0.474817 0.344484
753 4 0.490322 0.434656 0.357559
117 3 0.483117 0.457248 0.362703
116 1 0.498816 0.458617 0.345945
369 4 0.0780274 0.999501 0.472113
367 2 0.0892747 0.00770111 0.451342
368 4 0.100522 0.0159013 0.430571
961 2 0.328932 0.0302287 0.440011
963 4 0.324294 0.0526715 0.450011
432 4 0.320803 0.052574 0.46987
430 2 0.327158 0.0455623 0.493014
962 4 0.333571 0.00778584 0.430012
1216 2 0.412886 0.0505459 0.483531
1218 4 0.428714 0.0646058 0.470228
260 4 0.0532579 0.158565 0.430086
459 4 0.0598225 0.144453 0.417527
725 4 0.368949 0.102455 0.434994
259 2 0.0697652 0.176821 0.43449
261 4 0.0862726 0.195077 0.438893
1035 4 0.0829334 0.212899 0.446746
1033 2 0.0880509 0.236623 0.452758
687 4 0.0901247 0.211081 0.428422
466 2 0.401418 0.17676 0.42972
468 4 0.411039 0.194971 0.443897
411 4 0.387319 0.24649 0.46807
409 2 0.400364 0.225564 0.463936
410 4 0.413409 0.204638 0.459801
489 4 0.368233 0.251061 0.464635
575 4 0.428691 0.201062 0.470055
516 4 0.429362 0.20162 0.449693
574 2 0.440073 0.200233 0.492302
514 2 0.447382 0.204744 0.432643
515 4 0.465402 0.207868 0.415594
696 4 0.0948196 0.270402 0.475027
1034 4 0.0931684 0.260347 0.45877
1260 4 0.0962259 0.279024 0.456985
1258 2 0.10995 0.29989 0.458185
1259 4 0.123675 0.320756 0.459384
9 3 0.144728 0.323253 0.445318
7 3 0.126325 0.330308 0.477322
488 4 0.338981 0.252795 0.424112
487 2 0.353607 0.251928 0.444373
266 4 0.381095 0.264906 0.469141
265 2 0.376385 0.284017 0.484561
267 4 0.371676 0.303128 0.499981
3308 4 0.473548 0.338385 0.488594
326 4 0.0683926 0.358217 0.466562
6 1 0.14095 0.339064 0.461875
327 4 0.116093 0.343713 0.462683
325 2 0.0922426 0.350965 0.464622
8 3 0.160885 0.344286 0.472539
10 3 0.131865 0.35785 0.452753
711 4 0.131071 0.417566 0.49263
709 2 0.154383 0.409679 0.497051
336 4 0.306382 0.385128 0.438209
668 4 0.291994 0.398069 0.434811
882 4 0.371522 0.377924 0.489537
560 4 0.492047 0.362642 0.436073
3309 4 0.501017 0.359092 0.452298
3307 2 0.487283 0.348739 0.470446
1383 4 0.0149542 0.462168 0.459461
1381 2 0.0172334 0.486541 0.464556
384 4 0.112463 0.417297 0.482423
408 4 0.117167 0.457323 0.427835
569 4 0.124906 0.468537 0.440348
383 4 0.122512 0.451244 0.447105
568 2 0.145648 0.481046 0.434145
382 2 0.117488 0.434271 0.464764
570 4 0.16639 0.493555 0.427942
634 2 0.293918 0.480467 0.427899
774 4 0.317638 0.454552 0.445961
635 4 0.301382 0.464389 0.445533
669 4 0.298793 0.4466 0.444775
667 2 0.295393 0.422335 0.439793
773 4 0.363018 0.460461 0.466122
772 2 0.340328 0.457506 0.456041
663 4 0.475471 0.493428 0.444836
341 4 0.177482 0.0119857 0.520565
1152 4 0.185169 0.0689907 0.534694
342 4 0.181435 0.0615713 0.51543
340 2 0.179459 0.0367785 0.517998
1150 2 0.207647 0.0779175 0.541036
1030 2 0.258498 0.0681682 0.564891
1032 4 0.248526 0.0772826 0.543851
431 4 0.333512 0.0385506 0.516157
842 4 0.394208 0.0240125 0.511323
841 2 0.370458 0.0257733 0.51894
843 4 0.346708 0.0275341 0.526557
1217 4 0.397058 0.036486 0.496833
1058 4 0.105762 0.101232 0.51818
1270 2 0.104259 0.149498 0.582579
1271 4 0.117311 0.128356 0.579777
1057 2 0.109215 0.110203 0.541262
1059 4 0.112668 0.119174 0.564344
1155 4 0.130872 0.117446 0.567663
939 4 0.119523 0.109903 0.580905
1153 2 0.152843 0.129376 0.567226
1154 4 0.174813 0.141305 0.566789
1151 4 0.230125 0.0868444 0.547379
1180 2 0.233329 0.126562 0.561239
1181 4 0.232247 0.101598 0.560343
1182 4 0.234412 0.151526 0.562135
900 4 0.239733 0.159502 0.579638
1221 4 0.180367 0.155109 0.581234
1199 4 0.0186855 0.202495 0.572056
879 4 0.0762606 0.176228 0.573623
1198 2 0.998975 0.213399 0.561203
878 4 0.0376673 0.208029 0.573699
877 2 0.056964 0.192128 0.573661
1272 4 0.0912061 0.170639 0.58538
651 4 0.246794 0.230313 0.512664
858 4 0.234429 0.244772 0.521515
898 2 0.25302 0.177359 0.568246
649 2 0.254594 0.210046 0.525058
650 4 0.262394 0.18978 0.537453
899 4 0.266307 0.195216 0.556855
576 4 0.451456 0.199404 0.514549
2455 2 0.49498 0.244414 0.496713
695 4 0.0872833 0.266555 0.524313
694 2 0.0910514 0.268478 0.49967
856 2 0.216812 0.256231 0.535062
857 4 0.199196 0.26769 0.548609
947 4 0.203336 0.271662 0.56861
946 2 0.181164 0.278563 0.577883
798 4 0.216979 0.257422 0.578279
1011 4 0.465398 0.326459 0.500684
2457 4 0.475291 0.257738 0.50446
1010 4 0.472515 0.27731 0.506551
1009 2 0.468956 0.301884 0.503617
502 2 0.206666 0.383146 0.516114
503 4 0.22306 0.364303 0.514959
504 4 0.190271 0.401989 0.51727
710 4 0.177695 0.401792 0.501473
1189 2 0.230041 0.365044 0.577805
803 4 0.259666 0.365223 0.562014
804 4 0.272171 0.355354 0.514612
802 2 0.265918 0.360288 0.538313
1190 4 0.249444 0.351645 0.569489
1238 4 0.263026 0.358408 0.581146
929 4 0.344977 0.361593 0.542415
881 4 0.353726 0.378103 0.536271
880 2 0.362624 0.378014 0.512904
928 2 0.334426 0.366273 0.564594
540 4 0.118247 0.476021 0.583056
539 4 0.118364 0.426652 0.575096
538 2 0.118305 0.451336 0.579076
1909 2 0.44572 0.49566 0.580554
1081 2 0.0733866 0.0720669 0.635491
1083 4 0.0687291 0.0831769 0.613581
1127 4 0.0533756 0.0931177 0.604527
1082 4 0.0780442 0.0609569 0.657401
943 2 0.0336962 0.0297314 0.661341
944 4 0.0537169 0.042961 0.654317
4337 4 0.0109106 0.00321223 0.654299
825 4 0.17281 0.0517656 0.670473
1031 4 0.26847 0.0590537 0.58593
951 4 0.253006 0.0471913 0.591547
949 2 0.267088 0.030845 0.604183
950 4 0.28117 0.0144988 0.616819
3008 4 0.501599 0.0395126 0.59161
809 4 0.491001 0.0279946 0.602297
808 2 0.481254 0.0402641 0.621781
810 4 0.471507 0.0525337 0.641265
45 3 0.465093 0.0730291 0.642536
41 1 0.460653 0.0642677 0.663083
1126 2 0.0284188 0.0915989 0.604705
1128 4 0.00346205 0.09008 0.604882
938 4 0.0879868 0.0840187 0.609823
937 2 0.103755 0.0969606 0.595364
1219 2 0.20123 0.15479 0.59501
1211 4 0.244531 0.143844 0.665882
1210 2 0.239919 0.153951 0.643482
1220 4 0.222094 0.154471 0.608787
1212 4 0.235307 0.164058 0.621082
1194 4 0.318796 0.153004 0.655954
1192 2 0.328905 0.145625 0.634308
887 4 0.311423 0.164142 0.668925
1193 4 0.339013 0.138247 0.612661
3424 2 0.497144 0.100058 0.652558
3425 4 0.479648 0.0833244 0.658809
1244 4 0.0443091 0.222458 0.584596
1243 2 0.0414038 0.242172 0.599698
3123 4 0.487179 0.243612 0.648217
983 4 0.0293281 0.277254 0.608504
1245 4 0.0384986 0.261887 0.6148
982 2 0.0168069 0.28992 0.590955
3262 2 0.0486444 0.336521 0.644525
3263 4 0.0516614 0.311725 0.645653
948 4 0.158992 0.285464 0.587155
1135 2 0.164728 0.319204 0.611465
822 4 0.166733 0.327366 0.647955
1136 4 0.158269 0.304856 0.592033
820 2 0.156804 0.311376 0.664414
796 2 0.236677 0.266136 0.590976
797 4 0.256376 0.274851 0.603672
791 4 0.259868 0.291669 0.594115
790 2 0.259971 0.315293 0.585925
872 4 0.343063 0.27598 0.605975
871 2 0.357169 0.29662 0.606393
813 4 0.384701 0.324945 0.622808
873 4 0.371274 0.317261 0.606811
953 4 0.4866 0.325975 0.621454
954 4 0.457086 0.290843 0.60157
952 2 0.471843 0.308409 0.611512
1041 4 0.0586046 0.377865 0.642397
3264 4 0.0456274 0.361316 0.643398
3240 4 0.0394892 0.379238 0.643206
3238 2 0.0162206 0.381472 0.634331
1039 2 0.0831379 0.382585 0.643401
1137 4 0.171187 0.333552 0.630897
1040 4 0.107671 0.387306 0.644405
993 4 0.121114 0.37175 0.64474
991 2 0.142306 0.358763 0.642017
992 4 0.163498 0.345776 0.639293
1064 4 0.176865 0.342969 0.649226
897 4 0.18311 0.347793 0.632342
896 4 0.199128 0.383402 0.601098
895 2 0.191119 0.365597 0.61672
1172 4 0.217886 0.390247 0.59956
1191 4 0.210637 0.378443 0.58612
1171 2 0.218749 0.413781 0.60796
792 4 0.260074 0.338917 0.577736
1239 4 0.308649 0.366197 0.600082
1237 2 0.285838 0.362302 0.590614
930 4 0.323874 0.370954 0.586774
811 2 0.380076 0.349469 0.624342
1204 2 0.37879 0.392548 0.664822
1206 4 0.384077 0.386556 0.64113
927 4 0.384694 0.389934 0.623056
812 4 0.37545 0.373993 0.625876
925 2 0.396616 0.404962 0.60702
906 4 0.491192 0.344309 0.627528
1160 4 0.125338 0.492729 0.589253
2244 4 0.105123 0.489902 0.584663
1159 2 0.150082 0.494584 0.58618
1186 2 0.20422 0.47558 0.608246
1173 4 0.219613 0.437315 0.616361
1187 4 0.216865 0.457308 0.61971
1188 4 0.191575 0.493852 0.596782
926 4 0.408539 0.419991 0.590983
1911 4 0.451434 0.47473 0.592981
1002 4 0.427971 0.421968 0.593048
1001 4 0.438215 0.468857 0.60709
1000 2 0.433093 0.445412 0.600069
1269 4 0.45421 0.477256 0.612073
1267 2 0.455699 0.481532 0.636663
1268 4 0.457189 0.485808 0.661253
1076 4 0.0640548 0.0532784 0.670444
1075 2 0.0690857 0.0670223 0.690716
945 4 0.0136756 0.0165017 0.668364
864 4 0.0650974 0.0756086 0.728951
1077 4 0.0741166 0.0807663 0.710989
862 2 0.0452703 0.0728059 0.743925
4520 4 0.0204616 0.998629 0.671578
824 4 0.190452 0.00499057 0.66922
823 2 0.181631 0.0283781 0.669847
1283 4 0.176669 0.0685704 0.680089
1149 4 0.250145 0.0628195 0.740914
1147 2 0.250745 0.069645 0.716868
1004 4 0.342855 0.0571526 0.740082
1148 4 0.251344 0.0764704 0.692821
1003 2 0.339104 0.0791546 0.728812
1092 4 0.34538 0.00256962 0.680772
43 3 0.437883 0.0653705 0.667408
42 3 0.467245 0.0422333 0.66351
1163 4 0.474711 0.0537844 0.682414
1162 2 0.48783 0.0474638 0.70274
44 3 0.472382 0.0759225 0.679362
851 4 0.0644256 0.100023 0.707205
850 2 0.0539775 0.121244 0.6991
852 4 0.0435295 0.142464 0.690995
1107 4 0.0714912 0.0922442 0.722933
1105 2 0.0942017 0.0931471 0.733354
1106 4 0.116912 0.09405 0.743775
1227 4 0.25417 0.135156 0.677096
1282 2 0.177983 0.0933748 0.68295
1284 4 0.179298 0.118179 0.685812
909 4 0.186643 0.136925 0.690964
907 2 0.211321 0.137475 0.686983
908 4 0.236 0.138025 0.683003
888 4 0.263392 0.150244 0.669716
1226 4 0.265797 0.0891673 0.692924
886 2 0.287407 0.157193 0.66932
1225 2 0.259983 0.112162 0.68501
829 2 0.331808 0.13344 0.692084
830 4 0.322463 0.146491 0.672913
1005 4 0.335353 0.101157 0.717542
831 4 0.341152 0.120389 0.711255
1072 2 0.114153 0.252798 0.751536
977 4 0.296382 0.23057 0.729094
1298 4 0.29231 0.21704 0.742132
976 2 0.321372 0.231169 0.728557
1297 2 0.282489 0.195924 0.751233
1299 4 0.272669 0.174807 0.760333
978 4 0.346363 0.231769 0.728019
1025 4 0.404479 0.197608 0.681645
1020 4 0.365468 0.235851 0.725056
1146 4 0.493909 0.172912 0.70872
1024 2 0.421146 0.198304 0.70027
1142 4 0.443774 0.184744 0.731583
1144 2 0.474367 0.185811 0.717489
1262 4 0.448314 0.215755 0.724797
1026 4 0.437813 0.199 0.718896
1261 2 0.437945 0.236405 0.734351
1145 4 0.454825 0.198711 0.726258
1177 2 0.0159786 0.262753 0.713316
1179 4 0.0325618 0.274808 0.699003
1130 4 0.155715 0.252971 0.744676
1208 4 0.151055 0.255154 0.726751
1074 4 0.137808 0.254861 0.743702
1207 2 0.149599 0.264542 0.703623
821 4 0.146874 0.295386 0.680873
1209 4 0.148144 0.27393 0.680495
805 2 0.226957 0.334042 0.706328
806 4 0.248042 0.320812 0.708683
1018 2 0.377111 0.250318 0.741799
1263 4 0.427577 0.257054 0.743906
893 4 0.00637534 0.342971 0.715242
892 2 0.0246382 0.353594 0.728614
1279 2 0.0594563 0.403031 0.740682
1280 4 0.0556571 0.378646 0.736665
816 4 0.0589692 0.360235 0.733281
814 2 0.0829091 0.358639 0.726244
894 4 0.0429011 0.364217 0.741986
815 4 0.106849 0.357043 0.719208
942 4 0.112272 0.35411 0.738629
940 2 0.134965 0.363208 0.743863
1063 2 0.190932 0.34998 0.668672
1065 4 0.204998 0.356992 0.688118
807 4 0.205872 0.347272 0.703973
1028 4 0.207744 0.376499 0.691578
1066 2 0.184472 0.374727 0.722845
1068 4 0.197673 0.365503 0.703718
1027 2 0.224407 0.394048 0.685288
1067 4 0.171272 0.38395 0.741972
1029 4 0.241069 0.411597 0.678999
1205 4 0.373503 0.398539 0.688514
1982 4 0.0853391 0.4772 0.741254
1176 4 0.189465 0.476784 0.735377
1140 4 0.254857 0.423809 0.670826
1175 4 0.174106 0.468815 0.688459
1174 2 0.181785 0.472799 0.711918
2016 4 0.173576 0.483213 0.747332
2026 2 0.278978 0.49837 0.68874
1138 2 0.269586 0.443671 0.674537
1139 4 0.284315 0.463532 0.678248
1987 2 0.281731 0.45659 0.728636
1229 4 0.298677 0.461828 0.691989
1989 4 0.292807 0.468586 0.7097
2028 4 0.288854 0.475744 0.692704
1228 2 0.322057 0.45856 0.683751
1230 4 0.345438 0.455292 0.675514
1101 4 0.445996 0.479955 0.677453
1099 2 0.436774 0.463949 0.694303
1100 4 0.427553 0.447943 0.711154
2168 4 0.455949 0.496193 0.676758
2989 2 0.0182332 0.0432599 0.788317
2990 4 0.0218027 0.0636898 0.77435
2991 4 0.0146637 0.0228301 0.802283
3083 4 0.00630731 0.0715747 0.767151
863 4 0.0254433 0.0700032 0.758898
2049 4 0.100197 0.0199456 0.76536
1202 4 0.111635 0.0337435 0.774036
1201 2 0.119242 0.0574941 0.775832
1203 4 0.126849 0.0812447 0.777627
1085 4 0.336461 0.078689 0.801541
1084 2 0.312047 0.0811799 0.796754
1050 4 0.363193 0.999005 0.77761
960 4 0.347785 0.0854429 0.815818
819 4 0.349548 0.0667058 0.809582
817 2 0.348568 0.0418712 0.806851
818 4 0.347587 0.0170365 0.80412
974 4 0.353753 1.32914e-05 0.795401
2322 4 0.484104 0.0515116 0.777398
845 4 0.47884 0.065318 0.791552
844 2 0.488455 0.0648732 0.814628
2320 2 0.494278 0.0402945 0.757502
833 4 0.0201103 0.0842406 0.769843
832 2 0.0198908 0.0979452 0.790755
834 4 0.0196713 0.11165 0.811668
1125 4 0.0242911 0.124135 0.827022
32 3 0.139292 0.0912945 0.794111
911 4 0.126837 0.108123 0.802589
34 3 0.11815 0.0953107 0.763296
31 1 0.132502 0.106176 0.777937
35 3 0.121742 0.123631 0.787846
33 3 0.151172 0.113851 0.766494
910 2 0.120686 0.103982 0.826468
1256 4 0.228644 0.11842 0.806695