ITEM: TIMESTEP
1430000
ITEM: NUMBER OF ATOMS
4590
ITEM: BOX BOUNDS pp pp pp
-9.9985700000000008e+00 9.9985700000000008e+00
-9.9985700000000008e+00 9.9985700000000008e+00
-9.9985700000000008e+00 9.9985700000000008e+00
ITEM: ATOMS id type xs ys zs
1666 2 0.077937 0.0648186 0.071678
1668 4 0.0690586 0.0546012 0.0506552
1667 4 0.0868154 0.0750361 0.0927008
297 4 0.343789 0.0818669 0.0539559
295 2 0.355257 0.0951389 0.0361366
486 4 0.382224 0.000405357 0.053946
484 2 0.381481 0.00181631 0.0788986
747 4 0.464556 0.0645897 0.00770892
2974 2 0.46701 0.0343664 0.0289941
2976 4 0.480182 0.0161915 0.0400105
2975 4 0.453839 0.0525414 0.0179777
745 2 0.457628 0.0870033 0.0163584
986 4 0.453443 0.0536875 0.997305
2264 4 0.294095 0.143376 0.0169138
296 4 0.366724 0.108411 0.0183173
557 4 0.382932 0.108503 0.00575177
556 2 0.406944 0.107545 0.0126557
769 2 0.3868 0.163313 0.0303232
771 4 0.392014 0.148052 0.0112153
827 4 0.364948 0.111145 0.999592
558 4 0.430956 0.106588 0.0195597
746 4 0.4507 0.109417 0.0250078
566 4 0.152581 0.189965 0.0294294
567 4 0.196876 0.185349 0.00668328
565 2 0.174728 0.187657 0.0180563
738 4 0.216153 0.228322 0.0829354
358 2 0.347622 0.181785 0.0652208
770 4 0.381586 0.178573 0.0494311
359 4 0.368277 0.190271 0.0539713
664 2 0.394064 0.215577 0.06746
665 4 0.389006 0.19508 0.0540638
666 4 0.399123 0.236075 0.0808562
555 4 0.088866 0.273371 0.036669
553 2 0.0902077 0.269608 0.0119867
287 4 0.160259 0.31108 0.0208457
293 4 0.156782 0.293449 0.0275757
292 2 0.155656 0.281281 0.00576159
507 4 0.164329 0.305884 0.0401194
554 4 0.0915494 0.265844 0.987304
505 2 0.177145 0.301999 0.061234
481 2 0.229174 0.284292 0.0723016
573 4 0.261047 0.282923 0.0425353
482 4 0.250086 0.280059 0.0592661
571 2 0.264507 0.277499 0.0183736
322 2 0.4099 0.277518 0.0669856
1069 2 0.397976 0.302928 0.0180397
324 4 0.414984 0.286553 0.0442325
1070 4 0.417753 0.289319 0.0250276
741 4 0.358218 0.322688 0.0340885
957 4 0.35937 0.311448 0.0176419
1071 4 0.378198 0.316536 0.0110518
671 4 0.458299 0.318387 0.057998
280 2 0.450851 0.295063 0.0298106
281 4 0.467518 0.302273 0.0469983
282 4 0.434185 0.287852 0.0126229
670 2 0.446573 0.327059 0.0783072
286 2 0.150857 0.333829 0.025236
288 4 0.141456 0.356578 0.0296262
454 2 0.148531 0.378346 0.0749086
455 4 0.133806 0.360683 0.0650899
456 4 0.163255 0.396008 0.0847274
250 2 0.2743 0.399633 0.0394978
251 4 0.267755 0.379484 0.026217
1290 4 0.264201 0.387544 0.00849257
739 2 0.366713 0.330255 0.0563541
740 4 0.375207 0.337822 0.0786197
495 4 0.401551 0.372848 0.0734881
493 2 0.399895 0.397726 0.0716001
14 3 0.390012 0.357591 0.0765966
328 2 0.000226346 0.44289 0.0453126
330 4 0.0121231 0.4606 0.0583507
245 4 0.218828 0.432921 0.0378409
626 4 0.216857 0.442817 0.0540983
625 2 0.192125 0.446213 0.0555119
244 2 0.235482 0.437842 0.0198517
1778 4 0.22006 0.508225 0.0351788
627 4 0.167393 0.449608 0.0569255
246 4 0.252136 0.442762 0.00186248
252 4 0.280844 0.419782 0.0527785
609 4 0.290208 0.433648 0.063318
607 2 0.311962 0.426502 0.0733615
494 4 0.39824 0.422603 0.069712
1672 2 0.393529 0.479247 0.0469853
1674 4 0.417793 0.47438 0.0434135
660 4 0.386521 0.430102 0.0838126
1673 4 0.369265 0.484114 0.0505571
854 4 0.431018 0.449375 0.0183419
563 4 0.479276 0.459589 0.0445057
228 4 0.498894 0.455555 0.0468325
562 2 0.455462 0.462383 0.0374151
564 4 0.431648 0.465177 0.0303245
853 2 0.415777 0.439862 0.000953205
18 3 0.0711957 0.068179 0.135288
16 1 0.065949 0.0678735 0.157888
701 4 0.0901794 0.0809698 0.110553
1475 4 0.291617 0.0290104 0.0986089
492 4 0.288033 0.0481849 0.0930088
491 4 0.284791 0.0713475 0.137209
490 2 0.286412 0.0597662 0.115109
485 4 0.380737 0.00322727 0.103851
2723 4 0.427243 0.0431375 0.144336
2722 2 0.452096 0.0436728 0.14702
2724 4 0.476949 0.044208 0.149704
1760 4 0.493928 0.035373 0.152335
2467 2 0.494656 0.00452518 0.0790282
700 2 0.0975615 0.100121 0.124833
476 4 0.0876385 0.117906 0.151234
702 4 0.104944 0.119272 0.139114
581 4 0.280564 0.122003 0.17992
580 2 0.26249 0.137662 0.17262
628 2 0.396007 0.147528 0.143775
312 4 0.383517 0.117142 0.16578
629 4 0.39805 0.125532 0.155488
339 4 0.0864623 0.225362 0.12997
337 2 0.0822763 0.238427 0.150874
737 4 0.242879 0.216887 0.123625
736 2 0.229516 0.222604 0.10328
360 4 0.326968 0.173299 0.0764702
461 4 0.308471 0.239363 0.106211
460 2 0.330844 0.234842 0.116418
354 4 0.292125 0.240911 0.118008
352 2 0.285299 0.241529 0.142054
353 4 0.278474 0.242147 0.1661
630 4 0.393963 0.169524 0.132062
462 4 0.353216 0.230321 0.126626
254 4 0.374706 0.170249 0.125631
255 4 0.368811 0.219855 0.127912
253 2 0.371758 0.195052 0.126772
765 4 0.36152 0.22669 0.1442
624 4 0.368682 0.2398 0.132593
763 2 0.352802 0.235274 0.166006
622 2 0.385206 0.244929 0.114543
648 4 0.0699882 0.309107 0.155958
506 4 0.189961 0.298113 0.0823485
483 4 0.208262 0.288526 0.085337
537 4 0.18625 0.314213 0.0937043
387 4 0.332025 0.307495 0.123101
301 2 0.318273 0.315712 0.164062
302 4 0.322854 0.314408 0.139516
323 4 0.404815 0.268483 0.0897386
623 4 0.401731 0.250059 0.0964923
385 2 0.347768 0.32012 0.108338
15 3 0.380548 0.329623 0.099961
386 4 0.36351 0.332745 0.0935747
528 4 0.474458 0.286677 0.104219
518 4 0.483002 0.277433 0.0879377
526 2 0.47074 0.281253 0.128342
527 4 0.467023 0.275829 0.152465
552 4 0.118707 0.361131 0.077581
551 4 0.0905108 0.345905 0.115972
550 2 0.104609 0.353518 0.0967763
535 2 0.182106 0.336807 0.10358
536 4 0.177963 0.359401 0.113455
291 4 0.219594 0.405317 0.15338
416 4 0.209233 0.411849 0.138166
289 2 0.243284 0.40932 0.146455
11 1 0.393535 0.34817 0.0975065
13 3 0.388518 0.363599 0.114094
12 3 0.415677 0.342211 0.0993431
672 4 0.434846 0.335731 0.0986164
104 3 0.502727 0.347457 0.11927
595 2 0.48867 0.395461 0.154514
1791 4 0.0374927 0.486481 0.136022
1466 4 0.0339861 0.482973 0.155882
1789 2 0.0519006 0.50156 0.122231
417 4 0.162745 0.429897 0.134447
415 2 0.185989 0.420873 0.136306
608 4 0.333716 0.419356 0.083405
768 4 0.276529 0.430704 0.144742
290 4 0.266974 0.413324 0.13953
767 4 0.27344 0.479378 0.155788
766 2 0.274984 0.455041 0.150265
525 4 0.383915 0.504867 0.153459
658 2 0.362382 0.432405 0.0899094
659 4 0.338243 0.434709 0.0960061
19 3 0.0562382 0.0880297 0.164039
17 3 0.0509419 0.0508863 0.161809
2480 4 0.0388149 0.0405294 0.171181
1422 4 0.0371163 0.0206479 0.16909
2479 2 0.0189499 0.0503402 0.18277
20 3 0.0847699 0.0642428 0.170186
675 4 0.102771 0.00420764 0.249783
674 4 0.138432 0.0183484 0.217703
673 2 0.120601 0.011278 0.233743
689 4 0.15414 0.00783598 0.212066
578 4 0.0804229 0.0673029 0.189822
577 2 0.10374 0.0693541 0.198612
450 4 0.135982 0.0808422 0.191563
1506 4 0.247712 0.0199714 0.167864
1504 2 0.228415 0.00537079 0.174158
654 4 0.26667 0.0134693 0.169841
652 2 0.287237 0.0203568 0.18228
653 4 0.307805 0.0272442 0.194719
24 3 0.306403 0.0765232 0.252566
25 3 0.32621 0.0498167 0.2349
21 1 0.327163 0.0663638 0.250519
311 4 0.390988 0.0726515 0.187356
758 4 0.383347 0.0578428 0.198588
759 4 0.344618 0.0639186 0.229634
757 2 0.363983 0.0608807 0.214111
22 3 0.342544 0.0821414 0.243913
743 4 0.505791 0.0841748 0.248994
2744 4 0.490962 0.0538998 0.159057
381 4 0.988963 0.119482 0.211625
512 4 0.999064 0.134967 0.21869
511 2 0.0201234 0.147323 0.224073
513 4 0.0411832 0.15968 0.229457
393 4 0.0571701 0.150469 0.237955
448 2 0.156481 0.0947691 0.188244
475 2 0.0930328 0.131651 0.171412
477 4 0.098427 0.145395 0.191591
579 4 0.127057 0.0714054 0.207403
449 4 0.17698 0.108696 0.184926
237 4 0.22831 0.152497 0.177881
691 2 0.235849 0.128247 0.243274
693 4 0.218939 0.121973 0.225958
236 4 0.186936 0.124913 0.183178
235 2 0.207623 0.138705 0.180529
582 4 0.244416 0.153322 0.16532
310 2 0.387252 0.0948967 0.176568
521 4 0.498579 0.155873 0.234281
332 4 0.492143 0.141086 0.22391
333 4 0.493897 0.0920909 0.233766
331 2 0.49302 0.116588 0.228838
762 4 0.479576 0.152435 0.234691
760 2 0.457759 0.156225 0.246305
394 2 0.0105302 0.238783 0.225356
395 4 0.0264643 0.239357 0.206096
546 4 0.137736 0.214083 0.255004
277 2 0.241434 0.230025 0.177145
279 4 0.21792 0.221609 0.178339
284 4 0.282801 0.236342 0.183998
283 2 0.306279 0.238649 0.192284
285 4 0.329757 0.240956 0.20057
27 3 0.335334 0.176628 0.236008
278 4 0.264949 0.23844 0.17595
764 4 0.344084 0.243858 0.187811
646 2 0.0665347 0.326177 0.173898
338 4 0.0780903 0.251491 0.171778
363 4 0.0800175 0.257181 0.190213
749 4 0.0856251 0.300176 0.219438
361 2 0.0922226 0.275974 0.201306
370 2 0.140709 0.304644 0.219665
372 4 0.11685 0.30895 0.213551
362 4 0.104428 0.294766 0.2124
748 2 0.0837381 0.320607 0.233728
371 4 0.164568 0.300337 0.225779
755 4 0.266401 0.256442 0.16656
754 2 0.266374 0.279995 0.17495
756 4 0.266347 0.303549 0.18334
612 4 0.264103 0.319321 0.196731
610 2 0.260504 0.319742 0.22147
307 2 0.309241 0.291223 0.217662
308 4 0.304402 0.300472 0.194941
303 4 0.313693 0.317016 0.188608
309 4 0.31408 0.281974 0.240383
611 4 0.256904 0.320162 0.24621
647 4 0.0630812 0.343248 0.191838
734 4 0.160352 0.350788 0.249805
729 4 0.306589 0.333023 0.197369
727 2 0.307239 0.351994 0.213643
728 4 0.30789 0.370964 0.229918
447 4 0.426168 0.382995 0.224476
644 4 0.438839 0.369126 0.222429
597 4 0.474224 0.382286 0.1701
643 2 0.455919 0.369303 0.204168
645 4 0.472999 0.369479 0.185908
264 4 0.988725 0.402351 0.213013
1465 2 0.0248239 0.476889 0.178337
1467 4 0.0156618 0.470805 0.200792
1775 4 0.0940355 0.498045 0.240838
1758 4 0.103537 0.479931 0.239977
1756 2 0.113382 0.457744 0.245976
1757 4 0.123227 0.435557 0.251976
231 4 0.473631 0.481849 0.1954
234 4 0.00071597 0.0466675 0.311386
232 2 0.0245638 0.0420974 0.305422
233 4 0.0484117 0.0375274 0.299458
1404 4 0.0634624 0.0268387 0.294289
1402 2 0.0742059 0.0184787 0.273316
316 2 0.0748806 0.062276 0.310322
317 4 0.0675906 0.0430345 0.296116
428 4 0.0745765 0.0257999 0.308445
427 2 0.0721669 0.0106595 0.328197
1403 4 0.0849494 0.0101188 0.252343
318 4 0.0821706 0.0815175 0.324528
23 3 0.333735 0.0575819 0.270966
699 4 0.347111 0.0568961 0.323097
349 2 0.408289 0.0890935 0.262603
697 2 0.36696 0.0486064 0.335844
351 4 0.425745 0.071195 0.262929
479 4 0.447496 0.0278752 0.303722
478 2 0.437474 0.0395878 0.284036
2664 4 0.465183 0.0208193 0.305198
480 4 0.427451 0.0513003 0.26435
1428 4 0.448996 0.015605 0.315451
258 4 0.434204 0.0269858 0.319696
2662 2 0.488894 0.0232869 0.297659
391 2 0.0764129 0.155893 0.252971
692 4 0.252758 0.134521 0.260591
721 2 0.250271 0.120161 0.294967
722 4 0.241453 0.120901 0.318352
249 4 0.244631 0.121819 0.33778
28 3 0.326803 0.141696 0.246946
723 4 0.259089 0.119422 0.271581
26 1 0.326678 0.164039 0.253205
30 3 0.30535 0.1708 0.257453
404 4 0.262071 0.129956 0.341603
632 4 0.371225 0.101105 0.261985
350 4 0.390833 0.106992 0.262277
631 2 0.356641 0.121414 0.262135
707 4 0.34792 0.148942 0.278015
633 4 0.342056 0.141723 0.262286
706 2 0.355641 0.160204 0.29896
717 4 0.407424 0.162734 0.336634
392 4 0.0956558 0.161317 0.267987
389 4 0.100536 0.217692 0.340427
544 2 0.14983 0.221408 0.275626
545 4 0.161923 0.228733 0.296248
402 4 0.178891 0.237331 0.301415
29 3 0.339845 0.167054 0.272072
708 4 0.363362 0.171467 0.319906
761 4 0.435943 0.160015 0.257918
750 4 0.0818511 0.341038 0.248018
400 2 0.194477 0.253423 0.290311
401 4 0.210063 0.269515 0.279206
676 2 0.179459 0.31652 0.313292
345 4 0.20405 0.307206 0.277196
677 4 0.190911 0.311636 0.291609
343 2 0.227318 0.307344 0.268045
735 4 0.19263 0.323374 0.276399
678 4 0.168006 0.321404 0.334976
344 4 0.250587 0.307482 0.258895
496 2 0.29694 0.283696 0.27092
497 4 0.296751 0.276195 0.294771
377 4 0.279395 0.269634 0.304924
498 4 0.297129 0.291197 0.247069
376 2 0.283449 0.255657 0.325256
615 4 0.365431 0.329966 0.331176
420 4 0.429292 0.276948 0.337288
418 2 0.446921 0.259916 0.332359
365 4 0.0265678 0.363385 0.284754
601 2 0.0570083 0.374876 0.308023
603 4 0.0459025 0.36627 0.287341
602 4 0.0681141 0.383483 0.328706
364 2 0.00254907 0.36139 0.29141
549 4 0.0706911 0.402672 0.325996
299 4 0.14708 0.364573 0.243849
300 4 0.0993709 0.349806 0.2464
298 2 0.123225 0.35719 0.245124
733 2 0.176491 0.337081 0.263102
433 2 0.287834 0.367941 0.309603
435 4 0.26401 0.373637 0.314619
434 4 0.311658 0.362246 0.304586
614 4 0.321861 0.350498 0.317731
445 2 0.403128 0.382112 0.234147
613 2 0.343646 0.340232 0.324453
446 4 0.380087 0.38123 0.243818
2463 4 0.988483 0.476275 0.323206
2461 2 0.00541654 0.494313 0.326816
777 4 0.121859 0.497155 0.276731
775 2 0.111315 0.496519 0.299394
776 4 0.100771 0.495882 0.322056
1435 2 0.242857 0.46728 0.329358
1436 4 0.222545 0.468507 0.314829
413 4 0.224127 0.482954 0.300797
3 3 0.316399 0.467824 0.32851
437 4 0.382383 0.474941 0.33599
436 2 0.357545 0.477408 0.337453
438 4 0.332706 0.479874 0.338916
1803 4 0.365628 0.490786 0.273304
119 3 0.499988 0.453663 0.319391
367 2 0.0699943 0.00820564 0.401585
369 4 0.045907 0.00564029 0.395389
719 4 0.037019 0.00831223 0.41287
1781 4 0.111623 0.00335358 0.415077
368 4 0.0940817 0.010771 0.407782
732 4 0.091116 0.0793354 0.341453
730 2 0.110362 0.0721461 0.355705
731 4 0.129607 0.0649568 0.369956
606 4 0.144279 0.0774527 0.372815
1700 4 0.310352 0.0553703 0.351755
1701 4 0.32048 0.029748 0.393487
1699 2 0.315416 0.0425591 0.372621
425 4 0.330475 0.0207251 0.408398
441 4 0.311923 0.0180903 0.405928
698 4 0.386809 0.0403168 0.34859
426 4 0.380273 0.0221633 0.412726
424 2 0.355374 0.0214442 0.410562
257 4 0.404932 0.038394 0.358603
726 4 0.401377 0.0645239 0.427004
256 2 0.419568 0.0326899 0.33915
2584 2 0.0150323 0.125595 0.363258
397 2 0.0679634 0.107355 0.347523
398 4 0.0497078 0.117076 0.361573
2586 4 0.0367364 0.127216 0.375566
458 4 0.0361066 0.140737 0.388147
457 2 0.0416848 0.157236 0.406088
399 4 0.086219 0.0976338 0.333473
598 2 0.12801 0.158533 0.353306
600 4 0.123714 0.135484 0.34462
604 2 0.167796 0.0788421 0.364436
605 4 0.191313 0.0802316 0.356058
248 4 0.204463 0.095207 0.351161
247 2 0.224547 0.108513 0.344471
683 4 0.238176 0.0924316 0.38367
403 2 0.264334 0.154419 0.346252
682 2 0.260249 0.103786 0.386674
319 2 0.308275 0.133399 0.402677
684 4 0.282323 0.11514 0.389678
321 4 0.324471 0.151847 0.397933
320 4 0.292079 0.11495 0.407421
725 4 0.408108 0.0989701 0.391382
724 2 0.404743 0.081747 0.409193
388 2 0.116748 0.236568 0.337965
599 4 0.132306 0.181583 0.361993
686 4 0.133559 0.176812 0.381497
685 2 0.126674 0.19096 0.400929
275 4 0.149249 0.183897 0.351013
687 4 0.119788 0.205107 0.420361
472 2 0.238893 0.203357 0.34915
474 4 0.214771 0.209026 0.34581
276 4 0.197199 0.197956 0.349049
274 2 0.173224 0.190926 0.350031
405 4 0.266596 0.178882 0.350901
473 4 0.263015 0.197689 0.352489
715 2 0.400499 0.179686 0.353659
466 2 0.379047 0.198454 0.405409
716 4 0.393574 0.196638 0.370684
467 4 0.381237 0.208155 0.382469
269 4 0.476458 0.230167 0.33717
270 4 0.482922 0.221505 0.385995
452 4 0.467319 0.21636 0.398528
268 2 0.47969 0.225836 0.361582
618 4 0.0609149 0.320168 0.390933
616 2 0.0821117 0.30926 0.383391
390 4 0.132959 0.255444 0.335502
617 4 0.103309 0.298352 0.375848
374 4 0.105615 0.300389 0.357257
373 2 0.128811 0.308168 0.352097
375 4 0.152006 0.315947 0.346937
509 4 0.253358 0.315728 0.382493
378 4 0.287502 0.24168 0.345588
508 2 0.262292 0.326918 0.361996
488 4 0.339013 0.269905 0.41052
510 4 0.271226 0.338109 0.341499
541 2 0.400271 0.305454 0.330531
543 4 0.378435 0.315344 0.323419
419 4 0.464551 0.242885 0.327429
542 4 0.422106 0.295565 0.337643
347 4 0.0506566 0.33743 0.384441
346 2 0.0373079 0.358522 0.382977
348 4 0.0239592 0.379613 0.381512
668 4 0.318294 0.388402 0.40667
336 4 0.329154 0.37172 0.40378
334 2 0.353902 0.37096 0.407259
752 4 0.47716 0.399456 0.382878
561 4 0.485524 0.397473 0.401581
547 2 0.08506 0.418257 0.339255
407 4 0.104665 0.442863 0.371522
548 4 0.0994288 0.433843 0.352514
406 2 0.112833 0.445927 0.394955
408 4 0.121001 0.44899 0.418387
1437 4 0.263169 0.466052 0.343887
5 3 0.290836 0.495368 0.33086
1 1 0.306603 0.483643 0.342374
4 3 0.296903 0.473205 0.360687
2 3 0.322871 0.498106 0.349811
593 4 0.396899 0.461581 0.383048
588 4 0.406546 0.460896 0.399914
751 2 0.490389 0.415663 0.369186
592 2 0.410857 0.468424 0.363464
714 4 0.486306 0.460074 0.337057
712 2 0.463365 0.46986 0.335294
117 3 0.495447 0.453211 0.356699
594 4 0.424815 0.475268 0.343881
713 4 0.440424 0.479647 0.33353
720 4 0.00145206 0.0127105 0.447746
718 2 0.0192355 0.0105113 0.430308
962 4 0.316847 0.0229046 0.423499
961 2 0.311879 0.0343247 0.44518
963 4 0.306911 0.0457449 0.466862
432 4 0.308804 0.0585623 0.483052
1218 4 0.445015 0.0584539 0.50619
459 4 0.047263 0.173734 0.424029
640 2 0.475461 0.126692 0.453992
641 4 0.45692 0.142125 0.460567
260 4 0.0601654 0.176366 0.439371
259 2 0.0812087 0.187859 0.43228
261 4 0.102252 0.199352 0.425189
1035 4 0.107784 0.215737 0.433192
1033 2 0.105364 0.233505 0.450617
489 4 0.335464 0.232536 0.443561
468 4 0.376857 0.188753 0.42835
514 2 0.412125 0.196966 0.453662
411 4 0.345163 0.229009 0.461419
516 4 0.388744 0.191913 0.460939
409 2 0.359209 0.209597 0.454273
410 4 0.373255 0.190185 0.447127
575 4 0.386672 0.189766 0.480647
451 2 0.451352 0.204438 0.41363
515 4 0.435507 0.202018 0.446386
453 4 0.435384 0.192517 0.428733
585 4 0.485143 0.218703 0.446782
2847 4 0.0217003 0.324511 0.462194
1034 4 0.102944 0.251272 0.468042
1258 2 0.113663 0.285015 0.474349
1259 4 0.125604 0.305853 0.467395
9 3 0.117113 0.324172 0.465876
696 4 0.0921326 0.264161 0.498693
1260 4 0.101721 0.264177 0.481303
487 2 0.337239 0.251221 0.427041
266 4 0.360515 0.240681 0.468165
267 4 0.364244 0.286986 0.486674
265 2 0.36238 0.263833 0.477419
583 2 0.487321 0.236439 0.464271
584 4 0.489499 0.254176 0.48176
2845 2 0.00198435 0.339554 0.465382
326 4 0.0571332 0.3827 0.456579
325 2 0.0782914 0.377012 0.468627
10 3 0.137434 0.348181 0.445181
6 1 0.129133 0.34402 0.465975
7 3 0.115097 0.361183 0.472104
327 4 0.0994496 0.371324 0.480675
709 2 0.153255 0.403279 0.476095
8 3 0.146496 0.342689 0.481311
711 4 0.134467 0.416245 0.465894
503 4 0.214535 0.357 0.444477
504 4 0.185795 0.38605 0.4733
502 2 0.200165 0.371525 0.458888
710 4 0.172042 0.390312 0.486296
667 2 0.310745 0.406953 0.421639
669 4 0.303197 0.425504 0.436607
882 4 0.37267 0.362814 0.506588
335 4 0.378651 0.3702 0.410739
238 2 0.404037 0.390834 0.429157
240 4 0.397504 0.36899 0.418896
239 4 0.41057 0.412679 0.439419
3307 2 0.505056 0.392905 0.483459
1381 2 0.00508819 0.489718 0.469814
1383 4 0.00317452 0.467114 0.459299
680 4 0.99591 0.452994 0.44585
570 4 0.156421 0.500258 0.445988
569 4 0.129696 0.460665 0.431191
382 2 0.113624 0.431533 0.450132
384 4 0.115224 0.411283 0.464711
568 2 0.143059 0.480461 0.438589
383 4 0.112023 0.451783 0.435553
1544 4 0.224824 0.499297 0.443858
1556 4 0.23556 0.514976 0.443884
774 4 0.307783 0.435808 0.453788
1555 2 0.259935 0.512962 0.438689
772 2 0.311797 0.430163 0.477813
634 2 0.298526 0.467898 0.434473
1557 4 0.28431 0.510948 0.433493
636 4 0.292286 0.491996 0.432126
635 4 0.304766 0.443799 0.436819
773 4 0.315812 0.424518 0.501838
663 4 0.443633 0.473174 0.451433
661 2 0.463124 0.480116 0.465471
587 4 0.409189 0.433105 0.441404
586 2 0.407868 0.447001 0.420659
342 4 0.216833 0.0770766 0.515115
340 2 0.218587 0.0532798 0.507644
341 4 0.220341 0.0294829 0.500173
2430 4 0.209885 0.0129805 0.506146
1152 4 0.202937 0.0823739 0.527937
1150 2 0.211931 0.0856152 0.55104
1151 4 0.220925 0.0888565 0.574144
2428 2 0.195174 0.00361915 0.524066
430 2 0.316933 0.0750202 0.50003
431 4 0.325062 0.0914781 0.517007
1216 2 0.420132 0.0606481 0.50729
1217 4 0.395249 0.0628423 0.50839
842 4 0.389726 0.0736789 0.525211
3007 2 0.494616 0.0575663 0.570182
3009 4 0.508095 0.0738421 0.556817
1128 4 0.00740905 0.113583 0.600052
1058 4 0.128399 0.110606 0.527367
1057 2 0.122302 0.115242 0.551169
1059 4 0.116204 0.119878 0.57497
1155 4 0.133007 0.129331 0.578684
1181 4 0.21117 0.166445 0.574405
1180 2 0.229979 0.160929 0.558881
1032 4 0.237127 0.0901425 0.586742
1182 4 0.248787 0.155412 0.543358
900 4 0.267048 0.149821 0.537211
843 4 0.342826 0.0910322 0.525312
841 2 0.366276 0.0823555 0.525261
3159 4 0.484505 0.167235 0.573375
1199 4 0.0301915 0.205542 0.569342
1198 2 0.00610679 0.210087 0.564397
878 4 0.0372943 0.221206 0.580862
1244 4 0.0314212 0.238671 0.574566
470 4 0.0103486 0.174521 0.519099
1271 4 0.115079 0.155651 0.576041
796 2 0.240752 0.244714 0.56483
858 4 0.187815 0.232596 0.510778
798 4 0.217342 0.245072 0.556056
856 2 0.210429 0.242289 0.506324
898 2 0.274803 0.173068 0.532248
650 4 0.28981 0.210515 0.514041
899 4 0.282558 0.196315 0.527285
649 2 0.28961 0.234519 0.52104
576 4 0.400051 0.166752 0.52298
574 2 0.393361 0.178259 0.501814
1243 2 0.0348088 0.261909 0.583151
982 2 0.0258157 0.318778 0.578544
695 4 0.0421453 0.262867 0.49925
694 2 0.067139 0.263514 0.498971
857 4 0.233042 0.251982 0.50187
947 4 0.200495 0.256451 0.556035
946 2 0.186897 0.269206 0.572696
797 4 0.264163 0.244356 0.573604
651 4 0.28941 0.258522 0.52804
791 4 0.270401 0.261712 0.567199
790 2 0.283122 0.278799 0.58029
872 4 0.370354 0.261237 0.56221
871 2 0.383324 0.282612 0.561985
873 4 0.396294 0.303988 0.561759
813 4 0.397189 0.324395 0.558687
906 4 0.48491 0.315492 0.596044
953 4 0.472452 0.300417 0.595438
984 4 0.0271225 0.338454 0.56317
3354 4 0.0078028 0.341905 0.561786
1189 2 0.232328 0.364552 0.575481
1190 4 0.253585 0.356126 0.565363
803 4 0.257619 0.366151 0.54799
804 4 0.298393 0.352206 0.522618
802 2 0.278006 0.359179 0.535304
930 4 0.324035 0.366038 0.580234
928 2 0.329259 0.383021 0.562643
1239 4 0.326888 0.349467 0.569501
811 2 0.415733 0.339094 0.566764
812 4 0.434277 0.353794 0.574841
929 4 0.334484 0.400004 0.545052
881 4 0.350439 0.400364 0.53101
880 2 0.361555 0.381589 0.518799
927 4 0.428494 0.371727 0.580665
925 2 0.446614 0.388702 0.577712
1011 4 0.486354 0.368001 0.512021
3308 4 0.499639 0.381422 0.504999
926 4 0.464733 0.405677 0.574759
538 2 0.0855502 0.451279 0.577747
539 4 0.0808019 0.428411 0.586674
540 4 0.0902984 0.474147 0.56882
1160 4 0.107769 0.482285 0.569965
1159 2 0.130417 0.480809 0.580455
1161 4 0.153066 0.479333 0.590946
2244 4 0.0952497 0.48679 0.554814
1188 4 0.155945 0.460253 0.598277
1951 2 0.374479 0.492503 0.559668
1952 4 0.352789 0.491338 0.572053
1002 4 0.469495 0.424689 0.578207
1909 2 0.42998 0.489945 0.573671
2114 4 0.00460862 0.00588179 0.6052
1082 4 0.0561605 0.0609975 0.662625
1081 2 0.062072 0.077583 0.644872
823 2 0.168145 0.0321194 0.659358
825 4 0.161732 0.0515873 0.673678
824 4 0.174557 0.0126515 0.645038
1030 2 0.253649 0.0772044 0.600336
1031 4 0.27017 0.0642663 0.613931
951 4 0.289887 0.0585024 0.612441
949 2 0.304676 0.038343 0.612669
950 4 0.319465 0.0181836 0.612896
2283 4 0.385159 0.991951 0.632698
809 4 0.478551 0.0347201 0.603702
808 2 0.472206 0.0486594 0.623466
810 4 0.465862 0.0625986 0.643231
3008 4 0.481138 0.0412905 0.583547
1083 4 0.0679834 0.0941684 0.62712
938 4 0.0811678 0.102242 0.613473
1126 2 0.0296791 0.105497 0.608041
1127 4 0.0519492 0.0974098 0.61603
939 4 0.121832 0.123539 0.593632
937 2 0.1015 0.112891 0.603553
1153 2 0.151333 0.13874 0.592855
1221 4 0.168909 0.166266 0.614416
1154 4 0.169659 0.148149 0.607025
886 2 0.297282 0.162625 0.648646
887 4 0.32132 0.155748 0.648785
45 3 0.465223 0.0860241 0.646956
3424 2 0.492232 0.114423 0.654372
3425 4 0.476989 0.0966751 0.663196
877 2 0.0582492 0.211155 0.590085
879 4 0.0792042 0.201104 0.599307
1272 4 0.0984939 0.197674 0.59748
1270 2 0.106787 0.176663 0.586761
1212 4 0.211956 0.195162 0.648519
1219 2 0.183123 0.183636 0.625436
1220 4 0.197336 0.201006 0.636455
1210 2 0.232912 0.181814 0.651325
888 4 0.273243 0.169503 0.648508
1211 4 0.253867 0.168465 0.654132
1194 4 0.336799 0.161809 0.63784
1192 2 0.361058 0.164406 0.643311
1193 4 0.385317 0.167003 0.648783
983 4 0.0245089 0.299103 0.593918
1245 4 0.0381965 0.285147 0.591737
1136 4 0.158582 0.280454 0.601876
1135 2 0.152326 0.304593 0.603697
1137 4 0.146069 0.328733 0.605519
822 4 0.169897 0.298035 0.667726
948 4 0.173299 0.28196 0.589357
1064 4 0.180352 0.311264 0.677905
1238 4 0.302831 0.306824 0.57968
1237 2 0.314859 0.328146 0.57459
792 4 0.295842 0.295885 0.593382
806 4 0.313698 0.326366 0.66639
952 2 0.449626 0.293752 0.603165
954 4 0.426799 0.287086 0.610892
3123 4 0.48281 0.263037 0.656026
1039 2 0.0660786 0.385499 0.61636
1041 4 0.0462615 0.383509 0.631477
3264 4 0.0351873 0.386306 0.64716
3262 2 0.0202534 0.370568 0.659588
3240 4 0.0240839 0.401954 0.642647
1040 4 0.0858957 0.387488 0.601244
993 4 0.103927 0.379754 0.607896
897 4 0.15663 0.335617 0.592002
991 2 0.120898 0.361971 0.603322
992 4 0.137869 0.344188 0.598747
895 2 0.174051 0.353311 0.589071
1172 4 0.218789 0.38612 0.59951
1191 4 0.211072 0.372977 0.585598
896 4 0.191473 0.371005 0.58614
1171 2 0.212371 0.406341 0.612742
1206 4 0.378756 0.413124 0.605918
3238 2 0.0102555 0.422738 0.641238
1186 2 0.171435 0.444192 0.609558
1173 4 0.205953 0.426562 0.625975
1187 4 0.186926 0.428131 0.620839
1139 4 0.243984 0.467504 0.654033
1138 2 0.243719 0.450325 0.6722
891 4 0.325947 0.430767 0.597396
889 2 0.335452 0.45231 0.588986
1230 4 0.366508 0.42413 0.666066
890 4 0.344957 0.473853 0.580577
1204 2 0.393731 0.419984 0.624729
1205 4 0.408707 0.426844 0.64354
1911 4 0.445815 0.481776 0.591213
1000 2 0.464137 0.446763 0.588658
1001 4 0.458779 0.468837 0.599109
1269 4 0.450492 0.482253 0.610338
1267 2 0.456424 0.498838 0.628084
943 2 0.0618533 0.0170364 0.68088
944 4 0.0569133 0.0401081 0.689154
1076 4 0.057744 0.0578238 0.682543
1075 2 0.061463 0.075799 0.69952
4520 4 0.023884 0.00406071 0.683532
1283 4 0.15361 0.0661975 0.685039
1282 2 0.148348 0.0863034 0.69894
1284 4 0.143085 0.106409 0.712842
1147 2 0.24467 0.041074 0.7008
1148 4 0.226544 0.0506021 0.686453
1226 4 0.222969 0.0698782 0.690935
1149 4 0.262796 0.0315458 0.715147
1092 4 0.314255 0.0129954 0.687791
1004 4 0.3789 0.0751895 0.711451
42 3 0.464911 0.0538784 0.665916
41 1 0.460099 0.07635 0.666927
43 3 0.437489 0.078984 0.67143
1163 4 0.476764 0.0628002 0.683557
1162 2 0.493992 0.0516939 0.697875
864 4 0.0537341 0.0949012 0.731603
1077 4 0.0651821 0.0937742 0.716498
1107 4 0.0719064 0.103659 0.731243
851 4 0.0756649 0.109131 0.711926
850 2 0.0792961 0.128821 0.69695
862 2 0.0343013 0.092615 0.74717
852 4 0.0829274 0.148512 0.681974
1105 2 0.0905689 0.103497 0.747882
909 4 0.163611 0.132793 0.74301
907 2 0.18592 0.131815 0.731762
908 4 0.208229 0.130838 0.720513
1227 4 0.211573 0.115156 0.708844
1225 2 0.217271 0.0925173 0.699889
830 4 0.329514 0.151902 0.666345
829 2 0.337324 0.140713 0.687297
831 4 0.345134 0.129523 0.708249
1003 2 0.37218 0.0992282 0.709978
1005 4 0.365461 0.123267 0.708504
44 3 0.472721 0.0859702 0.683854
1144 2 0.49938 0.16368 0.729324
1142 4 0.459818 0.167748 0.741134
1178 4 0.000951021 0.226833 0.718807
1177 2 0.0134058 0.247264 0.711553
1072 2 0.0970346 0.218606 0.725241
1074 4 0.107314 0.24053 0.731474
1073 4 0.0867554 0.196682 0.719009
978 4 0.279199 0.18689 0.74119
1025 4 0.444131 0.182611 0.682024
1262 4 0.474118 0.195665 0.734513
1024 2 0.453599 0.182088 0.70516
1026 4 0.463067 0.181566 0.728295
1261 2 0.473193 0.218668 0.744268
1145 4 0.477846 0.175396 0.734247
1179 4 0.0258605 0.267696 0.704298
1209 4 0.134563 0.279801 0.710024
1207 2 0.121634 0.267552 0.727574
1208 4 0.108705 0.255303 0.745124
821 4 0.131304 0.296862 0.699505
820 2 0.1506 0.297449 0.683616
1063 2 0.199844 0.325031 0.670443
1065 4 0.219336 0.338799 0.66298
805 2 0.292043 0.314858 0.671267
807 4 0.270388 0.303349 0.676145
3263 4 0.00531955 0.354829 0.672017
892 2 0.0270201 0.348882 0.743273
894 4 0.0417568 0.359364 0.726006
1280 4 0.0572225 0.354433 0.713002
1279 2 0.0569632 0.379036 0.708553
816 4 0.0722103 0.347385 0.722914
1281 4 0.0567039 0.403639 0.704103
814 2 0.0917113 0.33994 0.736679
815 4 0.111212 0.332495 0.750444
1028 4 0.225901 0.378663 0.720964
1066 2 0.201237 0.363725 0.747713
1068 4 0.221791 0.363757 0.733477
1027 2 0.232713 0.396172 0.704466
1067 4 0.180682 0.363694 0.76195
1983 4 0.0535316 0.421151 0.715058
1981 2 0.0667735 0.439914 0.724948
1982 4 0.0800153 0.458676 0.734837
1140 4 0.243453 0.433147 0.690366
1029 4 0.239525 0.413681 0.687967
1987 2 0.316581 0.478928 0.720714
1989 4 0.330596 0.465737 0.704752
1228 2 0.353523 0.442642 0.676737
1229 4 0.340537 0.461154 0.687408
2991 4 0.0210941 0.0410083 0.799299
2989 2 0.0114002 0.0601153 0.78641
2990 4 0.00170634 0.0792223 0.77352
2049 4 0.131226 0.0353326 0.781596
1202 4 0.111224 0.0351787 0.776397
2047 2 0.139824 0.0146356 0.770511
1201 2 0.112186 0.0585192 0.785312
817 2 0.32197 0.0404907 0.823582
818 4 0.332672 0.0194507 0.815337
1257 4 0.247554 0.0885052 0.770157
974 4 0.344454 0.00431138 0.809311
973 2 0.368961 0.00123236 0.813192
1050 4 0.335899 9.69885e-05 0.791843
1113 4 0.408874 0.0420367 0.769361
2322 4 0.48354 0.0358005 0.769108
1111 2 0.43339 0.0458907 0.772409
845 4 0.475251 0.0553414 0.770242
1112 4 0.457906 0.0497446 0.775456
844 2 0.478073 0.0776356 0.781205
3083 4 0.99861 0.0899123 0.757762
863 4 0.0148685 0.0903287 0.762736
833 4 0.00275981 0.0983058 0.775534
832 2 0.00774642 0.116364 0.792093
834 4 0.012733 0.134422 0.808653
1125 4 0.0298133 0.143253 0.813319
1123 2 0.0421584 0.164164 0.819278
1106 4 0.109231 0.103335 0.764521
1203 4 0.113148 0.0818598 0.794226
911 4 0.103459 0.108087 0.82322
34 3 0.117058 0.101078 0.781477
31 1 0.120923 0.106348 0.803741
35 3 0.10882 0.124732 0.809589
32 3 0.114477 0.0885574 0.816821
33 3 0.143527 0.110346 0.807126
1256 4 0.264571 0.0904761 0.817138
840 4 0.255838 0.100482 0.831482
1255 2 0.256063 0.0894907 0.793648
1084 2 0.316779 0.0967649 0.814202
1086 4 0.321312 0.113418 0.79611
47 3 0.400131 0.154471 0.811001
1023 4 0.394868 0.151089 0.831181
48 3 0.401041 0.163152 0.774444
46 1 0.406096 0.170676 0.795803
846 4 0.480894 0.0999298 0.792168
1143 4 0.423408 0.16674 0.775398
1141 2 0.441613 0.167244 0.758266
1124 4 0.0545034 0.185075 0.825237
1130 4 0.129922 0.232818 0.771652
1129 2 0.153438 0.240543 0.775184
1131 4 0.176955 0.248268 0.778715
977 4 0.297585 0.220309 0.77353
918 4 0.286638 0.230375 0.785605
976 2 0.288392 0.2036 0.75736
1298 4 0.301538 0.221499 0.793276
1297 2 0.320721 0.21898 0.809114
1299 4 0.339905 0.216461 0.824952
1042 2 0.378378 0.219638 0.800034