ITEM: TIMESTEP
3160000
ITEM: NUMBER OF ATOMS
4590
ITEM: BOX BOUNDS pp pp pp
-9.9985700000000008e+00 9.9985700000000008e+00
-9.9985700000000008e+00 9.9985700000000008e+00
-9.9985700000000008e+00 9.9985700000000008e+00
ITEM: ATOMS id type xs ys zs
1667 4 0.0158976 0.0550571 0.0595487
701 4 0.030604 0.0629946 0.0703591
700 2 0.0485189 0.0801951 0.0674645
490 2 0.28025 0.0609321 0.0667921
492 4 0.284815 0.0374928 0.0593797
1475 4 0.28104 0.0249642 0.0759503
2974 2 0.463182 0.0178416 0.0272733
745 2 0.421778 0.0670199 0.0235475
747 4 0.437608 0.050245 0.0138944
2975 4 0.446889 0.0346712 0.0185279
2468 4 0.483736 7.99106e-05 0.0544158
986 4 0.432895 0.0361052 0.00252303
702 4 0.0664337 0.0973957 0.0645698
476 4 0.0745316 0.112647 0.054
475 2 0.0695533 0.135441 0.0629911
477 4 0.0645749 0.158234 0.0719822
566 4 0.196746 0.129639 0.00973824
565 2 0.214264 0.144638 7.72629e-05
491 4 0.275685 0.0843713 0.0742045
769 2 0.398478 0.152878 0.0196028
556 2 0.377365 0.0961486 0.0108832
558 4 0.389712 0.096089 0.0326253
771 4 0.39822 0.129991 0.0095382
746 4 0.405947 0.0837948 0.0332006
737 4 0.238808 0.189853 0.0370281
736 2 0.219685 0.197288 0.0513187
738 4 0.200562 0.204723 0.0656094
573 4 0.263774 0.262024 0.0495452
770 4 0.398735 0.175765 0.0296673
359 4 0.397479 0.189027 0.0155991
664 2 0.400278 0.209193 0.05472
665 4 0.400825 0.19385 0.0349852
666 4 0.399731 0.224536 0.0744548
323 4 0.405699 0.240181 0.0655499
358 2 0.387043 0.205688 0.00015019
3338 4 0.0105569 0.251513 0.996749
292 2 0.153533 0.327597 0.0353208
294 4 0.13474 0.322796 0.0195428
482 4 0.25417 0.247724 0.0612989
293 4 0.172326 0.332399 0.0510989
507 4 0.184783 0.325457 0.0581318
287 4 0.190766 0.333825 0.0412699
286 2 0.207786 0.332528 0.0229987
288 4 0.224805 0.331231 0.0047275
481 2 0.233097 0.261094 0.0628389
505 2 0.195847 0.306086 0.0694244
483 4 0.212025 0.274464 0.0643789
506 4 0.206911 0.286714 0.0807171
571 2 0.277252 0.265797 0.0288261
572 4 0.29073 0.269571 0.00810694
357 4 0.30935 0.273111 0.00274788
355 2 0.319624 0.295829 0.00462593
623 4 0.388239 0.240736 0.0732432
956 4 0.331377 0.335255 0.01531
1069 2 0.40571 0.316383 0.0351809
322 2 0.414812 0.261489 0.056163
324 4 0.423926 0.282796 0.0467762
1070 4 0.419056 0.295298 0.0336116
280 2 0.453928 0.303991 0.0536566
282 4 0.439308 0.290027 0.0389451
281 4 0.468549 0.317955 0.0683681
671 4 0.463514 0.328448 0.0859316
329 4 0.00212287 0.400484 0.0746143
552 4 0.171972 0.333037 0.0696284
456 4 0.196798 0.391515 0.0633085
454 2 0.189997 0.367741 0.0595998
455 4 0.183197 0.343968 0.0558911
1290 4 0.274494 0.411243 0.044859
1288 2 0.284611 0.393312 0.0306711
1289 4 0.294728 0.375381 0.0164832
251 4 0.262164 0.427227 0.0505694
903 4 0.289809 0.370866 0.998363
955 2 0.352796 0.339485 0.0274962
1071 4 0.392363 0.337468 0.0367501
957 4 0.374215 0.343715 0.0396824
741 4 0.386315 0.344267 0.0547083
739 2 0.391614 0.347854 0.0788793
1787 4 0.1063 0.49928 0.0551445
1786 2 0.0987509 0.478717 0.0672011
1690 2 0.111926 0.503782 0.0130976
626 4 0.193047 0.475502 0.0515833
625 2 0.177583 0.494468 0.0567119
245 4 0.189772 0.45886 0.0409568
244 2 0.212531 0.449032 0.0442162
246 4 0.23529 0.439204 0.0474755
250 2 0.262149 0.428083 0.0755583
272 4 0.252899 0.438916 0.0371442
271 2 0.26456 0.442995 0.0154056
1672 2 0.410272 0.437503 0.0808082
853 2 0.396129 0.43727 0.0231547
854 4 0.41 0.439443 0.043844
855 4 0.382257 0.435098 0.00246553
37 3 0.363391 0.422965 0.00211732
1674 4 0.422737 0.440179 0.0592989
564 4 0.427796 0.447268 0.0416326
563 4 0.468774 0.472034 0.0272065
562 2 0.448285 0.459651 0.0344195
228 4 0.486868 0.481175 0.0269115
19 3 0.0604929 0.0187901 0.16271
16 1 0.0672991 0.998608 0.171916
582 4 0.240091 0.079152 0.154031
580 2 0.256395 0.0636586 0.164953
1760 4 0.504043 0.0648872 0.137636
486 4 0.434267 0.99595 0.116257
1759 2 0.511147 0.0470206 0.121651
2724 4 0.486902 0.072355 0.139507
2744 4 0.49736 0.0652685 0.155627
237 4 0.228554 0.0830431 0.168977
312 4 0.364439 0.129128 0.161539
628 2 0.382335 0.166505 0.166384
629 4 0.379225 0.142912 0.158709
310 2 0.357834 0.106668 0.17032
2722 2 0.477442 0.0953732 0.141924
2723 4 0.467981 0.118391 0.14434
391 2 0.0411133 0.194885 0.161853
392 4 0.0546791 0.215388 0.16641
536 4 0.182804 0.249385 0.118661
460 2 0.321433 0.224241 0.11368
461 4 0.300889 0.210652 0.109386
354 4 0.289792 0.206188 0.125653
352 2 0.277196 0.217215 0.144225
353 4 0.264601 0.228242 0.162797
630 4 0.385445 0.190097 0.17406
462 4 0.341977 0.237831 0.117974
255 4 0.355818 0.234018 0.132631
253 2 0.366528 0.214903 0.144676
622 2 0.374462 0.239881 0.0940913
624 4 0.360685 0.239026 0.114939
765 4 0.351024 0.25154 0.127795
537 4 0.215507 0.280931 0.0977775
535 2 0.199156 0.265158 0.108219
754 2 0.235817 0.261591 0.164848
756 4 0.225889 0.284475 0.166562
301 2 0.318736 0.317342 0.144533
303 4 0.315909 0.297299 0.159212
764 4 0.325429 0.28066 0.15938
763 2 0.338227 0.2661 0.143588
12 3 0.417331 0.327919 0.123042
527 4 0.478465 0.316977 0.0843541
647 4 0.0486626 0.35846 0.151113
315 4 0.998656 0.405386 0.127278
550 2 0.155864 0.337301 0.0882704
551 4 0.139756 0.341565 0.106912
302 4 0.321563 0.337385 0.129854
387 4 0.330651 0.355069 0.122683
385 2 0.355118 0.356468 0.117723
493 2 0.394288 0.392304 0.108238
495 4 0.393715 0.367687 0.112582
386 4 0.379584 0.357868 0.112763
15 3 0.383986 0.344664 0.123832
740 4 0.396913 0.351441 0.10305
14 3 0.414703 0.364514 0.114882
11 1 0.406195 0.347413 0.128057
13 3 0.409435 0.352342 0.150498
672 4 0.421151 0.345871 0.105995
670 2 0.442332 0.33716 0.0959635
1788 4 0.0912013 0.458155 0.0792576
1791 4 0.0564212 0.502376 0.118086
1465 2 0.0645358 0.466778 0.10747
1466 4 0.0494714 0.48265 0.119565
1467 4 0.0796002 0.450905 0.0953741
638 4 0.208104 0.487579 0.15622
637 2 0.184099 0.491391 0.150352
639 4 0.160095 0.495204 0.144484
252 4 0.262135 0.428938 0.100547
609 4 0.279561 0.438186 0.104075
607 2 0.302137 0.430333 0.111414
608 4 0.324713 0.422481 0.118753
659 4 0.332678 0.435265 0.105798
494 4 0.39486 0.416921 0.103894
660 4 0.382268 0.432419 0.111574
1673 4 0.397807 0.434828 0.102318
658 2 0.357473 0.433842 0.108686
524 4 0.408473 0.494257 0.127911
523 2 0.399397 0.471794 0.121729
525 4 0.390321 0.449331 0.115547
2480 4 0.0350551 0.00574255 0.186598
2479 2 0.0278153 0.0270404 0.197514
380 4 0.0244225 0.0652598 0.218306
2481 4 0.0205755 0.0483382 0.20843
379 2 0.0263653 0.0899298 0.214729
578 4 0.0815174 0.0223926 0.175284
20 3 0.0862022 0.00167089 0.184242
577 2 0.0981495 0.0393757 0.183039
579 4 0.114782 0.0563588 0.190793
674 4 0.155213 0.0121499 0.235409
450 4 0.126511 0.0718118 0.18541
448 2 0.151334 0.0726973 0.182541
673 2 0.134149 0.00350567 0.245741
1504 2 0.236032 0.0059055 0.192427
235 2 0.207405 0.0826427 0.182309
236 4 0.186256 0.0822422 0.195641
689 4 0.162258 0.994947 0.228921
581 4 0.2727 0.0481652 0.175875
1506 4 0.254784 0.0214798 0.186863
654 4 0.262915 0.0391949 0.192694
652 2 0.272297 0.0458861 0.214883
653 4 0.28168 0.0525773 0.237072
758 4 0.337876 0.0703271 0.184388
759 4 0.360591 0.0622484 0.228199
757 2 0.349234 0.0662877 0.206293
350 4 0.371925 0.0578517 0.237412
349 2 0.396616 0.0542101 0.235915
22 3 0.356255 0.0545354 0.246609
311 4 0.351228 0.0842087 0.179102
632 4 0.357106 0.0704622 0.245015
480 4 0.437936 0.0455046 0.243686
351 4 0.421308 0.0505685 0.234419
743 4 0.496888 0.0796917 0.249908
2743 2 0.499358 0.0547146 0.178206
513 4 0.0366285 0.160729 0.169165
511 2 0.0280927 0.140886 0.181758
512 4 0.0195569 0.121043 0.19435
381 4 0.0283081 0.1146 0.211152
449 4 0.176156 0.0735827 0.179671
30 3 0.326988 0.135049 0.234141
26 1 0.346904 0.144936 0.239066
28 3 0.356194 0.154032 0.219846
761 4 0.399638 0.134681 0.21626
521 4 0.465647 0.14671 0.211576
762 4 0.44925 0.136271 0.210191
760 2 0.424444 0.135476 0.213225
332 4 0.464847 0.130371 0.221239
331 2 0.472554 0.108339 0.230204
520 2 0.481936 0.164434 0.204816
333 4 0.480262 0.0863073 0.239169
2483 4 0.00418155 0.238365 0.220739
393 4 0.0275475 0.174381 0.157295
337 2 0.0705659 0.246357 0.183026
396 4 0.0166791 0.237527 0.235766
339 4 0.069673 0.229195 0.164864
546 4 0.0921395 0.24184 0.220759
544 2 0.113219 0.244474 0.233945
755 4 0.245745 0.238707 0.163133
279 4 0.269886 0.214472 0.218165
277 2 0.264981 0.226395 0.196742
278 4 0.260077 0.238318 0.175318
254 4 0.377238 0.195788 0.156721
394 2 0.0289945 0.257397 0.226896
395 4 0.0413099 0.277268 0.218026
338 4 0.0714588 0.263518 0.201189
363 4 0.0601978 0.276695 0.209567
361 2 0.0648653 0.300265 0.202651
362 4 0.0695328 0.323836 0.195735
372 4 0.0875869 0.327951 0.196499
733 2 0.147621 0.333884 0.24177
545 4 0.134299 0.247107 0.247132
612 4 0.208038 0.294812 0.165538
611 4 0.214584 0.312507 0.211849
610 2 0.211311 0.303659 0.188694
344 4 0.217702 0.316373 0.232468
343 2 0.197166 0.311216 0.245767
284 4 0.274882 0.24654 0.167574
285 4 0.307569 0.284357 0.166108
283 2 0.291226 0.265448 0.166841
729 4 0.303608 0.299956 0.176012
727 2 0.289569 0.315841 0.189269
308 4 0.319975 0.290135 0.176354
728 4 0.275529 0.331726 0.202526
498 4 0.341197 0.291931 0.22933
307 2 0.33445 0.28527 0.196152
309 4 0.348926 0.280406 0.21595
749 4 0.0598668 0.334588 0.208209
648 4 0.0715418 0.342119 0.192467
748 2 0.0624355 0.351991 0.225977
646 2 0.0601022 0.35029 0.17179
750 4 0.0650042 0.369394 0.243746
370 2 0.10977 0.33676 0.203947
371 4 0.131953 0.34557 0.211395
734 4 0.130722 0.347972 0.229888
417 4 0.136076 0.362716 0.224538
299 4 0.131955 0.365885 0.242423
415 2 0.148201 0.376371 0.207459
298 2 0.107753 0.370111 0.247069
300 4 0.083551 0.374338 0.251716
416 4 0.160326 0.390027 0.19038
290 4 0.205024 0.424132 0.178506
289 2 0.189009 0.405036 0.176496
291 4 0.172993 0.38594 0.174487
445 2 0.382041 0.378955 0.242791
447 4 0.405664 0.385786 0.238267
446 4 0.358418 0.372125 0.247315
596 4 0.497508 0.39695 0.155396
595 2 0.486883 0.390648 0.177134
644 4 0.421136 0.390018 0.226719
643 2 0.445296 0.386247 0.221498
645 4 0.469456 0.382477 0.216277
597 4 0.476258 0.384346 0.198873
264 4 0.00438365 0.440671 0.280316
767 4 0.220605 0.478686 0.168092
766 2 0.222874 0.454345 0.17334
768 4 0.225143 0.430004 0.178588
412 2 0.240487 0.489167 0.236851
414 4 0.23586 0.488306 0.212294
1574 4 0.283709 0.506954 0.211841
2756 4 0.999927 0.0573006 0.311636
234 4 0.00378802 0.0467295 0.296208
232 2 0.0275346 0.0389067 0.295919
233 4 0.0512812 0.0310839 0.29563
317 4 0.0633639 0.0260509 0.308998
1404 4 0.0629223 0.0142988 0.294042
1402 2 0.0790111 0.00365113 0.278137
428 4 0.0583796 0.00871554 0.313888
316 2 0.0747027 0.0416459 0.324917
318 4 0.0860416 0.057241 0.340836
693 4 0.319607 0.0638426 0.261472
691 2 0.303342 0.0768003 0.275354
24 3 0.328345 0.0495175 0.271277
25 3 0.340632 0.0208327 0.250209
21 1 0.346887 0.0396404 0.261426
23 3 0.362592 0.0343241 0.277657
479 4 0.451326 0.0446609 0.29186
478 2 0.444631 0.0450827 0.267773
2664 4 0.468303 0.0322079 0.296887
1428 4 0.449944 0.0302999 0.300571
258 4 0.440595 0.0446823 0.309156
2662 2 0.491075 0.0423538 0.298802
256 2 0.431547 0.0622858 0.324435
1426 2 0.443649 0.0082305 0.310496
403 2 0.227709 0.155659 0.322352
404 4 0.241049 0.136855 0.332029
692 4 0.287076 0.0897579 0.289236
721 2 0.258444 0.109101 0.30734
723 4 0.267077 0.0945435 0.288936
722 4 0.249811 0.123658 0.325745
27 3 0.343427 0.161785 0.254336
29 3 0.36142 0.129349 0.248269
631 2 0.357474 0.093678 0.254292
707 4 0.3585 0.132379 0.266952
633 4 0.357842 0.116894 0.263569
706 2 0.35772 0.135027 0.291802
708 4 0.356939 0.137675 0.316653
444 4 0.0246554 0.226363 0.298816
442 2 0.0187257 0.235195 0.276188
443 4 0.0127959 0.244026 0.253561
600 4 0.101564 0.213904 0.332684
405 4 0.214369 0.174463 0.312676
473 4 0.220126 0.193824 0.318147
418 2 0.403919 0.255973 0.320205
419 4 0.415365 0.237815 0.333029
269 4 0.410078 0.223355 0.345923
402 4 0.136037 0.258295 0.26399
735 4 0.164519 0.319797 0.253651
375 4 0.155446 0.325993 0.324946
400 2 0.146556 0.280724 0.260601
676 2 0.163316 0.32647 0.292558
677 4 0.164831 0.311524 0.272571
401 4 0.157076 0.303152 0.257213
345 4 0.176631 0.30606 0.259066
378 4 0.282882 0.28137 0.300693
376 2 0.304747 0.293115 0.297668
377 4 0.326613 0.304859 0.294642
615 4 0.340955 0.316327 0.30083
497 4 0.337566 0.295407 0.279084
496 2 0.339381 0.293669 0.254207
541 2 0.360442 0.288288 0.309596
542 4 0.379703 0.278493 0.322175
543 4 0.341182 0.298084 0.297016
420 4 0.392473 0.274131 0.307381
2537 4 0.478902 0.312903 0.315281
364 2 0.00112503 0.392182 0.285121
365 4 0.025177 0.398872 0.286505
603 4 0.0313192 0.402087 0.305369
601 2 0.0452681 0.401941 0.32612
678 4 0.1618 0.341416 0.312545
510 4 0.169798 0.358554 0.31217
508 2 0.185335 0.378096 0.313558
509 4 0.200871 0.397638 0.314946
434 4 0.313399 0.371458 0.316607
433 2 0.306636 0.39539 0.3192
613 2 0.335663 0.338339 0.311443
614 4 0.330372 0.36035 0.322057
1757 4 0.024235 0.436024 0.277868
1756 2 0.0461178 0.447331 0.273571
1758 4 0.0680005 0.458639 0.269274
1775 4 0.0820659 0.470514 0.278551
775 2 0.0626412 0.483318 0.314545
776 4 0.048793 0.483157 0.335363
777 4 0.0764895 0.483479 0.293727
1776 4 0.129368 0.457385 0.288082
1774 2 0.105717 0.463949 0.283316
413 4 0.245114 0.490028 0.261407
1436 4 0.249063 0.470211 0.261864
1435 2 0.254782 0.457314 0.282506
4 3 0.250291 0.423644 0.307152
1437 4 0.260502 0.444416 0.303149
3 3 0.271625 0.450566 0.323415
1 1 0.264166 0.428656 0.325062
436 2 0.311136 0.450411 0.322398
438 4 0.290493 0.436304 0.322441
2 3 0.282335 0.414557 0.324567
435 4 0.299873 0.419321 0.321794
437 4 0.331779 0.464519 0.322355
1801 2 0.362686 0.480032 0.312964
1802 4 0.337722 0.481387 0.312543
1803 4 0.387649 0.478677 0.313384
119 3 0.485894 0.461824 0.32861
732 4 0.0973462 0.0724061 0.335546
730 2 0.121195 0.0736927 0.342945
731 4 0.145044 0.0749792 0.350344
606 4 0.158299 0.0745263 0.365003
604 2 0.17991 0.0859652 0.370229
257 4 0.422499 0.0798894 0.339713
699 4 0.385403 0.0521633 0.374932
1699 2 0.364585 0.0196108 0.378379
1700 4 0.374664 0.0379781 0.364731
697 2 0.401433 0.0697469 0.367249
698 4 0.417463 0.0873305 0.359566
397 2 0.0726614 0.0944708 0.356311
398 4 0.060233 0.115585 0.3613
2584 2 0.022765 0.123827 0.352777
2586 4 0.0452998 0.128331 0.36263
458 4 0.0450351 0.147677 0.367648
457 2 0.0444907 0.158813 0.390028
399 4 0.0850898 0.0733564 0.351322
605 4 0.201521 0.0974041 0.375454
248 4 0.216798 0.106656 0.384046
247 2 0.228747 0.113884 0.363306
249 4 0.240697 0.121113 0.342566
683 4 0.257811 0.129547 0.341617
682 2 0.277844 0.143166 0.347811
684 4 0.297876 0.156786 0.354006
319 2 0.331783 0.156649 0.339147
320 4 0.309994 0.168275 0.343049
321 4 0.353573 0.145023 0.335244
726 4 0.402546 0.143399 0.402558
717 4 0.363543 0.144569 0.352177
715 2 0.374992 0.147445 0.374218
716 4 0.386441 0.150321 0.39626
467 4 0.404435 0.161795 0.398923
724 2 0.416956 0.123391 0.406705
725 4 0.431367 0.103382 0.410851
642 4 0.501836 0.108234 0.381925
641 4 0.456612 0.129198 0.377922
640 2 0.479224 0.118716 0.379924
459 4 0.0439464 0.169948 0.412408
598 2 0.115669 0.217072 0.353086
599 4 0.129773 0.220241 0.373487
389 4 0.136233 0.249359 0.385156
686 4 0.13076 0.231971 0.390277
685 2 0.115826 0.225705 0.409327
275 4 0.14403 0.230834 0.3795
274 2 0.166588 0.220483 0.376469
474 4 0.202767 0.215262 0.359857
472 2 0.211446 0.204543 0.339002
276 4 0.189146 0.210133 0.373438
268 2 0.433484 0.214653 0.347183
270 4 0.456891 0.205952 0.348443
452 4 0.473092 0.199328 0.360423
451 2 0.475803 0.204982 0.384628
453 4 0.478513 0.210635 0.408832
347 4 0.0506734 0.311227 0.381964
346 2 0.0310804 0.310619 0.397486
618 4 0.0636572 0.305524 0.367015
348 4 0.0114873 0.31001 0.413008
2802 4 0.994405 0.299738 0.408006
373 2 0.141921 0.313015 0.341495
388 2 0.127188 0.271988 0.379561
616 2 0.0884761 0.308112 0.365433
390 4 0.118143 0.294617 0.373967
617 4 0.113295 0.3107 0.36385
374 4 0.128396 0.300038 0.358043
488 4 0.370807 0.290316 0.403526
602 4 0.0592169 0.401796 0.34687
549 4 0.0720155 0.389952 0.358749
547 2 0.0802609 0.407534 0.374499
240 4 0.338621 0.373345 0.387551
335 4 0.328954 0.383298 0.402016
238 2 0.353857 0.388158 0.374375
239 4 0.369094 0.402971 0.361198
587 4 0.373147 0.41252 0.343311
752 4 0.469921 0.390091 0.384668
561 4 0.465203 0.369837 0.383046
751 2 0.479089 0.408148 0.370003
559 2 0.480403 0.363825 0.401967
500 4 0.0373277 0.469217 0.346244
499 2 0.0532995 0.462538 0.364284
501 4 0.0692713 0.455858 0.382325
407 4 0.0812315 0.443502 0.393965
548 4 0.0885062 0.425116 0.390248
406 2 0.0911992 0.458119 0.411633
568 2 0.136182 0.489775 0.422497
1555 2 0.235536 0.48259 0.38563
1557 4 0.247873 0.460953 0.387815
5 3 0.252929 0.425726 0.344653
586 2 0.378674 0.436902 0.343721
593 4 0.394775 0.471002 0.33069
588 4 0.384201 0.461284 0.344131
592 2 0.411683 0.485202 0.342423
713 4 0.446826 0.500823 0.359295
594 4 0.428591 0.499402 0.354156
712 2 0.464379 0.48392 0.353697
714 4 0.481933 0.467016 0.3481
753 4 0.488256 0.426206 0.355338
117 3 0.48709 0.447604 0.363381
367 2 0.079635 0.00556305 0.441091
720 4 0.00459166 0.0127547 0.448789
718 2 0.0256254 0.999246 0.449318
1781 4 0.120084 0.00438473 0.423815
368 4 0.101333 0.00840842 0.428996
341 4 0.214771 0.998673 0.499368
342 4 0.214153 0.0481889 0.506331
340 2 0.214462 0.0234308 0.50285
963 4 0.314471 0.0486007 0.430541
432 4 0.324127 0.0629743 0.44321
430 2 0.32922 0.0647793 0.467623
961 2 0.322053 0.0272761 0.419913
431 4 0.334314 0.0665844 0.492035
1216 2 0.424547 0.0650389 0.504086
1218 4 0.447392 0.0743804 0.500083
260 4 0.0566394 0.184133 0.417492
259 2 0.0701752 0.201813 0.428866
261 4 0.083711 0.219494 0.44024
687 4 0.100892 0.21944 0.428377
1035 4 0.0988532 0.22963 0.444432
1033 2 0.106417 0.249243 0.457971
466 2 0.411321 0.178706 0.416005
409 2 0.410294 0.23062 0.446205
411 4 0.399544 0.25319 0.445781
468 4 0.418206 0.195618 0.433086
410 4 0.421044 0.208049 0.446629
574 2 0.421112 0.193931 0.486769
515 4 0.479874 0.206788 0.427542
575 4 0.423448 0.198003 0.46221
516 4 0.434218 0.197235 0.445569
514 2 0.457046 0.202012 0.436556
1034 4 0.113981 0.268855 0.471511
696 4 0.109938 0.276649 0.488789
1260 4 0.127314 0.280366 0.478899
1258 2 0.130268 0.304357 0.472507
1259 4 0.133222 0.328349 0.466114
9 3 0.154875 0.325948 0.420229
503 4 0.143713 0.332964 0.476165
487 2 0.375954 0.275456 0.422965
489 4 0.381101 0.260595 0.442403
266 4 0.38842 0.261051 0.459611
265 2 0.39385 0.273572 0.480561
267 4 0.399279 0.286093 0.501512
3308 4 0.48153 0.32784 0.480076
1011 4 0.467669 0.316737 0.469954
1009 2 0.461347 0.298697 0.486071
326 4 0.0860659 0.360041 0.474202
7 3 0.146492 0.331655 0.45642
6 1 0.149906 0.342047 0.436184
327 4 0.126989 0.342626 0.451339
325 2 0.106527 0.351334 0.462771
10 3 0.131017 0.353299 0.430249
709 2 0.150912 0.401453 0.49551
8 3 0.167632 0.356876 0.438262
502 2 0.154839 0.348269 0.492509
334 2 0.318406 0.384824 0.424635
336 4 0.307859 0.38635 0.447253
668 4 0.299834 0.395015 0.462277
882 4 0.31772 0.390144 0.464689
880 2 0.330481 0.383236 0.485051
560 4 0.495603 0.357813 0.420888
3307 2 0.489623 0.338516 0.458964
1383 4 0.0019551 0.46264 0.472746
1381 2 0.997675 0.487258 0.471856
384 4 0.138433 0.440796 0.478712
383 4 0.110565 0.459812 0.4418
711 4 0.140238 0.420165 0.482816
408 4 0.101167 0.472735 0.429302
382 2 0.124499 0.450304 0.460256
569 4 0.120069 0.473249 0.432112
772 2 0.319303 0.467837 0.468695
667 2 0.294496 0.419439 0.461892
634 2 0.271453 0.455692 0.424604
774 4 0.299091 0.459537 0.456538
636 4 0.259701 0.456441 0.402546
669 4 0.289159 0.443864 0.461507
635 4 0.283204 0.454944 0.446661
773 4 0.339514 0.476137 0.480852
1058 4 0.0879678 0.08648 0.524464
1152 4 0.22877 0.0601781 0.515268
1150 2 0.236863 0.0627248 0.538788
1151 4 0.244956 0.0652714 0.562308
1181 4 0.255009 0.0752505 0.575365
1032 4 0.245103 0.060314 0.582193
842 4 0.39133 0.0639647 0.522544
1217 4 0.401702 0.0556975 0.508089
841 2 0.367346 0.0675545 0.516459
843 4 0.343361 0.0711443 0.510375
3007 2 0.496681 0.0405245 0.57422
3009 4 0.492198 0.0499403 0.551495
1270 2 0.0895114 0.151052 0.558136
1271 4 0.0972334 0.129189 0.567492
1057 2 0.0978946 0.100136 0.542908
1059 4 0.107821 0.113792 0.561351
1155 4 0.114082 0.125227 0.575353
939 4 0.0978954 0.112922 0.577135
1153 2 0.138967 0.124312 0.577612
1154 4 0.163851 0.123397 0.579871
1180 2 0.24748 0.0984326 0.58094
898 2 0.248087 0.158608 0.564327
900 4 0.239483 0.137158 0.573868
1221 4 0.175964 0.135794 0.571296
1219 2 0.200176 0.133833 0.577222
1199 4 0.0243096 0.221706 0.571706
879 4 0.0831701 0.193985 0.548045
877 2 0.0628753 0.20588 0.556519
1272 4 0.0817894 0.172916 0.54878
878 4 0.0425805 0.217775 0.564992
1198 2 0.0026319 0.224423 0.559546
695 4 0.0974602 0.265201 0.535842
651 4 0.208891 0.222789 0.531152
858 4 0.190046 0.224223 0.526867
649 2 0.22654 0.205907 0.536506
650 4 0.24419 0.189025 0.541859
856 2 0.187655 0.248731 0.531207
899 4 0.256691 0.180059 0.554786
576 4 0.418776 0.189859 0.511328
2455 2 0.484521 0.250172 0.513873
982 2 0.0113042 0.279443 0.578559
984 4 0.994224 0.282185 0.560506
694 2 0.103699 0.270925 0.512316
946 2 0.178263 0.285764 0.571881
857 4 0.185265 0.273239 0.535547
947 4 0.193859 0.279529 0.553359
798 4 0.213002 0.27328 0.558149
796 2 0.232707 0.286548 0.565949
804 4 0.273166 0.333691 0.509504
797 4 0.252413 0.299817 0.573749
872 4 0.386016 0.324834 0.566342
2457 4 0.463188 0.262257 0.508972
1010 4 0.455025 0.280656 0.502188
936 4 0.996524 0.358553 0.511988
3263 4 0.050946 0.338587 0.581562
710 4 0.161585 0.382742 0.508203
504 4 0.165965 0.363575 0.508854
1189 2 0.245319 0.377168 0.577035
1191 4 0.225144 0.391401 0.580983
803 4 0.270346 0.353057 0.555523
802 2 0.271756 0.343374 0.532514
1190 4 0.265493 0.362935 0.573087
1238 4 0.280602 0.35508 0.571424
1237 2 0.300152 0.370577 0.573103
1239 4 0.319702 0.386075 0.574781
930 4 0.32999 0.393756 0.558595
929 4 0.355053 0.373082 0.52058
881 4 0.343242 0.376328 0.505413
928 2 0.342522 0.383419 0.539588
2244 4 0.116953 0.483958 0.592753
1160 4 0.130803 0.474035 0.591457
1081 2 0.066649 0.0657171 0.642153
4337 4 0.0220368 0.00898284 0.659178
1082 4 0.0718312 0.04614 0.656818
1083 4 0.0614669 0.0852941 0.627488
825 4 0.151497 0.0662571 0.660906
823 2 0.156597 0.0418227 0.662366
1283 4 0.149226 0.0838902 0.651522
1030 2 0.247671 0.0424268 0.599474
1031 4 0.250239 0.0245397 0.616755
2133 4 0.180554 0.0118247 0.666501
951 4 0.265366 0.0167747 0.605861
949 2 0.28627 0.00982376 0.617688
950 4 0.307173 0.00287279 0.629516
3008 4 0.501164 0.0311086 0.596945
809 4 0.485041 0.0273218 0.607617
808 2 0.475199 0.0428453 0.624568
810 4 0.465358 0.0583689 0.641519
45 3 0.464134 0.0807849 0.641933
41 1 0.457881 0.0717113 0.661863
1127 4 0.0517548 0.097257 0.617151
1126 2 0.0316222 0.0988347 0.602407
1128 4 0.0114897 0.100412 0.587664
938 4 0.0725608 0.0951214 0.616403
937 2 0.0852281 0.104022 0.596769
1182 4 0.239951 0.121615 0.586515
1211 4 0.249807 0.138627 0.641188
1210 2 0.246779 0.138865 0.61637
1220 4 0.224388 0.131873 0.583148
1212 4 0.243751 0.139103 0.591551
1227 4 0.258998 0.128283 0.650894
908 4 0.240308 0.124158 0.652423
1282 2 0.162588 0.104583 0.65582
1284 4 0.175949 0.125275 0.660119
907 2 0.216774 0.126735 0.660464
888 4 0.265215 0.147427 0.649086
886 2 0.288491 0.154352 0.655039
1194 4 0.328722 0.165143 0.656196
887 4 0.311767 0.161277 0.660993
3425 4 0.478908 0.0882811 0.657847
3424 2 0.496198 0.10633 0.657169
1244 4 0.0525729 0.220224 0.582589
1243 2 0.0454221 0.240807 0.594851
1192 2 0.333218 0.17891 0.635813
1193 4 0.337714 0.192676 0.61543
3123 4 0.489038 0.233423 0.621257
983 4 0.0283845 0.2767 0.596613
1245 4 0.0382714 0.261391 0.607114
948 4 0.162667 0.292 0.590403
1135 2 0.169737 0.328993 0.608372
1136 4 0.167965 0.312246 0.589891
790 2 0.268859 0.323306 0.585543
791 4 0.267644 0.298333 0.585402
871 2 0.387637 0.326901 0.591207
873 4 0.389258 0.328968 0.616073
813 4 0.407096 0.330802 0.625447
954 4 0.455865 0.284316 0.584618
952 2 0.467484 0.303096 0.596344
3262 2 0.0538288 0.361233 0.591761
1041 4 0.0675035 0.389294 0.618629
3264 4 0.0567116 0.383879 0.60196
3240 4 0.0517373 0.398481 0.613168
3238 2 0.0285762 0.407706 0.611258
3239 4 0.00541512 0.416931 0.609348
1039 2 0.0907938 0.394775 0.625889
1040 4 0.114084 0.400255 0.633149
993 4 0.133002 0.394167 0.636498
991 2 0.151456 0.377305 0.635937
822 4 0.16756 0.34418 0.645396
992 4 0.169909 0.360443 0.635377
1137 4 0.171509 0.345741 0.626853
1064 4 0.184251 0.35426 0.638273
897 4 0.182372 0.362407 0.62112
896 4 0.206721 0.3889 0.586392
895 2 0.194546 0.375653 0.603756
1172 4 0.215887 0.404365 0.593461
1171 2 0.225109 0.424869 0.604402
1063 2 0.198574 0.360764 0.657708
792 4 0.270073 0.34828 0.585684
811 2 0.398674 0.346503 0.64299
927 4 0.400809 0.38102 0.657058
812 4 0.390252 0.362203 0.660533
925 2 0.4127 0.401162 0.648222
953 4 0.479103 0.321875 0.60807
906 4 0.479498 0.341401 0.607434
904 2 0.497527 0.355504 0.597373
926 4 0.424591 0.421305 0.639387
540 4 0.112989 0.467331 0.584842
539 4 0.097275 0.42036 0.591736
538 2 0.105132 0.443846 0.588289
1159 2 0.155116 0.479275 0.58888
1186 2 0.204619 0.4767 0.60908
1173 4 0.234332 0.445373 0.615343
1187 4 0.224777 0.462314 0.612529
1188 4 0.184461 0.491086 0.605631
1161 4 0.179428 0.484514 0.586303
1228 2 0.302204 0.472194 0.666156
1230 4 0.312694 0.474568 0.643584
1002 4 0.429853 0.434262 0.624286
1911 4 0.443959 0.497834 0.615099
1001 4 0.448842 0.480512 0.62532
1000 2 0.439347 0.457387 0.624803
1269 4 0.444213 0.496899 0.634003
1267 2 0.453915 0.501851 0.656509
944 4 0.0657913 0.0296801 0.682207
943 2 0.0464119 0.0143406 0.678424
1076 4 0.0718408 0.0474473 0.676802
1075 2 0.0712066 0.0634164 0.696031
824 4 0.161697 0.0173884 0.663825
2256 4 0.167371 0.0121465 0.681552
1149 4 0.253053 0.0287553 0.68887
1147 2 0.253864 0.0501934 0.676028
1148 4 0.254675 0.0716314 0.663185
1226 4 0.270402 0.079808 0.655462
1092 4 0.334203 0.999428 0.688755
1004 4 0.350258 0.0776858 0.730695
42 3 0.459694 0.0488109 0.660664
43 3 0.435836 0.0772573 0.666519
1163 4 0.46963 0.056621 0.679781
1162 2 0.483678 0.0470461 0.698116
44 3 0.471741 0.0794568 0.678784
4581 4 0.495528 0.0185212 0.743753
2321 4 0.491252 0.0354738 0.735005
864 4 0.0693924 0.0805272 0.73493
1077 4 0.0705724 0.0793855 0.71526
851 4 0.0669011 0.094907 0.705676
850 2 0.0612053 0.118525 0.699767
852 4 0.0555094 0.142143 0.693858
1107 4 0.0799321 0.0912453 0.722978
1105 2 0.0997453 0.0970245 0.737092
1106 4 0.119558 0.102804 0.751207
909 4 0.193239 0.129312 0.668506
1225 2 0.2647 0.104045 0.653178
830 4 0.32719 0.147124 0.660555
829 2 0.345681 0.136252 0.673402
1005 4 0.355644 0.120087 0.704737
1003 2 0.352951 0.0988865 0.717716
831 4 0.364173 0.12538 0.686249
3268 2 0.490645 0.14759 0.743269
977 4 0.314226 0.228479 0.734114
918 4 0.300989 0.241277 0.740093
1297 2 0.274961 0.210983 0.739189
1299 4 0.253237 0.198642 0.740156
1298 4 0.296685 0.223325 0.738223
976 2 0.337218 0.236858 0.728982
978 4 0.36021 0.245237 0.723849
1025 4 0.38927 0.201475 0.698147
1024 2 0.410059 0.208844 0.709924
1020 4 0.377891 0.255363 0.730761
3270 4 0.493931 0.171681 0.737437
1142 4 0.432239 0.212465 0.740809
1144 2 0.469444 0.202006 0.729465
1262 4 0.434215 0.230335 0.734102
1026 4 0.430848 0.216213 0.721701
1261 2 0.443137 0.253622 0.73229
1145 4 0.447859 0.214587 0.730485
1146 4 0.491028 0.189426 0.728444
1178 4 0.00156958 0.248024 0.729213
1073 4 0.0768399 0.256538 0.722116
1177 2 0.0217711 0.260941 0.722126
1179 4 0.0419725 0.273858 0.715038
820 2 0.1559 0.328217 0.660708
1072 2 0.101701 0.259109 0.72141
1208 4 0.139491 0.275114 0.717151
1074 4 0.126562 0.26168 0.720704
1207 2 0.147599 0.295251 0.704744
821 4 0.14424 0.312255 0.676019
1209 4 0.155707 0.315388 0.692337
1130 4 0.145846 0.261681 0.729326
815 4 0.113082 0.329415 0.708202
806 4 0.256486 0.319424 0.691998
1263 4 0.452059 0.27691 0.730478
892 2 0.0400464 0.360902 0.708198
1280 4 0.0724085 0.373602 0.72741
816 4 0.0728309 0.357951 0.716343
894 4 0.0572585 0.359816 0.726302
893 4 0.0228343 0.361989 0.690094
942 4 0.121475 0.344763 0.718376
1279 2 0.0841875 0.390935 0.741048
814 2 0.0929563 0.343683 0.712272
940 2 0.143021 0.355387 0.725309
941 4 0.164567 0.366012 0.732242
1080 4 0.168411 0.38047 0.743848
805 2 0.239052 0.337346 0.691787
1065 4 0.212897 0.367268 0.677143
807 4 0.221617 0.355267 0.691577
1028 4 0.221034 0.385998 0.683133
1066 2 0.196133 0.375648 0.71064
1068 4 0.215173 0.372713 0.6947
1027 2 0.232106 0.406681 0.674486
1067 4 0.177094 0.378582 0.726579
1206 4 0.383142 0.379467 0.661739
1204 2 0.36666 0.383767 0.680042
1205 4 0.350178 0.388066 0.698346
1029 4 0.243178 0.427365 0.665839
1176 4 0.185958 0.476358 0.757347
1174 2 0.182903 0.48563 0.734328
1140 4 0.246203 0.432898 0.685436
1175 4 0.179848 0.494902 0.711309
2172 4 0.18365 0.48964 0.69181
2026 2 0.282581 0.501511 0.707718
1138 2 0.260277 0.452161 0.692921
1139 4 0.274351 0.471425 0.700405
1987 2 0.303934 0.453037 0.726917
1229 4 0.291714 0.469819 0.688728
1989 4 0.304578 0.46515 0.705053
2028 4 0.291574 0.478555 0.703559
1988 4 0.30329 0.440924 0.748781
1101 4 0.467414 0.499975 0.696497
1099 2 0.486656 0.486681 0.705341
1100 4 0.505897 0.473388 0.714186
862 2 0.0485223 0.0789795 0.748613
2989 2 0.0217257 0.0394922 0.776452
2990 4 0.0218051 0.0644543 0.775015
2991 4 0.0216463 0.0145301 0.77789
863 4 0.0276522 0.0774317 0.762296
3083 4 0.00797339 0.0757232 0.768168
2049 4 0.104003 0.0129725 0.782818
1202 4 0.117619 0.0254518 0.775201
1201 2 0.125083 0.049139 0.778097
1203 4 0.132546 0.0728261 0.780994
1085 4 0.317409 0.0728029 0.809159
960 4 0.328475 0.0690967 0.824072
819 4 0.335471 0.0682536 0.804895
1050 4 0.349076 0.0189688 0.782575
817 2 0.349684 0.0495915 0.796239
818 4 0.363896 0.0309295 0.787584
974 4 0.359243 0.0153516 0.798414
2320 2 0.488387 0.0473536 0.756819
844 2 0.497647 0.0662265 0.82032
845 4 0.484829 0.0630557 0.799087
2322 4 0.485522 0.0592334 0.778633
1112 4 0.488291 0.0766762 0.786089
833 4 0.0190974 0.0848735 0.777491
832 2 0.0244957 0.105932 0.789843
834 4 0.029894 0.126991 0.802195
1125 4 0.0319617 0.125295 0.82147
34 3 0.12705 0.0895708 0.765754
32 3 0.147309 0.0804264 0.796063
911 4 0.13628 0.0946553 0.809329
31 1 0.139267 0.0980014 0.783589
35 3 0.12593 0.111012 0.796685
33 3 0.157204 0.110445 0.775726
910 2 0.131347 0.0949281 0.83384