ITEM: TIMESTEP
1560000
ITEM: NUMBER OF ATOMS
4590
ITEM: BOX BOUNDS pp pp pp
-9.9985700000000008e+00 9.9985700000000008e+00
-9.9985700000000008e+00 9.9985700000000008e+00
-9.9985700000000008e+00 9.9985700000000008e+00
ITEM: ATOMS id type xs ys zs
1666 2 0.0690287 0.0655625 0.0724951
1668 4 0.0578996 0.0539872 0.0533292
747 4 0.472341 0.0682436 0.0124117
2974 2 0.478948 0.025988 0.0198583
2976 4 0.481112 0.00205008 0.026748
2975 4 0.476783 0.049926 0.0129686
986 4 0.462044 0.0575082 0.00154385
297 4 0.340593 0.0780278 0.04134
295 2 0.34922 0.0900139 0.0211634
296 4 0.357846 0.102 0.000986784
557 4 0.378105 0.105562 0.00477203
556 2 0.401968 0.10638 0.0121933
771 4 0.413549 0.141741 0.0141939
827 4 0.370289 0.105875 0.987307
769 2 0.402385 0.162026 0.0236313
745 2 0.457358 0.0860263 0.0216022
558 4 0.425831 0.107197 0.0196146
746 4 0.442375 0.103809 0.0307926
566 4 0.157734 0.189699 0.0303938
565 2 0.18079 0.189563 0.0207207
2264 4 0.246595 0.152382 0.0241674
360 4 0.323939 0.19953 0.0327952
358 2 0.348417 0.194608 0.0341217
770 4 0.391222 0.182311 0.0330686
359 4 0.372896 0.189686 0.0354482
664 2 0.39191 0.212199 0.0650332
665 4 0.388106 0.196789 0.0457141
666 4 0.395715 0.227609 0.0843522
555 4 0.0816961 0.287352 0.0474912
553 2 0.0826641 0.282417 0.0229987
287 4 0.154591 0.315078 0.0335337
292 2 0.156051 0.278107 0.0170946
507 4 0.154027 0.303694 0.0505226
293 4 0.151965 0.296534 0.0334932
505 2 0.174408 0.299241 0.0643047
481 2 0.237581 0.29295 0.0656155
483 4 0.214165 0.289752 0.0737784
573 4 0.257126 0.279058 0.0448636
482 4 0.260998 0.296147 0.0574526
571 2 0.266028 0.274679 0.0219122
572 4 0.274929 0.2703 0.998961
322 2 0.406093 0.26566 0.0562676
1069 2 0.397199 0.301173 0.0152602
324 4 0.408503 0.276563 0.0338962
1070 4 0.416512 0.285442 0.0174367
741 4 0.351521 0.325578 0.0392317
957 4 0.361545 0.31967 0.0212131
1071 4 0.377887 0.316904 0.0130837
739 2 0.363878 0.330824 0.0603258
740 4 0.376235 0.336071 0.08142
671 4 0.455498 0.317121 0.0500495
280 2 0.449293 0.287123 0.030286
281 4 0.464027 0.298885 0.0467094
282 4 0.434559 0.275361 0.0138625
670 2 0.443863 0.325628 0.0704803
286 2 0.160376 0.33811 0.0257074
288 4 0.166161 0.361142 0.0178811
454 2 0.16002 0.38028 0.0651502
455 4 0.138534 0.368161 0.0692321
552 4 0.122846 0.357912 0.0617449
456 4 0.181506 0.392398 0.0610683
250 2 0.277002 0.405728 0.0452184
251 4 0.278548 0.396113 0.0221889
1290 4 0.287565 0.399969 0.00484086
252 4 0.275456 0.415342 0.0682478
495 4 0.402343 0.360122 0.0645946
493 2 0.392041 0.382736 0.06736
14 3 0.394304 0.350598 0.081588
494 4 0.381739 0.40535 0.0701255
330 4 0.0141459 0.437475 0.0477469
245 4 0.206375 0.439606 0.0313962
626 4 0.204533 0.458231 0.0407093
625 2 0.18449 0.453261 0.0548079
244 2 0.229398 0.441179 0.0217701
627 4 0.164447 0.448291 0.0689065
1778 4 0.196687 0.492115 0.995553
246 4 0.252421 0.442752 0.0121439
609 4 0.284504 0.431605 0.0752065
1672 2 0.3895 0.462756 0.0591618
660 4 0.373766 0.425044 0.074303
1673 4 0.36724 0.468644 0.0689095
1674 4 0.41176 0.456869 0.0494141
853 2 0.404029 0.443857 0.00147426
854 4 0.415113 0.457204 0.0194789
563 4 0.474837 0.453699 0.045595
228 4 0.494421 0.450057 0.0401973
562 2 0.450266 0.453464 0.0409655
564 4 0.425696 0.453228 0.0363361
18 3 0.0593509 0.0465317 0.143573
16 1 0.0648722 0.0444702 0.166016
1667 4 0.0801577 0.0771379 0.0916611
701 4 0.0837758 0.0712284 0.109709
1474 2 0.277278 0.00335369 0.0857197
1475 4 0.270887 0.0271168 0.0901521
492 4 0.281213 0.0373615 0.103889
490 2 0.279806 0.0623051 0.104898
2723 4 0.420428 0.0431335 0.148933
2722 2 0.44504 0.0388092 0.149805
2724 4 0.469651 0.0344848 0.150678
1760 4 0.487705 0.0273606 0.144567
1759 2 0.489781 0.0236697 0.119925
2744 4 0.483666 0.029771 0.163478
2469 4 0.488482 0.000698439 0.0937556
700 2 0.0772605 0.0900625 0.124809
702 4 0.0707451 0.108897 0.139909
476 4 0.0833711 0.108156 0.155242
475 2 0.0962686 0.129517 0.156848
491 4 0.2784 0.0872487 0.105907
628 2 0.358292 0.131543 0.14045
312 4 0.370664 0.0928476 0.156753
629 4 0.363582 0.111613 0.154593
630 4 0.353003 0.151472 0.126308
339 4 0.0802143 0.222481 0.13031
337 2 0.0778807 0.237013 0.150523
738 4 0.233225 0.209621 0.0975517
736 2 0.241974 0.202997 0.120018
737 4 0.250724 0.196372 0.142484
461 4 0.30827 0.239889 0.111125
460 2 0.329218 0.232732 0.122749
354 4 0.288287 0.243658 0.114291
352 2 0.27914 0.24925 0.13688
462 4 0.350167 0.225575 0.134374
254 4 0.359226 0.165017 0.139118
255 4 0.36496 0.214058 0.131195
253 2 0.362093 0.189537 0.135156
765 4 0.362373 0.223231 0.148634
624 4 0.370014 0.232447 0.133672
622 2 0.384328 0.238252 0.11401
623 4 0.398642 0.244056 0.0943476
551 4 0.09274 0.321117 0.0772526
506 4 0.19479 0.294788 0.0780868
537 4 0.193859 0.302793 0.0973734
535 2 0.199033 0.323027 0.111121
353 4 0.269993 0.254842 0.159468
302 4 0.331879 0.305784 0.138862
755 4 0.254862 0.266052 0.160996
387 4 0.327039 0.320831 0.128182
301 2 0.323287 0.31067 0.161829
385 2 0.345397 0.325359 0.111821
323 4 0.403683 0.254756 0.0786391
15 3 0.378974 0.323011 0.10212
386 4 0.363755 0.329886 0.0954608
528 4 0.470395 0.266917 0.0951543
518 4 0.490711 0.264491 0.0992421
526 2 0.456972 0.281518 0.11038
527 4 0.44355 0.296119 0.125606
672 4 0.432227 0.334135 0.0909111
12 3 0.415978 0.324299 0.0974393
550 2 0.107793 0.339514 0.0694987
536 4 0.204206 0.343261 0.124868
291 4 0.198908 0.404169 0.143582
11 1 0.396917 0.336893 0.100128
13 3 0.3991 0.349808 0.119281
595 2 0.484881 0.398823 0.13628
596 4 0.501229 0.402429 0.117708
597 4 0.468532 0.395218 0.154852
1791 4 0.0318383 0.499116 0.134828
1466 4 0.0307853 0.482396 0.147316
417 4 0.143304 0.426459 0.131231
289 2 0.221248 0.415089 0.140963
416 4 0.188214 0.418638 0.151788
1440 4 0.166868 0.496751 0.101403
415 2 0.165759 0.422548 0.141509
1438 2 0.18081 0.501828 0.121528
1439 4 0.194753 0.506906 0.141652
607 2 0.302931 0.426616 0.0913542
290 4 0.243588 0.426009 0.138344
608 4 0.321357 0.421628 0.107502
768 4 0.262882 0.429306 0.139163
767 4 0.272275 0.476882 0.151367
766 2 0.267578 0.453094 0.145265
638 4 0.26169 0.4919 0.145621
658 2 0.35693 0.421451 0.0924357
659 4 0.340093 0.417859 0.110568
17 3 0.049158 0.0312286 0.176354
19 3 0.064897 0.065359 0.176118
2480 4 0.0306938 0.0244989 0.178918
1422 4 0.0299617 0.0120159 0.194123
2479 2 0.0145644 0.041146 0.188293
20 3 0.0853834 0.0347989 0.168115
380 4 0.00665176 0.0738202 0.206503
578 4 0.100364 0.0469046 0.179262
675 4 0.105261 0.99684 0.252421
674 4 0.135589 0.0145751 0.216834
673 2 0.120425 0.00570775 0.234628
689 4 0.153413 0.0085801 0.205472
577 2 0.116381 0.0630639 0.189631
579 4 0.132398 0.0792232 0.2
450 4 0.149651 0.0864304 0.192162
654 4 0.266625 0.00550883 0.179472
652 2 0.277439 0.015697 0.199582
653 4 0.288253 0.0258852 0.219693
25 3 0.322929 0.0421745 0.254213
311 4 0.371915 0.0647752 0.198118
758 4 0.368234 0.0468609 0.20527
759 4 0.34085 0.0537305 0.246545
757 2 0.354542 0.0502957 0.225908
2745 4 0.500806 0.0252969 0.210243
2743 2 0.492236 0.027534 0.186861
511 2 0.0282611 0.152079 0.221311
513 4 0.0387851 0.165354 0.239702
393 4 0.0590661 0.163787 0.238583
391 2 0.0794345 0.17156 0.250826
448 2 0.162602 0.107538 0.195616
477 4 0.109166 0.150877 0.158454
449 4 0.175552 0.128646 0.199069
237 4 0.238615 0.140308 0.176133
691 2 0.233038 0.114685 0.236154
693 4 0.227916 0.127135 0.215084
236 4 0.189513 0.134199 0.183373
235 2 0.214064 0.137254 0.179753
582 4 0.258382 0.139726 0.176305
581 4 0.280524 0.096373 0.164864
580 2 0.269453 0.11805 0.170585
27 3 0.325095 0.1527 0.229906
310 2 0.37129 0.0788114 0.177436
521 4 0.491393 0.15046 0.220564
332 4 0.485886 0.134393 0.230179
762 4 0.473004 0.149092 0.227312
760 2 0.459675 0.153086 0.248086
331 2 0.501599 0.115092 0.232577
394 2 0.017026 0.231016 0.240351
395 4 0.0321069 0.212753 0.248364
546 4 0.144916 0.196379 0.246961
277 2 0.246518 0.234292 0.178927
279 4 0.230099 0.215918 0.183172
285 4 0.327374 0.244331 0.194964
763 2 0.354686 0.231625 0.170897
764 4 0.346999 0.240019 0.193159
648 4 0.0938368 0.341857 0.194117
338 4 0.0755472 0.251546 0.170735
363 4 0.0683996 0.257573 0.18833
361 2 0.0799108 0.277422 0.198264
749 4 0.0796776 0.300962 0.226078
748 2 0.0862353 0.318563 0.242582
370 2 0.135357 0.298437 0.220339
372 4 0.110753 0.296728 0.216228
362 4 0.0914221 0.297271 0.208198
371 4 0.159961 0.300146 0.22445
284 4 0.281659 0.250334 0.175603
283 2 0.304516 0.247333 0.185284
278 4 0.262936 0.252665 0.174681
754 2 0.261402 0.287161 0.172693
756 4 0.267943 0.308269 0.184391
612 4 0.259584 0.320842 0.196833
610 2 0.258218 0.312586 0.220394
307 2 0.324139 0.289218 0.217904
308 4 0.31516 0.30306 0.199117
303 4 0.314694 0.315555 0.184796
309 4 0.333119 0.275377 0.236691
729 4 0.310015 0.333034 0.177047
646 2 0.0769008 0.341045 0.175741
647 4 0.0599647 0.340233 0.157364
734 4 0.17247 0.33695 0.246696
727 2 0.302802 0.345307 0.197603
728 4 0.29559 0.35758 0.218158
445 2 0.406362 0.384243 0.22899
447 4 0.421583 0.386467 0.209278
644 4 0.430765 0.373439 0.19597
643 2 0.448711 0.387153 0.185243
645 4 0.466656 0.400868 0.174517
1465 2 0.0305652 0.473055 0.170509
1467 4 0.0303451 0.463715 0.193701
1756 2 0.09935 0.465281 0.257557
1757 4 0.0930859 0.442323 0.249885
231 4 0.460641 0.476424 0.231192
229 2 0.460207 0.498248 0.218998
234 4 0.99911 0.0368046 0.297915
2756 4 0.999178 0.0498809 0.312615
232 2 0.0236381 0.0333442 0.294511
233 4 0.0481659 0.0298839 0.291106
1404 4 0.0606396 0.0165422 0.296547
1402 2 0.0737114 0.00670467 0.277638
316 2 0.0712308 0.052311 0.315824
317 4 0.0642294 0.0319655 0.303087
428 4 0.0611687 0.0167754 0.315969
427 2 0.051843 0.00302885 0.334657
1403 4 0.0867832 0.996867 0.25873
318 4 0.0782321 0.0726564 0.328561
24 3 0.31039 0.0732578 0.271367
22 3 0.346107 0.0708666 0.25991
21 1 0.328447 0.0589525 0.26859
23 3 0.334741 0.0500701 0.289081
351 4 0.403188 0.0587859 0.27238
349 2 0.386223 0.0755772 0.279825
479 4 0.448899 0.03166 0.302048
478 2 0.433435 0.039082 0.283856
2664 4 0.469224 0.0275835 0.301683
480 4 0.41797 0.046504 0.265665
1428 4 0.454843 0.01582 0.303696
258 4 0.443749 0.0214596 0.318612
2662 2 0.491988 0.0355502 0.295085
600 4 0.124441 0.126686 0.347191
692 4 0.23816 0.102234 0.257223
721 2 0.238799 0.118511 0.295808
722 4 0.230737 0.124456 0.318718
723 4 0.24686 0.112566 0.272899
26 1 0.323045 0.152958 0.252816
28 3 0.322494 0.131086 0.260544
30 3 0.303783 0.163696 0.258503
632 4 0.374138 0.111255 0.289719
350 4 0.369258 0.0923684 0.28727
631 2 0.357264 0.126564 0.279422
707 4 0.348548 0.16003 0.276491
633 4 0.340389 0.141874 0.269124
761 4 0.446346 0.157079 0.26886
392 4 0.0998028 0.179333 0.263069
544 2 0.153891 0.215902 0.259747
545 4 0.162866 0.235425 0.272533
402 4 0.180281 0.231493 0.281091
376 2 0.267534 0.25052 0.322684
706 2 0.352213 0.180761 0.289982
29 3 0.341284 0.164096 0.261854
708 4 0.355877 0.201491 0.303472
444 4 0.00544429 0.29312 0.286024
390 4 0.0923654 0.247307 0.334269
400 2 0.191817 0.253576 0.283192
401 4 0.203353 0.27566 0.285294
676 2 0.182146 0.298859 0.313371
345 4 0.208587 0.292865 0.281882
677 4 0.196164 0.292976 0.29352
343 2 0.231553 0.294121 0.272075
735 4 0.197478 0.306865 0.277845
344 4 0.254519 0.295378 0.262269
733 2 0.184974 0.321907 0.26227
611 4 0.256853 0.30433 0.243956
496 2 0.305093 0.271635 0.272104
497 4 0.290188 0.265431 0.291196
377 4 0.285066 0.253106 0.305045
498 4 0.319998 0.277839 0.253011
543 4 0.392911 0.332999 0.30749
541 2 0.400566 0.31655 0.324696
420 4 0.419442 0.285985 0.338349
365 4 0.0359617 0.379879 0.293967
601 2 0.064241 0.375798 0.31245
603 4 0.0501753 0.366017 0.294238
602 4 0.0783067 0.385578 0.330662
364 2 0.0113342 0.375563 0.294164
549 4 0.0708759 0.403717 0.3321
750 4 0.092793 0.336164 0.259087
299 4 0.156545 0.333169 0.257403
298 2 0.132908 0.338071 0.263917
300 4 0.10927 0.342973 0.270431
433 2 0.296666 0.366319 0.294641
435 4 0.272179 0.362041 0.291944
434 4 0.321153 0.370598 0.297338
614 4 0.335086 0.363882 0.310427
446 4 0.391142 0.382019 0.248703
615 4 0.377522 0.338334 0.317297
613 2 0.356304 0.351108 0.313862
2537 4 0.489332 0.347555 0.324789
776 4 0.0899853 0.492199 0.318539
1758 4 0.105614 0.48824 0.265229
775 2 0.0862512 0.504404 0.297039
412 2 0.220958 0.48622 0.289252
1435 2 0.238202 0.45767 0.336871
1436 4 0.215686 0.462476 0.327118
413 4 0.218203 0.473605 0.310663
5 3 0.293284 0.479398 0.322203
3 3 0.312093 0.447007 0.318369
438 4 0.323927 0.453395 0.337298
437 4 0.371368 0.438576 0.342816
436 2 0.347648 0.445985 0.340057
119 3 0.497882 0.459703 0.314511
713 4 0.43745 0.482864 0.337531
714 4 0.483876 0.465132 0.331971
712 2 0.460663 0.473998 0.334751
367 2 0.0710159 0.0198171 0.413135
1781 4 0.111404 0.0262777 0.399612
368 4 0.0951379 0.0172803 0.407063
732 4 0.0964563 0.0732973 0.333997
730 2 0.113366 0.0769251 0.352054
606 4 0.149344 0.0838312 0.375842
1780 2 0.122033 0.00545194 0.390753
604 2 0.168816 0.0732412 0.36427
605 4 0.188287 0.0626512 0.352698
248 4 0.207278 0.0716629 0.351607
1700 4 0.330545 0.056442 0.35435
1701 4 0.318884 0.0324393 0.396642
1699 2 0.324715 0.0444406 0.375496
425 4 0.328285 0.0336334 0.412988
441 4 0.31549 0.0193794 0.412383
699 4 0.349579 0.0540767 0.352564
697 2 0.370487 0.0416665 0.346731
698 4 0.391395 0.0292562 0.340899
257 4 0.408015 0.0273156 0.353101
724 2 0.405407 0.0713486 0.408131
256 2 0.425882 0.0243876 0.335856
2584 2 0.0106013 0.121035 0.348769
397 2 0.0622094 0.0990293 0.348028
398 4 0.0428695 0.114265 0.35239
2586 4 0.0326372 0.131875 0.353467
458 4 0.0251528 0.137551 0.371966
457 2 0.0363162 0.153111 0.388042
399 4 0.0815494 0.0837938 0.343666
731 4 0.130277 0.080553 0.370112
598 2 0.134619 0.148517 0.3539
599 4 0.144796 0.170348 0.360609
249 4 0.22755 0.113738 0.333735
247 2 0.217414 0.0927005 0.342671
683 4 0.235822 0.108367 0.40677
404 4 0.241756 0.125324 0.337516
682 2 0.253736 0.108554 0.389327
403 2 0.252011 0.14764 0.342204
319 2 0.300188 0.13998 0.389014
684 4 0.271649 0.108741 0.371884
321 4 0.317215 0.156467 0.396979
320 4 0.283161 0.123493 0.381049
725 4 0.389703 0.0861594 0.395514
459 4 0.0474796 0.168671 0.404118
389 4 0.12252 0.241871 0.373789
686 4 0.139096 0.176621 0.378635
685 2 0.125696 0.19106 0.394034
275 4 0.154648 0.18418 0.351119
388 2 0.107443 0.244589 0.354029
687 4 0.112296 0.205498 0.409434
472 2 0.235486 0.196808 0.356728
474 4 0.212579 0.203963 0.363743
276 4 0.195759 0.212127 0.356561
274 2 0.175204 0.198154 0.35384
405 4 0.262266 0.169957 0.346893
473 4 0.258394 0.189652 0.349713
378 4 0.250001 0.247935 0.340322
717 4 0.407186 0.185633 0.344259
715 2 0.40046 0.188459 0.368174
466 2 0.373823 0.19313 0.417499
716 4 0.393733 0.191285 0.39209
467 4 0.373829 0.193133 0.392495
270 4 0.475077 0.220278 0.381212
452 4 0.474427 0.20418 0.39327
268 2 0.473482 0.233303 0.359928
2801 4 0.0157031 0.280691 0.387085
2800 2 0.0122691 0.295259 0.407114
618 4 0.0548525 0.319031 0.373838
347 4 0.0382818 0.324052 0.383824
616 2 0.0788513 0.312626 0.370973
617 4 0.10285 0.306221 0.368107
374 4 0.105284 0.290789 0.355734
373 2 0.128213 0.299053 0.350154
375 4 0.151143 0.307317 0.344574
678 4 0.168127 0.304741 0.333222
509 4 0.232851 0.29894 0.366824
508 2 0.239819 0.31872 0.353209
542 4 0.408222 0.300102 0.341901
419 4 0.46097 0.259722 0.329056
269 4 0.471887 0.246327 0.338644
418 2 0.440206 0.272854 0.333702
346 2 0.0400114 0.348936 0.385561
348 4 0.041741 0.373819 0.387298
547 2 0.0795936 0.418035 0.350652
510 4 0.246786 0.3385 0.339593
668 4 0.321071 0.391619 0.398851
336 4 0.334016 0.37814 0.407061
334 2 0.357228 0.368881 0.407894
335 4 0.380439 0.359623 0.408727
240 4 0.391694 0.361157 0.425675
752 4 0.479897 0.408573 0.390245
561 4 0.494633 0.404676 0.404036
407 4 0.103777 0.44497 0.369125
548 4 0.0883113 0.432353 0.369204
406 2 0.114788 0.451323 0.390656
408 4 0.125799 0.457675 0.412187
1557 4 0.284032 0.500034 0.408641
1437 4 0.260718 0.452865 0.346623
1 1 0.298239 0.459519 0.33215
4 3 0.278713 0.447771 0.336524
2 3 0.309135 0.463495 0.352015
593 4 0.417302 0.467347 0.392637
588 4 0.409583 0.451035 0.402461
117 3 0.493986 0.45849 0.351875
592 2 0.418937 0.475341 0.369002
751 2 0.489027 0.423063 0.372028
1742 4 0.42103 0.492224 0.328469
594 4 0.420573 0.483335 0.345367
369 4 0.0468939 0.0223539 0.419207
719 4 0.0467924 0.0293824 0.436889
718 2 0.0234529 0.0211769 0.440511
341 4 0.199751 0.0214262 0.503964
2430 4 0.189345 0.00808843 0.513002
962 4 0.314888 0.0333659 0.426462
961 2 0.303662 0.0535024 0.43614
963 4 0.292435 0.0736389 0.445818
432 4 0.304387 0.0839216 0.4587
430 2 0.311156 0.0867444 0.482603
424 2 0.351412 0.0305472 0.421975
426 4 0.37454 0.0274611 0.430963
726 4 0.421112 0.0565378 0.420748
260 4 0.0583429 0.168269 0.42131
642 4 0.49816 0.107407 0.448878
640 2 0.48547 0.123607 0.46308
641 4 0.47278 0.139808 0.477281
259 2 0.0767434 0.184979 0.418597
261 4 0.0951439 0.20169 0.415885
1035 4 0.105947 0.218761 0.420405
1033 2 0.104238 0.23942 0.434385
1034 4 0.10253 0.26008 0.448366
858 4 0.205922 0.256645 0.491386
487 2 0.332847 0.254855 0.441719
489 4 0.335261 0.241034 0.462415
468 4 0.373816 0.193126 0.442502
514 2 0.421212 0.189803 0.450605
411 4 0.348176 0.228932 0.473776
516 4 0.3978 0.185315 0.458149
409 2 0.363627 0.210305 0.467492
410 4 0.379077 0.191677 0.461208
575 4 0.402739 0.186618 0.4783
266 4 0.345194 0.237908 0.490954
451 2 0.45552 0.203417 0.409613
515 4 0.444624 0.194291 0.443061
453 4 0.436612 0.202653 0.425956
2802 4 0.00883512 0.309826 0.427144
2847 4 0.01387 0.315885 0.444857
695 4 0.0500335 0.246687 0.47967
694 2 0.0730434 0.25641 0.480765
1258 2 0.119391 0.287123 0.471437
1259 4 0.129496 0.309471 0.476298
9 3 0.118522 0.322256 0.466087
1260 4 0.109287 0.264774 0.466576
696 4 0.0960532 0.266132 0.481859
488 4 0.330432 0.268676 0.421023
265 2 0.360062 0.25692 0.497486
267 4 0.374929 0.275932 0.504018
584 4 0.498375 0.258803 0.486594
2457 4 0.495702 0.312217 0.520021
2455 2 0.498104 0.288512 0.512438
326 4 0.0450057 0.355908 0.452882
325 2 0.06937 0.361108 0.455007
10 3 0.129765 0.344931 0.438211
6 1 0.125268 0.343744 0.460505
7 3 0.108308 0.358424 0.465605
327 4 0.0937343 0.366309 0.457132
709 2 0.154366 0.404534 0.475132
8 3 0.144132 0.349545 0.472706
711 4 0.139336 0.423742 0.469625
384 4 0.119074 0.422451 0.46576
503 4 0.229681 0.368282 0.466334
504 4 0.186242 0.37774 0.489231
502 2 0.207962 0.373011 0.477782
710 4 0.169395 0.385326 0.480639
667 2 0.321909 0.412049 0.413242
238 2 0.405288 0.381133 0.432106
882 4 0.385417 0.3675 0.498333
587 4 0.417426 0.421443 0.442002
239 4 0.418881 0.401109 0.438538
1383 4 0.00485945 0.463411 0.461316
680 4 0.0124979 0.460315 0.441994
569 4 0.13214 0.464904 0.428294
382 2 0.116877 0.438119 0.446399
568 2 0.146392 0.485221 0.431341
383 4 0.11468 0.453787 0.427037
1545 4 0.178723 0.499581 0.438348
1543 2 0.203345 0.495233 0.438389
1544 4 0.227968 0.490884 0.43843
773 4 0.300143 0.417674 0.486556
669 4 0.322748 0.43248 0.427633
636 4 0.292108 0.48742 0.421885
635 4 0.312632 0.444923 0.438423
772 2 0.313246 0.425859 0.466896
774 4 0.32635 0.434044 0.447237
634 2 0.30237 0.466171 0.430154
586 2 0.413504 0.436239 0.422231
662 4 0.474906 0.503049 0.476589
661 2 0.474728 0.482356 0.462555
663 4 0.47455 0.461663 0.448521
342 4 0.203159 0.0640173 0.529947
340 2 0.201455 0.0427218 0.516956
2428 2 0.177016 0.998508 0.532531
431 4 0.317925 0.0895671 0.506507
1031 4 0.282444 0.0614112 0.591644
1217 4 0.398812 0.080467 0.515292
1216 2 0.41612 0.0636556 0.508735
3007 2 0.486644 0.0574889 0.571312
1218 4 0.433428 0.0468443 0.502178
470 4 0.0363933 0.166201 0.512546
1058 4 0.107478 0.110831 0.530195
1057 2 0.108297 0.117793 0.554196
1059 4 0.109116 0.124754 0.578197
1155 4 0.122259 0.131044 0.590322
1152 4 0.208649 0.0798441 0.538466
1150 2 0.218429 0.0822337 0.561353
1151 4 0.22821 0.0846234 0.58424
1180 2 0.227458 0.149115 0.55967
1181 4 0.209813 0.131681 0.55653
1182 4 0.245104 0.16655 0.56281
842 4 0.383869 0.0914321 0.524423
843 4 0.334735 0.0944324 0.515619
841 2 0.359302 0.0929323 0.520021
576 4 0.40859 0.175199 0.526632
1199 4 0.0401464 0.222321 0.577148
1198 2 0.0171071 0.224929 0.56779
878 4 0.05231 0.233869 0.58927
469 2 0.0214159 0.183063 0.52334
877 2 0.0731567 0.22112 0.583974
471 4 0.00643856 0.199925 0.534135
879 4 0.0940035 0.208371 0.578677
1272 4 0.092681 0.188065 0.584114
900 4 0.25374 0.172487 0.545524
898 2 0.268853 0.187763 0.532741
650 4 0.281391 0.218782 0.506345
899 4 0.283966 0.20304 0.519959
649 2 0.291773 0.238286 0.518048
574 2 0.405665 0.180908 0.502466
982 2 0.013348 0.326397 0.578019
798 4 0.235004 0.247353 0.569441
856 2 0.209549 0.251162 0.51551
947 4 0.218622 0.251905 0.557356
857 4 0.213177 0.245679 0.539634
946 2 0.202153 0.263712 0.572003
796 2 0.257962 0.248269 0.579302
797 4 0.280921 0.249186 0.589163
651 4 0.302155 0.257791 0.529752
792 4 0.324943 0.298831 0.587577
872 4 0.343364 0.294886 0.560104
871 2 0.364518 0.299962 0.572429
873 4 0.385673 0.305038 0.584754
811 2 0.415152 0.326183 0.571651
1010 4 0.497517 0.329448 0.510292
2456 4 0.500507 0.264808 0.504855
984 4 0.0176908 0.346747 0.564154
1189 2 0.23589 0.372503 0.575129
1190 4 0.252044 0.361301 0.559677
803 4 0.267901 0.356107 0.54828
804 4 0.288729 0.396049 0.526565
802 2 0.278315 0.376078 0.537422
930 4 0.328606 0.373945 0.576296
928 2 0.336627 0.387229 0.556691
1239 4 0.322688 0.355465 0.574288
929 4 0.344648 0.400513 0.537086
881 4 0.361842 0.40129 0.526673
880 2 0.37363 0.384395 0.512503
812 4 0.424689 0.344749 0.557883
1011 4 0.486894 0.37759 0.518675
1009 2 0.492205 0.353519 0.514483
927 4 0.434366 0.361603 0.566491
925 2 0.447432 0.382626 0.570025
1002 4 0.450397 0.414951 0.586681
3308 4 0.494537 0.388019 0.504253
538 2 0.09443 0.460435 0.578552
540 4 0.101489 0.482759 0.569779
1160 4 0.112378 0.495435 0.559738
1159 2 0.135441 0.496293 0.569358
539 4 0.087371 0.43811 0.587325
1161 4 0.158504 0.497151 0.578977
1188 4 0.156582 0.481594 0.591066
1951 2 0.382635 0.492901 0.555131
1952 4 0.35893 0.487962 0.561363
890 4 0.346012 0.49048 0.576443
1909 2 0.430575 0.490003 0.582738
2114 4 0.000733241 0.0133861 0.619547
1082 4 0.0555773 0.0691516 0.660847
1081 2 0.0590265 0.0787462 0.638016
825 4 0.161964 0.0563246 0.659199
823 2 0.16968 0.0327456 0.656089
824 4 0.177396 0.00916653 0.652979
1030 2 0.260346 0.0721 0.596398
951 4 0.294302 0.0450152 0.592979
949 2 0.300705 0.0217858 0.599656
950 4 0.307108 0.998556 0.606332
3008 4 0.484414 0.0491323 0.594772
809 4 0.486724 0.0384902 0.612569
808 2 0.475496 0.0485226 0.632531
810 4 0.464268 0.0585551 0.652492
45 3 0.455282 0.0782918 0.653501
1128 4 0.003292 0.110687 0.587917
1083 4 0.0624758 0.0883408 0.615186
1126 2 0.0238708 0.101695 0.598909
1127 4 0.0444496 0.0927029 0.609902
938 4 0.0793533 0.0963917 0.621619
1271 4 0.117439 0.147161 0.598763
939 4 0.104451 0.131585 0.596474
937 2 0.0919019 0.113988 0.609047
1153 2 0.147037 0.131381 0.593652
1032 4 0.238248 0.0827888 0.601152
1221 4 0.168007 0.143446 0.613342
1154 4 0.171816 0.131718 0.596981
886 2 0.297598 0.158206 0.652396
887 4 0.320346 0.152664 0.661171
888 4 0.27485 0.163748 0.64362
1211 4 0.260459 0.152727 0.652413
1194 4 0.326662 0.157348 0.643016
1192 2 0.351167 0.153108 0.645606
1193 4 0.375672 0.148869 0.648197
3426 4 0.498133 0.128494 0.656011
3424 2 0.483514 0.108863 0.661121
3425 4 0.468896 0.0892326 0.666231
1244 4 0.0466709 0.251766 0.58156
1270 2 0.10506 0.167613 0.591439
1212 4 0.216837 0.176987 0.649374
1219 2 0.184369 0.157447 0.626048
1220 4 0.200732 0.171447 0.638754
1210 2 0.238648 0.164857 0.650894
1243 2 0.0355916 0.274146 0.582817
983 4 0.00900517 0.306048 0.591883
1245 4 0.0245123 0.296525 0.584074
1135 2 0.173747 0.303564 0.605855
1137 4 0.162261 0.325772 0.605597
1136 4 0.185234 0.281357 0.606113
948 4 0.185685 0.275519 0.586651
791 4 0.299968 0.255532 0.589036
1237 2 0.321738 0.33417 0.587357
790 2 0.312456 0.277181 0.588306
1238 4 0.320787 0.312875 0.600426
813 4 0.405616 0.307618 0.585419
906 4 0.494407 0.306729 0.589014
953 4 0.478905 0.292581 0.589464
952 2 0.458689 0.283949 0.60138
954 4 0.438474 0.275316 0.613296
3123 4 0.479471 0.259007 0.650947
1039 2 0.0874055 0.3931 0.629337
1041 4 0.0629787 0.39453 0.634482
3264 4 0.0457855 0.399361 0.644233
3262 2 0.0404269 0.380432 0.659665
3240 4 0.0308689 0.41302 0.641892
1040 4 0.111832 0.391669 0.624193
993 4 0.117644 0.37439 0.614758
897 4 0.174316 0.337909 0.614114
991 2 0.13668 0.358794 0.610334
992 4 0.155717 0.343198 0.605911
896 4 0.207245 0.367827 0.591282
1065 4 0.228409 0.328155 0.667902
895 2 0.19078 0.352868 0.602698
1172 4 0.217883 0.400448 0.602367
1191 4 0.219737 0.383704 0.590581
1206 4 0.397522 0.378392 0.623313
1204 2 0.400808 0.400002 0.635454
1230 4 0.34789 0.436122 0.65706
926 4 0.460499 0.403648 0.573559
3238 2 0.0079229 0.422921 0.642679
1171 2 0.211924 0.424407 0.606318
1186 2 0.173375 0.469069 0.604715
1173 4 0.205964 0.448367 0.610269
1187 4 0.190167 0.456543 0.618364
891 4 0.316166 0.466664 0.608734
889 2 0.331089 0.478572 0.592589
1205 4 0.404094 0.421611 0.647595
1911 4 0.440949 0.479076 0.602692
1000 2 0.450519 0.439236 0.592633
1001 4 0.450642 0.46352 0.598586
1269 4 0.459695 0.474133 0.611143
1267 2 0.468671 0.487775 0.630077
943 2 0.0497696 0.0232104 0.68736
944 4 0.0558475 0.0465614 0.680804
1076 4 0.0522003 0.066973 0.680475
1075 2 0.0572386 0.0837284 0.698337
1283 4 0.152046 0.0550363 0.677097
2048 4 0.152174 0.000437025 0.753656
1148 4 0.243986 0.0762755 0.689672
1090 2 0.320962 0.00819599 0.715988
1147 2 0.261029 0.0598853 0.6978
1149 4 0.278072 0.0434951 0.705929
1092 4 0.322011 0.0279458 0.70069
1004 4 0.383184 0.0782485 0.718
42 3 0.465253 0.0494296 0.674959
41 1 0.454635 0.0698332 0.674636
43 3 0.432609 0.0669339 0.681332
1163 4 0.475435 0.0632707 0.691468
1162 2 0.493435 0.055553 0.707012
864 4 0.0507995 0.100382 0.732683
1077 4 0.062277 0.100484 0.716199
1107 4 0.0701135 0.10154 0.733408
851 4 0.0765027 0.112522 0.716249
862 2 0.0310109 0.0953705 0.747122
850 2 0.0801807 0.135638 0.707456
852 4 0.0838587 0.158753 0.698663
1282 2 0.153519 0.0796251 0.681386
1284 4 0.154992 0.104214 0.685675
1105 2 0.0889838 0.097687 0.749353
909 4 0.157502 0.120745 0.695254
1226 4 0.246084 0.0966384 0.686959
907 2 0.177963 0.124664 0.70908
908 4 0.198424 0.128583 0.722907
1227 4 0.216255 0.11861 0.720548
1225 2 0.231169 0.107624 0.703754
830 4 0.316 0.148541 0.680962
829 2 0.33144 0.133533 0.693672
831 4 0.34688 0.118524 0.706381
1003 2 0.361209 0.0892364 0.713357
1005 4 0.339234 0.100224 0.708714
44 3 0.465532 0.0841922 0.689247
1142 4 0.451932 0.172405 0.734712
1177 2 0.00402053 0.227933 0.687243
1179 4 0.0144152 0.232198 0.664906
1073 4 0.0855386 0.19805 0.740309
1072 2 0.0959841 0.220705 0.741997
1074 4 0.10643 0.243359 0.743686
1144 2 0.489463 0.170296 0.733658
1025 4 0.437468 0.178507 0.672456
1262 4 0.463799 0.200796 0.726862
1024 2 0.446134 0.181093 0.695766
1026 4 0.4548 0.183679 0.719077
1261 2 0.462785 0.225645 0.724273
1145 4 0.468007 0.182562 0.729867
1263 4 0.461771 0.250493 0.721684
1209 4 0.115497 0.283631 0.706061
1207 2 0.120416 0.267651 0.724652
1208 4 0.125336 0.251671 0.743243
821 4 0.133258 0.281017 0.699443
820 2 0.149019 0.292462 0.683765
822 4 0.16478 0.303906 0.668087
1064 4 0.181278 0.312501 0.66204
1063 2 0.204844 0.320328 0.664971
805 2 0.287518 0.320961 0.684153
807 4 0.270805 0.302442 0.682452
3263 4 0.0350682 0.361502 0.675097
894 4 0.0278224 0.356658 0.742657
1280 4 0.0456411 0.365249 0.738499
1279 2 0.0535222 0.385495 0.726124
816 4 0.0624744 0.36196 0.749769
1281 4 0.0614034 0.405742 0.713749
1028 4 0.236374 0.360957 0.712299
1066 2 0.198928 0.361754 0.735579
1068 4 0.221335 0.364857 0.724928
1027 2 0.239704 0.383683 0.70242
1029 4 0.243035 0.40641 0.692542
806 4 0.304232 0.33948 0.685853
1018 2 0.377361 0.37587 0.723472
1020 4 0.388236 0.394401 0.710685
1019 4 0.366486 0.357338 0.736259
1983 4 0.062169 0.423323 0.70604
1981 2 0.0654039 0.445213 0.717682
1982 4 0.0686389 0.467103 0.729324
1139 4 0.25191 0.470383 0.682882
1138 2 0.243334 0.447358 0.687519
1140 4 0.234758 0.424334 0.692156
1175 4 0.215266 0.47462 0.710236
1174 2 0.191535 0.48064 0.715314
1176 4 0.167804 0.48666 0.720392
1988 4 0.296449 0.470216 0.747377
1987 2 0.306759 0.458897 0.727609
1229 4 0.328588 0.43266 0.703062
1989 4 0.317068 0.447578 0.707841
1228 2 0.338239 0.434391 0.680061
2991 4 0.015126 0.0323853 0.783617
2989 2 0.00828839 0.0560236 0.779183
2990 4 0.00145078 0.0796619 0.77475
2049 4 0.114476 0.0283723 0.770954
1202 4 0.127757 0.0339115 0.785366
2047 2 0.133325 0.0144047 0.762305
1201 2 0.124915 0.057432 0.793359
817 2 0.322579 0.0487341 0.81757
818 4 0.332535 0.0289009 0.80605
1085 4 0.3067 0.0870274 0.827558
1050 4 0.336729 0.0050562 0.789318
974 4 0.340187 0.0102217 0.80739
973 2 0.354011 0.999878 0.825476
1113 4 0.428914 0.0471048 0.774433
1111 2 0.451549 0.0566741 0.779047
845 4 0.494315 0.0609148 0.786699
1112 4 0.474183 0.0662434 0.783661
844 2 0.497424 0.082175 0.799486
863 4 0.0112223 0.0903589 0.761561
833 4 0.00375499 0.0995427 0.77378
832 2 0.00990397 0.10919 0.796012
834 4 0.016053 0.118838 0.818245
1125 4 0.0217743 0.138321 0.816837
1123 2 0.0390358 0.154674 0.824569
1203 4 0.122073 0.0809526 0.801352
1106 4 0.107854 0.0938338 0.765298
911 4 0.115276 0.108627 0.829019
34 3 0.111531 0.0958336 0.786199
31 1 0.121255 0.108627 0.802937
35 3 0.105224 0.120418 0.81401
32 3 0.131943 0.0946285 0.817735
33 3 0.136846 0.123154 0.793758
1256 4 0.260542 0.0950303 0.808471
1257 4 0.238072 0.0991314 0.763984
840 4 0.248375 0.105476 0.820583
1255 2 0.249307 0.0970809 0.786228
1084 2 0.304613 0.101713 0.80743
1086 4 0.302526 0.116398 0.787301
47 3 0.407172 0.163654 0.817548
48 3 0.406962 0.155218 0.780922
46 1 0.406071 0.172525 0.796352
1143 4 0.423971 0.169837 0.776092
1141 2 0.437951 0.171121 0.755402
1214 4 0.998649 0.179623 0.740877
1124 4 0.0562973 0.171027 0.832301
978 4 0.291992 0.192918 0.739114
977 4 0.316661 0.222658 0.770857
918 4 0.302424 0.234337 0.774169
976 2 0.304327 0.207788 0.754985
1298 4 0.311982 0.223151 0.789051
1297 2 0.33044 0.222429 0.805903
1299 4 0.348898 0.221708 0.822754
1042 2 0.387045 0.227678 0.802093
1043 4 0.391091 0.203249 0.798627
49 3 0.386101 0.184124 0.794102
3467 4 0.491402 0.215722 0.814377
50 3 0.423658 0.186649 0.79321