ITEM: TIMESTEP
3110000
ITEM: NUMBER OF ATOMS
4590
ITEM: BOX BOUNDS pp pp pp
-9.9985700000000008e+00 9.9985700000000008e+00
-9.9985700000000008e+00 9.9985700000000008e+00
-9.9985700000000008e+00 9.9985700000000008e+00
ITEM: ATOMS id type xs ys zs
1667 4 0.0130284 0.0513335 0.0699519
701 4 0.0276374 0.0637362 0.0650486
700 2 0.0489892 0.075541 0.0595777
490 2 0.280611 0.0635658 0.0756391
492 4 0.289334 0.0402126 0.0737125
1475 4 0.287831 0.0211387 0.0767843
2974 2 0.466107 0.0120745 0.0204379
745 2 0.437013 0.0638893 0.018059
747 4 0.449937 0.0458315 0.00656707
2975 4 0.451154 0.0261201 0.00614465
2468 4 0.492527 0.999004 0.0500301
986 4 0.435327 0.0344371 0.999319
702 4 0.0703409 0.0873457 0.0541069
476 4 0.0697121 0.104071 0.065511
475 2 0.0781742 0.127571 0.0666518
477 4 0.0866363 0.151072 0.0677926
566 4 0.197875 0.138346 0.00724009
565 2 0.220388 0.148939 0.00476615
491 4 0.271888 0.086919 0.0775657
769 2 0.401983 0.154041 0.0310459
556 2 0.388736 0.0918501 0.00907294
558 4 0.405739 0.089505 0.0272547
771 4 0.413393 0.132022 0.0278589
746 4 0.424089 0.0819471 0.029551
737 4 0.230168 0.207096 0.0428321
736 2 0.210039 0.205252 0.057549
738 4 0.18991 0.203407 0.072266
573 4 0.268485 0.252086 0.05364
770 4 0.390573 0.17606 0.0342329
359 4 0.385038 0.195644 0.0313685
664 2 0.397177 0.209979 0.0595732
665 4 0.391758 0.188754 0.0475188
666 4 0.402596 0.231204 0.0716276
323 4 0.401451 0.248118 0.0630366
358 2 0.379592 0.19992 0.0073429
3338 4 0.00501643 0.258979 0.00358501
292 2 0.149346 0.325721 0.0383734
294 4 0.128755 0.320474 0.0251961
482 4 0.249586 0.255703 0.0495518
293 4 0.169938 0.330968 0.0515506
507 4 0.181295 0.327197 0.0630398
287 4 0.186985 0.331703 0.0436453
286 2 0.200808 0.324936 0.0239398
288 4 0.214631 0.318169 0.00423433
481 2 0.228314 0.263259 0.0603035
505 2 0.188784 0.305171 0.0722025
483 4 0.207043 0.270815 0.0710551
506 4 0.196273 0.283145 0.0813652
571 2 0.284481 0.25378 0.0344975
572 4 0.300477 0.255473 0.0153549
357 4 0.310915 0.272432 0.0103551
355 2 0.322664 0.294084 0.00607166
623 4 0.395469 0.248117 0.0812535
956 4 0.331645 0.332141 0.0149988
1069 2 0.406845 0.320364 0.0359356
322 2 0.413648 0.267048 0.0521706
324 4 0.425844 0.285978 0.0413045
1070 4 0.42599 0.30429 0.03542
280 2 0.457174 0.307063 0.053388
282 4 0.443033 0.294056 0.0373866
281 4 0.471314 0.32007 0.0693894
671 4 0.460655 0.332758 0.0789934
329 4 0.0100436 0.391911 0.0603004
552 4 0.169241 0.339935 0.0706558
456 4 0.195507 0.391771 0.0531542
454 2 0.187377 0.368158 0.0543886
455 4 0.179247 0.344545 0.055623
1290 4 0.261597 0.397194 0.0457593
1288 2 0.275653 0.381578 0.0322039
1289 4 0.289709 0.365963 0.0186484
251 4 0.26108 0.41743 0.048805
903 4 0.292429 0.369266 0.998113
955 2 0.35129 0.334852 0.0302264
1071 4 0.3877 0.336439 0.0364512
957 4 0.370936 0.337563 0.0454541
741 4 0.384004 0.349365 0.0520917
739 2 0.389823 0.35253 0.0762018
1787 4 0.102668 0.497134 0.0577502
1786 2 0.0923374 0.479695 0.0723907
1690 2 0.116248 0.496226 0.0174084
626 4 0.190077 0.47728 0.0526717
625 2 0.179708 0.499998 0.0514338
245 4 0.20187 0.471764 0.0693372
244 2 0.220303 0.458922 0.05836
246 4 0.238736 0.446081 0.0473829
250 2 0.264128 0.424849 0.0724872
272 4 0.251903 0.432946 0.0397551
271 2 0.258425 0.434387 0.0156601
1672 2 0.40953 0.437868 0.0749819
853 2 0.397149 0.444001 0.0208861
854 4 0.411657 0.452084 0.0395777
855 4 0.382641 0.435918 0.00219453
37 3 0.365672 0.4214 0.00563018
1674 4 0.421077 0.441118 0.0530441
564 4 0.430474 0.446655 0.0366608
563 4 0.473665 0.461032 0.0159586
562 2 0.45207 0.453843 0.0263097
228 4 0.479129 0.47855 0.0235612
19 3 0.0688601 0.0256347 0.1576
16 1 0.0680237 0.00421949 0.166493
582 4 0.242572 0.084491 0.155042
580 2 0.25659 0.0648043 0.161453
1760 4 0.49572 0.0596159 0.137326
486 4 0.426236 0.995828 0.116556
1759 2 0.498085 0.0397061 0.122386
2724 4 0.480782 0.0729104 0.139581
2744 4 0.491538 0.0672934 0.153993
237 4 0.228836 0.0938021 0.165547
312 4 0.36556 0.124677 0.158466
628 2 0.381967 0.165333 0.162253
629 4 0.368633 0.144224 0.160911
310 2 0.358211 0.101599 0.164678
2722 2 0.470198 0.0944619 0.146559
2723 4 0.459614 0.116013 0.153537
391 2 0.0504901 0.192079 0.163928
392 4 0.063519 0.212644 0.158224
536 4 0.185329 0.251749 0.14155
460 2 0.322963 0.219959 0.118461
461 4 0.301283 0.208369 0.1139
354 4 0.282819 0.214634 0.123123
352 2 0.274503 0.227092 0.143143
353 4 0.266187 0.239551 0.163163
630 4 0.395301 0.186442 0.163594
462 4 0.344643 0.23155 0.123023
255 4 0.362826 0.234568 0.132613
253 2 0.371374 0.216829 0.148023
622 2 0.377373 0.244453 0.0981144
624 4 0.359277 0.240789 0.114975
765 4 0.349518 0.247997 0.13113
537 4 0.196602 0.276834 0.0997842
535 2 0.190966 0.264291 0.120667
754 2 0.234545 0.261144 0.16133
756 4 0.222915 0.282805 0.156779
301 2 0.318832 0.318813 0.147173
303 4 0.317517 0.300386 0.164023
764 4 0.325966 0.281889 0.159367
763 2 0.337742 0.264943 0.145248
12 3 0.414664 0.328702 0.118985
527 4 0.476166 0.322031 0.0876678
647 4 0.0591575 0.35926 0.144685
315 4 0.0050048 0.396901 0.122994
550 2 0.154659 0.345996 0.0900417
551 4 0.140077 0.352057 0.109428
302 4 0.320147 0.337239 0.130323
387 4 0.328061 0.351135 0.11748
385 2 0.35237 0.35494 0.113038
493 2 0.391721 0.393806 0.1082
495 4 0.391109 0.368896 0.11027
386 4 0.37668 0.358745 0.108595
15 3 0.381048 0.344913 0.118788
740 4 0.395643 0.355695 0.100312
14 3 0.411908 0.365721 0.113099
11 1 0.402905 0.347668 0.124564
13 3 0.404673 0.351133 0.147439
672 4 0.418257 0.344544 0.102747
670 2 0.439456 0.338651 0.09087
1788 4 0.0820068 0.462256 0.0870312
1791 4 0.0520953 0.493888 0.126233
1465 2 0.0678536 0.464648 0.120812
1466 4 0.0521161 0.47606 0.136537
1467 4 0.083591 0.453236 0.105087
638 4 0.203754 0.472415 0.153302
637 2 0.188623 0.482475 0.136125
639 4 0.173492 0.492535 0.118949
252 4 0.267176 0.432269 0.0961693
609 4 0.277987 0.43908 0.112635
607 2 0.301822 0.433154 0.117318
608 4 0.325658 0.427228 0.122002
659 4 0.331638 0.439899 0.106242
494 4 0.392333 0.418717 0.10613
660 4 0.381366 0.43465 0.105702
1673 4 0.397982 0.434618 0.0969197
658 2 0.356502 0.437275 0.105972
524 4 0.399227 0.49793 0.119665
523 2 0.397511 0.473667 0.113872
525 4 0.395794 0.449405 0.108079
2480 4 0.0308333 0.00162787 0.188446
2479 2 0.0269755 0.022732 0.201288
380 4 0.0400767 0.0536337 0.218218
2481 4 0.0231176 0.0438362 0.214129
379 2 0.0335855 0.0758469 0.208752
578 4 0.0852138 0.0233472 0.175366
20 3 0.0868409 0.000112229 0.178646
577 2 0.0986389 0.0423504 0.184522
579 4 0.112064 0.0613536 0.193677
674 4 0.151453 0.00500905 0.224519
450 4 0.130758 0.0648395 0.188101
448 2 0.151199 0.07921 0.18902
673 2 0.131214 0.00312036 0.23908
1504 2 0.240801 0.998905 0.186904
235 2 0.208913 0.0893922 0.179997
236 4 0.18899 0.0849823 0.194446
689 4 0.169902 0.00500527 0.221829
581 4 0.270608 0.0451176 0.167864
1506 4 0.252262 0.0191525 0.177748
654 4 0.266364 0.0330191 0.183752
652 2 0.274819 0.0379613 0.206758
653 4 0.283273 0.0429034 0.229764
758 4 0.342404 0.0628059 0.180627
759 4 0.35945 0.0555404 0.227074
757 2 0.350927 0.0591732 0.20385
350 4 0.371939 0.0596317 0.23805
349 2 0.396513 0.0562574 0.234902
22 3 0.354738 0.0511321 0.243119
311 4 0.350862 0.0785216 0.170891
632 4 0.356399 0.06722 0.242853
480 4 0.436189 0.0453145 0.242699
351 4 0.421087 0.0528832 0.231755
743 4 0.498366 0.0791952 0.246148
2743 2 0.497435 0.0550685 0.174992
513 4 0.030212 0.165253 0.186888
511 2 0.028848 0.140311 0.187985
512 4 0.0274839 0.115368 0.189082
381 4 0.0270942 0.09806 0.199285
449 4 0.17164 0.0935804 0.189938
30 3 0.329982 0.138538 0.231824
26 1 0.342559 0.147971 0.248301
28 3 0.361142 0.158383 0.239098
761 4 0.39802 0.131655 0.228134
521 4 0.462306 0.149086 0.217708
762 4 0.447102 0.140621 0.22478
760 2 0.422561 0.136138 0.226457
332 4 0.466754 0.135544 0.230276
331 2 0.474159 0.112597 0.236893
520 2 0.482626 0.160177 0.20826
333 4 0.481565 0.0896507 0.243509
2483 4 0.000377238 0.23971 0.227643
393 4 0.0374612 0.171515 0.169633
337 2 0.0660937 0.24404 0.187411
396 4 0.014917 0.247977 0.240669
339 4 0.070767 0.227372 0.169369
546 4 0.0976638 0.233343 0.239959
544 2 0.120813 0.242096 0.24352
755 4 0.246174 0.239482 0.16588
279 4 0.268547 0.218197 0.21731
277 2 0.263825 0.232353 0.197248
278 4 0.259104 0.24651 0.177186
254 4 0.379921 0.19909 0.163432
394 2 0.0242762 0.264141 0.224047
395 4 0.0336354 0.280306 0.207425
338 4 0.0614205 0.260709 0.205453
363 4 0.0529622 0.279257 0.202958
361 2 0.0605746 0.302983 0.200884
362 4 0.068187 0.326709 0.198811
372 4 0.0843869 0.33273 0.190665
733 2 0.14581 0.32827 0.238222
545 4 0.143962 0.250849 0.24708
612 4 0.214772 0.288845 0.17443
611 4 0.217066 0.309773 0.219789
610 2 0.215919 0.299309 0.19711
344 4 0.220114 0.311391 0.239093
343 2 0.196891 0.30945 0.248155
284 4 0.268637 0.258532 0.166458
285 4 0.309675 0.287087 0.167584
283 2 0.289156 0.27281 0.167021
729 4 0.311 0.30157 0.182403
727 2 0.300209 0.317462 0.198408
308 4 0.323961 0.288575 0.176867
728 4 0.289418 0.333354 0.214414
498 4 0.350144 0.274734 0.230771
307 2 0.340629 0.283456 0.194788
309 4 0.357297 0.278336 0.212709
749 4 0.0545936 0.336458 0.208636
648 4 0.0650855 0.340276 0.190567
748 2 0.0617626 0.351686 0.227126
646 2 0.0621215 0.349768 0.167626
750 4 0.0689315 0.366914 0.245616
370 2 0.107042 0.340028 0.198324
371 4 0.129697 0.347326 0.205984
734 4 0.136499 0.347392 0.225076
417 4 0.137511 0.361904 0.216086
299 4 0.133191 0.363369 0.235711
415 2 0.157546 0.374659 0.208271
298 2 0.109978 0.368701 0.243319
300 4 0.0867641 0.374033 0.250927
416 4 0.177581 0.387415 0.200455
290 4 0.222481 0.411337 0.170897
289 2 0.201568 0.398497 0.175686
291 4 0.180655 0.385656 0.180475
445 2 0.386215 0.372557 0.22792
447 4 0.408873 0.382403 0.224064
446 4 0.363558 0.362711 0.231776
596 4 0.499251 0.410541 0.170037
595 2 0.486423 0.392474 0.181622
644 4 0.423081 0.397567 0.221506
643 2 0.44261 0.383592 0.214539
645 4 0.462138 0.369618 0.207571
597 4 0.473595 0.374407 0.193207
264 4 0.0111806 0.44456 0.251189
767 4 0.213025 0.479246 0.171921
766 2 0.218568 0.454992 0.174406
768 4 0.224112 0.430737 0.176891
412 2 0.235832 0.481017 0.230029
414 4 0.239427 0.480096 0.205303
1574 4 0.298499 0.498998 0.211327
2756 4 0.00590392 0.0738216 0.297628
234 4 0.0116319 0.0580978 0.288467
232 2 0.0310528 0.0429869 0.292902
233 4 0.0504737 0.0278759 0.297337
317 4 0.065445 0.0276251 0.309291
1404 4 0.0643149 0.012479 0.301587
1402 2 0.0802867 0.00626268 0.283381
428 4 0.067452 0.0127385 0.320984
316 2 0.0763976 0.0452346 0.32326
318 4 0.0873502 0.062844 0.337228
693 4 0.314872 0.0570553 0.266329
691 2 0.303137 0.0756453 0.278241
24 3 0.320751 0.0413502 0.255841
25 3 0.348254 0.0157757 0.253158
21 1 0.343545 0.0375418 0.257924
23 3 0.350486 0.0426077 0.279477
479 4 0.453916 0.043639 0.289428
478 2 0.445052 0.0444767 0.266063
2664 4 0.471538 0.0373514 0.288868
1428 4 0.455915 0.0312863 0.300932
258 4 0.446341 0.0481192 0.306889
2662 2 0.49426 0.0439362 0.296963
256 2 0.430016 0.0596576 0.321907
1426 2 0.448739 0.00850829 0.308338
403 2 0.233461 0.16079 0.330032
404 4 0.24897 0.141225 0.328664
692 4 0.291402 0.0942352 0.290152
721 2 0.264257 0.111757 0.301875
723 4 0.272986 0.0978769 0.282998
722 4 0.255528 0.125637 0.320751
27 3 0.329955 0.163696 0.259392
29 3 0.349272 0.131709 0.263429
631 2 0.355258 0.0903999 0.252158
707 4 0.348041 0.118167 0.278031
633 4 0.354118 0.11358 0.261462
706 2 0.353653 0.127932 0.300354
708 4 0.359266 0.137698 0.322677
444 4 0.0327086 0.217427 0.298078
442 2 0.0220649 0.227551 0.277845
443 4 0.0114211 0.237676 0.257611
600 4 0.113266 0.207656 0.328314
405 4 0.217953 0.180356 0.3314
473 4 0.216813 0.195855 0.319747
418 2 0.399197 0.249063 0.32029
419 4 0.404632 0.226687 0.330036
269 4 0.422557 0.216875 0.327687
402 4 0.147535 0.252719 0.266213
735 4 0.155121 0.309147 0.251368
375 4 0.155599 0.332267 0.328939
400 2 0.159773 0.274309 0.269259
676 2 0.161336 0.325997 0.291034
677 4 0.159905 0.312063 0.270322
401 4 0.172011 0.295899 0.272304
345 4 0.173668 0.30751 0.257216
378 4 0.280947 0.287114 0.310862
376 2 0.302666 0.29271 0.299812
377 4 0.324386 0.298307 0.288761
615 4 0.328127 0.316417 0.295587
497 4 0.337655 0.293238 0.275519
496 2 0.3439 0.283986 0.253145
541 2 0.359293 0.291799 0.306046
542 4 0.377899 0.281758 0.319395
543 4 0.340688 0.30184 0.292697
420 4 0.393762 0.271438 0.310544
2537 4 0.479607 0.297529 0.304992
364 2 0.00448272 0.390256 0.290023
365 4 0.0289918 0.393264 0.286095
603 4 0.0359208 0.385737 0.304012
601 2 0.0436626 0.391414 0.327099
678 4 0.162766 0.33993 0.311746
510 4 0.170758 0.356984 0.320419
508 2 0.191705 0.369688 0.325416
509 4 0.212653 0.382393 0.330414
434 4 0.328264 0.378113 0.323436
433 2 0.317101 0.400458 0.322305
613 2 0.329206 0.340561 0.301998
614 4 0.330286 0.364704 0.308409
1757 4 0.0273481 0.435919 0.259841
1756 2 0.0497539 0.445244 0.265858
1758 4 0.0721598 0.454568 0.271876
1775 4 0.0835315 0.466584 0.284488
775 2 0.068796 0.482514 0.314336
776 4 0.0502292 0.48636 0.330635
777 4 0.0873628 0.478668 0.298037
1776 4 0.130851 0.454194 0.274093
1774 2 0.107191 0.460389 0.279291
413 4 0.232238 0.481938 0.254756
1436 4 0.248138 0.475629 0.265176
1435 2 0.256495 0.460578 0.283309
4 3 0.261206 0.421239 0.301918
1437 4 0.264852 0.445528 0.301443
3 3 0.275013 0.452279 0.318956
1 1 0.270338 0.429694 0.321501
436 2 0.312849 0.457762 0.319019
438 4 0.295272 0.440331 0.322537
2 3 0.289927 0.418508 0.326007
435 4 0.305938 0.422802 0.321174
437 4 0.330426 0.475194 0.315501
1801 2 0.361459 0.487199 0.316876
1802 4 0.337921 0.492685 0.310471
1803 4 0.384998 0.481713 0.323281
119 3 0.494737 0.45661 0.323858
732 4 0.103076 0.0754255 0.341679
730 2 0.124025 0.068761 0.353591
731 4 0.144974 0.0620966 0.365503
606 4 0.165134 0.0648013 0.360664
604 2 0.186194 0.0749899 0.369487
257 4 0.413692 0.0711961 0.336925
699 4 0.378608 0.0521163 0.383106
1699 2 0.368866 0.015876 0.385074
1700 4 0.383653 0.0336484 0.375554
697 2 0.394331 0.0655447 0.369048
698 4 0.410055 0.0789731 0.35499
397 2 0.0704943 0.0992803 0.351909
398 4 0.0557546 0.11789 0.359757
2584 2 0.0190279 0.127929 0.353632
2586 4 0.0423049 0.131876 0.361865
458 4 0.0418496 0.14257 0.379734
457 2 0.046377 0.163091 0.393283
399 4 0.085234 0.0806703 0.344062
605 4 0.207254 0.0851786 0.378309
248 4 0.217082 0.100588 0.369721
247 2 0.232719 0.111038 0.353245
249 4 0.248356 0.121488 0.33677
683 4 0.261726 0.131503 0.338496
682 2 0.280364 0.143284 0.350287
684 4 0.299001 0.155065 0.362078
319 2 0.333228 0.153724 0.344726
320 4 0.309877 0.162331 0.347144
321 4 0.356578 0.145118 0.342307
726 4 0.407556 0.138883 0.402792
717 4 0.361018 0.137354 0.358947
715 2 0.375956 0.141827 0.378493
716 4 0.390893 0.146299 0.398039
467 4 0.404355 0.158972 0.40233
724 2 0.417278 0.116671 0.408896
725 4 0.427001 0.0944589 0.415001
642 4 0.49416 0.111409 0.386184
641 4 0.449133 0.12522 0.369373
640 2 0.471646 0.118314 0.377778
459 4 0.0509043 0.183612 0.406833
598 2 0.12193 0.209742 0.351676
599 4 0.130594 0.211828 0.375037
389 4 0.138154 0.241606 0.383263
686 4 0.128251 0.225306 0.389739
685 2 0.111565 0.224111 0.408322
275 4 0.143896 0.223111 0.383601
274 2 0.167943 0.217408 0.37981
474 4 0.191247 0.21678 0.357286
472 2 0.20403 0.206318 0.338517
276 4 0.191991 0.211705 0.376019
268 2 0.442763 0.215521 0.342352
270 4 0.462969 0.214166 0.357017
452 4 0.478347 0.220464 0.369795
451 2 0.478565 0.210259 0.39262
453 4 0.478784 0.200054 0.415446
347 4 0.053015 0.304968 0.372848
346 2 0.0360401 0.3043 0.391195
618 4 0.0712384 0.313745 0.375109
348 4 0.0190652 0.303633 0.409541
2802 4 0.000731965 0.300612 0.417551
373 2 0.142323 0.316809 0.343429
388 2 0.130272 0.2623 0.371651
616 2 0.0912716 0.304948 0.363007
390 4 0.12239 0.282993 0.360038
617 4 0.111305 0.296151 0.350905
374 4 0.129047 0.30135 0.357919
488 4 0.354273 0.294776 0.405629
602 4 0.0514045 0.397091 0.350186
549 4 0.0708015 0.402008 0.351545
547 2 0.0818528 0.412482 0.371377
240 4 0.325359 0.39787 0.394511
335 4 0.332742 0.382832 0.406622
238 2 0.344799 0.39395 0.379284
239 4 0.36424 0.39003 0.364056
587 4 0.369655 0.408966 0.357198
752 4 0.475775 0.392285 0.389052
561 4 0.476199 0.371274 0.387922
751 2 0.485258 0.408003 0.372077
559 2 0.485634 0.366525 0.410584
500 4 0.0523034 0.47663 0.347723
499 2 0.0602203 0.461131 0.365675
501 4 0.0681372 0.445632 0.383627
407 4 0.0785885 0.434984 0.398173
548 4 0.0929041 0.422957 0.39121
406 2 0.0915232 0.45204 0.411094
568 2 0.136967 0.49264 0.414697
1555 2 0.234291 0.480072 0.392407
1557 4 0.244176 0.457987 0.398711
5 3 0.255823 0.426663 0.338786
586 2 0.374634 0.432413 0.350083
593 4 0.394431 0.466868 0.334545
588 4 0.379612 0.45586 0.342967
592 2 0.414635 0.477804 0.344412
713 4 0.451608 0.495463 0.348593
594 4 0.434839 0.48874 0.354279
712 2 0.470445 0.479366 0.345244
714 4 0.489283 0.463269 0.341894
753 4 0.494742 0.423722 0.355101
117 3 0.493617 0.445941 0.35988
367 2 0.0797375 0.00235261 0.438889
720 4 0.00198614 0.0129889 0.452732
718 2 0.0226845 0.999347 0.455996
1781 4 0.11874 0.00931036 0.423859
368 4 0.0988772 0.0118221 0.425882
341 4 0.201212 0.00788288 0.496382
342 4 0.233051 0.0457777 0.503525
340 2 0.217131 0.0268303 0.499954
963 4 0.304799 0.0359332 0.437638
432 4 0.319404 0.0482953 0.444075
430 2 0.324773 0.0568326 0.466955
961 2 0.317981 0.0183126 0.425767
431 4 0.330142 0.0653699 0.489834
1216 2 0.421606 0.0519613 0.502875
1218 4 0.441055 0.0432437 0.4898
260 4 0.0450454 0.186715 0.426563
259 2 0.066589 0.198187 0.43199
261 4 0.0881326 0.209658 0.437417
687 4 0.0948791 0.222917 0.426905
1035 4 0.0981618 0.228994 0.443255
1033 2 0.104555 0.246723 0.459687
466 2 0.412006 0.176459 0.418481
409 2 0.405428 0.230178 0.442318
411 4 0.390295 0.24989 0.439557
468 4 0.419657 0.193946 0.434631
410 4 0.42056 0.210465 0.445078
574 2 0.416768 0.194985 0.482978
515 4 0.479296 0.208004 0.433503
575 4 0.42802 0.208045 0.464867
516 4 0.432512 0.199441 0.448954
514 2 0.455904 0.203723 0.441228
1034 4 0.110947 0.264453 0.476118
696 4 0.110568 0.276353 0.490598
1260 4 0.123334 0.278294 0.473605
1258 2 0.123236 0.303088 0.470374
1259 4 0.123138 0.327881 0.467144
9 3 0.150531 0.331017 0.422294
503 4 0.137039 0.330667 0.477638
487 2 0.371409 0.281544 0.418137
489 4 0.388545 0.268311 0.430644
266 4 0.383592 0.265104 0.448803
265 2 0.388557 0.275384 0.471049
267 4 0.393521 0.285663 0.493294
3308 4 0.472407 0.323122 0.471989
1011 4 0.468991 0.303096 0.466604
1009 2 0.465045 0.292454 0.488884
326 4 0.0776094 0.361573 0.473122
7 3 0.138516 0.329226 0.457862
6 1 0.145082 0.343513 0.441071
327 4 0.120983 0.3443 0.455202
325 2 0.0992963 0.352936 0.464162
10 3 0.127987 0.35776 0.436232
709 2 0.143102 0.402358 0.492318
8 3 0.163599 0.355514 0.448247
502 2 0.144211 0.347436 0.494742
334 2 0.322505 0.384503 0.429372
336 4 0.312268 0.386174 0.452123
668 4 0.305262 0.396978 0.468708
882 4 0.322519 0.398514 0.479194
880 2 0.335296 0.383343 0.494416
560 4 0.495069 0.361775 0.433247
3307 2 0.488628 0.336957 0.458926
1383 4 0.998101 0.460025 0.468598
1381 2 0.00824185 0.481595 0.476154
384 4 0.134055 0.441264 0.479442
383 4 0.115734 0.467205 0.440814
711 4 0.133913 0.420809 0.478164
408 4 0.104458 0.469096 0.424015
382 2 0.124894 0.454235 0.460128
569 4 0.122504 0.475394 0.425587
772 2 0.324039 0.468093 0.46297
667 2 0.297442 0.420516 0.465544
634 2 0.27201 0.460841 0.435765
774 4 0.301544 0.4585 0.46818
636 4 0.255 0.459267 0.417507
669 4 0.289621 0.444053 0.46238
635 4 0.28902 0.462414 0.454023
773 4 0.346533 0.477686 0.457761
1058 4 0.109729 0.0789289 0.518135
1152 4 0.248498 0.0463736 0.515365
1150 2 0.247335 0.0572702 0.537839
1151 4 0.246172 0.0681668 0.560313
1181 4 0.242659 0.0753884 0.579729
1032 4 0.241091 0.0576218 0.574866
842 4 0.38437 0.0515123 0.512336
1217 4 0.402158 0.0606789 0.515949
841 2 0.360497 0.0587692 0.510722
843 4 0.336624 0.0660261 0.509107
3007 2 0.493354 0.0347864 0.575485
3009 4 0.485884 0.0444603 0.553672
1270 2 0.0893112 0.15051 0.552945
1271 4 0.102 0.130879 0.561821
1057 2 0.105611 0.0948108 0.537002
1059 4 0.101492 0.110693 0.555869
1155 4 0.116989 0.119792 0.560135
939 4 0.100982 0.116406 0.573657
1153 2 0.139783 0.124963 0.569015
1154 4 0.162578 0.130134 0.577896
1180 2 0.240672 0.0998631 0.584442
898 2 0.250817 0.159354 0.565508
900 4 0.244373 0.140569 0.580699
1221 4 0.177135 0.142653 0.57088
1219 2 0.200928 0.139324 0.577807
1199 4 0.029487 0.222632 0.565249
879 4 0.0787989 0.19042 0.542395
877 2 0.0613126 0.201255 0.556608
1272 4 0.0766221 0.170141 0.544069
878 4 0.0438264 0.212089 0.570822
1198 2 0.00661893 0.222362 0.555141
695 4 0.08013 0.263774 0.528228
651 4 0.20401 0.218798 0.538382
858 4 0.194878 0.228564 0.523017
649 2 0.224845 0.20549 0.542123
650 4 0.245679 0.192181 0.545864
856 2 0.184952 0.24646 0.537384
899 4 0.257261 0.178139 0.550317
576 4 0.405517 0.181924 0.501089
2455 2 0.479895 0.248899 0.518919
982 2 0.014627 0.283209 0.574639
984 4 0.00400881 0.295452 0.555599
694 2 0.0953491 0.270063 0.509413
946 2 0.172704 0.288604 0.574056
857 4 0.175026 0.264355 0.551751
947 4 0.188025 0.271467 0.564219
798 4 0.206635 0.267773 0.567329
796 2 0.230158 0.276248 0.56729
804 4 0.26418 0.335877 0.506233
797 4 0.253682 0.284723 0.567251
872 4 0.365286 0.299934 0.576463
2457 4 0.459552 0.263424 0.518318
1010 4 0.4611 0.281813 0.511163
936 4 0.00705918 0.348469 0.507976
3263 4 0.0536708 0.343042 0.582805
710 4 0.152291 0.383907 0.506471
504 4 0.151383 0.364205 0.511845
1189 2 0.238264 0.370938 0.574842
1191 4 0.220487 0.387383 0.581067
803 4 0.269184 0.352815 0.553018
802 2 0.266682 0.344346 0.529626
1190 4 0.256041 0.354494 0.568618
1238 4 0.271659 0.36153 0.569724
1237 2 0.294368 0.37081 0.574561
1239 4 0.317076 0.380089 0.579398
930 4 0.334695 0.38495 0.572706
929 4 0.353206 0.37684 0.526965
881 4 0.348074 0.368171 0.509638
928 2 0.34395 0.380895 0.549835
2244 4 0.125167 0.491403 0.584986
1160 4 0.137332 0.478304 0.574593
1081 2 0.0740846 0.0684844 0.641187
4337 4 0.0145232 0.00881012 0.662976
1082 4 0.0759753 0.0568709 0.663249
1083 4 0.0721938 0.0800979 0.619125
825 4 0.147197 0.0561407 0.649926
823 2 0.160466 0.0385022 0.661673
1283 4 0.155958 0.0746197 0.655782
1030 2 0.244991 0.0404871 0.592652
1031 4 0.248892 0.0233523 0.610439
2133 4 0.187363 0.00679534 0.665823
951 4 0.265718 0.0199796 0.600075
949 2 0.286632 0.00930481 0.608666
950 4 0.307547 0.99863 0.617257
3008 4 0.500823 0.0251124 0.597298
809 4 0.488605 0.0235347 0.613319
808 2 0.477915 0.037565 0.63104
810 4 0.467224 0.0515953 0.648761
45 3 0.465162 0.0741248 0.643754
41 1 0.458324 0.0708369 0.665227
1127 4 0.0567325 0.0910524 0.619696
1126 2 0.0339802 0.0892739 0.609481
1128 4 0.0112279 0.0874955 0.599266
938 4 0.0733452 0.0973818 0.610738
937 2 0.0871638 0.106894 0.592197
1182 4 0.238684 0.124338 0.589155
1211 4 0.241526 0.138681 0.647295
1210 2 0.238796 0.140711 0.622524
1220 4 0.224722 0.135996 0.584734
1212 4 0.236065 0.142741 0.597753
1227 4 0.248752 0.126808 0.656528
908 4 0.231441 0.130169 0.662516
1282 2 0.16838 0.0953918 0.662058
1284 4 0.180803 0.116164 0.668333
907 2 0.207321 0.132549 0.668662
888 4 0.260986 0.141262 0.65734
886 2 0.284613 0.148479 0.661197
1194 4 0.321155 0.170388 0.660675
887 4 0.30824 0.155696 0.665053
3425 4 0.478374 0.0869081 0.658268
3424 2 0.496242 0.103025 0.651476
1244 4 0.0580768 0.216466 0.584732
1243 2 0.0482012 0.237644 0.593629
1192 2 0.330174 0.179285 0.639118
1193 4 0.339192 0.188182 0.617561
3123 4 0.486892 0.241662 0.625497
983 4 0.0252451 0.270965 0.593679
1245 4 0.0383256 0.258822 0.602525
948 4 0.157382 0.305741 0.583892
1135 2 0.171402 0.32262 0.615331
1136 4 0.169911 0.303934 0.598785
790 2 0.264777 0.32333 0.581771
791 4 0.259771 0.298853 0.580777
871 2 0.373536 0.308654 0.598397
873 4 0.381787 0.317374 0.62033
813 4 0.393034 0.317387 0.637747
954 4 0.459883 0.284725 0.616173
952 2 0.461876 0.309153 0.611227
3262 2 0.055775 0.365443 0.59371
1041 4 0.0728022 0.398994 0.607999
3264 4 0.0578793 0.387845 0.604616
3240 4 0.0543774 0.400629 0.618014
3238 2 0.0298917 0.405541 0.619239
3239 4 0.00540607 0.410454 0.620464
1039 2 0.0922138 0.398663 0.623755
1040 4 0.111625 0.398331 0.639511
993 4 0.129979 0.389216 0.639475
991 2 0.148309 0.372211 0.639605
822 4 0.165897 0.339852 0.650413
992 4 0.166639 0.355206 0.639734
1137 4 0.172893 0.341307 0.631877
1064 4 0.180975 0.351978 0.645872
897 4 0.181949 0.357407 0.627004
896 4 0.210442 0.385917 0.597406
895 2 0.196195 0.371662 0.612205
1172 4 0.229087 0.393198 0.597272
1171 2 0.229213 0.415355 0.608859
1063 2 0.195958 0.359284 0.664508
792 4 0.269783 0.347807 0.582764
811 2 0.396962 0.338815 0.650018
927 4 0.403231 0.377597 0.656218
812 4 0.400891 0.360243 0.66229
925 2 0.411638 0.395796 0.641274
953 4 0.463869 0.333582 0.606281
906 4 0.468131 0.353528 0.6113
904 2 0.491433 0.357112 0.602974
926 4 0.420045 0.413995 0.62633
540 4 0.119147 0.474433 0.579222
539 4 0.0881233 0.437298 0.59184
538 2 0.103635 0.455865 0.585531
1159 2 0.153268 0.475774 0.593694
1186 2 0.210572 0.467482 0.61414
1173 4 0.22934 0.437512 0.620445
1187 4 0.232519 0.456512 0.618953
1188 4 0.188625 0.478452 0.609327
1161 4 0.169203 0.473245 0.612795
1228 2 0.311238 0.468482 0.66792
1230 4 0.325291 0.471328 0.647437
1002 4 0.427244 0.432472 0.624724
1911 4 0.451159 0.496691 0.608197
1001 4 0.443651 0.47892 0.616118
1000 2 0.435447 0.455696 0.620421
1269 4 0.457696 0.488533 0.62398
1267 2 0.463486 0.496807 0.646853
944 4 0.0709434 0.0272082 0.67514
943 2 0.049562 0.0142517 0.67552
1076 4 0.0679064 0.0470259 0.679373
1075 2 0.0683668 0.0660123 0.695636
824 4 0.173736 0.0208638 0.673419
2256 4 0.182699 0.00824479 0.684025
1149 4 0.23277 0.0330312 0.690906
1147 2 0.249321 0.0496707 0.682282
1148 4 0.265872 0.0663102 0.673658
1226 4 0.260227 0.0845529 0.680685
1092 4 0.330563 0.00451857 0.689465
1004 4 0.347867 0.076139 0.7333
42 3 0.460365 0.0485389 0.670498
43 3 0.436092 0.077078 0.6675
1163 4 0.472835 0.0611463 0.684622
1162 2 0.486744 0.0495912 0.70189
44 3 0.471549 0.0832139 0.67973
4581 4 0.503111 0.0183324 0.747172
2321 4 0.495705 0.034157 0.738259
864 4 0.0621909 0.082828 0.729614
1077 4 0.0688273 0.0849988 0.711899
851 4 0.0802851 0.100053 0.705791
850 2 0.0714353 0.122601 0.69959
852 4 0.0625854 0.145149 0.69339
1107 4 0.0799179 0.0914705 0.723272
1105 2 0.100861 0.0905813 0.736902
1106 4 0.121804 0.0896921 0.750532
909 4 0.183202 0.13493 0.674807
1225 2 0.25449 0.10568 0.668607
830 4 0.326082 0.154712 0.67139
829 2 0.342015 0.139659 0.683421
1005 4 0.35591 0.12219 0.715543
1003 2 0.351888 0.0991646 0.724422
831 4 0.357948 0.124607 0.695451
3268 2 0.490238 0.152204 0.737471
977 4 0.311811 0.235361 0.726516
918 4 0.299049 0.239072 0.741144
1297 2 0.286935 0.203519 0.741683
1299 4 0.269904 0.185906 0.746675
1298 4 0.303966 0.221131 0.736691
976 2 0.336512 0.235917 0.730357
978 4 0.361212 0.236474 0.734198
1025 4 0.394008 0.198553 0.68877
1024 2 0.410016 0.204905 0.706897
1020 4 0.372224 0.249293 0.745441
3270 4 0.488864 0.169338 0.719312
1142 4 0.429579 0.212326 0.743819
1144 2 0.465736 0.200019 0.721836
1262 4 0.434687 0.226929 0.733026
1026 4 0.426024 0.211257 0.725024
1261 2 0.439243 0.249701 0.723759
1145 4 0.444356 0.210923 0.728849
1146 4 0.487116 0.189115 0.714824
1178 4 0.998246 0.254636 0.724667
1073 4 0.080086 0.267584 0.732603
1177 2 0.0205279 0.265741 0.722355
1179 4 0.0428101 0.276847 0.720042
820 2 0.153502 0.325946 0.667091
1072 2 0.105006 0.269124 0.731253
1208 4 0.145553 0.262176 0.720342
1074 4 0.129925 0.270664 0.729903
1207 2 0.151235 0.281065 0.704977
821 4 0.141107 0.31204 0.683769
1209 4 0.156917 0.299955 0.689612
1130 4 0.148171 0.270125 0.736674
815 4 0.112239 0.331619 0.71729
806 4 0.258407 0.326943 0.697379
1263 4 0.443798 0.272473 0.714492
892 2 0.0436907 0.365946 0.720138
1280 4 0.0790228 0.377831 0.728766
816 4 0.0723286 0.361746 0.717778
894 4 0.0645992 0.366757 0.733826
893 4 0.0227823 0.365136 0.70645
942 4 0.12727 0.337953 0.727861
1279 2 0.0861535 0.397963 0.741768
814 2 0.0922837 0.346682 0.717534
940 2 0.143909 0.353165 0.738674
941 4 0.160548 0.368376 0.749488
1080 4 0.166947 0.385775 0.744428
805 2 0.240458 0.344349 0.697167
1065 4 0.210941 0.366589 0.683144
807 4 0.222509 0.361755 0.696954
1028 4 0.209906 0.385296 0.679843
1066 2 0.19224 0.373728 0.718065
1068 4 0.208298 0.376583 0.699113
1027 2 0.221772 0.406956 0.675941
1067 4 0.176182 0.370873 0.737017
1206 4 0.385433 0.372888 0.661759
1204 2 0.37203 0.384365 0.679474
1205 4 0.358626 0.395842 0.697188
1029 4 0.233638 0.428616 0.67204
1176 4 0.186646 0.485538 0.748102
1174 2 0.185815 0.485145 0.723115
1140 4 0.242177 0.436675 0.688124
1175 4 0.184984 0.484752 0.698128
2172 4 0.189686 0.502012 0.690024
2026 2 0.284861 0.502016 0.704442
1138 2 0.260687 0.453424 0.686685
1139 4 0.279196 0.470173 0.685247
1987 2 0.307155 0.45245 0.728485
1229 4 0.297184 0.465635 0.688404
1989 4 0.301658 0.462695 0.706349
2028 4 0.292672 0.479249 0.697673
1988 4 0.312653 0.442205 0.750621
1101 4 0.47606 0.49815 0.687303
1099 2 0.48499 0.477498 0.698208
1100 4 0.49392 0.456846 0.709113
862 2 0.0465141 0.0803932 0.74894
2989 2 0.0168834 0.0417365 0.781096
2990 4 0.0188829 0.0664163 0.77762
2991 4 0.0148839 0.0170566 0.784572
863 4 0.0308373 0.0779584 0.768266
3083 4 0.0109258 0.0813337 0.768649
2049 4 0.098888 0.0196191 0.781211
1202 4 0.111959 0.030605 0.790042
1201 2 0.120826 0.053892 0.787973
1203 4 0.129692 0.077179 0.785904
1085 4 0.318592 0.0731586 0.816318
960 4 0.318541 0.0553613 0.824709
819 4 0.33238 0.0600539 0.812607
1050 4 0.357642 0.00932535 0.784435
817 2 0.348256 0.0420945 0.805495
818 4 0.364132 0.0241351 0.798382
974 4 0.37077 0.00670127 0.797592
2320 2 0.490214 0.0470191 0.758986
844 2 0.497171 0.0669912 0.820559
845 4 0.4874 0.0610351 0.798327
2322 4 0.484724 0.0598812 0.779712
1112 4 0.489534 0.0774013 0.786719
833 4 0.0221252 0.0860483 0.783073
832 2 0.0214836 0.105541 0.79872
834 4 0.0208419 0.125034 0.814366
1125 4 0.0359229 0.123475 0.827613
34 3 0.120879 0.0935523 0.769659
32 3 0.145608 0.0867749 0.797139
911 4 0.134795 0.101236 0.808603
31 1 0.137404 0.102936 0.782973
35 3 0.1287 0.119995 0.795296
33 3 0.154748 0.110794 0.769713
910 2 0.130327 0.0971956 0.83287