ITEM: TIMESTEP
3100000
ITEM: NUMBER OF ATOMS
4590
ITEM: BOX BOUNDS pp pp pp
-9.9985700000000008e+00 9.9985700000000008e+00
-9.9985700000000008e+00 9.9985700000000008e+00
-9.9985700000000008e+00 9.9985700000000008e+00
ITEM: ATOMS id type xs ys zs
1667 4 0.0129585 0.0568071 0.0637045
701 4 0.0312132 0.0664295 0.0634811
700 2 0.0524284 0.0793207 0.0604957
490 2 0.284799 0.0594538 0.0696219
492 4 0.292123 0.0375356 0.0791682
2974 2 0.464698 0.0137047 0.0209105
745 2 0.437443 0.0651405 0.021628
747 4 0.44803 0.0463453 0.00898579
2975 4 0.446641 0.027374 0.0103149
2976 4 0.482755 3.53819e-05 0.0315061
702 4 0.0736436 0.0922118 0.0575102
476 4 0.0661941 0.110341 0.0587363
475 2 0.0755132 0.131431 0.0684078
477 4 0.0848324 0.152521 0.0780794
566 4 0.195105 0.145881 0.00749648
565 2 0.2185 0.153088 0.0024058
491 4 0.277475 0.081372 0.0600756
769 2 0.407155 0.157521 0.0309967
556 2 0.390897 0.0931688 0.00929825
558 4 0.410564 0.0924796 0.0247224
771 4 0.422105 0.138696 0.0241222
557 4 0.37123 0.0938579 0.993874
746 4 0.426856 0.0839358 0.0342703
737 4 0.235816 0.203751 0.0505091
482 4 0.250501 0.255729 0.0627362
736 2 0.214566 0.207392 0.0631722
770 4 0.392204 0.176347 0.0378712
359 4 0.384078 0.193155 0.03193
664 2 0.399613 0.213362 0.0579217
665 4 0.400905 0.192987 0.0434869
666 4 0.398321 0.233737 0.0723564
323 4 0.403684 0.250081 0.0631188
358 2 0.376202 0.198563 0.00882391
623 4 0.397273 0.251417 0.0815475
2808 4 0.00362469 0.273656 0.00554437
3338 4 0.00363073 0.254248 0.00334478
292 2 0.147708 0.32862 0.037011
294 4 0.127041 0.324274 0.0236261
552 4 0.169607 0.338383 0.0698662
293 4 0.168376 0.332965 0.0503959
507 4 0.17798 0.324673 0.060024
287 4 0.185518 0.330127 0.0412097
286 2 0.201132 0.325223 0.0223069
288 4 0.216746 0.320318 0.003404
481 2 0.227015 0.261472 0.0691089
505 2 0.186208 0.303799 0.0710569
573 4 0.264938 0.253028 0.0502019
571 2 0.283806 0.254165 0.0338346
572 4 0.302674 0.255301 0.0174672
357 4 0.309666 0.272188 0.00987255
355 2 0.320685 0.29347 0.00274529
956 4 0.336921 0.327795 0.00827619
1069 2 0.405883 0.31789 0.0318258
322 2 0.415634 0.26737 0.0495725
324 4 0.427583 0.284659 0.0360263
1070 4 0.424255 0.301445 0.0276791
280 2 0.456447 0.309311 0.050526
282 4 0.442326 0.29935 0.0324553
281 4 0.470568 0.319273 0.0685967
671 4 0.461493 0.332712 0.0791981
329 4 0.0107326 0.384259 0.0509753
456 4 0.197707 0.389578 0.0580306
454 2 0.189746 0.365906 0.0568247
455 4 0.181784 0.342235 0.0556188
1290 4 0.267821 0.39614 0.0465705
1288 2 0.281229 0.379438 0.0336695
1289 4 0.294637 0.362736 0.0207685
251 4 0.260078 0.415366 0.052399
955 2 0.353692 0.335759 0.0250237
1071 4 0.38751 0.334335 0.0359724
957 4 0.370463 0.343724 0.0417713
741 4 0.386806 0.344913 0.0516655
739 2 0.392222 0.34915 0.0757049
1788 4 0.0833843 0.47022 0.0911947
1787 4 0.0952657 0.4964 0.0502785
1786 2 0.089325 0.48331 0.0707366
626 4 0.197179 0.48323 0.0518575
625 2 0.180117 0.501155 0.0554277
245 4 0.199122 0.467812 0.0651432
244 2 0.216811 0.454459 0.0535685
246 4 0.2345 0.441107 0.0419938
250 2 0.262259 0.422624 0.0762265
272 4 0.247227 0.424482 0.041658
271 2 0.257144 0.429623 0.0192881
1672 2 0.41128 0.437184 0.0742328
853 2 0.395594 0.442681 0.0226053
854 4 0.412304 0.447527 0.0405632
855 4 0.378884 0.437835 0.00464745
37 3 0.363294 0.423914 0.00767271
1674 4 0.424269 0.439871 0.0530372
564 4 0.432711 0.44838 0.038948
563 4 0.480157 0.458836 0.0271062
562 2 0.456434 0.453608 0.0330271
228 4 0.483243 0.478399 0.0198454
226 2 0.486748 0.500487 0.00866421
19 3 0.069259 0.0243797 0.157891
582 4 0.241868 0.0815736 0.15202
1474 2 0.286624 0.994347 0.078587
580 2 0.258753 0.0658226 0.16161
1475 4 0.288372 0.0186676 0.0730527
1760 4 0.492492 0.0627989 0.135493
486 4 0.424185 0.000150745 0.113363
1759 2 0.496947 0.0416866 0.122859
2724 4 0.478374 0.0711979 0.145037
1761 4 0.501402 0.0205743 0.110226
2744 4 0.49737 0.0681872 0.153
237 4 0.224495 0.0887012 0.163136
312 4 0.354798 0.124853 0.155537
2722 2 0.470702 0.0946429 0.149118
2723 4 0.46303 0.118088 0.153199
738 4 0.193316 0.211034 0.0758352
755 4 0.247951 0.2374 0.166017
536 4 0.182631 0.256701 0.141711
460 2 0.325626 0.219718 0.11879
461 4 0.302944 0.209481 0.116367
354 4 0.285013 0.2111 0.123802
352 2 0.275444 0.224825 0.142382
353 4 0.265876 0.238551 0.160963
630 4 0.386483 0.186921 0.167061
462 4 0.348309 0.229956 0.121214
255 4 0.359799 0.233278 0.135907
253 2 0.371161 0.219799 0.153639
622 2 0.380603 0.245774 0.0993087
624 4 0.363933 0.240131 0.11707
254 4 0.382523 0.20632 0.17137
765 4 0.352113 0.249056 0.129084
483 4 0.203529 0.267214 0.0754816
506 4 0.194437 0.282924 0.0820897
537 4 0.197651 0.281312 0.100853
535 2 0.190141 0.269006 0.121282
754 2 0.234829 0.258364 0.162338
756 4 0.221707 0.279327 0.158659
284 4 0.273238 0.25536 0.165094
301 2 0.322816 0.316636 0.147258
303 4 0.319109 0.298649 0.164225
285 4 0.313081 0.285151 0.170167
283 2 0.293159 0.270255 0.167631
764 4 0.32892 0.281099 0.159679
763 2 0.340516 0.265077 0.144382
12 3 0.414496 0.326626 0.121028
527 4 0.476157 0.32126 0.0872588
647 4 0.0626146 0.352332 0.145463
315 4 0.00218269 0.400713 0.124431
550 2 0.155205 0.342766 0.0898297
551 4 0.140802 0.347149 0.109793
302 4 0.326523 0.334623 0.13029
387 4 0.331584 0.352436 0.121753
385 2 0.355394 0.356063 0.115039
493 2 0.39296 0.393926 0.105571
495 4 0.395258 0.369313 0.109324
386 4 0.379205 0.359691 0.108325
15 3 0.382678 0.346058 0.119325
740 4 0.397638 0.353388 0.0997443
14 3 0.415561 0.363413 0.113398
11 1 0.404592 0.346908 0.125466
13 3 0.406281 0.351268 0.148194
672 4 0.420301 0.344161 0.105138
670 2 0.440897 0.338437 0.0921679
596 4 0.501395 0.405268 0.173416
595 2 0.484898 0.388608 0.182104
1791 4 0.047347 0.486866 0.125815
1465 2 0.0732676 0.463047 0.11858
1466 4 0.0580222 0.472539 0.135977
1467 4 0.088513 0.453555 0.101183
638 4 0.197837 0.477416 0.157027
767 4 0.216902 0.477731 0.16393
637 2 0.189815 0.487797 0.135741
252 4 0.26444 0.429881 0.100054
609 4 0.279014 0.439996 0.111929
607 2 0.302243 0.433081 0.118078
608 4 0.325471 0.426166 0.124226
659 4 0.332501 0.43579 0.109739
494 4 0.390661 0.418539 0.101818
660 4 0.382407 0.435778 0.106554
1673 4 0.398292 0.434496 0.0954283
658 2 0.357454 0.435784 0.108146
524 4 0.404413 0.497066 0.122223
523 2 0.399717 0.474332 0.112934
525 4 0.395022 0.451597 0.103645
16 1 0.0651045 0.00322414 0.166469
578 4 0.0830023 0.0202286 0.174743
20 3 0.079296 0.998923 0.183754
17 3 0.0434162 0.00241841 0.174093
2480 4 0.0314072 0.9992 0.190692
2479 2 0.0264914 0.0195071 0.204426
380 4 0.0363659 0.0528259 0.215174
2481 4 0.0215755 0.0398142 0.218161
379 2 0.035422 0.0754568 0.204585
577 2 0.0980994 0.0382107 0.183339
579 4 0.113197 0.0561928 0.191936
674 4 0.156619 0.00842657 0.234705
450 4 0.125597 0.0700785 0.184826
448 2 0.1485 0.0790192 0.189375
1504 2 0.243407 0.00261776 0.188389
581 4 0.275638 0.0500716 0.171201
1506 4 0.25799 0.0216479 0.181291
654 4 0.269387 0.0375455 0.186364
652 2 0.278572 0.0443925 0.208588
653 4 0.287756 0.0512396 0.230813
758 4 0.339911 0.0640732 0.179455
759 4 0.354994 0.0598958 0.226949
757 2 0.347452 0.0619845 0.203202
350 4 0.369944 0.0575746 0.236689
349 2 0.394919 0.0570213 0.235626
22 3 0.349651 0.0542965 0.242516
311 4 0.352305 0.0766536 0.168624
25 3 0.344156 0.0174602 0.244922
632 4 0.358799 0.0684435 0.243824
480 4 0.438578 0.0545751 0.242363
351 4 0.419894 0.0564681 0.234563
742 2 0.503205 0.0586512 0.230056
743 4 0.493998 0.0762637 0.245228
2743 2 0.5017 0.0564471 0.174648
513 4 0.0321518 0.164718 0.185597
511 2 0.0305459 0.139766 0.185635
512 4 0.02894 0.114814 0.185673
381 4 0.0344781 0.0980876 0.193996
235 2 0.206983 0.0846359 0.180514
449 4 0.171403 0.08796 0.193925
236 4 0.189471 0.0805707 0.197891
30 3 0.327128 0.133027 0.239594
628 2 0.376934 0.164184 0.162933
629 4 0.367385 0.141448 0.158805
310 2 0.353551 0.100754 0.16208
26 1 0.344214 0.14561 0.247865
28 3 0.35881 0.151358 0.230767
761 4 0.397828 0.131701 0.232163
521 4 0.45944 0.150348 0.218724
762 4 0.44666 0.142268 0.230061
760 2 0.422244 0.136985 0.231112
332 4 0.464373 0.134207 0.229145
331 2 0.471765 0.111662 0.237037
520 2 0.478682 0.160105 0.206086
333 4 0.479157 0.089118 0.24493
2483 4 0.00281819 0.23887 0.222619
393 4 0.0407858 0.175374 0.170214
391 2 0.0547987 0.195111 0.163949
337 2 0.0709768 0.242641 0.18831
396 4 0.0160965 0.242794 0.23889
392 4 0.0688115 0.214849 0.157684
339 4 0.074204 0.22106 0.176103
546 4 0.0959604 0.234627 0.237551
279 4 0.26631 0.215239 0.220287
277 2 0.265667 0.22833 0.198994
278 4 0.265023 0.241421 0.177701
394 2 0.0279114 0.262014 0.228111
395 4 0.0397263 0.281233 0.217331
338 4 0.0677497 0.264223 0.200516
363 4 0.0547386 0.27822 0.204485
361 2 0.0637461 0.301544 0.204645
362 4 0.0727536 0.324868 0.204804
372 4 0.0850305 0.332904 0.190636
612 4 0.224736 0.28883 0.176546
611 4 0.210004 0.307708 0.220447
610 2 0.21737 0.298269 0.198497
344 4 0.22049 0.31615 0.235557
343 2 0.198326 0.313127 0.246727
729 4 0.312917 0.298762 0.183953
727 2 0.299721 0.313893 0.198857
308 4 0.326995 0.287697 0.177412
498 4 0.353121 0.281386 0.227853
307 2 0.345481 0.285333 0.194081
309 4 0.363967 0.28297 0.21075
749 4 0.0570226 0.334215 0.210209
648 4 0.065975 0.333396 0.191624
748 2 0.0618279 0.352093 0.227015
646 2 0.0642948 0.342864 0.168544
750 4 0.0666332 0.369972 0.243821
733 2 0.143969 0.328956 0.240603
370 2 0.10801 0.337239 0.199486
371 4 0.13099 0.341574 0.208336
734 4 0.133735 0.346424 0.22593
417 4 0.134819 0.360952 0.217815
299 4 0.132718 0.365837 0.235504
415 2 0.154579 0.374706 0.211066
416 4 0.174339 0.38846 0.204316
298 2 0.109339 0.371296 0.242489
290 4 0.223735 0.415443 0.175808
289 2 0.202719 0.402773 0.180604
291 4 0.181703 0.390104 0.1854
728 4 0.286526 0.329024 0.213761
445 2 0.392948 0.366905 0.234769
447 4 0.408652 0.384119 0.2257
446 4 0.377244 0.349691 0.243837
644 4 0.424734 0.396234 0.226189
643 2 0.44364 0.382263 0.217672
645 4 0.462546 0.368291 0.209156
597 4 0.468401 0.371947 0.190791
766 2 0.219941 0.45553 0.175023
768 4 0.222981 0.433329 0.186115
412 2 0.23371 0.477172 0.230638
413 4 0.227445 0.469114 0.253463
414 4 0.239974 0.485231 0.207813
229 2 0.481712 0.498462 0.224837
231 4 0.50573 0.491627 0.226103
2756 4 0.00572436 0.0717874 0.303394
427 2 0.0516268 0.000977147 0.331518
234 4 0.00763405 0.0531903 0.296936
232 2 0.029372 0.0409261 0.298429
233 4 0.05111 0.0286618 0.299921
317 4 0.0681694 0.0304786 0.309278
1404 4 0.0658899 0.0170061 0.298951
1402 2 0.0821953 0.00762497 0.28248
428 4 0.068915 0.0113195 0.316709
316 2 0.08123 0.0482761 0.321019
318 4 0.0942907 0.0660735 0.33276
693 4 0.317754 0.0583776 0.268984
691 2 0.304755 0.0765818 0.280155
24 3 0.318855 0.0411678 0.259601
21 1 0.341404 0.0373383 0.25569
23 3 0.353005 0.0371309 0.275784
257 4 0.417584 0.0763479 0.335216
479 4 0.451538 0.0447572 0.289653
478 2 0.445058 0.0496661 0.266008
2664 4 0.469818 0.0415606 0.293953
1428 4 0.453003 0.0296482 0.297579
258 4 0.441356 0.0438176 0.305596
2662 2 0.494343 0.0431531 0.298555
256 2 0.42947 0.0600827 0.320406
1426 2 0.448927 0.00623274 0.305343
692 4 0.291755 0.0947861 0.291326
721 2 0.266947 0.115851 0.303609
723 4 0.275435 0.102973 0.283929
722 4 0.25846 0.128729 0.323289
27 3 0.335659 0.164853 0.257122
29 3 0.355533 0.133769 0.264298
631 2 0.355186 0.0911816 0.253576
707 4 0.355451 0.119072 0.277217
633 4 0.351573 0.11392 0.263328
706 2 0.356505 0.128444 0.300374
708 4 0.357558 0.137815 0.323531
444 4 0.0186655 0.208666 0.291539
442 2 0.0182913 0.2269 0.274435
443 4 0.0179172 0.245135 0.257331
544 2 0.119548 0.242005 0.24134
545 4 0.143136 0.249384 0.245129
405 4 0.216024 0.18007 0.323263
473 4 0.21565 0.196999 0.313601
402 4 0.148628 0.252888 0.264047
735 4 0.154204 0.311488 0.255276
375 4 0.151484 0.33113 0.324281
400 2 0.160106 0.274588 0.268792
401 4 0.171584 0.296288 0.273538
676 2 0.164632 0.327065 0.292172
345 4 0.176161 0.310104 0.257897
677 4 0.163675 0.313179 0.2714
378 4 0.28192 0.282317 0.307841
376 2 0.303386 0.290183 0.297717
377 4 0.324852 0.298049 0.287592
615 4 0.330982 0.317131 0.293407
497 4 0.339174 0.293634 0.274288
496 2 0.346147 0.28751 0.251071
541 2 0.359411 0.2915 0.305334
542 4 0.377751 0.28203 0.319446
543 4 0.34107 0.300969 0.291222
418 2 0.398569 0.246095 0.322716
420 4 0.393383 0.268886 0.313836
2537 4 0.482371 0.308722 0.315943
364 2 0.00712644 0.387579 0.290792
365 4 0.0319515 0.384599 0.290661
603 4 0.0323797 0.386198 0.309626
300 4 0.0859591 0.376754 0.249474
678 4 0.165588 0.340951 0.312943
510 4 0.16895 0.355606 0.326518
508 2 0.191331 0.366697 0.327641
434 4 0.330672 0.382221 0.319202
433 2 0.318885 0.404266 0.319771
614 4 0.331273 0.363996 0.310849
613 2 0.331127 0.340564 0.302128
264 4 0.0112807 0.439244 0.247132
1757 4 0.028121 0.427641 0.252213
1756 2 0.045579 0.442278 0.262516
1758 4 0.063037 0.456915 0.272818
1775 4 0.0805191 0.463669 0.277671
777 4 0.0830574 0.476814 0.29298
775 2 0.0719728 0.485893 0.313471
1776 4 0.129646 0.454816 0.274685
1774 2 0.105082 0.459243 0.276178
1436 4 0.24368 0.471937 0.264027
1435 2 0.252981 0.45881 0.283168
4 3 0.256127 0.423882 0.305105
1437 4 0.262282 0.445684 0.302308
3 3 0.275069 0.452769 0.320953
1 1 0.269564 0.430312 0.322895
436 2 0.314083 0.457855 0.317868
438 4 0.295137 0.44171 0.320225
2 3 0.288898 0.417854 0.322493
435 4 0.307099 0.42631 0.320339
437 4 0.333029 0.474 0.315511
1801 2 0.363191 0.487538 0.317825
1802 4 0.339689 0.492123 0.31063
1803 4 0.386694 0.482953 0.325021
119 3 0.496263 0.457125 0.325131
1781 4 0.114827 0.00510161 0.416362
732 4 0.0986633 0.0734403 0.349752
730 2 0.121533 0.0667568 0.357333
731 4 0.144403 0.0600734 0.364915
399 4 0.0840449 0.0818605 0.340964
606 4 0.163746 0.0619211 0.36716
604 2 0.184581 0.0745086 0.372874
962 4 0.330819 0.000889753 0.415722
699 4 0.373625 0.053321 0.369754
1699 2 0.369267 0.0155113 0.387968
1700 4 0.379481 0.034716 0.375637
697 2 0.394377 0.0651436 0.362354
698 4 0.415129 0.0769661 0.354954
2585 4 0.000939568 0.127216 0.339262
397 2 0.0727834 0.102676 0.34903
398 4 0.0615218 0.123492 0.357097
2584 2 0.0223253 0.129381 0.352035
2586 4 0.0437111 0.131545 0.364808
458 4 0.0490381 0.145615 0.379202
457 2 0.0493282 0.16619 0.393406
403 2 0.230632 0.160213 0.327445
404 4 0.24524 0.140356 0.331627
605 4 0.205415 0.0870961 0.378589
248 4 0.211192 0.0989981 0.363263
247 2 0.2297 0.110068 0.35061
249 4 0.248207 0.121139 0.337956
683 4 0.259224 0.133038 0.343009
682 2 0.28053 0.145183 0.347884
684 4 0.301835 0.157328 0.352759
319 2 0.335737 0.159639 0.347392
321 4 0.356591 0.147591 0.340671
726 4 0.412688 0.140619 0.404246
717 4 0.362664 0.140862 0.357849
715 2 0.379648 0.142264 0.376145
716 4 0.396633 0.143666 0.394441
467 4 0.403338 0.158048 0.404379
724 2 0.419431 0.116908 0.408425
725 4 0.426174 0.0931962 0.412605
642 4 0.494878 0.111852 0.383434
641 4 0.449381 0.130101 0.373546
640 2 0.472129 0.120977 0.37849
459 4 0.0496183 0.186765 0.40761
600 4 0.0999892 0.209087 0.333808
598 2 0.115427 0.212948 0.353094
599 4 0.130865 0.216808 0.37238
389 4 0.139733 0.241425 0.389884
686 4 0.130601 0.223172 0.390238
685 2 0.113375 0.221562 0.40829
275 4 0.146182 0.224733 0.383746
274 2 0.170445 0.220345 0.379593
474 4 0.196653 0.216164 0.355702
472 2 0.206152 0.206581 0.334651
276 4 0.194708 0.215958 0.375441
320 4 0.314884 0.171686 0.354114
419 4 0.403755 0.223304 0.331597
269 4 0.423244 0.220368 0.325631
268 2 0.442394 0.217651 0.341476
270 4 0.461544 0.214933 0.357321
452 4 0.478028 0.220703 0.367625
451 2 0.479291 0.210899 0.390592
453 4 0.480553 0.201095 0.413558
347 4 0.0576712 0.306156 0.377156
346 2 0.0379206 0.308041 0.392372
618 4 0.0722175 0.318919 0.371148
348 4 0.01817 0.309926 0.407589
373 2 0.142826 0.314255 0.340573
388 2 0.132707 0.261481 0.376709
616 2 0.0930108 0.306805 0.364361
390 4 0.125681 0.281536 0.363534
617 4 0.113804 0.294691 0.357574
374 4 0.134169 0.297379 0.356865
488 4 0.361571 0.296763 0.399199
487 2 0.373803 0.281874 0.415132
601 2 0.042758 0.392386 0.331516
602 4 0.0531364 0.398574 0.353407
549 4 0.072498 0.402433 0.352013
547 2 0.0786204 0.410798 0.374766
509 4 0.213712 0.377787 0.328763
240 4 0.321792 0.393815 0.390582
335 4 0.327777 0.38069 0.405204
238 2 0.339481 0.391032 0.373131
239 4 0.35717 0.388249 0.355681
587 4 0.363592 0.406836 0.351551
752 4 0.476437 0.386262 0.381441
561 4 0.465858 0.370615 0.38989
751 2 0.485958 0.405295 0.368317
559 2 0.4808 0.363737 0.408721
776 4 0.0608881 0.494972 0.333962
500 4 0.0560842 0.479093 0.345574
499 2 0.0627245 0.463684 0.364113
501 4 0.0693648 0.448276 0.382651
407 4 0.0812989 0.438443 0.395411
548 4 0.0847427 0.419162 0.39752
406 2 0.0928807 0.454638 0.410535
1555 2 0.228459 0.478667 0.393394
1557 4 0.23937 0.462446 0.408983
5 3 0.258689 0.42665 0.342567
586 2 0.372945 0.429379 0.346119
593 4 0.393867 0.46731 0.336965
588 4 0.382298 0.451922 0.340687
592 2 0.413226 0.481183 0.344577
713 4 0.451347 0.496418 0.346508
594 4 0.432585 0.495056 0.352189
712 2 0.470137 0.480003 0.344878
714 4 0.488928 0.463588 0.343247
753 4 0.495478 0.424329 0.355192
117 3 0.492331 0.446407 0.36094
718 2 0.0223481 0.0028405 0.453003
368 4 0.0991223 0.0132736 0.425384
341 4 0.200227 0.00422434 0.49722
963 4 0.303511 0.0362309 0.438215
432 4 0.321082 0.0470596 0.443679
430 2 0.325453 0.0555664 0.466781
961 2 0.317165 0.0185603 0.426969
431 4 0.329824 0.0640732 0.489883
843 4 0.335522 0.0613042 0.507958
1216 2 0.424843 0.0524545 0.497851
1218 4 0.444381 0.0524292 0.482249
576 4 0.401368 0.177071 0.498214
260 4 0.0497225 0.184282 0.427743
259 2 0.0683729 0.199423 0.43468
261 4 0.0870233 0.214563 0.441616
687 4 0.0961493 0.219953 0.426342
1035 4 0.0985302 0.230732 0.442494
1033 2 0.106288 0.245645 0.461004
466 2 0.406754 0.175686 0.421768
409 2 0.404602 0.229325 0.444775
410 4 0.416282 0.208384 0.451863
411 4 0.392921 0.250266 0.437688
468 4 0.41017 0.193325 0.439158
574 2 0.415515 0.188084 0.480786
515 4 0.476569 0.203455 0.433718
575 4 0.429662 0.199097 0.463357
516 4 0.427842 0.198646 0.443881
514 2 0.452206 0.201051 0.4388
2802 4 0.00210581 0.2965 0.411492
1034 4 0.114045 0.260558 0.479513
696 4 0.105048 0.269353 0.493588
1260 4 0.108504 0.280428 0.478286
1258 2 0.116251 0.303547 0.472744
1259 4 0.123998 0.326665 0.467202
9 3 0.143051 0.321376 0.427194
7 3 0.138742 0.331437 0.463151
503 4 0.137534 0.327877 0.481875
489 4 0.386035 0.266985 0.431066
266 4 0.389195 0.266343 0.44962
265 2 0.388816 0.28051 0.47022
267 4 0.388438 0.294677 0.490819
3308 4 0.475604 0.324683 0.46798
1011 4 0.475733 0.305475 0.467636
1009 2 0.466415 0.294082 0.487849
326 4 0.0778122 0.366514 0.472366
6 1 0.142394 0.339345 0.44186
327 4 0.119627 0.343663 0.457197
325 2 0.0987194 0.355089 0.464782
10 3 0.125478 0.353463 0.436098
709 2 0.142804 0.402119 0.486731
8 3 0.162645 0.350663 0.441433
502 2 0.141153 0.34676 0.49786
334 2 0.320853 0.383926 0.429011
336 4 0.31393 0.387162 0.452818
668 4 0.304422 0.395747 0.467445
882 4 0.316328 0.387297 0.482367
880 2 0.335439 0.378035 0.495563
3307 2 0.492493 0.337655 0.454877
1382 4 0.0152373 0.505327 0.480254
384 4 0.132714 0.438834 0.480033
383 4 0.112187 0.461448 0.440435
711 4 0.143045 0.422821 0.472711
408 4 0.104462 0.470833 0.42566
382 2 0.122451 0.450141 0.460234
569 4 0.123996 0.472031 0.428939
568 2 0.137074 0.490881 0.418999
669 4 0.294648 0.444684 0.464227
636 4 0.257462 0.458658 0.414821
634 2 0.271777 0.459629 0.435298
635 4 0.286093 0.4606 0.455774
774 4 0.302571 0.461945 0.4653
667 2 0.299535 0.420215 0.465836
772 2 0.324154 0.470345 0.455877
773 4 0.345737 0.478745 0.446453
1058 4 0.102751 0.0740163 0.522518
1152 4 0.244547 0.0459182 0.512675
342 4 0.23074 0.0437666 0.499689
340 2 0.215484 0.0239955 0.498454
1150 2 0.24168 0.0560122 0.53537
1151 4 0.238813 0.0661063 0.558065
1181 4 0.240263 0.0776088 0.574707
1032 4 0.241626 0.0583058 0.575756
2430 4 0.189921 0.996746 0.512991
842 4 0.384303 0.0511317 0.512161
1217 4 0.405304 0.0524797 0.513453
841 2 0.359913 0.056218 0.51006
3007 2 0.487752 0.0296957 0.57258
1061 4 0.496022 0.028944 0.538126
3009 4 0.483935 0.0393464 0.549832
3077 4 0.0011273 0.0877652 0.58567
1270 2 0.0890125 0.150531 0.551898
1271 4 0.100129 0.129474 0.559528
1057 2 0.101289 0.0926504 0.539126
1059 4 0.0998266 0.111285 0.555733
1155 4 0.116398 0.116367 0.561836
939 4 0.103691 0.119574 0.574969
1153 2 0.139997 0.123603 0.565827
1180 2 0.238069 0.101934 0.58006
898 2 0.246582 0.162667 0.566778
1182 4 0.235875 0.126259 0.585413
900 4 0.238458 0.145058 0.582561
1199 4 0.0287503 0.217949 0.560566
879 4 0.0755532 0.191789 0.540371
877 2 0.0594057 0.202168 0.556393
1272 4 0.0778958 0.171588 0.544268
878 4 0.0432581 0.212546 0.572416
1198 2 0.00618445 0.221193 0.550297
651 4 0.204522 0.223195 0.534434
858 4 0.190028 0.227851 0.522881
649 2 0.224308 0.208361 0.538132
650 4 0.244093 0.193527 0.541831
856 2 0.184778 0.247496 0.53743
899 4 0.254705 0.180276 0.550994
982 2 0.0166879 0.278476 0.572331
3353 4 0.994992 0.334047 0.51862
695 4 0.0794571 0.25605 0.53444
694 2 0.0922526 0.262701 0.514014
946 2 0.178291 0.28538 0.57628
857 4 0.179528 0.267141 0.55198
947 4 0.195461 0.276132 0.560632
798 4 0.212791 0.266914 0.558996
796 2 0.232712 0.272575 0.573005
2455 2 0.48181 0.250952 0.51713
2457 4 0.46057 0.263985 0.515091
1010 4 0.457097 0.282689 0.508061
936 4 0.00774506 0.344457 0.508439
710 4 0.142563 0.381417 0.50075
504 4 0.144772 0.365643 0.513844
1189 2 0.237529 0.367478 0.573461
1191 4 0.21945 0.384016 0.578442
803 4 0.264974 0.346721 0.55257
804 4 0.262652 0.330323 0.505386
802 2 0.263813 0.338522 0.528978
1190 4 0.255609 0.35094 0.568481
1238 4 0.271622 0.357061 0.568971
792 4 0.265514 0.345061 0.584452
1237 2 0.291999 0.371083 0.572625
1239 4 0.312376 0.385104 0.57628
929 4 0.355653 0.373735 0.529417
881 4 0.354551 0.368773 0.508758
928 2 0.34389 0.378871 0.550875
930 4 0.332128 0.384007 0.572333
1081 2 0.0770894 0.0664204 0.639806
4337 4 0.013829 0.00505255 0.666166
825 4 0.148296 0.055055 0.650065
1082 4 0.076536 0.0509262 0.659423
1030 2 0.24524 0.0439737 0.595923
1031 4 0.248854 0.0296416 0.61609
2133 4 0.189106 0.00780463 0.668969
1148 4 0.263873 0.0693344 0.669214
951 4 0.260103 0.0155143 0.607644
949 2 0.282909 0.00686423 0.613146
3008 4 0.491569 0.020045 0.595328
809 4 0.486953 0.023461 0.614297
808 2 0.476869 0.0386641 0.631396
810 4 0.466786 0.0538672 0.648494
45 3 0.460735 0.0749968 0.644455
41 1 0.456162 0.069071 0.665963
3425 4 0.47419 0.0857771 0.658854
1083 4 0.0776428 0.0819146 0.62019
1127 4 0.0610245 0.0904039 0.619718
1126 2 0.0386247 0.0909969 0.608624
1128 4 0.0162248 0.0915899 0.59753
938 4 0.0735662 0.100438 0.609997
1154 4 0.163595 0.130839 0.569818
937 2 0.0886285 0.110006 0.592483
1221 4 0.174569 0.147476 0.567687
1219 2 0.197275 0.142232 0.576749
1211 4 0.246843 0.133404 0.647267
1210 2 0.239621 0.136514 0.623532
1220 4 0.219981 0.136987 0.585811
1212 4 0.232398 0.139625 0.599797
1227 4 0.248695 0.127182 0.663069
908 4 0.232035 0.135942 0.660973
888 4 0.262696 0.13942 0.658738
886 2 0.284644 0.150726 0.662693
3424 2 0.49303 0.101224 0.653228
1244 4 0.0547772 0.216817 0.58701
1243 2 0.0492373 0.239774 0.595224
1194 4 0.321115 0.171761 0.660565
1192 2 0.332033 0.178695 0.639167
1193 4 0.342951 0.185629 0.617769
983 4 0.0334995 0.269497 0.588515
1245 4 0.0436974 0.262731 0.603437
948 4 0.161122 0.294628 0.591929
1135 2 0.173086 0.324548 0.617451
1136 4 0.17555 0.304995 0.602063
790 2 0.264386 0.320146 0.586222
791 4 0.263259 0.295231 0.587992
797 4 0.252633 0.278237 0.587015
872 4 0.362671 0.303609 0.578161
871 2 0.373424 0.308395 0.600221
873 4 0.384177 0.313181 0.622281
813 4 0.395454 0.317451 0.639354
3123 4 0.483194 0.248989 0.625446
954 4 0.454601 0.290277 0.616417
952 2 0.461049 0.314253 0.613462
3121 2 0.502949 0.256334 0.638898
3263 4 0.062094 0.343482 0.584496
3262 2 0.0639296 0.365592 0.596026
1041 4 0.0689518 0.402747 0.620113
3264 4 0.0657652 0.387702 0.607557
3240 4 0.0527932 0.402586 0.608558
3238 2 0.0283736 0.406694 0.61202
3239 4 0.00395397 0.410802 0.615482
822 4 0.167291 0.338899 0.65352
1039 2 0.0906133 0.398391 0.631817
1040 4 0.112275 0.394035 0.643521
993 4 0.126502 0.382604 0.635335
991 2 0.147623 0.369682 0.638814
992 4 0.168744 0.35676 0.642292
1137 4 0.170622 0.344101 0.632839
1064 4 0.181637 0.348765 0.647311
897 4 0.184896 0.357428 0.630247
896 4 0.210563 0.384991 0.597351
895 2 0.19773 0.37121 0.613799
1172 4 0.224857 0.396605 0.591798
811 2 0.398282 0.340289 0.649133
1206 4 0.38646 0.373225 0.665808
927 4 0.402597 0.382096 0.656934
812 4 0.401109 0.363126 0.658912
925 2 0.414421 0.398487 0.642214
953 4 0.467498 0.33823 0.610507
906 4 0.469442 0.357416 0.605332
904 2 0.4939 0.361984 0.602864
540 4 0.118964 0.472141 0.585617
539 4 0.0895692 0.432583 0.594087
2244 4 0.123449 0.489048 0.578188
1160 4 0.13517 0.472433 0.575388
538 2 0.104267 0.452362 0.589852
1159 2 0.154042 0.477482 0.590994
1171 2 0.229836 0.416864 0.60558
1186 2 0.214052 0.469498 0.610689
1173 4 0.234816 0.437123 0.619363
1187 4 0.234886 0.455803 0.61258
1188 4 0.193217 0.483192 0.608797
1161 4 0.172914 0.482532 0.6066
1002 4 0.429671 0.429685 0.6161
926 4 0.426245 0.414878 0.627493
1911 4 0.450575 0.487208 0.605654
1001 4 0.443436 0.4776 0.620022
1000 2 0.436553 0.453642 0.618061
1269 4 0.462357 0.485877 0.620193
1267 2 0.464019 0.495324 0.643284
944 4 0.0654642 0.0329767 0.681985
943 2 0.0492174 0.0149664 0.675915
1076 4 0.0655305 0.0514619 0.676843
1075 2 0.0665213 0.066347 0.696909
945 4 0.0329705 0.996956 0.669844
864 4 0.0606125 0.0890389 0.735483
1077 4 0.0675122 0.0812321 0.716974
862 2 0.0444677 0.0810859 0.75284
823 2 0.15952 0.034719 0.659319
1283 4 0.157487 0.0716131 0.656286
824 4 0.170744 0.014383 0.668573
2256 4 0.177655 0.00710782 0.685091
1149 4 0.237008 0.0283039 0.678985
1147 2 0.250441 0.0488192 0.674099
1226 4 0.2667 0.0845699 0.682062
1092 4 0.331366 0.0066616 0.688567
42 3 0.461297 0.0468485 0.668955
43 3 0.43361 0.0722249 0.67042
1163 4 0.470412 0.0598324 0.684522
1162 2 0.485179 0.0490179 0.701556
44 3 0.468973 0.0817614 0.680566
851 4 0.0747257 0.0988271 0.707958
850 2 0.0714338 0.122377 0.700229
852 4 0.0681418 0.145927 0.692501
1107 4 0.0762745 0.0923498 0.725889
1105 2 0.0987064 0.0914732 0.736899
1282 2 0.165991 0.0951227 0.655877
1284 4 0.174495 0.118632 0.655467
909 4 0.18316 0.131106 0.670383
907 2 0.207598 0.133524 0.665678
1225 2 0.257698 0.105876 0.672566
887 4 0.306592 0.162032 0.666648
830 4 0.322847 0.158235 0.675861
1004 4 0.341747 0.0772536 0.723125
829 2 0.339187 0.142328 0.686114
1005 4 0.363147 0.121768 0.715301
1003 2 0.352447 0.0995109 0.719213
831 4 0.355528 0.126421 0.696368
3268 2 0.493235 0.150992 0.737007
3270 4 0.494478 0.172841 0.724913
1178 4 0.998164 0.25322 0.723251
977 4 0.313242 0.234747 0.729152
918 4 0.294922 0.23883 0.736142
1297 2 0.287716 0.201017 0.741394
1299 4 0.273116 0.181043 0.745006
1298 4 0.302317 0.220991 0.737783
976 2 0.338014 0.237977 0.728099
978 4 0.362785 0.241207 0.727047
1025 4 0.393873 0.201385 0.691596
1024 2 0.410332 0.203637 0.710283
1142 4 0.430649 0.216188 0.744543
1144 2 0.465783 0.197849 0.722646
1262 4 0.435115 0.22373 0.727782
1026 4 0.426792 0.205889 0.728969
1261 2 0.441313 0.247811 0.725164
1145 4 0.445268 0.208272 0.732426
1146 4 0.486298 0.187425 0.712865
1073 4 0.083149 0.267171 0.740712
1177 2 0.021042 0.263229 0.721989
1179 4 0.04392 0.273239 0.720727
820 2 0.153626 0.324525 0.668746
1072 2 0.106657 0.270261 0.732773
1208 4 0.150145 0.267968 0.72528
1074 4 0.130164 0.273352 0.724833
1207 2 0.152752 0.282574 0.705154
821 4 0.139961 0.310151 0.683972
1209 4 0.155358 0.297179 0.685028
1130 4 0.139526 0.268104 0.740297
815 4 0.112743 0.329817 0.721785
942 4 0.126279 0.336782 0.734995
1129 2 0.158244 0.265251 0.756627
806 4 0.259251 0.328832 0.69294
1020 4 0.371293 0.249528 0.742212
1263 4 0.44751 0.271892 0.722545
892 2 0.0385273 0.363307 0.717893
1280 4 0.0730235 0.37908 0.736845
816 4 0.076259 0.363963 0.723714
894 4 0.0589618 0.367341 0.731726
893 4 0.0180929 0.359274 0.704061
1279 2 0.0857862 0.400107 0.741336
814 2 0.0945008 0.34689 0.722749
940 2 0.146364 0.350526 0.740728
941 4 0.166449 0.36427 0.746461
1080 4 0.172519 0.383769 0.750821
1063 2 0.195824 0.356894 0.666228
805 2 0.241711 0.346485 0.695378
1065 4 0.210011 0.365022 0.685144
807 4 0.224171 0.364137 0.697815
1028 4 0.20848 0.383534 0.681262
1066 2 0.195493 0.373614 0.721773
1068 4 0.207441 0.376614 0.700015
1027 2 0.22162 0.403414 0.673693
1067 4 0.183545 0.370614 0.743532
1204 2 0.37118 0.387181 0.679841
1205 4 0.355899 0.401137 0.693873
1983 4 0.0953383 0.436785 0.757904
1029 4 0.234761 0.423294 0.666125
1176 4 0.185815 0.486151 0.749899
1174 2 0.185406 0.48431 0.724967
1140 4 0.237092 0.436735 0.680655
1138 2 0.258287 0.449745 0.683246
1139 4 0.279482 0.462754 0.685837
1987 2 0.303163 0.452493 0.728703
1229 4 0.298337 0.466225 0.688643
1989 4 0.300552 0.466841 0.708393
2028 4 0.287386 0.476419 0.697012
1228 2 0.310288 0.468413 0.66679
1230 4 0.322238 0.470602 0.644936
1268 4 0.465681 0.504772 0.666374
1101 4 0.469771 0.494168 0.682565
1099 2 0.485346 0.47894 0.694841
2989 2 0.0154222 0.0392396 0.784509
2990 4 0.0157494 0.064087 0.781738
2991 4 0.015095 0.0143921 0.787279
863 4 0.0283229 0.073133 0.770198
833 4 0.0167768 0.0824947 0.782686
3083 4 0.0098652 0.0760253 0.766469
2049 4 0.100886 0.0164762 0.784679
1202 4 0.104163 0.0339013 0.794161
1201 2 0.114396 0.0561172 0.788971
1203 4 0.124628 0.0783332 0.783782
34 3 0.121494 0.0937852 0.767688
1085 4 0.318467 0.071314 0.810782
819 4 0.334167 0.0615928 0.815017
1084 2 0.305238 0.089341 0.799593
960 4 0.317176 0.0592195 0.825751
1050 4 0.35368 0.0128523 0.787514
817 2 0.349043 0.0442919 0.804791
818 4 0.363919 0.0269911 0.794566
974 4 0.367635 0.00823731 0.8001
2320 2 0.493901 0.0472403 0.759187
844 2 0.500702 0.0694928 0.818884
845 4 0.49788 0.0670847 0.794157
2322 4 0.487972 0.0580256 0.780951
1112 4 0.48293 0.077348 0.788174
832 2 0.0248981 0.097116 0.801272
834 4 0.0330194 0.111737 0.819858
1125 4 0.0462558 0.12664 0.826869
32 3 0.142006 0.0845789 0.797808
1106 4 0.121138 0.0905966 0.747909
911 4 0.137766 0.101358 0.808648
31 1 0.138412 0.100825 0.781924
35 3 0.132325 0.120191 0.792246