ITEM: TIMESTEP
1380000
ITEM: NUMBER OF ATOMS
4590
ITEM: BOX BOUNDS pp pp pp
-9.9985700000000008e+00 9.9985700000000008e+00
-9.9985700000000008e+00 9.9985700000000008e+00
-9.9985700000000008e+00 9.9985700000000008e+00
ITEM: ATOMS id type xs ys zs
1666 2 0.0747858 0.0629109 0.0683261
1668 4 0.0579917 0.054283 0.0519341
1475 4 0.276407 0.0141652 0.0878801
297 4 0.336401 0.0746836 0.0604518
295 2 0.348013 0.0827071 0.0398131
486 4 0.375845 0.0145894 0.0504422
747 4 0.465061 0.0575036 0.0103741
2974 2 0.470494 0.0286031 0.0371255
2976 4 0.481016 0.00975537 0.0497442
2975 4 0.459972 0.0474507 0.0245068
745 2 0.454229 0.0793845 0.0157645
3836 4 0.485525 0.991406 0.0456317
2468 4 0.479488 0.997331 0.0635321
986 4 0.44922 0.0474807 0.00705554
567 4 0.186532 0.171357 0.0244804
296 4 0.359625 0.0907306 0.0191743
557 4 0.376939 0.093428 0.00599535
556 2 0.401174 0.0987493 0.00907934
769 2 0.387381 0.153311 0.0362317
771 4 0.391267 0.131572 0.0245057
558 4 0.42541 0.104071 0.0121633
746 4 0.443396 0.101266 0.021155
566 4 0.148138 0.202503 0.0320012
565 2 0.167335 0.18693 0.0282408
358 2 0.349272 0.17411 0.074022
770 4 0.383495 0.17505 0.0479576
359 4 0.368391 0.178858 0.058623
664 2 0.39082 0.216124 0.0559764
665 4 0.381554 0.193278 0.051808
666 4 0.400085 0.23897 0.0601448
555 4 0.084406 0.273093 0.0485746
553 2 0.084423 0.265739 0.0246771
287 4 0.152542 0.31995 0.0321526
293 4 0.162361 0.30387 0.0354074
292 2 0.154091 0.288319 0.0176606
507 4 0.165352 0.317921 0.0475908
505 2 0.18024 0.311517 0.0666305
481 2 0.230979 0.285619 0.0723713
573 4 0.254503 0.26549 0.0415501
482 4 0.249233 0.276282 0.0580613
571 2 0.261346 0.262476 0.0176907
572 4 0.268189 0.259463 0.993831
322 2 0.400788 0.281559 0.0682227
1069 2 0.394455 0.304543 0.0176906
324 4 0.405769 0.287645 0.0444881
1070 4 0.414089 0.292923 0.0279213
741 4 0.354045 0.327772 0.0286148
957 4 0.354866 0.313462 0.0134583
1071 4 0.374821 0.316163 0.00745994
739 2 0.362482 0.334194 0.0512587
323 4 0.395808 0.275473 0.0919573
671 4 0.456069 0.312293 0.05956
280 2 0.445816 0.296058 0.0288421
281 4 0.464454 0.304706 0.0430907
282 4 0.427178 0.287411 0.0145934
670 2 0.444776 0.323217 0.0790104
329 4 0.998176 0.420208 0.0259004
286 2 0.141555 0.342253 0.029497
288 4 0.130568 0.364555 0.0268413
454 2 0.139708 0.378157 0.0746112
552 4 0.119103 0.358258 0.0877348
455 4 0.121272 0.362376 0.0685872
456 4 0.158144 0.393937 0.0806353
250 2 0.279632 0.408127 0.0324932
251 4 0.261534 0.39348 0.0233753
1290 4 0.256004 0.382784 0.00739615
740 4 0.370919 0.340616 0.0739026
495 4 0.396644 0.373283 0.0623495
493 2 0.393368 0.397731 0.0664438
14 3 0.392068 0.35749 0.0713545
672 4 0.433482 0.33414 0.0984608
328 2 0.00144551 0.437115 0.0440281
245 4 0.240151 0.437207 0.0407792
626 4 0.220966 0.444104 0.0454589
625 2 0.199572 0.441239 0.0580781
244 2 0.248881 0.450872 0.0217473
1778 4 0.233689 0.490504 0.0275051
246 4 0.257611 0.464538 0.00271537
627 4 0.178177 0.438375 0.0706973
252 4 0.297729 0.422773 0.041611
609 4 0.288801 0.432748 0.056489
272 4 0.277495 0.45958 0.997575
607 2 0.307214 0.431865 0.0733813
494 4 0.390093 0.422178 0.070538
1672 2 0.390572 0.48261 0.0372462
854 4 0.432942 0.464664 0.0148267
1674 4 0.410001 0.467348 0.0334032
608 4 0.325628 0.430982 0.0902735
563 4 0.473438 0.462568 0.0516849
228 4 0.493152 0.457177 0.0459453
562 2 0.451223 0.468174 0.0416717
564 4 0.429008 0.473779 0.0316585
226 2 0.5029 0.445179 0.0655975
19 3 0.0551533 0.076686 0.169993
18 3 0.065936 0.0535 0.141877
16 1 0.0657592 0.0566973 0.164858
1667 4 0.0915799 0.0715388 0.084718
701 4 0.094328 0.0743252 0.104432
492 4 0.283078 0.0328814 0.0904176
491 4 0.284011 0.0621302 0.130968
490 2 0.283545 0.0475058 0.110693
484 2 0.381408 0.00681417 0.0735459
2723 4 0.429123 0.0427245 0.137943
2722 2 0.450698 0.0402637 0.150339
2724 4 0.472272 0.0378029 0.162734
700 2 0.0998182 0.0943252 0.118398
476 4 0.106767 0.118639 0.151276
702 4 0.105308 0.114325 0.132364
581 4 0.280306 0.119241 0.158919
580 2 0.260043 0.132905 0.164201
360 4 0.330154 0.169361 0.0894209
628 2 0.391388 0.144545 0.1442
630 4 0.384873 0.168277 0.139784
312 4 0.399547 0.115723 0.167719
629 4 0.397903 0.120812 0.148616
310 2 0.39387 0.0916523 0.171399
337 2 0.0859545 0.240058 0.153091
339 4 0.0723934 0.224427 0.139057
737 4 0.230246 0.212051 0.128491
736 2 0.230838 0.217417 0.104077
738 4 0.23143 0.222782 0.0796631
461 4 0.308828 0.231038 0.102537
460 2 0.331802 0.228115 0.111963
354 4 0.295071 0.234452 0.116191
352 2 0.285034 0.238844 0.138666
353 4 0.274996 0.243236 0.161141
462 4 0.354775 0.225192 0.121388
254 4 0.377267 0.171139 0.12232
255 4 0.371559 0.220345 0.129171
253 2 0.374413 0.195742 0.125746
765 4 0.359035 0.229814 0.140416
624 4 0.366468 0.239835 0.126064
763 2 0.351666 0.232803 0.164121
622 2 0.384608 0.248688 0.111307
648 4 0.0603322 0.313246 0.153925
506 4 0.195128 0.305113 0.0856702
483 4 0.212724 0.294955 0.0866814
537 4 0.191949 0.315137 0.103044
535 2 0.190597 0.336965 0.115165
755 4 0.266216 0.260008 0.169402
387 4 0.324099 0.323202 0.118028
301 2 0.327576 0.326772 0.161911
302 4 0.327603 0.328959 0.137003
623 4 0.402747 0.257541 0.0965499
385 2 0.342493 0.328561 0.101962
15 3 0.378224 0.327404 0.0892669
386 4 0.360886 0.33392 0.0858949
528 4 0.475166 0.292805 0.107288
518 4 0.483592 0.278268 0.0956795
526 2 0.470571 0.285269 0.130682
527 4 0.465977 0.277733 0.154076
315 4 0.994395 0.371177 0.116792
551 4 0.0870552 0.336488 0.119353
550 2 0.103079 0.347373 0.103544
536 4 0.189245 0.358792 0.127286
11 1 0.393436 0.344314 0.0904054
13 3 0.389511 0.357237 0.109273
104 3 0.493601 0.353616 0.125214
12 3 0.414595 0.335392 0.0917731
1791 4 0.0496613 0.480197 0.140132
1466 4 0.0401365 0.475617 0.157246
1789 2 0.056134 0.497356 0.123136
417 4 0.170175 0.448606 0.135212
291 4 0.220753 0.404843 0.124048
416 4 0.202211 0.412089 0.12334
415 2 0.186193 0.430347 0.129276
289 2 0.238128 0.415176 0.138763
768 4 0.264037 0.442253 0.16011
290 4 0.255503 0.425508 0.153478
767 4 0.27487 0.490999 0.157418
766 2 0.269454 0.466626 0.158764
525 4 0.383946 0.493566 0.151432
658 2 0.362786 0.440972 0.088606
659 4 0.339045 0.444445 0.0956407
660 4 0.386527 0.437498 0.0815713
523 2 0.363305 0.504569 0.142598
17 3 0.0541982 0.0394066 0.174683
2480 4 0.0334915 0.0381779 0.175473
1422 4 0.0328632 0.0193739 0.169789
2479 2 0.0123215 0.0477874 0.184674
2481 4 0.991151 0.0573968 0.193876
20 3 0.0870896 0.0569461 0.172833
675 4 0.108439 0.00545272 0.245748
674 4 0.153926 0.0225607 0.233957
673 2 0.131182 0.0140067 0.239853
689 4 0.158796 0.00549135 0.223615
578 4 0.10794 0.0385208 0.191419
577 2 0.116887 0.0609145 0.198026
450 4 0.147491 0.0759585 0.188411
448 2 0.163207 0.0947355 0.18335
1506 4 0.245195 0.0277586 0.186325
1504 2 0.22686 0.0110338 0.183277
1539 4 0.195244 0.9899 0.167142
654 4 0.26272 0.0182516 0.187768
652 2 0.283852 0.0315733 0.186696
653 4 0.304984 0.0448951 0.185625
24 3 0.313177 0.077635 0.248717
25 3 0.33052 0.0495332 0.23063
311 4 0.388193 0.0675814 0.17508
758 4 0.378281 0.0542871 0.186499
759 4 0.348568 0.0623717 0.225901
757 2 0.363424 0.0583294 0.2062
22 3 0.350224 0.0789186 0.24251
21 1 0.332561 0.0649656 0.247253
512 4 0.00138915 0.137966 0.220816
511 2 0.0243944 0.14759 0.222641
513 4 0.0473995 0.157213 0.224467
393 4 0.0543938 0.152637 0.242601
475 2 0.100814 0.131131 0.172101
477 4 0.0948605 0.143623 0.192927
579 4 0.125834 0.0833081 0.204634
449 4 0.178923 0.113513 0.178289
237 4 0.226652 0.157755 0.179143
691 2 0.228745 0.119623 0.23841
693 4 0.208437 0.122359 0.224082
236 4 0.188281 0.127103 0.188571
235 2 0.207466 0.142429 0.183857
582 4 0.23978 0.146569 0.169482
521 4 0.493658 0.162294 0.22992
332 4 0.491107 0.144754 0.240536
333 4 0.497965 0.0952741 0.238203
331 2 0.494536 0.120014 0.239369
394 2 0.0151057 0.232763 0.23149
395 4 0.0373503 0.232981 0.220075
277 2 0.242637 0.229902 0.179503
279 4 0.221252 0.218136 0.184929
284 4 0.280901 0.233613 0.177955
283 2 0.303801 0.23179 0.187828
285 4 0.3267 0.229968 0.197701
27 3 0.326438 0.169954 0.236274
278 4 0.264022 0.241667 0.174077
764 4 0.344297 0.235793 0.187827
646 2 0.0615741 0.326471 0.175108
647 4 0.062816 0.339696 0.196292
338 4 0.0995156 0.255688 0.167125
363 4 0.086046 0.265968 0.178319
749 4 0.0939429 0.294146 0.223937
361 2 0.0969078 0.28197 0.194166
370 2 0.143324 0.302715 0.220041
372 4 0.120779 0.312783 0.216096
362 4 0.10777 0.297972 0.210013
748 2 0.0897395 0.312706 0.240156
371 4 0.165868 0.292648 0.223986
754 2 0.268996 0.282331 0.180319
756 4 0.271776 0.304653 0.191236
612 4 0.280557 0.317586 0.205237
610 2 0.265818 0.320941 0.225154
307 2 0.316504 0.300455 0.21425
308 4 0.324705 0.305958 0.19128
303 4 0.327549 0.324586 0.186818
309 4 0.308304 0.294952 0.237221
734 4 0.158831 0.351242 0.247426
729 4 0.324874 0.338957 0.200669
727 2 0.312435 0.356777 0.213035
728 4 0.299995 0.374596 0.2254
447 4 0.421203 0.393398 0.241188
445 2 0.398785 0.395083 0.252132
644 4 0.439342 0.389527 0.234082
595 2 0.491718 0.397423 0.156946
597 4 0.473513 0.390273 0.172522
643 2 0.451726 0.39159 0.212459
645 4 0.46411 0.393653 0.190836
264 4 0.0160331 0.415515 0.225027
1465 2 0.0259345 0.474847 0.17781
1467 4 0.0117324 0.474076 0.198374
1775 4 0.0935461 0.496703 0.236843
1758 4 0.0990153 0.481801 0.226137
1756 2 0.112774 0.464737 0.238166
1757 4 0.126534 0.447674 0.250195
231 4 0.460192 0.485594 0.197167
229 2 0.450157 0.504605 0.184398
232 2 0.0259047 0.0379786 0.308145
233 4 0.0474481 0.0382522 0.295457
1404 4 0.0609311 0.0248939 0.292643
1402 2 0.0771838 0.0186158 0.27471
316 2 0.0771673 0.0567093 0.31724
317 4 0.0650192 0.038828 0.304676
428 4 0.0697594 0.0192986 0.30869
427 2 0.0652052 0.00376991 0.327751
1403 4 0.0934365 0.0123377 0.256776
1700 4 0.310538 0.0328143 0.341951
23 3 0.336621 0.0543321 0.267473
699 4 0.34731 0.0655653 0.324734
351 4 0.431429 0.0659253 0.268087
479 4 0.444595 0.0257501 0.305955
478 2 0.436572 0.0364341 0.284821
2664 4 0.463408 0.0257725 0.305746
480 4 0.428549 0.047118 0.263687
1428 4 0.452471 0.0144673 0.316138
258 4 0.439574 0.0294009 0.323475
2662 2 0.487901 0.0267498 0.300815
391 2 0.0732243 0.164296 0.254205
392 4 0.0920549 0.175955 0.265809
692 4 0.249052 0.116888 0.252738
721 2 0.248654 0.117523 0.290432
722 4 0.236759 0.116152 0.312382
249 4 0.243272 0.125707 0.329642
28 3 0.325365 0.136375 0.253125
723 4 0.26055 0.118894 0.268482
26 1 0.32383 0.159283 0.256485
632 4 0.374702 0.101487 0.25989
350 4 0.389628 0.0895374 0.254092
631 2 0.359446 0.121245 0.261336
707 4 0.351149 0.150977 0.276925
633 4 0.344191 0.141002 0.262782
706 2 0.357359 0.159103 0.299741
349 2 0.410528 0.0777314 0.26109
762 4 0.479306 0.159644 0.24197
760 2 0.455299 0.166006 0.244871
546 4 0.16781 0.195416 0.247142
388 2 0.108345 0.235631 0.338829
389 4 0.100636 0.212912 0.331785
544 2 0.175371 0.205707 0.268638
545 4 0.182933 0.215999 0.290135
402 4 0.176025 0.231848 0.297375
400 2 0.189554 0.25207 0.303138
30 3 0.30343 0.164516 0.265152
29 3 0.340597 0.166316 0.2709
708 4 0.36357 0.167229 0.322557
717 4 0.406599 0.163546 0.327059
761 4 0.431293 0.172367 0.247772
419 4 0.470635 0.253256 0.337549
269 4 0.481255 0.235652 0.339427
750 4 0.0855361 0.331265 0.256375
401 4 0.203083 0.272293 0.308901
676 2 0.18806 0.311397 0.308049
345 4 0.203339 0.322995 0.269703
677 4 0.199256 0.314105 0.285857
343 2 0.228228 0.323848 0.267468
735 4 0.187382 0.317307 0.270533
611 4 0.251079 0.324295 0.245071
344 4 0.253117 0.3247 0.265233
496 2 0.283101 0.292689 0.274614
497 4 0.267201 0.288125 0.293363
377 4 0.279175 0.276786 0.304537
498 4 0.299001 0.297253 0.255865
376 2 0.276827 0.264862 0.326388
615 4 0.368963 0.322184 0.328065
365 4 0.0328817 0.35407 0.284168
601 2 0.0631191 0.377717 0.306674
603 4 0.0461871 0.362376 0.296519
602 4 0.0800511 0.393059 0.316829
364 2 0.0124384 0.361981 0.296196
299 4 0.144276 0.362336 0.255361
300 4 0.0966547 0.347262 0.257746
298 2 0.120465 0.354799 0.256554
733 2 0.173107 0.334275 0.25898
433 2 0.29785 0.371297 0.319791
435 4 0.274325 0.376665 0.326341
434 4 0.321376 0.365929 0.313241
614 4 0.331563 0.355363 0.329092
613 2 0.350263 0.338773 0.328579
446 4 0.376366 0.396768 0.263075
2461 2 0.0132217 0.491087 0.330587
777 4 0.125449 0.476159 0.263703
775 2 0.121778 0.484251 0.287075
776 4 0.118107 0.492343 0.310446
1435 2 0.243363 0.461414 0.326706
1436 4 0.238242 0.465733 0.302617
413 4 0.23457 0.483902 0.292904
437 4 0.38044 0.469475 0.315382
436 2 0.356859 0.470698 0.323607
119 3 0.488631 0.456104 0.320812
367 2 0.0697884 0.0131611 0.397574
369 4 0.0450716 0.0143369 0.401163
719 4 0.0347859 0.00212982 0.414416
368 4 0.0945052 0.0119853 0.393986
318 4 0.0893154 0.0745907 0.329804
732 4 0.0901 0.0767974 0.34852
730 2 0.111685 0.0724386 0.360364
731 4 0.133269 0.0680798 0.372208
606 4 0.143714 0.0761572 0.356969
1701 4 0.317111 0.0259111 0.391041
1699 2 0.313825 0.0293627 0.366496
425 4 0.328763 0.0302181 0.406622
441 4 0.314353 0.0178464 0.408097
697 2 0.370196 0.0580941 0.331486
698 4 0.393081 0.0506229 0.338238
426 4 0.376995 0.0185937 0.400361
424 2 0.352879 0.0244059 0.403491
257 4 0.401454 0.0413304 0.353563
726 4 0.423856 0.0701442 0.411724
256 2 0.420514 0.0353656 0.338519
2584 2 0.0172581 0.124442 0.359528
2585 4 0.995672 0.113997 0.352448
399 4 0.0863423 0.0924842 0.339354
397 2 0.0690633 0.109208 0.346203
398 4 0.0517844 0.125933 0.353053
2586 4 0.0388442 0.134887 0.366608
458 4 0.0483699 0.141775 0.383251
457 2 0.0467551 0.151808 0.406096
598 2 0.126601 0.156353 0.36045
600 4 0.111799 0.138135 0.35184
604 2 0.167185 0.0834862 0.352431
605 4 0.190655 0.0908152 0.347892
248 4 0.208428 0.098576 0.353105
247 2 0.22585 0.112141 0.341374
683 4 0.247072 0.0866318 0.381882
403 2 0.260326 0.15534 0.341349
404 4 0.26214 0.13361 0.329114
682 2 0.26152 0.106739 0.38537
319 2 0.309834 0.134751 0.397603
684 4 0.275967 0.126845 0.388858
321 4 0.331441 0.144139 0.389223
725 4 0.407857 0.114069 0.393965
724 2 0.415856 0.0921066 0.402845
599 4 0.141404 0.174572 0.369061
686 4 0.13945 0.184285 0.38731
685 2 0.125714 0.198765 0.402371
275 4 0.158202 0.178856 0.360467
472 2 0.236361 0.20223 0.358049
474 4 0.21239 0.207715 0.362576
276 4 0.201099 0.201103 0.347598
274 2 0.17965 0.18998 0.354033
405 4 0.258511 0.17707 0.353583
473 4 0.260331 0.196745 0.353522
715 2 0.400821 0.177411 0.347048
466 2 0.375272 0.190586 0.404257
716 4 0.395044 0.191276 0.367037
467 4 0.37634 0.190666 0.379276
270 4 0.468109 0.218111 0.384374
452 4 0.473823 0.21285 0.402141
451 2 0.460951 0.19969 0.419062
268 2 0.474682 0.226881 0.3619
618 4 0.056177 0.325123 0.388805
347 4 0.0419113 0.337465 0.39508
390 4 0.116053 0.25835 0.345873
616 2 0.0791889 0.317213 0.383056
617 4 0.102201 0.309302 0.377307
374 4 0.117816 0.307924 0.364915
373 2 0.138052 0.307312 0.350241
375 4 0.158288 0.3067 0.335568
678 4 0.176865 0.30869 0.330242
509 4 0.259243 0.314715 0.392413
378 4 0.274479 0.252937 0.348239
508 2 0.260141 0.32418 0.369287
488 4 0.335355 0.277442 0.408727
541 2 0.403859 0.313161 0.33436
543 4 0.386356 0.330947 0.332784
420 4 0.433254 0.283586 0.324003
418 2 0.451945 0.268421 0.330776
542 4 0.421362 0.295375 0.335936
346 2 0.0351633 0.361328 0.391887
348 4 0.0284152 0.385191 0.388695
549 4 0.0753337 0.408989 0.32635
510 4 0.26104 0.333644 0.346161
668 4 0.325998 0.379009 0.41436
336 4 0.337163 0.367942 0.400789
334 2 0.359368 0.364224 0.411666
752 4 0.498679 0.403566 0.398857
547 2 0.093191 0.422264 0.337755
407 4 0.104528 0.442543 0.365883
548 4 0.111048 0.435539 0.34916
406 2 0.114907 0.4505 0.387193
500 4 0.11064 0.506414 0.323608
1437 4 0.248484 0.457095 0.350795
3 3 0.318303 0.455514 0.335706
5 3 0.290252 0.480625 0.336234
1 1 0.311086 0.475896 0.344125
4 3 0.310806 0.475236 0.367317
438 4 0.333279 0.471921 0.331832
2 3 0.325672 0.492334 0.337329
593 4 0.405809 0.464046 0.39215
588 4 0.417306 0.465861 0.40731
561 4 0.488494 0.412269 0.413474
753 4 0.4991 0.431625 0.357465
751 2 0.49889 0.417595 0.378161
592 2 0.417768 0.476257 0.3739
714 4 0.481367 0.462726 0.340135
712 2 0.459441 0.474683 0.338921
117 3 0.495934 0.454354 0.35764
594 4 0.429727 0.488468 0.355651
713 4 0.437515 0.48664 0.337708
720 4 0.00488903 0.00515058 0.454388
718 2 0.0198375 0.0036402 0.434402
962 4 0.314924 0.0312699 0.421623
961 2 0.310317 0.0406558 0.444336
963 4 0.305711 0.0500417 0.467048
432 4 0.31475 0.062405 0.479143
1218 4 0.435617 0.0695868 0.491885
459 4 0.0451403 0.161842 0.428941
260 4 0.0621173 0.172789 0.433214
320 4 0.288228 0.125363 0.405982
640 2 0.484509 0.118218 0.464435
641 4 0.466478 0.131746 0.475254
687 4 0.111977 0.213246 0.417431
259 2 0.0807679 0.189395 0.431968
261 4 0.0994186 0.206002 0.430722
1035 4 0.109861 0.222564 0.433992
1033 2 0.110514 0.237186 0.454263
1034 4 0.111167 0.251809 0.474535
489 4 0.333369 0.233846 0.433143
468 4 0.374203 0.190507 0.429237
514 2 0.410501 0.195892 0.447115
411 4 0.339822 0.23317 0.452401
516 4 0.38962 0.193172 0.460597
409 2 0.356675 0.214761 0.450909
410 4 0.373528 0.196351 0.449416
575 4 0.397241 0.188595 0.477773
574 2 0.396309 0.179796 0.501158
515 4 0.431382 0.198611 0.433633
453 4 0.448079 0.18653 0.435982
583 2 0.488592 0.252307 0.469379
585 4 0.483908 0.236032 0.450984
694 2 0.0653116 0.261856 0.502402
2847 4 0.0277464 0.328689 0.471992
1258 2 0.12161 0.281768 0.487421
1259 4 0.137445 0.300899 0.484514
9 3 0.132519 0.320645 0.480812
696 4 0.087677 0.255398 0.493277
1260 4 0.105775 0.262638 0.490328
487 2 0.334362 0.255644 0.420935
266 4 0.362641 0.256841 0.48933
267 4 0.37063 0.30025 0.465824
265 2 0.366635 0.278546 0.477577
584 4 0.493276 0.268582 0.487774
326 4 0.0619319 0.371217 0.453763
325 2 0.0818386 0.369266 0.468766
10 3 0.135629 0.345499 0.4527
6 1 0.129604 0.342781 0.474494
7 3 0.107427 0.348365 0.476977
327 4 0.101745 0.367315 0.48377
709 2 0.145738 0.398527 0.474446
8 3 0.142387 0.35663 0.488029
503 4 0.208828 0.345841 0.451666
504 4 0.188456 0.387343 0.470727
502 2 0.198642 0.366592 0.461197
710 4 0.168248 0.387688 0.473456
667 2 0.316107 0.397819 0.427533
882 4 0.365621 0.37897 0.492294
335 4 0.381572 0.360505 0.422543
238 2 0.401708 0.393387 0.442018
240 4 0.394082 0.371164 0.433465
239 4 0.409334 0.41561 0.450572
3307 2 0.498203 0.393716 0.486122
1381 2 0.00597675 0.488871 0.469594
1383 4 0.00958042 0.466187 0.459713
680 4 0.00302038 0.446749 0.455586
408 4 0.125287 0.458458 0.408504
711 4 0.123228 0.409367 0.475437
569 4 0.128047 0.46885 0.425279
382 2 0.115019 0.438065 0.441217
384 4 0.116545 0.420694 0.459137
568 2 0.143353 0.48468 0.437125
383 4 0.113493 0.455436 0.423298
1556 4 0.226262 0.493718 0.441213
1555 2 0.251171 0.493498 0.443371
772 2 0.312107 0.433207 0.469364
634 2 0.30288 0.473809 0.433535
1557 4 0.27608 0.493277 0.44553
636 4 0.29349 0.496971 0.434247
635 4 0.312269 0.450646 0.432823
669 4 0.306216 0.416629 0.440706
773 4 0.311728 0.432029 0.494337
774 4 0.312485 0.434385 0.444391
586 2 0.417165 0.449152 0.42591
662 4 0.476808 0.500146 0.467833
587 4 0.417024 0.432443 0.444511
661 2 0.454494 0.489328 0.464633
663 4 0.432181 0.478509 0.461433
342 4 0.217753 0.0733512 0.510932
340 2 0.224646 0.0493171 0.510775
341 4 0.23154 0.0252831 0.510617
2430 4 0.221548 0.00906783 0.51273
1152 4 0.21267 0.0766834 0.531544
1150 2 0.219923 0.0791236 0.555348
430 2 0.323038 0.0712479 0.501013
431 4 0.331325 0.0800907 0.522883
1216 2 0.414848 0.069835 0.505805
3007 2 0.492776 0.0547415 0.570781
1128 4 0.00876906 0.114154 0.580943
1058 4 0.108708 0.125402 0.522705
1057 2 0.114778 0.123977 0.546919
1059 4 0.120848 0.122551 0.571133
1271 4 0.12058 0.167157 0.570858
1151 4 0.227176 0.0815639 0.579152
1181 4 0.213094 0.15583 0.564348
1180 2 0.236496 0.151794 0.556524
1182 4 0.259899 0.147758 0.548699
900 4 0.265835 0.152933 0.530647
1217 4 0.394079 0.0700832 0.519725
843 4 0.344674 0.0943214 0.526583
841 2 0.369164 0.0900807 0.529307
842 4 0.393654 0.08584 0.532031
1199 4 0.033792 0.217279 0.557643
1198 2 0.00935791 0.221289 0.561119
878 4 0.0453822 0.227712 0.569972
1244 4 0.0393156 0.247089 0.567672
1270 2 0.102771 0.17598 0.586029
796 2 0.234928 0.248045 0.568577
858 4 0.183549 0.240713 0.52114
798 4 0.210593 0.245337 0.56351
898 2 0.281129 0.172165 0.526019
650 4 0.298963 0.209557 0.531366
899 4 0.296423 0.191397 0.521391
649 2 0.29616 0.234358 0.532859
797 4 0.259262 0.250753 0.573644
651 4 0.293357 0.259159 0.534353
576 4 0.395377 0.170996 0.524544
3159 4 0.501296 0.157973 0.560001
1243 2 0.0433426 0.268841 0.579326
982 2 0.0321627 0.327254 0.569025
983 4 0.0394521 0.306827 0.581465
695 4 0.0429461 0.268313 0.511527
857 4 0.231798 0.253653 0.518825
856 2 0.207673 0.247183 0.519983
947 4 0.199364 0.262358 0.560496
946 2 0.183782 0.26738 0.579395
1238 4 0.310178 0.310565 0.598032
872 4 0.379629 0.247857 0.55307
871 2 0.383153 0.272525 0.55513
873 4 0.386678 0.297193 0.55719
813 4 0.394993 0.315244 0.562179
906 4 0.481716 0.301309 0.579383
953 4 0.472102 0.288078 0.567908
2456 4 0.510644 0.263777 0.498126
984 4 0.0248733 0.347682 0.556585
3354 4 0.00669151 0.341641 0.552626
1190 4 0.252275 0.352569 0.570374
803 4 0.255682 0.347961 0.551317
804 4 0.282611 0.351344 0.509316
1237 2 0.319163 0.331123 0.586996
802 2 0.269146 0.349652 0.530316
930 4 0.315248 0.367744 0.570759
811 2 0.405664 0.337574 0.565745
812 4 0.416335 0.359903 0.56931
929 4 0.338489 0.398331 0.538743
928 2 0.326868 0.383038 0.554751
881 4 0.35415 0.407902 0.531436
880 2 0.359886 0.393436 0.511865
927 4 0.422493 0.369322 0.552201
925 2 0.436005 0.385269 0.565922
1009 2 0.499745 0.339484 0.506205
1011 4 0.49862 0.364434 0.505022
3308 4 0.489227 0.382597 0.50664
538 2 0.075496 0.453874 0.568073
539 4 0.0522403 0.444841 0.566416
540 4 0.0987517 0.462908 0.569731
1160 4 0.115874 0.485975 0.563763
1159 2 0.134753 0.469751 0.566113
1161 4 0.153632 0.453526 0.568463
2244 4 0.0970448 0.482458 0.562727
891 4 0.315056 0.424344 0.594782
1953 4 0.389677 0.507896 0.559836
1951 2 0.372288 0.493245 0.570236
1952 4 0.354899 0.478594 0.580636
1002 4 0.453301 0.42074 0.580181
1911 4 0.438252 0.480021 0.589522
2114 4 0.00584412 0.00626436 0.608157
4338 4 0.0224137 0.997694 0.615626
1082 4 0.0612348 0.0697832 0.659933
1081 2 0.0613475 0.0821185 0.638184
823 2 0.153953 0.0229927 0.655249
825 4 0.138656 0.0397554 0.665746
824 4 0.169251 0.00622989 0.644752
1030 2 0.257574 0.078445 0.601177
1031 4 0.271928 0.063958 0.615642
951 4 0.289963 0.0589485 0.610246
949 2 0.304753 0.0388119 0.61122
950 4 0.319543 0.0186753 0.612195
2283 4 0.404474 0.0157355 0.624555
809 4 0.477144 0.0444193 0.606793
808 2 0.469151 0.0546309 0.628171
810 4 0.461157 0.0648425 0.649548
3008 4 0.490509 0.0532378 0.595636
1083 4 0.0614601 0.0944539 0.616436
3477 4 0.993673 0.119723 0.590166
938 4 0.0694714 0.109963 0.610117
1126 2 0.0281334 0.103447 0.592586
1127 4 0.0474977 0.0927403 0.604229
939 4 0.11385 0.121886 0.590392
937 2 0.0916607 0.115924 0.600254
1155 4 0.128995 0.132401 0.585408
1153 2 0.149662 0.145673 0.590088
1154 4 0.170328 0.158946 0.594769
1032 4 0.243219 0.0929319 0.586711
1221 4 0.168733 0.162861 0.61401
886 2 0.296185 0.168101 0.658228
1194 4 0.338435 0.162955 0.660284
1192 2 0.363011 0.166606 0.657482
45 3 0.456973 0.0873176 0.650065
3424 2 0.490114 0.114544 0.657449
877 2 0.0613056 0.216093 0.585355
879 4 0.0772291 0.204475 0.600737
1272 4 0.0849614 0.184803 0.6012
1212 4 0.205187 0.187779 0.653948
1219 2 0.176976 0.17535 0.634041
1220 4 0.185219 0.187838 0.654073
1210 2 0.22979 0.184434 0.651007
888 4 0.273251 0.174884 0.650935
1211 4 0.254394 0.181088 0.648065
1193 4 0.387587 0.170256 0.65468
1245 4 0.0473695 0.290593 0.59098
1136 4 0.149193 0.279131 0.599511
1135 2 0.146247 0.303755 0.602699
948 4 0.168199 0.272401 0.598294
792 4 0.301203 0.297719 0.585217
791 4 0.262096 0.269662 0.571646
790 2 0.28165 0.283691 0.578432
805 2 0.298804 0.323793 0.671287
806 4 0.322854 0.321042 0.665026
952 2 0.456112 0.28445 0.586785
954 4 0.440122 0.280822 0.605662
3123 4 0.488973 0.259948 0.655554
1039 2 0.0571349 0.381671 0.614223
1041 4 0.0324538 0.378757 0.616968
3264 4 0.0301044 0.380202 0.63614
3262 2 0.0238851 0.365521 0.6554
3240 4 0.0227003 0.399208 0.637556
1040 4 0.0818159 0.384585 0.611478
1137 4 0.143302 0.328379 0.605886
993 4 0.0931418 0.373209 0.598598
897 4 0.15414 0.343146 0.600967
991 2 0.114412 0.360066 0.598785
992 4 0.135681 0.346923 0.598971
895 2 0.174139 0.357603 0.596942
1189 2 0.232426 0.363205 0.58124
1172 4 0.222686 0.385155 0.603135
1191 4 0.212577 0.37384 0.592107
896 4 0.194139 0.372059 0.592918
1171 2 0.213026 0.40678 0.611148
1239 4 0.328149 0.351682 0.575961
1206 4 0.373253 0.410452 0.636429
926 4 0.449518 0.401217 0.579644
3238 2 0.0110838 0.419802 0.645689
1188 4 0.164193 0.463003 0.582723
1186 2 0.175582 0.451636 0.601862
1173 4 0.203365 0.428406 0.61916
1187 4 0.18697 0.440269 0.621
1139 4 0.240712 0.461401 0.63971
1138 2 0.240689 0.447109 0.660227
889 2 0.330806 0.443429 0.591192
1230 4 0.346279 0.421607 0.667329
890 4 0.346555 0.462515 0.587602
1204 2 0.390082 0.425781 0.646773
1205 4 0.40691 0.44111 0.657116
1000 2 0.453255 0.444558 0.587787
1001 4 0.453209 0.468377 0.595393
1269 4 0.44954 0.485049 0.605249
1267 2 0.451072 0.493475 0.62874
1268 4 0.452604 0.501901 0.652231
945 4 0.0696175 0.994081 0.676725
943 2 0.0659318 0.0184607 0.680874
944 4 0.0622461 0.0428406 0.685023
1076 4 0.0614458 0.0628912 0.679506
1283 4 0.140774 0.057671 0.674193
1147 2 0.24617 0.0405297 0.714527
1148 4 0.229999 0.0571664 0.705204
1226 4 0.21145 0.0615875 0.698237
1149 4 0.26234 0.023893 0.72385
1090 2 0.322701 0.99924 0.712309
1092 4 0.332807 0.015338 0.696064
42 3 0.460981 0.0563984 0.670579
41 1 0.455149 0.0786451 0.671043
43 3 0.433256 0.0805056 0.678503
1163 4 0.473967 0.0677094 0.685511
1162 2 0.490179 0.0555015 0.700116
864 4 0.0580273 0.103931 0.734558
1075 2 0.0622434 0.0804213 0.697317
1077 4 0.0630409 0.0979514 0.715128
1107 4 0.0753054 0.105293 0.727844
851 4 0.0741298 0.114091 0.710554
850 2 0.0758811 0.133763 0.69522
862 2 0.0377076 0.0986311 0.74813
1282 2 0.131375 0.0711173 0.693062
852 4 0.0776324 0.153436 0.679887
1105 2 0.0918438 0.10993 0.746014
1284 4 0.121976 0.0845636 0.711931
909 4 0.166973 0.129018 0.747518
907 2 0.184553 0.122385 0.731022
908 4 0.202133 0.115752 0.714525
1227 4 0.212731 0.111574 0.697592
1225 2 0.21209 0.0865808 0.697914
887 4 0.319119 0.161318 0.665521
1004 4 0.398887 0.0820034 0.707359
829 2 0.335091 0.13763 0.700898
830 4 0.323389 0.149231 0.682092
831 4 0.346794 0.12603 0.719704
1003 2 0.378823 0.0965487 0.710683
1005 4 0.358759 0.111094 0.714007
3425 4 0.47243 0.0982546 0.664313
44 3 0.469424 0.089842 0.685509
1178 4 0.00594978 0.234302 0.724265
1177 2 0.0223217 0.24763 0.710867
1072 2 0.0919834 0.213475 0.72345
1074 4 0.0986993 0.237429 0.720942
1073 4 0.0852675 0.189521 0.725957
978 4 0.274125 0.204848 0.734266
1144 2 0.488688 0.166562 0.737042
1025 4 0.451366 0.181377 0.674394
1262 4 0.464439 0.195334 0.736278
1142 4 0.448472 0.166864 0.735419
1024 2 0.452428 0.181952 0.699369
1026 4 0.453491 0.182527 0.724343
1261 2 0.466853 0.219478 0.742315
1145 4 0.465834 0.176359 0.734418
1263 4 0.469266 0.243622 0.748352
1179 4 0.0386936 0.260958 0.697469
1209 4 0.130629 0.294121 0.723162
1207 2 0.116062 0.274305 0.727667
1208 4 0.101495 0.254488 0.732171
821 4 0.13069 0.308133 0.70701
820 2 0.14394 0.305275 0.685999
822 4 0.15719 0.302416 0.664988
1063 2 0.199707 0.309851 0.672165
1064 4 0.175755 0.310467 0.665017
1065 4 0.223659 0.309235 0.679313
3263 4 0.0176659 0.350839 0.674661
892 2 0.0145861 0.349461 0.733108
894 4 0.0352709 0.357128 0.721338
1280 4 0.0536568 0.361349 0.718101
1279 2 0.0559386 0.384506 0.708952
816 4 0.0717757 0.351038 0.718173
1281 4 0.0582203 0.407663 0.699802
1983 4 0.0529541 0.420188 0.71454
814 2 0.0932196 0.347664 0.730581
815 4 0.114664 0.34429 0.742988
1028 4 0.231475 0.391111 0.733537
1066 2 0.201528 0.37292 0.738975
1068 4 0.224386 0.371283 0.728976
1027 2 0.23909 0.405287 0.7144
807 4 0.274754 0.326545 0.677548
1019 4 0.394908 0.375343 0.752964
1981 2 0.0614634 0.443442 0.71801
1982 4 0.0699727 0.466696 0.72148
1140 4 0.240666 0.432817 0.680743
2016 4 0.168501 0.500303 0.725256
1029 4 0.246706 0.419463 0.695264
1176 4 0.18707 0.501674 0.719642
1174 2 0.210555 0.499528 0.711333
1987 2 0.322623 0.485408 0.716315
1988 4 0.322435 0.50379 0.733263
1989 4 0.322811 0.467026 0.699367
1228 2 0.343745 0.443726 0.678708
1229 4 0.341211 0.465846 0.690087
2991 4 0.016844 0.0379251 0.793678
2989 2 0.0129972 0.0610687 0.785031
2049 4 0.126058 0.0390435 0.779849
1202 4 0.106125 0.0403192 0.781254
2047 2 0.131324 0.0169094 0.769479
1201 2 0.107552 0.0642283 0.78843
817 2 0.314986 0.0407134 0.825213
1085 4 0.305544 0.0801032 0.837994
818 4 0.32503 0.0204575 0.814536
974 4 0.340014 0.0102947 0.806227
973 2 0.362934 0.00424932 0.814185
1050 4 0.34242 0.00246363 0.787042
1113 4 0.417008 0.0437702 0.789656
2322 4 0.498401 0.0428561 0.77458
1111 2 0.441475 0.0479709 0.786669
845 4 0.483764 0.0569155 0.776818
1112 4 0.465941 0.0521715 0.783682
844 2 0.486685 0.0812393 0.781818
2990 4 0.00915037 0.0842122 0.776385
3083 4 0.000559784 0.0920019 0.75893
863 4 0.0173878 0.0933309 0.761701
833 4 0.0044974 0.102681 0.774372
832 2 0.0113413 0.116697 0.793915
834 4 0.0181851 0.130712 0.813458
1125 4 0.0239732 0.146308 0.825593
1123 2 0.043195 0.161188 0.819737
1106 4 0.108382 0.114567 0.764184
1203 4 0.108979 0.0881374 0.795606
911 4 0.0986937 0.107045 0.824447
34 3 0.108449 0.107381 0.781199
31 1 0.114053 0.112958 0.803014
35 3 0.0982531 0.12681 0.811796
32 3 0.115089 0.0937166 0.815577
33 3 0.134804 0.123331 0.803456
1256 4 0.241686 0.0924337 0.809008
840 4 0.249385 0.0860165 0.82662
1257 4 0.270978 0.0795071 0.770595
1255 2 0.256332 0.0859704 0.789802
1084 2 0.306703 0.0980514 0.820625
1086 4 0.307862 0.116 0.803255
47 3 0.401105 0.148592 0.812147
1023 4 0.396241 0.158476 0.829612
846 4 0.489606 0.105563 0.786818
1124 4 0.0624167 0.176068 0.813881
1130 4 0.129023 0.243091 0.765478
1129 2 0.152912 0.242041 0.772786
1131 4 0.1768 0.24099 0.780094
1277 4 0.19244 0.250009 0.770897
977 4 0.296678 0.215906 0.777508
918 4 0.290475 0.234045 0.778964
976 2 0.285401 0.210377 0.755887
1298 4 0.295565 0.226522 0.795485
1297 2 0.315496 0.224236 0.810409