ITEM: TIMESTEP
680000
ITEM: NUMBER OF ATOMS
4590
ITEM: BOX BOUNDS pp pp pp
-9.9985700000000008e+00 9.9985700000000008e+00
-9.9985700000000008e+00 9.9985700000000008e+00
-9.9985700000000008e+00 9.9985700000000008e+00
ITEM: ATOMS id type xs ys zs
591 4 0.000985633 0.052759 0.0728429
1668 4 0.0851251 0.0295781 0.0728592
1475 4 0.273696 0.00832503 0.0572993
492 4 0.285995 0.0534837 0.0760234
297 4 0.313271 0.0819899 0.0398684
295 2 0.334302 0.0871647 0.0523618
985 2 0.419822 0.0396737 0.008333
1607 4 0.392459 0.00611933 0.00967288
987 4 0.404226 0.0210937 0.0143942
747 4 0.455413 0.0583862 0.00487411
2974 2 0.474798 0.0223555 0.0213088
2976 4 0.48968 0.00354484 0.0283711
2468 4 0.497229 0.0110764 0.0446372
2975 4 0.459917 0.0411661 0.0142464
745 2 0.453351 0.0828953 0.00937203
986 4 0.435417 0.0582537 0.00227182
463 2 0.0601375 0.0896108 0.00994162
465 4 0.0521179 0.0934968 0.0333032
358 2 0.315233 0.145624 0.0613452
359 4 0.297224 0.135955 0.0757443
360 4 0.333243 0.155294 0.046946
296 4 0.355334 0.0923396 0.0648552
557 4 0.364558 0.109722 0.061673
556 2 0.380967 0.11307 0.0431065
558 4 0.397377 0.116418 0.0245401
746 4 0.451289 0.107404 0.0138699
554 4 0.05833 0.233669 0.0234899
566 4 0.173059 0.171417 0.0616651
565 2 0.197 0.168298 0.0681662
567 4 0.220941 0.165178 0.0746673
666 4 0.316221 0.189333 0.0150015
664 2 0.330345 0.193396 0.0352293
573 4 0.26653 0.256022 0.0619163
665 4 0.34447 0.197459 0.0554571
769 2 0.414602 0.162172 0.0669901
770 4 0.392825 0.174398 0.0657761
323 4 0.394465 0.239166 0.0669811
462 4 0.34043 0.196108 0.0929174
771 4 0.436379 0.149946 0.0682041
324 4 0.430301 0.253861 0.03535
322 2 0.412383 0.246514 0.0511655
553 2 0.0735419 0.252856 0.0285537
555 4 0.0887537 0.272043 0.0336176
292 2 0.147243 0.294435 0.0024613
293 4 0.148799 0.301305 0.0264521
507 4 0.152518 0.304678 0.0457101
505 2 0.173247 0.297405 0.0576508
483 4 0.214852 0.285917 0.0702456
506 4 0.193976 0.290132 0.0695915
481 2 0.234853 0.271394 0.0740211
482 4 0.254853 0.256872 0.0777966
572 4 0.28673 0.270526 0.0185305
571 2 0.27663 0.263274 0.0402234
357 4 0.296739 0.286864 0.0141914
1069 2 0.383541 0.286554 0.00646643
1070 4 0.406955 0.295291 0.00726764
957 4 0.355193 0.331536 0.0214625
1071 4 0.360127 0.277817 0.00566522
671 4 0.436604 0.306314 0.0721261
280 2 0.427949 0.301292 0.0343691
281 4 0.432821 0.316582 0.0535434
282 4 0.423077 0.286002 0.0151948
550 2 0.0797566 0.413246 0.0602932
551 4 0.0593808 0.419487 0.0472143
620 4 0.00350976 0.367354 0.0785227
552 4 0.100132 0.407005 0.0733721
455 4 0.119729 0.398558 0.06998
454 2 0.141745 0.405556 0.0795452
288 4 0.159977 0.363697 0.0326013
286 2 0.163283 0.35033 0.0117311
250 2 0.297583 0.40775 0.0125236
609 4 0.306212 0.416075 0.0512929
607 2 0.321912 0.417684 0.0706855
741 4 0.337448 0.362207 0.0479452
252 4 0.295512 0.406324 0.0374005
739 2 0.351994 0.357583 0.0677499
329 4 0.999722 0.445238 0.0236417
245 4 0.221596 0.442826 0.052604
626 4 0.220686 0.455345 0.0685947
244 2 0.234639 0.439772 0.0314915
246 4 0.247681 0.436719 0.010379
272 4 0.253655 0.44867 0.994315
563 4 0.454871 0.487298 0.0743565
562 2 0.440497 0.503498 0.0618613
228 4 0.460043 0.469922 0.0800588
1666 2 0.0789866 0.0495037 0.0866602
19 3 0.0466645 0.0635989 0.146791
1667 4 0.072848 0.0694293 0.100461
16 1 0.0497518 0.0625714 0.169765
448 2 0.1695 0.0674657 0.14117
450 4 0.160404 0.0448804 0.146857
490 2 0.297201 0.0671046 0.0937453
652 2 0.302293 0.0151679 0.150253
653 4 0.324753 0.023723 0.143358
491 4 0.308408 0.0807254 0.111467
654 4 0.279833 0.00661281 0.157147
311 4 0.401853 0.0637858 0.162421
2722 2 0.48358 0.050143 0.132592
2723 4 0.478515 0.0697292 0.117898
2724 4 0.488644 0.0305568 0.147286
380 4 0.0129514 0.149893 0.151257
701 4 0.0901202 0.0798887 0.101301
700 2 0.0974006 0.102549 0.108962
702 4 0.104681 0.125209 0.116623
476 4 0.105375 0.118742 0.13441
475 2 0.114349 0.13541 0.150745
237 4 0.154354 0.137831 0.140814
449 4 0.178597 0.0900509 0.135483
235 2 0.172882 0.121047 0.141251
236 4 0.19141 0.104263 0.141688
581 4 0.295601 0.109264 0.159238
628 2 0.408726 0.1376 0.120833
630 4 0.407833 0.162094 0.115889
310 2 0.411173 0.0803454 0.14617
629 4 0.409618 0.113106 0.125777
312 4 0.420492 0.0969051 0.129918
337 2 0.0847726 0.227898 0.138551
339 4 0.0769295 0.22762 0.114811
338 4 0.0926156 0.228177 0.162291
737 4 0.199064 0.188088 0.132944
736 2 0.19604 0.212468 0.128292
738 4 0.193016 0.236849 0.12364
277 2 0.241975 0.230389 0.156125
279 4 0.222494 0.215735 0.161691
461 4 0.305681 0.231974 0.0955423
460 2 0.323056 0.214041 0.0942299
354 4 0.290212 0.243464 0.0914202
352 2 0.281436 0.242726 0.114821
284 4 0.276715 0.235738 0.157417
353 4 0.27266 0.241988 0.138223
278 4 0.261455 0.245042 0.150559
254 4 0.390912 0.167702 0.125739
255 4 0.352357 0.194898 0.109168
253 2 0.371635 0.1813 0.117454
765 4 0.374267 0.233221 0.140507
624 4 0.391984 0.239426 0.135055
763 2 0.355796 0.230442 0.157128
764 4 0.337325 0.227662 0.17375
518 4 0.491812 0.244699 0.127912
528 4 0.470267 0.245189 0.13317
656 4 0.00276438 0.289523 0.086898
536 4 0.18959 0.321998 0.107938
535 2 0.191976 0.34022 0.124893
754 2 0.263602 0.281854 0.148766
755 4 0.263114 0.259613 0.137352
756 4 0.264091 0.304095 0.16018
622 2 0.390229 0.253708 0.114607
623 4 0.388474 0.26799 0.0941594
670 2 0.425222 0.323109 0.0867395
526 2 0.463972 0.259224 0.152883
621 4 0.0135692 0.349028 0.12395
619 2 0.00853949 0.358191 0.101237
456 4 0.163761 0.412555 0.0891105
537 4 0.194363 0.358441 0.141847
302 4 0.318477 0.370862 0.154283
387 4 0.331147 0.359495 0.14463
608 4 0.337613 0.419293 0.0900781
385 2 0.347465 0.35578 0.126053
740 4 0.366539 0.35296 0.0875546
15 3 0.382566 0.356724 0.112891
386 4 0.363783 0.352064 0.107476
11 1 0.4031 0.365629 0.117092
13 3 0.411607 0.356938 0.136853
14 3 0.401549 0.388731 0.11862
495 4 0.4002 0.407827 0.111604
12 3 0.417359 0.360257 0.0998596
672 4 0.413839 0.339903 0.101353
596 4 0.482272 0.409977 0.160233
315 4 0.00992143 0.428757 0.109583
313 2 0.00402793 0.435527 0.13292
314 4 0.998134 0.442296 0.156257
625 2 0.202554 0.461053 0.0848374
627 4 0.184422 0.466761 0.10108
638 4 0.25047 0.494566 0.157519
523 2 0.333509 0.499128 0.0934995
525 4 0.355426 0.489802 0.101107
658 2 0.362101 0.450247 0.121783
659 4 0.361136 0.433225 0.103494
660 4 0.363066 0.46727 0.140071
493 2 0.419701 0.423436 0.11272
226 2 0.477996 0.460467 0.0946686
494 4 0.439203 0.439044 0.113836
20 3 0.0548332 0.0832446 0.177855
17 3 0.0302965 0.0551743 0.179559
2480 4 0.0163846 0.0450341 0.17011
18 3 0.0668195 0.0476821 0.174806
1422 4 0.0178987 0.0275992 0.179176
673 2 0.11989 0.0240714 0.243343
674 4 0.136514 0.0272229 0.224934
689 4 0.189602 0.0315518 0.235476
688 2 0.185358 0.0071302 0.232198
691 2 0.232673 0.0840114 0.226619
693 4 0.234894 0.0749851 0.203408
24 3 0.333668 0.0558652 0.248384
21 1 0.349463 0.0447087 0.235561
25 3 0.34304 0.0445677 0.213712
759 4 0.362627 0.0554594 0.214043
22 3 0.369629 0.0556114 0.237459
757 2 0.377909 0.0636578 0.196031
758 4 0.393192 0.0718562 0.17802
23 3 0.35195 0.0229482 0.243222
742 2 0.486822 0.0619159 0.225049
744 4 0.506352 0.047324 0.219496
743 4 0.467292 0.0765078 0.230601
578 4 0.0620498 0.0945243 0.231282
379 2 0.0168848 0.148849 0.175927
381 4 0.0208182 0.147804 0.200597
512 4 0.0225031 0.143683 0.219735
577 2 0.0865672 0.0948672 0.236177
477 4 0.123324 0.152077 0.16708
579 4 0.111085 0.0952101 0.241072
692 4 0.230451 0.0930377 0.249831
582 4 0.266797 0.106183 0.2
580 2 0.281199 0.107724 0.179619
28 3 0.296864 0.123839 0.247338
27 3 0.318324 0.154639 0.249206
632 4 0.36832 0.116353 0.239107
331 2 0.446951 0.148119 0.25183
333 4 0.429621 0.130673 0.247303
511 2 0.0362158 0.163016 0.227697
513 4 0.0499284 0.182349 0.235658
396 4 0.00880442 0.241391 0.245236
363 4 0.0821198 0.233439 0.177608
361 2 0.0935271 0.241541 0.19833
283 2 0.298026 0.230023 0.169179
285 4 0.319337 0.224308 0.180941
520 2 0.48389 0.189397 0.230501
521 4 0.464017 0.179786 0.242243
522 4 0.503763 0.199007 0.218759
394 2 0.0135067 0.259305 0.228438
395 4 0.018209 0.277218 0.21164
648 4 0.0612449 0.33818 0.186287
371 4 0.161836 0.282569 0.221426
370 2 0.143619 0.265442 0.221395
372 4 0.125402 0.248316 0.221364
748 2 0.0908459 0.288883 0.229288
362 4 0.104934 0.249642 0.219052
749 4 0.10066 0.265919 0.230532
750 4 0.0810323 0.311847 0.228044
343 2 0.228765 0.314036 0.246913
345 4 0.209759 0.330275 0.247435
344 4 0.24777 0.297797 0.246391
612 4 0.261056 0.314989 0.177162
308 4 0.328251 0.274216 0.226455
610 2 0.279985 0.329026 0.185519
307 2 0.34026 0.279471 0.247747
527 4 0.457677 0.273259 0.172595
647 4 0.075749 0.385921 0.18294
646 2 0.068497 0.362051 0.184613
417 4 0.162864 0.420775 0.185138
415 2 0.186724 0.413629 0.187322
291 4 0.227394 0.394184 0.187549
416 4 0.210585 0.406482 0.189505
289 2 0.242092 0.411567 0.197893
611 4 0.298913 0.343064 0.193877
303 4 0.305556 0.390559 0.198394
301 2 0.312016 0.380711 0.176339
729 4 0.299509 0.397204 0.215962
727 2 0.309054 0.381818 0.233207
728 4 0.318599 0.366433 0.250451
644 4 0.408767 0.371992 0.224777
447 4 0.409652 0.359509 0.240507
595 2 0.466168 0.398316 0.175393
597 4 0.450063 0.386655 0.190554
643 2 0.420321 0.378206 0.203492
645 4 0.431876 0.38442 0.182207
264 4 0.0230788 0.440764 0.210192
262 2 0.0151012 0.430691 0.231642
263 4 0.00712359 0.420617 0.253091
767 4 0.266044 0.481265 0.165051
290 4 0.25679 0.428949 0.208237
768 4 0.261446 0.446751 0.200945
766 2 0.263745 0.464008 0.182998
229 2 0.411159 0.501297 0.241317
1568 4 0.489807 0.499524 0.187332
234 4 0.00410559 0.0574771 0.312963
232 2 0.0161909 0.0448216 0.295103
233 4 0.0282763 0.0321661 0.277244
1402 2 0.0707893 0.0261849 0.276311
1404 4 0.047354 0.0339452 0.272343
675 4 0.103266 0.0209199 0.261752
1403 4 0.0942247 0.0184246 0.280279
1464 4 0.105769 0.0165005 0.296702
723 4 0.215854 0.0817908 0.2565
1700 4 0.263518 0.04705 0.308621
1699 2 0.25396 0.0409279 0.330901
699 4 0.351318 0.0604079 0.314101
478 2 0.481333 0.0445471 0.29493
480 4 0.457525 0.0510209 0.298981
351 4 0.444609 0.0646641 0.292095
531 4 0.00247262 0.165205 0.272925
721 2 0.222433 0.0859283 0.280265
722 4 0.229013 0.0900658 0.30403
249 4 0.236412 0.100793 0.319718
403 2 0.241156 0.138403 0.297362
404 4 0.241684 0.118946 0.313057
405 4 0.240627 0.157861 0.281668
26 1 0.302059 0.142531 0.260068
29 3 0.310164 0.135991 0.280802
707 4 0.326034 0.131765 0.290928
30 3 0.283542 0.155524 0.262709
633 4 0.343317 0.12956 0.280352
631 2 0.355818 0.122957 0.259729
706 2 0.338856 0.148394 0.304502
708 4 0.351678 0.165023 0.318076
349 2 0.436245 0.0863534 0.282886
350 4 0.42788 0.108043 0.273678
393 4 0.0595355 0.183132 0.254334
391 2 0.0835843 0.17745 0.258147
442 2 0.0195348 0.253664 0.283668
444 4 0.0191553 0.256411 0.308517
392 4 0.107633 0.171768 0.261961
546 4 0.147065 0.212942 0.2629
544 2 0.161 0.193933 0.271245
545 4 0.174935 0.174924 0.27959
401 4 0.173683 0.256592 0.304465
717 4 0.387461 0.20908 0.334278
332 4 0.46428 0.165566 0.256358
762 4 0.462605 0.180194 0.271748
761 4 0.488672 0.184476 0.314208
760 2 0.475639 0.182335 0.292978
443 4 0.0199144 0.250918 0.258818
2493 4 0.00728077 0.340149 0.309698
390 4 0.100727 0.238231 0.310939
388 2 0.0853563 0.243477 0.32995
400 2 0.187171 0.272214 0.290351
402 4 0.200659 0.287835 0.276237
676 2 0.194767 0.327751 0.314102
496 2 0.321134 0.303252 0.294837
497 4 0.305531 0.311179 0.312695
377 4 0.297525 0.321316 0.328515
376 2 0.279633 0.30516 0.335151
378 4 0.261741 0.289003 0.341786
498 4 0.336736 0.295325 0.27698
309 4 0.35227 0.284726 0.269039
615 4 0.362315 0.314926 0.318977
541 2 0.378839 0.283541 0.334565
542 4 0.39841 0.269012 0.34014
543 4 0.359268 0.29807 0.32899
364 2 0.0216425 0.360774 0.287068
365 4 0.0383834 0.379084 0.283957
601 2 0.0755336 0.398181 0.293987
603 4 0.0579787 0.384929 0.282096
602 4 0.0930885 0.411433 0.305878
366 4 0.00490149 0.342464 0.290178
549 4 0.0900523 0.410179 0.324384
300 4 0.110125 0.349353 0.256197
298 2 0.1302 0.364222 0.257246
299 4 0.150275 0.37909 0.258295
734 4 0.170354 0.37684 0.256335
733 2 0.186274 0.363842 0.270576
677 4 0.199412 0.332378 0.289973
735 4 0.202193 0.350844 0.284817
433 2 0.309263 0.371167 0.324295
434 4 0.330727 0.360781 0.316771
435 4 0.287799 0.381554 0.331819
613 2 0.355642 0.338879 0.321606
614 4 0.348969 0.362832 0.324235
445 2 0.413681 0.369988 0.262848
446 4 0.41771 0.380467 0.28519
777 4 0.0898679 0.459353 0.300958
775 2 0.0872857 0.477655 0.317796
412 2 0.208914 0.49254 0.32736
413 4 0.221745 0.479102 0.310628
436 2 0.32503 0.454878 0.311916
437 4 0.321235 0.449256 0.28785
438 4 0.328825 0.4605 0.335982
231 4 0.417243 0.478237 0.248829
2862 4 0.495208 0.468106 0.321656
119 3 0.475181 0.456619 0.322285
712 2 0.436035 0.456512 0.322999
714 4 0.45916 0.453513 0.313974
2860 2 0.498818 0.485036 0.303614
427 2 0.0734673 0.0146176 0.335941
316 2 0.0575325 0.069336 0.341507
317 4 0.0458366 0.0472437 0.342071
428 4 0.0562343 0.0322957 0.33198
1781 4 0.112997 0.0108817 0.395741
368 4 0.10693 0.0246063 0.41066
1701 4 0.244403 0.0348058 0.35318
683 4 0.332341 0.0857643 0.379467
698 4 0.387247 0.0584725 0.34883
257 4 0.404498 0.0502278 0.339611
697 2 0.369283 0.0594402 0.331465
1428 4 0.444776 0.998055 0.387643
256 2 0.421766 0.0321941 0.338272
258 4 0.439033 0.0141604 0.336932
732 4 0.0805076 0.107077 0.339848
399 4 0.0610325 0.108429 0.336054
2586 4 0.0121783 0.131949 0.392614
318 4 0.0692283 0.0914283 0.340943
398 4 0.0425198 0.154831 0.333853
397 2 0.0517762 0.13163 0.334954
457 2 0.0360611 0.153227 0.413477
458 4 0.0298626 0.132133 0.40157
606 4 0.140247 0.103094 0.366899
731 4 0.129003 0.108056 0.352013
730 2 0.104755 0.107567 0.34593
604 2 0.16173 0.0916792 0.361122
598 2 0.146219 0.156342 0.360652
600 4 0.156143 0.133541 0.358038
247 2 0.219634 0.0929703 0.336525
605 4 0.183213 0.0802649 0.355345
248 4 0.202856 0.085148 0.353333
682 2 0.315789 0.09629 0.394973
684 4 0.299238 0.106816 0.41048
452 4 0.465297 0.112086 0.398714
451 2 0.454102 0.129742 0.412428
453 4 0.442907 0.147399 0.426143
599 4 0.136295 0.179142 0.363265
474 4 0.21205 0.224591 0.374935
276 4 0.194899 0.22217 0.364275
472 2 0.232572 0.210308 0.374962
274 2 0.181925 0.239192 0.377201
473 4 0.253094 0.196025 0.374989
715 2 0.387642 0.216419 0.35818
716 4 0.387823 0.223757 0.382081
467 4 0.398428 0.207261 0.390156
466 2 0.387726 0.207192 0.412754
269 4 0.487932 0.235502 0.407631
268 2 0.470748 0.222532 0.394917
270 4 0.453564 0.209561 0.382203
347 4 0.0549181 0.286323 0.3828
346 2 0.0322276 0.291044 0.392182
618 4 0.0687684 0.296846 0.371963
616 2 0.0895566 0.310738 0.372172
389 4 0.0699856 0.248723 0.34896
348 4 0.00953702 0.295765 0.401565
617 4 0.110345 0.32463 0.372381
275 4 0.16895 0.256215 0.390127
678 4 0.190122 0.323124 0.33823
375 4 0.194102 0.316001 0.356019
373 2 0.188266 0.324457 0.378814
420 4 0.406905 0.25145 0.341218
418 2 0.431389 0.255923 0.343604
419 4 0.455874 0.260396 0.345989
510 4 0.218674 0.364334 0.353865
374 4 0.18243 0.332913 0.401609
508 2 0.243366 0.365288 0.357684
502 2 0.245606 0.38805 0.415292
509 4 0.268057 0.366243 0.361503
503 4 0.268258 0.380278 0.408105
335 4 0.366059 0.36726 0.409362
559 2 0.483641 0.407283 0.407836
561 4 0.461255 0.408487 0.396763
752 4 0.440729 0.411163 0.394895
547 2 0.0777909 0.424191 0.341073
548 4 0.0655295 0.438202 0.357762
407 4 0.08048 0.439736 0.370144
500 4 0.0834661 0.490554 0.353489
406 2 0.0927061 0.440746 0.391931
414 4 0.196082 0.505978 0.344092
570 4 0.161971 0.490113 0.417236
2 3 0.307087 0.500843 0.352906
1436 4 0.260564 0.497661 0.334381
3 3 0.328759 0.470152 0.353938
5 3 0.293671 0.469252 0.367566
1 1 0.312326 0.482091 0.365156
4 3 0.320147 0.488681 0.385984
594 4 0.421232 0.469576 0.347074
592 2 0.418455 0.485594 0.36607
118 3 0.493697 0.427727 0.33862
116 1 0.488325 0.450237 0.34031
713 4 0.412911 0.459511 0.332024
117 3 0.476463 0.453613 0.359728
751 2 0.441998 0.41474 0.370181
753 4 0.443266 0.418317 0.345468
718 2 0.0685422 0.0330933 0.478131
720 4 0.0445343 0.0285859 0.483468
2237 4 0.0344782 0.0150253 0.491837
719 4 0.09255 0.0376008 0.472794
369 4 0.108476 0.0360825 0.459308
367 2 0.107703 0.0303444 0.434984
340 2 0.214234 0.064599 0.492305
341 4 0.214948 0.0400138 0.487807
2428 2 0.228656 0.00892517 0.501869
441 4 0.310823 0.0216652 0.420737
962 4 0.302783 0.0288304 0.438173
961 2 0.303013 0.0372027 0.461732
963 4 0.303244 0.045575 0.485291
439 2 0.299716 0.999303 0.419406
426 4 0.36457 0.0229242 0.419525
424 2 0.359694 0.027804 0.443558
425 4 0.354818 0.0326838 0.467591
725 4 0.393975 0.055546 0.476402
724 2 0.388005 0.0770873 0.465199
2879 4 0.486672 0.0667091 0.418004
2878 2 0.484528 0.0857745 0.434038
686 4 0.156415 0.151745 0.426659
685 2 0.13522 0.164072 0.431556
320 4 0.300506 0.104787 0.430953
1181 4 0.254392 0.116346 0.477973
321 4 0.274453 0.145575 0.443536
319 2 0.28748 0.125181 0.437245
726 4 0.382034 0.0986286 0.453996
642 4 0.497644 0.117176 0.451599
2880 4 0.482384 0.10484 0.450073
640 2 0.487613 0.123529 0.473604
515 4 0.440002 0.151272 0.444931
514 2 0.423456 0.165006 0.45769
641 4 0.477582 0.129881 0.495608
260 4 0.0488134 0.192667 0.429225
459 4 0.0422596 0.174322 0.425384
471 4 0.00749 0.206384 0.508132
259 2 0.0731915 0.189615 0.43387
695 4 0.059376 0.258138 0.462191
687 4 0.114025 0.1764 0.436453
261 4 0.0975696 0.186564 0.438515
1035 4 0.113071 0.189652 0.450394
1033 2 0.120617 0.200587 0.471575
1034 4 0.128164 0.211523 0.492757
488 4 0.288217 0.260147 0.42098
489 4 0.316833 0.234103 0.452659
411 4 0.322213 0.215851 0.453837
487 2 0.302525 0.247125 0.43682
409 2 0.346945 0.2122 0.4543
574 2 0.377024 0.184027 0.503022
410 4 0.371676 0.208548 0.454764
468 4 0.377025 0.207123 0.435351
575 4 0.396692 0.180454 0.488004
516 4 0.40691 0.178739 0.470449
305 4 0.497572 0.205418 0.446308
2847 4 0.99802 0.323851 0.458689
694 2 0.0796789 0.269737 0.471047
696 4 0.0999818 0.281336 0.479904
9 3 0.159523 0.315758 0.482311
1258 2 0.137415 0.285664 0.480486
1259 4 0.157803 0.297521 0.488787
1260 4 0.117027 0.273807 0.472184
857 4 0.203473 0.265541 0.497976
651 4 0.253033 0.299819 0.479217
649 2 0.262181 0.277737 0.486558
650 4 0.271329 0.255655 0.4939
266 4 0.359163 0.293183 0.461609
267 4 0.397804 0.261494 0.459766
265 2 0.378484 0.277338 0.460687
583 2 0.466653 0.277364 0.470924
585 4 0.459544 0.278241 0.446969
584 4 0.473762 0.276488 0.49488
2845 2 0.996751 0.344115 0.473281
2846 4 0.995483 0.364379 0.487874
326 4 0.0797455 0.341879 0.461984
6 1 0.163771 0.338566 0.482704
327 4 0.127781 0.348694 0.474102
325 2 0.103763 0.345286 0.468043
7 3 0.147563 0.349361 0.47046
384 4 0.120925 0.411585 0.468079
8 3 0.163115 0.34637 0.504546
10 3 0.184179 0.342828 0.47354
711 4 0.172815 0.362969 0.437493
504 4 0.222954 0.395822 0.422479
709 2 0.188531 0.3816 0.431917
710 4 0.204246 0.400231 0.426341
336 4 0.322443 0.390382 0.417343
669 4 0.283988 0.416652 0.448554
668 4 0.328494 0.398494 0.434764
667 2 0.306241 0.407573 0.441659
587 4 0.402489 0.413977 0.435403
334 2 0.344251 0.378821 0.413352
238 2 0.395387 0.380565 0.432783
240 4 0.380209 0.363765 0.422174
239 4 0.410565 0.397366 0.443392
680 4 0.0128659 0.432327 0.448153
1383 4 0.0122485 0.45344 0.448247
679 2 0.000745489 0.411367 0.441911
1381 2 0.0209141 0.475202 0.456993
408 4 0.104932 0.441756 0.413718
382 2 0.116108 0.428777 0.450574
383 4 0.111291 0.445969 0.43307
569 4 0.127593 0.458018 0.43423
568 2 0.144782 0.474065 0.425733
636 4 0.258828 0.477567 0.428135
1557 4 0.252595 0.496175 0.422186
634 2 0.268234 0.460378 0.443667
774 4 0.281849 0.425818 0.464661
635 4 0.277639 0.443188 0.459199
772 2 0.279912 0.431054 0.489033
588 4 0.386161 0.461244 0.435327
882 4 0.357598 0.426697 0.472555
880 2 0.350215 0.441048 0.491652
586 2 0.394325 0.43761 0.435365
661 2 0.450177 0.484823 0.475728
663 4 0.441098 0.462588 0.468777
1128 4 0.0101909 0.0856732 0.57631
2430 4 0.232361 0.0330278 0.496345
342 4 0.213521 0.0891843 0.496804
430 2 0.313008 0.0605509 0.522826
432 4 0.299559 0.0502594 0.504431
431 4 0.326457 0.0708423 0.541221
951 4 0.255821 0.0528264 0.577817
841 2 0.3641 0.0733524 0.537407
842 4 0.386184 0.0633315 0.531319
843 4 0.342017 0.0833732 0.543495
1217 4 0.403841 0.0544017 0.523618
1216 2 0.418285 0.0348809 0.529577
1218 4 0.432728 0.0153602 0.535536
3007 2 0.488594 0.0539336 0.57862
3008 4 0.466736 0.0542555 0.590757
937 2 0.103045 0.15816 0.55864
1059 4 0.126501 0.119957 0.575047
1057 2 0.134314 0.0980753 0.584286
1151 4 0.162482 0.103262 0.530731
939 4 0.11815 0.149985 0.576812
1030 2 0.237051 0.0811277 0.569895
1152 4 0.205786 0.106551 0.50594
1150 2 0.184134 0.104907 0.518335
1032 4 0.219921 0.0911536 0.554688
1182 4 0.277064 0.128493 0.520858
1180 2 0.265728 0.122419 0.499415
3159 4 0.472282 0.164082 0.551241
877 2 0.0467394 0.209922 0.578618
879 4 0.0715638 0.20763 0.576701
470 4 0.0291383 0.171843 0.537097
469 2 0.0183141 0.189113 0.522614
878 4 0.021915 0.212214 0.580534
1199 4 0.00872462 0.212717 0.596742
938 4 0.0879406 0.166335 0.540469
1272 4 0.0913597 0.205716 0.580214
1270 2 0.110056 0.220775 0.587203
858 4 0.202237 0.230044 0.533177
856 2 0.202855 0.247792 0.515576
898 2 0.309469 0.176884 0.555324
900 4 0.30677 0.191153 0.53497
899 4 0.312169 0.162616 0.575679
576 4 0.357355 0.1876 0.51804
3157 2 0.488172 0.18331 0.55297
3064 2 0.502859 0.237537 0.532748
983 4 0.0357507 0.318928 0.524932
1245 4 0.0420021 0.288738 0.568648
798 4 0.200649 0.278969 0.584835
872 4 0.3521 0.282657 0.514525
871 2 0.357021 0.305893 0.522337
873 4 0.361942 0.329129 0.530149
3065 4 0.49518 0.25517 0.51677
953 4 0.445034 0.257347 0.582926
2456 4 0.491452 0.269725 0.503741
904 2 0.481962 0.277269 0.575948
906 4 0.460705 0.264939 0.571333
982 2 0.036447 0.334588 0.544411
984 4 0.0371432 0.350249 0.56389
3354 4 0.0259329 0.365676 0.560211
1189 2 0.23094 0.381682 0.57109
1191 4 0.21235 0.396091 0.579574
1190 4 0.24953 0.367273 0.562607
1172 4 0.214573 0.414809 0.581099
803 4 0.270466 0.366435 0.556365
802 2 0.273671 0.356784 0.533522
930 4 0.345802 0.343115 0.582938
804 4 0.276876 0.347134 0.51068
813 4 0.363216 0.348727 0.538433
928 2 0.35016 0.367011 0.577005
811 2 0.371633 0.36032 0.517941
929 4 0.354518 0.390906 0.571072
812 4 0.380051 0.371913 0.497449
927 4 0.413979 0.371979 0.513017
926 4 0.439954 0.377828 0.555347
925 2 0.426966 0.374904 0.534182
3309 4 0.474992 0.381823 0.513235
3307 2 0.492945 0.369662 0.500786
539 4 0.0573891 0.476925 0.526744
538 2 0.0813601 0.482759 0.522678
1159 2 0.151694 0.476004 0.575706
540 4 0.105331 0.488594 0.518612
1160 4 0.144062 0.456146 0.562568
1161 4 0.159326 0.495861 0.588844
773 4 0.277976 0.436291 0.513405
1002 4 0.402632 0.441412 0.549065
881 4 0.342833 0.455398 0.51075
1911 4 0.44245 0.496255 0.559064
1000 2 0.427016 0.446784 0.547745
1001 4 0.4514 0.452156 0.546425
1083 4 0.0497829 0.0804622 0.613301
1081 2 0.0560725 0.0865391 0.636725
1058 4 0.142127 0.0761939 0.593524
824 4 0.152909 0.992475 0.622831
825 4 0.110322 0.0183515 0.627004
823 2 0.131615 0.00541305 0.624918
1031 4 0.25418 0.0711018 0.585101
949 2 0.274636 0.0456269 0.592627
950 4 0.293451 0.0384274 0.607437
2283 4 0.401814 0.023643 0.640182
809 4 0.465288 0.0709594 0.602452
808 2 0.460218 0.0799255 0.625236
2281 2 0.423057 0.0128145 0.632654
42 3 0.449208 0.0744644 0.665035
1126 2 0.0333836 0.0824635 0.585084
1127 4 0.0565764 0.0792539 0.593857
1082 4 0.0623621 0.0926161 0.660149
1155 4 0.128652 0.136041 0.58804
1153 2 0.142847 0.155546 0.594615
1283 4 0.148315 0.0963131 0.640073
1282 2 0.152214 0.0966453 0.664769
909 4 0.184614 0.157722 0.65624
810 4 0.455148 0.0888916 0.648019
45 3 0.455497 0.109685 0.654413
3424 2 0.494126 0.120833 0.662224
1154 4 0.157042 0.175051 0.60119
1271 4 0.128752 0.235835 0.594191
1221 4 0.173974 0.164594 0.601891
1212 4 0.226591 0.194748 0.627879
1219 2 0.196538 0.17112 0.610462
1220 4 0.219101 0.177646 0.619034
1210 2 0.24649 0.185732 0.640041
1211 4 0.266389 0.176716 0.652203
1193 4 0.359609 0.195285 0.651362
1192 2 0.339618 0.185453 0.662713
1025 4 0.425325 0.186048 0.662898
1244 4 0.0558402 0.252191 0.59985
1243 2 0.0489211 0.270464 0.584249
1136 4 0.120835 0.312197 0.593623
948 4 0.136688 0.290965 0.606896
946 2 0.15991 0.28395 0.600834
796 2 0.219606 0.272115 0.599628
947 4 0.183131 0.276935 0.594772
797 4 0.238564 0.265262 0.61442
791 4 0.250399 0.275325 0.602734
792 4 0.292635 0.292517 0.62326
790 2 0.271517 0.283921 0.612997
1238 4 0.300315 0.309748 0.61865
1237 2 0.315552 0.320103 0.601745
805 2 0.347242 0.303669 0.657383
954 4 0.409927 0.291963 0.591289
806 4 0.357567 0.322177 0.644115
952 2 0.42748 0.274655 0.587108
3123 4 0.491412 0.26769 0.657491
1039 2 0.0695363 0.408665 0.633865
1041 4 0.0446533 0.40701 0.632056
3264 4 0.0285282 0.398731 0.623296
3262 2 0.0174579 0.376322 0.622621
3240 4 0.0169025 0.4153 0.623845
3263 4 0.00638759 0.353913 0.621946
1040 4 0.0944193 0.410321 0.635674
993 4 0.101735 0.390864 0.637397
1137 4 0.137462 0.359028 0.599205
897 4 0.151526 0.371394 0.595256
1135 2 0.129149 0.335612 0.596414
991 2 0.121373 0.383663 0.623698
992 4 0.141011 0.376462 0.609998
896 4 0.195601 0.394601 0.590842
895 2 0.173564 0.382997 0.593049
1239 4 0.33079 0.330458 0.58484
1204 2 0.408362 0.38685 0.651091
1205 4 0.383944 0.384142 0.655739
1206 4 0.43278 0.389557 0.646443
1171 2 0.224784 0.436802 0.587201
1173 4 0.234995 0.458795 0.593302
1187 4 0.220956 0.471043 0.60021
1186 2 0.199737 0.484033 0.597725
889 2 0.30012 0.464426 0.622508
891 4 0.288657 0.458156 0.643827
890 4 0.311582 0.470696 0.60119
1952 4 0.317165 0.480781 0.584511
1951 2 0.336019 0.496954 0.581659
1230 4 0.385336 0.477203 0.657729
1269 4 0.431567 0.479777 0.641093
1267 2 0.447358 0.496058 0.651617
943 2 0.0434804 0.0501004 0.685957
945 4 0.0383595 0.025629 0.685634
944 4 0.0486013 0.0745719 0.686279
2991 4 0.00919294 0.0362294 0.748685
1147 2 0.218615 0.0662007 0.736745
1149 4 0.225771 0.042365 0.734331
1004 4 0.370352 0.0470828 0.677242
1003 2 0.374027 0.07126 0.682451
1163 4 0.46341 0.0751812 0.683574
1162 2 0.475651 0.0556128 0.693188
2320 2 0.47829 0.0286271 0.741606
2321 4 0.489911 0.026938 0.719532
1164 4 0.487891 0.0360443 0.702801
4581 4 0.494377 0.00813455 0.716387
1076 4 0.0594727 0.0896954 0.679231
862 2 0.0338721 0.11455 0.744527
864 4 0.0528472 0.123456 0.730896
1075 2 0.0604291 0.108047 0.696186
1077 4 0.0613856 0.126398 0.713142
1107 4 0.0601918 0.140939 0.725258
851 4 0.0680042 0.145706 0.708964
1105 2 0.0769447 0.147453 0.742639
850 2 0.0609745 0.162894 0.692221
1284 4 0.156113 0.0969776 0.689464
1148 4 0.211459 0.0900363 0.73916
908 4 0.181674 0.153322 0.705966
907 2 0.183144 0.155522 0.681103
1227 4 0.191166 0.136058 0.706278
1225 2 0.206638 0.120395 0.71813
1226 4 0.22211 0.104733 0.729983
829 2 0.323597 0.139764 0.715466
830 4 0.31091 0.150041 0.69653
1005 4 0.377702 0.0954373 0.687661
831 4 0.336285 0.129487 0.734403
43 3 0.430348 0.102499 0.681497
41 1 0.450669 0.0962811 0.67218
44 3 0.467489 0.0978552 0.688086
3425 4 0.472375 0.109805 0.667745
852 4 0.0539449 0.180081 0.675477
1177 2 0.0107154 0.201741 0.702403
1178 4 0.00372586 0.211381 0.724389
1179 4 0.0177049 0.192101 0.680417
1073 4 0.148242 0.220637 0.741025
1072 2 0.134846 0.24072 0.747537
978 4 0.242783 0.228945 0.733488
1194 4 0.319626 0.17562 0.674064
888 4 0.268148 0.191275 0.665318
886 2 0.287212 0.179611 0.676531
887 4 0.306275 0.167946 0.687743
976 2 0.26635 0.232425 0.741079
918 4 0.305215 0.245388 0.757898
1262 4 0.451888 0.220982 0.711473
1142 4 0.4483 0.190153 0.719008
1024 2 0.433565 0.195041 0.684725
1141 2 0.449196 0.181041 0.742275
1026 4 0.441805 0.204034 0.706551
1261 2 0.467537 0.23662 0.723125
1209 4 0.149893 0.28797 0.697335
1207 2 0.125048 0.28632 0.695057
1208 4 0.100203 0.284669 0.69278
821 4 0.154276 0.326088 0.671053
820 2 0.175153 0.315843 0.68024
822 4 0.196029 0.305598 0.689426
1065 4 0.234918 0.332916 0.72078
1063 2 0.235793 0.323479 0.697642
1064 4 0.236668 0.314042 0.674505
916 2 0.312887 0.264817 0.744156
917 4 0.320558 0.284245 0.730413
807 4 0.336918 0.285162 0.670652
1263 4 0.483186 0.252257 0.734777
892 2 0.0232278 0.363583 0.711334
893 4 0.0161729 0.340472 0.704909
894 4 0.0302826 0.386694 0.717759
1280 4 0.0488452 0.383961 0.723692
1279 2 0.0548013 0.408238 0.724241
816 4 0.0580949 0.36597 0.723003
814 2 0.0796843 0.359152 0.733614
815 4 0.101274 0.352334 0.744225
1028 4 0.21475 0.382444 0.712473
1066 2 0.193178 0.375067 0.737267
1068 4 0.204387 0.365542 0.717048
1027 2 0.22452 0.400104 0.697713
1029 4 0.23429 0.417764 0.682953
1019 4 0.359725 0.381857 0.739005
1018 2 0.373085 0.393547 0.756613
1981 2 0.0612674 0.463387 0.739516
1281 4 0.0607573 0.432516 0.72479
1983 4 0.0498357 0.449094 0.722481
1982 4 0.0726992 0.477679 0.756552
1140 4 0.248838 0.4279 0.674372
1138 2 0.265421 0.44616 0.678462
1139 4 0.282004 0.464421 0.682552
1988 4 0.325575 0.467926 0.743719
1987 2 0.330292 0.46406 0.71947
1228 2 0.366232 0.465516 0.668849
1229 4 0.347129 0.45383 0.679969
1989 4 0.335009 0.460195 0.695222
1100 4 0.408962 0.46723 0.723479
1099 2 0.42773 0.474176 0.708489
1101 4 0.446497 0.481121 0.693498
1203 4 0.133387 0.0824148 0.758726
1201 2 0.12016 0.0622299 0.752184
1202 4 0.106933 0.042045 0.745641
2049 4 0.11409 0.0242194 0.748637
2047 2 0.122717 0.00170436 0.755257
1257 4 0.228106 0.0688923 0.786499
817 2 0.324754 0.045726 0.798995
819 4 0.319078 0.0682768 0.808183
818 4 0.330429 0.0231752 0.789806
1085 4 0.30526 0.0775033 0.817509
1050 4 0.348735 0.00744055 0.76346
974 4 0.343884 0.00943544 0.783308
1113 4 0.409457 0.0749655 0.80156
2322 4 0.466669 0.0303162 0.76368
845 4 0.467498 0.088225 0.776713
844 2 0.489966 0.077681 0.77368
863 4 0.014897 0.105644 0.758158
833 4 0.0170852 0.11575 0.775166
911 4 0.112824 0.13666 0.820557
34 3 0.131765 0.142594 0.782775
31 1 0.119716 0.152577 0.799909
35 3 0.0992687 0.142728 0.801791
32 3 0.131248 0.149924 0.819635
1255 2 0.242501 0.08633 0.79717
840 4 0.26064 0.103803 0.828527
1256 4 0.256897 0.103768 0.807841
1084 2 0.300066 0.0988693 0.805606
1086 4 0.294872 0.120235 0.793702
1112 4 0.449763 0.0966141 0.781374
1111 2 0.42961 0.0857898 0.791467
1214 4 0.00350122 0.21589 0.782116
1213 2 0.998322 0.220882 0.75817
1106 4 0.0936975 0.153967 0.760019
33 3 0.117221 0.175253 0.79567