ITEM: TIMESTEP
380000
ITEM: NUMBER OF ATOMS
4590
ITEM: BOX BOUNDS pp pp pp
-9.9985700000000008e+00 9.9985700000000008e+00
-9.9985700000000008e+00 9.9985700000000008e+00
-9.9985700000000008e+00 9.9985700000000008e+00
ITEM: ATOMS id type xs ys zs
463 2 0.027436 0.0782909 0.0239186
464 4 0.0465573 0.0621965 0.0231941
534 4 0.210456 0.0554846 0.0155631
490 2 0.274535 0.0847172 0.0688008
492 4 0.264043 0.0786337 0.0469353
296 4 0.378194 0.0769619 0.0395985
295 2 0.368265 0.0560367 0.049018
297 4 0.358336 0.0351115 0.0584376
987 4 0.419018 0.0369501 0.0133837
747 4 0.476753 0.0663708 0.0145642
2975 4 0.465036 0.0515422 0.00996674
2974 2 0.47404 0.0295603 0.0177709
2976 4 0.483043 0.00757835 0.0255751
1826 4 0.479302 0.996629 0.0425697
2467 2 0.493349 0.0261039 0.0720302
2468 4 0.48161 0.0123928 0.0547278
465 4 0.00831466 0.0943853 0.0246431
589 2 0.00915811 0.09489 0.0765
591 4 0.0329687 0.0873033 0.0756769
422 4 0.125608 0.135737 0.0217348
421 2 0.111768 0.125398 0.00365907
565 2 0.217649 0.137466 0.0600407
566 4 0.198554 0.122704 0.0535123
567 4 0.236744 0.152229 0.066569
358 2 0.286291 0.139 0.0464473
359 4 0.268967 0.154618 0.0374407
360 4 0.303616 0.123382 0.055454
557 4 0.37144 0.0871868 0.024317
556 2 0.382916 0.107345 0.0336525
558 4 0.394392 0.127502 0.0429879
745 2 0.481866 0.0889292 0.0240593
746 4 0.486979 0.111488 0.0335544
771 4 0.426961 0.157915 0.0361727
769 2 0.442258 0.166972 0.0537547
553 2 0.0523143 0.244024 0.0343933
555 4 0.0305013 0.24588 0.0223133
554 4 0.0741274 0.242168 0.0464733
573 4 0.262829 0.248697 0.0647356
324 4 0.41418 0.228251 0.0638886
664 2 0.34226 0.184297 0.0179839
665 4 0.359096 0.176937 0.0349414
770 4 0.457556 0.176029 0.0713368
292 2 0.136888 0.320536 0.0241675
293 4 0.155053 0.320769 0.0413482
507 4 0.165709 0.309429 0.0313387
483 4 0.21086 0.290645 0.074113
505 2 0.183628 0.298114 0.0446079
506 4 0.201547 0.286799 0.0578772
481 2 0.234037 0.29779 0.0680311
572 4 0.295633 0.256986 0.0279134
357 4 0.261023 0.27172 0.0154433
571 2 0.279231 0.252842 0.0463245
482 4 0.257213 0.304934 0.0619493
322 2 0.411164 0.251517 0.0725347
957 4 0.348874 0.32919 0.996832
1071 4 0.377998 0.291406 0.0275451
1069 2 0.40162 0.290442 0.0194036
671 4 0.445687 0.316466 0.0617141
280 2 0.461755 0.320395 0.02162
281 4 0.456572 0.318263 0.0459874
670 2 0.450401 0.321996 0.0856386
323 4 0.408148 0.274784 0.0811808
1070 4 0.425241 0.289478 0.0112621
330 4 0.00733928 0.393116 0.00255346
328 2 0.0118269 0.416627 0.00978327
621 4 0.041003 0.331458 0.0769954
550 2 0.0735936 0.414857 0.0512757
551 4 0.0530234 0.404869 0.0411618
552 4 0.0941638 0.424844 0.0613897
287 4 0.168256 0.383238 0.0468634
455 4 0.103088 0.406234 0.0674835
288 4 0.185754 0.353149 0.0109584
286 2 0.177005 0.368194 0.0289109
252 4 0.280425 0.40991 0.0402904
250 2 0.283695 0.399897 0.0176136
609 4 0.285357 0.397968 0.0554443
955 2 0.372081 0.334639 0.00437645
741 4 0.363958 0.348435 0.065164
329 4 0.0163146 0.440138 0.0170131
242 4 0.165957 0.484221 0.0549047
1788 4 0.0885598 0.488786 0.0543725
241 2 0.166312 0.498065 0.0757226
245 4 0.240122 0.444818 0.0446144
244 2 0.249472 0.450521 0.0221372
246 4 0.258823 0.456225 0.99966
272 4 0.27573 0.46865 0.998862
271 2 0.291434 0.486176 0.00731284
227 4 0.480856 0.448256 0.0924756
226 2 0.485455 0.471 0.0831614
563 4 0.453864 0.487611 0.0375921
228 4 0.490053 0.493744 0.0738473
701 4 0.0906363 0.0748238 0.0841847
1666 2 0.0765269 0.0333485 0.0899046
1668 4 0.0648033 0.0112643 0.0900625
19 3 0.063139 0.0340703 0.146202
1667 4 0.0882505 0.0554327 0.0897467
450 4 0.159974 0.0673867 0.141469
693 4 0.207047 0.0678514 0.175274
652 2 0.316571 0.0236523 0.145265
653 4 0.328933 0.0338425 0.126068
654 4 0.30421 0.0134621 0.164463
758 4 0.420566 0.0492027 0.174558
1761 4 0.459322 0.00765246 0.123959
1759 2 0.470908 0.0178129 0.14365
1760 4 0.482494 0.0279734 0.16334
2724 4 0.492726 0.0406613 0.154078
700 2 0.1001 0.0918668 0.0998419
702 4 0.109564 0.10891 0.115499
476 4 0.134186 0.139312 0.129369
475 2 0.122317 0.156488 0.143127
448 2 0.176156 0.0849065 0.13396
237 4 0.190706 0.167058 0.148428
449 4 0.192338 0.102426 0.126452
235 2 0.188509 0.143478 0.140408
236 4 0.186313 0.119897 0.132388
491 4 0.285026 0.0908007 0.0906663
582 4 0.307614 0.0921832 0.134984
580 2 0.289376 0.103769 0.147567
581 4 0.271138 0.115354 0.16015
312 4 0.429233 0.106011 0.141477
629 4 0.421524 0.141405 0.129939
310 2 0.430662 0.0852865 0.155392
628 2 0.421298 0.162516 0.116542
337 2 0.0816484 0.239194 0.136626
339 4 0.0758666 0.248606 0.114195
477 4 0.110448 0.173665 0.156885
338 4 0.0874302 0.229781 0.159057
737 4 0.180305 0.186085 0.108718
736 2 0.205228 0.185886 0.11072
738 4 0.23015 0.185686 0.112722
354 4 0.26383 0.225326 0.096209
461 4 0.303195 0.219285 0.0762185
352 2 0.266772 0.237425 0.117892
460 2 0.327818 0.221759 0.0797933
284 4 0.276031 0.239771 0.157015
255 4 0.358019 0.206197 0.0909666
462 4 0.352441 0.224234 0.0833681
254 4 0.405395 0.19271 0.099588
253 2 0.381707 0.199454 0.0952773
630 4 0.421072 0.183626 0.103146
518 4 0.492176 0.234731 0.101075
363 4 0.0842614 0.241958 0.175856
536 4 0.204416 0.313691 0.147972
277 2 0.243033 0.253359 0.164453
353 4 0.269714 0.249524 0.139574
278 4 0.266151 0.255611 0.155199
754 2 0.265135 0.293039 0.135179
755 4 0.268412 0.268686 0.139803
756 4 0.261858 0.317392 0.130556
612 4 0.262443 0.31954 0.151749
624 4 0.387463 0.252221 0.130248
622 2 0.385652 0.277099 0.131973
623 4 0.38384 0.301978 0.133698
528 4 0.460812 0.271188 0.166788
619 2 0.0330707 0.351706 0.0893359
620 4 0.0251383 0.371953 0.101676
647 4 0.0595818 0.365621 0.157376
454 2 0.111757 0.394002 0.0874935
456 4 0.120427 0.381771 0.107503
535 2 0.192399 0.335487 0.150357
537 4 0.180382 0.357284 0.152742
607 2 0.287516 0.410576 0.076928
626 4 0.242455 0.419748 0.0884567
302 4 0.320461 0.386248 0.163452
387 4 0.33245 0.399265 0.153274
739 2 0.358262 0.364192 0.0837225
740 4 0.352565 0.37995 0.102281
15 3 0.378579 0.365277 0.122904
385 2 0.345553 0.386063 0.136565
386 4 0.358657 0.372861 0.119856
11 1 0.394156 0.362251 0.13924
13 3 0.383768 0.361006 0.159951
12 3 0.40545 0.342585 0.13539
14 3 0.409348 0.379789 0.139039
672 4 0.455115 0.327525 0.109563
495 4 0.415174 0.390843 0.124149
493 2 0.424486 0.412388 0.132768
596 4 0.489955 0.401942 0.163382
1467 4 0.00630001 0.507686 0.184299
315 4 0.0492202 0.441512 0.100025
313 2 0.0322833 0.451064 0.115745
314 4 0.0153463 0.460615 0.131464
625 2 0.242485 0.44475 0.0887543
627 4 0.242515 0.469752 0.0890519
608 4 0.289675 0.423184 0.0984117
637 2 0.252638 0.504467 0.144968
638 4 0.257861 0.483615 0.157738
525 4 0.347723 0.482162 0.0934266
658 2 0.385447 0.451292 0.150207
659 4 0.37811 0.436245 0.131634
494 4 0.433797 0.433933 0.141387
17 3 0.0342572 0.0345973 0.170248
2479 2 0.000506412 0.0622458 0.17692
20 3 0.0566937 0.0643115 0.167686
2480 4 0.0154691 0.0426214 0.172897
16 1 0.0559305 0.0415625 0.166945
18 3 0.0693074 0.0326433 0.183676
1422 4 0.00305162 0.0329367 0.187561
1420 2 0.0136785 0.0103618 0.189181
673 2 0.127435 0.0499953 0.247606
674 4 0.137783 0.0607843 0.227563
691 2 0.219645 0.0782026 0.19423
689 4 0.207632 0.0297437 0.216255
688 2 0.196323 0.0178497 0.235118
692 4 0.232242 0.0885537 0.213186
21 1 0.366531 0.0323074 0.228878
23 3 0.370233 0.0209292 0.248758
24 3 0.34466 0.0400201 0.22812
25 3 0.370533 0.0185399 0.211183
759 4 0.384786 0.0365218 0.207111
22 3 0.380806 0.0503157 0.227846
757 2 0.402676 0.0428623 0.190835
742 2 0.469851 0.0682271 0.225462
744 4 0.480399 0.0461225 0.220431
311 4 0.432091 0.0645621 0.169308
579 4 0.0935401 0.0879615 0.25333
577 2 0.0949821 0.0945546 0.229254
578 4 0.0964241 0.101148 0.205179
723 4 0.198849 0.0859977 0.23547
30 3 0.306321 0.147908 0.242251
26 1 0.300446 0.126029 0.244576
28 3 0.277623 0.124323 0.248398
27 3 0.305614 0.114699 0.225235
333 4 0.415264 0.155468 0.245919
743 4 0.459303 0.0903316 0.230492
379 2 0.00321945 0.163271 0.175565
381 4 0.0189344 0.173173 0.192304
511 2 0.0350854 0.181167 0.228792
512 4 0.0210271 0.184961 0.208466
395 4 0.0270351 0.25572 0.208422
371 4 0.167553 0.238576 0.213048
283 2 0.287264 0.219364 0.166099
285 4 0.298498 0.198956 0.175182
764 4 0.35114 0.219476 0.176935
763 2 0.375077 0.214813 0.182453
765 4 0.399014 0.21015 0.18797
520 2 0.475589 0.218045 0.214867
521 4 0.451527 0.211272 0.214302
394 2 0.0267038 0.248272 0.232288
396 4 0.0263724 0.240824 0.256154
370 2 0.147279 0.253198 0.213642
372 4 0.127006 0.26782 0.214236
748 2 0.0942456 0.289333 0.249326
361 2 0.0957391 0.253409 0.19489
362 4 0.107217 0.26486 0.213925
749 4 0.101729 0.274113 0.230954
279 4 0.219915 0.251107 0.173708
345 4 0.229232 0.305545 0.238631
610 2 0.266306 0.333982 0.171791
343 2 0.250701 0.292865 0.236772
344 4 0.272171 0.280185 0.234912
307 2 0.309631 0.281315 0.238384
309 4 0.296294 0.291174 0.257095
308 4 0.322967 0.271455 0.219673
526 2 0.483109 0.262457 0.173983
646 2 0.0758902 0.351686 0.170223
263 4 0.0510908 0.398207 0.25838
262 2 0.0389417 0.407696 0.238694
648 4 0.0921987 0.337751 0.183069
300 4 0.103368 0.328649 0.240435
298 2 0.122022 0.344927 0.243932
416 4 0.175502 0.413831 0.217049
611 4 0.27017 0.348424 0.191833
303 4 0.327578 0.367204 0.209139
301 2 0.324019 0.376726 0.186296
729 4 0.315214 0.375237 0.222736
727 2 0.331915 0.382135 0.240018
595 2 0.474188 0.386551 0.175202
597 4 0.458422 0.371159 0.187021
643 2 0.432133 0.375486 0.213333
644 4 0.420154 0.366924 0.233541
645 4 0.444111 0.384049 0.193124
447 4 0.434578 0.364651 0.247575
1756 2 0.0738436 0.501481 0.242432
264 4 0.0267925 0.417185 0.219008
417 4 0.141232 0.408215 0.181067
415 2 0.158367 0.411023 0.199058
291 4 0.192613 0.422974 0.224139
290 4 0.239488 0.440292 0.226036
289 2 0.216051 0.431633 0.225087
768 4 0.255823 0.44633 0.216734
766 2 0.257882 0.46037 0.196148
767 4 0.259941 0.474411 0.175561
1574 4 0.334118 0.502761 0.218252
660 4 0.392784 0.466338 0.16878
1568 4 0.486873 0.490496 0.206069
232 2 0.0234667 0.0414476 0.290471
233 4 0.0394357 0.0230015 0.285001
1402 2 0.0805251 0.0280199 0.281702
234 4 0.00749773 0.0598936 0.29594
1404 4 0.0569239 0.0303991 0.289608
675 4 0.117088 0.0392063 0.267648
1403 4 0.104126 0.0256407 0.273796
1464 4 0.108353 0.00892102 0.283334
606 4 0.162497 0.0773069 0.32018
690 4 0.185013 0.00595565 0.253981
1701 4 0.225461 0.0310761 0.314697
1699 2 0.248343 0.0383274 0.321698
1700 4 0.271225 0.0455787 0.328698
1748 4 0.451711 0.0140793 0.242876
478 2 0.487772 0.045641 0.314301
480 4 0.481249 0.0680508 0.305333
351 4 0.469179 0.0641643 0.290146
349 2 0.4458 0.069779 0.283283
350 4 0.422421 0.0753936 0.276421
531 4 0.0129221 0.16266 0.254428
731 4 0.139142 0.0975968 0.30959
730 2 0.121867 0.100217 0.327475
546 4 0.162206 0.159025 0.268177
732 4 0.104592 0.102836 0.345361
721 2 0.199011 0.104049 0.25277
248 4 0.231841 0.0965842 0.325284
722 4 0.199173 0.122101 0.27007
249 4 0.211213 0.119697 0.286028
247 2 0.221527 0.10814 0.305656
403 2 0.219564 0.161826 0.28441
404 4 0.218383 0.137473 0.289952
29 3 0.312161 0.116515 0.262201
632 4 0.38103 0.104824 0.27709
631 2 0.36575 0.122268 0.28644
633 4 0.35047 0.139712 0.29579
331 2 0.43948 0.154086 0.251992
332 4 0.463695 0.152704 0.258065
513 4 0.0491437 0.177372 0.249118
443 4 0.00845228 0.247732 0.263015
393 4 0.0863278 0.195166 0.261887
392 4 0.128678 0.179059 0.283047
391 2 0.107503 0.187113 0.272467
544 2 0.16443 0.182339 0.276935
545 4 0.166654 0.205653 0.285692
405 4 0.220745 0.186179 0.278867
707 4 0.337017 0.181695 0.301968
706 2 0.335768 0.172211 0.325069
420 4 0.406621 0.223003 0.311287
762 4 0.470025 0.166886 0.269635
418 2 0.429147 0.22468 0.32201
761 4 0.493246 0.203621 0.294375
760 2 0.481635 0.185254 0.282005
750 4 0.0867619 0.304552 0.267698
390 4 0.108632 0.265964 0.317945
400 2 0.188992 0.288211 0.300896
402 4 0.209097 0.296677 0.313113
401 4 0.168886 0.279745 0.288678
510 4 0.234906 0.325833 0.311281
508 2 0.23179 0.335183 0.33426
496 2 0.308873 0.301227 0.306438
497 4 0.299899 0.28769 0.325448
498 4 0.317846 0.314764 0.287427
543 4 0.399978 0.307953 0.302403
615 4 0.385881 0.315946 0.313704
613 2 0.365262 0.326652 0.322944
541 2 0.422676 0.300641 0.30992
542 4 0.445374 0.293329 0.317437
366 4 0.995306 0.359346 0.290365
364 2 0.0153536 0.350608 0.302486
365 4 0.0354012 0.34187 0.314607
602 4 0.0560818 0.392812 0.313317
601 2 0.0725301 0.381487 0.298271
603 4 0.0889785 0.370162 0.283225
549 4 0.0701116 0.404062 0.321618
299 4 0.140676 0.361205 0.247429
734 4 0.154866 0.353374 0.25733
733 2 0.167684 0.3601 0.277717
677 4 0.190976 0.367356 0.315409
735 4 0.180503 0.366826 0.298104
433 2 0.321759 0.371689 0.320795
435 4 0.304887 0.38702 0.310525
434 4 0.338632 0.356358 0.331064
728 4 0.348615 0.389034 0.2573
614 4 0.344642 0.337359 0.332184
445 2 0.450631 0.367415 0.266544
446 4 0.466684 0.370179 0.285514
1757 4 0.0517464 0.491462 0.248475
777 4 0.0836889 0.47098 0.300605
775 2 0.0831172 0.478632 0.324402
414 4 0.19219 0.487169 0.281514
412 2 0.194535 0.465861 0.294385
413 4 0.196881 0.444553 0.307255
436 2 0.318022 0.463453 0.293784
437 4 0.31578 0.450111 0.272756
438 4 0.320264 0.476794 0.314811
231 4 0.388057 0.503396 0.272208
2861 4 0.497455 0.481637 0.268323
119 3 0.495025 0.437258 0.321323
713 4 0.441809 0.472251 0.297151
712 2 0.459461 0.459459 0.309395
714 4 0.477114 0.446667 0.32164
316 2 0.0408892 0.0668598 0.34685
317 4 0.0201894 0.0543534 0.353197
318 4 0.0615891 0.0793662 0.340503
428 4 0.076781 0.0428741 0.375008
429 4 0.119793 0.0331343 0.351433
427 2 0.0982872 0.0380042 0.363221
604 2 0.178694 0.0709205 0.338125
605 4 0.194892 0.0645341 0.35607
683 4 0.296542 0.0411154 0.383905
682 2 0.292316 0.0620494 0.396908
684 4 0.288091 0.0829833 0.409912
699 4 0.349835 0.0626004 0.343859
257 4 0.412667 0.0361055 0.35468
698 4 0.393747 0.0404174 0.352823
697 2 0.371791 0.0515089 0.348341
426 4 0.407135 0.0242452 0.412818
256 2 0.430983 0.053066 0.353247
258 4 0.449299 0.0700265 0.351813
398 4 0.0393733 0.119323 0.350807
397 2 0.0639423 0.11673 0.346958
458 4 0.0114515 0.128428 0.417123
399 4 0.0885112 0.114136 0.343108
600 4 0.209453 0.147785 0.350942
598 2 0.193601 0.135762 0.366085
599 4 0.177749 0.123739 0.381229
320 4 0.289015 0.102843 0.405556
452 4 0.4941 0.126808 0.395783
451 2 0.471224 0.136833 0.396952
453 4 0.448348 0.146858 0.398121
514 2 0.422945 0.160091 0.406455
515 4 0.432007 0.146669 0.387405
260 4 0.0854123 0.203727 0.404079
474 4 0.228248 0.213481 0.380993
274 2 0.20269 0.247371 0.36458
276 4 0.2187 0.229753 0.372225
472 2 0.236844 0.192959 0.369586
473 4 0.245439 0.172436 0.358179
708 4 0.334519 0.162727 0.348171
715 2 0.376666 0.204903 0.370693
716 4 0.367115 0.189567 0.387977
717 4 0.386218 0.220239 0.353408
467 4 0.377133 0.17882 0.400794
466 2 0.362708 0.182893 0.420807
419 4 0.451672 0.226356 0.332733
618 4 0.0566452 0.338245 0.379799
347 4 0.043174 0.324895 0.382392
346 2 0.044181 0.306968 0.399792
348 4 0.0451881 0.289041 0.417193
389 4 0.112696 0.243881 0.362628
388 2 0.110664 0.254922 0.340287
275 4 0.186679 0.264988 0.356935
373 2 0.191423 0.330724 0.389369
374 4 0.206094 0.313605 0.40018
375 4 0.176753 0.347844 0.378559
376 2 0.293493 0.282368 0.363261
377 4 0.307612 0.280835 0.342682
378 4 0.279375 0.283902 0.38384
269 4 0.487021 0.267683 0.388648
268 2 0.473976 0.255602 0.406228
616 2 0.0670427 0.34358 0.357695
617 4 0.0774401 0.348914 0.33559
547 2 0.0649238 0.411291 0.344985
678 4 0.172437 0.355677 0.36036
676 2 0.181707 0.361516 0.337884
509 4 0.228673 0.344532 0.35724
336 4 0.353916 0.361895 0.383094
334 2 0.35699 0.3645 0.407771
561 4 0.481169 0.382369 0.379364
752 4 0.470396 0.398563 0.384173
559 2 0.497372 0.38696 0.397845
548 4 0.0597359 0.41852 0.368351
2463 4 0.98819 0.463197 0.349188
407 4 0.0784911 0.416327 0.375807
776 4 0.0825455 0.486285 0.348199
406 2 0.0800387 0.421398 0.400242
499 2 0.103105 0.501761 0.374699
500 4 0.0949686 0.481879 0.361906
568 2 0.156797 0.490978 0.415353
1555 2 0.248583 0.490892 0.415675
503 4 0.268667 0.412964 0.420655
5 3 0.305401 0.498498 0.351173
1 1 0.324929 0.48686 0.352537
4 3 0.324786 0.473338 0.371393
3 3 0.327761 0.473887 0.333508
594 4 0.397694 0.458551 0.350913
592 2 0.407849 0.478909 0.361286
593 4 0.418003 0.499267 0.37166
751 2 0.450868 0.411143 0.37492
753 4 0.431341 0.423723 0.365668
2237 4 0.0391411 0.0136063 0.491201
718 2 0.0394685 0.0557054 0.486718
720 4 0.045023 0.0314191 0.484597
2236 2 0.0181151 0.00144021 0.497123
367 2 0.120452 0.0295205 0.445315
369 4 0.137796 0.0452635 0.454062
368 4 0.103107 0.0137775 0.436568
341 4 0.206538 0.0369812 0.495085
340 2 0.198256 0.0586253 0.504472
441 4 0.275987 0.0259161 0.441339
439 2 0.285212 0.0120828 0.422665
962 4 0.284947 0.0258028 0.459131
961 2 0.292095 0.037727 0.479913
424 2 0.393109 0.0299335 0.43272
425 4 0.379083 0.0356218 0.452622
457 2 0.0162169 0.152009 0.423935
471 4 0.0210794 0.157525 0.475739
685 2 0.154426 0.182995 0.430196
686 4 0.170658 0.164452 0.425972
342 4 0.189974 0.0802694 0.513859
1181 4 0.272338 0.0889048 0.48529
1182 4 0.265302 0.136214 0.470693
726 4 0.330612 0.0828105 0.432438
1180 2 0.26882 0.112559 0.477992
321 4 0.286326 0.140395 0.43847
319 2 0.28767 0.121619 0.422013
724 2 0.355489 0.084861 0.43388
725 4 0.380367 0.0869114 0.435322
642 4 0.48521 0.0948349 0.490927
2880 4 0.496165 0.0803536 0.481689
459 4 0.0209823 0.17559 0.430748
469 2 0.0259492 0.181753 0.471931
470 4 0.030819 0.20598 0.468123
687 4 0.138193 0.201539 0.434419
261 4 0.119519 0.193094 0.43907
259 2 0.102466 0.19841 0.421575
1035 4 0.119975 0.199414 0.458524
1033 2 0.119208 0.191342 0.482176
695 4 0.0976004 0.23394 0.456883
488 4 0.259175 0.21578 0.428467
487 2 0.271457 0.232759 0.442107
489 4 0.283739 0.249737 0.455748
411 4 0.31394 0.223686 0.467032
409 2 0.333087 0.207806 0.464513
574 2 0.400054 0.168078 0.463459
576 4 0.383654 0.166082 0.482227
410 4 0.352235 0.191925 0.461993
516 4 0.413883 0.173512 0.425506
468 4 0.348284 0.186965 0.44082
575 4 0.416454 0.170074 0.444691
304 2 0.494827 0.191495 0.423735
305 4 0.479115 0.204792 0.43793
2845 2 0.0111912 0.336186 0.479444
326 4 0.0912591 0.315351 0.445991
694 2 0.104217 0.250586 0.474329
696 4 0.110833 0.267231 0.491774
1260 4 0.121743 0.273671 0.50616
327 4 0.133312 0.340925 0.454837
325 2 0.112285 0.328138 0.450414
10 3 0.167723 0.324198 0.47023
651 4 0.250342 0.296282 0.490304
649 2 0.253544 0.303076 0.466455
650 4 0.256746 0.309871 0.442607
266 4 0.325332 0.286871 0.436881
267 4 0.370736 0.288528 0.457773
265 2 0.348034 0.2877 0.447327
270 4 0.460932 0.243522 0.423809
583 2 0.464756 0.266208 0.464279
584 4 0.486974 0.265885 0.475743
585 4 0.442537 0.26653 0.452815
2846 4 0.0158504 0.349797 0.458994
681 4 0.0345444 0.406182 0.431484
6 1 0.15504 0.33626 0.484799
7 3 0.137857 0.346364 0.473318
8 3 0.167995 0.352664 0.494873
502 2 0.244327 0.408787 0.424564
711 4 0.168603 0.373359 0.455654
504 4 0.219986 0.404611 0.428473
709 2 0.190895 0.382321 0.448731
710 4 0.213187 0.391283 0.441807
772 2 0.264277 0.404633 0.483436
773 4 0.270483 0.389101 0.502022
812 4 0.33785 0.33479 0.498234
238 2 0.379243 0.385025 0.458714
240 4 0.373165 0.381503 0.434717
335 4 0.360064 0.367106 0.432448
239 4 0.38532 0.388547 0.48271
680 4 0.0287135 0.45544 0.425129
1381 2 0.0233198 0.491008 0.443383
1383 4 0.0197721 0.472281 0.427199
679 2 0.031629 0.430811 0.428307
383 4 0.0777089 0.41711 0.441837
384 4 0.0721371 0.421464 0.491342
382 2 0.074923 0.419287 0.466589
408 4 0.0815864 0.426469 0.424677
569 4 0.1454 0.468928 0.412343
1557 4 0.250616 0.477194 0.436493
634 2 0.242553 0.458131 0.461233
636 4 0.240504 0.481641 0.45297
774 4 0.25807 0.420165 0.464851
669 4 0.274508 0.426465 0.455794
667 2 0.297929 0.429428 0.447557
668 4 0.32135 0.432391 0.439319
635 4 0.244603 0.434622 0.469496
588 4 0.390377 0.449947 0.436226
1401 4 0.354071 0.483402 0.441703
586 2 0.405927 0.430385 0.437074
662 4 0.467227 0.479155 0.50844
661 2 0.450596 0.461708 0.501792
587 4 0.421477 0.410824 0.437922
663 4 0.433966 0.444261 0.495144
1126 2 0.0246302 0.0516034 0.55355
1127 4 0.0294121 0.0304254 0.541148
1128 4 0.0198484 0.0727814 0.565952
719 4 0.0339139 0.0799918 0.488839
2430 4 0.212373 0.0187764 0.501539
963 4 0.299243 0.0496512 0.500695
432 4 0.307441 0.0667693 0.498752
430 2 0.323667 0.0813656 0.510952
951 4 0.267927 0.031201 0.582533
1217 4 0.392518 0.0513039 0.549115
1216 2 0.401446 0.031683 0.561784
841 2 0.374025 0.0740872 0.532848
842 4 0.39348 0.0585902 0.530296
1062 4 0.503272 0.0135296 0.542008
938 4 0.0650008 0.145765 0.576828
937 2 0.0874782 0.138346 0.568773
939 4 0.109956 0.130926 0.560717
1031 4 0.207592 0.0780726 0.572925
1030 2 0.229234 0.0905191 0.574286
1152 4 0.187273 0.0901052 0.530703
1151 4 0.192972 0.139763 0.529181
1150 2 0.190123 0.114934 0.529942
1032 4 0.250877 0.102966 0.575646
899 4 0.320414 0.144096 0.547667
843 4 0.35457 0.0895842 0.535401
431 4 0.339894 0.0959619 0.523151
641 4 0.462804 0.124246 0.524597
3159 4 0.498951 0.146408 0.554694
640 2 0.474007 0.10954 0.507762
877 2 0.0588568 0.21067 0.575748
878 4 0.0347482 0.204052 0.576145
1199 4 0.0151264 0.20439 0.580965
879 4 0.0829654 0.217288 0.575351
1034 4 0.118441 0.183269 0.505828
856 2 0.212021 0.227275 0.529858
858 4 0.216748 0.218838 0.552915
857 4 0.207294 0.235712 0.5068
898 2 0.328428 0.16662 0.540344
900 4 0.336441 0.189145 0.533021
3065 4 0.495255 0.253471 0.524022
983 4 0.0473847 0.312887 0.533246
982 2 0.0357637 0.32134 0.553708
1258 2 0.139235 0.288827 0.51562
1259 4 0.156727 0.303983 0.52508
9 3 0.146045 0.322239 0.500952
791 4 0.299709 0.257079 0.579549
813 4 0.342876 0.300822 0.534588
872 4 0.39095 0.250929 0.532592
811 2 0.340363 0.317806 0.516411
871 2 0.375452 0.270549 0.532357
873 4 0.359955 0.290169 0.532123
3354 4 0.991521 0.346568 0.556552
1189 2 0.221587 0.374624 0.564725
1190 4 0.232111 0.378675 0.542408
803 4 0.243931 0.367576 0.53008
802 2 0.265341 0.358093 0.521314
804 4 0.286751 0.348609 0.512547
928 2 0.332852 0.370673 0.569338
929 4 0.334776 0.376329 0.545059
925 2 0.441804 0.375269 0.543534
927 4 0.454427 0.384834 0.562883
926 4 0.429182 0.365705 0.524185
3309 4 0.491247 0.383589 0.508652
539 4 0.0810349 0.469718 0.498202
538 2 0.098833 0.486054 0.491757
1161 4 0.161536 0.477644 0.55084
1159 2 0.155276 0.47279 0.574555
1171 2 0.228836 0.443226 0.567216
1173 4 0.214752 0.460286 0.578867
1172 4 0.242921 0.426166 0.555564
882 4 0.33922 0.457842 0.507969
880 2 0.342579 0.48021 0.497314
881 4 0.345939 0.502579 0.486658
1952 4 0.337393 0.477379 0.599293
1911 4 0.438194 0.490404 0.548697
1000 2 0.436547 0.452961 0.580024
1001 4 0.459617 0.449355 0.571082
1332 4 0.474967 0.489078 0.492481
2319 4 0.0485728 0.972567 0.665233
1058 4 0.136593 0.0635185 0.593398
823 2 0.147815 0.00712977 0.646644
824 4 0.159202 0.985291 0.64233
1284 4 0.197862 0.0724958 0.636312
949 2 0.287013 0.0287343 0.598496
950 4 0.306099 0.0262677 0.614459
1218 4 0.410373 0.0120621 0.574453
809 4 0.453669 0.0848456 0.604355
808 2 0.450461 0.0874596 0.629014
1082 4 0.0488467 0.0933064 0.648328
1083 4 0.0279322 0.107911 0.605316
1081 2 0.0383894 0.100609 0.626822
1057 2 0.143274 0.0875397 0.59152
1059 4 0.149955 0.111561 0.589643
1153 2 0.162134 0.148532 0.596575
1155 4 0.146536 0.129047 0.598068
1283 4 0.177364 0.118092 0.637556
1282 2 0.187613 0.0952937 0.636934
810 4 0.447254 0.0900736 0.653673
852 4 0.0451094 0.196424 0.673279
1272 4 0.0952187 0.232677 0.578503
1270 2 0.119274 0.227924 0.583394
1271 4 0.14333 0.223171 0.588285
1154 4 0.177731 0.168018 0.595082
797 4 0.250692 0.235768 0.594806
1221 4 0.188772 0.182283 0.587607
1210 2 0.235775 0.179427 0.649329
1212 4 0.216688 0.182886 0.633552
1219 2 0.196681 0.19019 0.60997
1220 4 0.20459 0.198097 0.632334
796 2 0.228081 0.244026 0.601569
1211 4 0.254861 0.175967 0.665106
906 4 0.475345 0.253782 0.588055
904 2 0.487047 0.231868 0.590892
905 4 0.498749 0.209955 0.593728
1244 4 0.0516433 0.260707 0.597073
1243 2 0.0348687 0.273753 0.610248
1245 4 0.0180941 0.286799 0.623424
1136 4 0.103925 0.33377 0.598496
948 4 0.153793 0.277407 0.609967
798 4 0.205471 0.252284 0.608333
947 4 0.195938 0.25489 0.624715
946 2 0.174866 0.266148 0.617341
792 4 0.288225 0.299048 0.604197
790 2 0.293967 0.278063 0.591873
1238 4 0.303937 0.305751 0.592072
1237 2 0.313028 0.327862 0.599396
954 4 0.416245 0.287179 0.613807
952 2 0.437005 0.295308 0.602488
953 4 0.457765 0.303437 0.591169
984 4 0.0241427 0.329793 0.574169
1040 4 0.0762189 0.405486 0.604223
1039 2 0.0533221 0.397374 0.61015
1041 4 0.0304252 0.389263 0.616076
3264 4 0.012581 0.38541 0.608355
3262 2 0.00434498 0.374185 0.629124
993 4 0.0906638 0.408565 0.617464
1137 4 0.149411 0.353964 0.603389
897 4 0.149607 0.373336 0.606405
1135 2 0.126668 0.343867 0.600942
991 2 0.110767 0.394983 0.611417
992 4 0.130871 0.381402 0.60537
1191 4 0.211064 0.370574 0.587041
896 4 0.199602 0.374424 0.606222
895 2 0.174604 0.37388 0.606314
1239 4 0.322119 0.349972 0.60672
806 4 0.331619 0.327851 0.658494
1029 4 0.241752 0.363102 0.665947
930 4 0.330927 0.365017 0.593618
1204 2 0.402909 0.380463 0.641797
1206 4 0.380634 0.390012 0.635647
1205 4 0.425184 0.370914 0.647947
1160 4 0.149017 0.467937 0.598271
1187 4 0.206931 0.476328 0.587929
1186 2 0.216532 0.496698 0.598792
889 2 0.317077 0.474375 0.629609
891 4 0.294781 0.469083 0.639611
1002 4 0.413477 0.456567 0.588966
890 4 0.339373 0.479667 0.619607
1269 4 0.442128 0.454777 0.652889
1267 2 0.454582 0.473947 0.663016
1268 4 0.467036 0.493118 0.673142
944 4 0.0489272 0.0720928 0.675379
943 2 0.0482264 0.0500069 0.68708
945 4 0.0475256 0.027921 0.69878
1076 4 0.0561845 0.0892073 0.667086
825 4 0.136428 0.0289681 0.650958
1147 2 0.209635 0.0637048 0.731805
1149 4 0.226837 0.0480349 0.740955
1148 4 0.192433 0.0793747 0.722655
1004 4 0.374253 0.0544248 0.668188
1003 2 0.357 0.0688786 0.679079
1163 4 0.466282 0.0445579 0.682923
1162 2 0.490923 0.0454758 0.678781
42 3 0.435163 0.0711424 0.695582
2320 2 0.485308 0.019614 0.738662
2322 4 0.474878 0.041922 0.742993
862 2 0.0433116 0.118042 0.737165
864 4 0.046479 0.111514 0.713237
1075 2 0.0603913 0.104542 0.686382
1077 4 0.0645981 0.119877 0.705678
908 4 0.161934 0.147727 0.701031
1227 4 0.175049 0.131713 0.701163
1225 2 0.186071 0.114024 0.714975
1226 4 0.197094 0.0963345 0.728788
1005 4 0.339747 0.0833324 0.689969
829 2 0.32511 0.157127 0.725139
830 4 0.308571 0.164 0.707693
831 4 0.341649 0.150253 0.742586
45 3 0.436685 0.0967326 0.668458
43 3 0.436007 0.107648 0.704487
41 1 0.443662 0.0916438 0.689531
1142 4 0.457347 0.191802 0.72015
44 3 0.466835 0.0906435 0.690173
3425 4 0.486427 0.127137 0.68434
851 4 0.0336638 0.17813 0.718391
850 2 0.0393866 0.187277 0.695835
1107 4 0.0545411 0.17371 0.720948
1178 4 0.00789525 0.225813 0.706981
1213 2 0.002825 0.221638 0.743182
1105 2 0.0638503 0.177523 0.743839
1177 2 0.0196098 0.246347 0.698839
909 4 0.147688 0.185707 0.671785
907 2 0.154811 0.166717 0.686408
1207 2 0.12066 0.248625 0.681326
1208 4 0.0985906 0.237189 0.678621
886 2 0.291879 0.182998 0.684198
888 4 0.272332 0.184494 0.668679
887 4 0.311426 0.181503 0.699718
1194 4 0.328465 0.1817 0.688031
976 2 0.293632 0.198411 0.744787
978 4 0.282998 0.176033 0.741422
1193 4 0.364066 0.199629 0.657834
1192 2 0.346266 0.190664 0.672932
1143 4 0.414091 0.182327 0.743384
1262 4 0.40686 0.240577 0.750053
1025 4 0.424563 0.212705 0.662342
1024 2 0.43695 0.203069 0.681808
1141 2 0.435719 0.187064 0.731767
1026 4 0.449337 0.193433 0.701273
1261 2 0.430201 0.241614 0.741147
1263 4 0.453541 0.242651 0.732242
1145 4 0.503203 0.195436 0.707131
1179 4 0.0313243 0.266882 0.690698
1209 4 0.14273 0.260062 0.684031
821 4 0.154256 0.307976 0.708527
820 2 0.17307 0.291581 0.710083
1065 4 0.238359 0.262501 0.692201
1063 2 0.255501 0.278579 0.683667
822 4 0.191884 0.275186 0.711639
1064 4 0.272643 0.294657 0.675133
807 4 0.3202 0.314569 0.705334
805 2 0.32591 0.32121 0.681914
3121 2 0.501143 0.26596 0.691587
3123 4 0.478836 0.277236 0.69093
892 2 0.0478237 0.37297 0.703723
893 4 0.0339093 0.355318 0.714676
894 4 0.0617381 0.390623 0.69277
1280 4 0.0690346 0.408607 0.689416
940 2 0.134737 0.376127 0.742093
941 4 0.157941 0.382486 0.735287
942 4 0.111533 0.369768 0.748898
815 4 0.0989522 0.384742 0.750347
1067 4 0.177064 0.380129 0.738195
1028 4 0.202361 0.391891 0.676912
1066 2 0.188975 0.387253 0.717397
1068 4 0.200886 0.394378 0.696599
1027 2 0.222056 0.377496 0.671429
1981 2 0.0455418 0.473001 0.733943
1281 4 0.0697308 0.441414 0.727151
1279 2 0.0693827 0.425011 0.708284
1983 4 0.0625136 0.455632 0.739898
1982 4 0.0285699 0.490369 0.727987
1139 4 0.286341 0.452049 0.736577
1138 2 0.28291 0.436338 0.71743
1140 4 0.279478 0.420628 0.698284
1987 2 0.323127 0.482128 0.728107
1988 4 0.307491 0.478337 0.747247
1228 2 0.364498 0.463135 0.682246
1229 4 0.349377 0.473226 0.699412
1230 4 0.379619 0.453043 0.665079
1989 4 0.338763 0.485919 0.708967
1100 4 0.422943 0.444507 0.683456
1099 2 0.434287 0.443091 0.705693
1101 4 0.445631 0.441674 0.72793
1250 4 0.470468 0.471267 0.763549
2168 4 0.483927 0.502064 0.671189
1201 2 0.122467 0.0608836 0.763629
1202 4 0.130123 0.0372143 0.761112
2049 4 0.130389 0.0311803 0.780034
2047 2 0.13238 0.00670817 0.775309
1203 4 0.114811 0.0845529 0.766145
1256 4 0.303296 0.0823156 0.793677
1050 4 0.326306 0.0115613 0.767532
1113 4 0.422057 0.0382268 0.812746
975 4 0.355945 0.0155739 0.842363
1112 4 0.451958 0.0708673 0.789481
846 4 0.492942 0.0773465 0.748422
844 2 0.481739 0.0691428 0.769215
1111 2 0.437008 0.054547 0.801113
845 4 0.470536 0.0609391 0.790009
911 4 0.0732291 0.0909144 0.799681
863 4 0.0401442 0.12457 0.761092
832 2 0.0145806 0.108128 0.784014
833 4 0.0345236 0.106793 0.768992
910 2 0.0794376 0.0911432 0.8239
1106 4 0.0731595 0.181336 0.76673
34 3 0.123166 0.133213 0.824117
31 1 0.125244 0.155456 0.830388
839 4 0.214272 0.115849 0.834002
1255 2 0.279655 0.0873853 0.787309
1257 4 0.256013 0.092455 0.78094
1086 4 0.333124 0.142476 0.786136
1084 2 0.336194 0.134052 0.809477
1085 4 0.339264 0.125628 0.832818
819 4 0.355496 0.115104 0.834608
1214 4 0.0109455 0.223204 0.766778
33 3 0.125243 0.169026 0.811566
1073 4 0.114704 0.212929 0.757813
1072 2 0.125022 0.228905 0.774045
1074 4 0.135339 0.244882 0.790277
1130 4 0.180306 0.179647 0.742995