ITEM: TIMESTEP
2230000
ITEM: NUMBER OF ATOMS
4590
ITEM: BOX BOUNDS pp pp pp
-9.9985700000000008e+00 9.9985700000000008e+00
-9.9985700000000008e+00 9.9985700000000008e+00
-9.9985700000000008e+00 9.9985700000000008e+00
ITEM: ATOMS id type xs ys zs
1666 2 0.0187121 0.0786033 0.0571889
1668 4 0.010712 0.0552714 0.0612876
2974 2 0.467236 0.0147987 0.00704167
2976 4 0.481991 0.996109 0.0146687
745 2 0.445367 0.0739946 0.0132
747 4 0.448818 0.0496563 0.00862695
1667 4 0.0267123 0.101935 0.0530902
701 4 0.0379613 0.107967 0.0687603
700 2 0.0560611 0.121885 0.0789513
566 4 0.17094 0.157064 0.0243043
565 2 0.193798 0.162823 0.0159685
297 4 0.317753 0.108227 0.0171289
295 2 0.339594 0.110388 0.00515057
558 4 0.425619 0.10357 0.00813028
746 4 0.441915 0.0983329 0.0177731
555 4 0.044604 0.233322 0.0121347
567 4 0.216657 0.168582 0.00763272
573 4 0.240775 0.267655 0.0471897
770 4 0.397476 0.198074 0.0138352
359 4 0.378262 0.198375 0.0171932
358 2 0.360482 0.193613 0.000270671
664 2 0.391236 0.214671 0.0427056
665 4 0.389993 0.192347 0.0315138
666 4 0.39248 0.236996 0.0538973
623 4 0.384706 0.246229 0.0696958
769 2 0.414392 0.184054 0.00189954
2807 4 0.00558865 0.272219 0.0788291
2835 4 0.99865 0.2561 0.0856651
292 2 0.125407 0.279197 0.0496532
507 4 0.157982 0.297891 0.0613134
293 4 0.146171 0.29268 0.0461495
294 4 0.104644 0.265714 0.0531569
287 4 0.163979 0.300582 0.0431386
286 2 0.17684 0.304343 0.0220285
505 2 0.175255 0.296538 0.0793411
481 2 0.227311 0.273684 0.076876
482 4 0.244825 0.26011 0.0652922
288 4 0.1897 0.308105 0.000918378
571 2 0.262386 0.270303 0.034896
572 4 0.283997 0.272952 0.0226022
357 4 0.299777 0.268314 0.00979924
355 2 0.31254 0.286591 0.998476
323 4 0.397607 0.255284 0.0574801
1069 2 0.40219 0.326903 0.0261961
322 2 0.40388 0.274486 0.0427456
955 2 0.346972 0.330288 0.00977929
324 4 0.410154 0.293688 0.0280112
1070 4 0.421358 0.310851 0.0264871
280 2 0.446427 0.3109 0.0577205
281 4 0.453219 0.314767 0.0814713
282 4 0.439636 0.307033 0.0339696
550 2 0.119612 0.334876 0.0834951
455 4 0.126705 0.349881 0.0446021
552 4 0.128694 0.337787 0.0603815
454 2 0.144008 0.351817 0.0266565
456 4 0.161311 0.353754 0.00871086
1290 4 0.275313 0.398394 0.0216933
250 2 0.273882 0.411593 0.0594657
1288 2 0.277589 0.379711 0.00523368
1071 4 0.383022 0.342956 0.0259051
741 4 0.37396 0.346614 0.0422746
739 2 0.374576 0.349175 0.0671391
957 4 0.364409 0.338394 0.0257608
1788 4 0.0730145 0.48626 0.0149072
1786 2 0.0934042 0.499757 0.0201287
626 4 0.234592 0.493276 0.077388
625 2 0.21278 0.5003 0.0673839
245 4 0.240876 0.474507 0.0734969
244 2 0.251239 0.461387 0.0549051
251 4 0.272619 0.414003 0.0346106
246 4 0.261601 0.448267 0.0363132
272 4 0.262275 0.430155 0.0301209
271 2 0.274512 0.440365 0.0108547
1672 2 0.407347 0.446898 0.0645181
853 2 0.399717 0.437244 0.00538021
1674 4 0.412499 0.452663 0.0407398
854 4 0.414577 0.443566 0.0244686
563 4 0.474714 0.475368 0.0389669
562 2 0.452156 0.465145 0.0355299
564 4 0.429598 0.454922 0.0320928
228 4 0.492384 0.465758 0.0353645
18 3 0.0739046 0.0105662 0.164922
19 3 0.0733109 0.0470615 0.154331
491 4 0.248744 0.0702787 0.0741089
1474 2 0.278668 0.00374569 0.092006
1475 4 0.271882 0.0255524 0.102184
492 4 0.279033 0.0438356 0.103842
490 2 0.263889 0.0570571 0.0889755
581 4 0.294803 0.0899708 0.136167
486 4 0.394064 0.0436823 0.0877652
484 2 0.411052 0.040887 0.105897
485 4 0.428039 0.0380916 0.12403
2722 2 0.482001 0.0620192 0.135513
2724 4 0.482125 0.0375655 0.140727
1759 2 0.494935 0.0109496 0.116917
2744 4 0.492543 0.0248027 0.150262
2723 4 0.481878 0.0864728 0.1303
702 4 0.0741609 0.135803 0.0891424
476 4 0.0857319 0.144079 0.103371
475 2 0.0880315 0.162601 0.12001
477 4 0.0903312 0.181122 0.136648
737 4 0.207743 0.15705 0.101566
237 4 0.242934 0.0979201 0.15508
582 4 0.256591 0.114208 0.157454
580 2 0.275697 0.102089 0.146811
628 2 0.379044 0.155521 0.159147
2833 2 0.00906762 0.237112 0.0981599
2625 4 0.0039083 0.206826 0.114903
2834 4 0.0194849 0.218124 0.110655
738 4 0.241982 0.193498 0.101654
736 2 0.224863 0.175274 0.10161
460 2 0.316833 0.238642 0.106388
461 4 0.292384 0.237771 0.101223
354 4 0.27481 0.248432 0.107617
352 2 0.268422 0.252112 0.131509
630 4 0.375185 0.179531 0.153331
254 4 0.366902 0.18439 0.136277
462 4 0.341281 0.239513 0.111554
255 4 0.351375 0.230374 0.124234
253 2 0.359138 0.207382 0.130256
765 4 0.349287 0.249146 0.127686
624 4 0.359701 0.243756 0.112932
622 2 0.372204 0.244993 0.0913139
339 4 0.0385308 0.249279 0.131155
337 2 0.0409799 0.251051 0.155975
657 4 0.999217 0.274301 0.0965029
551 4 0.110531 0.331965 0.106609
483 4 0.209797 0.287257 0.0884599
506 4 0.192527 0.295184 0.0973687
537 4 0.192099 0.307115 0.114497
535 2 0.192204 0.29649 0.13713
536 4 0.192309 0.285865 0.159764
353 4 0.262035 0.255792 0.155401
387 4 0.315847 0.315914 0.102878
301 2 0.316841 0.309467 0.146735
302 4 0.311628 0.317197 0.123535
763 2 0.341338 0.258111 0.149632
385 2 0.336052 0.329874 0.0981807
671 4 0.446896 0.318122 0.100112
527 4 0.462548 0.308853 0.0973407
670 2 0.425069 0.328474 0.106562
526 2 0.487218 0.307433 0.101156
647 4 0.0635933 0.345177 0.16654
289 2 0.236076 0.397654 0.152949
416 4 0.204259 0.379895 0.158115
252 4 0.275145 0.409183 0.0843208
290 4 0.252793 0.407583 0.137229
609 4 0.275302 0.414828 0.103777
493 2 0.398641 0.397334 0.0910055
495 4 0.398951 0.372524 0.0940973
386 4 0.356256 0.343835 0.0934837
12 3 0.387637 0.335387 0.1309
15 3 0.359956 0.349569 0.110271
740 4 0.375192 0.351737 0.0920035
672 4 0.403242 0.338825 0.113011
14 3 0.39574 0.355166 0.0999837
11 1 0.38111 0.353197 0.117886
13 3 0.381691 0.372499 0.130751
1791 4 0.0465364 0.488393 0.13287
1466 4 0.0600957 0.47324 0.136477
1465 2 0.0613962 0.455444 0.118961
1467 4 0.0626967 0.437649 0.101445
638 4 0.253673 0.486986 0.120136
766 2 0.251642 0.450437 0.138906
637 2 0.231857 0.499097 0.118529
768 4 0.257226 0.426298 0.142265
607 2 0.299386 0.420566 0.107265
767 4 0.246057 0.474577 0.135546
608 4 0.323471 0.426305 0.110753
494 4 0.398331 0.422143 0.0879138
660 4 0.38641 0.433361 0.0978929
1673 4 0.402195 0.441134 0.0882963
659 4 0.338271 0.439824 0.109792
658 2 0.36234 0.436592 0.103842
1559 4 0.36413 0.491522 0.130393
524 4 0.383526 0.495957 0.134661
523 2 0.394913 0.475955 0.124893
525 4 0.4063 0.455953 0.115124
595 2 0.452017 0.411888 0.156524
596 4 0.458179 0.418861 0.133316
16 1 0.0684927 0.0321632 0.171455
17 3 0.0459695 0.0331245 0.176031
2480 4 0.0351601 0.029002 0.191643
2481 4 0.00405625 0.0680375 0.188562
2479 2 0.0196082 0.0485197 0.190103
20 3 0.0801947 0.0377834 0.190167
380 4 0.000619901 0.0849703 0.200244
578 4 0.0858881 0.052403 0.173494
577 2 0.102838 0.0704703 0.176879
689 4 0.187618 0.00735991 0.229018
1506 4 0.258381 0.00665757 0.170072
652 2 0.290431 0.0214956 0.177545
653 4 0.315136 0.0201957 0.173917
25 3 0.315322 0.0503993 0.237788
654 4 0.265726 0.0227954 0.181174
758 4 0.353945 0.0658586 0.187464
759 4 0.336327 0.0580469 0.233608
757 2 0.345136 0.0619527 0.210536
311 4 0.374508 0.0651862 0.1841
379 2 0.0149614 0.104934 0.20482
511 2 0.0450588 0.154683 0.19624
512 4 0.0267242 0.137829 0.194005
381 4 0.0293029 0.124898 0.209396
513 4 0.0633933 0.171536 0.198474
393 4 0.0814191 0.170546 0.210306
579 4 0.119787 0.0885376 0.180264
448 2 0.156888 0.0977308 0.179207
450 4 0.133122 0.100827 0.172083
449 4 0.180655 0.0946345 0.18633
235 2 0.220313 0.0967384 0.165666
236 4 0.197692 0.0955567 0.176252
28 3 0.323372 0.148058 0.227728
26 1 0.31916 0.157297 0.248592
312 4 0.386801 0.111949 0.171341
629 4 0.382904 0.131512 0.164963
310 2 0.380655 0.0885678 0.177721
521 4 0.493945 0.125385 0.215141
332 4 0.487633 0.112338 0.227609
762 4 0.478829 0.131259 0.225005
760 2 0.456593 0.131537 0.236435
761 4 0.434357 0.131815 0.247866
394 2 0.0118862 0.247774 0.227617
391 2 0.0917362 0.191985 0.202616
392 4 0.102053 0.213423 0.194927
279 4 0.228983 0.203636 0.174504
277 2 0.241637 0.225028 0.171781
278 4 0.254292 0.246421 0.169057
284 4 0.271116 0.251779 0.174671
27 3 0.320056 0.18022 0.246892
395 4 0.0285037 0.252188 0.209463
338 4 0.0434289 0.252823 0.180795
363 4 0.0431528 0.261106 0.199036
361 2 0.0556036 0.280956 0.207761
749 4 0.0552675 0.316826 0.222958
648 4 0.0668477 0.317597 0.208127
362 4 0.0680545 0.300806 0.216486
748 2 0.0661453 0.332275 0.239334
370 2 0.107777 0.309325 0.215182
372 4 0.0838692 0.306683 0.208354
371 4 0.131684 0.311968 0.222011
734 4 0.144053 0.325646 0.230816
733 2 0.160861 0.3109 0.242007
755 4 0.244121 0.261149 0.164471
754 2 0.247428 0.285086 0.170892
756 4 0.250736 0.309024 0.177313
611 4 0.244147 0.330518 0.239741
610 2 0.246739 0.327107 0.215108
612 4 0.249331 0.323695 0.190474
283 2 0.294527 0.259316 0.179179
285 4 0.317937 0.266853 0.183686
308 4 0.32438 0.284001 0.17817
303 4 0.322054 0.301737 0.169935
729 4 0.325917 0.317501 0.18141
764 4 0.33339 0.267075 0.171578
307 2 0.337096 0.288266 0.199272
309 4 0.349811 0.292532 0.220374
498 4 0.340197 0.286181 0.236617
646 2 0.0652205 0.331387 0.187334
417 4 0.163384 0.402911 0.175443
299 4 0.141208 0.336449 0.248701
291 4 0.219359 0.387725 0.16867
415 2 0.183822 0.391403 0.166779
727 2 0.31687 0.337715 0.193017
728 4 0.307823 0.357929 0.204625
446 4 0.385116 0.382955 0.250844
445 2 0.404748 0.376627 0.236711
447 4 0.424379 0.370299 0.222578
644 4 0.444533 0.371833 0.226494
643 2 0.449561 0.39134 0.211682
597 4 0.445854 0.404916 0.179731
414 4 0.206623 0.477702 0.215241
412 2 0.224571 0.469758 0.23073
645 4 0.454588 0.410847 0.19687
229 2 0.448968 0.4794 0.226756
231 4 0.460895 0.457989 0.231707
230 4 0.437041 0.50081 0.221806
427 2 0.0781895 0.0175356 0.325098
2755 2 0.0140235 0.0559648 0.328763
234 4 0.0186547 0.0335106 0.290909
232 2 0.0430836 0.0323782 0.2857
233 4 0.0675125 0.0312458 0.280492
1404 4 0.0802047 0.0164253 0.286378
317 4 0.0851171 0.0348458 0.286903
428 4 0.0880674 0.0244983 0.303209
2756 4 0.018054 0.0465226 0.305964
2478 4 0.0083051 0.0502123 0.289751
316 2 0.0942269 0.057745 0.291124
318 4 0.103337 0.0806441 0.295346
730 2 0.143479 0.083422 0.313439
731 4 0.165736 0.0797854 0.324236
732 4 0.121222 0.0870586 0.302643
606 4 0.159738 0.0650571 0.336623
693 4 0.238826 0.0587698 0.254563
691 2 0.252238 0.0709614 0.271787
24 3 0.315724 0.0716742 0.26885
21 1 0.326653 0.0549822 0.257004
22 3 0.347841 0.0622407 0.251758
23 3 0.328288 0.0358237 0.269992
349 2 0.386436 0.0681127 0.250852
351 4 0.411052 0.0638862 0.252031
350 4 0.361821 0.0723392 0.249673
480 4 0.425171 0.0494433 0.258472
479 4 0.453542 0.0272984 0.293191
478 2 0.439357 0.0383708 0.275832
2664 4 0.471803 0.0258391 0.284609
1428 4 0.465886 0.0186854 0.30059
258 4 0.458585 0.0297539 0.3139
2662 2 0.494155 0.037007 0.283689
256 2 0.441897 0.0357279 0.331535
397 2 0.0902796 0.101081 0.328121
399 4 0.104459 0.0933126 0.309049
721 2 0.267126 0.107423 0.314453
692 4 0.265649 0.083153 0.289011
30 3 0.298459 0.151113 0.255793
723 4 0.277806 0.0970732 0.294353
29 3 0.335248 0.150266 0.263763
632 4 0.369479 0.0911047 0.255391
631 2 0.356933 0.112394 0.259205
707 4 0.346203 0.145259 0.278737
633 4 0.344387 0.133683 0.263019
706 2 0.356271 0.159652 0.296531
443 4 0.00295285 0.241208 0.263464
442 2 0.0183566 0.246854 0.282332
444 4 0.0337603 0.2525 0.301201
546 4 0.136656 0.190591 0.258882
544 2 0.157687 0.201963 0.266202
545 4 0.178717 0.213335 0.273522
402 4 0.192355 0.227291 0.273012
473 4 0.215338 0.185552 0.323372
405 4 0.228463 0.171149 0.326805
708 4 0.36634 0.174045 0.314326
344 4 0.236522 0.312556 0.246598
343 2 0.214858 0.303083 0.254729
400 2 0.192213 0.252287 0.272398
401 4 0.192071 0.277283 0.271785
676 2 0.177557 0.304461 0.295637
345 4 0.193193 0.29361 0.26286
677 4 0.178151 0.293143 0.273349
735 4 0.177668 0.296154 0.253199
678 4 0.176962 0.315779 0.317924
510 4 0.192724 0.325476 0.325362
375 4 0.163593 0.305926 0.329662
378 4 0.258891 0.262482 0.311141
376 2 0.280629 0.271859 0.303097
496 2 0.324307 0.281962 0.255457
497 4 0.308418 0.277744 0.274296
377 4 0.302367 0.281237 0.295054
541 2 0.363496 0.298986 0.297573
542 4 0.381441 0.28324 0.305002
420 4 0.399852 0.278328 0.312197
543 4 0.34555 0.314732 0.290144
365 4 0.0111361 0.402363 0.309047
601 2 0.0483779 0.403717 0.324139
603 4 0.0275058 0.393101 0.315374
750 4 0.0770231 0.347724 0.25571
298 2 0.118605 0.34528 0.254723
300 4 0.0960012 0.354112 0.260745
508 2 0.208097 0.344302 0.319496
509 4 0.22347 0.363129 0.31363
433 2 0.307364 0.390293 0.324183
434 4 0.331026 0.392536 0.316421
615 4 0.354201 0.332342 0.289991
614 4 0.337115 0.374326 0.311113
613 2 0.345658 0.353334 0.300552
1757 4 0.0298619 0.440486 0.266517
1756 2 0.0475334 0.455541 0.25723
264 4 0.0202424 0.431711 0.2508
776 4 0.0752593 0.494336 0.321214
775 2 0.0691423 0.493067 0.297004
1758 4 0.065205 0.470595 0.247942
1775 4 0.0644215 0.489463 0.252461
1436 4 0.230681 0.450078 0.259321
413 4 0.24252 0.461814 0.246219
1435 2 0.244042 0.453285 0.28021
1437 4 0.257404 0.456492 0.301099
4 3 0.267981 0.446623 0.314927
436 2 0.330218 0.455091 0.334674
3 3 0.294709 0.472728 0.321896
438 4 0.305393 0.458069 0.334878
1803 4 0.371121 0.500237 0.290154
1801 2 0.368729 0.481907 0.306992
437 4 0.355043 0.452113 0.334469
1802 4 0.366337 0.463578 0.323829
712 2 0.472224 0.487068 0.333722
714 4 0.491807 0.471522 0.33363
713 4 0.452641 0.502613 0.333814
2757 4 0.00999291 0.065407 0.351561
2585 4 0.0254777 0.0759477 0.359682
429 4 0.0683116 0.0105729 0.346987
1780 2 0.122348 0.00271607 0.408201
1781 4 0.108877 0.0227191 0.414804
604 2 0.182026 0.0632311 0.347808
605 4 0.204314 0.0614051 0.358993
248 4 0.213822 0.0772119 0.36368
441 4 0.328658 0.00181008 0.398419
962 4 0.321229 0.00953636 0.415507
1701 4 0.336516 0.0146739 0.38746
425 4 0.339063 0.010174 0.408513
699 4 0.362551 0.0532483 0.345446
698 4 0.409891 0.0403073 0.335844
1699 2 0.340828 0.0293043 0.367648
1700 4 0.34514 0.0439346 0.347835
697 2 0.386221 0.0467778 0.340645
725 4 0.38076 0.0714411 0.395423
424 2 0.363015 0.0111601 0.41562
257 4 0.42521 0.041702 0.349171
398 4 0.0760998 0.108849 0.347194
2584 2 0.0444964 0.0920656 0.3616
2586 4 0.0635151 0.108183 0.363519
458 4 0.0547505 0.123751 0.372873
457 2 0.0435864 0.141188 0.386891
459 4 0.0324224 0.158626 0.400908
600 4 0.113149 0.145958 0.341486
249 4 0.243741 0.11509 0.35061
247 2 0.228782 0.096151 0.357145
404 4 0.249895 0.130637 0.346808
403 2 0.239179 0.150893 0.336806
722 4 0.256447 0.117773 0.334554
683 4 0.249208 0.126723 0.365864
682 2 0.272377 0.130164 0.374611
684 4 0.295547 0.133605 0.383359
320 4 0.310695 0.139918 0.37294
724 2 0.387932 0.0903529 0.410122
319 2 0.334902 0.145306 0.369755
321 4 0.35911 0.150694 0.36657
726 4 0.395104 0.109265 0.424822
717 4 0.410164 0.144243 0.34984
261 4 0.062681 0.20742 0.412164
260 4 0.0239375 0.178432 0.39954
259 2 0.0433093 0.192926 0.405852
598 2 0.118206 0.166975 0.354051
599 4 0.123263 0.187993 0.366617
389 4 0.128785 0.216281 0.376048
686 4 0.1214 0.198274 0.382995
685 2 0.100767 0.19971 0.397045
275 4 0.136854 0.198966 0.37572
274 2 0.1614 0.199551 0.370995
388 2 0.127254 0.240293 0.369248
474 4 0.204777 0.208552 0.366502
472 2 0.210058 0.197052 0.344937
276 4 0.185946 0.200136 0.36627
715 2 0.400779 0.161089 0.365757
716 4 0.391395 0.177935 0.381673
467 4 0.383774 0.180049 0.400398
269 4 0.408665 0.227703 0.347182
270 4 0.446969 0.209956 0.373988
452 4 0.466999 0.2084 0.37846
268 2 0.427817 0.218829 0.360585
451 2 0.468985 0.209976 0.403335
346 2 0.0517256 0.323286 0.376986
348 4 0.0269537 0.323172 0.373592
347 4 0.0764975 0.323399 0.38038
618 4 0.0866136 0.307167 0.387047
616 2 0.0981478 0.290006 0.372987
390 4 0.125722 0.264305 0.362448
617 4 0.109682 0.272846 0.358928
374 4 0.12886 0.281572 0.356143
373 2 0.146226 0.293749 0.342903
418 2 0.404524 0.263427 0.331725
419 4 0.409196 0.248527 0.351252
602 4 0.06925 0.414333 0.332904
549 4 0.0863293 0.417584 0.343355
435 4 0.283702 0.388051 0.331945
334 2 0.335595 0.365624 0.408027
238 2 0.388219 0.378168 0.396477
239 4 0.407605 0.393202 0.391646
587 4 0.406353 0.412865 0.385959
335 4 0.354385 0.34924 0.406101
240 4 0.368834 0.363133 0.401308
752 4 0.478015 0.397967 0.373926
561 4 0.480195 0.379985 0.383013
751 2 0.488304 0.41596 0.359942
559 2 0.490111 0.37884 0.405938
548 4 0.0879627 0.441161 0.387426
407 4 0.079229 0.457562 0.395368
500 4 0.0854433 0.492672 0.338072
499 2 0.0822776 0.482929 0.360881
501 4 0.0791118 0.473186 0.383689
547 2 0.087146 0.429372 0.365391
406 2 0.0900548 0.463148 0.417203
1 1 0.27921 0.45837 0.33149
5 3 0.264356 0.470229 0.344034
2 3 0.290296 0.443414 0.345
586 2 0.398539 0.435976 0.380481
593 4 0.405234 0.462711 0.361207
588 4 0.390726 0.459087 0.375003
592 2 0.419413 0.48071 0.351201
753 4 0.498593 0.433953 0.345958
117 3 0.493553 0.453422 0.348976
594 4 0.433593 0.49871 0.341194
2237 4 0.993092 0.00921393 0.464781
720 4 0.009314 0.0177865 0.456991
367 2 0.0822846 0.0343987 0.441517
369 4 0.0709646 0.0337191 0.463801
719 4 0.0537011 0.0321108 0.475028
718 2 0.0315076 0.0249486 0.46601
368 4 0.0936047 0.0350783 0.419233
341 4 0.185732 0.0128078 0.508466
961 2 0.312529 0.0265507 0.431632
963 4 0.303829 0.0435651 0.447756
432 4 0.308826 0.0614799 0.454971
430 2 0.31744 0.071392 0.476249
431 4 0.326054 0.0813041 0.497526
426 4 0.386967 0.0121461 0.422728
640 2 0.480301 0.0962249 0.439228
641 4 0.459476 0.094552 0.452965
1035 4 0.0787539 0.216847 0.421541
1033 2 0.0778084 0.232903 0.440685
1034 4 0.0768628 0.24896 0.459828
687 4 0.0801336 0.201146 0.411095
487 2 0.324009 0.249596 0.455843
466 2 0.391176 0.188091 0.422887
468 4 0.398577 0.196132 0.445375
411 4 0.352594 0.225785 0.475438
409 2 0.373833 0.213863 0.469784
410 4 0.395072 0.201942 0.46413
266 4 0.352577 0.243471 0.484572
489 4 0.339046 0.237911 0.472046
575 4 0.409833 0.200947 0.475616
516 4 0.409054 0.208577 0.456727
574 2 0.418726 0.195024 0.498222
514 2 0.433004 0.210789 0.449897
515 4 0.456955 0.213001 0.443067
453 4 0.47097 0.211552 0.428209
696 4 0.08307 0.250705 0.479476
1260 4 0.0753132 0.265112 0.46948
1258 2 0.0936721 0.282058 0.468496
1259 4 0.112031 0.299004 0.467512
9 3 0.131229 0.295803 0.451408
7 3 0.117378 0.311892 0.482423
6 1 0.132442 0.314407 0.465221
8 3 0.153779 0.316269 0.474147
327 4 0.108034 0.32335 0.464217
10 3 0.127287 0.333193 0.453424
488 4 0.308972 0.261281 0.43964
651 4 0.246977 0.260068 0.511602
1009 2 0.460394 0.300432 0.493642
1011 4 0.459561 0.321337 0.479949
2457 4 0.472615 0.264182 0.500816
2455 2 0.493743 0.251327 0.497136
326 4 0.0659742 0.350193 0.460879
325 2 0.087004 0.336771 0.462548
709 2 0.153405 0.405384 0.489166
711 4 0.134628 0.398643 0.474094
384 4 0.12522 0.412509 0.464162
503 4 0.216711 0.358936 0.503875
710 4 0.172182 0.412125 0.504238
668 4 0.309006 0.400225 0.409957
336 4 0.316805 0.382008 0.409953
560 4 0.500026 0.377696 0.428863
3309 4 0.486173 0.374281 0.441626
3307 2 0.47528 0.357148 0.456221
3308 4 0.464388 0.340016 0.470815
1381 2 0.0207665 0.484213 0.456192
1383 4 0.00653146 0.467453 0.44429
680 4 0.00921725 0.452691 0.457433
382 2 0.12142 0.435735 0.455718
408 4 0.100881 0.468734 0.439039
568 2 0.141416 0.486004 0.441207
383 4 0.117621 0.458961 0.447275
569 4 0.118705 0.475863 0.438647
1556 4 0.238161 0.498262 0.414281
1557 4 0.287919 0.493966 0.411756
634 2 0.314897 0.481476 0.427306
1555 2 0.26304 0.496114 0.413019
635 4 0.32618 0.460565 0.43509
669 4 0.316565 0.443613 0.433644
636 4 0.303614 0.502387 0.419521
667 2 0.312785 0.421919 0.4218
772 2 0.352915 0.436285 0.457376
773 4 0.373137 0.42688 0.468681
774 4 0.332693 0.445689 0.44607
663 4 0.489393 0.492372 0.435083
1152 4 0.204138 0.0602587 0.543182
342 4 0.195348 0.059272 0.524256
340 2 0.19054 0.0360399 0.516361
1150 2 0.219611 0.0794623 0.547304
949 2 0.297605 0.0323191 0.57418
951 4 0.292539 0.0566189 0.577187
1031 4 0.291681 0.0742697 0.56803
950 4 0.30267 0.00801939 0.571173
1217 4 0.401287 0.0477761 0.504846
842 4 0.386141 0.0536214 0.517471
841 2 0.363998 0.0627063 0.510238
843 4 0.341855 0.0717912 0.503005
1216 2 0.423501 0.0592439 0.5044
1218 4 0.445715 0.0707117 0.503955
1270 2 0.0691548 0.144087 0.577226
1271 4 0.0826342 0.12502 0.568284
1058 4 0.0853653 0.13558 0.504355
1057 2 0.0865528 0.127005 0.527813
1059 4 0.0877402 0.118431 0.55127
1155 4 0.101329 0.121879 0.566883
939 4 0.0903273 0.106399 0.565102
1153 2 0.12516 0.129355 0.568071
1221 4 0.156107 0.1531 0.577598
937 2 0.0888299 0.0891401 0.583132
1154 4 0.14899 0.136831 0.569258
1151 4 0.235084 0.0986658 0.551426
1180 2 0.223055 0.136349 0.557574
1181 4 0.221236 0.111414 0.557901
1182 4 0.224873 0.161284 0.557247
1032 4 0.250716 0.102746 0.564612
1030 2 0.271198 0.0885078 0.566321
1198 2 0.0124946 0.232742 0.556166
1199 4 0.0354586 0.232128 0.566038
878 4 0.0534503 0.231619 0.573298
1244 4 0.0616487 0.247153 0.580645
695 4 0.0895358 0.225536 0.522201
694 2 0.0863029 0.238121 0.500839
900 4 0.219684 0.177926 0.548259
898 2 0.239663 0.186364 0.535817
899 4 0.259642 0.194803 0.523375
650 4 0.25605 0.210891 0.511325
649 2 0.251513 0.23548 0.511464
576 4 0.427619 0.1891 0.520827
982 2 0.010685 0.302898 0.576494
983 4 0.0334039 0.299173 0.586248
856 2 0.210046 0.273944 0.533244
857 4 0.189292 0.278492 0.546425
798 4 0.204174 0.269566 0.574374
947 4 0.186786 0.27015 0.564607
946 2 0.169501 0.278961 0.580378
858 4 0.230801 0.269397 0.520062
267 4 0.36298 0.286549 0.507741
265 2 0.357779 0.26501 0.496157
1010 4 0.461226 0.279528 0.507334
502 2 0.198181 0.375709 0.504573
504 4 0.179651 0.392481 0.505271
803 4 0.272076 0.361892 0.578796
804 4 0.270959 0.379101 0.531857
802 2 0.271517 0.370496 0.555326
928 2 0.339254 0.38886 0.565819
929 4 0.361507 0.392811 0.555125
881 4 0.359372 0.372231 0.550338
880 2 0.37775 0.359125 0.539582
882 4 0.396128 0.34602 0.528827
926 4 0.424607 0.404373 0.581379
539 4 0.105289 0.429331 0.560075
540 4 0.0992916 0.475461 0.578426
2244 4 0.105791 0.492214 0.570129
538 2 0.10229 0.452396 0.56925
1160 4 0.115495 0.482566 0.584425
2154 4 0.22939 0.490164 0.554574
1953 4 0.417479 0.510634 0.543686
1909 2 0.444354 0.489863 0.572516
1081 2 0.077787 0.0681362 0.639998
938 4 0.0873324 0.071881 0.601161
1083 4 0.0739415 0.0675903 0.615298
1126 2 0.0359765 0.083243 0.601615
1082 4 0.0816325 0.0686821 0.664698
1127 4 0.0565219 0.0784294 0.615028
824 4 0.193244 0.00429103 0.665017
3007 2 0.497311 0.064633 0.584173
3008 4 0.493475 0.0487515 0.6031
809 4 0.476104 0.0408481 0.611786
808 2 0.467466 0.0521707 0.632337
810 4 0.458828 0.0634934 0.652889
45 3 0.455514 0.0853245 0.654813
1128 4 0.015431 0.0880566 0.588203
1272 4 0.0556755 0.163153 0.586167
1219 2 0.164372 0.162172 0.599383
1192 2 0.322868 0.15258 0.646819
886 2 0.266829 0.161852 0.663526
1193 4 0.339738 0.158766 0.629431
3424 2 0.485884 0.11017 0.667042
3425 4 0.467842 0.0934931 0.671683
877 2 0.0551033 0.207405 0.579306
879 4 0.0567563 0.18319 0.585314
1220 4 0.172637 0.171244 0.621167
1212 4 0.182821 0.174288 0.637479
1210 2 0.206639 0.173195 0.645007
1211 4 0.230457 0.172103 0.652536
888 4 0.247543 0.177666 0.661756
1245 4 0.038446 0.285904 0.602109
1243 2 0.0500474 0.266529 0.591377
948 4 0.152216 0.287773 0.59615
1136 4 0.160744 0.301909 0.608159
1135 2 0.155991 0.325663 0.614351
822 4 0.141555 0.318158 0.655756
820 2 0.1465 0.293745 0.657931
1064 4 0.151451 0.335796 0.661596
796 2 0.224277 0.272802 0.588885
797 4 0.244381 0.276038 0.603396
791 4 0.260256 0.284079 0.592366
790 2 0.277719 0.301881 0.590547
792 4 0.295182 0.319684 0.588729
872 4 0.326847 0.281512 0.597144
871 2 0.34875 0.292813 0.601354
813 4 0.385948 0.315832 0.611977
873 4 0.370653 0.304114 0.605563
954 4 0.484372 0.258556 0.586677
3123 4 0.482017 0.263178 0.658992
1041 4 0.0520254 0.382951 0.627265
3264 4 0.0489858 0.376373 0.645022
3240 4 0.033911 0.384759 0.632779
3238 2 0.0168711 0.397171 0.646223
1039 2 0.0715355 0.383895 0.611656
3262 2 0.0556575 0.355327 0.656757
1137 4 0.151237 0.349417 0.620542
1040 4 0.0910456 0.384839 0.596047
993 4 0.106119 0.385454 0.609077
991 2 0.128619 0.374591 0.608114
992 4 0.151119 0.363729 0.60715
897 4 0.167552 0.358494 0.615846
1189 2 0.24403 0.366295 0.604158
896 4 0.209757 0.382907 0.626957
895 2 0.188654 0.370701 0.621401
1172 4 0.225889 0.396297 0.602287
1191 4 0.223941 0.378324 0.61293
1238 4 0.297006 0.33352 0.602765
1190 4 0.264118 0.354267 0.595385
1239 4 0.325219 0.372549 0.589293
1237 2 0.311113 0.353034 0.596029
930 4 0.317001 0.384908 0.576513
806 4 0.254049 0.369989 0.660199
811 2 0.384725 0.339285 0.603397
1204 2 0.367836 0.388829 0.635388
1205 4 0.366555 0.397873 0.658664
1206 4 0.369117 0.379786 0.612112
927 4 0.388439 0.379672 0.605513
812 4 0.383501 0.362739 0.594817
925 2 0.406523 0.392023 0.593446
1002 4 0.44343 0.412556 0.582224
1159 2 0.138603 0.486049 0.593318
1161 4 0.16171 0.489532 0.602212
1188 4 0.172932 0.473364 0.609041
1171 2 0.225664 0.419323 0.61203
1186 2 0.196897 0.466938 0.612133
1173 4 0.225438 0.442349 0.621773
1187 4 0.220862 0.460513 0.615225
2172 4 0.169704 0.482731 0.652916
1911 4 0.458174 0.47529 0.587408
1001 4 0.450498 0.459934 0.596578
1000 2 0.446964 0.436245 0.589401
1269 4 0.456376 0.474522 0.606997
1267 2 0.45613 0.490119 0.626538
943 2 0.0580154 0.0273064 0.688575
944 4 0.0758825 0.0446155 0.691093
1076 4 0.0772786 0.0632233 0.683012
1075 2 0.0774923 0.0781033 0.703104
945 4 0.0401484 0.00999721 0.686057
825 4 0.171788 0.0417019 0.690331
1149 4 0.215553 0.0526844 0.708465
1283 4 0.158745 0.0560851 0.693819
823 2 0.182516 0.0229965 0.677674
1147 2 0.235698 0.0655509 0.701127
1148 4 0.255842 0.0784175 0.69379
1092 4 0.307985 0.0143853 0.681254
41 1 0.450293 0.0749902 0.674424
43 3 0.427666 0.0774939 0.678913
42 3 0.455091 0.0525605 0.67268
1163 4 0.469121 0.0624362 0.688515
1162 2 0.485138 0.0499963 0.703139
2321 4 0.497384 0.0310406 0.735185
4581 4 0.507845 0.0149972 0.738718
864 4 0.0644144 0.0890357 0.736389
1077 4 0.0777061 0.0929834 0.723197
851 4 0.0785255 0.112303 0.721188
850 2 0.070946 0.132783 0.70901
852 4 0.0633665 0.153263 0.696832
1107 4 0.0787636 0.103381 0.739206
1282 2 0.164182 0.0795431 0.700553
1284 4 0.169619 0.103001 0.707286
909 4 0.170003 0.123316 0.700921
907 2 0.190256 0.132837 0.689769
908 4 0.210508 0.142358 0.678617
1227 4 0.226568 0.134343 0.669853
1225 2 0.24031 0.114251 0.675568
1194 4 0.305999 0.146394 0.664206
887 4 0.286115 0.146038 0.665296
1226 4 0.254053 0.0941599 0.681284
829 2 0.304542 0.126496 0.69898
1005 4 0.32832 0.102432 0.718471
830 4 0.297288 0.140033 0.679249
831 4 0.311797 0.112959 0.71871
1003 2 0.335229 0.0858953 0.735906
44 3 0.462847 0.0840239 0.691721
1113 4 0.459507 0.11281 0.728227
1111 2 0.462945 0.0935776 0.743831
1025 4 0.430468 0.163416 0.673355
1072 2 0.104246 0.251842 0.745149
1130 4 0.140184 0.235137 0.738012
1208 4 0.139631 0.24251 0.720434
1074 4 0.12724 0.248808 0.735809
976 2 0.316718 0.217519 0.730822
977 4 0.299594 0.226371 0.746747
978 4 0.333842 0.208668 0.714898
1024 2 0.443069 0.175247 0.691422
1142 4 0.449617 0.181038 0.726699
1144 2 0.491609 0.179928 0.728142
1262 4 0.470476 0.197328 0.703698
1026 4 0.455669 0.187078 0.70949
1261 2 0.471868 0.220821 0.695251
1145 4 0.468777 0.188606 0.722795
1263 4 0.473259 0.244313 0.686804
1141 2 0.438035 0.178018 0.748652
1177 2 0.0212516 0.249542 0.723405
1179 4 0.0431329 0.2612 0.72017
3263 4 0.0623292 0.334281 0.668493
821 4 0.151446 0.269332 0.660106
1209 4 0.154483 0.269951 0.681356
1207 2 0.147057 0.256231 0.700895
1019 4 0.384643 0.287842 0.712762
1018 2 0.369618 0.305888 0.704176
1020 4 0.354593 0.323935 0.695589
892 2 0.0221236 0.346793 0.73252
1279 2 0.0540613 0.395233 0.741606
894 4 0.0428638 0.360663 0.734148
1280 4 0.0586439 0.370653 0.741552
816 4 0.0578607 0.35121 0.742407
814 2 0.0807704 0.341218 0.741712
815 4 0.10368 0.331226 0.741016
1063 2 0.172767 0.341331 0.673437
1065 4 0.194082 0.346866 0.685277
807 4 0.212506 0.347286 0.676307
1028 4 0.225915 0.394149 0.718152
1066 2 0.196591 0.372474 0.743342
1068 4 0.21529 0.382637 0.730219
1027 2 0.23301 0.406074 0.697352
805 2 0.233278 0.358638 0.668253
1281 4 0.0494788 0.419813 0.741659
1983 4 0.0569838 0.433304 0.73142
2016 4 0.153349 0.496643 0.729561
1176 4 0.167504 0.4881 0.718942
1981 2 0.0721212 0.446854 0.745996
1140 4 0.245971 0.437625 0.673628
1175 4 0.212225 0.477985 0.738904
1174 2 0.189864 0.483043 0.728923
1029 4 0.240105 0.417999 0.676552
1138 2 0.264009 0.454043 0.679129
1139 4 0.282048 0.47046 0.684629
1987 2 0.278581 0.454191 0.735022
1229 4 0.293556 0.466313 0.70158
1989 4 0.287996 0.470853 0.71893
2028 4 0.282813 0.479653 0.701212
1228 2 0.317633 0.46121 0.69717
1988 4 0.269166 0.43753 0.751113
2026 2 0.279628 0.504229 0.697887
1230 4 0.341709 0.456108 0.69276
1099 2 0.438228 0.498769 0.682119
1100 4 0.427076 0.484735 0.699551
2989 2 0.0275487 0.0420208 0.784247
2990 4 0.0283899 0.0667658 0.78076
2991 4 0.0267075 0.0172759 0.787734
863 4 0.025213 0.0759303 0.764536
3083 4 0.0102313 0.0723303 0.772076
2047 2 0.128833 0.00596057 0.77516
2049 4 0.112322 0.0239116 0.780667
1202 4 0.103691 0.0355616 0.793257
1201 2 0.118336 0.0558215 0.792745
1203 4 0.13298 0.0760814 0.792232
817 2 0.331658 0.0474237 0.803738
819 4 0.328865 0.0716551 0.809234
1050 4 0.341852 0.00540839 0.767545
1004 4 0.342137 0.0693582 0.753341
973 2 0.360826 0.996779 0.794977
818 4 0.334451 0.0231922 0.798241
974 4 0.339458 0.00708356 0.787078
2322 4 0.48516 0.0532418 0.778294
845 4 0.467076 0.0609245 0.774556
1112 4 0.466382 0.0743453 0.759434
844 2 0.471571 0.0719485 0.796543
2320 2 0.491272 0.0421412 0.75674
862 2 0.0448137 0.082483 0.750462
833 4 0.0208839 0.0842915 0.782036
832 2 0.0223068 0.105657 0.794945
834 4 0.0237296 0.127023 0.807854
1125 4 0.0178989 0.130167 0.827941
1105 2 0.0967658 0.101155 0.756415
1106 4 0.114768 0.0989282 0.773624
911 4 0.140548 0.0959446 0.818673
34 3 0.133096 0.0930604 0.775655
31 1 0.147614 0.0970984 0.793299
35 3 0.140954 0.115617 0.80476
32 3 0.147374 0.0789488 0.80743
33 3 0.169185 0.10008 0.785285
1256 4 0.22766 0.12341 0.806108
840 4 0.218824 0.12232 0.824928
1255 2 0.244726 0.109137 0.794699
1085 4 0.326882 0.0871467 0.798425
1257 4 0.261793 0.0948642 0.783289
1084 2 0.303799 0.0940913 0.791782
1086 4 0.280716 0.101036 0.785139
960 4 0.33606 0.0894715 0.81503
48 3 0.411945 0.157279 0.77433
47 3 0.418151 0.16194 0.811105