ITEM: TIMESTEP
290000
ITEM: NUMBER OF ATOMS
4590
ITEM: BOX BOUNDS pp pp pp
-9.9985700000000008e+00 9.9985700000000008e+00
-9.9985700000000008e+00 9.9985700000000008e+00
-9.9985700000000008e+00 9.9985700000000008e+00
ITEM: ATOMS id type xs ys zs
463 2 0.0324416 0.0685842 0.0124191
464 4 0.0441871 0.0468419 0.0162261
1667 4 0.0684702 0.028426 0.0655304
701 4 0.0815937 0.0733605 0.0680411
700 2 0.096654 0.0773423 0.0875989
534 4 0.214371 0.06318 0.0109956
490 2 0.275543 0.0692053 0.0606578
492 4 0.260929 0.0752348 0.0412864
296 4 0.373281 0.0700537 0.045403
295 2 0.360876 0.057823 0.0633385
297 4 0.34847 0.0455924 0.0812741
745 2 0.470463 0.0765494 0.0350172
747 4 0.46503 0.066514 0.0127695
2975 4 0.472173 0.0489592 0.0167127
2974 2 0.480946 0.0259941 0.012149
2976 4 0.489718 0.00302898 0.00758523
465 4 0.0206961 0.0903266 0.00861221
589 2 0.0191114 0.108719 0.0649125
590 4 0.00467415 0.124817 0.0523583
3233 4 0.999548 0.139055 0.0113104
591 4 0.0335486 0.0926217 0.0774666
422 4 0.128257 0.115898 0.00529857
421 2 0.108572 0.131289 0.00439956
423 4 0.0888869 0.146679 0.00350054
565 2 0.20633 0.129313 0.0440661
566 4 0.182154 0.128839 0.0377072
567 4 0.230507 0.129787 0.050425
358 2 0.271042 0.139343 0.0375679
359 4 0.284626 0.130132 0.0187046
360 4 0.257458 0.148553 0.0564313
557 4 0.365002 0.0814574 0.0306462
556 2 0.379504 0.101733 0.0325799
558 4 0.394007 0.122009 0.0345136
746 4 0.475895 0.0865849 0.0572649
553 2 0.0563234 0.222765 0.0224595
555 4 0.0489416 0.20498 0.00651011
554 4 0.0637051 0.24055 0.0384088
571 2 0.303276 0.246078 0.0456268
666 4 0.320109 0.194841 0.999496
572 4 0.319306 0.232502 0.0320648
354 4 0.269335 0.215674 0.091404
324 4 0.40784 0.222112 0.0450865
322 2 0.413188 0.236628 0.0647303
664 2 0.343884 0.196108 0.00713316
665 4 0.367659 0.197375 0.0147705
771 4 0.423281 0.17421 0.0490483
770 4 0.470526 0.175503 0.0653855
769 2 0.446903 0.174856 0.0572169
292 2 0.136773 0.322445 0.0145992
293 4 0.148871 0.302515 0.0236339
507 4 0.15995 0.29719 0.0409529
483 4 0.225813 0.28344 0.0542267
505 2 0.182519 0.290573 0.0494405
506 4 0.205087 0.283955 0.0579281
481 2 0.247935 0.291939 0.0462539
573 4 0.287247 0.259654 0.0591888
357 4 0.26668 0.275486 0.00981702
482 4 0.270057 0.300438 0.0382811
957 4 0.339446 0.329798 0.0169802
1071 4 0.384551 0.266547 0.0450271
1069 2 0.396513 0.275158 0.0248301
956 4 0.387876 0.32186 0.0073776
955 2 0.363661 0.325829 0.0121789
741 4 0.363605 0.328308 0.072023
1070 4 0.408476 0.28377 0.00463312
671 4 0.448334 0.317579 0.0642165
280 2 0.456756 0.314997 0.0265706
281 4 0.461222 0.309467 0.0505424
323 4 0.418535 0.251144 0.084374
282 4 0.452289 0.320527 0.00259878
330 4 0.0101313 0.390594 0.0178203
328 2 0.0199284 0.412005 0.0094076
550 2 0.0695441 0.418465 0.0493425
294 4 0.124676 0.342374 0.00556454
455 4 0.106022 0.414414 0.0747411
552 4 0.0925638 0.417379 0.0590427
287 4 0.158805 0.379788 0.0462662
288 4 0.202398 0.367136 0.0252821
286 2 0.180601 0.373462 0.0357742
252 4 0.282809 0.38517 0.0513934
250 2 0.283798 0.401301 0.032315
251 4 0.284786 0.417433 0.0132366
551 4 0.0465244 0.419551 0.0396424
329 4 0.0297256 0.433416 0.00099489
241 2 0.165442 0.486605 0.0761192
242 4 0.156948 0.480131 0.0535113
245 4 0.236872 0.446162 0.0424877
244 2 0.257463 0.452318 0.0297085
246 4 0.278054 0.458474 0.0169293
272 4 0.296242 0.464101 0.0236616
271 2 0.301792 0.488264 0.0204162
626 4 0.267499 0.426027 0.0772893
227 4 0.478133 0.462852 0.0627973
226 2 0.497416 0.475368 0.0529651
563 4 0.456131 0.492198 0.0330273
1666 2 0.0628901 0.0309818 0.089769
1668 4 0.05731 0.0335375 0.114008
19 3 0.0418662 0.0362085 0.150327
702 4 0.111714 0.0813241 0.107157
450 4 0.15718 0.0662444 0.115776
1504 2 0.24573 0.998118 0.154853
693 4 0.219752 0.0756323 0.145573
448 2 0.171321 0.0803688 0.130799
1505 4 0.230702 0.013261 0.167891
691 2 0.230008 0.0711645 0.167935
491 4 0.290157 0.0631758 0.0800293
652 2 0.304496 0.02865 0.141094
654 4 0.28699 0.0256281 0.158688
653 4 0.322003 0.0316719 0.1235
758 4 0.395607 0.0675197 0.151992
1761 4 0.447808 0.00687715 0.141691
1759 2 0.4661 0.0107209 0.158297
237 4 0.179845 0.15554 0.159561
449 4 0.185463 0.0944933 0.145822
235 2 0.18032 0.133596 0.147585
236 4 0.180796 0.111652 0.135609
582 4 0.29503 0.109542 0.136476
580 2 0.281488 0.121789 0.153558
312 4 0.408647 0.10562 0.14937
629 4 0.435446 0.158974 0.135984
310 2 0.429298 0.0993927 0.162017
337 2 0.0839992 0.24303 0.146206
476 4 0.133648 0.180248 0.106255
475 2 0.118413 0.175872 0.125593
477 4 0.103179 0.171497 0.144931
338 4 0.0953756 0.234531 0.166785
737 4 0.178446 0.189163 0.108424
736 2 0.201888 0.18828 0.0997712
738 4 0.22533 0.187396 0.0911182
461 4 0.314125 0.232059 0.0847959
284 4 0.267273 0.227876 0.1578
352 2 0.270015 0.232743 0.109663
460 2 0.330917 0.214367 0.0902928
283 2 0.278396 0.205519 0.156514
353 4 0.270694 0.249811 0.127922
278 4 0.263174 0.239785 0.142923
285 4 0.289519 0.183163 0.155228
255 4 0.356026 0.189972 0.0790345
462 4 0.347708 0.196675 0.0957897
254 4 0.402742 0.184995 0.0961689
253 2 0.379384 0.187483 0.0876017
630 4 0.413249 0.195364 0.109834
628 2 0.424347 0.177169 0.122909
339 4 0.0726228 0.25153 0.125626
535 2 0.186337 0.32943 0.157479
536 4 0.205688 0.322087 0.143451
277 2 0.24988 0.255914 0.156645
754 2 0.273779 0.288932 0.118387
755 4 0.276005 0.264185 0.11559
756 4 0.271553 0.313679 0.121185
612 4 0.271015 0.322767 0.139157
610 2 0.265525 0.327021 0.163177
622 2 0.380325 0.263555 0.131732
624 4 0.392216 0.262772 0.153713
623 4 0.368433 0.264338 0.109751
670 2 0.438804 0.325618 0.0858897
517 2 0.497692 0.261114 0.103158
518 4 0.47439 0.252053 0.103389
528 4 0.462713 0.272746 0.159781
672 4 0.429273 0.333657 0.107563
526 2 0.486991 0.267633 0.162883
621 4 0.0219154 0.359906 0.0805094
619 2 0.0160291 0.365854 0.104071
620 4 0.0101427 0.371803 0.127632
647 4 0.06457 0.340746 0.160534
454 2 0.111403 0.391968 0.0843533
646 2 0.0883062 0.34825 0.162872
456 4 0.116784 0.369522 0.0939654
648 4 0.112042 0.355754 0.16521
609 4 0.288396 0.38057 0.0779833
607 2 0.299608 0.401611 0.0855173
387 4 0.332089 0.388601 0.147826
739 2 0.361213 0.343914 0.0914115
740 4 0.358821 0.35952 0.1108
15 3 0.387898 0.366952 0.128466
385 2 0.351641 0.379821 0.13495
386 4 0.371193 0.37104 0.122073
11 1 0.405659 0.361771 0.141746
13 3 0.400957 0.367328 0.163778
12 3 0.409723 0.339165 0.140484
14 3 0.424527 0.373198 0.134548
495 4 0.444595 0.377349 0.137922
493 2 0.442202 0.402008 0.134551
315 4 0.0313302 0.432346 0.0903127
313 2 0.0118324 0.447308 0.094913
625 2 0.249783 0.441787 0.0852222
627 4 0.232066 0.457547 0.0931551
524 4 0.308149 0.492999 0.0937761
608 4 0.31082 0.422652 0.0930513
637 2 0.257755 0.497891 0.142012
523 2 0.323891 0.484072 0.111029
638 4 0.271933 0.484743 0.157865
525 4 0.339633 0.475144 0.128282
658 2 0.377878 0.44515 0.160532
659 4 0.357255 0.431942 0.155488
660 4 0.398501 0.458357 0.165576
494 4 0.439809 0.426668 0.131181
20 3 0.0649459 0.0599778 0.168216
2480 4 0.0121312 0.0487731 0.179438
16 1 0.0457297 0.0478868 0.170002
17 3 0.0281025 0.0621839 0.173747
18 3 0.0473076 0.033098 0.187813
1422 4 0.00980455 0.0317883 0.186642
1420 2 0.0148688 0.00743872 0.189217
673 2 0.129978 0.0489454 0.24476
674 4 0.140614 0.0701056 0.236741
689 4 0.199239 0.0149061 0.212376
688 2 0.197294 0.0113035 0.237042
692 4 0.240263 0.0666967 0.190297
21 1 0.368231 0.0503617 0.221381
23 3 0.374707 0.0316193 0.233431
24 3 0.350165 0.0605888 0.231746
25 3 0.362637 0.0443861 0.200129
759 4 0.379422 0.0608648 0.198837
22 3 0.385794 0.0652017 0.220705
757 2 0.387515 0.0641922 0.175415
1760 4 0.484393 0.0145647 0.174904
742 2 0.463678 0.0598558 0.227476
744 4 0.463765 0.0359646 0.220101
379 2 0.000484711 0.163001 0.178153
579 4 0.0842798 0.0880631 0.224513
381 4 0.0210417 0.158564 0.191677
511 2 0.0358739 0.158812 0.229216
512 4 0.0195812 0.152903 0.211194
513 4 0.0521666 0.16472 0.247239
577 2 0.105265 0.10044 0.218891
578 4 0.12625 0.112818 0.213269
723 4 0.174507 0.104722 0.224726
721 2 0.185416 0.108518 0.246901
581 4 0.267945 0.134036 0.17064
30 3 0.309874 0.130475 0.235299
26 1 0.298659 0.112423 0.243482
28 3 0.2829 0.105227 0.228045
333 4 0.41891 0.140451 0.240306
743 4 0.463592 0.0837469 0.23485
311 4 0.449949 0.0931657 0.174663
331 2 0.440765 0.152382 0.242583
395 4 0.0225489 0.242967 0.210188
394 2 0.0192775 0.245499 0.234847
363 4 0.0852652 0.247224 0.178282
371 4 0.170359 0.236089 0.226222
545 4 0.165816 0.201767 0.254794
764 4 0.371841 0.230268 0.203695
763 2 0.378226 0.211956 0.187913
765 4 0.38461 0.193644 0.17213
520 2 0.476681 0.221282 0.22429
521 4 0.456437 0.219718 0.209699
522 4 0.496925 0.222847 0.238882
332 4 0.46262 0.164312 0.244861
537 4 0.166985 0.336773 0.171507
748 2 0.0989625 0.291063 0.241252
370 2 0.148254 0.245631 0.219477
361 2 0.0991548 0.258685 0.195628
362 4 0.113044 0.270146 0.212975
372 4 0.126149 0.255173 0.212732
300 4 0.104805 0.339045 0.238408
749 4 0.108539 0.288439 0.218304
279 4 0.236585 0.272042 0.170368
345 4 0.230591 0.298782 0.236791
343 2 0.251175 0.285136 0.232886
344 4 0.271759 0.27149 0.228981
307 2 0.310295 0.284622 0.223443
309 4 0.306036 0.30898 0.219736
308 4 0.314555 0.260265 0.22715
263 4 0.0430328 0.415319 0.234477
417 4 0.147769 0.417538 0.175009
611 4 0.260036 0.331276 0.187196
303 4 0.307964 0.356137 0.178848
301 2 0.313997 0.379776 0.184325
302 4 0.32003 0.403415 0.189802
729 4 0.34482 0.370976 0.235729
595 2 0.490913 0.394947 0.166283
597 4 0.476259 0.378316 0.177852
643 2 0.450199 0.371006 0.204042
644 4 0.442958 0.367753 0.227752
645 4 0.45744 0.374258 0.180331
447 4 0.447179 0.365569 0.246913
262 2 0.0246357 0.43052 0.227016
264 4 0.00623867 0.445721 0.219555
415 2 0.162873 0.419103 0.194873
290 4 0.239821 0.437846 0.222317
416 4 0.177977 0.420668 0.214738
291 4 0.196743 0.417845 0.206668
289 2 0.218282 0.427845 0.214493
768 4 0.225953 0.46137 0.203095
766 2 0.244754 0.47008 0.1891
767 4 0.263555 0.478789 0.175105
1574 4 0.311648 0.482306 0.217998
229 2 0.398901 0.494106 0.244552
231 4 0.379734 0.478251 0.247086
232 2 0.0225849 0.0562778 0.289271
233 4 0.0443637 0.0454908 0.283397
1402 2 0.0801712 0.0219007 0.260969
234 4 0.0008061 0.0670647 0.295145
1404 4 0.0588757 0.0210816 0.274047
675 4 0.119343 0.0277853 0.252779
1403 4 0.101467 0.0227198 0.247892
690 4 0.19535 0.00770092 0.261709
248 4 0.231167 0.08353 0.308916
1699 2 0.253308 0.0315463 0.324217
1700 4 0.2711 0.0461418 0.314441
478 2 0.475848 0.0407371 0.325815
480 4 0.474463 0.0511184 0.30311
351 4 0.455901 0.0538241 0.295513
349 2 0.444049 0.0745918 0.288205
530 4 0.0109602 0.146724 0.288983
731 4 0.139814 0.080437 0.312832
730 2 0.128337 0.0958596 0.32882
722 4 0.196325 0.112315 0.269077
249 4 0.212155 0.119096 0.279347
247 2 0.221661 0.101313 0.294131
403 2 0.215952 0.156606 0.291577
404 4 0.211262 0.132417 0.29583
27 3 0.313584 0.0953576 0.247378
29 3 0.288226 0.117969 0.263453
632 4 0.347851 0.11453 0.272363
631 2 0.36252 0.125932 0.289095
633 4 0.37719 0.137335 0.305828
350 4 0.432196 0.0953595 0.280897
393 4 0.0813634 0.215004 0.26223
546 4 0.151938 0.184659 0.299687
392 4 0.115586 0.187857 0.286573
391 2 0.0984746 0.201431 0.274402
544 2 0.158877 0.193213 0.27724
405 4 0.220642 0.180794 0.287325
706 2 0.331417 0.168405 0.321141
707 4 0.340584 0.173787 0.298509
420 4 0.413702 0.22587 0.306527
762 4 0.470154 0.166319 0.262376
418 2 0.424327 0.220013 0.328389
761 4 0.498402 0.193183 0.293698
760 2 0.484278 0.179751 0.278037
750 4 0.0893859 0.293688 0.264199
396 4 0.0160061 0.248031 0.259506
444 4 0.00399059 0.260048 0.313397
443 4 0.0131038 0.265921 0.264579
442 2 0.00854719 0.262984 0.288988
366 4 0.00575447 0.33629 0.285033
400 2 0.191123 0.272711 0.291458
402 4 0.205575 0.283262 0.308922
401 4 0.176671 0.26216 0.273994
496 2 0.304412 0.296453 0.301554
497 4 0.316144 0.294011 0.323499
498 4 0.29268 0.298894 0.279609
543 4 0.387522 0.301893 0.319209
541 2 0.412053 0.298365 0.315904
542 4 0.436585 0.294837 0.312599
364 2 0.0187729 0.351208 0.300303
365 4 0.0317913 0.366126 0.315572
602 4 0.0641459 0.405729 0.304705
601 2 0.0701403 0.381535 0.302736
603 4 0.0761347 0.35734 0.300768
298 2 0.125133 0.347356 0.25036
299 4 0.145461 0.355668 0.262312
734 4 0.157897 0.372132 0.262472
733 2 0.170205 0.367254 0.283682
677 4 0.175243 0.356986 0.323002
735 4 0.182514 0.362377 0.304893
727 2 0.349967 0.376663 0.259527
434 4 0.346215 0.37783 0.341487
728 4 0.355114 0.382349 0.283325
445 2 0.46924 0.372743 0.256242
446 4 0.491302 0.379916 0.26557
1757 4 0.0533534 0.488785 0.26229
549 4 0.0599444 0.423607 0.314277
777 4 0.0960915 0.475344 0.278625
775 2 0.0900534 0.47514 0.302888
776 4 0.0840153 0.474937 0.327151
414 4 0.181351 0.488569 0.265299
412 2 0.179748 0.475056 0.286276
413 4 0.178145 0.461543 0.307252
436 2 0.305171 0.449121 0.280528
437 4 0.312733 0.453126 0.257034
438 4 0.297609 0.445116 0.304021
594 4 0.391011 0.464951 0.335278
119 3 0.489807 0.440657 0.308084
713 4 0.43863 0.478649 0.280374
712 2 0.456538 0.463286 0.288648
714 4 0.474446 0.447923 0.296922
316 2 0.0279986 0.0771586 0.356565
317 4 0.023815 0.0565891 0.370151
428 4 0.0650398 0.0397594 0.37566
429 4 0.109477 0.0324139 0.353931
427 2 0.0872582 0.0360867 0.364796
606 4 0.157439 0.0630994 0.33932
1701 4 0.235515 0.0169508 0.333993
604 2 0.181258 0.0692979 0.343724
605 4 0.205077 0.0754963 0.348128
440 4 0.284741 0.992526 0.405161
683 4 0.287881 0.064957 0.36543
682 2 0.289606 0.0832953 0.382339
699 4 0.344612 0.0189156 0.3431
257 4 0.396747 0.0626737 0.34037
698 4 0.383177 0.050281 0.348551
697 2 0.363895 0.0345983 0.345825
256 2 0.418795 0.0698652 0.349715
479 4 0.477233 0.0303559 0.348519
426 4 0.411917 0.0258749 0.411101
398 4 0.0544475 0.143445 0.340813
318 4 0.0321822 0.0977281 0.34298
397 2 0.0756868 0.130317 0.342121
732 4 0.11686 0.111282 0.344807
399 4 0.0969261 0.117188 0.343428
600 4 0.198556 0.141439 0.337857
598 2 0.18965 0.160203 0.351776
686 4 0.175003 0.143878 0.412105
708 4 0.322251 0.163023 0.343772
684 4 0.291331 0.101634 0.399248
320 4 0.273651 0.106148 0.405978
258 4 0.440844 0.0770566 0.35906
451 2 0.473819 0.139072 0.385294
453 4 0.450417 0.14748 0.382676
514 2 0.424425 0.167769 0.408304
515 4 0.442877 0.164286 0.391794
2654 4 0.00858148 0.216754 0.341051
389 4 0.116999 0.246656 0.363066
599 4 0.180745 0.178968 0.365695
474 4 0.234328 0.211246 0.374872
274 2 0.199219 0.23378 0.382747
276 4 0.223323 0.22728 0.381362
275 4 0.175115 0.240281 0.384132
472 2 0.249129 0.192081 0.368642
473 4 0.263929 0.172916 0.362412
488 4 0.267083 0.201535 0.404518
487 2 0.270264 0.224069 0.414876
489 4 0.273445 0.246603 0.425233
715 2 0.375784 0.213139 0.358276
716 4 0.372249 0.198405 0.378166
717 4 0.37932 0.227874 0.338387
467 4 0.368755 0.181054 0.405712
419 4 0.434952 0.214156 0.350252
618 4 0.051235 0.327334 0.374702
347 4 0.0419561 0.310441 0.376454
346 2 0.0378101 0.300393 0.398971
390 4 0.0976723 0.277912 0.329151
388 2 0.107336 0.262284 0.346108
375 4 0.157581 0.33506 0.38271
373 2 0.179238 0.328482 0.393334
510 4 0.238548 0.308745 0.325871
374 4 0.200896 0.321904 0.403957
376 2 0.290718 0.295414 0.359491
377 4 0.299889 0.274641 0.349023
378 4 0.281547 0.316186 0.369958
615 4 0.380387 0.318901 0.329097
266 4 0.344995 0.285075 0.413376
269 4 0.491042 0.262863 0.406523
268 2 0.467113 0.257227 0.401956
270 4 0.443185 0.251591 0.397389
616 2 0.0671077 0.34094 0.360987
678 4 0.152498 0.337654 0.363122
407 4 0.0885475 0.418091 0.37714
617 4 0.0829803 0.354546 0.347271
548 4 0.0770815 0.423714 0.361256
508 2 0.2346 0.330843 0.336882
676 2 0.16387 0.34732 0.343062
509 4 0.230651 0.352941 0.347894
502 2 0.248248 0.410352 0.404028
433 2 0.322337 0.383096 0.336264
435 4 0.298459 0.388362 0.331041
503 4 0.263806 0.417665 0.385872
613 2 0.366009 0.338382 0.335335
614 4 0.351631 0.357864 0.341574
336 4 0.35458 0.365472 0.392181
561 4 0.457458 0.398868 0.408853
752 4 0.453925 0.41552 0.398971
559 2 0.481194 0.39131 0.406698
2463 4 0.00528685 0.474745 0.357809
408 4 0.0624729 0.422526 0.41958
406 2 0.0755102 0.420309 0.39836
547 2 0.068513 0.42366 0.337766
499 2 0.102035 0.481274 0.379382
500 4 0.105392 0.466652 0.35938
568 2 0.156095 0.491479 0.416106
5 3 0.295224 0.477675 0.351767
1 1 0.316103 0.478283 0.360842
2 3 0.324364 0.499705 0.359415
4 3 0.315212 0.472061 0.383178
3 3 0.330215 0.46401 0.3492
592 2 0.406719 0.484243 0.337784
751 2 0.445686 0.419827 0.37576
753 4 0.437448 0.424134 0.352549
2237 4 0.0499888 0.0131828 0.490067
718 2 0.0539383 0.0518204 0.486488
720 4 0.0613205 0.0280243 0.484384
719 4 0.0465562 0.0756166 0.488592
367 2 0.122033 0.0295 0.443006
369 4 0.126746 0.0468652 0.460368
368 4 0.117321 0.0121347 0.425645
341 4 0.20072 0.0304564 0.489376
2430 4 0.20089 0.0153714 0.502098
1181 4 0.257997 0.0613633 0.472172
441 4 0.276636 0.0336701 0.432405
439 2 0.280688 0.0130982 0.418783
962 4 0.279397 0.0178091 0.498874
424 2 0.390791 0.0299666 0.423834
425 4 0.369665 0.0340583 0.436566
2878 2 0.496276 0.0855386 0.458375
457 2 0.0146515 0.162047 0.42902
458 4 0.0260288 0.139964 0.426176
471 4 0.0205811 0.155855 0.488638
685 2 0.161388 0.157056 0.42842
687 4 0.147774 0.170234 0.444735
1182 4 0.245868 0.106005 0.491165
726 4 0.319252 0.0909885 0.457754
1180 2 0.251932 0.0836841 0.481668
321 4 0.276718 0.151349 0.427147
319 2 0.275184 0.128749 0.416563
724 2 0.342979 0.0919112 0.449922
725 4 0.366707 0.0928339 0.44209
574 2 0.398782 0.157767 0.465323
516 4 0.405973 0.171251 0.424813
576 4 0.394157 0.144703 0.486134
642 4 0.467572 0.104504 0.479852
2880 4 0.482715 0.104597 0.467209
640 2 0.465969 0.126169 0.492232
459 4 0.00327426 0.18413 0.431864
469 2 0.0331838 0.176497 0.482292
470 4 0.0457865 0.197139 0.475946
260 4 0.0968311 0.195909 0.421278
261 4 0.128313 0.170469 0.450645
259 2 0.112572 0.183189 0.435961
1035 4 0.122163 0.177082 0.468919
1033 2 0.126649 0.175894 0.493488
695 4 0.103171 0.227813 0.480199
694 2 0.107807 0.252205 0.483156
411 4 0.29737 0.217189 0.464735
409 2 0.315434 0.203377 0.454336
410 4 0.333497 0.189565 0.443938
468 4 0.34881 0.177917 0.451462
575 4 0.403408 0.170831 0.444512
466 2 0.358783 0.179486 0.428587
304 2 0.484636 0.20292 0.427795
305 4 0.461051 0.194618 0.427943
348 4 0.033664 0.290345 0.421488
326 4 0.0743904 0.322336 0.457461
696 4 0.112444 0.276596 0.486112
10 3 0.15517 0.317328 0.486404
1260 4 0.131092 0.280294 0.491301
651 4 0.259124 0.28191 0.469549
649 2 0.26459 0.304786 0.461065
650 4 0.270056 0.327662 0.45258
267 4 0.357159 0.269544 0.459328
265 2 0.351077 0.27731 0.436352
583 2 0.466545 0.283728 0.473182
584 4 0.488578 0.272871 0.46851
585 4 0.444512 0.294586 0.477855
681 4 0.0329273 0.420141 0.445647
327 4 0.119142 0.344652 0.457426
325 2 0.0967663 0.333494 0.457443
6 1 0.148468 0.339036 0.487985
7 3 0.132413 0.34319 0.472043
8 3 0.1665 0.353175 0.484333
711 4 0.159366 0.384611 0.446532
504 4 0.23269 0.403039 0.422184
709 2 0.184342 0.385663 0.447069
710 4 0.209317 0.386716 0.447606
772 2 0.262328 0.411535 0.492025
334 2 0.35355 0.365094 0.41716
238 2 0.381779 0.376803 0.464078
240 4 0.371266 0.371769 0.441957
335 4 0.352519 0.364717 0.44214
239 4 0.392291 0.381836 0.486199
680 4 0.0434672 0.46588 0.428396
1381 2 0.0340334 0.496867 0.444917
1383 4 0.0519391 0.482731 0.434683
679 2 0.0381972 0.443011 0.437022
383 4 0.0687557 0.429444 0.453106
539 4 0.0785981 0.459953 0.487377
384 4 0.111992 0.422669 0.477301
569 4 0.14475 0.470994 0.424871
382 2 0.090374 0.426057 0.465203
538 2 0.0987807 0.470091 0.498104
634 2 0.249035 0.445153 0.448641
636 4 0.241456 0.452817 0.42608
774 4 0.273648 0.426162 0.4752
1401 4 0.333595 0.493528 0.454108
669 4 0.28956 0.432854 0.463205
667 2 0.305803 0.436248 0.444502
668 4 0.322046 0.439642 0.425798
635 4 0.256613 0.43749 0.471203
588 4 0.39692 0.426786 0.433052
661 2 0.458548 0.454506 0.49448
587 4 0.446238 0.428807 0.441073
586 2 0.421579 0.427797 0.437062
663 4 0.438784 0.449702 0.479937
1332 4 0.482574 0.489586 0.504796
1126 2 0.0353061 0.0463832 0.54972
1127 4 0.0360801 0.0290185 0.531746
1128 4 0.0345321 0.063748 0.567693
1031 4 0.211579 0.0736726 0.577666
342 4 0.19735 0.075041 0.511772
1030 2 0.226171 0.0883633 0.56365
340 2 0.199035 0.0527487 0.500574
961 2 0.283529 0.0422 0.502504
963 4 0.287662 0.066591 0.506135
432 4 0.305928 0.0660724 0.510831
430 2 0.329668 0.0732315 0.514051
951 4 0.281388 0.00926669 0.57699
1217 4 0.403665 0.0428858 0.548754
1216 2 0.405469 0.0353955 0.572541
841 2 0.388372 0.0719431 0.535905
842 4 0.409839 0.0601581 0.540948
1062 4 0.494703 0.000674365 0.535948
938 4 0.0898374 0.138606 0.558328
937 2 0.104411 0.120888 0.548387
939 4 0.118986 0.10317 0.538445
1152 4 0.194331 0.0902434 0.523629
1032 4 0.240762 0.103054 0.549634
1151 4 0.190583 0.138073 0.537735
1150 2 0.192457 0.114158 0.530682
899 4 0.336712 0.139229 0.5429
898 2 0.330258 0.162992 0.538562
843 4 0.366904 0.0837281 0.530862
431 4 0.353407 0.0803906 0.517271
641 4 0.464366 0.147833 0.504613
877 2 0.0603829 0.220609 0.568511
878 4 0.0388618 0.208951 0.563402
1199 4 0.0204628 0.202895 0.573025
879 4 0.0819041 0.232267 0.57362
1034 4 0.131135 0.174706 0.518057
856 2 0.222397 0.223859 0.534141
858 4 0.215324 0.206292 0.550466
857 4 0.229471 0.241427 0.517816
900 4 0.323804 0.186756 0.534224
872 4 0.399481 0.243627 0.527143
906 4 0.444415 0.240852 0.571069
983 4 0.0640033 0.311669 0.572864
982 2 0.0456994 0.326175 0.581792
1244 4 0.0612746 0.258966 0.589388
1258 2 0.14654 0.280606 0.510959
1259 4 0.161988 0.280919 0.530618
813 4 0.327694 0.302304 0.541918
811 2 0.335313 0.31294 0.520611
871 2 0.38472 0.263659 0.524697
873 4 0.369959 0.283692 0.522251
812 4 0.342933 0.323575 0.499303
9 3 0.139406 0.343015 0.508972
1136 4 0.0948639 0.345115 0.579942
1189 2 0.222946 0.372257 0.573148
773 4 0.251008 0.396908 0.50885
1190 4 0.230523 0.358082 0.553995
803 4 0.243055 0.359199 0.538853
802 2 0.266163 0.355746 0.529951
804 4 0.289272 0.352292 0.52105
928 2 0.366878 0.372861 0.578055
929 4 0.37274 0.383384 0.556144
925 2 0.458416 0.368998 0.541669
927 4 0.460724 0.367769 0.566536
926 4 0.456107 0.370226 0.516803
540 4 0.118963 0.48023 0.50883
1161 4 0.177095 0.483432 0.545454
1159 2 0.177533 0.467415 0.564649
1171 2 0.234476 0.44591 0.56463
1173 4 0.226513 0.468463 0.557341
1160 4 0.17797 0.451398 0.583844
1172 4 0.242439 0.423357 0.571919
882 4 0.329171 0.455464 0.511279
880 2 0.351918 0.465835 0.511689
881 4 0.374666 0.476206 0.5121
1952 4 0.357184 0.468554 0.585403
1002 4 0.40678 0.448716 0.577392
1951 2 0.349233 0.492214 0.583933
1000 2 0.42943 0.441915 0.569274
1001 4 0.45208 0.435115 0.561156
662 4 0.478311 0.459311 0.509023
1185 4 0.997127 0.0310585 0.637448
1058 4 0.143585 0.0633164 0.582822
1057 2 0.137832 0.0869144 0.588756
825 4 0.137782 0.0302715 0.66242
823 2 0.148069 0.0104393 0.651193
949 2 0.284648 0.0142176 0.60128
950 4 0.287909 0.0191686 0.625571
1218 4 0.407272 0.0279051 0.596328
2283 4 0.409683 0.00290784 0.659685
809 4 0.457185 0.0710774 0.617083
808 2 0.459671 0.0748603 0.641673
1083 4 0.0298526 0.102204 0.604585
1082 4 0.0396657 0.0846221 0.65036
1081 2 0.0347592 0.0934131 0.627472
1059 4 0.132079 0.110512 0.594691
1153 2 0.161106 0.140186 0.589389
1155 4 0.147832 0.121327 0.599049
909 4 0.147539 0.151187 0.658278
1154 4 0.174379 0.159045 0.579729
1284 4 0.179198 0.080682 0.646032
1283 4 0.199026 0.108397 0.609434
1282 2 0.189112 0.0945396 0.627733
810 4 0.462157 0.0786432 0.666264
1272 4 0.0898318 0.215924 0.582529
1270 2 0.113903 0.220714 0.587304
1271 4 0.137975 0.225505 0.592078
1221 4 0.182728 0.172596 0.591874
797 4 0.238654 0.221513 0.595744
1210 2 0.231236 0.174173 0.650653
1212 4 0.213095 0.1718 0.63361
1219 2 0.202925 0.178124 0.605538
1220 4 0.223121 0.183652 0.619202
796 2 0.228674 0.237869 0.611807
798 4 0.218694 0.254226 0.627871
791 4 0.301516 0.237217 0.593182
1193 4 0.352374 0.223164 0.657704
1192 2 0.334141 0.210192 0.66886
904 2 0.464198 0.242693 0.586248
1024 2 0.440163 0.199223 0.665387
1025 4 0.427615 0.206302 0.644952
905 4 0.483981 0.244535 0.601427
1243 2 0.0473973 0.267658 0.608283
1245 4 0.0335201 0.27635 0.627179
984 4 0.0273955 0.340681 0.59072
947 4 0.202025 0.258398 0.619737
946 2 0.184566 0.275815 0.623862
948 4 0.167107 0.293232 0.627988
792 4 0.312834 0.285894 0.594942
790 2 0.307175 0.261555 0.594062
1238 4 0.300952 0.302004 0.59197
1237 2 0.317123 0.314007 0.606788
1239 4 0.333295 0.32601 0.621607
1064 4 0.255312 0.278649 0.658218
954 4 0.425089 0.274397 0.597125
952 2 0.438611 0.294315 0.590369
953 4 0.452133 0.314232 0.583614
1040 4 0.0665584 0.401275 0.634207
1039 2 0.0428531 0.398987 0.626591
1041 4 0.0191478 0.396699 0.618975
3264 4 0.0103496 0.38198 0.630797
1137 4 0.13218 0.370196 0.601832
897 4 0.151043 0.375101 0.599556
1135 2 0.113522 0.357656 0.590887
991 2 0.109011 0.409958 0.627404
993 4 0.0865702 0.40265 0.63566
992 4 0.131453 0.417266 0.619148
1191 4 0.215368 0.386432 0.592301
896 4 0.201041 0.375767 0.600258
895 2 0.176042 0.375434 0.599907
806 4 0.325481 0.348648 0.653713
930 4 0.361017 0.362337 0.599966
1204 2 0.404238 0.39572 0.64244
1206 4 0.392767 0.405367 0.662453
1205 4 0.41571 0.386073 0.622427
2172 4 0.0972422 0.495889 0.642795
1187 4 0.212991 0.470584 0.594586
1186 2 0.212199 0.488272 0.61224
889 2 0.32148 0.461518 0.618924
891 4 0.307704 0.482381 0.618534
890 4 0.335256 0.440655 0.619315
1269 4 0.448393 0.458774 0.645113
1267 2 0.463487 0.468695 0.662403
2991 4 0.00486367 0.0670411 0.702894
944 4 0.0527112 0.0612243 0.676749
943 2 0.0459027 0.0395899 0.687274
945 4 0.0390943 0.0179554 0.697799
1076 4 0.0452401 0.0792925 0.667578
1147 2 0.199352 0.0656588 0.72316
1149 4 0.197972 0.0429683 0.733572
1005 4 0.321795 0.0781728 0.675785
1048 2 0.313386 0.00349016 0.745611
1003 2 0.346114 0.083249 0.678611
1163 4 0.466113 0.027509 0.676472
45 3 0.441615 0.0760553 0.668867
1162 2 0.485534 0.0428421 0.680062
42 3 0.416643 0.0776769 0.696556
2320 2 0.4898 0.999744 0.731325
2322 4 0.495199 0.0196601 0.745446
862 2 0.0443989 0.121432 0.738973
864 4 0.0506667 0.121366 0.714767
1075 2 0.0483554 0.100114 0.681067
1077 4 0.0514707 0.120935 0.694556
907 2 0.146773 0.148836 0.683159
908 4 0.146008 0.146486 0.70804
1227 4 0.157571 0.130591 0.712993
1148 4 0.200733 0.0883494 0.712748
1225 2 0.176513 0.115699 0.719669
1226 4 0.195456 0.100806 0.726346
829 2 0.333255 0.15887 0.720444
831 4 0.338533 0.142516 0.738606
1004 4 0.370434 0.0883252 0.681437
43 3 0.430621 0.109492 0.682236
41 1 0.435449 0.0874403 0.687602
1142 4 0.433684 0.156026 0.707666
44 3 0.452508 0.0866633 0.703312
3425 4 0.497744 0.160463 0.678893
1215 4 0.00548526 0.228199 0.728145
851 4 0.0636132 0.183524 0.719434
852 4 0.0276977 0.202157 0.690047
850 2 0.0456554 0.19284 0.704741
1107 4 0.0637717 0.166366 0.730475
1178 4 0.0188052 0.240836 0.723113
1213 2 0.01364 0.218003 0.749469
1207 2 0.12023 0.247373 0.680516
1208 4 0.121839 0.229446 0.697871
1130 4 0.167816 0.181643 0.759232
1129 2 0.181776 0.200522 0.750636
1131 4 0.195735 0.2194 0.742039
1211 4 0.249376 0.176547 0.667696
830 4 0.327977 0.175225 0.702282
886 2 0.290107 0.182871 0.683631
888 4 0.268093 0.180561 0.672002
887 4 0.312121 0.185182 0.695259
976 2 0.293384 0.193871 0.751423
978 4 0.277856 0.174287 0.750695
1194 4 0.315908 0.19722 0.680016
1143 4 0.404039 0.188184 0.73191
1262 4 0.418548 0.233671 0.737852
1141 2 0.418862 0.172105 0.719788
1026 4 0.452712 0.192144 0.685822
1261 2 0.439628 0.220731 0.734199
1263 4 0.460708 0.20779 0.730546
1177 2 0.0337096 0.258079 0.712831
1179 4 0.0486141 0.275321 0.702548
1209 4 0.118621 0.2653 0.66316
821 4 0.159136 0.266598 0.700514
820 2 0.169386 0.275989 0.721296
1065 4 0.22577 0.272322 0.698067
1063 2 0.240541 0.275486 0.678142
822 4 0.179636 0.285381 0.742079
807 4 0.336167 0.32983 0.698795
3123 4 0.47563 0.271912 0.673461
892 2 0.0513041 0.369376 0.699857
893 4 0.0350158 0.350826 0.695886
894 4 0.0675924 0.387927 0.703827
3274 2 0.9978 0.399233 0.734382
940 2 0.134592 0.382971 0.739122
941 4 0.158614 0.389739 0.737586
942 4 0.110571 0.376204 0.740657
1067 4 0.17839 0.3828 0.739767
1028 4 0.213593 0.397493 0.686811
1066 2 0.187038 0.390322 0.717546
1068 4 0.195686 0.397845 0.695324
1027 2 0.23775 0.391216 0.685315
1029 4 0.261906 0.384938 0.683819
805 2 0.330824 0.339239 0.676254
1019 4 0.380684 0.357536 0.742396
1981 2 0.0302879 0.484396 0.731646
1281 4 0.0372716 0.441977 0.727018
1280 4 0.0687881 0.417844 0.696604
1279 2 0.0530299 0.429911 0.711811
1983 4 0.0331551 0.461005 0.723289
1176 4 0.209691 0.507421 0.73265
1174 2 0.223623 0.502772 0.712415
1175 4 0.237555 0.498122 0.69218
1988 4 0.312127 0.483347 0.747502
1139 4 0.262201 0.427499 0.736082
1138 2 0.287197 0.428103 0.735973
1140 4 0.312193 0.428706 0.735863
1987 2 0.330533 0.489576 0.731767
1228 2 0.361351 0.459444 0.693451
1229 4 0.3508 0.476415 0.708479
1230 4 0.371902 0.442474 0.678422
1100 4 0.409998 0.445751 0.706554
1989 4 0.348939 0.495805 0.716032
1268 4 0.47858 0.478615 0.679694
1099 2 0.434246 0.445146 0.712622
1101 4 0.458495 0.444541 0.71869
1250 4 0.468157 0.494299 0.750894
1294 2 0.00205743 0.0277481 0.811033
911 4 0.0707503 0.0690322 0.815845
1296 4 0.00201326 0.0359723 0.834646
1295 4 0.00210161 0.0195239 0.787421
1203 4 0.136884 0.0811146 0.77854
1201 2 0.126415 0.0604027 0.769234
1202 4 0.115945 0.0396909 0.759929
2049 4 0.11759 0.0204279 0.764475
1255 2 0.274163 0.0694611 0.786913
1256 4 0.285548 0.0776122 0.807629
1257 4 0.262778 0.06131 0.766198
975 4 0.367425 0.0271119 0.831105
1113 4 0.404063 0.0260176 0.786749
1050 4 0.322697 0.0205308 0.761361
1112 4 0.438954 0.0583398 0.802196
846 4 0.485709 0.06967 0.753517
844 2 0.471552 0.0645259 0.773475
1111 2 0.421509 0.0421787 0.794472
845 4 0.457395 0.0593817 0.793432
863 4 0.0381311 0.121498 0.763178
832 2 0.00124491 0.110873 0.778597
833 4 0.0187324 0.117581 0.762033
34 3 0.118492 0.130453 0.830159
31 1 0.119505 0.153161 0.825496
33 3 0.127417 0.156474 0.803936
35 3 0.0988417 0.162477 0.827707
839 4 0.22678 0.126329 0.826848
838 2 0.249675 0.135274 0.831432
1084 2 0.345287 0.127166 0.807801
1085 4 0.351945 0.123121 0.83156
1086 4 0.338629 0.13121 0.784042
819 4 0.36117 0.104225 0.831137
3268 2 0.503389 0.141049 0.761514
3270 4 0.505275 0.163779 0.75127
1214 4 0.0217948 0.207808 0.770794