ITEM: TIMESTEP
2740000
ITEM: NUMBER OF ATOMS
4590
ITEM: BOX BOUNDS pp pp pp
-9.9985700000000008e+00 9.9985700000000008e+00
-9.9985700000000008e+00 9.9985700000000008e+00
-9.9985700000000008e+00 9.9985700000000008e+00
ITEM: ATOMS id type xs ys zs
1667 4 0.0234996 0.0661293 0.0697708
1666 2 0.002346 0.0604957 0.0818524
701 4 0.0407322 0.0774109 0.0722065
484 2 0.413819 0.997324 0.0886963
485 4 0.405221 0.00364621 0.0660846
2974 2 0.470982 0.0140299 0.00917977
745 2 0.441153 0.0679706 0.00656342
747 4 0.446323 0.0435791 0.00843486
2467 2 0.490484 0.00155526 0.0616913
2976 4 0.486372 0.99789 0.0204861
700 2 0.0429283 0.0995616 0.0835951
567 4 0.23253 0.163481 0.0122961
2264 4 0.24696 0.154247 0.00125782
297 4 0.3396 0.13562 0.0128396
746 4 0.435982 0.092362 0.00469199
566 4 0.210155 0.174157 0.0557257
565 2 0.221343 0.168819 0.0340109
573 4 0.251631 0.245417 0.056281
770 4 0.397006 0.188381 0.0215633
359 4 0.377874 0.184494 0.0205379
664 2 0.390218 0.204947 0.0537236
665 4 0.385049 0.186435 0.0377303
666 4 0.395386 0.223459 0.069717
323 4 0.403593 0.236861 0.0599404
358 2 0.357716 0.186865 0.00593487
769 2 0.413399 0.17228 0.0117037
623 4 0.389084 0.243594 0.0697594
360 4 0.337559 0.189236 0.991332
3338 4 0.0102219 0.257744 0.0173521
292 2 0.163162 0.317094 0.0476253
294 4 0.14803 0.307105 0.0304082
482 4 0.249211 0.259833 0.0692924
293 4 0.178293 0.327082 0.0648425
507 4 0.189045 0.328488 0.0764517
287 4 0.19707 0.331 0.0592764
286 2 0.217187 0.32954 0.0444997
288 4 0.237304 0.328081 0.029723
571 2 0.270829 0.251692 0.0415416
572 4 0.290027 0.257966 0.0268022
357 4 0.290841 0.261496 0.00736226
355 2 0.304052 0.282168 0.00253198
956 4 0.329517 0.313468 0.00913805
356 4 0.317263 0.30284 0.997702
1069 2 0.401919 0.307305 0.0355376
955 2 0.347885 0.322636 0.0234123
1071 4 0.381138 0.320324 0.040422
322 2 0.41398 0.25742 0.0502132
957 4 0.366253 0.331803 0.0376866
324 4 0.424367 0.277979 0.0404861
1070 4 0.4227 0.294286 0.0306532
280 2 0.454503 0.298014 0.0493653
282 4 0.440447 0.286261 0.0323505
281 4 0.468558 0.309766 0.0663801
527 4 0.474462 0.317181 0.0829863
671 4 0.456207 0.321853 0.074602
328 2 0.00540299 0.412991 0.0279308
456 4 0.184345 0.393561 0.0532733
552 4 0.174136 0.339814 0.0794631
454 2 0.18478 0.369215 0.0589525
455 4 0.185215 0.344869 0.0646317
1290 4 0.27461 0.410746 0.0221887
250 2 0.26998 0.409676 0.0602659
1288 2 0.280102 0.391095 0.00773691
251 4 0.263661 0.418273 0.0376529
252 4 0.276299 0.40108 0.0828788
741 4 0.377935 0.336823 0.0517556
739 2 0.385912 0.343342 0.0745382
329 4 0.0225874 0.429225 0.019785
1788 4 0.100703 0.46773 0.0756538
1786 2 0.105093 0.489559 0.0642782
627 4 0.16682 0.464978 0.0464432
1467 4 0.0907218 0.453154 0.0849036
626 4 0.205059 0.470794 0.0781392
625 2 0.185939 0.467886 0.0622912
245 4 0.219709 0.46349 0.066717
244 2 0.241761 0.459156 0.055758
246 4 0.263813 0.454822 0.044799
272 4 0.270121 0.437198 0.0392112
271 2 0.279199 0.445412 0.0174103
1672 2 0.395061 0.436574 0.063056
853 2 0.395687 0.450312 0.00875594
1674 4 0.404383 0.439816 0.0400831
854 4 0.413532 0.449866 0.0262643
564 4 0.424024 0.43983 0.0356699
563 4 0.467706 0.462051 0.0257301
562 2 0.445865 0.450941 0.0307
228 4 0.475469 0.478073 0.0360647
226 2 0.485183 0.498115 0.0474281
19 3 0.066546 0.0408018 0.150937
18 3 0.0729308 0.00409392 0.143441
16 1 0.0724213 0.0202882 0.160051
578 4 0.087306 0.0428918 0.161285
577 2 0.101089 0.0634097 0.165057
580 2 0.242716 0.0642311 0.146691
581 4 0.246765 0.0403672 0.152959
491 4 0.282913 0.07666 0.0909019
490 2 0.290573 0.0580634 0.105757
1475 4 0.296078 0.0246437 0.108394
492 4 0.298232 0.0394668 0.120612
1474 2 0.300828 0.00277997 0.0972319
2722 2 0.469007 0.0645395 0.164016
2724 4 0.488249 0.0498934 0.157659
1760 4 0.498098 0.0384861 0.146423
2469 4 0.488432 0.00836526 0.085662
1759 2 0.497776 0.0291381 0.123235
1761 4 0.497454 0.01979 0.100047
702 4 0.0451244 0.121712 0.0949837
476 4 0.0522327 0.139618 0.0988833
475 2 0.0726784 0.137498 0.113119
477 4 0.093124 0.135377 0.127355
450 4 0.113002 0.103695 0.168086
448 2 0.137834 0.104492 0.170896
582 4 0.238667 0.088095 0.140422
237 4 0.220137 0.0946888 0.147476
235 2 0.199342 0.0938268 0.161332
628 2 0.379631 0.160699 0.149541
629 4 0.366791 0.139359 0.151764
312 4 0.37286 0.12924 0.168833
738 4 0.225454 0.180546 0.107193
737 4 0.243127 0.218645 0.134338
736 2 0.23429 0.199595 0.120766
755 4 0.252567 0.24525 0.15633
460 2 0.329626 0.227245 0.114597
461 4 0.308236 0.218342 0.105196
354 4 0.291305 0.218103 0.118397
352 2 0.281134 0.232783 0.135896
353 4 0.270963 0.247462 0.153396
630 4 0.39247 0.182038 0.147319
254 4 0.386553 0.198818 0.156716
462 4 0.351017 0.236148 0.123997
255 4 0.3686 0.237969 0.131307
253 2 0.377577 0.218393 0.144011
622 2 0.377905 0.24455 0.0921041
536 4 0.154202 0.28732 0.154004
481 2 0.235029 0.270212 0.0870777
505 2 0.198763 0.312652 0.0931834
483 4 0.220847 0.280592 0.104863
506 4 0.208482 0.296816 0.109915
537 4 0.194622 0.295324 0.12567
535 2 0.174412 0.291322 0.139837
754 2 0.239635 0.266579 0.154597
756 4 0.226703 0.287908 0.152865
612 4 0.234129 0.298219 0.167855
301 2 0.32541 0.317478 0.144785
303 4 0.326437 0.302169 0.164527
764 4 0.337145 0.285476 0.161671
284 4 0.277086 0.261076 0.164671
283 2 0.297086 0.275866 0.167201
624 4 0.366725 0.245506 0.114449
765 4 0.356838 0.253545 0.128606
763 2 0.346991 0.269511 0.145138
12 3 0.413143 0.32799 0.120243
526 2 0.49707 0.327167 0.0867684
647 4 0.049041 0.357402 0.165212
550 2 0.154181 0.344015 0.0939318
551 4 0.134226 0.348216 0.1084
290 4 0.235911 0.400794 0.152304
289 2 0.215368 0.390105 0.161733
302 4 0.324383 0.332786 0.125042
609 4 0.293315 0.392828 0.087617
387 4 0.327867 0.351173 0.120274
607 2 0.306497 0.408424 0.102046
385 2 0.351405 0.354221 0.112408
493 2 0.38903 0.390763 0.0968452
495 4 0.390659 0.366041 0.100213
386 4 0.374943 0.357268 0.104543
15 3 0.38078 0.346348 0.117323
740 4 0.39389 0.349861 0.0973208
14 3 0.412279 0.361593 0.103426
11 1 0.403208 0.348736 0.12048
13 3 0.40729 0.358775 0.140997
494 4 0.387401 0.415485 0.0934773
672 4 0.417772 0.341832 0.099588
670 2 0.43699 0.331843 0.087095
1791 4 0.0672603 0.487775 0.119569
1465 2 0.0733294 0.462729 0.100103
1466 4 0.055937 0.472304 0.115302
638 4 0.234024 0.464158 0.125175
767 4 0.240938 0.468281 0.143268
637 2 0.219427 0.481406 0.114469
639 4 0.204831 0.498654 0.103764
766 2 0.243699 0.443977 0.148449
768 4 0.246459 0.419672 0.15363
608 4 0.319679 0.42402 0.116474
659 4 0.333128 0.437254 0.110362
660 4 0.382255 0.431896 0.102709
1673 4 0.385738 0.433333 0.086029
658 2 0.357692 0.434575 0.106535
524 4 0.409424 0.491242 0.116731
523 2 0.400157 0.469968 0.10742
525 4 0.390891 0.448693 0.098109
17 3 0.056692 0.0143468 0.17575
2480 4 0.0387173 0.0112495 0.184742
2479 2 0.0275689 0.0313077 0.19467
380 4 0.0230141 0.0678855 0.195469
2481 4 0.0164206 0.0513659 0.204597
20 3 0.0928193 0.0217911 0.170067
689 4 0.153628 0.00921585 0.211265
674 4 0.134899 0.0160812 0.216285
673 2 0.112261 0.00847862 0.223694
1403 4 0.0827603 0.00384269 0.248167
1504 2 0.22937 0.00483104 0.184097
1506 4 0.244489 0.0231064 0.176185
654 4 0.258074 0.0354065 0.169043
652 2 0.282849 0.0322685 0.167806
653 4 0.307624 0.0291306 0.166568
25 3 0.33725 0.0324601 0.246149
758 4 0.33033 0.0825509 0.192337
759 4 0.349416 0.0743454 0.237824
757 2 0.339873 0.0784482 0.215081
350 4 0.367119 0.0734201 0.24031
349 2 0.391304 0.0685975 0.236187
351 4 0.415489 0.0637749 0.232064
2723 4 0.449765 0.0791856 0.170373
480 4 0.430277 0.0587433 0.244966
743 4 0.488441 0.0684988 0.24932
379 2 0.0231218 0.0884399 0.181232
511 2 0.0565073 0.130766 0.17485
512 4 0.0335081 0.122322 0.179841
381 4 0.0232296 0.108994 0.166995
513 4 0.0795065 0.13921 0.169858
449 4 0.162666 0.10529 0.173707
579 4 0.114871 0.0839276 0.16883
393 4 0.0828735 0.158686 0.165602
236 4 0.178547 0.0929648 0.175189
30 3 0.316452 0.141491 0.244206
26 1 0.333042 0.15705 0.245366
310 2 0.360338 0.108669 0.175554
28 3 0.34061 0.162158 0.224034
311 4 0.347815 0.0880973 0.182275
761 4 0.405658 0.126418 0.24111
333 4 0.485103 0.0814984 0.233884
521 4 0.461754 0.144206 0.217618
762 4 0.45385 0.136979 0.232939
760 2 0.429754 0.131699 0.237024
332 4 0.467077 0.126493 0.221588
331 2 0.47609 0.103996 0.227736
339 4 0.0716467 0.219169 0.171102
337 2 0.0616206 0.238845 0.18283
391 2 0.0790572 0.181426 0.175271
392 4 0.0752408 0.204167 0.184939
279 4 0.265035 0.231623 0.218229
277 2 0.266354 0.237369 0.19393
278 4 0.267672 0.243115 0.169631
520 2 0.477456 0.162829 0.211978
522 4 0.493158 0.181452 0.206339
394 2 0.011467 0.255518 0.22715
395 4 0.0247714 0.264847 0.208147
338 4 0.0515946 0.25852 0.194557
363 4 0.0432148 0.271973 0.206855
361 2 0.053286 0.294409 0.211368
648 4 0.0611521 0.330228 0.205407
362 4 0.0633572 0.316845 0.215882
372 4 0.0796067 0.324745 0.20618
749 4 0.0491034 0.328158 0.22149
370 2 0.103218 0.326216 0.214276
371 4 0.126828 0.327686 0.222372
611 4 0.242201 0.320758 0.211759
610 2 0.238165 0.309488 0.189807
344 4 0.232732 0.327563 0.228925
343 2 0.211208 0.323716 0.241053
285 4 0.317087 0.290656 0.169732
729 4 0.318797 0.306141 0.180715
727 2 0.307422 0.323302 0.194902
308 4 0.333276 0.291323 0.178807
307 2 0.342063 0.281028 0.199829
309 4 0.350851 0.270732 0.220852
498 4 0.350305 0.283543 0.236088
748 2 0.0551777 0.341708 0.241606
646 2 0.0550966 0.343815 0.185309
734 4 0.130531 0.343818 0.236206
733 2 0.15231 0.336787 0.246277
417 4 0.147426 0.396848 0.198149
291 4 0.194825 0.379416 0.171163
416 4 0.193081 0.377965 0.190419
415 2 0.170254 0.387407 0.194284
728 4 0.296046 0.340463 0.209089
447 4 0.431942 0.382234 0.24454
644 4 0.447472 0.384998 0.232025
643 2 0.451827 0.399606 0.212205
645 4 0.456183 0.414214 0.192386
264 4 0.018857 0.429626 0.244149
1776 4 0.1181 0.491313 0.251409
412 2 0.238774 0.461245 0.225445
413 4 0.230547 0.44806 0.245032
414 4 0.247002 0.47443 0.205858
1574 4 0.288364 0.477003 0.226873
1573 2 0.294094 0.496712 0.212594
595 2 0.491551 0.421534 0.176432
597 4 0.466786 0.418102 0.176181
229 2 0.472372 0.484473 0.224647
231 4 0.487893 0.466244 0.217436
234 4 0.00932713 0.0563819 0.277197
232 2 0.0317838 0.0461526 0.281227
233 4 0.0542404 0.0359232 0.285257
2756 4 0.000769222 0.0752778 0.280697
317 4 0.072582 0.0337943 0.295819
1404 4 0.061487 0.0195851 0.290598
316 2 0.0829843 0.0548989 0.304279
1402 2 0.0721237 0.0117139 0.269383
428 4 0.0701409 0.0206822 0.309164
318 4 0.0933867 0.0760034 0.312739
730 2 0.131453 0.0846573 0.323128
732 4 0.10652 0.0860704 0.321883
399 4 0.0892375 0.0786651 0.331233
731 4 0.156385 0.0832442 0.324374
693 4 0.297423 0.0384024 0.271551
691 2 0.29047 0.060459 0.281056
692 4 0.283518 0.0825156 0.290562
24 3 0.319245 0.0580243 0.267123
21 1 0.339923 0.0492646 0.261285
23 3 0.350752 0.0412538 0.280179
22 3 0.352687 0.0659474 0.25191
632 4 0.359783 0.0811523 0.2552
479 4 0.448094 0.0311904 0.282703
478 2 0.439185 0.0449668 0.263835
2664 4 0.466314 0.0249299 0.28385
1428 4 0.451583 0.0216144 0.296434
258 4 0.443196 0.0396442 0.298943
2662 2 0.486518 0.0362998 0.293216
256 2 0.44132 0.0539441 0.319368
1426 2 0.446451 0.999566 0.307051
2755 2 0.00335769 0.093249 0.297888
2757 4 0.00594616 0.11122 0.315078
404 4 0.249094 0.143314 0.328052
721 2 0.275598 0.112683 0.309569
723 4 0.292748 0.0986409 0.297999
722 4 0.258448 0.126725 0.32114
29 3 0.350564 0.148994 0.25827
631 2 0.356067 0.105585 0.258993
707 4 0.356471 0.138333 0.275803
633 4 0.35235 0.130019 0.262786
706 2 0.360761 0.144593 0.299628
708 4 0.365051 0.150853 0.323452
444 4 0.00482488 0.225095 0.305588
442 2 0.00719503 0.237676 0.284111
544 2 0.144586 0.229756 0.25911
546 4 0.123003 0.218979 0.265682
545 4 0.166169 0.240534 0.252538
403 2 0.236717 0.164825 0.325005
405 4 0.224341 0.186335 0.321957
473 4 0.218814 0.205547 0.325743
27 3 0.324812 0.176189 0.255118
269 4 0.393866 0.224487 0.318465
419 4 0.390997 0.243908 0.322559
443 4 0.00956518 0.250257 0.262633
402 4 0.165815 0.258096 0.264282
375 4 0.167083 0.311106 0.321812
400 2 0.176256 0.280773 0.262892
401 4 0.186697 0.30345 0.261503
676 2 0.182731 0.324193 0.294451
345 4 0.189683 0.31987 0.253181
677 4 0.187067 0.32202 0.269922
735 4 0.174089 0.329756 0.256348
678 4 0.178394 0.326367 0.318979
378 4 0.287566 0.285749 0.300205
376 2 0.306757 0.301096 0.295587
377 4 0.325949 0.316443 0.29097
497 4 0.334548 0.30603 0.277882
496 2 0.342427 0.294787 0.256985
541 2 0.362901 0.30864 0.307022
542 4 0.384038 0.301818 0.318505
420 4 0.400807 0.292544 0.316317
543 4 0.341764 0.315463 0.295539
418 2 0.395902 0.268226 0.319438
615 4 0.335333 0.331816 0.303027
364 2 0.00623402 0.385642 0.289883
365 4 0.0292459 0.376533 0.286325
601 2 0.0583522 0.372624 0.320557
603 4 0.0413466 0.374766 0.302352
750 4 0.061252 0.355259 0.261722
300 4 0.08002 0.363464 0.262671
299 4 0.127746 0.357071 0.249179
298 2 0.103883 0.360267 0.255925
510 4 0.186395 0.342867 0.329045
434 4 0.317464 0.396709 0.305678
433 2 0.309879 0.414465 0.321564
614 4 0.327886 0.380368 0.312406
613 2 0.331609 0.356092 0.307717
445 2 0.40882 0.375563 0.251327
446 4 0.385698 0.368892 0.258114
1757 4 0.0296445 0.435689 0.259594
1756 2 0.0491807 0.450995 0.262638
1758 4 0.0687168 0.4663 0.265682
1775 4 0.0756061 0.481708 0.275959
777 4 0.0686589 0.491929 0.292897
775 2 0.0662746 0.49801 0.317032
1774 2 0.0968532 0.486511 0.263684
1436 4 0.224786 0.44728 0.263295
1435 2 0.240777 0.449345 0.282405
1437 4 0.256767 0.451409 0.301516
4 3 0.257681 0.432902 0.314705
3 3 0.267379 0.469526 0.311702
1 1 0.267939 0.450778 0.325363
436 2 0.305935 0.479648 0.308022
438 4 0.288318 0.465304 0.318465
2 3 0.289879 0.445316 0.329598
437 4 0.323553 0.493993 0.29758
1802 4 0.342157 0.491414 0.301744
119 3 0.492269 0.461792 0.316429
1781 4 0.106905 0.00354574 0.410456
606 4 0.159223 0.0834634 0.34366
441 4 0.337258 0.00174163 0.410103
699 4 0.374214 0.0532912 0.358483
1699 2 0.362367 0.0225623 0.383573
1700 4 0.370328 0.0353123 0.363591
697 2 0.39671 0.0606452 0.350419
1701 4 0.354407 0.00981231 0.403554
698 4 0.419206 0.0679992 0.342355
257 4 0.439444 0.0682441 0.339793
641 4 0.442339 0.0804092 0.405387
2585 4 0.00827527 0.116677 0.334692
397 2 0.0765452 0.0965888 0.343184
398 4 0.0638528 0.114513 0.355135
2584 2 0.0276644 0.119065 0.350298
2586 4 0.0470536 0.121453 0.365903
458 4 0.0439483 0.141008 0.369947
457 2 0.0474175 0.146612 0.394067
600 4 0.103562 0.154944 0.347609
604 2 0.180139 0.0883509 0.356458
605 4 0.201056 0.0932385 0.369257
248 4 0.220578 0.0954197 0.365503
247 2 0.233679 0.110982 0.350964
249 4 0.24678 0.126543 0.336425
683 4 0.253782 0.139906 0.347645
682 2 0.277063 0.144084 0.355748
684 4 0.300345 0.148263 0.363852
320 4 0.315471 0.138438 0.356055
321 4 0.3604 0.155527 0.342268
319 2 0.337935 0.146983 0.349162
726 4 0.395726 0.139107 0.41034
717 4 0.373586 0.158497 0.357195
715 2 0.3826 0.158018 0.380512
716 4 0.391613 0.157538 0.40383
642 4 0.490907 0.0885298 0.396674
640 2 0.466623 0.0844695 0.40103
598 2 0.108815 0.17638 0.359359
599 4 0.114069 0.197817 0.371109
389 4 0.120545 0.227723 0.370462
686 4 0.114886 0.213987 0.381155
685 2 0.0991611 0.214033 0.400595
275 4 0.12936 0.209951 0.369572
274 2 0.153738 0.205002 0.372102
474 4 0.197629 0.206004 0.371038
472 2 0.208222 0.205775 0.34839
276 4 0.178116 0.200054 0.374632
268 2 0.415289 0.217442 0.329262
270 4 0.436713 0.210396 0.340059
452 4 0.450856 0.221284 0.349283
451 2 0.458903 0.220438 0.372941
453 4 0.466951 0.219591 0.396599
515 4 0.448877 0.217727 0.403722
347 4 0.0597734 0.304013 0.385141
346 2 0.0377648 0.301354 0.396705
348 4 0.0157563 0.298695 0.408269
618 4 0.0714378 0.309278 0.370825
388 2 0.123286 0.252494 0.36845
616 2 0.0944652 0.301108 0.365517
390 4 0.126028 0.277265 0.366438
617 4 0.117493 0.292939 0.360209
374 4 0.132357 0.288465 0.349778
373 2 0.14972 0.299786 0.335795
602 4 0.0753577 0.370483 0.338761
549 4 0.079042 0.389528 0.338613
547 2 0.0854071 0.405128 0.357087
508 2 0.196671 0.364896 0.334902
509 4 0.206947 0.386925 0.34076
334 2 0.315226 0.392932 0.412807
335 4 0.324702 0.379528 0.393946
238 2 0.358111 0.384611 0.379321
239 4 0.371551 0.393689 0.36029
240 4 0.344672 0.375534 0.398352
587 4 0.383378 0.408825 0.366667
2537 4 0.498961 0.333075 0.344033
752 4 0.479018 0.395705 0.381353
561 4 0.472208 0.379722 0.392231
559 2 0.484388 0.374375 0.413403
751 2 0.487046 0.413244 0.365443
776 4 0.0638904 0.504092 0.341167
500 4 0.0616923 0.493375 0.359044
499 2 0.0731899 0.472137 0.36552
501 4 0.0846875 0.450899 0.371996
548 4 0.0917721 0.420729 0.375561
407 4 0.095602 0.43822 0.384153
406 2 0.109695 0.442384 0.404382
1544 4 0.217303 0.464078 0.391755
1556 4 0.2245 0.478248 0.379256
1543 2 0.202609 0.47206 0.410344
435 4 0.302294 0.432221 0.33745
5 3 0.257373 0.455191 0.345049
636 4 0.283101 0.490825 0.403484
1555 2 0.249029 0.481514 0.382842
1557 4 0.273557 0.484781 0.386428
586 2 0.3837 0.433685 0.364014
593 4 0.391103 0.472567 0.349133
588 4 0.384023 0.458545 0.361361
592 2 0.408532 0.488074 0.340137
713 4 0.441226 0.493809 0.337134
712 2 0.462365 0.480547 0.335571
714 4 0.483504 0.467285 0.334008
753 4 0.495075 0.430782 0.349533
117 3 0.489338 0.45091 0.352285
369 4 0.0723524 0.00267491 0.469744
963 4 0.313189 0.0317857 0.464109
432 4 0.30617 0.0454822 0.476231
430 2 0.320156 0.0487666 0.496695
961 2 0.325721 0.0189818 0.446668
962 4 0.338252 0.00617789 0.429227
1216 2 0.410325 0.0518329 0.478381
1217 4 0.404686 0.0371386 0.49781
1218 4 0.415964 0.0665272 0.458953
425 4 0.351906 0.997795 0.418111
260 4 0.0552929 0.158773 0.438093
459 4 0.0508867 0.152216 0.418186
467 4 0.390438 0.15281 0.422232
724 2 0.384672 0.119488 0.421207
725 4 0.373619 0.0998686 0.432073
259 2 0.0678448 0.180278 0.435819
261 4 0.0803968 0.201783 0.433545
687 4 0.0834361 0.21408 0.420034
1035 4 0.0791954 0.222053 0.436733
1033 2 0.0847212 0.243843 0.447681
466 2 0.400842 0.172715 0.433221
468 4 0.411247 0.192619 0.44421
411 4 0.389725 0.25306 0.467441
409 2 0.400771 0.231538 0.461119
410 4 0.411817 0.210016 0.454797
489 4 0.372843 0.248088 0.457313
575 4 0.427897 0.206117 0.465006
516 4 0.427213 0.202814 0.446255
574 2 0.445752 0.195501 0.478922
514 2 0.438045 0.210271 0.424989
576 4 0.463607 0.184884 0.492839
696 4 0.0859999 0.263427 0.477507
1034 4 0.0902471 0.265632 0.458628
1260 4 0.098376 0.277218 0.471594
1258 2 0.111336 0.297909 0.466201
1259 4 0.124296 0.3186 0.460807
9 3 0.137825 0.319451 0.439462
7 3 0.132894 0.33139 0.474758
488 4 0.328717 0.255291 0.434913
487 2 0.35078 0.251689 0.446113
266 4 0.37288 0.262798 0.469517
265 2 0.379598 0.285637 0.477161
267 4 0.386316 0.308476 0.484804
326 4 0.0684453 0.356962 0.470774
6 1 0.139172 0.337815 0.453581
327 4 0.114742 0.33951 0.46351
325 2 0.0915936 0.348236 0.467142
8 3 0.16099 0.345681 0.454286
10 3 0.125214 0.354265 0.446286
709 2 0.153308 0.400188 0.499874
336 4 0.305751 0.406336 0.431667
668 4 0.287362 0.406889 0.440835
882 4 0.365303 0.370724 0.490672
3308 4 0.481715 0.340805 0.492844
560 4 0.496568 0.369029 0.434574
3309 4 0.500001 0.361961 0.451386
3307 2 0.490858 0.351383 0.472115
680 4 0.0120388 0.444405 0.460194
1383 4 0.00990486 0.462817 0.469125
1381 2 0.0206064 0.485284 0.466694
679 2 0.996967 0.426988 0.450464
711 4 0.131219 0.410733 0.49477
382 2 0.130182 0.43808 0.459678
384 4 0.128257 0.420994 0.477831
408 4 0.123789 0.446548 0.424611
569 4 0.127616 0.464918 0.426084
383 4 0.132106 0.455167 0.441525
568 2 0.149361 0.477209 0.427202
1395 4 0.188468 0.499289 0.430264
570 4 0.171106 0.4895 0.42832
1545 4 0.187915 0.480042 0.428933
774 4 0.318639 0.452265 0.447374
635 4 0.305289 0.46295 0.438576
634 2 0.294195 0.476887 0.42103
669 4 0.301202 0.4526 0.455655
667 2 0.294282 0.429745 0.448245
773 4 0.363236 0.467452 0.464143
772 2 0.340938 0.459858 0.455759
2430 4 0.162966 0.00514716 0.52094
341 4 0.179316 0.0164142 0.519641
1152 4 0.198115 0.0768287 0.520579
342 4 0.200209 0.0606009 0.50907
340 2 0.189763 0.0385076 0.514356
1150 2 0.214596 0.0830669 0.538316
1032 4 0.247884 0.0848057 0.563572
1030 2 0.249907 0.0660928 0.580032
431 4 0.334141 0.0520509 0.51716
842 4 0.398264 0.0289766 0.514725
841 2 0.374487 0.0359809 0.518005
843 4 0.35071 0.0429853 0.521286
1058 4 0.113582 0.0965515 0.512739
1270 2 0.0972476 0.149696 0.570486
1271 4 0.110512 0.128516 0.571275
1057 2 0.113325 0.105037 0.536258
1059 4 0.113067 0.113522 0.559776
1155 4 0.128085 0.12091 0.571242
939 4 0.115108 0.109838 0.578123
1153 2 0.147895 0.129802 0.583638
1151 4 0.231078 0.0893051 0.556054
1180 2 0.235691 0.123365 0.577205
1181 4 0.241901 0.103717 0.563042
900 4 0.232513 0.161953 0.586069
1199 4 0.0230864 0.210661 0.573941
879 4 0.0700861 0.17494 0.557017
1198 2 0.0030272 0.217535 0.560692
877 2 0.0540404 0.189031 0.570023
695 4 0.081301 0.250529 0.525593
1272 4 0.0839827 0.170876 0.569697
651 4 0.22973 0.229518 0.508512
858 4 0.221381 0.247353 0.511465
898 2 0.238464 0.179357 0.569133
649 2 0.23754 0.209279 0.520945
650 4 0.245349 0.18904 0.533378
899 4 0.244415 0.196762 0.552196
2455 2 0.487317 0.246695 0.506461
694 2 0.0836505 0.256978 0.50155
984 4 0.0138417 0.299264 0.573161
856 2 0.204054 0.258792 0.525397
857 4 0.186727 0.270231 0.539329
947 4 0.190593 0.265329 0.557406
946 2 0.1747 0.279483 0.570532
798 4 0.204562 0.269266 0.571758
796 2 0.228741 0.274199 0.575785
797 4 0.25292 0.279132 0.579812
1011 4 0.471403 0.324601 0.500223
2457 4 0.46784 0.260255 0.51433
1010 4 0.465055 0.275024 0.501818
1009 2 0.468229 0.299813 0.501021
502 2 0.197518 0.362794 0.509863
503 4 0.199405 0.338089 0.513219
504 4 0.195632 0.3875 0.506507
710 4 0.175398 0.389644 0.504978
1189 2 0.232781 0.368129 0.580301
803 4 0.26044 0.364719 0.557199
804 4 0.266431 0.345505 0.511421
802 2 0.263436 0.355112 0.53431
1190 4 0.251361 0.354712 0.570304
1238 4 0.267511 0.362151 0.576431
792 4 0.262823 0.341572 0.577366
929 4 0.352817 0.379292 0.550498
881 4 0.340375 0.377678 0.533461
880 2 0.352839 0.374201 0.512066
928 2 0.342839 0.369634 0.571291
539 4 0.101277 0.432614 0.590449
538 2 0.104885 0.457333 0.59152
2244 4 0.112284 0.496352 0.581449
1081 2 0.0725867 0.060595 0.63181
1082 4 0.0779111 0.0541999 0.655388
1083 4 0.0672622 0.0669901 0.608231
938 4 0.0838333 0.0789101 0.601915
951 4 0.248381 0.0287163 0.602352
824 4 0.168999 0.00415027 0.675017
1031 4 0.251929 0.0473799 0.596491
949 2 0.26163 0.0187354 0.621061
950 4 0.27488 0.00875455 0.63977
3008 4 0.496931 0.015556 0.598395
809 4 0.484288 0.020703 0.613152
808 2 0.475401 0.0370583 0.629847
810 4 0.466514 0.0534135 0.646541
45 3 0.463996 0.0764246 0.641977
41 1 0.457618 0.0716356 0.663309
1127 4 0.0524412 0.0801801 0.606954
1126 2 0.0291048 0.0854761 0.599706
1128 4 0.00576848 0.0907721 0.592457
937 2 0.0994706 0.0943741 0.590019
1154 4 0.167704 0.138694 0.596035
1182 4 0.229481 0.143013 0.591367
1221 4 0.173793 0.158127 0.598058
1219 2 0.198702 0.157865 0.600209
1211 4 0.236848 0.151383 0.669884
1210 2 0.233188 0.154531 0.645351
1220 4 0.223612 0.157602 0.602359
1212 4 0.229529 0.15768 0.620818
1192 2 0.324894 0.166044 0.636309
1193 4 0.331541 0.165817 0.612206
3424 2 0.494333 0.10424 0.646381
3425 4 0.477083 0.0893959 0.656737
878 4 0.0379947 0.203122 0.583029
1244 4 0.0364534 0.207356 0.602616
1243 2 0.03615 0.23152 0.609033
1194 4 0.318247 0.166271 0.660412
3123 4 0.485633 0.234466 0.643234
983 4 0.0228652 0.271923 0.614048
1245 4 0.0358466 0.255684 0.61545
982 2 0.0183534 0.285594 0.593604
3263 4 0.04164 0.322508 0.623905
948 4 0.158808 0.293637 0.583657
1135 2 0.16738 0.322157 0.616409
1136 4 0.161977 0.308441 0.596213
820 2 0.159366 0.310414 0.666858
822 4 0.169604 0.329514 0.654386
791 4 0.267231 0.29232 0.584816
790 2 0.265027 0.316946 0.581091
872 4 0.328257 0.291408 0.598991
871 2 0.350735 0.301597 0.603006
813 4 0.386499 0.324191 0.614282
873 4 0.373212 0.311785 0.607021
953 4 0.479102 0.333145 0.619352
954 4 0.451356 0.295607 0.601415
952 2 0.465229 0.314376 0.610383
3262 2 0.0509542 0.345467 0.627266
1041 4 0.066636 0.382562 0.64361
3264 4 0.0602684 0.368426 0.630627
3240 4 0.0484746 0.381632 0.637062
3238 2 0.0262523 0.391498 0.642893
3239 4 0.00402996 0.401365 0.648724
1039 2 0.0914134 0.385212 0.64155
1040 4 0.116191 0.387861 0.639491
993 4 0.125119 0.376139 0.652717
991 2 0.145571 0.362089 0.649642
992 4 0.166024 0.348038 0.646568
1137 4 0.172782 0.335874 0.636604
1064 4 0.180995 0.345128 0.651049
897 4 0.179896 0.354552 0.634411
896 4 0.201664 0.386413 0.602603
895 2 0.19078 0.370483 0.618507
1172 4 0.219071 0.390645 0.608353
1191 4 0.2142 0.381545 0.590298
1239 4 0.314141 0.36688 0.593866
1237 2 0.290826 0.364515 0.585149
930 4 0.332862 0.359976 0.592084
811 2 0.382589 0.345673 0.626466
1204 2 0.375163 0.389671 0.664269
1206 4 0.378188 0.387396 0.639554
927 4 0.389407 0.378638 0.62751
812 4 0.37868 0.367155 0.638649
925 2 0.399408 0.39556 0.612056
926 4 0.409408 0.412482 0.596603
906 4 0.490335 0.330154 0.603943
1159 2 0.151432 0.491491 0.596102
540 4 0.108493 0.482052 0.59259
1160 4 0.127209 0.488797 0.590523
1171 2 0.223309 0.415267 0.607367
1186 2 0.205318 0.475765 0.604024
1173 4 0.227547 0.439889 0.60638
1187 4 0.215461 0.454621 0.612696
1188 4 0.195175 0.496909 0.595351
1911 4 0.444056 0.485147 0.603596
1002 4 0.428322 0.420595 0.59411
1001 4 0.445859 0.467068 0.599897
1000 2 0.43709 0.443832 0.597003
1269 4 0.45139 0.47466 0.618073
1267 2 0.458745 0.478891 0.641593
1268 4 0.466101 0.483122 0.665113
943 2 0.0375198 0.0155661 0.670196
944 4 0.0509325 0.036619 0.67163
1076 4 0.0630612 0.0519673 0.668515
1075 2 0.0574808 0.0664422 0.688124
945 4 0.0241072 0.994513 0.668762
864 4 0.0529047 0.0787125 0.726685
1077 4 0.0519005 0.0809172 0.707734
862 2 0.0360302 0.0723124 0.74399
825 4 0.179759 0.0529823 0.674404
823 2 0.174379 0.0285663 0.67471
1283 4 0.164207 0.0656085 0.678301
1149 4 0.225196 0.0559389 0.728405
1147 2 0.241268 0.0655284 0.711824
1148 4 0.257339 0.0751178 0.695243
1004 4 0.33335 0.0703504 0.731375
1003 2 0.329794 0.0889995 0.715104
43 3 0.435256 0.0770608 0.666293
42 3 0.46039 0.0491293 0.667174
1163 4 0.471538 0.059665 0.681987
1162 2 0.486748 0.0501132 0.699382
2321 4 0.496667 0.0285928 0.731108
851 4 0.0592372 0.0985889 0.701627
850 2 0.0595405 0.123306 0.697862
852 4 0.0598439 0.148022 0.694097
1107 4 0.066797 0.0859987 0.714218
1105 2 0.0860063 0.0877709 0.730125
1106 4 0.105216 0.0895431 0.746032
1282 2 0.169657 0.0898784 0.680841
1284 4 0.175106 0.114148 0.68338
909 4 0.17609 0.133683 0.690246
907 2 0.200345 0.138122 0.686105
908 4 0.224601 0.14256 0.681964
1227 4 0.244504 0.140575 0.680723
1225 2 0.249569 0.116276 0.683739
886 2 0.280406 0.161245 0.674063
888 4 0.256373 0.154406 0.674953
1226 4 0.254634 0.0919776 0.686756
829 2 0.325735 0.139683 0.694011
830 4 0.322167 0.157241 0.676571
831 4 0.329304 0.122126 0.711452
1005 4 0.326238 0.107649 0.698833
44 3 0.470722 0.0834976 0.678342
1146 4 0.490708 0.166698 0.707426
1178 4 0.999946 0.23971 0.727845
887 4 0.30444 0.168084 0.673173
977 4 0.300551 0.218893 0.741388
976 2 0.322278 0.219431 0.729027
978 4 0.344006 0.219969 0.716667
1025 4 0.401456 0.177887 0.68481
1020 4 0.359387 0.23205 0.716493
1024 2 0.417657 0.185686 0.702185
1142 4 0.442301 0.193368 0.738962
1144 2 0.471498 0.180532 0.715476
1262 4 0.43921 0.209099 0.728547
1026 4 0.433857 0.193486 0.71956
1261 2 0.445199 0.232942 0.733109
1145 4 0.452289 0.194365 0.723527
1177 2 0.0151798 0.254859 0.715053
1179 4 0.0304133 0.270008 0.702261
1130 4 0.143584 0.252589 0.744502
1208 4 0.137415 0.257983 0.727164
1074 4 0.125236 0.261738 0.741178
1207 2 0.14978 0.271526 0.710167
821 4 0.149129 0.291313 0.679331
1209 4 0.162146 0.285069 0.693171
805 2 0.23036 0.326134 0.710283
806 4 0.246201 0.30812 0.717337
1018 2 0.371867 0.243651 0.734791
1263 4 0.451188 0.256785 0.73767
893 4 0.00305293 0.351273 0.730092
892 2 0.0241026 0.363805 0.735096
1279 2 0.0621524 0.412749 0.744437
1280 4 0.0601444 0.388698 0.737902
816 4 0.0635136 0.369849 0.741916
894 4 0.0451523 0.376337 0.740099
814 2 0.0850191 0.359597 0.734328
815 4 0.106525 0.349345 0.726739
942 4 0.125552 0.351847 0.723405
940 2 0.146913 0.357486 0.735114
941 4 0.168273 0.363125 0.746823
1063 2 0.195641 0.352201 0.67004
1065 4 0.210287 0.359273 0.689031
807 4 0.21452 0.344148 0.70323
1028 4 0.219759 0.375792 0.693371
1066 2 0.198833 0.370165 0.725124
1068 4 0.214651 0.362912 0.707169
1027 2 0.235008 0.393611 0.684701
1067 4 0.183016 0.377418 0.743078
1029 4 0.250256 0.411429 0.676032
1205 4 0.372139 0.391945 0.688985
1281 4 0.0641605 0.4368 0.750972
1983 4 0.0791034 0.437455 0.737777
1981 2 0.0824557 0.462213 0.738767
1982 4 0.085808 0.486971 0.739757
1176 4 0.176127 0.486614 0.731483
1175 4 0.162771 0.483119 0.683419
1174 2 0.169449 0.484866 0.707451
1140 4 0.251962 0.431339 0.668363
1138 2 0.268712 0.449178 0.673501
1139 4 0.285462 0.467016 0.678639
1987 2 0.289447 0.45359 0.728339
1229 4 0.299187 0.471851 0.690666
1989 4 0.294231 0.468606 0.708927
2028 4 0.286442 0.481678 0.69524
1228 2 0.323651 0.472159 0.685511
1230 4 0.348116 0.472466 0.680356
1101 4 0.469375 0.477985 0.684264
1099 2 0.453209 0.471157 0.702075
1100 4 0.437044 0.464328 0.719885
2168 4 0.473952 0.495084 0.677964
2989 2 0.0185577 0.0279459 0.777988
2990 4 0.0118212 0.0508225 0.770474
2991 4 0.0252943 0.00506927 0.785502
863 4 0.0191558 0.0659123 0.761296
833 4 0.01126 0.070698 0.777844
2049 4 0.0938687 0.0202407 0.77323
1202 4 0.098091 0.0321208 0.789316
1201 2 0.105833 0.0557229 0.786456
2047 2 0.107951 0.000149823 0.768411
1203 4 0.113576 0.079325 0.783597
1085 4 0.322466 0.0702039 0.807621
1084 2 0.305464 0.086518 0.799258
1050 4 0.369469 0.00817781 0.772305
960 4 0.331535 0.0763162 0.823645
819 4 0.342462 0.072751 0.808138
817 2 0.346421 0.0491656 0.800843
818 4 0.35038 0.0255801 0.793547
974 4 0.35851 0.00677883 0.790064
2322 4 0.49551 0.0519523 0.775309
845 4 0.497602 0.0706752 0.781716
844 2 0.496016 0.0725743 0.806597
846 4 0.49443 0.0744735 0.831478
2320 2 0.496089 0.0402726 0.753208
832 2 0.0166213 0.0868406 0.79617
834 4 0.0219827 0.102983 0.814496
1125 4 0.0286877 0.116509 0.826771
32 3 0.129433 0.088117 0.794967
911 4 0.120813 0.106098 0.804664
34 3 0.109998 0.0960975 0.763803
31 1 0.125175 0.104387 0.779273
35 3 0.116485 0.122712 0.789634