ITEM: TIMESTEP
1540000
ITEM: NUMBER OF ATOMS
4590
ITEM: BOX BOUNDS pp pp pp
-9.9985700000000008e+00 9.9985700000000008e+00
-9.9985700000000008e+00 9.9985700000000008e+00
-9.9985700000000008e+00 9.9985700000000008e+00
ITEM: ATOMS id type xs ys zs
1666 2 0.0706679 0.0663651 0.0736202
1668 4 0.0599317 0.057374 0.0529061
747 4 0.462344 0.0636615 0.0185256
2974 2 0.476875 0.0237782 0.0216672
2976 4 0.480084 0.999045 0.0234445
2975 4 0.473665 0.0485112 0.01989
986 4 0.460259 0.0511566 0.00429852
297 4 0.333268 0.0805213 0.0407902
295 2 0.34932 0.0875087 0.0229388
296 4 0.365373 0.094496 0.00508736
557 4 0.381515 0.102879 0.00756905
556 2 0.404916 0.10903 0.0138721
771 4 0.408987 0.150463 0.0139278
827 4 0.365652 0.112772 0.999336
769 2 0.396004 0.1625 0.0315838
745 2 0.454431 0.0869005 0.0232703
558 4 0.428318 0.115181 0.0201751
746 4 0.446518 0.110139 0.0280149
566 4 0.158448 0.19263 0.0347232
565 2 0.176188 0.187522 0.0178589
2264 4 0.258442 0.161912 0.0219686
360 4 0.320367 0.190313 0.035939
358 2 0.345203 0.189097 0.0385636
770 4 0.383021 0.174537 0.0492399
359 4 0.370038 0.187881 0.0411882
664 2 0.389672 0.214002 0.066699
665 4 0.384007 0.193609 0.0533863
666 4 0.395336 0.234395 0.0800117
555 4 0.07733 0.282724 0.0495733
553 2 0.0837613 0.278344 0.0258113
287 4 0.156782 0.311238 0.0371534
292 2 0.163693 0.276813 0.0154351
507 4 0.160061 0.29416 0.0461361
293 4 0.168016 0.297439 0.0288917
505 2 0.172755 0.294334 0.0676768
481 2 0.227877 0.288805 0.0736862
483 4 0.204397 0.290435 0.0821253
573 4 0.258908 0.288262 0.0466375
482 4 0.251357 0.287175 0.065247
571 2 0.265524 0.274762 0.0266586
572 4 0.272139 0.261262 0.00667969
322 2 0.397278 0.270364 0.0599735
1069 2 0.395888 0.298327 0.0128549
324 4 0.404466 0.277593 0.0371425
1070 4 0.41443 0.283485 0.0206709
741 4 0.355124 0.323443 0.0335029
957 4 0.363496 0.313128 0.0176295
1071 4 0.377347 0.313169 0.00503891
739 2 0.366449 0.32801 0.0553217
740 4 0.377775 0.332577 0.0771405
671 4 0.451466 0.312394 0.0519856
280 2 0.449105 0.288266 0.0288835
281 4 0.465776 0.300672 0.0427885
282 4 0.432434 0.275861 0.0149784
670 2 0.442101 0.318918 0.074232
286 2 0.159706 0.334807 0.0293355
288 4 0.162631 0.358376 0.0215175
454 2 0.15353 0.385823 0.0641628
455 4 0.131633 0.373958 0.0663845
552 4 0.129205 0.354103 0.0652013
456 4 0.175426 0.397688 0.061941
250 2 0.27875 0.407071 0.045226
251 4 0.280566 0.391564 0.0256965
1290 4 0.280681 0.397768 0.00581588
252 4 0.276935 0.422579 0.0647556
495 4 0.399436 0.365092 0.0685638
493 2 0.390985 0.388434 0.0655834
14 3 0.395746 0.347734 0.0771241
494 4 0.382533 0.411777 0.0626029
330 4 0.025508 0.444947 0.0377593
245 4 0.209386 0.425327 0.0397933
626 4 0.20394 0.444491 0.043764
625 2 0.186272 0.450129 0.0605338
244 2 0.229101 0.432042 0.0259585
627 4 0.168604 0.455767 0.0773035
1778 4 0.192999 0.491961 0.998735
246 4 0.248816 0.438757 0.0121236
609 4 0.279936 0.424965 0.0846415
1672 2 0.389824 0.468057 0.0592726
660 4 0.377857 0.427421 0.0745598
1673 4 0.366598 0.468759 0.0685042
1674 4 0.41305 0.467355 0.050041
853 2 0.402603 0.437563 0.00270479
854 4 0.416029 0.447489 0.0213165
563 4 0.474032 0.453179 0.0473441
228 4 0.493379 0.449929 0.0423126
562 2 0.449567 0.454574 0.0423733
564 4 0.425102 0.45597 0.0374025
18 3 0.0615415 0.0466764 0.14764
16 1 0.0668722 0.046065 0.170215
1667 4 0.0814041 0.0753561 0.0943344
701 4 0.0806759 0.0715767 0.113496
1474 2 0.279246 0.00363369 0.0840451
1475 4 0.271883 0.0274594 0.085864
492 4 0.276929 0.0414968 0.0989523
490 2 0.281568 0.0655627 0.103901
2723 4 0.421969 0.030543 0.146119
2722 2 0.446123 0.036858 0.147495
2724 4 0.470277 0.0431729 0.14887
1760 4 0.485642 0.0313497 0.144604
1759 2 0.495775 0.0201008 0.124705
2744 4 0.481577 0.0364145 0.162765
2469 4 0.49697 0.997895 0.0911498
700 2 0.0751996 0.090788 0.128533
702 4 0.0697234 0.109999 0.143571
476 4 0.0864733 0.119798 0.142754
475 2 0.0984738 0.132589 0.160574
491 4 0.286207 0.0896286 0.10885
628 2 0.361003 0.138108 0.143393
312 4 0.364708 0.104526 0.15354
629 4 0.376603 0.120186 0.151181
630 4 0.345403 0.156029 0.135605
339 4 0.0825455 0.226386 0.133102
337 2 0.0766412 0.238498 0.154164
738 4 0.233685 0.20597 0.0903522
736 2 0.242434 0.199557 0.11288
737 4 0.251183 0.193144 0.135408
461 4 0.3106 0.239889 0.110712
460 2 0.331939 0.234688 0.122662
354 4 0.291889 0.245748 0.109735
352 2 0.281061 0.24721 0.132225
462 4 0.353278 0.229488 0.134611
254 4 0.3613 0.166748 0.139315
255 4 0.366623 0.216465 0.138558
253 2 0.363961 0.191607 0.138937
765 4 0.366138 0.230401 0.151188
624 4 0.371284 0.235376 0.134279
622 2 0.38481 0.242101 0.114354
623 4 0.398336 0.248825 0.0944291
551 4 0.0993702 0.329669 0.0970385
506 4 0.18545 0.294507 0.0892175
537 4 0.186284 0.30125 0.10916
535 2 0.195307 0.324564 0.109612
353 4 0.270232 0.248672 0.154714
302 4 0.329552 0.307731 0.13879
755 4 0.257585 0.262018 0.162104
387 4 0.323355 0.317377 0.121744
301 2 0.322714 0.313 0.162256
385 2 0.342529 0.322688 0.1066
323 4 0.390089 0.263136 0.0828044
15 3 0.37702 0.323794 0.0993475
386 4 0.361703 0.327999 0.0914558
528 4 0.481237 0.261142 0.104702
518 4 0.497745 0.270605 0.099408
526 2 0.460918 0.274693 0.110058
527 4 0.440599 0.288244 0.115414
672 4 0.432735 0.325441 0.0964785
12 3 0.41428 0.325274 0.100887
550 2 0.114288 0.341886 0.0811199
536 4 0.204331 0.347878 0.110064
291 4 0.203821 0.412754 0.142866
11 1 0.395078 0.337603 0.0979888
13 3 0.393958 0.353759 0.114606
595 2 0.483251 0.394988 0.137626
596 4 0.502078 0.395564 0.121182
597 4 0.464424 0.394413 0.154069
1791 4 0.0458302 0.491245 0.138702
1466 4 0.0446912 0.485784 0.158619
417 4 0.141215 0.431341 0.136864
289 2 0.227678 0.418047 0.137577
416 4 0.18973 0.425462 0.147466
1440 4 0.176688 0.49352 0.0947437
415 2 0.165473 0.428401 0.142165
1438 2 0.187898 0.499763 0.116203
1439 4 0.199109 0.506007 0.137663
607 2 0.30287 0.423754 0.0945285
290 4 0.251536 0.423339 0.132288
608 4 0.325804 0.422544 0.104416
768 4 0.266596 0.429497 0.143725
767 4 0.266668 0.478284 0.154706
766 2 0.266632 0.45389 0.149215
638 4 0.261935 0.493623 0.143918
658 2 0.360897 0.427389 0.0929316
659 4 0.343936 0.427356 0.111304
17 3 0.053036 0.0309848 0.180717
19 3 0.0636928 0.0670126 0.179675
2480 4 0.0330112 0.0299623 0.180017
1422 4 0.0322107 0.0159462 0.194408
2479 2 0.0165965 0.0444887 0.192047
20 3 0.0885193 0.0395248 0.172913
380 4 0.0124198 0.0741367 0.203519
578 4 0.0948161 0.0521342 0.186628
675 4 0.105755 0.000855459 0.245656
674 4 0.143111 0.0174634 0.216857
673 2 0.124433 0.00915941 0.231256
689 4 0.162155 0.0114727 0.210235
577 2 0.117263 0.0589352 0.195292
579 4 0.139709 0.0657363 0.203956
450 4 0.14582 0.0832867 0.196607
654 4 0.263899 0.0141613 0.181086
652 2 0.273909 0.0145277 0.203995
653 4 0.283918 0.014894 0.226905
25 3 0.329968 0.047568 0.25575
311 4 0.375116 0.0714941 0.189614
758 4 0.369269 0.0564559 0.200775
759 4 0.348068 0.0583446 0.246026
757 2 0.358669 0.0574003 0.2234
2745 4 0.499072 0.0255239 0.208329
2743 2 0.490325 0.0309692 0.185547
511 2 0.0195228 0.150283 0.220518
513 4 0.038427 0.15822 0.234829
393 4 0.0568094 0.164658 0.23798
391 2 0.075715 0.168092 0.253979
448 2 0.164446 0.0998889 0.194993
477 4 0.110474 0.145381 0.178394
449 4 0.183073 0.116491 0.193379
237 4 0.237727 0.141712 0.170945
691 2 0.220366 0.115367 0.244781
693 4 0.215416 0.118369 0.220457
236 4 0.193022 0.133592 0.191831
235 2 0.215374 0.137652 0.181388
582 4 0.256864 0.135759 0.174487
581 4 0.291424 0.0996163 0.174396
580 2 0.274144 0.117688 0.174441
27 3 0.319026 0.160589 0.236256
310 2 0.369912 0.0880101 0.171577
521 4 0.493651 0.151733 0.220935
332 4 0.479418 0.138819 0.223352
762 4 0.476525 0.156079 0.230806
760 2 0.456395 0.161562 0.244587
331 2 0.491809 0.118569 0.231199
394 2 0.0184049 0.234592 0.236878
395 4 0.0395183 0.221413 0.234488
546 4 0.131207 0.20112 0.256547
277 2 0.245983 0.233026 0.175118
279 4 0.228168 0.215596 0.177119
285 4 0.323738 0.245525 0.198952
763 2 0.354669 0.236121 0.172657
764 4 0.3432 0.241841 0.194126
648 4 0.0863041 0.318535 0.187672
338 4 0.070737 0.25061 0.175226
363 4 0.066886 0.26305 0.190479
361 2 0.0822447 0.278211 0.203105
749 4 0.084639 0.304241 0.225808
748 2 0.0895772 0.323484 0.24099
370 2 0.139206 0.299422 0.21861
372 4 0.116818 0.291381 0.21091
362 4 0.0976035 0.293372 0.215732
371 4 0.161594 0.307463 0.22631
284 4 0.282733 0.247399 0.17039
283 2 0.303235 0.246462 0.184671
278 4 0.263798 0.250456 0.173117
754 2 0.260986 0.285473 0.170072
756 4 0.264387 0.308928 0.178039
612 4 0.26223 0.315722 0.197346
610 2 0.261607 0.311996 0.222062
307 2 0.318783 0.290141 0.217836
308 4 0.325401 0.302176 0.196943
303 4 0.315876 0.31827 0.185722
309 4 0.312165 0.278105 0.238729
729 4 0.312058 0.336416 0.185122
646 2 0.0664277 0.329316 0.177
647 4 0.0465514 0.340097 0.166328
734 4 0.165317 0.334964 0.244495
727 2 0.300661 0.34845 0.203842
728 4 0.289263 0.360484 0.222563
445 2 0.408043 0.381902 0.231878
447 4 0.427232 0.386336 0.216474
644 4 0.430592 0.382408 0.1967
643 2 0.452072 0.387402 0.184918
645 4 0.473552 0.392397 0.173135
1465 2 0.040341 0.475162 0.180832
1467 4 0.0359908 0.464539 0.203045
1756 2 0.104119 0.467151 0.2563
1757 4 0.113668 0.444177 0.25382
231 4 0.459729 0.479058 0.233642
229 2 0.457226 0.498756 0.218448
234 4 0.00424243 0.0344575 0.298286
2756 4 0.00560163 0.0469181 0.314749
232 2 0.0288362 0.0325084 0.294221
233 4 0.05343 0.0305593 0.290156
1404 4 0.0649206 0.0174359 0.298079
1402 2 0.0788933 0.0117742 0.278131
316 2 0.0722886 0.0521715 0.320062
317 4 0.0652049 0.0318013 0.307411
428 4 0.060275 0.0136822 0.316078
427 2 0.0489623 0.00282427 0.335554
1403 4 0.092866 0.00611254 0.258184
318 4 0.0793723 0.0725417 0.332714
24 3 0.323666 0.0789153 0.275632
22 3 0.358097 0.0710742 0.262759
21 1 0.338755 0.0618685 0.271143
23 3 0.343766 0.0503793 0.29067
351 4 0.39859 0.0592858 0.262642
349 2 0.3928 0.078656 0.277354
479 4 0.447499 0.031173 0.299614
478 2 0.433225 0.0419567 0.282145
2664 4 0.465537 0.0301919 0.295013
480 4 0.418952 0.0527404 0.264676
1428 4 0.45319 0.0176283 0.306014
258 4 0.443646 0.0266029 0.319524
2662 2 0.490001 0.0347742 0.292634
600 4 0.131292 0.125013 0.339463
692 4 0.225316 0.112364 0.269105
721 2 0.23543 0.122171 0.297787
722 4 0.23305 0.11647 0.322015
723 4 0.237811 0.127872 0.273559
26 1 0.325015 0.155095 0.257776
28 3 0.327901 0.132111 0.259123
30 3 0.30856 0.16171 0.272063
632 4 0.382371 0.107179 0.274014
350 4 0.387009 0.0980261 0.292067
631 2 0.365268 0.124803 0.26932
707 4 0.354428 0.156913 0.276315
633 4 0.348165 0.142428 0.264627
761 4 0.436265 0.167045 0.258367
392 4 0.0946206 0.171525 0.269978
544 2 0.149835 0.216983 0.261698
545 4 0.168464 0.232845 0.266848
402 4 0.187468 0.233961 0.274467
376 2 0.267628 0.251211 0.323501
706 2 0.363112 0.175688 0.29036
29 3 0.344871 0.165892 0.263025
708 4 0.371796 0.194463 0.304405
444 4 0.995716 0.296316 0.29037
390 4 0.0918401 0.26655 0.334003
400 2 0.192996 0.257228 0.281766
401 4 0.198525 0.280494 0.289066
676 2 0.186098 0.302307 0.310624
345 4 0.210782 0.293521 0.281057
677 4 0.198053 0.301347 0.288685
343 2 0.232771 0.293136 0.26916
735 4 0.198791 0.30953 0.271575
344 4 0.25476 0.292752 0.257264
733 2 0.182054 0.322247 0.258035
611 4 0.260985 0.308271 0.246779
496 2 0.299956 0.273395 0.279859
497 4 0.286774 0.270449 0.3009
377 4 0.27356 0.255194 0.29954
498 4 0.313137 0.27634 0.258817
543 4 0.394471 0.328736 0.311564
541 2 0.40549 0.311462 0.325894
420 4 0.426093 0.276967 0.334548
365 4 0.0307879 0.372275 0.295523
601 2 0.0565114 0.375417 0.320631
603 4 0.047285 0.361942 0.301698
602 4 0.0657377 0.388893 0.339564
364 2 0.00619299 0.371289 0.291131
549 4 0.0762172 0.400613 0.327717
750 4 0.0945153 0.342727 0.256173
299 4 0.157275 0.343217 0.261335
298 2 0.133227 0.350047 0.260875
300 4 0.109178 0.356878 0.260416
433 2 0.298619 0.371978 0.305536
435 4 0.277718 0.37362 0.29191
434 4 0.319519 0.370336 0.319161
614 4 0.333118 0.356575 0.321694
446 4 0.388854 0.377468 0.247282
615 4 0.377369 0.333291 0.321033
613 2 0.355244 0.344933 0.321364
2537 4 0.490648 0.335607 0.326869
776 4 0.0704447 0.494981 0.321877
1758 4 0.0945693 0.490126 0.258781
775 2 0.0824255 0.505918 0.30285
412 2 0.217254 0.489658 0.29396
1435 2 0.241143 0.455894 0.337827
1436 4 0.219893 0.458254 0.324864
413 4 0.214891 0.472542 0.312033
5 3 0.293825 0.487484 0.322488
3 3 0.309893 0.453635 0.318784
438 4 0.323086 0.456988 0.336658
437 4 0.366758 0.434782 0.346675
436 2 0.344922 0.445885 0.341666
119 3 0.5012 0.457946 0.316426
713 4 0.437595 0.480046 0.33262
714 4 0.485248 0.465048 0.330391
712 2 0.461422 0.472547 0.331505
367 2 0.0684075 0.0139899 0.412514
1781 4 0.102781 0.0224848 0.394596
368 4 0.0927423 0.01131 0.407433
732 4 0.0951463 0.0775456 0.342317
730 2 0.114636 0.0843208 0.356439
606 4 0.148996 0.0815692 0.382391
1780 2 0.120459 0.00577325 0.388818
604 2 0.166434 0.0731907 0.366552
605 4 0.183871 0.0648121 0.350712
248 4 0.202907 0.0699409 0.34322
1700 4 0.327544 0.061626 0.359761
1701 4 0.318379 0.0238478 0.391218
1699 2 0.322961 0.0427369 0.37549
425 4 0.324588 0.0244723 0.411355
441 4 0.306676 0.0228527 0.406136
699 4 0.345876 0.0598532 0.34922
697 2 0.367589 0.0477379 0.346589
698 4 0.389303 0.0356227 0.343958
257 4 0.404895 0.0254359 0.35111
724 2 0.410748 0.0766064 0.412956
256 2 0.424271 0.0260194 0.335317
2584 2 0.0107589 0.119392 0.3528
397 2 0.061911 0.10278 0.349327
398 4 0.043787 0.114468 0.361979
2586 4 0.0302844 0.13014 0.364131
458 4 0.0294523 0.148801 0.367411
457 2 0.0379188 0.161248 0.387375
399 4 0.080035 0.0910916 0.336674
731 4 0.134125 0.091096 0.370562
598 2 0.136015 0.148245 0.347409
599 4 0.140737 0.171477 0.355355
249 4 0.227869 0.113173 0.340288
247 2 0.215388 0.0915571 0.341754
683 4 0.232897 0.112047 0.407617
404 4 0.238172 0.129211 0.337106
682 2 0.25115 0.10853 0.390895
403 2 0.250839 0.148757 0.3462
319 2 0.298081 0.138623 0.382953
684 4 0.269403 0.105013 0.374172
321 4 0.310111 0.160049 0.387578
320 4 0.286051 0.117197 0.378328
725 4 0.398199 0.0916807 0.397449
459 4 0.0463853 0.173696 0.407339
389 4 0.115578 0.242578 0.370915
686 4 0.131296 0.177465 0.370888
685 2 0.119481 0.191459 0.387911
275 4 0.158095 0.17594 0.345773
388 2 0.103709 0.254564 0.352459
687 4 0.107666 0.205452 0.404934
472 2 0.235223 0.196391 0.365487
474 4 0.213561 0.208834 0.364439
276 4 0.195714 0.206664 0.357671
274 2 0.176905 0.191302 0.351722
405 4 0.263506 0.168302 0.355293
473 4 0.256885 0.183948 0.366535
378 4 0.261696 0.247227 0.347462
717 4 0.417838 0.186038 0.344764
715 2 0.408773 0.19228 0.367214
466 2 0.382049 0.19726 0.414475
716 4 0.399708 0.198523 0.389665
467 4 0.380337 0.199785 0.389658
270 4 0.480175 0.21779 0.375672
452 4 0.468691 0.21521 0.393039
268 2 0.484363 0.232785 0.356107
2801 4 0.0059975 0.288303 0.383185
2800 2 0.00573612 0.300005 0.40528
618 4 0.0551117 0.319425 0.382924
347 4 0.0423187 0.329972 0.393717
616 2 0.0783452 0.311926 0.377525
617 4 0.101579 0.304427 0.372126
374 4 0.111082 0.2966 0.357336
373 2 0.135241 0.30054 0.35224
375 4 0.159401 0.304481 0.347145
678 4 0.174143 0.303268 0.332564
509 4 0.24007 0.302792 0.374598
508 2 0.24359 0.320985 0.357811
542 4 0.416509 0.294188 0.340225
419 4 0.474222 0.2634 0.335029
269 4 0.48855 0.24778 0.336542
418 2 0.450158 0.270184 0.334788
346 2 0.0391143 0.3543 0.388919
348 4 0.0359099 0.378629 0.384121
547 2 0.0834315 0.416574 0.345561
510 4 0.247111 0.339177 0.341023
668 4 0.315078 0.395262 0.402053
336 4 0.333188 0.385077 0.40138
334 2 0.355182 0.373702 0.404853
335 4 0.377176 0.362328 0.408326
240 4 0.391579 0.365431 0.421066
752 4 0.484808 0.406352 0.393889
561 4 0.482124 0.407784 0.412966
407 4 0.109549 0.435458 0.370816
548 4 0.0906458 0.432534 0.363404
406 2 0.113 0.449651 0.391109
408 4 0.116452 0.463845 0.411402
1557 4 0.282044 0.501093 0.406744
1437 4 0.262392 0.453534 0.350791
1 1 0.299054 0.468134 0.333299
4 3 0.279762 0.458183 0.341496
2 3 0.313055 0.472852 0.35093
593 4 0.403947 0.465747 0.38988
588 4 0.401248 0.456232 0.407947
117 3 0.490753 0.45779 0.35253
592 2 0.414519 0.469754 0.367579
751 2 0.49139 0.420908 0.374654
1742 4 0.427206 0.492514 0.344851
594 4 0.425092 0.473761 0.345277
369 4 0.0440726 0.0166697 0.417594
719 4 0.0381887 0.0253015 0.435059
718 2 0.0182321 0.0111092 0.440107
341 4 0.200437 0.0235679 0.503961
2430 4 0.183318 0.0125587 0.503248
962 4 0.309493 0.0333812 0.42203
961 2 0.298124 0.0471351 0.439545
963 4 0.286755 0.0608891 0.457059
432 4 0.298438 0.0753163 0.465221
430 2 0.310545 0.0784618 0.48687
424 2 0.346255 0.0274825 0.423465
426 4 0.367921 0.0304928 0.435576
726 4 0.423297 0.0615321 0.428463
260 4 0.0544295 0.172996 0.426541
642 4 0.503237 0.109692 0.450051
640 2 0.484258 0.122982 0.459451
641 4 0.465278 0.136271 0.468851
259 2 0.074247 0.187704 0.422529
261 4 0.0940645 0.202413 0.418518
1035 4 0.105585 0.218876 0.418208
1033 2 0.105203 0.240296 0.4311
1034 4 0.10482 0.261716 0.443993
858 4 0.213827 0.249558 0.496903
487 2 0.340536 0.253337 0.441697
489 4 0.343172 0.232627 0.455457
468 4 0.383761 0.194735 0.439292
514 2 0.418072 0.187636 0.454945
411 4 0.348788 0.224735 0.472462
516 4 0.398146 0.191169 0.469631
409 2 0.365219 0.207056 0.465933
410 4 0.381651 0.189377 0.459404
575 4 0.396892 0.191685 0.488748
266 4 0.349348 0.239264 0.486109
451 2 0.454564 0.208131 0.412417
515 4 0.437998 0.184102 0.44026
453 4 0.440438 0.201052 0.431794
2802 4 0.00547473 0.311708 0.427374
2847 4 0.0146141 0.315784 0.445085
695 4 0.0459835 0.249745 0.480678
694 2 0.0682883 0.260713 0.47796
1258 2 0.115425 0.291054 0.473251
1259 4 0.123276 0.311888 0.484631
9 3 0.120647 0.328073 0.472519
1260 4 0.107575 0.270221 0.461871
696 4 0.0905931 0.27168 0.475242
488 4 0.3379 0.274046 0.427936
265 2 0.357557 0.261969 0.492612
267 4 0.365766 0.284674 0.499115
584 4 0.503105 0.261048 0.486672
2457 4 0.493579 0.317285 0.502686
2455 2 0.493895 0.292294 0.503423
326 4 0.0455746 0.35819 0.455981
325 2 0.0700483 0.363188 0.457093
10 3 0.134246 0.35414 0.448998
6 1 0.125918 0.350516 0.469882
7 3 0.106817 0.363021 0.472697
327 4 0.094522 0.368186 0.458204
709 2 0.155918 0.402562 0.47624
8 3 0.141497 0.356922 0.48584
711 4 0.143288 0.416969 0.460175
384 4 0.122601 0.416826 0.461856
503 4 0.221888 0.356496 0.464616
504 4 0.188044 0.383932 0.489162
502 2 0.204966 0.370214 0.476889
710 4 0.168547 0.388154 0.492306
667 2 0.315291 0.411294 0.421239
238 2 0.407538 0.382266 0.430398
882 4 0.386442 0.373427 0.498978
587 4 0.417836 0.418953 0.436859
239 4 0.423496 0.399101 0.43973
1383 4 0.00217717 0.462847 0.462754
680 4 0.00516749 0.457596 0.443984
569 4 0.128792 0.467512 0.425063
382 2 0.121636 0.433099 0.442898
568 2 0.145718 0.483142 0.434778
383 4 0.120671 0.449373 0.423939
1545 4 0.18079 0.505699 0.440693
1543 2 0.204872 0.499067 0.439559
1544 4 0.228953 0.492436 0.438426
773 4 0.291458 0.415702 0.492291
669 4 0.315505 0.427326 0.440425
636 4 0.292225 0.486987 0.418714
635 4 0.311954 0.445877 0.439243
772 2 0.305226 0.426277 0.474296
774 4 0.318994 0.436852 0.456302
634 2 0.30209 0.466432 0.428979
586 2 0.409542 0.437592 0.422403
662 4 0.478491 0.504449 0.471393
661 2 0.478898 0.483974 0.457047
663 4 0.479304 0.463499 0.442702
342 4 0.19959 0.0711548 0.519307
340 2 0.200013 0.0473614 0.511634
2428 2 0.171391 0.00239407 0.522731
431 4 0.322652 0.0816073 0.50852
1031 4 0.286316 0.0640608 0.583117
1217 4 0.396429 0.0726389 0.511417
1216 2 0.415487 0.0577257 0.505128
3007 2 0.495901 0.0594424 0.577957
1218 4 0.434546 0.0428124 0.49884
470 4 0.0402034 0.169466 0.510142
1058 4 0.111721 0.104111 0.531862
1057 2 0.114977 0.112628 0.555143
1059 4 0.118233 0.121146 0.578425
1155 4 0.125902 0.13578 0.588534
1152 4 0.201261 0.083538 0.535816
1150 2 0.220786 0.0819542 0.551355
1151 4 0.240311 0.0803705 0.566894
1180 2 0.226466 0.154186 0.558864
1181 4 0.204739 0.142483 0.562886
1182 4 0.248192 0.165889 0.554842
842 4 0.386855 0.0894386 0.511698
843 4 0.337225 0.0955173 0.512506
841 2 0.36204 0.0924779 0.512102
576 4 0.404133 0.159651 0.526458
1199 4 0.0405863 0.218036 0.567334
1198 2 0.0158562 0.221724 0.56739
878 4 0.0560065 0.229527 0.571659
469 2 0.0222802 0.184452 0.51905
877 2 0.0778315 0.221384 0.580744
471 4 0.00435692 0.199438 0.527957
879 4 0.0996566 0.213242 0.589829
1272 4 0.0917839 0.1948 0.589693
900 4 0.263275 0.180367 0.555346
898 2 0.274476 0.194904 0.538364
650 4 0.280773 0.216854 0.504098
899 4 0.285678 0.209441 0.521382
649 2 0.292289 0.238443 0.509244
574 2 0.400513 0.175668 0.507603
982 2 0.0144583 0.316901 0.574808
798 4 0.233492 0.257221 0.57219
856 2 0.221935 0.258116 0.518953
947 4 0.219667 0.261285 0.556943
857 4 0.230042 0.266674 0.541003
946 2 0.200969 0.265593 0.572976
796 2 0.257321 0.256876 0.579756
797 4 0.281149 0.256531 0.587322
651 4 0.303806 0.260032 0.514389
792 4 0.317396 0.300431 0.578848
872 4 0.349237 0.286748 0.550182
871 2 0.367689 0.298969 0.561815
873 4 0.386141 0.311191 0.573449
811 2 0.407674 0.334703 0.581103
1010 4 0.498766 0.326488 0.518953
2456 4 0.494211 0.267303 0.504159
984 4 0.0147682 0.334599 0.557149
1189 2 0.23971 0.374068 0.575624
1190 4 0.252477 0.36338 0.556971
803 4 0.271627 0.357545 0.550878
804 4 0.284063 0.389069 0.514105
802 2 0.277845 0.373307 0.532492
930 4 0.330708 0.372473 0.576681
928 2 0.337835 0.388713 0.559056
1239 4 0.330141 0.353876 0.581573
929 4 0.344962 0.404953 0.541431
881 4 0.353693 0.402265 0.523402
880 2 0.370067 0.387846 0.51119
812 4 0.420694 0.353626 0.571225
1011 4 0.485717 0.374619 0.515236
1009 2 0.492241 0.350553 0.517095
927 4 0.440732 0.3556 0.56677
925 2 0.45204 0.377447 0.571244
1002 4 0.453666 0.416034 0.58218
3308 4 0.494095 0.387474 0.503291
538 2 0.0873942 0.459747 0.577888
540 4 0.0918506 0.483596 0.571844
1160 4 0.110069 0.483693 0.565342
1159 2 0.131579 0.492708 0.574354
539 4 0.0829377 0.435897 0.583931
1161 4 0.153089 0.501724 0.583366
1188 4 0.157015 0.48312 0.587994
1951 2 0.378275 0.500382 0.560558
1952 4 0.354561 0.498813 0.568326
890 4 0.339483 0.486991 0.567139
1909 2 0.429956 0.489651 0.582593
2114 4 0.99526 0.00769995 0.627864
1082 4 0.0635526 0.0665652 0.661528
1081 2 0.0616929 0.0798864 0.64045
825 4 0.161308 0.0553788 0.661029
823 2 0.167356 0.031703 0.655731
824 4 0.173403 0.00802719 0.650433
1030 2 0.262956 0.0727354 0.585173
951 4 0.296403 0.048458 0.591787
949 2 0.302008 0.0278899 0.604853
950 4 0.307612 0.0073218 0.617919
3008 4 0.491211 0.0497652 0.60053
809 4 0.481761 0.0352295 0.611136
808 2 0.471988 0.044661 0.63213
810 4 0.462215 0.0540925 0.653123
45 3 0.458542 0.0770639 0.653337
1128 4 0.00050412 0.106931 0.598315
1083 4 0.0598331 0.0932075 0.619372
1126 2 0.0252527 0.104197 0.600599
1127 4 0.0500012 0.101464 0.602883
938 4 0.0757281 0.105073 0.620292
1271 4 0.114172 0.150092 0.58887
939 4 0.108639 0.13066 0.592672
937 2 0.0921836 0.117866 0.606482
1153 2 0.150002 0.132052 0.594054
1032 4 0.239596 0.0814101 0.587229
1221 4 0.171009 0.1409 0.614897
1154 4 0.174102 0.128325 0.599574
886 2 0.294225 0.157863 0.647045
887 4 0.31633 0.153281 0.657796
888 4 0.272121 0.162445 0.636294
1211 4 0.256118 0.153747 0.646565
1194 4 0.336124 0.157431 0.654006
1192 2 0.360387 0.15179 0.651849
1193 4 0.384651 0.146149 0.649691
3426 4 0.495466 0.125859 0.643625
3424 2 0.484046 0.107273 0.655846
3425 4 0.472626 0.0886879 0.668066
1244 4 0.0528212 0.24784 0.575909
1270 2 0.102978 0.172446 0.589282
1212 4 0.211209 0.173337 0.656569
1219 2 0.185476 0.157043 0.62736
1220 4 0.199942 0.173185 0.639822
1210 2 0.233664 0.163542 0.651567
1243 2 0.0425161 0.270211 0.580212
983 4 0.0141485 0.299202 0.592467
1245 4 0.0322109 0.292582 0.584514
1135 2 0.166569 0.304529 0.60271
1137 4 0.159064 0.328328 0.601153
1136 4 0.174075 0.280729 0.604267
948 4 0.182272 0.269901 0.589008
791 4 0.300086 0.254176 0.586691
1237 2 0.321911 0.331504 0.589122
790 2 0.308741 0.277304 0.58277
1238 4 0.313681 0.309133 0.59667
813 4 0.394654 0.315779 0.59098
906 4 0.49891 0.305052 0.586073
953 4 0.48366 0.295307 0.595598
952 2 0.459798 0.294722 0.603044
954 4 0.435936 0.294137 0.610489
3123 4 0.482618 0.265731 0.658056
1039 2 0.0801322 0.391519 0.623203
1041 4 0.057795 0.395501 0.633709
3264 4 0.0425291 0.400092 0.644433
3262 2 0.0387929 0.381006 0.660148
3240 4 0.0278277 0.415983 0.642955
1040 4 0.102469 0.387538 0.612697
993 4 0.116931 0.374631 0.610338
897 4 0.17504 0.338595 0.599499
991 2 0.137472 0.360562 0.608032
992 4 0.158013 0.346493 0.605725
896 4 0.207758 0.376297 0.596531
1065 4 0.218497 0.332356 0.666846
895 2 0.191399 0.357446 0.598015
1172 4 0.224079 0.403763 0.601218
1191 4 0.226943 0.384756 0.594277
1206 4 0.39331 0.3777 0.622188
1204 2 0.400912 0.400081 0.630343
1230 4 0.346915 0.412091 0.659991
926 4 0.463347 0.399294 0.575718
3238 2 0.00617482 0.428071 0.646149
1171 2 0.215232 0.426731 0.605622
1186 2 0.172248 0.46859 0.601485
1173 4 0.206386 0.449699 0.610026
1187 4 0.187482 0.45406 0.614975
891 4 0.318062 0.466447 0.607385
889 2 0.328773 0.476719 0.587262
1205 4 0.408514 0.422462 0.638497
1911 4 0.446864 0.478574 0.59731
1000 2 0.455485 0.439412 0.590859
1001 4 0.457305 0.46279 0.599539
1269 4 0.462649 0.47739 0.610497
1267 2 0.470244 0.489085 0.631251
943 2 0.051112 0.0256375 0.684194
944 4 0.0521687 0.0505054 0.686571
1076 4 0.0499437 0.0666925 0.676245
1075 2 0.0581008 0.0789812 0.696435
1283 4 0.145259 0.0626752 0.671064
2048 4 0.156388 0.998995 0.749788
1148 4 0.247646 0.0767417 0.689456
1090 2 0.313367 0.00443862 0.707079
1147 2 0.263715 0.0612466 0.70072
1149 4 0.279784 0.0457515 0.711983
1092 4 0.306407 0.0228846 0.691701
1004 4 0.382795 0.0784077 0.711561
42 3 0.462259 0.0472201 0.675437
41 1 0.456077 0.0693624 0.674627
43 3 0.433899 0.0712037 0.681195
1163 4 0.474884 0.0594991 0.691004
1162 2 0.493676 0.0518451 0.705613
864 4 0.0509453 0.0921139 0.727861
1077 4 0.0662579 0.0912699 0.716625
1107 4 0.0688006 0.102244 0.732057
851 4 0.0703319 0.109542 0.713492
862 2 0.0304996 0.0898944 0.742081
850 2 0.0789423 0.130293 0.702517
852 4 0.0875527 0.151043 0.691542
1282 2 0.152032 0.085413 0.678956
1284 4 0.158805 0.108151 0.686849
1105 2 0.0843143 0.0995683 0.751483
909 4 0.157041 0.125955 0.695121
1226 4 0.240346 0.0943171 0.683941
907 2 0.178733 0.126699 0.707534
908 4 0.200425 0.127442 0.719947
1227 4 0.220718 0.12371 0.719318
1225 2 0.230532 0.109014 0.70163
830 4 0.31432 0.14626 0.676301
829 2 0.328324 0.136616 0.694633
831 4 0.342329 0.126973 0.712965
1003 2 0.362522 0.0927616 0.714414
1005 4 0.342248 0.107116 0.717266
44 3 0.46964 0.0814693 0.689045
1142 4 0.454819 0.170728 0.735478
1177 2 0.00573768 0.230431 0.687157
1179 4 0.018217 0.24467 0.670826
1073 4 0.0788533 0.204548 0.738874
1072 2 0.0995618 0.218554 0.739286
1074 4 0.12027 0.23256 0.739699
1144 2 0.49249 0.165989 0.731613
1025 4 0.432626 0.169963 0.678269
1262 4 0.467135 0.197141 0.730433
1024 2 0.445454 0.176097 0.698835
1026 4 0.458283 0.182231 0.719402
1261 2 0.469239 0.221932 0.732919
1145 4 0.471017 0.178712 0.730125
1263 4 0.471343 0.246722 0.735405
1209 4 0.120303 0.281536 0.708458
1207 2 0.123997 0.265768 0.727508
1208 4 0.127691 0.25 0.746558
821 4 0.137224 0.27661 0.70092
820 2 0.150377 0.287937 0.682922
822 4 0.163529 0.299264 0.664925
1064 4 0.173675 0.311932 0.675481
1063 2 0.196086 0.322144 0.671164
805 2 0.294254 0.326261 0.684541
807 4 0.285548 0.303499 0.678949
3263 4 0.0350567 0.361921 0.675863
894 4 0.0337328 0.366187 0.741794
1280 4 0.0530449 0.363896 0.736518
1279 2 0.0566176 0.385623 0.724672
816 4 0.0681667 0.354917 0.746321
1281 4 0.0601903 0.407351 0.712826
1028 4 0.238251 0.36098 0.715154
1066 2 0.202004 0.360647 0.741136
1068 4 0.222648 0.358778 0.727153
1027 2 0.239255 0.384556 0.706887
1029 4 0.240258 0.408132 0.698621
806 4 0.302961 0.349023 0.690132
1018 2 0.386036 0.37814 0.729886
1020 4 0.385708 0.401692 0.721499
1019 4 0.386364 0.354587 0.738274
1983 4 0.0496889 0.424436 0.708068
1981 2 0.0610355 0.440222 0.723791
1982 4 0.0723821 0.456009 0.739515
1139 4 0.247018 0.463706 0.680524
1138 2 0.236333 0.443223 0.690086
1140 4 0.225648 0.42274 0.699649
1175 4 0.204735 0.464495 0.710502
1174 2 0.184272 0.47515 0.720143
1176 4 0.16381 0.485805 0.729784
1988 4 0.305698 0.479162 0.74807
1987 2 0.313779 0.466036 0.728382
1229 4 0.329246 0.435348 0.700581
1989 4 0.321859 0.45291 0.708695
1228 2 0.338081 0.423719 0.680286
2991 4 0.0151291 0.0277749 0.784988
2989 2 0.0105157 0.0510446 0.777088
2990 4 0.00590226 0.0743144 0.769188
2049 4 0.120539 0.0307925 0.764088
1202 4 0.13039 0.0355055 0.781296
2047 2 0.138463 0.0148938 0.756938
1201 2 0.124313 0.0583706 0.789385
817 2 0.322387 0.04198 0.818225
818 4 0.331208 0.0228007 0.804826
1085 4 0.309278 0.0804062 0.829547
1050 4 0.342098 0.00564894 0.780767
974 4 0.345703 0.0100124 0.80023
973 2 0.357138 0.000879833 0.820503
1113 4 0.429284 0.03687 0.784788
1111 2 0.452004 0.0471291 0.786718
845 4 0.493382 0.0526624 0.786684
1112 4 0.474724 0.0573883 0.788649
844 2 0.500032 0.0736692 0.798502
863 4 0.0100538 0.0876749 0.756302
833 4 0.00250377 0.09427 0.770187
832 2 0.0108925 0.11147 0.786279
834 4 0.0192812 0.128671 0.802371
1125 4 0.0274339 0.132825 0.822058
1123 2 0.0453421 0.150246 0.823055
1203 4 0.118236 0.0812357 0.797474
1106 4 0.099828 0.0968922 0.770908
911 4 0.108974 0.101737 0.829182
34 3 0.11238 0.100275 0.785241
31 1 0.120594 0.106795 0.80594
35 3 0.105426 0.120126 0.81647
32 3 0.124335 0.0880271 0.818703
33 3 0.140638 0.118177 0.803281
1256 4 0.257512 0.101404 0.80856
1257 4 0.247705 0.100536 0.759532
840 4 0.244189 0.110625 0.819472
1255 2 0.252608 0.10097 0.784046
1084 2 0.306306 0.0950526 0.809501
1086 4 0.303335 0.109699 0.789456
47 3 0.408914 0.160624 0.817328
48 3 0.405329 0.154503 0.780418
46 1 0.407241 0.170839 0.796785
1143 4 0.425561 0.166528 0.775814
1141 2 0.44019 0.168628 0.755646
1214 4 0.000552117 0.182228 0.748961
1124 4 0.0632502 0.167667 0.824052
978 4 0.28474 0.193869 0.739734
977 4 0.313751 0.223198 0.767999
918 4 0.301507 0.235264 0.778777
976 2 0.299246 0.208534 0.753867
1298 4 0.313657 0.223045 0.787222
1297 2 0.331121 0.223871 0.805097
1299 4 0.348585 0.224697 0.822971
1042 2 0.386408 0.227075 0.802816
1043 4 0.390017 0.202338 0.802332
49 3 0.388422 0.184412 0.796667
3467 4 0.490354 0.222276 0.817322