ITEM: TIMESTEP
3180000
ITEM: NUMBER OF ATOMS
4590
ITEM: BOX BOUNDS pp pp pp
-9.9985700000000008e+00 9.9985700000000008e+00
-9.9985700000000008e+00 9.9985700000000008e+00
-9.9985700000000008e+00 9.9985700000000008e+00
ITEM: ATOMS id type xs ys zs
1667 4 0.018092 0.0602943 0.0570374
701 4 0.0306852 0.0685735 0.0710295
700 2 0.0515585 0.0806889 0.0644947
490 2 0.278647 0.0615625 0.0659331
492 4 0.275188 0.0368035 0.0654786
1475 4 0.280435 0.0287532 0.0839907
746 4 0.407486 0.075696 0.0400151
2974 2 0.460446 0.0154431 0.0279016
745 2 0.424383 0.0620172 0.0276622
747 4 0.441279 0.0483385 0.0153094
2975 4 0.442568 0.029093 0.0169828
986 4 0.433124 0.0354171 0.00185798
2467 2 0.5024 0.009423 0.0743209
702 4 0.0724317 0.0928043 0.0579598
476 4 0.0791123 0.110072 0.0655558
475 2 0.0690993 0.13289 0.0676164
477 4 0.0590863 0.155708 0.0696769
566 4 0.189073 0.140351 0.0123937
565 2 0.210754 0.146804 0.00174134
491 4 0.282106 0.0863215 0.0663877
769 2 0.400701 0.152186 0.0266486
556 2 0.382032 0.0945788 0.0141718
558 4 0.397772 0.0906676 0.0332019
771 4 0.406234 0.127886 0.0286604
737 4 0.241167 0.187681 0.05272
736 2 0.217722 0.192865 0.0596941
738 4 0.194277 0.198049 0.0666682
482 4 0.246194 0.242606 0.0558722
770 4 0.395167 0.176487 0.0246368
359 4 0.399154 0.195496 0.0197547
664 2 0.398355 0.20752 0.0557997
665 4 0.397145 0.189693 0.0383088
666 4 0.399564 0.225346 0.0732905
323 4 0.395631 0.24341 0.0682533
623 4 0.38036 0.231776 0.0713319
2808 4 0.0127936 0.273298 0.00523166
2806 2 0.999134 0.273462 0.0261737
292 2 0.154644 0.325892 0.0354814
294 4 0.134153 0.32017 0.0223446
293 4 0.175135 0.331613 0.0486181
507 4 0.184202 0.32468 0.0597849
286 2 0.207942 0.329611 0.022322
288 4 0.222757 0.32678 0.00237989
481 2 0.229593 0.261241 0.0573923
505 2 0.196419 0.304712 0.068571
483 4 0.212992 0.279876 0.0589124
506 4 0.208637 0.284744 0.0773571
573 4 0.262645 0.248169 0.0450929
571 2 0.283753 0.252877 0.0325445
572 4 0.304861 0.257584 0.0199962
357 4 0.306898 0.276592 0.0135706
355 2 0.321048 0.295535 0.00543838
1069 2 0.406352 0.316934 0.0387517
322 2 0.406984 0.262407 0.0566172
356 4 0.335197 0.314478 0.997306
324 4 0.418338 0.281404 0.0449812
1070 4 0.421961 0.297516 0.0366308
280 2 0.452111 0.298727 0.0602864
282 4 0.437365 0.288264 0.0430163
281 4 0.466857 0.309191 0.0775565
526 2 0.500292 0.32893 0.0850542
329 4 0.99708 0.392199 0.0671513
287 4 0.193127 0.332442 0.0422642
552 4 0.172022 0.338155 0.0678683
456 4 0.207572 0.386211 0.068629
454 2 0.196617 0.364696 0.0621276
455 4 0.185662 0.343181 0.0556263
1290 4 0.274573 0.402543 0.0468109
1288 2 0.286045 0.386191 0.0317718
1289 4 0.297518 0.369839 0.0167327
956 4 0.341113 0.331525 0.00650417
955 2 0.35747 0.338358 0.0241382
1071 4 0.390743 0.336351 0.0408726
957 4 0.373826 0.345191 0.0417722
741 4 0.388256 0.349464 0.0545874
739 2 0.39313 0.352019 0.0789779
1787 4 0.107475 0.491127 0.0472022
1786 2 0.0994617 0.475213 0.064743
1788 4 0.0914479 0.459298 0.0822838
626 4 0.19586 0.480768 0.0552716
625 2 0.179664 0.499723 0.0571567
245 4 0.194856 0.465446 0.0411008
244 2 0.216565 0.454491 0.0469214
246 4 0.238275 0.443536 0.052742
251 4 0.264238 0.418718 0.048763
250 2 0.262159 0.425614 0.0727067
272 4 0.253896 0.435491 0.0424913
271 2 0.263342 0.445049 0.0214061
1157 4 0.291893 0.450005 0.000188704
1672 2 0.412238 0.436543 0.0769539
853 2 0.398379 0.439913 0.0222353
854 4 0.412366 0.44376 0.0426002
855 4 0.384391 0.436066 0.00187049
37 3 0.366984 0.422003 0.00266917
1674 4 0.42516 0.436063 0.0555539
564 4 0.431581 0.44694 0.0420076
563 4 0.466767 0.478651 0.0259744
562 2 0.449174 0.462795 0.033991
228 4 0.482717 0.479051 0.0160393
226 2 0.487257 0.49673 0.998951
19 3 0.0558546 0.0185716 0.158568
582 4 0.23964 0.0761799 0.154608
580 2 0.255521 0.0623492 0.168086
1474 2 0.276919 0.00410266 0.0862642
1760 4 0.502759 0.0566337 0.134697
2724 4 0.487888 0.0681775 0.135842
2744 4 0.50083 0.0656594 0.15129
513 4 0.0412504 0.164061 0.163191
312 4 0.358751 0.125962 0.157851
628 2 0.382761 0.160708 0.16539
629 4 0.373777 0.137405 0.164178
2722 2 0.475727 0.0899267 0.137907
2723 4 0.463566 0.111676 0.139971
391 2 0.0412726 0.197942 0.154605
392 4 0.0551315 0.218713 0.153315
393 4 0.0274138 0.177171 0.155896
339 4 0.0685416 0.22043 0.168187
755 4 0.248941 0.238801 0.161327
460 2 0.322212 0.228284 0.115152
461 4 0.29936 0.219064 0.110916
354 4 0.282756 0.211032 0.118925
352 2 0.275406 0.221497 0.140411
353 4 0.268057 0.231963 0.161897
462 4 0.345064 0.237504 0.119388
255 4 0.358224 0.233603 0.134433
253 2 0.369169 0.213115 0.143687
622 2 0.372372 0.236262 0.0945964
624 4 0.364383 0.240748 0.117861
254 4 0.380114 0.192628 0.152942
536 4 0.174652 0.262939 0.130872
537 4 0.208479 0.274659 0.0959573
535 2 0.191565 0.268799 0.113415
754 2 0.234834 0.259424 0.160425
756 4 0.220726 0.280048 0.159522
612 4 0.214624 0.29738 0.167035
301 2 0.32218 0.318364 0.144991
303 4 0.316752 0.299406 0.160364
764 4 0.329898 0.284832 0.159409
285 4 0.31108 0.284951 0.167631
765 4 0.352799 0.25179 0.129668
763 2 0.341349 0.268311 0.144539
12 3 0.4154 0.328814 0.125004
671 4 0.461409 0.327479 0.085993
527 4 0.477968 0.318665 0.0896874
647 4 0.0563345 0.360916 0.148584
550 2 0.158617 0.337461 0.0889635
551 4 0.145212 0.336767 0.110059
302 4 0.327608 0.337321 0.129617
387 4 0.331552 0.356609 0.122871
385 2 0.355825 0.35944 0.117579
493 2 0.395388 0.394857 0.108834
495 4 0.394747 0.370255 0.113248
386 4 0.380097 0.362272 0.112286
15 3 0.382923 0.346634 0.120471
740 4 0.398004 0.354574 0.103368
14 3 0.415309 0.365412 0.116447
11 1 0.404264 0.348694 0.128149
13 3 0.404077 0.353685 0.150809
672 4 0.420805 0.346538 0.1081
670 2 0.441107 0.337009 0.0970467
596 4 0.495688 0.387048 0.146558
1465 2 0.0606774 0.469278 0.105628
1466 4 0.0410973 0.483343 0.11226
1467 4 0.0802576 0.455214 0.0989957
639 4 0.157747 0.495574 0.144056
638 4 0.204324 0.486533 0.159855
637 2 0.181035 0.491054 0.151955
252 4 0.26008 0.43251 0.0966503
609 4 0.277796 0.429497 0.102815
607 2 0.301065 0.42609 0.111305
608 4 0.324335 0.422683 0.119796
659 4 0.332759 0.438132 0.111836
494 4 0.39603 0.41946 0.10442
660 4 0.382414 0.435437 0.10656
1673 4 0.399315 0.437023 0.0983539
658 2 0.357587 0.436785 0.109198
524 4 0.406846 0.491386 0.131476
523 2 0.39781 0.472281 0.118115
525 4 0.388773 0.453176 0.104754
2480 4 0.0304191 0.000571368 0.196064
2479 2 0.0253011 0.0234217 0.20483
380 4 0.0215249 0.0629009 0.22238
2481 4 0.0201831 0.0462721 0.213596
578 4 0.076615 0.0202886 0.168014
577 2 0.0920504 0.0399575 0.168258
579 4 0.107486 0.0596264 0.168502
674 4 0.154675 0.00186241 0.238026
450 4 0.126006 0.0674849 0.168543
448 2 0.147909 0.0762676 0.176806
673 2 0.131537 0.99989 0.247297
237 4 0.223635 0.0889577 0.15862
1504 2 0.232257 0.0058862 0.197722
581 4 0.271402 0.0485186 0.181565
1506 4 0.248723 0.0242992 0.201599
654 4 0.266751 0.0316989 0.193279
652 2 0.275289 0.0368323 0.216213
653 4 0.283827 0.0419657 0.239146
758 4 0.339217 0.0667454 0.187484
759 4 0.359 0.0639931 0.233329
757 2 0.349109 0.0653693 0.210407
350 4 0.372674 0.0674672 0.236208
349 2 0.396982 0.0616677 0.235374
22 3 0.36703 0.0556649 0.25023
632 4 0.360189 0.0738022 0.243437
25 3 0.351724 0.0227236 0.241657
480 4 0.431635 0.0503366 0.250492
351 4 0.421289 0.0558682 0.234541
743 4 0.500179 0.0817345 0.246446
379 2 0.0246338 0.0862263 0.213928
511 2 0.0368733 0.14423 0.177777
512 4 0.0324961 0.124399 0.192363
381 4 0.0277426 0.109552 0.205475
235 2 0.205945 0.0874074 0.176223
236 4 0.188255 0.0858572 0.193826
449 4 0.169813 0.0850504 0.185069
30 3 0.330354 0.137808 0.230147
310 2 0.353558 0.106279 0.17237
311 4 0.348366 0.0865967 0.18689
26 1 0.350882 0.14503 0.236863
28 3 0.364686 0.147895 0.218434
761 4 0.404633 0.122211 0.208753
521 4 0.463097 0.153315 0.216776
762 4 0.450788 0.141439 0.209583
760 2 0.42771 0.131825 0.209168
332 4 0.46472 0.132755 0.218834
331 2 0.476477 0.111647 0.225267
520 2 0.482514 0.166666 0.208413
333 4 0.488235 0.0905391 0.2317
2483 4 0.00175641 0.240447 0.223903
337 2 0.0688994 0.24038 0.183255
396 4 0.0106296 0.252321 0.237321
546 4 0.100322 0.239792 0.215465
544 2 0.117172 0.242937 0.233668
545 4 0.134022 0.246082 0.251871
279 4 0.275608 0.216556 0.218766
277 2 0.268666 0.227648 0.19746
278 4 0.261724 0.238741 0.176154
630 4 0.391745 0.18401 0.166602
394 2 0.0304256 0.264362 0.227924
395 4 0.0502217 0.276403 0.218527
338 4 0.0692573 0.26033 0.198323
363 4 0.0690458 0.276102 0.210067
361 2 0.0690143 0.30024 0.203543
362 4 0.0689829 0.324377 0.19702
372 4 0.089234 0.328378 0.192624
733 2 0.15011 0.331617 0.24167
611 4 0.220099 0.308337 0.215519
610 2 0.217362 0.302859 0.191277
344 4 0.222711 0.3179 0.232391
343 2 0.201553 0.312421 0.244536
284 4 0.278363 0.247246 0.170574
283 2 0.294722 0.266099 0.169103
729 4 0.305495 0.301579 0.17516
727 2 0.290998 0.316322 0.189219
308 4 0.322985 0.291063 0.176234
498 4 0.350823 0.297315 0.231047
307 2 0.336771 0.287106 0.196715
309 4 0.350557 0.283148 0.217196
749 4 0.0606647 0.339467 0.205635
648 4 0.0749373 0.340652 0.190345
748 2 0.0650967 0.350576 0.227592
646 2 0.0656359 0.350784 0.169464
750 4 0.0695288 0.361685 0.24955
370 2 0.11017 0.337479 0.202824
371 4 0.131106 0.346579 0.213024
734 4 0.136975 0.349815 0.230647
417 4 0.140021 0.363514 0.220908
299 4 0.134718 0.365869 0.240799
415 2 0.153352 0.37244 0.20173
298 2 0.110983 0.368855 0.248074
416 4 0.166683 0.381366 0.182552
289 2 0.191261 0.404422 0.170174
291 4 0.171777 0.389354 0.165876
728 4 0.2765 0.331065 0.203277
445 2 0.385185 0.376886 0.249823
447 4 0.403802 0.376981 0.233132
595 2 0.48853 0.387972 0.170497
644 4 0.421692 0.384336 0.225239
643 2 0.44547 0.385703 0.217629
645 4 0.469248 0.387069 0.210018
597 4 0.481373 0.388896 0.194436
290 4 0.210746 0.419491 0.174472
767 4 0.211405 0.475539 0.174028
766 2 0.219812 0.451991 0.174037
768 4 0.228219 0.428444 0.174047
412 2 0.25068 0.489719 0.233995
414 4 0.24279 0.487584 0.210366
2755 2 0.999202 0.0835772 0.313969
2756 4 0.00256313 0.0615972 0.302534
234 4 0.00795751 0.0522999 0.28639
232 2 0.0299368 0.0421518 0.292643
233 4 0.051916 0.0320038 0.298897
317 4 0.063622 0.0283742 0.312588
1404 4 0.0652693 0.0171884 0.297841
1402 2 0.0772226 0.00762698 0.278071
428 4 0.0617127 0.0105719 0.318096
316 2 0.0770717 0.0423476 0.328368
693 4 0.320249 0.0622228 0.26915
691 2 0.302101 0.0782606 0.275363
24 3 0.333124 0.0468155 0.263822
21 1 0.353958 0.0384114 0.258014
23 3 0.364191 0.0290507 0.276617
479 4 0.453796 0.0466359 0.295167
478 2 0.442716 0.0484862 0.272829
2664 4 0.467047 0.0333329 0.297658
1428 4 0.448328 0.0318822 0.301905
258 4 0.438685 0.048742 0.306942
2662 2 0.490769 0.0392887 0.302853
256 2 0.429679 0.0659993 0.322634
1426 2 0.441719 0.0106119 0.313266
403 2 0.230224 0.155308 0.325472
692 4 0.283953 0.0942985 0.281577
721 2 0.258314 0.105748 0.30338
723 4 0.264112 0.0943501 0.281893
722 4 0.252517 0.117146 0.324866
29 3 0.360284 0.129667 0.251491
631 2 0.358516 0.0958558 0.255099
707 4 0.367115 0.130711 0.270291
633 4 0.356844 0.117909 0.266762
706 2 0.366081 0.136219 0.294658
708 4 0.365047 0.141727 0.319026
444 4 0.028986 0.214815 0.293102
442 2 0.0238063 0.226754 0.271752
443 4 0.0186265 0.238693 0.250402
600 4 0.110646 0.219714 0.331995
405 4 0.214177 0.17396 0.321025
473 4 0.217544 0.19353 0.324644
27 3 0.348648 0.165203 0.247689
402 4 0.133034 0.260472 0.265506
735 4 0.163244 0.313419 0.252693
375 4 0.164733 0.324742 0.330177
400 2 0.147963 0.280524 0.265965
676 2 0.17115 0.326774 0.293607
677 4 0.172909 0.315176 0.271526
401 4 0.162891 0.300577 0.266424
345 4 0.180395 0.306941 0.256681
378 4 0.284767 0.280893 0.297424
376 2 0.30532 0.295119 0.296808
377 4 0.325873 0.309345 0.296192
418 2 0.395717 0.247412 0.315107
615 4 0.339092 0.316102 0.308473
497 4 0.335709 0.304611 0.278154
496 2 0.343266 0.300963 0.254601
541 2 0.360521 0.290226 0.306874
542 4 0.380714 0.280507 0.317961
543 4 0.340327 0.299946 0.295786
420 4 0.382973 0.266569 0.305322
2537 4 0.485785 0.322789 0.325471
364 2 0.00338188 0.39709 0.286284
365 4 0.0257743 0.408146 0.285041
603 4 0.0299433 0.398233 0.30227
601 2 0.0461095 0.395457 0.321142
300 4 0.087248 0.371842 0.255349
678 4 0.169391 0.338371 0.315688
510 4 0.170792 0.357782 0.323494
508 2 0.185368 0.377807 0.320078
509 4 0.199945 0.397833 0.316663
434 4 0.318906 0.377805 0.315342
433 2 0.308433 0.400343 0.31809
614 4 0.336555 0.365586 0.315227
2 3 0.279199 0.414592 0.327666
446 4 0.366569 0.376791 0.266514
613 2 0.337824 0.340844 0.31185
264 4 0.00400022 0.44849 0.273942
1757 4 0.0200008 0.436379 0.280555
1756 2 0.0415 0.44812 0.275543
1758 4 0.0629993 0.45986 0.27053
1775 4 0.074997 0.470611 0.282748
775 2 0.0591799 0.483414 0.316184
777 4 0.059673 0.482228 0.291214
1776 4 0.123409 0.458114 0.281837
1774 2 0.0992029 0.464363 0.282292
413 4 0.25857 0.491854 0.257625
4 3 0.250651 0.423097 0.304745
1436 4 0.251377 0.473446 0.260648
1435 2 0.254956 0.458914 0.280677
1437 4 0.258534 0.444381 0.300706
3 3 0.273391 0.45047 0.318089
1 1 0.263044 0.430288 0.322996
436 2 0.306236 0.458328 0.322616
438 4 0.290763 0.438715 0.32158
435 4 0.29796 0.42288 0.320838
437 4 0.32171 0.477941 0.323652
1801 2 0.355789 0.482069 0.315836
1802 4 0.334001 0.492745 0.321875
1803 4 0.377577 0.471392 0.309797
593 4 0.385997 0.474274 0.328786
118 3 0.494774 0.429804 0.328542
119 3 0.485081 0.466548 0.327968
318 4 0.0905214 0.056321 0.344149
732 4 0.0989724 0.0727906 0.346441
730 2 0.123449 0.0679467 0.348055
731 4 0.147926 0.0631028 0.349668
606 4 0.163652 0.0643667 0.362788
399 4 0.0799732 0.073877 0.346901
962 4 0.333169 0.0039413 0.414519
1701 4 0.354927 0.00657269 0.393699
257 4 0.420673 0.0832566 0.338327
699 4 0.38559 0.0468346 0.377821
1699 2 0.36389 0.0241735 0.378368
1700 4 0.372853 0.0417743 0.363036
697 2 0.399871 0.0644654 0.367314
698 4 0.414152 0.0820961 0.356807
397 2 0.0669068 0.0927944 0.356728
398 4 0.0538404 0.111712 0.366556
2584 2 0.0164858 0.119282 0.352877
2586 4 0.039329 0.124697 0.361482
458 4 0.0400778 0.137928 0.376244
457 2 0.0443492 0.151238 0.396975
459 4 0.0486206 0.164547 0.417707
404 4 0.246271 0.136656 0.329918
604 2 0.180755 0.081977 0.367538
605 4 0.197857 0.0995873 0.372289
248 4 0.216588 0.104445 0.378914
247 2 0.227506 0.112707 0.357992
249 4 0.238424 0.120968 0.33707
683 4 0.258008 0.126561 0.3406
682 2 0.279866 0.138067 0.344475
684 4 0.301725 0.149572 0.34835
319 2 0.332556 0.156242 0.336637
320 4 0.308693 0.163702 0.336872
321 4 0.35642 0.148781 0.336403
726 4 0.401598 0.142174 0.403346
717 4 0.361408 0.153945 0.354068
715 2 0.373644 0.153013 0.375852
716 4 0.385881 0.152082 0.397637
467 4 0.396328 0.159623 0.411426
724 2 0.411371 0.119581 0.407732
725 4 0.421143 0.0969884 0.412118
641 4 0.455669 0.126318 0.380597
640 2 0.480056 0.121626 0.383501
598 2 0.123845 0.220522 0.353215
599 4 0.137045 0.221329 0.374435
389 4 0.138406 0.249432 0.392651
686 4 0.135083 0.229915 0.391706
685 2 0.119673 0.223813 0.410427
275 4 0.147292 0.236046 0.382033
274 2 0.168824 0.223457 0.383789
474 4 0.197706 0.211894 0.366715
472 2 0.207625 0.202712 0.345679
276 4 0.190355 0.210867 0.385545
419 4 0.408461 0.228254 0.324892
269 4 0.40634 0.21607 0.339507
466 2 0.411367 0.175557 0.423473
268 2 0.430942 0.211699 0.340387
270 4 0.455545 0.207328 0.341268
452 4 0.455706 0.206553 0.360751
451 2 0.465121 0.207675 0.383887
453 4 0.474536 0.208798 0.407023
347 4 0.0580604 0.311824 0.385763
346 2 0.0342956 0.306807 0.391699
618 4 0.064217 0.299086 0.371541
348 4 0.0105308 0.30179 0.397635
373 2 0.146365 0.313289 0.342692
388 2 0.133579 0.272004 0.383039
616 2 0.088884 0.302608 0.369465
390 4 0.128753 0.294576 0.373427
617 4 0.113551 0.306131 0.367389
374 4 0.127997 0.301837 0.355208
488 4 0.36231 0.289393 0.401599
602 4 0.0622757 0.39268 0.340013
549 4 0.0679515 0.399633 0.357507
547 2 0.0767183 0.412106 0.377326
335 4 0.321666 0.382822 0.400452
240 4 0.332684 0.37484 0.385285
238 2 0.346078 0.38291 0.365774
239 4 0.359471 0.390981 0.346264
587 4 0.364861 0.410246 0.348077
752 4 0.473295 0.384878 0.375686
561 4 0.46104 0.369619 0.384164
751 2 0.478984 0.406135 0.363812
559 2 0.476775 0.362678 0.402313
776 4 0.0586868 0.4846 0.341155
500 4 0.0445978 0.485547 0.35356
499 2 0.0587735 0.470451 0.367572
501 4 0.0729492 0.455355 0.381584
407 4 0.0841829 0.443565 0.39253
548 4 0.0854851 0.424578 0.397144
406 2 0.0910058 0.457545 0.412105
1555 2 0.238312 0.487536 0.380067
1557 4 0.249241 0.466744 0.388636
636 4 0.253167 0.459787 0.407153
5 3 0.249481 0.432716 0.341128
586 2 0.37414 0.432625 0.341893
588 4 0.383419 0.455005 0.335709
592 2 0.404553 0.487575 0.338981
116 1 0.494945 0.449691 0.340496
713 4 0.439691 0.49713 0.358666
712 2 0.459524 0.482957 0.353104
714 4 0.479358 0.468785 0.347542
753 4 0.484673 0.427391 0.351939
117 3 0.482904 0.446818 0.359884
369 4 0.0561591 0.00129824 0.439862
367 2 0.0805315 0.00685653 0.439342
720 4 0.00345646 0.01143 0.445626
1781 4 0.112797 0.00156597 0.423647
368 4 0.104904 0.0124148 0.438822
963 4 0.312755 0.04185 0.439953
432 4 0.317661 0.0566008 0.452142
430 2 0.329012 0.0573149 0.474409
961 2 0.322962 0.0228957 0.427236
431 4 0.340364 0.058029 0.496676
260 4 0.0581104 0.182518 0.413824
259 2 0.0718692 0.201116 0.42331
261 4 0.085628 0.219715 0.432795
687 4 0.104263 0.217711 0.429147
1035 4 0.0964393 0.232911 0.440613
409 2 0.403195 0.225475 0.443298
411 4 0.386401 0.24395 0.441962
468 4 0.426406 0.191491 0.435519
410 4 0.419989 0.206999 0.444633
574 2 0.415932 0.190464 0.486376
515 4 0.478638 0.203079 0.426856
575 4 0.423408 0.201989 0.465484
516 4 0.434661 0.201602 0.450617
514 2 0.45665 0.202341 0.438737
1033 2 0.10005 0.253435 0.454429
1034 4 0.103662 0.27396 0.468245
696 4 0.114197 0.271557 0.484965
1260 4 0.1227 0.278746 0.469835
1258 2 0.126583 0.30342 0.468694
1259 4 0.130465 0.328094 0.467553
9 3 0.148373 0.326584 0.420566
503 4 0.143389 0.329097 0.47925
487 2 0.373968 0.275879 0.41911
489 4 0.385625 0.262364 0.436622
266 4 0.396244 0.259398 0.451787
265 2 0.399345 0.270022 0.474208
3308 4 0.476397 0.324471 0.47646
1011 4 0.465962 0.312562 0.466028
1009 2 0.463326 0.292146 0.480221
326 4 0.0872396 0.365058 0.47753
7 3 0.14558 0.329629 0.457924
6 1 0.148279 0.341454 0.438378
327 4 0.126398 0.343268 0.455336
325 2 0.106819 0.354163 0.466433
10 3 0.131077 0.356203 0.436097
709 2 0.153069 0.39932 0.493161
8 3 0.16845 0.35289 0.439255
502 2 0.153563 0.344924 0.495716
334 2 0.313925 0.385384 0.424089
336 4 0.306184 0.387945 0.447725
668 4 0.294573 0.395214 0.462827
882 4 0.312007 0.387472 0.465813
880 2 0.328587 0.385761 0.484451
881 4 0.345166 0.384051 0.503089
3309 4 0.495503 0.351252 0.438798
560 4 0.492511 0.355737 0.420462
3307 2 0.48595 0.337862 0.457629
568 2 0.136479 0.491877 0.421341
569 4 0.116167 0.479163 0.428482
382 2 0.123043 0.446594 0.454103
408 4 0.0978288 0.471525 0.43168
711 4 0.146298 0.420043 0.480917
384 4 0.13259 0.431511 0.471612
383 4 0.113497 0.461676 0.436594
635 4 0.284348 0.455538 0.446018
669 4 0.285243 0.444327 0.461547
774 4 0.295717 0.461245 0.460275
772 2 0.317305 0.470909 0.468385
634 2 0.268757 0.457662 0.426586
667 2 0.289908 0.419771 0.462187
773 4 0.338893 0.480572 0.476494
663 4 0.441161 0.488412 0.491883
3077 4 0.00208951 0.0791275 0.580854
1152 4 0.223307 0.0512893 0.519948
1150 2 0.236039 0.0611861 0.539056
1151 4 0.248771 0.0710829 0.558164
1032 4 0.253018 0.0597066 0.573424
342 4 0.211826 0.0480768 0.504424
340 2 0.212795 0.0231662 0.5025
1181 4 0.259753 0.0781109 0.572206
842 4 0.3991 0.0499835 0.523806
1217 4 0.415306 0.0470798 0.513569
841 2 0.375182 0.0556218 0.519189
843 4 0.351264 0.0612602 0.514573
3007 2 0.497907 0.037472 0.575758
3009 4 0.503278 0.0505934 0.555163
1216 2 0.435528 0.0613465 0.510002
1218 4 0.45575 0.0756131 0.506436
1058 4 0.0763497 0.0927826 0.521422
1270 2 0.0824337 0.153788 0.563697
1271 4 0.0940366 0.131925 0.567244
1057 2 0.0876443 0.104379 0.540478
1059 4 0.098939 0.115976 0.559534
1155 4 0.111068 0.126237 0.57334
939 4 0.0996911 0.113687 0.578048
1153 2 0.13605 0.126535 0.574341
1154 4 0.161032 0.126834 0.575342
1180 2 0.250666 0.100511 0.578596
898 2 0.251815 0.158378 0.562986
900 4 0.247753 0.135347 0.571831
1221 4 0.180929 0.127673 0.568175
1219 2 0.204857 0.131606 0.574271
1220 4 0.228785 0.135539 0.580366
1199 4 0.0338065 0.21614 0.562924
879 4 0.0801801 0.18998 0.549464
877 2 0.065169 0.20702 0.559927
1272 4 0.0708308 0.17565 0.56015
878 4 0.050158 0.22406 0.57039
1198 2 0.0115107 0.222418 0.553508
651 4 0.209647 0.216319 0.524169
858 4 0.197117 0.229573 0.517951
649 2 0.222994 0.200827 0.538558
650 4 0.23634 0.185334 0.552946
856 2 0.188704 0.249832 0.52995
899 4 0.255877 0.181409 0.55414
576 4 0.408456 0.17894 0.507268
695 4 0.102103 0.268311 0.533379
694 2 0.10815 0.269934 0.509172
946 2 0.179138 0.28594 0.570002
857 4 0.180291 0.270091 0.541949
947 4 0.195194 0.280257 0.551697
798 4 0.214518 0.276231 0.551355
796 2 0.236108 0.284732 0.560669
797 4 0.257699 0.293233 0.569984
790 2 0.268166 0.325175 0.587867
791 4 0.267715 0.300175 0.587815
872 4 0.388796 0.324444 0.565202
267 4 0.402446 0.280646 0.496629
2455 2 0.48676 0.250982 0.515561
2457 4 0.464718 0.261787 0.510808
1010 4 0.46069 0.271731 0.494414
3263 4 0.0587039 0.337401 0.582898
710 4 0.159841 0.378597 0.505404
504 4 0.163738 0.360752 0.512183
1189 2 0.243718 0.373893 0.576819
1191 4 0.225775 0.390085 0.583227
804 4 0.273188 0.336701 0.506364
803 4 0.268707 0.350928 0.554095
802 2 0.270947 0.343815 0.530229
1190 4 0.261661 0.357702 0.570411
1238 4 0.278218 0.353628 0.571772
1237 2 0.298043 0.368863 0.571571
1239 4 0.317867 0.384099 0.571371
930 4 0.33804 0.381248 0.565483
929 4 0.351534 0.371514 0.518325
928 2 0.344787 0.376381 0.541904
1081 2 0.0619585 0.0688991 0.64091
4337 4 0.0125802 0.999672 0.660744
1082 4 0.067649 0.0507002 0.657084
825 4 0.162318 0.0655537 0.658998
823 2 0.160991 0.0411142 0.66411
1283 4 0.151586 0.0816102 0.657916
1030 2 0.252925 0.0455985 0.594067
2133 4 0.175669 0.00902033 0.66179
1031 4 0.252832 0.0314903 0.61471
951 4 0.268069 0.0187686 0.611924
949 2 0.289779 0.0115243 0.621992
950 4 0.311489 0.00428002 0.63206
1148 4 0.250432 0.0698658 0.662792
1226 4 0.267679 0.0783273 0.653473
3008 4 0.492537 0.0243506 0.596353
809 4 0.48219 0.0228471 0.613894
808 2 0.474254 0.0389361 0.63131
810 4 0.466318 0.0550251 0.648727
45 3 0.463767 0.0784181 0.64719
41 1 0.456093 0.0705096 0.66712
42 3 0.456953 0.0475227 0.666988
43 3 0.434102 0.0771743 0.670344
1083 4 0.056268 0.0870979 0.624736
1127 4 0.051164 0.103164 0.613073
1126 2 0.0292272 0.0950753 0.604211
1128 4 0.00729032 0.0869871 0.595349
938 4 0.0675634 0.0937644 0.610783
937 2 0.0836272 0.103726 0.594416
1282 2 0.162176 0.102446 0.666797
1182 4 0.241579 0.122911 0.584987
1210 2 0.247067 0.141181 0.613724
1212 4 0.243606 0.142446 0.588994
908 4 0.235523 0.134342 0.648639
907 2 0.213216 0.128057 0.658023
1211 4 0.250528 0.139915 0.638455
1227 4 0.254547 0.126287 0.648171
888 4 0.267323 0.141608 0.647349
886 2 0.288525 0.152266 0.655226
887 4 0.309727 0.162923 0.663104
1225 2 0.261113 0.102307 0.650822
3425 4 0.477151 0.08652 0.664379
3424 2 0.495303 0.1035 0.661661
1244 4 0.0464382 0.219878 0.58894
1243 2 0.0455885 0.243191 0.597938
1194 4 0.32532 0.166692 0.653165
1192 2 0.332507 0.179683 0.633047
1193 4 0.339694 0.192674 0.612928
3123 4 0.484957 0.230024 0.622656
3121 2 0.499156 0.246727 0.634681
982 2 0.012595 0.286001 0.583271
983 4 0.0256627 0.270624 0.598035
1245 4 0.0447388 0.266504 0.606937
948 4 0.163083 0.291623 0.588308
1136 4 0.16835 0.311713 0.585769
820 2 0.153179 0.329497 0.65752
1135 2 0.170519 0.32888 0.603818
871 2 0.389307 0.327914 0.589958
873 4 0.389818 0.331384 0.614715
813 4 0.404939 0.331739 0.626241
954 4 0.466885 0.278696 0.589558
952 2 0.469189 0.302363 0.597285
953 4 0.471493 0.326031 0.605012
3262 2 0.0551427 0.359955 0.593087
1041 4 0.0650973 0.394804 0.611664
3264 4 0.0515815 0.382509 0.603276
3240 4 0.0470295 0.399266 0.611165
3238 2 0.0258739 0.411043 0.617405
1039 2 0.0875522 0.395985 0.622598
1040 4 0.110007 0.397167 0.633532
993 4 0.127628 0.391577 0.625344
991 2 0.146679 0.37553 0.627525
992 4 0.165729 0.359483 0.629707
822 4 0.164131 0.342601 0.639257
1137 4 0.172688 0.346047 0.621867
1064 4 0.179133 0.35536 0.637253
897 4 0.180607 0.362613 0.617795
896 4 0.207872 0.391608 0.58752
895 2 0.194239 0.377111 0.602658
1172 4 0.215337 0.408666 0.587455
1063 2 0.196154 0.359907 0.654996
792 4 0.268616 0.350174 0.587919
811 2 0.398432 0.350554 0.641368
927 4 0.403642 0.385452 0.660069
812 4 0.391925 0.369369 0.656496
925 2 0.411379 0.406821 0.649644
1206 4 0.385275 0.384531 0.666359
906 4 0.481008 0.343491 0.609596
904 2 0.49772 0.355965 0.595803
3239 4 0.0047184 0.422819 0.623646
2244 4 0.108494 0.478984 0.598593
1160 4 0.129517 0.481167 0.599677
540 4 0.120229 0.465503 0.594238
539 4 0.101845 0.419728 0.586032
538 2 0.111037 0.442615 0.590135
1159 2 0.154466 0.482216 0.60095
1171 2 0.221212 0.430075 0.598958
1186 2 0.206881 0.481026 0.619205
1173 4 0.227088 0.451484 0.610462
1187 4 0.223612 0.464062 0.626786
1188 4 0.190151 0.497991 0.611624
1161 4 0.179416 0.483266 0.602223
1230 4 0.31801 0.467265 0.64951
926 4 0.419116 0.42819 0.639219
1002 4 0.434923 0.432519 0.626107
1911 4 0.433204 0.493126 0.612996
1001 4 0.44528 0.48111 0.620417
1000 2 0.440101 0.456814 0.623262
1269 4 0.443191 0.496318 0.63016
944 4 0.0573377 0.0296261 0.684468
943 2 0.0399673 0.0122002 0.68002
1076 4 0.0683442 0.0456056 0.676854
1075 2 0.0674092 0.0631812 0.694614
864 4 0.060068 0.0773172 0.729071
1077 4 0.0664741 0.0807568 0.712373
862 2 0.0394791 0.0738256 0.742821
824 4 0.159665 0.0166746 0.669222
2256 4 0.174653 0.0136321 0.681454
1149 4 0.258684 0.0248108 0.682858
1147 2 0.254558 0.0473383 0.672825
1092 4 0.326907 0.998371 0.690979
1004 4 0.357658 0.0804901 0.731711
1163 4 0.4692 0.0549847 0.683192
1162 2 0.483899 0.0440175 0.700186
44 3 0.469383 0.0784138 0.684421
4581 4 0.497092 0.0147484 0.744418
2321 4 0.496028 0.033602 0.738216
1164 4 0.498599 0.0330504 0.717181
851 4 0.0704365 0.0987943 0.711471
850 2 0.0641366 0.119309 0.69864
852 4 0.0578367 0.139823 0.685808
1107 4 0.0777054 0.0868037 0.726002
1105 2 0.0998474 0.0932004 0.735697
1106 4 0.121989 0.0995971 0.745392
1284 4 0.172767 0.123283 0.675678
909 4 0.190908 0.121772 0.667407
830 4 0.328669 0.158052 0.669448
829 2 0.343739 0.143432 0.683025
1005 4 0.363076 0.109799 0.691556
1003 2 0.360367 0.0951444 0.711634
831 4 0.35881 0.128812 0.696601
3268 2 0.491285 0.150098 0.733515
3269 4 0.48531 0.126811 0.740385
1178 4 0.998731 0.249638 0.719032
977 4 0.316445 0.238514 0.738105
918 4 0.305965 0.253199 0.740059
1297 2 0.281936 0.21721 0.739067
1299 4 0.268756 0.196011 0.740498
1298 4 0.295117 0.238409 0.737635
976 2 0.339544 0.244315 0.730494
978 4 0.362644 0.250116 0.722884
1025 4 0.389008 0.203552 0.69696
1024 2 0.410067 0.207805 0.709752
1020 4 0.379704 0.248933 0.734516
1142 4 0.438565 0.210909 0.741236
1144 2 0.473181 0.201147 0.727638
1262 4 0.439802 0.226539 0.730584
1026 4 0.431125 0.212059 0.722544
1145 4 0.449607 0.209275 0.7258
1146 4 0.496755 0.193019 0.729477
1073 4 0.0800471 0.263496 0.722466
1177 2 0.0205909 0.261016 0.723257
1179 4 0.042451 0.272394 0.727481
1072 2 0.104399 0.261284 0.727688
1208 4 0.133713 0.273598 0.71862
1074 4 0.128751 0.259071 0.73291
1207 2 0.143307 0.292101 0.704808
821 4 0.142228 0.316394 0.675783
1209 4 0.152901 0.310604 0.690995
1130 4 0.146383 0.266115 0.730307
815 4 0.11084 0.332198 0.708179
806 4 0.255793 0.319761 0.690411
1261 2 0.449208 0.249606 0.73273
1263 4 0.458615 0.272673 0.734876
3114 4 0.491489 0.312891 0.680866
892 2 0.0382639 0.363831 0.713641
1280 4 0.0700142 0.372714 0.737458
816 4 0.0718197 0.357378 0.726729
894 4 0.053748 0.361451 0.733128
893 4 0.0227797 0.36621 0.694153
942 4 0.127262 0.336498 0.718636
1279 2 0.0821409 0.393287 0.744868
814 2 0.0913297 0.344788 0.717454
940 2 0.145275 0.352981 0.724021
941 4 0.163288 0.369465 0.729406
1080 4 0.166436 0.383249 0.743371
1078 2 0.159895 0.40719 0.740335
805 2 0.236536 0.335582 0.688405
1065 4 0.213174 0.364453 0.672739
807 4 0.217279 0.351404 0.686399
1028 4 0.220703 0.380795 0.679231
1066 2 0.192777 0.37574 0.708706
1068 4 0.208882 0.369435 0.690649
1027 2 0.230127 0.403879 0.677355
1067 4 0.176673 0.382044 0.726763
1204 2 0.364161 0.388625 0.679113
1205 4 0.343048 0.392718 0.691866
1029 4 0.239551 0.426962 0.675479
1174 2 0.185459 0.479776 0.732172
1140 4 0.247281 0.430689 0.693328
1175 4 0.185103 0.484623 0.707645
2172 4 0.18741 0.494555 0.690551
1228 2 0.306424 0.472524 0.671034
1138 2 0.261283 0.451345 0.691762
1139 4 0.275285 0.472001 0.690196
1987 2 0.303249 0.458149 0.733331
1229 4 0.294839 0.477784 0.692558
1989 4 0.298622 0.470217 0.711927
2028 4 0.283845 0.480071 0.704988
1988 4 0.307876 0.446081 0.754735
1099 2 0.482875 0.487458 0.702587
2989 2 0.0119468 0.0433313 0.780836
2990 4 0.0156537 0.0673669 0.775028
2991 4 0.00823994 0.0192957 0.786643
863 4 0.0188901 0.070334 0.756572
3083 4 0.00346936 0.0792978 0.76327
833 4 0.0180355 0.0855676 0.769765
2049 4 0.0974063 0.0174656 0.774273
1202 4 0.114944 0.0266727 0.774422
1201 2 0.123299 0.0502086 0.775614
1203 4 0.131655 0.0737446 0.776806
32 3 0.144279 0.0811449 0.793743
1085 4 0.315575 0.0692546 0.805862
960 4 0.325178 0.0713432 0.821716
1084 2 0.298265 0.0833036 0.794542
973 2 0.371587 0.99989 0.815806
819 4 0.332376 0.0685151 0.802319
1050 4 0.353869 0.00939621 0.784171
817 2 0.344956 0.0479685 0.795629
818 4 0.357537 0.027422 0.78894
974 4 0.354215 0.0122389 0.802733
1048 2 0.336678 0.996979 0.770925
2320 2 0.488929 0.0455836 0.758982
844 2 0.489072 0.0639221 0.820039
845 4 0.482771 0.0664801 0.795978
2322 4 0.48183 0.0575652 0.779748
1112 4 0.482258 0.0789322 0.781961
832 2 0.0217749 0.106326 0.783192
834 4 0.0255144 0.127084 0.79662
1125 4 0.0287978 0.131862 0.816798
34 3 0.126451 0.0909136 0.76213
911 4 0.134932 0.0986572 0.803497
31 1 0.141841 0.0978046 0.77807
35 3 0.134444 0.116739 0.788337
33 3 0.162396 0.101745 0.768051
910 2 0.134886 0.101875 0.828293
1256 4 0.226616 0.118739 0.818464
840 4 0.228924 0.137291 0.826399
1255 2 0.245887 0.113141 0.803549
1086 4 0.280955 0.0973526 0.783221