ITEM: TIMESTEP
1280000
ITEM: NUMBER OF ATOMS
4590
ITEM: BOX BOUNDS pp pp pp
-9.9985700000000008e+00 9.9985700000000008e+00
-9.9985700000000008e+00 9.9985700000000008e+00
-9.9985700000000008e+00 9.9985700000000008e+00
ITEM: ATOMS id type xs ys zs
1668 4 0.0981276 0.0384187 0.0673237
1666 2 0.084992 0.0557897 0.0796071
297 4 0.348229 0.0595334 0.0545934
295 2 0.360425 0.0708549 0.0359318
296 4 0.372622 0.0821764 0.0172703
1607 4 0.396338 0.0154304 0.992711
747 4 0.466081 0.0596351 0.0041216
2974 2 0.470126 0.0232193 0.0282801
2976 4 0.473546 0.00313929 0.0427811
2975 4 0.466706 0.0432993 0.0137792
745 2 0.457146 0.0809286 0.0137093
566 4 0.152227 0.167639 0.0338287
2264 4 0.293888 0.102862 0.996491
360 4 0.328535 0.137441 0.086979
358 2 0.343457 0.147015 0.0693482
557 4 0.381167 0.095593 0.00657861
556 2 0.405344 0.0962607 0.0129189
769 2 0.397456 0.14374 0.047791
359 4 0.35838 0.156588 0.0517174
770 4 0.377829 0.158734 0.0516803
771 4 0.417084 0.128746 0.0439017
558 4 0.429521 0.0969283 0.0192592
746 4 0.44821 0.102222 0.0232971
565 2 0.172348 0.181947 0.029875
567 4 0.192469 0.196254 0.0259212
664 2 0.383418 0.198321 0.0460626
665 4 0.381724 0.176837 0.0587404
666 4 0.385111 0.219806 0.0333848
555 4 0.0939686 0.28991 0.0473314
553 2 0.0898886 0.285742 0.0230177
286 2 0.142854 0.325898 0.0378319
287 4 0.157583 0.306503 0.0321713
293 4 0.173706 0.296049 0.0258567
292 2 0.173925 0.28094 0.00593571
507 4 0.17489 0.308411 0.0398677
505 2 0.190247 0.3046 0.0592282
506 4 0.205604 0.300788 0.0785886
481 2 0.238552 0.277245 0.0675481
573 4 0.263519 0.257351 0.0413281
482 4 0.259441 0.269259 0.0563653
571 2 0.262991 0.269434 0.0194447
322 2 0.397112 0.282567 0.061113
1069 2 0.386969 0.303411 0.00918835
324 4 0.398337 0.285372 0.0362975
1070 4 0.405278 0.288668 0.01771
741 4 0.354633 0.331679 0.0323417
323 4 0.395887 0.279761 0.0859285
671 4 0.451002 0.332248 0.0531734
280 2 0.439431 0.303531 0.0279983
281 4 0.454791 0.313448 0.0450536
282 4 0.424071 0.293614 0.010943
670 2 0.440559 0.332683 0.0758875
288 4 0.128124 0.345294 0.0434925
454 2 0.160701 0.370008 0.0765808
552 4 0.120805 0.364133 0.0831396
456 4 0.182446 0.370582 0.064251
250 2 0.281077 0.399406 0.0437708
251 4 0.272609 0.387548 0.0234517
252 4 0.289545 0.411263 0.0640899
957 4 0.359483 0.331871 0.012169
739 2 0.364658 0.3364 0.0547557
740 4 0.374683 0.341121 0.0771697
495 4 0.381011 0.37574 0.0640843
493 2 0.38782 0.397428 0.0744984
14 3 0.386501 0.36091 0.0776857
3347 4 0.502473 0.341077 0.00413779
245 4 0.230463 0.446168 0.0462446
626 4 0.22023 0.440039 0.0620744
625 2 0.201855 0.454539 0.0708646
627 4 0.183479 0.469039 0.0796549
244 2 0.247208 0.451632 0.0284992
609 4 0.301955 0.424691 0.0544981
246 4 0.263954 0.457097 0.0107539
272 4 0.273555 0.450722 0.995586
494 4 0.394629 0.419116 0.0849126
563 4 0.482537 0.476416 0.0355574
228 4 0.496377 0.478986 0.0501375
562 2 0.458873 0.475755 0.0275091
564 4 0.435209 0.475095 0.0194608
854 4 0.420381 0.477729 0.00614521
1674 4 0.432292 0.490984 0.0312485
226 2 0.503576 0.459755 0.0644039
19 3 0.055685 0.0764057 0.161277
18 3 0.0615231 0.0425504 0.145024
16 1 0.0556853 0.0534499 0.164659
1667 4 0.0718563 0.0731608 0.0918904
701 4 0.0774458 0.072788 0.111958
17 3 0.0345323 0.0468416 0.170826
1475 4 0.267492 0.00478114 0.0951991
492 4 0.279492 0.0175089 0.106015
491 4 0.286329 0.056673 0.136349
490 2 0.282911 0.037091 0.121182
486 4 0.374005 0.0346552 0.0911216
484 2 0.375725 0.0124275 0.102442
2723 4 0.451231 0.0570425 0.154951
2722 2 0.474492 0.0483235 0.157791
700 2 0.0871076 0.0915894 0.125312
476 4 0.0873232 0.121366 0.153796
702 4 0.0967695 0.110391 0.138667
582 4 0.240059 0.135628 0.170519
581 4 0.27995 0.10903 0.156307
580 2 0.260004 0.122329 0.163413
628 2 0.381259 0.136552 0.135061
630 4 0.374206 0.159418 0.127809
312 4 0.406299 0.109883 0.150511
629 4 0.388312 0.113686 0.142313
737 4 0.201164 0.19997 0.118109
736 2 0.200903 0.224671 0.114241
461 4 0.298277 0.217626 0.101649
460 2 0.323154 0.217441 0.104156
354 4 0.288202 0.233237 0.108385
352 2 0.279422 0.240029 0.13079
462 4 0.348031 0.217257 0.106662
254 4 0.387919 0.172971 0.122382
255 4 0.361512 0.215427 0.121455
253 2 0.374715 0.194199 0.121919
765 4 0.36136 0.232206 0.132937
624 4 0.35693 0.232606 0.114538
763 2 0.348813 0.231913 0.154562
339 4 0.0784932 0.23937 0.128433
337 2 0.0785682 0.242718 0.153211
648 4 0.051648 0.317435 0.148204
738 4 0.200643 0.249372 0.110373
483 4 0.217663 0.285232 0.0787309
537 4 0.198118 0.309812 0.0953689
536 4 0.203242 0.321482 0.143725
535 2 0.20068 0.315647 0.119547
353 4 0.270641 0.24682 0.153194
755 4 0.269082 0.266613 0.156414
387 4 0.321479 0.32546 0.120774
302 4 0.319516 0.32191 0.140985
301 2 0.314714 0.330606 0.163931
622 2 0.373461 0.246678 0.102132
623 4 0.389992 0.26075 0.0897262
385 2 0.340848 0.329124 0.105393
15 3 0.376229 0.331041 0.0981791
528 4 0.469418 0.269968 0.108659
518 4 0.480714 0.266042 0.0926462
526 2 0.456505 0.274173 0.129653
527 4 0.443592 0.278379 0.150647
104 3 0.493022 0.323152 0.124441
551 4 0.0929342 0.357039 0.124049
455 4 0.138957 0.369434 0.0889106
550 2 0.10687 0.360586 0.103594
386 4 0.360218 0.332788 0.0900119
12 3 0.412164 0.340992 0.0965896
11 1 0.39051 0.348743 0.0970325
13 3 0.387786 0.362331 0.115643
672 4 0.430116 0.333117 0.0986016
596 4 0.491215 0.414742 0.176045
1791 4 0.0295645 0.476536 0.13422
1466 4 0.0282 0.477104 0.15421
1789 2 0.0463052 0.491713 0.123515
417 4 0.158234 0.458441 0.129512
291 4 0.214478 0.425511 0.141308
416 4 0.204771 0.442765 0.138959
415 2 0.181503 0.450603 0.134236
289 2 0.238269 0.426982 0.148856
639 4 0.21254 0.513359 0.152857
637 2 0.23398 0.500514 0.153598
607 2 0.31291 0.432918 0.0754141
638 4 0.255419 0.48767 0.15434
768 4 0.27246 0.440293 0.169783
290 4 0.262061 0.428453 0.156403
608 4 0.323865 0.441145 0.0963301
767 4 0.276128 0.489003 0.159077
766 2 0.274294 0.464648 0.16443
525 4 0.376817 0.483934 0.123118
658 2 0.360337 0.431972 0.10618
659 4 0.336864 0.438962 0.111215
660 4 0.383809 0.424982 0.101144
523 2 0.354879 0.495742 0.121006
20 3 0.07036 0.0480344 0.181211
2480 4 0.017399 0.0382016 0.177341
1422 4 0.0195043 0.019208 0.173925
2479 2 0.0026299 0.0575278 0.183133
675 4 0.0907239 0.0063151 0.238505
674 4 0.137069 0.0245854 0.234136
673 2 0.113896 0.0154502 0.236321
689 4 0.156712 0.0216265 0.229595
450 4 0.169066 0.0541187 0.177165
448 2 0.171667 0.0789773 0.177846
1506 4 0.254159 0.0168404 0.16958
1504 2 0.23313 0.00772537 0.179573
688 2 0.179018 0.0114139 0.224764
1505 4 0.212101 0.99861 0.189567
654 4 0.263155 0.0117822 0.187947
652 2 0.28615 0.0214033 0.185985
653 4 0.309145 0.0310244 0.184023
25 3 0.333208 0.0443905 0.23391
21 1 0.327433 0.0615204 0.247762
24 3 0.305421 0.0677578 0.243887
311 4 0.394968 0.0703941 0.179024
758 4 0.384698 0.0696997 0.197365
759 4 0.347844 0.0637033 0.230629
757 2 0.366271 0.0667015 0.213997
22 3 0.341108 0.0795486 0.243626
379 2 0.00335735 0.109917 0.202661
380 4 0.00453752 0.085546 0.197199
512 4 0.00252148 0.151668 0.218551
511 2 0.0233847 0.164231 0.224214
391 2 0.073233 0.163658 0.247706
475 2 0.0887299 0.136179 0.17389
578 4 0.118464 0.0753344 0.229017
477 4 0.0901366 0.150992 0.193984
577 2 0.117956 0.0859456 0.206382
579 4 0.117448 0.0965568 0.183748
449 4 0.174267 0.103836 0.178528
237 4 0.225641 0.150223 0.169018
691 2 0.221444 0.110192 0.230889
693 4 0.227846 0.12083 0.209186
236 4 0.18884 0.117387 0.177272
235 2 0.207241 0.133805 0.173145
692 4 0.215042 0.0995546 0.252593
310 2 0.400633 0.0901384 0.164768
28 3 0.344217 0.1404 0.247391
762 4 0.476337 0.154711 0.246541
521 4 0.487424 0.153464 0.230927
332 4 0.487854 0.138508 0.243406
513 4 0.044248 0.176794 0.229878
393 4 0.0608259 0.18302 0.237889
394 2 0.0136295 0.232137 0.226356
338 4 0.0786431 0.246067 0.177989
395 4 0.0303886 0.232864 0.207815
277 2 0.241817 0.241662 0.177262
279 4 0.221967 0.229096 0.185822
284 4 0.27569 0.24202 0.172237
283 2 0.298549 0.237801 0.18145
285 4 0.321407 0.233582 0.190662
764 4 0.336266 0.231619 0.176188
27 3 0.337983 0.176908 0.240989
760 2 0.456841 0.169368 0.252041
761 4 0.437345 0.184025 0.257541
646 2 0.0565115 0.324743 0.171616
647 4 0.0613751 0.332051 0.195027
363 4 0.0861993 0.264352 0.182052
749 4 0.0984016 0.290391 0.226874
361 2 0.0981317 0.269499 0.203414
371 4 0.168857 0.307576 0.237743
370 2 0.149082 0.293216 0.23246
372 4 0.129307 0.278856 0.227176
362 4 0.110064 0.274646 0.224775
748 2 0.0982866 0.308291 0.244332
278 4 0.261666 0.254228 0.168702
754 2 0.269126 0.287836 0.169634
756 4 0.26917 0.309058 0.182854
612 4 0.278078 0.320978 0.196278
610 2 0.267877 0.317519 0.218842
307 2 0.310873 0.284364 0.226459
308 4 0.320568 0.286751 0.203535
611 4 0.257675 0.31406 0.241406
264 4 0.0144146 0.411528 0.218153
734 4 0.159974 0.354996 0.251897
303 4 0.309913 0.339301 0.186877
729 4 0.320789 0.353207 0.195017
727 2 0.318748 0.372589 0.21068
728 4 0.316706 0.391972 0.226343
447 4 0.41051 0.404812 0.236128
644 4 0.418452 0.386522 0.238934
595 2 0.471021 0.400144 0.178125
597 4 0.450828 0.385547 0.180204
643 2 0.433751 0.384188 0.219296
645 4 0.44905 0.381854 0.199657
262 2 0.996687 0.426402 0.227623
1465 2 0.0319039 0.47698 0.178938
1467 4 0.0356077 0.476856 0.203665
1758 4 0.100797 0.492633 0.247974
231 4 0.46323 0.47721 0.205219
229 2 0.450626 0.496811 0.19616
232 2 0.0212864 0.0306785 0.302899
233 4 0.0460486 0.0276797 0.301161
1404 4 0.0638163 0.0214965 0.297577
1402 2 0.0725386 0.0115294 0.27637
316 2 0.0688031 0.0504288 0.325026
317 4 0.0613624 0.0287142 0.315112
428 4 0.0742372 0.0129426 0.310908
318 4 0.0762438 0.0721435 0.33494
1403 4 0.081261 0.00156236 0.255162
23 3 0.330051 0.0550383 0.269887
699 4 0.365926 0.0612726 0.323506
351 4 0.433885 0.0725082 0.272621
479 4 0.45771 0.0404346 0.311894
478 2 0.443015 0.0466783 0.292652
2664 4 0.472906 0.029787 0.308894
480 4 0.428319 0.052922 0.27341
1428 4 0.459061 0.0212027 0.318838
258 4 0.448753 0.0347387 0.327491
2662 2 0.496653 0.0332323 0.301867
392 4 0.0856401 0.144297 0.257524
723 4 0.225688 0.100712 0.270253
721 2 0.226006 0.107955 0.294182
403 2 0.250045 0.155828 0.325956
249 4 0.23696 0.120362 0.333213
722 4 0.226325 0.115199 0.318111
404 4 0.252635 0.131005 0.327463
30 3 0.311544 0.156251 0.257334
26 1 0.334006 0.159564 0.255568
632 4 0.39027 0.107873 0.260849
350 4 0.406817 0.106499 0.247868
631 2 0.372757 0.125549 0.263306
707 4 0.352565 0.147696 0.28263
633 4 0.355243 0.143224 0.265762
706 2 0.351375 0.154176 0.30675
29 3 0.342859 0.165021 0.27631
708 4 0.350184 0.160655 0.33087
349 2 0.420351 0.0895034 0.260244
333 4 0.486521 0.0886994 0.247649
331 2 0.487188 0.113604 0.245528
546 4 0.14749 0.193865 0.254739
388 2 0.116567 0.233007 0.315768
389 4 0.124425 0.210528 0.308143
545 4 0.187788 0.196815 0.284202
544 2 0.167639 0.19534 0.26947
402 4 0.182833 0.214676 0.292468
400 2 0.186255 0.238254 0.300053
405 4 0.247456 0.180652 0.324449
473 4 0.251319 0.19983 0.327298
717 4 0.418993 0.195391 0.323137
390 4 0.108708 0.255485 0.323393
750 4 0.0981716 0.32619 0.26179
401 4 0.189678 0.261832 0.307638
676 2 0.186166 0.319684 0.308549
345 4 0.215588 0.324654 0.293651
677 4 0.197135 0.328826 0.288023
343 2 0.233792 0.321189 0.276865
678 4 0.175197 0.310543 0.329074
344 4 0.251996 0.317724 0.260078
496 2 0.279831 0.28749 0.28095
497 4 0.262403 0.280546 0.29748
377 4 0.277312 0.271108 0.306592
498 4 0.297258 0.294435 0.264421
309 4 0.301177 0.281977 0.249382
376 2 0.266835 0.262901 0.327759
420 4 0.429833 0.284761 0.324471
419 4 0.453839 0.240958 0.326869
418 2 0.441836 0.26286 0.32567
542 4 0.425573 0.303637 0.332105
365 4 0.0362507 0.366222 0.297298
601 2 0.0636645 0.369236 0.315849
603 4 0.0437327 0.354689 0.311814
602 4 0.0835964 0.383784 0.319885
549 4 0.0877359 0.399047 0.331487
364 2 0.0129062 0.374109 0.293054
299 4 0.144158 0.363527 0.261603
300 4 0.096862 0.347317 0.260597
298 2 0.12051 0.355422 0.2611
735 4 0.202418 0.335965 0.270258
733 2 0.181196 0.34548 0.261077
433 2 0.314305 0.37928 0.312796
435 4 0.289665 0.376118 0.309963
434 4 0.338946 0.382443 0.315628
614 4 0.348207 0.365357 0.315521
613 2 0.361777 0.346604 0.324975
445 2 0.392649 0.40743 0.253428
446 4 0.374787 0.410048 0.270728
615 4 0.375347 0.327852 0.334429
1756 2 0.115423 0.472687 0.24431
1757 4 0.130049 0.452742 0.240645
777 4 0.137048 0.484548 0.278319
1435 2 0.238641 0.463466 0.319338
1436 4 0.252484 0.481929 0.309711
436 2 0.354194 0.47936 0.331563
437 4 0.374471 0.482788 0.317341
1803 4 0.367218 0.495267 0.251391
119 3 0.491016 0.458507 0.319894
118 3 0.493926 0.422602 0.332007
367 2 0.0783981 0.00550002 0.409929
399 4 0.0843979 0.0883927 0.340236
732 4 0.0965784 0.0737658 0.338291
730 2 0.116134 0.065918 0.35175
731 4 0.13569 0.0580701 0.36521
606 4 0.14309 0.0766589 0.370073
368 4 0.100932 0.999534 0.400883
604 2 0.165763 0.0871079 0.368678
1701 4 0.317514 0.0263588 0.386583
1699 2 0.309255 0.0274891 0.36301
1700 4 0.300997 0.0286194 0.339437
425 4 0.327757 0.0221535 0.40357
441 4 0.311161 0.0203933 0.413183
697 2 0.384205 0.0581214 0.340274
698 4 0.402484 0.0549702 0.357041
426 4 0.375247 0.0281319 0.389091
424 2 0.351502 0.0251427 0.39633
2879 4 0.502806 0.0778193 0.406678
726 4 0.431167 0.0753803 0.408318
257 4 0.421342 0.0515931 0.36577
256 2 0.435047 0.0431659 0.346631
397 2 0.0784519 0.112193 0.345072
398 4 0.0725058 0.135993 0.349907
2586 4 0.0168658 0.137789 0.388276
2584 2 0.00688881 0.119488 0.374466
458 4 0.0258386 0.156268 0.389985
457 2 0.0403948 0.155651 0.410305
598 2 0.147417 0.155271 0.353766
600 4 0.139814 0.135059 0.341163
605 4 0.188436 0.0975568 0.367283
248 4 0.20877 0.098482 0.368246
247 2 0.222865 0.109422 0.350729
683 4 0.269209 0.0964754 0.375712
682 2 0.278584 0.111007 0.393771
319 2 0.321558 0.141734 0.41071
684 4 0.287958 0.125539 0.41183
321 4 0.345492 0.142407 0.403508
725 4 0.400588 0.114717 0.404045
724 2 0.415877 0.0950485 0.406182
599 4 0.15502 0.175483 0.36637
686 4 0.144871 0.177741 0.382484
685 2 0.132036 0.188467 0.401069
687 4 0.119201 0.199193 0.419653
472 2 0.236119 0.210186 0.344237
275 4 0.16832 0.187227 0.357142
474 4 0.22092 0.220543 0.361175
276 4 0.205951 0.215857 0.373419
274 2 0.187135 0.201542 0.36528
715 2 0.409473 0.200491 0.345688
466 2 0.392302 0.188872 0.405172
716 4 0.399953 0.205591 0.368238
467 4 0.40497 0.19898 0.386132
270 4 0.466693 0.207221 0.386291
452 4 0.474542 0.192632 0.394938
451 2 0.456822 0.186761 0.411573
268 2 0.462972 0.220325 0.365323
269 4 0.459252 0.233429 0.344356
618 4 0.0787918 0.330185 0.40257
616 2 0.0908814 0.315881 0.386005
617 4 0.102971 0.301576 0.36944
374 4 0.122172 0.304635 0.363655
373 2 0.146019 0.306786 0.356452
375 4 0.169866 0.308936 0.34925
509 4 0.247934 0.313405 0.378477
378 4 0.256358 0.254693 0.348927
508 2 0.253765 0.326256 0.357837
541 2 0.402251 0.308424 0.339744
543 4 0.378929 0.313212 0.347383
488 4 0.339344 0.263174 0.395046
347 4 0.0676853 0.340206 0.416569
346 2 0.0497274 0.351581 0.403405
348 4 0.0317695 0.362957 0.390241
510 4 0.259595 0.339107 0.337196
668 4 0.321425 0.378906 0.403229
336 4 0.338238 0.382311 0.414906
335 4 0.379226 0.358013 0.430082
334 2 0.358732 0.370162 0.422494
753 4 0.495316 0.410494 0.349465
561 4 0.49092 0.406126 0.403525
751 2 0.4913 0.399689 0.371654
752 4 0.487284 0.388885 0.393842
547 2 0.0978845 0.417892 0.344411
407 4 0.119597 0.451655 0.359172
548 4 0.108033 0.436737 0.357336
406 2 0.119382 0.458142 0.383318
408 4 0.119167 0.464629 0.407465
1437 4 0.224798 0.445003 0.328965
3 3 0.319756 0.457319 0.342267
5 3 0.293242 0.47689 0.360477
1 1 0.314488 0.468789 0.361737
4 3 0.316505 0.45467 0.38004
438 4 0.333917 0.475933 0.345784
2 3 0.329153 0.486335 0.36423
586 2 0.420615 0.439935 0.415922
588 4 0.410946 0.459863 0.404322
593 4 0.404111 0.469029 0.387239
592 2 0.419442 0.482664 0.372947
713 4 0.451108 0.502381 0.348634
714 4 0.483081 0.464764 0.340674
712 2 0.467095 0.483573 0.344654
117 3 0.492613 0.45093 0.356673
594 4 0.434772 0.496298 0.358656
369 4 0.0558646 0.0114658 0.418975
718 2 0.0298418 0.00955689 0.446579
720 4 0.00935162 0.999179 0.45646
719 4 0.050332 0.0199347 0.436698
962 4 0.312677 0.0291955 0.430237
961 2 0.310165 0.0442292 0.450057
963 4 0.307653 0.059263 0.469878
432 4 0.310388 0.0678748 0.487271
459 4 0.0549509 0.155034 0.430625
260 4 0.0692722 0.168453 0.434726
320 4 0.297624 0.141061 0.417913
640 2 0.489693 0.129877 0.47288
641 4 0.472304 0.140944 0.487033
471 4 0.984391 0.197002 0.510051
259 2 0.0862035 0.186552 0.431422
261 4 0.103135 0.204652 0.428117
1035 4 0.12137 0.208319 0.43622
1033 2 0.121585 0.227681 0.452038
1034 4 0.121801 0.247043 0.467857
651 4 0.287597 0.250921 0.503447
489 4 0.345546 0.233747 0.435
487 2 0.342445 0.24846 0.415023
468 4 0.379635 0.178764 0.424213
514 2 0.413818 0.182438 0.453522
411 4 0.347571 0.224072 0.452645
516 4 0.389121 0.181795 0.457371
409 2 0.361559 0.203984 0.447545
410 4 0.375547 0.183897 0.442446
575 4 0.387535 0.183958 0.478002
515 4 0.438516 0.183081 0.449673
453 4 0.439102 0.18089 0.428208
584 4 0.486753 0.246322 0.480817
583 2 0.490598 0.235065 0.458824
585 4 0.494442 0.223808 0.436832
694 2 0.0759307 0.256344 0.493414
1258 2 0.125841 0.281325 0.488958
1259 4 0.132155 0.305106 0.493405
9 3 0.125823 0.324038 0.488853
696 4 0.10088 0.256228 0.491771
1260 4 0.119527 0.257544 0.484512
10 3 0.143189 0.325606 0.455482
266 4 0.366635 0.252365 0.468478
267 4 0.399858 0.287534 0.481127
265 2 0.383246 0.26995 0.474803
2847 4 0.0239301 0.335743 0.465994
2845 2 0.00648764 0.3531 0.470428
326 4 0.0596013 0.373731 0.442023
325 2 0.0771633 0.35915 0.452228
6 1 0.133266 0.337955 0.471843
7 3 0.11524 0.349173 0.462989
327 4 0.0947254 0.344569 0.462433
709 2 0.16259 0.398633 0.457491
8 3 0.148325 0.353448 0.480303
503 4 0.237556 0.386909 0.442572
504 4 0.18952 0.373858 0.447356
502 2 0.213538 0.380383 0.444964
710 4 0.186249 0.390548 0.457746
667 2 0.312308 0.398361 0.416018
773 4 0.310881 0.408537 0.488886
238 2 0.406124 0.390418 0.440068
240 4 0.395082 0.36804 0.438492
239 4 0.417165 0.412796 0.441644
3307 2 0.494307 0.396125 0.483067
3309 4 0.497816 0.412803 0.464772
559 2 0.498923 0.403493 0.427067
1381 2 0.00106596 0.491695 0.465304
1383 4 0.0100326 0.469813 0.457181
680 4 0.999533 0.462082 0.442017
679 2 0.996626 0.438725 0.43358
568 2 0.132199 0.494206 0.432003
383 4 0.120826 0.454722 0.423527
384 4 0.126211 0.421689 0.460683
382 2 0.123519 0.438206 0.442105
711 4 0.138931 0.406718 0.457237
569 4 0.118548 0.47509 0.423434
1555 2 0.24801 0.492347 0.422613
772 2 0.305989 0.419542 0.466974
634 2 0.29988 0.468256 0.434524
774 4 0.301096 0.430548 0.445062
669 4 0.30319 0.417816 0.428808
635 4 0.312799 0.447443 0.439536
636 4 0.286961 0.489068 0.429511
1557 4 0.268685 0.486707 0.435494
587 4 0.430283 0.420007 0.427522
882 4 0.374247 0.41696 0.491877
661 2 0.454008 0.491262 0.461412
662 4 0.459302 0.505749 0.481091
663 4 0.448713 0.476775 0.441733
342 4 0.221606 0.0612994 0.516938
340 2 0.218941 0.0385696 0.506867
341 4 0.216275 0.0158397 0.496796
1152 4 0.211591 0.0729943 0.529088
430 2 0.314973 0.0766445 0.510233
1217 4 0.383119 0.0709039 0.52848
1216 2 0.39987 0.0581986 0.514948
1218 4 0.416622 0.0454932 0.501415
1058 4 0.109215 0.115352 0.520811
1057 2 0.116305 0.12116 0.544074
1059 4 0.123395 0.126967 0.567337
939 4 0.111391 0.122409 0.582178
1032 4 0.244367 0.0816511 0.575111
1150 2 0.219285 0.082726 0.550796
1151 4 0.226979 0.0924578 0.572505
1181 4 0.215178 0.146316 0.552468
1180 2 0.239354 0.145422 0.54615
843 4 0.333579 0.0973263 0.542141
431 4 0.319557 0.0854143 0.533195
1182 4 0.26353 0.144528 0.539832
900 4 0.272192 0.148857 0.521052
841 2 0.357856 0.0913764 0.542797
842 4 0.382132 0.0854265 0.543453
1199 4 0.0306831 0.215204 0.566795
1198 2 0.00761733 0.224683 0.568611
878 4 0.0419426 0.229677 0.573852
877 2 0.0601623 0.214591 0.581953
857 4 0.224807 0.244781 0.524569
898 2 0.283654 0.169598 0.513075
650 4 0.280376 0.206616 0.525485
899 4 0.295115 0.190339 0.505098
649 2 0.283987 0.228769 0.514466
576 4 0.379447 0.200177 0.524609
574 2 0.383491 0.192067 0.501306
872 4 0.40594 0.253036 0.547404
1244 4 0.0403291 0.24801 0.568303
1245 4 0.0382619 0.292311 0.591407
1243 2 0.0392955 0.27016 0.579855
695 4 0.0509814 0.25646 0.495056
796 2 0.239625 0.256365 0.567353
858 4 0.178842 0.264472 0.524957
856 2 0.201824 0.254627 0.524763
947 4 0.205427 0.266854 0.578916
946 2 0.185997 0.278711 0.589264
797 4 0.26399 0.261241 0.564573
1238 4 0.311269 0.314789 0.582384
791 4 0.27556 0.262712 0.580469
871 2 0.399116 0.277013 0.549332
873 4 0.392291 0.30099 0.551259
813 4 0.393174 0.320136 0.556934
906 4 0.480587 0.295474 0.547016
953 4 0.472428 0.312835 0.542004
904 2 0.497647 0.287356 0.563393
952 2 0.452429 0.314032 0.556964
954 4 0.43243 0.315229 0.571923
2457 4 0.500651 0.297407 0.500664
982 2 0.0234267 0.329312 0.585555
984 4 0.0151481 0.347586 0.570632
3354 4 0.997742 0.345803 0.560204
993 4 0.0942702 0.375473 0.584671
1190 4 0.230249 0.365278 0.567532
803 4 0.249925 0.36139 0.563718
804 4 0.283642 0.352252 0.527936
1237 2 0.322557 0.336796 0.578713
802 2 0.266784 0.356821 0.545827
930 4 0.320672 0.372725 0.567812
1239 4 0.333845 0.358802 0.575042
811 2 0.403336 0.342978 0.556546
812 4 0.413499 0.36582 0.556158
927 4 0.409719 0.380969 0.569632
929 4 0.36017 0.399638 0.553101
928 2 0.340421 0.386181 0.560457
881 4 0.368617 0.393339 0.535593
880 2 0.371432 0.405149 0.513735
926 4 0.446714 0.414614 0.569339
925 2 0.428216 0.397791 0.569486
538 2 0.079061 0.458604 0.568284
539 4 0.0574261 0.44961 0.577014
540 4 0.100696 0.467598 0.559553
1160 4 0.125852 0.486142 0.549608
1159 2 0.135401 0.464167 0.556754
1161 4 0.14495 0.442191 0.563899
2244 4 0.108568 0.478339 0.54397
891 4 0.312413 0.427432 0.565036
1953 4 0.391472 0.481275 0.570681
1000 2 0.447234 0.451592 0.576056
1002 4 0.450734 0.432062 0.560841
2114 4 0.00957859 0.0173367 0.604649
4338 4 0.0172272 0.00578403 0.619386
823 2 0.153643 0.0293783 0.650045
825 4 0.138052 0.046013 0.660311
824 4 0.169234 0.0127436 0.639779
1283 4 0.125284 0.0600804 0.654671
1082 4 0.070111 0.0703497 0.658857
1282 2 0.122808 0.08057 0.668786
1030 2 0.256826 0.0789126 0.596615
1031 4 0.269286 0.0761741 0.618119
951 4 0.286711 0.0670828 0.61285
949 2 0.295281 0.0439724 0.617051
950 4 0.303851 0.0208619 0.621252
2283 4 0.386203 0.0146903 0.642113
809 4 0.480804 0.0499823 0.605622
808 2 0.471304 0.0579035 0.627351
810 4 0.461803 0.0658246 0.649081
42 3 0.455648 0.0540188 0.667154
938 4 0.0754625 0.106201 0.612955
1126 2 0.0277921 0.0952897 0.595842
1083 4 0.0694064 0.0878577 0.612021
1081 2 0.0697587 0.0791037 0.635439
1127 4 0.0500761 0.0918148 0.606637
1128 4 0.00550804 0.0987646 0.585047
937 2 0.0934266 0.114305 0.597567
1155 4 0.122617 0.137904 0.582981
1153 2 0.143971 0.146893 0.592384
1154 4 0.165324 0.155882 0.601786
1221 4 0.172003 0.164517 0.618166
887 4 0.323782 0.164641 0.665517
45 3 0.458377 0.0879962 0.651955
3425 4 0.471695 0.094121 0.670462
3424 2 0.488436 0.111866 0.664983
3426 4 0.505177 0.129611 0.659504
879 4 0.0783821 0.199505 0.590055
1272 4 0.100037 0.207285 0.589545
1271 4 0.113194 0.166601 0.563614
1270 2 0.106615 0.186943 0.576579
1212 4 0.209168 0.188678 0.654836
1219 2 0.180786 0.176676 0.638171
1220 4 0.189569 0.188835 0.658176
1210 2 0.232751 0.181071 0.658173
888 4 0.27527 0.172817 0.656543
886 2 0.299526 0.168729 0.66103
1194 4 0.33028 0.183742 0.668036
1193 4 0.374697 0.183472 0.645063
1192 2 0.352488 0.183607 0.656549
983 4 0.0317053 0.311038 0.600478
1136 4 0.150539 0.285048 0.608131
1135 2 0.14392 0.309088 0.609979
948 4 0.166568 0.290567 0.599612
798 4 0.215259 0.251489 0.570133
792 4 0.293329 0.309072 0.58645
790 2 0.284444 0.285892 0.58346
807 4 0.28765 0.321881 0.6638
805 2 0.310924 0.326232 0.655764
806 4 0.334198 0.330584 0.647729
3123 4 0.484504 0.260301 0.649148
1039 2 0.0665805 0.385787 0.620146
1041 4 0.0504739 0.389039 0.638993
3264 4 0.0307946 0.38863 0.644459
3262 2 0.0303561 0.367129 0.657214
3240 4 0.0265837 0.406483 0.636629
1040 4 0.082687 0.382536 0.6013
3263 4 0.0299176 0.345628 0.669969
897 4 0.145948 0.34973 0.613024
1137 4 0.137301 0.333129 0.611828
991 2 0.112538 0.360026 0.59194
992 4 0.130807 0.344579 0.599209
895 2 0.169046 0.358827 0.610042
1189 2 0.218886 0.37234 0.588655
1172 4 0.211293 0.392267 0.624683
1191 4 0.207524 0.379401 0.609779
896 4 0.192144 0.367925 0.607059
1171 2 0.209061 0.416777 0.620271
1206 4 0.39798 0.407013 0.642681
3238 2 0.00778516 0.422966 0.636277
1188 4 0.148755 0.449898 0.582412
1186 2 0.167056 0.445995 0.598996
1173 4 0.206829 0.441287 0.615858
1187 4 0.185357 0.442092 0.61558
1139 4 0.242332 0.462677 0.652431
889 2 0.321708 0.444999 0.580207
1230 4 0.346966 0.43305 0.651281
890 4 0.331003 0.462567 0.595379
1951 2 0.368444 0.477959 0.579841
1204 2 0.397609 0.43156 0.647424
1952 4 0.345416 0.474642 0.589001
1205 4 0.397238 0.456106 0.652167
1001 4 0.443733 0.471121 0.591272
1911 4 0.447787 0.48748 0.582483
1269 4 0.450118 0.484425 0.60323
1267 2 0.456493 0.494073 0.625399
945 4 0.0707418 0.0153963 0.69468
943 2 0.0620546 0.038772 0.692866
944 4 0.0533674 0.0621477 0.691053
1076 4 0.0653258 0.0743497 0.678901
1147 2 0.249182 0.0494547 0.729511
1148 4 0.240082 0.0658312 0.712953
1226 4 0.239051 0.0824506 0.701198
1149 4 0.258281 0.0330781 0.74607
1092 4 0.346939 0.0102953 0.695127
1004 4 0.386441 0.0832805 0.721459
41 1 0.452636 0.0765342 0.670779
43 3 0.430337 0.0803899 0.675904
1163 4 0.471278 0.0624271 0.682151
1162 2 0.488133 0.0516314 0.697136
864 4 0.0596049 0.105064 0.730044
1075 2 0.0637254 0.0933441 0.695082
1077 4 0.062125 0.112339 0.711263
1107 4 0.0754957 0.115036 0.724596
851 4 0.0729022 0.127592 0.708315
850 2 0.0753075 0.147845 0.693851
862 2 0.0416036 0.100027 0.74665
1105 2 0.0955811 0.114873 0.739486
1284 4 0.120333 0.10106 0.682901
909 4 0.146562 0.111156 0.74816
852 4 0.0777129 0.168097 0.679386
907 2 0.166371 0.117216 0.734157
908 4 0.18618 0.123276 0.720155
1227 4 0.202683 0.115839 0.709157
1225 2 0.220867 0.0991448 0.705178
829 2 0.327454 0.137166 0.69521
830 4 0.326975 0.15936 0.683704
831 4 0.327932 0.114972 0.706716
1003 2 0.367159 0.0985905 0.717105
1005 4 0.347876 0.113901 0.71275
44 3 0.466092 0.0831465 0.688488
1072 2 0.11197 0.230754 0.727176
1074 4 0.101898 0.248075 0.712219
1073 4 0.122043 0.213433 0.742132
1211 4 0.256334 0.173464 0.661511
1144 2 0.486727 0.173765 0.732212
1025 4 0.425101 0.186957 0.679447
1262 4 0.45745 0.201986 0.724758
1142 4 0.452068 0.172121 0.738241
1024 2 0.439116 0.185095 0.70007
1026 4 0.453132 0.183234 0.720692
1261 2 0.460507 0.223022 0.737922
1145 4 0.464642 0.185454 0.733102
1177 2 0.0188285 0.258173 0.705204
1179 4 0.0356793 0.270504 0.69145
1209 4 0.130355 0.300183 0.715639
1207 2 0.112796 0.283247 0.71016
1208 4 0.0952364 0.26631 0.704681
821 4 0.140484 0.31716 0.710062
820 2 0.161674 0.319177 0.696942
822 4 0.182863 0.321195 0.683822
1063 2 0.213995 0.303638 0.692517
1064 4 0.192222 0.303656 0.680224
1065 4 0.235768 0.303621 0.70481
892 2 0.0200544 0.359913 0.746815
894 4 0.0362645 0.361345 0.727832
1280 4 0.0545634 0.359365 0.716708
1279 2 0.0537767 0.383017 0.708637
816 4 0.0705921 0.356075 0.728433
1281 4 0.0529901 0.406669 0.700566
814 2 0.0912078 0.346643 0.738978
942 4 0.126907 0.349468 0.741571
815 4 0.111824 0.337211 0.749524
1028 4 0.239419 0.398461 0.744782
1066 2 0.20797 0.37878 0.748572
1068 4 0.230014 0.381422 0.737072
1027 2 0.246365 0.410103 0.723772
1020 4 0.407803 0.404999 0.748211
1018 2 0.384015 0.4 0.742352
1019 4 0.360228 0.395002 0.736492
1983 4 0.0604589 0.424603 0.706949
1981 2 0.056564 0.443676 0.72264
1982 4 0.0526692 0.462749 0.738332
1176 4 0.182664 0.496464 0.713299
1140 4 0.244215 0.439154 0.69652
2016 4 0.177196 0.49185 0.731751
1138 2 0.243273 0.450916 0.674475
1029 4 0.25331 0.421744 0.702763
1987 2 0.328338 0.481871 0.728127
1989 4 0.340013 0.47467 0.707222
1228 2 0.345012 0.447643 0.67149
1229 4 0.343059 0.462237 0.691699
2991 4 0.0228708 0.0457056 0.805571
2989 2 0.0188775 0.0658201 0.791266
2990 4 0.0148841 0.0859346 0.776961
3083 4 0.00538096 0.0864741 0.760615
2048 4 0.146518 0.0112817 0.756254
2049 4 0.120335 0.0370909 0.790152
1202 4 0.105551 0.0478413 0.783569
2047 2 0.133426 0.0241863 0.773203
1201 2 0.108917 0.0724563 0.78639
1257 4 0.256874 0.0860782 0.750605
817 2 0.324258 0.0379614 0.824089
819 4 0.308177 0.0568621 0.827146
1085 4 0.312026 0.0746359 0.820042
818 4 0.340339 0.0190608 0.821032
974 4 0.350874 0.00810116 0.809392
973 2 0.372011 0.999803 0.819858
1050 4 0.354091 0.999983 0.79019
2322 4 0.495081 0.0529804 0.771784
1113 4 0.414297 0.0477051 0.77241
1111 2 0.438168 0.055133 0.772819
845 4 0.479958 0.0645285 0.778753
1112 4 0.462039 0.0625609 0.773228
863 4 0.0236024 0.0949894 0.763256
833 4 0.00790337 0.102847 0.769893
832 2 0.00853973 0.121563 0.786461
834 4 0.00917608 0.140278 0.803029
1125 4 0.0122169 0.15239 0.819439
1123 2 0.0335045 0.144804 0.830137
1106 4 0.115666 0.11471 0.754377
1203 4 0.112282 0.0970713 0.789211
911 4 0.100674 0.114907 0.814938
34 3 0.110823 0.117554 0.77296
31 1 0.115074 0.124192 0.794784
35 3 0.0972488 0.135737 0.803006
32 3 0.118592 0.105482 0.807696
33 3 0.134097 0.13746 0.795465
1256 4 0.243859 0.0918006 0.798548
840 4 0.23194 0.100421 0.81084
838 2 0.232938 0.113595 0.832068
1255 2 0.250367 0.0889394 0.774576
1084 2 0.315464 0.0917775 0.802167
1086 4 0.318902 0.108919 0.784292
47 3 0.395135 0.162793 0.811635
1023 4 0.397942 0.155278 0.829467
846 4 0.491804 0.113111 0.779116
844 2 0.485881 0.0888197 0.778935
1130 4 0.130305 0.238641 0.776526
1129 2 0.154136 0.231861 0.773166
1131 4 0.177967 0.225081 0.769807
1277 4 0.187158 0.236092 0.785414
978 4 0.256884 0.192541 0.763431
977 4 0.297035 0.220289 0.774321
918 4 0.306077 0.236162 0.781387
976 2 0.27696 0.206415 0.768876
1298 4 0.30985 0.219063 0.789874
1297 2 0.323965 0.199824 0.797345
48 3 0.39659 0.179101 0.777803
1299 4 0.338079 0.180585 0.804815
1042 2 0.388786 0.23491 0.799679
1043 4 0.394313 0.211001 0.794884
49 3 0.403618 0.199328 0.809202
46 1 0.406026 0.178629 0.798996
1263 4 0.463564 0.244059 0.751087
1143 4 0.420199 0.175449 0.776634
1141 2 0.436133 0.173785 0.757438
50 3 0.428096 0.173197 0.797555
1306 2 0.481256 0.250145 0.812056