ITEM: TIMESTEP
950000
ITEM: NUMBER OF ATOMS
4590
ITEM: BOX BOUNDS pp pp pp
-9.9985700000000008e+00 9.9985700000000008e+00
-9.9985700000000008e+00 9.9985700000000008e+00
-9.9985700000000008e+00 9.9985700000000008e+00
ITEM: ATOMS id type xs ys zs
1668 4 0.0534172 0.0520819 0.0671486
1475 4 0.294004 0.0313991 0.0753871
492 4 0.275577 0.0289652 0.0831958
1474 2 0.301357 0.00888525 0.0673718
987 4 0.401004 0.0243843 0.992304
747 4 0.449369 0.0608091 0.0223069
2974 2 0.47008 0.0237843 0.0324985
2976 4 0.483269 0.00436191 0.0411009
2975 4 0.456891 0.0432067 0.0238961
986 4 0.439424 0.0460886 0.0158319
745 2 0.439537 0.0833111 0.0175989
985 2 0.420214 0.0352364 0.00406773
566 4 0.151473 0.155355 0.063303
567 4 0.182413 0.181885 0.0343269
565 2 0.166943 0.16862 0.0488149
297 4 0.331552 0.0751082 0.0628645
360 4 0.308098 0.162943 0.0695217
358 2 0.331534 0.15889 0.0618073
295 2 0.338663 0.0857407 0.0413808
296 4 0.345775 0.0963733 0.0198971
557 4 0.363261 0.102448 0.0180979
556 2 0.387867 0.104712 0.021921
769 2 0.390124 0.153287 0.0477589
770 4 0.368517 0.165835 0.0468296
359 4 0.35497 0.154837 0.054093
558 4 0.412473 0.106975 0.0257442
771 4 0.411731 0.140738 0.0486881
746 4 0.429705 0.105813 0.0128909
554 4 0.0933086 0.248555 0.0248177
664 2 0.380433 0.205201 0.0315596
665 4 0.3736 0.181563 0.036002
666 4 0.387266 0.228839 0.0271172
323 4 0.399803 0.264779 0.0778025
462 4 0.349061 0.212541 0.0874996
553 2 0.0818641 0.270046 0.0305039
555 4 0.0704195 0.291537 0.0361901
656 4 0.00268581 0.303368 0.0628263
287 4 0.15344 0.313419 0.0504276
292 2 0.152332 0.27312 0.0162796
293 4 0.160486 0.287188 0.0352737
507 4 0.167605 0.301949 0.0461186
505 2 0.185095 0.295758 0.0628797
506 4 0.202586 0.289567 0.0796408
481 2 0.23014 0.258297 0.06522
483 4 0.211112 0.273852 0.0698238
482 4 0.249167 0.242742 0.0606162
573 4 0.260604 0.253512 0.0496192
572 4 0.281006 0.261899 0.00474001
571 2 0.270805 0.257705 0.0271796
957 4 0.362984 0.325719 0.992382
322 2 0.40798 0.274403 0.0562223
1069 2 0.395175 0.301276 0.00378773
324 4 0.416157 0.284026 0.034642
1070 4 0.41541 0.293432 0.016205
671 4 0.453732 0.322508 0.062141
280 2 0.448281 0.307634 0.0286308
281 4 0.460823 0.323674 0.0431417
282 4 0.435738 0.291593 0.0141198
670 2 0.438036 0.328983 0.0804959
551 4 0.057735 0.371762 0.0884861
286 2 0.155819 0.336884 0.0421258
288 4 0.158197 0.360349 0.0338241
550 2 0.0826294 0.370624 0.0864479
552 4 0.107524 0.369487 0.0844096
454 2 0.146395 0.379141 0.0835378
456 4 0.171027 0.374951 0.0844786
250 2 0.296608 0.396877 0.0404814
251 4 0.281437 0.391617 0.0213153
252 4 0.31178 0.402137 0.0596475
609 4 0.314374 0.418485 0.0715786
741 4 0.341997 0.342375 0.0529287
739 2 0.348957 0.336382 0.0761842
245 4 0.223933 0.449765 0.0689439
626 4 0.206579 0.442188 0.0640187
244 2 0.230133 0.456346 0.0456324
246 4 0.236333 0.462927 0.0223209
272 4 0.257034 0.465186 0.0214409
525 4 0.358031 0.480681 0.0911793
563 4 0.463362 0.462802 0.0355057
228 4 0.472027 0.46452 0.0527377
226 2 0.467457 0.452532 0.074199
562 2 0.450349 0.481352 0.0249353
1666 2 0.0715572 0.0621925 0.0810733
19 3 0.0549919 0.0745774 0.150237
18 3 0.0570939 0.0367047 0.14786
16 1 0.0552261 0.0547634 0.16231
1667 4 0.0896971 0.0723032 0.094998
701 4 0.0917188 0.088066 0.109432
448 2 0.198555 0.0666418 0.176172
1506 4 0.247691 0.0291892 0.167599
1539 4 0.171469 0.0070163 0.146628
450 4 0.196109 0.0443393 0.187208
490 2 0.278212 0.0480015 0.0991914
652 2 0.288249 0.0196828 0.160354
491 4 0.280848 0.0670377 0.115187
654 4 0.264852 0.02766 0.156601
653 4 0.311647 0.0117056 0.164107
311 4 0.381577 0.063195 0.166015
310 2 0.390997 0.0838539 0.155543
758 4 0.372349 0.0534394 0.181664
2722 2 0.473122 0.0470414 0.145829
2723 4 0.451079 0.0586558 0.143732
2724 4 0.495165 0.035427 0.147927
1760 4 0.503573 0.0214361 0.158312
1759 2 0.503489 0.00146779 0.143265
702 4 0.0951721 0.118712 0.148797
2623 2 0.00537082 0.163047 0.106031
700 2 0.0934454 0.103389 0.129114
476 4 0.085158 0.134787 0.146579
449 4 0.201001 0.0889442 0.165136
236 4 0.204591 0.108598 0.165533
737 4 0.194526 0.171966 0.122851
582 4 0.283578 0.152489 0.150598
581 4 0.316512 0.119045 0.167849
580 2 0.300045 0.135767 0.159223
628 2 0.398887 0.13877 0.124097
630 4 0.389667 0.160204 0.115111
312 4 0.400417 0.104513 0.145072
629 4 0.408108 0.117336 0.133083
254 4 0.3919 0.176717 0.125502
2625 4 0.00957377 0.184924 0.117384
736 2 0.182101 0.193581 0.120964
738 4 0.169676 0.215197 0.119077
461 4 0.30174 0.220264 0.101705
460 2 0.3254 0.216402 0.0946022
354 4 0.285862 0.229011 0.0985401
278 4 0.262793 0.246821 0.158043
352 2 0.278829 0.237324 0.121048
353 4 0.271797 0.245636 0.143557
284 4 0.277727 0.236164 0.160486
255 4 0.366866 0.206395 0.0939865
253 2 0.379383 0.191556 0.109744
765 4 0.380834 0.245916 0.152027
763 2 0.359273 0.241261 0.163802
528 4 0.447966 0.259472 0.115011
646 2 0.0649142 0.325372 0.160796
339 4 0.0997995 0.26605 0.12883
337 2 0.0839182 0.259047 0.146827
536 4 0.192067 0.286258 0.127054
535 2 0.189222 0.311096 0.127434
754 2 0.265218 0.28763 0.154213
755 4 0.264017 0.26338 0.148242
756 4 0.266419 0.311881 0.160184
624 4 0.380897 0.23947 0.13316
622 2 0.382073 0.247168 0.1094
623 4 0.383249 0.254866 0.0856401
672 4 0.42234 0.335457 0.0988508
518 4 0.463995 0.2587 0.104973
526 2 0.442183 0.276025 0.132836
527 4 0.436399 0.292578 0.150661
648 4 0.0536331 0.340139 0.144068
455 4 0.121763 0.383332 0.0825969
537 4 0.186377 0.335935 0.127813
417 4 0.17842 0.417565 0.145088
415 2 0.198974 0.404579 0.150926
302 4 0.306823 0.349235 0.149555
387 4 0.327 0.346085 0.151994
385 2 0.338745 0.346827 0.129933
740 4 0.355916 0.330388 0.0994398
15 3 0.36818 0.355307 0.100703
386 4 0.35049 0.34757 0.107872
11 1 0.38864 0.361707 0.10839
13 3 0.388239 0.363369 0.13153
14 3 0.394564 0.38212 0.0990828
12 3 0.404274 0.345956 0.102336
493 2 0.412035 0.409194 0.0930413
495 4 0.411971 0.384522 0.0889807
1791 4 0.0589066 0.491421 0.141688
625 2 0.189827 0.441336 0.082561
627 4 0.173075 0.440485 0.101103
607 2 0.325089 0.432187 0.089541
608 4 0.335803 0.445889 0.107503
658 2 0.380348 0.445878 0.114902
659 4 0.355397 0.447246 0.115758
660 4 0.4053 0.44451 0.114046
494 4 0.412099 0.433865 0.0971018
227 4 0.462888 0.440544 0.0956604
20 3 0.072644 0.0548093 0.176982
17 3 0.0354902 0.0529352 0.173985
2480 4 0.0273634 0.0358518 0.180775
1422 4 0.0259714 0.0199701 0.17061
2479 2 0.00867432 0.0451917 0.194511
673 2 0.136767 0.0221522 0.246687
674 4 0.15558 0.0183719 0.230658
693 4 0.244714 0.0781805 0.224176
691 2 0.228146 0.0793543 0.242866
689 4 0.184215 0.0100543 0.244713
1504 2 0.236462 0.00861938 0.176316
24 3 0.32671 0.0747227 0.260204
25 3 0.331863 0.0474633 0.234747
21 1 0.341873 0.0596621 0.251168
759 4 0.349995 0.0578817 0.226176
22 3 0.359538 0.0713631 0.242214
757 2 0.361172 0.0556605 0.20392
744 4 0.5062 0.0425093 0.217579
380 4 0.00780312 0.0910792 0.180439
578 4 0.0688689 0.102999 0.206127
379 2 0.0229467 0.11024 0.185797
381 4 0.0380903 0.129402 0.191154
512 4 0.0407375 0.1384 0.208749
511 2 0.0390854 0.160043 0.22116
475 2 0.0962452 0.140163 0.168336
477 4 0.107332 0.145539 0.190093
577 2 0.0911963 0.102103 0.217346
579 4 0.113524 0.101208 0.228565
237 4 0.223416 0.154689 0.170217
235 2 0.214004 0.131644 0.167875
28 3 0.307546 0.145972 0.249223
333 4 0.47631 0.104795 0.252826
331 2 0.481568 0.129236 0.253228
332 4 0.486826 0.153677 0.253631
513 4 0.0374332 0.181686 0.233571
363 4 0.0766343 0.241863 0.180932
443 4 0.999614 0.232522 0.243045
279 4 0.218917 0.235282 0.179079
546 4 0.174651 0.180239 0.244495
277 2 0.240855 0.241052 0.168561
283 2 0.299542 0.234446 0.172583
285 4 0.321357 0.232729 0.18468
27 3 0.314794 0.18265 0.245376
764 4 0.337713 0.236606 0.175577
521 4 0.485667 0.161989 0.236378
762 4 0.485141 0.17297 0.252859
338 4 0.0680369 0.252044 0.164825
394 2 0.00732811 0.249017 0.217254
395 4 0.0247243 0.249624 0.199304
748 2 0.0874265 0.291512 0.24267
749 4 0.0853996 0.268938 0.232112
647 4 0.0761953 0.310604 0.177525
750 4 0.0894535 0.314086 0.253229
361 2 0.0881257 0.2511 0.201126
371 4 0.160568 0.287281 0.207954
370 2 0.136884 0.281379 0.213377
372 4 0.1132 0.275477 0.2188
362 4 0.0996172 0.260336 0.22132
344 4 0.238974 0.31301 0.235736
612 4 0.266777 0.318406 0.179623
610 2 0.261768 0.313385 0.2036
307 2 0.306612 0.301288 0.2305
308 4 0.308097 0.290019 0.208229
291 4 0.232346 0.404186 0.16611
416 4 0.219528 0.391594 0.156764
289 2 0.247352 0.422412 0.174345
611 4 0.256758 0.308365 0.227576
303 4 0.308857 0.359013 0.198554
301 2 0.30784 0.354124 0.174054
729 4 0.322818 0.361339 0.212468
727 2 0.333504 0.365877 0.234613
447 4 0.389928 0.385802 0.241805
644 4 0.404037 0.373201 0.23382
595 2 0.466406 0.401657 0.190332
597 4 0.46522 0.384475 0.208458
643 2 0.428151 0.375589 0.227657
645 4 0.452266 0.377977 0.221495
263 4 0.999244 0.455034 0.225326
262 2 0.0112853 0.434655 0.23338
767 4 0.294719 0.484816 0.161013
290 4 0.262359 0.440637 0.182581
768 4 0.282349 0.442288 0.184229
766 2 0.288534 0.463552 0.172621
230 4 0.406247 0.498825 0.213669
596 4 0.467592 0.41884 0.172206
231 4 0.439879 0.467809 0.19348
229 2 0.423063 0.483317 0.203575
234 4 0.0119762 0.0263459 0.306128
232 2 0.0308469 0.031348 0.290506
233 4 0.0497176 0.03635 0.274884
1404 4 0.0579715 0.018184 0.276245
1402 2 0.082931 0.0167632 0.276674
675 4 0.117954 0.0259324 0.262717
1403 4 0.10789 0.0153423 0.277102
692 4 0.211578 0.0805282 0.261555
723 4 0.215558 0.0727132 0.279813
1700 4 0.286238 0.037623 0.359347
23 3 0.349865 0.0455484 0.267761
1496 4 0.372779 0.00185956 0.293224
479 4 0.485457 0.0477013 0.303089
478 2 0.470063 0.0663076 0.296609
351 4 0.434564 0.0905496 0.28921
398 4 0.0490937 0.123639 0.320506
397 2 0.0634033 0.108551 0.33439
721 2 0.223979 0.0882023 0.297543
722 4 0.2324 0.103691 0.315274
249 4 0.233355 0.104439 0.334868
29 3 0.3319 0.163311 0.27269
26 1 0.31221 0.16563 0.260633
632 4 0.380407 0.106907 0.2484
707 4 0.350984 0.163481 0.278033
633 4 0.355628 0.144683 0.269839
631 2 0.368017 0.125795 0.25912
706 2 0.347209 0.154546 0.301079
350 4 0.396439 0.101023 0.258591
349 2 0.415502 0.0957861 0.2739
480 4 0.454668 0.084914 0.290129
393 4 0.0512545 0.182184 0.247494
444 4 0.00447825 0.21182 0.288305
391 2 0.06239 0.185642 0.269612
442 2 0.00204613 0.222171 0.265675
392 4 0.0735255 0.1891 0.29173
388 2 0.11406 0.2349 0.323329
545 4 0.176041 0.221538 0.272659
390 4 0.123308 0.250501 0.306116
544 2 0.175346 0.200889 0.258577
400 2 0.178059 0.238427 0.306234
402 4 0.176976 0.2182 0.291576
30 3 0.295037 0.170711 0.274702
708 4 0.343435 0.14561 0.324124
717 4 0.391181 0.23602 0.334141
761 4 0.467982 0.202234 0.2896
760 2 0.476562 0.187602 0.271229
300 4 0.0983013 0.332976 0.254205
343 2 0.247718 0.301087 0.255899
345 4 0.256462 0.289163 0.276062
401 4 0.179142 0.258655 0.320891
496 2 0.314387 0.321922 0.281762
497 4 0.312016 0.31477 0.305603
377 4 0.298285 0.313076 0.320013
498 4 0.316757 0.329074 0.25792
309 4 0.305126 0.312557 0.252771
376 2 0.285304 0.300641 0.337393
541 2 0.386092 0.292741 0.329312
543 4 0.366555 0.306134 0.321305
615 4 0.36589 0.324737 0.313802
542 4 0.405629 0.279347 0.337319
364 2 0.00375539 0.373198 0.287427
365 4 0.0224679 0.376656 0.271207
601 2 0.0530811 0.395768 0.294147
603 4 0.0420435 0.384433 0.274786
602 4 0.0641188 0.407104 0.313508
549 4 0.055269 0.419951 0.325971
298 2 0.120183 0.345033 0.255209
299 4 0.142065 0.357089 0.256212
734 4 0.154523 0.35178 0.271001
676 2 0.200782 0.329292 0.324799
677 4 0.206507 0.336385 0.301516
733 2 0.178037 0.345368 0.276582
735 4 0.201551 0.338955 0.282162
433 2 0.299138 0.369708 0.331812
434 4 0.322331 0.366275 0.323124
435 4 0.275945 0.37314 0.3405
728 4 0.344191 0.370415 0.256757
613 2 0.353762 0.345794 0.319691
614 4 0.341633 0.366852 0.32558
445 2 0.385058 0.381297 0.265912
446 4 0.380188 0.376792 0.290019
264 4 0.0233271 0.414276 0.241434
2463 4 0.996115 0.476165 0.317865
2461 2 0.0123386 0.492028 0.328368
1757 4 0.103253 0.475885 0.26677
777 4 0.103621 0.474823 0.300868
775 2 0.106844 0.4831 0.324241
412 2 0.217821 0.502449 0.31524
413 4 0.241584 0.502278 0.323015
414 4 0.194057 0.50262 0.307466
1437 4 0.282777 0.460359 0.312479
1435 2 0.271983 0.482409 0.317217
1803 4 0.330375 0.502784 0.252716
436 2 0.335137 0.45651 0.32364
437 4 0.343796 0.440449 0.306545
316 2 0.0590525 0.0546019 0.345768
317 4 0.0527293 0.0304243 0.344966
318 4 0.0653756 0.0787794 0.346569
428 4 0.0545307 0.0111447 0.339429
1781 4 0.115815 0.00132076 0.403349
368 4 0.0970404 0.000304378 0.407359
606 4 0.14318 0.0746769 0.35798
1699 2 0.295823 0.014667 0.356829
683 4 0.299108 0.0694872 0.391854
699 4 0.344651 0.0645052 0.353453
697 2 0.366962 0.0532269 0.353875
698 4 0.389274 0.0419487 0.354296
257 4 0.400311 0.0259161 0.353546
258 4 0.443843 0.0243182 0.328986
1428 4 0.462503 0.0196239 0.336449
256 2 0.422077 0.0251172 0.341266
2879 4 0.495369 0.0887885 0.409466
399 4 0.0777129 0.0934631 0.348274
732 4 0.0848961 0.0759951 0.346424
457 2 0.0362649 0.140043 0.4174
458 4 0.0325061 0.117651 0.406928
604 2 0.161362 0.0899087 0.36589
731 4 0.128664 0.0814099 0.369998
730 2 0.10678 0.0787025 0.358211
598 2 0.159227 0.15567 0.370813
599 4 0.147009 0.165613 0.351395
404 4 0.249361 0.116611 0.338325
600 4 0.171445 0.145726 0.39023
605 4 0.179544 0.105141 0.373801
248 4 0.200098 0.0981582 0.371682
247 2 0.216726 0.101298 0.353275
403 2 0.253374 0.141134 0.341106
682 2 0.286978 0.0895596 0.400522
320 4 0.293074 0.119254 0.405114
452 4 0.465917 0.155905 0.387236
451 2 0.453208 0.154274 0.408707
389 4 0.104812 0.219299 0.340541
686 4 0.148607 0.212963 0.408386
275 4 0.163468 0.241708 0.362457
473 4 0.243743 0.179629 0.344077
474 4 0.20069 0.195714 0.363787
276 4 0.205363 0.215172 0.368891
472 2 0.222217 0.187672 0.353932
274 2 0.184416 0.22844 0.365674
405 4 0.257386 0.165656 0.343887
715 2 0.404442 0.21658 0.342593
466 2 0.398413 0.191194 0.39087
716 4 0.417703 0.197141 0.351044
467 4 0.413989 0.192825 0.371379
269 4 0.490732 0.222935 0.378789
268 2 0.474774 0.224182 0.397997
270 4 0.458816 0.225428 0.417206
346 2 0.0581869 0.318841 0.371064
348 4 0.0371199 0.312664 0.383031
347 4 0.079254 0.325019 0.359098
618 4 0.0852087 0.30599 0.365654
616 2 0.108762 0.298735 0.361435
617 4 0.132315 0.291481 0.357217
374 4 0.158206 0.309064 0.391078
678 4 0.195057 0.322199 0.348082
375 4 0.200071 0.312037 0.363889
373 2 0.179138 0.31055 0.377483
378 4 0.272323 0.288207 0.354773
420 4 0.4096 0.283815 0.356858
418 2 0.427549 0.266423 0.356128
419 4 0.445497 0.24903 0.355398
2814 4 0.00403658 0.397468 0.413877
681 4 0.0119024 0.415056 0.417161
510 4 0.228525 0.395222 0.366863
508 2 0.22948 0.370267 0.365642
509 4 0.230436 0.345311 0.364422
504 4 0.201554 0.399691 0.431121
561 4 0.462899 0.398492 0.392699
751 2 0.448059 0.393423 0.356555
752 4 0.455985 0.386273 0.379166
559 2 0.481634 0.393739 0.40856
547 2 0.0760218 0.42365 0.339418
407 4 0.0997123 0.421684 0.371808
548 4 0.0967746 0.42735 0.352865
406 2 0.103172 0.433447 0.393599
776 4 0.110067 0.491377 0.347613
408 4 0.106632 0.44521 0.41539
1543 2 0.186396 0.497878 0.408382
1544 4 0.210037 0.499637 0.400433
1556 4 0.228009 0.493386 0.406378
438 4 0.326479 0.472572 0.340734
3 3 0.308415 0.466037 0.354245
1 1 0.312102 0.488819 0.356651
4 3 0.317484 0.493689 0.37869
2 3 0.329694 0.49497 0.343167
1742 4 0.413711 0.490423 0.333582
594 4 0.403624 0.479573 0.345718
592 2 0.403131 0.474122 0.370115
593 4 0.402638 0.468671 0.394512
588 4 0.414596 0.472286 0.410994
118 3 0.482949 0.426055 0.333007
713 4 0.419569 0.47148 0.338903
714 4 0.466558 0.455549 0.332664
753 4 0.440133 0.400573 0.333945
712 2 0.443064 0.463514 0.335784
119 3 0.482463 0.461894 0.345646
116 1 0.492342 0.441034 0.348033
117 3 0.488605 0.433441 0.369423
718 2 0.0388927 0.0238398 0.455472
720 4 0.0244697 0.0129286 0.472737
2237 4 0.014941 0.000515248 0.486683
719 4 0.0533157 0.0347509 0.438206
369 4 0.0727637 0.0327521 0.436659
367 2 0.0849021 0.0165282 0.422009
441 4 0.311635 0.0267443 0.419432
962 4 0.30642 0.0217433 0.438758
961 2 0.309727 0.0332428 0.460713
963 4 0.313033 0.0447424 0.482667
432 4 0.297919 0.0500521 0.492218
426 4 0.381185 0.0288427 0.422635
424 2 0.356452 0.0272681 0.419323
425 4 0.331719 0.0256935 0.416012
725 4 0.404005 0.0806933 0.419139
459 4 0.0400237 0.162435 0.427872
684 4 0.274848 0.109632 0.409191
321 4 0.312881 0.165117 0.402898
319 2 0.302977 0.142186 0.404006
724 2 0.407919 0.0884565 0.442582
726 4 0.411833 0.0962197 0.466025
453 4 0.440499 0.152642 0.430178
2878 2 0.49338 0.105109 0.428304
2880 4 0.491392 0.121429 0.447142
640 2 0.479417 0.12987 0.487594
642 4 0.49188 0.122792 0.467106
515 4 0.426228 0.156154 0.44429
260 4 0.0589385 0.168089 0.429054
259 2 0.0792098 0.178826 0.439003
685 2 0.131819 0.205768 0.425461
687 4 0.11503 0.198574 0.442537
261 4 0.0994811 0.189563 0.448951
1035 4 0.11478 0.195942 0.461194
1033 2 0.10926 0.203055 0.48452
487 2 0.322489 0.243952 0.435963
489 4 0.325488 0.219537 0.440447
468 4 0.382836 0.189564 0.410361
516 4 0.37987 0.173108 0.452303
514 2 0.403049 0.164631 0.448297
411 4 0.334356 0.207265 0.426177
409 2 0.358793 0.202187 0.427667
410 4 0.38323 0.197109 0.429157
575 4 0.376333 0.176503 0.473287
266 4 0.347719 0.239869 0.459949
695 4 0.0572156 0.249929 0.480652
694 2 0.0796315 0.257915 0.472976
696 4 0.102047 0.265902 0.465301
1258 2 0.121438 0.293449 0.477795
1260 4 0.119947 0.273185 0.463224
1259 4 0.12293 0.313713 0.492366
9 3 0.134656 0.32962 0.485672
857 4 0.196158 0.268072 0.499793
651 4 0.271198 0.276163 0.496051
488 4 0.31949 0.268366 0.431479
267 4 0.386103 0.266811 0.477312
265 2 0.366911 0.25334 0.468631
583 2 0.475142 0.25958 0.474386
585 4 0.454343 0.256201 0.460926
584 4 0.495941 0.262959 0.487846
326 4 0.07855 0.354598 0.454981
6 1 0.14812 0.348499 0.486517
327 4 0.115243 0.370427 0.485044
325 2 0.0968966 0.362513 0.470013
7 3 0.134769 0.36704 0.48919
711 4 0.140859 0.401311 0.428623
10 3 0.159932 0.350492 0.467148
709 2 0.164386 0.397712 0.436286
502 2 0.222238 0.385646 0.431411
710 4 0.187912 0.394112 0.443949
503 4 0.242922 0.371601 0.4317
772 2 0.284679 0.40086 0.494555
669 4 0.292297 0.406545 0.458222
336 4 0.326919 0.35704 0.430105
668 4 0.314323 0.372458 0.429005
667 2 0.30331 0.389501 0.443613
773 4 0.283149 0.385668 0.514355
882 4 0.34213 0.398532 0.470543
335 4 0.376125 0.365554 0.432749
334 2 0.351522 0.361297 0.431427
238 2 0.406895 0.391723 0.434404
240 4 0.395176 0.370713 0.427591
239 4 0.418614 0.412733 0.441218
3307 2 0.502201 0.395656 0.483432
3309 4 0.48863 0.41622 0.479173
679 2 0.0245728 0.434269 0.426934
680 4 0.0372432 0.453481 0.436707
1383 4 0.0430531 0.473337 0.434899
1381 2 0.0278269 0.49161 0.442607
570 4 0.142882 0.497085 0.417871
568 2 0.133691 0.473899 0.416101
569 4 0.124499 0.450714 0.414331
383 4 0.113948 0.44183 0.430599
382 2 0.101712 0.435976 0.451603
384 4 0.0894758 0.430121 0.472608
1555 2 0.241038 0.48875 0.42721
636 4 0.267305 0.47546 0.461448
635 4 0.291842 0.435691 0.479254
634 2 0.279574 0.455576 0.470351
774 4 0.286209 0.416052 0.474755
1557 4 0.254066 0.484114 0.448041
587 4 0.40867 0.426166 0.429393
586 2 0.411633 0.449226 0.420194
880 2 0.344971 0.41051 0.492307
663 4 0.443037 0.459181 0.466161
661 2 0.450413 0.48288 0.463141
1058 4 0.109923 0.0805942 0.575337
342 4 0.207982 0.0767583 0.514112
340 2 0.215101 0.0541311 0.522018
2430 4 0.215082 0.0142323 0.527093
2428 2 0.198958 0.998822 0.515791
341 4 0.22222 0.0315039 0.529924
430 2 0.306333 0.0609025 0.513115
431 4 0.314747 0.0717528 0.534011
1217 4 0.395267 0.076302 0.526108
1216 2 0.405014 0.0533798 0.528286
1218 4 0.414761 0.0304576 0.530464
3007 2 0.495827 0.03621 0.57748
1128 4 0.00313592 0.100492 0.580005
470 4 0.0294269 0.14811 0.518344
1059 4 0.138332 0.12158 0.571625
1057 2 0.124127 0.101087 0.573481
939 4 0.105412 0.139073 0.572145
1155 4 0.124576 0.136519 0.575373
1151 4 0.206413 0.121472 0.548037
1150 2 0.20398 0.108267 0.526944
1152 4 0.201547 0.0950627 0.505852
1181 4 0.231859 0.121947 0.491557
1182 4 0.271261 0.132464 0.520498
1180 2 0.25156 0.127206 0.506027
900 4 0.270857 0.152212 0.517651
1032 4 0.256787 0.108261 0.588851
841 2 0.354974 0.086312 0.531467
842 4 0.379829 0.0890129 0.53115
843 4 0.330119 0.083611 0.531784
641 4 0.466955 0.136947 0.508083
469 2 0.0184886 0.166029 0.531925
878 4 0.0355531 0.236779 0.580486
471 4 0.00755035 0.183948 0.545506
1199 4 0.014747 0.236598 0.575289
877 2 0.0515485 0.217931 0.57673
1272 4 0.0846906 0.192348 0.580283
1244 4 0.0316639 0.252709 0.592004
1034 4 0.103739 0.210168 0.507846
1271 4 0.132831 0.202777 0.588912
1270 2 0.108761 0.197563 0.584598
858 4 0.175072 0.236606 0.532443
856 2 0.185615 0.252339 0.516118
898 2 0.286777 0.165012 0.532069
899 4 0.302698 0.177812 0.546486
650 4 0.270614 0.226194 0.497919
576 4 0.370377 0.191565 0.520598
574 2 0.373355 0.184034 0.496942
3157 2 0.49149 0.191181 0.574917
983 4 0.028104 0.304254 0.557031
1245 4 0.0427494 0.295351 0.568351
1243 2 0.0372066 0.27403 0.580177
947 4 0.185494 0.247184 0.580677
1238 4 0.298319 0.297748 0.567283
1237 2 0.312726 0.315064 0.578134
649 2 0.270906 0.251179 0.496985
872 4 0.361456 0.274639 0.559132
871 2 0.364762 0.299009 0.554621
873 4 0.368068 0.323379 0.55011
906 4 0.467035 0.274104 0.570579
953 4 0.448534 0.280579 0.568071
904 2 0.488496 0.27716 0.558118
952 2 0.430447 0.290706 0.582051
982 2 0.022448 0.328553 0.55537
984 4 0.0167921 0.352851 0.553709
3354 4 0.02434 0.368539 0.563712
3352 2 0.00659976 0.383498 0.554401
8 3 0.162657 0.347061 0.504544
1190 4 0.238418 0.349305 0.569872
803 4 0.235536 0.3656 0.555838
802 2 0.247321 0.356513 0.535745
804 4 0.259105 0.347427 0.515652
930 4 0.324347 0.351834 0.58221
813 4 0.370531 0.344113 0.550619
929 4 0.356091 0.388634 0.593992
928 2 0.340219 0.370234 0.588101
811 2 0.382405 0.365839 0.547128
812 4 0.394279 0.387564 0.543637
927 4 0.412838 0.396348 0.540427
926 4 0.460446 0.408995 0.549041
925 2 0.436642 0.402672 0.544734
539 4 0.0731666 0.457384 0.535446
538 2 0.0905767 0.475247 0.537181
540 4 0.107987 0.493109 0.538916
1160 4 0.137375 0.491584 0.537869
1159 2 0.156606 0.491412 0.553847
1161 4 0.175837 0.491241 0.569826
881 4 0.347811 0.422489 0.51407
1951 2 0.358386 0.476579 0.577371
1953 4 0.377371 0.48252 0.562222
1002 4 0.440724 0.433826 0.577136
1000 2 0.442478 0.454602 0.563336
1001 4 0.444232 0.475378 0.549535
1911 4 0.453775 0.489963 0.538623
1082 4 0.063722 0.0903453 0.659269
823 2 0.141731 0.0139834 0.628638
825 4 0.127783 0.0321918 0.618684
1031 4 0.293159 0.0739831 0.590533
951 4 0.300028 0.0555323 0.588346
949 2 0.307414 0.0359767 0.602065
950 4 0.314799 0.0164211 0.615784
2283 4 0.412554 0.0228208 0.602402
3008 4 0.474269 0.0415125 0.588983
809 4 0.484507 0.0387847 0.606651
808 2 0.474203 0.0533986 0.624128
42 3 0.457 0.0577845 0.659371
810 4 0.463899 0.0680126 0.641605
938 4 0.0590061 0.139785 0.590765
1083 4 0.0647488 0.0888128 0.609296
1126 2 0.0246335 0.0946239 0.591345
1081 2 0.0642354 0.089579 0.634282
1127 4 0.046131 0.0887558 0.602686
937 2 0.082209 0.139429 0.581455
1153 2 0.144199 0.150227 0.5826
1154 4 0.163821 0.163935 0.589827
1030 2 0.274973 0.0911218 0.589692
45 3 0.460383 0.0914928 0.643712
41 1 0.453426 0.0803193 0.662297
879 4 0.0675439 0.199084 0.572975
1177 2 0.993769 0.238598 0.661274
1179 4 0.00706616 0.248494 0.642554
1221 4 0.170486 0.176919 0.60402
1212 4 0.208218 0.189032 0.646804
1219 2 0.188756 0.187856 0.617126
1220 4 0.207026 0.198794 0.630231
1210 2 0.229125 0.193754 0.659679
1193 4 0.365205 0.18735 0.656757
1192 2 0.34133 0.189258 0.663935
3159 4 0.473019 0.185554 0.590802
1136 4 0.137704 0.29511 0.586774
948 4 0.154169 0.286122 0.578837
946 2 0.169832 0.266653 0.579757
1135 2 0.136795 0.31927 0.593151
798 4 0.205186 0.25083 0.57418
796 2 0.229525 0.25206 0.579769
797 4 0.253865 0.253291 0.585359
791 4 0.267531 0.258325 0.598507
792 4 0.295226 0.27824 0.56194
790 2 0.281379 0.268282 0.580223
807 4 0.324486 0.30608 0.648921
805 2 0.324687 0.324864 0.665422
954 4 0.412359 0.300833 0.596032
3123 4 0.496134 0.263258 0.639768
1039 2 0.0652292 0.399308 0.619378
1041 4 0.0454899 0.397995 0.634669
3264 4 0.0319771 0.398993 0.648104
3262 2 0.0352664 0.377456 0.660373
897 4 0.14624 0.359408 0.60446
1040 4 0.0849684 0.400621 0.604087
993 4 0.0876239 0.388611 0.587521
1137 4 0.135886 0.34343 0.599527
991 2 0.107966 0.37508 0.592839
992 4 0.128308 0.361549 0.598156
895 2 0.170193 0.36622 0.602213
1189 2 0.2257 0.361905 0.587327
1172 4 0.218985 0.39332 0.605805
1191 4 0.212982 0.374505 0.604782
896 4 0.194146 0.373032 0.599966
1140 4 0.248191 0.414584 0.672305
1239 4 0.327133 0.332381 0.588986
806 4 0.324888 0.343649 0.681923
3240 4 0.0126505 0.402384 0.653021
1188 4 0.184036 0.478333 0.583187
1171 2 0.216253 0.418104 0.607672
1173 4 0.213522 0.442887 0.609539
1187 4 0.209588 0.45971 0.62193
1186 2 0.196812 0.469021 0.602558
889 2 0.298321 0.465175 0.598833
891 4 0.274015 0.463055 0.593364
890 4 0.322627 0.467296 0.604301
1230 4 0.341463 0.446139 0.654538
1952 4 0.339402 0.470638 0.59252
1204 2 0.405917 0.433314 0.670293
1206 4 0.424239 0.429252 0.653771
1269 4 0.4392 0.488234 0.623229
1267 2 0.45494 0.491699 0.642346
945 4 0.048045 0.0295351 0.658318
943 2 0.0521949 0.0498515 0.672289
944 4 0.0563448 0.070168 0.68626
1076 4 0.0634272 0.086666 0.678818
1147 2 0.219927 0.0543395 0.722951
1148 4 0.225182 0.0661037 0.701522
1149 4 0.214672 0.0425754 0.744379
1004 4 0.356214 0.0675738 0.692386
1163 4 0.470041 0.0653062 0.675037
1162 2 0.486943 0.0515064 0.687247
2320 2 0.489109 0.0313051 0.739139
2321 4 0.497501 0.0276248 0.715875
1164 4 0.503845 0.0377066 0.699456
864 4 0.0478041 0.118549 0.728655
1075 2 0.055538 0.104629 0.694318
1077 4 0.0476488 0.122593 0.709818
1107 4 0.0603993 0.131805 0.720434
851 4 0.0556844 0.140286 0.706304
850 2 0.0401494 0.157446 0.69685
852 4 0.0246143 0.174606 0.687395
862 2 0.0391923 0.105876 0.748414
1283 4 0.126816 0.0850024 0.684994
1105 2 0.0820563 0.139439 0.730327
1282 2 0.130014 0.0988351 0.705576
1284 4 0.133212 0.112668 0.726158
1106 4 0.103713 0.147074 0.74022
909 4 0.154557 0.158053 0.672427
908 4 0.194441 0.141331 0.697534
907 2 0.174499 0.149692 0.68498
1227 4 0.209019 0.132463 0.707822
1225 2 0.218479 0.109516 0.704799
1226 4 0.22794 0.0865699 0.701776
829 2 0.328358 0.147216 0.695993
830 4 0.314348 0.163621 0.683353
1003 2 0.35606 0.0920924 0.697284
1005 4 0.355906 0.116611 0.702183
831 4 0.342369 0.130812 0.708632
3424 2 0.486407 0.119078 0.667225
3425 4 0.470305 0.100638 0.66214
43 3 0.430759 0.0839409 0.665691
44 3 0.46545 0.0874802 0.680805
1214 4 0.00795596 0.218492 0.7323
1073 4 0.120774 0.208655 0.721117
1072 2 0.116678 0.23332 0.721022
1211 4 0.250033 0.198475 0.672555
1194 4 0.317455 0.191166 0.671114
887 4 0.303923 0.177438 0.67292
888 4 0.257695 0.189487 0.6877
886 2 0.280809 0.183463 0.68031
1025 4 0.455913 0.196061 0.664499
1262 4 0.472123 0.20916 0.725191
1142 4 0.448493 0.183639 0.724343
1024 2 0.459416 0.195083 0.689237
1141 2 0.448663 0.173602 0.747243
1026 4 0.46292 0.194105 0.713975
1261 2 0.464006 0.231113 0.733987
1145 4 0.489113 0.207817 0.714563
1074 4 0.112581 0.257986 0.720927
1209 4 0.144147 0.306803 0.694892
1207 2 0.127131 0.292138 0.705872
1208 4 0.110115 0.277472 0.716851
821 4 0.161025 0.317257 0.696444
820 2 0.181636 0.305167 0.703804
822 4 0.202248 0.293076 0.711164
1063 2 0.233657 0.292816 0.705503
1064 4 0.214122 0.277277 0.706958
1065 4 0.253192 0.308354 0.704048
1263 4 0.455888 0.253065 0.742783
3263 4 0.0385556 0.355919 0.672642
893 4 0.995289 0.350638 0.737433
892 2 0.0155887 0.362065 0.728347
894 4 0.0358881 0.373491 0.719261
1280 4 0.0517737 0.383864 0.726325
1279 2 0.047708 0.408174 0.722119
816 4 0.0709148 0.375028 0.724524
814 2 0.0903864 0.365456 0.73695
815 4 0.109858 0.355884 0.749377
1029 4 0.229626 0.406406 0.676875
1028 4 0.218153 0.369923 0.709094
1066 2 0.201194 0.377348 0.743648
1068 4 0.2204 0.372638 0.728348
1027 2 0.223889 0.388165 0.692984
1019 4 0.360981 0.395634 0.730718
1018 2 0.371088 0.417817 0.736283
1981 2 0.0724743 0.457526 0.71686
1281 4 0.0436422 0.432483 0.717914
1983 4 0.0490452 0.451421 0.710616
1982 4 0.0959035 0.463631 0.723103
1138 2 0.249097 0.438825 0.678366
1176 4 0.19543 0.505205 0.728595
1139 4 0.250004 0.463066 0.684427
1987 2 0.3255 0.477119 0.730896
1228 2 0.336138 0.458382 0.67568
1989 4 0.327454 0.487822 0.708384
1229 4 0.330814 0.470625 0.696821
1020 4 0.381194 0.44 0.741847
1205 4 0.387595 0.437376 0.686815
1268 4 0.470679 0.495164 0.661463
1100 4 0.410736 0.514348 0.703976
1099 2 0.431995 0.503454 0.69659
2991 4 0.0242621 0.0297942 0.771779
2989 2 0.0212137 0.0543408 0.768125
2990 4 0.0181652 0.0788874 0.764471
1203 4 0.112498 0.0920227 0.774941
1202 4 0.126281 0.0442582 0.769529
2049 4 0.141861 0.0330469 0.774639
1201 2 0.119389 0.0681404 0.772235
2047 2 0.144713 0.0106935 0.763805
817 2 0.324584 0.0487181 0.809039
819 4 0.311539 0.0677497 0.818672
818 4 0.33763 0.0296865 0.799406
1085 4 0.315364 0.0880703 0.816916
1050 4 0.344088 0.00177234 0.773411
975 4 0.389917 0.0070096 0.808225
974 4 0.345889 0.0177111 0.787065
973 2 0.367903 0.0123603 0.797645
1113 4 0.418352 0.0642809 0.772949
2322 4 0.480717 0.0349854 0.762403
1111 2 0.440742 0.0636523 0.784061
845 4 0.480603 0.0668385 0.802129
844 2 0.501262 0.0733719 0.789651
1112 4 0.463132 0.0630236 0.795172
863 4 0.0305806 0.093203 0.768173
833 4 0.0127854 0.0924822 0.777378
832 2 0.0142572 0.103499 0.799775
834 4 0.0157291 0.114515 0.822173
1125 4 0.0302835 0.126008 0.82807
911 4 0.109086 0.124041 0.818204
34 3 0.109613 0.111155 0.775501
31 1 0.114882 0.126703 0.791899
35 3 0.0958613 0.134036 0.802053
32 3 0.12845 0.116697 0.807549
33 3 0.126237 0.144612 0.78248
1257 4 0.21644 0.0749609 0.77757
1255 2 0.236312 0.0839154 0.789821
1256 4 0.256184 0.0928698 0.802072
840 4 0.24633 0.105663 0.816152
1084 2 0.306058 0.106832 0.803257
1086 4 0.296752 0.125594 0.789598
960 4 0.301343 0.0966106 0.830588
48 3 0.443621 0.174811 0.785515
1130 4 0.149948 0.211235 0.802604
1129 2 0.167245 0.216439 0.785315
978 4 0.239146 0.222758 0.769839
1131 4 0.184543 0.221643 0.768026
1277 4 0.194215 0.237151 0.777222
977 4 0.288831 0.226015 0.765199
918 4 0.299035 0.242328 0.761457