ITEM: TIMESTEP
600000
ITEM: NUMBER OF ATOMS
4590
ITEM: BOX BOUNDS pp pp pp
-9.9985700000000008e+00 9.9985700000000008e+00
-9.9985700000000008e+00 9.9985700000000008e+00
-9.9985700000000008e+00 9.9985700000000008e+00
ITEM: ATOMS id type xs ys zs
591 4 0.00324822 0.0595322 0.0671867
1668 4 0.0743648 0.0269344 0.087416
1475 4 0.28554 0.0175232 0.0642286
492 4 0.283553 0.0530491 0.0776658
297 4 0.304084 0.0669508 0.0431194
295 2 0.322588 0.0830634 0.0479315
985 2 0.401107 0.0413842 0.00629287
1607 4 0.401022 0.00756981 0.0259401
987 4 0.411262 0.024061 0.0211913
747 4 0.463656 0.0631723 0.998159
2974 2 0.481782 0.0288837 0.018087
2976 4 0.491631 0.0114407 0.0330506
2468 4 0.493544 0.0120799 0.0516364
2975 4 0.471932 0.0463268 0.0031234
745 2 0.459694 0.0849638 0.0097611
463 2 0.0527718 0.0860898 0.0143138
464 4 0.0714028 0.0761433 0.00092964
465 4 0.0341409 0.0960363 0.0276979
422 4 0.121268 0.117408 0.00674154
566 4 0.1775 0.150395 0.0820673
358 2 0.304992 0.145587 0.0664163
360 4 0.321996 0.156736 0.0518652
296 4 0.341093 0.0991759 0.0527437
557 4 0.352462 0.109329 0.0393499
556 2 0.375926 0.113466 0.046936
558 4 0.399389 0.117602 0.0545221
746 4 0.455732 0.106755 0.0213635
554 4 0.0831186 0.225689 0.0346518
553 2 0.0676329 0.245239 0.0328715
565 2 0.194236 0.167524 0.074875
567 4 0.210971 0.184652 0.0676826
666 4 0.322833 0.207931 0.0110496
665 4 0.340449 0.186126 0.0524614
664 2 0.331641 0.197029 0.0317555
769 2 0.419294 0.179349 0.056148
770 4 0.39576 0.183311 0.0486901
771 4 0.442829 0.175387 0.0636058
324 4 0.45194 0.235304 0.0528439
322 2 0.427703 0.239052 0.0577104
555 4 0.0521471 0.264789 0.0310913
836 4 0.0925316 0.260361 0.00165558
292 2 0.138283 0.304785 0.00620585
293 4 0.142014 0.293709 0.02831
507 4 0.147909 0.296683 0.0471984
505 2 0.169707 0.29831 0.0593383
483 4 0.210654 0.293448 0.0717777
506 4 0.191506 0.299937 0.0714781
481 2 0.23072 0.280302 0.0647268
573 4 0.267913 0.258577 0.0542789
572 4 0.294766 0.265337 0.0126382
571 2 0.281339 0.261957 0.0334586
482 4 0.250786 0.267156 0.0576759
323 4 0.403465 0.2428 0.0625768
1071 4 0.379114 0.269486 0.999621
1069 2 0.392856 0.287234 0.010638
1070 4 0.406597 0.304981 0.0216549
957 4 0.343127 0.328723 0.0144818
671 4 0.440314 0.326533 0.0751812
280 2 0.43451 0.31809 0.0357968
281 4 0.447127 0.321251 0.0571508
282 4 0.421893 0.314928 0.0144427
550 2 0.0684038 0.416704 0.069203
551 4 0.0443856 0.423062 0.0720118
330 4 0.0226814 0.405535 0.0109818
288 4 0.15662 0.349923 0.0390952
552 4 0.0924219 0.410346 0.0663942
455 4 0.112048 0.408621 0.0621499
286 2 0.173256 0.350698 0.0204453
252 4 0.295552 0.40627 0.0438543
250 2 0.311657 0.401522 0.0253275
251 4 0.327763 0.396773 0.00680075
609 4 0.294348 0.409596 0.063352
607 2 0.305239 0.414545 0.0853083
741 4 0.342599 0.341269 0.0557533
739 2 0.350355 0.354743 0.0753356
328 2 0.017131 0.429058 0.017388
329 4 0.0115806 0.452581 0.0237941
245 4 0.217351 0.458923 0.0385687
626 4 0.218642 0.457468 0.058431
244 2 0.233594 0.449809 0.0218868
625 2 0.205461 0.456454 0.0796535
246 4 0.249837 0.440696 0.00520488
272 4 0.26309 0.457151 0.00879843
563 4 0.459825 0.474537 0.0717965
228 4 0.479165 0.476123 0.079928
562 2 0.447634 0.496108 0.0684414
1666 2 0.0825675 0.0503514 0.0905042
19 3 0.0538891 0.0526697 0.142632
1667 4 0.0907703 0.0737684 0.0935923
450 4 0.172139 0.0438152 0.135066
448 2 0.173981 0.0684357 0.131113
449 4 0.175822 0.0930561 0.127161
654 4 0.284832 0.00194781 0.151923
490 2 0.29114 0.0695845 0.0948179
652 2 0.303739 0.0182026 0.153781
491 4 0.298728 0.0861198 0.11197
653 4 0.322647 0.0344575 0.155638
310 2 0.413286 0.0838495 0.150189
2722 2 0.485493 0.0567744 0.133998
1759 2 0.488677 0.995812 0.123092
1760 4 0.495895 0.013701 0.139
2723 4 0.480629 0.0799389 0.12594
2744 4 0.498931 0.0228653 0.155267
380 4 0.0291957 0.147778 0.14892
701 4 0.0858932 0.0877423 0.106634
700 2 0.101744 0.105719 0.113759
702 4 0.117596 0.123695 0.120885
476 4 0.121358 0.133088 0.137169
475 2 0.119822 0.148188 0.157039
237 4 0.171531 0.149597 0.140739
235 2 0.178683 0.125644 0.141291
236 4 0.185834 0.101692 0.141843
359 4 0.287988 0.134437 0.0809675
629 4 0.415882 0.112919 0.126384
628 2 0.410905 0.137124 0.12257
312 4 0.415397 0.0937467 0.127324
630 4 0.405927 0.161328 0.118756
254 4 0.388335 0.159266 0.108224
337 2 0.0666611 0.238133 0.148311
339 4 0.0502331 0.244282 0.130493
477 4 0.118286 0.163288 0.176908
737 4 0.191666 0.202057 0.133188
736 2 0.209297 0.213047 0.119277
738 4 0.226928 0.224037 0.105365
461 4 0.298731 0.228002 0.0942012
460 2 0.3193 0.213887 0.0925052
354 4 0.27991 0.235588 0.0967743
352 2 0.275958 0.245194 0.119518
284 4 0.278597 0.243308 0.158163
353 4 0.272006 0.2548 0.142262
278 4 0.260932 0.248048 0.153465
283 2 0.299715 0.234809 0.168505
255 4 0.35853 0.196782 0.0939084
462 4 0.339869 0.199772 0.0908092
253 2 0.373433 0.178024 0.101066
765 4 0.386112 0.227839 0.149543
624 4 0.392126 0.231992 0.131689
763 2 0.368946 0.228472 0.167712
518 4 0.496089 0.227321 0.109378
536 4 0.191622 0.300406 0.127715
535 2 0.194998 0.322795 0.138322
754 2 0.265578 0.283255 0.158674
755 4 0.255229 0.265108 0.144935
756 4 0.275928 0.301402 0.172413
622 2 0.388517 0.254067 0.120515
623 4 0.384908 0.276142 0.109341
670 2 0.430675 0.315364 0.0953686
672 4 0.421036 0.304195 0.115556
528 4 0.475718 0.264805 0.136535
621 4 0.0128659 0.367429 0.13061
619 2 0.00289858 0.361661 0.108416
454 2 0.126917 0.396458 0.0781551
456 4 0.141786 0.384295 0.0941604
537 4 0.198374 0.345185 0.148929
302 4 0.31021 0.377234 0.151425
387 4 0.328862 0.378681 0.143378
385 2 0.346852 0.370687 0.127963
740 4 0.358112 0.368218 0.0949179
15 3 0.384288 0.357753 0.113759
386 4 0.364841 0.362693 0.112547
11 1 0.403413 0.365855 0.123098
13 3 0.402806 0.363006 0.146118
14 3 0.405817 0.388355 0.117962
495 4 0.410698 0.406628 0.113624
12 3 0.421441 0.354331 0.114652
596 4 0.48531 0.409654 0.160919
493 2 0.427937 0.417283 0.128268
595 2 0.465562 0.39568 0.167234
314 4 0.00368055 0.439779 0.140649
637 2 0.243181 0.49413 0.14484
627 4 0.192279 0.455439 0.100876
639 4 0.229936 0.513656 0.136565
608 4 0.316129 0.419494 0.107265
638 4 0.256426 0.474604 0.153116
523 2 0.328793 0.491354 0.0969869
525 4 0.330954 0.475096 0.11586
658 2 0.360896 0.446585 0.130356
659 4 0.362691 0.456396 0.107428
660 4 0.359101 0.436773 0.153284
226 2 0.491893 0.461479 0.095699
494 4 0.445176 0.427938 0.142912
20 3 0.0619928 0.0681749 0.175973
16 1 0.0517375 0.0506569 0.165648
17 3 0.0293798 0.0507064 0.171059
2480 4 0.0156985 0.0523925 0.186335
18 3 0.0611333 0.0306699 0.172764
1422 4 0.0118007 0.0326971 0.192131
1420 2 0.0240624 0.0110336 0.194481
578 4 0.0604167 0.0670288 0.219153
577 2 0.0792053 0.0828176 0.223937
673 2 0.117533 0.0364812 0.23976
674 4 0.124731 0.0420661 0.216476
689 4 0.173242 0.0458219 0.225918
688 2 0.175739 0.023065 0.235971
692 4 0.214224 0.0812265 0.245648
690 4 0.178235 0.000308081 0.246025
24 3 0.323753 0.0433398 0.237718
21 1 0.346597 0.0395721 0.236173
25 3 0.352747 0.0379788 0.214303
759 4 0.365428 0.0527352 0.221314
22 3 0.357717 0.0572008 0.245906
757 2 0.382679 0.0607321 0.205077
758 4 0.399929 0.068729 0.18884
311 4 0.411175 0.0739522 0.173053
23 3 0.352184 0.0200554 0.24741
742 2 0.477512 0.0543367 0.215877
744 4 0.497087 0.0391247 0.219133
743 4 0.457937 0.0695487 0.212621
379 2 0.0189701 0.14962 0.171663
381 4 0.0087446 0.151463 0.194405
511 2 0.0356136 0.156828 0.224263
512 4 0.0211954 0.144763 0.207779
579 4 0.0979938 0.0986063 0.22872
691 2 0.22795 0.0858104 0.225257
693 4 0.241676 0.0903944 0.204867
582 4 0.299403 0.0938001 0.19037
580 2 0.28774 0.108251 0.173627
581 4 0.276078 0.122703 0.156884
28 3 0.292703 0.136977 0.242168
331 2 0.454376 0.141672 0.24252
333 4 0.447694 0.117995 0.238057
338 4 0.0830892 0.231983 0.166129
513 4 0.0500318 0.168893 0.240747
396 4 0.999027 0.241518 0.250188
363 4 0.0866153 0.234708 0.185512
277 2 0.241833 0.23401 0.161425
279 4 0.222735 0.219971 0.169384
285 4 0.320834 0.22631 0.178847
764 4 0.35178 0.229104 0.185882
520 2 0.48655 0.203514 0.224727
521 4 0.468654 0.186526 0.220683
332 4 0.461058 0.165349 0.246983
394 2 0.00718298 0.255022 0.23079
395 4 0.0153389 0.268526 0.211391
361 2 0.0941315 0.252784 0.201067
371 4 0.160294 0.286651 0.24175
370 2 0.140666 0.276963 0.229665
372 4 0.121037 0.267275 0.217581
748 2 0.0954137 0.309691 0.227127
362 4 0.101648 0.27086 0.216622
749 4 0.0978238 0.28493 0.229627
750 4 0.0930036 0.334452 0.224626
343 2 0.232987 0.30349 0.239332
345 4 0.213557 0.314617 0.228204
344 4 0.252417 0.292363 0.250461
612 4 0.2663 0.319423 0.17696
307 2 0.322989 0.284723 0.243318
308 4 0.321679 0.265915 0.226895
526 2 0.478599 0.2693 0.160962
527 4 0.481479 0.273795 0.185389
647 4 0.0679417 0.375742 0.183227
646 2 0.0837137 0.356428 0.185067
648 4 0.0994857 0.337114 0.186907
300 4 0.106653 0.354751 0.262509
417 4 0.15874 0.384086 0.185322
415 2 0.179331 0.398032 0.182733
291 4 0.212788 0.398786 0.187589
416 4 0.199923 0.411977 0.180144
289 2 0.233412 0.408835 0.197531
610 2 0.280702 0.33924 0.181967
611 4 0.295104 0.359056 0.186974
303 4 0.312128 0.40242 0.194584
301 2 0.311169 0.389827 0.173005
729 4 0.310413 0.38626 0.206674
727 2 0.307562 0.389248 0.231335
597 4 0.445814 0.381705 0.17355
643 2 0.429132 0.378053 0.207693
644 4 0.424151 0.364523 0.228121
645 4 0.434112 0.391583 0.187265
447 4 0.417775 0.359072 0.246929
262 2 0.0150631 0.425057 0.2359
263 4 0.0275106 0.41534 0.255286
1756 2 0.0826361 0.499822 0.248087
1758 4 0.10608 0.497046 0.23985
290 4 0.254036 0.418884 0.207473
768 4 0.253446 0.433247 0.19386
766 2 0.255158 0.455946 0.183516
767 4 0.256869 0.478645 0.173172
229 2 0.413284 0.493971 0.247915
231 4 0.408348 0.472345 0.259453
232 2 0.0124267 0.0517988 0.295064
233 4 0.0281253 0.042566 0.277932
1402 2 0.0703019 0.0297349 0.273156
1404 4 0.0461348 0.0361476 0.27326
675 4 0.110335 0.0308962 0.263045
1403 4 0.0944689 0.0233222 0.273051
429 4 0.104889 0.995209 0.320144
1464 4 0.106246 0.0114188 0.287567
427 2 0.0859764 0.00752262 0.330909
723 4 0.197862 0.0707126 0.251964
1701 4 0.225057 0.0339885 0.338597
721 2 0.205774 0.0771471 0.274793
722 4 0.213687 0.0835816 0.297622
1699 2 0.248854 0.0349372 0.330983
1700 4 0.27265 0.0358858 0.323368
478 2 0.47259 0.0429756 0.294841
480 4 0.46244 0.0549438 0.275375
351 4 0.445545 0.0587303 0.283607
479 4 0.48274 0.0310073 0.314307
391 2 0.0802142 0.17129 0.253978
392 4 0.0975137 0.1579 0.266086
249 4 0.221811 0.0895853 0.314938
247 2 0.206822 0.0905719 0.334926
403 2 0.228537 0.130526 0.30067
404 4 0.229977 0.106313 0.30674
405 4 0.227096 0.154739 0.2946
26 1 0.304904 0.153737 0.25259
27 3 0.318246 0.16405 0.236945
29 3 0.3184 0.144606 0.269109
633 4 0.34758 0.123296 0.286283
632 4 0.363996 0.10537 0.242581
631 2 0.355788 0.114333 0.264432
706 2 0.343071 0.154164 0.315603
707 4 0.349633 0.141703 0.294942
350 4 0.419007 0.0987846 0.269746
349 2 0.432276 0.0787575 0.276676
531 4 0.0123763 0.16137 0.263334
393 4 0.0629147 0.18468 0.24187
442 2 0.00503812 0.24848 0.290284
443 4 0.00817733 0.249035 0.265485
546 4 0.134666 0.184357 0.264691
544 2 0.156572 0.176957 0.274206
545 4 0.178478 0.169557 0.283721
30 3 0.290783 0.169104 0.261707
717 4 0.373366 0.207259 0.332923
708 4 0.33651 0.166625 0.336263
762 4 0.462863 0.176455 0.264564
418 2 0.425365 0.239278 0.337604
761 4 0.496419 0.198312 0.294514
760 2 0.479641 0.187384 0.279539
444 4 0.0018989 0.247925 0.315084
390 4 0.0975021 0.263868 0.294954
388 2 0.0944759 0.268505 0.319336
400 2 0.20118 0.277224 0.293935
402 4 0.214016 0.297359 0.286519
401 4 0.188344 0.25709 0.301352
309 4 0.324299 0.303531 0.259741
496 2 0.314403 0.319774 0.284989
497 4 0.301731 0.317573 0.306431
498 4 0.327074 0.321975 0.263547
377 4 0.286148 0.324237 0.317895
376 2 0.283543 0.304732 0.333321
543 4 0.379602 0.31189 0.334718
615 4 0.383202 0.324028 0.31934
541 2 0.390196 0.289247 0.334254
542 4 0.400791 0.266603 0.333791
420 4 0.412497 0.255345 0.323412
364 2 0.018915 0.362391 0.292074
365 4 0.0334874 0.379198 0.280657
601 2 0.0686395 0.388224 0.296347
603 4 0.0532555 0.382301 0.277547
2493 4 0.995502 0.327368 0.306338
366 4 0.00434255 0.345584 0.303491
298 2 0.128427 0.3641 0.27049
299 4 0.1502 0.373449 0.27847
602 4 0.0840235 0.394147 0.315146
734 4 0.166253 0.376125 0.266167
549 4 0.0748004 0.412003 0.317831
733 2 0.182448 0.364364 0.281152
677 4 0.185751 0.339717 0.30419
735 4 0.198643 0.352603 0.296138
676 2 0.187829 0.336311 0.328873
510 4 0.230134 0.350455 0.325466
433 2 0.319619 0.374348 0.328172
728 4 0.304712 0.392235 0.255995
613 2 0.361857 0.33692 0.317504
434 4 0.342267 0.369612 0.318695
614 4 0.340512 0.349811 0.315669
118 3 0.495587 0.414751 0.315727
445 2 0.429212 0.371287 0.265508
446 4 0.440649 0.383502 0.284087
1757 4 0.0591921 0.502597 0.256325
776 4 0.0891398 0.494204 0.332113
777 4 0.0949332 0.462682 0.293727
775 2 0.0920365 0.478443 0.31292
414 4 0.22708 0.488521 0.315922
412 2 0.209444 0.478234 0.301489
413 4 0.191808 0.467946 0.287056
436 2 0.332716 0.453468 0.311687
437 4 0.337845 0.444249 0.289018
116 1 0.498634 0.435741 0.325135
119 3 0.483681 0.450843 0.315821
713 4 0.415885 0.45646 0.318897
712 2 0.44043 0.451934 0.320387
714 4 0.464976 0.447408 0.321876
316 2 0.066171 0.0639044 0.342265
317 4 0.0645179 0.0391723 0.345547
428 4 0.0670638 0.019836 0.341673
1781 4 0.123808 0.014935 0.418319
683 4 0.303229 0.0763157 0.357048
698 4 0.39143 0.0634452 0.356595
699 4 0.350448 0.0663698 0.328088
257 4 0.404512 0.0556269 0.344618
697 2 0.370939 0.0649075 0.342341
426 4 0.378933 0.0251709 0.408775
2642 4 0.489763 0.0757954 0.397432
256 2 0.426747 0.0444388 0.346991
258 4 0.448981 0.0332506 0.349363
2879 4 0.481269 0.0720786 0.416658
732 4 0.0833409 0.0995131 0.331439
2586 4 0.0151983 0.133997 0.38014
318 4 0.0678242 0.0886364 0.338983
398 4 0.0487283 0.14907 0.357198
397 2 0.0603146 0.127869 0.350758
399 4 0.0719009 0.106669 0.344318
457 2 0.0296493 0.156361 0.412328
458 4 0.014286 0.149427 0.39386
606 4 0.132396 0.101295 0.357846
731 4 0.132573 0.104536 0.338627
730 2 0.107957 0.102024 0.335033
604 2 0.155385 0.0928061 0.362812
599 4 0.13023 0.159156 0.395185
598 2 0.144563 0.150399 0.376663
600 4 0.158895 0.141642 0.35814
605 4 0.178373 0.0843177 0.367777
248 4 0.191832 0.0915585 0.354914
682 2 0.301551 0.0825887 0.381194
684 4 0.299874 0.0888617 0.405339
320 4 0.290862 0.104947 0.41493
452 4 0.479051 0.121823 0.401374
451 2 0.462033 0.140004 0.403611
453 4 0.445014 0.158184 0.405848
306 4 0.499216 0.161737 0.418103
260 4 0.0602104 0.177768 0.431572
474 4 0.207563 0.223787 0.371945
276 4 0.196668 0.232665 0.386246
472 2 0.226393 0.210433 0.38155
473 4 0.245224 0.197079 0.391155
715 2 0.379508 0.216281 0.35542
716 4 0.38565 0.225302 0.377916
467 4 0.379774 0.214871 0.393053
466 2 0.373809 0.213708 0.417307
419 4 0.438233 0.22321 0.351797
268 2 0.46649 0.238924 0.413209
270 4 0.448645 0.221638 0.410392
347 4 0.0502779 0.302294 0.377648
346 2 0.0506425 0.292231 0.400534
618 4 0.0574457 0.305604 0.359516
616 2 0.0784115 0.317972 0.353802
389 4 0.0914496 0.273141 0.343719
274 2 0.190915 0.256623 0.38199
275 4 0.185162 0.28058 0.377735
375 4 0.205075 0.334046 0.367715
378 4 0.280937 0.285228 0.348748
488 4 0.290068 0.26363 0.413587
617 4 0.0993772 0.33034 0.348088
374 4 0.168669 0.344878 0.400242
373 2 0.186872 0.339462 0.383978
678 4 0.189908 0.332905 0.353556
508 2 0.240673 0.351622 0.34811
509 4 0.251211 0.352789 0.370754
435 4 0.296971 0.379085 0.337648
559 2 0.490412 0.398451 0.409995
561 4 0.481196 0.405128 0.387731
752 4 0.463036 0.415169 0.38958
547 2 0.075508 0.42016 0.341456
548 4 0.0762156 0.428316 0.365082
407 4 0.0842572 0.442384 0.377455
406 2 0.084701 0.443627 0.402423
501 4 0.113078 0.496628 0.385283
1545 4 0.17283 0.505314 0.3824
570 4 0.170269 0.492701 0.398676
438 4 0.327588 0.462688 0.334356
1436 4 0.253826 0.49598 0.333976
3 3 0.329613 0.468626 0.353658
5 3 0.298044 0.479362 0.371145
1 1 0.31899 0.485857 0.365
4 3 0.331282 0.491742 0.383779
594 4 0.404048 0.474875 0.380435
592 2 0.390951 0.494446 0.372032
117 3 0.494713 0.434388 0.347762
751 2 0.45223 0.420514 0.367675
753 4 0.441424 0.425859 0.345769
2237 4 0.0553837 0.00871519 0.499305
718 2 0.0707492 0.0437767 0.484505
720 4 0.0526892 0.0287399 0.493044
719 4 0.0888093 0.0588135 0.475967
369 4 0.0766813 0.0236287 0.452165
368 4 0.110052 0.0283525 0.415222
367 2 0.0933668 0.0259906 0.433693
439 2 0.30838 0.99911 0.419368
441 4 0.303277 0.0233309 0.422901
962 4 0.311502 0.0315665 0.439119
961 2 0.311791 0.0410466 0.462254
963 4 0.312081 0.0505267 0.485389
424 2 0.375483 0.0310112 0.432841
425 4 0.372032 0.0368515 0.456907
725 4 0.396546 0.0674353 0.464897
724 2 0.377118 0.0830728 0.463109
2878 2 0.485766 0.0872164 0.436044
459 4 0.0450127 0.163295 0.430796
685 2 0.139422 0.16001 0.433185
686 4 0.159556 0.145215 0.434153
1181 4 0.255675 0.105477 0.488506
321 4 0.251025 0.132297 0.427804
319 2 0.270943 0.118622 0.421367
1182 4 0.266393 0.150901 0.506466
1180 2 0.261034 0.128189 0.497486
726 4 0.35769 0.0987103 0.461321
2880 4 0.490263 0.102354 0.45543
640 2 0.49286 0.116525 0.483237
471 4 0.01113 0.190901 0.495864
259 2 0.0843134 0.183914 0.434112
695 4 0.081488 0.237493 0.466306
687 4 0.119289 0.174805 0.432217
261 4 0.108416 0.19006 0.436652
1035 4 0.111314 0.194675 0.455674
1033 2 0.11871 0.206309 0.476534
1034 4 0.126107 0.217943 0.497393
694 2 0.0929432 0.256305 0.478141
489 4 0.308814 0.232268 0.44773
411 4 0.311609 0.214675 0.456707
409 2 0.336286 0.21109 0.458537
574 2 0.386045 0.17562 0.487059
410 4 0.360964 0.207506 0.460366
468 4 0.367845 0.212545 0.441561
575 4 0.393681 0.170652 0.463774
516 4 0.406054 0.178015 0.448833
515 4 0.446484 0.159667 0.425823
514 2 0.426269 0.168841 0.437328
304 2 0.495185 0.185855 0.423323
348 4 0.0510072 0.282168 0.42342
696 4 0.104398 0.275117 0.489975
9 3 0.149174 0.314754 0.477391
857 4 0.218491 0.250197 0.481542
487 2 0.299441 0.247949 0.430658
651 4 0.254646 0.306555 0.471286
649 2 0.267297 0.285251 0.474643
650 4 0.279947 0.263947 0.478
266 4 0.379913 0.306546 0.468647
267 4 0.393926 0.258714 0.464595
265 2 0.386919 0.28263 0.466621
583 2 0.473641 0.285103 0.479747
585 4 0.460028 0.294905 0.461205
584 4 0.487253 0.275302 0.498289
2846 4 0.00893973 0.364735 0.484488
326 4 0.0820128 0.345515 0.455035
6 1 0.154871 0.336442 0.483357
327 4 0.12718 0.364468 0.465107
325 2 0.104596 0.354992 0.460071
7 3 0.144791 0.351067 0.46874
384 4 0.131338 0.424204 0.46762
10 3 0.17746 0.339122 0.482265
711 4 0.172206 0.377167 0.448412
502 2 0.248426 0.393255 0.428086
504 4 0.223619 0.396167 0.429237
709 2 0.190332 0.392831 0.441253
710 4 0.208459 0.408494 0.434094
503 4 0.273233 0.390342 0.426935
336 4 0.328704 0.377488 0.423368
669 4 0.286537 0.413284 0.457592
668 4 0.314824 0.376839 0.438295
667 2 0.300681 0.395062 0.447944
334 2 0.351626 0.369549 0.429427
335 4 0.374548 0.361609 0.435487
812 4 0.372211 0.370425 0.492572
238 2 0.404389 0.388745 0.453373
240 4 0.389482 0.375303 0.438463
239 4 0.419296 0.402186 0.468282
680 4 0.0079956 0.441688 0.446042
1383 4 0.0104256 0.460764 0.450473
679 2 0.00361012 0.420125 0.434168
1381 2 0.0155293 0.483598 0.45929
408 4 0.0851449 0.444869 0.427392
382 2 0.109718 0.429748 0.456349
383 4 0.0880984 0.435291 0.445077
569 4 0.155429 0.479134 0.444463
568 2 0.162849 0.485917 0.42157
635 4 0.26753 0.439076 0.453324
772 2 0.270843 0.417594 0.489986
636 4 0.261234 0.488452 0.448512
774 4 0.273863 0.426357 0.466763
634 2 0.264382 0.463764 0.450918
882 4 0.356991 0.435435 0.464503
586 2 0.39266 0.445118 0.4409
588 4 0.393515 0.470105 0.441205
880 2 0.356142 0.448928 0.485537
587 4 0.391805 0.420131 0.440595
661 2 0.461418 0.475996 0.466904
662 4 0.473017 0.498038 0.469094
663 4 0.449819 0.453954 0.464714
1126 2 0.0201783 0.0737699 0.58763
1127 4 0.0414024 0.0693744 0.600095
1128 4 0.998954 0.0781655 0.575164
2236 2 0.0324972 0.99964 0.503668
1031 4 0.232393 0.0593994 0.581312
340 2 0.21714 0.0655863 0.508819
341 4 0.212561 0.0412492 0.505367
2430 4 0.213086 0.0220351 0.502317
430 2 0.314177 0.0579686 0.521837
431 4 0.326951 0.0659955 0.541777
432 4 0.301403 0.0499417 0.501898
841 2 0.367874 0.0586394 0.524694
842 4 0.391546 0.054404 0.517848
843 4 0.344202 0.0628748 0.53154
1217 4 0.408289 0.0460971 0.512208
1216 2 0.415242 0.0297711 0.529823
1218 4 0.422196 0.0134451 0.547438
938 4 0.0734008 0.160999 0.561027
937 2 0.0953285 0.156492 0.572164
939 4 0.117256 0.151985 0.583302
1059 4 0.131468 0.121752 0.574929
1057 2 0.135289 0.0970845 0.573488
1151 4 0.163251 0.120524 0.51223
342 4 0.221719 0.0899235 0.51227
1030 2 0.223664 0.0809809 0.57219
1152 4 0.210084 0.105619 0.521461
1150 2 0.186667 0.113071 0.516846
1032 4 0.214935 0.102562 0.563067
899 4 0.3288 0.168161 0.579883
3159 4 0.476742 0.163899 0.542463
641 4 0.478504 0.126868 0.500903
877 2 0.0494471 0.209046 0.578048
1199 4 0.0114067 0.214509 0.588913
879 4 0.0741179 0.206913 0.581508
470 4 0.0365109 0.182199 0.538064
469 2 0.0238204 0.18655 0.516964
878 4 0.0247763 0.21118 0.574587
1272 4 0.0855689 0.222124 0.575682
1270 2 0.108128 0.232588 0.578278
858 4 0.215109 0.233825 0.528672
856 2 0.2168 0.242011 0.505107
898 2 0.314286 0.18721 0.572696
900 4 0.299772 0.206259 0.565509
576 4 0.378409 0.180588 0.510344
3157 2 0.494259 0.181695 0.543741
983 4 0.0456837 0.324869 0.530095
1245 4 0.0711981 0.28769 0.575992
1258 2 0.131826 0.289887 0.495897
1259 4 0.153692 0.295156 0.484973
1260 4 0.109961 0.284618 0.50682
872 4 0.356026 0.279968 0.518695
871 2 0.359764 0.302676 0.528472
873 4 0.363502 0.325383 0.538248
982 2 0.0332989 0.338913 0.546665
984 4 0.020914 0.352956 0.563235
3354 4 0.0117338 0.365143 0.576665
8 3 0.14739 0.34097 0.50485
1189 2 0.229294 0.38171 0.570155
1191 4 0.208092 0.394816 0.572123
1190 4 0.250496 0.368603 0.568187
803 4 0.25596 0.352318 0.559557
802 2 0.261556 0.352163 0.535188
1239 4 0.325041 0.341073 0.589065
930 4 0.326406 0.354402 0.574171
804 4 0.267151 0.352008 0.510819
813 4 0.358155 0.345014 0.533284
928 2 0.337927 0.375968 0.568942
811 2 0.365183 0.35772 0.512928
929 4 0.349448 0.397534 0.563713
926 4 0.440345 0.356568 0.54177
925 2 0.433899 0.377061 0.528976
927 4 0.427453 0.397554 0.516183
3309 4 0.478062 0.378967 0.528619
539 4 0.0606086 0.472411 0.51537
2244 4 0.119213 0.491871 0.528232
538 2 0.0842375 0.474225 0.523343
1159 2 0.141704 0.474979 0.569892
540 4 0.107866 0.476038 0.531316
1160 4 0.123147 0.458557 0.573225
1171 2 0.228377 0.437452 0.579271
1173 4 0.226799 0.461551 0.585746
1188 4 0.173925 0.501824 0.577305
773 4 0.267823 0.408832 0.513208
1002 4 0.413729 0.428248 0.561825
1951 2 0.337404 0.494823 0.584561
881 4 0.355293 0.46242 0.50657
1911 4 0.465777 0.489596 0.547864
1000 2 0.43427 0.438236 0.551653
1001 4 0.454812 0.448224 0.541481
1083 4 0.0427614 0.0692633 0.620693
1081 2 0.0503374 0.0821174 0.640756
1058 4 0.139111 0.0724167 0.572048
825 4 0.116501 0.0200413 0.634843
951 4 0.256247 0.0342474 0.601476
949 2 0.278676 0.0418857 0.609461
950 4 0.301106 0.0495239 0.617445
2283 4 0.411014 0.0239228 0.637271
3008 4 0.471903 0.0543453 0.58876
809 4 0.464056 0.066819 0.602072
808 2 0.460297 0.0751223 0.625355
42 3 0.448814 0.0705465 0.667846
1082 4 0.0579134 0.0949716 0.66082
1155 4 0.126453 0.134129 0.590679
1153 2 0.145605 0.148829 0.597184
1283 4 0.173723 0.113431 0.632494
1282 2 0.168125 0.10769 0.656177
1154 4 0.164756 0.163528 0.603689
810 4 0.456538 0.0834256 0.648638
45 3 0.460198 0.103868 0.655477
3179 4 0.994688 0.168755 0.662641
1221 4 0.177675 0.178945 0.598723
1210 2 0.246179 0.186874 0.638728
1212 4 0.240856 0.191707 0.61478
1219 2 0.199991 0.188508 0.604703
1220 4 0.222306 0.198071 0.610683
1194 4 0.326366 0.173258 0.653076
791 4 0.268451 0.247441 0.605716
1211 4 0.251501 0.18204 0.662675
888 4 0.267423 0.168685 0.665528
886 2 0.292107 0.171666 0.66817
1193 4 0.365958 0.203469 0.657604
1192 2 0.346162 0.188364 0.65534
1025 4 0.418202 0.199906 0.663018
905 4 0.499924 0.260923 0.595036
1244 4 0.0469196 0.258754 0.608763
1243 2 0.0590588 0.273222 0.592378
1271 4 0.130688 0.243053 0.580875
1209 4 0.127518 0.282684 0.65744
1136 4 0.126274 0.316884 0.615803
948 4 0.152167 0.280567 0.616925
796 2 0.225281 0.251992 0.594457
946 2 0.171536 0.274518 0.602316
798 4 0.202377 0.252454 0.584438
947 4 0.190905 0.268468 0.587707
797 4 0.248185 0.25153 0.604475
792 4 0.293523 0.288704 0.592697
790 2 0.280987 0.268073 0.599207
1238 4 0.300811 0.301212 0.607086
1237 2 0.312926 0.321142 0.598076
807 4 0.323629 0.295359 0.65969
805 2 0.338154 0.313701 0.650871
954 4 0.402016 0.296333 0.609351
806 4 0.35268 0.332043 0.642053
953 4 0.439327 0.277671 0.581776
904 2 0.475649 0.266694 0.596636
906 4 0.451373 0.272465 0.598236
952 2 0.420671 0.287002 0.595563
3263 4 0.00960798 0.340022 0.618153
1039 2 0.0645952 0.400367 0.622317
1041 4 0.0433251 0.391096 0.613
3264 4 0.0262184 0.385166 0.604484
3262 2 0.0179132 0.362594 0.611318
3240 4 0.0133799 0.400402 0.606651
1040 4 0.0858653 0.409638 0.631634
993 4 0.103295 0.414302 0.621925
1137 4 0.137095 0.364134 0.603514
897 4 0.153487 0.373091 0.604108
1135 2 0.131684 0.340509 0.609659
991 2 0.120746 0.399285 0.612171
992 4 0.138196 0.384268 0.602417
1172 4 0.229955 0.413353 0.572796
896 4 0.192966 0.382075 0.574758
895 2 0.173226 0.377583 0.589433
1204 2 0.39594 0.390249 0.655316
1206 4 0.397976 0.378474 0.633352
1161 4 0.160262 0.491402 0.566559
1187 4 0.216515 0.477936 0.588083
1186 2 0.19522 0.48988 0.582694
889 2 0.299666 0.465322 0.617864
891 4 0.28377 0.469991 0.636591
890 4 0.315563 0.460653 0.599138
1952 4 0.328912 0.475266 0.597623
1230 4 0.378613 0.486565 0.655577
1269 4 0.468068 0.471607 0.629981
1267 2 0.459889 0.490515 0.644151
943 2 0.0475956 0.0529582 0.699066
945 4 0.0378606 0.0352277 0.713764
944 4 0.0573305 0.0706887 0.684368
1203 4 0.133092 0.0751827 0.737656
1201 2 0.118759 0.0565574 0.74619
1147 2 0.225446 0.0596325 0.722306
1149 4 0.244051 0.0429997 0.723848
1148 4 0.206841 0.0762653 0.720764
1004 4 0.396467 0.0503116 0.690513
1003 2 0.388909 0.0738262 0.686625
1163 4 0.463935 0.0728529 0.686727
1162 2 0.477357 0.0542769 0.696725
2320 2 0.484059 0.0228007 0.742057
2321 4 0.495777 0.0227423 0.719969
1164 4 0.490779 0.0357009 0.706723
1076 4 0.0557991 0.088815 0.678505
862 2 0.0181524 0.130141 0.740055
864 4 0.0384012 0.132168 0.725528
1075 2 0.051567 0.108298 0.693595
1077 4 0.0473348 0.12778 0.708684
1107 4 0.0568134 0.137454 0.721965
851 4 0.0551676 0.144876 0.7039
1105 2 0.0714033 0.14895 0.738704
909 4 0.170151 0.160894 0.660078
1284 4 0.162528 0.101949 0.67986
908 4 0.184158 0.151501 0.707156
907 2 0.177154 0.156197 0.683617
1227 4 0.201487 0.143572 0.713417
1225 2 0.206108 0.119609 0.718857
1226 4 0.210729 0.0956459 0.724297
829 2 0.34007 0.165455 0.705008
830 4 0.330963 0.166607 0.68175
1005 4 0.381351 0.0973408 0.682736
831 4 0.349177 0.164304 0.728265
43 3 0.431498 0.101708 0.679752
41 1 0.451909 0.0926355 0.673471
44 3 0.466892 0.0938454 0.691148
3425 4 0.474259 0.105218 0.672763
3424 2 0.497627 0.11402 0.671481
852 4 0.0621605 0.179178 0.66819
850 2 0.0586641 0.162027 0.686045
1177 2 0.031861 0.223012 0.69727
1178 4 0.0115897 0.215065 0.709562
1179 4 0.0521322 0.23096 0.684978
1215 4 0.996717 0.215824 0.72401
1073 4 0.152257 0.229798 0.738477
887 4 0.316791 0.174648 0.670811
976 2 0.269468 0.203013 0.73476
978 4 0.251826 0.189543 0.723249
977 4 0.28711 0.216484 0.74627
918 4 0.299091 0.231159 0.746058
1262 4 0.44001 0.230745 0.712526
1142 4 0.445016 0.199524 0.718548
1024 2 0.431595 0.206587 0.683047
1141 2 0.438899 0.186023 0.738684
1026 4 0.444988 0.213268 0.703077
1261 2 0.457349 0.238986 0.728545
1072 2 0.137506 0.249141 0.744258
1207 2 0.113867 0.27916 0.67809
1208 4 0.100217 0.275636 0.69874
821 4 0.162065 0.323022 0.697863
820 2 0.174726 0.302904 0.690107
822 4 0.187387 0.282786 0.682351
1065 4 0.236099 0.326283 0.716053
1063 2 0.24754 0.309309 0.701695
1064 4 0.258982 0.292336 0.687337
916 2 0.292061 0.254646 0.741142
917 4 0.285032 0.278132 0.736226
1263 4 0.474689 0.247228 0.744564
3123 4 0.487901 0.236242 0.674674
892 2 0.0273552 0.363363 0.70189
893 4 0.0222999 0.345566 0.685071
894 4 0.0324105 0.38116 0.718709
1280 4 0.0500805 0.382883 0.725565
1279 2 0.0531211 0.406973 0.719599
816 4 0.0521505 0.367341 0.738866
1028 4 0.209216 0.376334 0.70452
1066 2 0.187199 0.388342 0.739806
1068 4 0.199092 0.374993 0.722326
1027 2 0.229006 0.384763 0.691772
1029 4 0.248795 0.393192 0.679024
1140 4 0.263582 0.400322 0.689895
1205 4 0.393905 0.402024 0.677279
1019 4 0.35941 0.375776 0.737895
1981 2 0.0588709 0.465438 0.723446
1281 4 0.0561617 0.431063 0.713633
1983 4 0.0705291 0.444606 0.716009
1982 4 0.0472128 0.486269 0.730883
1138 2 0.276206 0.421762 0.687419
1139 4 0.28883 0.443202 0.684943
1987 2 0.332521 0.460633 0.726453
1988 4 0.324752 0.460664 0.750219
1228 2 0.366898 0.472344 0.67248
1229 4 0.355184 0.458123 0.689383
1989 4 0.34029 0.460602 0.702687
1100 4 0.410707 0.443934 0.702246
1099 2 0.426671 0.461002 0.711135
1101 4 0.442635 0.47807 0.720024
1202 4 0.104426 0.0379321 0.754724
2049 4 0.105951 0.0211056 0.764212
2047 2 0.121753 0.00212042 0.768088
817 2 0.330363 0.0650585 0.811106
818 4 0.339131 0.0434371 0.820096
974 4 0.361067 0.00827236 0.783455
2322 4 0.472342 0.022859 0.764145
845 4 0.451839 0.076584 0.753799
911 4 0.0911665 0.133162 0.829896
863 4 0.997904 0.128114 0.754583
833 4 0.00124271 0.110649 0.765886
34 3 0.129501 0.156243 0.802866
31 1 0.107095 0.150953 0.799963
35 3 0.105159 0.131055 0.789055
32 3 0.0971151 0.149272 0.820621
1106 4 0.0859931 0.160445 0.755442
1257 4 0.2334 0.0925676 0.801183
819 4 0.321595 0.0866799 0.802117
1256 4 0.28282 0.0997167 0.798496
1255 2 0.25811 0.0961422 0.799839
840 4 0.247531 0.108738 0.82984
1084 2 0.319057 0.121266 0.805402
1085 4 0.314844 0.0991409 0.81626
1086 4 0.323269 0.143391 0.794543
1113 4 0.419121 0.087432 0.814651
1112 4 0.437059 0.0818344 0.768309
1111 2 0.42809 0.0846332 0.79148
844 2 0.476494 0.0799105 0.756296
846 4 0.501149 0.083237 0.758792
1214 4 0.0139668 0.205715 0.769846
1213 2 0.00534184 0.21077 0.746928
33 3 0.0965104 0.167681 0.787858
1130 4 0.155368 0.187623 0.778262
1129 2 0.171238 0.205682 0.771394
1131 4 0.187108 0.223742 0.764525