ITEM: TIMESTEP
1570000
ITEM: NUMBER OF ATOMS
4590
ITEM: BOX BOUNDS pp pp pp
-9.9985700000000008e+00 9.9985700000000008e+00
-9.9985700000000008e+00 9.9985700000000008e+00
-9.9985700000000008e+00 9.9985700000000008e+00
ITEM: ATOMS id type xs ys zs
1666 2 0.0714759 0.0653845 0.0732387
1668 4 0.0619285 0.0483722 0.0575987
747 4 0.468868 0.0602761 0.0182663
2974 2 0.480642 0.0241321 0.0173768
2976 4 0.484242 0.00184828 0.0281308
2975 4 0.477042 0.0464159 0.00662267
986 4 0.458913 0.0519133 0.00361389
745 2 0.455903 0.0808435 0.0241025
2264 4 0.251636 0.159091 0.0202741
297 4 0.332313 0.0862846 0.0391688
295 2 0.347884 0.0931921 0.0208658
296 4 0.363456 0.1001 0.00256284
556 2 0.403183 0.104034 0.00983928
771 4 0.413706 0.146566 0.00915737
769 2 0.400209 0.16134 0.0241487
558 4 0.424261 0.101281 0.0230038
746 4 0.442938 0.101411 0.0299388
566 4 0.156848 0.196455 0.0277172
565 2 0.181044 0.19421 0.021829
567 4 0.205241 0.191966 0.0159407
360 4 0.32443 0.201006 0.0323899
358 2 0.347511 0.192962 0.0376574
770 4 0.386712 0.176114 0.0391401
359 4 0.370592 0.184918 0.0429249
664 2 0.39103 0.211502 0.0656648
665 4 0.384952 0.190278 0.0539257
666 4 0.397107 0.232725 0.077404
323 4 0.405359 0.251364 0.0772795
555 4 0.0794559 0.283812 0.0460488
553 2 0.0823058 0.2783 0.0218274
287 4 0.153877 0.317199 0.0342713
292 2 0.152835 0.279794 0.0194993
507 4 0.159372 0.307904 0.0496165
293 4 0.148603 0.29911 0.0348019
551 4 0.0944028 0.323007 0.0749249
294 4 0.157067 0.260478 0.00419676
505 2 0.177107 0.305608 0.0670918
481 2 0.236939 0.30269 0.0690017
483 4 0.213923 0.301717 0.078721
506 4 0.194842 0.303312 0.0845671
573 4 0.2613 0.28418 0.0501805
482 4 0.259956 0.303664 0.0592825
571 2 0.271751 0.276904 0.0286628
572 4 0.282202 0.269627 0.00714503
322 2 0.409766 0.262279 0.0552202
1069 2 0.393354 0.29864 0.0151013
324 4 0.414173 0.273195 0.0331609
1070 4 0.412483 0.282554 0.0143733
741 4 0.348933 0.327775 0.039134
957 4 0.359152 0.324289 0.0221695
1071 4 0.374226 0.314726 0.0158292
739 2 0.362318 0.332394 0.0597418
955 2 0.344309 0.318807 0.00280908
671 4 0.453119 0.312634 0.0538364
280 2 0.449281 0.29484 0.0262424
281 4 0.466515 0.306585 0.0400342
282 4 0.432047 0.283094 0.0124505
670 2 0.440174 0.324432 0.0716804
286 2 0.161382 0.338874 0.0243179
454 2 0.16549 0.380877 0.0673939
455 4 0.14303 0.369955 0.0685722
552 4 0.12653 0.359455 0.0630888
550 2 0.110466 0.341231 0.0690068
288 4 0.168887 0.360548 0.0143645
456 4 0.187951 0.3918 0.0662155
250 2 0.274865 0.40163 0.0447574
251 4 0.274282 0.391494 0.0219076
1290 4 0.286737 0.399607 0.00902854
252 4 0.275448 0.411765 0.0676072
740 4 0.375703 0.337013 0.0803496
495 4 0.395861 0.367045 0.0670406
493 2 0.390887 0.391478 0.0689096
14 3 0.39462 0.350587 0.0773511
494 4 0.385912 0.41591 0.0707786
330 4 0.00979414 0.447255 0.0359057
245 4 0.209175 0.443389 0.025245
626 4 0.202995 0.459089 0.0352276
625 2 0.187929 0.454141 0.0545592
244 2 0.233811 0.444826 0.0212234
627 4 0.172863 0.449192 0.0738907
246 4 0.258447 0.446263 0.0172017
609 4 0.280862 0.429525 0.0773345
1672 2 0.391111 0.462003 0.0619632
660 4 0.371773 0.428602 0.0770631
1673 4 0.367767 0.466299 0.0698236
1674 4 0.414454 0.457707 0.0541027
853 2 0.402511 0.446194 0.00366836
854 4 0.411356 0.454893 0.0253774
563 4 0.475871 0.452248 0.0402528
228 4 0.496398 0.452379 0.041751
562 2 0.45101 0.454674 0.0391534
564 4 0.426148 0.457099 0.0380541
18 3 0.0626421 0.0458856 0.142985
16 1 0.0635162 0.0445227 0.166132
1667 4 0.0810232 0.0823967 0.0888787
701 4 0.0836373 0.0738518 0.106625
1474 2 0.27998 0.00304202 0.0856722
1475 4 0.280514 0.0236208 0.099864
492 4 0.28145 0.0388886 0.110977
490 2 0.280611 0.0637851 0.108822
2723 4 0.416041 0.039408 0.145735
2722 2 0.440736 0.0358969 0.147471
2724 4 0.465431 0.0323857 0.149208
1760 4 0.483655 0.0354749 0.140987
1759 2 0.485132 0.0276778 0.117276
2744 4 0.481778 0.0348798 0.159484
1761 4 0.48661 0.0198808 0.0935653
700 2 0.0751383 0.0897882 0.123915
702 4 0.0666392 0.105725 0.141206
476 4 0.0766344 0.113617 0.155402
475 2 0.093544 0.132021 0.154665
477 4 0.110454 0.150425 0.153928
491 4 0.279772 0.0886815 0.106668
581 4 0.285359 0.0959979 0.161062
628 2 0.359852 0.128851 0.144411
312 4 0.367114 0.0929822 0.152709
629 4 0.361376 0.110489 0.161314
630 4 0.358328 0.147212 0.127508
254 4 0.365262 0.16577 0.131975
339 4 0.0797301 0.227941 0.132553
337 2 0.0811432 0.242005 0.153178
738 4 0.231185 0.21657 0.101599
736 2 0.238608 0.203972 0.121881
737 4 0.246032 0.191374 0.142163
461 4 0.306819 0.239624 0.113874
460 2 0.32909 0.236818 0.124889
354 4 0.286545 0.243512 0.111749
462 4 0.351361 0.234012 0.135903
255 4 0.362557 0.215386 0.137603
253 2 0.36391 0.190578 0.134789
765 4 0.361375 0.228724 0.150586
624 4 0.369324 0.231924 0.13253
622 2 0.382814 0.238224 0.112443
623 4 0.396304 0.244524 0.0923549
537 4 0.191525 0.300695 0.103456
535 2 0.199664 0.319865 0.117292
352 2 0.27769 0.25019 0.134158
353 4 0.268834 0.256868 0.156567
755 4 0.252358 0.264397 0.161557
387 4 0.329958 0.316569 0.128908
301 2 0.327843 0.310459 0.161219
302 4 0.342258 0.308434 0.140889
385 2 0.345461 0.325408 0.111395
15 3 0.37566 0.329276 0.101928
386 4 0.360964 0.334247 0.093882
12 3 0.412792 0.326339 0.0995872
528 4 0.468955 0.26681 0.0902752
518 4 0.48887 0.263874 0.0865136
526 2 0.455018 0.275297 0.10922
527 4 0.441082 0.283785 0.128166
315 4 0.00550567 0.378281 0.130062
536 4 0.207803 0.339036 0.131128
291 4 0.200138 0.404183 0.139188
11 1 0.394966 0.340829 0.0984003
13 3 0.397494 0.357179 0.11467
672 4 0.427229 0.33623 0.0895245
595 2 0.487963 0.402618 0.130359
597 4 0.47198 0.403263 0.149576
1791 4 0.0328558 0.495494 0.129946
1466 4 0.0298521 0.486492 0.146855
417 4 0.139062 0.42575 0.134344
415 2 0.162679 0.421002 0.141045
243 4 0.151041 0.495086 0.0894662
289 2 0.220771 0.418181 0.141054
416 4 0.186295 0.416254 0.147746
290 4 0.241405 0.432179 0.14292
607 2 0.299594 0.430839 0.0938438
608 4 0.318327 0.432153 0.110353
768 4 0.262172 0.431475 0.144323
767 4 0.271935 0.480405 0.140971
766 2 0.267054 0.45594 0.142647
638 4 0.260445 0.498099 0.14284
658 2 0.353269 0.424139 0.0932762
659 4 0.334765 0.419675 0.109489
1559 4 0.355597 0.499781 0.109022
17 3 0.0477551 0.0293731 0.17329
19 3 0.0587977 0.0652334 0.17547
2480 4 0.0367511 0.029339 0.189261
1422 4 0.0282742 0.0130463 0.195256
2479 2 0.0169438 0.0430884 0.195879
20 3 0.0841665 0.0375463 0.172731
578 4 0.0982762 0.0436315 0.185291
674 4 0.134953 0.00376103 0.209066
673 2 0.12277 0.000362251 0.230634
689 4 0.152142 0.0129819 0.205024
577 2 0.11177 0.0642817 0.189374
1506 4 0.244441 0.0123096 0.170143
688 2 0.171124 0.999761 0.195533
654 4 0.262913 0.0104229 0.178745
652 2 0.274502 0.0214259 0.197976
653 4 0.28609 0.0324289 0.217207
25 3 0.320685 0.0494008 0.248632
311 4 0.371766 0.0633753 0.192741
758 4 0.36712 0.0488548 0.204824
759 4 0.341575 0.0577013 0.246895
757 2 0.354347 0.0532781 0.225859
310 2 0.36944 0.0781787 0.172725
2743 2 0.492349 0.0309195 0.181794
511 2 0.0295624 0.146016 0.218004
513 4 0.0374226 0.162307 0.235267
381 4 0.00549449 0.120072 0.195084
512 4 0.0217022 0.129725 0.200741
379 2 0.00122594 0.0971241 0.204047
579 4 0.125264 0.0849319 0.193456
450 4 0.142118 0.0964267 0.18779
448 2 0.158543 0.115048 0.19073
449 4 0.174967 0.13367 0.19367
237 4 0.241613 0.134917 0.172327
691 2 0.236609 0.106276 0.238059
693 4 0.230237 0.120023 0.21817
236 4 0.194416 0.133384 0.188783
235 2 0.218014 0.13415 0.180555
582 4 0.255243 0.127579 0.185483
580 2 0.270301 0.111788 0.173273
27 3 0.322753 0.155146 0.229936
521 4 0.491058 0.148713 0.224824
332 4 0.485334 0.131294 0.230335
762 4 0.472334 0.14737 0.228552
331 2 0.500952 0.112759 0.236479
396 4 0.000731932 0.250608 0.235668
393 4 0.0565972 0.169068 0.234424
391 2 0.0775506 0.176489 0.245873
394 2 0.0138165 0.229468 0.238329
395 4 0.0269011 0.208328 0.24099
277 2 0.247681 0.229972 0.178348
279 4 0.232285 0.212623 0.187683
285 4 0.32421 0.247977 0.197531
284 4 0.281638 0.246694 0.171325
283 2 0.302924 0.247335 0.184428
278 4 0.263077 0.247322 0.169012
763 2 0.352953 0.2341 0.173507
764 4 0.344531 0.239476 0.196427
338 4 0.0825562 0.256069 0.173803
363 4 0.0683369 0.261177 0.187659
361 2 0.0796724 0.28075 0.198317
749 4 0.0776322 0.301889 0.223855
647 4 0.0543932 0.327617 0.169567
748 2 0.0847266 0.320829 0.238556
370 2 0.13319 0.301262 0.219967
372 4 0.109881 0.295538 0.212959
362 4 0.0910079 0.300323 0.208974
371 4 0.156499 0.306985 0.226976
734 4 0.171432 0.333081 0.243424
754 2 0.260236 0.284906 0.173494
756 4 0.268115 0.305415 0.185431
612 4 0.257519 0.314661 0.200174
610 2 0.260243 0.309515 0.224491
307 2 0.322585 0.291353 0.218305
308 4 0.311986 0.300653 0.197657
303 4 0.313428 0.312484 0.181548
729 4 0.311589 0.332201 0.183985
611 4 0.262967 0.304369 0.248807
309 4 0.333185 0.282053 0.238953
264 4 0.00448024 0.393456 0.234221
646 2 0.0755587 0.332924 0.181775
648 4 0.0967243 0.33823 0.193983
727 2 0.302347 0.347728 0.201267
728 4 0.293106 0.363255 0.21855
445 2 0.405834 0.383449 0.229383
446 4 0.389909 0.378792 0.248088
447 4 0.42176 0.388106 0.210678
644 4 0.434626 0.380711 0.197531
643 2 0.453194 0.390438 0.183901
645 4 0.471761 0.400166 0.17027
1465 2 0.0275893 0.479858 0.170856
1467 4 0.0253266 0.473224 0.194857
1757 4 0.0978453 0.440637 0.244213
231 4 0.461892 0.476861 0.232431
229 2 0.461556 0.497655 0.218551
232 2 0.0230116 0.0283654 0.294797
233 4 0.0471034 0.0243418 0.289451
1404 4 0.0634648 0.0138838 0.295776
1402 2 0.0776464 0.00638225 0.276598
316 2 0.0716917 0.049942 0.31101
317 4 0.0607251 0.0297378 0.301176
428 4 0.0608048 0.0180828 0.315843
318 4 0.0826582 0.0701462 0.320843
24 3 0.312069 0.0762404 0.273593
21 1 0.326839 0.0591546 0.26827
23 3 0.327088 0.0433265 0.285235
22 3 0.347956 0.0680028 0.266045
351 4 0.406129 0.0606363 0.267537
349 2 0.388571 0.0745837 0.278599
479 4 0.447534 0.0300849 0.299708
478 2 0.43271 0.03789 0.281147
2664 4 0.46706 0.0283287 0.299141
480 4 0.417886 0.0456951 0.262586
1428 4 0.454355 0.0146891 0.302593
258 4 0.440145 0.0234298 0.315203
2662 2 0.489646 0.0344048 0.290301
399 4 0.0740718 0.0837824 0.332594
692 4 0.242981 0.0925293 0.257949
721 2 0.241909 0.118774 0.291447
722 4 0.235878 0.129731 0.313098
723 4 0.247941 0.107818 0.269797
249 4 0.225597 0.118102 0.327442
404 4 0.24199 0.127214 0.330718
26 1 0.32057 0.155969 0.25282
28 3 0.319307 0.134298 0.261018
632 4 0.368808 0.108086 0.289042
350 4 0.371013 0.088531 0.289661
631 2 0.354036 0.125728 0.279257
707 4 0.348319 0.15981 0.275582
633 4 0.339264 0.14337 0.269473
29 3 0.339083 0.166745 0.261739
760 2 0.455728 0.152768 0.246449
761 4 0.439123 0.158165 0.264346
546 4 0.132197 0.193472 0.251824
392 4 0.098504 0.18391 0.257321
544 2 0.146151 0.212161 0.260836
545 4 0.160104 0.23085 0.269847
402 4 0.175839 0.229767 0.281277
30 3 0.30161 0.167407 0.258141
706 2 0.349233 0.179733 0.290662
708 4 0.350148 0.199656 0.305743
442 2 0.00744827 0.281438 0.266013
444 4 0.0153931 0.300812 0.279677
400 2 0.188144 0.251228 0.284911
401 4 0.200449 0.272688 0.288544
676 2 0.185281 0.297759 0.315052
345 4 0.206771 0.289883 0.282335
677 4 0.192854 0.290376 0.292396
343 2 0.229454 0.292682 0.272195
735 4 0.194054 0.302408 0.2758
733 2 0.182743 0.317744 0.259612
376 2 0.271332 0.251642 0.323694
344 4 0.252137 0.295482 0.262055
496 2 0.305976 0.272658 0.272121
497 4 0.29124 0.272338 0.292318
377 4 0.288943 0.262578 0.309715
498 4 0.320712 0.272977 0.251924
541 2 0.398522 0.319025 0.322085
2537 4 0.486313 0.333838 0.323491
365 4 0.0342627 0.378288 0.299936
601 2 0.0627458 0.374098 0.317061
603 4 0.0495097 0.366455 0.297272
364 2 0.0104377 0.374489 0.29337
549 4 0.0749302 0.400315 0.329079
750 4 0.0918209 0.33977 0.253256
299 4 0.158613 0.338726 0.25788
298 2 0.133893 0.34185 0.259966
300 4 0.109173 0.344973 0.262052
433 2 0.293587 0.371019 0.292501
435 4 0.270053 0.378617 0.288813
434 4 0.317121 0.363421 0.29619
543 4 0.388556 0.340202 0.313287
614 4 0.33544 0.367066 0.303264
615 4 0.375232 0.346932 0.325889
613 2 0.355336 0.356999 0.314577
1756 2 0.097629 0.463505 0.254321
776 4 0.0834321 0.490824 0.315611
1758 4 0.0974127 0.486373 0.26443
412 2 0.225021 0.489953 0.295932
1436 4 0.218719 0.457418 0.324413
413 4 0.225253 0.471969 0.313301
5 3 0.287835 0.475032 0.32322
3 3 0.309594 0.444607 0.318916
1 1 0.295169 0.455899 0.333158
1803 4 0.373134 0.496257 0.276077
119 3 0.496911 0.467008 0.312613
713 4 0.432491 0.480953 0.33243
1742 4 0.419411 0.4935 0.330312
427 2 0.0532612 0.00554113 0.336116
367 2 0.0661092 0.0249257 0.417703
1781 4 0.103823 0.0241242 0.399056
368 4 0.0902446 0.019377 0.414257
732 4 0.0929571 0.0803293 0.333982
730 2 0.111715 0.0823731 0.350387
1780 2 0.118613 0.0056129 0.391072
731 4 0.130474 0.0844169 0.366792
604 2 0.170007 0.0770827 0.362888
605 4 0.190933 0.0690207 0.351831
248 4 0.20978 0.0752299 0.347753
1701 4 0.323513 0.0391069 0.400965
1699 2 0.328734 0.051313 0.379777
441 4 0.318587 0.0252689 0.412377
1700 4 0.333955 0.0635192 0.35859
699 4 0.351144 0.0554518 0.351912
697 2 0.371646 0.0414233 0.349075
698 4 0.392148 0.0273947 0.346237
257 4 0.409769 0.0273535 0.354732
724 2 0.410251 0.0753414 0.414865
2879 4 0.493617 0.0756811 0.395733
256 2 0.424957 0.0253916 0.334968
2584 2 0.0081175 0.11944 0.34837
397 2 0.0605241 0.101381 0.34408
398 4 0.0469765 0.11898 0.355566
2586 4 0.0295821 0.130357 0.3551
458 4 0.0261205 0.136659 0.373484
457 2 0.0369615 0.153126 0.388863
600 4 0.13607 0.132324 0.340358
606 4 0.14908 0.0851448 0.373945
598 2 0.137882 0.154388 0.351979
247 2 0.217688 0.0966658 0.337597
683 4 0.228549 0.0986491 0.392835
682 2 0.252071 0.104186 0.386414
403 2 0.251217 0.149766 0.336329
319 2 0.302761 0.139573 0.387328
684 4 0.275593 0.109723 0.379993
321 4 0.317832 0.154622 0.400426
320 4 0.287689 0.124525 0.374229
725 4 0.39078 0.0899472 0.40914
2878 2 0.497409 0.09234 0.41399
459 4 0.0478025 0.169592 0.404241
599 4 0.139695 0.176452 0.363601
389 4 0.123617 0.241059 0.376405
686 4 0.139922 0.17259 0.382647
685 2 0.12426 0.188459 0.393961
275 4 0.149453 0.184809 0.347538
388 2 0.108484 0.24452 0.356804
687 4 0.108598 0.204329 0.405276
261 4 0.0906077 0.205414 0.416031
472 2 0.231801 0.197619 0.355784
474 4 0.208746 0.203477 0.363485
276 4 0.190628 0.210354 0.359899
274 2 0.170041 0.197581 0.353719
405 4 0.260444 0.172317 0.34194
473 4 0.254857 0.191762 0.348083
378 4 0.25372 0.240706 0.337673
717 4 0.411201 0.191836 0.341393
715 2 0.404594 0.189152 0.365359
466 2 0.37355 0.186376 0.416348
716 4 0.397988 0.186469 0.389324
467 4 0.378707 0.191137 0.392349
270 4 0.478006 0.211856 0.376937
452 4 0.477096 0.200485 0.39335
268 2 0.474526 0.227862 0.358045
269 4 0.471047 0.243868 0.339154
451 2 0.458527 0.201617 0.410055
2801 4 0.0115465 0.274306 0.389098
2800 2 0.0109029 0.293437 0.405185
618 4 0.0519972 0.314623 0.376959
347 4 0.0405473 0.327806 0.38477
616 2 0.0763829 0.310534 0.373245
390 4 0.0933514 0.247981 0.337203
617 4 0.100769 0.306444 0.369531
374 4 0.112316 0.293708 0.358576
373 2 0.136074 0.29905 0.352901
375 4 0.159832 0.304392 0.347226
678 4 0.177709 0.305142 0.337709
509 4 0.228209 0.302315 0.375829
508 2 0.241904 0.316916 0.360848
510 4 0.2556 0.331517 0.345867
542 4 0.408487 0.297849 0.330884
420 4 0.418706 0.280984 0.335822
419 4 0.465135 0.262421 0.335125
418 2 0.441921 0.271702 0.335473
602 4 0.0759819 0.38174 0.336849
346 2 0.0379278 0.352443 0.388138
348 4 0.0353083 0.377079 0.391506
668 4 0.319021 0.391704 0.401236
667 2 0.321355 0.412848 0.414375
336 4 0.336632 0.383085 0.398698
334 2 0.358484 0.371613 0.402707
335 4 0.380337 0.360142 0.406716
752 4 0.484252 0.41178 0.3894
561 4 0.494425 0.400567 0.403281
547 2 0.0789997 0.419021 0.345163
548 4 0.0830692 0.437727 0.361248
407 4 0.100933 0.443276 0.370765
406 2 0.114604 0.451097 0.390184
408 4 0.128276 0.458917 0.409603
1435 2 0.240509 0.454805 0.336394
1555 2 0.256624 0.497576 0.40983
438 4 0.320214 0.451256 0.338317
1557 4 0.281021 0.493851 0.405819
1437 4 0.262299 0.452192 0.348375
4 3 0.277117 0.442345 0.338527
2 3 0.306461 0.461241 0.352474
437 4 0.366866 0.443661 0.354648
436 2 0.34354 0.447458 0.346483
593 4 0.40665 0.468503 0.393708
588 4 0.413914 0.455828 0.407852
592 2 0.414634 0.47509 0.370947
753 4 0.497855 0.44166 0.351679
714 4 0.480522 0.467052 0.333138
712 2 0.456506 0.474003 0.332784
117 3 0.493825 0.462112 0.34975
751 2 0.491054 0.42672 0.37054
594 4 0.422617 0.481677 0.348186
369 4 0.0419738 0.0304744 0.421149
719 4 0.0392426 0.0215347 0.437611
718 2 0.0152799 0.0171263 0.443227
962 4 0.313067 0.0337334 0.428297
961 2 0.303492 0.0534518 0.440326
963 4 0.293918 0.0731702 0.452355
432 4 0.309424 0.0796257 0.461217
425 4 0.331893 0.0358774 0.420155
424 2 0.356172 0.0334455 0.425611
426 4 0.380452 0.0310137 0.431066
726 4 0.429721 0.0607356 0.420589
260 4 0.0608972 0.165318 0.419243
430 2 0.315464 0.0857024 0.484707
640 2 0.485561 0.12038 0.463258
641 4 0.471771 0.136633 0.47633
259 2 0.0757524 0.185366 0.417637
695 4 0.0518414 0.240815 0.483235
1035 4 0.104248 0.218841 0.41685
1033 2 0.108347 0.235094 0.435402
489 4 0.333042 0.236572 0.460158
468 4 0.368393 0.181615 0.440346
411 4 0.349929 0.231829 0.472086
516 4 0.396733 0.19317 0.454575
409 2 0.36321 0.212302 0.463871
410 4 0.37649 0.192774 0.455656
575 4 0.400435 0.184021 0.473072
266 4 0.348261 0.23666 0.490434
574 2 0.401426 0.176186 0.496796
514 2 0.421145 0.193865 0.449215
515 4 0.445558 0.194561 0.443854
453 4 0.439957 0.202749 0.426761
2802 4 0.0102593 0.312568 0.421271
2847 4 0.0134727 0.317202 0.440389
694 2 0.0741351 0.251566 0.479686
1034 4 0.112447 0.251348 0.453955
1258 2 0.124686 0.286001 0.473867
1259 4 0.133795 0.309036 0.477276
9 3 0.126409 0.327918 0.47161
1260 4 0.115578 0.262967 0.470458
696 4 0.0964287 0.262317 0.476137
858 4 0.207611 0.264432 0.493759
487 2 0.333596 0.252122 0.440585
488 4 0.334151 0.267671 0.421012
265 2 0.358006 0.258776 0.496847
584 4 0.499005 0.263794 0.486672
326 4 0.0501227 0.34948 0.4478
325 2 0.0720013 0.358187 0.456208
10 3 0.138134 0.344114 0.439706
6 1 0.131707 0.347972 0.461211
7 3 0.113108 0.361509 0.461248
327 4 0.0938799 0.366893 0.464617
709 2 0.156358 0.406955 0.475929
8 3 0.148765 0.35863 0.472781
503 4 0.228084 0.370298 0.461654
504 4 0.19196 0.387644 0.491569
502 2 0.210022 0.378971 0.476611
710 4 0.178128 0.395092 0.479172
240 4 0.389347 0.366323 0.423428
238 2 0.40592 0.382663 0.432566
882 4 0.384125 0.366373 0.492017
239 4 0.422493 0.399003 0.441704
1381 2 0.00545733 0.486161 0.462909
1383 4 0.00206593 0.461863 0.458085
680 4 0.00707032 0.461401 0.437508
711 4 0.134588 0.418819 0.472687
384 4 0.116323 0.428889 0.471147
569 4 0.128029 0.471553 0.423348
382 2 0.119128 0.441277 0.44961
568 2 0.145642 0.486926 0.432217
383 4 0.121933 0.453665 0.428073
1543 2 0.205658 0.495443 0.435285
1544 4 0.229594 0.489438 0.431262
634 2 0.30195 0.466674 0.430827
774 4 0.319866 0.431001 0.447913
773 4 0.297226 0.421083 0.491385
669 4 0.323689 0.433993 0.427515
636 4 0.288225 0.486048 0.422987
635 4 0.315676 0.447301 0.438667
772 2 0.308546 0.426042 0.469649
663 4 0.470012 0.464202 0.447911
661 2 0.474078 0.483688 0.463042
586 2 0.418655 0.437606 0.424303
587 4 0.423395 0.419383 0.440754
342 4 0.20915 0.06898 0.518101
340 2 0.205663 0.0446987 0.51326
1152 4 0.208461 0.0795414 0.535786
341 4 0.202176 0.0204174 0.508419
2430 4 0.186664 0.00931393 0.510489
1217 4 0.397189 0.0721229 0.519256
1216 2 0.417159 0.0601254 0.510177
3007 2 0.480812 0.0563745 0.577144
1218 4 0.43713 0.048128 0.501099
3009 4 0.48608 0.0612396 0.553191
1058 4 0.110726 0.116376 0.524861
1057 2 0.110403 0.121279 0.549377
1059 4 0.11008 0.126182 0.573893
1150 2 0.217054 0.0838124 0.558876
1151 4 0.225646 0.0880834 0.581965
1180 2 0.225706 0.151387 0.559466
1181 4 0.207282 0.135249 0.554433
431 4 0.321504 0.0917791 0.508197
842 4 0.381987 0.0857854 0.520091
843 4 0.336672 0.105416 0.512222
841 2 0.359329 0.0956005 0.516156
576 4 0.402416 0.168351 0.52052
470 4 0.0307982 0.169698 0.509234
1199 4 0.0400771 0.222845 0.575771
1198 2 0.0170682 0.225977 0.5665
469 2 0.0171915 0.183183 0.525302
471 4 0.00358482 0.196669 0.54137
1182 4 0.244129 0.167526 0.564498
900 4 0.242775 0.17906 0.546695
798 4 0.237172 0.245777 0.563394
898 2 0.261931 0.187134 0.532801
650 4 0.284623 0.214447 0.513993
899 4 0.281087 0.195208 0.518907
649 2 0.290601 0.237195 0.522475
796 2 0.258486 0.246386 0.576453
3065 4 0.499005 0.25274 0.522357
982 2 0.012144 0.323993 0.574573
1244 4 0.0541525 0.256463 0.583229
1243 2 0.0405497 0.277411 0.582077
856 2 0.208578 0.257328 0.517712
947 4 0.218175 0.253148 0.560796
857 4 0.209545 0.250224 0.541666
946 2 0.198071 0.263223 0.571728
948 4 0.177967 0.273299 0.58266
651 4 0.29658 0.259944 0.530957
872 4 0.350351 0.283725 0.554379
871 2 0.367655 0.294915 0.56854
873 4 0.384958 0.306105 0.582702
267 4 0.36775 0.280891 0.50326
811 2 0.416165 0.322441 0.572512
1010 4 0.492817 0.332133 0.520978
2456 4 0.495437 0.264049 0.505289
906 4 0.493895 0.308611 0.583455
2457 4 0.494078 0.31349 0.512666
2455 2 0.494757 0.28877 0.508977
984 4 0.0174791 0.346375 0.564787
1189 2 0.239618 0.372052 0.576155
1190 4 0.257266 0.363042 0.560906
803 4 0.272406 0.354941 0.548719
804 4 0.288238 0.3952 0.523635
802 2 0.280322 0.37507 0.536177
930 4 0.319365 0.376381 0.568281
1239 4 0.320246 0.356686 0.574179
928 2 0.332336 0.390838 0.552536
929 4 0.345308 0.405296 0.536791
881 4 0.357775 0.392733 0.525357
880 2 0.37095 0.379553 0.508687
812 4 0.427839 0.336799 0.555697
1011 4 0.480634 0.379996 0.51314
1009 2 0.486726 0.356064 0.517059
927 4 0.431947 0.355921 0.560585
925 2 0.441328 0.378084 0.567366
3308 4 0.495442 0.393125 0.509227
926 4 0.450709 0.400247 0.574147
538 2 0.095754 0.45822 0.576241
540 4 0.0951775 0.480388 0.564689
1160 4 0.111635 0.492229 0.5652
1159 2 0.134398 0.497815 0.573905
539 4 0.0963305 0.436053 0.587794
1951 2 0.385665 0.494132 0.551079
1952 4 0.361526 0.491126 0.556862
890 4 0.351096 0.482043 0.571143
1953 4 0.409804 0.497138 0.545296
1082 4 0.047553 0.0687129 0.660087
1081 2 0.0540642 0.0782485 0.637909
825 4 0.155063 0.0470586 0.660182
823 2 0.167476 0.0254174 0.658529
824 4 0.17989 0.00377615 0.656875
1032 4 0.242004 0.0836861 0.592769
1031 4 0.282793 0.0547634 0.593465
1030 2 0.262399 0.0692248 0.593117
951 4 0.29172 0.0440683 0.606545
949 2 0.299523 0.0203704 0.604903
3008 4 0.475543 0.0515094 0.601097
809 4 0.482024 0.0361711 0.611595
808 2 0.474131 0.0461437 0.633122
810 4 0.466239 0.0561164 0.65465
45 3 0.458239 0.0779233 0.653226
1128 4 0.00390231 0.105469 0.587766
1083 4 0.0605753 0.0877841 0.615731
1126 2 0.0275881 0.101655 0.594809
1127 4 0.051274 0.09784 0.601853
938 4 0.0812561 0.0928028 0.61229
1155 4 0.124583 0.136042 0.583997
1271 4 0.115963 0.147426 0.597826
939 4 0.108707 0.129763 0.592767
937 2 0.0949816 0.111283 0.602529
1153 2 0.148998 0.134179 0.589061
1221 4 0.17071 0.137215 0.613794
1154 4 0.173412 0.132316 0.594126
1219 2 0.183616 0.15345 0.62776
1210 2 0.23691 0.166108 0.645745
886 2 0.292663 0.161519 0.651643
887 4 0.313809 0.154335 0.662887
1211 4 0.259041 0.154517 0.646767
1194 4 0.325471 0.155393 0.645532
1192 2 0.349835 0.149776 0.64572
1193 4 0.374199 0.144159 0.645908
3426 4 0.497024 0.127421 0.644385
3424 2 0.482815 0.110463 0.656035
3425 4 0.468607 0.0935055 0.667686
878 4 0.050952 0.236816 0.583456
877 2 0.0700896 0.221193 0.587308
1179 4 0.0172049 0.22738 0.661267
879 4 0.0892273 0.205569 0.59116
1272 4 0.0873697 0.186748 0.586126
1270 2 0.101667 0.167087 0.591976
1212 4 0.214779 0.177699 0.644724
1220 4 0.196522 0.169685 0.641725
797 4 0.279799 0.246994 0.589512
888 4 0.271517 0.168703 0.640399
983 4 0.00680896 0.301611 0.584358
1245 4 0.0269469 0.298358 0.580924
1137 4 0.158476 0.325357 0.605788
1135 2 0.168225 0.302399 0.604033
1136 4 0.177973 0.279441 0.602278
1065 4 0.23038 0.327759 0.665772
1064 4 0.183715 0.310133 0.662247
1063 2 0.207047 0.318946 0.66401
792 4 0.322288 0.300718 0.59176
791 4 0.296374 0.258366 0.585807
790 2 0.309331 0.279542 0.588784
1238 4 0.307986 0.313617 0.596438
813 4 0.40449 0.308084 0.589327
953 4 0.481928 0.295726 0.5921
952 2 0.462028 0.284797 0.602575
954 4 0.442127 0.273868 0.613049
3123 4 0.481268 0.267499 0.64083
1041 4 0.0651244 0.402288 0.638019
3264 4 0.0462095 0.400605 0.643585
3262 2 0.041809 0.381224 0.658758
3240 4 0.0314536 0.414768 0.643872
1039 2 0.0883931 0.395254 0.632166
1040 4 0.111662 0.38822 0.626312
993 4 0.116411 0.370115 0.619037
991 2 0.136337 0.357737 0.610381
992 4 0.156262 0.345358 0.601725
897 4 0.172589 0.337951 0.606751
896 4 0.212703 0.364395 0.592884
895 2 0.192646 0.351173 0.599817
1172 4 0.215721 0.399108 0.59818
1191 4 0.221971 0.381063 0.591404
1237 2 0.314116 0.335152 0.585308
1206 4 0.400038 0.377737 0.617139
1204 2 0.4024 0.397006 0.632896
1002 4 0.457153 0.415584 0.586954
3238 2 0.00999932 0.42626 0.638142
1188 4 0.156638 0.485247 0.590916
1171 2 0.207704 0.421393 0.606197
1186 2 0.170748 0.470894 0.605751
1173 4 0.199687 0.443679 0.614214
1187 4 0.184858 0.456541 0.620587
891 4 0.324303 0.474428 0.612674
1230 4 0.339928 0.428439 0.655735
889 2 0.337699 0.478236 0.591909
1205 4 0.404762 0.416275 0.648654
1909 2 0.428931 0.489919 0.583691
1911 4 0.441903 0.480012 0.602632
1000 2 0.454828 0.440113 0.591211
1001 4 0.452503 0.464641 0.595467
1269 4 0.457671 0.473705 0.611886
1267 2 0.464418 0.491303 0.628316
943 2 0.0471692 0.0231918 0.689758
944 4 0.0485599 0.0469015 0.681942
1076 4 0.0529438 0.0672168 0.680054
1283 4 0.150694 0.0568866 0.675762
1282 2 0.153214 0.0805305 0.683495
1148 4 0.24495 0.0764207 0.688078
1090 2 0.321191 0.00750489 0.716316
1147 2 0.259391 0.0572573 0.695107
1149 4 0.273832 0.038094 0.702135
1092 4 0.323166 0.0270602 0.700861
1004 4 0.386544 0.0788362 0.710085
42 3 0.464205 0.0496614 0.67686
41 1 0.455374 0.0707881 0.674662
43 3 0.43276 0.0700368 0.679801
1163 4 0.473937 0.0630173 0.692916
1162 2 0.489949 0.0554767 0.710578
44 3 0.466352 0.0850658 0.689293
1075 2 0.0555567 0.0848771 0.697561
864 4 0.047052 0.105304 0.730399
1077 4 0.0581695 0.102537 0.715067
1107 4 0.0668894 0.100213 0.731933
851 4 0.0751915 0.111575 0.71812
862 2 0.0279809 0.0987221 0.745169
850 2 0.0829325 0.132142 0.706193
852 4 0.0906735 0.15271 0.694266
1284 4 0.155734 0.104174 0.691228
1105 2 0.0860678 0.0965344 0.747548
909 4 0.1586 0.12153 0.699615
1226 4 0.248345 0.0957899 0.691207
907 2 0.180076 0.126041 0.7116
908 4 0.201551 0.130553 0.723585
1227 4 0.217111 0.117261 0.723829
1225 2 0.232728 0.106525 0.707518
830 4 0.32548 0.148793 0.679797
829 2 0.336413 0.133424 0.696212
831 4 0.347346 0.118056 0.712627
1003 2 0.363983 0.0893847 0.712305
1005 4 0.341423 0.0999332 0.714525
1177 2 0.00608281 0.227541 0.68366
1214 4 0.999059 0.183494 0.75224
1073 4 0.0834536 0.198954 0.739711
1072 2 0.0952077 0.221022 0.739808
1074 4 0.106962 0.24309 0.739905
978 4 0.294525 0.192088 0.731038
1142 4 0.447604 0.170878 0.731846
1144 2 0.489521 0.172856 0.735135
1025 4 0.444571 0.179299 0.672911
1262 4 0.458488 0.200501 0.731786
1024 2 0.449578 0.182205 0.697235
1026 4 0.454585 0.185111 0.721559
1261 2 0.460438 0.224932 0.726834
1145 4 0.465873 0.180843 0.733669
1209 4 0.110285 0.28374 0.703035
1207 2 0.117136 0.26949 0.722405
1208 4 0.123987 0.255241 0.741775
821 4 0.128662 0.290935 0.698652
820 2 0.147237 0.298205 0.683575
822 4 0.165812 0.305476 0.668499
805 2 0.286428 0.317006 0.681039
807 4 0.265138 0.304222 0.68395
806 4 0.307718 0.32979 0.678127
1263 4 0.462388 0.249362 0.721883
3263 4 0.0374084 0.361844 0.673931
894 4 0.030585 0.359162 0.742334
1280 4 0.0487136 0.368605 0.738567
1279 2 0.0515481 0.389389 0.72496
816 4 0.0599003 0.351575 0.740587
1281 4 0.0543827 0.410174 0.711352
1028 4 0.231696 0.366515 0.712289
1066 2 0.197772 0.365174 0.738269
1068 4 0.220492 0.369376 0.72871
1027 2 0.235576 0.387911 0.699947
1029 4 0.239455 0.409307 0.687604
1067 4 0.175053 0.360973 0.747828
1018 2 0.380196 0.37289 0.723819
1020 4 0.393746 0.391139 0.713402
1019 4 0.366645 0.35464 0.734237
1983 4 0.059691 0.429368 0.706146
1981 2 0.0656768 0.448336 0.721297
1982 4 0.0716626 0.467304 0.736449
1138 2 0.245553 0.453309 0.684907
1140 4 0.239326 0.429107 0.684119
1175 4 0.219587 0.476239 0.712545
1174 2 0.195735 0.480629 0.718628
1176 4 0.171883 0.485018 0.72471
1139 4 0.251781 0.477512 0.685694
1987 2 0.30629 0.46349 0.729461
1229 4 0.318716 0.438393 0.699913
1989 4 0.311854 0.457443 0.705846
1228 2 0.329322 0.433416 0.677824
2991 4 0.0169458 0.0331644 0.790973
2989 2 0.0110108 0.0554672 0.781353
2990 4 0.00507591 0.07777 0.771734
2049 4 0.111403 0.0259806 0.768929
1202 4 0.112039 0.0308907 0.788991
2047 2 0.1303 0.0116625 0.760986
1201 2 0.115909 0.0552989 0.792791
1203 4 0.11978 0.079707 0.796591
817 2 0.32153 0.0487731 0.817349
819 4 0.31146 0.0672889 0.830801
818 4 0.331599 0.0302573 0.803897
1050 4 0.339585 0.999491 0.789814
974 4 0.33659 0.010384 0.806417
973 2 0.352217 0.00070328 0.823366
1113 4 0.427467 0.0517856 0.772822
1111 2 0.451366 0.0560194 0.778832
845 4 0.495853 0.0622183 0.781604
1112 4 0.475264 0.0602532 0.784842
863 4 0.00890976 0.0921402 0.759938
833 4 0.00471393 0.097979 0.775551
832 2 0.0127093 0.10866 0.796697
834 4 0.0207046 0.119341 0.817844
1125 4 0.0217789 0.140264 0.81279
1123 2 0.0389389 0.154455 0.824161
1106 4 0.105246 0.0928564 0.763164
911 4 0.116018 0.102914 0.826855
34 3 0.109519 0.0952076 0.78335
31 1 0.121494 0.105123 0.800574
35 3 0.107963 0.119119 0.812393
32 3 0.12943 0.088665 0.814549
33 3 0.139492 0.116943 0.791927
1257 4 0.232117 0.0962648 0.763748
840 4 0.244701 0.109076 0.810651
1255 2 0.245066 0.0953019 0.785116
838 2 0.243921 0.126446 0.828619
1085 4 0.308502 0.0851347 0.824672
1256 4 0.258014 0.0943391 0.806484
1084 2 0.305101 0.10293 0.80744
1086 4 0.3017 0.120724 0.790208
47 3 0.412582 0.1643 0.814823
48 3 0.400764 0.156099 0.7801
1130 4 0.134688 0.245606 0.756617
977 4 0.3084 0.217179 0.772009
918 4 0.29752 0.233839 0.775131
976 2 0.301462 0.204633 0.751523
1298 4 0.311616 0.228937 0.78655
1297 2 0.329589 0.226338 0.803737
46 1 0.405852 0.173341 0.79477
1299 4 0.347563 0.223738 0.820923
1042 2 0.385447 0.22707 0.800935
1043 4 0.387575 0.203927 0.791711
49 3 0.387063 0.186467 0.798389
1143 4 0.417971 0.168361 0.772049