ITEM: TIMESTEP
2240000
ITEM: NUMBER OF ATOMS
4590
ITEM: BOX BOUNDS pp pp pp
-9.9985700000000008e+00 9.9985700000000008e+00
-9.9985700000000008e+00 9.9985700000000008e+00
-9.9985700000000008e+00 9.9985700000000008e+00
ITEM: ATOMS id type xs ys zs
1666 2 0.0152807 0.0738994 0.056497
1668 4 0.0060278 0.0518115 0.0636865
2974 2 0.465767 0.0144581 0.00202709
2976 4 0.479527 0.994732 0.00886077
745 2 0.445277 0.0708959 0.0112192
747 4 0.448425 0.0461323 0.00979172
1667 4 0.0245336 0.0959872 0.0493075
701 4 0.0363008 0.107596 0.0623108
700 2 0.051793 0.122667 0.0748829
566 4 0.172189 0.161579 0.0354882
565 2 0.19309 0.163614 0.0219174
297 4 0.324445 0.114178 0.0276738
295 2 0.34408 0.111 0.0125224
558 4 0.42789 0.112459 0.0124486
746 4 0.442129 0.0956594 0.0126467
555 4 0.0361823 0.232643 0.0124654
567 4 0.213992 0.16565 0.00834665
573 4 0.242744 0.271114 0.0452564
770 4 0.395859 0.195701 0.0137799
359 4 0.376661 0.193689 0.0180019
358 2 0.360751 0.188632 0.999388
664 2 0.390686 0.218041 0.0445916
665 4 0.388754 0.196647 0.0317946
666 4 0.392618 0.239435 0.0573885
623 4 0.393014 0.248586 0.0741506
769 2 0.414795 0.182934 0.00360031
2807 4 0.00424981 0.26674 0.0771597
2835 4 0.998434 0.258037 0.0945404
292 2 0.126377 0.283356 0.0512222
507 4 0.156992 0.304098 0.0661687
293 4 0.145159 0.299844 0.051974
294 4 0.107596 0.266867 0.0504704
287 4 0.164087 0.303466 0.0476329
286 2 0.176989 0.304253 0.0262298
505 2 0.175822 0.302357 0.0825263
481 2 0.22764 0.280647 0.078114
482 4 0.242616 0.265184 0.0653944
288 4 0.189891 0.305041 0.00482674
571 2 0.264418 0.27115 0.0327908
572 4 0.286093 0.271185 0.0203251
357 4 0.301182 0.26848 0.00613816
355 2 0.313586 0.286888 0.994629
323 4 0.393731 0.258024 0.0555333
1069 2 0.402961 0.326968 0.0260085
322 2 0.405779 0.275906 0.0428732
955 2 0.348845 0.328071 0.010667
324 4 0.417828 0.293787 0.0302131
1070 4 0.423133 0.312376 0.0283119
280 2 0.449353 0.316633 0.0594737
281 4 0.459089 0.317368 0.082492
282 4 0.439617 0.315897 0.0364554
550 2 0.121067 0.336261 0.0810114
455 4 0.1358 0.346242 0.046748
552 4 0.134606 0.331992 0.0604284
454 2 0.149634 0.352175 0.0267828
456 4 0.163468 0.358107 0.00681761
1290 4 0.279209 0.393959 0.0282889
250 2 0.276928 0.410244 0.0606499
1288 2 0.280263 0.378644 0.00855263
1071 4 0.382788 0.341561 0.0237051
741 4 0.372927 0.34241 0.0425587
739 2 0.372817 0.345714 0.0673426
957 4 0.366302 0.334221 0.0274788
1788 4 0.0722677 0.491576 0.0180476
1786 2 0.0943196 0.502675 0.0220097
626 4 0.237038 0.491738 0.0686786
625 2 0.212259 0.494213 0.0664309
245 4 0.244956 0.473214 0.073063
244 2 0.256142 0.46131 0.0541329
251 4 0.280034 0.413505 0.0360551
246 4 0.267328 0.449407 0.0352029
272 4 0.271345 0.430134 0.0330321
271 2 0.275043 0.433432 0.00852438
1672 2 0.404756 0.445377 0.0667644
853 2 0.397184 0.440981 0.00615136
1674 4 0.408914 0.451027 0.042765
854 4 0.412234 0.444281 0.0258436
563 4 0.47233 0.471922 0.0443696
562 2 0.450082 0.461812 0.0390806
564 4 0.427834 0.451701 0.0337916
228 4 0.488799 0.460989 0.0404306
18 3 0.0725235 0.0104051 0.158121
19 3 0.0681194 0.0480804 0.155757
491 4 0.245447 0.0767799 0.0778714
1474 2 0.278196 0.00335134 0.0949306
1475 4 0.272151 0.0251555 0.105571
492 4 0.273223 0.0446775 0.104303
490 2 0.259335 0.0607287 0.0910873
581 4 0.295283 0.0943338 0.143443
486 4 0.394088 0.0453373 0.0883627
484 2 0.411239 0.0419656 0.106242
485 4 0.42839 0.0385939 0.124121
2722 2 0.48354 0.0653434 0.136261
2724 4 0.487214 0.0407563 0.138935
1759 2 0.494578 0.0115672 0.1136
2744 4 0.490982 0.0231281 0.14889
2723 4 0.479866 0.0899306 0.133586
702 4 0.0672852 0.137737 0.087455
476 4 0.0740582 0.145698 0.104967
475 2 0.0853207 0.161621 0.120612
477 4 0.0965831 0.177545 0.136258
737 4 0.205511 0.157854 0.0998811
237 4 0.236563 0.0915619 0.155412
582 4 0.249142 0.107856 0.157186
580 2 0.272213 0.101095 0.150315
628 2 0.383433 0.152306 0.15968
2833 2 0.00645919 0.234954 0.0998301
2625 4 0.00152536 0.207911 0.120394
2834 4 0.0144839 0.211872 0.10512
738 4 0.236873 0.196785 0.101112
736 2 0.221192 0.17732 0.100496
460 2 0.316498 0.23915 0.10431
461 4 0.292345 0.239069 0.0978434
354 4 0.275857 0.243444 0.107741
352 2 0.269527 0.249583 0.131138
630 4 0.378692 0.173695 0.14763
254 4 0.364199 0.184325 0.137932
462 4 0.34065 0.239232 0.110777
255 4 0.350341 0.23035 0.124133
253 2 0.35727 0.207338 0.131033
765 4 0.349691 0.249154 0.125745
624 4 0.359024 0.24295 0.110395
622 2 0.376019 0.245768 0.0922727
339 4 0.0452382 0.25078 0.130855
337 2 0.0421158 0.254438 0.155391
657 4 0.00323712 0.276611 0.0940473
551 4 0.107529 0.34053 0.101594
483 4 0.212664 0.296111 0.0908336
506 4 0.194652 0.300615 0.0988839
537 4 0.190669 0.311262 0.11477
535 2 0.192654 0.29778 0.135734
536 4 0.194638 0.284298 0.156697
353 4 0.263198 0.255723 0.154535
387 4 0.312147 0.320776 0.107059
301 2 0.314873 0.306346 0.148105
302 4 0.307962 0.314996 0.125687
763 2 0.34168 0.255961 0.148432
385 2 0.333267 0.333198 0.102077
671 4 0.446314 0.321443 0.0965485
527 4 0.461754 0.312238 0.102035
670 2 0.424323 0.331076 0.103534
526 2 0.486603 0.309506 0.101574
647 4 0.0595262 0.345511 0.164134
289 2 0.234146 0.394641 0.146947
416 4 0.200915 0.372042 0.162214
252 4 0.273823 0.406982 0.0852446
290 4 0.249262 0.406208 0.130733
609 4 0.2821 0.409104 0.103694
493 2 0.40013 0.396891 0.0922193
495 4 0.402919 0.372143 0.0899929
386 4 0.354387 0.345621 0.0970954
12 3 0.393375 0.337309 0.130928
15 3 0.359861 0.345126 0.116484
740 4 0.372707 0.349019 0.0921266
672 4 0.402332 0.340709 0.110519
14 3 0.390957 0.358379 0.0998981
11 1 0.380813 0.353272 0.120133
13 3 0.379725 0.372236 0.133457
1791 4 0.0435781 0.488597 0.138046
1466 4 0.0546067 0.47389 0.132074
1465 2 0.0601638 0.453007 0.119497
1467 4 0.0657209 0.432123 0.10692
638 4 0.248649 0.481884 0.121442
766 2 0.251902 0.447563 0.141207
637 2 0.229132 0.49742 0.119742
768 4 0.253483 0.42267 0.142946
607 2 0.302433 0.421644 0.111075
767 4 0.250321 0.472456 0.139468
608 4 0.322766 0.434185 0.118456
494 4 0.397341 0.421639 0.0944458
660 4 0.384821 0.437576 0.100682
1673 4 0.400599 0.439727 0.0907638
659 4 0.335169 0.431925 0.102524
658 2 0.359995 0.43475 0.101603
1559 4 0.371919 0.486093 0.135119
524 4 0.391605 0.49063 0.13379
523 2 0.396111 0.470221 0.120066
525 4 0.400617 0.449812 0.106342
595 2 0.45595 0.412164 0.158906
596 4 0.457025 0.421283 0.135649
16 1 0.0684609 0.0298516 0.17011
17 3 0.0479601 0.0281005 0.180395
2480 4 0.030426 0.0262371 0.18673
2481 4 0.000627072 0.0663914 0.186119
2479 2 0.0155265 0.0463143 0.186424
20 3 0.0845757 0.0327287 0.185943
380 4 0.99879 0.0851654 0.191199
578 4 0.0828042 0.0509633 0.172456
577 2 0.097743 0.0707339 0.175793
689 4 0.182083 0.00657742 0.227966
1506 4 0.261298 0.00596993 0.167115
652 2 0.292548 0.0219212 0.180118
653 4 0.317457 0.0239813 0.180788
25 3 0.313106 0.0515126 0.238125
654 4 0.267638 0.0198612 0.179448
758 4 0.358087 0.0596643 0.188466
759 4 0.334746 0.0590575 0.232688
757 2 0.346417 0.0593609 0.210577
311 4 0.375354 0.0716377 0.189192
379 2 0.0134161 0.103785 0.199234
511 2 0.0520169 0.150109 0.19954
512 4 0.0400937 0.12951 0.191879
381 4 0.0280425 0.122405 0.207268
513 4 0.0639402 0.170708 0.207202
393 4 0.0822454 0.176369 0.209957
579 4 0.112682 0.0905046 0.179129
448 2 0.153496 0.0951493 0.181377
450 4 0.129343 0.100703 0.178062
449 4 0.177648 0.0895953 0.184692
235 2 0.212724 0.0941348 0.162501
236 4 0.188885 0.0967078 0.16959
28 3 0.322455 0.143275 0.233603
26 1 0.321583 0.156859 0.252394
312 4 0.379916 0.114508 0.163854
629 4 0.388174 0.130918 0.171731
310 2 0.377635 0.0930728 0.176523
521 4 0.495751 0.124633 0.223884
332 4 0.482834 0.111591 0.22821
762 4 0.480148 0.13135 0.232808
760 2 0.456582 0.130871 0.24115
761 4 0.433016 0.130393 0.249493
394 2 0.0155156 0.250565 0.227077
391 2 0.0964969 0.195067 0.201444
392 4 0.110748 0.213765 0.192932
279 4 0.231656 0.202432 0.176955
277 2 0.242415 0.224497 0.172205
278 4 0.253173 0.246562 0.167455
284 4 0.271973 0.249494 0.171355
27 3 0.327689 0.178217 0.24642
395 4 0.0335447 0.253638 0.210028
338 4 0.0389933 0.258096 0.179928
363 4 0.0480937 0.262084 0.197781
361 2 0.0575801 0.283552 0.206403
749 4 0.0581955 0.317849 0.220531
648 4 0.0725434 0.319571 0.204857
362 4 0.0670664 0.305019 0.215025
748 2 0.0649866 0.331675 0.240226
370 2 0.110411 0.31099 0.211598
372 4 0.0861302 0.306371 0.207821
371 4 0.134692 0.31561 0.215376
734 4 0.138891 0.323886 0.232752
733 2 0.156713 0.311397 0.245064
755 4 0.244556 0.261522 0.160667
754 2 0.243725 0.284034 0.171516
756 4 0.242894 0.306546 0.182366
611 4 0.24858 0.322147 0.240278
610 2 0.245039 0.323294 0.215553
612 4 0.241498 0.324442 0.190828
283 2 0.295357 0.256157 0.177183
285 4 0.318741 0.26282 0.183011
308 4 0.326716 0.279993 0.175981
303 4 0.321784 0.297695 0.170524
729 4 0.319816 0.314804 0.181514
764 4 0.333669 0.262767 0.171119
307 2 0.337901 0.283656 0.198042
309 4 0.349086 0.287318 0.220102
498 4 0.340911 0.28031 0.237098
646 2 0.0660348 0.332541 0.184496
417 4 0.157882 0.395483 0.172186
299 4 0.136781 0.33729 0.24668
291 4 0.21903 0.383074 0.163161
415 2 0.179399 0.383762 0.1672
727 2 0.309982 0.332581 0.196089
728 4 0.300147 0.350357 0.210665
446 4 0.380558 0.375118 0.248565
445 2 0.404335 0.374011 0.240907
447 4 0.428111 0.372905 0.23325
644 4 0.444071 0.371584 0.221907
643 2 0.454968 0.390659 0.209966
597 4 0.454875 0.403045 0.182162
414 4 0.214353 0.481127 0.21534
412 2 0.227874 0.467206 0.231106
645 4 0.465866 0.409733 0.198025
229 2 0.445097 0.479031 0.228821
231 4 0.454137 0.455936 0.225643
230 4 0.436058 0.502125 0.231999
427 2 0.0789607 0.0183541 0.325833
2755 2 0.0147493 0.056523 0.3282
234 4 0.0204749 0.0322864 0.291917
232 2 0.044298 0.0337438 0.284466
233 4 0.0681211 0.0352011 0.277015
1404 4 0.0787817 0.0203868 0.282795
317 4 0.0856392 0.0372345 0.288345
428 4 0.0831916 0.0218419 0.301438
2756 4 0.0182543 0.0412885 0.308686
2478 4 0.00781083 0.0463185 0.292541
316 2 0.094307 0.0606562 0.289558
318 4 0.102975 0.0840779 0.290771
730 2 0.138135 0.0832861 0.316623
731 4 0.160251 0.0826535 0.328271
732 4 0.116018 0.0839188 0.304976
606 4 0.158389 0.0629176 0.331782
693 4 0.234054 0.0555003 0.260418
691 2 0.250846 0.0698511 0.272134
24 3 0.31341 0.0713932 0.270099
21 1 0.324552 0.0554791 0.25741
22 3 0.345525 0.0634123 0.252278
23 3 0.326729 0.0358028 0.269514
349 2 0.388194 0.0666005 0.253074
351 4 0.412335 0.0618765 0.257556
350 4 0.364054 0.0713245 0.248591
480 4 0.427283 0.0488563 0.255421
479 4 0.458439 0.0314815 0.290465
478 2 0.442861 0.0401689 0.272943
2664 4 0.474246 0.0198538 0.288495
1428 4 0.457245 0.0156041 0.296728
258 4 0.456506 0.0324145 0.309578
2662 2 0.497286 0.0295621 0.288196
256 2 0.44066 0.0368083 0.328413
397 2 0.0879388 0.0994763 0.329465
399 4 0.0976681 0.0911143 0.308003
721 2 0.265174 0.104824 0.315588
692 4 0.267638 0.084202 0.28385
30 3 0.30041 0.157178 0.260776
723 4 0.275862 0.100523 0.293397
29 3 0.336356 0.149061 0.268498
632 4 0.360786 0.0910835 0.255573
631 2 0.356722 0.11511 0.261174
707 4 0.348106 0.140069 0.281865
633 4 0.352658 0.139137 0.266775
706 2 0.356411 0.157615 0.297623
443 4 0.0107532 0.247331 0.261523
442 2 0.023852 0.251244 0.282458
444 4 0.0369509 0.255158 0.303394
546 4 0.141599 0.185556 0.257649
544 2 0.160168 0.20064 0.26492
545 4 0.178737 0.215723 0.272192
402 4 0.195619 0.227281 0.267995
473 4 0.21826 0.187146 0.325457
405 4 0.224397 0.168957 0.330463
708 4 0.364716 0.175161 0.313382
344 4 0.233806 0.309162 0.244602
343 2 0.212888 0.300384 0.255118
400 2 0.190928 0.251411 0.272567
401 4 0.186238 0.275541 0.27714
676 2 0.174981 0.303724 0.296381
345 4 0.19197 0.291607 0.265633
677 4 0.175758 0.291074 0.274827
735 4 0.174535 0.298908 0.257375
678 4 0.174205 0.316373 0.317935
510 4 0.190137 0.327462 0.323055
375 4 0.162982 0.307791 0.331516
378 4 0.251983 0.265321 0.308148
376 2 0.275349 0.269857 0.30049
496 2 0.325294 0.280068 0.256623
497 4 0.309677 0.279825 0.276149
377 4 0.298715 0.274394 0.292833
541 2 0.367153 0.301333 0.294459
542 4 0.384995 0.286433 0.303671
420 4 0.40187 0.277577 0.313095
543 4 0.349312 0.316232 0.285247
365 4 0.0184383 0.388406 0.301337
601 2 0.0525285 0.401743 0.322437
603 4 0.0319146 0.389949 0.314618
750 4 0.0717777 0.345502 0.259921
298 2 0.114233 0.345033 0.254216
300 4 0.091684 0.352776 0.261751
508 2 0.20617 0.345578 0.316738
509 4 0.222204 0.363695 0.310421
433 2 0.30509 0.391377 0.326682
434 4 0.327962 0.394347 0.317027
615 4 0.354866 0.334702 0.289374
614 4 0.335461 0.377738 0.305866
613 2 0.345164 0.35622 0.29762
1757 4 0.0355202 0.447633 0.268997
1756 2 0.0484575 0.462082 0.253216
264 4 0.0210693 0.441954 0.255642
776 4 0.0705455 0.498146 0.321197
775 2 0.0680824 0.49461 0.296567
1758 4 0.0613947 0.476531 0.237435
1775 4 0.0692986 0.489967 0.251766
1436 4 0.230333 0.444188 0.261314
413 4 0.241394 0.453285 0.246872
1435 2 0.247035 0.447602 0.279604
1437 4 0.263738 0.451016 0.297895
4 3 0.263455 0.448205 0.317431
436 2 0.327968 0.456043 0.335552
3 3 0.294975 0.468904 0.322169
438 4 0.303144 0.453404 0.336966
1803 4 0.37677 0.507029 0.294056
1801 2 0.369672 0.486438 0.306336
437 4 0.352792 0.458682 0.334138
1802 4 0.362574 0.465847 0.318616
712 2 0.468872 0.486231 0.336264
714 4 0.488159 0.470617 0.333197
713 4 0.449585 0.501845 0.339332
2757 4 0.0112442 0.0717574 0.347714
2585 4 0.0232784 0.0763284 0.362046
429 4 0.0747298 0.0148664 0.350228
1780 2 0.118149 0.999937 0.402839
1781 4 0.109595 0.0205292 0.414152
604 2 0.180132 0.0606392 0.343916
605 4 0.201875 0.0583609 0.35605
248 4 0.208458 0.0772388 0.354771
441 4 0.329381 0.0015965 0.399604
962 4 0.326156 0.0132559 0.41366
1701 4 0.335115 0.0120239 0.385391
425 4 0.343116 0.0112022 0.403191
699 4 0.370068 0.0577114 0.35804
698 4 0.410202 0.0422965 0.332498
1699 2 0.344618 0.0283641 0.369025
1700 4 0.354121 0.0447043 0.352658
697 2 0.390135 0.0500039 0.345269
725 4 0.385391 0.0748894 0.379936
424 2 0.364466 0.00434655 0.414252
257 4 0.424815 0.0412021 0.347249
398 4 0.0782094 0.107838 0.350926
2584 2 0.0422345 0.0925623 0.360528
2586 4 0.0611905 0.108796 0.359009
458 4 0.0505272 0.122188 0.370442
457 2 0.0424075 0.141517 0.384068
459 4 0.0342878 0.160845 0.397693
600 4 0.113186 0.143408 0.342439
249 4 0.240726 0.115301 0.351491
247 2 0.224592 0.0962697 0.353131
404 4 0.248893 0.126868 0.341826
403 2 0.236645 0.147912 0.336145
722 4 0.254485 0.109125 0.337779
683 4 0.252465 0.130021 0.359824
682 2 0.274525 0.130693 0.371575
684 4 0.296584 0.131365 0.383327
320 4 0.307968 0.148622 0.37926
724 2 0.389294 0.0879182 0.400917
319 2 0.33218 0.14865 0.373018
321 4 0.356392 0.148677 0.366776
726 4 0.393197 0.100947 0.421898
717 4 0.409086 0.152112 0.348379
261 4 0.0638038 0.206402 0.413306
260 4 0.0270065 0.172567 0.411931
259 2 0.0454052 0.189485 0.412618
598 2 0.121294 0.163989 0.354096
599 4 0.129403 0.18457 0.365752
389 4 0.12285 0.216554 0.370289
686 4 0.117989 0.198001 0.375881
685 2 0.100243 0.199946 0.393387
275 4 0.134591 0.201357 0.373471
274 2 0.159213 0.198528 0.370164
388 2 0.123368 0.240779 0.36412
474 4 0.19958 0.208981 0.366384
472 2 0.20892 0.198063 0.34592
276 4 0.183835 0.195698 0.366857
715 2 0.396961 0.168393 0.362977
716 4 0.384837 0.184674 0.377575
467 4 0.382431 0.179885 0.397418
269 4 0.413282 0.225805 0.350285
270 4 0.448037 0.211812 0.383404
452 4 0.467008 0.21351 0.38142
268 2 0.43066 0.218808 0.366845
451 2 0.469834 0.216264 0.406111
346 2 0.0486018 0.325017 0.379816
348 4 0.0255504 0.332427 0.386054
347 4 0.0716531 0.317608 0.373578
618 4 0.0818392 0.307301 0.388541
616 2 0.0946879 0.29235 0.373161
390 4 0.123886 0.265004 0.357951
617 4 0.107537 0.277399 0.357781
374 4 0.125169 0.283135 0.353033
373 2 0.144076 0.295463 0.342275
418 2 0.40652 0.261726 0.331865
419 4 0.41117 0.245874 0.350634
602 4 0.0731425 0.413538 0.330256
549 4 0.0892534 0.416611 0.343268
435 4 0.282217 0.388407 0.336336
334 2 0.33101 0.364423 0.407253
238 2 0.383099 0.381579 0.395719
239 4 0.401455 0.395256 0.385659
587 4 0.406445 0.414949 0.388599
335 4 0.352639 0.351881 0.406941
240 4 0.364744 0.367903 0.405779
752 4 0.481727 0.395351 0.37543
561 4 0.480024 0.378603 0.384827
751 2 0.48979 0.414405 0.36139
559 2 0.491675 0.373884 0.406441
548 4 0.0811461 0.436067 0.388616
407 4 0.0808643 0.45426 0.397132
500 4 0.0746597 0.492421 0.341001
499 2 0.0780226 0.481479 0.36323
501 4 0.0813855 0.470536 0.385459
547 2 0.0851998 0.426339 0.365942
406 2 0.093799 0.463594 0.416386
1 1 0.277585 0.458014 0.333004
5 3 0.265946 0.472802 0.345828
2 3 0.28636 0.441566 0.346481
586 2 0.398426 0.438495 0.386064
593 4 0.404673 0.468835 0.370456
588 4 0.390407 0.462042 0.38353
592 2 0.418356 0.486038 0.358539
753 4 0.497852 0.433459 0.34735
117 3 0.493056 0.45541 0.352007
594 4 0.432039 0.503241 0.346621
2237 4 0.9959 0.00947028 0.463291
720 4 0.00974719 0.0229908 0.456956
367 2 0.0817756 0.0309443 0.437626
369 4 0.0712546 0.0292081 0.460242
719 4 0.0560754 0.0355457 0.470984
718 2 0.0329113 0.0292682 0.46397
368 4 0.0922966 0.0326806 0.41501
341 4 0.180439 0.00743214 0.510391
961 2 0.314189 0.0258344 0.431653
963 4 0.302222 0.038413 0.449646
432 4 0.307784 0.0571534 0.456799
430 2 0.315796 0.0704143 0.476424
431 4 0.323809 0.0836751 0.496049
426 4 0.385816 0.997491 0.425313
640 2 0.478416 0.100448 0.436614
641 4 0.457684 0.100646 0.45059
1035 4 0.0773238 0.215995 0.42376
1033 2 0.0779402 0.231648 0.443247
1034 4 0.0785567 0.247302 0.462735
687 4 0.0824969 0.201892 0.410894
487 2 0.326981 0.245023 0.449243
466 2 0.389381 0.187467 0.420208
468 4 0.396332 0.195048 0.442998
411 4 0.351699 0.223489 0.476131
409 2 0.373256 0.213196 0.468746
410 4 0.394813 0.202903 0.461361
266 4 0.348111 0.241533 0.482116
489 4 0.336507 0.232961 0.468965
575 4 0.410224 0.201849 0.473763
516 4 0.41012 0.203156 0.453819
574 2 0.416115 0.194021 0.496768
514 2 0.432804 0.211491 0.447403
515 4 0.455487 0.219826 0.440987
453 4 0.47266 0.219017 0.430801
696 4 0.0849609 0.250398 0.480656
1260 4 0.0766987 0.265193 0.47133
1258 2 0.0943667 0.28271 0.468846
1259 4 0.112035 0.300227 0.466363
9 3 0.131646 0.29881 0.450651
7 3 0.117254 0.311782 0.482857
6 1 0.131907 0.316431 0.465744
8 3 0.153207 0.318971 0.47459
327 4 0.107882 0.324666 0.46648
10 3 0.125461 0.33565 0.455364
488 4 0.317455 0.257085 0.429522
651 4 0.24263 0.2566 0.506475
1009 2 0.464126 0.305356 0.490853
1011 4 0.46806 0.329596 0.486149
2457 4 0.476325 0.272235 0.499821
2455 2 0.49321 0.25384 0.498526
326 4 0.0630703 0.346825 0.467739
325 2 0.0854761 0.335746 0.467109
709 2 0.155084 0.409754 0.487621
711 4 0.135778 0.40632 0.472108
384 4 0.121605 0.420597 0.475159
503 4 0.213291 0.355796 0.511087
710 4 0.17439 0.413189 0.503135
668 4 0.308846 0.396299 0.411223
336 4 0.309382 0.376964 0.407565
560 4 0.503327 0.369166 0.428054
3309 4 0.489862 0.369789 0.442753
3307 2 0.475893 0.353916 0.456097
3308 4 0.461924 0.338042 0.469442
1381 2 0.0203019 0.483364 0.457484
1383 4 0.0124266 0.463788 0.444069
680 4 0.00965837 0.449984 0.459102
382 2 0.117124 0.438718 0.458525
408 4 0.106734 0.472929 0.435641
568 2 0.146158 0.48412 0.444266
383 4 0.112642 0.456839 0.44189
569 4 0.125451 0.470106 0.444352
1556 4 0.239309 0.494288 0.408463
1557 4 0.289134 0.495047 0.404272
634 2 0.312061 0.480298 0.429028
1555 2 0.264222 0.494667 0.406368
635 4 0.320967 0.459798 0.440235
669 4 0.31919 0.441062 0.43097
636 4 0.303156 0.500799 0.41782
667 2 0.314018 0.41868 0.421097
772 2 0.351633 0.436415 0.456239
773 4 0.373266 0.42863 0.466067
774 4 0.33 0.4442 0.446411
663 4 0.493768 0.487002 0.442185
1152 4 0.204864 0.0608817 0.54065
342 4 0.191934 0.052956 0.5276
340 2 0.186187 0.0301941 0.518995
1150 2 0.218666 0.0795444 0.549945
949 2 0.297283 0.031976 0.576148
951 4 0.292999 0.0565831 0.575001
1031 4 0.289925 0.0768851 0.569049
950 4 0.301567 0.00736883 0.577295
1217 4 0.39977 0.0439595 0.503816
842 4 0.383856 0.0541978 0.509785
841 2 0.3623 0.0666337 0.507364
843 4 0.340744 0.0790696 0.504944
1216 2 0.422185 0.0549634 0.502534
1218 4 0.4446 0.0659673 0.501252
1270 2 0.0694664 0.146265 0.580644
1271 4 0.0833881 0.127985 0.570784
1058 4 0.0834933 0.12453 0.50329
1057 2 0.0855833 0.123354 0.528178
1059 4 0.0876733 0.122179 0.553066
1155 4 0.102175 0.122223 0.565359
939 4 0.0882109 0.109456 0.568735
1153 2 0.125571 0.129204 0.570754
1221 4 0.157169 0.154357 0.579079
937 2 0.0883821 0.0931442 0.587684
1154 4 0.148966 0.136185 0.576149
1151 4 0.232468 0.0982071 0.559239
1180 2 0.224146 0.136535 0.557578
1181 4 0.220938 0.112419 0.563349
1182 4 0.227354 0.160651 0.551807
1032 4 0.250717 0.107241 0.562573
1030 2 0.270321 0.0920629 0.565811
1198 2 0.0120899 0.238861 0.555803
1199 4 0.0321252 0.235394 0.570354
878 4 0.0521153 0.231009 0.571211
1244 4 0.0602713 0.246725 0.582596
695 4 0.0843243 0.235717 0.528455
694 2 0.0846426 0.243058 0.504555
900 4 0.217611 0.176088 0.545797
898 2 0.23671 0.1846 0.532088
899 4 0.25581 0.193111 0.518378
650 4 0.262341 0.211874 0.517045
649 2 0.252486 0.234237 0.51176
576 4 0.422007 0.186194 0.519772
982 2 0.00892894 0.298313 0.580372
983 4 0.0321253 0.294094 0.588697
856 2 0.210969 0.272117 0.532676
857 4 0.189897 0.276974 0.545228
798 4 0.202892 0.271888 0.57335
947 4 0.186347 0.270796 0.563146
946 2 0.170541 0.281676 0.579177
858 4 0.232041 0.267259 0.520124
267 4 0.367633 0.278955 0.508934
265 2 0.357872 0.260244 0.495525
1010 4 0.460192 0.281116 0.495557
502 2 0.200764 0.377363 0.509323
504 4 0.188236 0.39893 0.507559
803 4 0.263787 0.360791 0.577139
804 4 0.277201 0.372691 0.530458
802 2 0.270494 0.366741 0.553799
928 2 0.34086 0.387909 0.565947
929 4 0.363469 0.389079 0.555333
881 4 0.36339 0.371736 0.547531
880 2 0.379418 0.355439 0.537395
882 4 0.395446 0.339143 0.52726
926 4 0.429096 0.404318 0.585723
539 4 0.101603 0.431231 0.552919
540 4 0.10988 0.474068 0.577356
2244 4 0.102192 0.491464 0.573935
538 2 0.105742 0.45265 0.565138
1160 4 0.11898 0.488777 0.584462
2154 4 0.234319 0.488704 0.554669
1953 4 0.412137 0.511264 0.554183
1909 2 0.438247 0.487374 0.569089
1081 2 0.072408 0.0677721 0.642508
938 4 0.0885533 0.0768321 0.606633
1083 4 0.0740259 0.0687865 0.617577
1126 2 0.0341257 0.078562 0.601617
1082 4 0.0707902 0.0667577 0.667438
1127 4 0.0561273 0.0748133 0.612889
824 4 0.189381 0.00231377 0.6643
3007 2 0.495441 0.0607957 0.580481
3008 4 0.488949 0.0468654 0.600204
809 4 0.475291 0.0383217 0.612046
808 2 0.466101 0.048653 0.632878
810 4 0.456911 0.0589844 0.653711
45 3 0.45228 0.0814041 0.653557
1128 4 0.0121241 0.0823108 0.590345
1272 4 0.0555448 0.164545 0.590503
1219 2 0.163844 0.163675 0.6013
1192 2 0.323617 0.149991 0.647926
886 2 0.268882 0.165207 0.660287
1193 4 0.341584 0.160668 0.634201
3424 2 0.485317 0.106234 0.666343
3425 4 0.465552 0.0916014 0.670861
877 2 0.0555469 0.207278 0.578298
879 4 0.0589784 0.183546 0.585385
1220 4 0.170519 0.172993 0.623522
1212 4 0.188945 0.174411 0.62882
1210 2 0.210166 0.171824 0.641789
1211 4 0.231386 0.169236 0.654757
888 4 0.248712 0.179545 0.656717
1245 4 0.048044 0.291065 0.602223
1243 2 0.0541577 0.268895 0.592409
948 4 0.154735 0.292556 0.595207
1136 4 0.1634 0.302705 0.609506
1135 2 0.159919 0.326785 0.615269
822 4 0.141184 0.321625 0.662312
820 2 0.143626 0.296757 0.661411
1064 4 0.149972 0.339442 0.656724
796 2 0.224322 0.271678 0.586229
797 4 0.245752 0.271469 0.599109
791 4 0.250827 0.290905 0.597043
790 2 0.270716 0.305757 0.594042
792 4 0.290606 0.320609 0.59104
872 4 0.326256 0.289897 0.595269
871 2 0.349675 0.293556 0.603227
813 4 0.380379 0.315889 0.607619
873 4 0.373094 0.297215 0.611185
954 4 0.482865 0.264579 0.578321
3123 4 0.48305 0.258601 0.653851
1041 4 0.0566496 0.385395 0.630282
3264 4 0.0487966 0.377149 0.645615
3240 4 0.0380375 0.389324 0.632321
3238 2 0.0192193 0.397693 0.646499
1039 2 0.073854 0.384702 0.612152
3262 2 0.0561371 0.355972 0.656697
1137 4 0.156438 0.350865 0.621031
1040 4 0.0910584 0.38401 0.594022
993 4 0.109083 0.388474 0.6029
991 2 0.130077 0.374993 0.604538
992 4 0.151072 0.361513 0.606177
897 4 0.170749 0.360827 0.614178
1189 2 0.241916 0.366094 0.601248
896 4 0.210098 0.391058 0.620379
895 2 0.190424 0.375943 0.617278
1172 4 0.234329 0.397792 0.598697
1191 4 0.228077 0.384167 0.611593
1238 4 0.292514 0.335392 0.605974
1190 4 0.255755 0.34802 0.590904
1239 4 0.32278 0.369761 0.585889
1237 2 0.307647 0.352577 0.595932
930 4 0.318252 0.386739 0.576561
806 4 0.252088 0.371347 0.663413
811 2 0.385486 0.338869 0.59919
1204 2 0.374088 0.385284 0.63778
1205 4 0.373513 0.391482 0.661997
1206 4 0.374663 0.379086 0.613564
927 4 0.38972 0.378024 0.601811
812 4 0.390592 0.361849 0.590762
925 2 0.409408 0.391171 0.593767
1002 4 0.445348 0.414707 0.578317
1159 2 0.142327 0.489716 0.593361
1161 4 0.165675 0.490655 0.60226
1188 4 0.169569 0.473525 0.613535
1171 2 0.225797 0.418598 0.609629
1186 2 0.193424 0.466464 0.616035
1173 4 0.217264 0.439403 0.620561
1187 4 0.217279 0.459404 0.618535
2172 4 0.177832 0.487672 0.658276
1911 4 0.449389 0.476875 0.588857
1001 4 0.451567 0.460261 0.597986
1000 2 0.448458 0.437484 0.588152
1269 4 0.456964 0.477806 0.606751
1267 2 0.456016 0.49214 0.627216
943 2 0.060666 0.024632 0.685986
944 4 0.0775657 0.0426211 0.689982
1076 4 0.0771558 0.0624231 0.68652
1075 2 0.0760618 0.0805141 0.703745
945 4 0.0437663 0.00664294 0.681989
825 4 0.172464 0.0417355 0.69
1149 4 0.214925 0.0534791 0.710887
1283 4 0.161282 0.0517019 0.703341
823 2 0.180923 0.0220246 0.67715
1147 2 0.232719 0.0652632 0.69786
1148 4 0.250513 0.0770473 0.684834
1092 4 0.312424 0.0114617 0.675291
41 1 0.447584 0.072253 0.673876
43 3 0.42501 0.0747173 0.678643
42 3 0.452689 0.0498274 0.673447
1163 4 0.464155 0.0608029 0.68892
1162 2 0.482171 0.0511382 0.703314
2321 4 0.496589 0.0332783 0.734198
4581 4 0.500599 0.014888 0.735021
864 4 0.0655453 0.0902874 0.735005
1077 4 0.0749677 0.098605 0.72097
851 4 0.0742363 0.1172 0.722887
850 2 0.0665378 0.134133 0.706179
852 4 0.0588392 0.151066 0.68947
1107 4 0.0796916 0.104616 0.738492
1282 2 0.168495 0.0756408 0.703077
1284 4 0.175709 0.0995797 0.702812
909 4 0.180354 0.118399 0.708059
907 2 0.195399 0.129533 0.691481
908 4 0.210444 0.140668 0.674902
1227 4 0.229981 0.135796 0.670062
1225 2 0.243853 0.115447 0.674379
1194 4 0.30565 0.139314 0.661651
887 4 0.289053 0.150869 0.663857
1226 4 0.257725 0.0950967 0.678696
829 2 0.307385 0.129466 0.695767
1005 4 0.324498 0.0946951 0.71236
830 4 0.300363 0.146306 0.67867
831 4 0.314406 0.112626 0.712864
1003 2 0.334435 0.0843826 0.732856
44 3 0.460322 0.0825328 0.690322
1113 4 0.462381 0.110145 0.73301
1111 2 0.470064 0.0896462 0.74509
1025 4 0.432124 0.161412 0.675164
1072 2 0.106812 0.254776 0.739973
1130 4 0.145233 0.234242 0.739385
1208 4 0.141635 0.243938 0.722245
1074 4 0.12836 0.242761 0.735908
976 2 0.313319 0.215918 0.733288
977 4 0.298043 0.228401 0.748651
978 4 0.328594 0.203435 0.717926
1024 2 0.444328 0.172801 0.69378
1142 4 0.456275 0.182778 0.731134
1144 2 0.491572 0.179608 0.726645
1262 4 0.459205 0.20234 0.707665
1026 4 0.456531 0.184191 0.712395
1261 2 0.465359 0.223028 0.695044
1145 4 0.470748 0.192592 0.721853
1263 4 0.471514 0.243716 0.682422
1141 2 0.441649 0.179616 0.751165
1177 2 0.0198533 0.248338 0.720925
1179 4 0.0409575 0.261744 0.721197
3263 4 0.0634776 0.334795 0.66778
821 4 0.146068 0.271889 0.660511
1209 4 0.152681 0.258198 0.675604
1207 2 0.147158 0.251068 0.698924
1019 4 0.390133 0.292411 0.712593
1018 2 0.370197 0.302035 0.700969
1020 4 0.350262 0.311659 0.689345
892 2 0.0202627 0.34585 0.732771
1279 2 0.0505039 0.393156 0.742814
894 4 0.04251 0.356901 0.735621
1280 4 0.0542556 0.368839 0.747261
816 4 0.0578585 0.350455 0.74502
814 2 0.0813818 0.342303 0.7427
815 4 0.104905 0.334151 0.74038
1063 2 0.17294 0.344006 0.665488
1065 4 0.195908 0.348571 0.674252
807 4 0.213215 0.340507 0.669618
1028 4 0.226611 0.386479 0.713151
1066 2 0.197051 0.368856 0.74191
1068 4 0.21415 0.380372 0.727761
1027 2 0.233547 0.405357 0.698295
805 2 0.232651 0.355927 0.666515
1281 4 0.0467523 0.417474 0.738367
1983 4 0.0532185 0.436204 0.733234
2016 4 0.155854 0.497405 0.724225
1176 4 0.170703 0.486703 0.715657
1981 2 0.0706542 0.445164 0.748754
1140 4 0.246802 0.438382 0.669977
1175 4 0.209087 0.477298 0.746299
1174 2 0.189895 0.482 0.730978
1029 4 0.240483 0.424234 0.683439
1138 2 0.264955 0.454101 0.676946
1139 4 0.283107 0.469821 0.683914
1987 2 0.276924 0.451087 0.731071
1229 4 0.295008 0.468708 0.698677
1989 4 0.289424 0.467286 0.716699
2028 4 0.284161 0.481093 0.701841
1228 2 0.31968 0.466203 0.695486
1988 4 0.264425 0.434889 0.745443
2026 2 0.277096 0.503971 0.694643
1230 4 0.344353 0.463698 0.692294
1099 2 0.436694 0.494746 0.679977
1100 4 0.425031 0.477464 0.693779
2989 2 0.0277518 0.0426584 0.784204
2990 4 0.022094 0.0664863 0.779164
2991 4 0.0334097 0.0188305 0.789243
863 4 0.0283119 0.0798387 0.76671
3083 4 0.0114843 0.0778126 0.766043
2047 2 0.126981 0.00316902 0.778799
2049 4 0.110541 0.0218731 0.776552
1202 4 0.101992 0.0354493 0.790125
1201 2 0.115105 0.056692 0.791535
1203 4 0.128217 0.0779348 0.792945
817 2 0.329761 0.0477828 0.803725
819 4 0.325094 0.0716727 0.809441
1050 4 0.341458 0.00781716 0.764934
1004 4 0.344372 0.0740701 0.753352
973 2 0.364954 0.00459922 0.792021
818 4 0.334427 0.0238929 0.798009
974 4 0.34522 0.0160677 0.781813
2322 4 0.489674 0.0513923 0.780294
845 4 0.477543 0.068098 0.777237
1112 4 0.477747 0.0691471 0.75717
844 2 0.472181 0.0782157 0.799465
2320 2 0.493131 0.0423353 0.757246
862 2 0.0469286 0.0850631 0.750858
833 4 0.0176673 0.0847479 0.782761
832 2 0.0206314 0.105839 0.795859
834 4 0.0235954 0.12693 0.808957
1125 4 0.0191801 0.125743 0.82906
1105 2 0.0996871 0.105252 0.753491
1106 4 0.119683 0.105887 0.768489
911 4 0.142492 0.0985953 0.81796
34 3 0.133662 0.0942905 0.775587
31 1 0.149265 0.0951798 0.792737
35 3 0.148347 0.115473 0.803033
32 3 0.144444 0.0786946 0.808039
33 3 0.170562 0.0915565 0.784267
1256 4 0.227064 0.119774 0.807506
840 4 0.228166 0.114962 0.827339
1255 2 0.241708 0.103097 0.795991
1085 4 0.323528 0.0861422 0.795819
1257 4 0.256352 0.0864199 0.784476
1084 2 0.299046 0.090227 0.792804
1086 4 0.274563 0.0943118 0.78979
960 4 0.334183 0.0878643 0.811637
48 3 0.415468 0.156156 0.777462
47 3 0.42159 0.162273 0.814037