ITEM: TIMESTEP
3490000
ITEM: NUMBER OF ATOMS
4590
ITEM: BOX BOUNDS pp pp pp
-9.9985700000000008e+00 9.9985700000000008e+00
-9.9985700000000008e+00 9.9985700000000008e+00
-9.9985700000000008e+00 9.9985700000000008e+00
ITEM: ATOMS id type xs ys zs
701 4 0.0400715 0.0482536 0.0766967
700 2 0.0517821 0.0699091 0.0810646
1667 4 0.0197914 0.0457113 0.0751606
490 2 0.26379 0.050012 0.0736088
492 4 0.277248 0.0307216 0.0651267
1475 4 0.287545 0.0170557 0.0556269
491 4 0.250332 0.0693024 0.082091
745 2 0.420171 0.0761255 0.00639204
2974 2 0.467418 0.0352849 0.0182006
747 4 0.437621 0.0601006 0.998401
2975 4 0.44894 0.0480986 0.00726623
986 4 0.432084 0.0424898 0.995616
2976 4 0.485896 0.0224711 0.0291349
2468 4 0.492955 0.0175434 0.0460573
475 2 0.067345 0.11905 0.0578927
477 4 0.0620512 0.12959 0.0358461
476 4 0.0726388 0.108509 0.0799393
565 2 0.217094 0.15734 0.0118251
746 4 0.40272 0.0921504 0.0143836
769 2 0.389972 0.141052 0.0253373
558 4 0.38324 0.097655 0.0167927
771 4 0.388833 0.116075 0.0252896
770 4 0.39111 0.16603 0.0253851
3338 4 0.999708 0.252616 0.00665684
566 4 0.199335 0.160747 0.0290932
737 4 0.202914 0.180519 0.0323021
736 2 0.195472 0.199638 0.0465939
738 4 0.18803 0.218757 0.0608857
359 4 0.382248 0.177031 0.0111195
664 2 0.391541 0.204308 0.0426219
665 4 0.389107 0.184997 0.0269263
666 4 0.393974 0.223619 0.0583174
623 4 0.384819 0.240007 0.0631075
323 4 0.404394 0.239557 0.0622026
555 4 0.0546697 0.260285 0.998437
2808 4 0.0133996 0.259764 0.0191098
481 2 0.2326 0.264049 0.0611164
505 2 0.19495 0.308811 0.0686943
483 4 0.211496 0.270008 0.0731275
288 4 0.243387 0.335697 0.0176993
506 4 0.197498 0.28512 0.0762703
573 4 0.27181 0.261271 0.0566589
482 4 0.253705 0.25809 0.0491052
571 2 0.290731 0.275347 0.048351
572 4 0.309653 0.289423 0.0400432
357 4 0.309925 0.284148 0.021081
355 2 0.321949 0.303498 0.0107771
1069 2 0.408313 0.316362 0.038887
1071 4 0.391481 0.33484 0.0395748
322 2 0.415614 0.26039 0.0541225
324 4 0.426834 0.281223 0.0460423
1070 4 0.425144 0.297885 0.0381991
280 2 0.456366 0.299008 0.0602167
282 4 0.443839 0.287854 0.0416733
329 4 0.0057769 0.355383 0.0481436
292 2 0.166089 0.341538 0.0307496
294 4 0.147453 0.340736 0.0140987
286 2 0.222196 0.336987 0.0309073
507 4 0.192402 0.332503 0.0611184
287 4 0.201005 0.338277 0.0441152
293 4 0.184724 0.342341 0.0474004
552 4 0.178295 0.341929 0.0684687
456 4 0.216437 0.391546 0.0742261
454 2 0.205337 0.370469 0.0666307
455 4 0.194237 0.349391 0.0590352
1290 4 0.261425 0.403279 0.0481035
1288 2 0.273707 0.385813 0.035093
1289 4 0.28599 0.368348 0.0220824
956 4 0.339314 0.337202 0.0134744
955 2 0.357465 0.339701 0.030489
957 4 0.375615 0.342201 0.0475035
741 4 0.392307 0.347533 0.0553714
1304 4 0.364578 0.369518 0.0161275
1303 2 0.361983 0.393695 0.0103033
739 2 0.395108 0.350978 0.0799777
1786 2 0.110173 0.486585 0.0734096
625 2 0.163509 0.47582 0.0540701
627 4 0.145528 0.489516 0.0647603
1788 4 0.0909127 0.474876 0.0842313
1690 2 0.122974 0.498791 0.0232557
626 4 0.18149 0.462124 0.0433799
245 4 0.185311 0.444803 0.0534804
244 2 0.210236 0.444555 0.0515167
246 4 0.235161 0.444306 0.049553
251 4 0.25749 0.422132 0.0560251
272 4 0.247819 0.430805 0.0408387
271 2 0.261771 0.439039 0.0217938
273 4 0.275723 0.447274 0.00274892
250 2 0.269273 0.427857 0.077322
1305 4 0.359388 0.417872 0.00447908
1672 2 0.410761 0.442729 0.0794485
853 2 0.398371 0.455794 0.0260879
855 4 0.381401 0.452196 0.0080805
37 3 0.367726 0.435254 0.0173623
854 4 0.41534 0.459392 0.0440953
38 3 0.339441 0.457272 0.00605356
1674 4 0.42247 0.447539 0.0578859
564 4 0.433335 0.452494 0.0418862
563 4 0.474684 0.473684 0.0233913
562 2 0.454009 0.463089 0.0326387
228 4 0.481107 0.46624 0.0067376
19 3 0.051046 0.997575 0.15785
577 2 0.0763467 0.0346504 0.154586
579 4 0.0911109 0.0518634 0.144055
450 4 0.108326 0.0574422 0.152485
448 2 0.131867 0.065614 0.150429
449 4 0.155408 0.0737858 0.148373
582 4 0.224077 0.0518415 0.159634
236 4 0.160115 0.0674548 0.166714
702 4 0.0634928 0.0915646 0.0854324
629 4 0.366184 0.147089 0.169413
2723 4 0.494558 0.106881 0.109884
2759 4 0.00164215 0.183308 0.126718
2624 4 0.00429312 0.201611 0.120338
392 4 0.0590734 0.214707 0.168009
755 4 0.243863 0.251576 0.145082
460 2 0.324465 0.226162 0.108774
461 4 0.305348 0.211087 0.10308
354 4 0.287291 0.218796 0.108404
352 2 0.273948 0.229363 0.12672
353 4 0.260604 0.23993 0.145036
278 4 0.255805 0.250278 0.159929
628 2 0.372742 0.170349 0.163
462 4 0.343583 0.241238 0.114468
255 4 0.359493 0.238298 0.123894
253 2 0.374361 0.224323 0.138345
622 2 0.371998 0.243211 0.0843332
254 4 0.389229 0.210349 0.152797
630 4 0.3793 0.193609 0.156587
624 4 0.359176 0.246415 0.105559
537 4 0.181779 0.27397 0.0849887
536 4 0.176418 0.262347 0.13333
535 2 0.179099 0.268159 0.109159
754 2 0.230774 0.272864 0.145902
756 4 0.217685 0.294152 0.146722
612 4 0.223718 0.310887 0.15814
301 2 0.320662 0.317946 0.139664
303 4 0.318567 0.298886 0.155711
764 4 0.330428 0.283494 0.15529
284 4 0.273224 0.254595 0.15443
283 2 0.292755 0.269628 0.158639
285 4 0.312286 0.284662 0.162848
765 4 0.355135 0.256747 0.121014
763 2 0.342781 0.270121 0.138152
12 3 0.411455 0.327929 0.12672
281 4 0.468892 0.310162 0.07876
671 4 0.460239 0.324605 0.0878794
527 4 0.477423 0.316155 0.0946016
526 2 0.497308 0.328828 0.0862828
670 2 0.44002 0.333833 0.0993335
647 4 0.0606712 0.349214 0.147948
550 2 0.159279 0.347688 0.083649
551 4 0.140264 0.353446 0.0988294
290 4 0.214438 0.405933 0.157181
302 4 0.322756 0.337006 0.123617
387 4 0.32929 0.354709 0.117639
385 2 0.353821 0.357716 0.113848
493 2 0.393671 0.39478 0.109525
495 4 0.394062 0.370129 0.113694
386 4 0.378351 0.360723 0.110057
15 3 0.381662 0.350268 0.124221
740 4 0.397908 0.354423 0.104584
14 3 0.416121 0.364289 0.118423
11 1 0.403482 0.349147 0.130645
13 3 0.405311 0.353774 0.153309
672 4 0.419801 0.343061 0.110788
595 2 0.487957 0.389513 0.168271
1465 2 0.0612058 0.470186 0.0958372
1466 4 0.042769 0.483143 0.106671
1791 4 0.0569257 0.49121 0.117638
1467 4 0.0796427 0.457229 0.0850033
766 2 0.208055 0.449787 0.155955
768 4 0.207762 0.424826 0.154528
767 4 0.208347 0.474748 0.157382
638 4 0.19058 0.484052 0.160916
252 4 0.281057 0.433582 0.0986189
609 4 0.281374 0.436757 0.119257
607 2 0.306251 0.439163 0.119982
608 4 0.331128 0.441569 0.120707
494 4 0.39328 0.41943 0.105357
659 4 0.333526 0.443397 0.101118
660 4 0.382765 0.435699 0.105241
1673 4 0.399052 0.437919 0.101011
658 2 0.358145 0.439548 0.10318
524 4 0.397353 0.483287 0.15184
523 2 0.395525 0.466886 0.133056
525 4 0.393698 0.450486 0.114271
2480 4 0.0118965 0.00234391 0.201032
578 4 0.0615824 0.0174374 0.165118
2479 2 0.00763457 0.0257909 0.208599
380 4 0.0179641 0.0591782 0.226056
2481 4 0.00337265 0.0492378 0.216166
20 3 0.0590013 0.0183957 0.188196
379 2 0.0234069 0.0802243 0.213702
237 4 0.20736 0.0517528 0.171421
235 2 0.183737 0.0596038 0.169067
580 2 0.241963 0.0393021 0.1718
1506 4 0.254084 0.012051 0.208018
581 4 0.259849 0.0267627 0.183967
654 4 0.265683 0.0281222 0.203322
652 2 0.28535 0.0270293 0.218722
653 4 0.305017 0.0259364 0.234123
24 3 0.316883 0.0397212 0.242589
758 4 0.33919 0.0750056 0.177825
759 4 0.361361 0.0650696 0.221533
757 2 0.350275 0.0700376 0.199679
350 4 0.368723 0.0533663 0.23578
349 2 0.391798 0.0448628 0.231262
632 4 0.363641 0.0663925 0.241582
25 3 0.344709 0.0143802 0.243674
22 3 0.352596 0.0507454 0.246549
21 1 0.337423 0.0343145 0.251931
480 4 0.432272 0.0451087 0.231827
351 4 0.414872 0.0363594 0.226743
333 4 0.489063 0.0725645 0.242018
513 4 0.0444974 0.153806 0.179564
511 2 0.038678 0.136009 0.196134
512 4 0.0328585 0.118212 0.212705
381 4 0.0288496 0.10127 0.201348
312 4 0.356932 0.134933 0.154518
310 2 0.354978 0.111265 0.162343
30 3 0.363889 0.156296 0.229383
311 4 0.353024 0.0875985 0.170168
26 1 0.380378 0.144611 0.239882
28 3 0.394593 0.135132 0.224182
761 4 0.406198 0.123942 0.211026
631 2 0.366264 0.088734 0.252498
29 3 0.371088 0.128028 0.25319
521 4 0.468623 0.136676 0.23101
762 4 0.453946 0.125041 0.225847
760 2 0.430072 0.124491 0.218436
332 4 0.470039 0.11683 0.228625
331 2 0.479551 0.0946973 0.235322
520 2 0.480988 0.156913 0.223087
393 4 0.0591277 0.167213 0.183662
391 2 0.0591006 0.19096 0.175836
339 4 0.052736 0.230864 0.176254
337 2 0.0654795 0.246406 0.191128
279 4 0.249684 0.217361 0.197073
277 2 0.252744 0.23382 0.178501
522 4 0.493352 0.17715 0.215164
394 2 0.0320221 0.268712 0.238176
395 4 0.0537775 0.269866 0.225906
338 4 0.078223 0.261949 0.206001
363 4 0.0634187 0.275051 0.210402
361 2 0.0667286 0.29961 0.207078
362 4 0.0700385 0.32417 0.203753
546 4 0.0729757 0.26561 0.224109
544 2 0.0944576 0.259118 0.235135
372 4 0.0891354 0.327892 0.194455
733 2 0.15436 0.328574 0.238575
611 4 0.220898 0.319378 0.207341
610 2 0.222308 0.315133 0.18274
344 4 0.226929 0.316109 0.226499
343 2 0.206108 0.308191 0.237856
735 4 0.16983 0.309976 0.244895
401 4 0.166162 0.294357 0.249503
345 4 0.185287 0.300273 0.249213
729 4 0.30782 0.301453 0.171747
727 2 0.293543 0.315874 0.186354
308 4 0.324926 0.291043 0.172536
307 2 0.337376 0.284472 0.1932
496 2 0.34821 0.305141 0.24795
498 4 0.353277 0.29546 0.22546
309 4 0.349826 0.2779 0.213863
749 4 0.0563798 0.336896 0.207458
648 4 0.0734732 0.338076 0.194988
748 2 0.0620283 0.350411 0.227721
646 2 0.0670722 0.343645 0.171468
750 4 0.0676768 0.363926 0.247985
370 2 0.110238 0.336637 0.204621
371 4 0.131341 0.345383 0.214788
734 4 0.138891 0.347173 0.232255
417 4 0.136557 0.36219 0.225234
299 4 0.130585 0.363885 0.242888
415 2 0.153336 0.377246 0.214419
298 2 0.107057 0.366308 0.250993
416 4 0.170116 0.392301 0.203605
289 2 0.19789 0.395378 0.172671
291 4 0.181341 0.384824 0.188161
728 4 0.279267 0.330296 0.200961
445 2 0.388563 0.359627 0.225982
446 4 0.365945 0.355022 0.216371
447 4 0.411182 0.364232 0.235593
644 4 0.425192 0.363114 0.220958
643 2 0.439979 0.373195 0.203497
645 4 0.454766 0.383277 0.186036
597 4 0.468956 0.397781 0.182264
230 4 0.43145 0.494343 0.210606
229 2 0.440647 0.472649 0.218973
231 4 0.449843 0.450956 0.22734
234 4 0.0172895 0.0439001 0.291523
232 2 0.0415313 0.0383068 0.294019
233 4 0.065773 0.0327135 0.296516
317 4 0.0687758 0.0258432 0.316508
1404 4 0.0691558 0.0156757 0.303274
428 4 0.0680533 0.00863476 0.323269
2756 4 0.00956577 0.0602135 0.297084
2478 4 0.00919966 0.0573613 0.278599
1402 2 0.0839988 0.00536435 0.285996
675 4 0.102576 0.996475 0.249975
693 4 0.307172 0.053848 0.254156
691 2 0.295246 0.074323 0.262139
23 3 0.33555 0.0331075 0.275027
478 2 0.444823 0.0434278 0.253387
257 4 0.415196 0.0738275 0.317032
479 4 0.457374 0.0417469 0.274947
2664 4 0.473785 0.0311058 0.283402
1428 4 0.455576 0.0302727 0.286865
258 4 0.449912 0.0473128 0.29269
256 2 0.432554 0.0605701 0.304861
1426 2 0.448199 0.00842539 0.296532
403 2 0.227765 0.163147 0.324842
404 4 0.241569 0.142322 0.325827
249 4 0.247194 0.125559 0.336088
692 4 0.28332 0.0947981 0.270122
721 2 0.261875 0.117513 0.299265
723 4 0.269295 0.104508 0.279241
722 4 0.254455 0.130518 0.31929
27 3 0.392497 0.158919 0.253206
698 4 0.407834 0.0875516 0.329195
707 4 0.366541 0.123723 0.271568
633 4 0.368887 0.111076 0.263414
706 2 0.364406 0.122009 0.296421
708 4 0.362272 0.120295 0.321274
321 4 0.359328 0.134577 0.336695
545 4 0.11594 0.252626 0.24616
405 4 0.213961 0.183971 0.323857
419 4 0.408011 0.239669 0.322224
396 4 0.0102666 0.267558 0.250446
443 4 0.0103114 0.267431 0.270399
402 4 0.135534 0.254829 0.249904
400 2 0.150848 0.274593 0.249703
676 2 0.183364 0.307731 0.287011
677 4 0.174657 0.301927 0.264302
678 4 0.192072 0.313535 0.309719
375 4 0.179537 0.302361 0.320088
510 4 0.192069 0.332799 0.31479
378 4 0.28185 0.312989 0.289508
376 2 0.306376 0.316825 0.286523
377 4 0.330903 0.32066 0.283538
497 4 0.343142 0.314822 0.270439
543 4 0.346417 0.319514 0.290172
418 2 0.389535 0.25575 0.317201
541 2 0.360421 0.305133 0.305081
542 4 0.374424 0.290751 0.319989
420 4 0.371059 0.27183 0.312179
364 2 0.00664319 0.38879 0.289047
365 4 0.0215241 0.408581 0.285578
300 4 0.0835277 0.368732 0.259099
508 2 0.21001 0.349511 0.319689
509 4 0.227952 0.366223 0.324589
434 4 0.321289 0.39101 0.327652
433 2 0.304033 0.408657 0.323649
614 4 0.333952 0.37906 0.318189
615 4 0.339488 0.337186 0.291419
613 2 0.33672 0.358123 0.304804
601 2 0.0466624 0.408851 0.322551
603 4 0.0298214 0.410057 0.304109
1757 4 0.0115735 0.424228 0.276558
1756 2 0.0280506 0.442839 0.273854
1758 4 0.0445277 0.46145 0.27115
1775 4 0.0601705 0.47207 0.272256
775 2 0.0471219 0.483213 0.308779
777 4 0.0463255 0.476696 0.284653
1774 2 0.0833536 0.480314 0.267812
1776 4 0.106537 0.488559 0.263368
413 4 0.237441 0.488459 0.265481
4 3 0.239715 0.427639 0.294965
1436 4 0.227213 0.492919 0.28176
1435 2 0.235984 0.471736 0.291737
1437 4 0.244756 0.450554 0.301714
5 3 0.242667 0.417913 0.331219
2 3 0.272699 0.416473 0.309108
3 3 0.258691 0.44983 0.319294
1 1 0.253313 0.427946 0.313764
436 2 0.293797 0.462007 0.312633
438 4 0.277966 0.442822 0.315185
435 4 0.286778 0.426304 0.319646
437 4 0.309627 0.481192 0.310081
1802 4 0.325944 0.469001 0.3125
1801 2 0.35022 0.473986 0.315819
1803 4 0.374496 0.478971 0.319137
316 2 0.0766001 0.0410827 0.334721
399 4 0.0900713 0.075078 0.360742
318 4 0.0844244 0.0563221 0.352934
732 4 0.0989296 0.0590458 0.364891
730 2 0.123147 0.0643984 0.368062
731 4 0.147364 0.069751 0.371233
606 4 0.156553 0.0793063 0.355057
441 4 0.35011 0.00701088 0.396876
425 4 0.365853 0.00409219 0.407069
1701 4 0.368372 0.00631228 0.388536
699 4 0.376606 0.0566283 0.353054
1699 2 0.378335 0.0248666 0.375057
1700 4 0.388297 0.0434208 0.361579
697 2 0.39222 0.0720899 0.341124
962 4 0.353343 0.0164251 0.414292
397 2 0.073812 0.0935852 0.365019
398 4 0.0575527 0.112092 0.369297
2584 2 0.0211495 0.111723 0.362789
2586 4 0.0413877 0.123188 0.371961
458 4 0.0341866 0.136341 0.384649
457 2 0.0378081 0.156413 0.399111
604 2 0.179294 0.0896049 0.35645
605 4 0.202036 0.0999035 0.357843
248 4 0.217663 0.103746 0.370041
247 2 0.232428 0.114653 0.353065
683 4 0.258263 0.140882 0.335945
682 2 0.280214 0.151493 0.341489
684 4 0.302165 0.162104 0.347033
320 4 0.311344 0.14446 0.346726
717 4 0.371027 0.150802 0.334912
319 2 0.335336 0.139519 0.34171
726 4 0.407111 0.149446 0.386299
715 2 0.385906 0.156875 0.354067
716 4 0.400785 0.162948 0.373222
467 4 0.39535 0.164299 0.391629
724 2 0.405623 0.126988 0.397191
725 4 0.404136 0.104531 0.408082
641 4 0.486544 0.130647 0.355343
640 2 0.49549 0.123549 0.377586
459 4 0.0414296 0.176485 0.413574
260 4 0.041372 0.191253 0.425563
600 4 0.104763 0.192858 0.334655
598 2 0.115406 0.204575 0.35401
599 4 0.126049 0.216292 0.373365
686 4 0.121158 0.229267 0.385943
685 2 0.107334 0.231886 0.406613
275 4 0.137843 0.231508 0.38183
274 2 0.1602 0.221442 0.386729
473 4 0.21843 0.200116 0.335098
474 4 0.185818 0.208692 0.372025
472 2 0.202124 0.204404 0.353562
276 4 0.182557 0.211375 0.391628
466 2 0.399904 0.182425 0.408239
269 4 0.416613 0.236468 0.339016
268 2 0.439573 0.231623 0.34765
270 4 0.462533 0.226778 0.356285
452 4 0.480047 0.224208 0.365954
451 2 0.477998 0.217907 0.390063
453 4 0.475949 0.211605 0.414173
2802 4 0.00251821 0.299923 0.398957
347 4 0.0641922 0.314799 0.395257
346 2 0.0417691 0.304326 0.391691
618 4 0.0784424 0.322932 0.383259
348 4 0.0193461 0.293854 0.388126
389 4 0.130156 0.248759 0.376434
616 2 0.102701 0.317053 0.38472
373 2 0.162518 0.299742 0.338218
388 2 0.131613 0.273718 0.376108
390 4 0.13307 0.298677 0.375782
617 4 0.126959 0.311173 0.386182
374 4 0.1455 0.297124 0.356348
9 3 0.130559 0.322387 0.403676
488 4 0.372094 0.265318 0.388104
487 2 0.370094 0.25779 0.411863
2537 4 0.486172 0.308019 0.33668
602 4 0.0635033 0.407644 0.340992
549 4 0.0832818 0.409457 0.34482
10 3 0.144675 0.354621 0.41707
335 4 0.307311 0.38369 0.410387
240 4 0.326548 0.387971 0.40461
238 2 0.339396 0.395562 0.384548
239 4 0.352243 0.403153 0.364486
587 4 0.35356 0.422208 0.371694
752 4 0.454738 0.397992 0.39256
561 4 0.450358 0.378937 0.387321
751 2 0.466467 0.416822 0.381026
559 2 0.459853 0.369139 0.408274
776 4 0.0479183 0.48973 0.332905
500 4 0.0541742 0.492499 0.351921
499 2 0.061348 0.47332 0.36627
501 4 0.0685218 0.454142 0.38062
407 4 0.0844635 0.450512 0.392882
547 2 0.0894147 0.423074 0.364873
548 4 0.0955475 0.43669 0.384927
1555 2 0.233847 0.497749 0.407262
593 4 0.382171 0.474197 0.336713
588 4 0.372242 0.463595 0.350746
586 2 0.362901 0.442902 0.36122
592 2 0.400951 0.489065 0.343883
119 3 0.486421 0.465635 0.337707
2862 4 0.497483 0.479226 0.349835
116 1 0.491834 0.456172 0.358189
712 2 0.454412 0.491053 0.358456
714 4 0.473817 0.475425 0.356363
753 4 0.478196 0.435652 0.369492
117 3 0.473852 0.458345 0.37237
118 3 0.496575 0.433619 0.35549
718 2 0.0212257 0.0162356 0.457118
369 4 0.0623673 0.0165694 0.458411
719 4 0.0447763 0.0205314 0.4499
367 2 0.0861479 0.0172954 0.450721
1781 4 0.11133 0.0114709 0.4247
368 4 0.109928 0.0180215 0.443031
963 4 0.327818 0.0580141 0.425227
432 4 0.318541 0.073924 0.433861
430 2 0.321005 0.0707305 0.458537
431 4 0.323468 0.0675371 0.483214
961 2 0.34058 0.0372196 0.419759
843 4 0.339837 0.0764826 0.490162
576 4 0.403109 0.154668 0.489789
574 2 0.407648 0.169456 0.470145
3487 2 0.487511 0.11988 0.490489
2656 2 0.498022 0.131222 0.438638
3489 4 0.47537 0.137694 0.477821
2657 4 0.487292 0.138134 0.460139
259 2 0.0613306 0.205809 0.429433
261 4 0.0812891 0.220364 0.433302
687 4 0.0935109 0.234505 0.427283
1035 4 0.0938612 0.227554 0.446283
409 2 0.388581 0.220048 0.446287
411 4 0.374199 0.240308 0.449087
410 4 0.402963 0.199787 0.443487
468 4 0.404459 0.20055 0.424849
575 4 0.412187 0.184243 0.4505
515 4 0.467578 0.209923 0.431978
516 4 0.419178 0.199185 0.43852
514 2 0.443378 0.204554 0.435249
2847 4 0.00230716 0.314795 0.411415
1033 2 0.0917739 0.248076 0.460414
1034 4 0.0896867 0.268598 0.474545
696 4 0.0991636 0.281167 0.485972
1260 4 0.0985683 0.283761 0.466607
1258 2 0.105026 0.306336 0.458013
1259 4 0.111484 0.32891 0.449418
8 3 0.15742 0.321859 0.430557
266 4 0.358617 0.254359 0.450768
489 4 0.368094 0.250261 0.435623
265 2 0.366671 0.265873 0.47145
267 4 0.374724 0.277387 0.492132
2457 4 0.493904 0.261483 0.505044
934 2 0.998921 0.341596 0.492115
326 4 0.0722297 0.372401 0.426605
6 1 0.138917 0.333242 0.422403
503 4 0.125601 0.34257 0.452697
7 3 0.122651 0.333608 0.438664
327 4 0.11096 0.347942 0.446667
325 2 0.0915948 0.360171 0.436636
502 2 0.129796 0.352644 0.475194
334 2 0.302205 0.390022 0.43403
336 4 0.297098 0.396355 0.457673
668 4 0.296223 0.402563 0.475098
882 4 0.302614 0.387058 0.475341
880 2 0.32503 0.380359 0.484164
804 4 0.285423 0.393088 0.486635
881 4 0.347446 0.37366 0.492986
2508 4 0.484057 0.356578 0.440927
3308 4 0.467092 0.329706 0.493233
3309 4 0.467296 0.352598 0.448774
560 4 0.469349 0.35934 0.429226
3307 2 0.467194 0.341152 0.471003
680 4 0.0112718 0.444419 0.453221
1383 4 0.0028184 0.46129 0.452377
406 2 0.0974794 0.452114 0.41417
384 4 0.145252 0.441664 0.491969
383 4 0.121613 0.456237 0.450382
382 2 0.133433 0.44895 0.471175
569 4 0.127263 0.465823 0.435155
568 2 0.138367 0.48797 0.431778
408 4 0.110495 0.453717 0.435458
635 4 0.300119 0.470957 0.466121
634 2 0.281499 0.480224 0.452243
667 2 0.300726 0.426931 0.471768
772 2 0.337102 0.47938 0.464827
1557 4 0.253908 0.491079 0.420613
669 4 0.305229 0.4513 0.468438
636 4 0.262879 0.489492 0.438366
774 4 0.31747 0.465759 0.472194
663 4 0.464063 0.496828 0.472477
1152 4 0.24901 0.0703415 0.521006
342 4 0.233081 0.0575528 0.517362
2430 4 0.190441 0.00694561 0.498759
340 2 0.220215 0.037272 0.51041
341 4 0.207349 0.0169911 0.503458
1150 2 0.244817 0.073742 0.54542
1151 4 0.240625 0.0771426 0.569833
1217 4 0.394276 0.07582 0.527477
1216 2 0.415885 0.0798529 0.515562
841 2 0.361407 0.0802558 0.502231
1218 4 0.437493 0.0838858 0.503647
1058 4 0.0998007 0.0863805 0.51633
1270 2 0.0911799 0.14905 0.560136
1271 4 0.0973533 0.124958 0.562707
1057 2 0.103323 0.097024 0.538679
1059 4 0.106845 0.107667 0.561029
1155 4 0.114247 0.122428 0.571045
1153 2 0.139132 0.123647 0.573153
939 4 0.0987508 0.112041 0.577098
1221 4 0.166441 0.141744 0.583789
1154 4 0.164016 0.124866 0.57526
898 2 0.235275 0.157447 0.56459
1181 4 0.238554 0.0797845 0.58971
900 4 0.224492 0.145789 0.583902
842 4 0.382977 0.0840289 0.5143
3488 4 0.499651 0.102067 0.503156
1199 4 0.0323776 0.21209 0.548135
877 2 0.0623464 0.202654 0.545919
878 4 0.048995 0.223594 0.54882
1198 2 0.0113537 0.225601 0.547341
879 4 0.0756979 0.181714 0.543017
1244 4 0.046857 0.23899 0.561964
1272 4 0.0850065 0.173143 0.557565
651 4 0.218016 0.226068 0.531785
858 4 0.21187 0.241283 0.520427
649 2 0.223845 0.201874 0.534204
650 4 0.229673 0.17768 0.536624
899 4 0.246059 0.169105 0.545277
1243 2 0.045213 0.257522 0.578669
695 4 0.119056 0.269544 0.530356
694 2 0.10911 0.275355 0.508164
946 2 0.165735 0.285211 0.576186
856 2 0.195641 0.256912 0.531268
857 4 0.179412 0.27254 0.54211
947 4 0.184446 0.278699 0.560934
798 4 0.201729 0.279372 0.570118
796 2 0.22309 0.292201 0.572192
797 4 0.244451 0.305031 0.574266
790 2 0.260798 0.326831 0.553427
791 4 0.258618 0.302539 0.558932
872 4 0.361904 0.32171 0.573405
954 4 0.480224 0.301399 0.555004
952 2 0.477274 0.310384 0.578151
1011 4 0.483732 0.329845 0.504569
1009 2 0.486801 0.305159 0.50709
1010 4 0.48987 0.280473 0.509611
3263 4 0.0515545 0.33704 0.569664
3262 2 0.0543578 0.353896 0.587917
936 4 0.0100984 0.336272 0.513838
709 2 0.144591 0.40395 0.506813
710 4 0.141017 0.379216 0.506031
504 4 0.133991 0.362718 0.49769
1189 2 0.239049 0.377973 0.557003
1191 4 0.221438 0.387915 0.571707
1172 4 0.211066 0.397432 0.585636
803 4 0.26848 0.375962 0.530457
802 2 0.276952 0.384525 0.508546
1190 4 0.256659 0.368031 0.542299
1238 4 0.271091 0.369584 0.550524
1237 2 0.294379 0.372254 0.559227
792 4 0.262978 0.351124 0.547923
1239 4 0.317666 0.374925 0.56793
930 4 0.332894 0.370223 0.556771
929 4 0.354335 0.377493 0.512182
928 2 0.343614 0.373858 0.534477
711 4 0.148165 0.428684 0.507595
1128 4 0.00482971 0.0744834 0.588059
1082 4 0.0626754 0.0530914 0.659088
1081 2 0.0589796 0.0635597 0.636684
1126 2 0.029533 0.077199 0.590807
1083 4 0.0552837 0.0740281 0.61428
1127 4 0.0542362 0.0799145 0.593556
825 4 0.161954 0.0698726 0.663363
823 2 0.164728 0.0456176 0.668764
1032 4 0.240451 0.0627913 0.582203
2133 4 0.182193 0.0115967 0.667449
1030 2 0.257322 0.0488422 0.594284
1031 4 0.274194 0.0348931 0.606365
951 4 0.275901 0.0171643 0.616763
949 2 0.300837 0.0187103 0.617757
950 4 0.325773 0.0202563 0.618751
1226 4 0.255886 0.0808474 0.659757
1148 4 0.269739 0.0694734 0.651911
1147 2 0.262507 0.0463276 0.658007
809 4 0.484851 0.02497 0.615401
808 2 0.47743 0.0392076 0.634569
810 4 0.47001 0.0534452 0.653737
45 3 0.468434 0.0749129 0.650335
3425 4 0.480709 0.0868288 0.666716
3008 4 0.501524 0.0271017 0.604459
938 4 0.0681354 0.0841175 0.605093
937 2 0.0834431 0.0980793 0.591096
1283 4 0.153889 0.0852334 0.65211
1282 2 0.161369 0.105377 0.664895
1180 2 0.234503 0.104452 0.590258
1219 2 0.190292 0.140771 0.591231
1220 4 0.214143 0.139799 0.598673
1182 4 0.230452 0.129119 0.590807
1210 2 0.237347 0.144139 0.62711
1212 4 0.232222 0.143954 0.602638
908 4 0.228925 0.137807 0.663765
1211 4 0.242473 0.144324 0.651582
1227 4 0.247297 0.129942 0.663836
888 4 0.261721 0.139891 0.655415
1225 2 0.251591 0.105395 0.661797
886 2 0.2842 0.149491 0.66068
1192 2 0.327724 0.18883 0.655722
1193 4 0.331592 0.210311 0.643525
1245 4 0.043569 0.276054 0.595373
982 2 0.0202077 0.307125 0.597418
983 4 0.0405275 0.295367 0.606023
948 4 0.147023 0.291723 0.591438
1136 4 0.158201 0.306866 0.599678
1135 2 0.164351 0.327342 0.612641
871 2 0.374446 0.324967 0.594789
873 4 0.386988 0.328224 0.616173
813 4 0.394254 0.320368 0.632432
953 4 0.474323 0.319368 0.601297
906 4 0.480862 0.336735 0.609699
1041 4 0.0651353 0.386123 0.612765
3264 4 0.0571612 0.370752 0.606171
3240 4 0.0471921 0.38884 0.609653
3238 2 0.0225589 0.390814 0.613459
1039 2 0.089236 0.385655 0.619408
1040 4 0.113337 0.385188 0.62605
993 4 0.129819 0.39555 0.621202
991 2 0.14731 0.378447 0.626371
822 4 0.162834 0.347552 0.644684
992 4 0.164802 0.361344 0.631539
820 2 0.151726 0.338608 0.665222
1137 4 0.170502 0.347819 0.625605
1064 4 0.178646 0.356365 0.640176
897 4 0.182021 0.364299 0.622956
896 4 0.208705 0.377894 0.582908
895 2 0.195363 0.371096 0.602932
1063 2 0.197893 0.361391 0.655324
811 2 0.395157 0.343242 0.64249
927 4 0.401649 0.383157 0.658345
812 4 0.396061 0.366115 0.652548
925 2 0.412742 0.40208 0.646344
1206 4 0.382241 0.379833 0.656192
539 4 0.0658558 0.440299 0.604354
2244 4 0.11764 0.480669 0.586561
1160 4 0.11848 0.483074 0.605476
540 4 0.105119 0.470327 0.596776
538 2 0.0854876 0.455313 0.600565
1159 2 0.14159 0.475257 0.610953
1171 2 0.219421 0.419922 0.592676
1186 2 0.201096 0.46201 0.622713
1173 4 0.227776 0.442412 0.599716
1187 4 0.22343 0.453474 0.615398
1188 4 0.178762 0.470546 0.630028
1161 4 0.1647 0.467439 0.616429
1230 4 0.336877 0.436655 0.662241
926 4 0.423835 0.421004 0.634343
1002 4 0.440956 0.426695 0.625009
1911 4 0.455334 0.492282 0.616031
1001 4 0.458331 0.473518 0.622483
1000 2 0.449644 0.450107 0.623746
1269 4 0.471004 0.487186 0.626361
945 4 0.00548907 0.00771119 0.681184
944 4 0.0313307 0.0504297 0.678346
943 2 0.0184099 0.0290704 0.679765
1076 4 0.0525447 0.0517869 0.677363
1075 2 0.0626105 0.0603536 0.698587
864 4 0.069041 0.069236 0.740646
1077 4 0.0726763 0.0689203 0.719811
1107 4 0.0831877 0.0779317 0.732365
1105 2 0.102508 0.0796523 0.748143
2256 4 0.181776 0.0128877 0.686192
824 4 0.167503 0.0213625 0.674165
1149 4 0.255275 0.0231818 0.664102
1092 4 0.339405 0.0189424 0.690914
41 1 0.461281 0.0695635 0.671284
43 3 0.438501 0.0735692 0.673136
42 3 0.465246 0.0472411 0.675175
1163 4 0.474318 0.0600495 0.690722
1162 2 0.484851 0.0503282 0.711209
2321 4 0.493455 0.0308238 0.747695
44 3 0.472832 0.0820904 0.687034
1164 4 0.495384 0.0406069 0.731697
851 4 0.0771677 0.0887656 0.717965
850 2 0.072757 0.112645 0.712008
852 4 0.0683463 0.136524 0.70605
907 2 0.2062 0.136396 0.674098
1284 4 0.168848 0.125521 0.677681
909 4 0.183475 0.134984 0.684431
887 4 0.306678 0.159092 0.665946
830 4 0.319724 0.150097 0.677157
829 2 0.327064 0.145177 0.700547
1005 4 0.347208 0.125684 0.728422
1003 2 0.341784 0.106885 0.743989
831 4 0.334404 0.140256 0.723937
3268 2 0.501435 0.136459 0.733001
3270 4 0.500383 0.149033 0.711414
1146 4 0.485802 0.163133 0.71499
3269 4 0.502487 0.123886 0.754587
1214 4 0.0208122 0.187107 0.738948
1215 4 0.0131536 0.234092 0.723633
1213 2 0.0169829 0.2106 0.731291
1194 4 0.323856 0.167349 0.66792
1297 2 0.295605 0.211515 0.736383
1298 4 0.313354 0.228939 0.738942
1299 4 0.277856 0.19409 0.733825
977 4 0.325484 0.241403 0.729795
1025 4 0.38866 0.198763 0.705553
1024 2 0.410325 0.200499 0.717915
976 2 0.347582 0.250469 0.7224
1144 2 0.464746 0.175339 0.72072
1262 4 0.452042 0.203601 0.731081
1026 4 0.431989 0.202235 0.730277
1145 4 0.44369 0.187544 0.72645
1261 2 0.45646 0.228158 0.732706
1142 4 0.441499 0.196937 0.745213
1178 4 0.0245177 0.245309 0.734202
1073 4 0.0785792 0.255818 0.748351
1177 2 0.0464795 0.257193 0.735484
1179 4 0.0684413 0.269076 0.736767
3038 4 0.00865359 0.253263 0.725439
893 4 0.0241516 0.332761 0.723205
1072 2 0.100678 0.265271 0.741461
1208 4 0.13891 0.28288 0.726283
1074 4 0.122777 0.274724 0.734572
1207 2 0.133225 0.303201 0.71287
1209 4 0.127541 0.323523 0.699457
1130 4 0.141235 0.268886 0.738509
805 2 0.23578 0.333934 0.68913
806 4 0.250702 0.314145 0.692437
978 4 0.369679 0.259535 0.715005
1020 4 0.383805 0.262757 0.730591
3112 2 0.491407 0.271431 0.673392
3114 4 0.471048 0.28347 0.6815
1263 4 0.460878 0.252715 0.73433
892 2 0.0443905 0.347353 0.724826
1280 4 0.0828832 0.368249 0.731925
816 4 0.0791074 0.364893 0.713632
894 4 0.0646293 0.361946 0.726448
1279 2 0.0787129 0.388758 0.745605
821 4 0.140618 0.329664 0.685759
815 4 0.121229 0.338298 0.709257
942 4 0.1408 0.3367 0.703801
814 2 0.100168 0.351596 0.711445
940 2 0.155945 0.352678 0.715655
941 4 0.171089 0.368656 0.727509
1078 2 0.173588 0.406696 0.744776
1080 4 0.174475 0.387161 0.729195
1065 4 0.21714 0.366418 0.670471
807 4 0.220859 0.353723 0.685824
1028 4 0.224856 0.384463 0.674544
1066 2 0.204252 0.373123 0.708778
1068 4 0.219309 0.37246 0.688828
1027 2 0.232665 0.407814 0.670194
1067 4 0.189196 0.373787 0.728729
1204 2 0.366207 0.390371 0.672224
1205 4 0.350172 0.400909 0.688256
1029 4 0.240475 0.431165 0.665843
1174 2 0.181257 0.480552 0.734272
1175 4 0.164824 0.48235 0.715513
1140 4 0.241515 0.441047 0.683286
1228 2 0.32074 0.447221 0.67815
1138 2 0.264441 0.45087 0.685051
1139 4 0.287366 0.460693 0.686816
1987 2 0.324114 0.463974 0.733254
1229 4 0.304602 0.457788 0.694059
1989 4 0.312144 0.466118 0.711407
2028 4 0.298623 0.472622 0.700119
2026 2 0.292875 0.49594 0.693159
1099 2 0.48649 0.482325 0.699541
1100 4 0.489115 0.459506 0.709418
862 2 0.0483139 0.0713735 0.754466
2989 2 0.0125217 0.0516721 0.798948
2990 4 0.0171052 0.0722448 0.785497
2991 4 0.00793824 0.0310994 0.812399
863 4 0.0275869 0.0735111 0.768286
3083 4 0.00939962 0.0777917 0.768669
1106 4 0.121828 0.0813729 0.763921
1202 4 0.115233 0.0140256 0.802336
1201 2 0.125831 0.0363679 0.798636
1203 4 0.136428 0.0587101 0.794936
32 3 0.154571 0.0655012 0.804261
34 3 0.128734 0.0764318 0.779249
911 4 0.150082 0.0830743 0.818221
31 1 0.147444 0.0830832 0.791252
1085 4 0.297427 0.0600184 0.794424
960 4 0.297344 0.0621754 0.81374
819 4 0.291038 0.0453296 0.805426
817 2 0.308209 0.0283802 0.798866
818 4 0.325381 0.0114309 0.792305
974 4 0.338055 0.999204 0.803453
1050 4 0.341364 0.00371716 0.78545
2320 2 0.48636 0.0472863 0.765126
844 2 0.497658 0.0766122 0.818265
845 4 0.480113 0.0726638 0.800893
2322 4 0.479265 0.0637489 0.782556
1112 4 0.483308 0.0821912 0.784654
833 4 0.0227714 0.0885379 0.77899
832 2 0.0184134 0.105613 0.796728
834 4 0.0140554 0.122688 0.814465
1125 4 0.0320754 0.124693 0.823145
35 3 0.142197 0.100709 0.804685
33 3 0.164498 0.0890316 0.776685
1256 4 0.238895 0.140974 0.813292
1255 2 0.246484 0.125233 0.795409
840 4 0.225538 0.156403 0.814705
1084 2 0.280853 0.0765897 0.785714
1086 4 0.264278 0.093161 0.777003
1257 4 0.254073 0.109492 0.777526