ITEM: TIMESTEP
830000
ITEM: NUMBER OF ATOMS
4590
ITEM: BOX BOUNDS pp pp pp
-9.9985700000000008e+00 9.9985700000000008e+00
-9.9985700000000008e+00 9.9985700000000008e+00
-9.9985700000000008e+00 9.9985700000000008e+00
ITEM: ATOMS id type xs ys zs
1666 2 0.0775561 0.0637384 0.0852862
1668 4 0.0756601 0.0537906 0.0624252
1475 4 0.304261 0.0290797 0.0672041
492 4 0.291037 0.0376877 0.0798823
1474 2 0.302698 0.00500203 0.0606464
1607 4 0.399486 0.992601 0.0079161
747 4 0.447717 0.0528105 0.0200175
2974 2 0.475115 0.0225882 0.0291735
2976 4 0.487852 0.00583674 0.0426772
2975 4 0.462379 0.0393397 0.0156698
986 4 0.444563 0.0369759 0.0100041
745 2 0.440261 0.0761 0.0252306
566 4 0.177288 0.181138 0.0721673
567 4 0.202265 0.143645 0.050461
565 2 0.189776 0.162392 0.0613141
297 4 0.321583 0.0834732 0.0479086
358 2 0.342357 0.143885 0.0692027
360 4 0.337502 0.159914 0.050637
295 2 0.344926 0.0924299 0.047713
296 4 0.36827 0.101387 0.0475173
557 4 0.372159 0.111913 0.0321782
556 2 0.394558 0.10303 0.0255035
558 4 0.416957 0.0941473 0.0188288
769 2 0.408421 0.157268 0.0615543
770 4 0.388047 0.156634 0.0470734
746 4 0.432804 0.0993895 0.0304438
554 4 0.0831729 0.244934 0.0199498
664 2 0.35738 0.207693 0.0206282
665 4 0.353968 0.186054 0.0326816
666 4 0.360792 0.229332 0.00857478
771 4 0.428794 0.157902 0.0760352
323 4 0.414762 0.230203 0.0547553
553 2 0.0784867 0.26812 0.0280506
555 4 0.0738004 0.291306 0.0361514
656 4 0.00752692 0.303401 0.0613554
293 4 0.165564 0.289026 0.027779
507 4 0.166189 0.302077 0.0430941
287 4 0.150769 0.313994 0.0413398
292 2 0.156275 0.276261 0.00838938
505 2 0.180287 0.287072 0.0572815
483 4 0.211174 0.282947 0.0687836
506 4 0.194384 0.272067 0.0714688
481 2 0.233787 0.276252 0.0604761
573 4 0.25559 0.252578 0.0398273
482 4 0.2564 0.269556 0.0521686
572 4 0.295053 0.272765 0.0166794
571 2 0.275322 0.262672 0.0282533
357 4 0.298053 0.271733 0.996931
957 4 0.315624 0.321784 0.0100621
1069 2 0.393802 0.289852 0.00982863
1070 4 0.417552 0.282063 0.0104963
1071 4 0.370052 0.29764 0.00916099
322 2 0.412589 0.248659 0.0380273
324 4 0.410416 0.267115 0.0212992
671 4 0.438416 0.307188 0.0804986
280 2 0.433463 0.303074 0.0426363
281 4 0.435596 0.316985 0.0633031
282 4 0.431329 0.289163 0.0219695
551 4 0.0691848 0.390728 0.0779551
550 2 0.0937188 0.385913 0.0782327
552 4 0.118253 0.381098 0.0785102
288 4 0.170979 0.359488 0.046094
286 2 0.160874 0.336741 0.0437169
250 2 0.302023 0.402707 0.0427125
251 4 0.303627 0.381719 0.0292184
741 4 0.365965 0.328332 0.0593578
739 2 0.351003 0.342876 0.0731345
245 4 0.222927 0.438016 0.0658296
626 4 0.210456 0.453024 0.0713681
244 2 0.234713 0.446771 0.0455906
246 4 0.246499 0.455527 0.0253516
272 4 0.263031 0.46527 0.0181539
252 4 0.300418 0.423696 0.0562066
609 4 0.301832 0.435638 0.0713146
563 4 0.474848 0.478046 0.0477321
228 4 0.466923 0.459874 0.0438647
226 2 0.467741 0.446088 0.0647085
562 2 0.45562 0.492461 0.0408283
19 3 0.0422808 0.0647923 0.1498
1667 4 0.0794522 0.0736861 0.108147
18 3 0.0638671 0.0418128 0.171023
16 1 0.0493739 0.0599303 0.171352
20 3 0.0597971 0.0780564 0.180377
1539 4 0.161147 0.998809 0.140314
448 2 0.187 0.0755232 0.16013
450 4 0.190541 0.0526345 0.16955
490 2 0.281748 0.0495428 0.0998412
652 2 0.288446 0.0271104 0.15831
653 4 0.304848 0.0451091 0.152636
491 4 0.27246 0.0613979 0.1198
654 4 0.272043 0.00911163 0.163984
311 4 0.383532 0.065343 0.16098
2722 2 0.477767 0.052944 0.129267
2723 4 0.469003 0.0636029 0.108417
2724 4 0.486531 0.0422851 0.150118
1760 4 0.501618 0.0280119 0.144172
2744 4 0.500676 0.0364554 0.160775
701 4 0.0826683 0.0843555 0.125247
700 2 0.0850644 0.107958 0.133143
702 4 0.0874604 0.131561 0.141039
380 4 0.014538 0.113782 0.159535
476 4 0.0937255 0.148201 0.149386
475 2 0.111363 0.159104 0.163359
449 4 0.183459 0.0984118 0.150709
237 4 0.207643 0.162109 0.165649
235 2 0.198042 0.139747 0.159909
236 4 0.188441 0.117385 0.154168
582 4 0.249906 0.112598 0.167814
359 4 0.347212 0.127856 0.0877684
581 4 0.291782 0.137493 0.156526
580 2 0.270844 0.125045 0.16217
310 2 0.397886 0.0852044 0.156014
628 2 0.409084 0.135552 0.123029
630 4 0.397561 0.15093 0.107032
629 4 0.420607 0.120173 0.139026
312 4 0.41224 0.105066 0.151048
339 4 0.0633065 0.270905 0.136372
2625 4 0.0220234 0.185842 0.126406
337 2 0.0719731 0.256763 0.155082
477 4 0.129001 0.170006 0.177331
737 4 0.204766 0.163008 0.117238
736 2 0.188038 0.181456 0.119481
738 4 0.17131 0.199904 0.121724
461 4 0.302819 0.24071 0.0890472
460 2 0.321442 0.224187 0.0867291
354 4 0.285689 0.23999 0.101562
278 4 0.272867 0.23585 0.165948
352 2 0.282111 0.235956 0.125977
353 4 0.278532 0.231922 0.150393
277 2 0.25444 0.220806 0.17365
254 4 0.39025 0.169211 0.111208
462 4 0.340064 0.207664 0.0844111
255 4 0.352466 0.197362 0.094457
253 2 0.371358 0.183287 0.102832
765 4 0.37847 0.236098 0.144928
763 2 0.362336 0.233203 0.163809
518 4 0.478813 0.243696 0.113159
528 4 0.472612 0.234958 0.131174
536 4 0.206641 0.308058 0.124072
535 2 0.201673 0.332124 0.119456
612 4 0.247069 0.312824 0.162265
756 4 0.25917 0.297171 0.165299
754 2 0.265161 0.273709 0.159067
755 4 0.271152 0.250248 0.152835
624 4 0.390902 0.238387 0.1296
622 2 0.385577 0.257301 0.114139
623 4 0.380251 0.276215 0.0986767
672 4 0.414237 0.345622 0.101448
670 2 0.426326 0.326405 0.0909735
526 2 0.464543 0.25069 0.148853
527 4 0.456473 0.266422 0.166533
455 4 0.131814 0.389403 0.0908255
454 2 0.156334 0.393085 0.094054
456 4 0.180853 0.396767 0.0972825
537 4 0.196705 0.35619 0.11484
302 4 0.305114 0.359979 0.160386
387 4 0.317186 0.348944 0.146759
385 2 0.329716 0.355278 0.126069
740 4 0.336041 0.357419 0.0869112
15 3 0.361412 0.358161 0.11015
386 4 0.342246 0.361612 0.105379
11 1 0.383798 0.359355 0.11416
13 3 0.387769 0.359142 0.13702
14 3 0.392498 0.378718 0.104789
495 4 0.411208 0.386589 0.10007
12 3 0.394181 0.34117 0.104639
493 2 0.415138 0.409866 0.108312
625 2 0.191587 0.44991 0.0874749
627 4 0.172718 0.446797 0.103582
637 2 0.234724 0.50698 0.155826
607 2 0.32324 0.435938 0.084229
608 4 0.344648 0.436239 0.0971434
658 2 0.366738 0.449758 0.115142
659 4 0.34905 0.456096 0.0986444
660 4 0.384425 0.44342 0.131639
525 4 0.346759 0.488962 0.0813409
494 4 0.419067 0.433143 0.116555
227 4 0.46856 0.432303 0.0855523
17 3 0.0310488 0.0545621 0.184178
2480 4 0.0246073 0.0367698 0.191231
1422 4 0.0215806 0.0218522 0.178916
673 2 0.117692 0.0200877 0.235411
674 4 0.134625 0.0261931 0.218057
693 4 0.221778 0.0679152 0.20454
691 2 0.22725 0.068773 0.228923
689 4 0.177186 0.0125274 0.230701
24 3 0.321558 0.0592714 0.241373
21 1 0.342951 0.0542755 0.233904
25 3 0.341865 0.039936 0.216245
759 4 0.351882 0.0594191 0.208851
22 3 0.353234 0.0737417 0.227236
757 2 0.357258 0.0625917 0.184639
758 4 0.362634 0.0657643 0.160427
742 2 0.495116 0.0672377 0.236446
578 4 0.0660603 0.101166 0.214673
379 2 0.0186063 0.132091 0.17607
381 4 0.0226747 0.1504 0.192605
512 4 0.0339668 0.152113 0.210067
511 2 0.04754 0.161148 0.229022
513 4 0.0611133 0.170183 0.247978
577 2 0.0902052 0.0982893 0.220498
579 4 0.11435 0.0954131 0.226323
632 4 0.374691 0.110305 0.256098
743 4 0.487621 0.0651476 0.260209
333 4 0.462169 0.121021 0.237203
331 2 0.466034 0.145633 0.239327
338 4 0.0806396 0.242621 0.173793
363 4 0.0744755 0.238352 0.191711
361 2 0.084997 0.251287 0.210343
279 4 0.236014 0.205762 0.181352
546 4 0.175315 0.185884 0.239109
284 4 0.288507 0.224577 0.166479
283 2 0.309099 0.228888 0.17999
285 4 0.329691 0.2332 0.193502
27 3 0.311328 0.181115 0.254802
764 4 0.346202 0.230307 0.18269
520 2 0.496006 0.184896 0.211521
521 4 0.476898 0.183256 0.227564
332 4 0.469898 0.170244 0.241452
394 2 0.0166551 0.256605 0.229977
395 4 0.0364403 0.265129 0.217286
750 4 0.085348 0.314123 0.264174
748 2 0.0829736 0.292515 0.25182
371 4 0.153954 0.297918 0.224133
370 2 0.134448 0.282324 0.225364
372 4 0.114942 0.26673 0.226596
362 4 0.0955185 0.264223 0.228974
749 4 0.0805993 0.270907 0.239465
343 2 0.238692 0.309564 0.247669
344 4 0.250469 0.30909 0.225617
610 2 0.249835 0.317979 0.186574
307 2 0.331657 0.287516 0.24283
308 4 0.33712 0.272976 0.223236
648 4 0.071826 0.36373 0.160844
647 4 0.0837577 0.360092 0.209271
646 2 0.0777918 0.361911 0.185057
299 4 0.14362 0.341174 0.250838
415 2 0.210436 0.400887 0.170893
291 4 0.248786 0.386038 0.183392
416 4 0.229994 0.386043 0.175613
417 4 0.190877 0.415732 0.166173
289 2 0.26393 0.404435 0.190969
611 4 0.252602 0.323134 0.210883
303 4 0.298314 0.36353 0.209801
301 2 0.301714 0.361755 0.185093
729 4 0.303431 0.380391 0.219958
727 2 0.311983 0.373964 0.242558
447 4 0.415392 0.385378 0.256878
644 4 0.430199 0.383687 0.24437
595 2 0.464644 0.406244 0.177856
597 4 0.457026 0.384225 0.18693
643 2 0.434601 0.3828 0.219773
645 4 0.439004 0.381913 0.195176
1757 4 0.0749234 0.478294 0.252103
264 4 0.019855 0.435238 0.258427
262 2 0.00691916 0.43148 0.237362
1466 4 0.0602627 0.507941 0.172262
767 4 0.271649 0.487025 0.172533
638 4 0.256858 0.497928 0.163129
290 4 0.279073 0.422832 0.198546
768 4 0.271161 0.440436 0.190697
766 2 0.271405 0.463731 0.181615
596 4 0.472261 0.428263 0.168783
231 4 0.425788 0.472189 0.216418
232 2 0.0138169 0.0268506 0.297368
233 4 0.0339249 0.0212863 0.283589
1402 2 0.0739266 0.0226002 0.271259
1404 4 0.0494157 0.0274845 0.270526
675 4 0.100759 0.0139823 0.252765
1403 4 0.0984375 0.0177159 0.271991
1464 4 0.0947204 0.00311561 0.286492
692 4 0.232721 0.0696308 0.253305
723 4 0.224545 0.0709729 0.272236
1700 4 0.287473 0.0462506 0.349566
23 3 0.355317 0.0447617 0.251078
697 2 0.365691 0.0627793 0.340589
478 2 0.479421 0.0644543 0.291321
480 4 0.460577 0.0797 0.297457
393 4 0.0615103 0.161535 0.266314
398 4 0.0595348 0.142927 0.29857
397 2 0.0647489 0.122978 0.312713
721 2 0.225929 0.0829172 0.294158
722 4 0.227313 0.0948616 0.316081
249 4 0.235388 0.109666 0.328098
404 4 0.239504 0.128253 0.326982
28 3 0.298021 0.14665 0.247892
403 2 0.260079 0.142149 0.324025
405 4 0.280655 0.156044 0.321068
26 1 0.303071 0.161987 0.264555
29 3 0.319207 0.153238 0.278749
699 4 0.355735 0.0788664 0.324241
707 4 0.335801 0.148802 0.288801
633 4 0.351495 0.149675 0.27641
631 2 0.363093 0.12999 0.266254
706 2 0.345464 0.156459 0.310554
350 4 0.400318 0.0930536 0.294125
351 4 0.448524 0.0914942 0.307335
349 2 0.424421 0.0922739 0.30073
444 4 0.00363217 0.22499 0.307444
391 2 0.0782617 0.175543 0.278493
442 2 0.000126482 0.232005 0.283702
443 4 0.996621 0.239021 0.259961
389 4 0.0746431 0.230878 0.335129
392 4 0.095013 0.189551 0.290673
388 2 0.0930647 0.240797 0.321438
545 4 0.174811 0.211594 0.281998
544 2 0.175063 0.198739 0.260554
30 3 0.284281 0.167099 0.276365
708 4 0.355127 0.164116 0.332307
717 4 0.368238 0.223445 0.331445
762 4 0.481515 0.178861 0.257035
761 4 0.471545 0.182009 0.305937
760 2 0.47653 0.180435 0.281486
390 4 0.111486 0.250715 0.307747
345 4 0.226916 0.310038 0.26972
401 4 0.182133 0.251221 0.322837
400 2 0.19772 0.250587 0.303297
402 4 0.213307 0.249953 0.283756
496 2 0.31141 0.323664 0.284536
497 4 0.294964 0.325966 0.303228
377 4 0.287075 0.325798 0.3216
498 4 0.327856 0.321363 0.265843
309 4 0.326194 0.302056 0.262424
615 4 0.372013 0.329267 0.312844
541 2 0.382895 0.298908 0.328547
543 4 0.364299 0.315199 0.324809
542 4 0.401491 0.282617 0.332286
364 2 0.00563513 0.372944 0.292934
365 4 0.0251765 0.386229 0.284759
601 2 0.0599741 0.405594 0.293416
603 4 0.0387658 0.39913 0.281857
602 4 0.0811824 0.412058 0.304974
549 4 0.0857978 0.417724 0.325389
300 4 0.0970754 0.322892 0.250581
298 2 0.120348 0.332033 0.250709
676 2 0.206192 0.332196 0.32019
677 4 0.213506 0.338801 0.29721
734 4 0.160628 0.35201 0.256754
733 2 0.182173 0.347767 0.268713
735 4 0.203717 0.343524 0.280673
728 4 0.320535 0.367537 0.265158
433 2 0.31128 0.377849 0.329547
435 4 0.286385 0.376574 0.331502
434 4 0.336174 0.379124 0.327593
613 2 0.36402 0.351317 0.321508
614 4 0.356027 0.373367 0.330173
445 2 0.405015 0.365561 0.268048
446 4 0.394637 0.345745 0.279219
2463 4 0.0149721 0.47633 0.313305
2690 4 0.00579937 0.474695 0.295179
777 4 0.0879905 0.465416 0.305859
775 2 0.103353 0.47596 0.322532
412 2 0.209565 0.486523 0.325154
436 2 0.325034 0.465871 0.325486
1803 4 0.348291 0.493523 0.264033
437 4 0.334696 0.452451 0.306732
714 4 0.470251 0.465581 0.332385
427 2 0.07352 0.00506405 0.338221
428 4 0.0583763 0.0242608 0.332993
316 2 0.0598742 0.0616437 0.340916
317 4 0.051148 0.0386385 0.345365
1781 4 0.114518 0.999937 0.39102
368 4 0.108108 0.0177084 0.397887
605 4 0.178008 0.0979173 0.367945
1699 2 0.283998 0.0217194 0.346201
683 4 0.291854 0.0712811 0.388537
698 4 0.375648 0.0466921 0.356937
257 4 0.391914 0.0354527 0.354756
256 2 0.414936 0.0339401 0.345118
258 4 0.437958 0.0324275 0.335481
1428 4 0.443774 0.0141399 0.333291
2879 4 0.483608 0.0826205 0.415032
2584 2 0.995249 0.126169 0.372512
732 4 0.0734239 0.100808 0.345493
399 4 0.069963 0.103029 0.326856
2586 4 0.0153512 0.13452 0.384814
318 4 0.0686005 0.0846488 0.336467
457 2 0.0287347 0.155914 0.413769
458 4 0.0100367 0.146645 0.399998
606 4 0.132124 0.102885 0.348692
604 2 0.155066 0.100401 0.358319
731 4 0.119304 0.0974869 0.365106
730 2 0.096364 0.0991477 0.3553
598 2 0.148072 0.154867 0.368888
600 4 0.159732 0.147603 0.389779
599 4 0.136412 0.162131 0.347996
248 4 0.195722 0.10667 0.358402
247 2 0.215555 0.108168 0.34325
473 4 0.221923 0.161011 0.362907
682 2 0.29366 0.0934446 0.399969
684 4 0.295466 0.115608 0.411402
452 4 0.458887 0.134963 0.394212
451 2 0.440678 0.14691 0.406497
686 4 0.159901 0.18115 0.419339
474 4 0.209066 0.208428 0.372235
276 4 0.208331 0.227634 0.37578
472 2 0.215494 0.18472 0.367571
274 2 0.184035 0.230317 0.370519
715 2 0.389636 0.217351 0.342855
716 4 0.411033 0.211257 0.354265
467 4 0.412783 0.206264 0.3738
466 2 0.403182 0.203795 0.396755
269 4 0.500209 0.223291 0.394961
268 2 0.476893 0.231937 0.392356
270 4 0.453576 0.240582 0.38975
347 4 0.0744439 0.307028 0.365568
346 2 0.05027 0.306262 0.37191
618 4 0.0934467 0.312934 0.357937
348 4 0.0260962 0.305497 0.378251
616 2 0.116195 0.303859 0.352901
617 4 0.138942 0.294784 0.347866
678 4 0.198879 0.325591 0.343169
275 4 0.159739 0.233 0.365258
375 4 0.183028 0.319603 0.35405
373 2 0.183018 0.312741 0.378093
374 4 0.183007 0.30588 0.402137
376 2 0.280301 0.305525 0.334572
378 4 0.273527 0.285251 0.347544
420 4 0.408121 0.272774 0.349625
418 2 0.432039 0.27153 0.342445
419 4 0.455957 0.270286 0.335264
510 4 0.208613 0.373659 0.372581
508 2 0.232755 0.36803 0.369322
509 4 0.256898 0.3624 0.366063
561 4 0.458951 0.405105 0.409324
751 2 0.453171 0.404694 0.368539
753 4 0.457558 0.409821 0.344463
559 2 0.479772 0.392873 0.415805
547 2 0.0734221 0.416429 0.347077
548 4 0.0610463 0.415134 0.368764
407 4 0.0724774 0.429316 0.375021
406 2 0.0801833 0.436904 0.397565
1545 4 0.161726 0.498043 0.408256
500 4 0.106693 0.481914 0.354248
570 4 0.145969 0.490002 0.415812
776 4 0.118715 0.486505 0.339205
1555 2 0.240053 0.495588 0.402139
1556 4 0.226016 0.505273 0.383854
414 4 0.197403 0.466128 0.332983
438 4 0.315372 0.47929 0.344241
3 3 0.296733 0.470123 0.354256
1 1 0.304861 0.487043 0.367896
4 3 0.312057 0.478168 0.388091
1557 4 0.25409 0.485903 0.420425
2 3 0.322694 0.497117 0.357425
1742 4 0.413742 0.487225 0.347528
594 4 0.415317 0.466589 0.352944
592 2 0.406052 0.466836 0.376166
593 4 0.396786 0.467083 0.399388
118 3 0.484411 0.42691 0.349198
712 2 0.445563 0.462033 0.334145
752 4 0.448784 0.399568 0.392615
713 4 0.420875 0.458485 0.335904
119 3 0.480692 0.464733 0.34904
116 1 0.492813 0.446866 0.357539
117 3 0.490833 0.446767 0.380457
718 2 0.0558545 0.0340492 0.47137
720 4 0.0354031 0.030862 0.485397
2237 4 0.0239718 0.0144293 0.489641
719 4 0.0763059 0.0372364 0.457343
369 4 0.0913972 0.0325014 0.442638
367 2 0.0997527 0.0251049 0.420263
340 2 0.220986 0.0497395 0.498244
341 4 0.221066 0.0247537 0.497305
2430 4 0.217958 0.00736122 0.490416
342 4 0.220906 0.0747253 0.499183
441 4 0.320594 0.0277605 0.419073
962 4 0.310939 0.0303102 0.436821
961 2 0.308719 0.0333207 0.461543
963 4 0.306498 0.0363311 0.486266
432 4 0.303144 0.0493329 0.500578
426 4 0.381506 0.0380668 0.415752
424 2 0.359395 0.0265442 0.417632
425 4 0.337284 0.0150216 0.419511
725 4 0.398421 0.0568313 0.430891
724 2 0.405854 0.0730625 0.448398
459 4 0.0474326 0.165183 0.427541
1152 4 0.220448 0.0917975 0.509994
1181 4 0.266234 0.116538 0.480347
320 4 0.308768 0.119853 0.425898
321 4 0.289658 0.16602 0.423868
319 2 0.299213 0.142937 0.424883
726 4 0.413286 0.0892937 0.465905
514 2 0.397583 0.166592 0.447958
516 4 0.383781 0.161231 0.468107
453 4 0.42247 0.158856 0.418781
2878 2 0.476039 0.0913662 0.4372
2880 4 0.46847 0.100112 0.459368
640 2 0.477077 0.130292 0.480106
515 4 0.411385 0.171952 0.42781
642 4 0.483601 0.114231 0.462089
260 4 0.0483212 0.183967 0.435428
259 2 0.0727977 0.183902 0.440534
685 2 0.137812 0.182032 0.431022
687 4 0.115723 0.182913 0.442704
261 4 0.0972742 0.183837 0.445641
1035 4 0.112528 0.19189 0.458404
1033 2 0.113517 0.203038 0.480763
489 4 0.323744 0.230997 0.433704
468 4 0.393582 0.201326 0.419709
411 4 0.335716 0.217897 0.441902
409 2 0.358696 0.208617 0.438588
410 4 0.381677 0.199337 0.435275
575 4 0.38946 0.173592 0.483241
305 4 0.502619 0.184452 0.43992
695 4 0.0617607 0.244725 0.460269
694 2 0.0832631 0.257293 0.462476
696 4 0.104765 0.269861 0.464682
1258 2 0.125506 0.29192 0.494078
1260 4 0.118285 0.273396 0.478915
9 3 0.147984 0.323648 0.504467
651 4 0.24677 0.287142 0.47744
487 2 0.31143 0.251937 0.439625
488 4 0.299116 0.272877 0.445547
266 4 0.363341 0.272011 0.436633
267 4 0.375615 0.280591 0.484345
265 2 0.369478 0.276301 0.460489
583 2 0.469368 0.25865 0.476744
585 4 0.445282 0.258673 0.470032
584 4 0.493454 0.258627 0.483456
681 4 0.00665368 0.410123 0.417753
326 4 0.069547 0.354818 0.473005
6 1 0.149083 0.343602 0.492676
327 4 0.118549 0.346375 0.47832
325 2 0.094048 0.350596 0.475662
7 3 0.128619 0.354047 0.493811
711 4 0.158671 0.368742 0.438862
502 2 0.241839 0.380411 0.433317
10 3 0.154198 0.339473 0.470872
504 4 0.218004 0.387865 0.434531
709 2 0.179616 0.382244 0.436815
710 4 0.20056 0.395746 0.434769
772 2 0.272995 0.415083 0.491579
669 4 0.283439 0.414532 0.453621
503 4 0.265675 0.372957 0.432103
336 4 0.322915 0.374963 0.425807
668 4 0.305187 0.381861 0.422632
667 2 0.294313 0.398197 0.438127
587 4 0.410978 0.415528 0.431961
882 4 0.342406 0.391169 0.477234
335 4 0.368556 0.354529 0.426083
334 2 0.345736 0.364746 0.425945
238 2 0.401727 0.381478 0.439493
240 4 0.386838 0.362443 0.433077
239 4 0.416616 0.400513 0.445908
560 4 0.500594 0.38064 0.422285
3307 2 0.486745 0.386101 0.488826
3309 4 0.467054 0.398678 0.497728
679 2 0.0209579 0.429208 0.425258
680 4 0.0352621 0.448294 0.432762
1383 4 0.0227016 0.46278 0.438077
1381 2 0.0256181 0.486748 0.444572
384 4 0.0849911 0.42121 0.477763
408 4 0.0878891 0.444492 0.420108
568 2 0.126644 0.476411 0.423999
382 2 0.0890002 0.436245 0.458192
383 4 0.0930093 0.451281 0.43862
569 4 0.107319 0.462821 0.432186
880 2 0.336484 0.407167 0.495514
636 4 0.266029 0.476238 0.43346
774 4 0.278244 0.424772 0.469135
635 4 0.287088 0.441912 0.463107
634 2 0.276558 0.459075 0.448284
588 4 0.387956 0.455234 0.412109
586 2 0.399467 0.435381 0.422035
661 2 0.452114 0.481307 0.464931
663 4 0.439883 0.45959 0.462948
430 2 0.310452 0.0586477 0.522601
431 4 0.317759 0.0679625 0.544624
1031 4 0.274651 0.0606477 0.580199
843 4 0.334096 0.0787028 0.537435
841 2 0.358924 0.0757532 0.537574
842 4 0.383753 0.0728035 0.537713
1217 4 0.385385 0.055673 0.524626
1216 2 0.409854 0.0531277 0.529095
1218 4 0.434323 0.0505824 0.533564
3007 2 0.489827 0.0514505 0.572205
3008 4 0.468606 0.0602058 0.582115
1128 4 0.0146693 0.103147 0.573544
470 4 0.0319154 0.159887 0.529545
938 4 0.0670043 0.158699 0.559304
937 2 0.0908675 0.155909 0.566228
1059 4 0.130786 0.119135 0.57474
939 4 0.114731 0.15312 0.573153
1057 2 0.114532 0.100228 0.576614
1155 4 0.12661 0.13732 0.578614
1151 4 0.194131 0.130408 0.52781
1150 2 0.20729 0.111103 0.518902
1032 4 0.249022 0.102459 0.589982
1030 2 0.261836 0.0815533 0.58509
1182 4 0.272531 0.137345 0.525381
1180 2 0.269382 0.126942 0.502864
641 4 0.470552 0.146353 0.498124
469 2 0.0241175 0.183631 0.530304
878 4 0.0332824 0.226913 0.578812
471 4 0.0163196 0.207376 0.531063
1244 4 0.0394012 0.245769 0.581973
1199 4 0.0162621 0.223658 0.570507
877 2 0.053755 0.212559 0.578869
1034 4 0.114507 0.214187 0.503121
1271 4 0.136472 0.213308 0.589852
858 4 0.186469 0.233687 0.533193
856 2 0.198265 0.254118 0.52491
900 4 0.275595 0.157042 0.529559
898 2 0.288486 0.176946 0.537483
899 4 0.301378 0.196851 0.545407
650 4 0.252848 0.252433 0.512923
576 4 0.390179 0.195896 0.527992
574 2 0.389819 0.184744 0.505617
983 4 0.0153953 0.312711 0.543622
1245 4 0.0569382 0.286435 0.558747
1243 2 0.0481697 0.266102 0.57036
982 2 0.0160553 0.336787 0.550335
1259 4 0.132728 0.310444 0.50924
857 4 0.21006 0.274549 0.516626
798 4 0.19909 0.256097 0.582139
947 4 0.180538 0.26122 0.585328
649 2 0.249809 0.269788 0.495182
872 4 0.36088 0.284836 0.557069
871 2 0.365706 0.309203 0.554222
873 4 0.370533 0.333571 0.551375
906 4 0.460768 0.271756 0.57094
953 4 0.445196 0.281802 0.577145
904 2 0.48535 0.267589 0.569067
984 4 0.0167152 0.360863 0.557049
3354 4 0.0226587 0.373505 0.571144
1189 2 0.216519 0.372577 0.583427
1190 4 0.231072 0.362911 0.565539
8 3 0.165122 0.357486 0.502078
803 4 0.239655 0.357794 0.548274
802 2 0.26012 0.363011 0.534889
804 4 0.280584 0.368228 0.521504
929 4 0.333964 0.394203 0.556683
773 4 0.267745 0.405394 0.514023
813 4 0.37307 0.33871 0.531708
928 2 0.340532 0.374229 0.570214
811 2 0.382691 0.361614 0.534533
812 4 0.392313 0.384519 0.537357
927 4 0.406265 0.389041 0.5491
926 4 0.452646 0.384864 0.567322
925 2 0.429455 0.386952 0.558211
539 4 0.076999 0.463362 0.50599
538 2 0.0969292 0.475759 0.514608
540 4 0.11686 0.488156 0.523226
1188 4 0.187395 0.488205 0.589295
881 4 0.330562 0.423165 0.513795
1002 4 0.416829 0.43391 0.557119
1000 2 0.433429 0.452351 0.554027
1001 4 0.450029 0.470792 0.550936
945 4 0.0214267 0.0461369 0.665015
1083 4 0.065964 0.102529 0.616558
2115 4 0.993574 0.0128466 0.614373
823 2 0.128274 0.0211225 0.625866
825 4 0.110013 0.0337231 0.614336
1058 4 0.098278 0.0813212 0.578487
824 4 0.146535 0.00852186 0.637397
951 4 0.276639 0.0407858 0.582364
949 2 0.298502 0.040331 0.594488
950 4 0.320365 0.0398762 0.606612
2283 4 0.409718 0.00158251 0.601642
809 4 0.467841 0.0642335 0.601069
808 2 0.462115 0.073572 0.623545
42 3 0.447859 0.0705365 0.662271
1126 2 0.0362973 0.102176 0.586052
1081 2 0.0638055 0.0948709 0.640262
1127 4 0.0579254 0.101204 0.598561
1082 4 0.0616471 0.0872123 0.663966
1153 2 0.142599 0.150451 0.592653
1154 4 0.158589 0.163582 0.606692
1221 4 0.172561 0.172561 0.617894
810 4 0.456388 0.0829105 0.646021
45 3 0.457643 0.104573 0.650493
41 1 0.449229 0.0927594 0.668052
879 4 0.0742277 0.198204 0.578925
1272 4 0.0865473 0.210484 0.589312
1270 2 0.11151 0.211896 0.589582
1212 4 0.224699 0.210467 0.628088
1219 2 0.194035 0.185333 0.61693
1220 4 0.215508 0.198106 0.615967
1210 2 0.237962 0.203456 0.648091
1211 4 0.251225 0.196445 0.668094
1194 4 0.316853 0.168662 0.655159
1193 4 0.364963 0.182197 0.653419
1192 2 0.340908 0.175429 0.654289
3159 4 0.489858 0.178097 0.584131
1136 4 0.122051 0.298063 0.588752
948 4 0.136098 0.284139 0.584607
946 2 0.158318 0.272679 0.584968
1135 2 0.128093 0.322191 0.591304
796 2 0.220397 0.265613 0.591117
797 4 0.241705 0.27513 0.600096
791 4 0.258172 0.267911 0.608471
792 4 0.298252 0.292501 0.591452
790 2 0.278212 0.280206 0.599961
1238 4 0.314763 0.299677 0.59762
1237 2 0.32725 0.321338 0.597442
954 4 0.402993 0.299438 0.597359
806 4 0.353892 0.313994 0.675085
952 2 0.424094 0.29062 0.587252
3123 4 0.492817 0.257719 0.648176
1039 2 0.0710774 0.404115 0.63033
1041 4 0.0473758 0.411869 0.632144
3264 4 0.0295508 0.40386 0.630975
3262 2 0.0205253 0.383304 0.641981
3263 4 0.0114997 0.362747 0.652988
1040 4 0.0947789 0.396361 0.628517
993 4 0.0900539 0.375354 0.625716
1137 4 0.134135 0.346319 0.593855
897 4 0.138731 0.360055 0.581192
991 2 0.109988 0.370347 0.611477
992 4 0.129921 0.36534 0.597238
895 2 0.160623 0.368108 0.590195
1172 4 0.20602 0.40163 0.60526
1191 4 0.201967 0.382243 0.601315
896 4 0.182515 0.376161 0.599197
1029 4 0.225362 0.399024 0.659211
1239 4 0.339737 0.343 0.597265
930 4 0.347101 0.354255 0.583745
1204 2 0.407404 0.413769 0.660944
1206 4 0.425724 0.396782 0.659944
3240 4 0.0131425 0.412857 0.625417
4250 4 0.987516 0.493295 0.601631
1160 4 0.117892 0.479217 0.582165
1159 2 0.14269 0.481472 0.58443
1161 4 0.167488 0.483727 0.586695
1171 2 0.211688 0.42228 0.618168
1173 4 0.217356 0.442931 0.631076
1187 4 0.208703 0.460929 0.625388
1186 2 0.198049 0.474567 0.607341
1952 4 0.334957 0.476978 0.583276
889 2 0.305344 0.475552 0.61668
891 4 0.287883 0.478104 0.634394
890 4 0.322805 0.473 0.598967
1205 4 0.389084 0.430756 0.661945
1951 2 0.35503 0.491611 0.586129
1230 4 0.35281 0.44869 0.639258
1268 4 0.463456 0.485247 0.666825
1269 4 0.427054 0.467296 0.637614
1267 2 0.445255 0.476271 0.65222
943 2 0.0418943 0.0556656 0.67576
944 4 0.062362 0.0651942 0.686505
1076 4 0.0627443 0.0847052 0.682975
1147 2 0.216552 0.0656705 0.737378
1149 4 0.211992 0.0421485 0.744527
1148 4 0.221113 0.0891925 0.73023
1004 4 0.388568 0.0737213 0.695809
1163 4 0.461692 0.0728466 0.679072
1162 2 0.47251 0.0525555 0.688891
2320 2 0.481994 0.0243472 0.738835
2321 4 0.487693 0.0206537 0.714771
1164 4 0.483329 0.0322645 0.69871
4581 4 0.498265 0.00642604 0.708504
3402 4 0.500136 0.026506 0.704778
864 4 0.0651155 0.115397 0.738813
1075 2 0.0642056 0.102502 0.700476
1077 4 0.0656668 0.120299 0.717978
1107 4 0.0692067 0.132109 0.731754
851 4 0.0626092 0.140086 0.715203
850 2 0.0532445 0.15793 0.700402
862 2 0.0441919 0.111173 0.751833
1283 4 0.144926 0.102707 0.67707
1105 2 0.0933974 0.13841 0.732288
1282 2 0.133524 0.10277 0.699322
1284 4 0.122121 0.102834 0.721574
909 4 0.157311 0.166653 0.691766
1106 4 0.117588 0.144712 0.732823
908 4 0.196054 0.135093 0.693678
907 2 0.176682 0.150873 0.692722
1227 4 0.206781 0.139842 0.710316
1225 2 0.213591 0.115784 0.710241
1226 4 0.220402 0.0917255 0.710166
829 2 0.32834 0.144154 0.702282
830 4 0.317616 0.156514 0.683376
1003 2 0.375643 0.0949395 0.692999
1005 4 0.362717 0.116158 0.69019
831 4 0.339063 0.131795 0.721187
3424 2 0.492354 0.119685 0.668067
3425 4 0.471245 0.106286 0.667803
43 3 0.427986 0.100462 0.673323
44 3 0.463214 0.0948771 0.686446
852 4 0.0438798 0.175774 0.6856
1073 4 0.118898 0.219399 0.741001
1072 2 0.121819 0.241891 0.730478
888 4 0.266008 0.186334 0.677744
886 2 0.28567 0.171773 0.672586
887 4 0.305331 0.157212 0.667429
1146 4 0.504934 0.170673 0.737098
1025 4 0.438146 0.198873 0.673589
1262 4 0.4397 0.218556 0.727601
1142 4 0.442107 0.184859 0.725469
1024 2 0.444024 0.201337 0.697767
1141 2 0.444275 0.174229 0.747996
1026 4 0.449903 0.2038 0.721944
1261 2 0.450225 0.231656 0.746115
1263 4 0.46075 0.244757 0.76463
893 4 0.00799332 0.326331 0.733267
1074 4 0.124739 0.264384 0.719956
1209 4 0.136478 0.29898 0.690563
1207 2 0.116369 0.287247 0.699682
1208 4 0.0962598 0.275515 0.7088
821 4 0.150924 0.299348 0.678273
820 2 0.174809 0.301721 0.685277
822 4 0.198694 0.304095 0.692281
1063 2 0.236844 0.298206 0.714614
1064 4 0.214977 0.298077 0.702488
1065 4 0.25871 0.298335 0.726739
916 2 0.307024 0.26261 0.740242
917 4 0.316652 0.284334 0.732462
807 4 0.307439 0.299351 0.663754
805 2 0.330666 0.306673 0.66942
892 2 0.0174478 0.349453 0.732191
894 4 0.0269022 0.372576 0.731115
1280 4 0.0427549 0.37854 0.722613
1279 2 0.036977 0.40283 0.721281
816 4 0.0626048 0.380527 0.717792
814 2 0.0852593 0.372332 0.724486
942 4 0.117035 0.364027 0.748923
815 4 0.107914 0.364137 0.731179
1140 4 0.226929 0.416928 0.669364
1028 4 0.204675 0.374497 0.697567
1066 2 0.19324 0.380403 0.737527
1068 4 0.206349 0.381339 0.716257
1027 2 0.215018 0.386761 0.678389
1019 4 0.38692 0.382523 0.723737
1018 2 0.393896 0.401161 0.738874
1981 2 0.0671861 0.451634 0.715317
1281 4 0.0311991 0.42712 0.719948
1983 4 0.0460229 0.439946 0.721696
1982 4 0.0883492 0.463322 0.708938
2016 4 0.176234 0.498112 0.73823
1138 2 0.24781 0.430576 0.671062
1139 4 0.268691 0.444224 0.672761
1988 4 0.317227 0.461954 0.746067
1987 2 0.326631 0.467479 0.723568
1989 4 0.336036 0.473003 0.701068
1020 4 0.400872 0.419799 0.754011
1229 4 0.345205 0.460874 0.687158
1228 2 0.349008 0.454782 0.663208
1100 4 0.413499 0.492744 0.715121
2168 4 0.460239 0.501298 0.676194
1101 4 0.458737 0.496944 0.694226
1099 2 0.436118 0.494844 0.704673
2991 4 0.0143378 0.0288024 0.757453
2989 2 0.0109802 0.0533202 0.761028
1202 4 0.11754 0.0431322 0.753902
2049 4 0.132663 0.0282408 0.755482
1203 4 0.0911717 0.0752332 0.78174
1201 2 0.104356 0.0591827 0.767821
1257 4 0.233034 0.0748263 0.774548
817 2 0.325275 0.0434245 0.803038
819 4 0.307257 0.0586685 0.811293
1085 4 0.303508 0.0783146 0.816087
1050 4 0.338667 0.999452 0.769557
960 4 0.310693 0.0869187 0.833916
818 4 0.343293 0.0281805 0.794783
974 4 0.344767 0.0120178 0.785074
973 2 0.369256 0.00765733 0.78762
1113 4 0.418973 0.0668609 0.782198
2322 4 0.476295 0.0280407 0.762899
844 2 0.501781 0.0881954 0.783025
863 4 0.0232682 0.106948 0.764853
833 4 0.0162291 0.0923712 0.777029
832 2 0.0133241 0.102515 0.799697
2990 4 0.00762267 0.0778381 0.764603
834 4 0.010419 0.112659 0.822365
911 4 0.113417 0.109183 0.824081
34 3 0.124544 0.114167 0.779855
31 1 0.123165 0.121608 0.80179
35 3 0.101477 0.121347 0.808734
32 3 0.135578 0.107619 0.815183
33 3 0.13174 0.143108 0.803415
1255 2 0.243505 0.0898509 0.791572
840 4 0.263764 0.105377 0.826785
1256 4 0.253977 0.104876 0.808595
1084 2 0.307479 0.0977285 0.800839
1086 4 0.311449 0.117142 0.78559
1022 4 0.36627 0.16746 0.824943
845 4 0.481743 0.0919933 0.79749
1111 2 0.440755 0.076635 0.789625
1112 4 0.462538 0.0864091 0.797052
1143 4 0.446443 0.163598 0.770523
1214 4 0.991605 0.219065 0.756576
1130 4 0.15212 0.205986 0.794489
978 4 0.236692 0.216899 0.762411
1129 2 0.17566 0.212597 0.789261
1131 4 0.199201 0.219208 0.784033
1277 4 0.199145 0.238962 0.775875
976 2 0.258682 0.22842 0.759428
977 4 0.280672 0.23994 0.756445