ITEM: TIMESTEP
2210000
ITEM: NUMBER OF ATOMS
4590
ITEM: BOX BOUNDS pp pp pp
-9.9985700000000008e+00 9.9985700000000008e+00
-9.9985700000000008e+00 9.9985700000000008e+00
-9.9985700000000008e+00 9.9985700000000008e+00
ITEM: ATOMS id type xs ys zs
1666 2 0.0186367 0.0739966 0.0616126
1668 4 0.00532171 0.0532681 0.065881
2974 2 0.468654 0.0171073 0.0111503
2976 4 0.48047 0.999037 0.0237606
745 2 0.44892 0.07742 0.00692489
747 4 0.45547 0.053617 0.00296351
1667 4 0.0319518 0.094725 0.0573442
701 4 0.04512 0.10422 0.0697825
700 2 0.0606245 0.120137 0.0812463
566 4 0.184471 0.142962 0.0348668
565 2 0.201972 0.155588 0.022238
297 4 0.314908 0.110113 0.0226792
295 2 0.336347 0.110903 0.00983708
558 4 0.42511 0.107557 0.0054691
746 4 0.44237 0.101223 0.0108863
555 4 0.0551485 0.23359 0.01517
567 4 0.219473 0.168213 0.00960923
573 4 0.257544 0.252112 0.05636
770 4 0.393817 0.188808 0.0116175
359 4 0.380379 0.19167 0.0250082
358 2 0.362229 0.190753 0.00783539
664 2 0.39016 0.222256 0.0405767
665 4 0.392249 0.206383 0.0213706
666 4 0.388072 0.238129 0.0597828
623 4 0.391426 0.246476 0.0780387
769 2 0.417914 0.185435 0.00585836
2807 4 0.00641007 0.271604 0.0726699
2835 4 0.994445 0.255299 0.0815792
292 2 0.128567 0.276589 0.0493676
507 4 0.157602 0.305264 0.062812
293 4 0.145404 0.294759 0.0527665
294 4 0.11173 0.258419 0.0459687
287 4 0.160966 0.299964 0.0429402
286 2 0.174117 0.30591 0.0225231
505 2 0.174756 0.296951 0.0789924
481 2 0.226038 0.271912 0.0769326
482 4 0.246831 0.266795 0.0640228
288 4 0.187269 0.311856 0.00210595
571 2 0.268145 0.26455 0.0374366
572 4 0.278746 0.276987 0.0185131
357 4 0.297412 0.271608 0.0153671
355 2 0.306742 0.289839 0.00102284
323 4 0.398619 0.253968 0.0621192
1069 2 0.40163 0.322026 0.0233101
322 2 0.403693 0.273884 0.0478783
955 2 0.345959 0.331281 0.00454119
324 4 0.408766 0.293799 0.0336375
1070 4 0.42082 0.305999 0.0230383
280 2 0.447187 0.308012 0.0544831
281 4 0.455961 0.311102 0.0776919
282 4 0.438413 0.304923 0.0312742
550 2 0.118831 0.33727 0.075303
455 4 0.133636 0.353132 0.0411877
552 4 0.118132 0.347777 0.052625
454 2 0.154288 0.356061 0.0274002
456 4 0.17494 0.35899 0.0136126
1290 4 0.273754 0.396704 0.024023
250 2 0.274185 0.412694 0.0600102
1288 2 0.276569 0.384489 0.00238912
1071 4 0.382441 0.338053 0.0235819
741 4 0.373058 0.347467 0.03756
739 2 0.375404 0.34769 0.0624523
957 4 0.364005 0.338472 0.0202825
1788 4 0.0761264 0.489163 0.0190658
1786 2 0.0953464 0.503423 0.0263062
626 4 0.227417 0.48891 0.0781355
625 2 0.204843 0.495233 0.0694421
245 4 0.233568 0.477582 0.0623596
244 2 0.247485 0.463459 0.0471272
251 4 0.268414 0.412818 0.0356822
246 4 0.261402 0.449336 0.0318949
272 4 0.26592 0.430204 0.0276632
271 2 0.274103 0.439398 0.00589871
1672 2 0.404204 0.449193 0.0650054
853 2 0.398598 0.4404 0.00872016
1674 4 0.415855 0.456606 0.0441606
854 4 0.415163 0.449724 0.0249625
563 4 0.475596 0.459204 0.0516113
562 2 0.452712 0.459644 0.0415457
564 4 0.429828 0.460084 0.0314802
228 4 0.494743 0.458439 0.0445229
18 3 0.0739929 0.00627973 0.169574
19 3 0.068032 0.0418816 0.157683
491 4 0.245642 0.0690935 0.0825907
1474 2 0.28287 0.00792221 0.0902531
1475 4 0.27864 0.0307177 0.0996151
492 4 0.288329 0.048676 0.0987663
490 2 0.266985 0.0588848 0.0906785
581 4 0.291837 0.0847007 0.142954
486 4 0.398171 0.0344763 0.0884611
484 2 0.413056 0.0281787 0.107539
485 4 0.427942 0.0218811 0.126616
2722 2 0.489432 0.0563824 0.134334
2724 4 0.499507 0.0343245 0.140427
1759 2 0.49494 0.0041243 0.118131
2744 4 0.499754 0.0157618 0.150047
2723 4 0.479357 0.0784403 0.128241
702 4 0.0761289 0.136055 0.0927101
476 4 0.0955118 0.139228 0.100542
475 2 0.0899516 0.154492 0.119549
477 4 0.0843915 0.169756 0.138557
737 4 0.201584 0.153544 0.0939235
237 4 0.2366 0.106656 0.159596
582 4 0.252426 0.115057 0.148049
580 2 0.272132 0.0998787 0.145502
628 2 0.37768 0.153283 0.159383
2833 2 0.00347475 0.235133 0.0932816
2625 4 0.00229625 0.200435 0.114753
2834 4 0.0125047 0.214966 0.104984
738 4 0.221246 0.198277 0.104559
736 2 0.211415 0.175911 0.0992414
460 2 0.315007 0.239723 0.105335
461 4 0.29098 0.240677 0.0984837
354 4 0.274668 0.25103 0.106248
352 2 0.266485 0.251724 0.129865
630 4 0.377805 0.174057 0.145469
254 4 0.363293 0.179355 0.132676
462 4 0.339035 0.238768 0.112187
255 4 0.350397 0.226995 0.124626
253 2 0.356845 0.203175 0.128651
765 4 0.345867 0.24447 0.12915
624 4 0.357808 0.241359 0.114704
622 2 0.374617 0.243918 0.0963713
339 4 0.037865 0.250996 0.132149
337 2 0.0457961 0.252114 0.155835
657 4 0.00187956 0.269936 0.0903721
551 4 0.11953 0.326763 0.0979809
483 4 0.205245 0.277029 0.0898424
506 4 0.191911 0.288639 0.0951728
537 4 0.19921 0.298085 0.110113
535 2 0.194256 0.296478 0.134568
536 4 0.189303 0.29487 0.159023
353 4 0.258303 0.252419 0.153481
387 4 0.321292 0.314272 0.109601
301 2 0.314941 0.309153 0.150388
302 4 0.311337 0.315282 0.126417
763 2 0.339824 0.256517 0.15021
385 2 0.341376 0.326557 0.10118
671 4 0.452829 0.316499 0.0954577
527 4 0.462847 0.300587 0.0936012
670 2 0.432048 0.328485 0.102505
526 2 0.486756 0.300823 0.100915
647 4 0.0605053 0.345727 0.162861
289 2 0.232522 0.394803 0.159051
416 4 0.197416 0.37636 0.157967
252 4 0.279957 0.41257 0.0843382
290 4 0.252875 0.405496 0.149223
609 4 0.279988 0.416237 0.102748
493 2 0.39852 0.398402 0.0873115
495 4 0.40138 0.373689 0.0898155
386 4 0.361459 0.338841 0.0927583
12 3 0.401034 0.339619 0.128244
15 3 0.367495 0.339676 0.111873
740 4 0.377749 0.347914 0.0873447
672 4 0.411267 0.34047 0.109552
14 3 0.396978 0.355062 0.0942184
11 1 0.386727 0.351532 0.114734
13 3 0.382051 0.371881 0.124857
1791 4 0.0502515 0.486065 0.137331
1466 4 0.0520742 0.466721 0.145453
1465 2 0.0570799 0.452707 0.12536
1467 4 0.0620857 0.438694 0.105267
638 4 0.243992 0.484897 0.117169
766 2 0.245221 0.446793 0.135739
637 2 0.227174 0.501428 0.125478
768 4 0.246285 0.422091 0.139457
607 2 0.303152 0.421832 0.110319
767 4 0.244157 0.471496 0.132021
608 4 0.326315 0.427427 0.117889
494 4 0.395659 0.423115 0.0848074
660 4 0.377068 0.429879 0.083329
1673 4 0.392554 0.441781 0.0858502
659 4 0.336771 0.443326 0.109712
658 2 0.356919 0.436602 0.0965205
1559 4 0.362719 0.498769 0.113013
524 4 0.378216 0.490214 0.122952
523 2 0.397829 0.474705 0.122991
525 4 0.417441 0.459196 0.123031
595 2 0.450022 0.413783 0.15345
596 4 0.447626 0.429636 0.134263
16 1 0.0689489 0.0279357 0.176206
17 3 0.0484024 0.0279503 0.18655
2480 4 0.0302422 0.0234646 0.183465
2481 4 0.000267498 0.0613146 0.196489
2479 2 0.0152549 0.0423896 0.189977
20 3 0.0847108 0.0354566 0.190822
380 4 0.00292633 0.0806976 0.202601
578 4 0.0859732 0.0493831 0.174564
577 2 0.0995954 0.0701243 0.171495
689 4 0.186144 0.00114767 0.231304
1506 4 0.254682 0.0121702 0.169024
652 2 0.291392 0.0172627 0.177272
653 4 0.315546 0.0155429 0.171042
25 3 0.325717 0.0417079 0.244599
654 4 0.267238 0.0189825 0.183501
758 4 0.353792 0.0694358 0.189313
759 4 0.338824 0.0587113 0.235806
757 2 0.346308 0.0640736 0.212559
311 4 0.373381 0.0730898 0.192089
379 2 0.0118941 0.103833 0.205683
511 2 0.0446101 0.152509 0.204008
512 4 0.028596 0.136999 0.192686
381 4 0.020862 0.126969 0.208766
513 4 0.0606242 0.168018 0.21533
393 4 0.0798915 0.166499 0.211905
579 4 0.113218 0.0908656 0.168427
448 2 0.152958 0.102683 0.177275
450 4 0.128474 0.103933 0.172363
449 4 0.177443 0.101433 0.182186
235 2 0.216091 0.100187 0.172352
236 4 0.195582 0.0937182 0.185109
28 3 0.330081 0.154107 0.223261
26 1 0.327446 0.162356 0.244789
312 4 0.390029 0.116231 0.173052
629 4 0.377554 0.132509 0.173297
310 2 0.381705 0.0946603 0.182571
521 4 0.49297 0.124907 0.218439
332 4 0.490869 0.116109 0.234628
762 4 0.476626 0.128764 0.226466
760 2 0.456144 0.142034 0.231902
761 4 0.435661 0.155304 0.237338
394 2 0.0175352 0.247407 0.223368
391 2 0.0914073 0.188129 0.206936
392 4 0.102923 0.20976 0.201967
279 4 0.230499 0.200988 0.176468
277 2 0.242011 0.222935 0.173153
278 4 0.253523 0.244882 0.169839
284 4 0.270374 0.251407 0.171565
27 3 0.323788 0.185038 0.243665
395 4 0.0344316 0.252284 0.205594
338 4 0.0537271 0.253232 0.179521
363 4 0.0510684 0.26006 0.198167
361 2 0.061079 0.281725 0.205623
749 4 0.0586354 0.318033 0.218635
648 4 0.071414 0.320485 0.204628
362 4 0.0710896 0.30339 0.21308
748 2 0.0661686 0.332371 0.237684
370 2 0.11091 0.30966 0.214314
372 4 0.0877686 0.308567 0.20491
371 4 0.134052 0.310752 0.223718
734 4 0.137595 0.325118 0.235813
733 2 0.157804 0.313187 0.244439
755 4 0.241362 0.258076 0.16316
754 2 0.242389 0.280612 0.173941
756 4 0.243416 0.303148 0.184723
611 4 0.241728 0.32807 0.239854
610 2 0.245706 0.324189 0.215476
612 4 0.249684 0.320308 0.191098
283 2 0.293232 0.259978 0.176973
285 4 0.31609 0.268548 0.182381
308 4 0.32581 0.284339 0.178447
303 4 0.318545 0.303024 0.17436
729 4 0.32415 0.321404 0.183409
764 4 0.333781 0.268565 0.17127
307 2 0.336677 0.285326 0.200944
309 4 0.347543 0.286314 0.223441
498 4 0.331561 0.284455 0.236347
646 2 0.0659596 0.333106 0.183745
417 4 0.160561 0.404364 0.176892
299 4 0.13725 0.336857 0.252292
291 4 0.212169 0.384109 0.16888
415 2 0.178989 0.390362 0.16743
727 2 0.318534 0.342033 0.196374
728 4 0.312919 0.362662 0.20934
446 4 0.379398 0.374097 0.249711
445 2 0.401397 0.371578 0.238098
447 4 0.423397 0.369058 0.226485
644 4 0.436469 0.384353 0.226376
643 2 0.444663 0.397631 0.206838
597 4 0.452418 0.397931 0.172637
414 4 0.204106 0.470027 0.213091
412 2 0.219727 0.468904 0.232582
645 4 0.452857 0.410908 0.187299
229 2 0.440386 0.47774 0.227851
231 4 0.453689 0.45675 0.230614
230 4 0.427084 0.49873 0.225089
427 2 0.077265 0.0178041 0.324724
2755 2 0.0117693 0.0604467 0.328718
234 4 0.0171964 0.0394423 0.291489
232 2 0.0400216 0.0315304 0.28504
233 4 0.0628469 0.0236185 0.278591
1404 4 0.0789602 0.0164916 0.286189
317 4 0.076895 0.0355176 0.288425
428 4 0.0860386 0.0247469 0.302363
2756 4 0.0128526 0.0516118 0.305352
2478 4 0.0137018 0.0573385 0.285894
316 2 0.0900691 0.0567394 0.289546
318 4 0.103243 0.0779613 0.290666
730 2 0.140006 0.0764985 0.312984
731 4 0.163151 0.0756474 0.322406
732 4 0.116861 0.0773496 0.303562
606 4 0.162238 0.0574077 0.330404
693 4 0.233973 0.0542631 0.269599
691 2 0.250783 0.0698217 0.279625
24 3 0.316408 0.0660084 0.271811
21 1 0.333814 0.0546389 0.261507
22 3 0.348639 0.0699707 0.252888
23 3 0.344889 0.0413864 0.277003
349 2 0.389282 0.0688025 0.254624
351 4 0.411453 0.0584484 0.259764
350 4 0.367111 0.0791565 0.249484
480 4 0.431173 0.0576416 0.258463
479 4 0.451837 0.0261222 0.29133
478 2 0.441505 0.0418819 0.274897
2664 4 0.471171 0.0306898 0.289672
1428 4 0.46348 0.0168926 0.29984
258 4 0.450027 0.02388 0.311528
2662 2 0.495011 0.0380962 0.288266
256 2 0.439341 0.0319868 0.332629
397 2 0.0898279 0.101036 0.325496
399 4 0.102668 0.0897678 0.307238
721 2 0.267581 0.110269 0.312186
692 4 0.267593 0.0853804 0.289651
30 3 0.3096 0.152366 0.254807
723 4 0.275808 0.103843 0.289465
29 3 0.346679 0.158464 0.257172
632 4 0.371204 0.0951399 0.259944
631 2 0.361701 0.11823 0.261256
707 4 0.354372 0.157253 0.273578
633 4 0.352198 0.14132 0.262568
706 2 0.352538 0.162034 0.298052
443 4 0.00443419 0.238021 0.259709
442 2 0.0137059 0.245464 0.281705
444 4 0.0229775 0.252907 0.3037
546 4 0.137788 0.192746 0.266032
544 2 0.158734 0.204726 0.272584
545 4 0.17968 0.216706 0.279137
402 4 0.195954 0.228449 0.278305
473 4 0.224369 0.186195 0.324797
405 4 0.219317 0.166457 0.328308
708 4 0.350705 0.166815 0.322526
344 4 0.235843 0.313278 0.25092
343 2 0.213979 0.301922 0.255181
400 2 0.190329 0.252311 0.273393
401 4 0.184704 0.276173 0.268482
676 2 0.177262 0.305111 0.295644
345 4 0.192114 0.290566 0.259442
677 4 0.179353 0.295078 0.272837
735 4 0.178013 0.301255 0.253066
678 4 0.17517 0.315143 0.318451
510 4 0.187317 0.332587 0.321625
375 4 0.165447 0.299978 0.32318
378 4 0.261292 0.261414 0.314634
376 2 0.284008 0.268244 0.306728
496 2 0.325716 0.282842 0.260604
497 4 0.319871 0.281229 0.284861
377 4 0.306724 0.275074 0.298822
541 2 0.367674 0.300258 0.299477
542 4 0.380783 0.280331 0.306976
420 4 0.387417 0.282332 0.325708
543 4 0.354565 0.320185 0.291978
365 4 0.00978379 0.39866 0.309776
601 2 0.0493767 0.403587 0.325572
603 4 0.0247171 0.403196 0.321457
750 4 0.0737018 0.34671 0.256732
298 2 0.114494 0.345805 0.257517
300 4 0.0917391 0.354753 0.262742
508 2 0.207203 0.347736 0.321163
509 4 0.22709 0.362885 0.320701
433 2 0.302076 0.386877 0.329477
434 4 0.326496 0.382708 0.32609
615 4 0.353419 0.340219 0.287075
614 4 0.344034 0.37373 0.322986
613 2 0.348726 0.356975 0.30503
1757 4 0.0360694 0.434657 0.26712
1756 2 0.0519352 0.452536 0.259786
264 4 0.0216261 0.428373 0.255306
776 4 0.0788261 0.481857 0.32264
775 2 0.0721698 0.490149 0.300011
1758 4 0.067801 0.470415 0.252453
1775 4 0.0727064 0.487663 0.264189
1436 4 0.231024 0.44997 0.258674
413 4 0.235348 0.467782 0.252072
1435 2 0.245684 0.449362 0.278919
1437 4 0.260345 0.448755 0.299164
4 3 0.267452 0.444779 0.317071
436 2 0.332704 0.457181 0.328816
3 3 0.292327 0.473221 0.321162
438 4 0.307885 0.459139 0.331132
1803 4 0.368794 0.499843 0.277099
1801 2 0.367961 0.485301 0.297421
437 4 0.357523 0.455224 0.3265
1802 4 0.367127 0.470759 0.317744
712 2 0.465595 0.481051 0.330322
714 4 0.486706 0.467899 0.33288
713 4 0.444484 0.494203 0.327764
2757 4 0.010686 0.0692815 0.352084
2585 4 0.0243985 0.0815423 0.356066
429 4 0.0684913 0.0108614 0.347084
1780 2 0.119399 0.00317249 0.39997
1781 4 0.104661 0.0212612 0.408958
604 2 0.181459 0.0614697 0.34587
605 4 0.200681 0.0655317 0.361337
248 4 0.210689 0.0823808 0.364687
441 4 0.320845 0.0110642 0.397831
962 4 0.324633 0.0131044 0.417471
1701 4 0.33135 0.0183756 0.384031
425 4 0.33713 0.012019 0.403024
699 4 0.362495 0.0551663 0.34145
698 4 0.412178 0.0504463 0.344616
1699 2 0.33795 0.0341003 0.365745
1700 4 0.34455 0.0498249 0.34746
697 2 0.387336 0.0528063 0.343033
725 4 0.401145 0.0676883 0.391811
424 2 0.361029 0.00959473 0.409959
257 4 0.428655 0.0400936 0.353731
398 4 0.0769883 0.112305 0.343754
2584 2 0.044753 0.0958547 0.358522
2586 4 0.0651075 0.110167 0.360978
458 4 0.0566518 0.123303 0.373932
457 2 0.0464438 0.142292 0.386598
459 4 0.0362357 0.16128 0.399263
600 4 0.115609 0.145624 0.349144
249 4 0.246155 0.113431 0.347992
247 2 0.228422 0.097906 0.35634
404 4 0.248721 0.130155 0.34615
403 2 0.234019 0.148306 0.337229
722 4 0.259355 0.116695 0.334906
683 4 0.251221 0.12093 0.364075
682 2 0.274836 0.127188 0.369401
684 4 0.29845 0.133447 0.374727
320 4 0.317062 0.137201 0.365273
724 2 0.391985 0.0865 0.4055
319 2 0.341778 0.138982 0.368605
321 4 0.366494 0.140763 0.371938
726 4 0.382824 0.105312 0.419188
717 4 0.41253 0.154304 0.361005
261 4 0.0682031 0.211704 0.412367
260 4 0.0314525 0.1783 0.406512
259 2 0.0498278 0.195002 0.40944
598 2 0.118088 0.169554 0.355956
599 4 0.120566 0.193483 0.362767
389 4 0.130013 0.222776 0.370024
686 4 0.120951 0.206089 0.379045
685 2 0.103969 0.207359 0.397352
275 4 0.134872 0.204539 0.369167
274 2 0.15955 0.204827 0.365158
388 2 0.125335 0.247259 0.368053
474 4 0.201012 0.215293 0.358091
472 2 0.212691 0.200744 0.341444
276 4 0.184228 0.205116 0.361149
715 2 0.394759 0.168437 0.371476
716 4 0.376988 0.18257 0.381947
467 4 0.378383 0.185878 0.400762
269 4 0.398569 0.235682 0.355814
270 4 0.441141 0.211352 0.36563
452 4 0.459623 0.203597 0.372123
268 2 0.419855 0.223517 0.360722
451 2 0.46202 0.207547 0.396696
346 2 0.0550773 0.322781 0.376448
348 4 0.0311211 0.31748 0.371633
347 4 0.0790334 0.328082 0.381263
618 4 0.0915314 0.312704 0.3856
616 2 0.101626 0.296833 0.369126
390 4 0.120656 0.271742 0.366081
617 4 0.111721 0.280962 0.352653
374 4 0.129866 0.286182 0.355497
373 2 0.147656 0.29308 0.339339
418 2 0.397171 0.267465 0.343287
419 4 0.406925 0.252598 0.360866
602 4 0.0740364 0.403979 0.329686
549 4 0.0841684 0.417341 0.340847
435 4 0.277656 0.391045 0.332865
334 2 0.332644 0.364023 0.414322
238 2 0.387558 0.372289 0.405289
239 4 0.402716 0.39179 0.401398
587 4 0.402159 0.410194 0.395344
335 4 0.353403 0.350824 0.409845
240 4 0.372401 0.352789 0.40918
752 4 0.483132 0.393827 0.371025
561 4 0.472791 0.379429 0.383397
751 2 0.491442 0.413988 0.358791
559 2 0.478894 0.384313 0.407148
548 4 0.0808873 0.440671 0.384956
407 4 0.0757232 0.45853 0.39068
500 4 0.0919967 0.493947 0.334068
499 2 0.0879406 0.483688 0.356506
501 4 0.0838844 0.473429 0.378944
547 2 0.0825279 0.429006 0.362901
406 2 0.0896598 0.462692 0.411018
1 1 0.280707 0.45641 0.332152
5 3 0.26774 0.465389 0.34858
2 3 0.295825 0.441837 0.341546
586 2 0.398689 0.4337 0.387559
593 4 0.402806 0.476844 0.378792
588 4 0.395219 0.457206 0.379774
592 2 0.419576 0.483559 0.361505
753 4 0.499751 0.434149 0.346558
117 3 0.493493 0.455285 0.352016
594 4 0.436346 0.490274 0.344217
2237 4 0.000496153 0.00420264 0.470113
720 4 0.00696323 0.0184639 0.457691
367 2 0.0806802 0.0350113 0.444635
369 4 0.0682655 0.0416134 0.46531
719 4 0.0542235 0.0286248 0.470494
718 2 0.0305934 0.0235444 0.464093
368 4 0.093095 0.0284093 0.423959
341 4 0.184405 0.0180182 0.492907
961 2 0.315819 0.0302193 0.433427
963 4 0.307004 0.0473342 0.449382
432 4 0.31324 0.0671028 0.450371
430 2 0.316172 0.0688589 0.47514
431 4 0.319105 0.070615 0.499909
426 4 0.384929 0.00717046 0.416894
640 2 0.482147 0.0980082 0.437952
641 4 0.464551 0.10247 0.455147
1035 4 0.0781097 0.219379 0.428229
1033 2 0.0753014 0.232223 0.449496
1034 4 0.0724931 0.245068 0.470763
687 4 0.0869865 0.208629 0.41566
487 2 0.326163 0.238791 0.454337
466 2 0.387707 0.190191 0.423557
468 4 0.397031 0.194505 0.446353
411 4 0.358527 0.231733 0.479311
409 2 0.377575 0.217654 0.471303
410 4 0.396624 0.203576 0.463295
266 4 0.344088 0.243464 0.483778
489 4 0.342655 0.228479 0.470049
575 4 0.410318 0.200774 0.476826
516 4 0.412442 0.20267 0.45683
574 2 0.422121 0.198401 0.49874
514 2 0.432623 0.211743 0.445186
515 4 0.452804 0.220816 0.433541
453 4 0.464417 0.211497 0.421269
696 4 0.0814666 0.253047 0.487018
1260 4 0.0784779 0.263402 0.470694
1258 2 0.0951859 0.281932 0.469059
1259 4 0.111894 0.300461 0.467424
9 3 0.131081 0.297246 0.451222
7 3 0.119499 0.312256 0.483676
6 1 0.133007 0.315552 0.46535
8 3 0.154967 0.31775 0.472517
327 4 0.108177 0.325089 0.466451
10 3 0.126445 0.334468 0.454498
488 4 0.309671 0.249102 0.438625
651 4 0.268513 0.251974 0.495963
1009 2 0.465885 0.302876 0.493904
1011 4 0.462391 0.322724 0.479104
2457 4 0.474515 0.267025 0.498042
2455 2 0.493171 0.250967 0.493655
326 4 0.0674842 0.353774 0.471136
325 2 0.0878306 0.339432 0.468793
709 2 0.146486 0.40616 0.491044
711 4 0.125317 0.405244 0.47777
384 4 0.129596 0.413889 0.460221
503 4 0.21836 0.35928 0.49646
710 4 0.167655 0.407077 0.504319
668 4 0.305397 0.396191 0.414478
336 4 0.311886 0.377222 0.418798
560 4 0.484996 0.389197 0.430898
3309 4 0.483416 0.38113 0.449314
3307 2 0.477892 0.358417 0.45819
3308 4 0.472368 0.335704 0.467066
1381 2 0.0181597 0.487122 0.451529
1383 4 0.00838751 0.466521 0.441269
680 4 0.00975552 0.447566 0.449248
382 2 0.123154 0.436673 0.452187
408 4 0.103596 0.466854 0.431356
568 2 0.138788 0.487887 0.438155
383 4 0.116712 0.459458 0.444154
569 4 0.116835 0.476345 0.441318
1556 4 0.238939 0.494502 0.422172
1557 4 0.288866 0.493954 0.424961
634 2 0.316734 0.477686 0.421407
1555 2 0.263903 0.494228 0.423566
635 4 0.327 0.455313 0.42579
669 4 0.314073 0.442467 0.431332
636 4 0.306468 0.50006 0.417024
667 2 0.309735 0.419329 0.422905
772 2 0.35136 0.439944 0.455898
773 4 0.370231 0.436671 0.471971
774 4 0.332489 0.443217 0.439825
663 4 0.4923 0.494782 0.423161
1152 4 0.203551 0.0649081 0.539957
342 4 0.2045 0.0483145 0.527244
340 2 0.194453 0.0331663 0.510076
1150 2 0.219296 0.0824784 0.548237
949 2 0.288341 0.0385109 0.564315
951 4 0.284839 0.063201 0.566135
1031 4 0.293507 0.0810642 0.561039
950 4 0.291843 0.0138208 0.562495
1217 4 0.392318 0.0492418 0.508975
842 4 0.384551 0.0665392 0.515475
841 2 0.360998 0.0648617 0.507252
843 4 0.337445 0.0631843 0.499028
1216 2 0.414786 0.0601426 0.510213
1218 4 0.437254 0.0710435 0.511451
1270 2 0.0737784 0.148528 0.572046
1271 4 0.0833444 0.128059 0.561336
1058 4 0.0944841 0.13023 0.500728
1057 2 0.0924721 0.123197 0.524638
1059 4 0.09046 0.116164 0.548547
1155 4 0.102069 0.122362 0.561845
939 4 0.0904781 0.111706 0.568279
1153 2 0.125823 0.129323 0.565377
1221 4 0.167735 0.139831 0.577325
937 2 0.0863397 0.0921535 0.583304
1154 4 0.149577 0.136284 0.56891
1151 4 0.23504 0.100049 0.556518
1180 2 0.225723 0.135398 0.560791
1181 4 0.227079 0.112468 0.570667
1182 4 0.224367 0.158329 0.550915
1032 4 0.25227 0.108684 0.554931
1030 2 0.272889 0.0948742 0.557985
1198 2 0.00674707 0.236186 0.554313
1199 4 0.0275925 0.23897 0.567837
878 4 0.0415301 0.227773 0.577864
1244 4 0.0572976 0.240179 0.580868
695 4 0.0943306 0.217574 0.519835
694 2 0.0878986 0.23531 0.503427
900 4 0.219228 0.171263 0.536066
898 2 0.238374 0.184157 0.526456
899 4 0.257519 0.197052 0.516846
650 4 0.256827 0.214506 0.526952
649 2 0.26267 0.23324 0.511458
576 4 0.433924 0.196029 0.520654
982 2 0.0122747 0.300539 0.57066
983 4 0.0323823 0.286831 0.576399
856 2 0.20227 0.271248 0.527058
857 4 0.183952 0.270537 0.544061
798 4 0.210473 0.281503 0.568397
947 4 0.193535 0.281436 0.556694
946 2 0.1751 0.28892 0.571837
858 4 0.220588 0.27196 0.510054
267 4 0.36538 0.282255 0.507072
265 2 0.354734 0.262859 0.495425
1010 4 0.469379 0.283029 0.508704
502 2 0.198277 0.373826 0.499665
504 4 0.178194 0.388372 0.502871
803 4 0.2677 0.35962 0.576071
804 4 0.271521 0.384338 0.532768
802 2 0.26961 0.371979 0.554419
928 2 0.342847 0.391247 0.568364
929 4 0.356605 0.395586 0.547941
881 4 0.362515 0.37557 0.548491
880 2 0.379455 0.361046 0.537211
882 4 0.396396 0.346522 0.52593
926 4 0.433148 0.403085 0.581083
539 4 0.091107 0.435597 0.554746
540 4 0.100004 0.475767 0.58317
2244 4 0.096909 0.492627 0.575022
538 2 0.0955557 0.455682 0.568958
1160 4 0.114817 0.48944 0.580213
2154 4 0.236965 0.489558 0.548141
1953 4 0.414138 0.49578 0.541076
1909 2 0.445394 0.490294 0.568154
1081 2 0.0809306 0.0635192 0.643177
938 4 0.0822013 0.0726009 0.598329
1083 4 0.0775893 0.0650507 0.618445
1126 2 0.0378126 0.077354 0.606816
1082 4 0.0842719 0.0619876 0.667909
1127 4 0.0583468 0.0671547 0.616791
824 4 0.200204 0.0127334 0.668529
3007 2 0.497304 0.0630487 0.581588
3008 4 0.487225 0.0456424 0.596441
809 4 0.483633 0.0322885 0.611546
808 2 0.473298 0.0455698 0.630038
810 4 0.462963 0.058851 0.648531
45 3 0.459133 0.0814556 0.648706
1128 4 0.0172784 0.0875533 0.596841
1272 4 0.0642124 0.168996 0.582756
1219 2 0.173602 0.154305 0.596852
1192 2 0.323864 0.146309 0.652391
886 2 0.268013 0.162634 0.660028
1193 4 0.344316 0.149372 0.638336
3424 2 0.490498 0.106136 0.663079
3425 4 0.472111 0.0894579 0.666063
877 2 0.0551244 0.207617 0.583705
879 4 0.0687187 0.187462 0.589547
1220 4 0.179469 0.168778 0.616378
1212 4 0.184149 0.174403 0.63573
1210 2 0.208041 0.175251 0.643052
1211 4 0.231933 0.1761 0.650375
888 4 0.251458 0.179742 0.652385
1245 4 0.0386522 0.284495 0.594621
1243 2 0.0479749 0.262337 0.587744
948 4 0.156665 0.296404 0.586981
1136 4 0.148006 0.299294 0.604932
1135 2 0.152974 0.323208 0.610283
822 4 0.141347 0.31585 0.658334
820 2 0.145681 0.291314 0.660437
1064 4 0.154507 0.330645 0.656172
796 2 0.227025 0.281561 0.587138
797 4 0.243576 0.28162 0.605878
791 4 0.258489 0.293295 0.599816
790 2 0.279712 0.306167 0.596807
792 4 0.300936 0.319039 0.593797
872 4 0.333284 0.287576 0.590574
871 2 0.355881 0.292733 0.599954
813 4 0.387826 0.31482 0.60839
873 4 0.378477 0.297891 0.609333
954 4 0.49528 0.260233 0.597855
3123 4 0.481846 0.260905 0.655317
1041 4 0.0525515 0.379472 0.629277
3264 4 0.0398243 0.367817 0.641887
3240 4 0.035487 0.384319 0.634342
3238 2 0.0177436 0.397999 0.645442
1039 2 0.0723456 0.382346 0.614273
3262 2 0.0479929 0.349504 0.656824
1137 4 0.157941 0.347122 0.615634
1040 4 0.0921397 0.385221 0.59927
993 4 0.109155 0.38694 0.612018
991 2 0.130284 0.37408 0.608359
992 4 0.151412 0.361221 0.6047
897 4 0.1701 0.353739 0.601871
1189 2 0.244424 0.367627 0.605232
896 4 0.206774 0.384869 0.615532
895 2 0.188437 0.369304 0.608701
1172 4 0.231972 0.396577 0.605082
1191 4 0.226481 0.38078 0.616644
1238 4 0.295897 0.33932 0.598456
1190 4 0.262368 0.354474 0.593821
1239 4 0.329282 0.375674 0.606492
1237 2 0.31259 0.357497 0.602474
930 4 0.32909 0.386909 0.588786
806 4 0.252532 0.359157 0.66592
811 2 0.389192 0.339115 0.602641
1204 2 0.372105 0.386985 0.636813
1205 4 0.366145 0.389367 0.660979
1206 4 0.378065 0.384604 0.612647
927 4 0.396362 0.379597 0.605493
812 4 0.390559 0.363411 0.596892
925 2 0.414755 0.391341 0.593288
1002 4 0.438091 0.416463 0.596172
1159 2 0.138105 0.486691 0.58889
1161 4 0.161394 0.483942 0.597566
1188 4 0.171703 0.47474 0.611494
1171 2 0.227454 0.419907 0.612857
1186 2 0.193721 0.463498 0.607753
1173 4 0.222936 0.443237 0.620633
1187 4 0.215739 0.452257 0.604012
2172 4 0.165571 0.476988 0.660298
1911 4 0.460535 0.478665 0.5843
1001 4 0.456161 0.463065 0.594607
1000 2 0.447126 0.439764 0.59539
1269 4 0.465494 0.47662 0.603984
1267 2 0.460553 0.489716 0.624703
943 2 0.0515181 0.0299599 0.688038
944 4 0.0680388 0.0473081 0.6952
1076 4 0.0790393 0.0610979 0.686978
1075 2 0.0757773 0.0782716 0.704856
945 4 0.0349974 0.0126117 0.680877
825 4 0.171223 0.0532401 0.673003
1149 4 0.223665 0.0461364 0.703356
1283 4 0.16346 0.0587848 0.690598
823 2 0.185713 0.0329868 0.670766
1147 2 0.232703 0.0665443 0.692085
1148 4 0.24174 0.0869522 0.680815
1092 4 0.319895 0.0129777 0.679981
41 1 0.452843 0.0721953 0.668539
43 3 0.430293 0.0761446 0.672323
42 3 0.456385 0.0494799 0.667756
1163 4 0.469536 0.0593938 0.683299
1162 2 0.487094 0.0504937 0.698716
2321 4 0.494612 0.0393721 0.730038
4581 4 0.496269 0.0212237 0.735304
864 4 0.0662968 0.0881417 0.738881
1077 4 0.0725153 0.0954452 0.722733
851 4 0.0769353 0.114211 0.727543
850 2 0.067603 0.134679 0.716626
852 4 0.0582707 0.155146 0.705709
1107 4 0.0822924 0.0995755 0.739169
1282 2 0.161069 0.0833524 0.694585
1284 4 0.158678 0.10792 0.698572
909 4 0.170283 0.123146 0.694307
907 2 0.190421 0.133591 0.683794
908 4 0.210559 0.144036 0.673281
1227 4 0.226968 0.139622 0.682651
1225 2 0.241928 0.119589 0.682876
1194 4 0.303413 0.143245 0.666446
887 4 0.284568 0.145525 0.667671
1226 4 0.256888 0.0995556 0.683101
829 2 0.308715 0.128196 0.701886
1005 4 0.333903 0.104845 0.711627
830 4 0.295653 0.138318 0.683122
831 4 0.321777 0.118073 0.720651
1003 2 0.340987 0.0918035 0.731749
44 3 0.465464 0.0811643 0.68582
1113 4 0.451083 0.116592 0.731659
1111 2 0.455914 0.0991622 0.748923
1025 4 0.429246 0.167042 0.672999
1072 2 0.095387 0.248135 0.748536
1130 4 0.132116 0.244196 0.741712
1208 4 0.131568 0.248451 0.72376
1074 4 0.114602 0.248759 0.732549
976 2 0.314375 0.21548 0.730778
977 4 0.295442 0.224058 0.744676
978 4 0.333307 0.206902 0.71688
1024 2 0.437429 0.178503 0.69366
1142 4 0.443255 0.181799 0.73109
1144 2 0.482887 0.172024 0.729226
1262 4 0.460146 0.202335 0.71461
1026 4 0.445612 0.189963 0.714321
1261 2 0.469756 0.22172 0.702078
1145 4 0.46174 0.183404 0.722264
1263 4 0.479365 0.241105 0.689546
1141 2 0.430673 0.177822 0.752328
1177 2 0.0202616 0.259694 0.72482
1179 4 0.0422591 0.270747 0.720447
3263 4 0.0561615 0.331191 0.67176
821 4 0.150014 0.266779 0.662539
1209 4 0.154618 0.265935 0.68297
1207 2 0.143093 0.257193 0.703365
1019 4 0.379454 0.280091 0.69898
1018 2 0.363049 0.298942 0.699817
1020 4 0.346643 0.317792 0.700653
892 2 0.0189726 0.349482 0.736157
1279 2 0.0556402 0.395634 0.741518
894 4 0.0418804 0.357583 0.742055
1280 4 0.0549494 0.370798 0.738717
816 4 0.059473 0.35072 0.738828
814 2 0.0839236 0.345729 0.740389
815 4 0.108374 0.340738 0.741949
1063 2 0.173678 0.341702 0.667807
1065 4 0.192849 0.352758 0.679443
807 4 0.20458 0.345053 0.664379
1028 4 0.218455 0.392961 0.710991
1066 2 0.19323 0.373626 0.741491
1068 4 0.207931 0.381707 0.722949
1027 2 0.23156 0.40639 0.694465
805 2 0.228556 0.352105 0.665149
1281 4 0.0563309 0.420471 0.744319
1983 4 0.0689703 0.429518 0.730692
2016 4 0.148927 0.491516 0.729058
1176 4 0.162572 0.492171 0.714508
1981 2 0.081816 0.445491 0.74501
1140 4 0.251656 0.436982 0.666074
1175 4 0.206285 0.468561 0.7202
1174 2 0.184429 0.480366 0.717354
1029 4 0.244666 0.419819 0.67794
1138 2 0.270657 0.45062 0.674915
1139 4 0.289658 0.464258 0.683756
1987 2 0.278766 0.454106 0.730815
1229 4 0.297667 0.461098 0.70016
1989 4 0.293184 0.469925 0.717889
2028 4 0.291813 0.477002 0.700009
1228 2 0.322357 0.45915 0.696727
1988 4 0.264349 0.438287 0.743741
2026 2 0.286381 0.500325 0.692817
1230 4 0.347047 0.457203 0.693294
1099 2 0.44466 0.49175 0.676784
1100 4 0.434754 0.473316 0.690468
2989 2 0.0250034 0.0519029 0.790358
2990 4 0.0202244 0.0701926 0.773993
2991 4 0.0297825 0.0336132 0.806724
863 4 0.0219824 0.0862996 0.76198
3083 4 0.00756203 0.0771538 0.761897
2047 2 0.122503 0.997029 0.786831
2049 4 0.105612 0.0150752 0.790599
1202 4 0.109127 0.0354245 0.791511
1201 2 0.121561 0.0570354 0.793394
1203 4 0.133995 0.0786464 0.795276
817 2 0.332323 0.0545278 0.806219
819 4 0.328643 0.0780839 0.813753
1050 4 0.338819 0.0154009 0.769164
1004 4 0.348072 0.0787617 0.751871
973 2 0.359052 0.00151682 0.798432
818 4 0.336003 0.0309717 0.798686
974 4 0.339298 0.0134108 0.788763
2322 4 0.486796 0.0578755 0.775833
845 4 0.471954 0.0691988 0.78068
1112 4 0.460744 0.0817325 0.766187
844 2 0.473391 0.0830031 0.801478
2320 2 0.490704 0.0486238 0.752935
862 2 0.0441396 0.0872207 0.750431
833 4 0.0130816 0.0871231 0.778771
832 2 0.0114183 0.104528 0.796645
834 4 0.00975496 0.121932 0.81452
1125 4 0.020951 0.12132 0.830757
1105 2 0.098445 0.102722 0.757994
1106 4 0.114598 0.105869 0.776818
911 4 0.140206 0.0986817 0.822707
34 3 0.132249 0.0968801 0.781296
31 1 0.147643 0.10168 0.797981
35 3 0.139625 0.11822 0.811427
32 3 0.151144 0.0827313 0.810544
33 3 0.167791 0.108236 0.788521
1256 4 0.224978 0.120501 0.802774
840 4 0.220338 0.121211 0.823651
1255 2 0.24705 0.113817 0.793113
1085 4 0.32199 0.0910044 0.800988
1257 4 0.269122 0.107133 0.783452
1084 2 0.303794 0.0994386 0.786057
1086 4 0.285598 0.107873 0.771126
960 4 0.330362 0.0960863 0.818198
48 3 0.401596 0.158319 0.775152
47 3 0.413059 0.154995 0.810792