ITEM: TIMESTEP
2480000
ITEM: NUMBER OF ATOMS
4590
ITEM: BOX BOUNDS pp pp pp
-9.9985700000000008e+00 9.9985700000000008e+00
-9.9985700000000008e+00 9.9985700000000008e+00
-9.9985700000000008e+00 9.9985700000000008e+00
ITEM: ATOMS id type xs ys zs
1667 4 0.0158913 0.0875176 0.0655183
1666 2 0.018476 0.062729 0.0675243
1668 4 0.0210607 0.0379404 0.0695302
2974 2 0.466653 0.0097979 0.0146488
745 2 0.443408 0.0701045 0.00901508
747 4 0.441855 0.0454788 0.00497268
2975 4 0.453341 0.0301679 0.00890282
986 4 0.434473 0.027419 0.00461247
701 4 0.0199797 0.106507 0.0678506
700 2 0.0410951 0.119013 0.0726359
702 4 0.0622105 0.13152 0.0774212
566 4 0.224118 0.148131 0.0569762
565 2 0.227998 0.153735 0.0329197
567 4 0.231879 0.15934 0.00886332
297 4 0.348014 0.103367 0.0447049
295 2 0.355203 0.109427 0.0215366
556 2 0.406425 0.109292 0.000189561
296 4 0.362392 0.115488 0.998368
557 4 0.382278 0.112453 0.994523
558 4 0.430572 0.106131 0.00585588
746 4 0.444961 0.0947302 0.0130575
555 4 0.0250282 0.230777 0.984838
738 4 0.230311 0.200833 0.0762522
1292 4 0.335638 0.203356 0.992038
770 4 0.402672 0.194918 0.0281899
359 4 0.383226 0.199315 0.0314438
664 2 0.396634 0.21392 0.0623394
665 4 0.394822 0.194956 0.0461451
666 4 0.398447 0.232884 0.0785336
323 4 0.406787 0.250028 0.0765309
358 2 0.361654 0.195025 0.0195505
769 2 0.417376 0.184118 0.0110917
360 4 0.340083 0.190735 0.00765722
292 2 0.143764 0.30947 0.0479219
293 4 0.162392 0.322118 0.0587944
294 4 0.125136 0.296823 0.0370495
552 4 0.16435 0.333499 0.0761293
507 4 0.17647 0.322191 0.0665979
287 4 0.179823 0.327985 0.0490765
286 2 0.195648 0.323054 0.0303559
505 2 0.188595 0.304721 0.0797497
481 2 0.223132 0.262279 0.0690654
482 4 0.241253 0.246085 0.0631857
288 4 0.211472 0.318124 0.0116354
483 4 0.205012 0.278473 0.074945
573 4 0.260673 0.252441 0.0590646
571 2 0.274314 0.260551 0.0397428
572 4 0.287954 0.268661 0.020421
357 4 0.299794 0.264514 0.005034
956 4 0.336617 0.316254 0.0128314
1069 2 0.411923 0.312271 0.0368802
322 2 0.421448 0.264102 0.0619667
955 2 0.357251 0.318547 0.0267651
957 4 0.377886 0.320841 0.0406988
1071 4 0.394618 0.330244 0.0385128
324 4 0.43611 0.278177 0.0474025
1070 4 0.429228 0.294297 0.0352477
280 2 0.460953 0.303262 0.0599916
282 4 0.44662 0.292751 0.0424061
455 4 0.168839 0.340008 0.0588158
454 2 0.163371 0.362181 0.0486346
456 4 0.157903 0.384353 0.0384535
1290 4 0.277833 0.398119 0.0260219
250 2 0.264363 0.399328 0.0633975
1288 2 0.278499 0.377899 0.0113289
251 4 0.262492 0.402649 0.0386862
741 4 0.383626 0.332293 0.055064
739 2 0.38591 0.340956 0.0784075
1788 4 0.07682 0.475324 0.0466095
1786 2 0.0949214 0.492395 0.0490767
626 4 0.212238 0.475326 0.0665737
625 2 0.193784 0.492196 0.0665251
245 4 0.210789 0.45453 0.0637937
244 2 0.228341 0.440208 0.0532114
246 4 0.245893 0.425886 0.042629
627 4 0.175329 0.509067 0.0664765
272 4 0.265691 0.423674 0.039292
271 2 0.275136 0.431834 0.0176268
1672 2 0.401845 0.43477 0.0686069
853 2 0.391827 0.432645 0.0150069
1674 4 0.417254 0.437196 0.0490657
854 4 0.410732 0.434106 0.0313055
564 4 0.429198 0.435832 0.0331224
563 4 0.464565 0.466712 0.015907
562 2 0.446882 0.451272 0.0245147
228 4 0.475385 0.472621 0.0313131
226 2 0.491073 0.477761 0.0500922
19 3 0.057272 0.0409284 0.152827
18 3 0.056813 0.0030487 0.149773
16 1 0.0543036 0.0209742 0.164291
582 4 0.233713 0.079876 0.141624
491 4 0.292818 0.06014 0.0767977
490 2 0.283251 0.0431975 0.0925013
1475 4 0.267585 0.0125179 0.122687
492 4 0.273684 0.026255 0.108205
581 4 0.264969 0.0515016 0.168432
580 2 0.249341 0.0656888 0.155028
486 4 0.386949 0.022827 0.118677
484 2 0.408248 0.035892 0.11775
485 4 0.429546 0.048957 0.116823
2722 2 0.473073 0.0667568 0.152459
2724 4 0.483885 0.0442812 0.15069
1759 2 0.498601 0.025486 0.114111
1760 4 0.490644 0.0386102 0.13385
2744 4 0.49289 0.0279166 0.152005
476 4 0.07104 0.139686 0.0943941
475 2 0.071755 0.155264 0.113939
737 4 0.229446 0.158681 0.103145
236 4 0.17925 0.112194 0.167356
628 2 0.382634 0.146653 0.155585
2723 4 0.462261 0.0892323 0.154228
477 4 0.0724699 0.170843 0.133483
339 4 0.0157106 0.217602 0.161838
736 2 0.229879 0.179757 0.0896984
460 2 0.317034 0.221234 0.12654
461 4 0.29362 0.212527 0.127605
354 4 0.273631 0.218108 0.130409
352 2 0.267021 0.234322 0.148258
353 4 0.260411 0.250536 0.166108
630 4 0.385293 0.17069 0.149238
623 4 0.389061 0.249988 0.0836248
254 4 0.383659 0.189538 0.154912
462 4 0.340448 0.229941 0.125475
255 4 0.356549 0.227165 0.136204
253 2 0.370104 0.208351 0.145558
765 4 0.349382 0.244363 0.136391
624 4 0.356762 0.237822 0.119812
622 2 0.372912 0.243905 0.101718
506 4 0.200719 0.287251 0.0929014
537 4 0.202633 0.280799 0.111187
535 2 0.191073 0.28931 0.131659
536 4 0.179513 0.297821 0.152131
301 2 0.321399 0.313824 0.144389
302 4 0.320788 0.330581 0.125842
303 4 0.322011 0.297068 0.162937
763 2 0.34198 0.26357 0.150585
12 3 0.413312 0.332097 0.130269
281 4 0.475287 0.313773 0.077577
671 4 0.457147 0.321755 0.0851466
527 4 0.474035 0.325567 0.092663
647 4 0.0502528 0.356375 0.161666
550 2 0.148967 0.338779 0.0951197
551 4 0.133583 0.344059 0.11411
289 2 0.21628 0.389205 0.148745
290 4 0.23037 0.402219 0.132705
291 4 0.20219 0.376191 0.164786
416 4 0.199332 0.392955 0.174468
387 4 0.321319 0.350041 0.118264
252 4 0.266235 0.396008 0.0881088
609 4 0.280857 0.394336 0.100937
607 2 0.298307 0.405982 0.11454
385 2 0.345764 0.351643 0.11326
493 2 0.384259 0.390423 0.0972359
495 4 0.386911 0.366227 0.102958
386 4 0.37021 0.353244 0.108256
15 3 0.377824 0.339398 0.121316
740 4 0.388193 0.349618 0.101751
672 4 0.418676 0.343694 0.108371
14 3 0.405234 0.362308 0.10942
11 1 0.397855 0.348767 0.126758
13 3 0.395735 0.361248 0.146204
494 4 0.381607 0.414618 0.0915136
670 2 0.437911 0.332724 0.0967586
1791 4 0.0413817 0.498698 0.109182
1466 4 0.0511824 0.481889 0.113854
1465 2 0.0650241 0.46492 0.101785
1467 4 0.0788659 0.447951 0.0897171
638 4 0.227235 0.480014 0.12791
766 2 0.239708 0.444682 0.131192
768 4 0.236602 0.42003 0.128397
767 4 0.242814 0.469334 0.133987
608 4 0.315757 0.417628 0.128143
659 4 0.323421 0.428645 0.11428
660 4 0.370561 0.431856 0.0979012
1673 4 0.386436 0.432344 0.088148
658 2 0.346991 0.43025 0.106091
1559 4 0.386419 0.491211 0.140652
524 4 0.39524 0.471714 0.144111
523 2 0.391012 0.457644 0.123879
525 4 0.386783 0.443575 0.103647
596 4 0.489301 0.449974 0.138944
17 3 0.0330399 0.0205251 0.173055
2480 4 0.0135932 0.0203156 0.173573
2479 2 0.00418327 0.0424244 0.18049
20 3 0.0694364 0.0194241 0.18124
578 4 0.0729529 0.039552 0.169488
380 4 0.0112057 0.0766916 0.188248
577 2 0.0893036 0.0570611 0.176648
689 4 0.155668 0.0097345 0.216012
674 4 0.139447 0.0199415 0.218603
673 2 0.122554 0.00675295 0.231482
675 4 0.105661 0.993564 0.244361
1504 2 0.23483 0.00646585 0.183034
688 2 0.175716 0.999872 0.204788
1506 4 0.256529 0.0179589 0.178316
654 4 0.268022 0.0331952 0.17544
652 2 0.289285 0.0249905 0.185723
653 4 0.310548 0.0167858 0.196007
693 4 0.254561 0.0546665 0.230618
691 2 0.259677 0.0677467 0.251304
758 4 0.34364 0.0751193 0.197606
759 4 0.34625 0.0595717 0.245063
757 2 0.344945 0.0673455 0.221335
311 4 0.362608 0.0766285 0.190302
2743 2 0.505867 0.0240137 0.173018
379 2 0.0281473 0.0946626 0.184348
511 2 0.0561991 0.146179 0.174709
512 4 0.0378093 0.129336 0.172887
381 4 0.0450888 0.112634 0.180449
513 4 0.0745889 0.163021 0.176531
450 4 0.117963 0.0890815 0.176602
579 4 0.105654 0.0745702 0.183808
448 2 0.139202 0.101722 0.172823
449 4 0.160442 0.114362 0.169044
237 4 0.214317 0.0849713 0.144336
235 2 0.196783 0.0985829 0.155846
28 3 0.300467 0.149035 0.23109
26 1 0.318369 0.159384 0.241617
312 4 0.393288 0.108488 0.166969
629 4 0.379975 0.122615 0.161932
310 2 0.377948 0.0925581 0.178635
27 3 0.332516 0.167884 0.225593
521 4 0.493693 0.131786 0.209864
762 4 0.480911 0.125628 0.222824
760 2 0.460353 0.132073 0.235514
761 4 0.439796 0.138518 0.248204
332 4 0.500892 0.119306 0.222314
393 4 0.0703981 0.180023 0.184958
337 2 0.0209104 0.236496 0.177368
391 2 0.0889717 0.195546 0.191221
392 4 0.107545 0.211069 0.197484
279 4 0.270403 0.220357 0.219112
277 2 0.264 0.237269 0.201845
278 4 0.257598 0.254181 0.184577
394 2 0.014903 0.265291 0.232798
395 4 0.0319499 0.274614 0.21706
338 4 0.0261101 0.25539 0.192897
363 4 0.0372578 0.270033 0.199685
361 2 0.0520242 0.290164 0.201061
749 4 0.0525735 0.323716 0.211347
648 4 0.0660595 0.326509 0.198529
362 4 0.0667905 0.310294 0.202436
372 4 0.0841894 0.320982 0.198991
370 2 0.106249 0.319471 0.210665
371 4 0.128308 0.31796 0.222339
734 4 0.131949 0.329039 0.237321
733 2 0.152448 0.321333 0.249386
299 4 0.128542 0.339581 0.254698
755 4 0.241596 0.251246 0.174784
754 2 0.237619 0.2757 0.171413
756 4 0.233642 0.300154 0.168042
611 4 0.23796 0.333264 0.227144
610 2 0.237932 0.324786 0.203622
612 4 0.237905 0.316307 0.1801
764 4 0.334577 0.282776 0.16478
284 4 0.274999 0.257982 0.177158
283 2 0.295777 0.271817 0.175727
285 4 0.316555 0.285653 0.174295
308 4 0.330755 0.292887 0.18051
729 4 0.31643 0.30559 0.179018
727 2 0.304618 0.320936 0.194834
307 2 0.343059 0.285418 0.200955
309 4 0.355363 0.277949 0.2214
498 4 0.349612 0.26934 0.238733
748 2 0.0570716 0.331849 0.234559
646 2 0.0581561 0.341442 0.180098
417 4 0.169765 0.402149 0.213736
415 2 0.184549 0.397552 0.194102
728 4 0.292806 0.336283 0.21065
446 4 0.379684 0.364025 0.237297
445 2 0.402408 0.370894 0.229447
447 4 0.425132 0.377763 0.221598
644 4 0.439742 0.389607 0.217695
643 2 0.456203 0.406059 0.208554
414 4 0.246778 0.489843 0.214572
412 2 0.23825 0.472722 0.230676
1574 4 0.336208 0.513902 0.241029
595 2 0.480921 0.437574 0.158974
645 4 0.472663 0.422511 0.199414
597 4 0.472541 0.425173 0.179003
229 2 0.461887 0.485721 0.224923
231 4 0.46386 0.465396 0.210495
2755 2 0.0110027 0.0714182 0.309309
234 4 0.0254897 0.0362056 0.290193
232 2 0.0495452 0.0345881 0.296818
233 4 0.0736008 0.0329707 0.303443
2756 4 0.0196081 0.0559313 0.291666
2478 4 0.0118397 0.0442973 0.279627
317 4 0.0901048 0.0347217 0.312648
1404 4 0.0880491 0.0194172 0.301483
428 4 0.0940243 0.0151933 0.319226
316 2 0.0955597 0.0590463 0.310716
1402 2 0.0943822 0.0051292 0.281966
606 4 0.160933 0.0989269 0.335186
24 3 0.324633 0.0576894 0.282069
25 3 0.333005 0.0412633 0.24924
350 4 0.364727 0.0670699 0.251383
21 1 0.34157 0.048746 0.268971
23 3 0.351919 0.0312975 0.280234
22 3 0.357142 0.0651397 0.264739
349 2 0.389534 0.0694754 0.253376
351 4 0.414342 0.0718809 0.255369
480 4 0.425052 0.0542521 0.254154
479 4 0.454323 0.0279052 0.284971
478 2 0.439687 0.0410787 0.269563
2664 4 0.469202 0.0161949 0.279914
1428 4 0.45397 0.0126635 0.292735
258 4 0.445646 0.0260858 0.303318
2662 2 0.492357 0.020606 0.288255
256 2 0.437554 0.0352039 0.325148
2757 4 0.00239739 0.0869051 0.326952
318 4 0.101015 0.083371 0.308783
732 4 0.109263 0.085124 0.325045
399 4 0.0922435 0.0919293 0.326046
721 2 0.257553 0.106255 0.305598
692 4 0.264793 0.0808269 0.27199
723 4 0.257912 0.0960059 0.282795
722 4 0.257194 0.116505 0.328402
29 3 0.329999 0.143955 0.254467
632 4 0.355818 0.0836554 0.257732
631 2 0.34636 0.106796 0.258223
707 4 0.33509 0.144516 0.272241
633 4 0.336902 0.129936 0.258714
706 2 0.343515 0.149202 0.295311
708 4 0.35194 0.153887 0.318381
442 2 0.988473 0.258246 0.286153
444 4 0.978802 0.249481 0.30748
546 4 0.130704 0.213157 0.241858
544 2 0.150559 0.224299 0.252193
545 4 0.170414 0.235441 0.262528
402 4 0.182306 0.236656 0.27749
473 4 0.221593 0.173961 0.344524
30 3 0.31087 0.176385 0.254784
419 4 0.40732 0.242121 0.318345
269 4 0.403739 0.226518 0.330314
678 4 0.168677 0.321748 0.321064
375 4 0.157199 0.313772 0.335368
344 4 0.229432 0.325653 0.242856
343 2 0.21002 0.314645 0.254134
400 2 0.184829 0.261317 0.274226
401 4 0.187353 0.285978 0.270962
676 2 0.173006 0.31187 0.298506
345 4 0.190608 0.303637 0.265412
677 4 0.177334 0.301991 0.275948
735 4 0.172947 0.313627 0.261452
378 4 0.299108 0.260059 0.319661
376 2 0.300695 0.27642 0.30082
496 2 0.334153 0.276848 0.256894
497 4 0.318694 0.284355 0.275055
377 4 0.302282 0.292781 0.281979
541 2 0.382902 0.30775 0.292028
542 4 0.400442 0.290622 0.28711
420 4 0.417375 0.278463 0.285498
543 4 0.365363 0.324878 0.296946
418 2 0.412347 0.260292 0.301921
364 2 0.0122128 0.379278 0.292672
365 4 0.0368818 0.383209 0.291595
601 2 0.0582853 0.392594 0.323811
603 4 0.04809 0.396906 0.301391
750 4 0.0615697 0.339982 0.257771
300 4 0.0799911 0.34966 0.261171
298 2 0.104267 0.34462 0.257934
510 4 0.168975 0.340218 0.328743
508 2 0.184335 0.359947 0.328988
509 4 0.199694 0.379675 0.329233
434 4 0.31683 0.371544 0.31736
614 4 0.324578 0.365654 0.299659
433 2 0.309873 0.393348 0.327426
615 4 0.346537 0.321284 0.292598
613 2 0.335558 0.343469 0.296129
1757 4 0.0397071 0.444694 0.251311
1758 4 0.077597 0.476858 0.256835
1756 2 0.058652 0.460776 0.254073
264 4 0.0215475 0.434951 0.253995
776 4 0.0634859 0.49218 0.330499
775 2 0.0683439 0.492493 0.305974
1775 4 0.0828412 0.495695 0.264272
777 4 0.0732018 0.492807 0.281449
413 4 0.229721 0.455602 0.246779
1436 4 0.237227 0.437149 0.251082
1435 2 0.239603 0.443018 0.275271
1437 4 0.241979 0.448887 0.299459
4 3 0.257485 0.442324 0.310618
3 3 0.281286 0.471619 0.306178
1 1 0.266401 0.461253 0.320648
436 2 0.316414 0.469233 0.329134
438 4 0.292052 0.465272 0.325137
1801 2 0.363214 0.495724 0.316438
1802 4 0.340289 0.485813 0.317608
437 4 0.340776 0.473193 0.333132
119 3 0.4868 0.459754 0.326425
427 2 0.0969677 0.0105723 0.343622
604 2 0.18279 0.0918055 0.345021
605 4 0.204648 0.084684 0.354855
248 4 0.218505 0.0813834 0.368679
425 4 0.343815 0.995224 0.416403
1701 4 0.346375 0.995313 0.396298
699 4 0.372314 0.046288 0.363484
1699 2 0.351131 0.015243 0.381968
1700 4 0.355887 0.035173 0.367638
697 2 0.397001 0.0501726 0.36267
698 4 0.421688 0.0540572 0.361855
257 4 0.429463 0.0443221 0.346979
397 2 0.0714481 0.100804 0.336722
398 4 0.0506527 0.109679 0.347397
2584 2 0.0177254 0.106848 0.352594
2586 4 0.0381038 0.119578 0.35951
458 4 0.0406491 0.128314 0.37766
457 2 0.0368523 0.138565 0.400147
731 4 0.147799 0.108639 0.346556
730 2 0.128531 0.0968814 0.335801
600 4 0.0940605 0.145309 0.367189
598 2 0.102153 0.168418 0.372255
247 2 0.236049 0.0948249 0.356988
403 2 0.244552 0.148852 0.337537
249 4 0.253594 0.108266 0.345296
404 4 0.253917 0.127251 0.345954
683 4 0.260491 0.115573 0.361608
682 2 0.281151 0.127396 0.369259
684 4 0.301811 0.139219 0.376911
320 4 0.307536 0.156702 0.369469
319 2 0.326687 0.154286 0.353576
725 4 0.387062 0.09608 0.415178
724 2 0.393094 0.120309 0.413862
717 4 0.394235 0.175179 0.341909
726 4 0.399126 0.144539 0.412546
467 4 0.390494 0.164073 0.409024
599 4 0.110245 0.191527 0.377322
389 4 0.117831 0.222119 0.371878
686 4 0.116072 0.207837 0.385833
685 2 0.105192 0.209467 0.408287
275 4 0.124712 0.204393 0.371485
274 2 0.148149 0.200926 0.363494
388 2 0.117816 0.24709 0.370598
405 4 0.235187 0.170454 0.329121
474 4 0.175129 0.190452 0.33617
472 2 0.198361 0.182207 0.340347
276 4 0.171587 0.19746 0.355503
321 4 0.345838 0.151871 0.337683
715 2 0.390399 0.172843 0.366506
716 4 0.386563 0.170508 0.391103
270 4 0.44091 0.204195 0.355229
452 4 0.450206 0.219564 0.364504
268 2 0.422325 0.215357 0.342772
451 2 0.461136 0.226008 0.38605
453 4 0.472066 0.232452 0.407595
2800 2 0.000736386 0.294969 0.41642
347 4 0.0741313 0.329229 0.406475
346 2 0.051659 0.318678 0.409448
348 4 0.0291867 0.308126 0.412421
618 4 0.0897132 0.317934 0.398635
616 2 0.0962585 0.301308 0.381145
390 4 0.117802 0.272061 0.369318
617 4 0.102804 0.284681 0.363655
374 4 0.121417 0.288176 0.359141
373 2 0.139308 0.300974 0.347255
549 4 0.0565984 0.398326 0.358849
602 4 0.0684806 0.388281 0.34623
435 4 0.302916 0.415153 0.337493
334 2 0.323147 0.372997 0.413345
238 2 0.369659 0.388944 0.391453
239 4 0.390629 0.395456 0.379494
587 4 0.39759 0.412627 0.373849
335 4 0.343781 0.363353 0.40303
240 4 0.348689 0.382433 0.403413
752 4 0.461313 0.391022 0.381445
561 4 0.470649 0.395369 0.399434
559 2 0.480588 0.388716 0.421391
751 2 0.471997 0.410786 0.370472
500 4 0.0606365 0.488356 0.349823
499 2 0.0702675 0.475008 0.368645
547 2 0.0630607 0.412332 0.378528
501 4 0.0798984 0.461661 0.387467
548 4 0.0695231 0.426339 0.398206
407 4 0.0794443 0.442216 0.39658
406 2 0.101011 0.446554 0.408464
1556 4 0.240363 0.494697 0.401133
1544 4 0.223649 0.503799 0.394711
636 4 0.30752 0.490525 0.409411
5 3 0.249693 0.475677 0.326253
2 3 0.277687 0.454967 0.339681
1557 4 0.290363 0.494496 0.400264
1555 2 0.265363 0.494597 0.400699
586 2 0.390422 0.436581 0.373928
593 4 0.392263 0.478923 0.376485
588 4 0.383254 0.460535 0.374007
592 2 0.409678 0.49347 0.365983
712 2 0.458243 0.486313 0.34246
714 4 0.476596 0.469333 0.342577
753 4 0.482681 0.43055 0.359498
117 3 0.475967 0.452608 0.361698
116 1 0.493479 0.451037 0.346865
2237 4 0.00500389 0.00829567 0.464442
1772 4 0.00415897 0.995912 0.447867
369 4 0.0751575 0.00811926 0.471724
719 4 0.0627224 0.993034 0.47477
718 2 0.0383438 0.993378 0.469225
1781 4 0.110339 0.0110014 0.411195
367 2 0.088245 0.00836012 0.45042
368 4 0.101333 0.00860097 0.429117
962 4 0.333401 0.0121213 0.419691
961 2 0.322955 0.0305034 0.433038
963 4 0.312509 0.0488854 0.446386
432 4 0.31586 0.0622509 0.460353
430 2 0.330035 0.0634268 0.480917
1216 2 0.419443 0.0507497 0.479736
1217 4 0.413935 0.0401613 0.501707
1218 4 0.42495 0.0613382 0.457765
459 4 0.0330555 0.148817 0.422634
260 4 0.0421121 0.166339 0.426758
640 2 0.48819 0.0931554 0.435805
641 4 0.463719 0.0944551 0.440774
259 2 0.0602666 0.183439 0.428548
1033 2 0.0830767 0.236247 0.457674
261 4 0.0784212 0.200538 0.430338
687 4 0.0943117 0.211097 0.43074
1035 4 0.0798948 0.21857 0.440279
1034 4 0.0862586 0.253924 0.475069
488 4 0.302047 0.229953 0.439765
487 2 0.326076 0.234164 0.445246
466 2 0.401479 0.178814 0.425972
468 4 0.412463 0.193554 0.44292
411 4 0.368247 0.235793 0.457646
409 2 0.389554 0.222773 0.456348
410 4 0.41086 0.209753 0.45505
266 4 0.360306 0.253224 0.45954
489 4 0.350105 0.238375 0.450728
575 4 0.424655 0.20606 0.46934
516 4 0.426462 0.204419 0.450407
574 2 0.435601 0.192742 0.487451
514 2 0.444843 0.215726 0.437779
515 4 0.463224 0.227032 0.425151
2456 4 0.506861 0.244723 0.496805
2847 4 0.0114079 0.319978 0.440683
2802 4 0.013906 0.315839 0.420439
696 4 0.102693 0.248903 0.48384
1260 4 0.10183 0.266727 0.47586
1258 2 0.113084 0.288759 0.472241
1259 4 0.124338 0.310792 0.468621
9 3 0.141576 0.315364 0.450947
7 3 0.126964 0.32417 0.484437
6 1 0.135277 0.332859 0.464827
327 4 0.110319 0.331617 0.470481
265 2 0.361585 0.27042 0.477646
1011 4 0.471231 0.328728 0.491203
1009 2 0.463684 0.306037 0.498504
326 4 0.0630817 0.340396 0.484346
2845 2 0.997768 0.335967 0.454228
325 2 0.0867006 0.336007 0.477414
8 3 0.153682 0.346121 0.469707
10 3 0.119145 0.345367 0.454731
336 4 0.302513 0.382642 0.42366
668 4 0.292319 0.397263 0.434223
3308 4 0.473882 0.332971 0.472649
3307 2 0.487639 0.350152 0.460786
1381 2 0.0132828 0.49078 0.463895
569 4 0.137916 0.457542 0.429547
383 4 0.120471 0.451706 0.439355
711 4 0.137876 0.425533 0.482334
568 2 0.155997 0.474793 0.428745
709 2 0.155541 0.424752 0.500012
384 4 0.121604 0.416828 0.475173
408 4 0.122579 0.450892 0.420347
382 2 0.121037 0.434267 0.457264
570 4 0.174078 0.492044 0.427943
774 4 0.331265 0.449209 0.45101
667 2 0.303734 0.419109 0.438426
669 4 0.315149 0.440954 0.442628
634 2 0.311256 0.474773 0.428465
635 4 0.314991 0.45902 0.44752
773 4 0.358409 0.43955 0.491884
772 2 0.344837 0.444379 0.471447
663 4 0.479212 0.485782 0.437962
1152 4 0.193693 0.0545377 0.531163
342 4 0.193236 0.0528466 0.510878
340 2 0.175722 0.0359737 0.516685
1150 2 0.207324 0.0716652 0.543248
341 4 0.158207 0.0191009 0.522492
1031 4 0.28302 0.0692941 0.580289
431 4 0.34421 0.0646026 0.501481
842 4 0.398172 0.0422292 0.514448
841 2 0.373821 0.0478008 0.515525
843 4 0.34947 0.0533724 0.516602
3007 2 0.491526 0.0478335 0.580523
1058 4 0.091713 0.0825024 0.519916
1270 2 0.0830818 0.147018 0.574663
1271 4 0.0988302 0.128582 0.568557
1057 2 0.0978242 0.0988412 0.537829
1059 4 0.103935 0.11518 0.555742
1155 4 0.117749 0.122357 0.566111
939 4 0.105082 0.111788 0.575091
1153 2 0.137438 0.136295 0.572689
1154 4 0.157126 0.150233 0.579266
1151 4 0.220954 0.0887926 0.555333
1180 2 0.222888 0.133248 0.558341
1181 4 0.221204 0.108888 0.552963
1182 4 0.224572 0.157608 0.56372
900 4 0.237692 0.157461 0.578694
1032 4 0.239387 0.085422 0.561938
1030 2 0.261204 0.077358 0.571114
1198 2 0.00153658 0.223812 0.564548
1199 4 0.0211654 0.216985 0.57845
878 4 0.0379555 0.209249 0.585973
695 4 0.0944025 0.248806 0.533155
1272 4 0.0673334 0.165454 0.58077
694 2 0.0985479 0.248855 0.508498
898 2 0.248154 0.179938 0.575456
649 2 0.252916 0.217693 0.533466
651 4 0.243157 0.230325 0.51422
858 4 0.23154 0.244981 0.520526
899 4 0.258616 0.202416 0.572218
650 4 0.262674 0.205061 0.552711
576 4 0.446547 0.179423 0.505562
584 4 0.506793 0.224593 0.502593
856 2 0.219192 0.262259 0.533724
857 4 0.206844 0.279537 0.546921
947 4 0.203975 0.270254 0.564748
946 2 0.186443 0.286432 0.572237
798 4 0.217393 0.261912 0.576776
796 2 0.237791 0.27056 0.588364
267 4 0.362864 0.287615 0.495753
1010 4 0.456136 0.283345 0.505806
2455 2 0.484157 0.254482 0.500612
2457 4 0.461454 0.264241 0.504419
502 2 0.199121 0.400977 0.525663
503 4 0.222745 0.397778 0.533202
504 4 0.175496 0.404176 0.518125
803 4 0.267149 0.364812 0.56282
804 4 0.263923 0.353905 0.514124
802 2 0.265536 0.359359 0.538472
1190 4 0.259685 0.360219 0.580903
1238 4 0.27516 0.358304 0.577844
882 4 0.354469 0.369145 0.508112
929 4 0.361991 0.392642 0.562891
881 4 0.371684 0.377292 0.554351
880 2 0.363077 0.373218 0.531232
539 4 0.103464 0.430006 0.554948
540 4 0.119775 0.477253 0.556483
2244 4 0.112103 0.491418 0.566337
538 2 0.11162 0.453629 0.555716
1160 4 0.128908 0.481493 0.572495
1159 2 0.150948 0.491516 0.578736
710 4 0.173206 0.423971 0.51769
1909 2 0.43664 0.486006 0.569924
1081 2 0.0806835 0.0638416 0.633857
1083 4 0.0803999 0.0766298 0.612373
1126 2 0.0387949 0.0751954 0.599726
1127 4 0.0636538 0.0733638 0.60169
1128 4 0.0139359 0.0770269 0.597762
3077 4 0.994041 0.0743031 0.593218
938 4 0.0997035 0.0791927 0.612633
1082 4 0.0809671 0.0510535 0.655341
824 4 0.193555 0.00767403 0.675574
951 4 0.285975 0.0645762 0.60009
949 2 0.289969 0.0407881 0.606674
950 4 0.293963 0.0170001 0.613258
3008 4 0.483332 0.038037 0.602018
809 4 0.475983 0.0246037 0.617434
808 2 0.466618 0.0409113 0.633912
810 4 0.457253 0.057219 0.65039
45 3 0.456659 0.0800508 0.649287
937 2 0.102393 0.0954901 0.593862
1221 4 0.170049 0.143048 0.592899
1219 2 0.19011 0.154506 0.602462
1211 4 0.234176 0.15055 0.66548
1220 4 0.210171 0.165964 0.612026
1212 4 0.220331 0.175996 0.624718
1210 2 0.227253 0.163273 0.645099
1226 4 0.248229 0.086166 0.670712
1192 2 0.327374 0.148982 0.64311
1193 4 0.336785 0.149596 0.619953
877 2 0.0583911 0.194877 0.586978
1244 4 0.0383609 0.220402 0.603198
879 4 0.0788267 0.180505 0.587983
983 4 0.0191535 0.281944 0.61331
1245 4 0.0340178 0.268535 0.616046
1243 2 0.0361893 0.244469 0.609622
948 4 0.16891 0.302609 0.579727
1135 2 0.16898 0.315933 0.615812
822 4 0.156706 0.330814 0.649337
1136 4 0.171801 0.297914 0.598707
797 4 0.25819 0.279207 0.599952
791 4 0.263811 0.293666 0.587702
790 2 0.265118 0.318629 0.588249
872 4 0.330275 0.281941 0.606077
871 2 0.342776 0.303345 0.609354
813 4 0.375091 0.322854 0.609951
873 4 0.355277 0.32475 0.612631
3123 4 0.493811 0.250834 0.631051
954 4 0.462156 0.273898 0.603515
952 2 0.477812 0.291515 0.595169
953 4 0.493469 0.309133 0.586822
3239 4 0.00568354 0.408135 0.636719
1041 4 0.0506694 0.364369 0.630637
3264 4 0.0334936 0.353265 0.631018
3240 4 0.0345623 0.369799 0.62268
3238 2 0.0201229 0.388967 0.6297
1039 2 0.0753151 0.368406 0.631853
3262 2 0.031486 0.338221 0.650887
1064 4 0.169432 0.345598 0.648781
1137 4 0.166159 0.333951 0.632916
1040 4 0.0999607 0.372443 0.633069
993 4 0.119447 0.378759 0.62967
991 2 0.138393 0.363056 0.634101
992 4 0.157338 0.347352 0.638532
897 4 0.173847 0.352176 0.63106
1189 2 0.242776 0.369104 0.597036
896 4 0.208111 0.380182 0.607771
895 2 0.190979 0.366179 0.619416
1172 4 0.22479 0.392788 0.60189
1191 4 0.225866 0.37799 0.61317
792 4 0.266425 0.343592 0.588797
1239 4 0.321333 0.368427 0.594163
1237 2 0.298247 0.363366 0.586004
928 2 0.34819 0.386399 0.582784
811 2 0.388228 0.343877 0.613209
930 4 0.334389 0.380157 0.602677
1204 2 0.407921 0.380753 0.652486
1206 4 0.398719 0.378145 0.629384
927 4 0.392167 0.381575 0.611258
812 4 0.401366 0.3649 0.616468
925 2 0.407439 0.394921 0.596636
1002 4 0.42814 0.416822 0.59921
1161 4 0.172989 0.501538 0.584976
1188 4 0.186792 0.4894 0.594263
1171 2 0.217483 0.416652 0.600378
1186 2 0.194951 0.468779 0.60581
1173 4 0.210177 0.440517 0.598866
1187 4 0.20311 0.448157 0.617358
926 4 0.422712 0.408267 0.582013
1911 4 0.445707 0.470893 0.58766
1001 4 0.454971 0.459021 0.599414
1000 2 0.441555 0.437922 0.599312
1269 4 0.448542 0.477358 0.605537
1267 2 0.455739 0.486094 0.627832
1101 4 0.459453 0.498409 0.667932
943 2 0.046066 0.0302 0.671094
1076 4 0.0711926 0.060159 0.668587
1075 2 0.0723848 0.0757291 0.688115
945 4 0.0389048 0.00637567 0.673603
944 4 0.0532271 0.0540244 0.668584
1283 4 0.173234 0.068437 0.698927
825 4 0.18581 0.0525832 0.696162
823 2 0.189683 0.0301286 0.685868
1148 4 0.247063 0.0871502 0.690598
1147 2 0.238896 0.0721814 0.708885
1149 4 0.230728 0.0572126 0.727172
1092 4 0.310225 0.00540618 0.687707
1003 2 0.318456 0.0693158 0.722353
1004 4 0.315337 0.0523137 0.740419
2321 4 0.493095 0.0289766 0.738867
41 1 0.448942 0.0728583 0.66947
43 3 0.427063 0.0799414 0.672562
42 3 0.449464 0.0498677 0.670026
1163 4 0.461412 0.0584393 0.686412
1162 2 0.474837 0.0480306 0.704758
44 3 0.462409 0.0810808 0.686483
1164 4 0.488262 0.0376219 0.723105
4581 4 0.500849 0.0114359 0.73778
864 4 0.0615709 0.0929035 0.721982
1077 4 0.0735771 0.0912991 0.707643
851 4 0.0778353 0.109149 0.703023
850 2 0.0673739 0.130755 0.696029
852 4 0.0569124 0.152361 0.689034
862 2 0.0436285 0.0902759 0.739196
1107 4 0.0785139 0.101409 0.72057
1105 2 0.0966526 0.104782 0.737446
1106 4 0.114791 0.108155 0.754321
1225 2 0.243757 0.110765 0.671012
1282 2 0.171739 0.0932719 0.701411
1284 4 0.170243 0.118107 0.703894
909 4 0.175171 0.136748 0.69462
907 2 0.198758 0.138202 0.686453
908 4 0.222346 0.139656 0.678286
1227 4 0.239286 0.135363 0.671311
1194 4 0.317964 0.148369 0.666267
888 4 0.25064 0.151297 0.675131
886 2 0.275411 0.153358 0.672427
887 4 0.300182 0.15542 0.669722
829 2 0.319144 0.123288 0.693761
830 4 0.308227 0.142495 0.682054
831 4 0.330062 0.10408 0.705469
1005 4 0.321576 0.086318 0.704287
3424 2 0.487772 0.105106 0.663086
3425 4 0.468929 0.0889918 0.666317
1146 4 0.496038 0.170086 0.71877
1177 2 0.0168032 0.254667 0.71692
1179 4 0.0376019 0.257869 0.703417
1208 4 0.142488 0.253988 0.723698
1130 4 0.144768 0.248983 0.742
977 4 0.314627 0.22731 0.733247
918 4 0.300418 0.236926 0.741558
976 2 0.338073 0.232457 0.726252
978 4 0.36152 0.237605 0.719258
1025 4 0.395879 0.189281 0.687238
1024 2 0.416938 0.19463 0.699612
1142 4 0.438293 0.18986 0.729015
1144 2 0.474512 0.182805 0.718628
1262 4 0.451153 0.213767 0.71343
1026 4 0.437996 0.199979 0.711986
1261 2 0.45332 0.232694 0.729624
1145 4 0.452985 0.195524 0.718485
3263 4 0.0294784 0.323176 0.670757
820 2 0.1432 0.313869 0.661814
1074 4 0.127568 0.256083 0.73797
1207 2 0.135865 0.266681 0.703199
821 4 0.129695 0.296925 0.674291
1209 4 0.129241 0.279374 0.682701
805 2 0.221971 0.330136 0.696367
806 4 0.24408 0.31948 0.701143
1019 4 0.399266 0.273762 0.72998
1018 2 0.387299 0.286812 0.712326
1020 4 0.375333 0.299863 0.694672
1263 4 0.455487 0.251621 0.745818
892 2 0.0233537 0.360805 0.728566
1279 2 0.0526603 0.406492 0.738739
1280 4 0.0546747 0.386699 0.723594
816 4 0.0606545 0.368229 0.731394
893 4 0.00324863 0.346783 0.723633
814 2 0.0782006 0.352881 0.740435
894 4 0.0434587 0.374828 0.733498
815 4 0.0957466 0.337532 0.749476
942 4 0.114155 0.344958 0.750807
1063 2 0.180881 0.35232 0.669969
1065 4 0.192331 0.359042 0.691156
807 4 0.199862 0.340793 0.691591
1028 4 0.223065 0.375211 0.694714
1066 2 0.195923 0.373921 0.730067
1068 4 0.212909 0.379761 0.712672
1027 2 0.22524 0.399956 0.691861
1205 4 0.417123 0.38336 0.675588
1281 4 0.050646 0.426284 0.753884
2016 4 0.167058 0.485272 0.747223
1176 4 0.182487 0.488484 0.735053
1140 4 0.234066 0.442617 0.682822
1175 4 0.178706 0.458251 0.695399
1174 2 0.180597 0.473367 0.715226
1029 4 0.227415 0.424701 0.689008
1138 2 0.252893 0.459046 0.683741
1139 4 0.271719 0.475474 0.684659
1987 2 0.281368 0.451285 0.734055
1229 4 0.28552 0.474762 0.699786
1989 4 0.277942 0.467888 0.715676
2028 4 0.271532 0.483971 0.701873
1228 2 0.307711 0.469787 0.689392
1230 4 0.329901 0.464812 0.678999
1988 4 0.284794 0.434682 0.752434
1099 2 0.443159 0.495181 0.686621
1100 4 0.426865 0.491954 0.70531
2989 2 0.0326132 0.0562264 0.782108
2990 4 0.0215529 0.0753025 0.77032
2991 4 0.0436735 0.0371503 0.793895
2049 4 0.106602 0.018373 0.779229
1202 4 0.0947063 0.0351067 0.782811
1201 2 0.103424 0.0584645 0.784705
1203 4 0.112142 0.0818222 0.7866
1257 4 0.268149 0.102903 0.780184
819 4 0.334966 0.0565553 0.81615
1085 4 0.317749 0.0648547 0.809377
1084 2 0.298575 0.0787803 0.801401
1086 4 0.279401 0.092706 0.793425
960 4 0.32234 0.0646445 0.828098
817 2 0.340035 0.0356292 0.803439
1050 4 0.360986 0.993556 0.770817
818 4 0.345105 0.0147031 0.790728
974 4 0.364266 0.00730976 0.785368
2322 4 0.481248 0.052517 0.781366
845 4 0.494797 0.0678561 0.781829
844 2 0.4912 0.0694301 0.806523
2320 2 0.487171 0.0407468 0.760116
846 4 0.487604 0.071004 0.831216
1112 4 0.488357 0.085518 0.775627
863 4 0.0256861 0.0876483 0.756411
3083 4 0.00676607 0.083323 0.761341
833 4 0.0175382 0.0955257 0.771517
832 2 0.023615 0.112707 0.788635
834 4 0.0296917 0.129889 0.805753
1125 4 0.0323876 0.14463 0.821801
32 3 0.13126 0.0858067 0.798547
911 4 0.128272 0.10221 0.813986
34 3 0.109051 0.102049 0.772942
31 1 0.126696 0.10552 0.787606
35 3 0.121086 0.121452 0.802881
33 3 0.145582 0.112122 0.775852
910 2 0.130712 0.0971926 0.83836
1256 4 0.229429 0.123953 0.803814
840 4 0.225789 0.141602 0.812103
1255 2 0.248789 0.113428 0.791999