ITEM: TIMESTEP
1590000
ITEM: NUMBER OF ATOMS
4590
ITEM: BOX BOUNDS pp pp pp
-9.9985700000000008e+00 9.9985700000000008e+00
-9.9985700000000008e+00 9.9985700000000008e+00
-9.9985700000000008e+00 9.9985700000000008e+00
ITEM: ATOMS id type xs ys zs
1666 2 0.0595626 0.0653401 0.068882
1668 4 0.0418304 0.0487187 0.0630101
747 4 0.463859 0.0637435 0.0187991
2974 2 0.479246 0.0247595 0.023728
2976 4 0.485924 0.00185859 0.0312201
2975 4 0.472568 0.0476603 0.0162359
986 4 0.460074 0.0511746 0.00295365
745 2 0.451442 0.0838638 0.0269348
2264 4 0.255364 0.149348 0.014452
297 4 0.329932 0.0833897 0.0300523
295 2 0.347644 0.0975886 0.0195713
296 4 0.365356 0.111788 0.00909016
556 2 0.402553 0.107159 0.0107728
771 4 0.413268 0.140667 0.0363243
769 2 0.399696 0.161559 0.034195
558 4 0.424107 0.108151 0.023407
746 4 0.439026 0.103984 0.0350705
566 4 0.166125 0.191729 0.0340767
565 2 0.189713 0.188125 0.0266073
567 4 0.213301 0.184522 0.0191379
360 4 0.318348 0.185487 0.0407523
358 2 0.343278 0.186709 0.0392783
770 4 0.386125 0.18245 0.0320657
359 4 0.368208 0.18793 0.0378043
664 2 0.39188 0.212628 0.0616557
665 4 0.383523 0.193326 0.0481371
666 4 0.400237 0.231931 0.0751743
323 4 0.407809 0.249359 0.0741833
555 4 0.0786793 0.286315 0.0374672
553 2 0.0766573 0.272731 0.0165726
287 4 0.154161 0.320263 0.0390579
292 2 0.14761 0.282451 0.0277873
507 4 0.154498 0.308841 0.0542118
293 4 0.142814 0.304089 0.0393614
551 4 0.0989811 0.32516 0.0899882
294 4 0.152406 0.260813 0.0162132
505 2 0.17478 0.306383 0.0686274
481 2 0.233585 0.298718 0.0627265
483 4 0.210109 0.297671 0.0712676
506 4 0.195061 0.303925 0.083043
573 4 0.265427 0.281773 0.0482841
482 4 0.257061 0.299765 0.0541853
571 2 0.276056 0.271471 0.028133
572 4 0.286685 0.261168 0.00798199
322 2 0.41088 0.26399 0.054141
1069 2 0.39449 0.300786 0.0149198
324 4 0.41395 0.278621 0.0340988
1070 4 0.412031 0.282977 0.0143486
741 4 0.352221 0.330666 0.0387632
957 4 0.358456 0.32236 0.0213275
1071 4 0.376948 0.318594 0.015491
739 2 0.363735 0.332951 0.0608404
955 2 0.34295 0.318093 0.00218235
671 4 0.453975 0.315406 0.0562201
280 2 0.447636 0.298241 0.0256194
281 4 0.465571 0.306248 0.041093
282 4 0.429702 0.290235 0.0101457
670 2 0.435246 0.324999 0.0697249
286 2 0.158445 0.340516 0.0250351
454 2 0.163697 0.382556 0.061565
455 4 0.141141 0.372163 0.0644635
552 4 0.129607 0.355712 0.064902
550 2 0.114294 0.340436 0.0774451
288 4 0.16273 0.360769 0.0110123
456 4 0.186252 0.392949 0.0586664
250 2 0.271978 0.408385 0.0420016
251 4 0.274468 0.393363 0.0221693
1290 4 0.290791 0.397392 0.0115289
252 4 0.269489 0.423407 0.061834
740 4 0.375248 0.335235 0.0829176
495 4 0.388563 0.363084 0.0743616
493 2 0.386732 0.387707 0.0783043
14 3 0.394778 0.34295 0.0784756
494 4 0.3849 0.41233 0.082247
330 4 0.013487 0.44079 0.0333429
245 4 0.209514 0.445392 0.0277933
626 4 0.193791 0.458216 0.0328511
625 2 0.185955 0.455574 0.0564477
244 2 0.234186 0.447936 0.0246336
627 4 0.178119 0.452932 0.0800443
246 4 0.258858 0.450481 0.0214739
609 4 0.286284 0.431711 0.0682924
1672 2 0.388637 0.461719 0.0568047
660 4 0.37538 0.428761 0.0888469
1673 4 0.364882 0.468806 0.0600682
1674 4 0.412392 0.454631 0.0535412
853 2 0.405374 0.448363 0.00124546
854 4 0.416873 0.453011 0.0229559
563 4 0.476416 0.452715 0.0356403
228 4 0.48651 0.447638 0.0516448
562 2 0.451548 0.451338 0.0378485
564 4 0.42668 0.449961 0.0400567
18 3 0.0562326 0.0355873 0.147128
16 1 0.0575722 0.0466146 0.1675
1667 4 0.0772947 0.0819615 0.0747538
701 4 0.0793425 0.0844806 0.0950644
1474 2 0.278428 0.00595334 0.0888484
1475 4 0.281147 0.0297599 0.0959922
492 4 0.279391 0.0451739 0.107061
490 2 0.281252 0.0696143 0.111998
2723 4 0.421025 0.0367066 0.15968
2722 2 0.445596 0.0370014 0.155061
2724 4 0.470167 0.0372961 0.150442
1760 4 0.485999 0.0343776 0.140985
1759 2 0.486807 0.0256379 0.117573
2744 4 0.485839 0.0408058 0.160543
1761 4 0.487614 0.0168983 0.0941602
700 2 0.0778338 0.0903691 0.119318
702 4 0.0763251 0.0962576 0.143571
476 4 0.0734592 0.115436 0.148876
475 2 0.0928094 0.128796 0.157375
477 4 0.11216 0.142157 0.165875
491 4 0.283114 0.0940548 0.116935
581 4 0.291545 0.0963195 0.165384
628 2 0.361501 0.130916 0.146775
312 4 0.376402 0.0916287 0.148926
629 4 0.370839 0.109404 0.155449
630 4 0.352163 0.152427 0.138102
254 4 0.367772 0.164318 0.140678
339 4 0.0815425 0.228347 0.141929
337 2 0.0843078 0.246286 0.159126
738 4 0.236191 0.210454 0.100566
736 2 0.243654 0.189352 0.11171
737 4 0.251118 0.16825 0.122854
461 4 0.309273 0.241246 0.108005
460 2 0.330613 0.233812 0.118705
354 4 0.290959 0.248464 0.112024
462 4 0.351954 0.226378 0.129405
255 4 0.366284 0.214152 0.136795
253 2 0.367028 0.189235 0.138737
765 4 0.360958 0.230588 0.145969
624 4 0.370593 0.231702 0.129475
622 2 0.384976 0.238517 0.110192
623 4 0.39936 0.245332 0.090908
537 4 0.192142 0.304379 0.103224
535 2 0.200415 0.31938 0.121437
352 2 0.281853 0.250624 0.13521
353 4 0.272747 0.252784 0.158396
755 4 0.26406 0.270965 0.160841
387 4 0.326842 0.318774 0.126797
301 2 0.329716 0.309685 0.161952
302 4 0.338931 0.307804 0.138784
385 2 0.345282 0.323619 0.110621
15 3 0.378142 0.330402 0.109836
386 4 0.363722 0.328463 0.0944439
12 3 0.415033 0.326642 0.105613
528 4 0.471308 0.28007 0.0881288
518 4 0.489209 0.276529 0.0955691
526 2 0.452487 0.279158 0.104564
527 4 0.433666 0.278245 0.120999
315 4 8.72359e-05 0.368596 0.130329
536 4 0.208688 0.334381 0.139649
291 4 0.200422 0.408766 0.141804
11 1 0.39691 0.340173 0.101413
13 3 0.400382 0.360733 0.111593
672 4 0.416517 0.334591 0.0832296
595 2 0.479557 0.403086 0.133659
597 4 0.461808 0.405132 0.151151
1791 4 0.0443924 0.482491 0.130958
1466 4 0.0345919 0.478146 0.147124
417 4 0.143513 0.418917 0.130134
415 2 0.164752 0.416481 0.143101
243 4 0.154073 0.49943 0.0908629
289 2 0.22383 0.416164 0.146552
416 4 0.185992 0.414046 0.156067
290 4 0.247238 0.423561 0.151299
607 2 0.298217 0.428776 0.0900677
608 4 0.31015 0.42584 0.111843
768 4 0.267574 0.427785 0.153177
767 4 0.27389 0.477093 0.147742
766 2 0.270732 0.452439 0.15046
638 4 0.26296 0.494051 0.147994
658 2 0.351886 0.426716 0.0971551
659 4 0.328392 0.424671 0.105463
1559 4 0.35504 0.501833 0.103723
17 3 0.0413907 0.0382623 0.181555
19 3 0.0538852 0.0693225 0.164473
2480 4 0.0341396 0.0315503 0.198741
1422 4 0.0383051 0.012762 0.20715
2479 2 0.0139692 0.0462303 0.200423
20 3 0.0780743 0.0432465 0.176825
578 4 0.0975883 0.0475906 0.179903
674 4 0.144434 0.00592139 0.211807
673 2 0.126279 0.00359715 0.228841
689 4 0.155689 0.0149842 0.198312
577 2 0.113927 0.0650721 0.187158
1506 4 0.244951 0.00450506 0.167753
688 2 0.170715 0.995799 0.192718
654 4 0.261042 0.00854214 0.179606
652 2 0.269772 0.0155264 0.201972
653 4 0.278501 0.0225107 0.224337
25 3 0.320701 0.0504563 0.249232
311 4 0.373173 0.0624073 0.189379
758 4 0.366565 0.0505196 0.203317
759 4 0.342971 0.0573195 0.246881
757 2 0.354768 0.0539196 0.225099
310 2 0.374788 0.077018 0.169153
2743 2 0.496479 0.040143 0.18316
511 2 0.0298996 0.147971 0.21333
513 4 0.0455358 0.158015 0.230057
381 4 0.998815 0.126321 0.19761
512 4 0.0142633 0.137926 0.196603
379 2 0.99798 0.102198 0.204135
579 4 0.130265 0.0825536 0.194413
450 4 0.13952 0.100004 0.187925
448 2 0.156542 0.118303 0.187171
449 4 0.173565 0.136601 0.186417
237 4 0.238215 0.124754 0.182895
691 2 0.238967 0.108027 0.237548
693 4 0.224783 0.117843 0.219447
236 4 0.192036 0.138323 0.196466
235 2 0.215126 0.131539 0.18968
582 4 0.258266 0.130073 0.18132
580 2 0.274905 0.113196 0.173352
27 3 0.331708 0.162786 0.223278
521 4 0.490957 0.148469 0.22592
332 4 0.486127 0.131138 0.232155
762 4 0.474807 0.148072 0.231613
331 2 0.500214 0.110933 0.236454
396 4 0.997029 0.254146 0.234329
393 4 0.0623598 0.157592 0.23843
391 2 0.0764978 0.172527 0.252651
394 2 0.0128805 0.235208 0.230422
395 4 0.0287318 0.21627 0.226515
277 2 0.245657 0.239282 0.175488
279 4 0.227356 0.222495 0.178399
285 4 0.32624 0.244434 0.195474
284 4 0.279699 0.246479 0.177295
283 2 0.302969 0.245457 0.186384
278 4 0.263957 0.256069 0.172577
763 2 0.352849 0.234717 0.169258
764 4 0.344739 0.238847 0.192546
338 4 0.0870731 0.264226 0.176322
363 4 0.0696371 0.266157 0.185163
361 2 0.0799618 0.280992 0.20244
749 4 0.0745529 0.306592 0.220283
647 4 0.0629278 0.330683 0.161864
748 2 0.0828006 0.324137 0.236073
370 2 0.132596 0.295439 0.222451
372 4 0.109557 0.289417 0.214826
362 4 0.0902865 0.295827 0.219717
371 4 0.155634 0.301461 0.230076
734 4 0.167605 0.324517 0.246405
754 2 0.265601 0.291826 0.174539
756 4 0.267143 0.312687 0.188237
612 4 0.278176 0.310701 0.204235
610 2 0.270661 0.307918 0.227919
307 2 0.333945 0.287668 0.219687
308 4 0.329288 0.303781 0.201143
303 4 0.320501 0.311567 0.185119
729 4 0.31125 0.328888 0.184762
611 4 0.263147 0.305135 0.251604
309 4 0.338603 0.271556 0.238231
264 4 0.998006 0.377612 0.24123
646 2 0.0804484 0.330853 0.179702
648 4 0.0979691 0.331022 0.197539
727 2 0.306151 0.344599 0.203533
728 4 0.301053 0.360311 0.222303
445 2 0.411776 0.373641 0.234379
446 4 0.394162 0.364532 0.249609
447 4 0.42939 0.38275 0.219149
644 4 0.442192 0.379656 0.203333
643 2 0.456789 0.389178 0.185404
645 4 0.471386 0.3987 0.167476
1465 2 0.0366221 0.467679 0.169741
1467 4 0.0386523 0.457212 0.192357
1757 4 0.0964357 0.441458 0.251448
231 4 0.466485 0.476009 0.236089
229 2 0.460978 0.493793 0.219398
232 2 0.0258373 0.027168 0.298123
233 4 0.049818 0.0246556 0.291505
1404 4 0.0691517 0.0202209 0.294121
1402 2 0.0804703 0.0140076 0.272709
316 2 0.0767967 0.0522535 0.310894
317 4 0.0625597 0.0332368 0.303093
428 4 0.0696282 0.0189339 0.313286
318 4 0.0910337 0.0712702 0.318694
24 3 0.314171 0.0751945 0.276855
21 1 0.327862 0.0579626 0.269506
23 3 0.327687 0.0405945 0.284892
22 3 0.349361 0.0658917 0.267488
351 4 0.406004 0.0666854 0.274781
349 2 0.38598 0.0803816 0.280834
479 4 0.447824 0.0291722 0.299989
478 2 0.435999 0.0446584 0.284319
2664 4 0.467874 0.0306692 0.295232
480 4 0.424174 0.0601447 0.26865
1428 4 0.459282 0.0186571 0.307077
258 4 0.442882 0.0258673 0.317883
2662 2 0.491492 0.0376881 0.290981
399 4 0.0805882 0.0861156 0.323226
692 4 0.253151 0.0982114 0.255648
721 2 0.241192 0.118055 0.291883
722 4 0.22907 0.126537 0.31204
723 4 0.253313 0.109572 0.271727
249 4 0.23149 0.112195 0.324589
404 4 0.243962 0.127274 0.325551
26 1 0.322705 0.160133 0.244279
28 3 0.320187 0.137466 0.248553
632 4 0.369635 0.113819 0.282907
350 4 0.365956 0.0940778 0.286886
631 2 0.35311 0.129767 0.273018
707 4 0.336442 0.161491 0.27611
633 4 0.336585 0.145714 0.26313
29 3 0.33708 0.169581 0.259851
760 2 0.456015 0.146206 0.248
761 4 0.437223 0.144341 0.264388
546 4 0.122936 0.196309 0.259905
392 4 0.0906358 0.187462 0.266873
544 2 0.140144 0.213833 0.264594
545 4 0.157352 0.231357 0.269282
402 4 0.176851 0.230522 0.274672
30 3 0.302443 0.170496 0.245118
706 2 0.348136 0.180589 0.287233
708 4 0.35983 0.199687 0.298355
442 2 0.00489298 0.282441 0.268479
444 4 0.00718216 0.2968 0.288821
400 2 0.18733 0.252231 0.281312
401 4 0.19781 0.273939 0.287952
676 2 0.184311 0.295206 0.315443
345 4 0.211022 0.289425 0.288182
677 4 0.194821 0.291851 0.293006
343 2 0.231515 0.290102 0.273872
735 4 0.199322 0.30194 0.277789
733 2 0.183463 0.313228 0.262097
376 2 0.271531 0.254747 0.319039
344 4 0.252007 0.290779 0.259562
496 2 0.31408 0.271076 0.274279
497 4 0.304092 0.267662 0.296945
377 4 0.289492 0.269938 0.310566
498 4 0.324068 0.274491 0.251613
541 2 0.402816 0.324354 0.320008
2537 4 0.485133 0.335459 0.328883
365 4 0.0312141 0.378509 0.301063
601 2 0.0603413 0.376996 0.318825
603 4 0.04873 0.37022 0.297743
364 2 0.00834707 0.373745 0.292142
549 4 0.081057 0.401369 0.337222
750 4 0.0910484 0.341682 0.251864
299 4 0.151981 0.330569 0.25877
298 2 0.129508 0.341516 0.259322
300 4 0.107035 0.352463 0.259874
433 2 0.305209 0.382454 0.295326
435 4 0.282734 0.393213 0.293251
434 4 0.327684 0.371695 0.297401
543 4 0.396386 0.347495 0.313058
614 4 0.338026 0.374727 0.314928
615 4 0.378136 0.344971 0.317476
613 2 0.358081 0.359849 0.316202
1756 2 0.0949413 0.466411 0.25195
776 4 0.0938255 0.50118 0.313168
1758 4 0.093447 0.491365 0.252452
412 2 0.229668 0.482909 0.287029
1436 4 0.217151 0.459842 0.323611
413 4 0.227256 0.470023 0.30832
5 3 0.287121 0.478896 0.323672
3 3 0.311567 0.45026 0.32383
1 1 0.296083 0.462208 0.336316
1803 4 0.363401 0.480575 0.284255
119 3 0.493622 0.460645 0.315499
713 4 0.433642 0.484589 0.332558
1742 4 0.41893 0.497105 0.337973
427 2 0.0620323 0.998925 0.326215
367 2 0.0606158 0.0236878 0.411826
1781 4 0.0992659 0.0322687 0.392422
368 4 0.0839794 0.0219132 0.403099
732 4 0.0973702 0.0810229 0.333749
730 2 0.115441 0.0770937 0.350577
1780 2 0.118298 0.0161768 0.394428
731 4 0.133512 0.0731645 0.367404
604 2 0.172176 0.0744985 0.365962
605 4 0.194425 0.0675939 0.356879
248 4 0.213176 0.0751678 0.352772
1701 4 0.320642 0.0338483 0.400473
1699 2 0.329197 0.0434071 0.379011
441 4 0.320942 0.0232506 0.415946
1700 4 0.337753 0.0529658 0.357549
699 4 0.349715 0.0579645 0.343632
697 2 0.372681 0.0480931 0.343069
698 4 0.395646 0.0382216 0.342505
257 4 0.406569 0.0245075 0.352237
724 2 0.411429 0.0838469 0.411318
2879 4 0.494368 0.0800108 0.390191
256 2 0.424726 0.0251874 0.33506
2584 2 0.0135902 0.113947 0.353624
397 2 0.0654665 0.0981395 0.339098
398 4 0.0503447 0.110163 0.354971
2586 4 0.035741 0.122966 0.360917
458 4 0.0273979 0.134531 0.373809
457 2 0.034509 0.149424 0.392592
600 4 0.135517 0.127601 0.344506
606 4 0.149928 0.0814032 0.375044
598 2 0.140661 0.149422 0.355576
247 2 0.222333 0.0936812 0.33868
683 4 0.22984 0.113209 0.405594
682 2 0.25361 0.114578 0.397959
403 2 0.250211 0.149873 0.334237
319 2 0.305279 0.141809 0.385132
684 4 0.27738 0.115947 0.390324
321 4 0.322154 0.157694 0.394516
320 4 0.288404 0.125923 0.375749
725 4 0.391802 0.099302 0.410271
2878 2 0.49863 0.0938695 0.410561
459 4 0.04162 0.164318 0.411376
599 4 0.145804 0.171243 0.366646
389 4 0.125378 0.233875 0.37046
686 4 0.134325 0.181892 0.381372
685 2 0.116098 0.194352 0.393107
275 4 0.147176 0.188412 0.356036
388 2 0.104598 0.238325 0.357284
687 4 0.0978722 0.206813 0.404843
261 4 0.0835235 0.207436 0.416529
472 2 0.230886 0.203809 0.352074
474 4 0.210026 0.215592 0.359229
276 4 0.194573 0.204242 0.354127
274 2 0.170875 0.196327 0.355082
405 4 0.256459 0.172471 0.342923
473 4 0.251747 0.192027 0.34492
378 4 0.253569 0.239556 0.327512
717 4 0.42017 0.184973 0.33939
715 2 0.409921 0.192178 0.361028
466 2 0.375305 0.1945 0.41027
716 4 0.399671 0.199384 0.382666
467 4 0.380332 0.195475 0.385797
270 4 0.486912 0.207324 0.370562
452 4 0.481018 0.199874 0.388552
268 2 0.476253 0.224584 0.355945
269 4 0.465594 0.241845 0.341328
451 2 0.463967 0.202503 0.406649
2801 4 0.0138988 0.274282 0.395839
2800 2 0.00822353 0.291712 0.412844
618 4 0.0521003 0.316454 0.378424
347 4 0.0572373 0.334873 0.369745
616 2 0.0726193 0.306137 0.368539
390 4 0.0838188 0.242776 0.344109
617 4 0.0931384 0.29582 0.358655
374 4 0.110673 0.28399 0.354688
373 2 0.132514 0.293905 0.347629
375 4 0.154355 0.303821 0.34057
678 4 0.1738 0.298561 0.337881
509 4 0.225843 0.314029 0.377394
508 2 0.24288 0.323942 0.362011
510 4 0.259917 0.333856 0.346628
542 4 0.409246 0.301212 0.326957
420 4 0.420729 0.284242 0.329694
419 4 0.455584 0.248672 0.325156
418 2 0.438157 0.266457 0.327425
602 4 0.0719525 0.383771 0.339907
346 2 0.0442993 0.351678 0.382988
348 4 0.0313614 0.368483 0.396231
668 4 0.328644 0.392902 0.40533
667 2 0.327659 0.414558 0.417789
336 4 0.33833 0.37684 0.399351
334 2 0.361633 0.367942 0.401073
335 4 0.384937 0.359045 0.402794
752 4 0.484348 0.407925 0.390072
561 4 0.490962 0.399683 0.406196
547 2 0.0813014 0.422637 0.350367
548 4 0.0815457 0.443905 0.363512
407 4 0.101966 0.444161 0.365797
406 2 0.115421 0.451204 0.38566
408 4 0.128876 0.458247 0.405522
1435 2 0.238574 0.454818 0.335486
1555 2 0.257176 0.502248 0.413097
438 4 0.32199 0.457524 0.343163
1557 4 0.281338 0.496672 0.409888
1437 4 0.259997 0.449795 0.347361
4 3 0.279292 0.448037 0.343776
2 3 0.306712 0.471383 0.354537
437 4 0.36983 0.443506 0.347113
436 2 0.34591 0.450515 0.345138
593 4 0.406501 0.46266 0.391464
588 4 0.413633 0.463834 0.410382
592 2 0.415562 0.473115 0.370637
753 4 0.497555 0.441281 0.355234
714 4 0.47992 0.466147 0.336915
712 2 0.456781 0.475368 0.334736
117 3 0.492847 0.461268 0.353071
751 2 0.490952 0.424603 0.372653
594 4 0.424624 0.48357 0.349811
369 4 0.0372522 0.0254624 0.420554
719 4 0.0357679 0.0308785 0.43956
718 2 0.0142953 0.0244908 0.450664
962 4 0.319092 0.0320847 0.432817
961 2 0.306544 0.0523218 0.440445
963 4 0.293996 0.0725588 0.448073
432 4 0.301146 0.088367 0.458874
425 4 0.332381 0.0376723 0.418345
424 2 0.356103 0.033147 0.42482
426 4 0.379826 0.0286217 0.431295
726 4 0.431056 0.0683917 0.412366
260 4 0.0547356 0.167959 0.427185
430 2 0.31427 0.0906197 0.480037
640 2 0.48421 0.112317 0.465711
641 4 0.469317 0.123383 0.482472
259 2 0.0691296 0.187697 0.421857
695 4 0.0600462 0.239029 0.493739
1035 4 0.0981167 0.218075 0.421988
1033 2 0.104327 0.237338 0.43667
489 4 0.334587 0.247715 0.459624
468 4 0.370278 0.193526 0.434744
411 4 0.343286 0.230342 0.465172
516 4 0.39806 0.194602 0.458642
409 2 0.360582 0.21335 0.459064
410 4 0.377878 0.196358 0.452956
575 4 0.397796 0.189001 0.477846
266 4 0.336161 0.231267 0.484783
574 2 0.401502 0.171456 0.49527
514 2 0.421746 0.195552 0.450688
515 4 0.445432 0.196502 0.442735
453 4 0.446915 0.205133 0.424747
2802 4 0.00254825 0.309142 0.429849
2847 4 0.0123338 0.311114 0.446941
694 2 0.0815093 0.250304 0.487624
1034 4 0.110538 0.2566 0.451352
1258 2 0.119656 0.29045 0.471086
1259 4 0.122407 0.315074 0.474446
9 3 0.120754 0.332383 0.464227
1260 4 0.116905 0.265827 0.467725
696 4 0.102972 0.261579 0.481509
858 4 0.211502 0.268899 0.492395
487 2 0.330727 0.257869 0.437104
488 4 0.326866 0.268024 0.414584
265 2 0.347392 0.249642 0.497487
584 4 0.505705 0.265535 0.490675
326 4 0.0535013 0.34483 0.455046
325 2 0.0764348 0.354785 0.455398
10 3 0.145678 0.346588 0.439841
6 1 0.133131 0.351095 0.458304
7 3 0.118696 0.368382 0.45362
327 4 0.0993684 0.36474 0.45575
709 2 0.157125 0.411829 0.480729
8 3 0.1469 0.357377 0.475893
503 4 0.230137 0.369778 0.471447
504 4 0.193171 0.395407 0.493297
502 2 0.211654 0.382593 0.482372
710 4 0.181833 0.408027 0.481218
240 4 0.399542 0.365795 0.414992
238 2 0.407264 0.384687 0.429436
882 4 0.374836 0.359232 0.500734
239 4 0.414986 0.40358 0.443879
1381 2 0.00628782 0.493668 0.46593
1383 4 0.00939099 0.469306 0.461235
680 4 0.00670923 0.45481 0.44855
711 4 0.132417 0.415631 0.48024
384 4 0.118803 0.42312 0.466506
569 4 0.133152 0.466853 0.421144
382 2 0.121535 0.437018 0.445901
568 2 0.146269 0.485364 0.431653
383 4 0.124266 0.450916 0.425297
1543 2 0.2023 0.49825 0.43254
1544 4 0.22635 0.493559 0.427561
634 2 0.298707 0.465308 0.429823
774 4 0.320039 0.434839 0.449406
773 4 0.301874 0.430594 0.495804
669 4 0.326674 0.436213 0.430249
636 4 0.28026 0.479806 0.421179
635 4 0.317153 0.45081 0.438466
772 2 0.310956 0.432717 0.472605
663 4 0.476496 0.475647 0.436377
661 2 0.473323 0.493029 0.454067
586 2 0.414036 0.442975 0.424163
587 4 0.41444 0.422116 0.437944
342 4 0.220795 0.0634273 0.525387
340 2 0.20881 0.0449287 0.513582
1152 4 0.207419 0.0771686 0.530814
341 4 0.196825 0.0264301 0.501778
2430 4 0.180078 0.015363 0.504661
1217 4 0.399848 0.0694662 0.522513
1216 2 0.414429 0.0565166 0.506864
3007 2 0.485687 0.052438 0.573983
1218 4 0.429009 0.0435669 0.491214
3009 4 0.496544 0.0527191 0.551461
1058 4 0.111344 0.112454 0.527669
1057 2 0.116516 0.115995 0.551874
1059 4 0.121688 0.119537 0.576079
1150 2 0.214117 0.0802873 0.554701
1151 4 0.220815 0.083406 0.578588
1180 2 0.223762 0.149731 0.555141
1181 4 0.204112 0.134272 0.554831
431 4 0.327393 0.0928724 0.5012
842 4 0.38426 0.0769667 0.512552
843 4 0.341172 0.102345 0.512444
841 2 0.362716 0.0896558 0.512498
576 4 0.405209 0.15391 0.512694
470 4 0.0350731 0.167202 0.516521
1199 4 0.039213 0.225107 0.571373
1198 2 0.0151369 0.226766 0.564834
469 2 0.0207861 0.185387 0.526027
471 4 0.0064991 0.203573 0.535532
1182 4 0.243411 0.16519 0.555451
900 4 0.240757 0.18332 0.549035
798 4 0.235381 0.24887 0.568928
898 2 0.261594 0.186237 0.535526
650 4 0.294486 0.206586 0.518465
899 4 0.28243 0.189154 0.522017
649 2 0.294838 0.231116 0.523292
796 2 0.258853 0.254193 0.575703
3065 4 0.495571 0.248709 0.519592
982 2 0.00797324 0.320434 0.577162
1244 4 0.0495944 0.253369 0.586558
1243 2 0.0390402 0.274345 0.577967
856 2 0.21325 0.261397 0.516182
947 4 0.219386 0.249341 0.558937
857 4 0.214998 0.253894 0.539969
946 2 0.202162 0.263153 0.570673
948 4 0.184938 0.276965 0.58241
651 4 0.295191 0.255647 0.528119
872 4 0.343608 0.295105 0.555529
871 2 0.363768 0.304773 0.566722
873 4 0.383928 0.314441 0.577915
267 4 0.358624 0.268017 0.510191
811 2 0.414208 0.328578 0.579254
1010 4 0.485313 0.333938 0.523449
2456 4 0.497047 0.26678 0.508905
906 4 0.486771 0.318241 0.579647
2457 4 0.493117 0.315495 0.519495
2455 2 0.495082 0.291138 0.5142
984 4 0.00349474 0.344885 0.57447
1189 2 0.243952 0.366913 0.578814
1190 4 0.263849 0.356267 0.568045
803 4 0.267005 0.358168 0.548719
804 4 0.28421 0.398057 0.523948
802 2 0.275607 0.378113 0.536333
930 4 0.315674 0.380638 0.570914
1239 4 0.320944 0.365013 0.581564
928 2 0.326671 0.391741 0.551395
929 4 0.337667 0.402844 0.531876
881 4 0.3548 0.399549 0.522502
880 2 0.364818 0.37939 0.511618
812 4 0.425423 0.350575 0.575306
1011 4 0.479346 0.381656 0.509731
1009 2 0.48233 0.357797 0.51659
927 4 0.417971 0.367224 0.564068
925 2 0.435117 0.385407 0.564815
3308 4 0.485922 0.397941 0.502598
926 4 0.452264 0.40359 0.565562
538 2 0.0980954 0.45661 0.572153
540 4 0.103514 0.47708 0.558857
1160 4 0.112672 0.494295 0.565746
1159 2 0.136006 0.495786 0.574604
539 4 0.0926768 0.43614 0.58545
1951 2 0.385794 0.497499 0.554895
1952 4 0.36199 0.490014 0.553313
890 4 0.354301 0.481859 0.569778
1953 4 0.409599 0.504984 0.556477
1082 4 0.055349 0.07276 0.661215
1081 2 0.0582934 0.0855547 0.639936
825 4 0.155997 0.0428243 0.658752
823 2 0.170001 0.0221773 0.657085
824 4 0.184004 0.00153031 0.655418
1032 4 0.238038 0.0835348 0.589299
1031 4 0.280704 0.0603686 0.601283
1030 2 0.259371 0.0719517 0.595291
951 4 0.285778 0.0397993 0.60443
949 2 0.296178 0.0181936 0.611518
3008 4 0.47483 0.0521569 0.596505
809 4 0.486251 0.0450225 0.610612
808 2 0.475301 0.0511976 0.632226
810 4 0.464351 0.0573727 0.653839
45 3 0.456808 0.0783314 0.653997
1128 4 0.000755234 0.107457 0.593307
1083 4 0.0612379 0.0983493 0.618657
1126 2 0.0242968 0.101011 0.598731
1127 4 0.0478384 0.0945649 0.604154
938 4 0.0795955 0.0944069 0.611755
1155 4 0.125827 0.135962 0.584656
1271 4 0.113181 0.145702 0.594486
939 4 0.116193 0.124191 0.595194
937 2 0.0978943 0.109299 0.603475
1153 2 0.149617 0.1331 0.5918
1221 4 0.176082 0.131265 0.619126
1154 4 0.173407 0.130238 0.598944
1219 2 0.186895 0.152255 0.627354
1210 2 0.241296 0.163237 0.638234
886 2 0.293489 0.16629 0.655145
887 4 0.316341 0.16123 0.663941
1211 4 0.264204 0.153312 0.639607
1194 4 0.328615 0.160629 0.648828
1192 2 0.350501 0.148964 0.645645
1193 4 0.372386 0.137299 0.642462
3426 4 0.497185 0.127007 0.656697
3424 2 0.481813 0.108428 0.663309
3425 4 0.466441 0.0898502 0.669921
878 4 0.0534159 0.234704 0.581217
877 2 0.0677681 0.216619 0.590815
1179 4 0.0231018 0.224799 0.671833
879 4 0.0821204 0.198533 0.600412
1272 4 0.0903951 0.189032 0.584286
1270 2 0.101788 0.167367 0.589386
1212 4 0.218387 0.173163 0.63686
1220 4 0.197707 0.173245 0.635582
797 4 0.282325 0.259516 0.582479
888 4 0.270637 0.17135 0.646349
983 4 0.0124517 0.295982 0.579855
1245 4 0.028486 0.295321 0.569377
1137 4 0.163309 0.324152 0.617961
1135 2 0.165586 0.302543 0.605591
1136 4 0.167863 0.280933 0.59322
1065 4 0.214862 0.346949 0.67852
1064 4 0.177153 0.319023 0.661233
1063 2 0.196008 0.332986 0.669876
792 4 0.317794 0.300732 0.597695
791 4 0.299097 0.261822 0.572454
790 2 0.308445 0.281277 0.585075
1238 4 0.309261 0.316851 0.58825
813 4 0.402994 0.306582 0.583203
953 4 0.472704 0.309934 0.590181
952 2 0.463656 0.292133 0.605229
954 4 0.454607 0.274332 0.620276
3123 4 0.475102 0.258245 0.651791
1041 4 0.0671898 0.40587 0.634743
3264 4 0.0496422 0.408214 0.647795
3262 2 0.0440088 0.386699 0.65922
3240 4 0.0349997 0.420813 0.65026
1039 2 0.0887508 0.396156 0.626623
1040 4 0.110312 0.386442 0.618503
993 4 0.11599 0.372511 0.605714
991 2 0.134385 0.355925 0.609139
992 4 0.152779 0.339339 0.612565
897 4 0.171808 0.339541 0.608619
896 4 0.214828 0.363647 0.600316
895 2 0.193318 0.351594 0.604468
1172 4 0.217312 0.394679 0.596869
1191 4 0.224056 0.377559 0.589583
1237 2 0.315102 0.340932 0.584907
1206 4 0.403219 0.380958 0.62385
1204 2 0.405852 0.404357 0.632262
1002 4 0.458034 0.414504 0.58171
3238 2 0.0121936 0.426534 0.641755
1188 4 0.165749 0.484851 0.596449
1171 2 0.209274 0.417117 0.604425
1186 2 0.173304 0.462458 0.604614
1173 4 0.201236 0.439555 0.611982
1187 4 0.180859 0.440065 0.612778
891 4 0.318485 0.467256 0.601473
1230 4 0.342531 0.435476 0.663794
889 2 0.336393 0.474557 0.585625
1205 4 0.408485 0.427755 0.640674
1909 2 0.431978 0.488815 0.588307
1911 4 0.440473 0.472101 0.604849
1000 2 0.456038 0.437028 0.592382
1001 4 0.454042 0.459551 0.603055
1269 4 0.460512 0.476341 0.609412
1267 2 0.470497 0.48951 0.628175
943 2 0.0411419 0.0311166 0.692002
944 4 0.0454059 0.0550229 0.686045
1076 4 0.0603964 0.0642406 0.678422
1283 4 0.157839 0.0507974 0.67694
1282 2 0.158222 0.0741181 0.68595
1148 4 0.238364 0.0706597 0.686942
1090 2 0.316751 0.00654749 0.71795
1147 2 0.25622 0.0552897 0.695313
1149 4 0.274077 0.0399197 0.703685
1092 4 0.31525 0.0285914 0.706245
1004 4 0.384406 0.0851213 0.725311
42 3 0.460884 0.048404 0.67592
41 1 0.452676 0.0698599 0.674728
43 3 0.429815 0.0693752 0.678671
1163 4 0.471877 0.0635424 0.690798
1162 2 0.489685 0.0549873 0.706123
44 3 0.463217 0.0828284 0.690825
1075 2 0.0602573 0.0819707 0.696052
864 4 0.0490251 0.0996364 0.728548
1077 4 0.0601182 0.0997007 0.713682
1107 4 0.0689905 0.100225 0.730547
851 4 0.0757102 0.110858 0.713648
862 2 0.0302517 0.0926143 0.743495
850 2 0.0804089 0.133674 0.704563
852 4 0.0851077 0.156489 0.695477
1284 4 0.158604 0.0974389 0.69496
1105 2 0.0870958 0.0960496 0.747278
909 4 0.158848 0.117352 0.700835
1226 4 0.24299 0.0898364 0.692036
907 2 0.178509 0.122664 0.71534
908 4 0.19817 0.127977 0.729845
1227 4 0.216011 0.120156 0.721252
1225 2 0.229501 0.104996 0.706644
830 4 0.310693 0.157129 0.682596
829 2 0.324278 0.139537 0.694047
831 4 0.337864 0.121945 0.705499
1003 2 0.361843 0.0933471 0.718354
1005 4 0.339279 0.101573 0.711396
1177 2 0.00718662 0.228897 0.690677
1214 4 0.995358 0.183193 0.755875
1073 4 0.0771634 0.201316 0.741301
1072 2 0.0911387 0.221851 0.74416
1074 4 0.105114 0.242386 0.747019
978 4 0.301654 0.200019 0.72887
1142 4 0.448054 0.178813 0.732699
1144 2 0.4867 0.173215 0.735065
1025 4 0.443762 0.178351 0.670791
1262 4 0.463755 0.20398 0.728648
1024 2 0.448565 0.184929 0.694431
1026 4 0.453368 0.191507 0.718071
1261 2 0.462034 0.228921 0.728207
1145 4 0.465891 0.184972 0.727721
1209 4 0.116555 0.282188 0.705969
1207 2 0.118642 0.268997 0.727107
1208 4 0.120729 0.255805 0.748244
821 4 0.131839 0.284485 0.694173
820 2 0.146346 0.296383 0.677645
822 4 0.160852 0.308281 0.661117
805 2 0.284834 0.311681 0.68112
807 4 0.260164 0.309519 0.68457
806 4 0.309504 0.313843 0.677669
1263 4 0.460314 0.253861 0.727767
3263 4 0.0383754 0.365184 0.670645
894 4 0.0301675 0.35814 0.747973
1280 4 0.045393 0.363652 0.735996
1279 2 0.0477144 0.387963 0.730634
816 4 0.0584049 0.350449 0.742443
1281 4 0.0500358 0.412274 0.725272
1028 4 0.229239 0.36908 0.713703
1066 2 0.195807 0.360833 0.742653
1068 4 0.214449 0.361578 0.726006
1027 2 0.234304 0.389877 0.70078
1029 4 0.239369 0.410674 0.687857
1067 4 0.177166 0.360088 0.7593
1018 2 0.380321 0.377924 0.723274
1020 4 0.398743 0.394702 0.725357
1019 4 0.3619 0.361146 0.721192
1983 4 0.0484409 0.431009 0.730245
1981 2 0.0659058 0.448811 0.732051
1982 4 0.0833706 0.466612 0.733858
1138 2 0.246953 0.453967 0.683563
1140 4 0.239478 0.430224 0.681199
1175 4 0.208035 0.465332 0.714234
1174 2 0.184292 0.471772 0.718705
1176 4 0.160549 0.478212 0.723175
1139 4 0.254428 0.47771 0.685927
1987 2 0.303973 0.466239 0.726608
1229 4 0.313189 0.446555 0.702743
1989 4 0.311795 0.466452 0.70286
1228 2 0.32786 0.441016 0.683269
2991 4 0.00207015 0.0321309 0.793885
2989 2 0.00575648 0.0551541 0.784856
2990 4 0.00944281 0.0781773 0.775827
2049 4 0.108155 0.0208978 0.770801
1202 4 0.102266 0.0311374 0.78748
2047 2 0.128158 0.00756867 0.763918
1201 2 0.109823 0.0545844 0.79176
1203 4 0.117379 0.0780314 0.796039
817 2 0.324029 0.0509454 0.818776
819 4 0.316996 0.0727215 0.828852
818 4 0.331062 0.0291693 0.8087
1050 4 0.336106 0.0039321 0.790673
974 4 0.34343 0.0122463 0.807443
973 2 0.353798 0.999797 0.826487
1113 4 0.430541 0.0531584 0.766214
1111 2 0.453039 0.0574828 0.776229
845 4 0.494721 0.0656954 0.78775
1112 4 0.475538 0.0618072 0.786244
863 4 0.0114782 0.0855921 0.758443
833 4 0.00788583 0.0972092 0.77533
832 2 0.0115007 0.112612 0.794691
834 4 0.0151156 0.128015 0.814053
1125 4 0.0211877 0.144674 0.824308
1123 2 0.0434958 0.153467 0.831394
1106 4 0.105201 0.0918741 0.764009
911 4 0.111335 0.0998008 0.82732
34 3 0.113137 0.0954528 0.782173
31 1 0.121607 0.103794 0.8021
35 3 0.106394 0.117693 0.811797
32 3 0.125924 0.0862071 0.816286
33 3 0.141389 0.11525 0.798121
1257 4 0.217554 0.0913342 0.766046
840 4 0.243533 0.119227 0.808213
1255 2 0.235805 0.0988596 0.78139
838 2 0.246532 0.132871 0.82895
1085 4 0.303516 0.0850142 0.83272
1256 4 0.254056 0.106385 0.796734
1084 2 0.303753 0.102393 0.814746
1086 4 0.30399 0.119772 0.796771
47 3 0.406319 0.157928 0.81342
48 3 0.400603 0.160558 0.776365
1130 4 0.136654 0.247153 0.755447
977 4 0.303014 0.217465 0.775715
918 4 0.29593 0.234819 0.777379
976 2 0.302334 0.208742 0.752293
1298 4 0.312958 0.22882 0.787195
1297 2 0.332074 0.220697 0.801116
46 1 0.405675 0.172479 0.795615
1299 4 0.351189 0.212573 0.815037
1042 2 0.387465 0.230463 0.798886
1043 4 0.391728 0.206991 0.791398
49 3 0.389324 0.188459 0.799575
1143 4 0.420219 0.171954 0.773673