ITEM: TIMESTEP
3360000
ITEM: NUMBER OF ATOMS
4590
ITEM: BOX BOUNDS pp pp pp
-9.9985700000000008e+00 9.9985700000000008e+00
-9.9985700000000008e+00 9.9985700000000008e+00
-9.9985700000000008e+00 9.9985700000000008e+00
ITEM: ATOMS id type xs ys zs
701 4 0.0437698 0.0480896 0.0736198
700 2 0.0528988 0.0712048 0.0708764
1667 4 0.0258806 0.0550372 0.0691595
1666 2 0.00132937 0.0514099 0.0661171
490 2 0.276847 0.0610938 0.0768296
492 4 0.290205 0.0422419 0.0672724
1474 2 0.275815 0.00502852 0.0573835
1475 4 0.285869 0.0277866 0.0549006
2974 2 0.468449 0.0342772 0.0307871
745 2 0.42088 0.0770667 0.0239477
747 4 0.434054 0.0558257 0.0246047
2975 4 0.45167 0.0493108 0.0199421
986 4 0.438261 0.0487941 0.00634363
2976 4 0.485229 0.0192437 0.0416321
2468 4 0.492812 0.00997703 0.0531592
702 4 0.0620278 0.09432 0.068133
475 2 0.0657554 0.124432 0.082086
477 4 0.0772586 0.146356 0.0785912
566 4 0.211355 0.144685 0.0348742
565 2 0.220309 0.151919 0.0126776
746 4 0.407705 0.0983078 0.0232907
769 2 0.389942 0.145449 0.0279347
556 2 0.371968 0.0964215 0.00808522
558 4 0.387218 0.101501 0.0272375
771 4 0.386665 0.120677 0.0288387
737 4 0.231163 0.193986 0.038551
736 2 0.206392 0.197387 0.038367
738 4 0.181622 0.200788 0.038183
770 4 0.393219 0.17022 0.0270307
359 4 0.394158 0.187122 0.0173504
664 2 0.390934 0.208833 0.0504204
665 4 0.392788 0.18804 0.0366597
666 4 0.389079 0.229627 0.0641812
623 4 0.39091 0.246776 0.0719269
323 4 0.40289 0.240217 0.0560678
555 4 0.0748154 0.267858 0.000458539
481 2 0.236506 0.282606 0.0692264
505 2 0.193798 0.316164 0.0748935
483 4 0.216843 0.293662 0.0800124
288 4 0.222025 0.327816 0.00454982
573 4 0.272127 0.26004 0.0544945
482 4 0.256169 0.271551 0.0584404
571 2 0.292924 0.261155 0.0406593
572 4 0.313721 0.262271 0.0268241
357 4 0.308826 0.276262 0.0141799
355 2 0.31723 0.2991 0.00843666
356 4 0.325635 0.321937 0.00269342
1069 2 0.407465 0.318433 0.0342577
322 2 0.412246 0.261998 0.0481156
324 4 0.421601 0.283779 0.0401635
1070 4 0.424473 0.300396 0.031005
280 2 0.451546 0.305725 0.0604391
282 4 0.438949 0.293812 0.0424239
281 4 0.464144 0.317639 0.0784543
292 2 0.157891 0.344296 0.0362474
294 4 0.138443 0.344007 0.0205351
507 4 0.18853 0.337341 0.0626887
286 2 0.207887 0.334693 0.0239921
287 4 0.193749 0.341571 0.0434343
293 4 0.177339 0.344585 0.0519597
552 4 0.178284 0.350148 0.0718323
456 4 0.214202 0.397594 0.0588706
454 2 0.202444 0.375537 0.0582138
455 4 0.190686 0.353481 0.057557
1290 4 0.274054 0.402584 0.0499532
1288 2 0.282264 0.383187 0.0364805
1289 4 0.290474 0.363789 0.0230078
903 4 0.294768 0.372146 0.00456048
956 4 0.334042 0.335931 0.0123197
1071 4 0.390457 0.33647 0.0375105
955 2 0.352657 0.336016 0.0290127
957 4 0.371272 0.3361 0.0457057
741 4 0.386844 0.338131 0.0561301
739 2 0.389831 0.342661 0.0805378
1304 4 0.388829 0.375715 0.0116482
1303 2 0.379618 0.396493 0.00122557
1786 2 0.108397 0.483923 0.0704945
625 2 0.163074 0.484652 0.0540354
1690 2 0.117319 0.495148 0.0169165
1787 4 0.122118 0.500099 0.0572561
627 4 0.140455 0.495012 0.05653
626 4 0.185694 0.474293 0.0515407
245 4 0.199444 0.45982 0.0514455
244 2 0.222427 0.450414 0.0543624
246 4 0.24541 0.441009 0.0572793
251 4 0.263971 0.418977 0.0556148
272 4 0.252921 0.429819 0.0423556
271 2 0.268636 0.438581 0.0249936
273 4 0.284351 0.447343 0.00763167
250 2 0.264914 0.425557 0.0797186
1157 4 0.291306 0.429164 0.00335953
1672 2 0.41562 0.433151 0.0740884
853 2 0.402181 0.444548 0.0194711
855 4 0.384457 0.445973 0.0018927
37 3 0.366157 0.435413 0.00419188
854 4 0.419905 0.443123 0.0370494
1674 4 0.428458 0.437261 0.0530292
564 4 0.436407 0.45235 0.041866
563 4 0.47499 0.473194 0.0178329
562 2 0.455699 0.462772 0.0298495
228 4 0.486319 0.48659 0.00919882
19 3 0.0661493 0.00198371 0.155514
577 2 0.086877 0.0403507 0.163242
579 4 0.0997221 0.0613165 0.158701
450 4 0.11404 0.063903 0.145018
448 2 0.136439 0.0689264 0.154929
449 4 0.158839 0.0739497 0.16484
582 4 0.236513 0.0733339 0.15644
237 4 0.217905 0.0768113 0.145956
235 2 0.195412 0.0820427 0.15554
491 4 0.263488 0.0799458 0.0863869
486 4 0.430949 0.00422263 0.113126
2722 2 0.496162 0.078652 0.13455
476 4 0.0542523 0.102509 0.0855808
513 4 0.0382805 0.147001 0.160312
236 4 0.172918 0.087274 0.165123
312 4 0.356016 0.134553 0.16047
628 2 0.381239 0.159532 0.149754
629 4 0.377664 0.137928 0.161822
2723 4 0.490401 0.101831 0.127154
2759 4 0.00823473 0.17185 0.128354
2624 4 0.00896008 0.186454 0.116468
460 2 0.326773 0.230181 0.113971
461 4 0.304991 0.218308 0.110854
354 4 0.284987 0.216796 0.112332
352 2 0.273563 0.232227 0.128349
353 4 0.262139 0.247658 0.144366
278 4 0.25815 0.245929 0.163051
462 4 0.348556 0.242054 0.117089
255 4 0.364197 0.237022 0.125956
253 2 0.375718 0.217757 0.136969
622 2 0.377133 0.250045 0.092535
254 4 0.387239 0.198491 0.147983
630 4 0.384814 0.181137 0.137686
506 4 0.199066 0.294987 0.0870983
537 4 0.184377 0.282977 0.0946843
755 4 0.245478 0.254201 0.149461
536 4 0.183206 0.264598 0.141177
535 2 0.183792 0.273787 0.117931
754 2 0.230063 0.273886 0.149666
756 4 0.214648 0.293571 0.149872
301 2 0.319745 0.317022 0.142394
303 4 0.317442 0.299162 0.15974
764 4 0.329895 0.28508 0.159478
284 4 0.274731 0.255167 0.156313
283 2 0.292981 0.270996 0.162758
624 4 0.363356 0.253314 0.113143
765 4 0.35701 0.253989 0.131214
763 2 0.343452 0.269534 0.145346
12 3 0.406799 0.321875 0.129287
671 4 0.459557 0.326154 0.0949764
527 4 0.478509 0.322774 0.0913253
670 2 0.437189 0.332388 0.10425
647 4 0.0623453 0.34858 0.147838
550 2 0.161651 0.357893 0.0888185
551 4 0.145018 0.365638 0.105805
302 4 0.322047 0.334882 0.125048
387 4 0.323972 0.353545 0.116982
385 2 0.348739 0.354379 0.11365
493 2 0.393719 0.387516 0.108066
495 4 0.389869 0.363463 0.113707
386 4 0.373505 0.355214 0.110317
15 3 0.37596 0.341544 0.121872
740 4 0.392818 0.34719 0.104946
14 3 0.409697 0.358137 0.119833
11 1 0.396765 0.342497 0.131084
13 3 0.395232 0.348162 0.153533
494 4 0.397568 0.411569 0.102424
672 4 0.414821 0.338622 0.113523
526 2 0.499685 0.334648 0.0853429
1465 2 0.0634972 0.465158 0.102331
1466 4 0.040603 0.473794 0.107474
1791 4 0.0459603 0.493023 0.110227
1788 4 0.0946749 0.467748 0.083733
1467 4 0.0863915 0.456522 0.0971876
766 2 0.209039 0.462408 0.159838
768 4 0.213269 0.43834 0.154544
767 4 0.204809 0.486475 0.165132
252 4 0.265856 0.432137 0.103822
609 4 0.282254 0.428044 0.113173
607 2 0.306933 0.432014 0.11376
608 4 0.331613 0.435983 0.114348
1317 4 0.326389 0.496636 0.137064
659 4 0.340721 0.438796 0.0963424
660 4 0.388869 0.428597 0.105199
1673 4 0.402783 0.429041 0.0951475
658 2 0.364795 0.433696 0.100771
524 4 0.410317 0.486978 0.131381
523 2 0.405288 0.464729 0.121141
525 4 0.40026 0.442479 0.110901
1559 4 0.394156 0.494814 0.141559
1558 2 0.369481 0.498309 0.14358
2480 4 0.0258488 0.999543 0.194276
578 4 0.0740319 0.0193848 0.167782
2479 2 0.0203314 0.0215299 0.204827
380 4 0.026141 0.054952 0.226916
2481 4 0.014814 0.0435165 0.215378
379 2 0.0327385 0.0735107 0.211514
20 3 0.0734242 0.0137468 0.190533
674 4 0.158944 0.000814808 0.23772
580 2 0.245391 0.0556365 0.171709
1506 4 0.252639 0.0151514 0.217174
581 4 0.254269 0.037939 0.186979
654 4 0.256472 0.0293873 0.205789
652 2 0.272985 0.0359175 0.223392
653 4 0.289498 0.0424478 0.240994
758 4 0.330312 0.0807387 0.190158
759 4 0.364033 0.0662843 0.224139
757 2 0.347173 0.0735115 0.207149
350 4 0.37309 0.0550014 0.238114
349 2 0.395606 0.051601 0.227787
632 4 0.370326 0.0679097 0.242525
25 3 0.35446 0.0197012 0.243189
480 4 0.433999 0.0470677 0.228685
351 4 0.418122 0.0482006 0.217461
333 4 0.492465 0.0787498 0.244287
393 4 0.0428446 0.16377 0.168979
511 2 0.038213 0.12961 0.178276
512 4 0.0381455 0.112218 0.19624
381 4 0.0393361 0.0920695 0.196112
310 2 0.349591 0.111205 0.166697
30 3 0.362526 0.160748 0.241502
311 4 0.343166 0.0878573 0.172925
26 1 0.377422 0.143522 0.241496
28 3 0.373914 0.130028 0.222948
761 4 0.412347 0.11939 0.205673
27 3 0.398793 0.151986 0.240598
521 4 0.47614 0.133591 0.231118
762 4 0.457008 0.133889 0.222875
760 2 0.434677 0.126639 0.214274
332 4 0.46539 0.118092 0.22946
331 2 0.478928 0.0984208 0.236874
520 2 0.488485 0.154473 0.225058
391 2 0.0424161 0.18804 0.174979
392 4 0.0419876 0.212309 0.180978
339 4 0.0563027 0.223534 0.172172
337 2 0.062483 0.246173 0.180802
546 4 0.0841633 0.24774 0.23635
544 2 0.108109 0.249241 0.243388
279 4 0.24636 0.209986 0.195759
277 2 0.252255 0.227958 0.179405
396 4 0.0163251 0.256475 0.24799
394 2 0.0334036 0.260235 0.23012
395 4 0.0504821 0.263995 0.212249
338 4 0.0686634 0.268811 0.189431
363 4 0.0609676 0.277307 0.204517
361 2 0.0706596 0.30032 0.203236
362 4 0.0803515 0.323334 0.201954
545 4 0.132054 0.250741 0.250427
372 4 0.0938868 0.332266 0.192053
733 2 0.156156 0.329994 0.241402
612 4 0.210845 0.30001 0.168655
611 4 0.224253 0.313413 0.214929
610 2 0.217549 0.306712 0.191792
344 4 0.225979 0.31335 0.234653
343 2 0.205567 0.309895 0.248674
285 4 0.311231 0.286826 0.169202
729 4 0.309807 0.303713 0.178128
727 2 0.292506 0.317907 0.189282
308 4 0.325558 0.292816 0.17593
728 4 0.275206 0.3321 0.200436
496 2 0.333058 0.308058 0.246945
498 4 0.338698 0.297231 0.225123
307 2 0.34089 0.29508 0.195551
309 4 0.356222 0.297343 0.215172
749 4 0.0642601 0.334877 0.209439
648 4 0.0749639 0.339953 0.195452
748 2 0.0709637 0.346842 0.230346
646 2 0.0686546 0.344266 0.171645
370 2 0.115528 0.338042 0.203165
371 4 0.137169 0.343817 0.214277
734 4 0.144382 0.349302 0.230736
417 4 0.146388 0.362965 0.221041
299 4 0.139414 0.365381 0.240039
415 2 0.155848 0.383248 0.209892
298 2 0.116242 0.368049 0.249046
416 4 0.165307 0.403531 0.198743
289 2 0.200697 0.412867 0.184789
291 4 0.185204 0.399971 0.199583
445 2 0.386496 0.37613 0.227176
447 4 0.409698 0.381059 0.219269
446 4 0.363293 0.371202 0.235083
644 4 0.431769 0.377576 0.218841
595 2 0.499012 0.38072 0.168313
643 2 0.451444 0.382935 0.204372
645 4 0.471119 0.388294 0.189903
597 4 0.490391 0.391814 0.188996
290 4 0.21619 0.425762 0.169995
412 2 0.241228 0.485524 0.243051
414 4 0.240365 0.489041 0.218311
229 2 0.447847 0.477033 0.215717
231 4 0.463427 0.458826 0.222855
230 4 0.432266 0.495239 0.208578
234 4 0.0195722 0.0564199 0.289133
232 2 0.0368196 0.0390824 0.29434
233 4 0.0540671 0.0217449 0.299547
317 4 0.0672746 0.0199415 0.315963
1404 4 0.0649333 0.00698299 0.302147
428 4 0.0646 0.000255326 0.319974
316 2 0.0774682 0.0376292 0.330399
2756 4 0.0106297 0.0604499 0.305853
2478 4 0.00105792 0.0497915 0.291836
2755 2 0.00548539 0.0796137 0.321067
693 4 0.317688 0.0517471 0.266977
691 2 0.308001 0.06764 0.283673
24 3 0.325175 0.0419894 0.251142
22 3 0.360345 0.0549284 0.25402
21 1 0.346986 0.0364016 0.25675
23 3 0.34798 0.0296381 0.278923
257 4 0.423264 0.0720166 0.323879
479 4 0.457112 0.0406639 0.272566
478 2 0.445556 0.0438658 0.250626
2664 4 0.473554 0.0317688 0.27405
1428 4 0.4566 0.0281219 0.284066
258 4 0.447731 0.0436088 0.290787
2662 2 0.496709 0.0376814 0.281402
256 2 0.435498 0.0578127 0.307333
1426 2 0.449208 0.00616992 0.293481
403 2 0.227381 0.149835 0.322171
404 4 0.245656 0.13295 0.324648
692 4 0.298314 0.0835328 0.300369
721 2 0.266263 0.102542 0.311101
723 4 0.280451 0.0898737 0.294872
722 4 0.252075 0.115211 0.32733
29 3 0.375106 0.131044 0.260921
631 2 0.369985 0.0900193 0.254197
707 4 0.36157 0.122301 0.27244
633 4 0.369644 0.112129 0.265868
706 2 0.359747 0.131379 0.295666
708 4 0.357925 0.140456 0.318892
321 4 0.359257 0.156658 0.332322
600 4 0.113762 0.215386 0.329271
402 4 0.149471 0.249156 0.260878
405 4 0.209107 0.16672 0.319694
473 4 0.19543 0.174866 0.331967
269 4 0.415861 0.228389 0.32553
444 4 0.000509833 0.250244 0.313563
442 2 0.00965019 0.255409 0.29087
443 4 0.0187905 0.260574 0.268177
400 2 0.161256 0.271139 0.259127
735 4 0.16793 0.310686 0.252067
401 4 0.173041 0.293121 0.257377
676 2 0.171143 0.315461 0.293598
677 4 0.168026 0.30622 0.270575
345 4 0.185155 0.306441 0.262696
678 4 0.174261 0.324701 0.316621
378 4 0.265934 0.313996 0.286815
376 2 0.290847 0.315653 0.285481
377 4 0.31576 0.317311 0.284148
615 4 0.324798 0.32649 0.299441
497 4 0.327419 0.318884 0.268766
543 4 0.332011 0.313098 0.28731
418 2 0.394887 0.258971 0.321175
541 2 0.35271 0.302572 0.29658
542 4 0.373409 0.292045 0.30585
420 4 0.385352 0.276869 0.30655
750 4 0.0776673 0.358807 0.251252
364 2 0.00121367 0.399921 0.292277
601 2 0.0481668 0.413376 0.317851
603 4 0.0353907 0.411527 0.296437
300 4 0.0930705 0.370716 0.258053
510 4 0.181334 0.343799 0.312009
508 2 0.199643 0.360394 0.315828
509 4 0.217951 0.376989 0.319648
434 4 0.319634 0.380803 0.311205
433 2 0.307538 0.40223 0.315646
613 2 0.326582 0.348164 0.31178
614 4 0.328367 0.369838 0.324118
2 3 0.277064 0.412779 0.317848
365 4 0.0173314 0.418695 0.288681
1757 4 0.0147758 0.425623 0.269909
1756 2 0.0312412 0.444418 0.270814
1758 4 0.0477066 0.463213 0.271718
1775 4 0.0652871 0.461289 0.278977
775 2 0.0519552 0.483573 0.309975
777 4 0.050113 0.472961 0.28741
776 4 0.0537974 0.494184 0.33254
1776 4 0.114371 0.459911 0.269514
1774 2 0.0898292 0.4606 0.274246
413 4 0.242092 0.482007 0.267791
4 3 0.242799 0.424878 0.308246
1436 4 0.244616 0.490723 0.286617
1435 2 0.248352 0.46906 0.298533
1437 4 0.252088 0.447398 0.310448
3 3 0.266899 0.447917 0.326487
1 1 0.259441 0.426047 0.324372
436 2 0.301232 0.458338 0.316956
438 4 0.285783 0.438957 0.320254
435 4 0.295442 0.423658 0.320088
437 4 0.316681 0.47772 0.313659
1802 4 0.33463 0.480312 0.305608
1801 2 0.354031 0.488096 0.319327
1803 4 0.373432 0.495879 0.333045
119 3 0.478582 0.456108 0.332288
399 4 0.0781379 0.0712182 0.346251
318 4 0.0876619 0.0553169 0.344836
732 4 0.0960384 0.0706484 0.353519
730 2 0.120955 0.0685715 0.353322
731 4 0.145871 0.0664946 0.353125
606 4 0.162149 0.0562441 0.345908
604 2 0.180501 0.0719726 0.35231
1701 4 0.373513 0.000362588 0.39691
699 4 0.371968 0.0632014 0.368111
1699 2 0.375977 0.0221089 0.384818
1700 4 0.378442 0.0438552 0.372727
697 2 0.392482 0.0642628 0.353855
962 4 0.349017 0.00901065 0.413833
698 4 0.412996 0.0653243 0.3396
397 2 0.0649533 0.0886323 0.358421
398 4 0.0517687 0.106046 0.37059
2584 2 0.0170634 0.115286 0.363246
2586 4 0.0364754 0.116038 0.378987
458 4 0.0386224 0.128342 0.394954
457 2 0.0440714 0.149581 0.406971
2757 4 0.000341048 0.0987776 0.336281
605 4 0.198854 0.0877011 0.358712
249 4 0.242096 0.122369 0.341764
248 4 0.218255 0.0836266 0.362533
247 2 0.230176 0.102998 0.352148
683 4 0.258567 0.131544 0.338178
682 2 0.279683 0.143634 0.343931
684 4 0.300799 0.155725 0.349684
319 2 0.335425 0.163163 0.336176
726 4 0.395098 0.135136 0.39459
717 4 0.373141 0.164518 0.343503
715 2 0.383352 0.158719 0.365578
716 4 0.393562 0.15292 0.387652
467 4 0.395695 0.148693 0.407542
724 2 0.399878 0.115283 0.40902
642 4 0.499796 0.122763 0.38529
641 4 0.496464 0.161619 0.353988
640 2 0.49813 0.142191 0.369639
598 2 0.124095 0.218751 0.35179
599 4 0.134429 0.222117 0.374308
686 4 0.130415 0.228969 0.392336
685 2 0.110544 0.222803 0.406204
275 4 0.146699 0.227528 0.387288
389 4 0.143581 0.244381 0.394688
274 2 0.171088 0.222022 0.387054
474 4 0.198845 0.202378 0.373586
472 2 0.197137 0.188622 0.352777
276 4 0.195477 0.216516 0.386819
320 4 0.311592 0.169668 0.340031
419 4 0.404423 0.241072 0.335801
268 2 0.438148 0.225143 0.336389
270 4 0.460436 0.221896 0.347247
452 4 0.473014 0.221633 0.363518
451 2 0.472336 0.217129 0.388103
453 4 0.471657 0.212625 0.412689
2802 4 0.00379503 0.290486 0.406416
347 4 0.0585926 0.309702 0.394068
346 2 0.0336793 0.307585 0.393921
618 4 0.0749725 0.307713 0.381396
348 4 0.00876588 0.305468 0.393773
616 2 0.099624 0.307332 0.377232
373 2 0.158022 0.307355 0.350547
388 2 0.137825 0.268006 0.388866
390 4 0.132069 0.291631 0.383044
617 4 0.124275 0.306951 0.373068
374 4 0.140826 0.299675 0.366994
375 4 0.175218 0.315035 0.334101
488 4 0.394325 0.26611 0.387406
487 2 0.389346 0.25835 0.410648
602 4 0.0609428 0.415224 0.339264
549 4 0.0526102 0.406692 0.356461
10 3 0.141032 0.339024 0.40732
335 4 0.311515 0.371424 0.405563
240 4 0.318833 0.38634 0.393544
238 2 0.33724 0.390527 0.377148
239 4 0.355647 0.394714 0.360753
587 4 0.361126 0.414812 0.359766
752 4 0.459589 0.38748 0.387692
561 4 0.448678 0.371353 0.393628
751 2 0.470263 0.407263 0.376744
559 2 0.458578 0.366862 0.416145
547 2 0.0670521 0.416944 0.374111
500 4 0.066905 0.479277 0.338929
499 2 0.0677305 0.470595 0.362362
501 4 0.068556 0.461914 0.385796
407 4 0.0781231 0.447494 0.39393
548 4 0.0814941 0.427197 0.39176
406 2 0.0943475 0.455191 0.411329
1556 4 0.22163 0.500322 0.3862
1555 2 0.239265 0.488102 0.399042
5 3 0.251439 0.418599 0.344351
1557 4 0.256899 0.475882 0.411883
593 4 0.379543 0.478057 0.339006
588 4 0.377332 0.459099 0.343129
586 2 0.369229 0.436955 0.351447
592 2 0.397466 0.489417 0.352231
2862 4 0.49325 0.472 0.342939
116 1 0.488366 0.446762 0.351138
713 4 0.432491 0.49628 0.357659
712 2 0.451667 0.480697 0.353832
714 4 0.470843 0.465114 0.350005
753 4 0.480936 0.427046 0.365795
117 3 0.473494 0.448032 0.368641
118 3 0.493432 0.424463 0.347203
718 2 0.0205267 0.0090226 0.466031
369 4 0.0606039 0.0174162 0.462794
367 2 0.0815664 0.0115388 0.450497
719 4 0.0438765 0.0149139 0.472758
1781 4 0.122986 0.00560912 0.439357
368 4 0.102529 0.00566136 0.438201
340 2 0.214833 0.0254715 0.498013
341 4 0.211157 0.00220574 0.489624
963 4 0.325336 0.0505647 0.428434
432 4 0.313704 0.049843 0.445974
430 2 0.320697 0.0601713 0.467645
431 4 0.32769 0.0704995 0.489315
961 2 0.337177 0.0297877 0.421134
725 4 0.404658 0.0954305 0.423449
2656 2 0.49654 0.126796 0.426663
3489 4 0.492624 0.118559 0.4654
2657 4 0.486119 0.129401 0.449242
576 4 0.416825 0.147444 0.487381
459 4 0.0495204 0.17082 0.418988
260 4 0.0438867 0.187208 0.428646
259 2 0.0592407 0.206691 0.425509
261 4 0.0745947 0.226174 0.422371
687 4 0.0906724 0.216638 0.420071
1035 4 0.0841255 0.225741 0.438306
1033 2 0.0910145 0.245073 0.452588
409 2 0.396974 0.21723 0.450743
411 4 0.383917 0.238443 0.448565
466 2 0.402971 0.167446 0.422393
410 4 0.41003 0.196018 0.452921
468 4 0.410248 0.186199 0.437244
574 2 0.419064 0.170409 0.477748
515 4 0.47174 0.209646 0.432571
575 4 0.421304 0.193373 0.468115
516 4 0.426148 0.196235 0.448135
514 2 0.448944 0.20294 0.440353
1034 4 0.0979035 0.264405 0.46687
696 4 0.10249 0.276414 0.482308
1260 4 0.113003 0.276005 0.466222
1258 2 0.119898 0.298609 0.458055
1259 4 0.126793 0.321214 0.449889
9 3 0.162165 0.314966 0.427127
266 4 0.374875 0.254711 0.450993
489 4 0.384368 0.25059 0.433889
265 2 0.380245 0.266816 0.472202
267 4 0.385614 0.27892 0.493411
2457 4 0.487939 0.269525 0.493941
326 4 0.0730441 0.356056 0.440278
503 4 0.135049 0.333649 0.459287
7 3 0.136135 0.33603 0.444197
6 1 0.151624 0.335637 0.427195
327 4 0.118101 0.336247 0.449121
325 2 0.0955726 0.346152 0.4447
709 2 0.145681 0.404493 0.499163
502 2 0.140231 0.349519 0.4779
710 4 0.156584 0.382043 0.497642
504 4 0.145413 0.365389 0.496514
8 3 0.16719 0.352455 0.430837
334 2 0.308881 0.378044 0.42953
336 4 0.306247 0.384665 0.453496
668 4 0.293679 0.396297 0.46269
882 4 0.31034 0.390453 0.471478
880 2 0.330571 0.390525 0.486171
2508 4 0.489117 0.357349 0.437036
3308 4 0.469241 0.334945 0.487802
3309 4 0.475094 0.345079 0.439183
560 4 0.468477 0.362371 0.438662
3307 2 0.472167 0.340012 0.463493
1381 2 0.999978 0.497347 0.460817
568 2 0.140228 0.486038 0.427346
711 4 0.134779 0.426943 0.500684
408 4 0.110572 0.462888 0.428727
383 4 0.122282 0.447067 0.434895
384 4 0.132508 0.437703 0.482942
569 4 0.128464 0.46476 0.433178
382 2 0.127395 0.442385 0.458919
634 2 0.269369 0.475505 0.447355
667 2 0.286655 0.420168 0.465147
772 2 0.310702 0.472229 0.483898
774 4 0.294117 0.456394 0.473929
669 4 0.279632 0.444039 0.467604
636 4 0.261626 0.488541 0.427473
635 4 0.277112 0.462469 0.467236
773 4 0.327287 0.488063 0.493868
663 4 0.459339 0.480236 0.47628
1152 4 0.231754 0.0628684 0.511104
1150 2 0.240868 0.0690916 0.53354
1032 4 0.242052 0.0696459 0.574114
342 4 0.218509 0.0487372 0.506401
1151 4 0.249983 0.0753149 0.555976
841 2 0.364226 0.0668115 0.506337
843 4 0.340003 0.0622501 0.502137
1217 4 0.402079 0.0659555 0.523071
842 4 0.388448 0.0713729 0.510537
1216 2 0.427048 0.0650923 0.524066
1218 4 0.452017 0.0642292 0.525062
1058 4 0.0952413 0.0890404 0.519624
1270 2 0.0852575 0.150347 0.569596
1271 4 0.095651 0.127613 0.569012
1057 2 0.100078 0.10054 0.541294
1059 4 0.104915 0.112039 0.562963
1155 4 0.110989 0.126549 0.57653
939 4 0.101127 0.111918 0.581714
1153 2 0.13544 0.128088 0.581526
1181 4 0.239643 0.0868302 0.566187
1180 2 0.235148 0.109359 0.576057
898 2 0.247384 0.165066 0.565634
900 4 0.235766 0.149809 0.581679
1221 4 0.167953 0.146721 0.582806
1199 4 0.0287282 0.20432 0.556328
877 2 0.0633607 0.200011 0.558161
1272 4 0.0748639 0.17308 0.570181
878 4 0.0443927 0.215817 0.562106
1198 2 0.00615108 0.211604 0.548428
879 4 0.0823286 0.184205 0.554215
1244 4 0.0406329 0.223542 0.579327
1243 2 0.0452849 0.248063 0.580827
695 4 0.112216 0.247305 0.52179
651 4 0.209685 0.223888 0.527933
858 4 0.203998 0.240268 0.518299
649 2 0.226519 0.206497 0.534201
650 4 0.243354 0.189105 0.54047
899 4 0.259002 0.180323 0.54959
984 4 0.0012435 0.305977 0.569911
982 2 0.022417 0.29757 0.580216
1245 4 0.049937 0.272584 0.582328
694 2 0.107353 0.26186 0.502049
948 4 0.156415 0.304068 0.579994
856 2 0.190493 0.250219 0.536839
946 2 0.171626 0.284632 0.575986
857 4 0.176988 0.260171 0.55538
947 4 0.186836 0.265196 0.571978
798 4 0.206157 0.267269 0.576256
796 2 0.227102 0.28002 0.571365
797 4 0.248046 0.29277 0.566474
790 2 0.268391 0.316329 0.577137
791 4 0.262655 0.292169 0.580068
872 4 0.366098 0.303568 0.572553
954 4 0.493208 0.291366 0.554933
952 2 0.490623 0.30408 0.576307
1011 4 0.459852 0.32686 0.5031
1009 2 0.470791 0.304538 0.505785
1010 4 0.48173 0.282215 0.50847
3263 4 0.0430235 0.336404 0.562868
3262 2 0.0497742 0.351601 0.581541
936 4 0.00341766 0.349716 0.515257
1189 2 0.252147 0.370149 0.578702
804 4 0.274309 0.365604 0.502842
803 4 0.277533 0.3634 0.552696
802 2 0.275921 0.364502 0.527769
1190 4 0.274138 0.360166 0.572227
1238 4 0.286832 0.351553 0.564736
1237 2 0.310947 0.356274 0.569359
792 4 0.274126 0.340488 0.574206
1239 4 0.335061 0.360995 0.573983
930 4 0.348781 0.371671 0.562499
929 4 0.361436 0.391883 0.518544
928 2 0.355109 0.381777 0.540521
881 4 0.350802 0.390597 0.500864
539 4 0.0791364 0.44151 0.583735
1082 4 0.0613282 0.0723658 0.662383
1030 2 0.252361 0.0519238 0.588426
1031 4 0.26267 0.0342017 0.602737
951 4 0.26793 0.0154044 0.605384
949 2 0.292666 0.0188804 0.604289
950 4 0.317403 0.0223564 0.603195
1226 4 0.277743 0.0800812 0.649538
1148 4 0.265345 0.0729815 0.6642
1147 2 0.260284 0.0485202 0.6653
3008 4 0.493929 0.0338416 0.594561
809 4 0.482711 0.0256719 0.609884
808 2 0.475167 0.0389731 0.629667
810 4 0.467623 0.0522742 0.649449
45 3 0.473354 0.0753127 0.645907
41 1 0.463713 0.0741771 0.666508
1081 2 0.054839 0.0833226 0.640865
1126 2 0.023575 0.0884484 0.593152
1128 4 0.999935 0.0847453 0.585899
1083 4 0.0483499 0.0942795 0.619347
1127 4 0.047215 0.0921515 0.600406
938 4 0.065249 0.0928158 0.610845
937 2 0.0831878 0.102367 0.59628
1154 4 0.159891 0.129626 0.586523
1283 4 0.145627 0.0877386 0.665588
1219 2 0.192738 0.145663 0.58593
1220 4 0.217523 0.144605 0.589054
1182 4 0.230652 0.131888 0.585927
1210 2 0.239544 0.141041 0.623795
1212 4 0.23304 0.145928 0.600152
908 4 0.238669 0.123402 0.660075
1211 4 0.246049 0.136154 0.647438
1227 4 0.257002 0.125279 0.654796
888 4 0.262043 0.143623 0.656901
886 2 0.283936 0.155075 0.660736
1225 2 0.267372 0.10268 0.652167
3425 4 0.485736 0.0881899 0.660586
43 3 0.442697 0.0839974 0.665966
887 4 0.30583 0.166527 0.664571
1194 4 0.322262 0.175243 0.660863
1192 2 0.319009 0.189248 0.640407
1193 4 0.315755 0.203252 0.61995
3123 4 0.487203 0.207549 0.627547
3121 2 0.497429 0.226023 0.640939
983 4 0.0435905 0.289163 0.590521
1136 4 0.157457 0.301561 0.600899
1135 2 0.164043 0.321237 0.61485
871 2 0.380758 0.310703 0.59151
873 4 0.395418 0.317838 0.610467
813 4 0.396553 0.318949 0.630186
953 4 0.488038 0.316794 0.597681
3112 2 0.488665 0.276998 0.662759
3114 4 0.46884 0.292071 0.660539
1041 4 0.0676164 0.382083 0.605642
3264 4 0.0565249 0.366797 0.600214
3240 4 0.0490561 0.384056 0.605757
3238 2 0.028127 0.397578 0.603681
3239 4 0.00719794 0.4111 0.601605
1039 2 0.0901477 0.384947 0.616097
1040 4 0.112679 0.387811 0.626552
993 4 0.131941 0.391133 0.625161
991 2 0.149138 0.373681 0.630146
822 4 0.162264 0.339584 0.645696
992 4 0.166336 0.356229 0.63513
820 2 0.147428 0.333871 0.664995
1191 4 0.230157 0.380132 0.585177
1137 4 0.17063 0.340914 0.6288
1064 4 0.178069 0.350794 0.644746
897 4 0.18493 0.353189 0.627048
896 4 0.213641 0.373611 0.591561
895 2 0.199286 0.3634 0.609305
1172 4 0.21849 0.390696 0.597855
1063 2 0.196764 0.354923 0.660827
1171 2 0.2219 0.413542 0.607426
811 2 0.393351 0.343248 0.635134
927 4 0.396012 0.384362 0.651447
812 4 0.39015 0.367548 0.640081
925 2 0.410866 0.398369 0.637013
1206 4 0.38214 0.372954 0.656664
906 4 0.485611 0.33776 0.601632
926 4 0.425721 0.412375 0.62258
2244 4 0.115197 0.485526 0.605703
1160 4 0.128349 0.473094 0.61101
540 4 0.110947 0.466273 0.613326
538 2 0.0950417 0.453892 0.598531
1159 2 0.150263 0.479662 0.621101
1186 2 0.20048 0.464787 0.635369
1173 4 0.225311 0.436388 0.616997
1187 4 0.219601 0.453375 0.623996
1188 4 0.181359 0.476199 0.646741
1161 4 0.172177 0.48623 0.631192
1029 4 0.243936 0.418807 0.662274
1002 4 0.430989 0.423649 0.638714
1911 4 0.435645 0.484647 0.621233
1001 4 0.446649 0.469245 0.625428
1000 2 0.438819 0.446447 0.632071
1269 4 0.449071 0.485254 0.636103
1267 2 0.460819 0.492888 0.656813
944 4 0.0505338 0.0378515 0.672013
943 2 0.037663 0.016418 0.672371
1076 4 0.0554408 0.0556895 0.672733
1075 2 0.0634422 0.0630085 0.695263
864 4 0.0665082 0.0704261 0.736788
1077 4 0.0714436 0.0703275 0.717792
1107 4 0.0795737 0.0822673 0.730077
825 4 0.150266 0.0709131 0.67611
823 2 0.163813 0.0498975 0.676182
1105 2 0.101636 0.0787161 0.741295
2133 4 0.182016 0.0127164 0.666992
2256 4 0.169464 0.012134 0.68253
824 4 0.17736 0.0288819 0.676253
1149 4 0.255223 0.0240589 0.666399
1092 4 0.333855 0.0072737 0.698603
42 3 0.461456 0.0521135 0.672612
1163 4 0.475112 0.0616958 0.688248
1162 2 0.487717 0.0552124 0.708846
4581 4 0.495102 0.0236424 0.746729
2321 4 0.498442 0.041593 0.746461
851 4 0.0710691 0.0911234 0.715471
850 2 0.0732944 0.115601 0.710879
852 4 0.0755197 0.140078 0.706288
1282 2 0.160566 0.107515 0.668892
907 2 0.216342 0.125984 0.67103
1284 4 0.175504 0.127291 0.672195
909 4 0.194015 0.128566 0.681985
830 4 0.321831 0.15721 0.670399
829 2 0.336792 0.142379 0.683866
1005 4 0.353455 0.116107 0.715455
1003 2 0.355317 0.0997324 0.734258
831 4 0.351754 0.127547 0.697333
44 3 0.477088 0.0849464 0.682114
3268 2 0.489046 0.136191 0.745309
3270 4 0.488457 0.146878 0.722712
1146 4 0.473644 0.160526 0.727271
1214 4 0.0118579 0.194563 0.746612
1215 4 0.00786935 0.242955 0.734654
1213 2 0.00986364 0.218759 0.740633
1297 2 0.293864 0.215676 0.734669
1298 4 0.30901 0.235395 0.737302
918 4 0.300481 0.248191 0.747914
1299 4 0.278717 0.195957 0.732036
1025 4 0.388579 0.191425 0.703105
1024 2 0.408796 0.192411 0.717785
1020 4 0.381941 0.248527 0.740216
1144 2 0.460207 0.180771 0.733165
1262 4 0.432679 0.210768 0.738791
1026 4 0.429012 0.193397 0.732465
1145 4 0.446769 0.201016 0.739059
1261 2 0.443942 0.232966 0.741143
1073 4 0.0705032 0.26205 0.7471
1178 4 0.0136787 0.26084 0.730151
1177 2 0.0373616 0.268126 0.7335
1179 4 0.0610446 0.275412 0.736848
1072 2 0.0945514 0.263083 0.740332
1208 4 0.12862 0.276464 0.723339
1074 4 0.1186 0.264115 0.733565
1207 2 0.126979 0.298222 0.711131
821 4 0.132591 0.328159 0.684293
1209 4 0.125338 0.319981 0.698922
1130 4 0.137303 0.262737 0.735717
815 4 0.114678 0.33328 0.707565
805 2 0.244429 0.331345 0.686472
977 4 0.318608 0.251219 0.736831
806 4 0.262632 0.314511 0.683238
976 2 0.34303 0.251066 0.731473
978 4 0.367453 0.250913 0.726116
1263 4 0.455205 0.255165 0.743494
892 2 0.0336351 0.346741 0.718865
1280 4 0.0658115 0.366429 0.721866
816 4 0.0705686 0.356788 0.706007
894 4 0.0585313 0.348595 0.720251
893 4 0.0087389 0.344888 0.717479
1279 2 0.0724556 0.387986 0.732652
1281 4 0.0790997 0.409543 0.743439
942 4 0.13569 0.334292 0.705312
814 2 0.0926234 0.345034 0.706786
940 2 0.153323 0.345914 0.718699
1078 2 0.171717 0.396675 0.74566
941 4 0.170955 0.357535 0.732086
1080 4 0.176086 0.372085 0.746856
1065 4 0.215459 0.359052 0.676909
807 4 0.226227 0.34818 0.689707
1028 4 0.22115 0.37711 0.67786
1066 2 0.202947 0.365028 0.714035
1068 4 0.218262 0.364891 0.694271
1027 2 0.232543 0.397959 0.670067
1067 4 0.187633 0.365165 0.7338
1204 2 0.369463 0.389606 0.670345
1205 4 0.356786 0.406259 0.684026
1982 4 0.0885655 0.466946 0.747254
1079 4 0.167348 0.421264 0.744465
1174 2 0.17438 0.485945 0.731649
1175 4 0.168375 0.488199 0.707482
2172 4 0.181379 0.49675 0.696069
1140 4 0.240712 0.430038 0.678754
1228 2 0.313863 0.448275 0.685118
1138 2 0.258913 0.444242 0.688352
1139 4 0.277115 0.458447 0.69795
1987 2 0.313412 0.461889 0.739634
1229 4 0.297629 0.461624 0.698662
1989 4 0.306476 0.466065 0.715977
2028 4 0.287476 0.468468 0.7106
1230 4 0.330097 0.434926 0.671574
2026 2 0.281771 0.492268 0.705481
1099 2 0.490932 0.483466 0.702068
862 2 0.0457805 0.0742222 0.750247
2989 2 0.0146572 0.0469431 0.78999
2990 4 0.0219558 0.0689593 0.780652
2991 4 0.00735856 0.0249269 0.799328
863 4 0.0250528 0.0780184 0.763705
3083 4 0.00714617 0.0747064 0.767767
1106 4 0.123698 0.075165 0.752512
2049 4 0.101516 0.0044138 0.788073
1202 4 0.106171 0.0244488 0.790563
1201 2 0.118036 0.0461036 0.78663
1203 4 0.129901 0.0677585 0.782696
32 3 0.147123 0.0725636 0.794554
1085 4 0.309827 0.0664863 0.798234
960 4 0.312648 0.063946 0.81742
819 4 0.327288 0.0591667 0.805297
1084 2 0.288511 0.0794404 0.796498
1004 4 0.357178 0.0833573 0.753062
1050 4 0.346315 0.00308121 0.793509
817 2 0.341046 0.0395728 0.798088
818 4 0.354804 0.019979 0.790878
974 4 0.358237 0.00759087 0.807309
2320 2 0.488714 0.0498887 0.767949
844 2 0.495229 0.060627 0.827604
845 4 0.488738 0.0654754 0.80395
2322 4 0.478987 0.0581844 0.789437
1112 4 0.476151 0.0769015 0.792165