ITEM: TIMESTEP
820000
ITEM: NUMBER OF ATOMS
4590
ITEM: BOX BOUNDS pp pp pp
-9.9985700000000008e+00 9.9985700000000008e+00
-9.9985700000000008e+00 9.9985700000000008e+00
-9.9985700000000008e+00 9.9985700000000008e+00
ITEM: ATOMS id type xs ys zs
1666 2 0.0842621 0.0667128 0.0874494
1668 4 0.0845654 0.0528203 0.0666627
1475 4 0.304754 0.0279502 0.0643357
492 4 0.294665 0.0341453 0.0814309
1474 2 0.304015 0.00389936 0.0575395
1607 4 0.398942 0.995601 0.00490828
747 4 0.446689 0.0515747 0.0236631
2974 2 0.471316 0.0201719 0.0309359
2976 4 0.481402 0.00144388 0.0440777
2975 4 0.46123 0.0388999 0.0177941
986 4 0.445194 0.0409912 0.00734969
745 2 0.439242 0.0754436 0.0235807
566 4 0.173082 0.171921 0.0701259
567 4 0.210462 0.15039 0.0448315
565 2 0.191772 0.161156 0.0574787
297 4 0.318542 0.0841411 0.0491628
358 2 0.342038 0.145721 0.0706407
360 4 0.338466 0.159471 0.0500653
295 2 0.342833 0.0897979 0.050932
296 4 0.367124 0.0954547 0.0527013
557 4 0.369736 0.110156 0.0396092
556 2 0.391613 0.104641 0.0288306
558 4 0.41349 0.0991269 0.018052
769 2 0.414338 0.157278 0.0617173
770 4 0.390398 0.157425 0.0545047
746 4 0.431796 0.0993125 0.0234982
554 4 0.0754186 0.238433 0.0195303
664 2 0.355066 0.205458 0.0127336
665 4 0.355175 0.187085 0.0296927
666 4 0.354957 0.223831 0.995774
771 4 0.438279 0.157132 0.06893
323 4 0.413657 0.228622 0.0587916
553 2 0.0784294 0.261032 0.0297965
555 4 0.0814403 0.283631 0.0400627
656 4 0.00558449 0.309979 0.0650969
293 4 0.159315 0.285161 0.0278961
507 4 0.162026 0.296095 0.0440247
287 4 0.153477 0.315305 0.0473855
292 2 0.155648 0.272556 0.00661618
505 2 0.1772 0.282531 0.0585482
483 4 0.209289 0.276318 0.0648415
506 4 0.192375 0.268967 0.0730717
481 2 0.233723 0.272269 0.0614099
573 4 0.261452 0.253707 0.0428218
482 4 0.258156 0.26822 0.0579783
572 4 0.297389 0.27684 0.0168571
571 2 0.279421 0.265274 0.0298394
357 4 0.296032 0.268078 0.996986
957 4 0.314032 0.319637 0.00934684
1069 2 0.39196 0.2912 0.0166776
1070 4 0.414021 0.280989 0.0108284
1071 4 0.369898 0.30141 0.0225269
322 2 0.413236 0.246607 0.0414262
324 4 0.412815 0.264591 0.0240608
671 4 0.443895 0.307435 0.0830314
280 2 0.43852 0.300516 0.0419641
281 4 0.446974 0.310358 0.063338
282 4 0.430067 0.290673 0.0205903
551 4 0.0701187 0.387862 0.0831521
550 2 0.0943749 0.384637 0.0780129
552 4 0.118631 0.381412 0.0728738
288 4 0.166486 0.363212 0.0413554
286 2 0.159981 0.339259 0.0443705
250 2 0.30482 0.405533 0.0367805
251 4 0.2959 0.385099 0.0254645
741 4 0.370895 0.331021 0.0571053
739 2 0.355367 0.338221 0.0753322
245 4 0.22694 0.445399 0.067748
626 4 0.207015 0.450691 0.0717485
244 2 0.237952 0.455906 0.0479106
246 4 0.248965 0.466412 0.0280732
272 4 0.266731 0.465815 0.0185183
252 4 0.313741 0.425967 0.0480965
609 4 0.303588 0.429184 0.0645626
563 4 0.47584 0.47807 0.0377721
228 4 0.472233 0.462446 0.0493295
226 2 0.467825 0.449189 0.0700666
562 2 0.456761 0.494211 0.0369774
19 3 0.0463349 0.0651597 0.148555
1667 4 0.0839587 0.0806052 0.108236
18 3 0.0675986 0.0416475 0.169518
16 1 0.0523985 0.0591683 0.170136
20 3 0.0615685 0.0770357 0.180875
1539 4 0.159436 0.997817 0.143063
448 2 0.181424 0.0724827 0.156858
450 4 0.187129 0.0491038 0.163644
490 2 0.282875 0.0492672 0.0974782
652 2 0.286272 0.0307781 0.159357
653 4 0.302877 0.0492214 0.156308
491 4 0.271086 0.064389 0.113525
654 4 0.269667 0.0123348 0.162406
311 4 0.388994 0.064508 0.160104
2722 2 0.474694 0.0539884 0.12813
2723 4 0.462942 0.0690115 0.111963
2724 4 0.486447 0.0389654 0.144297
1760 4 0.500032 0.0240574 0.146548
2744 4 0.497801 0.0376274 0.160023
701 4 0.0743922 0.0866573 0.124697
700 2 0.0785396 0.110524 0.130892
702 4 0.0826869 0.13439 0.137088
380 4 0.0139248 0.115999 0.162025
476 4 0.0913421 0.144396 0.153254
475 2 0.11125 0.157667 0.160517
449 4 0.175719 0.0958617 0.150071
237 4 0.206093 0.154546 0.17182
235 2 0.195846 0.1341 0.161715
236 4 0.1856 0.113653 0.151609
582 4 0.243717 0.111862 0.163144
359 4 0.34561 0.131971 0.0912161
581 4 0.288416 0.13333 0.156677
580 2 0.266067 0.122596 0.15991
310 2 0.400911 0.0855715 0.153818
628 2 0.411122 0.139824 0.12789
630 4 0.402195 0.154828 0.109991
629 4 0.420049 0.12482 0.145789
312 4 0.412827 0.106635 0.147532
339 4 0.0607966 0.262109 0.137552
2625 4 0.0211856 0.188829 0.115671
337 2 0.0730689 0.252085 0.156893
477 4 0.131157 0.170937 0.167781
737 4 0.210526 0.161957 0.123304
736 2 0.190536 0.176939 0.122245
738 4 0.170547 0.191922 0.121187
461 4 0.303782 0.236748 0.0927054
460 2 0.323949 0.223529 0.0860938
354 4 0.28669 0.231936 0.101978
278 4 0.269228 0.236487 0.164377
352 2 0.283266 0.233716 0.126682
353 4 0.279841 0.235497 0.151386
277 2 0.253228 0.21917 0.172703
254 4 0.391121 0.171128 0.10791
462 4 0.344117 0.210311 0.0794823
255 4 0.351943 0.198852 0.0938679
253 2 0.371532 0.18499 0.100889
765 4 0.377047 0.246941 0.141567
763 2 0.361261 0.240389 0.159817
518 4 0.481924 0.237246 0.107267
528 4 0.4741 0.240125 0.125861
536 4 0.208422 0.306342 0.118628
535 2 0.200802 0.330155 0.118812
612 4 0.251437 0.319461 0.158941
756 4 0.252252 0.300023 0.156151
754 2 0.260183 0.276314 0.155776
755 4 0.268113 0.252604 0.155401
624 4 0.393392 0.242874 0.130608
622 2 0.386047 0.254485 0.109717
623 4 0.378703 0.266095 0.0888255
672 4 0.409763 0.336342 0.105394
670 2 0.426829 0.321889 0.0942128
526 2 0.467494 0.256723 0.143354
527 4 0.460887 0.273322 0.160847
455 4 0.132837 0.389485 0.0841102
454 2 0.154088 0.393952 0.0965042
456 4 0.17534 0.39842 0.108898
537 4 0.193182 0.353969 0.118996
302 4 0.317621 0.355332 0.166713
387 4 0.315149 0.349129 0.147543
385 2 0.330351 0.351128 0.127792
740 4 0.339839 0.345421 0.093559
15 3 0.362063 0.364499 0.11476
386 4 0.345552 0.353126 0.108041
11 1 0.384415 0.361574 0.117997
13 3 0.388762 0.358069 0.140518
14 3 0.396008 0.380224 0.1105
495 4 0.408154 0.383836 0.0950757
12 3 0.391448 0.343175 0.106115
493 2 0.414844 0.405541 0.10553
625 2 0.186235 0.450161 0.0856429
627 4 0.165454 0.44963 0.0995372
637 2 0.233548 0.506036 0.157928
607 2 0.319515 0.436639 0.082337
608 4 0.335442 0.444093 0.100111
658 2 0.369319 0.452412 0.120615
659 4 0.348674 0.45732 0.10739
660 4 0.389963 0.447504 0.13384
525 4 0.352301 0.495296 0.0905405
494 4 0.421533 0.427247 0.115984
227 4 0.463418 0.435933 0.0908036
17 3 0.0336127 0.0523179 0.181508
2480 4 0.021539 0.0372825 0.189159
1422 4 0.023141 0.0262978 0.173452
673 2 0.113704 0.0218914 0.230485
674 4 0.125697 0.0316286 0.210825
693 4 0.217593 0.0813113 0.208018
691 2 0.227033 0.0762092 0.230602
689 4 0.175326 0.0169678 0.224081
24 3 0.316186 0.0571679 0.241202
21 1 0.338237 0.0518829 0.236279
25 3 0.339359 0.0411071 0.216248
759 4 0.350235 0.0591307 0.211299
22 3 0.350464 0.0713329 0.235115
757 2 0.359447 0.0618651 0.188216
758 4 0.368658 0.0645996 0.165132
742 2 0.492586 0.0695914 0.231613
578 4 0.0662821 0.109402 0.213295
379 2 0.0190873 0.13248 0.180106
381 4 0.0242498 0.14896 0.198187
512 4 0.0328145 0.166399 0.206492
511 2 0.0461854 0.162647 0.227284
513 4 0.0595563 0.158895 0.248076
577 2 0.0880838 0.10081 0.222015
579 4 0.109885 0.092218 0.230736
632 4 0.370291 0.116738 0.243709
743 4 0.482903 0.0775245 0.253258
333 4 0.457331 0.12663 0.230092
331 2 0.466547 0.14845 0.238102
338 4 0.0853412 0.242061 0.176235
363 4 0.0814853 0.235172 0.194361
361 2 0.0901111 0.25125 0.211457
279 4 0.237228 0.201854 0.181029
546 4 0.178126 0.180302 0.248998
284 4 0.28791 0.228556 0.167356
283 2 0.309575 0.22963 0.179791
285 4 0.33124 0.230704 0.192227
27 3 0.316407 0.176466 0.247356
764 4 0.345475 0.233837 0.178066
520 2 0.497315 0.184323 0.213023
521 4 0.48119 0.18301 0.232088
332 4 0.475762 0.170269 0.246113
394 2 0.0135335 0.259587 0.232332
395 4 0.0345611 0.265039 0.219951
750 4 0.0754621 0.317035 0.253868
748 2 0.0799951 0.293051 0.248442
371 4 0.15621 0.300319 0.214736
370 2 0.136379 0.285891 0.219605
372 4 0.116547 0.271463 0.224474
362 4 0.098737 0.267327 0.228554
749 4 0.0845282 0.269068 0.243017
343 2 0.243365 0.308187 0.241841
344 4 0.25545 0.309946 0.220023
610 2 0.250629 0.322877 0.183697
307 2 0.328294 0.287656 0.240342
308 4 0.336702 0.275051 0.220453
648 4 0.0754534 0.354689 0.16021
647 4 0.0863443 0.355811 0.209004
646 2 0.0808988 0.35525 0.184607
299 4 0.140504 0.342057 0.255321
415 2 0.210248 0.401036 0.173699
291 4 0.247627 0.387473 0.189125
416 4 0.232132 0.389734 0.178005
417 4 0.188365 0.412339 0.169393
289 2 0.263701 0.406437 0.191807
611 4 0.249821 0.326294 0.208453
303 4 0.291981 0.373456 0.205634
301 2 0.304801 0.364394 0.186174
729 4 0.308456 0.380194 0.217172
727 2 0.316911 0.37344 0.239712
447 4 0.412013 0.386885 0.253393
644 4 0.429398 0.382381 0.243521
595 2 0.460934 0.402095 0.179475
597 4 0.448198 0.381942 0.187016
643 2 0.433533 0.375482 0.219847
645 4 0.437668 0.368584 0.196172
1757 4 0.0762844 0.476886 0.246083
264 4 0.0289257 0.433479 0.246806
262 2 0.00793553 0.429855 0.233712
1466 4 0.0527155 0.495287 0.17258
767 4 0.270169 0.490731 0.175853
638 4 0.256222 0.497213 0.16369
290 4 0.279775 0.4254 0.194489
768 4 0.279043 0.442202 0.184031
766 2 0.274606 0.466467 0.179942
596 4 0.473671 0.422247 0.171935
231 4 0.42029 0.471834 0.22363
232 2 0.017401 0.0282465 0.298855
233 4 0.0392534 0.0312467 0.28708
1402 2 0.0744803 0.0233783 0.269855
1404 4 0.0503585 0.0299509 0.269511
675 4 0.10171 0.0121543 0.250145
1403 4 0.0986021 0.0168056 0.2702
1464 4 0.0990693 0.00584958 0.286311
692 4 0.236473 0.0711071 0.253186
723 4 0.228878 0.0710973 0.271416
1700 4 0.282545 0.0490746 0.349539
23 3 0.347086 0.0384496 0.253002
697 2 0.367356 0.0659541 0.340256
478 2 0.4804 0.0650606 0.292694
480 4 0.459357 0.0762842 0.300202
393 4 0.0561792 0.166482 0.265544
398 4 0.0555324 0.138986 0.301024
397 2 0.060918 0.121382 0.317944
721 2 0.225173 0.0828287 0.293183
722 4 0.221469 0.0945601 0.314951
249 4 0.226913 0.111337 0.322113
404 4 0.238563 0.126715 0.328301
28 3 0.305132 0.14062 0.246588
403 2 0.259835 0.139719 0.326414
405 4 0.281108 0.152723 0.324527
26 1 0.305432 0.160089 0.259209
29 3 0.316712 0.156428 0.279153
699 4 0.35899 0.085066 0.326475
707 4 0.335042 0.157411 0.288991
633 4 0.347185 0.146018 0.277018
631 2 0.358738 0.131378 0.260363
706 2 0.343556 0.163738 0.311633
350 4 0.402341 0.0922959 0.294455
351 4 0.451355 0.0956411 0.303792
349 2 0.426848 0.0939685 0.299123
444 4 0.00889546 0.235848 0.304435
391 2 0.076807 0.179212 0.271676
442 2 0.0019645 0.237232 0.280451
443 4 0.995034 0.238616 0.256467
389 4 0.0674641 0.236309 0.327021
392 4 0.0974349 0.191942 0.277808
388 2 0.0871089 0.243504 0.313328
545 4 0.172545 0.217078 0.282421
544 2 0.175335 0.19869 0.265709
30 3 0.284127 0.166916 0.263471
708 4 0.352071 0.170065 0.334275
717 4 0.369556 0.226889 0.332371
762 4 0.480589 0.183093 0.263656
761 4 0.468487 0.17431 0.311375
760 2 0.474538 0.178701 0.287516
390 4 0.106754 0.250699 0.299635
345 4 0.231281 0.306428 0.26366
401 4 0.187651 0.258462 0.31821
400 2 0.19919 0.251322 0.297208
402 4 0.210728 0.244183 0.276206
496 2 0.311606 0.325378 0.289182
497 4 0.296059 0.335642 0.305859
377 4 0.29101 0.328675 0.322724
498 4 0.327153 0.315114 0.272505
309 4 0.319886 0.300262 0.260232
615 4 0.376607 0.333002 0.317347
541 2 0.385523 0.301282 0.326469
543 4 0.367097 0.315371 0.317135
542 4 0.40395 0.287192 0.335803
364 2 0.00758156 0.37395 0.295374
365 4 0.0302629 0.38173 0.288289
601 2 0.0587952 0.400357 0.29488
603 4 0.0376549 0.397914 0.281753
602 4 0.0799355 0.4028 0.308006
549 4 0.0898201 0.413925 0.322373
300 4 0.0946646 0.322679 0.250429
298 2 0.117584 0.332368 0.252875
676 2 0.202492 0.336417 0.320556
677 4 0.200667 0.346965 0.29796
734 4 0.158171 0.349902 0.258435
733 2 0.181235 0.348567 0.267998
735 4 0.204299 0.347232 0.27756
728 4 0.325366 0.366687 0.262253
433 2 0.307679 0.381197 0.331474
435 4 0.282742 0.379514 0.332199
434 4 0.332615 0.382879 0.33075
613 2 0.363038 0.353223 0.323019
614 4 0.349469 0.373444 0.32869
445 2 0.406617 0.365916 0.265898
446 4 0.401222 0.344947 0.278403
2463 4 0.0214562 0.477606 0.312346
2690 4 0.00813215 0.471545 0.299307
777 4 0.0845458 0.462988 0.305186
775 2 0.0989651 0.47148 0.323764
412 2 0.212509 0.488345 0.330646
436 2 0.327149 0.462976 0.327547
1803 4 0.357636 0.493014 0.264062
437 4 0.333846 0.450745 0.306793
714 4 0.469695 0.463565 0.331294
427 2 0.071546 0.0043759 0.339767
428 4 0.0559515 0.0238294 0.341652
316 2 0.0592261 0.06172 0.345276
317 4 0.0472029 0.0399285 0.347674
1781 4 0.1146 0.000113042 0.392661
368 4 0.101367 0.0117906 0.400895
605 4 0.177822 0.0963281 0.371229
1699 2 0.280692 0.0250266 0.342948
683 4 0.286337 0.0698739 0.386186
698 4 0.375722 0.0468422 0.354037
257 4 0.391532 0.0362034 0.349719
256 2 0.415163 0.0328238 0.342281
258 4 0.438794 0.0294441 0.334842
1428 4 0.444898 0.0119116 0.343952
2879 4 0.486721 0.0782526 0.417803
2584 2 0.997572 0.131411 0.371752
732 4 0.0715519 0.0997178 0.352471
399 4 0.0663036 0.103777 0.334863
2586 4 0.0189133 0.132961 0.384687
318 4 0.0712494 0.0835115 0.342878
457 2 0.0313483 0.15873 0.416634
458 4 0.0197905 0.149666 0.3964
606 4 0.134066 0.0961888 0.347019
604 2 0.155944 0.0962585 0.359124
731 4 0.1208 0.103915 0.360066
730 2 0.0961761 0.101816 0.356268
598 2 0.150312 0.150309 0.372613
600 4 0.160022 0.141269 0.393807
599 4 0.140602 0.15935 0.35142
248 4 0.19388 0.101206 0.358263
247 2 0.210396 0.106272 0.340188
473 4 0.230247 0.160223 0.371597
682 2 0.290556 0.0902431 0.400059
684 4 0.294774 0.110612 0.413933
452 4 0.462281 0.135892 0.409206
451 2 0.44031 0.147503 0.411966
686 4 0.156847 0.180746 0.412692
474 4 0.211063 0.206051 0.3773
276 4 0.21171 0.226035 0.377872
472 2 0.220655 0.183137 0.374448
274 2 0.188188 0.232275 0.372132
715 2 0.389267 0.217046 0.344194
716 4 0.408977 0.207202 0.356016
467 4 0.408537 0.200846 0.374758
466 2 0.399442 0.202704 0.397974
269 4 0.499847 0.225097 0.393687
268 2 0.476905 0.233524 0.388411
270 4 0.453963 0.24195 0.383136
347 4 0.07206 0.299615 0.363803
346 2 0.0484159 0.301635 0.371681
618 4 0.0908997 0.306875 0.36404
348 4 0.0247717 0.303654 0.379559
616 2 0.11514 0.303144 0.359175
617 4 0.13938 0.299414 0.354309
678 4 0.204318 0.325869 0.343152
275 4 0.164665 0.238514 0.366392
375 4 0.197204 0.314611 0.35825
373 2 0.188768 0.305931 0.380128
374 4 0.180331 0.297251 0.402006
376 2 0.28064 0.310531 0.336452
378 4 0.270269 0.292387 0.350179
420 4 0.414683 0.27958 0.351713
418 2 0.437346 0.272062 0.344296
419 4 0.46001 0.264544 0.336878
510 4 0.21246 0.374145 0.371211
508 2 0.236016 0.365884 0.369793
509 4 0.259573 0.357623 0.368374
561 4 0.462903 0.397943 0.398989
751 2 0.450341 0.40604 0.365411
753 4 0.452157 0.401524 0.340886
559 2 0.481924 0.388792 0.412391
547 2 0.0763523 0.416379 0.343296
548 4 0.0628846 0.418833 0.364219
407 4 0.074748 0.428554 0.376024
406 2 0.0809688 0.438337 0.398177
1545 4 0.156599 0.499284 0.397286
500 4 0.100496 0.491461 0.353716
570 4 0.142161 0.48778 0.407534
776 4 0.113384 0.479972 0.342342
1555 2 0.243641 0.491189 0.402817
1556 4 0.221038 0.495162 0.392894
414 4 0.203266 0.467956 0.341783
438 4 0.320451 0.475206 0.348301
3 3 0.301168 0.467415 0.357777
1 1 0.310264 0.484988 0.369896
4 3 0.315315 0.47798 0.391432
1557 4 0.266245 0.487217 0.41274
2 3 0.329634 0.49189 0.359586
1742 4 0.409073 0.484061 0.348966
594 4 0.41287 0.464443 0.352964
592 2 0.403203 0.466795 0.375904
593 4 0.393537 0.469147 0.398843
118 3 0.48824 0.426859 0.351835
712 2 0.445121 0.459977 0.334199
752 4 0.448525 0.410556 0.389936
713 4 0.420548 0.456389 0.337105
119 3 0.48094 0.46401 0.348532
116 1 0.495454 0.448208 0.357366
117 3 0.49566 0.450285 0.380275
718 2 0.0567793 0.0311187 0.475292
720 4 0.0348285 0.0296146 0.487169
2237 4 0.0209416 0.0175143 0.495158
719 4 0.0787301 0.0326228 0.463414
369 4 0.0872785 0.0250951 0.446995
367 2 0.0943227 0.0184428 0.423945
340 2 0.220771 0.0515741 0.497225
341 4 0.221871 0.0271846 0.491829
2430 4 0.225843 0.00742592 0.492366
342 4 0.219671 0.0759636 0.502622
441 4 0.317618 0.0258696 0.418931
962 4 0.312531 0.0252945 0.437897
961 2 0.306383 0.0308323 0.461492
963 4 0.300235 0.0363701 0.485087
432 4 0.295256 0.0439047 0.503695
426 4 0.384517 0.0260322 0.420377
424 2 0.360213 0.0210447 0.417277
425 4 0.335908 0.0160572 0.414177
725 4 0.402255 0.056457 0.439566
724 2 0.411908 0.074983 0.453306
459 4 0.0429062 0.167795 0.436868
1152 4 0.223202 0.0950194 0.506602
1181 4 0.266983 0.121494 0.475632
320 4 0.304979 0.120402 0.427958
321 4 0.292582 0.168736 0.424662
319 2 0.298781 0.144569 0.42631
726 4 0.421561 0.093509 0.467046
514 2 0.40222 0.164405 0.449427
516 4 0.382976 0.163366 0.465357
453 4 0.418339 0.159114 0.414727
2878 2 0.477464 0.0918556 0.43663
2880 4 0.468207 0.105459 0.455457
640 2 0.481835 0.126484 0.486948
515 4 0.421463 0.165444 0.433497
642 4 0.483094 0.111267 0.467148
260 4 0.0510116 0.186599 0.437794
259 2 0.0755889 0.187474 0.442307
685 2 0.137582 0.181575 0.428609
687 4 0.118317 0.182405 0.444525
261 4 0.100166 0.188349 0.446819
1035 4 0.111435 0.192343 0.461604
1033 2 0.11538 0.204145 0.483291
489 4 0.325227 0.231374 0.433208
468 4 0.390347 0.204562 0.421191
411 4 0.337831 0.21587 0.436079
409 2 0.361403 0.207741 0.437933
410 4 0.384976 0.199611 0.439787
575 4 0.386424 0.175434 0.481611
305 4 0.496624 0.180959 0.443038
695 4 0.0643954 0.245882 0.454962
694 2 0.0869561 0.25393 0.462132
696 4 0.109517 0.261978 0.469303
1258 2 0.127101 0.294143 0.491296
1260 4 0.120563 0.277368 0.473946
9 3 0.142514 0.32744 0.503242
651 4 0.235993 0.28195 0.490425
487 2 0.313856 0.253095 0.438113
488 4 0.302484 0.274816 0.443018
266 4 0.355569 0.266145 0.437195
267 4 0.380487 0.280705 0.478034
265 2 0.368028 0.273425 0.457614
583 2 0.468338 0.260722 0.478187
585 4 0.444364 0.256959 0.472165
584 4 0.492312 0.264485 0.484208
681 4 0.00700672 0.404626 0.420817
326 4 0.0750832 0.365156 0.472141
6 1 0.150297 0.346975 0.493435
327 4 0.120925 0.34702 0.480526
325 2 0.098004 0.356088 0.476334
7 3 0.132536 0.361205 0.490088
711 4 0.163293 0.367774 0.438124
502 2 0.24172 0.384757 0.432968
10 3 0.160017 0.342266 0.473385
504 4 0.217423 0.390659 0.432841
709 2 0.181836 0.384542 0.437712
710 4 0.200379 0.40131 0.4373
772 2 0.280226 0.413463 0.493286
669 4 0.288943 0.41394 0.457265
503 4 0.266017 0.378855 0.433096
336 4 0.32455 0.374319 0.432699
668 4 0.31307 0.387541 0.422312
667 2 0.301006 0.40074 0.439789
587 4 0.399397 0.415639 0.433439
882 4 0.352871 0.397581 0.47398
335 4 0.367404 0.350702 0.42238
334 2 0.345977 0.362511 0.427539
238 2 0.397198 0.38087 0.436262
240 4 0.382527 0.360952 0.432628
239 4 0.41187 0.400788 0.439897
560 4 0.500946 0.379641 0.425793
3307 2 0.492745 0.383316 0.489079
3309 4 0.470157 0.393777 0.491428
679 2 0.0171455 0.425087 0.431004
680 4 0.0272842 0.445547 0.44119
1383 4 0.0283639 0.463525 0.430838
1381 2 0.0254451 0.486976 0.439004
384 4 0.0857079 0.419296 0.478837
408 4 0.0871896 0.44812 0.420331
568 2 0.126685 0.47399 0.421515
382 2 0.0915081 0.432707 0.458547
383 4 0.0973083 0.446118 0.438257
569 4 0.111208 0.4602 0.435497
880 2 0.337004 0.410244 0.488578
636 4 0.279073 0.476345 0.423981
774 4 0.285586 0.426227 0.472465
635 4 0.28296 0.441925 0.460048
634 2 0.281017 0.459135 0.442014
588 4 0.389197 0.462426 0.41903
586 2 0.394297 0.439032 0.426235
661 2 0.451584 0.48261 0.464748
663 4 0.437393 0.462356 0.468428
430 2 0.304239 0.0586392 0.521788
431 4 0.313223 0.0733736 0.539882
1031 4 0.272306 0.0681278 0.584087
843 4 0.330683 0.0737167 0.549496
841 2 0.354517 0.0695464 0.543191
842 4 0.37835 0.0653761 0.536885
1217 4 0.387509 0.0584759 0.521754
1216 2 0.411716 0.0561658 0.527573
1218 4 0.435923 0.0538558 0.533393
3007 2 0.497176 0.0539384 0.568741
3008 4 0.47828 0.0687716 0.575679
1128 4 0.013202 0.104507 0.577623
470 4 0.0345923 0.159825 0.533551
938 4 0.0690384 0.154563 0.56094
937 2 0.0926101 0.151642 0.568752
1059 4 0.133793 0.11632 0.573824
939 4 0.116182 0.148721 0.576563
1057 2 0.11426 0.101091 0.577251
1155 4 0.130157 0.135906 0.577578
1151 4 0.199683 0.132139 0.530471
1150 2 0.211443 0.113579 0.518536
1032 4 0.241445 0.107475 0.583852
1030 2 0.256875 0.0878015 0.583969
1182 4 0.273483 0.143186 0.520219
1180 2 0.270233 0.13234 0.497925
641 4 0.480577 0.141702 0.506748
469 2 0.0274331 0.183427 0.529443
878 4 0.0323796 0.224087 0.580053
471 4 0.0202739 0.207029 0.525335
1244 4 0.0366115 0.244714 0.580283
1199 4 0.0166349 0.218185 0.568842
877 2 0.0534346 0.210791 0.582308
1034 4 0.119325 0.215946 0.504978
1271 4 0.138928 0.217276 0.589245
858 4 0.178756 0.240811 0.532164
856 2 0.196863 0.253519 0.520509
900 4 0.277044 0.158831 0.530798
898 2 0.288634 0.17546 0.545438
899 4 0.300223 0.192089 0.560078
650 4 0.267508 0.253722 0.517084
576 4 0.393612 0.184154 0.530325
574 2 0.390018 0.179794 0.505968
983 4 0.0220198 0.310514 0.538034
1245 4 0.0596021 0.285014 0.561626
1243 2 0.0481068 0.264864 0.570955
982 2 0.0188806 0.330756 0.552373
1259 4 0.133639 0.310919 0.508646
857 4 0.214969 0.266227 0.508854
798 4 0.198195 0.266371 0.576516
947 4 0.180543 0.265251 0.587507
649 2 0.25175 0.267836 0.503754
872 4 0.370867 0.282441 0.553411
871 2 0.367672 0.307224 0.552527
873 4 0.364477 0.332007 0.551644
906 4 0.462437 0.266765 0.575145
953 4 0.449912 0.277201 0.586953
904 2 0.487093 0.266401 0.571005
984 4 0.0157414 0.350998 0.566712
3354 4 0.0145329 0.368208 0.578138
1189 2 0.217004 0.373543 0.581507
1190 4 0.235266 0.36038 0.570624
8 3 0.165645 0.357302 0.507442
803 4 0.240043 0.351363 0.552945
802 2 0.259046 0.359193 0.538706
804 4 0.278048 0.367024 0.524466
929 4 0.334798 0.389847 0.553375
773 4 0.274865 0.400699 0.514107
813 4 0.370178 0.342835 0.53506
928 2 0.337701 0.37287 0.5715
811 2 0.380099 0.365723 0.533354
812 4 0.39002 0.38861 0.531647
927 4 0.40519 0.390899 0.545036
926 4 0.45112 0.38915 0.564736
925 2 0.428155 0.390024 0.554886
539 4 0.0769601 0.467626 0.504083
538 2 0.0962596 0.474664 0.518337
540 4 0.115559 0.481702 0.532591
1188 4 0.181905 0.487787 0.585962
881 4 0.321138 0.422907 0.503175
1002 4 0.412648 0.435263 0.558376
1000 2 0.432738 0.448907 0.552426
1001 4 0.452829 0.46255 0.546475
945 4 0.0236281 0.0375674 0.671992
1083 4 0.0678188 0.0990015 0.617109
2115 4 0.997301 0.0186087 0.611677
823 2 0.123923 0.0189975 0.624515
825 4 0.104866 0.0339218 0.61825
1058 4 0.0947271 0.0858629 0.580678
824 4 0.142981 0.00407329 0.630781
951 4 0.282254 0.0514338 0.578478
949 2 0.301048 0.0472437 0.594428
950 4 0.319843 0.0430535 0.610377
2283 4 0.422156 0.00349896 0.600755
809 4 0.472147 0.0680229 0.594696
808 2 0.465604 0.076033 0.61746
42 3 0.448959 0.0706152 0.655194
1126 2 0.0353396 0.100343 0.588475
1081 2 0.0604478 0.093169 0.640278
1127 4 0.0574773 0.0961785 0.599327
1082 4 0.0530768 0.0873365 0.663448
1153 2 0.147805 0.149492 0.588942
1154 4 0.165452 0.163079 0.600305
1221 4 0.177952 0.162656 0.61506
810 4 0.459061 0.0840431 0.640224
45 3 0.460282 0.105686 0.649298
41 1 0.450723 0.0916072 0.664433
879 4 0.0744895 0.197495 0.584562
1272 4 0.0910322 0.203455 0.593201
1270 2 0.11498 0.210365 0.591223
1212 4 0.22015 0.210324 0.63781
1219 2 0.19464 0.180833 0.619097
1220 4 0.211328 0.19901 0.623134
1210 2 0.239299 0.203763 0.652488
1211 4 0.258448 0.197202 0.667167
1194 4 0.315222 0.171701 0.660077
1193 4 0.364434 0.177944 0.653759
1192 2 0.339828 0.174822 0.656918
3159 4 0.491614 0.173783 0.583811
1136 4 0.122689 0.296066 0.588414
948 4 0.133161 0.279914 0.581132
946 2 0.156852 0.272582 0.584319
1135 2 0.128345 0.320391 0.589637
796 2 0.217645 0.265846 0.59222
797 4 0.237095 0.265322 0.607923
791 4 0.256123 0.268547 0.610562
792 4 0.299551 0.285319 0.592302
790 2 0.277837 0.276933 0.601432
1238 4 0.308661 0.302522 0.590465
1237 2 0.326248 0.32008 0.593213
954 4 0.402242 0.291568 0.591632
806 4 0.357463 0.317735 0.68204
952 2 0.426077 0.284384 0.589293
3123 4 0.49514 0.260969 0.654128
1039 2 0.0703056 0.405845 0.634581
1041 4 0.046153 0.411802 0.632062
3264 4 0.0295762 0.402016 0.633313
3262 2 0.0231563 0.380622 0.644549
3263 4 0.0167363 0.359228 0.655785
1040 4 0.0944582 0.399888 0.6371
993 4 0.091737 0.380965 0.630207
1137 4 0.134001 0.344715 0.59086
897 4 0.137098 0.364593 0.588208
991 2 0.108439 0.369365 0.615657
992 4 0.125141 0.357766 0.601108
895 2 0.159163 0.373938 0.595347
1172 4 0.204315 0.401103 0.604267
1191 4 0.198742 0.386705 0.592391
896 4 0.181229 0.383283 0.602487
1029 4 0.227028 0.392984 0.658004
1239 4 0.343836 0.337639 0.595961
930 4 0.340604 0.355892 0.589625
1204 2 0.412228 0.41177 0.661994
1206 4 0.430295 0.396081 0.65474
3240 4 0.0113873 0.403404 0.621976
4250 4 0.990814 0.495894 0.601768
1160 4 0.116198 0.47159 0.594214
1159 2 0.139563 0.480462 0.593491
1161 4 0.162929 0.489334 0.592767
1171 2 0.210001 0.423036 0.61484
1173 4 0.215687 0.44497 0.625412
1187 4 0.2091 0.462729 0.619625
1186 2 0.195503 0.475258 0.602794
1952 4 0.33248 0.479118 0.585635
889 2 0.299457 0.476994 0.613413
891 4 0.280753 0.483052 0.628861
890 4 0.31816 0.470935 0.597964
1205 4 0.394161 0.427459 0.669248
1951 2 0.352627 0.493926 0.585657
1230 4 0.353149 0.458167 0.638352
1268 4 0.466463 0.483658 0.663335
1269 4 0.425744 0.459739 0.646889
1267 2 0.446104 0.471699 0.655112
943 2 0.0402487 0.0532317 0.682169
944 4 0.0568693 0.0688961 0.692346
1076 4 0.0654361 0.082339 0.679869
1147 2 0.212348 0.066026 0.734819
1149 4 0.204334 0.0425214 0.731906
1148 4 0.220362 0.0895306 0.737732
1004 4 0.380976 0.0630054 0.690446
1163 4 0.462015 0.069998 0.67371
1162 2 0.474452 0.0551605 0.689533
2320 2 0.485692 0.0257706 0.741744
2321 4 0.495362 0.0273847 0.718743
1164 4 0.486888 0.040323 0.705356
4581 4 0.499605 0.00909449 0.710404
3402 4 0.499403 0.0262208 0.702186
864 4 0.0626682 0.115351 0.735227
1075 2 0.0665503 0.100392 0.697132
1077 4 0.0676645 0.118445 0.714395
1107 4 0.0742671 0.128308 0.728657
851 4 0.0645941 0.137968 0.715572
850 2 0.0521968 0.153956 0.70088
862 2 0.0450625 0.111976 0.752658
1283 4 0.148343 0.10066 0.681588
1105 2 0.0977947 0.136447 0.726336
1282 2 0.134845 0.100418 0.702634
1284 4 0.121347 0.100176 0.723679
909 4 0.156029 0.175387 0.68439
1106 4 0.121322 0.144586 0.724015
908 4 0.189943 0.14245 0.700689
907 2 0.172986 0.158918 0.692539
1227 4 0.210507 0.144567 0.704129
1225 2 0.215434 0.121418 0.712194
1226 4 0.220361 0.0982696 0.720259
829 2 0.327299 0.145541 0.705456
830 4 0.325417 0.15467 0.682255
1003 2 0.372613 0.0865023 0.692215
1005 4 0.36425 0.109999 0.693985
831 4 0.329181 0.136412 0.728657
3424 2 0.496268 0.117293 0.667934
3425 4 0.474211 0.105684 0.669901
43 3 0.429499 0.0991705 0.669977
44 3 0.463905 0.090333 0.683486
852 4 0.0397995 0.169944 0.686187
1073 4 0.114066 0.216427 0.73632
1072 2 0.11784 0.24091 0.732927
888 4 0.265016 0.185584 0.681851
886 2 0.286221 0.172887 0.678064
887 4 0.307425 0.16019 0.674277
1146 4 0.496083 0.167346 0.734334
1025 4 0.45045 0.185631 0.674987
1262 4 0.435794 0.214651 0.730157
1142 4 0.449645 0.178579 0.727778
1024 2 0.445552 0.190073 0.6991
1141 2 0.450918 0.168781 0.750747
1026 4 0.440654 0.194515 0.723214
1261 2 0.448746 0.23118 0.74373
1263 4 0.461698 0.247709 0.757303
893 4 0.0103473 0.330067 0.731378
1074 4 0.121615 0.265393 0.729534
1209 4 0.137036 0.294971 0.695765
1207 2 0.114367 0.285664 0.700732
1208 4 0.0916978 0.276357 0.705699
821 4 0.150244 0.29124 0.681002
820 2 0.174112 0.296462 0.686317
822 4 0.197979 0.301685 0.691632
1063 2 0.234384 0.303351 0.709036
1064 4 0.218491 0.301765 0.689798
1065 4 0.250276 0.304937 0.728273
916 2 0.311813 0.261092 0.738842
917 4 0.319556 0.282062 0.727641
807 4 0.315428 0.296964 0.664654
805 2 0.336445 0.30735 0.673347
892 2 0.0203411 0.352916 0.729594
894 4 0.030335 0.375766 0.727809
1280 4 0.048489 0.379976 0.720331
1279 2 0.0397607 0.403044 0.716225
816 4 0.0660918 0.388598 0.721963
814 2 0.0872153 0.375892 0.72615
942 4 0.116922 0.36124 0.748366
815 4 0.108339 0.363185 0.730336
1140 4 0.227875 0.410759 0.667813
1028 4 0.203833 0.368457 0.694897
1066 2 0.195464 0.37742 0.734947
1068 4 0.208301 0.3762 0.713526
1027 2 0.215431 0.38072 0.67645
1019 4 0.379732 0.383851 0.727394
1018 2 0.390758 0.401429 0.741346
1981 2 0.0634716 0.454004 0.713486
1281 4 0.0310324 0.426113 0.712119
1983 4 0.0457802 0.437826 0.720591
1982 4 0.0811629 0.470181 0.706381
2016 4 0.179708 0.494521 0.739761
1138 2 0.247929 0.425555 0.669843
1139 4 0.267982 0.440351 0.671872
1988 4 0.31149 0.457221 0.741933
1987 2 0.322374 0.461932 0.719921
1989 4 0.333257 0.466644 0.69791
1020 4 0.401784 0.419006 0.755297
1229 4 0.346869 0.456608 0.687938
1228 2 0.350009 0.457388 0.663145
1100 4 0.410341 0.48331 0.713578
2168 4 0.463539 0.498184 0.676787
1101 4 0.45482 0.494258 0.693517
1099 2 0.43258 0.488784 0.703548
2991 4 0.012962 0.0342584 0.759113
2989 2 0.00790247 0.0586054 0.76172
1202 4 0.125126 0.0445003 0.750854
2049 4 0.13137 0.0257351 0.755599
1203 4 0.0936423 0.0693085 0.780755
1201 2 0.109384 0.0569044 0.765805
1257 4 0.237173 0.076386 0.772707
817 2 0.325723 0.0410814 0.804439
819 4 0.30686 0.0551457 0.812899
1085 4 0.303393 0.0752225 0.814637
1050 4 0.337769 0.00336584 0.768074
960 4 0.308314 0.0850993 0.831348
818 4 0.344586 0.027017 0.79598
974 4 0.342068 0.0106791 0.784949
973 2 0.366155 0.00687087 0.790473
1113 4 0.428342 0.0751923 0.769754
2322 4 0.476023 0.0241564 0.764746
844 2 0.498805 0.0752438 0.781295
863 4 0.0274569 0.108601 0.770089
833 4 0.0134906 0.0950235 0.77799
832 2 0.011704 0.108236 0.799142
2990 4 0.00284294 0.0829525 0.764328
834 4 0.00991737 0.121449 0.820294
911 4 0.112195 0.111439 0.823449
34 3 0.123294 0.119065 0.781204
31 1 0.119929 0.126571 0.8029
35 3 0.0982447 0.123228 0.809004
32 3 0.133692 0.114778 0.817067
33 3 0.125186 0.149122 0.804386
1255 2 0.245347 0.08869 0.792881
840 4 0.2652 0.107117 0.828049
1256 4 0.253521 0.100994 0.813055
1084 2 0.303344 0.0964933 0.801494
1086 4 0.303295 0.117764 0.788352
1022 4 0.36669 0.162155 0.831313
845 4 0.478951 0.0808007 0.795442
1111 2 0.444751 0.0801153 0.787967
1112 4 0.461159 0.0850384 0.80618
1143 4 0.452191 0.158983 0.773715
1214 4 0.993053 0.208933 0.759198
1130 4 0.15394 0.21042 0.795037
978 4 0.240055 0.220875 0.765998
1129 2 0.176827 0.217942 0.788344
1131 4 0.199713 0.225464 0.781651
1277 4 0.20372 0.242946 0.771853
976 2 0.263277 0.229317 0.762166
977 4 0.286498 0.237759 0.758333