ITEM: TIMESTEP
2670000
ITEM: NUMBER OF ATOMS
4590
ITEM: BOX BOUNDS pp pp pp
-9.9985700000000008e+00 9.9985700000000008e+00
-9.9985700000000008e+00 9.9985700000000008e+00
-9.9985700000000008e+00 9.9985700000000008e+00
ITEM: ATOMS id type xs ys zs
1667 4 0.0197099 0.0744689 0.0738292
491 4 0.287972 0.0629944 0.0680081
484 2 0.407527 0.0199741 0.083706
485 4 0.403086 0.0429051 0.0747828
2974 2 0.463961 0.0151037 0.0133785
745 2 0.444139 0.073489 0.00895476
747 4 0.447619 0.0494423 0.00305347
2975 4 0.448968 0.0308347 0.00101332
986 4 0.430945 0.0402745 0.00179798
2976 4 0.478955 0.999373 0.0257436
701 4 0.0131891 0.091303 0.0830499
700 2 0.0238003 0.113591 0.087031
702 4 0.0344115 0.135878 0.0910121
566 4 0.217482 0.17391 0.0512495
565 2 0.22475 0.166254 0.0285835
567 4 0.232017 0.158598 0.00591759
297 4 0.336981 0.126251 0.0304665
295 2 0.352467 0.127098 0.0108541
556 2 0.404093 0.112735 0.997851
558 4 0.42672 0.110323 0.00821348
746 4 0.440659 0.0975356 0.014856
482 4 0.246119 0.246324 0.0707114
573 4 0.256881 0.242443 0.0533241
571 2 0.267805 0.251736 0.0328429
572 4 0.278729 0.261029 0.0123617
360 4 0.335444 0.205588 0.00101559
770 4 0.390923 0.175932 0.020634
359 4 0.376275 0.187783 0.0237427
664 2 0.3918 0.207007 0.0527312
665 4 0.388991 0.187297 0.0376045
666 4 0.394609 0.226717 0.0678579
323 4 0.399527 0.243545 0.0593828
358 2 0.35586 0.196685 0.0123791
769 2 0.404594 0.16981 0.000613786
623 4 0.383977 0.242852 0.0713197
292 2 0.160805 0.310546 0.0454265
294 4 0.144243 0.297864 0.0316414
293 4 0.177368 0.323228 0.0592116
507 4 0.188539 0.327127 0.0698953
287 4 0.192147 0.331492 0.0503087
286 2 0.211055 0.330134 0.034005
505 2 0.202598 0.312137 0.0841364
481 2 0.230066 0.262738 0.0806148
288 4 0.229963 0.328776 0.0177012
552 4 0.170055 0.333508 0.0733944
357 4 0.296556 0.261844 0.0191654
355 2 0.31057 0.280559 0.0103029
956 4 0.326646 0.312105 0.0153099
356 4 0.324584 0.299274 0.00144036
902 4 0.318389 0.31445 0.996676
1069 2 0.401171 0.312157 0.0324291
955 2 0.345814 0.323589 0.0265303
1071 4 0.381524 0.327618 0.0320274
322 2 0.414178 0.261569 0.0501271
324 4 0.428828 0.279593 0.0408713
1070 4 0.420818 0.296697 0.0328307
280 2 0.453051 0.306182 0.0498237
282 4 0.439639 0.293213 0.0331782
281 4 0.466464 0.319152 0.0664692
527 4 0.476963 0.333282 0.072964
328 2 0.00352817 0.40543 0.0150829
329 4 0.019281 0.414228 0.997773
454 2 0.176811 0.366622 0.0551393
456 4 0.171488 0.39028 0.0490452
455 4 0.182134 0.342964 0.0612334
1290 4 0.262276 0.394445 0.0193293
250 2 0.265656 0.400777 0.0570793
1288 2 0.276936 0.378037 0.0074531
251 4 0.259887 0.407368 0.0336598
252 4 0.271424 0.394187 0.0804988
609 4 0.277632 0.400821 0.0999318
957 4 0.364981 0.335074 0.0377506
741 4 0.378742 0.338885 0.0498527
739 2 0.385969 0.346382 0.0725844
671 4 0.458267 0.336106 0.0745972
1788 4 0.100507 0.464116 0.0607108
1786 2 0.103261 0.486739 0.0504244
627 4 0.169165 0.481715 0.0548887
626 4 0.207433 0.470043 0.084889
625 2 0.188299 0.475879 0.0698888
245 4 0.221632 0.460157 0.0755991
244 2 0.237269 0.452752 0.057549
246 4 0.252907 0.445346 0.0394989
272 4 0.256414 0.426135 0.033305
271 2 0.270222 0.436448 0.0151901
1672 2 0.398097 0.438103 0.0644133
853 2 0.395596 0.451609 0.0112867
1674 4 0.407849 0.441788 0.0416871
854 4 0.412624 0.454873 0.0293018
564 4 0.421751 0.435768 0.0314679
563 4 0.470997 0.444451 0.0318568
562 2 0.446374 0.440109 0.0316624
228 4 0.474264 0.463901 0.0350394
226 2 0.485598 0.477632 0.0525946
19 3 0.0617922 0.0377948 0.152367
18 3 0.0692961 0.00117297 0.145516
16 1 0.0655059 0.0170276 0.162028
582 4 0.2302 0.0779823 0.13941
580 2 0.243268 0.0578842 0.146514
490 2 0.288548 0.0508877 0.0898775
1475 4 0.279529 0.0255939 0.124393
492 4 0.289125 0.0387809 0.111747
581 4 0.256337 0.0377861 0.153618
1506 4 0.256201 0.0102182 0.175657
654 4 0.266635 0.0211342 0.162542
2722 2 0.472823 0.0669876 0.142925
2724 4 0.491648 0.0508538 0.13968
1760 4 0.494745 0.0302609 0.136088
2744 4 0.491268 0.0373205 0.152994
476 4 0.0519776 0.129795 0.0976962
475 2 0.0694926 0.126381 0.115211
477 4 0.0870076 0.122968 0.132725
237 4 0.227819 0.0984249 0.14367
235 2 0.20443 0.101577 0.151928
628 2 0.386546 0.159125 0.153544
629 4 0.380946 0.134777 0.154554
312 4 0.363961 0.128794 0.143906
2723 4 0.453999 0.0831213 0.14617
738 4 0.243308 0.187498 0.0986171
737 4 0.234384 0.200915 0.145957
736 2 0.238846 0.194206 0.122287
755 4 0.253616 0.242434 0.161044
460 2 0.327541 0.224973 0.116299
461 4 0.30514 0.216098 0.109621
354 4 0.286068 0.220326 0.118476
352 2 0.279549 0.231142 0.140056
353 4 0.27303 0.241958 0.161636
630 4 0.392146 0.183472 0.152535
254 4 0.390409 0.200312 0.161937
462 4 0.349942 0.233848 0.122976
255 4 0.362793 0.233748 0.137035
253 2 0.376601 0.21703 0.149486
624 4 0.367743 0.238731 0.118439
622 2 0.37586 0.240791 0.0948793
483 4 0.214014 0.279152 0.0905182
506 4 0.216657 0.297146 0.0983775
537 4 0.2065 0.292197 0.115322
535 2 0.191681 0.288694 0.135154
536 4 0.176862 0.285191 0.154986
754 2 0.23691 0.260893 0.163369
756 4 0.220205 0.279351 0.165694
301 2 0.326628 0.317401 0.143583
302 4 0.326674 0.334827 0.125652
303 4 0.326582 0.299974 0.161513
285 4 0.317838 0.287412 0.168592
284 4 0.281083 0.254325 0.17601
283 2 0.29946 0.270868 0.172301
765 4 0.35934 0.250999 0.129384
764 4 0.334979 0.282947 0.159159
763 2 0.34716 0.266973 0.144272
12 3 0.41391 0.332096 0.119894
647 4 0.0450342 0.350334 0.165222
550 2 0.154489 0.336218 0.092773
551 4 0.138923 0.338929 0.112152
289 2 0.229966 0.390171 0.167152
290 4 0.250524 0.403829 0.163148
291 4 0.209409 0.376513 0.171156
387 4 0.327918 0.3549 0.120367
607 2 0.30017 0.411485 0.0980603
385 2 0.351423 0.35751 0.11225
493 2 0.385139 0.393875 0.097244
495 4 0.38999 0.370255 0.103857
386 4 0.374928 0.360121 0.104134
15 3 0.3805 0.348255 0.115944
740 4 0.393197 0.353879 0.0953162
14 3 0.411652 0.367025 0.1062
11 1 0.402354 0.351944 0.121184
13 3 0.404026 0.360206 0.142803
672 4 0.417415 0.348243 0.10076
670 2 0.437841 0.342174 0.0876788
1791 4 0.0511312 0.489497 0.122118
1465 2 0.077944 0.466263 0.094299
1466 4 0.0626288 0.47678 0.111033
1467 4 0.0932593 0.455746 0.0775654
638 4 0.229396 0.471122 0.130687
766 2 0.245414 0.445231 0.153135
768 4 0.254215 0.422176 0.157155
767 4 0.236612 0.468287 0.149115
637 2 0.215004 0.489156 0.121052
608 4 0.322708 0.422149 0.0961887
659 4 0.32373 0.442293 0.101849
494 4 0.380289 0.417496 0.0906308
660 4 0.371941 0.435305 0.0905559
1673 4 0.388344 0.434417 0.0871395
658 2 0.347835 0.438799 0.0962024
524 4 0.404087 0.49019 0.11188
523 2 0.392323 0.468647 0.107115
525 4 0.380559 0.447105 0.10235
1559 4 0.400602 0.492954 0.13147
595 2 0.485438 0.425163 0.161319
596 4 0.504749 0.429525 0.146046
578 4 0.0777498 0.0395305 0.168151
17 3 0.0468369 0.0109588 0.17402
2480 4 0.0272286 0.011078 0.180957
2479 2 0.0163855 0.0334676 0.178444
20 3 0.0834174 0.0180735 0.176054
380 4 0.0229556 0.0676318 0.176549
2481 4 0.00554236 0.0558572 0.175932
577 2 0.0914485 0.0600961 0.171969
689 4 0.157716 0.0159101 0.213723
674 4 0.138624 0.0149986 0.208837
673 2 0.120558 0.00341758 0.221669
688 2 0.176963 0.00192412 0.206034
652 2 0.287224 0.0191988 0.176597
653 4 0.307812 0.0172633 0.190652
758 4 0.345 0.077002 0.186129
759 4 0.352316 0.0756845 0.235581
757 2 0.348658 0.0763432 0.210855
350 4 0.366876 0.0666127 0.247126
480 4 0.43453 0.0548389 0.241412
333 4 0.491577 0.0809826 0.229932
743 4 0.492858 0.0651749 0.243495
379 2 0.03944 0.0860327 0.180403
511 2 0.0652503 0.140333 0.17741
512 4 0.0473284 0.12369 0.182607
381 4 0.0559243 0.104434 0.184257
449 4 0.16415 0.109672 0.16863
579 4 0.105147 0.0806617 0.175787
513 4 0.0831722 0.156975 0.172212
450 4 0.116389 0.0961404 0.174673
448 2 0.140269 0.102906 0.171652
236 4 0.18104 0.10473 0.160185
30 3 0.303783 0.147251 0.25288
28 3 0.338238 0.155276 0.239994
311 4 0.350186 0.095094 0.178188
310 2 0.357074 0.111944 0.161047
521 4 0.46172 0.140312 0.211781
762 4 0.456687 0.128056 0.227451
760 2 0.434161 0.132894 0.237164
332 4 0.471588 0.124812 0.216511
520 2 0.475332 0.16059 0.206424
331 2 0.481582 0.102897 0.223222
339 4 0.0418165 0.223566 0.163549
393 4 0.0790197 0.173046 0.183348
337 2 0.0451734 0.244717 0.176455
391 2 0.0838383 0.197426 0.180595
392 4 0.0886569 0.221806 0.177842
279 4 0.276416 0.215278 0.216801
277 2 0.27102 0.229373 0.196867
278 4 0.265625 0.243468 0.176932
522 4 0.488943 0.180868 0.201066
394 2 0.0174309 0.249254 0.234228
395 4 0.0350176 0.254015 0.217105
338 4 0.0485303 0.265868 0.18936
363 4 0.0393426 0.270437 0.205801
361 2 0.0494754 0.292385 0.212187
648 4 0.0569742 0.327627 0.208147
362 4 0.0596082 0.314333 0.218573
372 4 0.0742568 0.317562 0.20696
749 4 0.0450061 0.327297 0.222995
370 2 0.0969253 0.321625 0.216697
371 4 0.119594 0.325687 0.226435
734 4 0.129672 0.336386 0.239137
733 2 0.152566 0.332921 0.248572
611 4 0.237135 0.324512 0.211097
610 2 0.234576 0.309141 0.191543
612 4 0.232018 0.293769 0.17199
344 4 0.228751 0.325231 0.228826
343 2 0.208352 0.320171 0.24237
729 4 0.322254 0.30437 0.179509
727 2 0.311338 0.322011 0.193465
308 4 0.334468 0.289915 0.176893
307 2 0.346528 0.281197 0.196986
309 4 0.358589 0.272478 0.217078
498 4 0.346921 0.279843 0.231986
748 2 0.0532692 0.341356 0.241949
646 2 0.0510042 0.33898 0.186685
417 4 0.168994 0.400256 0.21227
416 4 0.190346 0.373473 0.175836
415 2 0.17967 0.386864 0.194053
728 4 0.300421 0.339653 0.207422
445 2 0.40964 0.38029 0.246789
446 4 0.389455 0.373925 0.260102
447 4 0.429824 0.386655 0.233476
644 4 0.44932 0.384648 0.232963
643 2 0.455596 0.398747 0.21329
412 2 0.236556 0.473892 0.223537
413 4 0.219002 0.460084 0.234779
414 4 0.25411 0.4877 0.212295
1574 4 0.308828 0.494176 0.241636
645 4 0.461872 0.412845 0.193618
597 4 0.466128 0.4208 0.176592
229 2 0.469335 0.474593 0.220444
231 4 0.473518 0.45 0.218757
230 4 0.465152 0.499187 0.222131
234 4 0.00793945 0.053047 0.28098
232 2 0.031736 0.0456308 0.282956
233 4 0.0555324 0.0382145 0.284932
2756 4 0.9997 0.0705923 0.28597
317 4 0.0709348 0.0365673 0.295986
1404 4 0.0672185 0.0215688 0.285055
316 2 0.0800972 0.0566441 0.30774
2478 4 0.990833 0.0585069 0.2743
1402 2 0.0817725 0.0118774 0.267182
428 4 0.0690781 0.0209115 0.305823
427 2 0.0821242 0.00640352 0.32146
693 4 0.2756 0.0548978 0.258889
25 3 0.31807 0.0457898 0.248147
691 2 0.280787 0.0648191 0.281246
692 4 0.285975 0.0747403 0.303603
349 2 0.39123 0.0616664 0.244371
351 4 0.415584 0.0567201 0.241617
24 3 0.327306 0.0677821 0.277279
21 1 0.335274 0.0531562 0.261123
23 3 0.345824 0.035144 0.271256
22 3 0.350513 0.064237 0.247927
632 4 0.358847 0.0832611 0.247982
479 4 0.450071 0.0332454 0.283755
478 2 0.442301 0.0440422 0.262583
2664 4 0.46923 0.0325822 0.283495
1428 4 0.455514 0.0215906 0.294937
258 4 0.442958 0.0336544 0.30257
2662 2 0.494133 0.0313943 0.281599
256 2 0.434554 0.0513655 0.31809
2755 2 0.994111 0.0903184 0.300282
2585 4 0.00474927 0.107213 0.326939
2757 4 0.988522 0.110044 0.314593
318 4 0.0892597 0.0767209 0.319493
732 4 0.107236 0.0835346 0.320106
399 4 0.0971711 0.0842584 0.336449
730 2 0.130949 0.0843739 0.32799
403 2 0.242091 0.160003 0.32293
26 1 0.325411 0.151111 0.258876
721 2 0.276721 0.109985 0.313001
723 4 0.282671 0.0931603 0.295488
722 4 0.270771 0.12681 0.330514
29 3 0.333856 0.132765 0.270299
761 4 0.411634 0.137731 0.246877
631 2 0.355263 0.104769 0.26022
707 4 0.348213 0.134614 0.284792
633 4 0.35168 0.126276 0.272458
706 2 0.355053 0.143104 0.307293
708 4 0.361893 0.151594 0.329795
544 2 0.144088 0.224469 0.257809
546 4 0.123817 0.212215 0.265816
405 4 0.227907 0.178628 0.314147
545 4 0.16436 0.236722 0.249803
473 4 0.222625 0.182101 0.333148
27 3 0.326284 0.169503 0.272664
269 4 0.397849 0.218742 0.325916
396 4 0.999844 0.244493 0.251352
443 4 0.0112092 0.254962 0.264818
375 4 0.165758 0.321878 0.332193
402 4 0.173322 0.253303 0.255393
678 4 0.181895 0.328316 0.321293
400 2 0.179585 0.276719 0.261528
401 4 0.185849 0.300135 0.267663
676 2 0.184788 0.324363 0.296774
345 4 0.187952 0.31511 0.255914
677 4 0.187681 0.32041 0.272254
735 4 0.17546 0.329455 0.258007
378 4 0.300187 0.288071 0.318457
376 2 0.315294 0.301426 0.303671
497 4 0.341641 0.306774 0.27379
377 4 0.330401 0.31478 0.288886
496 2 0.344281 0.293309 0.252888
541 2 0.369932 0.3084 0.299715
542 4 0.392482 0.302655 0.308863
420 4 0.393024 0.285268 0.317528
543 4 0.347382 0.314145 0.290568
418 2 0.390199 0.261001 0.322848
615 4 0.341107 0.332044 0.293031
364 2 0.000661813 0.368589 0.297545
365 4 0.0233712 0.359013 0.29333
601 2 0.0494097 0.376249 0.324262
603 4 0.0402257 0.369076 0.30214
750 4 0.0615322 0.355415 0.260902
300 4 0.079129 0.365367 0.26243
299 4 0.125973 0.349563 0.254907
298 2 0.102551 0.357465 0.258668
510 4 0.180755 0.346624 0.328142
434 4 0.315037 0.382299 0.321499
433 2 0.305948 0.405571 0.322489
614 4 0.333619 0.375453 0.316701
613 2 0.337363 0.353749 0.304866
264 4 0.0337289 0.431341 0.250583
1757 4 0.0521364 0.432653 0.25965
1756 2 0.0603636 0.455649 0.265007
1758 4 0.0685909 0.478645 0.270364
775 2 0.073853 0.504053 0.308842
777 4 0.0804094 0.507121 0.284909
1775 4 0.0844493 0.488833 0.279281
1774 2 0.0971058 0.497964 0.259745
1436 4 0.224183 0.447348 0.24898
1435 2 0.230757 0.439871 0.271916
1437 4 0.237331 0.432393 0.294851
4 3 0.254963 0.435116 0.304183
3 3 0.264692 0.47145 0.30962
1 1 0.263293 0.450478 0.319448
436 2 0.305963 0.478051 0.310608
438 4 0.285948 0.464425 0.316846
435 4 0.29686 0.428844 0.323479
2 3 0.284359 0.44387 0.325905
437 4 0.325978 0.491677 0.30437
1802 4 0.338603 0.498354 0.320125
1801 2 0.359319 0.508313 0.310283
119 3 0.492341 0.46705 0.324465
429 4 0.0951703 0.991895 0.337096
441 4 0.345643 0.998903 0.414399
699 4 0.372602 0.0516719 0.36865
1699 2 0.35703 0.0247087 0.384363
1700 4 0.356163 0.0411841 0.365575
697 2 0.392111 0.0627376 0.357599
1701 4 0.357898 0.00823323 0.403151
698 4 0.411621 0.0738034 0.346549
257 4 0.42615 0.0690765 0.33361
397 2 0.0773326 0.0953165 0.346905
398 4 0.0574942 0.106375 0.357361
2584 2 0.0242629 0.114324 0.340862
2586 4 0.0437764 0.121434 0.354784
458 4 0.046713 0.137597 0.365896
457 2 0.0500667 0.14077 0.39047
731 4 0.154662 0.0852132 0.335875
606 4 0.172555 0.0812736 0.32956
604 2 0.187174 0.0855744 0.349383
605 4 0.201794 0.0898751 0.369206
248 4 0.218823 0.0959913 0.357903
247 2 0.237257 0.110605 0.349429
249 4 0.25569 0.125219 0.340954
404 4 0.256274 0.141379 0.331712
683 4 0.25709 0.139462 0.353033
682 2 0.281168 0.142409 0.359097
684 4 0.305245 0.145357 0.36516
320 4 0.319082 0.133047 0.369148
321 4 0.360755 0.15293 0.349946
319 2 0.339918 0.142988 0.359547
726 4 0.384454 0.142946 0.416462
467 4 0.388967 0.160778 0.413306
717 4 0.376939 0.15981 0.358138
715 2 0.387392 0.154004 0.380098
716 4 0.397845 0.148199 0.402057
724 2 0.38388 0.121378 0.429099
642 4 0.495516 0.0914091 0.41125
640 2 0.472398 0.0910364 0.401733
641 4 0.449279 0.0906637 0.392216
600 4 0.0944042 0.161049 0.347518
598 2 0.106166 0.178626 0.360856
599 4 0.117927 0.196202 0.374195
389 4 0.123801 0.22683 0.373889
686 4 0.112642 0.213062 0.380688
685 2 0.103944 0.21206 0.404109
275 4 0.131437 0.209213 0.381562
274 2 0.156331 0.207496 0.379974
474 4 0.185702 0.204076 0.358731
472 2 0.204163 0.193088 0.34594
276 4 0.181225 0.20578 0.378386
419 4 0.387374 0.236734 0.328167
268 2 0.421982 0.216825 0.332171
270 4 0.446114 0.214908 0.338426
452 4 0.457454 0.216112 0.354403
451 2 0.456395 0.20876 0.378278
453 4 0.455337 0.201408 0.402153
2802 4 0.00709976 0.294565 0.412871
347 4 0.0648371 0.314379 0.393337
346 2 0.0403371 0.310204 0.396075
348 4 0.015837 0.30603 0.398813
618 4 0.0729451 0.315147 0.374322
388 2 0.123944 0.25108 0.3678
616 2 0.0941031 0.30389 0.367195
390 4 0.124087 0.275331 0.361712
617 4 0.115261 0.292632 0.360068
374 4 0.132117 0.289686 0.350432
373 2 0.148938 0.305782 0.341312
2537 4 0.494526 0.316822 0.344438
549 4 0.0684238 0.400081 0.342129
602 4 0.0585937 0.383423 0.346384
547 2 0.0836357 0.413321 0.356911
508 2 0.191983 0.365433 0.340196
509 4 0.203212 0.384243 0.35225
334 2 0.319993 0.375662 0.414967
335 4 0.337719 0.373964 0.397414
238 2 0.363532 0.382109 0.370549
239 4 0.378972 0.397406 0.358189
240 4 0.348091 0.366812 0.382909
587 4 0.392783 0.412591 0.356306
752 4 0.473161 0.399197 0.383804
561 4 0.47275 0.379699 0.388032
559 2 0.482966 0.373185 0.409904
776 4 0.0672965 0.500986 0.332775
500 4 0.0632523 0.483188 0.341665
499 2 0.0804394 0.471857 0.355856
501 4 0.0976265 0.460525 0.370047
548 4 0.0988475 0.426561 0.371692
407 4 0.101696 0.444769 0.381516
406 2 0.10948 0.448417 0.404995
1544 4 0.207852 0.473557 0.385743
1556 4 0.227718 0.46992 0.383738
1543 2 0.194989 0.47908 0.406461
5 3 0.249769 0.45136 0.337751
1545 4 0.182126 0.484604 0.427178
636 4 0.284698 0.493186 0.410663
1555 2 0.249449 0.480465 0.390197
1557 4 0.271181 0.491009 0.396657
586 2 0.388202 0.43717 0.355988
593 4 0.382756 0.481742 0.357365
588 4 0.383621 0.461748 0.355669
592 2 0.404886 0.492859 0.353921
2862 4 0.502581 0.48339 0.336819
751 2 0.483208 0.417752 0.37039
712 2 0.459807 0.486713 0.338414
714 4 0.480468 0.472797 0.340578
753 4 0.493256 0.436308 0.356976
117 3 0.483629 0.456833 0.35957
116 1 0.500708 0.458215 0.344222
369 4 0.0732097 0.997202 0.46846
367 2 0.0870686 0.00404392 0.448806
368 4 0.100928 0.0108863 0.429152
961 2 0.329764 0.0301197 0.438807
963 4 0.319583 0.0507048 0.448695
432 4 0.326657 0.0511371 0.468241
430 2 0.335397 0.0436994 0.490456
962 4 0.339945 0.00953467 0.428919
1216 2 0.415095 0.0403227 0.482447
1218 4 0.426852 0.0600244 0.472508
260 4 0.0614165 0.154057 0.429457
459 4 0.0534205 0.143942 0.415043
725 4 0.383307 0.0998101 0.441735
259 2 0.071754 0.1766 0.432635
261 4 0.0820916 0.199144 0.435813
1035 4 0.0885594 0.215878 0.444884
1033 2 0.0878908 0.240238 0.45048
687 4 0.0952449 0.211057 0.427529
466 2 0.398232 0.1785 0.428315
468 4 0.407497 0.196222 0.443324
411 4 0.394565 0.246281 0.47006
409 2 0.405175 0.224281 0.464712
410 4 0.415786 0.202281 0.459364
489 4 0.376267 0.245736 0.465028
575 4 0.43342 0.196825 0.466424
516 4 0.42772 0.199368 0.447491
574 2 0.441394 0.191619 0.489543
514 2 0.447271 0.203038 0.432342
515 4 0.466821 0.206709 0.417193
696 4 0.0886582 0.268037 0.475418
1034 4 0.0872222 0.264598 0.456077
1260 4 0.0929254 0.28201 0.461703
1258 2 0.108196 0.301729 0.463469
1259 4 0.123467 0.321449 0.465236
9 3 0.14112 0.323455 0.447535
7 3 0.128989 0.331523 0.482182
488 4 0.333872 0.25256 0.439399
487 2 0.35507 0.249148 0.452213
266 4 0.384757 0.261946 0.47506
265 2 0.384037 0.285425 0.483627
267 4 0.383316 0.308904 0.492194
3308 4 0.485753 0.335771 0.486116
326 4 0.0712058 0.364775 0.466904
6 1 0.141135 0.339463 0.464333
327 4 0.116889 0.344438 0.467317
325 2 0.0940474 0.354606 0.46711
8 3 0.162875 0.343609 0.471303
10 3 0.131607 0.358703 0.45674
711 4 0.130124 0.416472 0.487293
709 2 0.152841 0.41269 0.497029
336 4 0.302267 0.37736 0.432519
668 4 0.293317 0.396455 0.430498
882 4 0.38407 0.37143 0.489446
560 4 0.493181 0.36667 0.431776
3309 4 0.495361 0.369412 0.450386
3307 2 0.490557 0.352591 0.468251
1383 4 0.0205898 0.459444 0.461364
1381 2 0.0228948 0.484309 0.462627
384 4 0.11602 0.420562 0.475489
408 4 0.117265 0.452066 0.428474
569 4 0.123693 0.470126 0.428575
383 4 0.116322 0.460463 0.445347
568 2 0.145847 0.48074 0.433236
382 2 0.116171 0.440512 0.460418
570 4 0.168001 0.491353 0.437896
634 2 0.294479 0.478059 0.428003
774 4 0.319861 0.449797 0.448026
635 4 0.30426 0.462932 0.445343
669 4 0.303061 0.444148 0.441951
667 2 0.298189 0.420301 0.436225
773 4 0.366016 0.462439 0.462541
772 2 0.342938 0.456118 0.455284
663 4 0.47491 0.503341 0.441015
341 4 0.185406 0.00839289 0.524638
1152 4 0.188849 0.067138 0.534682
342 4 0.184244 0.0577972 0.516984
340 2 0.184825 0.033095 0.520811
1150 2 0.209434 0.0773405 0.544548
1030 2 0.26133 0.0678115 0.567779
1032 4 0.248657 0.0840008 0.55355
431 4 0.344136 0.0362617 0.51267
842 4 0.401013 0.0219533 0.512564
841 2 0.378215 0.0274667 0.521225
843 4 0.355416 0.0329801 0.529885
1217 4 0.403338 0.020621 0.492386
1058 4 0.116631 0.103095 0.511848
1270 2 0.102134 0.144735 0.575527
1271 4 0.115773 0.12382 0.574205
1057 2 0.117424 0.106914 0.536545
1059 4 0.118216 0.110734 0.561243
1155 4 0.132432 0.115724 0.577109
939 4 0.119086 0.103076 0.578274
1153 2 0.154095 0.128088 0.575371
1154 4 0.175758 0.140451 0.573632
1151 4 0.230019 0.087543 0.554415
1180 2 0.234245 0.124731 0.563867
1181 4 0.242036 0.101178 0.560748
1182 4 0.226455 0.148285 0.566986
900 4 0.231314 0.164876 0.575742
1221 4 0.17528 0.156373 0.586609
1199 4 0.025098 0.210553 0.569109
879 4 0.0799705 0.179544 0.564696
1198 2 0.00358864 0.215704 0.557448
878 4 0.0390429 0.202398 0.582113
877 2 0.0595067 0.190971 0.573404
1272 4 0.0884953 0.165649 0.57685
651 4 0.231779 0.232388 0.512647
858 4 0.222056 0.25024 0.510654
898 2 0.248196 0.17716 0.561983
649 2 0.248109 0.215642 0.521485
650 4 0.264438 0.198897 0.530323
899 4 0.265077 0.189445 0.548225
576 4 0.449367 0.186414 0.512663
2455 2 0.491466 0.24324 0.495704
695 4 0.09651 0.25828 0.523831
694 2 0.0925841 0.263159 0.499625
856 2 0.212841 0.260268 0.531623
857 4 0.203626 0.270297 0.552592
947 4 0.203368 0.263624 0.571809
946 2 0.183968 0.275795 0.581844
798 4 0.218995 0.252614 0.572542
1011 4 0.482582 0.321246 0.500169
2457 4 0.469379 0.254909 0.496798
1010 4 0.470065 0.27321 0.506215
1009 2 0.476324 0.297228 0.503192
502 2 0.209354 0.382508 0.511047
503 4 0.224622 0.362713 0.510551
504 4 0.194086 0.402303 0.511542
710 4 0.175559 0.408909 0.506765
1189 2 0.233326 0.365442 0.580176
803 4 0.264871 0.363199 0.562044
804 4 0.268882 0.357051 0.512578
802 2 0.266877 0.360125 0.537311
1190 4 0.251374 0.351311 0.570189
1238 4 0.266899 0.356951 0.58033
929 4 0.355062 0.376433 0.542786
881 4 0.348577 0.374118 0.524571
880 2 0.366323 0.372774 0.507008
928 2 0.338715 0.37707 0.561695
540 4 0.115666 0.475249 0.585878
539 4 0.118554 0.426232 0.576406
538 2 0.11711 0.450741 0.581142
1909 2 0.442331 0.497793 0.585107
1081 2 0.0681946 0.0756221 0.633379
1083 4 0.0681847 0.0833906 0.609613
1127 4 0.0489694 0.0837536 0.609591
1082 4 0.0682046 0.0678536 0.657145
943 2 0.0320738 0.0286037 0.6659
944 4 0.0491534 0.0460735 0.660583
4337 4 0.0136317 0.00627303 0.65289
825 4 0.172357 0.0511905 0.684161
1031 4 0.274003 0.0516222 0.582009
951 4 0.26161 0.0446656 0.596231
949 2 0.266728 0.0244411 0.610014
950 4 0.271846 0.00421655 0.623796
3008 4 0.495317 0.043476 0.590933
809 4 0.494648 0.0325946 0.607321
808 2 0.483692 0.0439853 0.626696
810 4 0.472737 0.055376 0.646071
45 3 0.465745 0.0750086 0.643933
41 1 0.458815 0.0678462 0.66441
1126 2 0.0248083 0.0884916 0.605235
1128 4 0.000647208 0.0932297 0.60088
938 4 0.0831522 0.0748421 0.59858
937 2 0.101119 0.0889588 0.588427
1219 2 0.198686 0.154772 0.595255
1211 4 0.242336 0.146738 0.661147
1210 2 0.235282 0.156981 0.639456
1220 4 0.222093 0.153171 0.603901
1212 4 0.228228 0.167224 0.617765
1194 4 0.323232 0.157892 0.653222
1192 2 0.329501 0.149471 0.630529
887 4 0.307661 0.163759 0.662533
1193 4 0.33577 0.14105 0.607836
3424 2 0.497215 0.0998104 0.656531
3425 4 0.478675 0.0834868 0.660402
1244 4 0.0510674 0.217371 0.585865
1243 2 0.0421105 0.235781 0.600218
3123 4 0.493269 0.2292 0.652187
983 4 0.03263 0.272504 0.607174
1245 4 0.0331535 0.254192 0.614571
982 2 0.017103 0.285901 0.592869
3262 2 0.0470456 0.333191 0.639967
3263 4 0.0478625 0.308251 0.638378
948 4 0.164569 0.287967 0.591879
1135 2 0.162804 0.320061 0.612975
822 4 0.164645 0.326883 0.652693
1136 4 0.155937 0.307077 0.592741
820 2 0.154812 0.308473 0.666461
796 2 0.238882 0.262861 0.583709
797 4 0.258769 0.273107 0.594876
791 4 0.260744 0.292349 0.598267
790 2 0.259792 0.316355 0.591339
872 4 0.338437 0.275799 0.596026
871 2 0.35454 0.294188 0.601292
813 4 0.379222 0.32796 0.617195
873 4 0.370642 0.312578 0.606557
953 4 0.475979 0.326907 0.611525
954 4 0.457363 0.280845 0.605826
952 2 0.466671 0.303876 0.608675
1041 4 0.059751 0.371877 0.639547
3264 4 0.0462286 0.35813 0.641556
3240 4 0.0426632 0.376524 0.647347
3238 2 0.0225063 0.388555 0.638737
1039 2 0.082492 0.378691 0.647396
1137 4 0.169672 0.333046 0.63321
1040 4 0.105233 0.385504 0.655245
993 4 0.122281 0.372312 0.651813
991 2 0.142482 0.358062 0.648066
992 4 0.162683 0.343812 0.644318
1064 4 0.178176 0.339274 0.649226
897 4 0.176368 0.35095 0.632681
896 4 0.20314 0.38255 0.604656
895 2 0.189754 0.36675 0.618669
1172 4 0.221098 0.391223 0.603977
1191 4 0.215278 0.379574 0.590163
1171 2 0.225974 0.415514 0.607348
792 4 0.258841 0.340361 0.584411
1239 4 0.308963 0.380048 0.594398
1237 2 0.287931 0.3685 0.587364
930 4 0.322369 0.377707 0.580605
811 2 0.378467 0.351344 0.626014
1204 2 0.372823 0.393872 0.663723
1206 4 0.364835 0.389692 0.640402
927 4 0.382152 0.393398 0.631946
812 4 0.377713 0.374728 0.634834
925 2 0.394983 0.401666 0.612143
906 4 0.492656 0.338278 0.618995
1160 4 0.129189 0.488571 0.587099
2244 4 0.109668 0.492968 0.581719
1159 2 0.1531 0.495473 0.584689
1186 2 0.204861 0.474582 0.60032
1173 4 0.23085 0.439805 0.61072
1187 4 0.219689 0.456008 0.608087
1188 4 0.190033 0.493155 0.592552
926 4 0.407814 0.409934 0.592339
1911 4 0.445864 0.481086 0.603371
1002 4 0.426324 0.417196 0.591997
1001 4 0.445907 0.46265 0.599152
1000 2 0.436115 0.439923 0.595574
1269 4 0.459094 0.471722 0.612554
1267 2 0.458831 0.478989 0.636477
1268 4 0.458568 0.486256 0.6604
1076 4 0.0654828 0.0531065 0.670023
1075 2 0.0654815 0.0664072 0.691196
945 4 0.0149943 0.0111339 0.671218
864 4 0.0541732 0.0782773 0.72869
1077 4 0.0654802 0.0797079 0.712368
862 2 0.0385999 0.0728453 0.747483
4520 4 0.998701 0.00221344 0.666834
824 4 0.175728 0.00385584 0.668388
823 2 0.174042 0.0275232 0.676275
1283 4 0.173511 0.0716512 0.679356
1149 4 0.2267 0.0569635 0.728729
1147 2 0.244965 0.066121 0.714317
1004 4 0.338969 0.0611147 0.729681
1148 4 0.26323 0.0752786 0.699906
1003 2 0.333484 0.0846528 0.723274
1092 4 0.343244 0.00568971 0.682292
43 3 0.435733 0.0695852 0.666012
42 3 0.464822 0.0458121 0.667162
1163 4 0.472142 0.0590643 0.686006
1162 2 0.485678 0.053632 0.706314
44 3 0.468886 0.0805005 0.681049
851 4 0.0626714 0.0984445 0.706753
850 2 0.056402 0.120689 0.69721
852 4 0.0501326 0.142933 0.687667
1107 4 0.0671972 0.0918822 0.724298
1105 2 0.0892396 0.0920402 0.7361
1106 4 0.111282 0.0921981 0.747902
1227 4 0.24803 0.13698 0.673842
1282 2 0.176617 0.0963835 0.681315
1284 4 0.179724 0.121116 0.683274
909 4 0.18622 0.135963 0.696904
907 2 0.208716 0.141143 0.687297
908 4 0.231211 0.146323 0.677689
888 4 0.25918 0.15265 0.667717
1226 4 0.262714 0.0910183 0.686978
886 2 0.283421 0.158205 0.665125
1225 2 0.255372 0.113999 0.68041
829 2 0.329787 0.137079 0.687097
830 4 0.322492 0.155975 0.672438
1005 4 0.327999 0.108191 0.716867
831 4 0.337081 0.118182 0.701756
1072 2 0.116425 0.253436 0.746119
977 4 0.304003 0.228222 0.737114
1298 4 0.293101 0.213465 0.741469
976 2 0.328583 0.229488 0.732712
1297 2 0.276341 0.197619 0.751123
1299 4 0.25958 0.181774 0.760776
978 4 0.353164 0.230755 0.72831
1025 4 0.412607 0.194711 0.674977
1020 4 0.364282 0.244428 0.720078
1146 4 0.494319 0.169118 0.715338
1024 2 0.423159 0.195809 0.697619
1142 4 0.438327 0.180439 0.72913
1144 2 0.473118 0.181635 0.719697
1262 4 0.446987 0.211617 0.728056
1026 4 0.433711 0.196908 0.72026
1261 2 0.43732 0.233307 0.735885
1145 4 0.451916 0.194152 0.724056
1177 2 0.015372 0.260816 0.706059
1179 4 0.0327926 0.276045 0.696584
1130 4 0.157686 0.255541 0.740849
1208 4 0.155008 0.25339 0.722856
1074 4 0.139315 0.256088 0.736413
1207 2 0.152659 0.261858 0.699448
821 4 0.144979 0.290063 0.680229
1209 4 0.15031 0.270326 0.676039
805 2 0.224432 0.33363 0.711383
806 4 0.241335 0.32068 0.724489
1018 2 0.37705 0.252959 0.739811
1263 4 0.427654 0.254997 0.743714
893 4 0.00378835 0.337291 0.720002
892 2 0.0245956 0.348688 0.727899
1279 2 0.0593667 0.399206 0.746616
1280 4 0.0522861 0.375236 0.745913
816 4 0.0636584 0.367809 0.732512
814 2 0.0849097 0.356035 0.726602
894 4 0.0454029 0.360084 0.735796
815 4 0.106161 0.344261 0.720692
942 4 0.114328 0.352732 0.736302
940 2 0.136526 0.362387 0.742563
1063 2 0.191089 0.349981 0.667768
1065 4 0.204001 0.360688 0.686309
807 4 0.207529 0.34658 0.698276
1028 4 0.214638 0.375259 0.691976
1066 2 0.186916 0.37368 0.721132
1068 4 0.203937 0.364905 0.705056
1027 2 0.22799 0.394241 0.68267
1067 4 0.169895 0.382456 0.737209
1029 4 0.241341 0.413222 0.673363
1205 4 0.380811 0.398051 0.687045
1982 4 0.0690512 0.483103 0.730067
1176 4 0.190411 0.479501 0.739343
1140 4 0.261037 0.413398 0.669379
1175 4 0.179609 0.46818 0.691847
1174 2 0.18501 0.47384 0.715595
2016 4 0.170937 0.483141 0.743654
2026 2 0.275926 0.497332 0.691019
1138 2 0.271542 0.434888 0.67666
1139 4 0.282048 0.456377 0.683942
1987 2 0.278212 0.455577 0.72838
1229 4 0.296056 0.461427 0.695841
1989 4 0.291372 0.469676 0.712467
2028 4 0.285163 0.474277 0.693902
1228 2 0.320009 0.467008 0.691334
1230 4 0.343961 0.472589 0.686827
1101 4 0.448084 0.488941 0.678459
1099 2 0.443297 0.471613 0.695838
1100 4 0.438511 0.454285 0.713216
2168 4 0.466458 0.493279 0.676216
2989 2 0.0161612 0.0457404 0.800414
2990 4 0.0169255 0.0614733 0.780996
2991 4 0.015397 0.0300075 0.819832
3083 4 0.00240022 0.0674891 0.770291
863 4 0.0230267 0.0674132 0.766275
2049 4 0.0936922 0.0234207 0.777974
1202 4 0.10791 0.0360083 0.775027
1201 2 0.118477 0.0586614 0.775616
1203 4 0.129044 0.0813145 0.776206
1085 4 0.328588 0.075699 0.816466
1084 2 0.308668 0.0803324 0.802082
1050 4 0.367251 0.00898695 0.773279
960 4 0.348788 0.075177 0.82061
819 4 0.340756 0.0638465 0.807719
817 2 0.34888 0.0406375 0.803189
818 4 0.357004 0.0174285 0.798659
974 4 0.361055 0.999224 0.790669
2322 4 0.492942 0.0479202 0.782082
845 4 0.484357 0.0651871 0.787348
844 2 0.486711 0.0687256 0.811988
2320 2 0.496336 0.0390455 0.758954
833 4 0.0138614 0.0810659 0.776186
832 2 0.016547 0.101982 0.78962
834 4 0.0192326 0.122898 0.803055
1125 4 0.0177356 0.131236 0.82224
32 3 0.140618 0.0901206 0.792624
911 4 0.128006 0.104574 0.801894
34 3 0.126717 0.0989052 0.758826
31 1 0.138121 0.107095 0.777301
35 3 0.126325 0.124102 0.786802
33 3 0.159132 0.114615 0.770947
910 2 0.117277 0.100764 0.824155
1256 4 0.237213 0.116729 0.812121