ITEM: TIMESTEP
1410000
ITEM: NUMBER OF ATOMS
4590
ITEM: BOX BOUNDS pp pp pp
-9.9985700000000008e+00 9.9985700000000008e+00
-9.9985700000000008e+00 9.9985700000000008e+00
-9.9985700000000008e+00 9.9985700000000008e+00
ITEM: ATOMS id type xs ys zs
1666 2 0.0717379 0.0683732 0.0742749
1668 4 0.0551188 0.0683658 0.0555939
1667 4 0.0883571 0.0683807 0.092956
297 4 0.337706 0.0786719 0.0523512
295 2 0.354651 0.0886977 0.0369387
486 4 0.394857 0.00232299 0.0531381
484 2 0.392115 0.999916 0.077874
747 4 0.463153 0.0639556 0.0052669
2974 2 0.475997 0.0317389 0.0296022
2976 4 0.484912 0.0108465 0.0400522
2975 4 0.467082 0.0526313 0.0191522
745 2 0.453677 0.0848213 0.0152676
986 4 0.452242 0.0487863 0.00312502
2264 4 0.298464 0.138354 0.0164255
296 4 0.371595 0.0987234 0.0215262
557 4 0.378566 0.0986095 0.00410735
556 2 0.402547 0.1021 0.0102634
769 2 0.389891 0.162691 0.03125
771 4 0.397337 0.149537 0.0113323
827 4 0.361341 0.106496 0.00565913
558 4 0.426528 0.10559 0.0164195
746 4 0.444202 0.105687 0.0252684
566 4 0.147639 0.19301 0.0252612
567 4 0.196241 0.184372 0.0172658
565 2 0.17194 0.188691 0.0212635
738 4 0.220705 0.235445 0.0844961
358 2 0.347631 0.178649 0.0752425
770 4 0.382445 0.175845 0.0511676
359 4 0.370079 0.181491 0.0646036
664 2 0.392882 0.214578 0.061541
665 4 0.388177 0.190058 0.0628736
666 4 0.397587 0.239099 0.0602083
555 4 0.0989157 0.269531 0.0410759
553 2 0.0936009 0.266486 0.0168341
287 4 0.155694 0.312008 0.0322643
293 4 0.155841 0.293671 0.0375473
292 2 0.155512 0.284283 0.0143752
507 4 0.159741 0.307126 0.0509913
554 4 0.0882861 0.263442 0.992592
505 2 0.177464 0.304397 0.068416
481 2 0.230483 0.287782 0.0699845
573 4 0.261615 0.269191 0.0446601
482 4 0.246961 0.275577 0.0556776
571 2 0.2619 0.268253 0.0196758
322 2 0.40706 0.283517 0.0702866
1069 2 0.3935 0.298021 0.0133307
324 4 0.414377 0.283058 0.0463821
1070 4 0.413152 0.290418 0.0267912
741 4 0.359983 0.317201 0.0307468
957 4 0.359706 0.315665 0.0114327
1071 4 0.373848 0.305623 0.99987
671 4 0.45394 0.31728 0.0561886
280 2 0.448017 0.299995 0.0278078
281 4 0.465704 0.312566 0.0402308
282 4 0.430331 0.287423 0.0153849
670 2 0.442343 0.325008 0.0769487
286 2 0.146865 0.335389 0.0330111
288 4 0.138035 0.35877 0.0337578
454 2 0.143774 0.37337 0.073555
455 4 0.131323 0.352549 0.0675036
456 4 0.156226 0.394191 0.0796065
250 2 0.275679 0.397573 0.0450756
251 4 0.263635 0.382972 0.0287373
1290 4 0.26193 0.381727 0.00874409
739 2 0.366998 0.328482 0.0519298
740 4 0.374012 0.339763 0.0731127
495 4 0.401885 0.372353 0.0666242
493 2 0.393394 0.395677 0.0636136
14 3 0.387919 0.35867 0.0713262
328 2 0.995791 0.442502 0.0469882
330 4 0.012529 0.458459 0.056495
245 4 0.228717 0.433947 0.0450973
626 4 0.21921 0.446089 0.0563088
625 2 0.195155 0.451908 0.0598737
244 2 0.23939 0.439503 0.0231792
1778 4 0.233558 0.493852 0.0295945
627 4 0.171101 0.457727 0.0634386
246 4 0.250063 0.445059 0.0012612
252 4 0.287724 0.412173 0.0614139
609 4 0.283949 0.43079 0.0643257
607 2 0.306224 0.433689 0.0753092
494 4 0.384904 0.419001 0.060603
1672 2 0.394134 0.478774 0.0477354
1674 4 0.41456 0.469129 0.0370149
660 4 0.38011 0.423815 0.0793236
1673 4 0.373708 0.48842 0.0584558
854 4 0.434089 0.45478 0.0173975
563 4 0.483316 0.457056 0.040202
228 4 0.503025 0.4568 0.0422765
562 2 0.458674 0.460348 0.037533
564 4 0.434032 0.463639 0.0348639
853 2 0.418878 0.441599 0.00256237
18 3 0.0686467 0.0584268 0.139591
16 1 0.0669473 0.0652004 0.161718
701 4 0.0869193 0.0833478 0.105664
1475 4 0.27776 0.0259469 0.0830395
492 4 0.282816 0.0403543 0.0955893
491 4 0.282585 0.0785545 0.12786
490 2 0.2827 0.0594544 0.111725
485 4 0.389372 0.997509 0.10261
2723 4 0.426047 0.0469142 0.141521
2722 2 0.450451 0.0451597 0.146673
2724 4 0.474855 0.0434052 0.151824
1760 4 0.490086 0.0297914 0.152558
2467 2 0.499392 0.00726422 0.0808388
700 2 0.0946475 0.101043 0.121548
476 4 0.0871436 0.118076 0.150471
702 4 0.102376 0.118739 0.137433
581 4 0.279716 0.113021 0.16759
580 2 0.261476 0.130119 0.167217
628 2 0.397771 0.144253 0.144741
312 4 0.386448 0.110308 0.161914
629 4 0.401877 0.121172 0.153435
339 4 0.0656066 0.232083 0.142043
337 2 0.0833159 0.241777 0.156794
737 4 0.237313 0.21112 0.124908
736 2 0.229009 0.223283 0.104702
360 4 0.325183 0.175807 0.0858813
461 4 0.308496 0.233646 0.107164
460 2 0.332244 0.234213 0.114968
354 4 0.290024 0.238547 0.117976
352 2 0.283942 0.240189 0.142173
353 4 0.27786 0.241831 0.16637
630 4 0.393665 0.167334 0.136046
462 4 0.355991 0.234781 0.122773
254 4 0.376824 0.170793 0.12685
255 4 0.365306 0.219451 0.127523
253 2 0.371065 0.195122 0.127186
765 4 0.364528 0.232165 0.141918
624 4 0.374125 0.237794 0.126743
763 2 0.357355 0.236126 0.165541
622 2 0.390096 0.251316 0.113058
648 4 0.0698082 0.312019 0.166128
506 4 0.195187 0.301668 0.0858407
483 4 0.214005 0.299987 0.0842913
537 4 0.189663 0.317332 0.0989358
387 4 0.326561 0.318012 0.119768
301 2 0.317558 0.312314 0.162394
302 4 0.327995 0.310782 0.139725
323 4 0.399743 0.283977 0.0941911
623 4 0.406066 0.264838 0.0993731
385 2 0.343057 0.325051 0.102347
15 3 0.374494 0.332757 0.0951157
386 4 0.359554 0.33209 0.0849255
528 4 0.47615 0.292721 0.109637
518 4 0.479251 0.28088 0.092766
526 2 0.474165 0.284709 0.133238
527 4 0.472179 0.276697 0.15684
552 4 0.117315 0.353941 0.0815773
551 4 0.0844229 0.347456 0.118682
550 2 0.100869 0.350698 0.10013
535 2 0.190337 0.339061 0.111287
536 4 0.19101 0.36079 0.123639
291 4 0.214956 0.397499 0.1337
416 4 0.206498 0.413159 0.124513
289 2 0.238208 0.405863 0.137513
11 1 0.390274 0.348926 0.0922525
13 3 0.388163 0.365066 0.108789
12 3 0.411184 0.339453 0.0937336
672 4 0.430747 0.332736 0.0977089
104 3 0.496196 0.346808 0.118446
595 2 0.493493 0.392398 0.154794
1791 4 0.039232 0.491234 0.13866
1466 4 0.0387071 0.481104 0.155897
1789 2 0.0506519 0.502769 0.119641
417 4 0.162248 0.429785 0.14083
415 2 0.184373 0.421472 0.132671
608 4 0.328498 0.436589 0.0862926
768 4 0.252999 0.428734 0.152491
290 4 0.261461 0.414227 0.141325
767 4 0.276023 0.47312 0.153225
766 2 0.264511 0.450927 0.152858
525 4 0.388331 0.501356 0.150923
658 2 0.359807 0.433248 0.0904577
659 4 0.339503 0.442681 0.101592
19 3 0.0534552 0.0840177 0.163228
17 3 0.0574317 0.0482239 0.173982
2480 4 0.0402538 0.0371988 0.172128
1422 4 0.0412481 0.0186204 0.180285
2479 2 0.0192325 0.0469068 0.181564
20 3 0.0876395 0.0697864 0.170052
675 4 0.105703 0.00631759 0.24465
674 4 0.149914 0.0224658 0.227757
673 2 0.127808 0.0143917 0.236204
689 4 0.157584 0.0083283 0.216462
578 4 0.0906104 0.0595803 0.187094
577 2 0.107988 0.072359 0.199739
450 4 0.142633 0.0830352 0.202211
1506 4 0.252026 0.0171915 0.167634
1504 2 0.232536 0.00322556 0.174724
654 4 0.268602 0.0154649 0.178049
652 2 0.288931 0.0268683 0.187096
653 4 0.309261 0.0382718 0.196143
24 3 0.306605 0.0643238 0.250779
25 3 0.330154 0.0389199 0.236023
21 1 0.328565 0.0568767 0.24994
311 4 0.389626 0.0643369 0.181338
758 4 0.37835 0.0541323 0.192796
759 4 0.344125 0.0553663 0.229235
757 2 0.361238 0.0547493 0.211016
22 3 0.341874 0.0738537 0.241953
743 4 0.49702 0.0872808 0.243793
2744 4 0.489418 0.0448161 0.164032
381 4 0.995507 0.12277 0.20655
512 4 0.999743 0.130543 0.223792
511 2 0.0203673 0.144184 0.227499
513 4 0.0409914 0.157825 0.231206
393 4 0.0559716 0.157802 0.244455
448 2 0.154824 0.102095 0.191566
475 2 0.096942 0.125835 0.172126
477 4 0.10674 0.133595 0.193782
579 4 0.125366 0.0851378 0.212384
449 4 0.167014 0.121155 0.180922
237 4 0.23004 0.146763 0.181741
691 2 0.232782 0.12754 0.238855
693 4 0.218794 0.12554 0.218227
236 4 0.185995 0.123646 0.186872
235 2 0.208017 0.135204 0.184307
582 4 0.243236 0.147218 0.166843
310 2 0.388037 0.0873225 0.171626
521 4 0.494951 0.167326 0.23329
332 4 0.491108 0.147552 0.233866
333 4 0.503632 0.0993028 0.229878
331 2 0.49737 0.123427 0.231872
762 4 0.477254 0.160172 0.234775
760 2 0.455496 0.165331 0.24596
394 2 0.0085941 0.234004 0.235004
395 4 0.0221745 0.233421 0.214018
546 4 0.151295 0.213643 0.253191
277 2 0.244094 0.234987 0.179445
279 4 0.219792 0.2292 0.178388
284 4 0.286134 0.235386 0.184618
283 2 0.30997 0.235267 0.192169
285 4 0.333806 0.235147 0.199719
27 3 0.328786 0.176617 0.232532
278 4 0.268395 0.240775 0.180501
764 4 0.350182 0.240088 0.189164
646 2 0.0616262 0.331115 0.180042
338 4 0.101025 0.251471 0.171544
363 4 0.0916036 0.262592 0.182473
749 4 0.0848856 0.303148 0.221443
361 2 0.0969143 0.281448 0.198012
370 2 0.144999 0.304813 0.216416
372 4 0.120506 0.309222 0.214004
362 4 0.102225 0.300303 0.21355
748 2 0.0860006 0.322752 0.236924
371 4 0.169492 0.300404 0.218828
755 4 0.271045 0.258325 0.174375
754 2 0.272149 0.283063 0.177838
756 4 0.273253 0.307801 0.181301
612 4 0.262991 0.319868 0.193641
610 2 0.257362 0.317532 0.217891
307 2 0.310267 0.290813 0.217159
308 4 0.312224 0.296098 0.192798
303 4 0.307121 0.313846 0.185064
309 4 0.308311 0.285528 0.241519
611 4 0.251733 0.315197 0.24214
647 4 0.0534443 0.35021 0.193956
734 4 0.167154 0.355682 0.241564
729 4 0.309175 0.331404 0.195047
727 2 0.312365 0.352409 0.208231
728 4 0.315555 0.373413 0.221414
447 4 0.426819 0.391092 0.227817
644 4 0.437514 0.374269 0.225969
597 4 0.477137 0.382304 0.170788
643 2 0.450856 0.381296 0.206024
645 4 0.464197 0.388323 0.186079
264 4 0.0119905 0.421437 0.229219
1465 2 0.0228889 0.47596 0.174565
1467 4 0.00707063 0.470816 0.193234
1775 4 0.0900059 0.493634 0.240739
1758 4 0.106467 0.483369 0.234209
1756 2 0.113343 0.460759 0.242376
1757 4 0.12022 0.43815 0.250543
231 4 0.485164 0.484378 0.19521
234 4 0.00206249 0.0463386 0.310709
232 2 0.0251996 0.0429335 0.301863
233 4 0.0483368 0.0395284 0.293016
1404 4 0.0650068 0.0316333 0.287357
1402 2 0.0755183 0.0192538 0.268345
316 2 0.0732908 0.0641796 0.313923
317 4 0.0645993 0.0433076 0.303246
428 4 0.0726749 0.0253942 0.303467
427 2 0.068717 0.00959763 0.32244
1403 4 0.0860297 0.00687439 0.249334
318 4 0.0819822 0.0850516 0.3246
23 3 0.335778 0.0510674 0.271215
699 4 0.347417 0.0627585 0.320012
349 2 0.412367 0.0868304 0.262611
697 2 0.367477 0.0555162 0.333063
351 4 0.431732 0.0711234 0.260746
479 4 0.448458 0.0262347 0.306065
478 2 0.441334 0.0390326 0.285801
2664 4 0.467329 0.0236214 0.306189
480 4 0.43421 0.0518306 0.265537
1428 4 0.45217 0.0108417 0.312452
258 4 0.437517 0.0232233 0.320904
2662 2 0.491767 0.0266838 0.301882
391 2 0.0803271 0.161965 0.248284
692 4 0.246769 0.129541 0.259484
721 2 0.247299 0.115008 0.291121
722 4 0.234277 0.111302 0.312141
249 4 0.242472 0.117282 0.328037
28 3 0.323881 0.140633 0.242212
723 4 0.260321 0.118713 0.2701
26 1 0.325591 0.162324 0.25027
30 3 0.306457 0.168087 0.261194
404 4 0.257716 0.128731 0.336247
632 4 0.371808 0.10291 0.262801
350 4 0.393003 0.102537 0.264475
631 2 0.356737 0.12266 0.259974
707 4 0.34807 0.150497 0.27471
633 4 0.341666 0.142409 0.257148
706 2 0.351418 0.159888 0.29764
717 4 0.418309 0.165636 0.338549
392 4 0.104683 0.166129 0.252112
389 4 0.0986196 0.219389 0.343384
544 2 0.159333 0.220081 0.275975
545 4 0.16737 0.226519 0.298759
402 4 0.185942 0.23421 0.297709
29 3 0.34373 0.16403 0.264639
708 4 0.354766 0.16928 0.320569
761 4 0.433737 0.170491 0.257145
750 4 0.0871157 0.342355 0.252405
400 2 0.201081 0.253325 0.292176
401 4 0.21622 0.27244 0.286643
676 2 0.179616 0.314765 0.307867
345 4 0.207819 0.32037 0.281645
677 4 0.189805 0.316723 0.285118
343 2 0.229843 0.314574 0.271323
735 4 0.193764 0.322276 0.267577
678 4 0.169426 0.312806 0.330616
344 4 0.251866 0.308778 0.261
496 2 0.285105 0.293016 0.27502
497 4 0.275252 0.28814 0.297478
377 4 0.281719 0.269943 0.300662
498 4 0.294957 0.297891 0.252563
376 2 0.284019 0.26061 0.323744
615 4 0.371764 0.33732 0.323377
420 4 0.435023 0.281902 0.33423
418 2 0.451893 0.263812 0.330578
365 4 0.027911 0.368295 0.294246
601 2 0.0585798 0.373779 0.302479
603 4 0.0440077 0.364029 0.284653
602 4 0.0731518 0.383529 0.320305
364 2 0.00398049 0.361548 0.29689
549 4 0.0735855 0.400274 0.332074
299 4 0.152426 0.365606 0.25151
300 4 0.106334 0.347193 0.245417
298 2 0.12938 0.3564 0.248463
733 2 0.180459 0.338979 0.25457
433 2 0.287068 0.372929 0.318286
435 4 0.266319 0.385729 0.312733
434 4 0.307817 0.36013 0.323839
614 4 0.322773 0.346719 0.326876
445 2 0.404493 0.387012 0.238309
613 2 0.347269 0.342019 0.325126
446 4 0.382167 0.382932 0.248801
2463 4 0.00143151 0.472012 0.315636
2461 2 0.0120111 0.492054 0.326199
777 4 0.126391 0.478146 0.270745
775 2 0.115016 0.485464 0.291774
776 4 0.103642 0.492782 0.312804
1435 2 0.244029 0.468363 0.3315
1436 4 0.22455 0.467686 0.315838
413 4 0.229156 0.476257 0.298938
3 3 0.316049 0.463184 0.328386
437 4 0.380891 0.48047 0.328045
436 2 0.356114 0.480062 0.331377
438 4 0.331336 0.479654 0.334708
1803 4 0.368233 0.490779 0.267592
119 3 0.495796 0.457733 0.319522
367 2 0.0707034 0.00850179 0.397854
369 4 0.045769 0.00986152 0.399121
719 4 0.0368476 0.994927 0.412617
1781 4 0.10524 0.00883234 0.412835
368 4 0.0956377 0.00714206 0.396586
732 4 0.0983055 0.0787681 0.334763
730 2 0.112014 0.0741652 0.35516
731 4 0.125723 0.0695624 0.375558
606 4 0.143209 0.0775743 0.369342
1700 4 0.319258 0.0546184 0.350199
1701 4 0.31539 0.0276751 0.392149
1699 2 0.317324 0.0411467 0.371174
425 4 0.325108 0.0250836 0.408022
441 4 0.307254 0.0183185 0.408156
698 4 0.387537 0.0482739 0.346114
426 4 0.37441 0.0172803 0.411049
424 2 0.349759 0.0211819 0.409535
257 4 0.403991 0.0407169 0.353625
726 4 0.405742 0.0742562 0.421058
256 2 0.420754 0.0319701 0.337265
2584 2 0.0202248 0.127897 0.361338
397 2 0.0714286 0.110688 0.3494
398 4 0.0549931 0.126843 0.359099
2586 4 0.0413343 0.138172 0.369939
458 4 0.0356043 0.138451 0.388175
457 2 0.0418252 0.149668 0.409637
399 4 0.0878641 0.0945327 0.339702
598 2 0.130975 0.155648 0.354679
600 4 0.115681 0.140515 0.34194
604 2 0.167579 0.0795607 0.364112
605 4 0.191948 0.0815472 0.358881
248 4 0.2042 0.0979597 0.353779
247 2 0.223336 0.107621 0.340908
683 4 0.241097 0.089133 0.383275
403 2 0.2578 0.153199 0.341396
682 2 0.261061 0.101707 0.391554
319 2 0.30834 0.136751 0.401463
684 4 0.281025 0.11428 0.399832
321 4 0.320407 0.155915 0.390865
320 4 0.296274 0.117586 0.412061
725 4 0.402455 0.102052 0.379618
724 2 0.404099 0.0881539 0.400338
388 2 0.112683 0.239607 0.339071
599 4 0.146269 0.170782 0.367417
686 4 0.13892 0.181943 0.382037
685 2 0.128419 0.193537 0.401543
275 4 0.154783 0.180151 0.351213
687 4 0.117919 0.205131 0.42105
472 2 0.237516 0.203132 0.356047
474 4 0.215172 0.213732 0.352363
276 4 0.197189 0.205813 0.34459
274 2 0.175986 0.192982 0.347902
405 4 0.257884 0.177666 0.346546
473 4 0.25986 0.192533 0.35973
715 2 0.401638 0.173808 0.355296
466 2 0.377161 0.194573 0.40178
716 4 0.384967 0.181981 0.372043
467 4 0.370424 0.194277 0.377703
269 4 0.475791 0.228253 0.335167
270 4 0.480286 0.21526 0.383248
452 4 0.461966 0.220044 0.39224
268 2 0.478039 0.221757 0.359207
618 4 0.0618045 0.323491 0.382532
616 2 0.0850797 0.314924 0.37936
390 4 0.126747 0.259826 0.334759
617 4 0.108355 0.306358 0.376189
374 4 0.108597 0.301439 0.357197
373 2 0.132503 0.306128 0.351568
375 4 0.15641 0.310816 0.345939
509 4 0.262101 0.310304 0.383855
378 4 0.286319 0.251277 0.346826
508 2 0.260334 0.325548 0.364114
488 4 0.333677 0.269479 0.404488
510 4 0.258567 0.340792 0.344374
541 2 0.405699 0.312031 0.329184
543 4 0.386491 0.325533 0.320588
419 4 0.468764 0.245723 0.326926
542 4 0.424908 0.298529 0.337781
347 4 0.0429114 0.325274 0.382371
346 2 0.0379649 0.349735 0.38083
348 4 0.0330184 0.374196 0.379289
668 4 0.325994 0.38293 0.407975
336 4 0.335802 0.365779 0.401262
334 2 0.358603 0.363541 0.411277
752 4 0.489207 0.398224 0.391837
561 4 0.485877 0.401724 0.411257
547 2 0.0905009 0.415229 0.342816
407 4 0.115847 0.440833 0.369845
548 4 0.107416 0.430184 0.353558
406 2 0.119906 0.447462 0.39361
408 4 0.123965 0.454091 0.417375
1437 4 0.263508 0.469039 0.347162
5 3 0.289542 0.48992 0.328904
1 1 0.305564 0.479423 0.341223
4 3 0.296015 0.469722 0.360014
2 3 0.321247 0.49484 0.34797
593 4 0.398379 0.462232 0.385608
588 4 0.405286 0.460816 0.403777
751 2 0.494967 0.414501 0.373752
592 2 0.416322 0.471931 0.371147
714 4 0.484503 0.46135 0.339323
712 2 0.46155 0.471257 0.338889
117 3 0.495925 0.452762 0.356777
594 4 0.434266 0.48163 0.356685
713 4 0.438596 0.481163 0.338454
720 4 0.000898599 0.00873584 0.444518
718 2 0.0188731 0.00183126 0.428567
962 4 0.314859 0.0305809 0.422878
961 2 0.311267 0.0444292 0.443384
963 4 0.307675 0.0582775 0.46389
432 4 0.308917 0.0574494 0.483698
1218 4 0.43871 0.0697105 0.493614
459 4 0.0480461 0.160885 0.4311
640 2 0.480141 0.125648 0.457844
641 4 0.461659 0.14186 0.462402
260 4 0.0605057 0.174627 0.43997
259 2 0.0799975 0.188128 0.432035
261 4 0.0994893 0.201629 0.4241
1035 4 0.109889 0.215653 0.434656
1033 2 0.107833 0.231022 0.454272
489 4 0.335702 0.234166 0.439837
468 4 0.383898 0.194869 0.425857
514 2 0.410238 0.192563 0.449526
411 4 0.337438 0.222466 0.456052
516 4 0.387841 0.183178 0.455482
409 2 0.357219 0.208395 0.450063
410 4 0.377001 0.194323 0.444074
575 4 0.383861 0.179872 0.47546
451 2 0.454418 0.206749 0.412025
515 4 0.432635 0.201948 0.443569
453 4 0.44687 0.193454 0.43181
585 4 0.479622 0.226866 0.449347
2847 4 0.019752 0.327375 0.463521
1034 4 0.105776 0.24639 0.473887
1258 2 0.111997 0.283114 0.480882
1259 4 0.118887 0.305927 0.473312
9 3 0.116843 0.326515 0.475383
696 4 0.0893954 0.261215 0.50234
1260 4 0.105107 0.260302 0.488452
487 2 0.33469 0.251823 0.422162
266 4 0.366281 0.250565 0.470809
267 4 0.367434 0.298262 0.485788
265 2 0.366858 0.274413 0.478298
583 2 0.485571 0.240873 0.469186
584 4 0.491519 0.254881 0.489024
2845 2 0.999196 0.341147 0.46712
326 4 0.059965 0.383791 0.455033
325 2 0.079074 0.377363 0.469821
10 3 0.12844 0.345966 0.445302
6 1 0.127152 0.345963 0.468039
7 3 0.1147 0.364037 0.474925
327 4 0.098183 0.370935 0.48461
709 2 0.151618 0.395305 0.473495
8 3 0.14842 0.347589 0.477174
711 4 0.134373 0.410676 0.463927
503 4 0.218544 0.360823 0.437023
504 4 0.184232 0.375427 0.470342
502 2 0.201388 0.368125 0.453682
710 4 0.168863 0.379934 0.483062
667 2 0.321134 0.399927 0.425658
669 4 0.316274 0.416924 0.44334
882 4 0.380375 0.371813 0.49786
335 4 0.381404 0.361304 0.421291
238 2 0.405023 0.389937 0.433886
240 4 0.398562 0.371447 0.418344
239 4 0.411484 0.408427 0.449428
3307 2 0.504306 0.394496 0.490124
1381 2 0.00276167 0.490329 0.468874
1383 4 0.00342429 0.465403 0.467021
680 4 0.99736 0.451645 0.452904
570 4 0.158933 0.502821 0.45117
569 4 0.130585 0.469951 0.426337
382 2 0.116979 0.434559 0.448808
384 4 0.114104 0.413425 0.461856
568 2 0.144759 0.486386 0.438754
383 4 0.119853 0.455694 0.43576
1544 4 0.22433 0.492294 0.440397
1556 4 0.231602 0.508003 0.449675
774 4 0.307533 0.434785 0.450191
1555 2 0.255609 0.504901 0.443415
772 2 0.31264 0.427836 0.473661
634 2 0.300878 0.473637 0.432238
1557 4 0.279617 0.501798 0.437156
636 4 0.291032 0.494694 0.423029
635 4 0.310725 0.452579 0.441448
773 4 0.317747 0.420887 0.49713
663 4 0.438479 0.479305 0.45543
661 2 0.459875 0.48215 0.468051
587 4 0.411755 0.426184 0.439267
586 2 0.40852 0.4435 0.421522
342 4 0.228241 0.0756271 0.516818
340 2 0.2232 0.0522396 0.509553
341 4 0.218158 0.0288522 0.502287
2430 4 0.211655 0.011029 0.509417
1152 4 0.21286 0.0784881 0.529633
1150 2 0.218057 0.0870038 0.55256
1151 4 0.223254 0.0955194 0.575488
2428 2 0.193669 0.00680498 0.526265
430 2 0.323105 0.0700718 0.499963
431 4 0.337293 0.0826942 0.516229
1216 2 0.416105 0.0676433 0.504097
1217 4 0.3935 0.0655761 0.514581
842 4 0.394165 0.0850898 0.522117
3007 2 0.491255 0.0580775 0.56992
3009 4 0.499763 0.0662205 0.547864
1128 4 0.0121803 0.10289 0.583291
1058 4 0.127996 0.114969 0.524895
1057 2 0.125974 0.114194 0.549804
1059 4 0.123953 0.113419 0.574714
1155 4 0.127572 0.129381 0.586491
1181 4 0.211988 0.158756 0.572237
1180 2 0.23059 0.15427 0.556143
1032 4 0.236795 0.0825893 0.584403
1182 4 0.249193 0.149784 0.540049
900 4 0.266105 0.15866 0.53316
843 4 0.345748 0.0884681 0.53416
841 2 0.369957 0.0867789 0.528139
3159 4 0.494506 0.170207 0.566655
1199 4 0.0362358 0.21086 0.566024
1198 2 0.0114922 0.214456 0.56595
878 4 0.040244 0.226012 0.578529
1244 4 0.0333138 0.243773 0.570684
470 4 0.0117914 0.185667 0.515808
1271 4 0.108988 0.154039 0.571224
796 2 0.238507 0.248188 0.570976
858 4 0.188787 0.23458 0.506343
798 4 0.214734 0.243965 0.564478
856 2 0.21134 0.245206 0.508253
898 2 0.284889 0.175096 0.531684
650 4 0.302231 0.209489 0.524055
899 4 0.303674 0.191532 0.530208
649 2 0.294799 0.233143 0.527287
576 4 0.399451 0.170621 0.522066
574 2 0.391656 0.175246 0.498763
1243 2 0.0358931 0.265646 0.58252
982 2 0.0256219 0.322325 0.573139
695 4 0.0396271 0.265231 0.505115
694 2 0.0645113 0.263223 0.503728
857 4 0.233892 0.255832 0.510163
947 4 0.194418 0.250323 0.562139
946 2 0.184589 0.268105 0.576711
797 4 0.262279 0.25241 0.577475
651 4 0.287367 0.256796 0.530518
791 4 0.268564 0.265603 0.563531
790 2 0.284818 0.277542 0.578311
872 4 0.382333 0.260172 0.550306
871 2 0.39081 0.282711 0.557037
873 4 0.399286 0.30525 0.563768
813 4 0.387916 0.321667 0.562323
906 4 0.484443 0.319565 0.586043
953 4 0.475126 0.302663 0.592062
984 4 0.0231884 0.339925 0.555547
3354 4 0.00645411 0.349309 0.563734
1189 2 0.233542 0.36568 0.579412
1190 4 0.254376 0.360338 0.566661
803 4 0.262383 0.354207 0.549349
804 4 0.294725 0.358675 0.511471
802 2 0.278554 0.356441 0.53041
930 4 0.319967 0.361851 0.573415
928 2 0.326784 0.379681 0.557266
1239 4 0.329515 0.34655 0.564226
811 2 0.404961 0.338819 0.568683
812 4 0.422007 0.355971 0.575042
929 4 0.333602 0.397511 0.541117
881 4 0.347011 0.396702 0.525574
880 2 0.363693 0.384257 0.511717
927 4 0.42289 0.372944 0.564877
925 2 0.440864 0.39031 0.565603
1011 4 0.490803 0.363375 0.498221
3308 4 0.492372 0.381965 0.508173
926 4 0.458839 0.407675 0.566328
538 2 0.0797614 0.453453 0.576112
539 4 0.0614961 0.439713 0.58625
540 4 0.0980267 0.467192 0.565974
1160 4 0.116219 0.49635 0.562488
1159 2 0.130671 0.479977 0.574664
1161 4 0.145122 0.463604 0.58684
2244 4 0.099245 0.486196 0.55955
1188 4 0.164965 0.464863 0.589072
1951 2 0.373674 0.493719 0.565852
1952 4 0.356949 0.479368 0.577663
1002 4 0.460917 0.419421 0.582117
1909 2 0.431892 0.487547 0.568782
2114 4 0.00288042 0.0041788 0.600492
1082 4 0.0651002 0.065422 0.663652
1081 2 0.0671419 0.0794753 0.643073
823 2 0.169515 0.0253553 0.656706
825 4 0.161698 0.0431511 0.672435
824 4 0.177333 0.0075595 0.640978
1030 2 0.256784 0.0772857 0.598457
1031 4 0.276773 0.0719821 0.61251
951 4 0.283459 0.0556383 0.621584
949 2 0.298346 0.0355532 0.62196
950 4 0.313233 0.0154682 0.622337
2283 4 0.388478 0.998712 0.62701
809 4 0.478176 0.0360528 0.606564
808 2 0.471494 0.0491876 0.626763
810 4 0.464813 0.0623223 0.646963
3008 4 0.482746 0.0499344 0.591976
1083 4 0.0691837 0.0935287 0.622493
938 4 0.0810324 0.108955 0.62441
1126 2 0.0324184 0.100162 0.597718
1127 4 0.0526566 0.097433 0.612145
939 4 0.111011 0.120667 0.586136
937 2 0.0960215 0.114811 0.605273
1153 2 0.149195 0.141283 0.590488
1221 4 0.170543 0.166824 0.609476
1154 4 0.170817 0.153185 0.594485
886 2 0.295877 0.163432 0.65803
887 4 0.3206 0.159695 0.658173
45 3 0.460941 0.0855623 0.648975
3424 2 0.490134 0.115931 0.655552
3425 4 0.475298 0.0971366 0.662753
877 2 0.0620458 0.218287 0.588025
879 4 0.0838476 0.210563 0.597522
1272 4 0.0937834 0.193648 0.597694
1270 2 0.101386 0.173843 0.584459
1212 4 0.208949 0.198075 0.651326
1219 2 0.180349 0.181106 0.627504
1220 4 0.190156 0.195388 0.645533
1210 2 0.231183 0.187506 0.655701
888 4 0.271155 0.167169 0.657886
1211 4 0.253417 0.176937 0.660076
1194 4 0.340085 0.162006 0.654937
1192 2 0.363686 0.170178 0.656126
1193 4 0.387287 0.178349 0.657314
983 4 0.0280554 0.304724 0.590731
1245 4 0.0384723 0.287519 0.594355
1136 4 0.162579 0.282125 0.60688
1135 2 0.153971 0.3056 0.606885
1137 4 0.145363 0.329075 0.60689
822 4 0.166839 0.311555 0.667793
948 4 0.174759 0.285887 0.591284
1064 4 0.182983 0.308546 0.677844
1238 4 0.310351 0.306072 0.586474
1237 2 0.319933 0.326311 0.57535
792 4 0.301073 0.28948 0.59309
806 4 0.318915 0.326642 0.666281
952 2 0.452704 0.293013 0.597477
954 4 0.430282 0.283363 0.602892
3123 4 0.487971 0.25208 0.661338
1039 2 0.064694 0.392194 0.617007
1041 4 0.04546 0.391174 0.632951
3264 4 0.0358663 0.381222 0.647465
3262 2 0.02657 0.363814 0.662818
3240 4 0.0248412 0.398509 0.652746
1040 4 0.083928 0.393213 0.601064
993 4 0.102234 0.382508 0.596853
897 4 0.150836 0.342487 0.593903
991 2 0.118447 0.363811 0.600425
992 4 0.13466 0.345115 0.603997
895 2 0.172214 0.355005 0.590516
1172 4 0.219798 0.384787 0.604093
1191 4 0.212708 0.371023 0.592162
896 4 0.193592 0.367523 0.587128
1171 2 0.210912 0.405543 0.614836
1206 4 0.380231 0.420227 0.610543
3238 2 0.0136202 0.420583 0.649278
1186 2 0.174085 0.44724 0.604285
1173 4 0.202026 0.426299 0.625578
1187 4 0.183204 0.429618 0.619499
1139 4 0.24561 0.456398 0.642064
1138 2 0.242704 0.444337 0.663772
891 4 0.326219 0.427503 0.59293
889 2 0.334674 0.451017 0.592042
1230 4 0.353957 0.41411 0.672662
890 4 0.34313 0.474531 0.591154
1204 2 0.387491 0.419397 0.634455
1205 4 0.39475 0.418568 0.658367
1911 4 0.443689 0.474655 0.586665
1000 2 0.451304 0.440546 0.591417
1001 4 0.441691 0.461671 0.600717
1269 4 0.446272 0.47998 0.605889
1267 2 0.453995 0.492142 0.626325
943 2 0.0622291 0.0186103 0.672075
944 4 0.0587071 0.0414328 0.681662
1076 4 0.0547651 0.0605648 0.679942
1075 2 0.0594415 0.0776902 0.697549
4520 4 0.02076 0.00500645 0.679597
1283 4 0.151789 0.0552865 0.684773
1282 2 0.142668 0.0764722 0.694424
1284 4 0.133547 0.0976579 0.704076
1147 2 0.241334 0.0411111 0.706833
1148 4 0.22203 0.0528028 0.69607
1226 4 0.214268 0.066047 0.682507
1149 4 0.260637 0.0294194 0.717596
1092 4 0.322367 0.0214948 0.697476
1004 4 0.381515 0.0690754 0.7192
42 3 0.465581 0.0543935 0.668971
41 1 0.459279 0.0765011 0.669802
43 3 0.437344 0.0777732 0.677262
1163 4 0.478871 0.0656656 0.68435
1162 2 0.494062 0.0522642 0.699007
864 4 0.0579633 0.101209 0.733262
1077 4 0.064118 0.0948157 0.715157
1107 4 0.0755425 0.102879 0.728104
851 4 0.0761325 0.110941 0.711557
850 2 0.0753179 0.131425 0.697242
862 2 0.0364411 0.098357 0.745665
852 4 0.0745034 0.151908 0.682926
1105 2 0.0936333 0.102187 0.74535
909 4 0.167405 0.140168 0.742033
907 2 0.187786 0.132367 0.729829
908 4 0.208167 0.124566 0.717625
1227 4 0.215104 0.109334 0.707532
1225 2 0.214686 0.0876906 0.69502
830 4 0.317662 0.150842 0.676364
829 2 0.33397 0.137221 0.689545
831 4 0.350277 0.123601 0.702726
1003 2 0.374217 0.0914254 0.710691
1005 4 0.366919 0.113775 0.702183
44 3 0.4733 0.0877518 0.684473
1144 2 0.491311 0.167759 0.727369
1142 4 0.450072 0.166046 0.733416
1178 4 0.00220456 0.231662 0.711415
1177 2 0.0168824 0.250835 0.704922
1072 2 0.0966696 0.211732 0.726946
1074 4 0.102636 0.235425 0.732255
1073 4 0.0907036 0.188038 0.721636
978 4 0.282597 0.203892 0.732915
1025 4 0.437529 0.186109 0.677638
1262 4 0.468048 0.192834 0.735017
1024 2 0.445606 0.184888 0.701269
1026 4 0.453683 0.183666 0.724901
1261 2 0.469706 0.214145 0.747988
1145 4 0.467397 0.174648 0.729779
1179 4 0.0315602 0.270007 0.698429
1209 4 0.126824 0.282504 0.712105
1207 2 0.111045 0.26742 0.724299
1208 4 0.0952663 0.252336 0.736493
821 4 0.131942 0.299956 0.70168
820 2 0.14939 0.305755 0.684736
1063 2 0.204458 0.320105 0.672331
1065 4 0.225933 0.331664 0.666817
805 2 0.295248 0.32218 0.672999
807 4 0.27158 0.317718 0.679717
3263 4 0.0172736 0.346406 0.678171
892 2 0.0197877 0.341071 0.737519
894 4 0.0395988 0.346628 0.723313
1280 4 0.0566332 0.357947 0.721569
1279 2 0.0556225 0.380487 0.710795
816 4 0.0730228 0.346301 0.724132
1281 4 0.0546118 0.403028 0.700021
814 2 0.0923177 0.337145 0.737134
815 4 0.111613 0.327988 0.750136
1028 4 0.227431 0.379397 0.719125
1066 2 0.199583 0.368525 0.73992
1068 4 0.221121 0.363632 0.7282
1027 2 0.23784 0.398637 0.707016
1067 4 0.178045 0.373418 0.75164
1983 4 0.0440832 0.4166 0.709107
1981 2 0.0587023 0.434668 0.718327
1982 4 0.0733214 0.452736 0.727547
1140 4 0.239798 0.432275 0.68548
1029 4 0.24825 0.417877 0.694906
1987 2 0.32171 0.485022 0.720331
1989 4 0.327955 0.467223 0.703917
1228 2 0.341392 0.434 0.681131
1229 4 0.328827 0.453889 0.689599
2991 4 0.0195693 0.0367049 0.787944
2989 2 0.0157034 0.0602196 0.780375
2990 4 0.0118375 0.0837343 0.772806
2049 4 0.130056 0.0356438 0.770646
1202 4 0.110559 0.0386798 0.773805
2047 2 0.140786 0.013377 0.766872
1201 2 0.112405 0.0613845 0.784114
817 2 0.318331 0.0401888 0.828815
818 4 0.328869 0.0196672 0.819172
1257 4 0.25893 0.0841156 0.76881
974 4 0.344128 0.0138594 0.807086
973 2 0.368229 0.0103987 0.812775
1050 4 0.340418 0.000969491 0.791397
1113 4 0.411432 0.046344 0.778932
2322 4 0.48789 0.0396019 0.770471
1111 2 0.435986 0.0498273 0.782121
845 4 0.478808 0.056192 0.775708
1112 4 0.460539 0.0533105 0.785311
844 2 0.482677 0.0802973 0.781106
3083 4 0.998368 0.0912617 0.759072
863 4 0.0149189 0.0955047 0.758068
833 4 0.00361955 0.100686 0.774662
832 2 0.00686392 0.118254 0.792155
834 4 0.0101083 0.135822 0.809648
1125 4 0.027849 0.13809 0.818322
1123 2 0.0385775 0.160554 0.820656
1106 4 0.111724 0.101496 0.762596
1203 4 0.114251 0.0840892 0.794423
911 4 0.103115 0.106213 0.826181
34 3 0.114634 0.104532 0.782786
31 1 0.119909 0.107675 0.805162
35 3 0.106552 0.123809 0.814103
32 3 0.116518 0.087919 0.816448
33 3 0.142195 0.113784 0.807265
1256 4 0.254073 0.0865113 0.818523
840 4 0.24176 0.0875393 0.833283
1255 2 0.256502 0.0853134 0.793667
1084 2 0.306364 0.0951596 0.816965
1086 4 0.312514 0.111268 0.798858
47 3 0.402549 0.154664 0.813487
1023 4 0.397504 0.149063 0.831495
48 3 0.401715 0.155825 0.775928
46 1 0.404037 0.168539 0.795199
846 4 0.486546 0.104403 0.786505
1143 4 0.421201 0.168637 0.774165
1141 2 0.435637 0.167342 0.753791
1124 4 0.049306 0.183018 0.822991
1130 4 0.123757 0.231525 0.777885
1129 2 0.147774 0.23822 0.776009
1131 4 0.171792 0.244915 0.774134
977 4 0.298822 0.216861 0.778404
918 4 0.294134 0.235346 0.776832
976 2 0.290709 0.210377 0.75566
1298 4 0.299327 0.229432 0.794297
1297 2 0.317394 0.224813 0.810954
1299 4 0.335461 0.220195 0.82761
1042 2 0.380799 0.224684 0.80108
1043 4 0.383064 0.20087 0.808357