ITEM: TIMESTEP
2010000
ITEM: NUMBER OF ATOMS
4590
ITEM: BOX BOUNDS pp pp pp
-9.9985700000000008e+00 9.9985700000000008e+00
-9.9985700000000008e+00 9.9985700000000008e+00
-9.9985700000000008e+00 9.9985700000000008e+00
ITEM: ATOMS id type xs ys zs
1666 2 0.0392343 0.0632087 0.0545292
1668 4 0.0346931 0.049254 0.0342851
1667 4 0.0437755 0.0771634 0.0747732
1474 2 0.298824 0.00909769 0.0722023
1475 4 0.281414 0.0259401 0.0783989
2974 2 0.466559 0.028346 0.00964101
2976 4 0.471647 0.00582178 0.0192306
2467 2 0.476717 0.995522 0.0560068
2469 4 0.479388 0.999641 0.0805237
2264 4 0.224335 0.15407 0.0102998
2263 2 0.236478 0.134523 0.000520335
297 4 0.326578 0.112161 0.0213522
295 2 0.347358 0.115084 0.00775621
556 2 0.40491 0.108824 0.00400016
558 4 0.423834 0.102154 0.0189194
746 4 0.441012 0.0946837 0.0279529
566 4 0.17291 0.161341 0.0260473
565 2 0.196227 0.167383 0.0193391
567 4 0.219544 0.173425 0.0126309
738 4 0.225846 0.191946 0.0824935
1133 4 0.229747 0.182876 0.99774
360 4 0.337159 0.177855 0.00743958
769 2 0.424866 0.181242 0.003717
770 4 0.403835 0.183956 0.0169642
359 4 0.385021 0.184595 0.0202668
358 2 0.36109 0.181225 0.0138532
664 2 0.399708 0.204306 0.0516779
665 4 0.395801 0.185296 0.0359124
666 4 0.403614 0.223315 0.0674434
323 4 0.415907 0.239521 0.073048
555 4 0.0603614 0.24667 0.0173538
2808 4 0.00713664 0.266471 0.0184555
287 4 0.164094 0.324551 0.0347496
292 2 0.129136 0.297482 0.0303249
507 4 0.157979 0.314554 0.049957
293 4 0.146688 0.31494 0.0338327
294 4 0.111584 0.280023 0.0268171
551 4 0.103515 0.310358 0.0765306
286 2 0.176273 0.324908 0.0129155
505 2 0.174419 0.313642 0.0687739
482 4 0.250624 0.282126 0.0740805
481 2 0.229813 0.293276 0.0823105
506 4 0.190859 0.312729 0.0875908
573 4 0.253642 0.282126 0.0531961
571 2 0.27098 0.277037 0.0359136
572 4 0.288318 0.271949 0.018631
357 4 0.297705 0.271938 0.000911233
1069 2 0.396887 0.29813 0.0224325
957 4 0.368101 0.327274 0.0186695
1071 4 0.375195 0.310507 0.0236351
955 2 0.353083 0.323032 0.999134
741 4 0.373159 0.326149 0.0370316
739 2 0.37518 0.333369 0.0608845
322 2 0.415625 0.257041 0.0552109
1070 4 0.418579 0.285753 0.0212299
324 4 0.415342 0.27456 0.0373738
671 4 0.457377 0.32342 0.0837733
280 2 0.448497 0.30303 0.0468412
281 4 0.458253 0.314753 0.0666544
282 4 0.438741 0.291306 0.0270281
527 4 0.457204 0.304251 0.0842963
455 4 0.13749 0.355589 0.0572289
552 4 0.118089 0.35597 0.0621147
550 2 0.110802 0.333164 0.0693226
454 2 0.154587 0.372031 0.0493208
456 4 0.171685 0.388472 0.0414128
1290 4 0.281463 0.408058 0.00935661
252 4 0.268158 0.403791 0.0734232
250 2 0.26982 0.410591 0.0494197
251 4 0.271482 0.417392 0.0254161
493 2 0.38243 0.389528 0.0749883
495 4 0.394829 0.368045 0.0781381
626 4 0.231524 0.489831 0.0673204
625 2 0.207155 0.488199 0.0726755
627 4 0.182786 0.486567 0.0780307
245 4 0.249936 0.483358 0.0727423
244 2 0.258411 0.465116 0.0578908
246 4 0.266886 0.446873 0.0430393
272 4 0.271249 0.437256 0.0251708
1672 2 0.408775 0.436929 0.0612097
853 2 0.405434 0.446384 0.00724714
660 4 0.372757 0.428269 0.0821474
1673 4 0.393053 0.427398 0.0781548
854 4 0.422931 0.444266 0.0249833
1674 4 0.424498 0.44646 0.0442646
563 4 0.481257 0.469367 0.0224869
562 2 0.460553 0.456634 0.0283508
564 4 0.439849 0.443901 0.0342146
228 4 0.496973 0.477967 0.0319737
18 3 0.0667064 0.0392793 0.144381
492 4 0.287428 0.0365604 0.0945907
490 2 0.277644 0.0593477 0.0913988
491 4 0.26786 0.0821349 0.0882069
486 4 0.41644 0.0111175 0.0993792
2723 4 0.449445 0.0778554 0.161329
2722 2 0.467049 0.0605562 0.157326
2724 4 0.484653 0.0432569 0.153324
1761 4 0.482557 0.0121938 0.0965087
1759 2 0.485784 0.0194879 0.120206
1760 4 0.489011 0.0267819 0.143903
701 4 0.0519675 0.093774 0.0832881
700 2 0.0637161 0.111589 0.096318
702 4 0.0754648 0.129404 0.109348
476 4 0.0950243 0.127371 0.116392
475 2 0.114876 0.141334 0.122404
477 4 0.134728 0.155297 0.128415
737 4 0.239346 0.170313 0.125511
582 4 0.252244 0.131388 0.159211
580 2 0.267514 0.125127 0.140428
581 4 0.282784 0.118866 0.121644
628 2 0.374603 0.146085 0.142833
312 4 0.375527 0.114043 0.160121
629 4 0.387851 0.125772 0.14892
630 4 0.361354 0.166397 0.136745
339 4 0.0706416 0.216896 0.153601
736 2 0.232596 0.181129 0.104002
755 4 0.249588 0.254793 0.149251
460 2 0.331065 0.234079 0.108577
352 2 0.277711 0.243732 0.12417
353 4 0.267133 0.246481 0.146658
461 4 0.307262 0.233503 0.100945
354 4 0.28829 0.240984 0.101682
278 4 0.260201 0.242679 0.161753
623 4 0.397385 0.237691 0.0772976
254 4 0.372603 0.178632 0.149175
462 4 0.354868 0.234654 0.11621
255 4 0.363226 0.223087 0.128282
253 2 0.367914 0.200859 0.138728
765 4 0.362056 0.240084 0.135978
624 4 0.372135 0.238654 0.120451
622 2 0.38476 0.238173 0.0988744
483 4 0.209001 0.304427 0.0905405
537 4 0.187107 0.319773 0.106039
535 2 0.188374 0.318047 0.13095
754 2 0.240488 0.274614 0.161477
536 4 0.189641 0.316321 0.155862
756 4 0.231387 0.294436 0.173704
387 4 0.331005 0.299597 0.114356
301 2 0.326958 0.306676 0.154703
302 4 0.326582 0.310502 0.129997
284 4 0.277446 0.250392 0.163975
763 2 0.351525 0.250333 0.156207
385 2 0.348168 0.313797 0.103001
15 3 0.369493 0.334647 0.110076
386 4 0.365332 0.327998 0.091645
740 4 0.3772 0.340589 0.0847375
670 2 0.435434 0.332277 0.0918481
528 4 0.493878 0.279586 0.107693
526 2 0.475541 0.291919 0.0959946
315 4 0.990539 0.359531 0.134691
417 4 0.164626 0.407807 0.163895
415 2 0.182689 0.394372 0.153014
291 4 0.214305 0.386334 0.128812
289 2 0.236347 0.397897 0.131188
416 4 0.200752 0.380936 0.142133
609 4 0.277035 0.407227 0.0904223
290 4 0.258389 0.40946 0.133564
494 4 0.370031 0.411011 0.0718386
12 3 0.405006 0.336491 0.121406
672 4 0.41349 0.341134 0.0999228
14 3 0.395338 0.350983 0.0881022
11 1 0.388337 0.347436 0.109938
13 3 0.384185 0.367764 0.120327
595 2 0.478243 0.398403 0.145412
596 4 0.467428 0.402264 0.123202
102 3 0.481263 0.335059 0.130443
1791 4 0.0575873 0.49141 0.14944
1466 4 0.0418379 0.480114 0.14314
1465 2 0.040717 0.455183 0.1416
1467 4 0.0395962 0.430252 0.140059
638 4 0.257321 0.498326 0.12982
767 4 0.261544 0.478771 0.126767
766 2 0.262187 0.453991 0.130039
768 4 0.262831 0.42921 0.133311
607 2 0.295659 0.418051 0.103118
608 4 0.314282 0.428876 0.115813
659 4 0.333206 0.435207 0.111951
658 2 0.352982 0.431738 0.0970494
1559 4 0.353261 0.481342 0.100748
1558 2 0.333263 0.496351 0.100873
524 4 0.370373 0.471246 0.103605
523 2 0.387834 0.48485 0.115232
16 1 0.0688363 0.0470798 0.16613
19 3 0.0637909 0.0697131 0.166958
17 3 0.0540829 0.0356749 0.179599
2480 4 0.039217 0.0327458 0.192729
1422 4 0.0334329 0.0145387 0.188334
2479 2 0.0190513 0.0474858 0.19385
20 3 0.0900626 0.0435722 0.1736
450 4 0.15189 0.0796214 0.187516
578 4 0.107633 0.051126 0.163833
674 4 0.166261 0.0200525 0.233395
673 2 0.143774 0.00961869 0.236658
577 2 0.12254 0.0699088 0.170917
579 4 0.137447 0.0886916 0.178
688 2 0.190942 0.00426687 0.199717
689 4 0.179068 0.0189031 0.216148
693 4 0.259797 0.0776574 0.24047
448 2 0.176497 0.08129 0.183409
652 2 0.286964 0.00213584 0.186644
653 4 0.30644 0.0134804 0.197469
25 3 0.321583 0.0520802 0.233854
758 4 0.370034 0.0633463 0.193555
759 4 0.34142 0.0622371 0.234552
757 2 0.355727 0.0627917 0.214053
511 2 0.0408803 0.151792 0.187674
513 4 0.0569985 0.170606 0.184295
512 4 0.024762 0.132978 0.191053
381 4 0.00933507 0.121884 0.197162
237 4 0.242275 0.133528 0.175446
449 4 0.201104 0.0829586 0.179301
235 2 0.230792 0.111646 0.179255
236 4 0.219309 0.0897643 0.183063
26 1 0.322016 0.155667 0.245685
28 3 0.328675 0.147108 0.225172
310 2 0.376281 0.0981697 0.179426
311 4 0.377034 0.0822964 0.19873
521 4 0.489366 0.146159 0.226202
332 4 0.485212 0.130052 0.234558
762 4 0.485132 0.143715 0.247183
760 2 0.461865 0.152834 0.24635
761 4 0.438599 0.161953 0.245517
337 2 0.0660832 0.235873 0.169231
393 4 0.0760155 0.165359 0.1891
394 2 0.0137143 0.24967 0.216163
391 2 0.0824375 0.176438 0.210576
392 4 0.0888595 0.187516 0.232052
279 4 0.245401 0.200709 0.18456
277 2 0.252801 0.221694 0.173156
27 3 0.318322 0.178263 0.243469
395 4 0.0346051 0.251199 0.202509
338 4 0.0615248 0.25485 0.18486
363 4 0.0486176 0.265188 0.196874
361 2 0.0631878 0.283955 0.204663
749 4 0.0657829 0.316927 0.220217
648 4 0.07831 0.320408 0.205781
362 4 0.077758 0.302723 0.212453
748 2 0.073146 0.326233 0.242225
370 2 0.116104 0.307039 0.211232
372 4 0.0929587 0.30687 0.201774
371 4 0.139249 0.307209 0.220689
734 4 0.148643 0.310061 0.239153
610 2 0.240813 0.309908 0.211477
612 4 0.235175 0.308004 0.187192
611 4 0.24645 0.311812 0.235763
344 4 0.247838 0.305496 0.256046
285 4 0.321746 0.268367 0.178644
283 2 0.299596 0.259379 0.171309
307 2 0.330466 0.288271 0.212161
308 4 0.323923 0.285993 0.188137
303 4 0.327335 0.302849 0.179409
729 4 0.317368 0.318111 0.184823
309 4 0.337009 0.290549 0.236186
764 4 0.340993 0.260582 0.176436
646 2 0.0720376 0.33602 0.187285
647 4 0.0657651 0.351632 0.16879
727 2 0.297925 0.330627 0.194337
728 4 0.278482 0.343142 0.203851
446 4 0.400166 0.398405 0.242547
645 4 0.487352 0.401814 0.18671
445 2 0.419999 0.386696 0.232813
447 4 0.439833 0.374988 0.223079
644 4 0.449885 0.393083 0.218659
643 2 0.468619 0.397449 0.202684
597 4 0.489058 0.394542 0.167623
414 4 0.225404 0.470086 0.222711
229 2 0.459233 0.485053 0.234646
231 4 0.472437 0.480315 0.255344
234 4 0.0152289 0.0464492 0.28093
232 2 0.0380163 0.0375423 0.286085
233 4 0.0608037 0.0286354 0.291241
1404 4 0.0770266 0.0192075 0.28772
317 4 0.0771731 0.029518 0.30348
428 4 0.0803888 0.010122 0.304428
2756 4 0.00535132 0.0606158 0.292531
316 2 0.0876994 0.0512835 0.309855
1402 2 0.0932258 0.00956346 0.271296
318 4 0.0982256 0.0730489 0.316231
730 2 0.132331 0.0851741 0.334436
731 4 0.153224 0.0821448 0.347833
399 4 0.0928842 0.0887364 0.325404
606 4 0.163049 0.0652942 0.343606
24 3 0.309102 0.0718786 0.263348
21 1 0.326396 0.0588082 0.255072
23 3 0.329572 0.0403097 0.268715
22 3 0.345712 0.0712977 0.254863
349 2 0.384121 0.0655967 0.260494
351 4 0.405695 0.0534969 0.256845
350 4 0.362547 0.0776964 0.264144
699 4 0.358835 0.0463147 0.334141
479 4 0.456068 0.0299422 0.29031
478 2 0.439264 0.0366464 0.273052
2664 4 0.474837 0.0284128 0.287924
480 4 0.42246 0.0433505 0.255793
1428 4 0.463382 0.018965 0.301158
258 4 0.451558 0.0337252 0.308156
2662 2 0.489505 0.0447274 0.299919
256 2 0.438405 0.0437419 0.326914
732 4 0.111438 0.0882033 0.321038
691 2 0.260198 0.0918853 0.261027
721 2 0.257488 0.124772 0.307223
722 4 0.241837 0.129048 0.326248
249 4 0.2422 0.12187 0.343898
692 4 0.260599 0.106113 0.281584
30 3 0.302768 0.145547 0.252448
723 4 0.273139 0.120497 0.288198
29 3 0.338695 0.152304 0.261462
632 4 0.364951 0.0937003 0.275505
631 2 0.358233 0.117666 0.273122
707 4 0.351612 0.155094 0.276684
633 4 0.351515 0.141632 0.270739
546 4 0.156317 0.176937 0.298652
544 2 0.167137 0.195366 0.285673
545 4 0.177958 0.213796 0.272694
402 4 0.194858 0.223957 0.273478
400 2 0.200161 0.24784 0.278641
706 2 0.35164 0.168686 0.29767
708 4 0.351669 0.182279 0.318656
418 2 0.405706 0.252187 0.332315
443 4 0.999535 0.256761 0.246679
442 2 0.0103366 0.257984 0.269196
444 4 0.0211378 0.259206 0.291713
733 2 0.169102 0.303798 0.252092
401 4 0.205464 0.271723 0.283805
676 2 0.181897 0.29575 0.302585
345 4 0.204256 0.285673 0.270479
677 4 0.191303 0.285973 0.281583
343 2 0.226047 0.295585 0.263262
735 4 0.18956 0.297535 0.265031
678 4 0.172492 0.305528 0.323588
378 4 0.246623 0.26455 0.306014
498 4 0.325799 0.282082 0.251321
376 2 0.271387 0.267326 0.30807
496 2 0.318303 0.280704 0.275135
497 4 0.310807 0.279325 0.298949
377 4 0.296151 0.270103 0.310127
541 2 0.384885 0.301216 0.300262
542 4 0.396563 0.279258 0.302834
543 4 0.373207 0.323175 0.297691
420 4 0.408085 0.266109 0.311682
615 4 0.358233 0.335036 0.303062
264 4 0.00662159 0.383928 0.257932
365 4 0.0163381 0.365036 0.304178
601 2 0.0389975 0.389699 0.327353
603 4 0.0214566 0.384133 0.310426
750 4 0.0805092 0.335538 0.264233
602 4 0.0565383 0.395265 0.34428
299 4 0.143824 0.327819 0.250073
298 2 0.12198 0.332797 0.261175
300 4 0.100136 0.337774 0.272277
510 4 0.21216 0.338287 0.31805
433 2 0.308171 0.38697 0.315943
435 4 0.284387 0.387806 0.308275
434 4 0.331955 0.386133 0.32361
614 4 0.351912 0.382334 0.318018
613 2 0.355072 0.358685 0.31054
2537 4 0.486171 0.322534 0.330909
500 4 0.0771042 0.490287 0.330132
777 4 0.0755482 0.490073 0.269845
1757 4 0.0552563 0.434295 0.272378
1756 2 0.052707 0.456942 0.262093
1775 4 0.0685843 0.488039 0.251025
1758 4 0.0501578 0.47959 0.251808
412 2 0.230766 0.477719 0.24591
1436 4 0.229534 0.478748 0.287275
413 4 0.236128 0.485351 0.269108
1435 2 0.243058 0.462714 0.300883
3 3 0.291425 0.47535 0.323048
1437 4 0.256582 0.44668 0.314492
436 2 0.330249 0.479932 0.336167
437 4 0.352326 0.491642 0.335365
119 3 0.497915 0.462636 0.319824
1742 4 0.428256 0.488008 0.331558
1780 2 0.129038 0.00486996 0.398635
604 2 0.185676 0.0644674 0.354211
605 4 0.208304 0.0636407 0.364817
248 4 0.218338 0.0795335 0.355686
441 4 0.323294 0.00891009 0.397616
1701 4 0.327058 0.0207742 0.382946
962 4 0.316646 0.0208882 0.410823
425 4 0.333934 0.0216385 0.401924
698 4 0.407388 0.0580304 0.336594
1699 2 0.335905 0.0266577 0.360312
1700 4 0.344752 0.0325413 0.337678
697 2 0.383111 0.0521725 0.335367
257 4 0.425253 0.0537585 0.345672
397 2 0.0730714 0.101301 0.334051
2584 2 0.018829 0.107089 0.350086
398 4 0.0532587 0.113865 0.342698
2586 4 0.0404572 0.116716 0.358131
458 4 0.0387438 0.134674 0.368541
457 2 0.0313529 0.142561 0.391087
600 4 0.144132 0.147306 0.399528
598 2 0.138159 0.168142 0.387063
247 2 0.230269 0.100702 0.349792
404 4 0.235133 0.139674 0.341914
683 4 0.24078 0.124493 0.376643
403 2 0.224724 0.162385 0.340899
682 2 0.263481 0.134884 0.378007
319 2 0.320882 0.160154 0.37511
684 4 0.286182 0.145275 0.37937
320 4 0.302833 0.149515 0.388756
717 4 0.423874 0.158342 0.339584
261 4 0.0616272 0.208566 0.41982
599 4 0.132186 0.188978 0.374599
389 4 0.122808 0.223106 0.367101
686 4 0.117763 0.196902 0.388363
685 2 0.0996191 0.204669 0.403713
275 4 0.132912 0.206341 0.364147
274 2 0.15457 0.210256 0.352281
388 2 0.120851 0.247694 0.371194
474 4 0.186897 0.230975 0.335855
276 4 0.176228 0.214172 0.340416
472 2 0.206805 0.21604 0.338269
405 4 0.214316 0.185097 0.339883
473 4 0.226712 0.201105 0.340683
419 4 0.403327 0.238265 0.352947
321 4 0.338932 0.170792 0.361465
467 4 0.397164 0.178992 0.398339
716 4 0.411856 0.170823 0.386493
466 2 0.405416 0.188899 0.419762
715 2 0.417865 0.164583 0.363038
269 4 0.412107 0.221855 0.359107
270 4 0.455426 0.214121 0.382863
452 4 0.473398 0.20461 0.383392
268 2 0.433767 0.217988 0.370985
451 2 0.473642 0.201723 0.408227
616 2 0.0907977 0.303848 0.375605
390 4 0.118895 0.272283 0.375288
617 4 0.111354 0.291051 0.36937
374 4 0.129716 0.285782 0.367402
373 2 0.149815 0.294317 0.355222
375 4 0.169915 0.302852 0.343041
618 4 0.0702417 0.316645 0.381839
347 4 0.0711798 0.330154 0.396724
549 4 0.075818 0.403576 0.345413
346 2 0.0506091 0.34345 0.3917
348 4 0.0300384 0.356746 0.386676
509 4 0.232433 0.345665 0.363164
508 2 0.222297 0.341976 0.340607
668 4 0.302519 0.392412 0.426668
334 2 0.330526 0.363249 0.407259
335 4 0.346649 0.347463 0.396488
240 4 0.367883 0.348041 0.39633
238 2 0.385966 0.364385 0.401904
239 4 0.404049 0.380729 0.407477
587 4 0.398367 0.400765 0.408954
752 4 0.469564 0.395809 0.375066
561 4 0.480928 0.398491 0.39193
751 2 0.483078 0.412729 0.362565
547 2 0.0834305 0.42452 0.356754
499 2 0.0788853 0.482254 0.353743
548 4 0.091043 0.445463 0.368095
2462 4 0.00556484 0.488373 0.329143
501 4 0.0806664 0.47422 0.377354
407 4 0.0854936 0.454961 0.384593
406 2 0.102415 0.461484 0.401806
1556 4 0.241052 0.501464 0.398875
1544 4 0.224014 0.499125 0.409835
4 3 0.269244 0.445341 0.330253
1555 2 0.262568 0.496385 0.410555
5 3 0.267317 0.476044 0.351962
1557 4 0.284085 0.491307 0.422235
1 1 0.281228 0.46282 0.339703
438 4 0.308171 0.468223 0.33697
2 3 0.297477 0.454112 0.353461
586 2 0.406125 0.418821 0.393495
593 4 0.399379 0.451002 0.379249
592 2 0.413727 0.461903 0.361915
588 4 0.413883 0.436876 0.378035
713 4 0.441136 0.486892 0.345971
712 2 0.463165 0.475519 0.342725
714 4 0.485194 0.464145 0.339478
753 4 0.496592 0.429648 0.350064
117 3 0.493754 0.452321 0.355726
594 4 0.428075 0.472804 0.344581
367 2 0.0797525 0.0236576 0.424455
369 4 0.0571033 0.0285988 0.433824
719 4 0.0412304 0.0310137 0.44571
718 2 0.0185946 0.0248975 0.454393
1781 4 0.121481 0.0220903 0.415114
368 4 0.102402 0.0187165 0.415086
341 4 0.168707 0.0384182 0.4986
961 2 0.304971 0.0376571 0.425233
963 4 0.293296 0.054426 0.439644
432 4 0.310133 0.0568647 0.45024
430 2 0.322278 0.0695091 0.468067
725 4 0.401396 0.0548845 0.408348
424 2 0.355973 0.0225937 0.413695
426 4 0.378012 0.0235489 0.425465
1216 2 0.426044 0.0548277 0.503967
724 2 0.413594 0.0718972 0.422021
1218 4 0.449571 0.0544073 0.495512
459 4 0.023962 0.150449 0.413633
431 4 0.334423 0.0821535 0.485894
843 4 0.353451 0.0819686 0.493267
726 4 0.425792 0.0889099 0.435694
642 4 0.501035 0.101457 0.434713
640 2 0.480253 0.103219 0.448505
641 4 0.459472 0.10498 0.462297
260 4 0.0344923 0.166574 0.418774
687 4 0.081475 0.212437 0.419064
259 2 0.0480598 0.18757 0.419297
1035 4 0.0697643 0.223144 0.429595
696 4 0.087972 0.24395 0.47927
1033 2 0.0849376 0.23149 0.447631
1034 4 0.100111 0.239836 0.465667
487 2 0.336398 0.244309 0.444057
468 4 0.413669 0.198806 0.441185
411 4 0.371917 0.245156 0.463314
409 2 0.389111 0.227192 0.460694
410 4 0.406304 0.209228 0.458073
266 4 0.362684 0.246757 0.480292
489 4 0.352495 0.244279 0.46319
574 2 0.398628 0.185733 0.493279
575 4 0.40514 0.19325 0.470339
516 4 0.419686 0.199275 0.458795
514 2 0.443591 0.204717 0.453886
515 4 0.467496 0.210159 0.448976
453 4 0.473885 0.198835 0.433062
2802 4 0.00912269 0.296761 0.440889
1258 2 0.111893 0.279533 0.471597
1259 4 0.124301 0.301206 0.472822
9 3 0.146714 0.301979 0.470192
1260 4 0.0994852 0.25786 0.470372
7 3 0.115685 0.320558 0.48042
6 1 0.138212 0.322692 0.476281
327 4 0.1004 0.328259 0.472754
858 4 0.214356 0.253881 0.499054
488 4 0.3203 0.244339 0.424925
1011 4 0.460082 0.333096 0.48299
326 4 0.0574661 0.347328 0.489895
325 2 0.0789329 0.337794 0.481325
10 3 0.141353 0.337649 0.459397
709 2 0.157214 0.417772 0.490172
711 4 0.140978 0.43493 0.481975
503 4 0.213022 0.349436 0.479652
502 2 0.197162 0.368502 0.482831
710 4 0.173449 0.400615 0.49837
504 4 0.181302 0.387569 0.486011
336 4 0.314403 0.379036 0.41803
560 4 0.495951 0.395127 0.439508
3309 4 0.488128 0.387372 0.45558
559 2 0.48844 0.396809 0.415719
3307 2 0.482089 0.366 0.467067
3308 4 0.47605 0.344628 0.478554
1381 2 0.0227247 0.483047 0.459952
384 4 0.121148 0.433621 0.476042
382 2 0.117011 0.447689 0.45579
408 4 0.119337 0.468007 0.419019
568 2 0.138853 0.49352 0.430112
383 4 0.112874 0.461757 0.435538
569 4 0.116714 0.482044 0.431937
1543 2 0.20155 0.499893 0.420787
636 4 0.300669 0.487194 0.430355
669 4 0.331675 0.432737 0.431618
634 2 0.313987 0.467052 0.436844
667 2 0.317097 0.412575 0.429143
635 4 0.327304 0.446909 0.443333
774 4 0.341227 0.433764 0.448487
773 4 0.387637 0.440319 0.465919
772 2 0.364432 0.437041 0.457203
661 2 0.499253 0.497045 0.46353
663 4 0.499611 0.473291 0.455733
2430 4 0.15105 0.0327557 0.506846
2428 2 0.139983 0.0109174 0.511926
1152 4 0.221306 0.0615497 0.524461
1150 2 0.228833 0.0774122 0.542263
1032 4 0.252428 0.0847992 0.566561
342 4 0.206717 0.0679366 0.512189
340 2 0.187712 0.0531774 0.505394
1030 2 0.271348 0.0707982 0.574997
949 2 0.292701 0.0191641 0.559524
951 4 0.288958 0.0387596 0.574597
1217 4 0.402517 0.055248 0.512422
842 4 0.383967 0.0544019 0.52172
841 2 0.368709 0.0681852 0.507493
3009 4 0.495556 0.0568932 0.562731
1058 4 0.100035 0.119324 0.514245
1057 2 0.0962706 0.121577 0.538861
1059 4 0.0925062 0.123829 0.563477
1154 4 0.151983 0.117907 0.591876
1151 4 0.23636 0.0932748 0.560065
1180 2 0.218638 0.130694 0.55044
1181 4 0.223686 0.106231 0.551542
1182 4 0.21359 0.155158 0.549337
900 4 0.227849 0.169421 0.549947
1198 2 0.00740542 0.232509 0.556105
1199 4 0.0279683 0.223846 0.567388
1244 4 0.0559486 0.244435 0.566171
878 4 0.0456601 0.230492 0.575834
877 2 0.0553159 0.208667 0.583293
879 4 0.0649717 0.186843 0.590751
695 4 0.0926012 0.227929 0.526414
694 2 0.0902866 0.23594 0.502842
898 2 0.246036 0.180351 0.536719
650 4 0.268715 0.20884 0.515635
899 4 0.264223 0.191281 0.523492
649 2 0.284611 0.224806 0.526479
651 4 0.300507 0.240773 0.537322
576 4 0.392117 0.178215 0.51622
267 4 0.359932 0.242474 0.530039
265 2 0.361308 0.244615 0.505165
948 4 0.161504 0.277171 0.582895
1136 4 0.146139 0.292296 0.585953
856 2 0.204313 0.259311 0.521299
857 4 0.194271 0.264741 0.543545
798 4 0.213039 0.274274 0.576264
947 4 0.204628 0.269888 0.558647
946 2 0.183066 0.27353 0.570771
2457 4 0.48256 0.284607 0.514108
1010 4 0.488044 0.303177 0.511689
1009 2 0.474063 0.318137 0.49734
8 3 0.148704 0.330203 0.495566
803 4 0.271351 0.369353 0.56251
804 4 0.28926 0.369192 0.51582
802 2 0.280305 0.369273 0.539165
928 2 0.347287 0.396211 0.569415
929 4 0.363656 0.395683 0.550521
881 4 0.358164 0.394797 0.532133
880 2 0.370064 0.374025 0.524916
882 4 0.381964 0.353253 0.517699
540 4 0.107747 0.467383 0.57315
2244 4 0.100178 0.483528 0.56956
1160 4 0.11301 0.484878 0.582725
538 2 0.0929564 0.447231 0.572562
2154 4 0.222425 0.486043 0.542692
1909 2 0.439047 0.489127 0.560592
1000 2 0.460588 0.434105 0.582591
1911 4 0.457838 0.47672 0.571461
1001 4 0.45745 0.458757 0.579831
1081 2 0.0629417 0.0769537 0.641657
1082 4 0.0702514 0.0757056 0.665535
938 4 0.0636752 0.0752623 0.599425
1083 4 0.0556319 0.0782017 0.617778
824 4 0.179116 0.999761 0.661689
1031 4 0.290269 0.0567973 0.583432
3007 2 0.490357 0.0449743 0.584087
3008 4 0.485159 0.0330554 0.605444
809 4 0.477017 0.0392197 0.621943
808 2 0.471135 0.0561311 0.639395
810 4 0.465253 0.0730425 0.656847
1127 4 0.0435256 0.0943905 0.616602
1126 2 0.0217474 0.0884005 0.605878
1270 2 0.0749113 0.151933 0.584038
1155 4 0.103534 0.119419 0.579581
1153 2 0.127758 0.118663 0.585728
1271 4 0.0925221 0.134727 0.579679
939 4 0.0847095 0.115943 0.579341
937 2 0.0741924 0.0956027 0.589383
1221 4 0.163326 0.131743 0.601775
1219 2 0.18499 0.136355 0.613376
1220 4 0.206654 0.140967 0.624977
1212 4 0.207164 0.160726 0.62953
1148 4 0.235534 0.0938387 0.670137
1194 4 0.306116 0.140308 0.663447
1192 2 0.321706 0.128634 0.647767
1193 4 0.337296 0.11696 0.632087
45 3 0.465354 0.0958934 0.655652
1272 4 0.0573004 0.169138 0.588398
1210 2 0.225713 0.173086 0.640859
1211 4 0.244263 0.185446 0.652187
886 2 0.276579 0.163172 0.661111
888 4 0.263693 0.181282 0.649659
1243 2 0.046567 0.262738 0.58039
1245 4 0.0371854 0.28104 0.594609
983 4 0.026265 0.29874 0.596364
1135 2 0.153861 0.315075 0.592782
822 4 0.144994 0.307563 0.643251
1064 4 0.158793 0.321582 0.644264
820 2 0.144235 0.28516 0.654329
796 2 0.235659 0.274356 0.586919
797 4 0.258278 0.274439 0.597574
792 4 0.286695 0.335987 0.581754
791 4 0.270891 0.289666 0.592013
790 2 0.278793 0.312827 0.586883
872 4 0.332188 0.293511 0.588734
871 2 0.356299 0.298357 0.593244
813 4 0.393664 0.317273 0.591558
873 4 0.380411 0.303202 0.597754
954 4 0.511575 0.2504 0.584258
3123 4 0.473407 0.271978 0.653354
1041 4 0.0590725 0.384635 0.640889
3264 4 0.0532524 0.380305 0.65912
3240 4 0.0385072 0.393613 0.659734
3238 2 0.0184233 0.408482 0.658874
1039 2 0.0772305 0.387828 0.623999
1137 4 0.161583 0.337855 0.599611
1040 4 0.0953885 0.391022 0.607109
993 4 0.109499 0.376177 0.608021
991 2 0.130348 0.362716 0.61107
992 4 0.151197 0.349255 0.61412
897 4 0.167361 0.354039 0.606205
1063 2 0.173967 0.336838 0.656997
1189 2 0.24166 0.377593 0.589466
896 4 0.206817 0.383395 0.597143
895 2 0.187089 0.368717 0.601674
1172 4 0.226705 0.408582 0.611087
1191 4 0.224431 0.391324 0.601288
1238 4 0.301009 0.334607 0.594165
1190 4 0.25889 0.363862 0.577643
1239 4 0.319187 0.381156 0.596036
1237 2 0.310098 0.357882 0.5951
930 4 0.330917 0.39674 0.588308
811 2 0.399695 0.338996 0.602371
1204 2 0.378768 0.384632 0.631826
1205 4 0.35986 0.375031 0.645074
1206 4 0.397675 0.394233 0.618578
927 4 0.409042 0.380405 0.6093
812 4 0.405727 0.360718 0.613185
1002 4 0.463726 0.409454 0.585351
926 4 0.445312 0.404296 0.584513
925 2 0.427177 0.392351 0.596906
539 4 0.0781661 0.42708 0.571973
3239 4 0.998339 0.423351 0.658013
1159 2 0.133553 0.477991 0.595205
1161 4 0.154095 0.471104 0.607685
1188 4 0.166478 0.485513 0.601447
1171 2 0.226385 0.432847 0.617109
1186 2 0.188337 0.475333 0.608057
1173 4 0.226065 0.457113 0.62313
1187 4 0.210197 0.465153 0.614668
1099 2 0.441023 0.489478 0.661398
1269 4 0.467365 0.47381 0.587538
1267 2 0.468502 0.485136 0.6098
1268 4 0.46964 0.496462 0.632062
945 4 0.0619469 0.00351479 0.688587
943 2 0.0695324 0.0271845 0.691304
944 4 0.0771179 0.0508543 0.694021
1076 4 0.0757823 0.0658281 0.682815
1075 2 0.0730095 0.0818996 0.701767
825 4 0.161852 0.0422095 0.681708
1283 4 0.146596 0.0550178 0.683838
1282 2 0.148666 0.0756399 0.697824
823 2 0.170484 0.0209852 0.671699
1147 2 0.245635 0.0715166 0.665149
1149 4 0.255736 0.0491944 0.660162
1092 4 0.311948 0.0177686 0.687054
1004 4 0.324604 0.058579 0.749043
42 3 0.45511 0.0665051 0.67625
1163 4 0.468261 0.07543 0.692815
1162 2 0.481784 0.0605404 0.707668
1164 4 0.495308 0.0456508 0.72252
864 4 0.0700226 0.0927943 0.739835
1077 4 0.0702368 0.0979712 0.72072
1107 4 0.0850034 0.102854 0.732085
851 4 0.0786714 0.115692 0.719019
862 2 0.0489745 0.0877511 0.752354
850 2 0.0707082 0.138567 0.712815
852 4 0.062745 0.161443 0.706611
1284 4 0.150736 0.096262 0.711811
1105 2 0.101987 0.109999 0.748987
909 4 0.168425 0.103896 0.71504
907 2 0.185534 0.119113 0.704994
908 4 0.202643 0.134329 0.694948
1227 4 0.22101 0.141541 0.692079
1225 2 0.235925 0.122772 0.684976
887 4 0.289465 0.145061 0.672562
1226 4 0.250839 0.104002 0.677873
829 2 0.309215 0.130481 0.709839
1005 4 0.327336 0.10116 0.722964
1003 2 0.32597 0.0798693 0.736004
830 4 0.294969 0.1408 0.69207
831 4 0.323461 0.120161 0.727608
3424 2 0.497885 0.11896 0.670207
3425 4 0.478978 0.103175 0.674514
41 1 0.456035 0.0894746 0.675416
43 3 0.434488 0.097916 0.67712
44 3 0.468956 0.0971096 0.693112
1113 4 0.441393 0.113639 0.733433
1073 4 0.0662092 0.232874 0.744774
1072 2 0.0895051 0.240228 0.739444
1130 4 0.130666 0.248212 0.740671
1074 4 0.112801 0.247581 0.734114
978 4 0.318678 0.201767 0.730965
976 2 0.300493 0.207358 0.747189
1025 4 0.409802 0.179027 0.684905
1024 2 0.427879 0.182903 0.701739
1142 4 0.439798 0.185934 0.737438
1144 2 0.474189 0.166734 0.738049
1262 4 0.461021 0.198937 0.717348
1026 4 0.445955 0.186779 0.718573
1261 2 0.459909 0.223914 0.71765
1145 4 0.457984 0.184055 0.73014
1263 4 0.458797 0.248891 0.717951
893 4 0.993446 0.317728 0.723522
1177 2 0.0162083 0.250368 0.712522
1179 4 0.0392573 0.260054 0.712205
892 2 0.0139997 0.331878 0.725108
1208 4 0.126992 0.242426 0.722923
1209 4 0.151922 0.262578 0.684542
1207 2 0.139457 0.252502 0.703732
821 4 0.143475 0.262758 0.665407
1019 4 0.339156 0.308545 0.696696
1018 2 0.357837 0.319748 0.684419
3262 2 0.0508774 0.35797 0.670105
3263 4 0.0485023 0.335635 0.681091
1279 2 0.0404678 0.380771 0.738599
1281 4 0.0314304 0.401997 0.748242
894 4 0.0345532 0.346028 0.726693
1280 4 0.0495052 0.359546 0.728956
816 4 0.064803 0.353672 0.742335
1065 4 0.189142 0.352095 0.669731
807 4 0.208773 0.353136 0.666276
1028 4 0.210205 0.394434 0.699343
1066 2 0.195763 0.370208 0.731713
1068 4 0.207656 0.37848 0.711334
1027 2 0.228822 0.401697 0.684314
805 2 0.231624 0.346122 0.673612
806 4 0.254474 0.339109 0.680949
1029 4 0.247438 0.408961 0.669286
1020 4 0.376517 0.33095 0.672143
1983 4 0.0489396 0.412362 0.748228
1981 2 0.0617453 0.433834 0.747868
1982 4 0.074551 0.455306 0.747508
2172 4 0.134179 0.479872 0.655099
2016 4 0.163546 0.486026 0.737169
1175 4 0.185057 0.434004 0.705354
1174 2 0.176412 0.456549 0.711848
1176 4 0.167768 0.479095 0.718342
1140 4 0.245773 0.427679 0.664645
1138 2 0.26175 0.44589 0.670832
1139 4 0.277727 0.464101 0.67702
1987 2 0.276263 0.461903 0.729253
1229 4 0.292867 0.467784 0.690623
1989 4 0.281605 0.471208 0.706668
2028 4 0.27958 0.478604 0.689211
1228 2 0.313223 0.453342 0.689116
1230 4 0.333578 0.4389 0.68761
1100 4 0.428381 0.479582 0.680566
2991 4 0.997426 0.0285122 0.774089
2989 2 0.00578425 0.0520589 0.77502
2990 4 0.0141428 0.0756056 0.775951
863 4 0.0279265 0.082708 0.764873
2049 4 0.111636 0.0234391 0.772652
1202 4 0.118285 0.0416934 0.775535
2047 2 0.12434 0.00224285 0.768845
1201 2 0.124846 0.0644476 0.783558
817 2 0.323765 0.0494183 0.816411
819 4 0.323553 0.0728907 0.825024
818 4 0.323977 0.025946 0.807798
1050 4 0.329397 0.00234177 0.781089
974 4 0.335264 0.0152398 0.794945
2322 4 0.468995 0.0546385 0.779186
845 4 0.465229 0.0735627 0.784384
1112 4 0.455397 0.080934 0.768575
844 2 0.469706 0.0772881 0.8087
2320 2 0.483285 0.0476093 0.75991
846 4 0.474184 0.0810135 0.833016
833 4 0.0189018 0.0942303 0.777122
832 2 0.0190295 0.110262 0.796309
1125 4 0.0372217 0.123199 0.824928
834 4 0.0191573 0.126294 0.815496
3083 4 0.00858214 0.0877484 0.762232
1203 4 0.131406 0.0872019 0.791582
1106 4 0.118971 0.117144 0.765889
911 4 0.135292 0.10308 0.824913
34 3 0.128549 0.108035 0.78142
31 1 0.140682 0.11029 0.80107
35 3 0.128842 0.122585 0.816146
32 3 0.144656 0.0893811 0.809798
33 3 0.161014 0.120578 0.796688
1255 2 0.242807 0.10783 0.797873
1256 4 0.222539 0.108282 0.812508
840 4 0.227637 0.117282 0.82906
1085 4 0.313341 0.0879423 0.820017
1257 4 0.263074 0.107377 0.783237
1084 2 0.296626 0.100322 0.806141
1086 4 0.279911 0.112702 0.792265
1023 4 0.397233 0.15551 0.833098
1021 2 0.381956 0.135724 0.832543
1022 4 0.366679 0.115938 0.831988
1052 4 0.413844 0.142557 0.840695
1111 2 0.448395 0.0972866 0.751004
1129 2 0.148772 0.251713 0.757556
1277 4 0.182758 0.245144 0.769076
1131 4 0.166878 0.255214 0.774441
1276 2 0.1949 0.255283 0.78844
977 4 0.282308 0.212949 0.763413
918 4 0.275567 0.230394 0.76681
1298 4 0.281396 0.216794 0.781698
1297 2 0.279225 0.203403 0.802702
1299 4 0.277054 0.190012 0.823705
47 3 0.401194 0.171327 0.820923
48 3 0.395972 0.169614 0.783742
46 1 0.399306 0.183877 0.801738
1043 4 0.399546 0.208653 0.798037
49 3 0.381214 0.19824 0.80392