ITEM: TIMESTEP
2270000
ITEM: NUMBER OF ATOMS
4590
ITEM: BOX BOUNDS pp pp pp
-9.9985700000000008e+00 9.9985700000000008e+00
-9.9985700000000008e+00 9.9985700000000008e+00
-9.9985700000000008e+00 9.9985700000000008e+00
ITEM: ATOMS id type xs ys zs
1666 2 0.0124192 0.0758506 0.0597569
1668 4 0.999521 0.0569618 0.0698575
2974 2 0.470824 0.0179604 0.00799116
745 2 0.447532 0.0755409 0.00993322
747 4 0.448938 0.0506788 0.00768096
1667 4 0.0253177 0.0947393 0.0496564
701 4 0.0358846 0.111066 0.0516487
700 2 0.0428752 0.129016 0.0675899
566 4 0.192947 0.155937 0.0442221
565 2 0.19738 0.157767 0.0196827
567 4 0.201812 0.159596 0.995143
297 4 0.336169 0.0995578 0.0222534
295 2 0.351598 0.105065 0.00336445
556 2 0.409123 0.11189 0.995923
558 4 0.433264 0.110418 0.00226215
746 4 0.446125 0.100403 0.0121855
555 4 0.0316212 0.235423 0.0122005
770 4 0.399144 0.19663 0.0172913
359 4 0.382688 0.186259 0.0166863
664 2 0.393439 0.217205 0.0468643
665 4 0.386496 0.198292 0.0320572
666 4 0.400382 0.236119 0.0616713
623 4 0.383571 0.240684 0.0715372
769 2 0.414311 0.179613 0.00701851
292 2 0.130021 0.291992 0.0490633
507 4 0.159919 0.315049 0.0596167
293 4 0.145047 0.311751 0.0520576
294 4 0.114996 0.272232 0.046069
287 4 0.162909 0.314417 0.0411046
552 4 0.146518 0.327603 0.0642471
573 4 0.254969 0.269766 0.0517137
286 2 0.177487 0.303237 0.024144
505 2 0.177104 0.307468 0.0761204
481 2 0.22248 0.27296 0.0713422
482 4 0.2397 0.259457 0.0592462
288 4 0.192064 0.292056 0.0071834
571 2 0.270824 0.262523 0.0337884
572 4 0.28668 0.25528 0.015863
357 4 0.292685 0.274519 0.0113956
323 4 0.395314 0.254843 0.0652672
1069 2 0.399747 0.327929 0.0327114
322 2 0.403041 0.276134 0.0546766
955 2 0.349709 0.325225 0.0118245
324 4 0.410768 0.297425 0.044086
1070 4 0.419621 0.31277 0.0333665
280 2 0.447357 0.316037 0.0582644
281 4 0.454313 0.316066 0.082281
282 4 0.440401 0.316007 0.0342479
550 2 0.130172 0.335129 0.0816068
455 4 0.152142 0.328332 0.0466755
454 2 0.154364 0.35072 0.0357653
456 4 0.156585 0.373108 0.0248552
1290 4 0.274319 0.388631 0.0300886
250 2 0.276895 0.407745 0.0614551
1288 2 0.28156 0.375984 0.00977108
251 4 0.27314 0.408871 0.0367607
1071 4 0.379873 0.343087 0.0320564
741 4 0.367963 0.344913 0.047396
739 2 0.367971 0.347274 0.0722879
957 4 0.362414 0.334087 0.0314513
1788 4 0.071959 0.478395 0.0239021
626 4 0.227808 0.480856 0.0689661
625 2 0.206857 0.493048 0.0628365
245 4 0.247808 0.476791 0.0718715
627 4 0.185906 0.505241 0.056707
244 2 0.252608 0.459379 0.0545815
246 4 0.257409 0.441967 0.0372914
272 4 0.271388 0.427291 0.0342116
271 2 0.279088 0.431723 0.0108395
1672 2 0.407122 0.438901 0.0649353
853 2 0.393615 0.43713 0.00560535
1674 4 0.414248 0.440844 0.0410474
854 4 0.407387 0.445672 0.0246457
563 4 0.473109 0.465086 0.0343462
562 2 0.448648 0.45998 0.033465
564 4 0.424187 0.454873 0.0325838
228 4 0.492211 0.469314 0.0328322
18 3 0.0688116 0.00890877 0.166984
19 3 0.0679223 0.0458276 0.158005
491 4 0.253729 0.080066 0.0809176
1474 2 0.278439 0.994927 0.0978035
1475 4 0.274417 0.0191593 0.102473
492 4 0.27653 0.0384042 0.096574
490 2 0.265129 0.0592351 0.0887458
1506 4 0.260303 0.00330325 0.168903
486 4 0.400338 0.0365165 0.0923474
484 2 0.419245 0.0413194 0.107989
485 4 0.438152 0.0461222 0.12363
2722 2 0.482682 0.066835 0.146866
2724 4 0.485199 0.0419954 0.145511
1759 2 0.493509 0.0101974 0.117504
2744 4 0.499073 0.0302278 0.151958
1760 4 0.4874 0.0254634 0.13634
702 4 0.0498659 0.146965 0.0835311
476 4 0.0677707 0.147605 0.0932856
475 2 0.0793295 0.158269 0.112724
737 4 0.217198 0.156421 0.108648
237 4 0.243794 0.0908973 0.164667
235 2 0.218871 0.0907236 0.162676
581 4 0.308123 0.0831313 0.147477
582 4 0.262156 0.0840657 0.167147
580 2 0.285139 0.0835985 0.157312
628 2 0.389343 0.154379 0.157072
2723 4 0.480164 0.0916745 0.148221
2833 2 0.00851915 0.242271 0.099364
2834 4 0.00845348 0.218919 0.108299
477 4 0.0908884 0.168933 0.132163
738 4 0.227257 0.205001 0.102364
736 2 0.222228 0.180711 0.105506
460 2 0.315184 0.238613 0.107449
461 4 0.292034 0.23924 0.0980234
354 4 0.273846 0.237137 0.106907
352 2 0.266713 0.241925 0.130388
353 4 0.25958 0.246712 0.153869
630 4 0.382972 0.176413 0.147116
254 4 0.365429 0.180789 0.13846
462 4 0.338335 0.237985 0.116875
255 4 0.349348 0.226884 0.127624
253 2 0.357389 0.203836 0.133042
765 4 0.351512 0.24558 0.130732
624 4 0.357019 0.238859 0.113873
622 2 0.370295 0.239771 0.0927053
2835 4 0.00858481 0.265624 0.0904293
339 4 0.0620663 0.248885 0.136092
337 2 0.0573244 0.253283 0.160245
657 4 0.993491 0.279847 0.0940619
483 4 0.205259 0.286462 0.0834382
506 4 0.194289 0.299886 0.0926242
537 4 0.202666 0.307439 0.110495
535 2 0.200006 0.298802 0.133808
536 4 0.197345 0.290165 0.157121
755 4 0.248726 0.262782 0.160355
387 4 0.306475 0.319146 0.112113
301 2 0.313186 0.303313 0.151138
302 4 0.314924 0.316114 0.129731
385 2 0.327288 0.331722 0.106298
763 2 0.343048 0.259431 0.14975
671 4 0.4433 0.318204 0.09805
527 4 0.46036 0.308202 0.0987896
670 2 0.42188 0.328372 0.105984
526 2 0.485266 0.310132 0.0977151
647 4 0.0536788 0.345416 0.158272
551 4 0.113827 0.342656 0.0989665
289 2 0.237661 0.392876 0.149728
416 4 0.200472 0.379075 0.163216
290 4 0.256838 0.407779 0.143786
291 4 0.218483 0.377973 0.155671
415 2 0.177151 0.387874 0.165184
252 4 0.280649 0.406619 0.0861496
609 4 0.278562 0.404125 0.105237
493 2 0.399767 0.394768 0.100319
495 4 0.400994 0.370243 0.105029
386 4 0.348102 0.344298 0.100483
12 3 0.388741 0.329074 0.13094
15 3 0.356773 0.341568 0.116283
740 4 0.367979 0.349635 0.0971797
672 4 0.400459 0.33854 0.113917
14 3 0.3896 0.355635 0.104362
11 1 0.377814 0.347533 0.122633
13 3 0.376786 0.363733 0.139214
595 2 0.459403 0.419646 0.160259
596 4 0.463468 0.421513 0.135659
1791 4 0.0407677 0.49651 0.129863
1466 4 0.0430462 0.476524 0.124985
1465 2 0.0563348 0.455607 0.128316
1467 4 0.0696235 0.434691 0.131647
637 2 0.228343 0.499885 0.122002
638 4 0.251292 0.490892 0.1262
766 2 0.256877 0.448214 0.140265
768 4 0.264482 0.425352 0.14695
607 2 0.301353 0.413019 0.110397
767 4 0.249271 0.471075 0.13358
608 4 0.324144 0.421913 0.115557
494 4 0.39854 0.419293 0.0956081
660 4 0.38336 0.43337 0.0973518
1673 4 0.399997 0.436957 0.0888232
659 4 0.33375 0.427321 0.0990697
658 2 0.358555 0.430345 0.0982108
1559 4 0.370864 0.499462 0.124211
524 4 0.389443 0.492251 0.127974
523 2 0.391086 0.471874 0.113577
525 4 0.392728 0.451498 0.0991796
1558 2 0.346065 0.502633 0.124519
16 1 0.0651101 0.0303452 0.175057
17 3 0.0435173 0.0317246 0.182867
2480 4 0.0240196 0.02924 0.18436
2479 2 0.0122267 0.0508829 0.188566
20 3 0.0795479 0.034835 0.192088
578 4 0.0829798 0.0494553 0.17502
1422 4 0.0195722 0.0143321 0.196495
577 2 0.100183 0.0671993 0.178812
689 4 0.192569 0.00948785 0.230368
652 2 0.292702 0.0240151 0.1862
653 4 0.315769 0.0311348 0.19271
25 3 0.328179 0.0490826 0.240362
654 4 0.269635 0.0168954 0.179689
758 4 0.355869 0.0618022 0.188749
759 4 0.34878 0.0593673 0.238191
757 2 0.352324 0.0605847 0.21347
311 4 0.36854 0.0764923 0.18968
350 4 0.365898 0.0685629 0.246011
744 4 0.51727 0.0165944 0.217295
380 4 0.00615023 0.0896807 0.202114
379 2 0.0100858 0.109763 0.187747
511 2 0.042877 0.156153 0.193262
512 4 0.0286037 0.136952 0.185996
381 4 0.0140213 0.129845 0.17338
579 4 0.117386 0.0849433 0.182604
448 2 0.15584 0.097539 0.176032
450 4 0.130879 0.098273 0.177278
449 4 0.180802 0.096805 0.174787
236 4 0.193947 0.0905499 0.160686
28 3 0.311107 0.144215 0.226478
312 4 0.393987 0.112224 0.165672
629 4 0.395714 0.132346 0.167027
310 2 0.381263 0.0943583 0.177676
521 4 0.482613 0.131983 0.220617
332 4 0.48832 0.117455 0.23191
762 4 0.476355 0.129345 0.240389
760 2 0.451443 0.131492 0.240346
761 4 0.426532 0.13364 0.240304
331 2 0.502545 0.0983036 0.239397
513 4 0.0571504 0.175353 0.200528
393 4 0.0705868 0.191797 0.198747
391 2 0.0939941 0.200313 0.200926
392 4 0.117401 0.208829 0.203106
279 4 0.240334 0.204503 0.18815
277 2 0.247779 0.22689 0.179869
278 4 0.255224 0.249277 0.171587
284 4 0.273351 0.244722 0.171029
394 2 0.0155824 0.257316 0.228271
395 4 0.0345801 0.258647 0.21207
338 4 0.0525825 0.25768 0.184398
363 4 0.0526091 0.262501 0.204267
361 2 0.0588348 0.286531 0.20726
749 4 0.0518203 0.324032 0.217802
648 4 0.0645609 0.329017 0.204243
362 4 0.0650605 0.310562 0.210253
748 2 0.0613523 0.335806 0.237694
372 4 0.0808314 0.317472 0.201458
646 2 0.0591198 0.337216 0.181258
370 2 0.105385 0.317298 0.206178
371 4 0.129938 0.317125 0.210898
734 4 0.136071 0.320988 0.227931
733 2 0.154707 0.310682 0.241032
754 2 0.247233 0.287262 0.165222
756 4 0.245739 0.311742 0.170088
611 4 0.243209 0.329835 0.234278
610 2 0.241252 0.326245 0.209611
612 4 0.239296 0.322656 0.184944
344 4 0.233265 0.314312 0.24177
283 2 0.294504 0.257901 0.173038
285 4 0.315657 0.27108 0.175047
308 4 0.327573 0.285291 0.180719
303 4 0.311448 0.290512 0.172546
729 4 0.316354 0.304868 0.186931
727 2 0.310572 0.326283 0.198469
764 4 0.334583 0.273282 0.168768
307 2 0.335665 0.279585 0.203678
309 4 0.343757 0.27388 0.226638
498 4 0.334419 0.278277 0.244047
417 4 0.15383 0.396673 0.167151
299 4 0.133981 0.33366 0.24586
728 4 0.304789 0.347699 0.210007
446 4 0.383559 0.366116 0.251651
445 2 0.407199 0.36904 0.244051
447 4 0.43084 0.371963 0.236451
644 4 0.439647 0.365444 0.218484
643 2 0.451275 0.385751 0.209676
597 4 0.455337 0.417779 0.184859
645 4 0.462904 0.406058 0.200868
1758 4 0.0543777 0.4857 0.243634
414 4 0.213267 0.478351 0.209628
412 2 0.223596 0.468625 0.230216
413 4 0.233926 0.458899 0.250805
229 2 0.452599 0.480422 0.231704
231 4 0.462816 0.459918 0.221686
427 2 0.0823313 0.0119555 0.321826
2755 2 0.0166724 0.0642908 0.315035
234 4 0.0197741 0.0351873 0.281613
232 2 0.0440935 0.0303408 0.27841
233 4 0.0684128 0.0254943 0.275207
1404 4 0.0858257 0.0217293 0.282082
317 4 0.077105 0.0381375 0.287735
2756 4 0.0153447 0.0475373 0.296522
2478 4 0.00806229 0.0510976 0.279956
428 4 0.0857665 0.025451 0.301059
316 2 0.0900031 0.0592603 0.29129
1402 2 0.101604 0.00830974 0.268077
693 4 0.240011 0.0484823 0.267258
691 2 0.255766 0.0674012 0.271621
24 3 0.320816 0.0635127 0.274351
21 1 0.336637 0.0528111 0.261176
23 3 0.342778 0.032682 0.270949
22 3 0.355235 0.0662441 0.259502
349 2 0.390574 0.0651652 0.248192
351 4 0.415249 0.0617675 0.250373
480 4 0.432774 0.0503105 0.251124
479 4 0.452189 0.0298883 0.292436
478 2 0.442481 0.0400994 0.27178
2664 4 0.470544 0.0277698 0.283937
1428 4 0.460386 0.0149662 0.294668
258 4 0.454558 0.0263877 0.310998
2662 2 0.494029 0.0338062 0.290035
256 2 0.443496 0.0411256 0.327898
318 4 0.102901 0.0803832 0.294846
730 2 0.135009 0.0845801 0.317962
731 4 0.159443 0.0847278 0.323269
732 4 0.110576 0.0844324 0.312655
397 2 0.080097 0.101155 0.326829
399 4 0.0931201 0.0909778 0.308067
26 1 0.317467 0.154791 0.246128
721 2 0.272602 0.106295 0.308659
692 4 0.271521 0.08632 0.275984
30 3 0.299782 0.155896 0.260434
723 4 0.281566 0.100313 0.286097
29 3 0.334964 0.14322 0.256047
632 4 0.361914 0.0832465 0.251545
631 2 0.353885 0.106344 0.256763
707 4 0.346008 0.14045 0.273816
633 4 0.345855 0.129441 0.261982
706 2 0.35818 0.155803 0.28935
443 4 0.999386 0.256415 0.264706
546 4 0.134583 0.192371 0.268828
544 2 0.156794 0.203726 0.270526
545 4 0.179006 0.215081 0.272223
402 4 0.193019 0.228764 0.266217
473 4 0.225847 0.189985 0.337991
405 4 0.230762 0.170204 0.336873
27 3 0.324528 0.176111 0.241149
708 4 0.370352 0.171156 0.304884
442 2 0.0147647 0.252705 0.284069
444 4 0.0301431 0.248995 0.303432
343 2 0.212209 0.305514 0.251988
400 2 0.190983 0.253648 0.26756
401 4 0.188947 0.278533 0.268904
676 2 0.175947 0.300918 0.295033
345 4 0.191153 0.296715 0.262206
677 4 0.175472 0.292162 0.271617
735 4 0.173344 0.300376 0.254133
678 4 0.176423 0.309674 0.318448
510 4 0.184428 0.32626 0.32134
378 4 0.249557 0.261491 0.312581
376 2 0.268465 0.275058 0.303437
496 2 0.318612 0.2831 0.26281
497 4 0.302804 0.287922 0.281573
377 4 0.287373 0.288624 0.294293
541 2 0.362657 0.291586 0.296452
542 4 0.38124 0.27757 0.305585
420 4 0.399198 0.285487 0.311344
543 4 0.344075 0.305602 0.287318
615 4 0.348688 0.318581 0.302295
418 2 0.408822 0.267866 0.326246
365 4 0.0174043 0.394519 0.300367
601 2 0.0516429 0.406987 0.324956
603 4 0.0334468 0.399437 0.309559
750 4 0.0708843 0.34758 0.257587
298 2 0.112388 0.341708 0.255561
300 4 0.0907937 0.349757 0.265262
508 2 0.194089 0.34877 0.316328
509 4 0.20375 0.371281 0.311315
433 2 0.306072 0.381433 0.329882
434 4 0.323437 0.374555 0.313259
614 4 0.334221 0.366316 0.298712
613 2 0.341455 0.342449 0.300503
1757 4 0.0375898 0.441537 0.260022
1756 2 0.0459837 0.463618 0.251828
264 4 0.0201898 0.431565 0.261406
776 4 0.0645379 0.503347 0.323248
775 2 0.065235 0.499488 0.298554
1775 4 0.0685849 0.495553 0.254432
602 4 0.069839 0.414536 0.340354
777 4 0.065932 0.495629 0.27386
1436 4 0.233526 0.445781 0.266836
1435 2 0.247746 0.455142 0.285147
1437 4 0.261967 0.464502 0.303459
4 3 0.268689 0.452647 0.319577
3 3 0.297247 0.477552 0.322502
1 1 0.282362 0.464235 0.334313
1801 2 0.375941 0.479683 0.309721
1802 4 0.368778 0.459303 0.322311
119 3 0.496463 0.463915 0.321142
2757 4 0.0180001 0.0810443 0.333548
2585 4 0.00990523 0.0878887 0.350205
429 4 0.0788961 0.99846 0.342592
606 4 0.162195 0.0674736 0.3317
1781 4 0.106732 0.0174997 0.404547
604 2 0.185492 0.0639119 0.340052
605 4 0.208789 0.0603503 0.348403
248 4 0.215598 0.0781284 0.355903
962 4 0.337257 0.0136751 0.415564
441 4 0.331562 0.00474673 0.399878
1701 4 0.339298 0.00893867 0.383484
425 4 0.34799 0.00286192 0.401837
699 4 0.368927 0.0472545 0.351454
698 4 0.415938 0.0531328 0.33545
1699 2 0.344953 0.025954 0.366058
1700 4 0.350608 0.0429694 0.348632
697 2 0.392433 0.0501937 0.343452
725 4 0.384102 0.0675734 0.388272
424 2 0.370006 0.00225904 0.413673
257 4 0.432435 0.0558635 0.344798
398 4 0.0670739 0.111332 0.345591
2584 2 0.0316477 0.0991805 0.355199
2586 4 0.0533902 0.110472 0.360193
458 4 0.0579436 0.128908 0.366383
457 2 0.0519276 0.142597 0.386423
459 4 0.0459115 0.156286 0.406463
600 4 0.119998 0.143139 0.347502
598 2 0.120963 0.165325 0.358992
249 4 0.252335 0.110681 0.34634
247 2 0.233966 0.0944045 0.351122
404 4 0.254893 0.12656 0.340564
403 2 0.242828 0.148382 0.338718
722 4 0.263639 0.112278 0.331221
683 4 0.260014 0.122306 0.359701
682 2 0.282358 0.123156 0.370892
684 4 0.304701 0.124006 0.382082
320 4 0.309881 0.143079 0.377922
319 2 0.331306 0.155485 0.374428
724 2 0.390149 0.0870149 0.402785
321 4 0.352732 0.167892 0.370935
717 4 0.399836 0.152147 0.341225
261 4 0.0629978 0.210991 0.412298
260 4 0.0383307 0.168463 0.421442
259 2 0.0506643 0.189727 0.41687
687 4 0.0795304 0.199526 0.410535
599 4 0.121928 0.187511 0.370483
389 4 0.122485 0.220038 0.368209
686 4 0.118562 0.205503 0.37985
685 2 0.099046 0.202515 0.395193
275 4 0.133611 0.202577 0.372335
274 2 0.15858 0.202418 0.373645
388 2 0.123889 0.244999 0.368611
474 4 0.194114 0.216163 0.366425
472 2 0.209981 0.203074 0.352208
276 4 0.183548 0.202259 0.374956
715 2 0.391698 0.16548 0.360749
716 4 0.383559 0.178812 0.380272
467 4 0.388638 0.180068 0.399444
269 4 0.415327 0.232467 0.349146
419 4 0.418445 0.250245 0.341148
270 4 0.450357 0.220639 0.382817
452 4 0.470425 0.218423 0.385585
268 2 0.432842 0.226553 0.365982
451 2 0.471208 0.218854 0.410572
346 2 0.0419465 0.324936 0.386989
347 4 0.0666358 0.32099 0.387211
618 4 0.0836717 0.311128 0.390943
616 2 0.0987181 0.297823 0.376051
390 4 0.125293 0.26996 0.369012
617 4 0.113764 0.284518 0.36116
374 4 0.131772 0.282099 0.355615
373 2 0.152323 0.292232 0.345607
375 4 0.172874 0.302365 0.335599
348 4 0.0172573 0.328882 0.386767
549 4 0.0775402 0.403065 0.354659
435 4 0.288708 0.388311 0.346506
334 2 0.324145 0.365114 0.411374
668 4 0.294856 0.393953 0.416951
336 4 0.301042 0.374276 0.414108
238 2 0.37393 0.384743 0.39172
239 4 0.391554 0.395983 0.378
587 4 0.407029 0.406528 0.383571
335 4 0.347249 0.355953 0.408639
240 4 0.356306 0.373504 0.405441
752 4 0.490453 0.393891 0.385911
561 4 0.475989 0.380655 0.387322
751 2 0.494509 0.413218 0.370575
559 2 0.489906 0.374623 0.407199
548 4 0.0881234 0.439308 0.387449
407 4 0.0831503 0.458788 0.393917
500 4 0.0757186 0.498803 0.339646
499 2 0.075725 0.486689 0.36152
501 4 0.0757314 0.474576 0.383394
547 2 0.0828318 0.421187 0.371054
1544 4 0.221426 0.503591 0.404659
1556 4 0.240129 0.4975 0.41156
436 2 0.333758 0.456104 0.335897
438 4 0.309698 0.462806 0.337071
5 3 0.269692 0.477137 0.348159
2 3 0.294283 0.449091 0.346871
1557 4 0.28957 0.497437 0.404058
1555 2 0.264849 0.497468 0.407809
437 4 0.357818 0.449402 0.334723
586 2 0.4063 0.431149 0.387864
593 4 0.40206 0.471859 0.3809
588 4 0.405571 0.455771 0.392157
712 2 0.466117 0.484735 0.336419
714 4 0.486884 0.470859 0.337578
713 4 0.445349 0.498611 0.33526
592 2 0.417108 0.482734 0.364153
753 4 0.498564 0.432544 0.355239
117 3 0.488002 0.453273 0.356182
1772 4 0.00161786 0.010131 0.450696
720 4 0.00963409 0.0240716 0.461888
367 2 0.0838314 0.0298482 0.441992
369 4 0.0693154 0.0329944 0.462106
719 4 0.0558174 0.0375989 0.475483
718 2 0.0327257 0.0308352 0.468686
368 4 0.0983473 0.026702 0.421878
961 2 0.322587 0.0292555 0.428495
963 4 0.307917 0.044836 0.441427
432 4 0.302321 0.0618145 0.450915
430 2 0.314211 0.0735781 0.469501
431 4 0.3261 0.0853417 0.488087
726 4 0.396196 0.106456 0.417299
640 2 0.485824 0.0965328 0.439309
641 4 0.465511 0.102312 0.452693
1035 4 0.0789327 0.214712 0.421528
1033 2 0.0823809 0.227076 0.442985
1034 4 0.0858291 0.239441 0.464442
696 4 0.0823433 0.247163 0.483153
487 2 0.335435 0.240768 0.445487
466 2 0.393189 0.185358 0.423455
468 4 0.39774 0.190647 0.447465
411 4 0.358689 0.225946 0.473376
409 2 0.378566 0.211297 0.469439
410 4 0.398442 0.196648 0.465502
266 4 0.350412 0.238215 0.485994
489 4 0.341935 0.235742 0.469101
575 4 0.413351 0.187575 0.47658
516 4 0.414086 0.194488 0.459374
574 2 0.416598 0.187158 0.501368
514 2 0.43456 0.207657 0.453668
515 4 0.455034 0.220826 0.447963
453 4 0.47199 0.219284 0.43556
2802 4 0.0055188 0.29739 0.432431
1260 4 0.0901908 0.257245 0.469318
1258 2 0.102973 0.278702 0.470501
1259 4 0.115755 0.300159 0.471684
9 3 0.137389 0.299763 0.458843
7 3 0.116967 0.312984 0.487493
6 1 0.132399 0.31863 0.471395
8 3 0.151574 0.326507 0.48182
327 4 0.107699 0.32374 0.468632
488 4 0.328934 0.245795 0.421872
265 2 0.356765 0.261166 0.493616
1009 2 0.468021 0.310802 0.497182
1011 4 0.473579 0.33497 0.493989
1010 4 0.462463 0.286634 0.500376
326 4 0.061056 0.341119 0.463822
10 3 0.123652 0.334808 0.457965
325 2 0.0843775 0.332429 0.466227
709 2 0.147241 0.407808 0.497619
711 4 0.126719 0.402847 0.484224
667 2 0.302448 0.415006 0.428101
3309 4 0.488074 0.365085 0.437466
3307 2 0.481709 0.349341 0.455818
3308 4 0.475345 0.333597 0.47417
1381 2 0.0194072 0.492218 0.457337
1383 4 0.0115727 0.469289 0.451171
680 4 0.0116697 0.448877 0.449861
406 2 0.0993904 0.461739 0.412698
384 4 0.129907 0.417423 0.471508
382 2 0.124724 0.439412 0.460792
408 4 0.115631 0.464689 0.431479
568 2 0.148446 0.489906 0.438385
383 4 0.119542 0.461401 0.450077
569 4 0.132369 0.470779 0.437462
1543 2 0.20161 0.50292 0.419892
774 4 0.328893 0.436867 0.43924
636 4 0.294732 0.495749 0.424125
669 4 0.310041 0.436058 0.439252
634 2 0.3061 0.474741 0.431517
635 4 0.317468 0.453734 0.438909
773 4 0.368369 0.427095 0.468341
772 2 0.348631 0.431981 0.453791
663 4 0.486982 0.489649 0.430619
1152 4 0.20489 0.0541695 0.542099
342 4 0.196402 0.0498943 0.524727
340 2 0.186941 0.0272127 0.520122
1150 2 0.218404 0.0747272 0.546564
341 4 0.17748 0.00453114 0.515516
949 2 0.299343 0.0361132 0.572113
951 4 0.307772 0.0596501 0.572511
1031 4 0.293352 0.0714095 0.565951
1217 4 0.397839 0.0479921 0.513755
842 4 0.378489 0.0507357 0.508711
841 2 0.359733 0.0669703 0.505573
843 4 0.340978 0.083205 0.502434
1216 2 0.421941 0.0527026 0.509053
1218 4 0.446042 0.0574131 0.504352
3007 2 0.502545 0.0561497 0.582436
1270 2 0.0736924 0.14614 0.580926
1271 4 0.08525 0.12626 0.571108
1058 4 0.0935777 0.120152 0.50515
1057 2 0.0900066 0.118549 0.529846
1059 4 0.0864356 0.116946 0.554541
1155 4 0.10324 0.123812 0.560793
939 4 0.095406 0.110457 0.571306
1153 2 0.125937 0.128651 0.570098
1221 4 0.143005 0.150573 0.584733
1154 4 0.148635 0.13349 0.579402
1151 4 0.231918 0.0952848 0.551029
1180 2 0.228272 0.130667 0.559167
1181 4 0.221315 0.106818 0.56199
1182 4 0.23523 0.154517 0.556345
1032 4 0.252007 0.0976356 0.555777
1030 2 0.272679 0.0845226 0.560864
1198 2 0.00639648 0.240719 0.560311
1199 4 0.023118 0.23686 0.578496
878 4 0.0413604 0.229618 0.579249
877 2 0.0500743 0.206183 0.579282
695 4 0.083131 0.237408 0.532193
694 2 0.0827371 0.242285 0.507673
900 4 0.22565 0.172591 0.559258
898 2 0.235839 0.18453 0.539795
899 4 0.246028 0.19647 0.520332
650 4 0.264481 0.206457 0.520485
649 2 0.257022 0.230092 0.517183
576 4 0.419846 0.186742 0.526156
982 2 0.0069119 0.296983 0.587908
856 2 0.217138 0.268106 0.53007
857 4 0.196031 0.267582 0.543464
798 4 0.204835 0.276187 0.5706
947 4 0.190125 0.271145 0.560771
946 2 0.172237 0.283588 0.573035
858 4 0.238245 0.268631 0.516675
651 4 0.249563 0.253728 0.513882
267 4 0.363118 0.284116 0.501237
954 4 0.480713 0.270872 0.575279
2457 4 0.483003 0.279151 0.502612
2455 2 0.497434 0.259088 0.498814
502 2 0.195924 0.380314 0.505704
504 4 0.182916 0.401499 0.503031
503 4 0.208933 0.359129 0.508376
710 4 0.167763 0.412768 0.511014
803 4 0.269227 0.351067 0.567546
804 4 0.275101 0.367596 0.520717
802 2 0.272164 0.359332 0.544131
930 4 0.321175 0.383082 0.568375
928 2 0.345226 0.38412 0.561617
929 4 0.369277 0.385158 0.55486
881 4 0.363525 0.369123 0.542257
880 2 0.374399 0.348337 0.533603
882 4 0.385274 0.327551 0.52495
1002 4 0.448173 0.414372 0.589207
539 4 0.115942 0.434784 0.548436
540 4 0.106293 0.473086 0.579104
2244 4 0.103265 0.493125 0.576996
538 2 0.111117 0.453935 0.56377
2154 4 0.243058 0.499011 0.551651
2152 2 0.258767 0.500637 0.571035
2153 4 0.274477 0.502262 0.590419
1909 2 0.439752 0.491386 0.566347
1910 4 0.423058 0.504726 0.553365
1081 2 0.0751732 0.0723251 0.640091
1083 4 0.0747132 0.0682831 0.615421
1126 2 0.0359064 0.0810412 0.595517
1127 4 0.0583979 0.0766825 0.605533
938 4 0.0873626 0.0702049 0.599868
824 4 0.204538 0.00529778 0.673253
950 4 0.290915 0.0125762 0.571715
3008 4 0.499556 0.050134 0.60652
809 4 0.480859 0.0462927 0.611371
808 2 0.471968 0.0565205 0.632384
810 4 0.463078 0.0667483 0.653396
1128 4 0.0134148 0.0854 0.585502
1272 4 0.0621347 0.16602 0.590743
3477 4 0.00311005 0.0900151 0.600965
937 2 0.0913843 0.0903307 0.585587
1219 2 0.160172 0.156688 0.601852
1192 2 0.322337 0.15191 0.642806
886 2 0.26841 0.158301 0.657193
1194 4 0.308087 0.144453 0.66195
887 4 0.290176 0.149682 0.665978
1193 4 0.336587 0.159367 0.623661
45 3 0.456511 0.0870805 0.654791
3424 2 0.487399 0.11119 0.67086
1244 4 0.0559212 0.243216 0.582985
879 4 0.0587882 0.182747 0.579315
1220 4 0.17734 0.162802 0.618972
1212 4 0.188572 0.178453 0.626285
1210 2 0.208307 0.173741 0.640897
1211 4 0.228042 0.169029 0.655509
888 4 0.246645 0.166919 0.648408
983 4 0.0272424 0.28794 0.599313
1245 4 0.0473847 0.288328 0.602803
1243 2 0.051653 0.265772 0.592894
948 4 0.15435 0.296031 0.585299
1135 2 0.167605 0.327497 0.605499
822 4 0.141725 0.324996 0.658704
820 2 0.143061 0.301371 0.666783
1136 4 0.163973 0.302881 0.603041
796 2 0.224946 0.272914 0.585093
797 4 0.245056 0.269641 0.599585
791 4 0.263109 0.278468 0.594161
790 2 0.2717 0.301921 0.59302
792 4 0.280292 0.325375 0.591879
872 4 0.327178 0.279849 0.583455
871 2 0.345155 0.291456 0.596389
813 4 0.378734 0.309891 0.598268
873 4 0.363131 0.303063 0.609323
3123 4 0.486759 0.258939 0.649114
952 2 0.496388 0.284042 0.589632
1041 4 0.0442446 0.377403 0.622623
3264 4 0.0378703 0.367926 0.637204
3240 4 0.0394677 0.386164 0.641282
3238 2 0.0186911 0.39722 0.649725
1039 2 0.0665248 0.379034 0.611392
3262 2 0.0460265 0.349606 0.652139
1064 4 0.1609 0.324844 0.663133
1137 4 0.171236 0.352113 0.607957
1040 4 0.0888049 0.380664 0.600162
993 4 0.107181 0.377146 0.603734
991 2 0.130855 0.369445 0.606054
992 4 0.15453 0.361745 0.608374
897 4 0.167938 0.36786 0.620273
1189 2 0.246454 0.365138 0.599407
896 4 0.213345 0.386469 0.610651
895 2 0.190642 0.377164 0.615462
1172 4 0.239383 0.397013 0.604629
1191 4 0.231369 0.381118 0.611335
1063 2 0.176227 0.344568 0.662025
1238 4 0.298698 0.33103 0.598601
1190 4 0.26154 0.349159 0.58748
1239 4 0.318815 0.375157 0.586401
1237 2 0.308757 0.353094 0.592501
806 4 0.25955 0.359326 0.680928
811 2 0.386607 0.333532 0.596184
1204 2 0.380688 0.377574 0.640291
1205 4 0.37522 0.378665 0.664665
1206 4 0.386157 0.376482 0.615918
927 4 0.394598 0.377947 0.597298
812 4 0.394479 0.357172 0.594101
925 2 0.411902 0.394241 0.589534
926 4 0.429206 0.410535 0.58177
1160 4 0.115583 0.485753 0.590093
1159 2 0.140398 0.488469 0.591499
1161 4 0.165214 0.491185 0.592905
1188 4 0.172041 0.471961 0.593956
1171 2 0.22844 0.419494 0.604853
1186 2 0.190216 0.461813 0.607809
1173 4 0.217498 0.441975 0.605076
1187 4 0.20839 0.451666 0.621662
2172 4 0.176391 0.479922 0.655914
1140 4 0.250395 0.43106 0.671962
1911 4 0.456447 0.478046 0.579328
1001 4 0.448378 0.464198 0.593459
1000 2 0.448275 0.439285 0.591333
1269 4 0.457681 0.479928 0.597371
1267 2 0.459583 0.490357 0.620016
1082 4 0.0756332 0.0763671 0.664762
943 2 0.0585356 0.0247338 0.68301
1076 4 0.0797898 0.0647986 0.681217
1075 2 0.0781098 0.0812401 0.69998
945 4 0.0469495 0.00259872 0.683998
4520 4 0.0274369 0.996937 0.688612
944 4 0.0701217 0.0468689 0.682021
1283 4 0.172475 0.0576004 0.686187
825 4 0.182741 0.0435503 0.696967
1149 4 0.219078 0.0496059 0.718893
823 2 0.19364 0.024424 0.68511
1147 2 0.234614 0.0624934 0.704137
1282 2 0.169424 0.0805952 0.69552
1148 4 0.25015 0.0753809 0.689382
1092 4 0.317142 0.00206934 0.67075
41 1 0.451277 0.0758179 0.673881
43 3 0.428869 0.0789495 0.679029
42 3 0.455112 0.0533579 0.67072
1163 4 0.465533 0.0607267 0.690658
1162 2 0.480996 0.046452 0.70416
2321 4 0.495508 0.0303859 0.737126
44 3 0.464547 0.0833039 0.691381
1164 4 0.496459 0.0321772 0.717662
864 4 0.0699436 0.0934508 0.735727
1077 4 0.0764297 0.0976816 0.718742
851 4 0.0747095 0.116231 0.715744
850 2 0.0671658 0.135208 0.701318
852 4 0.0596221 0.154186 0.686892
1107 4 0.0820898 0.108983 0.732971
862 2 0.052053 0.0878726 0.752279
1284 4 0.166373 0.10359 0.704854
909 4 0.17018 0.124065 0.704353
907 2 0.191381 0.131472 0.69336
908 4 0.212582 0.13888 0.682368
1227 4 0.227724 0.136566 0.668987
1225 2 0.238671 0.114526 0.673414
1226 4 0.249617 0.0924863 0.677841
829 2 0.305769 0.125709 0.690169
1005 4 0.328516 0.100002 0.703694
830 4 0.301633 0.148686 0.681216
831 4 0.309905 0.102732 0.699121
1003 2 0.340135 0.0889373 0.722871
3425 4 0.470907 0.0923976 0.670656
1113 4 0.488199 0.107327 0.727204
1111 2 0.477249 0.0914731 0.743139
1025 4 0.42806 0.161503 0.681307
1177 2 0.0187475 0.246738 0.723008
1130 4 0.138109 0.24885 0.745371
1208 4 0.133343 0.24496 0.726674
1074 4 0.120576 0.25391 0.738208
1207 2 0.139722 0.252154 0.703594
976 2 0.320563 0.224893 0.734487
977 4 0.296423 0.230607 0.737614
978 4 0.344704 0.219179 0.73136
918 4 0.290488 0.242603 0.750423
1024 2 0.4423 0.174692 0.697069
1142 4 0.452334 0.185917 0.731345
1144 2 0.490177 0.179751 0.72773
1262 4 0.466266 0.20624 0.710044
1026 4 0.45654 0.187881 0.712831
1261 2 0.464599 0.230565 0.704505
1145 4 0.470268 0.194405 0.723977
1263 4 0.462931 0.25489 0.698966
1179 4 0.0430627 0.251493 0.71964
1072 2 0.0956342 0.253246 0.739842
821 4 0.144397 0.277746 0.674862
1209 4 0.146102 0.259348 0.680513
1073 4 0.0706929 0.252581 0.741475
1019 4 0.397931 0.276643 0.710311
1018 2 0.377148 0.288265 0.702684
1020 4 0.356364 0.299886 0.695058
3263 4 0.0541828 0.331287 0.667074
892 2 0.0239673 0.355387 0.736031
1279 2 0.0540992 0.404262 0.746317
894 4 0.0443536 0.364273 0.74746
1280 4 0.0572753 0.379552 0.744191
816 4 0.0618602 0.363037 0.752784
814 2 0.0834112 0.352116 0.746346
815 4 0.104962 0.341194 0.739908
1065 4 0.191554 0.364292 0.660917
807 4 0.212336 0.364729 0.665363
1028 4 0.212456 0.395827 0.720138
1066 2 0.194375 0.364445 0.741973
1068 4 0.208675 0.376093 0.725092
1027 2 0.22411 0.408555 0.702045
805 2 0.235943 0.362028 0.673146
1281 4 0.050923 0.428972 0.748443
1983 4 0.0577241 0.448716 0.746418
1981 2 0.0803539 0.458375 0.750866
1176 4 0.165005 0.487438 0.720916
1175 4 0.208826 0.463547 0.724023
1174 2 0.186915 0.475493 0.722469
1029 4 0.235764 0.421282 0.683952
1138 2 0.263857 0.450762 0.679433
1139 4 0.277319 0.470463 0.686903
1987 2 0.283065 0.450438 0.735211
1229 4 0.293342 0.471463 0.698866
1989 4 0.284953 0.467383 0.716922
2028 4 0.279464 0.48025 0.703578
1228 2 0.317413 0.465917 0.694993
1988 4 0.281177 0.433493 0.7535
1230 4 0.341484 0.460371 0.69112
1099 2 0.445866 0.499167 0.674373
1100 4 0.439251 0.485582 0.694295
2989 2 0.0235025 0.0485777 0.788268
2990 4 0.0199732 0.0725155 0.781967
2991 4 0.0270317 0.0246399 0.79457
863 4 0.0341624 0.0822944 0.768832
3083 4 0.0175306 0.0831903 0.766816
2047 2 0.12533 0.997247 0.785604
2049 4 0.112663 0.0187821 0.784619
1202 4 0.104174 0.0359772 0.790517
1201 2 0.117826 0.0568806 0.789149
1203 4 0.131477 0.0777839 0.787782
32 3 0.145526 0.0818987 0.805211
817 2 0.33042 0.0478159 0.802926
819 4 0.319896 0.0704858 0.803642
1050 4 0.336055 0.0145154 0.766605
1004 4 0.351753 0.0778723 0.742048
973 2 0.364394 0.00624093 0.793942
818 4 0.340943 0.025146 0.802211
974 4 0.342725 0.0154645 0.785541
2322 4 0.477522 0.0517912 0.778587
845 4 0.476497 0.0719525 0.77828
1112 4 0.466299 0.0756187 0.759074
844 2 0.469548 0.0679043 0.801955
2320 2 0.486515 0.0410885 0.757857
833 4 0.0274011 0.0894648 0.784514
832 2 0.0284552 0.109192 0.799841
834 4 0.0295093 0.128919 0.815168
1125 4 0.0242106 0.142576 0.829119
1105 2 0.102265 0.10892 0.74774
1106 4 0.12244 0.108858 0.76251
911 4 0.141547 0.101503 0.816282
34 3 0.131659 0.0953365 0.772965
31 1 0.146914 0.0991284 0.790033
35 3 0.142118 0.118767 0.800519
33 3 0.168444 0.0998104 0.781407
1256 4 0.228376 0.109705 0.817522
840 4 0.21596 0.118777 0.830729
1255 2 0.242828 0.101199 0.798976
1085 4 0.322026 0.0883625 0.797712
1257 4 0.25728 0.0926919 0.78043
1084 2 0.299638 0.089664 0.786653