ITEM: TIMESTEP
440000
ITEM: NUMBER OF ATOMS
4590
ITEM: BOX BOUNDS pp pp pp
-9.9985700000000008e+00 9.9985700000000008e+00
-9.9985700000000008e+00 9.9985700000000008e+00
-9.9985700000000008e+00 9.9985700000000008e+00
ITEM: ATOMS id type xs ys zs
463 2 0.0438076 0.0665467 0.0227528
464 4 0.0603455 0.054239 0.00860382
465 4 0.0272696 0.0788544 0.0369018
591 4 0.0340698 0.0800247 0.0737322
534 4 0.220483 0.0397393 0.99584
490 2 0.280136 0.0785735 0.0720782
1475 4 0.269504 0.00780348 0.0837094
296 4 0.371971 0.0794654 0.0443259
295 2 0.354848 0.0626621 0.0513725
297 4 0.337726 0.0458589 0.058419
987 4 0.420909 0.0316177 0.0105133
747 4 0.473717 0.0615928 0.010094
2974 2 0.477142 0.0277921 0.0159498
2976 4 0.4795 0.00959182 0.0329312
2467 2 0.491574 0.0293222 0.0695212
2468 4 0.481002 0.0199612 0.0488868
745 2 0.467503 0.0813228 0.0241401
589 2 0.0119097 0.0863982 0.083401
422 4 0.115544 0.141183 0.0252763
421 2 0.115258 0.129403 0.00322372
565 2 0.217398 0.14171 0.0725644
566 4 0.196058 0.144265 0.0597871
567 4 0.238738 0.139155 0.0853417
492 4 0.270596 0.0871881 0.0506313
358 2 0.296919 0.127514 0.0428212
359 4 0.283257 0.146126 0.0524192
360 4 0.310581 0.108902 0.0332232
557 4 0.379716 0.0914777 0.0296395
556 2 0.393578 0.109498 0.0400464
558 4 0.40744 0.127517 0.0504533
665 4 0.35491 0.15208 0.016877
746 4 0.461289 0.101053 0.0381862
771 4 0.421526 0.156439 0.0584085
554 4 0.0789092 0.243914 0.0445532
2625 4 0.00237801 0.195447 0.0888143
664 2 0.347958 0.176006 0.0147856
322 2 0.416441 0.255381 0.0674282
666 4 0.341006 0.199932 0.0126942
769 2 0.437894 0.17405 0.0652729
324 4 0.437597 0.24452 0.059708
770 4 0.454263 0.191661 0.0721372
553 2 0.0559389 0.251713 0.0384934
555 4 0.0329686 0.259512 0.0324335
292 2 0.128247 0.300726 0.0178482
293 4 0.145872 0.298706 0.0354676
507 4 0.162112 0.285813 0.033093
483 4 0.206786 0.304957 0.0730145
505 2 0.174963 0.292301 0.0535364
506 4 0.187814 0.298788 0.0739798
481 2 0.231639 0.303817 0.0705166
573 4 0.255492 0.272393 0.0593277
572 4 0.271462 0.251645 0.0167225
357 4 0.268202 0.26341 0.00052515
571 2 0.263477 0.262019 0.0380251
482 4 0.256491 0.302676 0.0680187
1071 4 0.379165 0.276549 0.0202818
1069 2 0.398348 0.292264 0.0234845
1070 4 0.41753 0.307978 0.0266873
741 4 0.371949 0.329788 0.0802808
671 4 0.456417 0.329779 0.0705869
280 2 0.448498 0.31568 0.0347669
281 4 0.445057 0.318014 0.0594224
282 4 0.451939 0.313347 0.0101114
551 4 0.0562402 0.416611 0.0459214
328 2 0.0159944 0.415034 0.00238891
288 4 0.163305 0.345543 0.0319779
287 4 0.194573 0.383462 0.0412095
286 2 0.178939 0.364503 0.0365937
252 4 0.287809 0.402848 0.0440515
250 2 0.295784 0.384597 0.0289358
251 4 0.303759 0.366347 0.0138201
957 4 0.352888 0.343694 0.997737
955 2 0.377811 0.345641 0.998191
956 4 0.402735 0.347588 0.998645
550 2 0.0776175 0.425474 0.0553893
329 4 0.035161 0.430735 0.00574956
552 4 0.0989948 0.434337 0.0648572
455 4 0.111321 0.41919 0.0725752
242 4 0.16256 0.482687 0.0453916
245 4 0.234256 0.45384 0.0447111
626 4 0.218777 0.419507 0.0840728
241 2 0.172096 0.490018 0.0673114
609 4 0.296111 0.413848 0.0591435
607 2 0.28805 0.420327 0.0819083
244 2 0.251612 0.453113 0.0267272
246 4 0.268968 0.452386 0.00874338
273 4 0.313762 0.495511 0.0069662
226 2 0.478702 0.459565 0.0636947
563 4 0.462005 0.488332 0.0561847
228 4 0.47092 0.474487 0.0452023
1666 2 0.0864216 0.040565 0.0992412
1668 4 0.0730149 0.0202854 0.105087
19 3 0.0662723 0.0421546 0.154154
20 3 0.0554491 0.076461 0.16527
701 4 0.0851908 0.0736221 0.0959107
1667 4 0.0998282 0.0608446 0.0933949
450 4 0.163971 0.0450536 0.134395
448 2 0.173874 0.067865 0.131797
652 2 0.304866 0.0205147 0.148725
653 4 0.327036 0.0319299 0.146887
491 4 0.289675 0.0699589 0.0935251
654 4 0.282697 0.0090995 0.150564
1761 4 0.45676 0.00542312 0.122716
1759 2 0.472177 0.0197765 0.136187
1760 4 0.487594 0.0341299 0.149658
2724 4 0.494541 0.0521772 0.153939
2722 2 0.504071 0.06976 0.138932
310 2 0.418144 0.0847499 0.156875
2744 4 0.492986 0.0377906 0.167703
700 2 0.0927589 0.0955627 0.105212
702 4 0.100327 0.117503 0.114513
476 4 0.133448 0.155999 0.13989
475 2 0.118182 0.155951 0.159693
477 4 0.102916 0.155903 0.179495
237 4 0.182835 0.147173 0.149775
449 4 0.183777 0.0906765 0.129199
235 2 0.190649 0.124223 0.143656
236 4 0.198464 0.101274 0.137537
582 4 0.302783 0.0979115 0.152199
580 2 0.285326 0.115333 0.156316
312 4 0.414509 0.0911476 0.132978
629 4 0.405469 0.137044 0.134548
628 2 0.40924 0.161038 0.12861
2723 4 0.5136 0.0873428 0.123925
337 2 0.0705485 0.232271 0.134523
339 4 0.0628956 0.234 0.110782
338 4 0.0782014 0.230542 0.158264
737 4 0.175514 0.192689 0.113874
736 2 0.199721 0.188269 0.109441
738 4 0.223928 0.183848 0.105008
277 2 0.23997 0.237227 0.159204
461 4 0.297688 0.230418 0.0915967
460 2 0.322079 0.22707 0.0872268
354 4 0.277622 0.228416 0.0873185
352 2 0.272774 0.235112 0.110916
284 4 0.278392 0.237172 0.152323
353 4 0.267926 0.241807 0.134513
278 4 0.261553 0.24547 0.149642
283 2 0.293016 0.219561 0.162382
255 4 0.360404 0.22149 0.0966677
462 4 0.346469 0.223723 0.082857
254 4 0.396259 0.190097 0.11182
253 2 0.378332 0.205793 0.104244
765 4 0.39287 0.228651 0.155512
630 4 0.413011 0.185032 0.122673
518 4 0.474622 0.223899 0.11573
536 4 0.209545 0.311553 0.143489
754 2 0.271554 0.283622 0.144575
755 4 0.262895 0.260882 0.13882
756 4 0.280213 0.306361 0.150329
612 4 0.287301 0.322887 0.159859
323 4 0.395284 0.266242 0.0751485
624 4 0.399169 0.253268 0.141007
622 2 0.383079 0.271588 0.135468
623 4 0.366988 0.289907 0.12993
670 2 0.451916 0.325271 0.0947654
672 4 0.447416 0.320763 0.118944
528 4 0.467119 0.266551 0.151422
621 4 0.0356995 0.35077 0.099771
619 2 0.0171369 0.36458 0.109252
620 4 0.998574 0.378391 0.118733
647 4 0.056573 0.355186 0.157567
454 2 0.117437 0.397155 0.0826867
456 4 0.123552 0.37512 0.0927983
535 2 0.200941 0.331489 0.155888
537 4 0.192336 0.351424 0.168287
302 4 0.306737 0.38744 0.159927
387 4 0.317072 0.39306 0.143876
739 2 0.363891 0.351891 0.0887474
740 4 0.355833 0.373994 0.0972141
15 3 0.371769 0.368434 0.123871
385 2 0.33697 0.38656 0.130202
386 4 0.356869 0.380059 0.116528
11 1 0.389738 0.367382 0.137824
13 3 0.387909 0.383594 0.154324
12 3 0.390386 0.346663 0.147795
14 3 0.409315 0.370522 0.125771
495 4 0.42464 0.383372 0.124388
493 2 0.428335 0.407528 0.129684
596 4 0.490076 0.404132 0.157841
315 4 0.0296505 0.460482 0.0883384
313 2 0.0237857 0.461911 0.112602
314 4 0.0179209 0.463339 0.136866
625 2 0.229567 0.441824 0.0873395
627 4 0.240358 0.464142 0.0906062
608 4 0.27999 0.426806 0.104673
638 4 0.2557 0.488589 0.155026
523 2 0.335327 0.495697 0.116552
525 4 0.34418 0.474482 0.126387
658 2 0.374454 0.459339 0.15809
659 4 0.369012 0.445752 0.137819
227 4 0.486483 0.444643 0.0821871
494 4 0.43203 0.431683 0.13498
17 3 0.041235 0.0462175 0.181889
2480 4 0.0213087 0.0418631 0.184144
16 1 0.060054 0.055278 0.172251
18 3 0.0771004 0.0556581 0.187989
1422 4 0.0151577 0.0227062 0.181442
1420 2 0.0186609 0.00347855 0.197037
2479 2 0.00143551 0.0569398 0.185854
673 2 0.118882 0.0383959 0.244718
674 4 0.130725 0.04933 0.225603
689 4 0.183141 0.0299403 0.212578
688 2 0.183224 0.0296334 0.237579
692 4 0.227438 0.0834298 0.225673
21 1 0.362982 0.0326326 0.228097
23 3 0.374037 0.0227677 0.245955
24 3 0.340234 0.0337857 0.232524
25 3 0.366603 0.0205932 0.209108
759 4 0.378593 0.0395515 0.207842
22 3 0.371086 0.053966 0.225204
757 2 0.397211 0.049651 0.194554
758 4 0.415828 0.0597504 0.181266
742 2 0.463043 0.0621376 0.224831
744 4 0.457232 0.0384616 0.230385
311 4 0.421778 0.0783521 0.180771
379 2 0.00440919 0.158857 0.165598
381 4 0.0141711 0.164861 0.187821
577 2 0.0959991 0.0928583 0.229605
578 4 0.0835108 0.0874484 0.20863
579 4 0.108487 0.0982681 0.25058
693 4 0.207256 0.0968516 0.181932
691 2 0.217347 0.0901407 0.203803
723 4 0.233997 0.0879714 0.243871
581 4 0.267869 0.132754 0.160433
30 3 0.300382 0.160251 0.248528
28 3 0.293268 0.123859 0.241994
27 3 0.327651 0.137916 0.236263
333 4 0.414334 0.132319 0.252417
743 4 0.468855 0.0858136 0.219276
363 4 0.0795022 0.230127 0.178556
511 2 0.027239 0.176214 0.221509
512 4 0.00980714 0.179068 0.203813
394 2 0.0204372 0.251288 0.222666
513 4 0.0446709 0.173359 0.239205
395 4 0.0173277 0.251133 0.197857
396 4 0.0235466 0.251444 0.247475
361 2 0.0924294 0.245476 0.193472
279 4 0.218387 0.228985 0.168766
285 4 0.30764 0.201951 0.17244
764 4 0.350471 0.229303 0.182019
763 2 0.37167 0.228977 0.168766
520 2 0.477892 0.211529 0.209122
521 4 0.457282 0.201121 0.199525
522 4 0.498501 0.221937 0.218718
527 4 0.486898 0.246582 0.192783
371 4 0.165529 0.251394 0.225015
370 2 0.144205 0.254608 0.21236
372 4 0.122881 0.257822 0.199706
748 2 0.095631 0.293268 0.239336
362 4 0.105357 0.260826 0.208387
749 4 0.0992746 0.277404 0.220356
345 4 0.243245 0.326935 0.241307
343 2 0.254864 0.305468 0.235888
344 4 0.266482 0.284001 0.230469
307 2 0.318103 0.284558 0.251917
308 4 0.308579 0.271133 0.233096
610 2 0.274187 0.331685 0.179245
526 2 0.477008 0.256567 0.172103
646 2 0.0782746 0.355782 0.169971
262 2 0.0325127 0.410102 0.240992
648 4 0.0999761 0.356379 0.182375
300 4 0.0992527 0.341758 0.239357
298 2 0.116047 0.359337 0.245196
417 4 0.140016 0.38627 0.189293
415 2 0.160183 0.399967 0.194848
299 4 0.132841 0.376917 0.251034
416 4 0.18035 0.413664 0.200403
291 4 0.197812 0.411864 0.207861
611 4 0.261073 0.340483 0.19863
303 4 0.319048 0.371228 0.205603
301 2 0.312893 0.379334 0.182765
729 4 0.327762 0.38508 0.216243
727 2 0.336282 0.371192 0.235208
595 2 0.474949 0.391116 0.172905
597 4 0.459821 0.378101 0.187969
643 2 0.431796 0.373651 0.209864
644 4 0.421703 0.378381 0.232246
645 4 0.441889 0.36892 0.187483
447 4 0.427476 0.3671 0.247394
264 4 0.0186485 0.417498 0.221543
290 4 0.243631 0.429455 0.217446
289 2 0.220722 0.420659 0.212653
767 4 0.251129 0.477269 0.172669
768 4 0.252493 0.446479 0.212049
766 2 0.251811 0.461874 0.192359
660 4 0.379896 0.472927 0.178362
110 3 0.501063 0.423183 0.204919
1568 4 0.48435 0.495082 0.209725
1567 2 0.488258 0.505158 0.187178
232 2 0.0198681 0.0360333 0.289222
233 4 0.0321498 0.015575 0.281753
1402 2 0.0764101 0.0169015 0.278002
1404 4 0.0517522 0.0146738 0.274509
675 4 0.10704 0.0274618 0.263833
1403 4 0.101068 0.0191291 0.281495
1464 4 0.109097 0.00297338 0.28768
690 4 0.183306 0.0293264 0.262581
1701 4 0.226349 0.0268358 0.325125
1699 2 0.249915 0.0327793 0.319254
1700 4 0.273482 0.0387229 0.313383
478 2 0.492493 0.0469416 0.303315
480 4 0.478036 0.0543243 0.284298
351 4 0.46756 0.0661826 0.272006
731 4 0.107637 0.0859754 0.301161
730 2 0.102079 0.102967 0.318642
392 4 0.10941 0.157 0.280434
721 2 0.223173 0.0933948 0.265748
722 4 0.212349 0.0988182 0.287625
249 4 0.208045 0.117368 0.287294
247 2 0.20395 0.115307 0.311874
403 2 0.215564 0.15637 0.270603
404 4 0.206748 0.135563 0.281304
600 4 0.173257 0.142023 0.341662
26 1 0.30895 0.139177 0.249598
29 3 0.314963 0.134175 0.271443
632 4 0.386941 0.112766 0.282262
631 2 0.370705 0.131676 0.284262
633 4 0.354469 0.150585 0.286263
706 2 0.340006 0.162225 0.316849
349 2 0.447378 0.0794108 0.278554
350 4 0.427196 0.0926391 0.285101
331 2 0.434064 0.146197 0.258996
332 4 0.453795 0.160075 0.265575
762 4 0.472988 0.164139 0.266044
531 4 0.00857163 0.163728 0.260972
443 4 0.0111022 0.238254 0.256539
393 4 0.0823946 0.194796 0.261933
546 4 0.160225 0.170293 0.26304
391 2 0.0959024 0.175898 0.271183
544 2 0.16735 0.183395 0.283109
545 4 0.174475 0.196496 0.303178
405 4 0.22438 0.177177 0.259901
707 4 0.344425 0.166736 0.292656
420 4 0.409811 0.241235 0.320901
418 2 0.430742 0.227881 0.32386
761 4 0.495286 0.206432 0.280702
760 2 0.484137 0.185285 0.273373
419 4 0.451673 0.214528 0.32682
750 4 0.0919873 0.309133 0.258315
390 4 0.112648 0.263303 0.321841
400 2 0.190036 0.28618 0.286497
402 4 0.20933 0.288508 0.302228
401 4 0.170741 0.283852 0.270765
309 4 0.327627 0.297983 0.270738
496 2 0.309217 0.307 0.302436
497 4 0.298305 0.299796 0.323748
498 4 0.32013 0.314205 0.281124
543 4 0.399378 0.299851 0.313025
615 4 0.384834 0.313012 0.312238
613 2 0.366446 0.329133 0.317452
614 4 0.348058 0.345254 0.322665
541 2 0.42314 0.292424 0.310703
542 4 0.446902 0.284998 0.308381
263 4 0.046377 0.402706 0.260442
366 4 0.00448476 0.35792 0.286633
364 2 0.0287721 0.352857 0.289742
365 4 0.0530595 0.347794 0.292851
602 4 0.0773589 0.410852 0.302117
601 2 0.070767 0.387122 0.297801
603 4 0.0641751 0.363393 0.293486
734 4 0.149779 0.370212 0.255973
733 2 0.164582 0.368313 0.276034
510 4 0.230184 0.338502 0.312828
677 4 0.190492 0.366948 0.312294
735 4 0.179385 0.366415 0.296095
433 2 0.319116 0.371847 0.324911
435 4 0.308197 0.393754 0.319807
434 4 0.330035 0.349941 0.330016
728 4 0.344803 0.357304 0.254174
445 2 0.444007 0.368329 0.266112
446 4 0.460538 0.369558 0.284831
1757 4 0.073392 0.478389 0.265453
549 4 0.0768689 0.412971 0.321397
777 4 0.0808264 0.467661 0.302188
775 2 0.0903842 0.485238 0.317183
414 4 0.187229 0.49182 0.294045
412 2 0.196847 0.47448 0.309276
413 4 0.206466 0.45714 0.324507
436 2 0.325173 0.457243 0.298351
437 4 0.318268 0.440515 0.281097
438 4 0.332078 0.473971 0.315604
119 3 0.49609 0.435963 0.322268
713 4 0.432911 0.461912 0.318964
712 2 0.456717 0.454599 0.321193
714 4 0.480523 0.447285 0.323422
316 2 0.0483335 0.06973 0.345251
317 4 0.0277 0.0558793 0.342496
318 4 0.0689671 0.0835808 0.348006
428 4 0.0712542 0.0195321 0.357935
1781 4 0.104437 0.00509349 0.40665
606 4 0.131805 0.0853879 0.363733
429 4 0.109558 0.0503527 0.348793
427 2 0.0904063 0.0349424 0.353364
604 2 0.156668 0.0862095 0.36121
605 4 0.18153 0.087031 0.358687
683 4 0.307357 0.0469831 0.377665
682 2 0.297826 0.0680248 0.387236
699 4 0.347007 0.0525974 0.339331
257 4 0.410921 0.0439266 0.348809
698 4 0.396891 0.0559549 0.338276
697 2 0.371949 0.0542761 0.338803
256 2 0.432824 0.0541421 0.342399
258 4 0.454727 0.0643576 0.335989
398 4 0.0454616 0.11876 0.358654
397 2 0.0691812 0.125537 0.354575
732 4 0.096521 0.119958 0.336123
399 4 0.0929008 0.132313 0.350496
248 4 0.199855 0.113246 0.336453
598 2 0.181209 0.142263 0.365366
599 4 0.189162 0.142502 0.38907
684 4 0.288296 0.0890666 0.396806
320 4 0.287188 0.108379 0.398365
319 2 0.276224 0.119718 0.417766
708 4 0.335587 0.157715 0.341043
2879 4 0.485279 0.0860917 0.410111
452 4 0.483126 0.119348 0.413827
451 2 0.462119 0.13125 0.407331
453 4 0.441111 0.143152 0.400836
515 4 0.427165 0.15683 0.405362
260 4 0.0740944 0.201685 0.406567
459 4 0.0302099 0.176183 0.411211
389 4 0.0897126 0.239974 0.359662
388 2 0.10118 0.251638 0.340752
474 4 0.232554 0.223223 0.380375
276 4 0.215955 0.233341 0.384347
472 2 0.228805 0.199476 0.373506
473 4 0.225057 0.175728 0.366637
715 2 0.372329 0.221432 0.36806
716 4 0.368084 0.204812 0.386251
717 4 0.376574 0.238052 0.349868
467 4 0.380423 0.196802 0.398148
270 4 0.465746 0.239694 0.407933
347 4 0.0576196 0.323798 0.388856
346 2 0.0485652 0.30703 0.405044
274 2 0.216459 0.256313 0.374488
275 4 0.216964 0.279286 0.36463
373 2 0.192142 0.33011 0.380582
374 4 0.195533 0.318304 0.40236
376 2 0.289754 0.284469 0.355965
377 4 0.304794 0.286532 0.336097
378 4 0.274715 0.282406 0.375833
269 4 0.509092 0.264063 0.40264
268 2 0.487419 0.251879 0.405287
618 4 0.0485775 0.334393 0.374458
616 2 0.0668371 0.329244 0.358172
617 4 0.0850967 0.324096 0.341885
508 2 0.238802 0.34091 0.336175
375 4 0.188751 0.341916 0.358803
678 4 0.17091 0.342212 0.351093
676 2 0.180701 0.35458 0.331693
509 4 0.247421 0.343317 0.359523
502 2 0.243792 0.402498 0.416087
503 4 0.2676 0.405388 0.409017
336 4 0.337933 0.36872 0.382806
334 2 0.354735 0.36662 0.401204
335 4 0.371538 0.364519 0.419601
561 4 0.47959 0.400144 0.387155
752 4 0.47602 0.41893 0.377943
751 2 0.451334 0.419371 0.381889
753 4 0.426648 0.419812 0.385834
407 4 0.0668563 0.418421 0.379765
406 2 0.0751898 0.422936 0.402902
547 2 0.0782887 0.420206 0.345289
548 4 0.0797086 0.42744 0.369181
570 4 0.163709 0.496747 0.402038
776 4 0.099942 0.502816 0.332178
568 2 0.153568 0.481078 0.418676
1555 2 0.242425 0.495128 0.416182
2 3 0.318096 0.502153 0.357069
5 3 0.309242 0.46609 0.36081
1 1 0.326116 0.480618 0.356028
4 3 0.343239 0.478235 0.371505
1557 4 0.250652 0.478332 0.432776
3 3 0.334166 0.476637 0.334633
594 4 0.390506 0.467534 0.35918
592 2 0.395843 0.491735 0.362496
2237 4 0.0261043 0.0316328 0.492216
718 2 0.0512567 0.056142 0.483166
720 4 0.0452203 0.032319 0.487771
2236 2 0.0209123 0.00932846 0.502253
719 4 0.0572932 0.079965 0.478561
367 2 0.1152 0.0209768 0.440751
369 4 0.112835 0.034856 0.461414
368 4 0.117565 0.00709755 0.420088
2430 4 0.206802 0.0191474 0.498532
341 4 0.211767 0.0388415 0.497708
441 4 0.283481 0.0396 0.427317
439 2 0.289854 0.0162803 0.420933
962 4 0.285868 0.0366395 0.447049
961 2 0.290284 0.0481281 0.468813
963 4 0.294701 0.0596166 0.490578
426 4 0.395694 0.00700373 0.414846
424 2 0.38822 0.0253817 0.430063
425 4 0.380746 0.0437597 0.445281
725 4 0.379031 0.0778469 0.443813
2586 4 0.00133308 0.121204 0.438163
458 4 0.00567728 0.134305 0.423256
457 2 0.0179436 0.155244 0.417234
471 4 0.0433305 0.164188 0.468442
686 4 0.175134 0.161065 0.421494
1181 4 0.279427 0.0960661 0.47225
1182 4 0.271849 0.145358 0.475941
1180 2 0.275638 0.120712 0.474095
321 4 0.26526 0.131057 0.437167
726 4 0.330559 0.0898455 0.441117
724 2 0.354795 0.0838462 0.442465
576 4 0.394838 0.17127 0.498664
2878 2 0.48757 0.0859216 0.435009
642 4 0.494751 0.0967232 0.476616
2880 4 0.489861 0.0857515 0.459907
640 2 0.478265 0.100264 0.495079
469 2 0.0321509 0.185945 0.47362
470 4 0.0209713 0.207703 0.478798
695 4 0.0862499 0.241398 0.471521
685 2 0.152914 0.169952 0.428736
687 4 0.130693 0.178839 0.435978
261 4 0.113844 0.188477 0.433884
259 2 0.0939693 0.195081 0.420226
1035 4 0.114934 0.204731 0.444589
1033 2 0.123568 0.196919 0.466715
1034 4 0.132203 0.189107 0.488842
857 4 0.207478 0.238668 0.495904
488 4 0.262332 0.229275 0.426693
487 2 0.28133 0.23247 0.442633
489 4 0.300327 0.235664 0.458572
411 4 0.305936 0.218597 0.468049
409 2 0.323447 0.202027 0.461416
466 2 0.36616 0.193892 0.418478
574 2 0.402616 0.184539 0.478951
410 4 0.340957 0.185457 0.454783
468 4 0.351898 0.190982 0.438807
575 4 0.410394 0.197808 0.459238
516 4 0.412646 0.186528 0.442885
514 2 0.419906 0.171679 0.424123
304 2 0.492516 0.188643 0.421083
305 4 0.482923 0.192309 0.44388
348 4 0.0395107 0.290263 0.421231
694 2 0.101344 0.261292 0.47278
696 4 0.116438 0.281186 0.474038
9 3 0.153924 0.309083 0.484936
327 4 0.125694 0.33366 0.46799
1260 4 0.132135 0.282086 0.486447
651 4 0.237133 0.275886 0.486279
649 2 0.25816 0.284788 0.476091
650 4 0.279188 0.29369 0.465904
266 4 0.342525 0.287243 0.44353
267 4 0.387157 0.272321 0.460444
265 2 0.364841 0.279782 0.451987
812 4 0.340266 0.338941 0.492495
583 2 0.470655 0.269407 0.467074
584 4 0.490892 0.261369 0.479364
585 4 0.450419 0.277445 0.454783
2845 2 0.00147881 0.336109 0.480422
2846 4 0.0205937 0.352225 0.480688
681 4 0.0112233 0.404517 0.438523
326 4 0.106438 0.34788 0.424084
325 2 0.116066 0.34077 0.446037
384 4 0.0914728 0.409252 0.478333
6 1 0.158458 0.331832 0.485487
7 3 0.139478 0.343345 0.479457
10 3 0.175196 0.336776 0.470857
711 4 0.169789 0.37542 0.455307
504 4 0.219983 0.399609 0.423157
709 2 0.185002 0.387776 0.43978
710 4 0.200215 0.400131 0.424253
772 2 0.270197 0.413083 0.487945
804 4 0.26689 0.356244 0.493058
238 2 0.387795 0.37579 0.454762
240 4 0.385023 0.362968 0.433476
239 4 0.390566 0.388612 0.476048
587 4 0.4161 0.42797 0.424191
3309 4 0.49078 0.387056 0.479232
3307 2 0.500364 0.372217 0.496927
680 4 0.0288938 0.451217 0.441279
1381 2 0.00649041 0.483131 0.441498
1383 4 0.0171105 0.462894 0.431356
679 2 0.0200585 0.427867 0.439901
539 4 0.062309 0.466685 0.490638
569 4 0.143426 0.465409 0.435314
383 4 0.092202 0.43988 0.438809
382 2 0.0918374 0.424566 0.458571
408 4 0.0835233 0.427451 0.42604
634 2 0.246362 0.450614 0.454823
636 4 0.235493 0.469599 0.442715
668 4 0.31914 0.423924 0.428664
635 4 0.257232 0.431629 0.466931
774 4 0.275229 0.42075 0.464684
669 4 0.277699 0.40765 0.451435
667 2 0.298419 0.415787 0.440049
880 2 0.336377 0.47883 0.489658
882 4 0.339981 0.454185 0.491856
1401 4 0.358607 0.493464 0.416183
588 4 0.398613 0.435608 0.470415
586 2 0.407356 0.431789 0.447303
1126 2 0.0219402 0.05406 0.561508
1127 4 0.0438708 0.0443275 0.554472
1128 4 9.67084e-06 0.0637926 0.568544
1058 4 0.137626 0.0621795 0.575587
1031 4 0.224061 0.0788855 0.556578
340 2 0.197624 0.0591737 0.501137
432 4 0.305293 0.0474788 0.502352
430 2 0.324446 0.0589023 0.513658
951 4 0.269671 0.0341709 0.587201
1217 4 0.405742 0.0327858 0.528791
1216 2 0.411092 0.0190877 0.549013
841 2 0.384622 0.0578808 0.52046
842 4 0.405597 0.0460363 0.513755
843 4 0.363647 0.0697253 0.527164
431 4 0.3436 0.0703258 0.524964
3008 4 0.490924 0.0854067 0.560872
938 4 0.0771012 0.133826 0.562014
937 2 0.101831 0.137511 0.561845
939 4 0.126561 0.141197 0.561675
1059 4 0.138066 0.111682 0.582661
1057 2 0.137846 0.0869306 0.579124
1153 2 0.155625 0.143821 0.576455
1155 4 0.135506 0.129179 0.574
342 4 0.183481 0.0795058 0.504567
1030 2 0.242866 0.0930342 0.565025
1152 4 0.186229 0.0860794 0.524248
1151 4 0.185476 0.132498 0.542835
1150 2 0.185853 0.109289 0.533542
899 4 0.306495 0.143481 0.557579
1032 4 0.261672 0.107183 0.573472
641 4 0.461779 0.103805 0.513541
3159 4 0.484796 0.160293 0.548962
877 2 0.0514638 0.212937 0.576097
878 4 0.029953 0.202575 0.583518
1199 4 0.0189208 0.219089 0.579217
879 4 0.0729747 0.2233 0.568675
1272 4 0.0922341 0.230767 0.56394
1270 2 0.110524 0.237762 0.579487
856 2 0.219286 0.232396 0.517032
858 4 0.231094 0.226123 0.53816
898 2 0.311929 0.167704 0.554598
900 4 0.317363 0.191927 0.551617
1258 2 0.142894 0.2851 0.508815
1259 4 0.153653 0.288114 0.531183
813 4 0.342328 0.313657 0.53559
872 4 0.389641 0.267676 0.540719
811 2 0.341297 0.326299 0.514043
871 2 0.374879 0.287856 0.540908
873 4 0.360117 0.308036 0.541096
983 4 0.0359959 0.327347 0.544151
982 2 0.0295005 0.333723 0.567439
8 3 0.164575 0.338173 0.506953
1189 2 0.225301 0.378242 0.566419
1191 4 0.207985 0.389658 0.580383
1190 4 0.242617 0.366826 0.552455
803 4 0.257651 0.371893 0.539646
802 2 0.26227 0.364068 0.516352
928 2 0.322352 0.378953 0.564401
773 4 0.265166 0.405415 0.511205
929 4 0.324742 0.394355 0.544849
925 2 0.433552 0.371131 0.539964
927 4 0.447748 0.383812 0.556177
926 4 0.419356 0.35845 0.523751
1161 4 0.173994 0.470426 0.550632
1159 2 0.156352 0.47155 0.568315
540 4 0.0893414 0.502165 0.513246
538 2 0.0758252 0.484425 0.501942
1171 2 0.235151 0.435832 0.577625
1172 4 0.237698 0.412501 0.569003
1951 2 0.354074 0.493334 0.581382
1911 4 0.443089 0.485063 0.536376
1332 4 0.484113 0.483127 0.49928
663 4 0.431971 0.443504 0.504117
1002 4 0.420704 0.449754 0.570626
662 4 0.468986 0.47381 0.489551
661 2 0.450479 0.458657 0.496834
823 2 0.147235 0.00553874 0.633756
825 4 0.132505 0.0242728 0.641321
1284 4 0.205238 0.076408 0.64134
949 2 0.284566 0.0348418 0.607272
950 4 0.299461 0.0355128 0.627344
809 4 0.452607 0.0693959 0.609842
1082 4 0.0619638 0.0944017 0.658627
1083 4 0.0279064 0.0891363 0.62239
1081 2 0.0449351 0.091769 0.640508
1283 4 0.168965 0.110729 0.638686
1282 2 0.187102 0.0935683 0.640013
808 2 0.458778 0.084373 0.628889
810 4 0.464949 0.09935 0.647936
45 3 0.449834 0.0989297 0.661959
852 4 0.0516173 0.176642 0.652926
1271 4 0.128814 0.244757 0.595034
1209 4 0.128846 0.247143 0.662667
1154 4 0.175744 0.158463 0.578909
1221 4 0.185205 0.174046 0.5852
1210 2 0.245735 0.171296 0.645748
1212 4 0.229457 0.173793 0.626934
1219 2 0.200027 0.180132 0.604395
1220 4 0.214849 0.186219 0.62359
791 4 0.285818 0.247622 0.588437
1193 4 0.367428 0.202641 0.6595
1025 4 0.447894 0.199397 0.659868
1244 4 0.0575377 0.247188 0.598901
1243 2 0.0505097 0.270959 0.602179
1245 4 0.0434817 0.29473 0.605456
1136 4 0.110146 0.330956 0.605879
948 4 0.147163 0.282903 0.617462
797 4 0.238467 0.262798 0.585032
796 2 0.2143 0.258671 0.58994
798 4 0.190132 0.254545 0.594847
947 4 0.19027 0.257702 0.614743
946 2 0.168717 0.270302 0.616103
792 4 0.290298 0.297419 0.589382
790 2 0.288058 0.272521 0.58891
1238 4 0.308208 0.298875 0.599173
1237 2 0.312413 0.323474 0.597642
805 2 0.329825 0.305454 0.659297
806 4 0.340249 0.30347 0.636657
954 4 0.407653 0.313485 0.593114
904 2 0.486141 0.254345 0.60378
906 4 0.462894 0.250791 0.595287
952 2 0.429335 0.30152 0.596567
953 4 0.451016 0.289554 0.600019
984 4 0.023005 0.3401 0.590727
3263 4 0.00714179 0.34341 0.633194
1040 4 0.0826126 0.393352 0.614545
1039 2 0.0581242 0.39329 0.619594
1041 4 0.0336357 0.393229 0.624643
3264 4 0.013374 0.391757 0.622037
3262 2 0.0102579 0.367583 0.627616
993 4 0.0925266 0.409942 0.608634
1137 4 0.15082 0.359996 0.607629
897 4 0.153529 0.378558 0.608733
1135 2 0.130483 0.345476 0.606754
991 2 0.114314 0.397686 0.609177
992 4 0.136101 0.38543 0.60972
896 4 0.201078 0.376361 0.593403
895 2 0.177304 0.377459 0.601068
1029 4 0.240839 0.37161 0.666463
1239 4 0.316618 0.348074 0.596112
930 4 0.319962 0.363552 0.583952
1204 2 0.400846 0.392491 0.637056
1206 4 0.379843 0.399182 0.625254
1205 4 0.421849 0.3858 0.648858
1160 4 0.138711 0.472675 0.585998
1173 4 0.232603 0.459163 0.586248
1187 4 0.216127 0.466972 0.595932
1186 2 0.217577 0.491927 0.595384
889 2 0.316086 0.47766 0.620111
891 4 0.295261 0.473222 0.633218
1952 4 0.334806 0.478508 0.587222
890 4 0.336912 0.482098 0.607005
1230 4 0.359466 0.439972 0.658539
1001 4 0.457109 0.461315 0.602902
1000 2 0.438906 0.455534 0.586764
1269 4 0.454602 0.456815 0.642396
1267 2 0.464119 0.476265 0.654898
1268 4 0.473636 0.495716 0.667399
944 4 0.0479696 0.0828841 0.686705
943 2 0.0483387 0.0609801 0.698757
945 4 0.0487077 0.0390761 0.710809
1147 2 0.218255 0.0596166 0.739794
1149 4 0.22094 0.0473318 0.761406
1148 4 0.215571 0.0719013 0.718183
1004 4 0.368896 0.0585721 0.671981
1003 2 0.363049 0.0705317 0.693146
1005 4 0.357201 0.0824914 0.714311
1163 4 0.463467 0.0497129 0.681048
1162 2 0.488012 0.0449996 0.681732
42 3 0.452841 0.0659188 0.67911
2320 2 0.483465 0.0179079 0.745523
2321 4 0.499317 0.000424012 0.737264
1076 4 0.0603221 0.0965669 0.679141
862 2 0.0251821 0.123845 0.741175
864 4 0.0343227 0.138085 0.722767
1075 2 0.0534739 0.115281 0.694243
1077 4 0.0466257 0.133995 0.709345
1107 4 0.0462427 0.152276 0.71583
908 4 0.185859 0.141372 0.699095
907 2 0.169755 0.152065 0.683236
1227 4 0.189083 0.133691 0.718284
1225 2 0.198803 0.111233 0.723416
1226 4 0.208523 0.0887748 0.728547
829 2 0.329119 0.161157 0.724253
831 4 0.344843 0.162771 0.743627
43 3 0.429508 0.0919696 0.69288
41 1 0.449821 0.0885113 0.682211
44 3 0.467143 0.096665 0.69532
3425 4 0.475053 0.110451 0.682925
3424 2 0.49946 0.115621 0.684588
851 4 0.0404852 0.161257 0.699187
850 2 0.0460512 0.16895 0.676056
1213 2 0.00387706 0.208056 0.750885
1105 2 0.0607114 0.164718 0.731986
1177 2 0.0165324 0.234082 0.704321
909 4 0.153651 0.162757 0.667377
1130 4 0.180399 0.178133 0.746468
830 4 0.313396 0.159542 0.704879
1211 4 0.262013 0.168798 0.664562
886 2 0.293629 0.178201 0.676373
888 4 0.273457 0.186076 0.663873
887 4 0.313801 0.170327 0.688874
1194 4 0.327366 0.177004 0.674945
976 2 0.284993 0.202442 0.742073
978 4 0.268009 0.185326 0.735457
977 4 0.301976 0.219559 0.74869
1298 4 0.321078 0.225142 0.747378
1192 2 0.347397 0.189823 0.667222
1262 4 0.418712 0.249183 0.725473
1142 4 0.444315 0.194772 0.710665
1024 2 0.441866 0.206373 0.683109
1141 2 0.44338 0.186569 0.734267
1026 4 0.435838 0.213348 0.706351
1261 2 0.44115 0.241936 0.733789
1263 4 0.463589 0.234689 0.742105
1179 4 0.0313578 0.251959 0.695058
1207 2 0.108019 0.257524 0.671813
1208 4 0.0871914 0.267905 0.680958
820 2 0.168924 0.293853 0.709219
822 4 0.176543 0.27017 0.70672
821 4 0.161306 0.317536 0.711718
1065 4 0.245721 0.26382 0.69785
1063 2 0.253864 0.280402 0.681
1064 4 0.262006 0.296985 0.664151
807 4 0.319402 0.307439 0.681938
1008 4 0.395412 0.30521 0.744412
3123 4 0.482742 0.262836 0.694447
892 2 0.0277999 0.365009 0.7089
893 4 0.0118404 0.348243 0.718355
894 4 0.0437594 0.381774 0.699445
1280 4 0.062615 0.388441 0.695183
1279 2 0.0637295 0.410696 0.706526
940 2 0.131721 0.391203 0.733725
941 4 0.156289 0.386624 0.734507
815 4 0.0992239 0.378764 0.740722
942 4 0.107152 0.395781 0.732943
1067 4 0.174735 0.39368 0.739112
1028 4 0.192553 0.381099 0.675358
1066 2 0.185058 0.388595 0.716914
1068 4 0.195381 0.383509 0.694716
1027 2 0.216696 0.376354 0.670911
1019 4 0.370977 0.359603 0.742595
1981 2 0.0539923 0.461152 0.734688
1281 4 0.0648439 0.43295 0.717869
1983 4 0.0722471 0.444261 0.732116
1982 4 0.0357375 0.478044 0.737259
1139 4 0.284121 0.438954 0.721124
1138 2 0.285042 0.430254 0.697701
1140 4 0.285964 0.421554 0.674278
1987 2 0.326968 0.466818 0.726233
1228 2 0.358647 0.454575 0.678818
1229 4 0.357828 0.469179 0.699097
1989 4 0.338558 0.471695 0.704621
1100 4 0.417789 0.450967 0.670124
1099 2 0.425201 0.455037 0.693654
1101 4 0.432613 0.459108 0.717185
1201 2 0.12172 0.0670585 0.765026
1202 4 0.110413 0.0450986 0.761142
2049 4 0.11664 0.0303876 0.772596
2047 2 0.123251 0.00745801 0.780059
1050 4 0.328459 0.0140878 0.762467
1257 4 0.249132 0.086715 0.800499
2322 4 0.467613 0.0353918 0.753783
1113 4 0.420325 0.0460876 0.818224
1112 4 0.446766 0.0707765 0.783697
844 2 0.478236 0.0799021 0.771141
1111 2 0.433545 0.0584321 0.800961
846 4 0.497131 0.074407 0.755715
911 4 0.072098 0.0889735 0.80905
863 4 0.0160414 0.109606 0.759583
832 2 0.0139256 0.101546 0.791653
833 4 0.0257031 0.0959398 0.770322
910 2 0.0740134 0.0899246 0.833962
1203 4 0.133027 0.0890184 0.76891
34 3 0.126286 0.135285 0.814798
31 1 0.112256 0.150776 0.824879
35 3 0.0905626 0.144209 0.822664
1256 4 0.292472 0.102638 0.781293
1255 2 0.270802 0.0946764 0.790896
1086 4 0.327032 0.148624 0.795479
1084 2 0.336332 0.137885 0.816055
819 4 0.35942 0.114333 0.830059
845 4 0.459341 0.0853971 0.786566
1106 4 0.0751801 0.17716 0.748143
1214 4 0.0157457 0.198023 0.770472
33 3 0.115239 0.171648 0.815191
1073 4 0.125895 0.222384 0.753161
1072 2 0.120289 0.244468 0.76346
1129 2 0.187733 0.201114 0.753044
1131 4 0.195067 0.224096 0.75962
1277 4 0.187014 0.239824 0.767884
918 4 0.30828 0.23484 0.758335
1299 4 0.347793 0.198814 0.780452
1297 2 0.334435 0.211978 0.763915