ITEM: TIMESTEP
630000
ITEM: NUMBER OF ATOMS
4590
ITEM: BOX BOUNDS pp pp pp
-9.9985700000000008e+00 9.9985700000000008e+00
-9.9985700000000008e+00 9.9985700000000008e+00
-9.9985700000000008e+00 9.9985700000000008e+00
ITEM: ATOMS id type xs ys zs
591 4 0.00746615 0.0570259 0.0675445
463 2 0.0521332 0.0835399 0.0103848
1475 4 0.277202 0.0112247 0.0606869
492 4 0.285094 0.0503185 0.0844916
297 4 0.312402 0.0750724 0.0269576
295 2 0.330223 0.0820476 0.0430491
985 2 0.409843 0.0379284 0.00935328
1607 4 0.387431 0.00563827 0.028437
987 4 0.400227 0.019049 0.0226308
747 4 0.465065 0.058579 0.014402
2974 2 0.482932 0.0282434 0.0181068
2976 4 0.487591 0.00825279 0.0323845
2468 4 0.490767 0.0101807 0.0504786
2975 4 0.478273 0.0482339 0.00382914
465 4 0.0381662 0.0961369 0.0268595
422 4 0.126444 0.129331 0.998277
566 4 0.171587 0.155842 0.0720296
565 2 0.193601 0.166189 0.0778156
358 2 0.316848 0.142865 0.0610621
360 4 0.338678 0.146209 0.0493371
296 4 0.348044 0.0890228 0.0591406
557 4 0.358211 0.0959076 0.0436496
556 2 0.380278 0.107643 0.0443791
558 4 0.402344 0.119379 0.0451086
745 2 0.455265 0.0815702 0.0151368
746 4 0.445465 0.104561 0.0158716
554 4 0.0778591 0.225808 0.0228901
553 2 0.0731328 0.24881 0.0314779
666 4 0.323249 0.208196 0.0153692
665 4 0.340477 0.185174 0.0562822
664 2 0.331863 0.196685 0.0358257
769 2 0.417815 0.17917 0.0523212
770 4 0.394524 0.182725 0.0439496
323 4 0.403351 0.234534 0.0649904
771 4 0.441106 0.175616 0.0606928
324 4 0.452827 0.241296 0.0623072
322 2 0.428089 0.237915 0.0636488
555 4 0.0684064 0.271812 0.0400656
292 2 0.13974 0.296273 0.0135768
293 4 0.154736 0.287104 0.0313593
507 4 0.158968 0.305071 0.0379324
505 2 0.176114 0.299702 0.0553216
483 4 0.204818 0.285654 0.0581705
506 4 0.19326 0.294334 0.0727108
481 2 0.227627 0.275461 0.0571633
482 4 0.250436 0.265268 0.0561562
573 4 0.26391 0.25178 0.0579629
572 4 0.294465 0.266089 0.0210534
571 2 0.279188 0.258934 0.0395081
357 4 0.294605 0.276844 0.00366758
1069 2 0.389556 0.279012 0.00619357
1070 4 0.409339 0.289145 0.0176452
957 4 0.341948 0.325796 0.0140348
671 4 0.445327 0.31536 0.0688976
280 2 0.437701 0.313599 0.0343297
281 4 0.450594 0.325493 0.0521475
282 4 0.424807 0.301706 0.0165119
550 2 0.0697536 0.411146 0.0684169
330 4 0.0056867 0.403292 0.0165639
288 4 0.160408 0.35093 0.0356736
552 4 0.0936445 0.405486 0.0636874
455 4 0.106203 0.392921 0.0739054
286 2 0.17294 0.349034 0.0141205
287 4 0.185472 0.347139 0.992567
250 2 0.304994 0.398942 0.0223058
251 4 0.311592 0.384642 0.00288523
609 4 0.296928 0.425208 0.0587249
607 2 0.311326 0.416374 0.0771595
741 4 0.342053 0.355761 0.0371837
739 2 0.34762 0.353683 0.0614709
551 4 0.0458626 0.416805 0.0731464
328 2 0.00737432 0.428203 0.017894
329 4 0.00906195 0.453114 0.0192241
245 4 0.211831 0.446828 0.0409783
626 4 0.219018 0.443048 0.0591879
244 2 0.231898 0.442727 0.0266357
625 2 0.210892 0.451115 0.0814154
246 4 0.251964 0.438627 0.0122932
252 4 0.298397 0.413242 0.0417263
272 4 0.26297 0.452379 0.00540045
563 4 0.459205 0.476906 0.0774261
562 2 0.449078 0.49637 0.0654354
1668 4 0.0668915 0.0303622 0.0834871
1666 2 0.0778435 0.0513907 0.0914267
19 3 0.05639 0.0688311 0.144625
1667 4 0.0887955 0.0724191 0.0993663
448 2 0.166089 0.0700585 0.139948
450 4 0.167291 0.0455585 0.144793
490 2 0.299977 0.0647145 0.0985068
652 2 0.302559 0.0154072 0.152222
653 4 0.325224 0.0252871 0.148502
2722 2 0.487173 0.0573142 0.139927
2723 4 0.482274 0.0817621 0.138062
2724 4 0.492072 0.0328663 0.141793
380 4 0.0284867 0.145188 0.151519
449 4 0.164886 0.0945586 0.135102
701 4 0.0874667 0.0923003 0.0970548
700 2 0.10507 0.102622 0.111504
702 4 0.122672 0.112944 0.125953
476 4 0.118779 0.127599 0.139262
475 2 0.115577 0.138161 0.161698
237 4 0.165122 0.149762 0.158587
235 2 0.172995 0.127698 0.149849
236 4 0.180868 0.105633 0.141111
491 4 0.31486 0.0791106 0.112522
359 4 0.295019 0.139521 0.072787
581 4 0.29114 0.112986 0.152402
628 2 0.414401 0.136649 0.128101
630 4 0.405756 0.159964 0.125481
254 4 0.386401 0.156113 0.120327
310 2 0.417296 0.0817141 0.155548
629 4 0.423045 0.113334 0.13072
312 4 0.423049 0.0941772 0.134649
337 2 0.0793882 0.233849 0.144927
339 4 0.0687904 0.23797 0.122658
567 4 0.215616 0.176536 0.0836016
737 4 0.208575 0.198282 0.148434
736 2 0.206307 0.206691 0.124996
738 4 0.204039 0.2151 0.101559
277 2 0.244603 0.233976 0.162132
461 4 0.302988 0.224079 0.084055
460 2 0.323284 0.210142 0.0884155
354 4 0.285433 0.231985 0.0913022
352 2 0.280859 0.236045 0.115546
284 4 0.280247 0.23583 0.158132
353 4 0.276286 0.240106 0.13979
278 4 0.263949 0.24493 0.15069
255 4 0.362107 0.194551 0.0995186
462 4 0.343579 0.196204 0.0927759
253 2 0.374254 0.175332 0.109923
765 4 0.376283 0.226267 0.147465
624 4 0.39033 0.2408 0.1426
518 4 0.494287 0.231923 0.117965
536 4 0.190974 0.313891 0.117744
535 2 0.192226 0.333102 0.133698
754 2 0.272415 0.280148 0.147756
755 4 0.268848 0.257967 0.13678
622 2 0.385862 0.256364 0.123548
623 4 0.381394 0.271929 0.104497
670 2 0.431271 0.322927 0.0881416
672 4 0.417214 0.330495 0.107386
528 4 0.47174 0.244603 0.134929
526 2 0.469768 0.260013 0.154521
621 4 0.00604179 0.364601 0.134019
619 2 0.00274005 0.362249 0.109346
620 4 0.999438 0.359898 0.0846732
454 2 0.125699 0.393388 0.0895532
456 4 0.145196 0.393855 0.105201
537 4 0.193478 0.352314 0.149652
302 4 0.322704 0.379044 0.152941
387 4 0.32059 0.366094 0.138198
608 4 0.325724 0.40754 0.0955941
385 2 0.338878 0.362005 0.121646
740 4 0.353188 0.351606 0.085758
15 3 0.377746 0.359969 0.105744
386 4 0.357167 0.357916 0.105093
11 1 0.39697 0.365758 0.116493
13 3 0.393359 0.36635 0.139406
14 3 0.404244 0.386509 0.109082
495 4 0.42156 0.393903 0.116335
12 3 0.413209 0.350119 0.111926
596 4 0.488073 0.41112 0.157777
493 2 0.432814 0.412272 0.129027
637 2 0.239281 0.498175 0.137191
627 4 0.202765 0.459182 0.103643
638 4 0.250796 0.480878 0.151097
525 4 0.341517 0.484581 0.121492
658 2 0.365584 0.447937 0.123334
659 4 0.370892 0.445271 0.0990463
660 4 0.360277 0.450602 0.147622
228 4 0.474893 0.487813 0.0836094
227 4 0.501829 0.449714 0.1016
226 2 0.488361 0.468763 0.0926046
494 4 0.444069 0.430641 0.141719
20 3 0.0673208 0.0772189 0.179666
16 1 0.0595962 0.0606397 0.166097
17 3 0.0394853 0.052964 0.174208
2480 4 0.022779 0.044248 0.174388
18 3 0.0747244 0.0430507 0.165688
1422 4 0.017193 0.0260825 0.179326
1420 2 0.0206167 0.00402298 0.190588
578 4 0.0557529 0.0845612 0.233067
673 2 0.110335 0.0377476 0.23672
674 4 0.122831 0.0445351 0.216154
689 4 0.180214 0.0388819 0.231971
688 2 0.176387 0.0197846 0.24765
692 4 0.216329 0.0772951 0.238674
24 3 0.321823 0.0439991 0.229801
21 1 0.34404 0.0374566 0.231204
25 3 0.35243 0.033913 0.21033
759 4 0.365649 0.0505799 0.219749
22 3 0.356076 0.0541556 0.241473
757 2 0.383654 0.0620659 0.206747
758 4 0.401659 0.0735518 0.193744
311 4 0.411543 0.0692511 0.176447
23 3 0.345809 0.0180776 0.243842
742 2 0.472496 0.0556113 0.213962
744 4 0.49104 0.0390555 0.216648
743 4 0.453953 0.0721671 0.211276
577 2 0.0787454 0.0930462 0.228114
379 2 0.0226771 0.145308 0.175838
381 4 0.0168676 0.145427 0.200157
511 2 0.0373307 0.162147 0.230488
512 4 0.0213513 0.146318 0.219566
477 4 0.112376 0.148723 0.184134
579 4 0.101738 0.101531 0.223161
691 2 0.230853 0.0810528 0.218671
693 4 0.245376 0.0848105 0.198668
582 4 0.284628 0.0900474 0.196358
580 2 0.287884 0.101517 0.17438
28 3 0.293972 0.138489 0.233862
27 3 0.315758 0.16908 0.235333
632 4 0.354218 0.108173 0.234176
331 2 0.450834 0.152214 0.2469
333 4 0.443668 0.128834 0.241683
513 4 0.0533101 0.177975 0.241411
396 4 0.00295161 0.239214 0.248108
393 4 0.0611214 0.190944 0.25449
338 4 0.089986 0.229728 0.167195
363 4 0.088426 0.236726 0.185621
279 4 0.225256 0.223023 0.173574
283 2 0.301489 0.229455 0.169679
285 4 0.322731 0.22308 0.181225
763 2 0.35647 0.231131 0.16192
764 4 0.336656 0.235995 0.176374
520 2 0.477189 0.202032 0.235239
521 4 0.454871 0.191467 0.239168
394 2 0.00370956 0.252509 0.226946
395 4 0.00446752 0.265805 0.205784
361 2 0.0946329 0.249455 0.206227
371 4 0.163597 0.2898 0.226407
370 2 0.142352 0.276833 0.22879
372 4 0.121107 0.263866 0.231174
748 2 0.0954133 0.304972 0.221697
362 4 0.10084 0.262184 0.226834
749 4 0.0971153 0.280125 0.21948
648 4 0.0822498 0.330761 0.185758
343 2 0.232503 0.311822 0.241292
345 4 0.216585 0.329242 0.233026
756 4 0.275983 0.302329 0.158732
344 4 0.248421 0.294402 0.249559
612 4 0.271654 0.309448 0.176997
307 2 0.3258 0.29135 0.244167
308 4 0.314589 0.283351 0.223298
527 4 0.467795 0.275422 0.174113
647 4 0.0633299 0.376999 0.183568
646 2 0.0727898 0.35388 0.184663
750 4 0.0937114 0.329818 0.223915
417 4 0.161953 0.395454 0.18745
415 2 0.186711 0.398648 0.188855
291 4 0.227982 0.390278 0.189013
416 4 0.21147 0.401841 0.190261
289 2 0.243307 0.408347 0.197002
610 2 0.283679 0.331013 0.180938
611 4 0.295703 0.352579 0.184879
303 4 0.30674 0.386826 0.199688
301 2 0.314722 0.382935 0.176315
729 4 0.303042 0.401891 0.213799
727 2 0.305065 0.390406 0.235916
595 2 0.469918 0.398931 0.169901
597 4 0.451763 0.386742 0.182025
643 2 0.428338 0.378026 0.20889
644 4 0.42186 0.363701 0.228332
645 4 0.434815 0.392352 0.189447
447 4 0.417385 0.359209 0.247726
264 4 0.0257576 0.442818 0.203698
262 2 0.0171043 0.429596 0.223076
767 4 0.241099 0.48111 0.169339
290 4 0.258631 0.426417 0.204992
768 4 0.258972 0.440402 0.192234
766 2 0.250036 0.460756 0.180787
229 2 0.420803 0.493611 0.242696
1568 4 0.481275 0.490523 0.171895
234 4 0.00807756 0.0542044 0.321205
232 2 0.0186752 0.0507959 0.298816
233 4 0.0292729 0.0473875 0.276428
1402 2 0.0703941 0.0333859 0.280262
1404 4 0.0476192 0.0424351 0.285222
690 4 0.17256 0.000687309 0.263329
675 4 0.0978385 0.0309601 0.257286
1403 4 0.0931689 0.0243367 0.275303
1464 4 0.10805 0.0144446 0.286837
723 4 0.205163 0.0850589 0.253841
721 2 0.212341 0.0825057 0.277656
722 4 0.219518 0.0799524 0.301471
1700 4 0.276115 0.038511 0.312223
699 4 0.353429 0.0619297 0.32625
478 2 0.47461 0.0516287 0.296193
480 4 0.450021 0.0491496 0.292394
351 4 0.434171 0.0592599 0.286355
479 4 0.499198 0.0541077 0.299992
349 2 0.433328 0.0801756 0.27268
531 4 0.00425177 0.151396 0.264018
732 4 0.0821837 0.101813 0.324359
399 4 0.0664405 0.107426 0.332516
392 4 0.0963465 0.171512 0.284194
249 4 0.225114 0.0947185 0.313609
403 2 0.234303 0.132446 0.297018
404 4 0.23598 0.112401 0.311869
405 4 0.232626 0.152492 0.282167
26 1 0.305076 0.15314 0.24802
29 3 0.320903 0.141636 0.260492
633 4 0.343019 0.122917 0.28063
631 2 0.348618 0.115545 0.257403
706 2 0.340393 0.154439 0.311665
707 4 0.343405 0.139773 0.29164
350 4 0.432486 0.101091 0.259005
391 2 0.078734 0.181228 0.269342
442 2 0.0101697 0.246204 0.282899
443 4 0.0194757 0.242782 0.259946
444 4 0.000863665 0.249626 0.305853
546 4 0.130055 0.181545 0.267367
544 2 0.154073 0.183071 0.27415
545 4 0.17809 0.184598 0.280934
30 3 0.29017 0.163342 0.261889
717 4 0.365145 0.216391 0.336625
332 4 0.458001 0.175593 0.252117
762 4 0.471955 0.176241 0.265355
761 4 0.484627 0.193496 0.310548
760 2 0.478291 0.184869 0.287951
390 4 0.0981608 0.261214 0.302289
388 2 0.0876781 0.263187 0.324903
400 2 0.192867 0.274674 0.292838
402 4 0.201608 0.294822 0.280886
401 4 0.184126 0.254526 0.304789
676 2 0.179893 0.3294 0.326265
496 2 0.320216 0.319112 0.291687
497 4 0.29958 0.323046 0.305247
498 4 0.340852 0.315179 0.278127
377 4 0.283118 0.323857 0.317018
376 2 0.275913 0.302022 0.326843
309 4 0.337011 0.29935 0.265035
615 4 0.374405 0.324935 0.33572
541 2 0.385416 0.283353 0.333587
542 4 0.397674 0.261561 0.333324
420 4 0.416249 0.262396 0.327183
263 4 0.00845105 0.416374 0.242453
364 2 0.0162305 0.359965 0.29266
365 4 0.0323123 0.375538 0.281522
601 2 0.0662742 0.38955 0.296211
603 4 0.0470927 0.387629 0.280288
549 4 0.08742 0.406874 0.324832
300 4 0.102513 0.356439 0.267804
298 2 0.125605 0.364456 0.262545
299 4 0.148697 0.372473 0.257287
602 4 0.0854558 0.391471 0.312135
734 4 0.168622 0.373869 0.260955
733 2 0.179204 0.360885 0.279519
677 4 0.17226 0.341093 0.305524
735 4 0.189786 0.3479 0.298082
510 4 0.220547 0.356411 0.338311
433 2 0.309553 0.36895 0.32423
728 4 0.307087 0.378921 0.258034
613 2 0.36009 0.342891 0.325828
434 4 0.327571 0.353582 0.31621
614 4 0.345776 0.360847 0.315936
445 2 0.424055 0.370195 0.269174
446 4 0.430724 0.38118 0.290622
777 4 0.0978538 0.463411 0.299559
775 2 0.0876407 0.479792 0.31545
414 4 0.221382 0.490881 0.332093
412 2 0.209957 0.483811 0.311006
413 4 0.198531 0.476741 0.28992
1803 4 0.323763 0.509128 0.258063
436 2 0.33431 0.458443 0.310633
437 4 0.334377 0.450022 0.287091
231 4 0.417571 0.471216 0.253336
118 3 0.495002 0.417715 0.339607
116 1 0.497355 0.440784 0.338782
119 3 0.483983 0.449514 0.321947
713 4 0.41933 0.44891 0.328012
712 2 0.443009 0.446476 0.320359
714 4 0.466688 0.444042 0.312706
427 2 0.0759168 0.0126378 0.339988
316 2 0.0643076 0.0675378 0.347255
317 4 0.0585127 0.045461 0.357464
428 4 0.0573987 0.0275805 0.347668
1781 4 0.119514 0.0165074 0.415682
368 4 0.100722 0.0217077 0.412621
1701 4 0.241432 0.0246573 0.345477
1699 2 0.258773 0.0315842 0.32885
683 4 0.318037 0.0788495 0.358576
698 4 0.392471 0.0555468 0.35684
257 4 0.406204 0.054369 0.342008
697 2 0.37295 0.0587382 0.341545
426 4 0.353418 0.0213871 0.417174
2642 4 0.49263 0.0668721 0.402657
256 2 0.426252 0.0396685 0.344687
258 4 0.446299 0.0249679 0.347365
2586 4 0.0129535 0.125668 0.382602
318 4 0.0701025 0.0896145 0.337047
398 4 0.0482915 0.145919 0.358777
397 2 0.057366 0.126673 0.345646
457 2 0.0323162 0.148651 0.411899
458 4 0.0200341 0.129808 0.400978
606 4 0.129976 0.0998909 0.36112
731 4 0.129545 0.101215 0.340398
730 2 0.105864 0.101514 0.332379
604 2 0.154323 0.0946818 0.363422
599 4 0.135069 0.17005 0.387053
598 2 0.143772 0.153873 0.37009
600 4 0.152474 0.137695 0.353127
247 2 0.210923 0.0918048 0.333988
605 4 0.178669 0.0894727 0.365725
248 4 0.196732 0.088891 0.354367
682 2 0.307356 0.0881792 0.379168
684 4 0.296675 0.097509 0.399761
708 4 0.33738 0.169105 0.33169
452 4 0.477902 0.115361 0.40465
451 2 0.461251 0.134 0.405339
453 4 0.444599 0.15264 0.406028
474 4 0.203953 0.224634 0.38234
276 4 0.185326 0.229225 0.378304
472 2 0.227305 0.21729 0.387435
473 4 0.250656 0.209947 0.39253
715 2 0.378862 0.219754 0.357258
716 4 0.392579 0.223118 0.377891
467 4 0.387261 0.219786 0.396389
269 4 0.484469 0.251527 0.395714
418 2 0.432411 0.249754 0.341472
419 4 0.448572 0.237112 0.355761
268 2 0.471655 0.231689 0.403927
347 4 0.050785 0.292359 0.380825
346 2 0.04506 0.298371 0.40441
618 4 0.0604306 0.295631 0.363383
616 2 0.0772042 0.312844 0.356487
389 4 0.0771954 0.265159 0.347517
617 4 0.0939778 0.330056 0.349591
274 2 0.181691 0.253366 0.383705
275 4 0.178056 0.277508 0.389105
678 4 0.187526 0.317707 0.347006
378 4 0.268708 0.280188 0.336668
488 4 0.286543 0.25369 0.415202
543 4 0.373159 0.305144 0.333851
375 4 0.196152 0.319443 0.364464
374 4 0.183371 0.349017 0.40271
373 2 0.189762 0.33423 0.383587
508 2 0.243564 0.3589 0.347757
509 4 0.266581 0.361388 0.357202
435 4 0.291534 0.384318 0.33225
559 2 0.48827 0.407172 0.407164
561 4 0.473198 0.412715 0.388
752 4 0.454793 0.417188 0.392915
776 4 0.0774276 0.496173 0.331342
547 2 0.0776406 0.419719 0.343925
548 4 0.0678612 0.432563 0.363018
407 4 0.0781329 0.444102 0.375719
406 2 0.086095 0.444638 0.399414
501 4 0.114088 0.499764 0.388572
570 4 0.168432 0.477239 0.40266
1436 4 0.260211 0.504812 0.344922
3 3 0.331109 0.467276 0.354812
5 3 0.294377 0.474295 0.359187
1 1 0.315349 0.482721 0.361986
4 3 0.318898 0.487862 0.384333
438 4 0.334242 0.466865 0.334176
594 4 0.410123 0.466458 0.359054
592 2 0.400651 0.486721 0.370229
1742 4 0.417553 0.510105 0.342707
117 3 0.490691 0.449664 0.358929
751 2 0.451121 0.420248 0.368373
753 4 0.44745 0.423307 0.34383
718 2 0.0734204 0.033955 0.489033
720 4 0.0500275 0.0267429 0.494126
719 4 0.0968133 0.041167 0.48394
369 4 0.0780302 0.0213737 0.457182
367 2 0.0893763 0.0215407 0.434901
441 4 0.304319 0.0286394 0.425154
962 4 0.310432 0.0286382 0.444104
961 2 0.302844 0.04104 0.464446
963 4 0.295256 0.0534418 0.484787
424 2 0.362584 0.0273337 0.439664
425 4 0.37175 0.0332803 0.462155
725 4 0.400248 0.0649006 0.460177
724 2 0.378876 0.0778721 0.460587
2879 4 0.482365 0.0701923 0.419435
686 4 0.158991 0.151821 0.437371
320 4 0.298667 0.0982281 0.420061
1181 4 0.25537 0.10219 0.494525
321 4 0.260204 0.125756 0.436296
319 2 0.279435 0.111992 0.428178
1182 4 0.277031 0.146986 0.48954
1180 2 0.2662 0.124588 0.492032
726 4 0.357504 0.0908436 0.460997
2878 2 0.487327 0.0899466 0.433938
2880 4 0.492289 0.109701 0.44844
640 2 0.487872 0.117308 0.479965
515 4 0.448951 0.157574 0.425658
514 2 0.429063 0.16209 0.440124
260 4 0.0520955 0.17996 0.437663
459 4 0.0445983 0.167494 0.42282
471 4 0.0235915 0.191482 0.491547
259 2 0.0768929 0.182101 0.435278
695 4 0.0725285 0.234614 0.468871
685 2 0.139839 0.167488 0.433773
687 4 0.120688 0.183155 0.430175
261 4 0.10169 0.184242 0.432893
1035 4 0.114669 0.189925 0.447514
1033 2 0.114483 0.204518 0.467818
1034 4 0.114297 0.21911 0.488121
857 4 0.22188 0.25358 0.494885
489 4 0.309323 0.230795 0.453381
411 4 0.314911 0.211836 0.454454
466 2 0.384887 0.215967 0.420985
409 2 0.339453 0.209714 0.450167
574 2 0.386331 0.176155 0.490025
410 4 0.363995 0.207593 0.445879
468 4 0.382513 0.212148 0.445581
575 4 0.397954 0.175701 0.467892
516 4 0.409175 0.166605 0.45459
305 4 0.48696 0.194572 0.443488
270 4 0.458841 0.211852 0.41214
304 2 0.503025 0.18273 0.428425
348 4 0.0393351 0.304384 0.427995
694 2 0.0860003 0.25346 0.47828
696 4 0.0994721 0.272306 0.487688
9 3 0.161956 0.311528 0.473389
1258 2 0.135893 0.284727 0.490242
1259 4 0.157628 0.292477 0.480612
651 4 0.249379 0.298456 0.480282
487 2 0.297933 0.242243 0.434291
649 2 0.264272 0.280498 0.489276
650 4 0.279164 0.26254 0.49827
266 4 0.375457 0.303465 0.461832
267 4 0.389198 0.255391 0.460923
265 2 0.382327 0.279428 0.461377
583 2 0.474212 0.281689 0.477589
585 4 0.459357 0.291716 0.460155
584 4 0.489068 0.271661 0.495022
2846 4 0.0137784 0.361399 0.49336
326 4 0.08147 0.341961 0.456021
6 1 0.159435 0.334276 0.477204
327 4 0.128286 0.35676 0.465506
325 2 0.104878 0.349361 0.460764
7 3 0.141112 0.341793 0.465504
10 3 0.177968 0.345446 0.470104
711 4 0.170097 0.372628 0.436066
502 2 0.247858 0.394958 0.425406
504 4 0.225863 0.405524 0.419948
709 2 0.189979 0.387623 0.433825
710 4 0.209861 0.402617 0.431584
503 4 0.269853 0.384393 0.430864
336 4 0.326884 0.387712 0.419923
669 4 0.283935 0.406312 0.460947
668 4 0.315546 0.377489 0.435049
667 2 0.299741 0.391901 0.447998
334 2 0.34859 0.375745 0.423215
335 4 0.370295 0.363778 0.426506
238 2 0.404496 0.381281 0.443574
240 4 0.389392 0.364335 0.433093
239 4 0.419601 0.398227 0.454055
680 4 0.00778051 0.447735 0.442594
1383 4 0.0131909 0.46642 0.449792
679 2 0.00203182 0.42501 0.433892
1381 2 0.019979 0.489586 0.456306
384 4 0.13055 0.428107 0.461398
408 4 0.0940572 0.445174 0.42311
382 2 0.108427 0.432259 0.45051
383 4 0.0863051 0.43641 0.439622
569 4 0.156113 0.484395 0.450595
568 2 0.162272 0.480817 0.426627
1557 4 0.259765 0.498529 0.424036
634 2 0.26556 0.462887 0.446943
774 4 0.27685 0.423646 0.463913
636 4 0.25585 0.48443 0.438772
635 4 0.275269 0.441343 0.455114
772 2 0.275215 0.426654 0.488681
586 2 0.390747 0.443636 0.444428
587 4 0.387343 0.423414 0.430121
880 2 0.3499 0.441351 0.48508
882 4 0.349459 0.434422 0.46106
588 4 0.39415 0.463857 0.458735
663 4 0.457258 0.451467 0.478494
661 2 0.456355 0.476345 0.476162
2237 4 0.0478314 0.0107565 0.505649
1058 4 0.144019 0.0753786 0.575251
1031 4 0.244684 0.0635733 0.579437
340 2 0.219365 0.069205 0.506639
341 4 0.228726 0.0469843 0.500021
2430 4 0.218044 0.0305376 0.497867
430 2 0.313782 0.0619707 0.521091
432 4 0.298461 0.0512382 0.5045
431 4 0.329103 0.0727033 0.537682
841 2 0.371331 0.0622536 0.524865
842 4 0.395808 0.0586999 0.521196
843 4 0.346855 0.0658072 0.528533
1217 4 0.397351 0.0388343 0.523542
1216 2 0.414071 0.0235641 0.534146
1218 4 0.430792 0.00829397 0.544749
3007 2 0.493801 0.0623558 0.577014
1128 4 0.00272246 0.0884673 0.584587
937 2 0.0940238 0.16072 0.568358
1059 4 0.125902 0.121985 0.57584
1057 2 0.13496 0.0986816 0.575545
1151 4 0.153126 0.116677 0.522725
342 4 0.210005 0.0914257 0.513257
1030 2 0.229517 0.0810944 0.570048
1152 4 0.197975 0.104938 0.503977
1150 2 0.175551 0.110808 0.513351
1032 4 0.214351 0.0986155 0.560659
3159 4 0.496721 0.160618 0.5236
641 4 0.469856 0.11983 0.497119
938 4 0.0743754 0.162943 0.553055
877 2 0.0491253 0.208442 0.576185
879 4 0.0729807 0.20395 0.582178
470 4 0.0248391 0.179369 0.540049
469 2 0.0242153 0.185426 0.515798
878 4 0.0252699 0.212934 0.570191
1272 4 0.0901136 0.212052 0.57958
1270 2 0.11079 0.225046 0.58495
858 4 0.210783 0.237597 0.540951
856 2 0.216332 0.245589 0.517918
898 2 0.315096 0.186919 0.567939
900 4 0.314521 0.199577 0.546384
576 4 0.374708 0.176608 0.512158
3157 2 0.502106 0.180107 0.538309
983 4 0.0329328 0.315864 0.530731
1245 4 0.0474438 0.281802 0.570983
1260 4 0.114159 0.276977 0.499871
872 4 0.354648 0.280164 0.516848
871 2 0.36621 0.301657 0.522286
873 4 0.377772 0.32315 0.527723
953 4 0.43758 0.267936 0.580041
982 2 0.0258097 0.335855 0.543953
984 4 0.0186867 0.355846 0.557174
3354 4 0.0209489 0.371066 0.570849
3352 2 0.00426352 0.386973 0.561166
8 3 0.156015 0.338184 0.499819
1189 2 0.22453 0.3775 0.565386
1191 4 0.209229 0.395783 0.572923
1190 4 0.239831 0.359217 0.55785
803 4 0.253707 0.345296 0.552586
1172 4 0.221356 0.411325 0.572426
896 4 0.196933 0.395043 0.58848
802 2 0.264216 0.354833 0.532
930 4 0.332171 0.356125 0.573745
804 4 0.274726 0.364371 0.511414
773 4 0.27358 0.429662 0.513449
813 4 0.36499 0.3396 0.527818
928 2 0.341921 0.378225 0.567289
811 2 0.369761 0.358119 0.511711
929 4 0.351671 0.400326 0.560834
927 4 0.413596 0.38765 0.513254
812 4 0.374533 0.376638 0.495604
926 4 0.438254 0.358428 0.545485
925 2 0.425925 0.373039 0.529369
3309 4 0.480434 0.387569 0.520856
3307 2 0.493712 0.371204 0.5074
539 4 0.062208 0.485665 0.514617
2244 4 0.127207 0.490005 0.529789
538 2 0.0854744 0.482598 0.523245
1159 2 0.147547 0.478747 0.569541
540 4 0.108741 0.479531 0.531873
1160 4 0.125754 0.472034 0.559285
1188 4 0.182587 0.499446 0.57802
1161 4 0.16934 0.485461 0.579796
1002 4 0.411178 0.42973 0.55255
881 4 0.350341 0.44828 0.509101
1911 4 0.459313 0.491367 0.540277
1000 2 0.434905 0.435673 0.557737
1001 4 0.458632 0.441615 0.562923
1126 2 0.0253897 0.0809848 0.592029
1127 4 0.048057 0.0735022 0.599471
1083 4 0.0512173 0.0704667 0.618264
1081 2 0.0558895 0.0823266 0.639774
825 4 0.120654 0.0230871 0.636857
823 2 0.137038 0.0095963 0.623639
951 4 0.253669 0.0464987 0.582399
949 2 0.276125 0.044624 0.593235
950 4 0.29858 0.0427494 0.60407
2283 4 0.404313 0.025308 0.635303
3008 4 0.472402 0.0627312 0.589941
809 4 0.459964 0.0606432 0.604772
808 2 0.456795 0.071245 0.627194
2281 2 0.419721 0.00729905 0.627338
1082 4 0.0605618 0.0941864 0.661285
939 4 0.113672 0.158497 0.583661
1155 4 0.122498 0.142214 0.582521
1153 2 0.14134 0.153553 0.59442
1283 4 0.152498 0.110459 0.63085
1282 2 0.157126 0.105051 0.654819
1154 4 0.160183 0.164892 0.606318
909 4 0.166551 0.153508 0.662779
810 4 0.453626 0.0818468 0.649615
45 3 0.456123 0.104582 0.652133
1199 4 0.0158712 0.213304 0.587811
1271 4 0.131465 0.23804 0.590321
1221 4 0.17282 0.178923 0.607207
1212 4 0.230593 0.200949 0.626416
1219 2 0.196962 0.184829 0.609945
1220 4 0.221103 0.190735 0.612684
899 4 0.315671 0.174261 0.589494
1210 2 0.246467 0.191842 0.643453
1194 4 0.324865 0.180333 0.6584
1211 4 0.262342 0.182735 0.660489
888 4 0.267332 0.16622 0.671042
1193 4 0.366132 0.208462 0.660939
1192 2 0.345498 0.194398 0.65967
1244 4 0.0573739 0.261105 0.61541
1243 2 0.0524089 0.271453 0.593196
1136 4 0.124127 0.3189 0.603467
948 4 0.148856 0.296295 0.607834
796 2 0.217339 0.256133 0.59529
946 2 0.170171 0.286304 0.599405
798 4 0.196374 0.259657 0.582129
947 4 0.191485 0.276312 0.590976
797 4 0.238305 0.252609 0.608452
791 4 0.25593 0.26206 0.614077
792 4 0.287361 0.300836 0.617114
790 2 0.271646 0.281448 0.615596
1238 4 0.304287 0.304483 0.607424
1237 2 0.318631 0.3224 0.597503
807 4 0.332749 0.291912 0.660249
805 2 0.346514 0.312153 0.655148
954 4 0.399859 0.297644 0.594014
806 4 0.360278 0.332394 0.650047
904 2 0.480652 0.268399 0.592431
906 4 0.455894 0.266602 0.589434
952 2 0.418719 0.28279 0.587027
1039 2 0.0634677 0.407733 0.628536
1041 4 0.0417874 0.396067 0.624173
3264 4 0.0226397 0.390737 0.623376
3262 2 0.0126606 0.368195 0.6192
3240 4 0.0108987 0.40343 0.613193
1040 4 0.085148 0.4194 0.6329
993 4 0.101621 0.40608 0.630095
1137 4 0.140557 0.366129 0.603916
897 4 0.150766 0.375993 0.591008
1135 2 0.132342 0.342515 0.603691
991 2 0.117865 0.395032 0.614628
992 4 0.134109 0.383984 0.599161
895 2 0.17385 0.385518 0.589744
1239 4 0.332974 0.340317 0.587582
1204 2 0.39397 0.384332 0.649638
1206 4 0.405289 0.375659 0.629099
1205 4 0.382651 0.393006 0.670176
2172 4 0.123058 0.49638 0.662031
1171 2 0.224593 0.43329 0.583924
1173 4 0.22783 0.455256 0.595423
1187 4 0.220621 0.473002 0.596858
1186 2 0.201604 0.486224 0.587439
889 2 0.297829 0.45867 0.623805
891 4 0.287159 0.451288 0.645178
890 4 0.3085 0.466051 0.602431
1952 4 0.31986 0.482817 0.598122
1951 2 0.334009 0.494922 0.581436
1230 4 0.382545 0.474356 0.659478
1269 4 0.441785 0.476731 0.625722
1267 2 0.451937 0.49338 0.641372
943 2 0.0481818 0.0529587 0.698388
945 4 0.0387209 0.0303112 0.703159
944 4 0.0576428 0.0756061 0.693617
1203 4 0.131877 0.0781114 0.750719
1201 2 0.120302 0.0576027 0.759121
1147 2 0.224243 0.0544235 0.724581
1149 4 0.236844 0.0328605 0.725782
1148 4 0.211642 0.0759865 0.723381
1004 4 0.383538 0.0505115 0.677714
1003 2 0.385221 0.0726285 0.689254
42 3 0.446743 0.0726209 0.668968
1163 4 0.464278 0.0752574 0.682826
1162 2 0.475942 0.0546791 0.69093
2320 2 0.478675 0.0281527 0.736945
2321 4 0.486312 0.0219541 0.713957
1164 4 0.487605 0.0341009 0.699034
1076 4 0.0619337 0.089913 0.681655
862 2 0.0293577 0.12272 0.740386
864 4 0.0508573 0.130148 0.730005
1075 2 0.059625 0.109498 0.697026
1077 4 0.0573163 0.129083 0.712397
1107 4 0.0639112 0.143729 0.722491
851 4 0.0546892 0.1455 0.704134
1105 2 0.0755375 0.152754 0.742704
1284 4 0.161755 0.0996432 0.678788
908 4 0.184642 0.154427 0.709391
907 2 0.175596 0.153968 0.686085
1227 4 0.19785 0.140415 0.714913
1225 2 0.205845 0.117492 0.720895
1226 4 0.21384 0.0945685 0.726877
829 2 0.33232 0.159095 0.710733
830 4 0.325674 0.166622 0.687835
1005 4 0.386904 0.0947455 0.700795
831 4 0.338965 0.151568 0.733632
43 3 0.431923 0.105007 0.680975
41 1 0.450911 0.0950207 0.672135
44 3 0.468674 0.0973332 0.686883
3425 4 0.474462 0.1065 0.666853
3424 2 0.49854 0.112948 0.664888
852 4 0.0538737 0.188473 0.678571
850 2 0.0542814 0.166987 0.691353
1177 2 0.0200935 0.219543 0.69956
1178 4 0.0103075 0.213612 0.721792
1179 4 0.0298795 0.225473 0.677329
1073 4 0.141173 0.228432 0.741861
978 4 0.238963 0.211886 0.724091
886 2 0.291468 0.172415 0.673099
887 4 0.315604 0.178611 0.675157
976 2 0.259745 0.217951 0.7366
918 4 0.293505 0.23778 0.746078
1025 4 0.419574 0.202005 0.664065
1262 4 0.448409 0.225955 0.712225
1142 4 0.436477 0.191573 0.711219
1024 2 0.433792 0.20475 0.684449
1141 2 0.434214 0.183343 0.73472
1026 4 0.448009 0.207495 0.704833
1261 2 0.462664 0.233697 0.731252
1263 4 0.476919 0.241438 0.75028
3123 4 0.491113 0.249109 0.669551
1209 4 0.142895 0.278453 0.683346
1072 2 0.13341 0.251761 0.746405
1207 2 0.120739 0.278772 0.694931
1208 4 0.0985841 0.279092 0.706516
821 4 0.155334 0.330818 0.688868
1074 4 0.125646 0.275091 0.750949
820 2 0.170082 0.310666 0.687617
822 4 0.18483 0.290514 0.686365
1065 4 0.247742 0.316816 0.71644
1063 2 0.251248 0.300295 0.698002
1064 4 0.254755 0.283774 0.679564
916 2 0.295403 0.262709 0.745731
917 4 0.297301 0.287638 0.745384
1008 4 0.360402 0.282339 0.747044
892 2 0.023743 0.357471 0.707088
893 4 0.0184476 0.338518 0.691664
894 4 0.0290385 0.376425 0.722512
1280 4 0.0467529 0.379013 0.733246
1279 2 0.0508489 0.403381 0.729424
816 4 0.0579791 0.362691 0.734734
942 4 0.116253 0.371193 0.753377
1028 4 0.212283 0.360658 0.703511
1066 2 0.190609 0.37864 0.738327
1068 4 0.205607 0.367305 0.721843
1027 2 0.227233 0.379285 0.696116
1029 4 0.242183 0.397913 0.688722
1140 4 0.248596 0.416198 0.694414
1019 4 0.357805 0.393444 0.726296
1981 2 0.0647638 0.459979 0.721904
1281 4 0.0549448 0.427749 0.725602
1983 4 0.0654057 0.437264 0.711475
1982 4 0.0641219 0.482694 0.732334
2016 4 0.197098 0.499949 0.733713
1138 2 0.269967 0.427221 0.687563
1139 4 0.291339 0.438243 0.680712
1988 4 0.32043 0.470238 0.747819
1987 2 0.336316 0.459423 0.731824
1228 2 0.372644 0.467117 0.681267
1229 4 0.362742 0.459878 0.703056
1989 4 0.352203 0.448608 0.715829
1100 4 0.414326 0.448608 0.708082
1099 2 0.424475 0.47142 0.709426
1101 4 0.434624 0.494231 0.71077
1202 4 0.108727 0.0370939 0.767522
2049 4 0.107587 0.0175645 0.766747
2047 2 0.124835 0.999633 0.764264
817 2 0.322457 0.0552959 0.805308
819 4 0.309471 0.0766628 0.805252
1050 4 0.334711 0.000261095 0.777607
818 4 0.335443 0.033929 0.805364
974 4 0.354342 0.00259263 0.782453
2322 4 0.471039 0.0343514 0.759933
845 4 0.454636 0.0747547 0.764126
1112 4 0.446838 0.0918393 0.771411
844 2 0.479029 0.0802436 0.763886
863 4 0.00785804 0.115292 0.750767
833 4 0.00441126 0.117745 0.769779
832 2 0.99702 0.11366 0.793313
911 4 0.102234 0.138285 0.826188
34 3 0.13373 0.160378 0.796016
31 1 0.111353 0.156676 0.800915
35 3 0.104896 0.136369 0.792879
32 3 0.108584 0.157018 0.823748
1106 4 0.0871639 0.161779 0.762916
1257 4 0.232543 0.0923649 0.780909
1256 4 0.269709 0.112631 0.80753
1255 2 0.251126 0.102498 0.794219
1084 2 0.317951 0.110126 0.798631
1085 4 0.304034 0.0943113 0.812098
1086 4 0.331869 0.125942 0.785164
960 4 0.304273 0.0921827 0.832365
1113 4 0.412067 0.0825202 0.806122
1111 2 0.429452 0.0871798 0.788767
846 4 0.503421 0.0857325 0.763646
47 3 0.434961 0.169841 0.807125
3270 4 0.503628 0.147361 0.760141
1214 4 0.00719056 0.215254 0.780605
1213 2 0.00265399 0.220148 0.756509
33 3 0.0983147 0.173416 0.791526
1130 4 0.144998 0.202924 0.786097
1129 2 0.166042 0.214625 0.77936
1131 4 0.187087 0.226325 0.772623