ITEM: TIMESTEP
270000
ITEM: NUMBER OF ATOMS
4590
ITEM: BOX BOUNDS pp pp pp
-9.9985700000000008e+00 9.9985700000000008e+00
-9.9985700000000008e+00 9.9985700000000008e+00
-9.9985700000000008e+00 9.9985700000000008e+00
ITEM: ATOMS id type xs ys zs
463 2 0.0262438 0.0631065 0.0174364
465 4 0.0179122 0.0866808 0.0173189
464 4 0.0345754 0.0395322 0.0175539
1667 4 0.0646531 0.0194624 0.0649487
701 4 0.0876321 0.0806495 0.0521758
700 2 0.0996441 0.0816333 0.0740829
534 4 0.21155 0.0703757 0.0100098
490 2 0.277093 0.0681944 0.058918
491 4 0.287634 0.0596986 0.0799391
492 4 0.266552 0.0766902 0.037897
296 4 0.384024 0.0624429 0.0473823
557 4 0.36826 0.0813931 0.0323136
295 2 0.368166 0.0531482 0.0643326
745 2 0.466502 0.0761264 0.0373366
747 4 0.463452 0.0671075 0.0142166
2975 4 0.466218 0.0471111 0.0114007
2974 2 0.483988 0.0295468 0.0104622
589 2 0.020346 0.119247 0.0587554
590 4 0.0101909 0.140004 0.0492056
3233 4 0.00311452 0.128653 0.0107838
591 4 0.0305012 0.0984903 0.0683052
422 4 0.130122 0.12911 0.00881475
421 2 0.106595 0.137534 0.00797243
565 2 0.207553 0.122686 0.0407864
566 4 0.182858 0.126365 0.0394419
567 4 0.232248 0.119007 0.0421308
358 2 0.283032 0.143194 0.03074
359 4 0.295105 0.135358 0.0102948
360 4 0.270958 0.15103 0.0511851
556 2 0.377362 0.102507 0.0421406
558 4 0.386463 0.12362 0.0519675
746 4 0.469552 0.0851453 0.0604566
553 2 0.0524708 0.218734 0.0218758
555 4 0.0549777 0.195266 0.013621
554 4 0.049964 0.242202 0.0301306
571 2 0.303166 0.241061 0.0473394
573 4 0.284589 0.248546 0.062307
666 4 0.315811 0.198006 0.0084575
461 4 0.313828 0.235325 0.0858198
572 4 0.321744 0.233575 0.0323717
324 4 0.403396 0.215858 0.0573183
322 2 0.413858 0.23444 0.0703734
771 4 0.425804 0.172721 0.0586927
770 4 0.475665 0.169433 0.0567553
769 2 0.450735 0.171077 0.057724
292 2 0.133954 0.319547 0.0155764
293 4 0.148574 0.302105 0.0259305
507 4 0.167464 0.301448 0.0350531
483 4 0.2165 0.281377 0.0587811
505 2 0.183463 0.285903 0.0463468
506 4 0.199462 0.270358 0.0576406
481 2 0.23986 0.28835 0.0532275
357 4 0.266875 0.265947 0.0149387
482 4 0.263221 0.295324 0.047674
957 4 0.335665 0.322883 0.0175146
1071 4 0.387445 0.275946 0.0432706
1069 2 0.40589 0.277045 0.0264261
956 4 0.382169 0.323129 0.999128
1070 4 0.424336 0.278144 0.00958167
955 2 0.358917 0.323006 0.00832141
671 4 0.462165 0.322561 0.057869
280 2 0.461328 0.310572 0.0180148
281 4 0.465216 0.308732 0.0426457
670 2 0.450212 0.327052 0.0793659
330 4 0.0159182 0.385296 0.026201
621 4 0.0310617 0.34961 0.0814126
328 2 0.027196 0.40612 0.01818
294 4 0.119334 0.336989 0.00522234
454 2 0.113342 0.398012 0.0858752
455 4 0.104997 0.411415 0.0664868
552 4 0.0983222 0.422245 0.0514395
288 4 0.19602 0.387667 0.0197306
286 2 0.176797 0.375171 0.0297059
287 4 0.157574 0.362675 0.0396811
252 4 0.280988 0.383499 0.0465618
250 2 0.281417 0.39301 0.0234419
251 4 0.281846 0.402521 0.000322019
550 2 0.0742937 0.424047 0.0447642
551 4 0.0502652 0.425849 0.0380889
241 2 0.166131 0.49403 0.0719993
242 4 0.158752 0.483453 0.0505785
1786 2 0.0971584 0.510267 0.0542266
245 4 0.232007 0.447861 0.0418791
244 2 0.252703 0.449489 0.0279429
246 4 0.273398 0.451118 0.0140067
272 4 0.29314 0.450871 0.016962
271 2 0.304426 0.473182 0.0171713
524 4 0.307188 0.483091 0.0881813
227 4 0.476546 0.45847 0.0533537
562 2 0.441322 0.506538 0.0428997
564 4 0.426161 0.512493 0.0618696
1666 2 0.0587503 0.0223409 0.0890744
1668 4 0.0528475 0.0252194 0.1132
19 3 0.0420234 0.0435647 0.150023
20 3 0.0608475 0.0663655 0.173335
702 4 0.111656 0.082617 0.0959901
450 4 0.15624 0.0751842 0.119271
1504 2 0.241376 0.00666991 0.156918
693 4 0.215659 0.0730405 0.145876
1506 4 0.258642 0.990027 0.149842
652 2 0.301149 0.0226932 0.147562
654 4 0.278256 0.0198731 0.157212
653 4 0.324043 0.0255132 0.137913
297 4 0.352309 0.0438535 0.0812829
758 4 0.402921 0.0816815 0.162099
448 2 0.172039 0.0844511 0.136291
237 4 0.169366 0.160556 0.151976
449 4 0.187838 0.0937181 0.153311
235 2 0.17452 0.136142 0.150372
236 4 0.179674 0.111728 0.148768
582 4 0.295371 0.104986 0.144086
580 2 0.279449 0.113596 0.161335
629 4 0.442645 0.166166 0.143736
476 4 0.130629 0.184781 0.111269
475 2 0.117569 0.179516 0.131931
477 4 0.104509 0.17425 0.152592
337 2 0.0815591 0.240983 0.143629
737 4 0.183431 0.196251 0.105066
736 2 0.204716 0.186128 0.0967193
738 4 0.226001 0.176006 0.0883729
354 4 0.272552 0.219924 0.0902588
284 4 0.270193 0.225282 0.150809
352 2 0.275896 0.234787 0.110085
460 2 0.329695 0.21624 0.0888594
283 2 0.26743 0.20255 0.160848
255 4 0.358573 0.181138 0.0852138
462 4 0.345561 0.197156 0.091899
254 4 0.407126 0.184397 0.0967333
253 2 0.382849 0.182767 0.0909736
630 4 0.419213 0.193936 0.109378
628 2 0.430929 0.180051 0.126557
518 4 0.475198 0.254733 0.103034
339 4 0.0717489 0.251168 0.123008
537 4 0.15947 0.326158 0.152141
277 2 0.249459 0.254836 0.157676
353 4 0.279241 0.24965 0.129911
754 2 0.280239 0.291024 0.12338
755 4 0.283811 0.266933 0.117722
756 4 0.276668 0.315116 0.129038
278 4 0.26636 0.244862 0.142181
612 4 0.267716 0.327439 0.13997
741 4 0.345639 0.31789 0.0910534
622 2 0.38036 0.257434 0.131157
624 4 0.389377 0.247557 0.152283
623 4 0.371343 0.267311 0.11003
323 4 0.42432 0.253022 0.0834285
528 4 0.461463 0.258136 0.159148
672 4 0.438258 0.331544 0.100863
526 2 0.485721 0.263631 0.161711
619 2 0.0232162 0.359641 0.10293
620 4 0.0153707 0.369673 0.124447
646 2 0.0863203 0.35624 0.156238
456 4 0.121687 0.38461 0.105264
648 4 0.107367 0.367796 0.163215
535 2 0.184211 0.327316 0.148721
626 4 0.262166 0.417062 0.0837491
536 4 0.208953 0.328473 0.145301
609 4 0.302729 0.373939 0.0872688
607 2 0.312032 0.397124 0.0883231
610 2 0.263701 0.331178 0.164364
608 4 0.321336 0.420308 0.0893774
739 2 0.359063 0.338275 0.0964783
740 4 0.372488 0.358659 0.101903
387 4 0.33919 0.39203 0.145787
15 3 0.389816 0.359984 0.129975
385 2 0.357509 0.380475 0.133295
386 4 0.375828 0.36892 0.120803
11 1 0.408896 0.358305 0.142295
13 3 0.404133 0.36163 0.16476
14 3 0.424389 0.373997 0.135076
12 3 0.417816 0.337271 0.139619
495 4 0.443126 0.379962 0.128812
493 2 0.44255 0.404913 0.130316
595 2 0.488975 0.404807 0.167675
315 4 0.0219276 0.425928 0.0804688
313 2 0.0150107 0.446363 0.0931078
314 4 0.00809374 0.466798 0.105747
1787 4 0.107341 0.506266 0.0767094
625 2 0.249557 0.438644 0.0843799
627 4 0.236948 0.460227 0.0850107
637 2 0.252619 0.497249 0.13663
523 2 0.318448 0.480297 0.11033
638 4 0.270009 0.488374 0.152251
525 4 0.329707 0.477502 0.13248
658 2 0.373967 0.448585 0.157605
659 4 0.351266 0.438132 0.158376
660 4 0.396668 0.459038 0.156834
494 4 0.441975 0.429865 0.13182
2480 4 0.00792815 0.0490474 0.181054
16 1 0.0458751 0.0492435 0.172189
17 3 0.0260222 0.0558885 0.181721
18 3 0.0539781 0.0308513 0.183785
1422 4 0.00620723 0.0278348 0.179297
1420 2 0.0124847 0.00429148 0.184908
673 2 0.12513 0.0495604 0.239164
674 4 0.137556 0.0712573 0.23931
675 4 0.112704 0.0278636 0.239018
1403 4 0.0962723 0.0313535 0.248459
1505 4 0.22411 0.0233133 0.163994
689 4 0.200809 0.0133929 0.211325
688 2 0.196215 0.010303 0.235708
692 4 0.230321 0.0635612 0.192737
691 2 0.22299 0.0683009 0.169307
21 1 0.368193 0.0451552 0.224999
23 3 0.37129 0.0233948 0.232436
24 3 0.351628 0.0555202 0.237512
25 3 0.3624 0.0450898 0.202975
759 4 0.378828 0.0499952 0.192368
22 3 0.387867 0.0567819 0.227624
757 2 0.390874 0.0658383 0.177233
1760 4 0.485837 0.0191439 0.179684
742 2 0.464093 0.0594532 0.229513
744 4 0.458479 0.0351691 0.227524
379 2 0.0111519 0.157947 0.177333
579 4 0.0828876 0.0859356 0.224565
381 4 0.0306889 0.161027 0.19263
511 2 0.0359686 0.160252 0.229532
512 4 0.023768 0.15331 0.208841
577 2 0.10314 0.100377 0.222025
578 4 0.123393 0.114819 0.219484
723 4 0.183304 0.111283 0.22679
721 2 0.195077 0.107208 0.248469
581 4 0.263527 0.122207 0.178584
30 3 0.304276 0.131505 0.231156
26 1 0.303903 0.112066 0.243014
28 3 0.294923 0.0950504 0.230042
27 3 0.325397 0.106371 0.248907
312 4 0.40702 0.122939 0.160737
333 4 0.422556 0.132664 0.240792
743 4 0.469706 0.0837372 0.231501
310 2 0.429045 0.111825 0.164805
311 4 0.45107 0.100711 0.168873
331 2 0.439996 0.150001 0.245318
395 4 0.0271406 0.245076 0.208962
394 2 0.0251988 0.24829 0.233682
338 4 0.0913693 0.230799 0.16425
285 4 0.264666 0.179818 0.170887
764 4 0.358188 0.233801 0.198236
763 2 0.371554 0.214882 0.188823
765 4 0.384921 0.195964 0.17941
520 2 0.479545 0.225828 0.229299
521 4 0.459803 0.217236 0.216587
522 4 0.499287 0.234421 0.242011
363 4 0.0870722 0.243566 0.178779
748 2 0.0979232 0.283749 0.245747
370 2 0.150925 0.252311 0.217087
361 2 0.098809 0.256838 0.196421
362 4 0.110546 0.270111 0.214064
372 4 0.128554 0.262713 0.213022
300 4 0.107603 0.329301 0.24122
749 4 0.11403 0.285171 0.226676
371 4 0.173296 0.241908 0.221151
279 4 0.232559 0.264809 0.173171
345 4 0.236639 0.301091 0.238207
343 2 0.257642 0.289649 0.230919
344 4 0.278645 0.278207 0.223631
307 2 0.313282 0.277292 0.214652
309 4 0.307513 0.300971 0.209063
308 4 0.31905 0.253614 0.22024
647 4 0.0652735 0.344685 0.149261
263 4 0.0476572 0.412943 0.215751
298 2 0.128041 0.339449 0.251442
417 4 0.146903 0.405859 0.180176
290 4 0.238533 0.423304 0.226336
611 4 0.259687 0.334917 0.188759
303 4 0.316853 0.365657 0.171238
301 2 0.321754 0.386054 0.184844
729 4 0.344738 0.385794 0.230324
302 4 0.326656 0.406451 0.19845
727 2 0.344684 0.384354 0.255286
597 4 0.473598 0.389948 0.180633
643 2 0.454124 0.37409 0.202603
644 4 0.454351 0.362289 0.224645
645 4 0.453898 0.38589 0.18056
447 4 0.457144 0.377691 0.238371
262 2 0.0292069 0.429441 0.219298
264 4 0.0107565 0.445939 0.222845
415 2 0.165056 0.420522 0.189153
416 4 0.18321 0.435186 0.198131
291 4 0.202184 0.433982 0.193694
289 2 0.220359 0.428643 0.210015
768 4 0.2394 0.45896 0.206506
766 2 0.248717 0.469155 0.185663
767 4 0.258034 0.47935 0.16482
1574 4 0.31549 0.486808 0.203113
229 2 0.395423 0.493459 0.242269
231 4 0.381022 0.475372 0.232747
232 2 0.025423 0.0538079 0.299219
233 4 0.0419055 0.0351618 0.301634
1402 2 0.076573 0.0230817 0.261448
234 4 0.00894059 0.072454 0.296804
1404 4 0.0568737 0.0148099 0.274436
690 4 0.191621 0.00721308 0.260091
248 4 0.234502 0.0790402 0.305604
1701 4 0.24146 0.0130973 0.333536
1699 2 0.259474 0.0252241 0.321142
1700 4 0.277489 0.0373508 0.308749
478 2 0.488065 0.0428268 0.326008
480 4 0.496468 0.0464036 0.302731
351 4 0.45383 0.0677199 0.313119
349 2 0.441184 0.0836491 0.298576
513 4 0.0481692 0.167193 0.250224
529 2 0.996963 0.143884 0.273868
530 4 0.01271 0.150989 0.291944
731 4 0.145495 0.0799927 0.310028
546 4 0.164607 0.17788 0.285337
730 2 0.128755 0.0897065 0.325858
722 4 0.20685 0.103133 0.270148
249 4 0.204449 0.114077 0.28637
247 2 0.219475 0.0965587 0.295987
403 2 0.223588 0.152409 0.294696
404 4 0.213443 0.129559 0.295062
600 4 0.195781 0.141351 0.338127
29 3 0.29131 0.114803 0.26231
632 4 0.339819 0.127995 0.279703
631 2 0.362264 0.135224 0.288017
633 4 0.384709 0.142453 0.296332
332 4 0.457436 0.167337 0.249844
350 4 0.428537 0.0995783 0.284033
392 4 0.107249 0.177816 0.281324
391 2 0.0972748 0.199153 0.272934
393 4 0.0873003 0.220491 0.264544
544 2 0.172025 0.193791 0.267532
545 4 0.179442 0.209701 0.249727
405 4 0.233732 0.175259 0.294329
706 2 0.323843 0.16872 0.322962
707 4 0.323994 0.172395 0.298231
420 4 0.412614 0.233003 0.294217
762 4 0.454401 0.17429 0.26766
418 2 0.422267 0.220847 0.313818
419 4 0.43192 0.208691 0.33342
761 4 0.492526 0.176954 0.29991
760 2 0.473463 0.175622 0.283785
750 4 0.081816 0.282327 0.264819
396 4 0.0232569 0.251504 0.258402
444 4 0.0102571 0.254431 0.321599
443 4 0.0161441 0.263536 0.272782
442 2 0.0132006 0.258983 0.297191
400 2 0.188155 0.268208 0.289924
402 4 0.198111 0.274827 0.311884
401 4 0.178198 0.261588 0.267965
508 2 0.23391 0.332526 0.335134
496 2 0.302562 0.295152 0.304784
497 4 0.310426 0.293667 0.328472
498 4 0.294697 0.296636 0.281096
543 4 0.395441 0.301886 0.323278
615 4 0.395027 0.322369 0.322342
541 2 0.418164 0.298687 0.313347
542 4 0.440886 0.295489 0.303416
366 4 0.0156401 0.343552 0.265584
364 2 0.0275969 0.34569 0.287439
365 4 0.0395537 0.347827 0.309294
602 4 0.0676749 0.411036 0.289185
299 4 0.148478 0.349598 0.261664
601 2 0.0776779 0.388655 0.294104
603 4 0.087681 0.366273 0.299022
734 4 0.150983 0.369268 0.265523
733 2 0.167473 0.363148 0.283294
676 2 0.173804 0.340134 0.341099
677 4 0.178263 0.345533 0.317096
735 4 0.183963 0.357027 0.301064
509 4 0.233596 0.357496 0.336386
433 2 0.315325 0.377218 0.330057
434 4 0.336827 0.389503 0.326603
613 2 0.375539 0.333301 0.333561
728 4 0.34463 0.382915 0.280248
445 2 0.473316 0.380329 0.257257
446 4 0.489488 0.382967 0.276143
1757 4 0.0630919 0.493865 0.266995
549 4 0.0592348 0.431119 0.316565
777 4 0.104437 0.465316 0.284474
775 2 0.0948093 0.466424 0.307523
776 4 0.0851814 0.467532 0.330572
414 4 0.167154 0.486739 0.267654
412 2 0.169649 0.477717 0.290839
413 4 0.172143 0.468694 0.314025
436 2 0.294622 0.452103 0.278637
437 4 0.303808 0.463541 0.25839
438 4 0.285436 0.440664 0.298885
713 4 0.431811 0.475709 0.277111
712 2 0.449553 0.467709 0.292807
714 4 0.467296 0.459709 0.308504
316 2 0.0344688 0.0729807 0.356507
317 4 0.0413643 0.052634 0.369299
428 4 0.0679068 0.0311744 0.369396
429 4 0.111836 0.0232037 0.346871
427 2 0.0898715 0.0271891 0.358133
606 4 0.152706 0.0670206 0.351416
604 2 0.177052 0.0727176 0.351338
605 4 0.201398 0.0784145 0.351261
440 4 0.293452 0.00255611 0.407899
683 4 0.300368 0.069067 0.36863
682 2 0.285036 0.0826807 0.38294
699 4 0.338349 0.0239353 0.354962
257 4 0.397404 0.0510422 0.344837
698 4 0.383985 0.0371128 0.339327
697 2 0.361167 0.030524 0.347145
256 2 0.412552 0.0706862 0.347969
479 4 0.479663 0.0392499 0.349284
258 4 0.427701 0.0903303 0.351102
426 4 0.41433 0.0225519 0.41168
398 4 0.066418 0.150937 0.351196
318 4 0.0275733 0.0933275 0.343715
732 4 0.112014 0.0994204 0.341688
397 2 0.0819338 0.132807 0.343731
399 4 0.0974496 0.114676 0.336265
598 2 0.184174 0.159855 0.350295
708 4 0.323692 0.165045 0.347694
684 4 0.269704 0.0962943 0.397251
320 4 0.26282 0.110466 0.409319
451 2 0.480145 0.14955 0.391178
453 4 0.455221 0.147612 0.39067
514 2 0.434411 0.15993 0.417859
515 4 0.451162 0.164979 0.399996
2654 4 0.0144396 0.220035 0.342335
686 4 0.176711 0.1573 0.400663
599 4 0.172567 0.178358 0.362464
474 4 0.226274 0.207229 0.36149
274 2 0.202767 0.244579 0.390669
276 4 0.226928 0.239768 0.386396
275 4 0.178605 0.249389 0.394942
472 2 0.247445 0.194268 0.364486
473 4 0.268616 0.181306 0.367481
488 4 0.272937 0.200441 0.399202
487 2 0.272134 0.224017 0.407493
715 2 0.369296 0.213099 0.361081
716 4 0.365822 0.192699 0.375115
717 4 0.372769 0.233498 0.347046
618 4 0.0555011 0.323371 0.36893
347 4 0.0457651 0.310378 0.382156
346 2 0.0360421 0.294717 0.399049
348 4 0.0263191 0.279057 0.415942
390 4 0.0920737 0.283347 0.338671
389 4 0.11491 0.245098 0.361393
388 2 0.103492 0.264222 0.350032
678 4 0.169345 0.334735 0.365102
375 4 0.171154 0.323845 0.381448
373 2 0.190638 0.314573 0.394081
510 4 0.234223 0.307556 0.333883
374 4 0.210122 0.305301 0.406714
376 2 0.289289 0.299095 0.356383
377 4 0.302854 0.278159 0.358065
378 4 0.275724 0.320032 0.354701
489 4 0.271331 0.247592 0.415784
268 2 0.475113 0.264254 0.407928
270 4 0.451402 0.257464 0.40382
616 2 0.072499 0.338932 0.35923
407 4 0.0833852 0.410927 0.376959
617 4 0.0894968 0.354494 0.34953
502 2 0.248516 0.407503 0.405989
435 4 0.293824 0.364932 0.333512
503 4 0.259343 0.407809 0.383453
614 4 0.35605 0.344232 0.34478
336 4 0.347328 0.356188 0.393523
561 4 0.452897 0.398929 0.413348
752 4 0.452448 0.413219 0.39928
559 2 0.47462 0.386761 0.411062
2463 4 0.987374 0.46157 0.353032
408 4 0.0610234 0.433701 0.415456
406 2 0.0722043 0.422314 0.396208
548 4 0.0828623 0.415807 0.357893
547 2 0.0710485 0.423463 0.337229
499 2 0.107332 0.476096 0.3794
500 4 0.123012 0.459046 0.369986
501 4 0.0916522 0.493146 0.388813
570 4 0.164134 0.507199 0.405529
5 3 0.294673 0.459057 0.356752
1 1 0.311189 0.472505 0.364814
2 3 0.304977 0.494505 0.362247
4 3 0.314562 0.468247 0.387373
3 3 0.330841 0.468837 0.353036
594 4 0.387575 0.47217 0.326505
592 2 0.397703 0.485731 0.344909
751 2 0.441581 0.420839 0.378091
753 4 0.430713 0.428459 0.356901
2237 4 0.0322785 0.0148476 0.489007
718 2 0.0516636 0.0472486 0.480772
720 4 0.0508014 0.0222957 0.482108
719 4 0.0525257 0.0722016 0.479435
367 2 0.123458 0.0303494 0.4444
369 4 0.128256 0.0436306 0.465034
368 4 0.118659 0.0170683 0.423766
340 2 0.196143 0.051689 0.497951
341 4 0.193356 0.0307021 0.484648
1181 4 0.257315 0.0613369 0.470069
441 4 0.267016 0.0343699 0.436
439 2 0.280234 0.018463 0.42195
726 4 0.320817 0.105914 0.454993
724 2 0.341791 0.0955663 0.446149
424 2 0.3897 0.0253106 0.414982
425 4 0.365069 0.0280693 0.418284
725 4 0.362764 0.0852189 0.437304
2878 2 0.493936 0.0810944 0.455758
457 2 0.0149925 0.159463 0.433232
458 4 0.0270768 0.137632 0.434829
471 4 0.0184055 0.156891 0.489165
685 2 0.162925 0.151886 0.420808
687 4 0.149138 0.146473 0.440952
1180 2 0.251973 0.0833834 0.480586
321 4 0.296705 0.135069 0.436654
319 2 0.279763 0.122767 0.422986
1182 4 0.246631 0.10543 0.491102
574 2 0.390462 0.156547 0.458759
516 4 0.417661 0.154881 0.435723
576 4 0.377706 0.144749 0.476739
642 4 0.470562 0.113021 0.472361
2880 4 0.475075 0.093729 0.466239
640 2 0.469818 0.129197 0.491413
469 2 0.0345206 0.175749 0.486026
470 4 0.0506357 0.194607 0.482886
260 4 0.086987 0.190941 0.423188
261 4 0.126032 0.188731 0.454355
259 2 0.106509 0.189836 0.438771
1035 4 0.112663 0.182262 0.468264
1033 2 0.120027 0.182381 0.492158
695 4 0.101895 0.222494 0.484405
468 4 0.338477 0.179541 0.449679
411 4 0.28142 0.199981 0.465535
409 2 0.304429 0.198576 0.455851
410 4 0.327439 0.197171 0.446168
575 4 0.403218 0.168344 0.440779
467 4 0.366216 0.192481 0.410134
466 2 0.352347 0.186011 0.429907
304 2 0.482761 0.201573 0.429106
305 4 0.458923 0.194076 0.428259
694 2 0.106835 0.246979 0.485529
696 4 0.111774 0.271464 0.486653
10 3 0.157164 0.31878 0.480535
651 4 0.248475 0.285428 0.460482
649 2 0.265823 0.30343 0.46087
650 4 0.283171 0.321432 0.461259
812 4 0.334271 0.322382 0.499893
266 4 0.331978 0.277937 0.420601
267 4 0.363968 0.26814 0.457768
265 2 0.347973 0.273038 0.439184
583 2 0.46392 0.285518 0.473931
584 4 0.487442 0.277041 0.474034
585 4 0.440397 0.293995 0.473828
935 4 0.992241 0.402784 0.48833
326 4 0.0725384 0.335255 0.450598
327 4 0.121864 0.341725 0.455682
325 2 0.0972012 0.33849 0.45314
6 1 0.146794 0.33738 0.488606
7 3 0.127802 0.34142 0.476273
8 3 0.160916 0.355707 0.486855
384 4 0.112658 0.417875 0.466056
711 4 0.16658 0.381663 0.460476
504 4 0.237689 0.407196 0.428524
709 2 0.188582 0.379746 0.448753
710 4 0.210584 0.377828 0.437031
774 4 0.272734 0.423268 0.475811
588 4 0.399622 0.415271 0.430723
334 2 0.356703 0.364376 0.415207
238 2 0.384316 0.374514 0.474321
240 4 0.367904 0.369555 0.456121
335 4 0.366079 0.372565 0.436892
239 4 0.400727 0.379473 0.492522
680 4 0.0379618 0.467977 0.435876
1381 2 0.0282325 0.496658 0.447979
1383 4 0.0443316 0.485888 0.432168
681 4 0.0386314 0.418005 0.437624
679 2 0.0382966 0.442991 0.43675
383 4 0.0683563 0.430378 0.446516
539 4 0.0743608 0.458929 0.483863
540 4 0.11515 0.481916 0.501428
568 2 0.151513 0.488323 0.415997
569 4 0.138892 0.469447 0.426466
382 2 0.090507 0.424127 0.456286
538 2 0.0947556 0.470422 0.492645
634 2 0.250981 0.447346 0.454315
636 4 0.245639 0.458356 0.432511
1401 4 0.335 0.49816 0.455434
669 4 0.28905 0.419658 0.467259
667 2 0.301672 0.430621 0.448667
668 4 0.314295 0.441584 0.430075
635 4 0.256322 0.436336 0.47612
1332 4 0.479567 0.484226 0.490682
586 2 0.422629 0.422181 0.437659
663 4 0.444787 0.455848 0.476592
587 4 0.445637 0.42909 0.444595
661 2 0.462133 0.454453 0.494547
1126 2 0.0260741 0.0408827 0.542959
1127 4 0.027389 0.0212759 0.527499
1128 4 0.0247591 0.0604896 0.55842
2236 2 0.0331347 0.993142 0.501388
1058 4 0.141887 0.0597408 0.57522
1057 2 0.143548 0.0826515 0.585096
1152 4 0.197595 0.090706 0.520238
1031 4 0.21617 0.0855968 0.576428
342 4 0.198929 0.0726759 0.511254
2430 4 0.195466 0.0107686 0.493644
961 2 0.281064 0.0440193 0.507541
963 4 0.281407 0.0674649 0.516223
962 4 0.280721 0.0205737 0.49886
432 4 0.301325 0.0723684 0.51551
1217 4 0.407329 0.0434541 0.552512
1216 2 0.408791 0.0306056 0.573912
841 2 0.384936 0.0706852 0.537848
842 4 0.407409 0.0597878 0.539023
1062 4 0.490315 0.0156595 0.532574
938 4 0.089624 0.134532 0.564139
937 2 0.107298 0.120203 0.553772
939 4 0.124971 0.105873 0.543404
1030 2 0.234711 0.0904448 0.560369
1032 4 0.253252 0.0952928 0.544309
1151 4 0.193625 0.139072 0.532307
1150 2 0.19561 0.114889 0.526273
430 2 0.326049 0.0748688 0.518272
899 4 0.334661 0.142909 0.559729
843 4 0.362463 0.0815825 0.536673
431 4 0.350774 0.0773692 0.521034
641 4 0.469074 0.145373 0.510464
877 2 0.066476 0.214671 0.573048
878 4 0.0484345 0.197387 0.572088
1199 4 0.0201236 0.192936 0.576857
1034 4 0.127391 0.182499 0.516053
879 4 0.0845176 0.231956 0.574008
856 2 0.219013 0.226196 0.539438
858 4 0.214267 0.215908 0.561727
857 4 0.22376 0.236484 0.517148
898 2 0.327409 0.163795 0.548051
791 4 0.306864 0.235737 0.588301
900 4 0.320156 0.184681 0.536373
872 4 0.408093 0.235727 0.524058
906 4 0.449489 0.225983 0.576273
983 4 0.0705752 0.300375 0.561465
982 2 0.053662 0.314596 0.573165
1258 2 0.144108 0.282294 0.5161
1260 4 0.124317 0.276519 0.501953
9 3 0.140784 0.334101 0.510777
1259 4 0.163899 0.288069 0.530247
813 4 0.322025 0.301419 0.543611
811 2 0.328148 0.311901 0.521752
871 2 0.395214 0.256873 0.520569
873 4 0.382334 0.278018 0.51708
3065 4 0.501833 0.251319 0.541776
1137 4 0.128647 0.373345 0.589651
1189 2 0.224789 0.372671 0.578703
773 4 0.245452 0.391782 0.503471
1190 4 0.234924 0.360848 0.55914
772 2 0.259093 0.407525 0.489641
802 2 0.262885 0.361098 0.525938
803 4 0.243633 0.356283 0.541148
804 4 0.282137 0.365914 0.510728
928 2 0.368468 0.376249 0.579354
929 4 0.373913 0.385346 0.556709
925 2 0.457717 0.371187 0.539609
927 4 0.458264 0.386494 0.559372
926 4 0.45717 0.35588 0.519846
1161 4 0.184584 0.476213 0.53474
2243 4 0.150562 0.498332 0.567855
1159 2 0.177916 0.465651 0.5564
1171 2 0.229055 0.447748 0.564037
1173 4 0.217967 0.467656 0.553747
882 4 0.323258 0.458961 0.514369
880 2 0.34552 0.470328 0.514972
881 4 0.367782 0.481696 0.515575
1952 4 0.35634 0.474227 0.561723
1002 4 0.405015 0.449592 0.563866
1951 2 0.356207 0.497625 0.570539
1000 2 0.429894 0.447112 0.563657
1001 4 0.454773 0.444633 0.563449
662 4 0.479478 0.453059 0.512501
1185 4 0.00267357 0.0387609 0.645861
825 4 0.138252 0.0325112 0.656266
823 2 0.150497 0.0119677 0.648973
949 2 0.282777 0.0171347 0.601024
951 4 0.274396 0.0207319 0.577743
950 4 0.291159 0.0135374 0.624305
1092 4 0.314377 0.995431 0.665591
1218 4 0.410253 0.0177572 0.595312
809 4 0.464437 0.0667151 0.614035
808 2 0.459841 0.0783848 0.635665
1163 4 0.471719 0.0289977 0.659701
45 3 0.447613 0.0746449 0.667789
1083 4 0.0384078 0.100982 0.612596
1082 4 0.0385865 0.082763 0.659166
1081 2 0.0384971 0.0918724 0.635881
1059 4 0.145208 0.105562 0.594971
1153 2 0.158721 0.148042 0.591344
1155 4 0.153209 0.123653 0.591242
909 4 0.143215 0.150103 0.655148
1154 4 0.164233 0.17243 0.591447
1284 4 0.168254 0.0960797 0.647014
1283 4 0.210099 0.10692 0.62187
1282 2 0.189176 0.1015 0.634442
810 4 0.455244 0.0900546 0.657296
1244 4 0.0499735 0.260958 0.589273
1272 4 0.0935139 0.232033 0.591371
1270 2 0.118471 0.232136 0.589848
1271 4 0.143428 0.232238 0.588325
1221 4 0.183667 0.181177 0.589427
797 4 0.244465 0.218684 0.587297
1210 2 0.237722 0.180093 0.653955
1212 4 0.218595 0.185946 0.638953
1219 2 0.203131 0.179542 0.605036
1220 4 0.222595 0.177908 0.620646
796 2 0.236681 0.233557 0.605828
798 4 0.228896 0.24843 0.624359
947 4 0.211932 0.255 0.632781
1211 4 0.256849 0.17424 0.668957
904 2 0.468416 0.231774 0.591551
1024 2 0.443366 0.203187 0.665683
1025 4 0.434482 0.208967 0.643037
905 4 0.487343 0.237566 0.606828
1243 2 0.0434508 0.271159 0.611149
1245 4 0.0369282 0.281361 0.633025
946 2 0.19289 0.270632 0.628514
948 4 0.173848 0.286264 0.624246
792 4 0.306537 0.285355 0.594521
790 2 0.3067 0.260546 0.591411
1238 4 0.301139 0.30343 0.585325
1237 2 0.307148 0.314259 0.607046
1239 4 0.313157 0.325088 0.628767
954 4 0.436182 0.271609 0.606826
952 2 0.445168 0.29299 0.597483
953 4 0.454154 0.314371 0.58814
984 4 0.0367488 0.328817 0.584864
1040 4 0.0738904 0.400669 0.63014
1039 2 0.0495846 0.396077 0.62649
1041 4 0.0252788 0.391485 0.622841
897 4 0.146662 0.372851 0.59898
1136 4 0.0890044 0.343989 0.581439
1135 2 0.108826 0.358667 0.585545
991 2 0.114718 0.411766 0.637197
993 4 0.089771 0.41179 0.63552
1191 4 0.214654 0.384494 0.598265
896 4 0.194903 0.384502 0.592834
895 2 0.170783 0.378676 0.595907
806 4 0.330518 0.353733 0.658602
930 4 0.363022 0.367152 0.601998
1204 2 0.403048 0.389833 0.644222
1206 4 0.380644 0.398909 0.650615
1205 4 0.425452 0.380757 0.637828
992 4 0.139666 0.411741 0.638873
2172 4 0.100461 0.497721 0.641732
1187 4 0.219324 0.469386 0.590093
1160 4 0.171247 0.455089 0.57806
1186 2 0.213642 0.486795 0.607116
1172 4 0.240144 0.42784 0.574327
889 2 0.316592 0.451758 0.608685
891 4 0.304566 0.472847 0.602704
890 4 0.328619 0.430668 0.614667
1269 4 0.444129 0.45533 0.644894
2991 4 0.00694786 0.0740438 0.699543
944 4 0.0497117 0.0618766 0.675202
943 2 0.0492552 0.0384013 0.683797
945 4 0.0487987 0.0149261 0.692393
1147 2 0.19991 0.067413 0.722457
1149 4 0.196572 0.042636 0.722832
1162 2 0.484707 0.0453003 0.673511
42 3 0.424165 0.0719882 0.696703
2320 2 0.497309 0.00466228 0.725751
1076 4 0.0454161 0.0821764 0.678391
862 2 0.0469044 0.118958 0.741546
864 4 0.0599401 0.116466 0.720356
1075 2 0.052036 0.103169 0.690251
1077 4 0.0586559 0.124162 0.70211
907 2 0.150063 0.14978 0.679193
908 4 0.156912 0.149457 0.703239
1227 4 0.152167 0.138924 0.719426
1148 4 0.203247 0.09219 0.722081
1225 2 0.171747 0.123475 0.721203
1226 4 0.191327 0.108027 0.72298
1005 4 0.324585 0.0835812 0.671418
829 2 0.329562 0.162823 0.723609
1003 2 0.346312 0.0871917 0.683254
831 4 0.3414 0.152085 0.742838
1004 4 0.368039 0.0908022 0.69509
43 3 0.43279 0.105828 0.682806
41 1 0.440924 0.0845416 0.687178
1142 4 0.434171 0.150675 0.707263
44 3 0.458734 0.0857573 0.702001
3425 4 0.500504 0.164511 0.681587
1215 4 0.00830071 0.222757 0.725042
851 4 0.0689145 0.18284 0.713039
852 4 0.0298429 0.205544 0.691623
850 2 0.0493787 0.194192 0.702331
1107 4 0.0665676 0.180669 0.732894
1178 4 0.0184649 0.24021 0.72778
1105 2 0.0831877 0.177697 0.751336
1207 2 0.1078 0.240953 0.672915
1208 4 0.108324 0.215955 0.673076
1129 2 0.18123 0.20405 0.73816
1131 4 0.196543 0.223598 0.735234
1130 4 0.165917 0.184502 0.741086
830 4 0.317724 0.17356 0.704381
886 2 0.288394 0.186063 0.686618
888 4 0.263481 0.186294 0.684509
887 4 0.313308 0.185831 0.688727
976 2 0.287795 0.194051 0.750459
978 4 0.26914 0.180649 0.740581
1194 4 0.325515 0.192818 0.674751
1193 4 0.365006 0.221445 0.66372
1192 2 0.345261 0.207132 0.669235
1143 4 0.412594 0.185084 0.736438
1141 2 0.423382 0.16788 0.721851
1026 4 0.452251 0.197408 0.688329
1261 2 0.442849 0.231888 0.730454
1263 4 0.465885 0.227701 0.721678
1262 4 0.419814 0.236074 0.739231
1177 2 0.0241371 0.258082 0.711239
1179 4 0.0298093 0.275953 0.694698
1209 4 0.107275 0.26595 0.672754
821 4 0.159805 0.28679 0.708722
820 2 0.174482 0.282096 0.728412
1065 4 0.219285 0.27349 0.702692
1063 2 0.23611 0.279678 0.685262
1064 4 0.252935 0.285866 0.667832
3123 4 0.479606 0.275218 0.680499
892 2 0.0555808 0.369404 0.703282
893 4 0.043443 0.349157 0.695042
894 4 0.0677186 0.389652 0.711522
3276 4 0.0117127 0.381721 0.758295
940 2 0.136317 0.380163 0.73775
1067 4 0.174194 0.399766 0.731626
941 4 0.160539 0.386144 0.739391
942 4 0.112095 0.374181 0.736109
815 4 0.100729 0.379914 0.750798
1028 4 0.215852 0.397182 0.680295
1066 2 0.189393 0.394463 0.712494
1068 4 0.204592 0.38916 0.693361
1027 2 0.240808 0.398529 0.67955
807 4 0.32524 0.321508 0.696475
1029 4 0.265764 0.399876 0.678805
1139 4 0.269554 0.41022 0.724212
805 2 0.327879 0.337621 0.677538
1019 4 0.385237 0.354825 0.741428
1981 2 0.0285517 0.479273 0.730612
1281 4 0.0396613 0.439632 0.717217
1280 4 0.0805771 0.445675 0.689109
1279 2 0.0601192 0.442654 0.703163
1983 4 0.029617 0.456976 0.719348
1176 4 0.21731 0.494406 0.730628
1174 2 0.232563 0.498592 0.711263
1175 4 0.247816 0.502778 0.691899
1138 2 0.289684 0.419885 0.735461
1140 4 0.309814 0.42955 0.746711
1228 2 0.361064 0.456638 0.700586
1229 4 0.36219 0.47795 0.713615
1230 4 0.359939 0.435327 0.687558
1267 2 0.460011 0.467128 0.660183
1268 4 0.475893 0.478926 0.675472
1100 4 0.41385 0.455265 0.716738
1099 2 0.438149 0.453867 0.722462
1101 4 0.462448 0.452469 0.728186
1250 4 0.470233 0.498392 0.74591
1294 2 0.00194217 0.0285954 0.808241
911 4 0.0734004 0.0660428 0.814622
1296 4 0.00877705 0.0238034 0.83181
1203 4 0.136928 0.0818916 0.778888
1201 2 0.12832 0.0603825 0.769484
1202 4 0.119712 0.0388735 0.76008
2049 4 0.107466 0.0208798 0.760405
910 2 0.0821068 0.0834653 0.830301
2047 2 0.116738 0.997729 0.762209
1255 2 0.279709 0.0673882 0.799137
1256 4 0.290234 0.0768439 0.819752
1257 4 0.269184 0.0579325 0.778521
975 4 0.363048 0.0253837 0.819093
1113 4 0.413026 0.0225782 0.789455
1050 4 0.329834 0.0189632 0.758394
1112 4 0.432521 0.0596869 0.816724
846 4 0.491654 0.0752893 0.767624
844 2 0.474873 0.0655484 0.783394
1111 2 0.422773 0.0411325 0.803089
845 4 0.458093 0.0558075 0.799164
863 4 0.0338687 0.12145 0.762737
832 2 0.999487 0.117773 0.781057
833 4 0.0155094 0.128643 0.765235
34 3 0.121081 0.130947 0.822694
31 1 0.116298 0.152924 0.816991
33 3 0.129409 0.159473 0.799002
35 3 0.0942449 0.154949 0.811678
839 4 0.227782 0.119531 0.821038
838 2 0.246693 0.133708 0.829197
1084 2 0.344777 0.12936 0.802049
1085 4 0.354573 0.117737 0.821901
1086 4 0.334981 0.140983 0.782196
819 4 0.372938 0.115656 0.815956
3270 4 0.489335 0.161993 0.757222
1213 2 0.0197648 0.211944 0.744454
1214 4 0.0312289 0.201131 0.763867
1073 4 0.0807841 0.214543 0.76764
32 3 0.121035 0.166472 0.834968
1106 4 0.0998079 0.174726 0.769779
1072 2 0.098773 0.22548 0.781129
1074 4 0.116762 0.236417 0.794619
1277 4 0.203786 0.224257 0.754704