ITEM: TIMESTEP
2800000
ITEM: NUMBER OF ATOMS
4590
ITEM: BOX BOUNDS pp pp pp
-9.9985700000000008e+00 9.9985700000000008e+00
-9.9985700000000008e+00 9.9985700000000008e+00
-9.9985700000000008e+00 9.9985700000000008e+00
ITEM: ATOMS id type xs ys zs
1667 4 0.0177591 0.0679228 0.049278
485 4 0.411281 0.999398 0.0723402
2974 2 0.463926 0.0115391 0.00799551
745 2 0.435905 0.0659201 0.00593556
747 4 0.444022 0.0424286 0.00320939
2467 2 0.499248 0.00842969 0.0585513
986 4 0.433903 0.0277926 0.996093
701 4 0.0286584 0.0777461 0.0627384
700 2 0.0386818 0.0935256 0.0793432
567 4 0.23068 0.168776 0.00575266
297 4 0.333658 0.121517 0.022216
295 2 0.350575 0.119682 0.00389622
746 4 0.427787 0.0894116 0.00866173
558 4 0.431504 0.104476 0.997068
555 4 0.0441221 0.223657 0.0090017
566 4 0.216359 0.170214 0.0536436
565 2 0.223519 0.169495 0.0296981
573 4 0.260016 0.246068 0.0620563
1292 4 0.328674 0.217533 0.00282154
770 4 0.405865 0.187467 0.0231051
359 4 0.386948 0.189577 0.0174854
664 2 0.397852 0.2072 0.052268
665 4 0.392529 0.188892 0.0360926
666 4 0.403176 0.225509 0.0684434
323 4 0.414064 0.241278 0.0687467
358 2 0.365094 0.196428 0.00745369
769 2 0.421034 0.17155 0.0111988
623 4 0.394455 0.240562 0.0747198
292 2 0.162395 0.312483 0.0425953
294 4 0.14736 0.300403 0.0266832
293 4 0.17743 0.324563 0.0585074
507 4 0.1874 0.326129 0.0718267
287 4 0.19764 0.32878 0.0562141
286 2 0.216714 0.32283 0.0411821
288 4 0.235788 0.316879 0.0261501
482 4 0.244644 0.250683 0.073325
571 2 0.272489 0.256177 0.0428881
572 4 0.284963 0.266285 0.0237199
357 4 0.287197 0.26943 0.00180017
355 2 0.304604 0.286775 0.997184
956 4 0.328617 0.313437 0.00775197
1069 2 0.405442 0.307431 0.0291737
955 2 0.348647 0.320543 0.0209242
1071 4 0.385642 0.322626 0.0276719
957 4 0.368676 0.327648 0.0340964
322 2 0.423176 0.259532 0.0542921
324 4 0.432288 0.277786 0.0398375
1070 4 0.425243 0.292237 0.0306755
280 2 0.457411 0.301302 0.045664
282 4 0.445179 0.286697 0.0294706
281 4 0.469643 0.315908 0.0618575
527 4 0.476071 0.325232 0.076636
671 4 0.458014 0.329833 0.0740439
526 2 0.498501 0.333366 0.0841132
456 4 0.192893 0.389818 0.0475757
552 4 0.173384 0.338405 0.0741494
454 2 0.188602 0.365908 0.0535008
455 4 0.184311 0.341999 0.059426
1290 4 0.274979 0.403391 0.0360767
250 2 0.263314 0.411775 0.0641522
1288 2 0.282151 0.385709 0.0199178
1289 4 0.289322 0.368028 0.00375891
741 4 0.382605 0.334794 0.0448704
739 2 0.387098 0.339987 0.0689124
328 2 0.0054566 0.415455 0.0251403
329 4 0.0253548 0.429226 0.0314326
1788 4 0.0806366 0.465135 0.0727571
1786 2 0.0822469 0.488325 0.0635477
627 4 0.161188 0.47632 0.0540739
626 4 0.205932 0.481605 0.0757718
625 2 0.18356 0.478963 0.0649228
245 4 0.225189 0.476755 0.074945
244 2 0.238625 0.46101 0.0609176
246 4 0.252061 0.445265 0.0468902
251 4 0.264373 0.418128 0.0399924
272 4 0.249287 0.431456 0.0322245
271 2 0.261512 0.437053 0.0111434
1672 2 0.399815 0.432671 0.0682872
853 2 0.386166 0.442208 0.00844079
1674 4 0.40242 0.438099 0.0440192
854 4 0.405137 0.443414 0.0246836
564 4 0.419771 0.437873 0.0352556
563 4 0.4648 0.458715 0.0290323
562 2 0.442286 0.448294 0.0321439
228 4 0.479306 0.472429 0.0353331
226 2 0.498289 0.48841 0.0322658
19 3 0.0700704 0.0378571 0.1568
18 3 0.0745073 0.000563945 0.150974
16 1 0.0720181 0.0171242 0.167035
578 4 0.0870941 0.0392945 0.171893
580 2 0.239359 0.0620831 0.147056
581 4 0.246861 0.0390561 0.153273
582 4 0.231856 0.0851101 0.140839
237 4 0.221227 0.0864782 0.157868
490 2 0.281437 0.0559247 0.105871
1475 4 0.298645 0.0283838 0.100673
492 4 0.286458 0.0333813 0.11545
1474 2 0.300968 0.00584345 0.0901037
654 4 0.256967 0.0409268 0.17161
2722 2 0.46724 0.0539255 0.167602
2724 4 0.490253 0.0469983 0.160701
1760 4 0.493916 0.0389191 0.143874
1759 2 0.498948 0.0306334 0.120826
2723 4 0.444228 0.0608527 0.174503
702 4 0.0487052 0.109305 0.095948
476 4 0.0448126 0.120495 0.11129
475 2 0.0682541 0.128473 0.114759
513 4 0.0673533 0.145567 0.157085
393 4 0.0744552 0.164578 0.155251
477 4 0.0916955 0.136451 0.118228
235 2 0.199129 0.0937123 0.167061
491 4 0.276416 0.078468 0.0962913
628 2 0.370648 0.159504 0.156369
629 4 0.363666 0.138495 0.144748
312 4 0.349349 0.135637 0.159893
2624 4 0.00781776 0.187689 0.125022
391 2 0.0761096 0.189097 0.159863
392 4 0.0777639 0.213616 0.164474
738 4 0.231129 0.160406 0.100679
737 4 0.248225 0.206531 0.109672
736 2 0.239677 0.183468 0.105175
755 4 0.252561 0.241548 0.160232
460 2 0.328068 0.227138 0.116537
461 4 0.306049 0.215981 0.112555
354 4 0.288175 0.212764 0.122952
352 2 0.279764 0.226436 0.142123
353 4 0.271353 0.240109 0.161293
630 4 0.37763 0.180512 0.16799
254 4 0.382742 0.191096 0.150951
462 4 0.350088 0.238294 0.120519
255 4 0.3651 0.235002 0.134771
253 2 0.373921 0.213049 0.142861
622 2 0.381487 0.241148 0.0960895
624 4 0.368519 0.241733 0.117459
536 4 0.164367 0.266933 0.147932
481 2 0.23406 0.267788 0.0881771
505 2 0.197901 0.311479 0.0891562
483 4 0.223476 0.284893 0.103029
506 4 0.208402 0.29683 0.106486
537 4 0.19406 0.29699 0.12118
535 2 0.179214 0.281962 0.134556
754 2 0.240601 0.263393 0.158008
756 4 0.228642 0.285238 0.155784
301 2 0.325267 0.317412 0.140323
303 4 0.324531 0.301411 0.159522
285 4 0.314282 0.291069 0.164883
764 4 0.335399 0.28525 0.162039
765 4 0.356783 0.251994 0.13142
763 2 0.346091 0.268622 0.146729
12 3 0.411535 0.322008 0.114822
647 4 0.0511432 0.353134 0.164508
550 2 0.154695 0.342681 0.090199
551 4 0.136005 0.346956 0.106249
290 4 0.236923 0.411136 0.152773
289 2 0.219003 0.402763 0.168069
252 4 0.262254 0.405423 0.088312
302 4 0.326002 0.333414 0.121125
609 4 0.277535 0.408216 0.100171
387 4 0.324265 0.350223 0.110539
607 2 0.301458 0.413018 0.105632
385 2 0.348836 0.350897 0.10596
493 2 0.387976 0.386051 0.0978041
495 4 0.387437 0.361383 0.101848
386 4 0.373407 0.351571 0.10138
15 3 0.377652 0.337279 0.111416
740 4 0.391591 0.34518 0.0929545
14 3 0.408342 0.358327 0.10569
11 1 0.399083 0.341064 0.118127
13 3 0.399477 0.346462 0.140691
494 4 0.388514 0.41072 0.0937598
672 4 0.415323 0.339899 0.0980615
670 2 0.436668 0.334866 0.0860527
1467 4 0.0792019 0.453328 0.0881471
1791 4 0.0622319 0.487587 0.127697
1465 2 0.0703234 0.460761 0.110308
1466 4 0.0614448 0.468194 0.132469
638 4 0.223503 0.483445 0.12885
767 4 0.235192 0.477225 0.14385
637 2 0.202108 0.492992 0.120115
639 4 0.180714 0.502538 0.111379
766 2 0.240032 0.452713 0.144817
768 4 0.244872 0.428201 0.145783
608 4 0.32538 0.417821 0.111093
659 4 0.33395 0.435841 0.112079
660 4 0.382048 0.428666 0.100427
1673 4 0.397209 0.427244 0.0925551
658 2 0.357999 0.432254 0.106253
524 4 0.41117 0.48213 0.127531
523 2 0.404113 0.460224 0.117759
525 4 0.397056 0.438317 0.107987
1559 4 0.392465 0.487109 0.135279
17 3 0.0528827 0.0129621 0.179104
2480 4 0.0339889 0.0100153 0.182362
2479 2 0.0218138 0.0294197 0.192382
380 4 0.0159624 0.067028 0.198056
2481 4 0.00963875 0.0488241 0.202403
1422 4 0.0302231 0.991963 0.190396
577 2 0.105112 0.0565419 0.173638
20 3 0.0899249 0.0170563 0.181106
674 4 0.140683 0.00146664 0.207361
673 2 0.122989 0.000642888 0.225009
579 4 0.123131 0.0737894 0.175382
1504 2 0.229023 0.0098161 0.183097
1506 4 0.242923 0.0304476 0.180582
652 2 0.281676 0.0394503 0.175144
653 4 0.306384 0.0379738 0.178678
758 4 0.3494 0.0717921 0.190133
759 4 0.35529 0.0708166 0.239782
757 2 0.352345 0.0713044 0.214958
742 2 0.50225 0.0524775 0.231648
351 4 0.419119 0.0532997 0.255405
480 4 0.437111 0.0538102 0.246674
743 4 0.48886 0.0660477 0.247827
333 4 0.483266 0.0775657 0.23232
379 2 0.0276538 0.0858668 0.186498
511 2 0.0557179 0.130642 0.173427
512 4 0.0440825 0.115717 0.189768
381 4 0.0393452 0.104706 0.17494
450 4 0.118725 0.0894052 0.18621
448 2 0.139951 0.100566 0.179135
449 4 0.161178 0.111726 0.17206
236 4 0.17703 0.100946 0.176254
30 3 0.341563 0.135559 0.227771
26 1 0.343407 0.15428 0.240607
310 2 0.3468 0.112891 0.169957
28 3 0.358272 0.169163 0.230813
311 4 0.344251 0.0901444 0.180021
761 4 0.399112 0.130121 0.230718
521 4 0.462103 0.140163 0.214987
762 4 0.448808 0.134788 0.22768
760 2 0.42396 0.132454 0.229199
332 4 0.461841 0.121988 0.224055
331 2 0.472553 0.099777 0.228187
520 2 0.480751 0.155195 0.207812
339 4 0.0770495 0.215139 0.183984
337 2 0.0612779 0.233663 0.189754
279 4 0.276623 0.225866 0.221465
277 2 0.270526 0.234869 0.198949
522 4 0.499399 0.170227 0.200637
394 2 0.0130898 0.256912 0.235845
395 4 0.0256268 0.267161 0.216793
338 4 0.0455062 0.252188 0.195524
363 4 0.0422616 0.268545 0.206478
361 2 0.0538378 0.290426 0.209996
648 4 0.0656359 0.326039 0.203961
362 4 0.065414 0.312308 0.213514
372 4 0.082947 0.318914 0.203383
749 4 0.0558295 0.330103 0.219367
370 2 0.105097 0.322611 0.214378
371 4 0.127247 0.326309 0.225373
612 4 0.232976 0.301026 0.165836
611 4 0.236009 0.316906 0.213158
610 2 0.234492 0.308966 0.189497
344 4 0.225553 0.323396 0.228747
343 2 0.209759 0.320809 0.247956
284 4 0.278433 0.256324 0.167773
283 2 0.296358 0.273697 0.166328
278 4 0.26443 0.243872 0.176433
729 4 0.315677 0.305823 0.177363
727 2 0.303286 0.324165 0.188992
308 4 0.329422 0.29288 0.17579
307 2 0.341177 0.288439 0.197407
309 4 0.352932 0.283999 0.219023
498 4 0.343702 0.274218 0.235186
748 2 0.0628491 0.346173 0.23719
646 2 0.0583895 0.339586 0.184234
750 4 0.0698687 0.362243 0.255013
734 4 0.136814 0.338994 0.235518
733 2 0.156958 0.331983 0.248567
417 4 0.144499 0.382764 0.198718
299 4 0.134547 0.357355 0.244509
298 2 0.111746 0.363019 0.253065
291 4 0.201084 0.39439 0.183365
416 4 0.194084 0.378464 0.193859
415 2 0.169291 0.380614 0.196288
728 4 0.290895 0.342506 0.20062
445 2 0.411286 0.382942 0.239124
446 4 0.386327 0.381534 0.238618
447 4 0.436245 0.38435 0.23963
644 4 0.44473 0.380573 0.221341
643 2 0.453141 0.390164 0.199836
645 4 0.461551 0.399755 0.178331
264 4 0.0199219 0.430011 0.239064
412 2 0.227663 0.47095 0.232357
413 4 0.214268 0.458054 0.249073
414 4 0.241058 0.483846 0.215641
1574 4 0.292992 0.481785 0.218285
1573 2 0.291526 0.498964 0.200178
595 2 0.491781 0.42174 0.172936
597 4 0.467672 0.416296 0.169152
229 2 0.471558 0.49333 0.224061
231 4 0.477639 0.469079 0.223754
234 4 0.00418261 0.0513754 0.285389
232 2 0.0276508 0.0429103 0.283725
233 4 0.0511189 0.0344452 0.282062
2756 4 0.0047125 0.0653164 0.297585
317 4 0.0657659 0.0313637 0.295115
1404 4 0.0598812 0.0180509 0.283074
316 2 0.079066 0.0496371 0.305809
1402 2 0.0737704 0.00754209 0.265134
428 4 0.0588924 0.0118985 0.300716
318 4 0.0923661 0.0679104 0.316503
730 2 0.130691 0.0720255 0.318945
732 4 0.107691 0.0818286 0.319158
731 4 0.153692 0.0622224 0.318733
693 4 0.305754 0.0545048 0.282013
691 2 0.293486 0.0723017 0.29458
24 3 0.319611 0.0572544 0.266998
25 3 0.34865 0.0345727 0.259259
350 4 0.371232 0.0657606 0.248171
349 2 0.395175 0.0595301 0.251788
21 1 0.342686 0.0548971 0.267625
23 3 0.350274 0.0570117 0.28945
22 3 0.352203 0.0714568 0.254805
632 4 0.36438 0.0821072 0.253818
479 4 0.450127 0.0360996 0.291592
478 2 0.443619 0.0449549 0.269133
2664 4 0.468172 0.0259051 0.294686
1428 4 0.450923 0.0227249 0.30209
258 4 0.441471 0.0371791 0.309679
2662 2 0.491571 0.0344596 0.296809
256 2 0.429153 0.053867 0.323642
1426 2 0.445721 0.00140199 0.314067
257 4 0.416836 0.070555 0.337605
2755 2 0.00130595 0.0868684 0.309795
399 4 0.0900005 0.0841356 0.32577
692 4 0.281218 0.0900986 0.307148
721 2 0.272808 0.120248 0.315711
723 4 0.28151 0.107047 0.296341
722 4 0.264106 0.133449 0.33508
29 3 0.35074 0.148604 0.261877
631 2 0.362944 0.106727 0.257942
707 4 0.365789 0.141475 0.272807
633 4 0.361508 0.131346 0.262065
706 2 0.366408 0.144902 0.297567
708 4 0.367027 0.14833 0.322327
396 4 0.000552786 0.246664 0.254897
444 4 0.0192181 0.221582 0.316232
442 2 0.0128079 0.22887 0.29319
443 4 0.00639779 0.236158 0.270147
544 2 0.132465 0.239847 0.267228
546 4 0.114679 0.223244 0.261469
545 4 0.150251 0.25645 0.272987
403 2 0.2479 0.16677 0.330711
405 4 0.236595 0.184256 0.316869
473 4 0.232045 0.200694 0.328631
27 3 0.322804 0.164372 0.242291
269 4 0.406309 0.236196 0.320941
419 4 0.400285 0.255643 0.320373
268 2 0.426204 0.224955 0.331089
402 4 0.169489 0.254559 0.267686
400 2 0.18026 0.277012 0.269922
401 4 0.191031 0.299466 0.272158
676 2 0.18021 0.320258 0.304047
345 4 0.193964 0.318221 0.267166
677 4 0.182303 0.315969 0.279503
678 4 0.178116 0.324547 0.328591
378 4 0.297003 0.286791 0.315791
376 2 0.313029 0.300532 0.30239
377 4 0.329055 0.314272 0.28899
615 4 0.329373 0.332519 0.29116
497 4 0.337341 0.307354 0.272095
496 2 0.340521 0.290786 0.253641
541 2 0.364603 0.313179 0.302207
542 4 0.383642 0.308827 0.31782
420 4 0.398894 0.3045 0.330949
543 4 0.345564 0.317531 0.286595
418 2 0.399589 0.280071 0.325661
2537 4 0.493401 0.326244 0.330158
364 2 0.013002 0.395583 0.301478
365 4 0.0374836 0.400416 0.299907
601 2 0.060473 0.383145 0.32719
603 4 0.0412361 0.384543 0.311279
300 4 0.0889446 0.368683 0.261621
735 4 0.177101 0.324972 0.261616
434 4 0.311163 0.385555 0.302743
433 2 0.30478 0.409141 0.308047
614 4 0.321036 0.374657 0.316764
613 2 0.325205 0.353588 0.303962
1757 4 0.0295088 0.441596 0.251841
1756 2 0.0502313 0.454856 0.256306
1758 4 0.0709539 0.468115 0.26077
1775 4 0.0773248 0.475042 0.277812
777 4 0.0602375 0.478815 0.286556
775 2 0.0607025 0.485438 0.310662
1776 4 0.121989 0.492612 0.26377
1774 2 0.0996567 0.483827 0.270791
1436 4 0.219951 0.447282 0.264362
1435 2 0.236678 0.446423 0.282926
1437 4 0.253405 0.445563 0.301491
4 3 0.253444 0.430498 0.32038
3 3 0.270511 0.460625 0.304714
1 1 0.268978 0.447406 0.323722
436 2 0.310406 0.463889 0.296559
438 4 0.292122 0.451752 0.308542
2 3 0.289522 0.437919 0.327859
437 4 0.328689 0.476026 0.284576
435 4 0.298396 0.432727 0.31335
1802 4 0.34238 0.491583 0.286011
119 3 0.490518 0.457914 0.323492
594 4 0.42661 0.497026 0.330335
606 4 0.162137 0.0662691 0.337255
699 4 0.35829 0.0512767 0.355722
1699 2 0.353084 0.0167827 0.383365
1700 4 0.354149 0.0323362 0.363817
697 2 0.378997 0.0643933 0.350786
1701 4 0.352019 0.00122913 0.402913
698 4 0.399704 0.0775098 0.34585
641 4 0.45308 0.0813456 0.392943
640 2 0.477513 0.0847907 0.396989
397 2 0.0749864 0.0981161 0.340064
398 4 0.0599722 0.112097 0.354357
2584 2 0.0217837 0.119422 0.351288
2586 4 0.044003 0.12089 0.36266
458 4 0.0462259 0.129911 0.380238
457 2 0.0512973 0.141735 0.401678
600 4 0.0917659 0.156748 0.356081
604 2 0.180684 0.080066 0.346785
605 4 0.199232 0.0938628 0.356314
248 4 0.21513 0.101422 0.364296
247 2 0.231336 0.118086 0.355085
249 4 0.247541 0.134751 0.345873
404 4 0.259205 0.149283 0.344553
683 4 0.257984 0.145079 0.362445
682 2 0.282876 0.145536 0.364764
684 4 0.307767 0.145993 0.367083
320 4 0.31345 0.134429 0.350669
321 4 0.361311 0.145068 0.340825
319 2 0.337381 0.139749 0.345747
726 4 0.390815 0.144178 0.414958
717 4 0.368702 0.150582 0.359203
715 2 0.383491 0.151195 0.379354
716 4 0.398281 0.151808 0.399505
467 4 0.385071 0.162101 0.411421
642 4 0.501945 0.0882358 0.401035
598 2 0.102562 0.176967 0.366071
599 4 0.113357 0.197187 0.376062
389 4 0.120861 0.226885 0.374395
686 4 0.115552 0.213813 0.386874
685 2 0.104841 0.214759 0.409448
275 4 0.128802 0.208502 0.373477
274 2 0.152246 0.204859 0.365584
388 2 0.117831 0.251018 0.368601
474 4 0.194029 0.206807 0.36054
472 2 0.213037 0.20375 0.344585
276 4 0.17569 0.201216 0.357691
270 4 0.4461 0.213714 0.341236
452 4 0.462219 0.223065 0.347985
451 2 0.466678 0.219769 0.372366
453 4 0.471137 0.216473 0.396747
515 4 0.463528 0.215009 0.414949
347 4 0.0621983 0.309982 0.384095
346 2 0.0402784 0.304646 0.394876
348 4 0.0183584 0.299311 0.405657
618 4 0.0750931 0.323242 0.377174
375 4 0.160337 0.320734 0.336955
616 2 0.0947704 0.308964 0.371334
390 4 0.114801 0.275152 0.362806
617 4 0.114448 0.294685 0.365493
374 4 0.127919 0.286466 0.35355
373 2 0.144128 0.3036 0.345252
510 4 0.187323 0.336022 0.343985
602 4 0.0797098 0.381747 0.343101
549 4 0.0794366 0.379739 0.362611
547 2 0.0883717 0.398569 0.376422
548 4 0.0973068 0.4174 0.390233
508 2 0.199036 0.358058 0.345521
509 4 0.21075 0.380095 0.347057
240 4 0.336879 0.378572 0.384171
335 4 0.340944 0.383125 0.402065
238 2 0.345315 0.394453 0.366798
239 4 0.353751 0.410334 0.349426
587 4 0.373133 0.414692 0.351965
752 4 0.474427 0.389701 0.381962
561 4 0.465139 0.376738 0.393138
559 2 0.481168 0.375786 0.412304
751 2 0.483818 0.409262 0.369538
776 4 0.0611674 0.492062 0.334767
500 4 0.0681378 0.478049 0.34759
499 2 0.0735173 0.462239 0.366199
501 4 0.0788969 0.446429 0.384808
407 4 0.096371 0.437782 0.390687
406 2 0.111967 0.449533 0.406303
1544 4 0.216823 0.474342 0.386684
1556 4 0.230516 0.484657 0.376077
1543 2 0.200553 0.482972 0.403595
5 3 0.26287 0.460152 0.341579
636 4 0.287855 0.499004 0.402912
1555 2 0.252436 0.484862 0.388104
1557 4 0.274356 0.485068 0.400131
586 2 0.377182 0.438623 0.357972
593 4 0.386532 0.471321 0.345622
588 4 0.381231 0.462554 0.36398
592 2 0.406571 0.484173 0.337978
713 4 0.442135 0.496357 0.341908
712 2 0.4623 0.481576 0.341615
714 4 0.482465 0.466796 0.341322
753 4 0.493208 0.428824 0.357115
117 3 0.487244 0.450588 0.360211
720 4 0.00744533 0.996441 0.462138
719 4 0.0529439 0.0108662 0.477055
718 2 0.0301946 0.00365362 0.469597
369 4 0.0715161 0.00463997 0.47248
963 4 0.300983 0.0286926 0.459391
432 4 0.29603 0.0367038 0.476815
430 2 0.314524 0.0418442 0.492838
961 2 0.316578 0.0170298 0.443708
962 4 0.332173 0.00536688 0.428025
1216 2 0.411047 0.046306 0.470999
1217 4 0.397203 0.0276081 0.480159
425 4 0.349695 0.997722 0.422443
1218 4 0.424891 0.065004 0.461839
260 4 0.055149 0.167167 0.438408
459 4 0.0563688 0.15356 0.423117
724 2 0.391375 0.121584 0.425651
725 4 0.391935 0.0989892 0.436345
259 2 0.0646027 0.190169 0.435812
261 4 0.0740565 0.21317 0.433217
687 4 0.0941299 0.215705 0.432021
1035 4 0.0828599 0.227711 0.442004
1033 2 0.0908822 0.245255 0.45791
466 2 0.39568 0.177802 0.427733
468 4 0.406288 0.193504 0.444046
411 4 0.394136 0.254752 0.458401
409 2 0.402758 0.231358 0.456518
410 4 0.41138 0.207963 0.454635
575 4 0.428261 0.206835 0.464088
516 4 0.425715 0.20233 0.445118
574 2 0.433131 0.188237 0.480075
514 2 0.444622 0.208669 0.430034
576 4 0.438001 0.169639 0.496062
2457 4 0.462975 0.259826 0.493786
2802 4 0.000753177 0.290314 0.4077
696 4 0.0938824 0.275947 0.48901
1034 4 0.0989046 0.262799 0.473817
1260 4 0.0928929 0.280422 0.470639
1258 2 0.107241 0.299351 0.462828
1259 4 0.121589 0.318279 0.455016
9 3 0.133275 0.317819 0.432755
7 3 0.131724 0.328221 0.468839
6 1 0.138295 0.334766 0.447788
8 3 0.161163 0.338694 0.447951
489 4 0.378769 0.264054 0.451403
488 4 0.34004 0.25867 0.420229
487 2 0.359404 0.261362 0.435816
266 4 0.389592 0.273243 0.46437
265 2 0.385155 0.295258 0.475363
267 4 0.380719 0.317273 0.486356
3308 4 0.471247 0.333172 0.478023
1011 4 0.472783 0.329281 0.498343
1010 4 0.46952 0.279533 0.494449
1009 2 0.471152 0.304407 0.496396
326 4 0.0767492 0.363833 0.478044
327 4 0.115232 0.339681 0.457152
325 2 0.0959904 0.351757 0.467598
10 3 0.127183 0.353795 0.442039
709 2 0.155365 0.399909 0.494665
711 4 0.137575 0.417155 0.491307
384 4 0.123701 0.424037 0.479914
334 2 0.32123 0.382252 0.417419
336 4 0.301515 0.381379 0.432773
668 4 0.298366 0.401476 0.43905
882 4 0.356592 0.360208 0.498935
560 4 0.497198 0.374834 0.43147
3309 4 0.49504 0.364045 0.446694
3307 2 0.483143 0.348608 0.462358
680 4 0.999291 0.443068 0.467858
1383 4 0.0108493 0.45853 0.472931
1381 2 0.0165177 0.48189 0.479813
570 4 0.168156 0.496233 0.42922
382 2 0.126841 0.438108 0.459485
408 4 0.127562 0.461284 0.421919
569 4 0.125327 0.471939 0.437949
383 4 0.129981 0.452178 0.439056
568 2 0.146742 0.484086 0.433585
1545 4 0.184284 0.491603 0.420507
667 2 0.29818 0.426442 0.440397
669 4 0.297994 0.451409 0.441745
634 2 0.297499 0.482993 0.41952
635 4 0.307143 0.466983 0.436128
774 4 0.316809 0.456869 0.44889
772 2 0.34163 0.458105 0.446139
773 4 0.366451 0.459341 0.443388
663 4 0.473486 0.494913 0.448049
2430 4 0.155888 0.0151043 0.518664
341 4 0.163784 0.0302153 0.506934
1152 4 0.206624 0.0756153 0.516826
342 4 0.205371 0.0552123 0.519033
340 2 0.184578 0.0427138 0.512984
1032 4 0.238269 0.0746641 0.567327
1030 2 0.24984 0.0574426 0.58128
431 4 0.333018 0.0469845 0.50886
842 4 0.39418 0.0331589 0.499256
841 2 0.372163 0.039354 0.509358
843 4 0.350146 0.0455491 0.51946
1058 4 0.12559 0.114412 0.505754
1270 2 0.0895591 0.152946 0.561784
1271 4 0.1063 0.135025 0.566657
1057 2 0.117273 0.11907 0.528869
1059 4 0.108956 0.123728 0.551984
1155 4 0.116837 0.120549 0.571611
939 4 0.100213 0.11451 0.565652
1153 2 0.139461 0.12863 0.578542
1150 2 0.216167 0.082296 0.53895
1151 4 0.22571 0.0889767 0.561075
1180 2 0.237044 0.116585 0.580932
1181 4 0.238895 0.0926607 0.573906
1199 4 0.0162587 0.207373 0.586625
879 4 0.0648254 0.185265 0.5463
1198 2 0.997999 0.216524 0.572201
877 2 0.0501422 0.194824 0.564139
1272 4 0.0728184 0.170868 0.556912
651 4 0.219132 0.226523 0.513038
858 4 0.210105 0.244885 0.509793
898 2 0.241789 0.1724 0.576508
649 2 0.232742 0.209438 0.525207
650 4 0.246351 0.192354 0.537375
899 4 0.24792 0.187338 0.557417
2455 2 0.48451 0.24928 0.500873
984 4 0.00263267 0.297529 0.574494
695 4 0.0985934 0.252837 0.533106
694 2 0.0962379 0.264392 0.511058
946 2 0.166889 0.289569 0.570424
856 2 0.195289 0.258854 0.524301
857 4 0.180472 0.272824 0.53881
947 4 0.186198 0.280586 0.557323
798 4 0.193043 0.269165 0.572925
796 2 0.216991 0.270188 0.580041
791 4 0.248667 0.288893 0.580766
790 2 0.254504 0.313179 0.579628
502 2 0.192999 0.360241 0.509833
503 4 0.212385 0.34589 0.503243
504 4 0.173613 0.374591 0.516424
710 4 0.173155 0.382663 0.498024
803 4 0.267243 0.362033 0.559979
804 4 0.277493 0.372255 0.512112
802 2 0.272368 0.367144 0.536046
1190 4 0.251674 0.353067 0.570183
1238 4 0.268895 0.354294 0.57694
792 4 0.260341 0.337465 0.578491
929 4 0.356116 0.370139 0.555422
881 4 0.34374 0.379368 0.543302
880 2 0.350166 0.369788 0.521119
928 2 0.342306 0.370074 0.576265
540 4 0.107765 0.469404 0.586268
4337 4 0.00151417 0.00186621 0.659745
1081 2 0.0684178 0.0646147 0.634747
1082 4 0.070515 0.0531094 0.656847
1083 4 0.0663206 0.0761199 0.612647
825 4 0.174082 0.0528077 0.664121
951 4 0.278396 0.0338184 0.603523
1031 4 0.261412 0.0402212 0.595233
949 2 0.278883 0.0144167 0.619287
950 4 0.279371 0.995015 0.635052
3008 4 0.491914 0.0147048 0.595975
809 4 0.492486 0.0288986 0.609429
808 2 0.479732 0.0408911 0.62728
810 4 0.466977 0.0528837 0.645132
45 3 0.464365 0.0750753 0.641314
41 1 0.455559 0.0691121 0.661452
42 3 0.459623 0.0467803 0.665184
1127 4 0.0490054 0.0848321 0.617897
1126 2 0.025618 0.0909259 0.611487
1128 4 0.00223064 0.0970196 0.605078
938 4 0.0804547 0.088194 0.603305
937 2 0.0903341 0.101352 0.584478
1154 4 0.162085 0.136711 0.585472
900 4 0.235659 0.157461 0.595598
1182 4 0.235194 0.14051 0.587958
1221 4 0.171708 0.152176 0.591793
1219 2 0.196079 0.150397 0.59709
1211 4 0.235975 0.147916 0.662085
1210 2 0.232795 0.154211 0.638097
1220 4 0.22045 0.148617 0.602388
1212 4 0.229615 0.160507 0.614109
1192 2 0.316227 0.1621 0.634643
1193 4 0.317799 0.160477 0.609741
1194 4 0.314655 0.163722 0.659544
3424 2 0.490287 0.10529 0.651396
3425 4 0.474919 0.0867833 0.658213
878 4 0.0354589 0.204383 0.581977
1244 4 0.0485273 0.212946 0.594081
1243 2 0.045073 0.235792 0.603634
3123 4 0.482889 0.243773 0.636421
983 4 0.0243239 0.268068 0.608587
1245 4 0.0416186 0.258639 0.613188
982 2 0.0134783 0.282798 0.591541
3263 4 0.0526111 0.332552 0.623606
948 4 0.147579 0.298551 0.583525
1135 2 0.164559 0.321791 0.617445
1136 4 0.156235 0.309575 0.597279
797 4 0.240938 0.271211 0.587156
822 4 0.168693 0.330608 0.655964
872 4 0.345261 0.286217 0.607235
871 2 0.363408 0.297395 0.620309
813 4 0.387677 0.327103 0.626916
873 4 0.381555 0.308573 0.633383
954 4 0.453386 0.293723 0.588615
952 2 0.459815 0.314462 0.601015
3262 2 0.054086 0.357431 0.62159
1041 4 0.0674834 0.394749 0.628102
3264 4 0.0555609 0.382309 0.619573
3240 4 0.0474447 0.395639 0.629741
3238 2 0.0269476 0.40885 0.635267
1039 2 0.0914665 0.395045 0.635166
1040 4 0.11545 0.395341 0.64223
993 4 0.129301 0.382507 0.647845
991 2 0.146884 0.364853 0.645756
992 4 0.164467 0.3472 0.643668
1189 2 0.23512 0.367037 0.582671
1137 4 0.172883 0.334007 0.637611
1064 4 0.178648 0.346085 0.652499
897 4 0.183214 0.349665 0.634275
896 4 0.201073 0.383631 0.602212
895 2 0.192143 0.366648 0.618244
1172 4 0.216158 0.39721 0.604117
1191 4 0.218565 0.381007 0.59516
1239 4 0.308833 0.371302 0.601767
1237 2 0.288864 0.362798 0.589354
930 4 0.328495 0.370009 0.597108
811 2 0.385971 0.350328 0.636018
1204 2 0.373549 0.401964 0.658518
1206 4 0.372148 0.385991 0.639332
927 4 0.384635 0.385263 0.626375
812 4 0.384266 0.373554 0.64512
925 2 0.398295 0.398858 0.610444
926 4 0.411954 0.412453 0.594514
953 4 0.466244 0.335201 0.613414
906 4 0.482627 0.348155 0.615032
904 2 0.50002 0.353399 0.597852
3239 4 0.0064505 0.422061 0.640792
539 4 0.0932768 0.421655 0.589558
538 2 0.100521 0.44553 0.587913
2244 4 0.104817 0.487147 0.582829
1159 2 0.145086 0.490355 0.596027
1160 4 0.123297 0.480183 0.589177
1171 2 0.221752 0.421445 0.606676
1186 2 0.200252 0.472016 0.597694
1173 4 0.227346 0.44568 0.609234
1187 4 0.221678 0.459239 0.595989
1188 4 0.178827 0.484792 0.599399
1911 4 0.455748 0.485871 0.601538
1002 4 0.420199 0.431734 0.591569
1001 4 0.447419 0.47015 0.608421
1000 2 0.433809 0.450942 0.599995
1269 4 0.450455 0.484097 0.62121
1267 2 0.464278 0.482473 0.641981
1268 4 0.478102 0.480848 0.662753
943 2 0.0327135 0.0175261 0.671805
944 4 0.0533205 0.0313753 0.66885
1076 4 0.0641315 0.0467258 0.672662
1075 2 0.065441 0.0632305 0.691399
945 4 0.0121065 0.00367692 0.674759
864 4 0.0537595 0.0711041 0.724679
1077 4 0.0667505 0.0797351 0.710135
862 2 0.034457 0.0676729 0.740197
824 4 0.182949 0.00472134 0.6746
823 2 0.178515 0.0287645 0.669361
1283 4 0.167473 0.0699201 0.656926
1149 4 0.236643 0.05748 0.73639
1147 2 0.245221 0.0702584 0.716684
1092 4 0.345316 0.0085361 0.684725
1004 4 0.333182 0.0666369 0.727407
43 3 0.432629 0.0726624 0.66143
1163 4 0.47155 0.0594537 0.682201
1162 2 0.4827 0.047704 0.701248
44 3 0.465473 0.0814754 0.678401
1164 4 0.49385 0.0359543 0.720296
851 4 0.0649634 0.0984451 0.71413
850 2 0.0606792 0.120307 0.702779
852 4 0.056395 0.14217 0.691427
1107 4 0.0681606 0.0830277 0.726443
1105 2 0.0904315 0.0865498 0.737249
1106 4 0.112702 0.0900719 0.748056
1282 2 0.169121 0.0889552 0.673054
1284 4 0.170769 0.10799 0.689183
909 4 0.178261 0.127684 0.691021
907 2 0.200881 0.133567 0.682138
908 4 0.223501 0.139449 0.673254
1227 4 0.243664 0.133353 0.665873
1148 4 0.253799 0.0830368 0.696979
1225 2 0.251269 0.110263 0.671719
886 2 0.2763 0.158824 0.67183
888 4 0.25239 0.151751 0.669969
1226 4 0.258873 0.0871724 0.677565
829 2 0.326742 0.148751 0.696277
830 4 0.318739 0.164068 0.678207
1005 4 0.343049 0.114244 0.715706
887 4 0.30021 0.165898 0.673691
1003 2 0.338116 0.0904406 0.721556
831 4 0.334745 0.133434 0.714347
1178 4 0.00704646 0.238551 0.720508
977 4 0.299098 0.222597 0.722888
976 2 0.323438 0.217643 0.720018
1298 4 0.289759 0.216592 0.738538
918 4 0.29605 0.235033 0.737735
978 4 0.347777 0.212688 0.717148
1025 4 0.403879 0.188096 0.68034
1020 4 0.365309 0.21975 0.722001
1018 2 0.377452 0.232297 0.739898
1146 4 0.494611 0.171727 0.721846
1024 2 0.421616 0.195793 0.696193
1142 4 0.432589 0.199874 0.729879
1144 2 0.472523 0.183224 0.724117
1262 4 0.447249 0.213645 0.726146
1026 4 0.439353 0.20349 0.712046
1261 2 0.441192 0.237837 0.727951
1145 4 0.450436 0.19472 0.726387
1177 2 0.0267042 0.253312 0.715939
1179 4 0.046362 0.268073 0.71137
820 2 0.153732 0.316384 0.670071
1208 4 0.146873 0.263745 0.728524
1074 4 0.133277 0.256795 0.740078
1207 2 0.151599 0.277498 0.708184
821 4 0.138771 0.302159 0.684179
1209 4 0.156325 0.29125 0.687844
1072 2 0.110212 0.265881 0.743332
805 2 0.237462 0.335487 0.71001
806 4 0.258947 0.323674 0.714912
1263 4 0.435135 0.262029 0.729756
892 2 0.0230654 0.364402 0.744762
1279 2 0.0651092 0.40628 0.738158
1280 4 0.0554105 0.383488 0.741573
816 4 0.0663936 0.367299 0.741286
894 4 0.0480549 0.365211 0.744536
814 2 0.0844353 0.355334 0.728776
815 4 0.102477 0.343368 0.716266
942 4 0.119105 0.341334 0.72648
940 2 0.139477 0.351842 0.736468
941 4 0.159848 0.36235 0.746455
1063 2 0.195115 0.351799 0.670427
1065 4 0.211581 0.357513 0.688354
807 4 0.215977 0.347299 0.705108
1028 4 0.211983 0.377852 0.694243
1066 2 0.189562 0.368979 0.722927
1068 4 0.206178 0.36354 0.705052
1027 2 0.228804 0.396065 0.691
1067 4 0.172946 0.374419 0.740801
1205 4 0.37495 0.417937 0.677703
1281 4 0.0748079 0.429071 0.734743
1983 4 0.0741629 0.444416 0.745868
1981 2 0.0897643 0.463813 0.74822
1982 4 0.105366 0.48321 0.750572
1176 4 0.169459 0.486723 0.726068
1029 4 0.245625 0.414278 0.687757
1175 4 0.179701 0.483638 0.677219
1174 2 0.17458 0.485181 0.701644
2016 4 0.16787 0.484544 0.746221
1140 4 0.249187 0.428474 0.673925
1138 2 0.265673 0.446612 0.678869
1139 4 0.282158 0.464749 0.683812
1987 2 0.293387 0.45676 0.732681
1229 4 0.29932 0.467588 0.691798
1989 4 0.295626 0.469696 0.711402
2028 4 0.287237 0.478955 0.695798
1228 2 0.322544 0.461138 0.685146
1988 4 0.291147 0.443824 0.753961
1230 4 0.345767 0.454689 0.678494
1101 4 0.472404 0.478539 0.680963
1099 2 0.457844 0.47063 0.699688
1100 4 0.443284 0.462721 0.718413
2168 4 0.480789 0.495522 0.6739
2989 2 0.0149048 0.0336555 0.77977
2990 4 0.0118629 0.0575103 0.772924
2991 4 0.0179468 0.00980068 0.786617
863 4 0.0151544 0.0642418 0.755715
833 4 0.0117172 0.0762691 0.773937
3083 4 0.998659 0.0689709 0.763074
2049 4 0.104872 0.0187817 0.795179
1202 4 0.101201 0.0370216 0.790512
1201 2 0.114525 0.0578762 0.786942
2047 2 0.109077 0.000258441 0.77892
1203 4 0.127849 0.0787308 0.783373
1085 4 0.327336 0.0699161 0.804874
1084 2 0.308426 0.079581 0.791676
960 4 0.323657 0.077952 0.821815
819 4 0.325413 0.0574059 0.818796
1086 4 0.289516 0.0892458 0.778478
1050 4 0.364482 0.0034758 0.772186
817 2 0.342856 0.0415815 0.8104
818 4 0.3603 0.0257571 0.802005
974 4 0.362074 0.00838123 0.791246
2322 4 0.484357 0.0443802 0.783692
2320 2 0.492029 0.0384498 0.760645
1112 4 0.489485 0.0781839 0.781756
832 2 0.0145607 0.0880658 0.795799
834 4 0.0174043 0.0998626 0.81766