ITEM: TIMESTEP
1920000
ITEM: NUMBER OF ATOMS
4590
ITEM: BOX BOUNDS pp pp pp
-9.9985700000000008e+00 9.9985700000000008e+00
-9.9985700000000008e+00 9.9985700000000008e+00
-9.9985700000000008e+00 9.9985700000000008e+00
ITEM: ATOMS id type xs ys zs
1666 2 0.0394178 0.0746538 0.0572975
1668 4 0.0344412 0.0752963 0.0328026
1474 2 0.307259 0.0149594 0.0832846
2974 2 0.467939 0.0263085 0.00827113
2976 4 0.46996 0.00387947 0.0191356
2469 4 0.482902 0.0145937 0.0854007
2468 4 0.477278 0.00448385 0.0367501
2467 2 0.48009 0.00953875 0.0610754
2264 4 0.218408 0.152147 0.0112072
2263 2 0.233974 0.135 0.00177985
297 4 0.325825 0.112859 0.0258956
295 2 0.345106 0.108441 0.0106009
556 2 0.400297 0.114481 0.0124434
296 4 0.364386 0.104024 0.995306
558 4 0.422578 0.112274 0.0235721
746 4 0.439939 0.100253 0.0206619
745 2 0.449833 0.082743 0.00580588
566 4 0.161054 0.170593 0.0272933
565 2 0.185593 0.170036 0.0225258
567 4 0.210131 0.169479 0.0177583
1133 4 0.211088 0.182136 0.00140108
360 4 0.337745 0.171868 0.00642517
769 2 0.412719 0.18343 0.00925819
770 4 0.396709 0.183408 0.0284641
359 4 0.380351 0.171993 0.0326058
358 2 0.359048 0.171931 0.0195155
664 2 0.399408 0.199627 0.0597441
665 4 0.390756 0.180498 0.0461643
666 4 0.408061 0.218755 0.0733238
323 4 0.412613 0.235201 0.0644109
555 4 0.0695627 0.272359 0.0167215
287 4 0.158377 0.304518 0.0296666
292 2 0.1318 0.277348 0.0262593
507 4 0.158102 0.303837 0.0484549
293 4 0.152927 0.287521 0.0349389
294 4 0.110673 0.267176 0.0175797
551 4 0.107078 0.326069 0.0622448
286 2 0.173315 0.314452 0.0122497
505 2 0.174991 0.306655 0.0666758
482 4 0.244307 0.2775 0.0713354
573 4 0.26241 0.286507 0.0682183
571 2 0.269565 0.279585 0.0452819
572 4 0.27672 0.272664 0.0223455
357 4 0.292677 0.270902 0.00958807
322 2 0.416216 0.257667 0.0540445
1069 2 0.404257 0.297476 0.0194028
957 4 0.371963 0.315979 0.021668
1071 4 0.382059 0.30459 0.0103579
955 2 0.353294 0.314438 0.00510699
741 4 0.372974 0.307972 0.0388497
739 2 0.372282 0.317459 0.0619733
1070 4 0.426456 0.290362 0.0284477
324 4 0.41982 0.280133 0.0436781
671 4 0.453265 0.324527 0.0802964
280 2 0.453747 0.306796 0.0446081
281 4 0.462751 0.316255 0.0659303
282 4 0.444743 0.297338 0.023286
527 4 0.468278 0.311147 0.0830648
455 4 0.145945 0.381447 0.0709178
552 4 0.139693 0.363056 0.0705445
550 2 0.123386 0.344563 0.0663947
454 2 0.162747 0.383187 0.0524831
456 4 0.17955 0.384927 0.0340485
1290 4 0.260832 0.408352 0.00541764
252 4 0.270144 0.406378 0.0656991
609 4 0.284281 0.416761 0.0735815
250 2 0.267301 0.414409 0.0421917
493 2 0.382834 0.383699 0.075456
494 4 0.378516 0.408178 0.0727531
626 4 0.229773 0.476103 0.0531335
625 2 0.211506 0.46531 0.0663618
627 4 0.193238 0.454517 0.0795902
245 4 0.246857 0.488305 0.0556238
244 2 0.260103 0.474229 0.0397625
246 4 0.273349 0.460153 0.0239013
251 4 0.264457 0.42244 0.0186842
272 4 0.271154 0.440655 0.0177531
1672 2 0.414393 0.438674 0.0650492
853 2 0.414017 0.445436 0.00885289
854 4 0.429295 0.45358 0.0268925
1674 4 0.426807 0.445831 0.0445594
563 4 0.486539 0.46723 0.0321596
562 2 0.462276 0.464526 0.0375628
564 4 0.438013 0.461822 0.042966
228 4 0.499324 0.4532 0.0246222
1667 4 0.0443943 0.0740113 0.0817924
18 3 0.0735644 0.0451197 0.157932
450 4 0.164454 0.0739026 0.164535
1475 4 0.298699 0.0372159 0.0908047
492 4 0.308695 0.0453592 0.105438
490 2 0.28935 0.0610863 0.107337
491 4 0.270004 0.0768133 0.109236
486 4 0.413618 0.991017 0.112107
2723 4 0.450875 0.0735479 0.145335
2722 2 0.469441 0.0571469 0.141944
2724 4 0.488007 0.0407459 0.138553
1760 4 0.505983 0.0329207 0.138012
2744 4 0.498118 0.0354042 0.154994
701 4 0.0424578 0.0927519 0.082888
700 2 0.0573656 0.108634 0.0951638
702 4 0.0722734 0.124516 0.10744
476 4 0.0697743 0.144225 0.114165
475 2 0.0931539 0.143572 0.123005
477 4 0.116534 0.142919 0.131845
237 4 0.24242 0.133413 0.164371
582 4 0.253263 0.140397 0.147901
449 4 0.197549 0.107405 0.181359
448 2 0.181001 0.0906537 0.172947
580 2 0.276385 0.132413 0.142723
581 4 0.299507 0.124429 0.137545
628 2 0.374216 0.143448 0.140776
312 4 0.37321 0.100738 0.1452
629 4 0.380044 0.119232 0.138578
630 4 0.368387 0.167663 0.142973
310 2 0.381056 0.0881434 0.165325
339 4 0.0712287 0.220899 0.148829
337 2 0.0627263 0.237983 0.164985
736 2 0.232828 0.172774 0.110179
738 4 0.238463 0.172227 0.085825
737 4 0.227193 0.173321 0.134533
755 4 0.248963 0.249794 0.151109
461 4 0.306361 0.246667 0.0971492
460 2 0.328709 0.244593 0.108168
354 4 0.288111 0.249003 0.106381
352 2 0.278426 0.247688 0.129395
353 4 0.26874 0.246372 0.152409
278 4 0.25917 0.244595 0.166436
623 4 0.396311 0.232775 0.0763245
254 4 0.352443 0.177373 0.134329
462 4 0.351058 0.242518 0.119186
255 4 0.362021 0.226012 0.127751
253 2 0.357232 0.201693 0.13104
765 4 0.359111 0.240185 0.136138
624 4 0.369476 0.239759 0.117939
622 2 0.382893 0.236267 0.097132
763 2 0.349417 0.25063 0.156683
481 2 0.222339 0.284955 0.0806626
483 4 0.20037 0.29241 0.0899898
506 4 0.19188 0.309472 0.0848967
537 4 0.183967 0.320533 0.100165
535 2 0.18353 0.320944 0.125162
754 2 0.237814 0.271093 0.157983
387 4 0.312728 0.306145 0.111
301 2 0.314373 0.307423 0.153696
302 4 0.315022 0.312689 0.129262
385 2 0.335237 0.313022 0.10256
15 3 0.366407 0.322125 0.1108
386 4 0.357746 0.319898 0.0941201
670 2 0.430029 0.328731 0.0885187
528 4 0.486981 0.266936 0.0970767
526 2 0.477629 0.289042 0.0900707
518 4 0.504699 0.259759 0.0920835
315 4 0.0196835 0.378505 0.10803
647 4 0.0704651 0.348389 0.164634
417 4 0.150498 0.402017 0.1644
415 2 0.167545 0.393269 0.148336
536 4 0.183093 0.321355 0.150158
291 4 0.199479 0.397352 0.12865
289 2 0.223323 0.404599 0.130682
416 4 0.184592 0.384521 0.132272
290 4 0.247167 0.411845 0.132715
495 4 0.387151 0.35922 0.078159
12 3 0.401489 0.331113 0.11982
672 4 0.406794 0.332935 0.096741
14 3 0.38796 0.340593 0.0860599
740 4 0.371591 0.326946 0.0850969
11 1 0.382658 0.33791 0.10849
13 3 0.375424 0.358082 0.117387
595 2 0.483558 0.409347 0.143963
596 4 0.481365 0.411286 0.119132
102 3 0.484492 0.349674 0.135323
1791 4 0.0591214 0.478961 0.128894
1466 4 0.0528587 0.481644 0.147196
1465 2 0.0391879 0.461469 0.152787
768 4 0.255085 0.428659 0.140738
1560 4 0.330441 0.50437 0.0945605
638 4 0.24684 0.490407 0.132211
607 2 0.302516 0.426388 0.0877229
608 4 0.320751 0.436015 0.101864
767 4 0.243967 0.477081 0.146429
766 2 0.249526 0.45287 0.143584
1673 4 0.401978 0.431517 0.085539
659 4 0.3381 0.443347 0.0972853
660 4 0.382615 0.426406 0.0820507
658 2 0.360358 0.434877 0.089668
1559 4 0.367345 0.480086 0.117991
1558 2 0.348893 0.492228 0.106276
524 4 0.382216 0.490647 0.109071
16 1 0.0650317 0.0527483 0.178116
19 3 0.0547133 0.0733097 0.175089
17 3 0.0494467 0.0376633 0.185778
2480 4 0.0298816 0.0350298 0.19045
1422 4 0.0241211 0.0196185 0.199965
2479 2 0.0114379 0.0507905 0.1965
20 3 0.0817919 0.0546429 0.193419
578 4 0.099037 0.0595645 0.186096
674 4 0.155475 0.00302823 0.21716
673 2 0.139424 0.00208954 0.236308
689 4 0.161265 0.00265756 0.198666
577 2 0.121257 0.0667263 0.177143
693 4 0.239308 0.0775138 0.230605
652 2 0.292861 0.0112972 0.189164
654 4 0.27964 0.00257992 0.169815
653 4 0.306082 0.0200144 0.208514
25 3 0.3398 0.0418937 0.241485
311 4 0.388902 0.0755487 0.185449
758 4 0.372013 0.0765439 0.195419
759 4 0.351301 0.0616394 0.238426
757 2 0.361657 0.0690917 0.216923
511 2 0.0439522 0.147851 0.207554
513 4 0.0648893 0.159368 0.214915
512 4 0.023015 0.136335 0.200193
393 4 0.0852732 0.157572 0.215918
579 4 0.143477 0.0738882 0.168189
391 2 0.0891988 0.168483 0.238071
235 2 0.226346 0.122829 0.180333
236 4 0.210271 0.112245 0.196295
26 1 0.324062 0.159672 0.24915
30 3 0.302653 0.151939 0.249855
28 3 0.335506 0.149705 0.231598
521 4 0.486817 0.151392 0.226696
332 4 0.48659 0.13247 0.227131
762 4 0.470115 0.143333 0.231752
760 2 0.454818 0.156018 0.246927
331 2 0.497439 0.110342 0.231357
333 4 0.508288 0.0882151 0.235583
394 2 0.0225923 0.243628 0.225214
395 4 0.0395839 0.245155 0.206935
396 4 0.00560064 0.242101 0.243494
338 4 0.0542239 0.255067 0.181142
279 4 0.261872 0.197329 0.182541
277 2 0.260521 0.220962 0.174488
27 3 0.32379 0.18244 0.245876
363 4 0.0519343 0.260302 0.199899
361 2 0.0650523 0.28063 0.206215
749 4 0.0635502 0.310569 0.220201
648 4 0.0687118 0.315674 0.202414
362 4 0.0781702 0.300958 0.212531
748 2 0.0712435 0.326665 0.23772
370 2 0.114867 0.296099 0.224929
372 4 0.0920655 0.28882 0.217698
371 4 0.137668 0.303378 0.232159
734 4 0.147885 0.318241 0.242401
756 4 0.226665 0.292392 0.164856
610 2 0.239548 0.304424 0.204008
612 4 0.231564 0.304428 0.180314
611 4 0.247532 0.30442 0.227703
284 4 0.277631 0.250425 0.169825
285 4 0.322105 0.26703 0.185543
283 2 0.299868 0.258727 0.177684
307 2 0.326566 0.293854 0.211979
308 4 0.321772 0.287266 0.18834
303 4 0.313725 0.302157 0.17813
729 4 0.302464 0.317527 0.184392
498 4 0.324487 0.292607 0.252685
309 4 0.33136 0.300442 0.235617
764 4 0.339723 0.261075 0.177228
646 2 0.0695884 0.332032 0.183524
299 4 0.144749 0.333944 0.252881
727 2 0.295567 0.338123 0.196779
728 4 0.288671 0.358719 0.209165
446 4 0.411214 0.373667 0.255446
645 4 0.493443 0.397447 0.183785
445 2 0.421966 0.382658 0.23474
447 4 0.432718 0.391649 0.214034
644 4 0.450896 0.395624 0.209998
643 2 0.472169 0.396536 0.196892
1467 4 0.0255171 0.441294 0.158378
229 2 0.461579 0.482089 0.220661
230 4 0.451125 0.50058 0.207472
234 4 0.0139523 0.0514655 0.276097
232 2 0.0362555 0.041351 0.281141
233 4 0.0585588 0.0312364 0.286185
1404 4 0.0691328 0.0160947 0.287813
316 2 0.0850467 0.0542119 0.300985
317 4 0.0767881 0.0313266 0.29522
428 4 0.0723101 0.0140823 0.305787
1403 4 0.106058 0.995791 0.260887
1402 2 0.0875952 0.00594297 0.27435
318 4 0.0933053 0.0770971 0.306751
732 4 0.109972 0.0870326 0.315816
730 2 0.132153 0.0771155 0.321719
731 4 0.154334 0.0671984 0.327623
24 3 0.314857 0.062725 0.2605
21 1 0.336786 0.0551797 0.259735
23 3 0.341768 0.0433385 0.279057
22 3 0.350849 0.0733273 0.2583
349 2 0.391802 0.0694375 0.26968
351 4 0.415286 0.0613181 0.272462
479 4 0.454914 0.03563 0.300437
478 2 0.441635 0.0430342 0.280586
2664 4 0.472681 0.0297231 0.296647
480 4 0.428357 0.0504385 0.260736
1428 4 0.455212 0.0186052 0.299858
258 4 0.449402 0.0285864 0.316835
2662 2 0.495575 0.0387345 0.292194
399 4 0.092174 0.0920006 0.318181
691 2 0.243588 0.0952296 0.247723
721 2 0.240806 0.130345 0.294922
722 4 0.227627 0.131061 0.316159
723 4 0.253985 0.12963 0.273686
692 4 0.247869 0.112945 0.26484
29 3 0.334793 0.155107 0.26921
632 4 0.364324 0.0974648 0.271434
350 4 0.368317 0.0775569 0.266898
631 2 0.35677 0.12104 0.267923
707 4 0.349635 0.160804 0.274985
633 4 0.349217 0.144615 0.264413
706 2 0.343753 0.16673 0.298553
443 4 0.996008 0.251045 0.258608
392 4 0.0931243 0.179393 0.260224
546 4 0.142402 0.184787 0.290225
544 2 0.159066 0.199499 0.278777
545 4 0.17573 0.214211 0.267329
402 4 0.191358 0.221923 0.277552
400 2 0.195709 0.246537 0.276937
474 4 0.193774 0.230966 0.33099
708 4 0.33787 0.172657 0.322121
761 4 0.439521 0.168703 0.262102
733 2 0.164622 0.308528 0.258235
401 4 0.200061 0.271152 0.276322
676 2 0.185075 0.295022 0.307747
345 4 0.199594 0.289981 0.276165
677 4 0.18609 0.284543 0.285067
343 2 0.217745 0.297587 0.260742
735 4 0.181358 0.298815 0.274069
344 4 0.235896 0.305192 0.245319
678 4 0.184059 0.3055 0.330426
378 4 0.25223 0.257557 0.316667
376 2 0.271277 0.262534 0.301253
496 2 0.316974 0.27933 0.272496
497 4 0.309462 0.266054 0.292307
377 4 0.290324 0.267512 0.285838
541 2 0.390693 0.296493 0.315194
542 4 0.40304 0.276839 0.305895
543 4 0.378346 0.316146 0.324493
420 4 0.405058 0.258713 0.29759
418 2 0.412769 0.24338 0.315773
264 4 0.00205282 0.397873 0.254386
365 4 0.0174015 0.368146 0.297305
601 2 0.0376417 0.389051 0.324889
603 4 0.0337805 0.374211 0.305139
750 4 0.0789367 0.342762 0.255238
298 2 0.121139 0.341148 0.256861
300 4 0.0975289 0.348353 0.260841
510 4 0.23871 0.335362 0.329003
433 2 0.307787 0.379713 0.315404
435 4 0.284837 0.385675 0.307469
434 4 0.330736 0.373752 0.323338
614 4 0.350158 0.379948 0.327565
613 2 0.358589 0.35641 0.32734
1757 4 0.0733557 0.430601 0.273856
1756 2 0.0706244 0.453532 0.26427
777 4 0.0672335 0.491382 0.277637
775 2 0.0695558 0.499705 0.3011
1775 4 0.0782818 0.493088 0.260821
1758 4 0.0678931 0.476463 0.254685
414 4 0.222716 0.470072 0.226524
412 2 0.220126 0.463226 0.250432
1436 4 0.220082 0.456898 0.293298
413 4 0.217536 0.45638 0.27434
1435 2 0.237277 0.450624 0.310331
3 3 0.294265 0.481775 0.32393
1437 4 0.254473 0.444349 0.327365
1803 4 0.361288 0.494079 0.266981
1801 2 0.363787 0.492131 0.291783
1802 4 0.366286 0.490183 0.316585
231 4 0.472033 0.463597 0.23385
713 4 0.441123 0.477246 0.338631
1742 4 0.431055 0.488549 0.326453
1780 2 0.126983 0.00522227 0.397172
606 4 0.151534 0.0635859 0.347123
604 2 0.17628 0.0656015 0.350081
605 4 0.201026 0.0676172 0.353039
248 4 0.208321 0.078412 0.339319
1701 4 0.331444 0.029552 0.394875
441 4 0.326522 0.0143102 0.405252
425 4 0.334283 0.0264513 0.41454
698 4 0.410929 0.0569595 0.342932
1699 2 0.337119 0.0366255 0.371574
1700 4 0.342793 0.0436991 0.348273
699 4 0.362418 0.0484896 0.35163
697 2 0.386674 0.0527246 0.347281
725 4 0.42058 0.0681084 0.406168
256 2 0.438421 0.040768 0.335709
257 4 0.427441 0.0529497 0.354583
2585 4 0.999604 0.0963679 0.349305
397 2 0.0752508 0.100146 0.334686
2584 2 0.0209594 0.10847 0.354065
398 4 0.0583275 0.108292 0.351192
2586 4 0.0423145 0.120573 0.358826
458 4 0.0410022 0.124537 0.378468
457 2 0.0386805 0.1404 0.397655
459 4 0.0363588 0.156264 0.416842
600 4 0.148067 0.13413 0.39064
598 2 0.145475 0.158671 0.386615
249 4 0.231565 0.122165 0.332534
247 2 0.219943 0.100289 0.335926
404 4 0.229659 0.141202 0.334122
683 4 0.248235 0.114506 0.377997
682 2 0.267625 0.129761 0.382057
319 2 0.323484 0.146083 0.396758
684 4 0.287016 0.145015 0.386117
320 4 0.303211 0.133088 0.390024
717 4 0.431114 0.146598 0.350944
715 2 0.418563 0.163557 0.364362
599 4 0.142883 0.183212 0.382591
389 4 0.128506 0.235112 0.374856
686 4 0.127943 0.192136 0.391754
685 2 0.108692 0.201494 0.404677
275 4 0.147321 0.195176 0.367894
274 2 0.166273 0.206227 0.355899
687 4 0.0894413 0.210852 0.4176
276 4 0.185225 0.217278 0.343904
403 2 0.231374 0.165758 0.338509
472 2 0.215749 0.219046 0.331405
405 4 0.233089 0.190314 0.342895
473 4 0.237725 0.207125 0.331821
321 4 0.343756 0.159078 0.403493
466 2 0.401865 0.195274 0.413187
419 4 0.42048 0.228046 0.333956
467 4 0.402439 0.196867 0.388241
716 4 0.406011 0.180516 0.37778
269 4 0.433933 0.241379 0.343597
270 4 0.470268 0.225976 0.374309
452 4 0.478321 0.208297 0.382162
268 2 0.452101 0.233677 0.358953
451 2 0.471525 0.205084 0.406009
2801 4 0.991283 0.286068 0.386906
2800 2 0.00422353 0.294459 0.406586
618 4 0.0812113 0.33973 0.365611
616 2 0.0969195 0.320339 0.367173
388 2 0.120022 0.258461 0.372017
390 4 0.111539 0.281809 0.369177
617 4 0.112628 0.300949 0.368734
374 4 0.127513 0.291898 0.36051
373 2 0.146161 0.300954 0.346531
375 4 0.164809 0.31001 0.332552
509 4 0.232433 0.334911 0.378613
508 2 0.235571 0.335137 0.353808
347 4 0.0648292 0.346788 0.374002
549 4 0.0589299 0.41083 0.350926
602 4 0.0415028 0.403892 0.344638
346 2 0.0463453 0.353535 0.389429
348 4 0.0278615 0.360282 0.404857
668 4 0.314392 0.388423 0.409219
336 4 0.309688 0.369198 0.412122
615 4 0.367019 0.332872 0.327115
334 2 0.330572 0.359702 0.402178
335 4 0.351455 0.350205 0.392235
240 4 0.369307 0.357421 0.396646
238 2 0.389337 0.368912 0.406236
587 4 0.416934 0.391352 0.401598
586 2 0.417746 0.412773 0.388728
752 4 0.479943 0.411433 0.388743
561 4 0.489516 0.396945 0.399419
239 4 0.409367 0.380402 0.415826
547 2 0.0760516 0.426404 0.360384
548 4 0.0931733 0.441979 0.369842
407 4 0.088077 0.457472 0.379842
406 2 0.101182 0.456177 0.401096
408 4 0.114287 0.454882 0.422351
1556 4 0.23984 0.487399 0.410005
1544 4 0.221809 0.482083 0.415327
636 4 0.289469 0.47921 0.430079
1555 2 0.264738 0.488848 0.411788
5 3 0.266202 0.479427 0.348922
1557 4 0.289636 0.490296 0.413571
1 1 0.282912 0.467871 0.338634
438 4 0.308641 0.470514 0.337976
4 3 0.274095 0.449727 0.327168
2 3 0.297685 0.460176 0.354499
437 4 0.357182 0.481769 0.333756
436 2 0.332911 0.476142 0.335866
593 4 0.402997 0.447351 0.374134
592 2 0.412123 0.461381 0.355558
588 4 0.418557 0.434194 0.375857
712 2 0.465252 0.470736 0.337866
714 4 0.489381 0.464226 0.337101
753 4 0.504077 0.439968 0.355517
117 3 0.500828 0.461473 0.356429
751 2 0.49201 0.425701 0.37213
594 4 0.42125 0.47541 0.336982
367 2 0.0761504 0.0271781 0.423733
369 4 0.0516813 0.0312188 0.426913
719 4 0.0411589 0.0186991 0.438021
718 2 0.0170823 0.0176685 0.444687
1781 4 0.112819 0.0250057 0.402929
368 4 0.10062 0.0231374 0.420553
962 4 0.317685 0.0205808 0.422407
961 2 0.302775 0.0369109 0.434077
963 4 0.287864 0.0532409 0.445747
432 4 0.289419 0.0671065 0.461621
430 2 0.306384 0.0773408 0.476873
424 2 0.357757 0.0283172 0.422945
426 4 0.381232 0.0301832 0.431351
724 2 0.423254 0.0764407 0.42959
1216 2 0.411068 0.0460249 0.49552
1218 4 0.433339 0.0365495 0.489243
431 4 0.323349 0.0875751 0.492126
843 4 0.339873 0.0861866 0.503112
726 4 0.425929 0.0847731 0.453012
642 4 0.499133 0.115601 0.438003
640 2 0.479607 0.112965 0.453397
641 4 0.460082 0.110328 0.468791
260 4 0.0347395 0.17681 0.416907
259 2 0.053547 0.19279 0.420916
261 4 0.0723544 0.208771 0.424926
1035 4 0.078126 0.226341 0.426908
696 4 0.104601 0.242116 0.478752
1033 2 0.0932207 0.236975 0.443768
488 4 0.300181 0.249997 0.458942
487 2 0.324966 0.247038 0.457486
468 4 0.401291 0.193682 0.438133
411 4 0.363614 0.234006 0.464287
409 2 0.383968 0.220753 0.458346
410 4 0.404321 0.207501 0.452405
266 4 0.350811 0.241132 0.476499
489 4 0.349751 0.244078 0.45603
265 2 0.357672 0.241659 0.500537
574 2 0.408592 0.17786 0.490686
516 4 0.422328 0.20331 0.46285
575 4 0.425371 0.193697 0.481052
514 2 0.446239 0.204686 0.45567
515 4 0.47015 0.206062 0.44849
453 4 0.46473 0.20187 0.429856
584 4 0.501028 0.241873 0.492413
2802 4 0.0171644 0.30285 0.426266
1034 4 0.108315 0.247609 0.460627
1258 2 0.121074 0.282367 0.477134
1259 4 0.127143 0.306611 0.477881
9 3 0.148701 0.316191 0.47088
1260 4 0.115005 0.258122 0.476388
7 3 0.113216 0.325046 0.479543
326 4 0.0541469 0.357979 0.481668
325 2 0.0751911 0.344682 0.479321
6 1 0.13389 0.333708 0.474377
10 3 0.132223 0.346357 0.455512
327 4 0.0962353 0.331385 0.476974
709 2 0.152823 0.403124 0.487232
711 4 0.128424 0.405877 0.482512
8 3 0.141168 0.346819 0.492083
503 4 0.193109 0.336729 0.490763
502 2 0.191254 0.361447 0.487483
710 4 0.177222 0.400371 0.491952
504 4 0.189399 0.386165 0.484203
667 2 0.32045 0.410689 0.418847
3307 2 0.488662 0.36627 0.470996
3308 4 0.481166 0.350878 0.489219
1383 4 0.993436 0.46983 0.455499
1381 2 0.00814339 0.486697 0.466651
568 2 0.143736 0.485263 0.42985
383 4 0.112954 0.457285 0.441737
569 4 0.126309 0.467381 0.431157
382 2 0.120786 0.441092 0.459104
384 4 0.128618 0.424899 0.476472
1543 2 0.200176 0.490844 0.424296
774 4 0.341834 0.436493 0.440142
635 4 0.330376 0.451061 0.435993
669 4 0.326508 0.432955 0.428474
634 2 0.309922 0.465135 0.433036
773 4 0.365043 0.432818 0.484284
772 2 0.353438 0.434655 0.462213
661 2 0.489844 0.496408 0.469722
663 4 0.486823 0.474997 0.457166
2430 4 0.161853 0.0168652 0.511543
342 4 0.212801 0.0611666 0.494701
340 2 0.195022 0.0442576 0.499513
341 4 0.177242 0.0273486 0.504325
1152 4 0.230855 0.0676974 0.502749
1150 2 0.234576 0.0762809 0.525936
1032 4 0.230634 0.076576 0.565776
1030 2 0.250212 0.067177 0.578167
1217 4 0.388797 0.0555002 0.501796
842 4 0.372508 0.0487706 0.509089
841 2 0.356191 0.0674786 0.506101
1058 4 0.0816196 0.104004 0.517742
1057 2 0.0899453 0.111577 0.540069
1059 4 0.098271 0.11915 0.562396
1155 4 0.10574 0.125393 0.578549
1153 2 0.13018 0.128598 0.582743
1151 4 0.238297 0.0848645 0.549124
1180 2 0.229732 0.128304 0.53981
1181 4 0.235786 0.104564 0.544805
1182 4 0.223678 0.152043 0.534815
900 4 0.226734 0.171232 0.527334
576 4 0.391813 0.162022 0.50032
1198 2 0.0077847 0.223978 0.548208
695 4 0.0909087 0.225443 0.523865
1199 4 0.0298099 0.219044 0.558965
1244 4 0.0402171 0.245855 0.573083
878 4 0.0447724 0.230548 0.562116
694 2 0.097755 0.233779 0.501308
898 2 0.247579 0.183872 0.521777
650 4 0.285456 0.206148 0.511221
899 4 0.268425 0.196511 0.51622
649 2 0.298371 0.226837 0.516729
651 4 0.311285 0.247527 0.522237
267 4 0.364532 0.242186 0.524575
1243 2 0.037531 0.269543 0.580622
948 4 0.15802 0.270523 0.579065
856 2 0.206356 0.263082 0.5169
857 4 0.202078 0.265963 0.541365
798 4 0.215871 0.271121 0.576129
947 4 0.203956 0.263937 0.560431
946 2 0.180988 0.26723 0.569748
796 2 0.240206 0.275564 0.579764
1136 4 0.156233 0.290509 0.584543
858 4 0.210634 0.260201 0.492434
797 4 0.264542 0.280007 0.5834
872 4 0.351907 0.281137 0.579116
2457 4 0.490124 0.287546 0.527554
1010 4 0.486183 0.307006 0.532386
1009 2 0.477145 0.323686 0.516099
803 4 0.264106 0.359143 0.569072
804 4 0.275088 0.381961 0.525951
802 2 0.269597 0.370552 0.547512
930 4 0.326555 0.385185 0.587477
1190 4 0.258383 0.345982 0.584911
928 2 0.340924 0.389532 0.567482
929 4 0.355292 0.393878 0.547486
881 4 0.351561 0.375718 0.538087
880 2 0.362222 0.367406 0.517053
882 4 0.372884 0.359095 0.496018
1011 4 0.468107 0.340366 0.499811
540 4 0.0921277 0.468438 0.578238
2244 4 0.0985998 0.48568 0.574892
1160 4 0.112562 0.473638 0.572942
1159 2 0.133262 0.473854 0.586965
2154 4 0.214629 0.483289 0.565994
1953 4 0.409745 0.494237 0.53559
1951 2 0.389022 0.502521 0.546866
1910 4 0.426271 0.493653 0.548327
1909 2 0.444829 0.483094 0.561338
1081 2 0.065095 0.0764826 0.639199
1082 4 0.0683699 0.062855 0.659905
2114 4 0.0114359 0.000408013 0.606348
825 4 0.157904 0.0387943 0.677419
1283 4 0.141847 0.0499846 0.671942
823 2 0.17131 0.0222924 0.66426
824 4 0.184715 0.00579046 0.651102
1031 4 0.269791 0.057778 0.590557
951 4 0.277049 0.0389217 0.586314
949 2 0.290957 0.0198362 0.578098
3007 2 0.486756 0.0441922 0.586254
3008 4 0.477178 0.0311856 0.60534
809 4 0.459708 0.0410267 0.615168
808 2 0.456153 0.05569 0.635106
810 4 0.452598 0.0703533 0.655044
1083 4 0.0618202 0.0901102 0.618493
1127 4 0.0468526 0.0962535 0.605904
1126 2 0.022746 0.096407 0.599269
938 4 0.0794692 0.0851313 0.611253
1271 4 0.0965418 0.137015 0.591498
939 4 0.0871753 0.123377 0.579971
937 2 0.0833222 0.104254 0.595612
1270 2 0.0856265 0.159107 0.595735
1154 4 0.15462 0.131804 0.586936
1221 4 0.172467 0.137155 0.595903
1219 2 0.193465 0.135404 0.609363
1220 4 0.214463 0.133653 0.622823
1212 4 0.214175 0.152613 0.629368
1194 4 0.309538 0.146927 0.660791
1192 2 0.328494 0.139326 0.646366
1193 4 0.34745 0.131725 0.631941
45 3 0.456093 0.0934627 0.652097
3424 2 0.496483 0.109059 0.664398
3425 4 0.474336 0.098151 0.668357
877 2 0.0572059 0.212183 0.573664
879 4 0.0696394 0.193819 0.585211
1272 4 0.0747111 0.1812 0.599972
1210 2 0.231555 0.168928 0.636914
1211 4 0.248935 0.185243 0.64446
886 2 0.284082 0.171528 0.662586
888 4 0.268762 0.186588 0.649793
1245 4 0.034845 0.293231 0.588161
982 2 0.00937556 0.316534 0.587214
983 4 0.0295296 0.30855 0.599674
1135 2 0.155744 0.312887 0.595686
822 4 0.15493 0.315492 0.648841
1064 4 0.160015 0.334968 0.644915
792 4 0.302749 0.318773 0.587503
791 4 0.274864 0.279607 0.601261
790 2 0.288806 0.29919 0.594382
871 2 0.359885 0.299632 0.59393
813 4 0.384547 0.321733 0.596897
873 4 0.367863 0.318128 0.608743
953 4 0.493038 0.304296 0.592525
3123 4 0.469757 0.283125 0.676514
1041 4 0.0612456 0.38096 0.643864
3264 4 0.0496552 0.373087 0.658131
3240 4 0.03049 0.378807 0.653226
3238 2 0.0157529 0.396082 0.642758
1137 4 0.155254 0.335265 0.606829
1039 2 0.0821988 0.388436 0.632451
1040 4 0.103152 0.395912 0.621038
993 4 0.109287 0.382367 0.60717
991 2 0.130044 0.368435 0.607665
992 4 0.1508 0.354503 0.608161
1063 2 0.177812 0.345157 0.65922
897 4 0.169447 0.349225 0.605776
1189 2 0.242912 0.362236 0.595939
896 4 0.208539 0.379557 0.61302
895 2 0.188993 0.364391 0.609398
1172 4 0.227808 0.397826 0.599149
1191 4 0.227441 0.37849 0.606968
1239 4 0.314172 0.376843 0.597405
1238 4 0.315565 0.326889 0.599248
1237 2 0.314869 0.351866 0.598327
811 2 0.398484 0.342454 0.595641
1204 2 0.379461 0.394797 0.616279
1205 4 0.361379 0.40191 0.632016
1206 4 0.397543 0.387684 0.600543
926 4 0.460104 0.392854 0.583087
1002 4 0.465132 0.408228 0.57169
925 2 0.438263 0.386541 0.593494
927 4 0.416422 0.380228 0.603901
812 4 0.412422 0.363174 0.594384
539 4 0.060357 0.439421 0.60372
538 2 0.0762423 0.453929 0.590979
3239 4 0.00101588 0.413356 0.632289
1161 4 0.153962 0.47407 0.600988
1171 2 0.219593 0.41801 0.611409
1188 4 0.170474 0.477786 0.610363
1186 2 0.181691 0.458527 0.621697
1173 4 0.211378 0.438193 0.623669
1187 4 0.192907 0.439268 0.633031
891 4 0.321536 0.490738 0.602276
1230 4 0.339969 0.445351 0.673946
1000 2 0.468166 0.432488 0.576927
1911 4 0.463387 0.472536 0.57435
1001 4 0.471201 0.456748 0.582164
1269 4 0.466405 0.470223 0.594279
1267 2 0.468762 0.482626 0.615861
1268 4 0.471119 0.49503 0.637443
945 4 0.0423929 0.00374523 0.670752
943 2 0.0509561 0.0245531 0.681655
944 4 0.0595193 0.045361 0.692558
1076 4 0.0692418 0.0582112 0.680159
1075 2 0.0696583 0.0756033 0.698118
1282 2 0.148394 0.067281 0.688769
1149 4 0.252731 0.0349076 0.665982
1147 2 0.25028 0.0568437 0.677729
1092 4 0.304732 0.0204874 0.688428
1004 4 0.315776 0.0682794 0.728328
1148 4 0.247828 0.0787798 0.689475
42 3 0.446352 0.0663367 0.675808
1163 4 0.464151 0.0725007 0.687163
1162 2 0.48019 0.057158 0.698674
864 4 0.0645957 0.0980426 0.735029
1077 4 0.0700748 0.0929953 0.716077
1107 4 0.0816871 0.102153 0.728004
851 4 0.0780624 0.111924 0.712113
862 2 0.0412227 0.0951257 0.743417
1284 4 0.154941 0.0845774 0.705595
850 2 0.0839656 0.134599 0.703386
852 4 0.0898688 0.157275 0.69466
1105 2 0.0956083 0.101491 0.748763
909 4 0.166044 0.0995633 0.71204
907 2 0.182788 0.112078 0.698321
908 4 0.199531 0.124592 0.684602
1227 4 0.218974 0.130344 0.684481
1225 2 0.237678 0.113753 0.684222
887 4 0.299403 0.156468 0.675378
1226 4 0.256382 0.0971619 0.683962
829 2 0.318316 0.145285 0.710615
1005 4 0.323332 0.116873 0.737398
1003 2 0.319554 0.0925762 0.732863
830 4 0.304815 0.157864 0.693743
831 4 0.331816 0.132706 0.727487
41 1 0.450642 0.0888398 0.67372
43 3 0.431645 0.100693 0.679804
44 3 0.46829 0.0944407 0.687705
1177 2 0.00634372 0.251036 0.730021
1073 4 0.0661128 0.22706 0.748978
1072 2 0.0876136 0.23962 0.746709
1074 4 0.109114 0.25218 0.74444
1208 4 0.125782 0.254322 0.732082
1130 4 0.142386 0.256439 0.743587
978 4 0.316431 0.1972 0.727401
976 2 0.30148 0.20745 0.744623
1025 4 0.419529 0.182791 0.680812
1024 2 0.435174 0.186016 0.700048
1142 4 0.448234 0.179059 0.736209
1144 2 0.482995 0.176394 0.72688
1262 4 0.460506 0.20731 0.72269
1026 4 0.450819 0.18924 0.719284
1261 2 0.460047 0.231946 0.718443
1145 4 0.462884 0.190571 0.731318
1263 4 0.459588 0.256582 0.714196
1179 4 0.0294512 0.260573 0.72951
892 2 0.0135793 0.34092 0.740404
820 2 0.145457 0.300582 0.666537
1209 4 0.150288 0.279425 0.696445
1207 2 0.138035 0.266874 0.714263
821 4 0.135984 0.285673 0.684233
1019 4 0.373885 0.302884 0.696243
3262 2 0.0593201 0.360569 0.677498
3263 4 0.068985 0.348051 0.696865
1279 2 0.0446732 0.388988 0.742527
1281 4 0.0453562 0.409088 0.727671
1065 4 0.195609 0.355346 0.673525
807 4 0.206417 0.345785 0.688349
1028 4 0.225169 0.378689 0.700171
1066 2 0.196153 0.370576 0.732525
1068 4 0.212298 0.377953 0.714915
1027 2 0.230372 0.400142 0.688428
1029 4 0.235574 0.421595 0.676686
806 4 0.256419 0.345641 0.687589
805 2 0.231418 0.345713 0.687969
1018 2 0.383721 0.324506 0.688438
1020 4 0.393557 0.346128 0.680633
1983 4 0.0417466 0.424814 0.739456
2016 4 0.165608 0.483858 0.740083
1175 4 0.196155 0.450386 0.707562
1174 2 0.190527 0.465049 0.727017
1176 4 0.1849 0.479712 0.746472
1140 4 0.247935 0.429972 0.689844
1138 2 0.262614 0.450163 0.688429
1139 4 0.277294 0.470355 0.687015
1987 2 0.291293 0.463788 0.734125
1229 4 0.296815 0.462453 0.692546
1989 4 0.299148 0.470652 0.711401
2028 4 0.291813 0.477948 0.695527
1228 2 0.318392 0.453902 0.683246
2026 2 0.287857 0.501904 0.689557
2991 4 0.00222249 0.0329823 0.783687
2989 2 0.00691646 0.0556346 0.774199
2990 4 0.0116104 0.078287 0.764711
2049 4 0.132667 0.0183489 0.795482
1202 4 0.117317 0.0303218 0.794285
2047 2 0.130835 0.00147183 0.777125
1201 2 0.122112 0.0547926 0.796121
1203 4 0.126906 0.0792634 0.797957
817 2 0.335066 0.0452392 0.815612
1085 4 0.312655 0.0786836 0.816559
819 4 0.323028 0.0648257 0.825443
1257 4 0.265077 0.0995772 0.76828
818 4 0.347104 0.0256527 0.805782
974 4 0.352777 0.012277 0.792985
2322 4 0.490244 0.0510232 0.773694
1113 4 0.431709 0.0817155 0.735065
1111 2 0.449636 0.0750536 0.751172
845 4 0.485595 0.0703047 0.776944
1112 4 0.467563 0.0683917 0.767279
844 2 0.488223 0.0810281 0.799378
833 4 0.00852341 0.0970038 0.76799
832 2 0.012909 0.11077 0.788396
863 4 0.0178497 0.0922087 0.751806
1125 4 0.0336545 0.134772 0.809941
834 4 0.0172946 0.124537 0.808803
1106 4 0.109529 0.100829 0.769522
911 4 0.122907 0.108271 0.821708
34 3 0.121931 0.0922733 0.779813
31 1 0.131393 0.105248 0.796562
35 3 0.116618 0.121213 0.803306
32 3 0.13659 0.0917079 0.814417
33 3 0.150849 0.115235 0.788809
1255 2 0.24703 0.104513 0.784866
1256 4 0.228982 0.10945 0.801452
840 4 0.226103 0.101358 0.819712
1084 2 0.299192 0.096089 0.804687
1086 4 0.285728 0.113494 0.792814
1023 4 0.401278 0.154155 0.821837
1021 2 0.37876 0.143292 0.821467
1022 4 0.356243 0.132429 0.821097
846 4 0.490851 0.0917514 0.821812
1129 2 0.159102 0.250287 0.761133
1277 4 0.188328 0.244297 0.794968
977 4 0.286529 0.217699 0.761845
918 4 0.28242 0.235893 0.758937
1298 4 0.287512 0.227364 0.777723
1297 2 0.282437 0.219746 0.800991
1299 4 0.277362 0.212128 0.824259
47 3 0.405066 0.172646 0.814241
48 3 0.396441 0.176443 0.777856
46 1 0.40296 0.187765 0.797032
1043 4 0.408563 0.213679 0.800805
49 3 0.386903 0.203494 0.802789
3372 4 0.498045 0.232358 0.819566
1143 4 0.416707 0.186543 0.774298
1141 2 0.43247 0.182801 0.755253
50 3 0.422995 0.198023 0.793567
1307 4 0.476861 0.23261 0.820064
1131 4 0.175819 0.244135 0.77868
1276 2 0.206025 0.258659 0.805251
1278 4 0.223721 0.273021 0.815534
1236 4 0.230626 0.286787 0.802782