ITEM: TIMESTEP
710000
ITEM: NUMBER OF ATOMS
4590
ITEM: BOX BOUNDS pp pp pp
-9.9985700000000008e+00 9.9985700000000008e+00
-9.9985700000000008e+00 9.9985700000000008e+00
-9.9985700000000008e+00 9.9985700000000008e+00
ITEM: ATOMS id type xs ys zs
1668 4 0.104544 0.0318988 0.0712385
1475 4 0.288478 0.0162119 0.054273
492 4 0.285151 0.0389317 0.0786661
297 4 0.307501 0.075835 0.0463029
1607 4 0.388063 0.00278862 0.0123594
987 4 0.401394 0.0134923 0.00284919
985 2 0.417306 0.032755 0.00188611
747 4 0.44628 0.0548987 0.0170859
2974 2 0.478213 0.0228638 0.0238805
2976 4 0.494065 0.00487073 0.0309613
2468 4 0.500053 0.00416889 0.0487258
2975 4 0.462361 0.0408569 0.0167996
986 4 0.433218 0.0520178 0.00092303
463 2 0.0619165 0.0888139 0.00687515
465 4 0.0555529 0.0960581 0.0299447
567 4 0.21408 0.143762 0.0699957
295 2 0.329592 0.0835547 0.0551108
358 2 0.318237 0.141505 0.0614881
359 4 0.306742 0.122663 0.0732359
360 4 0.329733 0.160347 0.0497404
296 4 0.351683 0.0912743 0.0639187
557 4 0.368527 0.0980755 0.0538298
556 2 0.385958 0.104916 0.0372596
558 4 0.403388 0.111757 0.0206893
769 2 0.414643 0.157763 0.0591954
745 2 0.442657 0.0794721 0.0142217
746 4 0.439034 0.104045 0.0113576
771 4 0.438213 0.152489 0.0656613
554 4 0.0636893 0.229405 0.00405556
566 4 0.177263 0.176706 0.062255
565 2 0.195672 0.160234 0.0661253
666 4 0.332908 0.190091 0.0128321
664 2 0.33513 0.202598 0.0343684
665 4 0.337353 0.215105 0.0559047
770 4 0.391072 0.163036 0.0527294
323 4 0.409191 0.239666 0.0726317
322 2 0.417927 0.246427 0.0502011
553 2 0.0704806 0.248799 0.0182998
555 4 0.0772719 0.268194 0.032544
293 4 0.165857 0.299703 0.021845
507 4 0.158595 0.307044 0.0393769
505 2 0.178982 0.297602 0.0503503
483 4 0.214714 0.282864 0.0728095
506 4 0.199368 0.288161 0.0613237
481 2 0.238891 0.277325 0.0759637
287 4 0.159415 0.333453 0.00731748
573 4 0.2749 0.263252 0.065306
482 4 0.263069 0.271786 0.079118
572 4 0.295471 0.26913 0.0201063
571 2 0.285186 0.266191 0.0427061
357 4 0.302252 0.284352 0.00969124
1069 2 0.382452 0.280698 0.0211323
1070 4 0.406005 0.288806 0.0232995
957 4 0.351147 0.33357 0.0183122
1071 4 0.358899 0.27259 0.0189651
324 4 0.426664 0.253189 0.0277704
671 4 0.440491 0.312957 0.0695384
280 2 0.435854 0.303936 0.0345579
281 4 0.446724 0.319157 0.0511513
282 4 0.424984 0.288715 0.0179644
330 4 0.00781389 0.413548 0.00465191
550 2 0.0856051 0.401482 0.0674255
552 4 0.109222 0.395664 0.0732217
455 4 0.12367 0.396703 0.0855893
454 2 0.14826 0.400924 0.0839445
288 4 0.178708 0.367603 0.0383383
286 2 0.169062 0.350528 0.0228279
250 2 0.292223 0.407506 0.0238299
609 4 0.298745 0.426271 0.0520961
252 4 0.287901 0.4111 0.0481935
741 4 0.338672 0.347217 0.0543425
739 2 0.350816 0.342923 0.0757732
551 4 0.0619886 0.4073 0.0616293
245 4 0.230075 0.442521 0.0594757
626 4 0.21822 0.447444 0.0756611
244 2 0.236397 0.446044 0.0355425
246 4 0.242719 0.449567 0.0116093
607 2 0.315833 0.426106 0.0703488
563 4 0.46111 0.487298 0.0657363
1666 2 0.0972987 0.048694 0.0882855
19 3 0.045333 0.0632092 0.152805
1667 4 0.0900533 0.0654893 0.105333
701 4 0.0908143 0.0842139 0.0971042
448 2 0.174009 0.0701402 0.148014
450 4 0.180234 0.0476847 0.157079
490 2 0.2869 0.0593884 0.0929365
652 2 0.298968 0.0165773 0.158261
653 4 0.318501 0.0271584 0.146786
491 4 0.288649 0.0798451 0.107207
654 4 0.279435 0.00599621 0.169737
311 4 0.387826 0.0693007 0.162311
310 2 0.404416 0.0823401 0.148897
2722 2 0.482927 0.0548651 0.128874
2723 4 0.47812 0.0760494 0.116493
2724 4 0.487734 0.0336809 0.141256
1760 4 0.491401 0.0148438 0.146564
2744 4 0.497939 0.0289505 0.157308
380 4 0.0146966 0.15438 0.156166
700 2 0.0958281 0.105462 0.109293
702 4 0.100842 0.12671 0.121481
476 4 0.0979203 0.131884 0.139807
475 2 0.115895 0.14083 0.154709
237 4 0.165861 0.153578 0.146582
477 4 0.133869 0.149776 0.169611
449 4 0.167785 0.0925957 0.138948
235 2 0.173897 0.130117 0.143385
236 4 0.181932 0.106657 0.140189
581 4 0.278473 0.112347 0.152256
628 2 0.413577 0.133719 0.124766
630 4 0.404837 0.157016 0.12722
629 4 0.422317 0.110421 0.122312
312 4 0.421006 0.0953796 0.135484
339 4 0.0777086 0.223749 0.115773
2625 4 0.0182524 0.19243 0.122581
337 2 0.0775411 0.230123 0.13995
338 4 0.0773735 0.236498 0.164126
737 4 0.188713 0.174338 0.110684
736 2 0.190476 0.198152 0.118096
738 4 0.192239 0.221967 0.125508
277 2 0.24638 0.228846 0.161086
279 4 0.229091 0.214689 0.172306
461 4 0.299641 0.226148 0.0953234
460 2 0.318543 0.210098 0.0985344
354 4 0.292589 0.245014 0.0954651
352 2 0.28465 0.248074 0.118977
284 4 0.281575 0.238766 0.156107
353 4 0.276712 0.251134 0.142488
278 4 0.263668 0.243003 0.149867
283 2 0.301584 0.229798 0.168123
462 4 0.337444 0.194048 0.101745
254 4 0.388263 0.167444 0.128821
255 4 0.348562 0.195837 0.117942
253 2 0.368413 0.18164 0.123382
765 4 0.36808 0.24123 0.141827
624 4 0.383402 0.240005 0.130643
763 2 0.354075 0.228415 0.158101
518 4 0.494669 0.245826 0.123363
528 4 0.475382 0.244465 0.128942
536 4 0.175247 0.316306 0.111699
754 2 0.256115 0.286638 0.152411
755 4 0.260947 0.262354 0.148933
622 2 0.373273 0.25044 0.110304
623 4 0.363145 0.260875 0.0899645
670 2 0.427136 0.324895 0.0869824
526 2 0.465655 0.257122 0.148187
621 4 0.00779405 0.34769 0.110684
619 2 0.00208414 0.355414 0.0875987
535 2 0.188306 0.337012 0.116787
456 4 0.172849 0.405145 0.0822997
537 4 0.201366 0.357718 0.121875
302 4 0.309055 0.360665 0.158574
387 4 0.324091 0.3631 0.145422
385 2 0.342343 0.355616 0.130059
740 4 0.362959 0.338629 0.097204
15 3 0.379358 0.356326 0.120789
386 4 0.360595 0.348131 0.114696
11 1 0.398941 0.367401 0.117251
13 3 0.411334 0.36803 0.136858
14 3 0.394616 0.388986 0.109917
495 4 0.403323 0.401096 0.0966393
12 3 0.411082 0.356362 0.10113
672 4 0.413781 0.336834 0.104426
596 4 0.48277 0.418176 0.166837
315 4 0.995277 0.435792 0.113324
625 2 0.197523 0.459311 0.0831442
627 4 0.176827 0.471179 0.0906274
638 4 0.252071 0.490479 0.156431
767 4 0.267078 0.48199 0.167086
608 4 0.332921 0.425941 0.0886016
523 2 0.336459 0.501428 0.087402
525 4 0.356071 0.488414 0.0789631
658 2 0.352925 0.438193 0.121629
659 4 0.347757 0.425291 0.100844
660 4 0.358092 0.451095 0.142414
228 4 0.467198 0.470214 0.0718091
493 2 0.41593 0.419406 0.108085
226 2 0.479579 0.457559 0.0894659
494 4 0.428537 0.437715 0.11953
227 4 0.49196 0.444905 0.107123
16 1 0.048618 0.0672621 0.175415
17 3 0.02902 0.062961 0.186665
2480 4 0.0163617 0.0483294 0.177724
18 3 0.0652116 0.0532829 0.183639
1422 4 0.0198652 0.0300423 0.169461
1420 2 0.0242066 0.00590398 0.174327
673 2 0.120422 0.0190649 0.243462
674 4 0.134603 0.0304182 0.226282
689 4 0.174213 0.0185427 0.244078
1506 4 0.263197 0.00887421 0.18101
24 3 0.331946 0.0542037 0.246457
21 1 0.350436 0.0451101 0.235789
25 3 0.346055 0.0423972 0.213606
759 4 0.36398 0.0571248 0.2156
22 3 0.368259 0.0594355 0.238295
757 2 0.377902 0.0678352 0.197806
758 4 0.391824 0.0785455 0.180011
23 3 0.35584 0.0246698 0.245349
742 2 0.491248 0.0698264 0.22439
743 4 0.477359 0.0896864 0.230543
20 3 0.0544935 0.0890282 0.178634
578 4 0.0689584 0.0906941 0.232446
379 2 0.0159926 0.145642 0.179557
381 4 0.0172887 0.136904 0.202948
512 4 0.0169299 0.14412 0.221397
511 2 0.0288098 0.161875 0.234389
577 2 0.0928854 0.0978612 0.23359
579 4 0.116812 0.105028 0.234735
691 2 0.238583 0.0895651 0.227493
693 4 0.24664 0.0817524 0.205149
582 4 0.266975 0.115516 0.200821
580 2 0.272724 0.113932 0.176538
27 3 0.307083 0.161043 0.244938
632 4 0.364762 0.112965 0.246361
333 4 0.449142 0.121573 0.249475
513 4 0.0406897 0.17963 0.247381
396 4 0.998485 0.247757 0.24109
363 4 0.0855685 0.23984 0.182015
361 2 0.0963256 0.250573 0.201871
285 4 0.321593 0.220831 0.18014
764 4 0.340071 0.215599 0.174374
520 2 0.495663 0.185116 0.231685
521 4 0.484296 0.162922 0.233531
522 4 0.507031 0.207309 0.229839
394 2 0.00765951 0.267056 0.228107
395 4 0.0168343 0.286354 0.215123
750 4 0.0874644 0.316616 0.246502
371 4 0.156703 0.299339 0.221414
370 2 0.142112 0.279044 0.222051
372 4 0.127521 0.25875 0.222688
748 2 0.0904386 0.295586 0.233308
362 4 0.107083 0.261307 0.221727
749 4 0.0934127 0.274557 0.220114
343 2 0.235389 0.312105 0.241144
345 4 0.212207 0.321183 0.243464
756 4 0.251283 0.310923 0.155889
344 4 0.258571 0.303027 0.238825
612 4 0.245564 0.328646 0.16361
308 4 0.317881 0.283709 0.213997
610 2 0.263993 0.335221 0.179177
307 2 0.328466 0.287969 0.236246
527 4 0.455929 0.269779 0.167432
648 4 0.0780018 0.338205 0.18862
647 4 0.07377 0.387904 0.192196
646 2 0.0758859 0.363054 0.190408
415 2 0.19476 0.411292 0.175186
291 4 0.233075 0.392386 0.186282
416 4 0.213619 0.396397 0.182092
289 2 0.251993 0.407884 0.191484
611 4 0.282422 0.341795 0.194743
303 4 0.300893 0.397728 0.191138
301 2 0.304974 0.379197 0.174856
729 4 0.310657 0.388415 0.205349
727 2 0.308702 0.379452 0.228609
644 4 0.41545 0.369419 0.225436
447 4 0.428262 0.376901 0.237729
595 2 0.46804 0.401022 0.177512
597 4 0.453309 0.383868 0.188186
643 2 0.424847 0.37871 0.20421
645 4 0.434244 0.388 0.182983
264 4 0.012704 0.442897 0.220351
262 2 0.0159229 0.424372 0.236833
417 4 0.175901 0.426186 0.168279
290 4 0.270911 0.423383 0.196687
768 4 0.272491 0.443077 0.198025
766 2 0.269784 0.462533 0.182555
232 2 0.0117962 0.0409982 0.28778
233 4 0.031558 0.0334751 0.274436
1402 2 0.0748858 0.0214991 0.274871
1404 4 0.0504846 0.026593 0.272919
427 2 0.0648306 0.0161513 0.331008
428 4 0.0606749 0.0398501 0.33781
675 4 0.106241 0.00771157 0.260643
1403 4 0.0992871 0.0164051 0.276824
1464 4 0.113284 0.0155767 0.29032
1700 4 0.268533 0.056009 0.322966
699 4 0.346317 0.0729332 0.328672
697 2 0.365461 0.0572257 0.33213
478 2 0.491741 0.0586638 0.291114
480 4 0.468056 0.0649022 0.296146
351 4 0.45349 0.0775098 0.290598
258 4 0.439366 0.021483 0.339188
531 4 0.999537 0.163605 0.286623
398 4 0.033365 0.154812 0.326428
692 4 0.230526 0.0973778 0.249836
723 4 0.228354 0.0818106 0.260959
721 2 0.229407 0.0864072 0.285514
722 4 0.23046 0.0910038 0.310069
249 4 0.233112 0.106211 0.323002
403 2 0.242578 0.143664 0.300025
404 4 0.238974 0.121418 0.310855
405 4 0.246183 0.16591 0.289195
28 3 0.293004 0.127984 0.255962
26 1 0.299111 0.149235 0.262998
29 3 0.315859 0.147776 0.278991
707 4 0.324242 0.139747 0.29503
30 3 0.281031 0.160052 0.271645
633 4 0.336695 0.12748 0.28512
631 2 0.350728 0.120222 0.265741
706 2 0.339618 0.150838 0.311332
708 4 0.354993 0.161929 0.327634
331 2 0.460845 0.143664 0.249901
349 2 0.440399 0.0972843 0.298521
350 4 0.427308 0.117059 0.306444
393 4 0.0606886 0.181909 0.253879
391 2 0.084505 0.185867 0.260382
444 4 0.0182882 0.244575 0.307495
392 4 0.108321 0.189825 0.266886
546 4 0.156243 0.216297 0.252941
544 2 0.159518 0.200654 0.27217
390 4 0.11994 0.238944 0.325733
388 2 0.0951202 0.241812 0.326687
545 4 0.162793 0.18501 0.291398
717 4 0.386061 0.218224 0.326153
332 4 0.472548 0.165756 0.250328
762 4 0.47006 0.178489 0.26443
761 4 0.487887 0.180073 0.311125
760 2 0.478973 0.179281 0.287777
442 2 0.0139323 0.248943 0.283265
443 4 0.00957646 0.253311 0.259034
401 4 0.164788 0.250846 0.307991
400 2 0.185045 0.261075 0.297494
402 4 0.205302 0.271305 0.286997
676 2 0.186448 0.317892 0.31157
677 4 0.185816 0.333075 0.291715
678 4 0.18708 0.302708 0.331426
496 2 0.318131 0.305571 0.29058
497 4 0.299069 0.306599 0.306727
377 4 0.298104 0.309336 0.327766
498 4 0.337194 0.304544 0.274432
309 4 0.33905 0.292229 0.258495
615 4 0.366103 0.317986 0.311604
541 2 0.38595 0.28539 0.33315
543 4 0.375849 0.301627 0.31704
263 4 0.0191418 0.405847 0.253314
2493 4 0.999659 0.355445 0.308557
364 2 0.020011 0.362191 0.285924
365 4 0.0359983 0.38008 0.278884
601 2 0.0751345 0.3922 0.290696
603 4 0.0563623 0.384508 0.276081
366 4 0.00402365 0.344302 0.292964
602 4 0.0939067 0.399893 0.305312
549 4 0.0941193 0.405637 0.323096
300 4 0.110135 0.347596 0.258169
298 2 0.13226 0.358718 0.261627
299 4 0.154385 0.36984 0.265085
734 4 0.171757 0.369396 0.255757
733 2 0.184332 0.359567 0.275004
735 4 0.196907 0.349737 0.29425
728 4 0.306747 0.370489 0.251868
433 2 0.311478 0.373719 0.323602
434 4 0.336405 0.371764 0.323704
435 4 0.286551 0.375674 0.3235
613 2 0.359306 0.34003 0.32125
614 4 0.352509 0.362074 0.330896
445 2 0.420615 0.36814 0.259865
446 4 0.412969 0.35938 0.282
2463 4 0.00684317 0.478202 0.312471
777 4 0.0814929 0.451545 0.312866
775 2 0.0878677 0.471113 0.327066
412 2 0.209905 0.489961 0.328764
413 4 0.213705 0.482693 0.305144
436 2 0.332915 0.45588 0.319488
437 4 0.335792 0.439124 0.301153
1436 4 0.254874 0.501558 0.325309
231 4 0.417996 0.480925 0.24296
713 4 0.417952 0.467212 0.327853
2862 4 0.497886 0.466451 0.330433
119 3 0.481267 0.450371 0.326047
712 2 0.44074 0.457249 0.325281
714 4 0.463528 0.447286 0.322709
2860 2 0.504197 0.483606 0.313373
316 2 0.0557408 0.0746614 0.338059
317 4 0.0443378 0.052414 0.338513
1781 4 0.122744 0.0216258 0.388661
368 4 0.112134 0.0245122 0.404283
1701 4 0.242442 0.0210656 0.347439
605 4 0.192994 0.0758709 0.359582
248 4 0.212829 0.0798538 0.360346
1699 2 0.255487 0.0385373 0.335203
439 2 0.301615 0.996099 0.414469
698 4 0.384605 0.0415182 0.335588
257 4 0.398381 0.0492097 0.346408
1428 4 0.449707 0.0154915 0.36791
256 2 0.418873 0.0353463 0.342798
2879 4 0.488992 0.0680965 0.424003
732 4 0.0809802 0.109683 0.337122
399 4 0.0638753 0.117314 0.339225
2586 4 0.00359459 0.125939 0.398599
318 4 0.0671438 0.0969087 0.337606
397 2 0.0486202 0.136063 0.332827
457 2 0.0284146 0.152544 0.416905
458 4 0.0233115 0.131589 0.404256
606 4 0.146474 0.0876818 0.345542
731 4 0.127389 0.0923665 0.343982
730 2 0.104185 0.101025 0.340552
604 2 0.169734 0.0817763 0.352562
598 2 0.139064 0.147217 0.36132
600 4 0.143394 0.122889 0.365142
247 2 0.22297 0.0930325 0.341674
682 2 0.319608 0.084022 0.393313
684 4 0.308935 0.0970165 0.411817
683 4 0.33028 0.0710274 0.374808
452 4 0.468231 0.110728 0.400522
451 2 0.452657 0.127746 0.410165
389 4 0.0703 0.24468 0.32764
599 4 0.134734 0.171544 0.357498
474 4 0.201183 0.205001 0.378072
276 4 0.185601 0.211247 0.367532
472 2 0.224725 0.197239 0.381343
274 2 0.1823 0.23273 0.379892
473 4 0.248267 0.189478 0.384614
715 2 0.387388 0.212309 0.350411
716 4 0.388716 0.206394 0.374668
467 4 0.399964 0.195223 0.387865
466 2 0.393123 0.20125 0.411147
269 4 0.485328 0.25184 0.395138
268 2 0.469804 0.234718 0.385598
270 4 0.454279 0.217596 0.376058
347 4 0.0492643 0.286844 0.370858
346 2 0.031098 0.298164 0.383781
618 4 0.0656283 0.298924 0.373623
348 4 0.0129317 0.309485 0.396704
616 2 0.088183 0.307112 0.366594
617 4 0.110738 0.315301 0.359564
275 4 0.178999 0.254213 0.392251
375 4 0.186115 0.315416 0.347007
373 2 0.187847 0.318795 0.371721
374 4 0.189578 0.322174 0.396434
376 2 0.275278 0.307725 0.337845
378 4 0.252453 0.306114 0.347923
488 4 0.305572 0.265155 0.416166
542 4 0.39605 0.269153 0.349259
420 4 0.407869 0.254636 0.342655
418 2 0.432557 0.25608 0.346342
419 4 0.457246 0.257524 0.350029
510 4 0.211426 0.367078 0.344146
508 2 0.233794 0.368966 0.355159
509 4 0.256162 0.370854 0.366172
503 4 0.271079 0.390395 0.407913
335 4 0.364553 0.35347 0.428852
334 2 0.346613 0.370211 0.424054
559 2 0.47838 0.40433 0.411597
561 4 0.455587 0.407014 0.401673
751 2 0.440838 0.417065 0.363881
753 4 0.42656 0.416731 0.343358
547 2 0.0808303 0.417128 0.340887
548 4 0.0675414 0.428619 0.358679
407 4 0.0798221 0.425425 0.373676
500 4 0.0839782 0.50662 0.347208
406 2 0.0904101 0.432421 0.39522
570 4 0.147886 0.499703 0.417885
776 4 0.0942425 0.490681 0.341266
1555 2 0.240457 0.484678 0.39907
1556 4 0.2184 0.483013 0.387413
438 4 0.330037 0.472635 0.337822
3 3 0.331004 0.465364 0.355184
5 3 0.299153 0.470159 0.374681
1 1 0.319041 0.479679 0.368981
4 3 0.331336 0.484373 0.388092
1557 4 0.262514 0.486342 0.410727
594 4 0.409719 0.471171 0.346476
592 2 0.412748 0.47706 0.370587
593 4 0.415777 0.482949 0.394697
752 4 0.455115 0.417398 0.384405
118 3 0.501309 0.424979 0.345996
116 1 0.491344 0.445929 0.34647
117 3 0.475251 0.446139 0.362905
718 2 0.0638738 0.0376565 0.473848
720 4 0.0418194 0.032052 0.48421
2237 4 0.0318943 0.0200398 0.497857
719 4 0.0859282 0.0432609 0.463486
369 4 0.101269 0.0366625 0.451559
367 2 0.106702 0.0305873 0.427921
340 2 0.207828 0.0678918 0.492397
341 4 0.217166 0.0449514 0.488973
441 4 0.300002 0.018071 0.426292
962 4 0.310759 0.0262728 0.439908
961 2 0.301094 0.0321163 0.462215
963 4 0.29143 0.0379598 0.484523
426 4 0.375891 0.0154998 0.416773
424 2 0.364349 0.030772 0.432858
425 4 0.352808 0.0460442 0.448943
725 4 0.391935 0.0531246 0.466934
724 2 0.39225 0.0777915 0.47101
686 4 0.151351 0.159869 0.417125
1181 4 0.246159 0.12159 0.478066
320 4 0.304642 0.105059 0.430003
321 4 0.273422 0.144019 0.427149
319 2 0.289032 0.124539 0.428576
726 4 0.392565 0.102459 0.475087
453 4 0.437083 0.144765 0.419808
2878 2 0.485667 0.0896872 0.436167
2880 4 0.482343 0.111278 0.448331
640 2 0.486123 0.127042 0.476934
515 4 0.432256 0.147845 0.439638
514 2 0.418493 0.158452 0.457617
641 4 0.47387 0.142491 0.492309
260 4 0.0467897 0.183437 0.439502
459 4 0.0335178 0.1735 0.429554
259 2 0.0716486 0.185954 0.438564
685 2 0.133382 0.17466 0.426262
687 4 0.115412 0.189452 0.435399
261 4 0.0965074 0.188472 0.437626
1035 4 0.105766 0.197809 0.451427
1033 2 0.118861 0.20909 0.469494
1034 4 0.131956 0.220372 0.487562
489 4 0.313934 0.228843 0.449516
411 4 0.31955 0.20991 0.453257
487 2 0.309753 0.246999 0.432841
409 2 0.344083 0.208327 0.448696
410 4 0.368616 0.206743 0.444134
468 4 0.386283 0.207277 0.43443
575 4 0.394387 0.179906 0.489107
516 4 0.40473 0.16906 0.475596
305 4 0.50431 0.196451 0.448011
695 4 0.061119 0.265361 0.46432
694 2 0.0853618 0.26579 0.470425
696 4 0.109605 0.26622 0.476531
9 3 0.153376 0.324254 0.497506
1258 2 0.141358 0.291929 0.485364
1259 4 0.158286 0.304449 0.498849
1260 4 0.124429 0.279409 0.471879
857 4 0.207314 0.261642 0.504881
651 4 0.243791 0.283814 0.473613
649 2 0.255596 0.268982 0.489917
650 4 0.267402 0.25415 0.50622
266 4 0.351089 0.285824 0.460415
267 4 0.398 0.268501 0.46054
265 2 0.374544 0.277162 0.460478
583 2 0.46165 0.275302 0.481916
585 4 0.44418 0.270571 0.464664
584 4 0.479119 0.280034 0.499167
326 4 0.0851797 0.343973 0.461416
6 1 0.165197 0.340364 0.48571
327 4 0.1339 0.353949 0.466661
325 2 0.10954 0.348961 0.464039
7 3 0.150312 0.355462 0.476787
384 4 0.112156 0.42437 0.476108
502 2 0.247037 0.394225 0.413613
10 3 0.176967 0.330574 0.46885
711 4 0.167487 0.362864 0.421405
504 4 0.222995 0.398056 0.419313
709 2 0.187142 0.377837 0.425231
710 4 0.206798 0.39281 0.429056
336 4 0.328672 0.386953 0.419256
668 4 0.322904 0.393794 0.436821
667 2 0.301738 0.40487 0.444203
587 4 0.412647 0.411956 0.432917
238 2 0.39997 0.38062 0.431445
240 4 0.378831 0.36745 0.429243
239 4 0.42111 0.39379 0.433646
3307 2 0.499017 0.382879 0.497982
1382 4 0.0200655 0.503641 0.461426
680 4 0.0176101 0.436955 0.444606
1383 4 0.0252475 0.454583 0.453228
1381 2 0.0226565 0.479112 0.457327
568 2 0.138651 0.47651 0.419287
408 4 0.100998 0.439416 0.416763
382 2 0.114749 0.433662 0.45304
383 4 0.117342 0.442954 0.429973
569 4 0.129416 0.453317 0.420688
772 2 0.280731 0.428827 0.491028
635 4 0.277351 0.448139 0.463902
774 4 0.283668 0.428964 0.466198
634 2 0.270168 0.458694 0.442404
636 4 0.262984 0.469249 0.420905
669 4 0.280572 0.415947 0.451584
586 2 0.401567 0.433156 0.440195
880 2 0.344817 0.428354 0.486454
882 4 0.356097 0.423045 0.46478
588 4 0.390488 0.454357 0.447472
663 4 0.447324 0.460734 0.480038
661 2 0.457877 0.482662 0.474294
1128 4 0.004891 0.0867674 0.575676
2430 4 0.218931 0.0250862 0.493976
2428 2 0.216213 0.00176203 0.502565
430 2 0.304428 0.0569485 0.516332
432 4 0.286598 0.0502815 0.50012
431 4 0.322257 0.0636156 0.532544
951 4 0.256636 0.0539933 0.586735
1031 4 0.262417 0.0730894 0.582561
841 2 0.364084 0.065604 0.537947
842 4 0.388794 0.0638968 0.534531
843 4 0.339374 0.0673111 0.541363
1217 4 0.393029 0.0546133 0.517287
1216 2 0.411671 0.040077 0.525434
1218 4 0.430312 0.0255406 0.533581
938 4 0.0827852 0.165808 0.535707
937 2 0.0988953 0.161583 0.554356
1059 4 0.125259 0.120933 0.577389
1151 4 0.168075 0.126437 0.517619
939 4 0.115005 0.157358 0.573005
342 4 0.19849 0.0908321 0.495821
1030 2 0.244413 0.0848104 0.569768
1152 4 0.210851 0.104767 0.503429
1150 2 0.189463 0.115602 0.510524
1032 4 0.226409 0.0965313 0.556976
1182 4 0.273373 0.12798 0.51953
1180 2 0.259766 0.124785 0.498798
877 2 0.0506202 0.216813 0.575599
879 4 0.0742394 0.20861 0.57542
470 4 0.0216703 0.171836 0.542217
469 2 0.0250275 0.187512 0.52303
878 4 0.0270011 0.225015 0.575778
471 4 0.0283846 0.203188 0.503842
858 4 0.208802 0.226053 0.539979
856 2 0.208058 0.243848 0.52243
898 2 0.307274 0.17811 0.569236
900 4 0.297249 0.176979 0.546358
899 4 0.317298 0.179241 0.592114
576 4 0.358373 0.18937 0.522486
574 2 0.37638 0.184638 0.505796
3159 4 0.475885 0.178567 0.567517
3157 2 0.496767 0.188855 0.558392
983 4 0.0199608 0.311999 0.521834
1245 4 0.0541169 0.303542 0.566232
1243 2 0.0505822 0.280091 0.574154
872 4 0.344838 0.288558 0.526039
871 2 0.355995 0.309591 0.533676
873 4 0.367151 0.330624 0.541313
3065 4 0.494747 0.252363 0.511256
953 4 0.439341 0.251711 0.573519
2456 4 0.496359 0.270904 0.504367
904 2 0.478381 0.258871 0.573602
906 4 0.457684 0.247706 0.565108
982 2 0.0219027 0.325994 0.542463
984 4 0.0238445 0.339989 0.563092
3354 4 0.010147 0.355617 0.566022
3352 2 0.999974 0.377802 0.560589
1189 2 0.226706 0.382452 0.580772
1190 4 0.243929 0.368633 0.569041
1172 4 0.221387 0.412076 0.588998
8 3 0.179647 0.351606 0.499965
803 4 0.25844 0.368992 0.555004
802 2 0.266876 0.358909 0.533736
804 4 0.275311 0.348826 0.512467
1239 4 0.331284 0.332604 0.577945
930 4 0.32669 0.351602 0.581876
813 4 0.356769 0.346497 0.536606
928 2 0.336871 0.374433 0.581356
811 2 0.372563 0.362511 0.525685
929 4 0.347052 0.397264 0.580836
812 4 0.388357 0.378525 0.514764
927 4 0.405468 0.379079 0.524053
926 4 0.43943 0.371013 0.559861
925 2 0.422449 0.375046 0.541957
3309 4 0.475633 0.391505 0.495988
539 4 0.0591592 0.467214 0.53025
538 2 0.0800852 0.480896 0.529953
1159 2 0.148761 0.484503 0.58021
540 4 0.101011 0.494577 0.529656
1160 4 0.139212 0.462678 0.572614
773 4 0.277795 0.428691 0.515858
881 4 0.333537 0.433662 0.508128
1952 4 0.320389 0.487177 0.585071
1002 4 0.408643 0.442518 0.553111
1951 2 0.34043 0.500979 0.579321
1000 2 0.428618 0.456907 0.548736
1001 4 0.448594 0.471296 0.544362
1083 4 0.0535159 0.0844814 0.608686
1126 2 0.028013 0.0808739 0.583148
1058 4 0.137742 0.0730663 0.584714
825 4 0.115402 0.0216484 0.628216
949 2 0.27846 0.0444044 0.594283
950 4 0.300283 0.0348156 0.601831
2283 4 0.405918 0.015292 0.631634
3007 2 0.489486 0.0464014 0.584645
3008 4 0.468009 0.0442181 0.59726
809 4 0.465931 0.0628867 0.605023
808 2 0.460387 0.0750095 0.626176
2281 2 0.430226 0.00945013 0.631274
2282 4 0.454535 0.00360824 0.630915
1081 2 0.0606829 0.0869049 0.632518
1127 4 0.0511349 0.0749804 0.590619
1082 4 0.06785 0.0893285 0.656349
1057 2 0.131501 0.0969997 0.581052
1155 4 0.125645 0.141525 0.574408
1153 2 0.143317 0.15127 0.589171
1283 4 0.155066 0.0918578 0.646698
909 4 0.172768 0.162098 0.665517
810 4 0.454843 0.0871323 0.64733
45 3 0.459433 0.109099 0.650839
3424 2 0.4968 0.12286 0.661149
1199 4 0.0205985 0.207899 0.584349
1272 4 0.0873752 0.206138 0.590136
1270 2 0.107496 0.220793 0.592498
1154 4 0.160988 0.161015 0.603934
1271 4 0.127616 0.235448 0.59486
1221 4 0.18036 0.163991 0.597472
1212 4 0.223027 0.199168 0.629219
1219 2 0.200937 0.173933 0.607618
1220 4 0.221514 0.183874 0.617763
1210 2 0.239583 0.190875 0.646021
1211 4 0.256138 0.182583 0.662824
1193 4 0.364116 0.181798 0.658191
1192 2 0.341181 0.183623 0.667981
1025 4 0.431994 0.185514 0.668607
1244 4 0.0470475 0.256641 0.582075
1136 4 0.127308 0.304384 0.596969
948 4 0.135302 0.286298 0.597293
946 2 0.160098 0.283153 0.597988
1135 2 0.130386 0.328909 0.600741
798 4 0.196773 0.289274 0.585614
796 2 0.216426 0.281395 0.598913
947 4 0.184893 0.280009 0.598683
797 4 0.236079 0.273517 0.612212
791 4 0.245408 0.288339 0.602956
792 4 0.288994 0.30298 0.622619
790 2 0.267201 0.29566 0.612787
1238 4 0.302052 0.302927 0.605613
1237 2 0.316668 0.317766 0.591779
805 2 0.34859 0.310862 0.660516
954 4 0.408028 0.288559 0.586262
806 4 0.349921 0.325717 0.640448
952 2 0.423684 0.270135 0.579891
3123 4 0.496788 0.270024 0.662365
1039 2 0.0720866 0.408037 0.638395
1041 4 0.0496504 0.414055 0.629144
3264 4 0.0314799 0.403985 0.628529
3262 2 0.0218879 0.380958 0.630239
3263 4 0.012296 0.357931 0.631949
1040 4 0.0945228 0.402019 0.647646
993 4 0.100536 0.384007 0.642946
1137 4 0.133463 0.353434 0.604513
897 4 0.149679 0.365993 0.602456
991 2 0.116245 0.378155 0.624394
992 4 0.131953 0.372304 0.605842
1191 4 0.209483 0.39627 0.592502
896 4 0.193848 0.386144 0.590466
895 2 0.171763 0.376069 0.596461
1204 2 0.406216 0.394921 0.655158
1205 4 0.386629 0.382337 0.664278
1206 4 0.425802 0.407506 0.646038
3240 4 0.0156015 0.415339 0.631444
1161 4 0.158309 0.506327 0.587806
1171 2 0.220828 0.437069 0.588525
1173 4 0.220269 0.462062 0.588051
1187 4 0.223749 0.481001 0.594594
1186 2 0.200373 0.489874 0.594602
889 2 0.303436 0.478604 0.624016
891 4 0.294563 0.474181 0.646969
890 4 0.31231 0.483028 0.601062
1230 4 0.380566 0.474249 0.66202
1269 4 0.439146 0.463008 0.643265
1267 2 0.450801 0.484488 0.648552
943 2 0.0482043 0.0498046 0.683088
945 4 0.032938 0.0300803 0.681336
944 4 0.0634706 0.0695289 0.684841
1202 4 0.107283 0.0331006 0.760808
2049 4 0.124685 0.0241735 0.758577
1147 2 0.217128 0.0541113 0.724183
1149 4 0.222996 0.0307784 0.717378
1004 4 0.388733 0.0542768 0.686736
1003 2 0.38395 0.0788169 0.687016
42 3 0.448764 0.0768617 0.666326
1163 4 0.465273 0.0788941 0.680857
1162 2 0.477616 0.0584312 0.688213
2320 2 0.486485 0.0282597 0.735079
2321 4 0.493481 0.0270512 0.711104
1164 4 0.489958 0.0379683 0.695568
4581 4 0.501579 0.0101274 0.70629
1076 4 0.0651042 0.0881358 0.675554
862 2 0.0359395 0.107254 0.750138
864 4 0.0534511 0.116504 0.734875
1075 2 0.0615613 0.103162 0.695222
1077 4 0.0580184 0.118188 0.71489
1107 4 0.0660389 0.128959 0.728184
851 4 0.0591002 0.137041 0.711776
1105 2 0.083079 0.142516 0.740473
850 2 0.0486436 0.154875 0.697713
1282 2 0.143359 0.0922745 0.668788
1284 4 0.131653 0.0926912 0.690877
1148 4 0.21126 0.0774442 0.730988
908 4 0.201472 0.161585 0.706463
907 2 0.18712 0.161842 0.68599
1227 4 0.194658 0.143927 0.713983
1225 2 0.201777 0.120689 0.719856
1226 4 0.208897 0.0974513 0.725729
829 2 0.324626 0.145832 0.708851
830 4 0.314148 0.150644 0.686664
1005 4 0.379166 0.103357 0.687296
831 4 0.335103 0.141021 0.731037
43 3 0.433673 0.109135 0.6783
41 1 0.453007 0.0991224 0.670277
44 3 0.469948 0.100847 0.686039
3425 4 0.475335 0.111288 0.666675
852 4 0.038187 0.172709 0.68365
1177 2 0.999942 0.197133 0.697802
1178 4 0.00222099 0.209038 0.719671
1179 4 0.997664 0.185228 0.675933
1215 4 0.998471 0.223748 0.73295
1073 4 0.131971 0.210452 0.752841
1072 2 0.123063 0.233642 0.750004
978 4 0.24512 0.233722 0.743928
1194 4 0.318246 0.185448 0.677771
888 4 0.259387 0.181666 0.681008
886 2 0.283676 0.175853 0.682187
887 4 0.307966 0.170039 0.683365
976 2 0.269473 0.23575 0.749219
977 4 0.293826 0.237778 0.754511
1262 4 0.444725 0.222044 0.712922
1142 4 0.442426 0.188165 0.724675
1024 2 0.440867 0.193578 0.690549
1141 2 0.450843 0.180576 0.746963
1026 4 0.44974 0.201642 0.71249
1261 2 0.45853 0.233634 0.73025
1145 4 0.487394 0.189458 0.702059
1209 4 0.143485 0.302543 0.706757
1207 2 0.126037 0.288057 0.696226
1208 4 0.108588 0.273572 0.685696
821 4 0.156566 0.313139 0.697763
1074 4 0.114155 0.256832 0.747168
820 2 0.178846 0.303182 0.692319
822 4 0.201126 0.293225 0.686875
1063 2 0.233931 0.319839 0.70077
1064 4 0.242665 0.313311 0.67827
916 2 0.312148 0.273209 0.744866
917 4 0.313368 0.296841 0.736791
807 4 0.347259 0.296007 0.680584
1263 4 0.472336 0.245225 0.747578
892 2 0.0276448 0.360777 0.713749
893 4 0.0149919 0.339806 0.708718
894 4 0.0402978 0.381748 0.718779
1280 4 0.0612385 0.383633 0.717036
1279 2 0.0584176 0.408325 0.719784
816 4 0.0654596 0.363663 0.719634
814 2 0.0819289 0.360692 0.738211
942 4 0.113559 0.369724 0.751292
1065 4 0.225197 0.326366 0.723271
1028 4 0.208272 0.382957 0.700692
1066 2 0.188919 0.374156 0.737567
1068 4 0.197372 0.372269 0.714112
1027 2 0.217205 0.398391 0.683166
1029 4 0.226138 0.413825 0.665639
1019 4 0.363833 0.369589 0.744973
1981 2 0.0660204 0.464932 0.731794
1281 4 0.0555967 0.433016 0.722532
1983 4 0.0569709 0.452481 0.71209
1140 4 0.243176 0.423525 0.67314
2016 4 0.178001 0.490896 0.727614
1138 2 0.260758 0.439759 0.680387
1139 4 0.278339 0.455993 0.687635
1988 4 0.310225 0.455975 0.746384
1987 2 0.32333 0.45642 0.725095
1228 2 0.362814 0.474148 0.679628
1229 4 0.345062 0.474047 0.697235
1989 4 0.336435 0.456866 0.703806
1100 4 0.398861 0.474765 0.715109
1099 2 0.418558 0.486073 0.704653
1101 4 0.438255 0.49738 0.694197
2991 4 0.00394858 0.037991 0.750346
1203 4 0.133196 0.0751399 0.752941
1201 2 0.12024 0.0541203 0.756874
2047 2 0.131915 0.000714673 0.76333
1257 4 0.222152 0.0684945 0.78415
1255 2 0.24212 0.078981 0.794944
817 2 0.321468 0.0466008 0.805607
819 4 0.305687 0.0654286 0.81026
1085 4 0.303553 0.0841304 0.817193
818 4 0.337248 0.027773 0.800953
1050 4 0.338493 0.00119873 0.77582
974 4 0.342246 0.011841 0.792093
1113 4 0.411007 0.0716527 0.790735
2322 4 0.479489 0.0294682 0.759053
844 2 0.483791 0.0798942 0.776808
863 4 0.018428 0.098004 0.765401
833 4 0.0199803 0.11466 0.776823
832 2 0.00606156 0.120437 0.796775
911 4 0.118796 0.129538 0.819241
34 3 0.136681 0.138047 0.77884
31 1 0.12658 0.145917 0.798191
35 3 0.105829 0.136797 0.800386
32 3 0.139456 0.139896 0.816277
1106 4 0.100119 0.156073 0.752762
840 4 0.254008 0.0980167 0.821204
1256 4 0.262087 0.0894674 0.805738
1084 2 0.298707 0.104666 0.803777
1086 4 0.293861 0.125201 0.790361
845 4 0.463102 0.0870614 0.788882
1112 4 0.452442 0.0964067 0.803817
1111 2 0.431724 0.0840297 0.797276
1214 4 0.0118834 0.229935 0.780726
1213 2 0.00517725 0.226842 0.756838
33 3 0.125022 0.169057 0.797464
1130 4 0.161167 0.224843 0.796288
1129 2 0.180539 0.225927 0.780518
1131 4 0.199912 0.22701 0.764747
1277 4 0.214661 0.239285 0.769552
918 4 0.310928 0.249577 0.752942