ITEM: TIMESTEP
940000
ITEM: NUMBER OF ATOMS
4590
ITEM: BOX BOUNDS pp pp pp
-9.9985700000000008e+00 9.9985700000000008e+00
-9.9985700000000008e+00 9.9985700000000008e+00
-9.9985700000000008e+00 9.9985700000000008e+00
ITEM: ATOMS id type xs ys zs
1668 4 0.055191 0.0482559 0.0670228
1475 4 0.292155 0.0370438 0.0731369
492 4 0.273741 0.0324951 0.0812864
1474 2 0.301237 0.0149187 0.0658444
987 4 0.39978 0.0225533 0.997695
747 4 0.451785 0.0636053 0.0231924
2974 2 0.468901 0.0266213 0.0293494
2976 4 0.482809 0.0077443 0.0380336
2975 4 0.454994 0.0454983 0.0206653
986 4 0.437899 0.0501816 0.0145572
745 2 0.441922 0.0862788 0.0194752
985 2 0.41884 0.0363675 0.00612633
566 4 0.156488 0.160266 0.0707941
567 4 0.188053 0.16951 0.0331257
565 2 0.172271 0.164888 0.0519599
297 4 0.329609 0.0775053 0.069437
360 4 0.3113 0.165322 0.0624619
358 2 0.334822 0.157335 0.0596178
295 2 0.338523 0.0877676 0.0484513
296 4 0.347438 0.0980299 0.0274657
557 4 0.365069 0.104055 0.021712
556 2 0.389772 0.102871 0.0180341
769 2 0.392109 0.150763 0.0477363
770 4 0.369756 0.161923 0.0467582
359 4 0.358344 0.149347 0.0567737
558 4 0.414475 0.101687 0.0143561
771 4 0.414463 0.139603 0.0487143
746 4 0.432059 0.108952 0.015758
554 4 0.0919794 0.246334 0.0251913
664 2 0.376098 0.200977 0.0339401
665 4 0.364796 0.179286 0.0391302
666 4 0.3874 0.222669 0.0287501
323 4 0.398099 0.257217 0.0767819
462 4 0.346859 0.214891 0.0881869
553 2 0.0788942 0.266056 0.0332555
555 4 0.065809 0.285777 0.0413197
656 4 0.00102874 0.308753 0.0558768
287 4 0.149813 0.313761 0.0426422
292 2 0.154848 0.274959 0.0126235
293 4 0.15943 0.288955 0.0328294
507 4 0.167596 0.304342 0.0427768
505 2 0.186159 0.297296 0.0579734
506 4 0.204723 0.29025 0.07317
481 2 0.231875 0.260147 0.0624502
483 4 0.210499 0.272893 0.0648646
482 4 0.25325 0.247402 0.0600358
573 4 0.268732 0.244948 0.0460182
572 4 0.278748 0.270694 0.00433447
571 2 0.27374 0.257821 0.0251763
957 4 0.360669 0.322522 0.992996
322 2 0.403694 0.268479 0.055171
1069 2 0.392937 0.296112 0.00765946
324 4 0.409289 0.279741 0.0335601
1070 4 0.414403 0.286261 0.0158637
671 4 0.445616 0.319648 0.0627585
280 2 0.44611 0.30189 0.0318535
281 4 0.457515 0.318329 0.0468486
282 4 0.434704 0.285451 0.0168584
670 2 0.429258 0.326723 0.0802951
551 4 0.0634569 0.373891 0.0821705
286 2 0.152266 0.338283 0.038421
288 4 0.154718 0.362805 0.0341997
550 2 0.0878841 0.371698 0.0870369
552 4 0.112311 0.369506 0.0919032
454 2 0.147635 0.385403 0.0858504
456 4 0.172606 0.384509 0.0867809
250 2 0.299655 0.399129 0.0382908
251 4 0.291864 0.38973 0.01647
252 4 0.307446 0.408527 0.0601117
609 4 0.323259 0.417322 0.0695683
741 4 0.332419 0.342444 0.055476
739 2 0.345753 0.33848 0.0762525
245 4 0.221411 0.450886 0.0724096
626 4 0.207323 0.439252 0.0681338
244 2 0.229661 0.457485 0.0497471
246 4 0.23791 0.464083 0.0270846
272 4 0.254401 0.474551 0.0229786
525 4 0.353705 0.487341 0.0858284
563 4 0.460997 0.467064 0.030029
228 4 0.464654 0.458602 0.0476459
226 2 0.469327 0.449053 0.0702768
562 2 0.446967 0.486233 0.0222237
1666 2 0.0714866 0.0605265 0.0814819
19 3 0.052217 0.0778255 0.146065
18 3 0.0590102 0.0404748 0.144279
16 1 0.0547055 0.0583507 0.158432
1667 4 0.0877822 0.0727971 0.0959409
701 4 0.0919488 0.079484 0.113872
448 2 0.203714 0.0636605 0.174032
1506 4 0.246388 0.0290156 0.159076
1539 4 0.175983 0.00728827 0.138692
450 4 0.206884 0.042791 0.187433
490 2 0.275746 0.0509935 0.0979888
652 2 0.289426 0.0188029 0.162869
491 4 0.277751 0.0694918 0.114691
654 4 0.266695 0.026638 0.156005
653 4 0.312156 0.0109678 0.169734
311 4 0.372723 0.0679827 0.16415
310 2 0.386602 0.0857771 0.153384
758 4 0.364214 0.0539442 0.17515
2722 2 0.468798 0.049033 0.149293
2723 4 0.445681 0.0583861 0.147484
2724 4 0.491916 0.0396799 0.151103
1760 4 0.496713 0.0212696 0.153728
1759 2 0.498404 0.00101625 0.139164
702 4 0.079338 0.115482 0.146212
2623 2 0.00859809 0.164471 0.106671
700 2 0.0856434 0.0974827 0.130042
476 4 0.08608 0.134147 0.146996
449 4 0.200543 0.08453 0.160631
236 4 0.197995 0.103744 0.167345
737 4 0.189486 0.172826 0.121466
582 4 0.278866 0.14074 0.149889
581 4 0.325198 0.12704 0.16279
580 2 0.302032 0.13389 0.15634
628 2 0.398917 0.138378 0.119748
630 4 0.393624 0.161799 0.112775
312 4 0.400481 0.103571 0.142618
629 4 0.404209 0.114957 0.126721
254 4 0.387911 0.176157 0.125409
2625 4 0.0171165 0.187396 0.111872
736 2 0.18185 0.196621 0.120665
738 4 0.174214 0.220417 0.119865
461 4 0.299026 0.222618 0.100559
460 2 0.322942 0.218755 0.0943729
354 4 0.281357 0.231179 0.0988057
278 4 0.263833 0.247612 0.157723
352 2 0.278694 0.239453 0.12225
353 4 0.276031 0.247726 0.145695
284 4 0.279836 0.237546 0.161582
255 4 0.361315 0.204668 0.0940959
253 2 0.374613 0.190412 0.109752
765 4 0.378333 0.247682 0.150345
763 2 0.357324 0.239832 0.161397
528 4 0.450673 0.258697 0.119182
646 2 0.0632042 0.32587 0.161456
339 4 0.0975336 0.266408 0.126985
337 2 0.0831986 0.257562 0.145463
536 4 0.194677 0.280963 0.134118
535 2 0.193388 0.305804 0.131587
754 2 0.269308 0.289608 0.154186
755 4 0.269165 0.264998 0.14977
756 4 0.269451 0.314218 0.158602
624 4 0.38008 0.235962 0.134502
622 2 0.382171 0.248425 0.112927
623 4 0.384262 0.260889 0.0913525
672 4 0.4129 0.333797 0.0978317
518 4 0.469268 0.256166 0.110935
526 2 0.441627 0.272247 0.138149
527 4 0.432582 0.285797 0.157116
648 4 0.0531098 0.341666 0.14491
455 4 0.122665 0.386297 0.0849198
537 4 0.1921 0.330646 0.129056
417 4 0.172501 0.413117 0.153039
415 2 0.196449 0.405968 0.152299
302 4 0.302395 0.340247 0.153798
387 4 0.322997 0.346399 0.150593
385 2 0.337391 0.346555 0.130149
740 4 0.359087 0.334516 0.097029
15 3 0.365166 0.362185 0.111517
386 4 0.351785 0.346712 0.109705
11 1 0.387933 0.362379 0.112054
13 3 0.395347 0.360961 0.133995
14 3 0.395918 0.381827 0.102235
12 3 0.395942 0.344291 0.100314
493 2 0.410123 0.409502 0.0969939
495 4 0.4139 0.384786 0.096896
1791 4 0.0613626 0.492978 0.145132
625 2 0.192115 0.440251 0.087955
627 4 0.176906 0.44125 0.107776
607 2 0.329401 0.429477 0.0905373
608 4 0.335543 0.441633 0.111506
658 2 0.374137 0.452504 0.112702
659 4 0.349624 0.45477 0.11708
660 4 0.39865 0.450237 0.108324
494 4 0.406346 0.434218 0.0970918
227 4 0.474001 0.439505 0.0929078
20 3 0.0717549 0.0607385 0.173341
17 3 0.0351669 0.0542505 0.169859
2480 4 0.0302239 0.0365523 0.177316
1422 4 0.0274219 0.0189387 0.183646
2479 2 0.0105422 0.0449721 0.190235
673 2 0.135209 0.0192096 0.242351
674 4 0.14732 0.0149281 0.220899
693 4 0.240259 0.0710546 0.226012
691 2 0.223003 0.0707252 0.244104
689 4 0.177955 0.0126849 0.235254
1504 2 0.233666 0.0109506 0.17078
24 3 0.32737 0.0734083 0.255321
25 3 0.331166 0.0448019 0.231136
21 1 0.341724 0.0571325 0.247109
759 4 0.348133 0.0563396 0.222441
22 3 0.360093 0.0674126 0.237833
757 2 0.356174 0.0551419 0.198795
744 4 0.503163 0.0389065 0.219484
380 4 0.00706591 0.0926861 0.175001
578 4 0.0691178 0.103563 0.208521
379 2 0.0212278 0.11124 0.183965
381 4 0.0353898 0.129795 0.192929
512 4 0.0379525 0.13909 0.211305
511 2 0.040046 0.161847 0.221449
475 2 0.0928379 0.142325 0.169637
477 4 0.0995958 0.150503 0.192278
577 2 0.0912975 0.105917 0.219821
579 4 0.113477 0.108271 0.231121
237 4 0.223932 0.146491 0.168217
235 2 0.210964 0.125118 0.167781
28 3 0.305788 0.145695 0.24849
333 4 0.470981 0.114724 0.247161
331 2 0.485166 0.135278 0.248382
332 4 0.499352 0.155833 0.249603
513 4 0.0421396 0.184605 0.231592
363 4 0.0828412 0.243962 0.178289
443 4 0.00272811 0.228093 0.240434
279 4 0.220585 0.235117 0.179499
546 4 0.174739 0.179147 0.25169
277 2 0.242209 0.241364 0.168611
283 2 0.300831 0.234804 0.174881
285 4 0.321827 0.232062 0.18818
27 3 0.312187 0.182722 0.249316
764 4 0.336315 0.231982 0.17245
521 4 0.489395 0.16944 0.238073
762 4 0.497069 0.173887 0.255216
338 4 0.0688636 0.248716 0.163941
394 2 0.0144914 0.248093 0.214875
395 4 0.0332101 0.252089 0.198787
748 2 0.0831028 0.293647 0.238826
749 4 0.0766297 0.271054 0.230294
647 4 0.0732987 0.310073 0.178001
750 4 0.0895759 0.316241 0.247358
361 2 0.0868757 0.258403 0.198298
371 4 0.160826 0.275594 0.211945
370 2 0.136043 0.272352 0.212641
372 4 0.11126 0.269111 0.213337
362 4 0.0909102 0.272844 0.218307
344 4 0.237685 0.312199 0.230351
612 4 0.265967 0.321937 0.177542
610 2 0.261076 0.320926 0.202041
307 2 0.30957 0.29938 0.22894
308 4 0.312351 0.290795 0.205621
291 4 0.237722 0.397373 0.160641
416 4 0.220398 0.398819 0.15156
289 2 0.24944 0.416158 0.172258
611 4 0.256185 0.319914 0.226541
303 4 0.307608 0.360114 0.199392
301 2 0.305002 0.35018 0.176595
729 4 0.323372 0.360773 0.213115
727 2 0.334602 0.365994 0.234836
447 4 0.396625 0.385645 0.235349
644 4 0.403284 0.370748 0.225579
595 2 0.47248 0.402799 0.188993
597 4 0.465985 0.383887 0.204004
643 2 0.42734 0.375977 0.221201
645 4 0.451395 0.381206 0.216822
263 4 0.00415852 0.460323 0.223104
262 2 0.0103572 0.438363 0.233328
767 4 0.289925 0.485223 0.161903
290 4 0.261158 0.434944 0.183876
768 4 0.281411 0.44105 0.183743
766 2 0.285668 0.463136 0.172823
230 4 0.400259 0.494917 0.209567
596 4 0.478974 0.421711 0.173982
231 4 0.442218 0.468468 0.203197
229 2 0.421239 0.481692 0.206382
234 4 0.0124044 0.0316551 0.308251
232 2 0.0290326 0.0325511 0.289599
233 4 0.0456608 0.0334471 0.270948
1404 4 0.0600291 0.0195714 0.271007
1402 2 0.0846892 0.0186178 0.275026
675 4 0.123098 0.0234911 0.263803
1403 4 0.109349 0.0176642 0.279045
692 4 0.205747 0.0703958 0.262195
723 4 0.218 0.0704661 0.279047
1700 4 0.285766 0.03253 0.357486
23 3 0.348774 0.0433397 0.264385
1496 4 0.374104 0.000396232 0.290662
479 4 0.485399 0.0557385 0.308673
478 2 0.469897 0.0727547 0.298909
351 4 0.436557 0.0849025 0.283581
398 4 0.0487157 0.130974 0.321085
397 2 0.0614788 0.113554 0.333688
721 2 0.221464 0.0860872 0.29826
722 4 0.224929 0.101708 0.317474
249 4 0.230142 0.10997 0.333495
29 3 0.330391 0.160391 0.273452
26 1 0.31035 0.1638 0.262267
632 4 0.375154 0.0997859 0.258071
707 4 0.351016 0.16029 0.276685
633 4 0.362922 0.147101 0.268673
631 2 0.369038 0.123443 0.263372
706 2 0.350305 0.159154 0.301653
350 4 0.391818 0.102738 0.270127
349 2 0.414188 0.09382 0.276854
480 4 0.454395 0.0897708 0.289146
393 4 0.053296 0.181008 0.248128
444 4 0.00917475 0.221838 0.289628
391 2 0.0640626 0.186228 0.270083
442 2 0.00595143 0.224965 0.265031
392 4 0.0748292 0.191448 0.292038
388 2 0.110763 0.233918 0.325184
545 4 0.160248 0.226048 0.261229
390 4 0.12672 0.24348 0.308477
544 2 0.167494 0.202597 0.256459
400 2 0.181964 0.235457 0.310045
402 4 0.190583 0.21285 0.303732
30 3 0.293452 0.166595 0.277277
708 4 0.349594 0.158017 0.326621
717 4 0.396541 0.232063 0.32608
761 4 0.463804 0.196672 0.284795
760 2 0.480436 0.18528 0.270005
300 4 0.0984868 0.327227 0.261397
343 2 0.2413 0.303526 0.253522
345 4 0.244916 0.294853 0.276693
401 4 0.173346 0.258064 0.316357
496 2 0.314305 0.319642 0.282325
497 4 0.309609 0.317269 0.306769
377 4 0.299918 0.308519 0.320989
498 4 0.319001 0.322015 0.257882
309 4 0.306789 0.307964 0.252258
376 2 0.284852 0.297015 0.337295
541 2 0.380584 0.296519 0.328016
543 4 0.362008 0.312838 0.324298
615 4 0.366317 0.325539 0.308892
542 4 0.39916 0.280201 0.331734
364 2 0.00485093 0.374191 0.291242
365 4 0.0266701 0.381218 0.281255
601 2 0.0565725 0.399617 0.292895
603 4 0.047342 0.378493 0.283212
602 4 0.0658029 0.420741 0.302578
549 4 0.0580255 0.425241 0.321196
298 2 0.11834 0.34221 0.263949
299 4 0.138194 0.357194 0.266501
734 4 0.156812 0.353096 0.263929
676 2 0.202103 0.333536 0.324115
677 4 0.205158 0.334287 0.29931
733 2 0.179712 0.348576 0.272894
735 4 0.202611 0.344057 0.281858
433 2 0.30297 0.368409 0.327205
434 4 0.324649 0.36286 0.316051
435 4 0.281292 0.373958 0.338359
728 4 0.345831 0.371214 0.256558
613 2 0.355286 0.347459 0.313688
614 4 0.344255 0.36938 0.318483
445 2 0.385653 0.379466 0.25695
446 4 0.374681 0.373287 0.278551
264 4 0.0165558 0.416404 0.243552
2463 4 0.999205 0.470984 0.314479
2461 2 0.0137641 0.489173 0.323553
1757 4 0.101983 0.478705 0.265672
777 4 0.104226 0.478174 0.296575
775 2 0.10737 0.483897 0.320711
412 2 0.216656 0.497916 0.317445
413 4 0.241366 0.497728 0.321262
414 4 0.191947 0.498103 0.313627
1437 4 0.288459 0.464742 0.313191
1435 2 0.273844 0.484875 0.315691
1803 4 0.324824 0.502523 0.257855
436 2 0.334166 0.462897 0.31994
437 4 0.345719 0.449216 0.30249
316 2 0.0585838 0.0550958 0.346375
317 4 0.0512757 0.0311879 0.346802
318 4 0.0658918 0.0790037 0.345947
428 4 0.0571377 0.0149205 0.337912
1781 4 0.117811 0.0091628 0.401176
368 4 0.103108 0.00440693 0.412487
606 4 0.146263 0.0678392 0.360028
1699 2 0.292077 0.00881287 0.352705
683 4 0.291205 0.0679021 0.391725
699 4 0.344917 0.0707009 0.350181
697 2 0.364359 0.0552907 0.353297
698 4 0.383801 0.0398805 0.356414
257 4 0.400327 0.0288708 0.362253
258 4 0.440378 0.0144555 0.336008
1428 4 0.45955 0.0188256 0.33795
256 2 0.420352 0.0216631 0.349131
2879 4 0.490071 0.0852403 0.411817
399 4 0.0742419 0.0961338 0.34629
732 4 0.082123 0.0802451 0.355841
457 2 0.0348427 0.142257 0.415868
458 4 0.0291661 0.123923 0.399841
604 2 0.160242 0.0879906 0.364896
731 4 0.130738 0.076396 0.366908
730 2 0.106431 0.0783206 0.361375
598 2 0.153043 0.153729 0.373541
599 4 0.133184 0.158795 0.359218
404 4 0.243383 0.120415 0.345684
600 4 0.172901 0.148664 0.387865
605 4 0.174221 0.108142 0.369764
248 4 0.193465 0.103431 0.366853
247 2 0.211803 0.1067 0.350174
403 2 0.251556 0.144043 0.345388
682 2 0.29079 0.0911075 0.401026
320 4 0.307811 0.117265 0.400714
452 4 0.470843 0.15681 0.386306
451 2 0.455497 0.156253 0.406039
389 4 0.0948071 0.224355 0.341891
686 4 0.150806 0.213266 0.408825
275 4 0.160699 0.240727 0.361545
473 4 0.246022 0.182754 0.345819
474 4 0.203268 0.204711 0.359628
276 4 0.203085 0.217363 0.374124
472 2 0.224645 0.193732 0.352723
274 2 0.181892 0.229045 0.367835
405 4 0.259728 0.167672 0.345092
715 2 0.407819 0.215976 0.341545
466 2 0.404076 0.191358 0.392641
716 4 0.419096 0.199888 0.357011
467 4 0.4204 0.190128 0.373742
269 4 0.491171 0.214059 0.387577
268 2 0.473913 0.225949 0.401213
270 4 0.456654 0.237839 0.414849
346 2 0.0624477 0.318627 0.366594
348 4 0.039958 0.31376 0.376377
347 4 0.0849373 0.323494 0.356811
618 4 0.0921247 0.304579 0.362055
616 2 0.115826 0.299641 0.355807
617 4 0.139527 0.294703 0.349559
374 4 0.161176 0.304862 0.391449
678 4 0.199047 0.332785 0.34892
375 4 0.198049 0.317115 0.359969
373 2 0.179612 0.310988 0.375709
378 4 0.269787 0.285511 0.3536
420 4 0.410631 0.280985 0.348815
418 2 0.428617 0.26521 0.356084
419 4 0.446604 0.249436 0.363352
2814 4 0.00571597 0.397033 0.414069
681 4 0.0149898 0.411949 0.420076
510 4 0.223084 0.39272 0.361861
508 2 0.227267 0.368073 0.361413
509 4 0.231449 0.343425 0.360966
504 4 0.206644 0.403157 0.422897
561 4 0.457331 0.396194 0.394811
751 2 0.451373 0.396278 0.355681
752 4 0.464764 0.397681 0.376749
559 2 0.479245 0.392787 0.406359
547 2 0.0782449 0.429097 0.33539
407 4 0.103711 0.423259 0.367663
548 4 0.0984643 0.432953 0.349585
406 2 0.104316 0.432216 0.390999
776 4 0.110515 0.48962 0.344847
408 4 0.10492 0.441173 0.414335
1543 2 0.182965 0.500856 0.406944
1544 4 0.205899 0.493435 0.400299
1556 4 0.216589 0.492025 0.418583
438 4 0.322614 0.476579 0.337391
3 3 0.307422 0.467361 0.35189
1 1 0.309596 0.489999 0.356492
4 3 0.316117 0.493007 0.378556
2 3 0.325721 0.498877 0.342695
1742 4 0.410323 0.486542 0.342655
594 4 0.402183 0.468761 0.346269
592 2 0.402594 0.473431 0.370829
593 4 0.403004 0.478101 0.395389
588 4 0.415657 0.468094 0.40611
118 3 0.481145 0.425838 0.333455
713 4 0.419316 0.469937 0.336189
714 4 0.466833 0.454564 0.333637
753 4 0.437981 0.394874 0.334612
712 2 0.443074 0.46225 0.334913
119 3 0.480477 0.461698 0.346027
116 1 0.491084 0.441137 0.347793
117 3 0.488994 0.433523 0.369399
718 2 0.0434279 0.0252987 0.458184
720 4 0.026691 0.014625 0.473387
2237 4 0.0119839 0.00340502 0.48297
719 4 0.0601648 0.0359725 0.442981
369 4 0.0750451 0.0405595 0.432641
367 2 0.0890764 0.0224832 0.422564
441 4 0.305624 0.0242224 0.422759
962 4 0.30131 0.0266022 0.443072
961 2 0.301337 0.0427153 0.462191
963 4 0.301363 0.0588284 0.481311
432 4 0.292556 0.0547473 0.499474
426 4 0.373985 0.0262932 0.427187
424 2 0.349253 0.0293034 0.425078
425 4 0.324522 0.0323135 0.422968
725 4 0.404889 0.0761173 0.420023
459 4 0.0405193 0.16059 0.431894
684 4 0.290374 0.114313 0.410328
321 4 0.308772 0.166672 0.408382
319 2 0.308291 0.141969 0.404548
724 2 0.409029 0.0855515 0.442806
726 4 0.413169 0.0949857 0.465588
453 4 0.440152 0.155697 0.425772
2878 2 0.487217 0.102767 0.42942
2880 4 0.484364 0.120295 0.447022
640 2 0.481547 0.12891 0.487817
642 4 0.491356 0.119706 0.46674
515 4 0.424255 0.159228 0.435876
260 4 0.0598217 0.164718 0.433285
259 2 0.0818512 0.175054 0.439034
685 2 0.132308 0.207538 0.424643
687 4 0.11381 0.201811 0.440461
261 4 0.103881 0.18539 0.444783
1035 4 0.11349 0.195055 0.459004
1033 2 0.108819 0.201043 0.482826
487 2 0.325679 0.247497 0.42874
489 4 0.325124 0.222524 0.429845
468 4 0.387752 0.192588 0.411541
516 4 0.382021 0.173939 0.45825
514 2 0.403138 0.166584 0.447063
411 4 0.333033 0.204837 0.429552
409 2 0.357641 0.200479 0.430358
410 4 0.382249 0.196121 0.431164
575 4 0.375816 0.181123 0.476334
266 4 0.358688 0.242908 0.451071
695 4 0.0556662 0.249571 0.479176
694 2 0.0792923 0.257478 0.477063
696 4 0.102918 0.265384 0.474951
1258 2 0.125633 0.290361 0.479894
1260 4 0.120792 0.270256 0.465839
1259 4 0.130473 0.310466 0.493948
9 3 0.140439 0.325599 0.485155
857 4 0.190266 0.270874 0.498312
651 4 0.270223 0.278286 0.496249
488 4 0.326233 0.27247 0.427635
267 4 0.382982 0.266365 0.487953
265 2 0.370835 0.254637 0.469512
583 2 0.474581 0.262027 0.478267
585 4 0.454353 0.261201 0.463594
584 4 0.49481 0.262854 0.49294
326 4 0.0715107 0.358801 0.464704
6 1 0.1495 0.34696 0.485357
327 4 0.115417 0.371618 0.48492
325 2 0.0934637 0.365209 0.474812
7 3 0.132385 0.362305 0.484491
711 4 0.140475 0.400398 0.438123
10 3 0.163061 0.34982 0.467286
709 2 0.165361 0.399662 0.435807
502 2 0.224254 0.38555 0.425146
710 4 0.190246 0.398926 0.433492
503 4 0.241864 0.367943 0.427396
772 2 0.284185 0.401502 0.49272
669 4 0.293892 0.405829 0.457964
336 4 0.323483 0.355828 0.42928
668 4 0.313897 0.372576 0.426424
667 2 0.303894 0.389202 0.442194
773 4 0.284085 0.386003 0.51234
882 4 0.346687 0.399767 0.473258
335 4 0.373341 0.359236 0.431086
334 2 0.348412 0.357532 0.430183
238 2 0.403808 0.38991 0.438687
240 4 0.389362 0.369566 0.437075
239 4 0.418255 0.410254 0.440299
3307 2 0.504479 0.393805 0.485387
3309 4 0.487332 0.411432 0.480866
679 2 0.0266149 0.432902 0.427217
680 4 0.03824 0.453855 0.434358
1383 4 0.0344272 0.47281 0.426694
1381 2 0.0250964 0.49065 0.441521
570 4 0.140207 0.499556 0.415229
568 2 0.129322 0.477109 0.4169
569 4 0.118436 0.454661 0.418572
383 4 0.112841 0.440922 0.4323
382 2 0.10066 0.436482 0.453679
384 4 0.088478 0.432043 0.475058
1555 2 0.237822 0.484273 0.429271
636 4 0.27316 0.478514 0.455968
635 4 0.282077 0.43479 0.478539
634 2 0.277618 0.456652 0.467254
774 4 0.284285 0.417001 0.473099
1557 4 0.259055 0.47652 0.439959
587 4 0.410011 0.426942 0.433956
586 2 0.412834 0.447518 0.420033
880 2 0.347705 0.407928 0.496871
663 4 0.456408 0.456057 0.465924
661 2 0.454891 0.480796 0.462625
1058 4 0.114482 0.0725829 0.581357
342 4 0.209071 0.0777077 0.514422
340 2 0.213935 0.0533943 0.517644
2430 4 0.2215 0.00999856 0.522623
2428 2 0.19986 0.000576679 0.51437
341 4 0.218799 0.029081 0.520866
430 2 0.309423 0.0602251 0.517101
431 4 0.32629 0.0657028 0.534727
1217 4 0.390309 0.0760285 0.527168
1216 2 0.399659 0.052846 0.527747
1218 4 0.409008 0.0296634 0.528326
3007 2 0.493989 0.0318871 0.577618
1128 4 0.999158 0.101856 0.585614
470 4 0.0326882 0.153831 0.529994
1059 4 0.133858 0.116117 0.56619
1057 2 0.12417 0.0943501 0.573773
939 4 0.10545 0.136293 0.569653
1155 4 0.124476 0.13459 0.572078
1151 4 0.19933 0.123557 0.548584
1150 2 0.198687 0.108071 0.528964
1152 4 0.198044 0.0925851 0.509344
1181 4 0.232606 0.114 0.490459
1182 4 0.264119 0.137331 0.521495
1180 2 0.248362 0.125666 0.505977
900 4 0.271523 0.156417 0.524194
1032 4 0.253332 0.108893 0.58602
841 2 0.355252 0.0881952 0.532443
842 4 0.380044 0.0913938 0.533006
843 4 0.33046 0.0849966 0.53188
641 4 0.471737 0.138114 0.508894
469 2 0.0194169 0.173933 0.536698
878 4 0.0359457 0.240938 0.585132
471 4 0.00614564 0.194035 0.543402
1199 4 0.0162565 0.238703 0.581601
877 2 0.0501751 0.220456 0.583353
1272 4 0.0843095 0.202086 0.579208
1244 4 0.0435187 0.256771 0.596796
1034 4 0.104148 0.207031 0.506649
1271 4 0.133422 0.211036 0.582133
1270 2 0.108866 0.206561 0.58067
858 4 0.174033 0.237836 0.53216
856 2 0.182149 0.254355 0.515236
898 2 0.291545 0.166914 0.534876
899 4 0.311567 0.177411 0.545559
650 4 0.274768 0.228491 0.495591
576 4 0.362231 0.187156 0.524081
574 2 0.369024 0.184139 0.500208
3157 2 0.487072 0.191331 0.575773
983 4 0.0302149 0.305947 0.554743
1245 4 0.0424253 0.298421 0.569141
1243 2 0.042972 0.277596 0.582968
947 4 0.18347 0.247983 0.572784
1238 4 0.300971 0.299737 0.561424
1237 2 0.312222 0.318057 0.57419
649 2 0.272496 0.253388 0.49592
872 4 0.359494 0.275214 0.560156
871 2 0.363102 0.29954 0.55564
873 4 0.36671 0.323867 0.551124
906 4 0.464001 0.263756 0.567695
953 4 0.448495 0.27693 0.567182
904 2 0.485897 0.272098 0.558967
952 2 0.433066 0.291402 0.580512
982 2 0.025474 0.330474 0.555803
984 4 0.0207332 0.355001 0.556863
3354 4 0.0272603 0.371409 0.564223
3352 2 0.0102724 0.385893 0.552961
8 3 0.161556 0.350265 0.504905
1190 4 0.236395 0.349936 0.575954
803 4 0.230966 0.358297 0.558591
802 2 0.241101 0.355902 0.53586
804 4 0.251235 0.353508 0.513128
930 4 0.319768 0.352783 0.577076
813 4 0.369939 0.343117 0.548822
929 4 0.352466 0.387624 0.591828
928 2 0.336117 0.370203 0.584452
811 2 0.381833 0.364851 0.545449
812 4 0.393727 0.386584 0.542076
927 4 0.40836 0.398474 0.53795
926 4 0.455229 0.403 0.554789
925 2 0.431794 0.400737 0.54637
539 4 0.0768647 0.456372 0.532897
538 2 0.090847 0.476772 0.536575
540 4 0.104829 0.497171 0.540253
1160 4 0.140768 0.497254 0.536839
1159 2 0.159221 0.491682 0.552764
1161 4 0.177674 0.486109 0.568689
881 4 0.348722 0.416089 0.520483
1951 2 0.356831 0.474476 0.5747
1953 4 0.374604 0.48506 0.560655
1002 4 0.43954 0.442165 0.581984
1000 2 0.438319 0.459799 0.5643
1001 4 0.437097 0.477434 0.546617
1911 4 0.452221 0.48555 0.537888
1082 4 0.059704 0.0830418 0.660103
823 2 0.145399 0.0170455 0.636127
825 4 0.131112 0.0351361 0.626442
1031 4 0.286379 0.0731768 0.597553
951 4 0.298391 0.0584928 0.589319
949 2 0.305332 0.0368389 0.599716
950 4 0.312274 0.0151851 0.610113
2283 4 0.421589 0.0187927 0.597629
3008 4 0.476135 0.0380565 0.593998
809 4 0.48808 0.0375328 0.610186
808 2 0.47661 0.0538156 0.625302
42 3 0.454108 0.0605728 0.657914
810 4 0.465141 0.0700983 0.640418
938 4 0.0603824 0.133171 0.591097
1083 4 0.0621657 0.0966765 0.612053
1126 2 0.022493 0.0971408 0.593259
1081 2 0.0609349 0.0898592 0.636078
1127 4 0.0458277 0.0924251 0.600903
937 2 0.0829163 0.134732 0.580375
1153 2 0.139939 0.149597 0.584761
1154 4 0.155403 0.164603 0.597444
1030 2 0.269856 0.0910348 0.591786
45 3 0.4629 0.0934945 0.64269
41 1 0.452865 0.0834001 0.660468
879 4 0.0644045 0.199973 0.581574
1177 2 0.998232 0.235797 0.657723
1179 4 0.0107931 0.244073 0.63775
1221 4 0.166815 0.178741 0.606767
1212 4 0.21008 0.193311 0.641222
1219 2 0.187819 0.189572 0.614933
1220 4 0.208823 0.200403 0.6231
1210 2 0.230122 0.195999 0.655928
1193 4 0.368836 0.191958 0.651006
1192 2 0.34615 0.191104 0.661485
3159 4 0.469538 0.183179 0.591625
1136 4 0.136975 0.295276 0.582337
948 4 0.151237 0.282791 0.588603
946 2 0.167353 0.265387 0.580694
1135 2 0.140788 0.318621 0.590441
798 4 0.200504 0.257323 0.578556
796 2 0.224705 0.255035 0.584409
797 4 0.248907 0.252747 0.590261
791 4 0.262627 0.264329 0.600002
792 4 0.299658 0.283166 0.57217
790 2 0.281143 0.273748 0.586086
807 4 0.317311 0.298458 0.653953
805 2 0.321365 0.320105 0.665793
954 4 0.417636 0.305873 0.593841
3123 4 0.495271 0.262599 0.639904
1039 2 0.0627947 0.400405 0.616809
1041 4 0.0435336 0.400837 0.632746
3264 4 0.0296207 0.397245 0.645483
3262 2 0.0327155 0.376354 0.658867
897 4 0.143636 0.360486 0.601326
1040 4 0.0820558 0.399974 0.600871
993 4 0.0960431 0.391906 0.588228
1137 4 0.144602 0.341965 0.598545
991 2 0.111248 0.372801 0.593611
992 4 0.126452 0.353695 0.598994
895 2 0.168222 0.364998 0.601928
1189 2 0.222276 0.366371 0.588433
1172 4 0.219938 0.398188 0.601721
1191 4 0.208157 0.382806 0.600911
896 4 0.192808 0.36951 0.602529
1140 4 0.245799 0.412642 0.665281
1239 4 0.323473 0.336377 0.586957
806 4 0.325418 0.341751 0.677632
3240 4 0.0109169 0.398152 0.652701
1188 4 0.1744 0.490543 0.588356
1171 2 0.216643 0.422929 0.603202
1173 4 0.213349 0.44767 0.604683
1187 4 0.200214 0.457798 0.615962
1186 2 0.187307 0.474171 0.602159
889 2 0.29605 0.462832 0.599549
891 4 0.271364 0.461249 0.603192
890 4 0.320736 0.464414 0.595906
1230 4 0.333476 0.446193 0.654642
1952 4 0.339058 0.463891 0.588746
1204 2 0.412036 0.429472 0.666693
1206 4 0.432857 0.427263 0.653027
1269 4 0.433939 0.488368 0.626429
1267 2 0.451142 0.491603 0.644283
945 4 0.0471225 0.0265401 0.661719
943 2 0.0541634 0.0460203 0.675724
944 4 0.0612042 0.0655005 0.689728
1076 4 0.0645996 0.081228 0.678611
1147 2 0.220144 0.0537322 0.72136
1148 4 0.221727 0.0637426 0.698503
1149 4 0.218561 0.0437217 0.744218
1004 4 0.358844 0.067584 0.690138
1163 4 0.466019 0.0673521 0.675849
1162 2 0.482007 0.0516169 0.686893
2320 2 0.491094 0.0287562 0.736947
2321 4 0.498725 0.0251024 0.713419
1164 4 0.497995 0.0358817 0.697937
864 4 0.0471353 0.117595 0.728705
1075 2 0.0595796 0.09943 0.695002
1077 4 0.0545597 0.117632 0.711393
1107 4 0.063095 0.129023 0.723937
851 4 0.0610515 0.133317 0.703406
850 2 0.043076 0.150043 0.698681
852 4 0.0251005 0.166768 0.693956
862 2 0.037319 0.102771 0.746285
1283 4 0.136692 0.082919 0.684517
1105 2 0.084619 0.137399 0.733516
1282 2 0.132758 0.0968987 0.704871
1284 4 0.128824 0.110878 0.725225
1106 4 0.106143 0.145774 0.743094
909 4 0.151122 0.146377 0.679419
908 4 0.196122 0.141058 0.700573
907 2 0.173622 0.143718 0.689996
1227 4 0.2103 0.132318 0.709204
1225 2 0.216651 0.108522 0.704891
1226 4 0.223001 0.0847264 0.700579
829 2 0.330205 0.145883 0.691568
830 4 0.313913 0.157794 0.676809
1003 2 0.356649 0.0919517 0.695293
1005 4 0.354454 0.116319 0.700448
831 4 0.346498 0.133972 0.706327
3424 2 0.489762 0.116691 0.667996
3425 4 0.472115 0.099588 0.663386
43 3 0.430538 0.0896233 0.66154
44 3 0.463699 0.0893517 0.680105
1214 4 0.00568351 0.214134 0.737722
1073 4 0.123849 0.209386 0.715526
1072 2 0.121639 0.234248 0.717
1211 4 0.250164 0.198688 0.670634
1194 4 0.323464 0.190249 0.671964
887 4 0.30737 0.178116 0.675744
888 4 0.258156 0.185417 0.680787
886 2 0.282763 0.181767 0.678266
1025 4 0.467624 0.197193 0.664015
1262 4 0.465728 0.210007 0.724674
1142 4 0.452915 0.178866 0.724644
1024 2 0.462682 0.19644 0.688513
1141 2 0.448292 0.171002 0.747924
1026 4 0.457741 0.195687 0.713012
1261 2 0.457975 0.232581 0.732123
1145 4 0.485027 0.212844 0.722318
1074 4 0.119429 0.25911 0.718474
1209 4 0.14021 0.307011 0.693699
1207 2 0.123802 0.290505 0.702838
1208 4 0.107394 0.273999 0.711976
821 4 0.157961 0.314787 0.697493
820 2 0.179818 0.30281 0.699493
822 4 0.201674 0.290832 0.701493
1063 2 0.234148 0.292612 0.70738
1064 4 0.214274 0.278034 0.711586
1065 4 0.254022 0.30719 0.703173
1263 4 0.450222 0.255154 0.739572
3263 4 0.0358103 0.355462 0.672252
893 4 0.00080468 0.344262 0.73695
892 2 0.0193263 0.359364 0.729596
894 4 0.037848 0.374465 0.722243
1280 4 0.0538967 0.384682 0.726196
1279 2 0.0460083 0.407835 0.721009
816 4 0.0700919 0.37261 0.72754
814 2 0.0902269 0.362737 0.738598
815 4 0.110362 0.352865 0.749657
1029 4 0.229633 0.404613 0.674045
1028 4 0.213979 0.372683 0.709204
1066 2 0.198175 0.38247 0.746255
1068 4 0.215245 0.377185 0.728766
1027 2 0.221806 0.388648 0.691625
1019 4 0.36539 0.396622 0.723481
1018 2 0.374863 0.41737 0.733726
1981 2 0.0706166 0.461215 0.712882
1281 4 0.0381198 0.430988 0.715823
1983 4 0.0496768 0.447563 0.712313
1982 4 0.0915563 0.474867 0.713452
1138 2 0.251084 0.434079 0.677015
1176 4 0.194512 0.497988 0.727682
1139 4 0.256368 0.455517 0.688749
1987 2 0.322004 0.477745 0.733095
1228 2 0.331451 0.458013 0.676582
1989 4 0.321588 0.485373 0.709287
1229 4 0.329427 0.469833 0.698522
1020 4 0.384335 0.438118 0.743971
1205 4 0.391214 0.431681 0.680359
1268 4 0.468345 0.494838 0.662137
1100 4 0.409191 0.505046 0.715533
1099 2 0.429688 0.499849 0.702189
2991 4 0.0245266 0.0273718 0.76786
2989 2 0.0189748 0.0517474 0.768294
2990 4 0.0134229 0.0761229 0.768727
1203 4 0.112545 0.0930313 0.774894
1202 4 0.127737 0.0453879 0.774683
2049 4 0.140015 0.0305281 0.773605
1201 2 0.120141 0.0692096 0.774789
2047 2 0.137288 0.00995873 0.759654
817 2 0.32447 0.0487494 0.803927
819 4 0.312834 0.0683435 0.814215
818 4 0.336106 0.0291554 0.793638
1085 4 0.304537 0.0864695 0.813369
1050 4 0.349347 0.000957219 0.772518
975 4 0.390927 0.00766021 0.812155
974 4 0.349042 0.0148631 0.785801
973 2 0.369985 0.0112617 0.798978
1113 4 0.419858 0.0645122 0.77035
2322 4 0.483462 0.0324099 0.760476
1111 2 0.44171 0.0625936 0.782349
845 4 0.480675 0.0629373 0.803796
844 2 0.501193 0.0706266 0.791751
1112 4 0.463563 0.0606749 0.794348
863 4 0.0275026 0.0879465 0.763866
833 4 0.0119503 0.0933279 0.776284
832 2 0.0162095 0.102188 0.799274
834 4 0.0204687 0.111049 0.822264
1125 4 0.0231915 0.127975 0.833163
911 4 0.109799 0.12101 0.818957
34 3 0.105791 0.111921 0.776572
31 1 0.114454 0.125873 0.792964
35 3 0.0975144 0.135026 0.805126
32 3 0.127952 0.113501 0.806888
33 3 0.127145 0.142657 0.783184
1257 4 0.2161 0.0792378 0.77298
1255 2 0.235492 0.0853237 0.787543
1256 4 0.254884 0.0914097 0.802107
840 4 0.250551 0.103549 0.817454
1084 2 0.303496 0.108001 0.800701
1086 4 0.302454 0.129533 0.788033
960 4 0.305625 0.0920655 0.833727
48 3 0.443818 0.174566 0.78723
1130 4 0.143795 0.215491 0.798266
1129 2 0.165859 0.21917 0.787093
978 4 0.242582 0.228008 0.764716
1131 4 0.187922 0.22285 0.775919
1277 4 0.19531 0.241511 0.776373
977 4 0.29231 0.231453 0.768707