ITEM: TIMESTEP
3500000
ITEM: NUMBER OF ATOMS
4590
ITEM: BOX BOUNDS pp pp pp
-9.9985700000000008e+00 9.9985700000000008e+00
-9.9985700000000008e+00 9.9985700000000008e+00
-9.9985700000000008e+00 9.9985700000000008e+00
ITEM: ATOMS id type xs ys zs
701 4 0.0392823 0.0435751 0.0745691
700 2 0.0494961 0.0663491 0.0760511
1667 4 0.0213242 0.0499124 0.0774727
490 2 0.263528 0.0472303 0.0731787
492 4 0.274201 0.0249663 0.0692319
1475 4 0.288131 0.0192343 0.0570353
491 4 0.252855 0.0694943 0.0771256
745 2 0.420156 0.0737931 0.00325763
2974 2 0.468421 0.0340063 0.0186405
747 4 0.440382 0.0601878 0.997692
2975 4 0.449535 0.0470376 0.00870684
986 4 0.435804 0.041016 0.996373
2976 4 0.487307 0.0209751 0.0285742
2468 4 0.493355 0.0143446 0.0455229
475 2 0.0628289 0.120654 0.0567368
477 4 0.0549731 0.136703 0.039247
476 4 0.0706848 0.104605 0.0742266
565 2 0.213607 0.157678 0.0107905
746 4 0.399929 0.0873984 0.00882333
769 2 0.38873 0.141586 0.0254846
558 4 0.385871 0.101203 0.00950157
771 4 0.391942 0.117194 0.021026
770 4 0.385518 0.165978 0.0299432
3338 4 0.993906 0.253208 0.00602939
566 4 0.196334 0.159959 0.0287239
737 4 0.203957 0.176709 0.0358029
736 2 0.196187 0.198211 0.0459269
738 4 0.188416 0.219712 0.0560508
359 4 0.388864 0.179083 0.0148497
664 2 0.390428 0.203399 0.0483377
665 4 0.392894 0.183574 0.0333029
666 4 0.387962 0.223225 0.0633726
623 4 0.38603 0.241543 0.0665887
323 4 0.400952 0.238504 0.0559016
555 4 0.0571105 0.256603 0.000207259
2808 4 0.0108088 0.258346 0.0156923
481 2 0.232755 0.265399 0.0626649
505 2 0.193495 0.308401 0.0688257
483 4 0.211942 0.271238 0.0752301
288 4 0.240882 0.332371 0.0181052
506 4 0.19689 0.28432 0.0746332
573 4 0.270757 0.254991 0.0585996
482 4 0.253569 0.25956 0.0500997
571 2 0.285653 0.271615 0.0473341
572 4 0.300549 0.28824 0.0360687
357 4 0.310191 0.280042 0.0201933
355 2 0.319967 0.30066 0.00997048
1069 2 0.41009 0.320167 0.0423629
1071 4 0.395088 0.340119 0.0409227
322 2 0.413891 0.259716 0.0531061
324 4 0.426831 0.280928 0.0503105
1070 4 0.425091 0.300216 0.043803
280 2 0.454842 0.29735 0.0623192
282 4 0.441309 0.290056 0.0426005
329 4 0.00311277 0.349701 0.0452037
292 2 0.168939 0.346469 0.0310847
294 4 0.152419 0.348259 0.0124009
286 2 0.221417 0.337504 0.0329357
507 4 0.190101 0.332483 0.0630182
287 4 0.201952 0.342637 0.0477662
293 4 0.185458 0.344678 0.0497684
552 4 0.175356 0.34221 0.0687529
456 4 0.207088 0.39515 0.0762298
454 2 0.200071 0.372066 0.0696664
455 4 0.193055 0.348982 0.0631031
1290 4 0.267882 0.407778 0.0589397
1288 2 0.277073 0.390175 0.0437464
1289 4 0.286264 0.372572 0.0285531
956 4 0.338544 0.332402 0.0138433
955 2 0.357463 0.337924 0.0292298
957 4 0.376383 0.343445 0.0446164
741 4 0.388624 0.346397 0.0589121
1304 4 0.371794 0.369419 0.0213534
1303 2 0.366273 0.392391 0.0131698
739 2 0.392994 0.349562 0.0833265
1786 2 0.112267 0.487195 0.0737705
625 2 0.165254 0.480806 0.0581317
627 4 0.146119 0.495728 0.0641627
1788 4 0.0959597 0.472286 0.085473
1690 2 0.124928 0.503781 0.0234296
626 4 0.184388 0.465884 0.0521008
245 4 0.192548 0.446095 0.0570075
244 2 0.216774 0.44532 0.0508681
246 4 0.240999 0.444546 0.0447288
251 4 0.26191 0.425948 0.0593263
272 4 0.255432 0.430543 0.0417433
271 2 0.263141 0.441496 0.0206296
273 4 0.270851 0.452448 0.999516
250 2 0.268174 0.431129 0.0829717
1305 4 0.360752 0.415364 0.00498613
1672 2 0.408138 0.446687 0.0819207
853 2 0.395892 0.458511 0.0296975
855 4 0.378614 0.44922 0.0141956
37 3 0.365229 0.431564 0.0200951
854 4 0.413171 0.467803 0.0451993
38 3 0.337518 0.452318 0.00546597
1674 4 0.415202 0.456761 0.0601537
564 4 0.429579 0.453825 0.0485929
563 4 0.474423 0.458591 0.0269826
562 2 0.452001 0.456208 0.0377877
228 4 0.481156 0.461228 0.00771285
19 3 0.0469448 0.000783521 0.155435
577 2 0.075914 0.0332548 0.152029
579 4 0.0906827 0.050009 0.140788
450 4 0.105467 0.0489107 0.153121
448 2 0.127101 0.0613654 0.151704
449 4 0.148736 0.07382 0.150287
582 4 0.222739 0.0508881 0.165892
236 4 0.162221 0.0724918 0.166733
702 4 0.05971 0.0891232 0.0775332
629 4 0.364788 0.150593 0.171097
2723 4 0.50741 0.10472 0.103499
2759 4 0.998412 0.184277 0.132131
2624 4 0.0035057 0.203254 0.126696
392 4 0.0495987 0.21504 0.175507
755 4 0.245418 0.256083 0.143549
460 2 0.321958 0.228964 0.109354
461 4 0.303208 0.214513 0.101303
354 4 0.284479 0.213161 0.110781
352 2 0.272008 0.22654 0.127829
353 4 0.259536 0.239918 0.144878
278 4 0.255491 0.251874 0.158424
628 2 0.375316 0.172218 0.164262
462 4 0.340707 0.243415 0.117405
255 4 0.356995 0.236535 0.125133
253 2 0.372695 0.225129 0.1409
622 2 0.371351 0.243001 0.0867775
254 4 0.388394 0.213723 0.156667
630 4 0.385844 0.193842 0.157428
624 4 0.356673 0.244459 0.106966
537 4 0.188291 0.288589 0.0923593
536 4 0.178978 0.256164 0.129272
535 2 0.183634 0.272376 0.110816
754 2 0.229521 0.275353 0.144614
756 4 0.213623 0.294623 0.14568
612 4 0.212849 0.309002 0.159766
301 2 0.319479 0.321131 0.137962
303 4 0.315039 0.300391 0.151203
764 4 0.329107 0.286574 0.150982
284 4 0.273681 0.2526 0.155156
283 2 0.291967 0.269605 0.156427
285 4 0.310253 0.286611 0.157698
765 4 0.355901 0.255559 0.122331
763 2 0.342504 0.271066 0.136657
12 3 0.40576 0.32761 0.132503
281 4 0.468375 0.304644 0.0820379
671 4 0.458755 0.316578 0.0944144
527 4 0.477683 0.317986 0.0921975
526 2 0.497789 0.332124 0.0876126
670 2 0.438872 0.32836 0.103955
647 4 0.05904 0.34747 0.145085
550 2 0.156873 0.343085 0.0855688
551 4 0.138389 0.34396 0.102385
290 4 0.211933 0.408996 0.156761
302 4 0.323919 0.341871 0.124722
387 4 0.329406 0.360995 0.122178
385 2 0.353864 0.361082 0.116987
493 2 0.39653 0.393762 0.108904
495 4 0.394482 0.369633 0.115131
386 4 0.378323 0.361169 0.111796
15 3 0.381776 0.355968 0.128829
740 4 0.397363 0.352728 0.107741
14 3 0.417861 0.360581 0.119119
11 1 0.403249 0.350426 0.134011
13 3 0.408134 0.357093 0.155693
672 4 0.418989 0.340143 0.113497
595 2 0.491446 0.386008 0.168705
1465 2 0.062679 0.469369 0.0931788
1466 4 0.0441558 0.479332 0.1067
1791 4 0.0585114 0.494885 0.113341
1467 4 0.0812021 0.459406 0.0796581
766 2 0.209856 0.452538 0.157439
768 4 0.215014 0.428155 0.155433
767 4 0.204698 0.476921 0.159446
638 4 0.191721 0.49129 0.167339
252 4 0.274439 0.436309 0.106617
609 4 0.28375 0.44578 0.12275
607 2 0.308529 0.442865 0.124392
608 4 0.333307 0.439949 0.126034
494 4 0.398577 0.417891 0.102676
659 4 0.335326 0.436994 0.105939
660 4 0.385082 0.43208 0.106883
1673 4 0.401073 0.436614 0.103688
658 2 0.360204 0.434537 0.106411
524 4 0.399718 0.48524 0.14838
523 2 0.394566 0.466483 0.13267
525 4 0.389415 0.447725 0.116961
2480 4 0.00704338 0.00447885 0.193955
578 4 0.0611452 0.0165006 0.16327
2479 2 0.00481881 0.024872 0.20825
380 4 0.0197027 0.0527394 0.216241
2481 4 0.00259423 0.0452652 0.222545
20 3 0.0595432 0.0184319 0.186216
379 2 0.0276476 0.0761362 0.212414
237 4 0.205306 0.0485758 0.175243
235 2 0.183764 0.0605338 0.170988
580 2 0.24281 0.0399133 0.175986
1506 4 0.254854 0.014398 0.209376
581 4 0.262882 0.0289384 0.18608
654 4 0.273019 0.0190917 0.200027
652 2 0.288612 0.0223166 0.219305
653 4 0.304204 0.0255415 0.238584
24 3 0.316532 0.0382692 0.24737
758 4 0.334288 0.0738564 0.180587
759 4 0.362165 0.06184 0.220326
757 2 0.348226 0.0678482 0.200457
350 4 0.368325 0.0482879 0.232516
349 2 0.391865 0.0398586 0.232685
632 4 0.366737 0.0612463 0.238837
25 3 0.343479 0.01251 0.25266
22 3 0.352795 0.0476893 0.244382
21 1 0.337837 0.0343649 0.255691
480 4 0.435087 0.0365252 0.23158
351 4 0.415404 0.0314294 0.232854
333 4 0.484308 0.0636654 0.237901
513 4 0.0528742 0.14931 0.184034
511 2 0.0457036 0.132953 0.201533
512 4 0.038533 0.116597 0.219033
381 4 0.0355925 0.0995329 0.208586
312 4 0.35971 0.134242 0.159652
310 2 0.351509 0.111213 0.164901
30 3 0.367 0.152114 0.232622
311 4 0.343308 0.088183 0.17015
26 1 0.38149 0.13929 0.244633
28 3 0.397812 0.130565 0.230638
761 4 0.403231 0.122387 0.212955
631 2 0.363424 0.0837078 0.24931
29 3 0.370004 0.122063 0.255108
521 4 0.465633 0.130581 0.221579
762 4 0.452068 0.117657 0.222612
760 2 0.42765 0.120022 0.217783
332 4 0.468579 0.109636 0.22607
331 2 0.476443 0.086651 0.231985
520 2 0.479742 0.151161 0.219968
393 4 0.0636756 0.167448 0.181636
391 2 0.0566372 0.191244 0.178571
339 4 0.0431191 0.231366 0.18325
337 2 0.059359 0.246712 0.194474
279 4 0.243237 0.220164 0.195099
277 2 0.249364 0.236019 0.176762
522 4 0.493851 0.17174 0.218358
394 2 0.0324272 0.269077 0.239291
395 4 0.0547597 0.273594 0.228993
338 4 0.0755988 0.262057 0.205697
363 4 0.0641775 0.275096 0.211915
361 2 0.0675163 0.298926 0.20512
362 4 0.0708551 0.322756 0.198325
546 4 0.0720581 0.264159 0.225417
544 2 0.0927669 0.259826 0.238742
372 4 0.0877187 0.327875 0.19157
733 2 0.15255 0.327619 0.23952
611 4 0.227899 0.319915 0.20619
610 2 0.220374 0.314458 0.182978
344 4 0.225699 0.310771 0.223773
343 2 0.205107 0.305623 0.23699
735 4 0.167604 0.308926 0.246529
401 4 0.16643 0.291906 0.247806
345 4 0.184516 0.300475 0.250207
729 4 0.30651 0.304317 0.168939
727 2 0.290647 0.316825 0.183673
308 4 0.321895 0.293709 0.167373
307 2 0.3338 0.286747 0.188229
496 2 0.345812 0.302341 0.246905
498 4 0.350945 0.291347 0.225043
309 4 0.345705 0.279785 0.209085
749 4 0.0585488 0.334923 0.208013
648 4 0.0703656 0.339089 0.193066
748 2 0.0627412 0.348431 0.228632
646 2 0.0647028 0.343279 0.169076
750 4 0.0669336 0.361939 0.249251
370 2 0.108538 0.33637 0.202506
371 4 0.129356 0.344865 0.213442
734 4 0.137496 0.346313 0.232512
417 4 0.132207 0.360379 0.224248
299 4 0.13538 0.360167 0.245045
415 2 0.147969 0.37587 0.212552
298 2 0.111136 0.36179 0.250943
416 4 0.163731 0.39136 0.200857
289 2 0.195397 0.39881 0.172507
291 4 0.178861 0.388623 0.188254
728 4 0.274784 0.329332 0.198408
445 2 0.391671 0.354724 0.222307
446 4 0.369007 0.354556 0.211749
447 4 0.414336 0.354892 0.232865
644 4 0.431431 0.354971 0.221426
643 2 0.443586 0.365274 0.202157
645 4 0.455741 0.375577 0.182888
597 4 0.472674 0.384748 0.185173
230 4 0.43695 0.496554 0.210793
229 2 0.443553 0.474022 0.21939
231 4 0.450155 0.45149 0.227987
234 4 0.0185201 0.0445836 0.290504
232 2 0.0415672 0.0366283 0.296047
233 4 0.0646143 0.028673 0.30159
317 4 0.074282 0.0273864 0.319474
1404 4 0.0766337 0.0152789 0.307548
428 4 0.0686862 0.0106141 0.32666
2756 4 0.00771758 0.0603732 0.298946
2478 4 0.00875871 0.057466 0.280182
1402 2 0.088673 0.00704044 0.287241
675 4 0.103981 0.99673 0.248185
693 4 0.305322 0.0560289 0.247821
691 2 0.295668 0.0750397 0.260881
23 3 0.338625 0.0396879 0.278262
478 2 0.444421 0.0399357 0.254524
257 4 0.407363 0.0728696 0.318257
479 4 0.453755 0.0433462 0.277468
2664 4 0.471225 0.0379134 0.282581
1428 4 0.454385 0.0322738 0.2901
258 4 0.444527 0.0521909 0.291951
256 2 0.425945 0.0625302 0.305104
1426 2 0.450444 0.0100359 0.300829
403 2 0.22798 0.162165 0.327601
404 4 0.242316 0.141687 0.328146
249 4 0.247548 0.122709 0.336248
692 4 0.286015 0.0940505 0.273942
721 2 0.26473 0.119287 0.299616
723 4 0.276523 0.109661 0.27978
722 4 0.252938 0.128914 0.319451
27 3 0.391623 0.152302 0.260669
698 4 0.403326 0.0851333 0.3334
707 4 0.371059 0.117588 0.271617
633 4 0.360112 0.106169 0.259783
706 2 0.369061 0.121099 0.296292
708 4 0.367063 0.124611 0.320967
321 4 0.35793 0.137136 0.334888
545 4 0.113476 0.255493 0.252067
405 4 0.213644 0.182644 0.327056
419 4 0.409935 0.247631 0.324949
396 4 0.0100948 0.264561 0.249588
443 4 0.00604849 0.268059 0.268823
402 4 0.133851 0.253972 0.248397
400 2 0.15014 0.272939 0.248101
676 2 0.181272 0.306298 0.286762
677 4 0.171211 0.300947 0.264506
678 4 0.191332 0.311649 0.309018
375 4 0.178871 0.301554 0.320083
510 4 0.200394 0.326457 0.317886
378 4 0.283653 0.310274 0.289549
376 2 0.307481 0.316796 0.285688
377 4 0.331308 0.323317 0.281828
497 4 0.340679 0.313335 0.268768
543 4 0.349628 0.319361 0.285556
418 2 0.389357 0.259127 0.316607
541 2 0.358826 0.303535 0.302589
542 4 0.368025 0.28771 0.319622
420 4 0.368779 0.270622 0.308266
364 2 0.00669137 0.391698 0.289858
365 4 0.0243566 0.408493 0.284285
300 4 0.0868923 0.363413 0.256842
508 2 0.217458 0.344657 0.316214
509 4 0.234521 0.362856 0.314542
434 4 0.321031 0.389229 0.326679
433 2 0.304463 0.407362 0.322005
614 4 0.333049 0.380562 0.312719
615 4 0.342977 0.335359 0.293777
613 2 0.338013 0.35796 0.303248
601 2 0.0478436 0.407121 0.323233
603 4 0.0374023 0.408358 0.300548
1757 4 0.0137069 0.424568 0.275383
1756 2 0.0315364 0.442058 0.276549
1758 4 0.0493658 0.459549 0.277715
1775 4 0.066161 0.472427 0.277064
775 2 0.049053 0.485587 0.307259
777 4 0.0493556 0.476674 0.2839
1774 2 0.0890099 0.479766 0.270047
1776 4 0.111859 0.487105 0.263029
413 4 0.233706 0.495162 0.266406
4 3 0.240234 0.435197 0.292674
1436 4 0.239525 0.500715 0.283552
1435 2 0.244172 0.477995 0.2929
1437 4 0.248819 0.455275 0.302248
5 3 0.244434 0.415706 0.324613
2 3 0.273842 0.421436 0.302358
3 3 0.259424 0.450137 0.321879
1 1 0.254357 0.430565 0.310492
436 2 0.295172 0.463113 0.318139
438 4 0.278925 0.444272 0.315641
435 4 0.287895 0.425496 0.31733
437 4 0.311419 0.481954 0.320637
1802 4 0.327495 0.473999 0.311333
1801 2 0.352409 0.473696 0.313434
1803 4 0.377322 0.473392 0.315535
316 2 0.0789816 0.0447982 0.336792
399 4 0.0912693 0.07818 0.361742
318 4 0.0836812 0.0622101 0.35411
732 4 0.102734 0.0637409 0.361507
730 2 0.126256 0.0698089 0.36743
731 4 0.149778 0.0758768 0.373353
606 4 0.155878 0.0855268 0.356163
441 4 0.354897 0.00253802 0.395131
425 4 0.367818 0.00824488 0.407364
1701 4 0.374635 0.00525579 0.390146
699 4 0.37322 0.0567778 0.361512
1699 2 0.382059 0.0264027 0.379061
1700 4 0.389483 0.0475497 0.367976
697 2 0.388273 0.0709555 0.347456
962 4 0.347901 0.0148725 0.407041
397 2 0.0752008 0.0972146 0.363902
398 4 0.0591324 0.116249 0.366063
2584 2 0.0210396 0.113567 0.360427
2586 4 0.0416464 0.123497 0.370523
458 4 0.0357182 0.134297 0.385772
457 2 0.0425358 0.15487 0.39824
604 2 0.180486 0.0881433 0.359737
605 4 0.205094 0.0907598 0.363311
248 4 0.218083 0.104481 0.372307
247 2 0.232816 0.113595 0.354277
683 4 0.258912 0.137863 0.336696
682 2 0.280434 0.147825 0.344616
684 4 0.301956 0.157786 0.352537
320 4 0.311846 0.140772 0.353962
717 4 0.373236 0.151629 0.336667
319 2 0.334888 0.138954 0.344425
726 4 0.400714 0.147561 0.388719
715 2 0.388623 0.156338 0.355804
716 4 0.404011 0.161047 0.374942
467 4 0.392556 0.166137 0.38971
724 2 0.405101 0.125316 0.39926
725 4 0.409488 0.103071 0.4098
641 4 0.491684 0.123307 0.351778
640 2 0.4966 0.120437 0.376125
459 4 0.0493535 0.175443 0.410709
260 4 0.0501669 0.187749 0.426558
600 4 0.0993256 0.199208 0.334433
598 2 0.11317 0.207684 0.353451
599 4 0.127015 0.216159 0.372468
686 4 0.120049 0.23082 0.383493
685 2 0.10566 0.229935 0.403922
275 4 0.136096 0.232825 0.379456
274 2 0.157471 0.220888 0.384535
473 4 0.217126 0.201898 0.332928
474 4 0.191173 0.213878 0.373961
472 2 0.204149 0.207888 0.353445
276 4 0.178846 0.208951 0.389613
466 2 0.399665 0.181949 0.407727
269 4 0.423161 0.240632 0.337376
268 2 0.445337 0.23964 0.348883
270 4 0.467513 0.238648 0.360391
452 4 0.478016 0.225855 0.370584
451 2 0.478202 0.21643 0.393743
453 4 0.478388 0.207004 0.416901
2802 4 0.00332908 0.298516 0.399917
347 4 0.0653766 0.324364 0.394524
346 2 0.0428288 0.313678 0.392917
618 4 0.0782292 0.329899 0.379155
348 4 0.020281 0.302992 0.39131
389 4 0.130007 0.250112 0.380649
616 2 0.101902 0.322117 0.381212
373 2 0.163528 0.300127 0.339774
388 2 0.131508 0.274792 0.376935
390 4 0.133009 0.299473 0.373222
617 4 0.125574 0.314335 0.383269
374 4 0.148185 0.2987 0.359465
9 3 0.132952 0.325782 0.398746
488 4 0.38164 0.264362 0.386487
487 2 0.376326 0.259347 0.410399
2537 4 0.487457 0.304166 0.324186
602 4 0.0582848 0.405885 0.345919
549 4 0.0771689 0.41001 0.350684
10 3 0.148666 0.355128 0.41634
335 4 0.311633 0.37658 0.412477
240 4 0.330699 0.381973 0.406478
238 2 0.341977 0.391219 0.386168
239 4 0.353255 0.400464 0.365857
587 4 0.35062 0.419276 0.371066
752 4 0.463991 0.388049 0.386232
561 4 0.448642 0.378729 0.394739
751 2 0.471045 0.410255 0.377159
559 2 0.460445 0.365914 0.412674
776 4 0.0487504 0.494499 0.330618
500 4 0.0592891 0.495182 0.34791
499 2 0.0645072 0.477397 0.364693
501 4 0.0697252 0.459613 0.381476
407 4 0.0850656 0.450907 0.394027
547 2 0.0874556 0.428079 0.364572
548 4 0.0977423 0.446147 0.37846
1555 2 0.234716 0.497618 0.410495
593 4 0.380801 0.470431 0.335514
588 4 0.368506 0.46123 0.350556
586 2 0.359563 0.440253 0.360811
592 2 0.396593 0.486488 0.346378
119 3 0.48437 0.467281 0.340299
2862 4 0.495089 0.478923 0.352811
116 1 0.490109 0.455137 0.359219
712 2 0.451451 0.48876 0.357844
714 4 0.471337 0.473611 0.357339
753 4 0.4781 0.432461 0.368086
117 3 0.471955 0.454322 0.373323
118 3 0.495957 0.433486 0.353263
718 2 0.0208279 0.014605 0.457623
369 4 0.0627385 0.018601 0.459508
719 4 0.0449453 0.0160874 0.451195
367 2 0.0863246 0.0207618 0.451495
1781 4 0.108493 0.0105781 0.427905
368 4 0.109911 0.0229226 0.443483
963 4 0.322031 0.0500909 0.431354
432 4 0.327563 0.0690831 0.437638
430 2 0.3263 0.0697583 0.462601
431 4 0.325036 0.0704335 0.487563
961 2 0.334966 0.0324817 0.419197
843 4 0.336737 0.0876528 0.489899
576 4 0.400976 0.154154 0.485566
574 2 0.409734 0.170148 0.468459
3487 2 0.489074 0.120771 0.48857
2656 2 0.499876 0.130919 0.435613
3489 4 0.481679 0.140132 0.474583
2657 4 0.489093 0.133513 0.458022
259 2 0.0642874 0.207526 0.432443
261 4 0.078408 0.227304 0.438329
687 4 0.0912706 0.229049 0.424351
1035 4 0.0959756 0.233432 0.443263
409 2 0.389935 0.219988 0.445436
411 4 0.376259 0.240915 0.445015
410 4 0.403612 0.19906 0.445857
468 4 0.406773 0.197761 0.425745
575 4 0.418492 0.186143 0.451352
515 4 0.466214 0.215102 0.429303
516 4 0.419393 0.200798 0.4395
514 2 0.442804 0.20795 0.434402
2847 4 0.00553823 0.312779 0.415487
1033 2 0.0938006 0.251531 0.460376
1034 4 0.0916256 0.26963 0.477489
696 4 0.103388 0.281269 0.48773
1260 4 0.0961763 0.286912 0.470251
1258 2 0.106086 0.305695 0.457054
1259 4 0.115996 0.324478 0.443857
8 3 0.158131 0.320176 0.426657
266 4 0.35878 0.251866 0.448459
489 4 0.371011 0.254332 0.434311
265 2 0.365004 0.271039 0.463253
267 4 0.371227 0.290212 0.478046
2457 4 0.493878 0.259042 0.503489
934 2 0.998177 0.341481 0.487161
326 4 0.0752104 0.368809 0.422607
6 1 0.141027 0.333833 0.418955
503 4 0.124683 0.341888 0.45144
7 3 0.123938 0.333752 0.434354
327 4 0.10941 0.341726 0.447053
325 2 0.0923104 0.355267 0.43483
502 2 0.132179 0.351552 0.473248
334 2 0.307188 0.3857 0.43533
336 4 0.302744 0.39482 0.458183
668 4 0.29614 0.401967 0.475325
882 4 0.305625 0.38821 0.475911
880 2 0.328053 0.38193 0.485007
804 4 0.290623 0.392273 0.490269
881 4 0.350481 0.375649 0.494103
2508 4 0.486388 0.35899 0.441716
3308 4 0.473386 0.333742 0.498409
3309 4 0.4723 0.351294 0.451595
560 4 0.472247 0.353099 0.430609
3307 2 0.472843 0.342518 0.475002
680 4 0.0136438 0.445202 0.454995
1383 4 0.00632824 0.463731 0.452663
406 2 0.0962036 0.451486 0.416405
384 4 0.139125 0.432762 0.491396
383 4 0.119766 0.457879 0.452729
382 2 0.129445 0.445321 0.472062
569 4 0.117276 0.469017 0.43641
568 2 0.133913 0.486709 0.430464
408 4 0.107342 0.452065 0.438783
635 4 0.296843 0.469138 0.47026
634 2 0.281231 0.481304 0.45498
667 2 0.299564 0.426731 0.474924
772 2 0.337632 0.476349 0.467685
1557 4 0.256696 0.49991 0.42219
669 4 0.302988 0.451496 0.474524
636 4 0.26562 0.49347 0.439701
774 4 0.316343 0.464508 0.473318
663 4 0.457418 0.501848 0.473496
1152 4 0.241784 0.0734188 0.522546
342 4 0.234434 0.0584052 0.51293
2430 4 0.196544 0.00412245 0.499629
340 2 0.217429 0.0409458 0.507346
341 4 0.200425 0.0234864 0.501761
1150 2 0.242106 0.0721856 0.547517
1151 4 0.242429 0.0709524 0.572488
1217 4 0.390885 0.0838679 0.533418
1216 2 0.411245 0.08396 0.518906
841 2 0.356345 0.0850885 0.505201
1218 4 0.431606 0.0840522 0.504393
1058 4 0.0990711 0.0770292 0.519308
1270 2 0.0902364 0.147358 0.560718
1271 4 0.0960472 0.123117 0.562661
1057 2 0.100718 0.0909237 0.540031
1059 4 0.102364 0.104818 0.560753
1155 4 0.114222 0.119449 0.568344
1153 2 0.138591 0.121077 0.5737
939 4 0.0999559 0.111688 0.57873
1221 4 0.16422 0.141431 0.583527
1154 4 0.16296 0.122705 0.579055
898 2 0.237264 0.155636 0.563891
1181 4 0.23416 0.0798058 0.587821
900 4 0.229214 0.146777 0.585843
842 4 0.375952 0.0825242 0.520503
3488 4 0.496469 0.10141 0.502557
1199 4 0.03414 0.210762 0.546338
877 2 0.0619841 0.201321 0.544988
878 4 0.0495656 0.222947 0.546799
1198 2 0.0124903 0.223246 0.545557
879 4 0.0744025 0.179695 0.543177
1244 4 0.0425874 0.235249 0.562193
1272 4 0.0844256 0.171599 0.558774
651 4 0.209144 0.221442 0.523059
858 4 0.207196 0.240393 0.525808
649 2 0.222539 0.201973 0.531228
650 4 0.235933 0.182504 0.539396
899 4 0.245313 0.164495 0.541939
1243 2 0.0428608 0.255463 0.576906
695 4 0.110666 0.265512 0.534629
694 2 0.107027 0.27339 0.511179
946 2 0.16493 0.28723 0.578879
856 2 0.191595 0.257497 0.535253
857 4 0.175994 0.274602 0.544699
947 4 0.182646 0.280644 0.56251
798 4 0.201951 0.274469 0.56746
796 2 0.221298 0.289901 0.571034
797 4 0.240644 0.305333 0.574607
790 2 0.260178 0.329229 0.556235
791 4 0.256958 0.305142 0.562118
872 4 0.351788 0.315651 0.581727
954 4 0.474186 0.301238 0.555857
952 2 0.476344 0.313675 0.577441
1011 4 0.485723 0.324394 0.512166
1009 2 0.484389 0.299756 0.508119
1010 4 0.483054 0.275118 0.504072
3263 4 0.0615713 0.330023 0.569923
3262 2 0.0596592 0.349065 0.586014
936 4 0.0115306 0.332775 0.506424
709 2 0.141033 0.402904 0.508061
710 4 0.141942 0.378027 0.505714
504 4 0.139676 0.361216 0.495056
1189 2 0.23576 0.379846 0.559208
1191 4 0.214808 0.387711 0.570358
1172 4 0.212074 0.397043 0.586594
803 4 0.269362 0.378594 0.533415
802 2 0.279992 0.385434 0.511842
1190 4 0.256712 0.37198 0.548058
1238 4 0.273422 0.368911 0.549273
1237 2 0.29566 0.368425 0.560694
792 4 0.263397 0.353317 0.550352
1239 4 0.317897 0.367938 0.572115
930 4 0.33389 0.367958 0.559511
929 4 0.353284 0.377266 0.514367
928 2 0.343587 0.372612 0.536939
711 4 0.140123 0.427781 0.510407
1128 4 0.00597968 0.0769945 0.586148
1082 4 0.0601959 0.0498292 0.661999
1081 2 0.0596663 0.0612738 0.639775
1126 2 0.0298405 0.0787784 0.593405
1083 4 0.0591368 0.0727184 0.61755
1127 4 0.0537013 0.0805623 0.600662
825 4 0.156459 0.0693165 0.66618
823 2 0.16474 0.0459655 0.669547
1032 4 0.238093 0.0599688 0.587051
2133 4 0.182879 0.00815852 0.665244
1030 2 0.254169 0.0434756 0.596783
1031 4 0.270245 0.0269823 0.606515
951 4 0.278911 0.0178406 0.621756
949 2 0.303151 0.0175447 0.615627
950 4 0.32739 0.0172488 0.609499
1226 4 0.252914 0.0813132 0.660794
1148 4 0.262681 0.0698774 0.648262
1147 2 0.261658 0.0456079 0.654189
809 4 0.485098 0.0245488 0.615237
808 2 0.478667 0.0389526 0.634637
810 4 0.472236 0.0533563 0.654037
45 3 0.471588 0.0746043 0.65241
3425 4 0.484508 0.0836827 0.668934
3008 4 0.502594 0.0249227 0.603299
938 4 0.0694156 0.0867089 0.609456
937 2 0.0846858 0.0991985 0.594093
1283 4 0.150594 0.0846255 0.655869
1282 2 0.160864 0.105717 0.66452
1180 2 0.232466 0.104528 0.591152
1219 2 0.188638 0.139631 0.588598
1220 4 0.213056 0.137832 0.593668
1182 4 0.230772 0.129251 0.594484
1210 2 0.235817 0.144292 0.62867
1212 4 0.227785 0.144611 0.604994
908 4 0.233056 0.135993 0.665512
1211 4 0.24385 0.143973 0.652346
1227 4 0.252954 0.131259 0.663272
888 4 0.261207 0.148681 0.659963
1225 2 0.252934 0.106286 0.662033
886 2 0.285365 0.153665 0.664053
1192 2 0.324979 0.19126 0.65913
1193 4 0.32773 0.211861 0.64523
1245 4 0.0431342 0.275678 0.591619
982 2 0.0161524 0.304116 0.591846
983 4 0.0322757 0.288662 0.603088
948 4 0.147213 0.293816 0.595247
1136 4 0.160506 0.307489 0.603006
1135 2 0.165322 0.32796 0.61653
871 2 0.371854 0.32015 0.595949
873 4 0.391921 0.32465 0.610171
813 4 0.393522 0.32378 0.631265
953 4 0.478502 0.326111 0.599025
906 4 0.47711 0.34538 0.605385
1041 4 0.0631306 0.38586 0.606061
3264 4 0.057747 0.368107 0.602106
3240 4 0.0443045 0.381169 0.60771
3238 2 0.0205657 0.38828 0.61104
1039 2 0.0864197 0.389098 0.614564
1040 4 0.109709 0.392336 0.623068
993 4 0.129015 0.392073 0.624859
991 2 0.147799 0.376933 0.631425
822 4 0.162925 0.343906 0.646242
992 4 0.166583 0.361793 0.637992
820 2 0.151895 0.336132 0.667292
1137 4 0.170139 0.348431 0.630054
1064 4 0.180711 0.356597 0.643079
897 4 0.184215 0.363273 0.625641
896 4 0.210608 0.376834 0.58539
895 2 0.197412 0.370054 0.605515
1063 2 0.199592 0.3608 0.658922
811 2 0.392341 0.345214 0.644085
927 4 0.400679 0.382898 0.650121
812 4 0.39116 0.366649 0.656905
925 2 0.413346 0.403975 0.645595
1206 4 0.381697 0.382967 0.653892
539 4 0.06372 0.440904 0.600865
2244 4 0.107462 0.479668 0.589825
1160 4 0.12145 0.475346 0.603942
540 4 0.108721 0.46251 0.597899
538 2 0.0862206 0.451707 0.599382
1159 2 0.145211 0.470928 0.610351
1171 2 0.218011 0.419753 0.595205
1186 2 0.201624 0.46716 0.623108
1173 4 0.223948 0.442464 0.603817
1187 4 0.223675 0.458702 0.614899
1188 4 0.179574 0.475619 0.631318
1161 4 0.168972 0.46651 0.616761
1230 4 0.338211 0.435604 0.663431
926 4 0.426013 0.425052 0.641068
1002 4 0.441338 0.424885 0.627288
1911 4 0.456261 0.486725 0.614879
1001 4 0.462842 0.469343 0.619426
1000 2 0.45209 0.447114 0.623357
1269 4 0.468294 0.482583 0.631332
945 4 0.00905105 0.00984345 0.683601
944 4 0.0337404 0.0521094 0.673367
943 2 0.0213957 0.0309764 0.678484
1076 4 0.0514967 0.056802 0.679617
1075 2 0.0632392 0.065624 0.699853
864 4 0.0661961 0.0752795 0.736635
1077 4 0.0749817 0.074446 0.720088
1107 4 0.086194 0.0814081 0.733124
1105 2 0.106761 0.0820311 0.747329
2256 4 0.183915 0.00844124 0.684133
824 4 0.173021 0.0226145 0.672914
1149 4 0.260636 0.0213384 0.660115
1092 4 0.335216 0.0214845 0.695024
41 1 0.46271 0.0700473 0.672881
43 3 0.440628 0.077128 0.673689
42 3 0.463379 0.0473479 0.676547
1163 4 0.475587 0.0592963 0.692373
1162 2 0.48984 0.0513676 0.711324
2321 4 0.497262 0.035864 0.747955
44 3 0.475048 0.0806817 0.689407
1164 4 0.504092 0.0434389 0.730276
851 4 0.0814023 0.0909299 0.714648
850 2 0.0795667 0.115758 0.712332
852 4 0.0777312 0.140587 0.710016
907 2 0.209611 0.136251 0.6742
1284 4 0.171134 0.126809 0.673171
909 4 0.186167 0.136509 0.682887
887 4 0.309523 0.158649 0.668142
830 4 0.324902 0.151027 0.677314
829 2 0.327549 0.144924 0.701416
1005 4 0.341613 0.122516 0.725266
1003 2 0.340707 0.106504 0.744449
831 4 0.330197 0.13882 0.725518
3268 2 0.496705 0.132615 0.729921
3270 4 0.498941 0.150101 0.712189
1146 4 0.48282 0.163392 0.708675
3269 4 0.494468 0.115128 0.747653
1214 4 0.0109134 0.188065 0.731034
1215 4 0.00669932 0.237796 0.727903
1213 2 0.00880636 0.212931 0.729469
1194 4 0.322228 0.170659 0.67303
1297 2 0.295622 0.215645 0.731146
1298 4 0.309072 0.236722 0.731357
1299 4 0.282173 0.194568 0.730935
977 4 0.322478 0.24675 0.722062
1025 4 0.390368 0.197735 0.69617
1024 2 0.410064 0.199254 0.711499
976 2 0.346997 0.251381 0.723654
1144 2 0.463587 0.175161 0.719481
1262 4 0.447817 0.205441 0.731018
1026 4 0.429759 0.200772 0.726828
1145 4 0.444354 0.18693 0.730287
1261 2 0.457712 0.228403 0.731078
1142 4 0.435769 0.196171 0.744522
1178 4 0.0235218 0.248032 0.728309
1073 4 0.0787584 0.252482 0.745587
1177 2 0.0448313 0.257956 0.73683
1179 4 0.0661408 0.26788 0.74535
3038 4 0.00581763 0.256703 0.731059
893 4 0.0254292 0.323854 0.720336
1072 2 0.100022 0.261437 0.735952
1208 4 0.135612 0.283344 0.726477
1074 4 0.121286 0.270392 0.726316
1207 2 0.131901 0.304912 0.714384
1209 4 0.128191 0.32648 0.702291
1130 4 0.137247 0.268316 0.73812
805 2 0.239005 0.333074 0.685942
806 4 0.253251 0.312667 0.683539
978 4 0.371516 0.256012 0.725245
1020 4 0.382189 0.269462 0.735402
3112 2 0.489136 0.266272 0.671989
3114 4 0.47024 0.280246 0.680524
1263 4 0.467607 0.251365 0.731137
892 2 0.0439815 0.340617 0.720378
1280 4 0.0744766 0.369852 0.728128
816 4 0.0788189 0.359559 0.711315
894 4 0.0625339 0.357379 0.720421
1279 2 0.0763586 0.388868 0.744254
821 4 0.140865 0.328358 0.688341
815 4 0.12537 0.341455 0.713754
942 4 0.143534 0.33674 0.70739
814 2 0.102094 0.350507 0.712534
940 2 0.158461 0.351672 0.720784
941 4 0.173388 0.366605 0.734177
1078 2 0.173939 0.408014 0.742232
1080 4 0.174936 0.385069 0.732347
1065 4 0.218473 0.365003 0.674766
807 4 0.224759 0.353481 0.688346
1028 4 0.221572 0.384118 0.675381
1066 2 0.206685 0.373979 0.711358
1068 4 0.221999 0.372678 0.691636
1027 2 0.229233 0.407794 0.672944
1067 4 0.19137 0.375281 0.73108
1204 2 0.364446 0.390888 0.670166
1205 4 0.347196 0.398808 0.686441
1029 4 0.236894 0.43147 0.670507
1174 2 0.179234 0.483291 0.734142
1175 4 0.168495 0.489641 0.712473
1140 4 0.246369 0.440735 0.68649
1228 2 0.323165 0.448153 0.678965
1138 2 0.267887 0.453399 0.687815
1139 4 0.289405 0.466064 0.689141
1987 2 0.325492 0.463244 0.733858
1229 4 0.308118 0.460702 0.694499
1989 4 0.318345 0.464846 0.709952
2028 4 0.301134 0.474237 0.702151
2026 2 0.301119 0.497577 0.693182
1099 2 0.484232 0.484022 0.704719
1100 4 0.488429 0.465483 0.720963
862 2 0.0480908 0.0740964 0.75384
2989 2 0.0204275 0.0485675 0.798405
2990 4 0.0161382 0.0685221 0.783962
2991 4 0.0247168 0.0286129 0.812848
863 4 0.0299856 0.0729132 0.771044
3083 4 0.0117359 0.0798362 0.768802
1106 4 0.127328 0.082654 0.761534
1202 4 0.128324 0.00970438 0.802607
1201 2 0.132298 0.0339972 0.79822
1203 4 0.136271 0.0582901 0.793833
32 3 0.153208 0.0660272 0.803672
34 3 0.126595 0.0754304 0.778853
911 4 0.147486 0.0831685 0.816236
31 1 0.146138 0.0824544 0.789205
1085 4 0.298307 0.0558769 0.791956
960 4 0.300389 0.0593051 0.810649
819 4 0.289578 0.0445527 0.806776
817 2 0.305767 0.0272746 0.79874
818 4 0.321956 0.00999636 0.790705
974 4 0.333064 0.997216 0.803138
1050 4 0.339858 0.00451547 0.78682
2320 2 0.486518 0.048282 0.766811
844 2 0.49346 0.0803208 0.820264
845 4 0.478801 0.0719175 0.801834
2322 4 0.475773 0.0607 0.785666
1112 4 0.476563 0.0799713 0.78479
833 4 0.0232339 0.0873617 0.782019
832 2 0.0202508 0.106284 0.798089
834 4 0.0172678 0.125206 0.814158
1125 4 0.0352388 0.131828 0.820641
35 3 0.142281 0.101606 0.800909
33 3 0.162657 0.0860761 0.773317
1256 4 0.240584 0.144026 0.807376
1255 2 0.246305 0.123601 0.794137
840 4 0.223088 0.15429 0.809874
1084 2 0.284211 0.0749346 0.784
1086 4 0.270116 0.0939923 0.776044