ITEM: TIMESTEP
2160000
ITEM: NUMBER OF ATOMS
4590
ITEM: BOX BOUNDS pp pp pp
-9.9985700000000008e+00 9.9985700000000008e+00
-9.9985700000000008e+00 9.9985700000000008e+00
-9.9985700000000008e+00 9.9985700000000008e+00
ITEM: ATOMS id type xs ys zs
1666 2 0.0278157 0.0701223 0.0659041
1668 4 0.0312738 0.0455136 0.0686664
491 4 0.249324 0.0760345 0.0703519
2974 2 0.466578 0.0247934 0.0129085
2976 4 0.47076 0.00356634 0.0254424
745 2 0.445601 0.0832161 0.0120999
1667 4 0.0243577 0.094731 0.0631417
701 4 0.0322083 0.111011 0.0729724
566 4 0.188785 0.153615 0.0432875
565 2 0.196232 0.159154 0.0200701
297 4 0.323226 0.092273 0.0236907
295 2 0.339479 0.104696 0.00931498
556 2 0.397619 0.111401 0.00587012
558 4 0.421226 0.109834 0.0139613
746 4 0.438498 0.103952 0.0241302
555 4 0.0312394 0.244278 0.999105
770 4 0.400658 0.195484 0.0033656
359 4 0.38891 0.187875 0.0147057
358 2 0.366158 0.189331 0.00443964
664 2 0.398175 0.214885 0.0432337
665 4 0.400283 0.198399 0.0245532
666 4 0.396067 0.23137 0.0619142
623 4 0.387136 0.243297 0.0775606
769 2 0.423767 0.186455 0.000262058
2807 4 1.37344e-05 0.277085 0.0706803
292 2 0.128491 0.277047 0.0390744
507 4 0.155104 0.29042 0.0534217
293 4 0.139118 0.299315 0.0431206
294 4 0.117863 0.254779 0.0350283
551 4 0.102108 0.318999 0.0842866
550 2 0.113373 0.330297 0.0650349
287 4 0.157186 0.300476 0.037622
286 2 0.176132 0.30442 0.021789
505 2 0.171129 0.286848 0.0722797
481 2 0.223825 0.265378 0.084171
482 4 0.24128 0.252422 0.0718161
288 4 0.195078 0.308364 0.00595607
573 4 0.252295 0.253647 0.0541585
571 2 0.273433 0.261563 0.0434014
572 4 0.29457 0.269478 0.0326444
357 4 0.301166 0.281645 0.018841
323 4 0.392746 0.249419 0.0610694
1069 2 0.403932 0.318568 0.022943
1071 4 0.385595 0.335259 0.0197296
322 2 0.40134 0.268472 0.0473461
955 2 0.354034 0.336773 0.00283832
324 4 0.409934 0.287524 0.0336228
1070 4 0.422269 0.301876 0.0261563
671 4 0.453171 0.320906 0.091203
280 2 0.450633 0.305791 0.0505735
281 4 0.458974 0.309222 0.0738941
282 4 0.442293 0.302361 0.027253
455 4 0.144852 0.341902 0.0405269
552 4 0.124637 0.341596 0.0457832
454 2 0.164173 0.357171 0.0361967
456 4 0.183493 0.37244 0.0318665
1290 4 0.259901 0.397875 0.0222795
252 4 0.279019 0.396634 0.077016
250 2 0.270141 0.405728 0.0554832
251 4 0.261262 0.414821 0.0339505
1288 2 0.269563 0.385517 0.0028089
741 4 0.373331 0.341381 0.034493
739 2 0.372926 0.3422 0.0594799
957 4 0.371835 0.347875 0.0164419
493 2 0.391393 0.394523 0.0821996
495 4 0.39132 0.370144 0.0877542
1788 4 0.0770529 0.484498 0.0324225
626 4 0.216962 0.490862 0.0700179
625 2 0.192706 0.496491 0.0677479
245 4 0.235597 0.483709 0.066569
244 2 0.246934 0.46723 0.0515645
246 4 0.25827 0.450752 0.03656
272 4 0.260715 0.433703 0.0277546
271 2 0.26804 0.439867 0.00465619
494 4 0.391465 0.418901 0.076645
1672 2 0.404562 0.448263 0.0580664
853 2 0.399445 0.443189 0.00430146
1674 4 0.414039 0.459196 0.0376745
854 4 0.416479 0.453816 0.0192044
563 4 0.478368 0.448992 0.036644
562 2 0.454715 0.455746 0.0321619
564 4 0.431062 0.462499 0.0276798
228 4 0.493262 0.45052 0.0512628
18 3 0.0690996 0.00683811 0.162106
19 3 0.0672235 0.0440607 0.154665
1474 2 0.282969 0.00745355 0.0905632
1475 4 0.271851 0.0281335 0.0991601
492 4 0.277663 0.0470594 0.0996448
490 2 0.263494 0.0615469 0.0849984
1506 4 0.257602 0.00541515 0.170252
486 4 0.408915 0.0278142 0.0795033
484 2 0.409561 0.0299369 0.104408
485 4 0.410206 0.0320597 0.129313
2722 2 0.484175 0.0633089 0.148109
2724 4 0.486922 0.0384704 0.147285
1759 2 0.490587 0.00405963 0.123982
1760 4 0.489778 0.0189294 0.144068
2744 4 0.498602 0.0272098 0.158328
700 2 0.049022 0.122398 0.0875606
702 4 0.0658358 0.133785 0.102149
476 4 0.0846763 0.132399 0.107859
475 2 0.0978222 0.150965 0.118234
582 4 0.255371 0.110848 0.170067
580 2 0.26814 0.0987648 0.152287
581 4 0.280909 0.0866818 0.134507
628 2 0.377335 0.142534 0.162765
630 4 0.364031 0.160964 0.152346
2723 4 0.481427 0.0881475 0.148933
339 4 0.0411713 0.264942 0.134089
2833 2 0.0107674 0.243861 0.0880811
2625 4 0.00453781 0.213485 0.106413
2834 4 0.0120654 0.218892 0.0882981
477 4 0.110968 0.169532 0.128609
738 4 0.205488 0.206108 0.0972988
737 4 0.226936 0.161447 0.090511
736 2 0.216212 0.183777 0.0939049
460 2 0.320648 0.240013 0.106127
461 4 0.29852 0.241816 0.0946273
354 4 0.278505 0.251199 0.100267
278 4 0.254007 0.243912 0.160572
254 4 0.3642 0.177918 0.142244
462 4 0.342777 0.238211 0.117628
255 4 0.347575 0.222681 0.127392
253 2 0.355888 0.200299 0.134818
765 4 0.352374 0.239014 0.136013
624 4 0.361679 0.236053 0.119989
622 2 0.374407 0.239675 0.0987747
763 2 0.343582 0.251317 0.155926
337 2 0.0472156 0.257746 0.15726
2835 4 0.00946929 0.26883 0.087864
483 4 0.20637 0.278334 0.0965259
506 4 0.187154 0.283275 0.0911377
755 4 0.246165 0.257818 0.15055
537 4 0.177673 0.292363 0.106084
535 2 0.190006 0.300424 0.126285
754 2 0.241324 0.278249 0.164126
536 4 0.20234 0.308485 0.146486
352 2 0.271853 0.252369 0.124341
353 4 0.265201 0.253539 0.148415
387 4 0.314418 0.315425 0.113414
301 2 0.316561 0.302528 0.152022
284 4 0.269589 0.250654 0.168202
302 4 0.306333 0.308379 0.129969
385 2 0.336255 0.323988 0.104754
386 4 0.358092 0.332552 0.0960937
12 3 0.402004 0.341392 0.12629
527 4 0.461353 0.30425 0.0918343
670 2 0.430813 0.330205 0.0974364
526 2 0.485957 0.308114 0.0940482
647 4 0.0651035 0.344903 0.166639
291 4 0.208616 0.385523 0.16151
289 2 0.223735 0.398847 0.146708
416 4 0.190533 0.386231 0.15281
290 4 0.238853 0.412171 0.131907
609 4 0.287776 0.401778 0.0943004
607 2 0.307948 0.415583 0.099564
15 3 0.367607 0.332661 0.114736
740 4 0.372522 0.343018 0.0844667
672 4 0.408456 0.339503 0.10367
14 3 0.391383 0.350065 0.0912952
11 1 0.38426 0.348129 0.113293
13 3 0.376684 0.368661 0.121002
595 2 0.451027 0.413557 0.146241
102 3 0.498654 0.354196 0.120533
1791 4 0.061436 0.493038 0.159696
1466 4 0.0504009 0.476312 0.158528
1465 2 0.0487314 0.459703 0.139912
1467 4 0.0470619 0.443094 0.121297
638 4 0.228561 0.474071 0.125512
767 4 0.246229 0.472104 0.13446
766 2 0.249161 0.447615 0.138564
637 2 0.217171 0.496317 0.126248
768 4 0.252094 0.423125 0.142668
608 4 0.32812 0.429387 0.104828
1560 4 0.313816 0.503847 0.113451
660 4 0.378275 0.431767 0.0846315
1673 4 0.395084 0.43733 0.0784582
659 4 0.340857 0.439286 0.116944
658 2 0.359566 0.435527 0.100788
1559 4 0.360219 0.490802 0.100137
1558 2 0.337018 0.497325 0.106794
524 4 0.371691 0.492365 0.116441
523 2 0.393175 0.479778 0.118714
525 4 0.414659 0.46719 0.120986
596 4 0.44313 0.425795 0.125917
16 1 0.065404 0.0278694 0.171185
17 3 0.0441502 0.0285519 0.179958
2480 4 0.0294007 0.0211856 0.192313
1422 4 0.0336586 0.00143074 0.194066
2479 2 0.0112893 0.0382318 0.189748
20 3 0.0804911 0.0319417 0.187752
380 4 0.00601783 0.0714207 0.183149
578 4 0.0839647 0.0480894 0.171177
577 2 0.103055 0.0642222 0.171861
579 4 0.122146 0.0803549 0.172544
674 4 0.170662 0.997143 0.23845
689 4 0.175826 0.0116978 0.224625
652 2 0.28685 0.0144741 0.179264
653 4 0.306244 0.0268209 0.169434
25 3 0.324763 0.0499455 0.247379
654 4 0.267457 0.0021272 0.189094
758 4 0.357103 0.0612459 0.195939
759 4 0.343295 0.0611275 0.244002
757 2 0.350199 0.0611867 0.21997
311 4 0.366256 0.0646992 0.177723
333 4 0.50578 0.0786007 0.23878
379 2 0.00590698 0.0926013 0.196436
511 2 0.0413409 0.142237 0.206798
512 4 0.0198434 0.129532 0.208073
381 4 0.00579614 0.113782 0.209723
513 4 0.0628385 0.154941 0.205522
393 4 0.0681633 0.167137 0.220982
448 2 0.160361 0.0928643 0.183745
450 4 0.138705 0.0930175 0.171248
237 4 0.237675 0.123317 0.171193
449 4 0.182017 0.0927111 0.196242
235 2 0.218535 0.109125 0.178772
236 4 0.199395 0.0949337 0.186351
693 4 0.246851 0.0740568 0.24597
28 3 0.324127 0.163412 0.223692
312 4 0.395751 0.105009 0.175302
629 4 0.390638 0.124104 0.173183
310 2 0.381004 0.0848542 0.176513
521 4 0.497512 0.130842 0.222424
332 4 0.49504 0.127352 0.241727
762 4 0.480776 0.136036 0.231152
760 2 0.460451 0.150165 0.23468
331 2 0.50041 0.102976 0.240253
761 4 0.440127 0.164295 0.238209
396 4 0.997362 0.246635 0.236781
394 2 0.0159107 0.252308 0.221003
391 2 0.0871102 0.177387 0.208288
392 4 0.106057 0.187636 0.195593
279 4 0.237743 0.200725 0.179835
277 2 0.245875 0.222318 0.170204
395 4 0.0344592 0.257982 0.205225
338 4 0.05326 0.250551 0.18043
363 4 0.0542409 0.256561 0.199617
361 2 0.0616851 0.279161 0.207299
749 4 0.060067 0.316866 0.223263
648 4 0.0738798 0.31916 0.208604
362 4 0.0691294 0.30176 0.21498
748 2 0.0676454 0.331583 0.242002
646 2 0.0694917 0.332032 0.187622
370 2 0.109303 0.305193 0.215418
372 4 0.0859375 0.30248 0.206939
371 4 0.132668 0.307907 0.223897
734 4 0.141319 0.321197 0.235399
733 2 0.158527 0.307342 0.247109
756 4 0.236483 0.298681 0.177701
610 2 0.247734 0.314466 0.206184
344 4 0.230989 0.310207 0.236906
611 4 0.240963 0.326571 0.226987
343 2 0.212995 0.298706 0.249911
612 4 0.254506 0.302361 0.18538
283 2 0.292829 0.257019 0.174877
285 4 0.316069 0.263384 0.181552
307 2 0.335114 0.281219 0.207887
308 4 0.32582 0.279425 0.184745
303 4 0.326789 0.296678 0.174075
729 4 0.322476 0.314451 0.183225
764 4 0.334789 0.26362 0.175838
727 2 0.316096 0.335704 0.194747
309 4 0.344408 0.283012 0.23103
498 4 0.331748 0.278986 0.245926
417 4 0.147438 0.390575 0.177803
299 4 0.139723 0.336224 0.249039
415 2 0.168986 0.388403 0.165306
728 4 0.309715 0.356958 0.206269
446 4 0.379833 0.388338 0.241408
445 2 0.404456 0.386172 0.237641
645 4 0.459547 0.406558 0.186615
447 4 0.429079 0.384007 0.233874
644 4 0.44444 0.376899 0.223936
643 2 0.451993 0.391729 0.205276
597 4 0.458925 0.40132 0.166565
1757 4 0.0316574 0.431093 0.24155
1756 2 0.0458725 0.450984 0.246792
414 4 0.199215 0.454068 0.218666
412 2 0.215598 0.462092 0.235765
229 2 0.444342 0.469403 0.217067
231 4 0.453745 0.447951 0.208314
230 4 0.43494 0.490854 0.22582
427 2 0.0689463 0.00781077 0.327554
2755 2 0.00426377 0.0612188 0.322501
234 4 0.0164701 0.0409593 0.294719
232 2 0.0405719 0.038539 0.288521
233 4 0.0646737 0.0361186 0.282322
1404 4 0.07574 0.018282 0.285371
317 4 0.0773277 0.0340488 0.295219
428 4 0.0743891 0.0189101 0.30582
2756 4 0.0017506 0.054428 0.298569
2478 4 0.0123529 0.0551921 0.282161
316 2 0.0913579 0.0536173 0.301958
1402 2 0.0911074 0.00412398 0.271639
318 4 0.105388 0.0731858 0.308696
730 2 0.139983 0.0737929 0.318692
731 4 0.159144 0.0632504 0.330812
24 3 0.318464 0.0745617 0.275164
21 1 0.333056 0.0586088 0.266739
22 3 0.353343 0.0685894 0.262496
23 3 0.336135 0.0416814 0.282308
349 2 0.386778 0.0731292 0.259178
351 4 0.409615 0.0640679 0.254538
350 4 0.363941 0.0821904 0.263818
480 4 0.425102 0.0513943 0.256191
479 4 0.450306 0.0312972 0.294422
478 2 0.437704 0.0413457 0.275306
2664 4 0.470091 0.0262839 0.292089
1428 4 0.455511 0.0159367 0.29954
258 4 0.440734 0.026299 0.310141
2662 2 0.492182 0.0378633 0.290341
256 2 0.434227 0.0429059 0.327664
397 2 0.0894227 0.107533 0.323572
399 4 0.104229 0.0932391 0.309372
732 4 0.120823 0.0843354 0.306571
26 1 0.319331 0.164195 0.246381
691 2 0.254733 0.0820945 0.268296
721 2 0.264802 0.113971 0.311431
692 4 0.262615 0.0901323 0.290622
30 3 0.304007 0.14819 0.25164
723 4 0.273564 0.106324 0.289297
29 3 0.338726 0.160937 0.258694
632 4 0.372489 0.101168 0.262109
631 2 0.362634 0.124134 0.261307
707 4 0.3523 0.158795 0.273227
633 4 0.35278 0.1471 0.260506
442 2 0.00976381 0.236857 0.27631
444 4 0.0134496 0.225307 0.298177
546 4 0.1412 0.186369 0.30218
544 2 0.157598 0.195068 0.285428
545 4 0.173995 0.203767 0.268676
402 4 0.180547 0.222624 0.265457
400 2 0.188431 0.246259 0.26756
27 3 0.310697 0.184907 0.251446
706 2 0.35477 0.173084 0.293596
708 4 0.35724 0.187372 0.313966
401 4 0.196315 0.269893 0.269664
676 2 0.182434 0.295579 0.296029
345 4 0.195001 0.287204 0.262915
677 4 0.182156 0.284185 0.273774
735 4 0.175735 0.293488 0.258819
678 4 0.182712 0.306973 0.318284
510 4 0.191077 0.325647 0.317296
375 4 0.177636 0.301233 0.336491
378 4 0.25617 0.256447 0.324819
376 2 0.278111 0.262767 0.314628
496 2 0.323687 0.276114 0.26942
497 4 0.315627 0.273243 0.292914
377 4 0.300051 0.269088 0.304438
418 2 0.392496 0.265787 0.329812
541 2 0.375103 0.303204 0.293152
542 4 0.391366 0.28461 0.297016
420 4 0.383837 0.269021 0.30658
543 4 0.358839 0.321799 0.289289
365 4 0.00901166 0.401668 0.299438
601 2 0.0452242 0.410125 0.323285
603 4 0.0236862 0.403219 0.312626
750 4 0.0752239 0.346299 0.260741
298 2 0.117036 0.344956 0.254889
300 4 0.0943487 0.353689 0.260738
508 2 0.208652 0.342216 0.32376
433 2 0.312819 0.387666 0.325877
435 4 0.291781 0.396027 0.315264
615 4 0.368766 0.334511 0.301429
614 4 0.335195 0.365499 0.321763
613 2 0.35198 0.350005 0.311596
264 4 0.0130144 0.427474 0.248964
776 4 0.072694 0.479527 0.322963
775 2 0.0712668 0.48699 0.299142
1758 4 0.0600876 0.470874 0.252034
1775 4 0.0729969 0.485609 0.257058
777 4 0.0698395 0.494453 0.27532
500 4 0.0844733 0.494002 0.329306
1436 4 0.247239 0.462256 0.263884
413 4 0.231982 0.470115 0.252864
1435 2 0.256051 0.449159 0.283274
1437 4 0.264862 0.436061 0.302665
4 3 0.263891 0.445083 0.318863
436 2 0.327133 0.466806 0.326434
3 3 0.284506 0.476967 0.320554
438 4 0.302497 0.462656 0.32744
1 1 0.277161 0.458435 0.33243
1803 4 0.371448 0.502146 0.271841
1801 2 0.367453 0.494053 0.295159
437 4 0.35177 0.470955 0.325427
1802 4 0.363458 0.485961 0.318477
119 3 0.49381 0.465916 0.311803
712 2 0.455016 0.47552 0.331897
714 4 0.477057 0.464165 0.328667
2757 4 0.00677694 0.0680096 0.346433
1781 4 0.108457 0.0121501 0.410821
606 4 0.173074 0.0511415 0.338445
604 2 0.184132 0.0682016 0.353
605 4 0.19519 0.0852616 0.367555
441 4 0.324693 0.0118086 0.400758
1701 4 0.329956 0.0264066 0.390453
425 4 0.337489 0.0195372 0.408827
699 4 0.360243 0.0555971 0.344187
698 4 0.409067 0.0663587 0.345241
1699 2 0.343339 0.0315897 0.369978
1700 4 0.356723 0.0367728 0.349503
697 2 0.384655 0.0609779 0.344714
725 4 0.406077 0.0683309 0.387992
724 2 0.407163 0.0826613 0.408452
257 4 0.42772 0.0595129 0.345186
398 4 0.0746168 0.121826 0.337773
2585 4 0.0194398 0.0835442 0.343215
2584 2 0.037156 0.101174 0.342501
2586 4 0.0548723 0.118803 0.341787
458 4 0.0479333 0.129517 0.356985
457 2 0.0407206 0.141437 0.377748
459 4 0.033508 0.153356 0.39851
600 4 0.114609 0.138693 0.361803
598 2 0.117601 0.163384 0.364363
248 4 0.21178 0.0823863 0.35736
249 4 0.243938 0.119971 0.350011
247 2 0.227859 0.101178 0.353686
404 4 0.248045 0.135369 0.344094
403 2 0.237945 0.157242 0.337405
722 4 0.25604 0.121618 0.333565
683 4 0.253562 0.133756 0.362203
682 2 0.277092 0.13359 0.37066
684 4 0.300622 0.133425 0.379116
320 4 0.317027 0.145689 0.38066
319 2 0.337773 0.132009 0.383429
321 4 0.358518 0.118329 0.386198
261 4 0.0674983 0.204735 0.413689
260 4 0.0313882 0.170182 0.411989
259 2 0.0494432 0.187458 0.412839
599 4 0.120592 0.188076 0.366922
389 4 0.125867 0.220476 0.369991
686 4 0.121491 0.2025 0.378991
685 2 0.104014 0.203901 0.396818
275 4 0.133995 0.203415 0.367295
274 2 0.15603 0.200496 0.355845
388 2 0.124356 0.244446 0.363038
687 4 0.0865371 0.205301 0.414644
474 4 0.187996 0.212241 0.352074
472 2 0.210521 0.204058 0.344942
473 4 0.233046 0.195876 0.33781
276 4 0.178065 0.197576 0.344395
405 4 0.227846 0.179115 0.330716
715 2 0.401591 0.177998 0.366437
716 4 0.381735 0.185939 0.379392
467 4 0.387708 0.183439 0.397358
269 4 0.412827 0.247654 0.358106
717 4 0.421448 0.170057 0.353481
270 4 0.44555 0.209848 0.358955
452 4 0.453595 0.199651 0.373707
268 2 0.429188 0.228751 0.358531
451 2 0.457635 0.203016 0.398152
346 2 0.0514427 0.324816 0.382939
348 4 0.0325169 0.314285 0.395433
618 4 0.0856695 0.322382 0.371336
616 2 0.102503 0.304121 0.368445
390 4 0.122844 0.268416 0.356085
617 4 0.119337 0.285861 0.365554
374 4 0.134421 0.283315 0.354159
373 2 0.156028 0.292274 0.345325
419 4 0.401155 0.262553 0.353045
602 4 0.0667621 0.41703 0.333944
347 4 0.0703685 0.335347 0.370446
549 4 0.0833707 0.41212 0.342953
509 4 0.226226 0.358785 0.330224
668 4 0.303388 0.395372 0.416488
336 4 0.311539 0.377162 0.4167
434 4 0.333858 0.379304 0.336491
334 2 0.331959 0.362806 0.41525
238 2 0.384776 0.366493 0.408027
239 4 0.396719 0.386769 0.399575
587 4 0.407203 0.402963 0.403802
752 4 0.480642 0.391914 0.371399
561 4 0.474772 0.398183 0.388848
751 2 0.485837 0.410512 0.355515
559 2 0.481317 0.392472 0.412294
548 4 0.0838376 0.43968 0.384677
407 4 0.0775712 0.458703 0.383725
499 2 0.0822694 0.484895 0.352488
501 4 0.0800656 0.475789 0.37567
547 2 0.0836042 0.4259 0.363815
406 2 0.0938139 0.464418 0.401855
1544 4 0.212019 0.499217 0.404804
5 3 0.265339 0.465109 0.350715
2 3 0.29544 0.446254 0.339258
586 2 0.403985 0.426018 0.394677
593 4 0.411285 0.46307 0.395966
588 4 0.400768 0.449074 0.385552
592 2 0.420132 0.475602 0.37622
713 4 0.432975 0.486875 0.335127
753 4 0.491033 0.42911 0.339631
117 3 0.486097 0.450745 0.345314
594 4 0.428979 0.488134 0.356475
720 4 0.00577073 0.00836685 0.460908
367 2 0.0798205 0.0253328 0.438779
369 4 0.0654502 0.0418226 0.450893
719 4 0.0506737 0.0298222 0.455998
718 2 0.0282222 0.0190945 0.458453
368 4 0.0941908 0.00884299 0.426664
2430 4 0.175009 0.00841596 0.481411
341 4 0.182616 0.0213851 0.496214
962 4 0.319168 0.0185098 0.417398
961 2 0.309577 0.0369289 0.431324
963 4 0.299985 0.055348 0.445249
432 4 0.315046 0.0656387 0.451237
430 2 0.320158 0.0709789 0.475123
431 4 0.32527 0.076319 0.499009
424 2 0.3593 0.0146465 0.420031
426 4 0.381111 0.0097557 0.431236
843 4 0.338509 0.062787 0.504127
726 4 0.40825 0.0969918 0.428913
640 2 0.489224 0.104212 0.445846
641 4 0.4706 0.106248 0.462405
1035 4 0.0770897 0.208234 0.431104
1033 2 0.0794283 0.219973 0.453056
1034 4 0.0817669 0.231712 0.475009
696 4 0.085432 0.242622 0.490136
487 2 0.326701 0.253297 0.458358
488 4 0.30578 0.25525 0.444805
466 2 0.394066 0.190741 0.420411
468 4 0.400423 0.198043 0.443464
411 4 0.354162 0.234717 0.465265
409 2 0.37457 0.220515 0.462618
410 4 0.394978 0.206313 0.459972
266 4 0.357196 0.240705 0.484631
489 4 0.347622 0.251343 0.47191
574 2 0.412425 0.189152 0.49535
575 4 0.404619 0.202178 0.475486
516 4 0.411336 0.208454 0.456266
514 2 0.435422 0.208115 0.449561
515 4 0.459507 0.207776 0.442856
453 4 0.461676 0.206382 0.422596
1260 4 0.0839172 0.252411 0.474097
1258 2 0.0998011 0.271674 0.472744
1259 4 0.115685 0.290936 0.47139
9 3 0.135814 0.285718 0.460123
7 3 0.122597 0.308048 0.487313
6 1 0.135758 0.307372 0.468459
8 3 0.157338 0.313728 0.474143
327 4 0.111432 0.315341 0.470868
325 2 0.089067 0.326431 0.47228
10 3 0.127293 0.321672 0.452886
1009 2 0.473728 0.308241 0.498849
1011 4 0.466969 0.330829 0.490525
326 4 0.0667021 0.337522 0.473692
709 2 0.1556 0.407328 0.486359
711 4 0.135864 0.41326 0.472201
503 4 0.221532 0.365672 0.487245
502 2 0.199127 0.373447 0.495165
710 4 0.175337 0.401396 0.500518
504 4 0.176722 0.381223 0.503086
667 2 0.316456 0.414698 0.425482
335 4 0.352379 0.34845 0.413799
240 4 0.372832 0.346217 0.416478
560 4 0.487861 0.386761 0.435741
3309 4 0.471833 0.380457 0.445573
3307 2 0.473232 0.362333 0.462742
3308 4 0.47463 0.34421 0.479911
1381 2 0.0243739 0.480443 0.457719
1383 4 0.0162427 0.462188 0.442692
680 4 0.0236993 0.442983 0.438388
384 4 0.117777 0.4205 0.464505
382 2 0.109828 0.439202 0.449938
408 4 0.110057 0.470133 0.419985
568 2 0.136339 0.4835 0.437338
383 4 0.101879 0.457904 0.43537
569 4 0.118895 0.465674 0.435575
1556 4 0.227314 0.492552 0.416217
1543 2 0.191362 0.502993 0.418377
636 4 0.292587 0.486711 0.426412
669 4 0.329524 0.434025 0.434476
1555 2 0.250757 0.491912 0.424889
634 2 0.310958 0.470426 0.431152
635 4 0.329329 0.454141 0.435892
1557 4 0.2742 0.491271 0.433561
774 4 0.332808 0.443051 0.451312
773 4 0.377689 0.434068 0.471452
772 2 0.355248 0.438559 0.461382
663 4 0.489006 0.489003 0.433716
1152 4 0.20293 0.0611241 0.528685
342 4 0.209944 0.0436727 0.53167
340 2 0.19628 0.0325289 0.513942
949 2 0.282497 0.0317603 0.561293
951 4 0.280878 0.0566088 0.563553
1031 4 0.287321 0.074413 0.559904
950 4 0.284115 0.00691176 0.559032
1217 4 0.397566 0.0729923 0.508199
842 4 0.386238 0.0582187 0.518333
841 2 0.362374 0.0605029 0.51123
1216 2 0.421374 0.0653536 0.508048
1218 4 0.445182 0.0577149 0.507896
3007 2 0.496269 0.0621325 0.58479
1270 2 0.06186 0.14245 0.58113
1271 4 0.0773709 0.12409 0.574239
1058 4 0.0831426 0.11919 0.507361
1057 2 0.0839394 0.119109 0.532352
1059 4 0.0847361 0.119029 0.557342
1155 4 0.096412 0.124834 0.572951
939 4 0.0903213 0.108818 0.572509
1153 2 0.117064 0.138102 0.577707
1221 4 0.156095 0.146335 0.58031
1150 2 0.212969 0.0809668 0.540117
1151 4 0.223007 0.100809 0.551548
1180 2 0.220585 0.13513 0.565231
1181 4 0.212293 0.111551 0.564549
1182 4 0.228877 0.158709 0.565912
1032 4 0.24354 0.0979885 0.554595
900 4 0.223731 0.160815 0.54815
1030 2 0.265431 0.0862008 0.557249
1198 2 0.00978076 0.235337 0.556857
1199 4 0.030696 0.235417 0.570558
878 4 0.048873 0.227845 0.576697
877 2 0.0517586 0.203725 0.582621
695 4 0.093578 0.211821 0.52868
694 2 0.089505 0.227222 0.509408
898 2 0.232624 0.180941 0.536275
899 4 0.241516 0.201068 0.524399
650 4 0.254805 0.211816 0.535712
649 2 0.266706 0.227208 0.520007
651 4 0.278607 0.2426 0.504303
576 4 0.420232 0.176126 0.515213
982 2 0.0176676 0.304014 0.570528
1245 4 0.0498497 0.284671 0.578337
983 4 0.0402525 0.301694 0.581002
948 4 0.152061 0.289516 0.574915
856 2 0.208403 0.273063 0.517234
857 4 0.195817 0.289685 0.531035
798 4 0.208275 0.294894 0.566031
947 4 0.196399 0.289917 0.551791
946 2 0.17423 0.289716 0.563353
796 2 0.226477 0.28955 0.582319
858 4 0.220989 0.25644 0.503433
267 4 0.360523 0.271106 0.524195
265 2 0.358859 0.255905 0.504413
2457 4 0.490071 0.276579 0.492027
1010 4 0.480487 0.285653 0.507173
803 4 0.27197 0.365171 0.573574
804 4 0.280957 0.37587 0.525559
802 2 0.276464 0.370521 0.549566
928 2 0.333406 0.392754 0.562601
929 4 0.344581 0.392247 0.540239
881 4 0.358286 0.381238 0.532906
880 2 0.371934 0.360421 0.535255
882 4 0.385583 0.339603 0.537605
926 4 0.424444 0.40393 0.57958
539 4 0.0836744 0.437879 0.553577
540 4 0.0960521 0.478265 0.580344
2244 4 0.101242 0.495074 0.573674
538 2 0.0898632 0.458072 0.566961
1160 4 0.114754 0.485036 0.583204
2154 4 0.23937 0.486171 0.540831
2152 2 0.250971 0.496867 0.560227
1953 4 0.408923 0.488124 0.54717
1951 2 0.38937 0.495026 0.561143
1909 2 0.441604 0.477542 0.571274
1910 4 0.427675 0.487771 0.553203
1911 4 0.455532 0.467313 0.589345
1081 2 0.0795152 0.0713265 0.6406
938 4 0.0769478 0.0693071 0.600091
1083 4 0.0756505 0.0791945 0.617184
1128 4 0.0103866 0.0799635 0.598692
1126 2 0.0328424 0.0826896 0.609345
1082 4 0.0833799 0.0634586 0.664017
825 4 0.176583 0.0437901 0.66543
3008 4 0.485149 0.0445193 0.598621
809 4 0.478032 0.0380365 0.616341
808 2 0.471204 0.0553546 0.633034
810 4 0.464376 0.0726726 0.649726
1272 4 0.0463491 0.16081 0.588021
1127 4 0.0552983 0.0854157 0.619998
937 2 0.0836346 0.0890627 0.5863
1154 4 0.137716 0.15137 0.582464
1219 2 0.173075 0.151645 0.597878
1220 4 0.190056 0.156954 0.615446
1192 2 0.320072 0.137633 0.647792
1194 4 0.300825 0.13582 0.663649
1193 4 0.33932 0.139446 0.631936
45 3 0.464469 0.0956251 0.647844
3424 2 0.498013 0.116093 0.668284
3425 4 0.476565 0.103274 0.667382
41 1 0.454865 0.0893415 0.667514
43 3 0.432796 0.0964786 0.668185
1244 4 0.0490694 0.237639 0.595312
879 4 0.0546442 0.179606 0.588545
1212 4 0.18977 0.174997 0.625845
1210 2 0.212889 0.175711 0.635342
1211 4 0.236008 0.176425 0.644838
888 4 0.244071 0.164559 0.658217
1243 2 0.0494596 0.261155 0.586825
1136 4 0.147676 0.296974 0.593675
1135 2 0.148766 0.32065 0.601637
822 4 0.145015 0.32209 0.648052
820 2 0.149503 0.298466 0.654901
821 4 0.153992 0.274841 0.66175
797 4 0.24468 0.284206 0.598606
791 4 0.264027 0.282988 0.600952
790 2 0.281956 0.300406 0.601544
792 4 0.299885 0.317823 0.602135
872 4 0.332373 0.292944 0.59417
1238 4 0.311554 0.332755 0.608296
871 2 0.356789 0.291153 0.59925
813 4 0.386691 0.309256 0.601367
873 4 0.381206 0.289363 0.60433
811 2 0.393373 0.332768 0.596106
3123 4 0.482015 0.263167 0.646991
953 4 0.50231 0.305921 0.603533
952 2 0.502845 0.28181 0.596936
1041 4 0.0472717 0.380272 0.640112
3264 4 0.0462789 0.366293 0.652418
3240 4 0.0304513 0.378407 0.64994
3238 2 0.00864039 0.390537 0.648411
1039 2 0.0663003 0.381127 0.623914
1064 4 0.159093 0.332113 0.660259
1137 4 0.149857 0.344327 0.6096
1040 4 0.085329 0.381982 0.607717
993 4 0.105001 0.383648 0.604976
991 2 0.127803 0.374576 0.609763
992 4 0.150606 0.365504 0.61455
897 4 0.164554 0.355488 0.607749
1189 2 0.245666 0.368397 0.600428
896 4 0.211487 0.369895 0.617257
895 2 0.18802 0.362692 0.612503
1172 4 0.222907 0.399651 0.614681
1191 4 0.22651 0.380373 0.611143
1190 4 0.264822 0.356421 0.589714
1239 4 0.317432 0.38185 0.600819
1237 2 0.314493 0.357302 0.604557
930 4 0.322231 0.393262 0.584963
806 4 0.256876 0.34726 0.66569
1204 2 0.372052 0.3945 0.628242
1205 4 0.353886 0.405048 0.641803
1206 4 0.390218 0.383953 0.61468
927 4 0.399206 0.369153 0.60516
812 4 0.400056 0.356281 0.590845
925 2 0.411825 0.386541 0.59237
1002 4 0.440022 0.403653 0.591548
1159 2 0.138259 0.48446 0.591712
1161 4 0.161763 0.483885 0.60022
1188 4 0.166841 0.483125 0.61958
1171 2 0.218237 0.423977 0.618087
1186 2 0.188585 0.47242 0.613434
1173 4 0.213567 0.448304 0.621493
1187 4 0.210329 0.461716 0.607288
1140 4 0.249217 0.438396 0.66747
890 4 0.351809 0.497038 0.582032
1001 4 0.459669 0.449498 0.595143
1000 2 0.449845 0.426576 0.593346
1269 4 0.455543 0.461493 0.609443
1267 2 0.454817 0.481844 0.623951
1268 4 0.454092 0.502196 0.638458
943 2 0.0585124 0.0225864 0.685208
944 4 0.065558 0.0465399 0.683878
1076 4 0.0762242 0.0644663 0.682347
1075 2 0.0725313 0.0805203 0.701157
1282 2 0.167917 0.0787063 0.68789
1149 4 0.22499 0.0382741 0.685636
1283 4 0.169172 0.0544888 0.681797
823 2 0.180046 0.0190435 0.666321
1147 2 0.235339 0.0606282 0.681348
1092 4 0.309138 0.0116557 0.680771
42 3 0.455316 0.066403 0.669179
4579 2 0.495691 0.999466 0.725951
1163 4 0.466922 0.0761507 0.684912
1162 2 0.482497 0.0634719 0.699806
1164 4 0.498072 0.0507932 0.714701
2321 4 0.498647 0.041374 0.731635
4581 4 0.504381 0.0222727 0.731384
864 4 0.0666514 0.0917512 0.739613
1077 4 0.0688384 0.0965743 0.719967
851 4 0.0760011 0.113476 0.719871
850 2 0.0645128 0.135323 0.71588
852 4 0.0530245 0.157169 0.711888
862 2 0.0439565 0.0873068 0.74912
1107 4 0.0829452 0.0992992 0.732745
1105 2 0.0995768 0.0977148 0.751347
1284 4 0.166662 0.102924 0.693982
909 4 0.16759 0.120645 0.684038
907 2 0.188386 0.132732 0.690868
908 4 0.209181 0.144819 0.697699
1227 4 0.226042 0.138453 0.694448
1225 2 0.240413 0.118737 0.688978
1148 4 0.245687 0.0829822 0.67706
886 2 0.267015 0.157983 0.665666
887 4 0.28996 0.151408 0.673115
1226 4 0.254785 0.0990209 0.683509
829 2 0.305887 0.129988 0.701012
1005 4 0.328584 0.111492 0.723512
830 4 0.303665 0.144277 0.680614
831 4 0.308109 0.1157 0.72141
1003 2 0.338646 0.0930948 0.737131
44 3 0.466661 0.0983886 0.68533
1113 4 0.452136 0.110792 0.730337
1146 4 0.499679 0.162493 0.737538
1111 2 0.452063 0.0904607 0.744891
1073 4 0.0812279 0.259407 0.750463
1072 2 0.102267 0.251426 0.739561
1130 4 0.138221 0.24635 0.741693
1208 4 0.141215 0.249345 0.722463
978 4 0.323541 0.208924 0.717711
976 2 0.304932 0.213715 0.733709
977 4 0.286324 0.218506 0.749707
1025 4 0.413353 0.174867 0.683818
1024 2 0.431726 0.180444 0.699834
1142 4 0.44178 0.183955 0.732626
1144 2 0.48008 0.177485 0.733501
1262 4 0.456517 0.203516 0.713455
1026 4 0.450098 0.186021 0.71585
1261 2 0.462218 0.226576 0.705652
1145 4 0.460482 0.192477 0.729465
1177 2 0.0215973 0.255243 0.72151
1179 4 0.0464209 0.257846 0.722988
893 4 0.994516 0.333902 0.723134
3263 4 0.0456874 0.325794 0.681748
1074 4 0.123306 0.243446 0.72866
1209 4 0.15914 0.263298 0.677913
1207 2 0.150177 0.256321 0.700188
1019 4 0.383429 0.293949 0.720607
1018 2 0.369111 0.30589 0.703946
1020 4 0.354794 0.31783 0.687284
1263 4 0.46792 0.249637 0.697849
892 2 0.0182923 0.339255 0.728721
3262 2 0.0459831 0.346044 0.667083
1279 2 0.0514843 0.386166 0.737095
894 4 0.0420684 0.344609 0.734308
1280 4 0.0517239 0.361393 0.733721
816 4 0.0600647 0.346794 0.742779
1281 4 0.0512447 0.41094 0.740469
814 2 0.083732 0.33896 0.744696
1063 2 0.178397 0.342452 0.672327
1065 4 0.197702 0.352791 0.684395
807 4 0.20886 0.337895 0.676059
1028 4 0.219323 0.388743 0.69879
1066 2 0.196294 0.375246 0.736872
1068 4 0.210162 0.380486 0.716737
1027 2 0.235317 0.404913 0.688402
805 2 0.232868 0.342578 0.670875
2172 4 0.167277 0.491706 0.674928
2016 4 0.154617 0.495218 0.7295
1176 4 0.168621 0.480279 0.72428
1175 4 0.215941 0.495888 0.720044
1174 2 0.192281 0.488083 0.722162
1029 4 0.251311 0.421082 0.678014
1138 2 0.266987 0.455927 0.668902
1139 4 0.284758 0.473458 0.670334
1987 2 0.272185 0.463201 0.725804
1229 4 0.294428 0.467647 0.687595
1989 4 0.283229 0.471051 0.70479
2028 4 0.282679 0.480137 0.688162
1228 2 0.318451 0.461188 0.685071
1988 4 0.261142 0.455351 0.746818
1230 4 0.342473 0.454729 0.682547
1099 2 0.442241 0.494329 0.679551
1100 4 0.435958 0.486153 0.702329
2989 2 0.0187938 0.0527084 0.78511
2990 4 0.0157595 0.0755172 0.775325
2991 4 0.0218281 0.0298996 0.794894
2049 4 0.109236 0.0209474 0.777078
1202 4 0.123256 0.0341203 0.781879
1201 2 0.126837 0.0578957 0.788741
1203 4 0.130418 0.0816711 0.795603
817 2 0.331382 0.0567833 0.802619
819 4 0.328896 0.0790363 0.813745
1050 4 0.334796 0.00936559 0.768701
1004 4 0.348708 0.0746976 0.75075
973 2 0.360223 0.00613042 0.80034
818 4 0.333869 0.0345302 0.791492
974 4 0.341393 0.0161462 0.787291
2322 4 0.481983 0.0589466 0.775386
845 4 0.462479 0.064758 0.775978
1112 4 0.45199 0.0701299 0.759445
844 2 0.464324 0.0775008 0.797411
2320 2 0.490315 0.0501603 0.75351
863 4 0.0212616 0.0828623 0.758626
833 4 0.0207904 0.0936328 0.776377
832 2 0.0180812 0.107498 0.797006
834 4 0.0153721 0.121364 0.817636
3083 4 0.00579075 0.091091 0.765297
1106 4 0.116208 0.0961304 0.76995
911 4 0.136039 0.100963 0.828831
34 3 0.129181 0.101333 0.784252
31 1 0.14247 0.104321 0.803036
35 3 0.132947 0.119645 0.816934
32 3 0.144369 0.0842293 0.814075
33 3 0.163632 0.111438 0.796718
1256 4 0.225412 0.117833 0.80776
840 4 0.216387 0.1302 0.821013
1255 2 0.245952 0.117506 0.793506