ITEM: TIMESTEP
620000
ITEM: NUMBER OF ATOMS
4590
ITEM: BOX BOUNDS pp pp pp
-9.9985700000000008e+00 9.9985700000000008e+00
-9.9985700000000008e+00 9.9985700000000008e+00
-9.9985700000000008e+00 9.9985700000000008e+00
ITEM: ATOMS id type xs ys zs
591 4 0.00971025 0.0628334 0.073728
463 2 0.0544463 0.0816264 0.0103353
1475 4 0.276888 0.00823366 0.0574966
492 4 0.28386 0.0596624 0.080568
297 4 0.301682 0.0695282 0.0354557
295 2 0.323185 0.0784384 0.0445899
985 2 0.406894 0.035829 0.00672554
1607 4 0.397478 0.999888 0.032054
987 4 0.404 0.0139648 0.0185053
747 4 0.472208 0.0659637 0.0109319
2974 2 0.483532 0.0279759 0.0202141
2976 4 0.486831 0.0077951 0.0346028
2468 4 0.486837 0.00958891 0.0548408
2975 4 0.480234 0.0481567 0.00582545
465 4 0.045865 0.100103 0.0248322
422 4 0.120437 0.126708 0.00505886
566 4 0.177813 0.141956 0.0743795
565 2 0.192222 0.160404 0.0831685
358 2 0.313599 0.145942 0.0631448
360 4 0.333511 0.148422 0.0482265
296 4 0.344687 0.0873486 0.0537241
557 4 0.360283 0.0879748 0.0404835
556 2 0.379514 0.102411 0.0473346
558 4 0.398745 0.116846 0.0541858
745 2 0.457833 0.0863629 0.0124803
746 4 0.443457 0.106762 0.0140287
554 4 0.0847478 0.222718 0.0325118
553 2 0.075399 0.245838 0.0307038
666 4 0.312157 0.204162 0.0246492
665 4 0.351924 0.188266 0.0504683
664 2 0.33204 0.196214 0.0375587
769 2 0.419491 0.177739 0.053385
770 4 0.400037 0.178568 0.0376993
323 4 0.407116 0.234209 0.0642457
771 4 0.438945 0.17691 0.0690707
324 4 0.454974 0.237021 0.0500185
322 2 0.431045 0.235615 0.0571321
555 4 0.0660502 0.268957 0.0288957
292 2 0.140378 0.297976 0.0137707
293 4 0.151781 0.284949 0.0318114
507 4 0.152537 0.30052 0.0442726
505 2 0.173425 0.299589 0.0579833
483 4 0.211192 0.289366 0.0661057
506 4 0.194314 0.298659 0.0716939
481 2 0.232193 0.277944 0.0587779
482 4 0.253193 0.266522 0.05145
573 4 0.27013 0.253982 0.0567751
572 4 0.300283 0.267717 0.0193201
571 2 0.285206 0.26085 0.0380476
357 4 0.294416 0.276716 0.00181416
1069 2 0.390607 0.280939 0.00655866
1070 4 0.407753 0.29263 0.0205061
957 4 0.334239 0.332162 0.00974192
671 4 0.438311 0.317086 0.0653662
280 2 0.437052 0.31668 0.035169
281 4 0.450877 0.32763 0.0528922
282 4 0.423226 0.305729 0.0174458
550 2 0.0709381 0.416275 0.065193
330 4 0.012831 0.39948 0.0152797
288 4 0.157413 0.349783 0.0379937
552 4 0.0939861 0.407778 0.0605266
455 4 0.11065 0.397631 0.0643753
286 2 0.172206 0.347322 0.0179869
287 4 0.187 0.344861 0.99798
250 2 0.308658 0.403125 0.0258473
251 4 0.316795 0.384007 0.0119385
609 4 0.293089 0.417132 0.0584009
607 2 0.306214 0.414856 0.0795601
741 4 0.335146 0.351416 0.0416792
739 2 0.347136 0.3559 0.0631576
551 4 0.0478901 0.424771 0.0698594
328 2 0.0104522 0.424368 0.0149553
329 4 0.00807338 0.449256 0.0146308
245 4 0.212592 0.451459 0.0366276
626 4 0.217116 0.454064 0.0559347
244 2 0.229543 0.442623 0.0205102
625 2 0.207251 0.455183 0.0788827
246 4 0.246493 0.433786 0.00439273
252 4 0.300522 0.422244 0.0397561
272 4 0.255457 0.450631 0.00197248
563 4 0.461787 0.478046 0.0741751
562 2 0.447731 0.49648 0.0648057
1668 4 0.0667748 0.0263094 0.0893137
1666 2 0.0771094 0.0486127 0.0938897
19 3 0.0510842 0.0631178 0.148151
1667 4 0.0874441 0.0709159 0.0984656
448 2 0.166897 0.0710634 0.140592
450 4 0.17159 0.0470918 0.145933
490 2 0.300115 0.0729252 0.0941715
652 2 0.301732 0.0144256 0.155098
653 4 0.322881 0.0261537 0.161448
2722 2 0.488937 0.0564797 0.140949
2723 4 0.485409 0.0812164 0.140038
2724 4 0.492465 0.0317431 0.14186
380 4 0.027514 0.144943 0.150545
449 4 0.162204 0.0950349 0.135251
701 4 0.0890435 0.0913946 0.0972028
700 2 0.105569 0.103079 0.111885
702 4 0.122094 0.114763 0.126568
476 4 0.119557 0.133881 0.135066
475 2 0.119156 0.140999 0.159031
237 4 0.173368 0.153452 0.148533
235 2 0.175946 0.128784 0.145361
236 4 0.178525 0.104117 0.14219
491 4 0.31637 0.086188 0.107775
359 4 0.293688 0.143461 0.0780631
581 4 0.285478 0.117407 0.150244
628 2 0.412261 0.1343 0.130887
630 4 0.402172 0.156772 0.126595
254 4 0.38712 0.157026 0.114029
310 2 0.418806 0.0840738 0.152863
629 4 0.422349 0.111828 0.13518
312 4 0.423947 0.0919957 0.129712
337 2 0.0748232 0.235649 0.147689
339 4 0.0612118 0.238994 0.126983
567 4 0.20663 0.178852 0.0919576
737 4 0.199515 0.193 0.145759
736 2 0.205159 0.207163 0.125942
738 4 0.210802 0.221327 0.106125
277 2 0.243054 0.230823 0.163185
461 4 0.30801 0.225637 0.0916881
460 2 0.324828 0.208266 0.0980583
354 4 0.291106 0.235223 0.0921779
352 2 0.281035 0.239891 0.114582
284 4 0.278152 0.233036 0.150559
353 4 0.270963 0.244558 0.136987
278 4 0.260541 0.243226 0.150318
255 4 0.361073 0.198037 0.102181
462 4 0.341646 0.190895 0.104428
253 2 0.374097 0.177532 0.108105
765 4 0.376973 0.231231 0.151594
624 4 0.391198 0.239157 0.140076
518 4 0.499824 0.235053 0.111355
536 4 0.202171 0.313978 0.113268
535 2 0.197821 0.330368 0.131643
754 2 0.266123 0.280942 0.156361
755 4 0.258947 0.260806 0.143392
622 2 0.388443 0.25591 0.12172
623 4 0.385688 0.272663 0.103364
670 2 0.431082 0.316385 0.0892918
672 4 0.423853 0.315685 0.113217
528 4 0.469169 0.249668 0.131403
526 2 0.474313 0.262073 0.152495
621 4 0.00611156 0.374132 0.133351
619 2 0.00485448 0.361022 0.112098
620 4 0.00359739 0.347911 0.0908441
454 2 0.128628 0.395037 0.0815579
456 4 0.146606 0.392443 0.0987406
537 4 0.193472 0.346757 0.150018
302 4 0.31032 0.373714 0.148988
387 4 0.326206 0.36569 0.139392
608 4 0.31934 0.41258 0.100719
385 2 0.343791 0.36332 0.121776
740 4 0.359126 0.360384 0.0846359
15 3 0.379478 0.364394 0.113115
386 4 0.361377 0.36095 0.10416
11 1 0.399684 0.365588 0.123552
13 3 0.397066 0.361931 0.146315
14 3 0.409251 0.386413 0.119923
495 4 0.417757 0.405452 0.118193
12 3 0.413609 0.349411 0.114975
596 4 0.487799 0.408292 0.164802
493 2 0.432096 0.415964 0.135774
637 2 0.243857 0.497721 0.133983
627 4 0.197386 0.456302 0.101831
638 4 0.250515 0.47615 0.144731
525 4 0.339527 0.484871 0.115087
658 2 0.370473 0.448192 0.119536
659 4 0.376642 0.449389 0.0953345
660 4 0.364305 0.446995 0.143737
228 4 0.480475 0.483839 0.0811877
227 4 0.49968 0.445263 0.106561
226 2 0.490078 0.464551 0.0938743
494 4 0.446435 0.426475 0.153355
20 3 0.0654434 0.0688898 0.182475
16 1 0.0550607 0.0537464 0.169002
17 3 0.0349468 0.0477607 0.178423
2480 4 0.0146865 0.0463373 0.17543
18 3 0.0682421 0.0347803 0.166779
1422 4 0.0105696 0.0279628 0.183524
1420 2 0.0174169 0.00500052 0.190667
578 4 0.053656 0.0794015 0.225871
673 2 0.109854 0.0380419 0.238407
674 4 0.122432 0.0364611 0.216855
689 4 0.17285 0.0382481 0.228731
688 2 0.17215 0.0207967 0.246624
692 4 0.215499 0.0776545 0.235707
24 3 0.324622 0.0436595 0.23542
21 1 0.346776 0.0368736 0.23417
25 3 0.351642 0.0300917 0.212981
759 4 0.363041 0.0505057 0.217754
22 3 0.360314 0.0546166 0.239744
757 2 0.380749 0.0609531 0.203525
758 4 0.398457 0.0714005 0.189297
311 4 0.413664 0.0761518 0.176014
23 3 0.350604 0.0195354 0.249108
742 2 0.470243 0.0588064 0.215739
744 4 0.488945 0.0446984 0.224479
743 4 0.451541 0.0729144 0.206998
577 2 0.0759206 0.0907386 0.224902
379 2 0.020643 0.14769 0.174429
381 4 0.0137719 0.150437 0.198312
511 2 0.0366274 0.160324 0.228171
512 4 0.0163459 0.150363 0.217465
477 4 0.118755 0.148117 0.182997
579 4 0.0981851 0.102076 0.223933
691 2 0.228464 0.0855447 0.215836
693 4 0.241428 0.0934349 0.195966
582 4 0.291033 0.0850348 0.187952
580 2 0.288255 0.101221 0.169098
28 3 0.292908 0.136197 0.241198
27 3 0.315714 0.164184 0.230745
632 4 0.355506 0.104561 0.240639
331 2 0.453524 0.151533 0.245873
333 4 0.450258 0.127588 0.239459
513 4 0.056909 0.170285 0.238877
396 4 0.999901 0.242525 0.246083
393 4 0.0549686 0.185324 0.25201
338 4 0.0884347 0.232305 0.168394
363 4 0.0831974 0.241044 0.185566
279 4 0.225567 0.21842 0.176052
283 2 0.297395 0.227743 0.165621
285 4 0.316638 0.22245 0.180683
763 2 0.356124 0.230142 0.165353
764 4 0.335275 0.229053 0.179112
520 2 0.47691 0.202943 0.230558
521 4 0.4572 0.189145 0.237363
394 2 0.00518472 0.25792 0.227103
395 4 0.0104685 0.273316 0.208123
361 2 0.0954461 0.252902 0.203857
371 4 0.163507 0.279708 0.220658
370 2 0.141791 0.271316 0.229778
372 4 0.120075 0.262924 0.238898
748 2 0.0961595 0.307522 0.222644
362 4 0.107695 0.26476 0.222147
749 4 0.0991234 0.282927 0.21925
648 4 0.0836149 0.332645 0.187789
343 2 0.233789 0.307834 0.245228
345 4 0.214564 0.32205 0.237914
756 4 0.2733 0.301078 0.169331
344 4 0.253013 0.293618 0.252541
612 4 0.262829 0.314284 0.181608
307 2 0.326392 0.288895 0.239815
308 4 0.310465 0.275167 0.226286
527 4 0.479456 0.274478 0.173586
647 4 0.065941 0.376966 0.172821
646 2 0.074778 0.354805 0.180305
750 4 0.0931956 0.332116 0.226038
417 4 0.163079 0.389825 0.179947
415 2 0.186254 0.398611 0.183248
291 4 0.22336 0.391943 0.185559
416 4 0.209429 0.407397 0.18655
289 2 0.241717 0.406937 0.193521
610 2 0.281277 0.331026 0.179479
611 4 0.299726 0.347768 0.17735
303 4 0.318587 0.394475 0.193724
301 2 0.314454 0.384094 0.171356
729 4 0.317527 0.401287 0.213432
727 2 0.306428 0.39172 0.233693
595 2 0.468155 0.395821 0.173953
597 4 0.44851 0.383349 0.183103
643 2 0.428352 0.379936 0.212353
644 4 0.423429 0.366404 0.232794
645 4 0.433274 0.393467 0.191912
447 4 0.418528 0.359499 0.250423
264 4 0.00709646 0.43758 0.206393
262 2 0.0144266 0.425043 0.226746
767 4 0.252955 0.480211 0.164723
290 4 0.260074 0.421931 0.201483
768 4 0.256013 0.439419 0.193488
766 2 0.254484 0.459815 0.179106
229 2 0.424132 0.491123 0.246053
1568 4 0.479832 0.488503 0.171035
234 4 0.00317665 0.0498446 0.312352
232 2 0.0160154 0.0464837 0.291161
233 4 0.0288542 0.0431228 0.26997
1402 2 0.0700521 0.0298783 0.274451
1404 4 0.0461093 0.0362768 0.277764
690 4 0.17145 0.00334524 0.264516
675 4 0.0972755 0.0396227 0.259958
1403 4 0.0939949 0.0234798 0.271137
1464 4 0.106892 0.00664668 0.274956
723 4 0.210811 0.0816205 0.254294
721 2 0.21014 0.0803853 0.279258
722 4 0.209469 0.0791501 0.304222
1700 4 0.269373 0.0373769 0.313605
699 4 0.356246 0.0659675 0.322544
478 2 0.475647 0.0477895 0.29528
480 4 0.451199 0.0477096 0.29004
351 4 0.433943 0.0560351 0.287347
479 4 0.500096 0.0478694 0.300519
349 2 0.432404 0.0770897 0.273949
531 4 0.00376883 0.145431 0.272671
732 4 0.0827686 0.101535 0.32841
399 4 0.0654448 0.106978 0.334668
392 4 0.0960519 0.168933 0.275338
249 4 0.220452 0.0915932 0.315814
403 2 0.232004 0.127809 0.294792
404 4 0.232577 0.105918 0.30686
405 4 0.23143 0.1497 0.282723
26 1 0.303545 0.155571 0.248263
29 3 0.317987 0.150744 0.265771
633 4 0.347385 0.13191 0.281709
631 2 0.351446 0.118236 0.261174
706 2 0.335523 0.157556 0.314383
707 4 0.335971 0.144584 0.293012
350 4 0.430864 0.0981443 0.260551
391 2 0.0755102 0.177128 0.263674
442 2 0.00765763 0.246963 0.280611
443 4 0.0158805 0.247274 0.257
444 4 0.999435 0.246653 0.304221
546 4 0.13324 0.182418 0.26873
544 2 0.157619 0.178628 0.272792
545 4 0.181997 0.174839 0.276854
30 3 0.288103 0.170923 0.254934
717 4 0.375269 0.210596 0.330352
332 4 0.456791 0.175479 0.252287
762 4 0.472721 0.172734 0.264849
761 4 0.481628 0.20058 0.305419
760 2 0.477174 0.186657 0.285134
390 4 0.0909239 0.266318 0.299569
388 2 0.0882761 0.269455 0.324233
400 2 0.19168 0.272525 0.293762
402 4 0.194392 0.291815 0.278086
401 4 0.188969 0.253236 0.309438
676 2 0.182306 0.331651 0.331294
496 2 0.316687 0.315797 0.28767
497 4 0.302473 0.317472 0.308172
498 4 0.3309 0.314122 0.267168
377 4 0.289914 0.326261 0.31947
376 2 0.281491 0.304039 0.327242
309 4 0.342319 0.302624 0.253344
615 4 0.380266 0.327731 0.325669
541 2 0.387426 0.285445 0.334208
542 4 0.397182 0.262435 0.333481
420 4 0.413869 0.257045 0.323461
263 4 0.0217567 0.412506 0.2471
364 2 0.0180802 0.359579 0.293332
365 4 0.0353998 0.375378 0.284637
601 2 0.0662877 0.387314 0.296866
603 4 0.0510105 0.386649 0.277084
549 4 0.0754388 0.404535 0.323855
300 4 0.105108 0.356139 0.268147
298 2 0.127539 0.366426 0.264122
299 4 0.14997 0.376712 0.260097
602 4 0.0815649 0.387978 0.316649
734 4 0.168556 0.369625 0.25886
733 2 0.180992 0.356654 0.276246
677 4 0.179577 0.34066 0.30813
735 4 0.193427 0.343682 0.293632
510 4 0.22432 0.349615 0.334313
433 2 0.315571 0.374913 0.32945
728 4 0.29533 0.382154 0.253953
613 2 0.362988 0.34316 0.316258
434 4 0.335206 0.36083 0.323024
614 4 0.345709 0.35859 0.306847
445 2 0.425998 0.370089 0.271806
446 4 0.433467 0.380679 0.293189
777 4 0.0886213 0.465913 0.295439
775 2 0.0846738 0.479464 0.316078
414 4 0.21761 0.486059 0.330301
412 2 0.204719 0.481164 0.309443
413 4 0.191828 0.476269 0.288585
1803 4 0.319627 0.501611 0.260842
436 2 0.333153 0.456512 0.312587
437 4 0.338899 0.45139 0.288798
231 4 0.420316 0.468244 0.255388
118 3 0.494858 0.417021 0.327088
116 1 0.499582 0.439061 0.332594
119 3 0.485285 0.45332 0.321164
713 4 0.418613 0.455789 0.327896
712 2 0.442216 0.449163 0.322979
714 4 0.465819 0.442538 0.318061
427 2 0.077869 0.0108314 0.335852
316 2 0.0652717 0.066231 0.346247
317 4 0.0583072 0.0429122 0.351983
428 4 0.0622789 0.0224256 0.35159
1781 4 0.116713 0.0142703 0.413142
368 4 0.103101 0.0289175 0.413667
1701 4 0.234943 0.0293397 0.34897
1699 2 0.252158 0.0333583 0.331287
683 4 0.317747 0.0723544 0.367038
698 4 0.392273 0.0571235 0.356078
257 4 0.40844 0.0596362 0.346534
697 2 0.374259 0.0615455 0.339311
426 4 0.352258 0.0235151 0.417857
2642 4 0.491831 0.0725692 0.402841
256 2 0.4241 0.0405624 0.35055
258 4 0.439761 0.0214887 0.354566
2586 4 0.016595 0.124057 0.384228
318 4 0.0722361 0.0895498 0.34051
398 4 0.0462934 0.147286 0.357233
397 2 0.0558691 0.127132 0.345951
457 2 0.0259234 0.151207 0.41356
458 4 0.0119892 0.135057 0.400513
606 4 0.129882 0.101881 0.363866
731 4 0.130096 0.104731 0.34424
730 2 0.106432 0.103133 0.336325
604 2 0.154321 0.0966068 0.364131
599 4 0.132968 0.164252 0.396637
598 2 0.142075 0.156494 0.374681
600 4 0.151183 0.148737 0.352725
247 2 0.209347 0.0894453 0.338113
605 4 0.178761 0.0913331 0.364397
248 4 0.198242 0.0872974 0.360411
682 2 0.309026 0.0864884 0.385729
684 4 0.300306 0.100622 0.40442
708 4 0.335074 0.170527 0.335754
452 4 0.480476 0.121858 0.402698
451 2 0.463549 0.14006 0.39999
453 4 0.446621 0.158262 0.397281
474 4 0.20648 0.213981 0.376068
276 4 0.188359 0.224097 0.375216
472 2 0.230197 0.210138 0.382988
473 4 0.253915 0.206295 0.389908
715 2 0.378379 0.218835 0.353753
716 4 0.38149 0.227074 0.377155
467 4 0.389273 0.22238 0.396171
269 4 0.486902 0.239041 0.394522
418 2 0.430982 0.246786 0.338529
419 4 0.448096 0.236527 0.353598
268 2 0.469549 0.22789 0.408655
347 4 0.0537601 0.298417 0.387653
346 2 0.0460645 0.298846 0.411439
618 4 0.0527863 0.306414 0.368912
616 2 0.0731486 0.317006 0.358994
389 4 0.0856284 0.272591 0.348898
617 4 0.093511 0.327598 0.349076
274 2 0.190031 0.248315 0.381205
275 4 0.191704 0.272533 0.387194
678 4 0.185036 0.322642 0.354458
378 4 0.273068 0.281817 0.335014
488 4 0.293048 0.26389 0.414398
543 4 0.37767 0.308456 0.334936
375 4 0.200262 0.330297 0.36333
374 4 0.186067 0.351945 0.406115
373 2 0.193164 0.341121 0.384723
508 2 0.242503 0.355584 0.350405
509 4 0.260685 0.361553 0.366497
435 4 0.295936 0.388997 0.335876
559 2 0.492798 0.401658 0.40625
561 4 0.475495 0.400735 0.388224
752 4 0.463776 0.415616 0.394059
776 4 0.0807264 0.493015 0.336718
547 2 0.0755453 0.418975 0.344267
548 4 0.0756518 0.433416 0.364678
407 4 0.0739767 0.449602 0.378724
406 2 0.0836134 0.445356 0.401401
501 4 0.110469 0.501104 0.388603
570 4 0.168395 0.480175 0.400887
1436 4 0.256126 0.49704 0.336762
3 3 0.324515 0.466841 0.35537
5 3 0.294056 0.480385 0.372877
1 1 0.315582 0.484862 0.366941
4 3 0.328277 0.489198 0.385874
438 4 0.327407 0.461634 0.336376
594 4 0.414556 0.468048 0.373981
592 2 0.400072 0.48829 0.371604
1742 4 0.426592 0.497976 0.336893
117 3 0.496427 0.441918 0.3552
751 2 0.457617 0.422424 0.370801
753 4 0.451458 0.429231 0.347544
718 2 0.0705474 0.0358633 0.488522
720 4 0.0487768 0.02549 0.495126
719 4 0.0923181 0.0462366 0.481918
369 4 0.0812254 0.0319276 0.458535
367 2 0.092163 0.0304226 0.436101
441 4 0.310821 0.0257379 0.426873
962 4 0.30944 0.0419095 0.440103
961 2 0.30173 0.0490323 0.462796
963 4 0.294019 0.0561551 0.48549
424 2 0.368696 0.0235093 0.436697
425 4 0.385135 0.0235035 0.455537
725 4 0.404199 0.0763009 0.462152
724 2 0.379951 0.0822781 0.460933
2879 4 0.477361 0.0720676 0.418494
686 4 0.161344 0.151359 0.444669
320 4 0.2975 0.0950538 0.42371
1181 4 0.256995 0.105326 0.494499
321 4 0.257478 0.12346 0.433304
319 2 0.277489 0.109257 0.428507
1182 4 0.266672 0.154043 0.488688
1180 2 0.261833 0.129684 0.491593
726 4 0.355703 0.0882553 0.459714
2878 2 0.482073 0.0896671 0.435618
2880 4 0.486785 0.107267 0.452742
640 2 0.48756 0.121315 0.481627
515 4 0.447386 0.159143 0.416598
514 2 0.431554 0.163619 0.435426
260 4 0.0544963 0.176748 0.435723
459 4 0.0398576 0.167356 0.426606
471 4 0.0242188 0.191852 0.494285
259 2 0.0792379 0.18024 0.434808
695 4 0.0754452 0.238643 0.465533
685 2 0.142385 0.166976 0.439993
687 4 0.123426 0.182593 0.435318
261 4 0.103979 0.183733 0.433894
1035 4 0.113369 0.189305 0.450154
1033 2 0.116581 0.202956 0.470854
1034 4 0.119793 0.216608 0.491555
857 4 0.214569 0.246339 0.486624
489 4 0.311229 0.23467 0.45068
411 4 0.313172 0.213882 0.454107
466 2 0.385252 0.217845 0.420429
409 2 0.338053 0.211625 0.453103
574 2 0.386465 0.17437 0.486585
410 4 0.362934 0.209368 0.452098
468 4 0.381232 0.21331 0.444687
575 4 0.399654 0.174733 0.465346
516 4 0.415723 0.168095 0.454255
305 4 0.481713 0.20055 0.43666
270 4 0.452197 0.216739 0.422787
304 2 0.495316 0.181549 0.427768
348 4 0.0383689 0.299275 0.435225
694 2 0.0894702 0.256968 0.47516
696 4 0.103495 0.275293 0.484787
9 3 0.152721 0.311822 0.476395
1258 2 0.137159 0.282969 0.487082
1259 4 0.157283 0.29278 0.475948
651 4 0.246117 0.292991 0.476835
487 2 0.302138 0.24928 0.432539
649 2 0.266588 0.280863 0.484518
650 4 0.287059 0.268736 0.492201
266 4 0.373214 0.301973 0.466716
267 4 0.385546 0.253527 0.465454
265 2 0.37938 0.27775 0.466085
583 2 0.475644 0.289437 0.480502
585 4 0.457074 0.29684 0.465485
584 4 0.494215 0.282033 0.495519
2846 4 0.00660356 0.363342 0.49143
326 4 0.0824712 0.345111 0.453455
6 1 0.158602 0.334121 0.478961
327 4 0.128355 0.360329 0.466252
325 2 0.105413 0.35272 0.459854
7 3 0.14496 0.34699 0.465642
10 3 0.180279 0.33721 0.472698
711 4 0.166883 0.37909 0.435722
502 2 0.248935 0.393853 0.430415
504 4 0.228034 0.405833 0.423722
709 2 0.187652 0.391355 0.429132
710 4 0.20842 0.40362 0.422543
503 4 0.269837 0.381874 0.437109
336 4 0.327416 0.385046 0.429977
669 4 0.289726 0.409807 0.459798
668 4 0.314438 0.371612 0.439033
667 2 0.302082 0.39071 0.449415
334 2 0.351507 0.37854 0.428415
335 4 0.375599 0.372034 0.426853
238 2 0.40317 0.380755 0.450624
240 4 0.386498 0.364244 0.441988
239 4 0.419843 0.397267 0.45926
680 4 0.0106172 0.445717 0.442332
1383 4 0.0147037 0.463041 0.451026
679 2 0.00296763 0.422636 0.436509
1381 2 0.0173158 0.487369 0.456174
384 4 0.134247 0.427422 0.459769
408 4 0.09325 0.441109 0.424079
382 2 0.111206 0.429966 0.450399
383 4 0.088165 0.432511 0.441028
569 4 0.15979 0.48002 0.450148
568 2 0.164092 0.480097 0.425517
1557 4 0.265202 0.498903 0.424738
634 2 0.265151 0.463035 0.445924
774 4 0.276963 0.423814 0.461433
636 4 0.263622 0.48746 0.440799
635 4 0.266681 0.43861 0.45105
772 2 0.274214 0.426147 0.486175
586 2 0.388208 0.445062 0.442989
587 4 0.392343 0.427534 0.425644
880 2 0.350628 0.440016 0.482733
882 4 0.355325 0.430838 0.459954
588 4 0.384073 0.46259 0.460333
663 4 0.456846 0.450424 0.472383
661 2 0.460741 0.474977 0.469713
2237 4 0.0508016 0.0089171 0.505465
1058 4 0.146466 0.074085 0.575893
1031 4 0.237198 0.0606821 0.571772
340 2 0.215185 0.067301 0.502121
341 4 0.220797 0.0432862 0.498002
2430 4 0.221303 0.0242451 0.502979
430 2 0.315605 0.0601265 0.520476
432 4 0.298871 0.0496408 0.50514
431 4 0.33234 0.0706122 0.535812
841 2 0.372746 0.0609168 0.523561
842 4 0.397491 0.0580295 0.521431
843 4 0.348001 0.0638041 0.525692
1217 4 0.400041 0.039028 0.519024
1216 2 0.413864 0.0223808 0.531553
1218 4 0.427686 0.00573359 0.544082
3007 2 0.494755 0.0580463 0.57788
1128 4 0.00286361 0.0853351 0.575658
937 2 0.0933358 0.161604 0.570955
1059 4 0.12853 0.120705 0.578252
1057 2 0.137498 0.0973951 0.577073
1151 4 0.151021 0.116865 0.513753
342 4 0.209572 0.0913159 0.50624
1030 2 0.226652 0.0832937 0.570142
1152 4 0.200189 0.108958 0.509203
1150 2 0.175605 0.112911 0.511478
1032 4 0.216105 0.105905 0.568512
3159 4 0.485954 0.158658 0.530642
641 4 0.473419 0.124551 0.501992
938 4 0.0719432 0.168542 0.560029
877 2 0.0487115 0.207867 0.577592
879 4 0.07326 0.204143 0.574646
470 4 0.0329443 0.176065 0.540926
469 2 0.0285816 0.183959 0.517606
878 4 0.024163 0.211591 0.580539
1272 4 0.0903357 0.213255 0.578241
1270 2 0.110164 0.227571 0.583444
858 4 0.216023 0.237466 0.535816
856 2 0.215296 0.241903 0.51122
898 2 0.312099 0.187464 0.562475
900 4 0.306993 0.199259 0.541028
576 4 0.373277 0.174007 0.507825
3157 2 0.497732 0.178358 0.54056
983 4 0.0266677 0.31462 0.531713
1245 4 0.0621743 0.286234 0.572721
1260 4 0.117036 0.273157 0.498215
872 4 0.358782 0.277618 0.51481
871 2 0.365884 0.300534 0.521851
873 4 0.372985 0.323451 0.528893
953 4 0.444794 0.275543 0.574521
982 2 0.0230439 0.334425 0.546539
984 4 0.01942 0.354231 0.561364
3354 4 0.0154403 0.369642 0.575858
3352 2 0.00394773 0.386766 0.561719
8 3 0.155752 0.340571 0.501067
1189 2 0.221991 0.380805 0.565714
1191 4 0.206153 0.399653 0.570081
1190 4 0.23783 0.361957 0.561347
803 4 0.246859 0.3488 0.549833
1172 4 0.221784 0.413133 0.575339
896 4 0.19349 0.393113 0.585041
802 2 0.264155 0.351526 0.531984
930 4 0.335442 0.356543 0.578047
804 4 0.281451 0.354252 0.514135
773 4 0.271465 0.42848 0.510917
813 4 0.364672 0.341658 0.533018
928 2 0.343896 0.375966 0.564762
811 2 0.370542 0.359152 0.516145
929 4 0.352349 0.395389 0.551478
927 4 0.414449 0.396819 0.521963
812 4 0.376412 0.376646 0.499273
926 4 0.442726 0.359125 0.538705
925 2 0.428588 0.377972 0.530334
3309 4 0.483434 0.384005 0.527569
3307 2 0.497977 0.375037 0.509314
539 4 0.0637593 0.479481 0.523761
2244 4 0.116559 0.493932 0.518615
538 2 0.0885071 0.478962 0.52729
1159 2 0.145111 0.473418 0.570211
540 4 0.113255 0.478443 0.530819
1160 4 0.122034 0.464469 0.566666
1188 4 0.177777 0.4988 0.577242
1161 4 0.168188 0.482366 0.573756
1002 4 0.409433 0.428961 0.56162
881 4 0.345932 0.449194 0.505512
1911 4 0.463552 0.495893 0.542583
1000 2 0.433441 0.435894 0.56076
1001 4 0.457449 0.442826 0.559899
1126 2 0.0227771 0.0754714 0.587119
1127 4 0.0426906 0.0656077 0.598579
1083 4 0.0489427 0.0753219 0.615959
1081 2 0.0577821 0.0842249 0.637587
825 4 0.127122 0.0260681 0.643252
823 2 0.137953 0.00913781 0.628378
951 4 0.252415 0.0398925 0.584299
949 2 0.273925 0.0387212 0.596994
950 4 0.295434 0.0375499 0.609688
2283 4 0.401189 0.0277793 0.632259
3008 4 0.47477 0.0608195 0.592648
809 4 0.45925 0.0675163 0.603285
808 2 0.456702 0.0762087 0.62659
2281 2 0.419551 0.0113293 0.628089
1082 4 0.0666215 0.0931279 0.659215
939 4 0.114728 0.154665 0.581882
1155 4 0.121638 0.137028 0.588042
1153 2 0.141843 0.150627 0.5937
1283 4 0.16443 0.117257 0.629877
1282 2 0.159345 0.108452 0.65272
1154 4 0.162047 0.164226 0.599357
909 4 0.16008 0.165315 0.662519
810 4 0.454154 0.0849012 0.649895
45 3 0.45975 0.105443 0.656429
1199 4 0.00933379 0.206644 0.59425
1271 4 0.129993 0.241886 0.588647
1221 4 0.175757 0.175935 0.606112
1212 4 0.240396 0.197598 0.618278
1219 2 0.199549 0.182251 0.610498
1220 4 0.22334 0.188568 0.614884
899 4 0.317205 0.175669 0.583923
1210 2 0.247706 0.191596 0.641423
1194 4 0.321514 0.189226 0.656993
1211 4 0.255016 0.185593 0.664568
888 4 0.268198 0.170391 0.664732
1193 4 0.368317 0.206493 0.653523
1192 2 0.344916 0.197859 0.655258
1244 4 0.0550585 0.259059 0.614092
1243 2 0.0586164 0.272647 0.593406
1136 4 0.12391 0.314683 0.60718
948 4 0.145782 0.294365 0.603389
796 2 0.219406 0.259686 0.594827
946 2 0.169234 0.286111 0.600738
798 4 0.195007 0.261246 0.589591
947 4 0.192686 0.277857 0.598086
797 4 0.243806 0.258126 0.600062
791 4 0.257762 0.257311 0.615261
792 4 0.28366 0.299951 0.61182
790 2 0.270711 0.278631 0.61354
1238 4 0.301662 0.307253 0.612776
1237 2 0.315051 0.323087 0.598805
807 4 0.330585 0.294069 0.652577
805 2 0.347101 0.312477 0.648895
954 4 0.402895 0.293386 0.59518
806 4 0.363618 0.330884 0.645214
904 2 0.473802 0.266578 0.594516
906 4 0.448905 0.26878 0.593825
952 2 0.423845 0.284465 0.58485
1039 2 0.0654521 0.403935 0.623378
1041 4 0.0451314 0.390372 0.618059
3264 4 0.024701 0.390054 0.62242
3262 2 0.0127493 0.368129 0.621149
3240 4 0.00944859 0.400872 0.614102
1040 4 0.0857729 0.417498 0.628697
993 4 0.103999 0.411193 0.625886
1137 4 0.137992 0.362511 0.603311
897 4 0.14781 0.374101 0.592293
1135 2 0.130951 0.338597 0.605245
991 2 0.121427 0.396989 0.614946
992 4 0.138856 0.382785 0.604006
895 2 0.17065 0.383607 0.588667
1239 4 0.32844 0.338922 0.584834
1204 2 0.395166 0.385099 0.648525
1206 4 0.404455 0.370673 0.630338
1205 4 0.385877 0.399525 0.666713
2172 4 0.122111 0.499653 0.655927
1171 2 0.223249 0.435687 0.586033
1173 4 0.224714 0.458241 0.596727
1187 4 0.219151 0.476982 0.594928
1186 2 0.198464 0.487891 0.586085
889 2 0.300887 0.469354 0.623747
891 4 0.280629 0.472202 0.638124
890 4 0.321145 0.466507 0.609371
1952 4 0.323865 0.483599 0.602009
1951 2 0.333375 0.497827 0.58378
1230 4 0.381407 0.472314 0.658104
1269 4 0.448539 0.481281 0.622733
1267 2 0.454218 0.495253 0.642675
943 2 0.0487057 0.0546727 0.696654
945 4 0.0464274 0.0318376 0.706581
944 4 0.050984 0.0775077 0.686727
1203 4 0.126578 0.0786214 0.746772
1201 2 0.117125 0.0563635 0.753128
1147 2 0.22942 0.0547776 0.722006
1149 4 0.240523 0.0324544 0.720115
1148 4 0.218317 0.0771009 0.723898
1004 4 0.386428 0.0454977 0.684002
1003 2 0.386689 0.069885 0.689513
42 3 0.448151 0.0711513 0.665508
1163 4 0.46384 0.0698322 0.681374
1162 2 0.475549 0.0492525 0.689408
2320 2 0.479676 0.026864 0.73771
2321 4 0.490652 0.0202174 0.71625
1164 4 0.487258 0.0286729 0.697443
1076 4 0.0622051 0.0918961 0.67874
862 2 0.0256979 0.12508 0.739219
864 4 0.0470957 0.128031 0.726625
1075 2 0.0556132 0.111109 0.693321
1077 4 0.0490214 0.130321 0.707901
1107 4 0.0626375 0.138003 0.719595
851 4 0.0548724 0.149285 0.706009
1105 2 0.0766249 0.1465 0.738498
1284 4 0.154261 0.0996471 0.675563
908 4 0.186175 0.148482 0.701716
907 2 0.173127 0.156898 0.682117
1227 4 0.197274 0.142436 0.71778
1225 2 0.20439 0.119026 0.722931
1226 4 0.211505 0.0956161 0.728082
829 2 0.333196 0.160889 0.707673
830 4 0.327633 0.165095 0.683662
1005 4 0.38695 0.0942723 0.695023
831 4 0.33876 0.156683 0.731684
43 3 0.432907 0.101032 0.68246
41 1 0.452449 0.0922815 0.67352
44 3 0.468757 0.0908939 0.689968
3425 4 0.475141 0.103742 0.670442
3424 2 0.496815 0.115548 0.666439
852 4 0.0585912 0.188947 0.67578
850 2 0.0567318 0.169116 0.690895
1177 2 0.0242922 0.227031 0.702188
1178 4 0.00964402 0.219496 0.720999
1179 4 0.0389404 0.234566 0.683378
1073 4 0.149904 0.230699 0.739459
978 4 0.243251 0.202235 0.730934
886 2 0.292886 0.173025 0.667686
887 4 0.317575 0.175658 0.670641
976 2 0.262977 0.214487 0.740205
918 4 0.298429 0.234857 0.742198
1025 4 0.416368 0.206867 0.665666
1262 4 0.446521 0.229872 0.709404
1142 4 0.438795 0.196807 0.71529
1024 2 0.432188 0.208827 0.684929
1141 2 0.438272 0.18348 0.73644
1026 4 0.448008 0.210786 0.704192
1261 2 0.459868 0.23378 0.730182
1263 4 0.473216 0.237689 0.750961
3123 4 0.492198 0.243793 0.664554
1209 4 0.141564 0.291287 0.675985
1072 2 0.140404 0.253583 0.742814
1207 2 0.122552 0.283882 0.690438
1208 4 0.10354 0.276477 0.704891
821 4 0.163598 0.33162 0.691866
1074 4 0.130905 0.276468 0.746168
820 2 0.175507 0.310298 0.686502
822 4 0.187416 0.288977 0.681138
1065 4 0.238147 0.320078 0.72054
1063 2 0.245722 0.301729 0.705338
1064 4 0.253296 0.28338 0.690136
916 2 0.297333 0.259588 0.745706
917 4 0.296236 0.28432 0.749215
1008 4 0.370052 0.275704 0.740025
892 2 0.0245585 0.358018 0.707615
893 4 0.0160821 0.336414 0.69831
894 4 0.0330348 0.379623 0.71692
1280 4 0.0478833 0.378859 0.730707
1279 2 0.0513632 0.40322 0.726281
816 4 0.0552707 0.362575 0.739382
942 4 0.117926 0.367758 0.753927
1028 4 0.210846 0.360779 0.708409
1066 2 0.188384 0.384255 0.735377
1068 4 0.204945 0.376175 0.718476
1027 2 0.226419 0.376951 0.697402
1029 4 0.241992 0.393122 0.686395
1140 4 0.25135 0.409753 0.690797
1019 4 0.365196 0.386674 0.730586
1981 2 0.0624269 0.462503 0.714962
1281 4 0.0548431 0.427582 0.721855
1983 4 0.0645114 0.438555 0.708081
1982 4 0.0603423 0.48645 0.721844
2016 4 0.197954 0.500638 0.733039
1138 2 0.270913 0.42465 0.686267
1139 4 0.290477 0.439548 0.681736
1988 4 0.323577 0.469083 0.741595
1987 2 0.337533 0.458747 0.723606
1228 2 0.367498 0.469613 0.678706
1229 4 0.353589 0.466913 0.699307
1989 4 0.351489 0.448411 0.705618
1100 4 0.406871 0.44745 0.705056
1099 2 0.421076 0.46759 0.70927
1101 4 0.435282 0.487731 0.713483
1202 4 0.107672 0.0341056 0.759484
2049 4 0.103322 0.0145203 0.764042
2047 2 0.122343 0.998295 0.764348
817 2 0.322566 0.0571445 0.805328
819 4 0.310705 0.0773529 0.796604
1050 4 0.339852 0.00358247 0.773304
818 4 0.334427 0.0369361 0.814053
974 4 0.353934 0.000173848 0.786445
2322 4 0.4687 0.0335107 0.75917
845 4 0.450251 0.0720091 0.755752
1112 4 0.438894 0.0841555 0.768403
844 2 0.474153 0.0791577 0.757425
863 4 0.00430005 0.12213 0.751813
833 4 0.000732495 0.118248 0.770813
832 2 0.996222 0.111573 0.794484
911 4 0.0974054 0.139295 0.82583
34 3 0.133364 0.159966 0.793614
31 1 0.111757 0.154468 0.800041
35 3 0.106389 0.133731 0.792309
32 3 0.11059 0.154525 0.823015
1106 4 0.0906123 0.154996 0.757401
1257 4 0.23393 0.0862342 0.789666
1256 4 0.279586 0.104914 0.797868
1255 2 0.256758 0.0955741 0.793767
1084 2 0.317451 0.111105 0.797068
1085 4 0.308749 0.0910658 0.809228
1086 4 0.326154 0.131144 0.784908
960 4 0.307851 0.0959857 0.830086
1113 4 0.413881 0.0842645 0.811705
1111 2 0.426388 0.08421 0.790054
846 4 0.498054 0.0863063 0.759098
47 3 0.436624 0.165499 0.797693
3270 4 0.49801 0.148449 0.754811
1214 4 0.00765534 0.206982 0.775628
1213 2 0.00200968 0.217719 0.753764
33 3 0.0967923 0.170134 0.791732
1130 4 0.148441 0.195669 0.785355
1129 2 0.166894 0.21017 0.776733