ITEM: TIMESTEP
2290000
ITEM: NUMBER OF ATOMS
4590
ITEM: BOX BOUNDS pp pp pp
-9.9985700000000008e+00 9.9985700000000008e+00
-9.9985700000000008e+00 9.9985700000000008e+00
-9.9985700000000008e+00 9.9985700000000008e+00
ITEM: ATOMS id type xs ys zs
1666 2 0.0186761 0.0702727 0.0666886
1668 4 0.00522621 0.0541562 0.0802731
2974 2 0.470242 0.0179173 0.00694779
745 2 0.44486 0.0739962 0.0137498
747 4 0.446609 0.0500024 0.00693679
1667 4 0.0321259 0.0863892 0.0531041
701 4 0.0283211 0.106626 0.0566801
700 2 0.040049 0.122417 0.0721162
566 4 0.188987 0.157444 0.0430483
565 2 0.198844 0.159823 0.0201933
567 4 0.208702 0.162202 0.997338
297 4 0.33934 0.104803 0.0296514
295 2 0.352197 0.108206 0.00847809
556 2 0.404692 0.108289 0.00112154
558 4 0.42673 0.100635 0.0101169
746 4 0.443112 0.0979901 0.0205628
555 4 0.0330403 0.247831 0.0162014
770 4 0.39411 0.188317 0.0156542
359 4 0.379598 0.199685 0.0164683
664 2 0.39034 0.215806 0.0486538
665 4 0.393276 0.197867 0.0314861
666 4 0.387403 0.233746 0.0658216
623 4 0.382016 0.249984 0.0775732
769 2 0.41776 0.182071 0.0104725
292 2 0.129263 0.292414 0.0499613
507 4 0.159826 0.31498 0.060316
293 4 0.14608 0.310891 0.0509396
294 4 0.112447 0.273936 0.0489831
287 4 0.161924 0.308454 0.0409001
552 4 0.144573 0.325886 0.0625718
573 4 0.255118 0.263441 0.0535894
286 2 0.176039 0.299658 0.0222301
505 2 0.179394 0.307792 0.0741226
481 2 0.225087 0.277275 0.0645928
482 4 0.235907 0.257085 0.0545687
288 4 0.190155 0.290862 0.00356018
571 2 0.271741 0.258629 0.0355425
572 4 0.288365 0.253817 0.0174956
357 4 0.29265 0.270122 0.00584315
323 4 0.397529 0.249903 0.0665509
1069 2 0.401514 0.322032 0.0323263
322 2 0.406055 0.269878 0.0541615
955 2 0.348967 0.321687 0.0167869
324 4 0.414581 0.289853 0.0417721
1070 4 0.420462 0.305727 0.0328572
280 2 0.449396 0.312543 0.0570654
281 4 0.45897 0.317091 0.0797112
282 4 0.439822 0.307995 0.0344195
550 2 0.131271 0.335442 0.0814646
455 4 0.156127 0.326124 0.0456562
454 2 0.161249 0.349935 0.0399994
456 4 0.16637 0.373745 0.0343425
1290 4 0.267569 0.384909 0.0339112
250 2 0.269478 0.400785 0.0666604
1288 2 0.274752 0.374742 0.0122267
251 4 0.271916 0.402919 0.0418676
1071 4 0.382566 0.338338 0.0317953
741 4 0.370556 0.34534 0.0450464
739 2 0.372771 0.347212 0.0698812
957 4 0.365763 0.32941 0.0336227
1788 4 0.0702352 0.483465 0.0200581
626 4 0.225268 0.483478 0.071849
625 2 0.20676 0.49848 0.0642593
245 4 0.240753 0.470439 0.0733801
627 4 0.188253 0.513482 0.0566695
244 2 0.247716 0.451862 0.0581618
246 4 0.254679 0.433285 0.0429435
272 4 0.269289 0.42153 0.0362511
271 2 0.277143 0.429911 0.0140419
1672 2 0.402549 0.441543 0.0660142
853 2 0.397038 0.431987 0.00687729
1674 4 0.409382 0.446107 0.0423995
854 4 0.410711 0.434191 0.0276948
563 4 0.468076 0.471499 0.0292863
562 2 0.447484 0.457401 0.0308273
564 4 0.426892 0.443302 0.0323683
228 4 0.487952 0.468319 0.0244569
18 3 0.0719622 0.00429949 0.172457
19 3 0.0776862 0.0389357 0.157897
491 4 0.25563 0.0710025 0.0746437
1474 2 0.273175 0.995474 0.0992872
1475 4 0.265115 0.0177877 0.107181
492 4 0.272158 0.0272016 0.0922228
490 2 0.263894 0.0491021 0.0834333
1506 4 0.2554 0.00527002 0.165241
486 4 0.404364 0.0261316 0.0875625
484 2 0.416993 0.0352652 0.107114
485 4 0.429622 0.0443988 0.126666
2722 2 0.488947 0.0669785 0.14997
2724 4 0.497956 0.0446134 0.14335
1759 2 0.494926 0.0115261 0.114328
2744 4 0.493571 0.0268841 0.15016
1760 4 0.497307 0.0295095 0.131536
702 4 0.051777 0.138208 0.0875523
476 4 0.057794 0.154631 0.0980517
475 2 0.0775463 0.161517 0.111748
737 4 0.22576 0.157119 0.104395
237 4 0.239384 0.0871937 0.158303
235 2 0.215545 0.0942867 0.160869
581 4 0.297603 0.0777023 0.138739
582 4 0.256176 0.0807849 0.166579
580 2 0.276889 0.0792436 0.152659
628 2 0.385571 0.149136 0.161889
2723 4 0.479939 0.0893436 0.15659
2833 2 0.996463 0.240234 0.108899
2834 4 0.00233069 0.21682 0.115421
477 4 0.0972985 0.168404 0.125445
738 4 0.234639 0.204606 0.117315
736 2 0.230199 0.180863 0.110855
460 2 0.317139 0.241048 0.111062
461 4 0.294281 0.239701 0.101019
354 4 0.276373 0.238837 0.111227
352 2 0.268347 0.244048 0.134327
353 4 0.26032 0.24926 0.157426
630 4 0.373696 0.168862 0.152139
254 4 0.363399 0.181269 0.138653
462 4 0.339997 0.242394 0.121106
255 4 0.347632 0.227736 0.129013
253 2 0.355516 0.204502 0.133833
765 4 0.353944 0.241905 0.138805
624 4 0.358348 0.243815 0.121191
622 2 0.370182 0.246899 0.0993819
2835 4 0.990595 0.263647 0.102376
339 4 0.0497517 0.258372 0.133959
337 2 0.047212 0.260872 0.158707
657 4 0.989456 0.282152 0.097773
483 4 0.214266 0.297465 0.0746168
506 4 0.198962 0.300604 0.0879292
537 4 0.203217 0.308814 0.105355
535 2 0.195776 0.304235 0.128783
536 4 0.188335 0.299656 0.15221
755 4 0.246594 0.26532 0.161886
387 4 0.308499 0.334169 0.113997
301 2 0.317833 0.305356 0.147567
302 4 0.312716 0.31893 0.127202
385 2 0.33109 0.341139 0.105859
763 2 0.342878 0.258337 0.154059
671 4 0.449651 0.319191 0.0978244
527 4 0.464622 0.308294 0.094934
670 2 0.427737 0.328967 0.104851
526 2 0.489607 0.309221 0.0946684
647 4 0.0571789 0.34696 0.155011
551 4 0.11797 0.344998 0.100357
289 2 0.233828 0.393824 0.15295
416 4 0.199786 0.381874 0.15577
290 4 0.249762 0.410911 0.144043
291 4 0.217894 0.376737 0.161856
415 2 0.178623 0.392841 0.163321
252 4 0.26704 0.39865 0.0914531
609 4 0.284763 0.401979 0.101579
493 2 0.394746 0.399054 0.101485
495 4 0.402688 0.375535 0.104481
386 4 0.353682 0.34811 0.0977213
12 3 0.393645 0.32943 0.129008
15 3 0.362838 0.340648 0.111176
740 4 0.374987 0.349083 0.0947161
672 4 0.405823 0.338744 0.111878
14 3 0.395986 0.356591 0.103135
11 1 0.382735 0.347506 0.119877
13 3 0.37909 0.363259 0.136519
595 2 0.461223 0.425489 0.164558
596 4 0.466516 0.427239 0.140184
1791 4 0.0448529 0.495251 0.127355
1466 4 0.051018 0.475713 0.127337
1465 2 0.0632763 0.454459 0.122524
1467 4 0.0755346 0.433205 0.11771
637 2 0.226528 0.502847 0.123034
638 4 0.248411 0.491128 0.126024
766 2 0.256472 0.450909 0.134992
768 4 0.257947 0.428483 0.145951
607 2 0.304007 0.415325 0.11034
767 4 0.254998 0.473335 0.124033
608 4 0.32325 0.428671 0.119102
494 4 0.386804 0.422572 0.098488
660 4 0.380463 0.441599 0.0989872
1673 4 0.395715 0.43698 0.0896289
659 4 0.331008 0.434314 0.100344
658 2 0.355736 0.437957 0.0996657
1559 4 0.372554 0.489137 0.12556
524 4 0.391286 0.496672 0.119572
523 2 0.395012 0.473701 0.110428
525 4 0.398737 0.450729 0.101284
1558 2 0.350348 0.499454 0.13062
16 1 0.0665422 0.0267914 0.174229
17 3 0.0438778 0.0292438 0.171153
2480 4 0.0265514 0.0237226 0.180151
2479 2 0.0163596 0.0449219 0.18863
20 3 0.0721903 0.034541 0.194886
578 4 0.0852194 0.0447804 0.17935
1422 4 0.0280503 0.00471857 0.186592
577 2 0.102422 0.0629239 0.179078
689 4 0.187405 0.00772559 0.235627
652 2 0.285141 0.0236537 0.17243
653 4 0.306021 0.0262346 0.18594
25 3 0.332043 0.0404245 0.243664
654 4 0.264261 0.0210729 0.15892
758 4 0.353355 0.0603722 0.190043
759 4 0.348726 0.0570966 0.239727
757 2 0.351041 0.0587344 0.214885
311 4 0.364867 0.0732768 0.181314
350 4 0.364675 0.0668153 0.249253
744 4 0.516017 0.0195548 0.20717
380 4 0.0113655 0.0851416 0.19239
379 2 0.0119497 0.10902 0.184996
511 2 0.0426004 0.159062 0.193452
512 4 0.0268879 0.140118 0.189046
381 4 0.012534 0.132898 0.177602
579 4 0.119624 0.0810673 0.178806
448 2 0.151984 0.0998462 0.174491
450 4 0.127085 0.0980328 0.173089
449 4 0.176882 0.10166 0.175892
236 4 0.191707 0.10138 0.163435
28 3 0.317794 0.14348 0.22687
312 4 0.3981 0.10992 0.173998
629 4 0.397446 0.12941 0.171638
310 2 0.381484 0.0915986 0.177656
521 4 0.48618 0.127726 0.216302
332 4 0.491614 0.115162 0.229397
762 4 0.472877 0.120219 0.229258
760 2 0.449354 0.128677 0.22982
761 4 0.425831 0.137135 0.230383
331 2 0.505284 0.0960109 0.237857
513 4 0.0583129 0.178006 0.197858
393 4 0.0773024 0.180342 0.20526
391 2 0.0935925 0.19892 0.201432
392 4 0.109883 0.217499 0.197604
279 4 0.237655 0.212753 0.200148
277 2 0.245267 0.23206 0.186203
278 4 0.252878 0.251368 0.172258
284 4 0.270285 0.254479 0.177425
394 2 0.0181178 0.259598 0.235452
395 4 0.0363527 0.268696 0.220964
338 4 0.0446723 0.263371 0.183455
363 4 0.0446369 0.267059 0.203497
361 2 0.0547873 0.289767 0.206049
749 4 0.0545351 0.326413 0.21553
648 4 0.0677411 0.329554 0.200686
362 4 0.0649376 0.312475 0.208601
748 2 0.0620607 0.335226 0.237686
372 4 0.0836128 0.318982 0.202502
646 2 0.06246 0.338257 0.177849
370 2 0.107503 0.318952 0.209881
371 4 0.131393 0.318922 0.21726
734 4 0.137189 0.324829 0.23475
733 2 0.156348 0.313456 0.246098
754 2 0.240328 0.289349 0.1648
756 4 0.234061 0.313379 0.167714
611 4 0.24204 0.327453 0.232637
610 2 0.240095 0.326079 0.207747
612 4 0.238149 0.324704 0.182857
344 4 0.234493 0.320509 0.249542
283 2 0.291612 0.267515 0.176799
285 4 0.312939 0.280551 0.176174
308 4 0.32686 0.283152 0.185819
303 4 0.322949 0.291782 0.167932
729 4 0.315197 0.298698 0.183843
727 2 0.306173 0.316724 0.198635
764 4 0.331811 0.274768 0.169314
307 2 0.337297 0.274715 0.206916
309 4 0.347734 0.266277 0.228012
498 4 0.334771 0.280081 0.23781
417 4 0.15746 0.403809 0.170871
299 4 0.134493 0.335752 0.250791
728 4 0.297149 0.334751 0.213427
446 4 0.386418 0.371123 0.242623
445 2 0.410527 0.36715 0.237314
447 4 0.434635 0.363177 0.232005
644 4 0.452237 0.370691 0.226472
643 2 0.453961 0.387405 0.207955
597 4 0.455929 0.42374 0.188932
645 4 0.455685 0.404119 0.189439
1758 4 0.0539253 0.486759 0.24292
414 4 0.204444 0.478509 0.214364
412 2 0.214995 0.465587 0.232988
413 4 0.225547 0.452665 0.251612
229 2 0.454139 0.486935 0.236198
231 4 0.460425 0.463809 0.229068
427 2 0.082789 0.0117338 0.325061
2755 2 0.010423 0.0656707 0.318895
234 4 0.0192751 0.032808 0.29254
232 2 0.042451 0.0300598 0.283568
233 4 0.065627 0.0273116 0.274596
1404 4 0.0792274 0.0171135 0.285223
317 4 0.0762379 0.035351 0.288767
2756 4 0.012648 0.0476771 0.301677
2478 4 0.00842106 0.0475356 0.283095
428 4 0.0782308 0.0244947 0.304048
316 2 0.0894609 0.0563076 0.292107
1402 2 0.0963124 0.00444357 0.27208
693 4 0.238329 0.051059 0.268776
691 2 0.256231 0.0683106 0.271436
24 3 0.316168 0.0614603 0.270555
21 1 0.335813 0.0515676 0.263164
23 3 0.343828 0.0368892 0.279249
22 3 0.351522 0.0679879 0.259593
349 2 0.389241 0.0679365 0.253774
351 4 0.413807 0.0690577 0.258295
480 4 0.425774 0.0547456 0.252575
479 4 0.453085 0.0295593 0.286049
478 2 0.439429 0.0421525 0.269312
2664 4 0.471398 0.0243211 0.284764
1428 4 0.458614 0.0179535 0.297042
258 4 0.448694 0.0344559 0.303936
2662 2 0.491451 0.0364045 0.293543
256 2 0.439389 0.043034 0.3255
318 4 0.102684 0.0772643 0.295446
730 2 0.136039 0.0840172 0.314017
731 4 0.160958 0.0828822 0.315732
732 4 0.11112 0.0851522 0.312301
397 2 0.0792898 0.102178 0.320199
399 4 0.0954684 0.0922229 0.303941
26 1 0.322152 0.156725 0.245416
721 2 0.270308 0.109536 0.310464
692 4 0.274133 0.0855622 0.274096
30 3 0.30374 0.157674 0.258786
723 4 0.276236 0.100151 0.28806
29 3 0.340116 0.148075 0.257284
632 4 0.360526 0.0850893 0.255104
631 2 0.351689 0.108376 0.257297
707 4 0.349449 0.145609 0.272042
633 4 0.342852 0.131663 0.259491
706 2 0.363501 0.15243 0.291566
443 4 0.00759704 0.256518 0.268204
546 4 0.140975 0.193405 0.272324
544 2 0.162878 0.203561 0.265818
545 4 0.18478 0.213716 0.259312
402 4 0.191814 0.232134 0.26235
473 4 0.222194 0.189759 0.333355
405 4 0.234776 0.17537 0.33747
27 3 0.327459 0.177951 0.238313
708 4 0.377554 0.15925 0.311091
442 2 0.0159623 0.251833 0.291297
444 4 0.0243275 0.247148 0.314389
343 2 0.214084 0.307523 0.255869
400 2 0.193034 0.256335 0.268513
401 4 0.194255 0.280537 0.274675
676 2 0.176837 0.300554 0.297795
345 4 0.193676 0.294536 0.262196
677 4 0.17878 0.293553 0.273871
735 4 0.175507 0.302082 0.257446
678 4 0.174894 0.307555 0.32172
510 4 0.185746 0.324695 0.323433
378 4 0.262555 0.263486 0.324651
376 2 0.275689 0.275454 0.30706
496 2 0.3173 0.28462 0.255111
497 4 0.299829 0.289159 0.272412
377 4 0.288823 0.287421 0.289468
541 2 0.364594 0.292648 0.303699
542 4 0.384042 0.285789 0.317837
420 4 0.399907 0.275716 0.311151
543 4 0.345145 0.299508 0.289561
615 4 0.342733 0.318855 0.296602
418 2 0.404438 0.257033 0.327138
365 4 0.0274979 0.377811 0.298245
601 2 0.0539643 0.403322 0.321474
603 4 0.0432468 0.386458 0.306443
750 4 0.0695864 0.344039 0.259842
298 2 0.111476 0.341336 0.258805
300 4 0.0884597 0.34692 0.26682
508 2 0.198793 0.346008 0.322578
509 4 0.211841 0.36732 0.321723
433 2 0.310757 0.377477 0.333003
434 4 0.334477 0.376358 0.325174
614 4 0.338131 0.36752 0.307149
613 2 0.340432 0.343188 0.301875
1757 4 0.0417082 0.441613 0.260622
1756 2 0.0478168 0.464186 0.251771
264 4 0.0220543 0.436241 0.257667
776 4 0.0641548 0.489488 0.327747
775 2 0.0644937 0.492016 0.302874
1775 4 0.0678984 0.492725 0.256517
602 4 0.0646817 0.420186 0.336505
777 4 0.0648326 0.494543 0.278001
1436 4 0.239781 0.446178 0.264133
1435 2 0.247379 0.450981 0.287465
1437 4 0.254976 0.455784 0.310797
4 3 0.263773 0.451872 0.328375
3 3 0.299313 0.464511 0.323729
1 1 0.280557 0.465126 0.337377
1801 2 0.369795 0.481594 0.310911
1802 4 0.354459 0.464284 0.320417
119 3 0.49754 0.464734 0.320581
2757 4 0.00819806 0.0836643 0.336113
2585 4 0.00691808 0.0983626 0.349577
429 4 0.0873471 0.998973 0.346075
606 4 0.165325 0.065072 0.323055
1781 4 0.115213 0.0121648 0.412109
604 2 0.185448 0.072323 0.336003
605 4 0.205571 0.079574 0.348952
248 4 0.220681 0.0822636 0.364093
962 4 0.336422 0.0105648 0.41723
441 4 0.330724 0.999851 0.402495
1701 4 0.336631 0.0022702 0.384681
425 4 0.346327 0.00629665 0.400865
699 4 0.362189 0.0467055 0.353464
698 4 0.411207 0.0435159 0.344093
1699 2 0.341821 0.0189441 0.366786
1700 4 0.347011 0.0356179 0.348891
697 2 0.386698 0.0451107 0.348778
725 4 0.397701 0.0634266 0.399621
424 2 0.368134 0.000844089 0.411815
257 4 0.430083 0.051612 0.347064
398 4 0.0631113 0.112133 0.336457
2584 2 0.0293248 0.109458 0.34969
2586 4 0.0517315 0.120553 0.349803
458 4 0.0542315 0.128685 0.367861
457 2 0.0506257 0.139709 0.390011
459 4 0.04702 0.150734 0.412162
600 4 0.111469 0.145357 0.341411
598 2 0.118522 0.165297 0.354747
249 4 0.25458 0.115705 0.348821
247 2 0.237631 0.0989843 0.356457
404 4 0.258387 0.132295 0.346843
403 2 0.246581 0.153833 0.342157
722 4 0.264379 0.118921 0.332868
683 4 0.26374 0.12386 0.363937
682 2 0.286915 0.127084 0.372752
684 4 0.310091 0.130307 0.381567
320 4 0.310804 0.151232 0.375771
319 2 0.332988 0.160965 0.369581
724 2 0.398762 0.088065 0.403744
321 4 0.355172 0.170697 0.36339
717 4 0.400215 0.158384 0.344679
261 4 0.0705636 0.205054 0.419403
260 4 0.0383792 0.166826 0.421274
259 2 0.0544714 0.18594 0.420339
687 4 0.0894155 0.198752 0.42111
599 4 0.125575 0.185236 0.368083
389 4 0.122006 0.219015 0.373506
686 4 0.118214 0.19999 0.380246
685 2 0.103815 0.199371 0.400678
275 4 0.132275 0.202689 0.371242
274 2 0.157165 0.201201 0.369382
388 2 0.122469 0.243993 0.374551
474 4 0.197259 0.215648 0.368123
472 2 0.209726 0.202704 0.350739
276 4 0.182054 0.199713 0.367522
715 2 0.389035 0.16882 0.364459
716 4 0.377854 0.179255 0.38424
467 4 0.391351 0.178894 0.400365
269 4 0.413604 0.219054 0.338388
419 4 0.408968 0.23835 0.343126
270 4 0.447427 0.22188 0.375113
452 4 0.468704 0.218767 0.377977
268 2 0.430516 0.220467 0.356751
451 2 0.463995 0.217007 0.40247
346 2 0.0528345 0.326927 0.383004
347 4 0.077229 0.326944 0.388488
618 4 0.0887742 0.312003 0.394261
616 2 0.100645 0.295966 0.379191
390 4 0.122931 0.26897 0.375596
617 4 0.112516 0.279929 0.364122
374 4 0.131562 0.275468 0.359853
373 2 0.145464 0.291941 0.347182
375 4 0.159366 0.308414 0.334511
348 4 0.0284399 0.326911 0.377519
549 4 0.0759383 0.414889 0.353618
435 4 0.287037 0.378595 0.340832
334 2 0.325335 0.367341 0.410283
668 4 0.298114 0.3887 0.4278
336 4 0.302935 0.378428 0.410976
238 2 0.375469 0.378084 0.385138
239 4 0.389816 0.394284 0.372612
587 4 0.404611 0.407428 0.373034
335 4 0.347735 0.356254 0.409589
240 4 0.361122 0.361884 0.397664
752 4 0.480584 0.397506 0.38224
561 4 0.477761 0.378346 0.379699
751 2 0.488144 0.416947 0.368454
559 2 0.487976 0.374299 0.402158
548 4 0.0803826 0.440488 0.396346
407 4 0.0866113 0.457885 0.389678
500 4 0.0646508 0.502336 0.343788
499 2 0.0735092 0.488808 0.362859
501 4 0.0823676 0.47528 0.38193
547 2 0.0781605 0.427689 0.374982
1544 4 0.22557 0.506997 0.398948
1556 4 0.245868 0.503595 0.399861
436 2 0.330337 0.456205 0.341391
438 4 0.305466 0.456675 0.343914
5 3 0.27321 0.486575 0.339525
2 3 0.286183 0.456931 0.358121
1557 4 0.294343 0.49883 0.411185
1555 2 0.270106 0.501213 0.405523
437 4 0.355209 0.455736 0.338868
586 2 0.407028 0.43056 0.382212
593 4 0.405302 0.468617 0.378908
588 4 0.409445 0.453692 0.391391
712 2 0.466156 0.484348 0.337572
714 4 0.486985 0.470529 0.336985
713 4 0.445326 0.498168 0.338159
592 2 0.415803 0.482844 0.361231
753 4 0.495705 0.436389 0.354668
117 3 0.492417 0.457439 0.357093
1772 4 0.99974 0.0124153 0.450645
720 4 0.00936557 0.0225873 0.463429
367 2 0.0908372 0.0263741 0.447003
369 4 0.0774393 0.0280219 0.46805
719 4 0.0579666 0.0225124 0.475205
718 2 0.0336661 0.0225498 0.469317
368 4 0.104235 0.0247264 0.425957
961 2 0.3232 0.0311772 0.422277
963 4 0.309977 0.0517896 0.427324
432 4 0.302137 0.0589667 0.444037
430 2 0.31699 0.0706093 0.460439
431 4 0.331843 0.0822519 0.47684
726 4 0.399823 0.112703 0.407867
640 2 0.48377 0.0990505 0.444018
641 4 0.463673 0.0976899 0.458831
1035 4 0.085181 0.216591 0.423858
1033 2 0.085376 0.231236 0.444123
1034 4 0.0855711 0.245881 0.464388
696 4 0.091588 0.249469 0.482235
487 2 0.335715 0.239447 0.444368
466 2 0.400106 0.188546 0.421704
468 4 0.408862 0.198197 0.443043
411 4 0.3605 0.22111 0.477838
409 2 0.381745 0.210062 0.470645
410 4 0.402991 0.199014 0.463453
266 4 0.350917 0.237455 0.481222
489 4 0.346647 0.229472 0.464522
575 4 0.417956 0.19367 0.476164
516 4 0.418811 0.200786 0.458323
574 2 0.419552 0.185097 0.499598
514 2 0.438944 0.213751 0.451129
515 4 0.459078 0.226715 0.443935
453 4 0.459285 0.215248 0.426962
2802 4 0.00326926 0.298805 0.439787
1260 4 0.0936882 0.262942 0.467566
1258 2 0.106227 0.284457 0.469814
1259 4 0.118767 0.305972 0.472063
9 3 0.140268 0.309669 0.46002
7 3 0.119216 0.316633 0.490367
6 1 0.134527 0.325695 0.475787
8 3 0.153343 0.332157 0.487728
327 4 0.108951 0.32892 0.472819
488 4 0.324784 0.249423 0.424214
265 2 0.357843 0.258713 0.492416
1009 2 0.468411 0.310458 0.493345
1011 4 0.474996 0.333967 0.487945
1010 4 0.461826 0.28695 0.498745
326 4 0.0611743 0.33788 0.461079
10 3 0.125278 0.343774 0.465478
325 2 0.0850627 0.3334 0.466949
709 2 0.152378 0.413578 0.495086
711 4 0.128684 0.411504 0.487374
667 2 0.30565 0.409758 0.438978
3309 4 0.489038 0.362672 0.439593
3307 2 0.475038 0.351764 0.457204
3308 4 0.461037 0.340855 0.474816
1381 2 0.0171095 0.491641 0.460032
1383 4 0.00370912 0.470532 0.459989
680 4 0.00760012 0.451632 0.45561
406 2 0.0986057 0.466568 0.409825
384 4 0.127395 0.426754 0.47584
382 2 0.12287 0.445861 0.460359
408 4 0.1106 0.475251 0.429973
568 2 0.1484 0.490126 0.43196
383 4 0.118345 0.464967 0.444878
569 4 0.129995 0.473202 0.431965
1543 2 0.205751 0.505196 0.414086
774 4 0.332879 0.434395 0.444913
636 4 0.293125 0.487291 0.429144
669 4 0.313185 0.430816 0.450156
634 2 0.306378 0.467136 0.435724
635 4 0.319631 0.44698 0.442304
773 4 0.371243 0.430695 0.476775
772 2 0.352061 0.432545 0.460844
663 4 0.479596 0.487837 0.436772
1152 4 0.206501 0.0598166 0.537499
342 4 0.195445 0.043986 0.530671
340 2 0.181485 0.0277526 0.517757
1150 2 0.218782 0.0793679 0.547097
341 4 0.167526 0.0115191 0.504842
949 2 0.294514 0.0375163 0.580401
951 4 0.300037 0.0563319 0.564889
1031 4 0.289005 0.0710776 0.572835
1217 4 0.395128 0.0514291 0.516123
842 4 0.376493 0.0597685 0.514378
841 2 0.354928 0.0682564 0.504993
843 4 0.333363 0.0767444 0.495607
1216 2 0.419348 0.0559761 0.511893
1218 4 0.443567 0.0605231 0.507662
3007 2 0.498264 0.0553339 0.580584
1270 2 0.0746955 0.14465 0.579912
1271 4 0.08631 0.123292 0.574072
1058 4 0.0912199 0.120942 0.505196
1057 2 0.0891233 0.121642 0.530101
1059 4 0.0870267 0.122342 0.555007
1155 4 0.102998 0.116876 0.563431
939 4 0.0882738 0.105526 0.567219
1153 2 0.125372 0.125358 0.570685
1221 4 0.153559 0.138418 0.596907
1154 4 0.147746 0.13384 0.57794
1151 4 0.231062 0.0989193 0.556694
1180 2 0.226026 0.131634 0.563886
1181 4 0.218308 0.10828 0.568383
1182 4 0.233743 0.154987 0.559389
1032 4 0.250386 0.100966 0.562066
1030 2 0.269696 0.0860217 0.567451
1198 2 0.0103086 0.239889 0.555818
1199 4 0.031162 0.239009 0.569585
878 4 0.0406546 0.230068 0.584917
877 2 0.0523695 0.207988 0.58556
695 4 0.0708142 0.242716 0.527219
694 2 0.0812011 0.246092 0.504727
900 4 0.228188 0.174386 0.56318
898 2 0.231664 0.184771 0.540702
899 4 0.23514 0.195156 0.518224
650 4 0.25356 0.203002 0.515668
649 2 0.252965 0.227993 0.515145
576 4 0.421147 0.176525 0.523032
982 2 0.00599757 0.299523 0.593509
856 2 0.219695 0.273373 0.534097
857 4 0.197527 0.282447 0.541268
798 4 0.208914 0.275862 0.573781
947 4 0.193698 0.27972 0.5622
946 2 0.17522 0.285387 0.578062
858 4 0.241863 0.2643 0.526927
651 4 0.25237 0.252984 0.514622
267 4 0.36477 0.279971 0.50361
954 4 0.469205 0.262663 0.579879
2457 4 0.478283 0.273972 0.495244
2455 2 0.494645 0.255071 0.494742
502 2 0.190913 0.375677 0.509315
504 4 0.179307 0.395033 0.498554
503 4 0.202518 0.35632 0.520077
710 4 0.176072 0.415652 0.502798
803 4 0.255089 0.347537 0.566831
804 4 0.279745 0.369993 0.529568
802 2 0.267417 0.358765 0.548199
930 4 0.329439 0.387593 0.574467
928 2 0.350073 0.385137 0.560561
929 4 0.370707 0.38268 0.546654
881 4 0.365453 0.371782 0.530549
880 2 0.38003 0.351825 0.526751
882 4 0.394607 0.331869 0.522953
1002 4 0.450184 0.411286 0.585643
539 4 0.111391 0.427177 0.54763
540 4 0.108759 0.471199 0.571208
2244 4 0.100547 0.489767 0.571773
538 2 0.110075 0.449188 0.559419
2154 4 0.242051 0.491034 0.545946
2152 2 0.251468 0.501244 0.566737
2153 4 0.260885 0.511454 0.587528
1909 2 0.44608 0.484384 0.564016
1910 4 0.430069 0.496938 0.549482
1081 2 0.0739324 0.0734466 0.638823
1083 4 0.0728998 0.0792268 0.614519
1126 2 0.0329201 0.0818814 0.601516
1127 4 0.0539192 0.074579 0.612957
938 4 0.0830013 0.068943 0.600903
824 4 0.198289 0.00149862 0.671243
950 4 0.28899 0.0187007 0.595914
3008 4 0.48638 0.0563602 0.602559
809 4 0.473108 0.041123 0.607726
808 2 0.466889 0.0501034 0.630217
810 4 0.46067 0.0590838 0.652709
1128 4 0.0119209 0.0891839 0.590076
1272 4 0.063081 0.166008 0.585753
3477 4 0.996557 0.0841265 0.602939
937 2 0.0856376 0.0872345 0.584061
1219 2 0.172414 0.154226 0.601353
1192 2 0.321933 0.156548 0.642355
886 2 0.269991 0.160927 0.662383
1194 4 0.311866 0.155731 0.665228
887 4 0.294196 0.160474 0.668633
1193 4 0.332001 0.157366 0.619482
45 3 0.459597 0.0821797 0.654707
3424 2 0.483356 0.11178 0.670871
1244 4 0.0546453 0.242337 0.590654
879 4 0.0640844 0.185908 0.586203
1220 4 0.191268 0.170035 0.6058
1212 4 0.194619 0.181638 0.622265
1210 2 0.214163 0.179052 0.637645
1211 4 0.233706 0.176467 0.653026
888 4 0.245785 0.16138 0.656132
983 4 0.0266343 0.294376 0.606655
1245 4 0.0457454 0.287604 0.609951
1243 2 0.0501953 0.264971 0.600302
948 4 0.156741 0.291054 0.593924
1135 2 0.157425 0.328892 0.612447
822 4 0.147798 0.324234 0.657788
820 2 0.144139 0.300616 0.665133
1136 4 0.159347 0.304407 0.607761
796 2 0.229575 0.275118 0.587844
797 4 0.250236 0.274373 0.601907
791 4 0.268648 0.282528 0.596619
790 2 0.272525 0.307146 0.594595
792 4 0.276403 0.331764 0.592572
872 4 0.324841 0.282336 0.597883
871 2 0.347771 0.291117 0.602604
813 4 0.38457 0.312504 0.602182
873 4 0.370702 0.299897 0.607325
3123 4 0.494536 0.255819 0.650744
952 2 0.485105 0.279506 0.589295
1041 4 0.041507 0.380464 0.624197
3264 4 0.0440363 0.375096 0.642853
3240 4 0.0358651 0.391032 0.640182
3238 2 0.01309 0.399702 0.645777
1039 2 0.0632557 0.38333 0.612198
3262 2 0.0445707 0.354258 0.656661
1064 4 0.155652 0.336628 0.672063
1137 4 0.155502 0.353377 0.617133
1040 4 0.0850043 0.386195 0.6002
993 4 0.103178 0.381801 0.596388
991 2 0.124724 0.375987 0.607663
992 4 0.14627 0.370172 0.618939
897 4 0.163715 0.369824 0.626106
1189 2 0.243699 0.36764 0.598912
896 4 0.208695 0.388538 0.614822
895 2 0.186205 0.379181 0.620464
1172 4 0.238079 0.399944 0.602638
1191 4 0.228255 0.383353 0.610735
1063 2 0.177814 0.348178 0.67286
1238 4 0.297306 0.334047 0.596453
1190 4 0.259142 0.351926 0.587089
1239 4 0.323343 0.376208 0.589724
1237 2 0.310324 0.355127 0.593089
806 4 0.254804 0.352817 0.696556
811 2 0.387093 0.33738 0.602155
1204 2 0.382689 0.37441 0.641255
1205 4 0.380556 0.373972 0.666163
1206 4 0.384823 0.374848 0.616346
927 4 0.396665 0.380414 0.601452
812 4 0.389616 0.362256 0.602127
925 2 0.41484 0.392562 0.589316
926 4 0.433015 0.404709 0.57718
1160 4 0.11734 0.485997 0.578991
1159 2 0.141287 0.486195 0.586177
1161 4 0.165235 0.486393 0.593364
1188 4 0.168391 0.479681 0.613068
1171 2 0.229388 0.423375 0.603436
1186 2 0.190996 0.469262 0.615441
1173 4 0.220697 0.446806 0.604235
1187 4 0.2136 0.458842 0.617815
2172 4 0.174975 0.480712 0.672133
1140 4 0.241866 0.434473 0.671853
1911 4 0.46209 0.47183 0.57855
1001 4 0.45396 0.460794 0.591595
1000 2 0.452072 0.43604 0.588619
1269 4 0.455823 0.478874 0.597069
1267 2 0.455255 0.491413 0.618695
1082 4 0.074965 0.0676664 0.663128
943 2 0.0537134 0.0245247 0.680164
1076 4 0.0791498 0.0595869 0.682561
1075 2 0.0773396 0.077776 0.699622
945 4 0.0382623 0.00618885 0.673076
4520 4 0.0324322 0.986335 0.674778
944 4 0.0691646 0.0428606 0.687252
1283 4 0.182098 0.0617263 0.698428
825 4 0.181007 0.0413914 0.695953
1149 4 0.22904 0.049406 0.718647
823 2 0.189648 0.021445 0.683598
1147 2 0.236203 0.0594236 0.696886
1282 2 0.176686 0.0861253 0.699187
1148 4 0.243367 0.0694413 0.675126
1092 4 0.314972 0.00332377 0.675768
41 1 0.451813 0.071289 0.673131
43 3 0.429081 0.0752137 0.675633
42 3 0.455219 0.0486835 0.670573
1163 4 0.467383 0.0560333 0.688742
1162 2 0.485275 0.0458828 0.702956
2321 4 0.49724 0.0313584 0.735755
44 3 0.463222 0.0785058 0.692003
1164 4 0.503167 0.0357323 0.717169
864 4 0.0711704 0.0901081 0.733897
1077 4 0.0755295 0.0959651 0.716682
851 4 0.0746465 0.114901 0.717458
850 2 0.0615019 0.130692 0.703209
852 4 0.0483574 0.146484 0.68896
1107 4 0.0789181 0.107058 0.73395
862 2 0.0507463 0.0863282 0.747816
1284 4 0.171273 0.110524 0.699946
909 4 0.17227 0.12959 0.702428
907 2 0.194997 0.137894 0.696126
908 4 0.217724 0.146198 0.689825
1227 4 0.230071 0.129881 0.685125
1225 2 0.2376 0.108452 0.674671
1226 4 0.245129 0.0870232 0.664217
829 2 0.306389 0.125919 0.687715
1005 4 0.321626 0.102627 0.705616
830 4 0.308359 0.149787 0.680531
831 4 0.304419 0.102051 0.694899
1003 2 0.342622 0.094831 0.716733
3425 4 0.468754 0.0916413 0.673397
1113 4 0.488267 0.106149 0.730463
1111 2 0.476868 0.0918207 0.747491
1025 4 0.426653 0.173407 0.681026
1177 2 0.0181993 0.257923 0.723408
1130 4 0.1367 0.245419 0.742026
1208 4 0.135729 0.236373 0.725864
1074 4 0.119023 0.2451 0.735792
1207 2 0.138336 0.247822 0.70379
976 2 0.329906 0.227797 0.741111
977 4 0.306496 0.224247 0.749145
978 4 0.353317 0.231347 0.733077
918 4 0.292826 0.241142 0.751394
1024 2 0.443749 0.182652 0.696757
1142 4 0.452124 0.190761 0.72992
1144 2 0.492923 0.17917 0.728496
1262 4 0.474682 0.205529 0.716621
1026 4 0.460845 0.191896 0.712487
1261 2 0.46555 0.228803 0.716281
1145 4 0.470962 0.191123 0.728304
1263 4 0.456419 0.252077 0.715941
1179 4 0.0405976 0.269031 0.723078
1072 2 0.0943226 0.245134 0.739676
821 4 0.140479 0.276997 0.672479
1209 4 0.140943 0.259272 0.681715
1073 4 0.0696225 0.245167 0.74356
1019 4 0.39175 0.279972 0.711265
1018 2 0.376055 0.294596 0.69842
1020 4 0.360361 0.30922 0.685575
3263 4 0.0451051 0.33342 0.670469
892 2 0.0194089 0.353703 0.737831
1279 2 0.046895 0.402548 0.74165
894 4 0.0406888 0.363879 0.746124
1280 4 0.0534088 0.378408 0.741554
816 4 0.0592699 0.360201 0.745718
814 2 0.082836 0.352672 0.742094
815 4 0.106402 0.345143 0.738469
1065 4 0.199975 0.359729 0.673657
807 4 0.216844 0.367034 0.667271
1028 4 0.201032 0.394682 0.710848
1066 2 0.190613 0.367515 0.737007
1068 4 0.204132 0.377383 0.718432
1027 2 0.217916 0.408579 0.698724
805 2 0.235824 0.359926 0.681914
1281 4 0.0403813 0.426688 0.741747
1983 4 0.0537248 0.439559 0.749693
1981 2 0.0761549 0.44977 0.753912
1176 4 0.162528 0.482701 0.727819
1175 4 0.210844 0.469859 0.728982
1174 2 0.186686 0.47628 0.728401
1029 4 0.2348 0.422475 0.6866
1138 2 0.259743 0.449734 0.680378
1139 4 0.27762 0.464995 0.688904
1987 2 0.281083 0.451703 0.735223
1229 4 0.291594 0.467321 0.701023
1989 4 0.282753 0.469058 0.717301
2028 4 0.280865 0.480646 0.701637
1228 2 0.315461 0.465083 0.693914
1988 4 0.279414 0.434348 0.753145
1230 4 0.339328 0.462846 0.686806
1099 2 0.446575 0.498661 0.681427
1100 4 0.44729 0.490708 0.705121
2989 2 0.0286177 0.0519826 0.783635
2990 4 0.0262716 0.0765675 0.779729
2991 4 0.0309639 0.0273977 0.787541
863 4 0.0303222 0.0825483 0.761735
3083 4 0.0139423 0.0823574 0.76648
2047 2 0.127886 0.99576 0.78627
2049 4 0.122345 0.0198875 0.782758
1202 4 0.109828 0.0340916 0.78725
1201 2 0.122457 0.0556689 0.786934
1203 4 0.135087 0.0772462 0.786618
32 3 0.150573 0.0816817 0.800663
817 2 0.331503 0.0478743 0.800672
819 4 0.326481 0.0721191 0.804157
1050 4 0.334714 0.0144384 0.765044
1004 4 0.363617 0.0870349 0.727851
973 2 0.364882 0.00307431 0.791218
818 4 0.336524 0.0236294 0.797186
974 4 0.342368 0.0107035 0.783466
2322 4 0.47326 0.047307 0.776637
845 4 0.479051 0.0667638 0.776744
1112 4 0.46547 0.0774928 0.764519
844 2 0.469449 0.0685709 0.79976
2320 2 0.48525 0.0393327 0.756196
833 4 0.0251957 0.0959854 0.774426
832 2 0.0288184 0.112867 0.792512
834 4 0.0324411 0.129748 0.810597
1125 4 0.0368219 0.141776 0.826577
1105 2 0.101221 0.108105 0.745203
1106 4 0.123525 0.109152 0.756457
911 4 0.141959 0.0970304 0.814568
34 3 0.133901 0.0975589 0.770954
31 1 0.147894 0.101367 0.789068
35 3 0.138693 0.116995 0.802844
33 3 0.168661 0.108592 0.781654
1256 4 0.227207 0.107159 0.813673
840 4 0.216519 0.113863 0.829026
1255 2 0.243858 0.0964851 0.798376
1085 4 0.32436 0.0878154 0.793865
1257 4 0.260509 0.0858111 0.783079
1084 2 0.300624 0.0924693 0.787532
1086 4 0.276887 0.0971232 0.781199