ITEM: TIMESTEP
730000
ITEM: NUMBER OF ATOMS
4590
ITEM: BOX BOUNDS pp pp pp
-9.9985700000000008e+00 9.9985700000000008e+00
-9.9985700000000008e+00 9.9985700000000008e+00
-9.9985700000000008e+00 9.9985700000000008e+00
ITEM: ATOMS id type xs ys zs
1668 4 0.0968089 0.0372898 0.0619953
1475 4 0.282682 0.0161456 0.0671172
492 4 0.289094 0.0444415 0.0685275
297 4 0.318006 0.0853895 0.0480656
987 4 0.40756 0.00679753 0.0062509
486 4 0.360115 0.00428433 0.0783017
985 2 0.420397 0.0281156 0.00381494
747 4 0.450323 0.0563929 0.00927179
2974 2 0.473653 0.0224175 0.0276592
2976 4 0.488002 0.00530329 0.0389014
2468 4 0.500387 0.00884071 0.0525212
2975 4 0.459304 0.0395317 0.016417
986 4 0.433233 0.0494337 0.00137897
745 2 0.443772 0.0793857 0.0165931
463 2 0.0579847 0.0834104 0.00135993
465 4 0.0486949 0.0958024 0.0209894
567 4 0.213056 0.140761 0.0623539
566 4 0.168061 0.162321 0.0589822
565 2 0.190558 0.151541 0.060668
295 2 0.339771 0.0913384 0.0588389
358 2 0.32533 0.143026 0.0628013
359 4 0.32844 0.124207 0.0789675
360 4 0.32222 0.161846 0.0466351
296 4 0.361536 0.0972874 0.0696122
557 4 0.369341 0.0970807 0.0510758
556 2 0.389117 0.107773 0.0401312
558 4 0.408893 0.118465 0.0291866
769 2 0.411247 0.154817 0.0604284
746 4 0.437222 0.102378 0.0239143
771 4 0.434193 0.146308 0.055306
554 4 0.0534695 0.232494 0.00926296
553 2 0.0623737 0.252559 0.0212331
666 4 0.340235 0.189619 0.00816054
664 2 0.338131 0.203703 0.0287128
665 4 0.336028 0.217787 0.049265
770 4 0.3883 0.163325 0.0655507
323 4 0.416432 0.246475 0.067808
322 2 0.427009 0.250112 0.0454457
555 4 0.0712779 0.272625 0.0332032
293 4 0.158622 0.29291 0.0286358
507 4 0.159952 0.306831 0.0439462
287 4 0.160795 0.323222 0.0330454
292 2 0.152145 0.29086 0.00457297
505 2 0.176375 0.291573 0.0550197
483 4 0.209562 0.274636 0.0779071
506 4 0.192798 0.276314 0.0660932
481 2 0.233889 0.268898 0.0772514
573 4 0.264757 0.267297 0.058676
482 4 0.258217 0.26316 0.0765957
572 4 0.300781 0.273697 0.0245871
571 2 0.282769 0.270497 0.0416315
357 4 0.294439 0.280995 0.00620149
1069 2 0.380987 0.283939 0.0228316
1070 4 0.404008 0.29054 0.0156456
1071 4 0.357966 0.277338 0.0300175
324 4 0.437586 0.25375 0.0230834
671 4 0.444714 0.323862 0.0704821
280 2 0.437299 0.307015 0.0377181
281 4 0.452432 0.313471 0.0565456
282 4 0.422166 0.300558 0.0188906
330 4 0.00903348 0.41421 0.00291646
551 4 0.0670715 0.406793 0.0490775
550 2 0.0899223 0.401187 0.057539
552 4 0.112773 0.395582 0.0660004
288 4 0.178965 0.368828 0.023524
286 2 0.16988 0.346025 0.0282847
456 4 0.175571 0.405663 0.0885384
250 2 0.299848 0.40741 0.0237919
252 4 0.302099 0.408768 0.0486568
251 4 0.297596 0.406052 0.998927
957 4 0.337862 0.34363 0.0169528
741 4 0.345792 0.336809 0.0550389
739 2 0.354772 0.336895 0.0783742
245 4 0.227439 0.433327 0.0618946
626 4 0.223482 0.441623 0.0812209
244 2 0.234237 0.442501 0.0396504
246 4 0.241035 0.451676 0.0174062
625 2 0.20186 0.45198 0.0883191
609 4 0.29869 0.425397 0.059514
607 2 0.317357 0.425518 0.0761483
525 4 0.355377 0.503107 0.0742276
563 4 0.467251 0.490409 0.054017
228 4 0.472648 0.473146 0.0628515
226 2 0.47625 0.455612 0.0803084
19 3 0.0441178 0.0666313 0.143131
1666 2 0.0916033 0.052363 0.0812535
1667 4 0.0863978 0.0674363 0.100512
701 4 0.0984614 0.0837309 0.0998539
448 2 0.167379 0.0673194 0.152693
450 4 0.173708 0.0438964 0.158733
490 2 0.286166 0.0572209 0.0898182
652 2 0.298169 0.0146504 0.157965
653 4 0.315196 0.0222002 0.141285
491 4 0.283239 0.0700003 0.111109
311 4 0.39389 0.0619265 0.162521
310 2 0.406204 0.0798711 0.15021
2722 2 0.483041 0.053426 0.128878
2723 4 0.47287 0.0726402 0.116528
2724 4 0.493212 0.0342119 0.141229
1760 4 0.500957 0.0166143 0.143324
2744 4 0.496572 0.0265149 0.159583
380 4 0.00271278 0.15552 0.159602
700 2 0.100354 0.107465 0.107489
702 4 0.102247 0.131199 0.115124
476 4 0.0971908 0.135795 0.133824
475 2 0.110105 0.144787 0.153255
237 4 0.17288 0.149627 0.151487
449 4 0.16105 0.0907424 0.146652
235 2 0.170887 0.126444 0.142335
236 4 0.168895 0.103261 0.133184
581 4 0.279503 0.112436 0.152705
628 2 0.407734 0.136455 0.134155
630 4 0.39607 0.157888 0.139608
629 4 0.419398 0.115021 0.128703
312 4 0.418518 0.0978156 0.1379
339 4 0.0779948 0.220563 0.11414
2625 4 0.0168011 0.190991 0.11153
337 2 0.0808431 0.231978 0.136203
338 4 0.0836914 0.243393 0.158265
737 4 0.185144 0.165116 0.1126
736 2 0.186753 0.189617 0.117321
738 4 0.188362 0.214118 0.122042
277 2 0.246318 0.227124 0.162336
461 4 0.307824 0.235328 0.098685
460 2 0.321875 0.214665 0.0995739
354 4 0.296447 0.25122 0.0967241
284 4 0.280423 0.238055 0.156352
278 4 0.262325 0.244042 0.153239
462 4 0.335926 0.194002 0.100463
254 4 0.388515 0.171635 0.126079
255 4 0.352244 0.202278 0.110389
253 2 0.37038 0.186957 0.118234
765 4 0.377481 0.235707 0.146739
624 4 0.388587 0.245032 0.1327
763 2 0.357216 0.231196 0.160673
656 4 0.999046 0.297326 0.0822703
536 4 0.175542 0.317121 0.108809
535 2 0.187164 0.336765 0.119018
756 4 0.246097 0.30732 0.155123
352 2 0.284893 0.250007 0.118865
353 4 0.27334 0.248795 0.141006
754 2 0.252451 0.284138 0.148239
755 4 0.258806 0.260956 0.141355
622 2 0.37868 0.254379 0.111732
623 4 0.368773 0.263727 0.0907644
518 4 0.489115 0.239873 0.120385
528 4 0.470455 0.246548 0.126457
670 2 0.425572 0.328672 0.0858325
526 2 0.465874 0.263854 0.143913
621 4 0.000966981 0.351452 0.108541
619 2 0.000870291 0.351375 0.0835381
455 4 0.126766 0.398452 0.0803625
454 2 0.151169 0.402058 0.0844505
537 4 0.198786 0.356409 0.129228
302 4 0.305154 0.366706 0.151885
387 4 0.316852 0.362453 0.135595
385 2 0.338497 0.352093 0.128571
740 4 0.363751 0.336981 0.10171
15 3 0.373885 0.356161 0.121792
386 4 0.360142 0.341733 0.121546
11 1 0.393574 0.366591 0.117081
13 3 0.404538 0.372077 0.136781
14 3 0.389598 0.38576 0.104626
495 4 0.400723 0.394793 0.0903739
12 3 0.406923 0.352407 0.104843
672 4 0.40643 0.333482 0.101183
627 4 0.180238 0.462337 0.0954173
638 4 0.257076 0.494123 0.162969
767 4 0.276061 0.486792 0.163327
608 4 0.336024 0.425639 0.0927827
658 2 0.361961 0.439788 0.122531
659 4 0.351498 0.435356 0.100259
660 4 0.372425 0.44422 0.144803
493 2 0.41144 0.414933 0.100606
596 4 0.478194 0.41397 0.15969
494 4 0.422157 0.435073 0.110838
227 4 0.479852 0.438077 0.0977653
16 1 0.0457762 0.0694841 0.166099
17 3 0.0263501 0.0620666 0.175936
2480 4 0.0190125 0.0455691 0.184495
18 3 0.0635712 0.0570921 0.174356
1422 4 0.0153967 0.0280885 0.175135
1420 2 0.0274283 0.00621698 0.1737
673 2 0.116916 0.0170168 0.236232
674 4 0.125867 0.0227617 0.213604
693 4 0.248102 0.0648731 0.221473
688 2 0.192231 0.00314286 0.237507
654 4 0.281141 0.00710066 0.174646
1506 4 0.262026 0.0106653 0.175212
24 3 0.326536 0.0527257 0.242631
21 1 0.347903 0.046683 0.235899
25 3 0.347468 0.0392994 0.21436
759 4 0.361929 0.0586956 0.216374
22 3 0.361632 0.0650855 0.237324
757 2 0.373364 0.0667818 0.195661
758 4 0.3848 0.0748679 0.174948
23 3 0.356183 0.0300536 0.249803
742 2 0.4929 0.0789264 0.22313
20 3 0.048722 0.0915287 0.170999
578 4 0.0691073 0.0912787 0.242349
379 2 0.01171 0.146482 0.181108
381 4 0.0207072 0.137443 0.202615
512 4 0.0229945 0.156565 0.207504
511 2 0.0375363 0.162501 0.226959
477 4 0.123019 0.15378 0.172685
577 2 0.0922738 0.0965018 0.234526
579 4 0.11544 0.101725 0.226702
691 2 0.235705 0.081579 0.235344
582 4 0.2613 0.108298 0.199097
580 2 0.270402 0.110367 0.175901
743 4 0.474864 0.0941634 0.231359
513 4 0.0520781 0.168436 0.246414
363 4 0.0885982 0.234056 0.176492
393 4 0.0673391 0.178771 0.255482
279 4 0.230311 0.210207 0.171432
283 2 0.300495 0.227755 0.167133
285 4 0.320567 0.217455 0.177913
764 4 0.336951 0.226685 0.174606
520 2 0.492981 0.192047 0.226952
521 4 0.474223 0.176281 0.231927
394 2 0.999906 0.266614 0.229554
395 4 0.999661 0.288636 0.217716
648 4 0.0872266 0.333054 0.191118
361 2 0.0983897 0.247589 0.195097
371 4 0.160133 0.298863 0.21408
370 2 0.143825 0.28017 0.217211
372 4 0.127516 0.261478 0.220343
748 2 0.0900264 0.291873 0.232357
362 4 0.108181 0.261121 0.213703
749 4 0.0930446 0.274907 0.214239
343 2 0.234889 0.316145 0.238024
345 4 0.211204 0.324132 0.238642
612 4 0.248202 0.316001 0.173285
344 4 0.258575 0.308158 0.237405
308 4 0.322561 0.284675 0.213076
307 2 0.332332 0.291695 0.234995
527 4 0.461293 0.281159 0.161369
647 4 0.0649213 0.377323 0.184524
646 2 0.076074 0.355189 0.187821
263 4 0.00837113 0.402062 0.245891
415 2 0.190755 0.409345 0.178088
291 4 0.229061 0.403954 0.187819
416 4 0.211616 0.397056 0.184331
610 2 0.263843 0.331183 0.185534
289 2 0.250218 0.417255 0.187006
611 4 0.279483 0.346365 0.197783
303 4 0.31101 0.384783 0.198142
301 2 0.308082 0.375744 0.175013
729 4 0.304917 0.389983 0.216552
727 2 0.311756 0.377556 0.237143
644 4 0.410324 0.378585 0.230028
447 4 0.423078 0.381719 0.245544
595 2 0.465462 0.401511 0.177236
597 4 0.45273 0.389052 0.194781
643 2 0.423321 0.379045 0.208672
645 4 0.436318 0.379505 0.187317
264 4 0.0164993 0.447717 0.227175
262 2 0.0124352 0.424889 0.236533
417 4 0.169893 0.421633 0.171846
290 4 0.271374 0.430556 0.186193
768 4 0.268108 0.44843 0.194405
766 2 0.272084 0.467611 0.178866
231 4 0.41789 0.477807 0.23826
232 2 0.0147366 0.0343795 0.292394
233 4 0.034036 0.0269921 0.278318
1402 2 0.0766172 0.0194334 0.274857
1404 4 0.052893 0.0269306 0.272381
675 4 0.107965 0.0112719 0.258861
1403 4 0.100341 0.0119362 0.277333
1464 4 0.114907 0.0136804 0.291144
689 4 0.176731 0.018765 0.249375
723 4 0.230453 0.0861513 0.265435
1700 4 0.271764 0.05686 0.325069
699 4 0.349298 0.0751277 0.326529
697 2 0.364818 0.0558332 0.330001
698 4 0.380337 0.0365387 0.333473
478 2 0.488625 0.0558375 0.293653
480 4 0.465891 0.0588587 0.303614
351 4 0.454283 0.0731931 0.310017
398 4 0.0394922 0.149727 0.320178
692 4 0.223307 0.0982849 0.249214
721 2 0.228257 0.0937173 0.289165
722 4 0.226061 0.101283 0.312895
249 4 0.229257 0.111015 0.328879
403 2 0.243542 0.14681 0.3056
404 4 0.236673 0.129468 0.322251
405 4 0.25041 0.164152 0.288949
27 3 0.307145 0.169515 0.250267
28 3 0.286571 0.138062 0.24989
26 1 0.296963 0.153706 0.263517
29 3 0.313099 0.143352 0.276586
707 4 0.328405 0.14528 0.291161
30 3 0.281538 0.163883 0.276828
632 4 0.373101 0.113719 0.256093
633 4 0.337848 0.127678 0.288698
631 2 0.355474 0.120699 0.272396
706 2 0.339447 0.160235 0.307882
333 4 0.446242 0.122808 0.244502
331 2 0.454614 0.146304 0.246237
349 2 0.439392 0.0929996 0.306677
350 4 0.424502 0.112806 0.303337
444 4 0.0244268 0.247943 0.304817
389 4 0.0697165 0.243105 0.340695
391 2 0.0908953 0.18432 0.261766
392 4 0.114451 0.18987 0.26805
546 4 0.138535 0.20472 0.253143
544 2 0.15741 0.200586 0.269012
390 4 0.114244 0.23429 0.319712
388 2 0.0919805 0.238698 0.330203
545 4 0.176285 0.196453 0.284881
708 4 0.350489 0.17519 0.324603
717 4 0.382881 0.202509 0.326225
332 4 0.462985 0.169801 0.247972
762 4 0.4714 0.177238 0.264706
761 4 0.495087 0.177856 0.308743
760 2 0.483243 0.177547 0.286724
750 4 0.0870083 0.308838 0.250474
442 2 0.0149457 0.249886 0.281762
443 4 0.00546461 0.251829 0.258708
401 4 0.1614 0.264567 0.302438
400 2 0.181765 0.263524 0.28797
402 4 0.202131 0.26248 0.273501
676 2 0.196461 0.319092 0.314612
678 4 0.195455 0.306602 0.336249
496 2 0.309237 0.311609 0.284559
497 4 0.289663 0.319776 0.297801
377 4 0.296333 0.314704 0.31795
498 4 0.328811 0.303442 0.271317
309 4 0.342103 0.298715 0.256913
615 4 0.370526 0.317107 0.309851
541 2 0.386016 0.284348 0.33534
543 4 0.376288 0.301216 0.319655
364 2 0.02106 0.361547 0.287035
365 4 0.0360826 0.378425 0.276329
601 2 0.0726476 0.393196 0.294451
603 4 0.0540895 0.386332 0.279166
366 4 0.00603749 0.344668 0.297741
602 4 0.0912057 0.40006 0.309737
549 4 0.0933499 0.39924 0.329835
300 4 0.102429 0.344981 0.269845
298 2 0.127224 0.347758 0.268212
299 4 0.152019 0.350535 0.266579
677 4 0.197467 0.331583 0.292974
734 4 0.164396 0.363501 0.257646
733 2 0.181641 0.357818 0.274836
735 4 0.198887 0.352136 0.292025
728 4 0.318595 0.36513 0.257734
433 2 0.316953 0.374887 0.319807
435 4 0.292049 0.374342 0.321968
434 4 0.341857 0.375432 0.317646
613 2 0.363458 0.340254 0.31613
614 4 0.356389 0.363401 0.322409
445 2 0.41703 0.369561 0.266538
446 4 0.410982 0.357402 0.287533
2463 4 0.0127207 0.480971 0.311645
777 4 0.0821311 0.450608 0.310969
2690 4 0.998144 0.472471 0.301177
2461 2 0.00836789 0.497308 0.330066
775 2 0.089666 0.469153 0.325952
412 2 0.218342 0.487164 0.325021
413 4 0.227828 0.4883 0.301915
436 2 0.334673 0.457182 0.314266
1436 4 0.245864 0.493373 0.309286
1803 4 0.330012 0.490673 0.264802
437 4 0.334967 0.443361 0.293432
713 4 0.418082 0.470313 0.326621
2862 4 0.496359 0.464553 0.330618
119 3 0.478519 0.450978 0.323938
712 2 0.440474 0.460925 0.320649
714 4 0.462865 0.451537 0.314676
427 2 0.0679137 0.0149808 0.332308
428 4 0.0583313 0.0365084 0.340669
316 2 0.0524394 0.0696163 0.346452
317 4 0.0446538 0.046299 0.351021
1781 4 0.114147 0.0144366 0.39387
368 4 0.104424 0.0077587 0.409116
606 4 0.140884 0.0775644 0.348907
605 4 0.189886 0.0784454 0.358841
248 4 0.210201 0.0761466 0.35924
604 2 0.165385 0.0780049 0.353874
1701 4 0.259747 0.0154331 0.35037
1699 2 0.265756 0.0361466 0.33772
683 4 0.311185 0.062461 0.383431
257 4 0.394396 0.047838 0.342547
256 2 0.417531 0.0388018 0.339671
258 4 0.440667 0.0297655 0.336795
1428 4 0.450042 0.0160359 0.349335
2879 4 0.479528 0.0750204 0.413841
2642 4 0.495422 0.0713446 0.402604
732 4 0.0756046 0.100705 0.348975
399 4 0.0613978 0.113514 0.346814
2586 4 0.00955835 0.127954 0.390581
318 4 0.0602249 0.0929335 0.341884
397 2 0.050445 0.13162 0.333496
457 2 0.0331138 0.152179 0.419644
458 4 0.024119 0.136756 0.402139
731 4 0.124315 0.0893934 0.348794
730 2 0.09996 0.0950491 0.348884
598 2 0.139647 0.148663 0.35829
600 4 0.140336 0.126107 0.369058
247 2 0.219729 0.0935807 0.344059
682 2 0.306789 0.0845763 0.394237
684 4 0.302393 0.106692 0.405043
452 4 0.460169 0.123409 0.388177
451 2 0.451549 0.139561 0.405206
599 4 0.138957 0.171218 0.347522
686 4 0.158291 0.17604 0.413677
474 4 0.206983 0.203672 0.38201
276 4 0.196866 0.22032 0.376381
472 2 0.227466 0.189845 0.38581
274 2 0.188111 0.243716 0.377447
473 4 0.247949 0.176018 0.38961
715 2 0.388647 0.202696 0.350554
716 4 0.394413 0.202883 0.374882
467 4 0.412304 0.203685 0.384554
466 2 0.399408 0.201366 0.405849
268 2 0.470035 0.23709 0.387953
270 4 0.446971 0.227531 0.386589
347 4 0.0599909 0.291006 0.385196
346 2 0.0352313 0.294351 0.386175
618 4 0.0660207 0.309271 0.380791
348 4 0.0104718 0.297695 0.387154
616 2 0.0879116 0.30718 0.368891
617 4 0.109802 0.305088 0.356992
275 4 0.179356 0.267113 0.378513
375 4 0.181 0.302616 0.349856
373 2 0.187262 0.310971 0.372575
374 4 0.193524 0.319326 0.395294
376 2 0.281066 0.312129 0.337584
378 4 0.265799 0.309554 0.357217
488 4 0.295869 0.262812 0.407171
542 4 0.395745 0.26748 0.351024
420 4 0.412609 0.259105 0.341521
269 4 0.493098 0.24665 0.389318
418 2 0.437034 0.260812 0.346588
419 4 0.461459 0.26252 0.351655
510 4 0.212466 0.363614 0.352614
508 2 0.236546 0.368963 0.356706
509 4 0.260626 0.374311 0.360797
503 4 0.274615 0.386428 0.406544
502 2 0.250337 0.390779 0.410644
559 2 0.483401 0.400049 0.413107
561 4 0.46716 0.40819 0.395927
751 2 0.443861 0.413168 0.364156
753 4 0.431829 0.406829 0.343175
547 2 0.079289 0.413366 0.344932
548 4 0.0652282 0.427491 0.36003
407 4 0.0813083 0.429275 0.370652
500 4 0.0925396 0.507969 0.343472
406 2 0.0905811 0.433001 0.393572
570 4 0.149225 0.497517 0.410287
776 4 0.0972009 0.487698 0.340935
408 4 0.0998539 0.436728 0.416491
1555 2 0.24086 0.485784 0.400382
1556 4 0.216312 0.487125 0.395828
414 4 0.208856 0.486028 0.348128
1544 4 0.205183 0.499655 0.386681
438 4 0.334378 0.471003 0.3351
3 3 0.32149 0.464447 0.349685
5 3 0.298936 0.479538 0.375785
1 1 0.318981 0.481549 0.365164
1557 4 0.265409 0.484442 0.404937
2 3 0.319724 0.501725 0.35414
4 3 0.336251 0.480818 0.380644
594 4 0.411549 0.480593 0.342558
592 2 0.412209 0.480499 0.367553
593 4 0.41287 0.480405 0.392547
752 4 0.455893 0.419507 0.385138
118 3 0.497202 0.420264 0.336267
116 1 0.489333 0.441313 0.342049
117 3 0.47435 0.43915 0.359369
718 2 0.0643197 0.0393098 0.47322
720 4 0.0479867 0.0302089 0.489821
2237 4 0.0290379 0.02311 0.492972
719 4 0.0806527 0.0484108 0.45662
369 4 0.0970629 0.0418172 0.444984
367 2 0.100744 0.024788 0.42705
340 2 0.211814 0.0586529 0.48948
341 4 0.21783 0.0344968 0.487141
2430 4 0.224541 0.019247 0.476125
441 4 0.290864 0.0201765 0.421911
962 4 0.302734 0.0243526 0.437368
961 2 0.302515 0.0307336 0.461543
963 4 0.302295 0.0371146 0.485717
432 4 0.300698 0.0560128 0.491686
426 4 0.369855 0.0135255 0.418792
424 2 0.360228 0.0323165 0.432186
425 4 0.350601 0.0511076 0.44558
725 4 0.386338 0.0479756 0.469901
724 2 0.390997 0.0723916 0.47261
1181 4 0.251723 0.125448 0.472315
320 4 0.296369 0.102045 0.423537
321 4 0.273206 0.14628 0.426274
319 2 0.284787 0.124163 0.424906
1180 2 0.259056 0.128791 0.495985
726 4 0.395655 0.0968076 0.475319
453 4 0.442929 0.155713 0.422236
2878 2 0.479337 0.0897136 0.434071
2880 4 0.479145 0.104407 0.454301
640 2 0.490744 0.130929 0.478169
515 4 0.430692 0.151275 0.436744
514 2 0.417107 0.158534 0.456439
641 4 0.486531 0.144649 0.498643
642 4 0.494956 0.117209 0.457694
260 4 0.052121 0.183451 0.428505
459 4 0.0421087 0.167601 0.437149
259 2 0.0759423 0.185899 0.435697
685 2 0.138094 0.1812 0.427484
687 4 0.117896 0.18636 0.44129
261 4 0.0997637 0.188347 0.442889
1035 4 0.108601 0.201347 0.452622
1033 2 0.120239 0.207253 0.473949
1034 4 0.131877 0.21316 0.495276
489 4 0.311016 0.231999 0.443528
411 4 0.321892 0.215325 0.438806
487 2 0.303442 0.247405 0.42535
409 2 0.344346 0.205915 0.43311
410 4 0.3668 0.196505 0.427413
468 4 0.386512 0.199048 0.427144
575 4 0.394286 0.179859 0.488436
516 4 0.403522 0.165794 0.476135
695 4 0.0621439 0.274196 0.457082
694 2 0.0839548 0.267029 0.466986
696 4 0.105766 0.259862 0.476891
1258 2 0.13247 0.291039 0.497008
1260 4 0.116483 0.273985 0.488134
651 4 0.241249 0.285113 0.485083
649 2 0.25656 0.270288 0.498159
266 4 0.350865 0.273882 0.44528
267 4 0.394989 0.271689 0.46871
265 2 0.372927 0.272785 0.456995
583 2 0.46359 0.272689 0.484656
585 4 0.45208 0.259805 0.466581
2456 4 0.492911 0.275681 0.500504
681 4 0.00362678 0.393472 0.420255
2847 4 0.00542773 0.345799 0.4676
326 4 0.0941626 0.340024 0.456735
6 1 0.162914 0.344914 0.49341
327 4 0.137537 0.362297 0.467838
325 2 0.11585 0.35116 0.462286
7 3 0.151948 0.361124 0.481322
10 3 0.181505 0.338346 0.482013
711 4 0.173718 0.365615 0.441864
504 4 0.226058 0.395131 0.414743
709 2 0.191072 0.381323 0.433076
710 4 0.208427 0.397032 0.424288
336 4 0.318254 0.379757 0.429082
668 4 0.325183 0.400439 0.429657
667 2 0.305414 0.409745 0.441813
335 4 0.362193 0.357869 0.419543
334 2 0.340224 0.368813 0.424313
238 2 0.393207 0.376654 0.434225
240 4 0.375191 0.359327 0.434834
239 4 0.411223 0.393981 0.433617
3309 4 0.47609 0.393281 0.484693
679 2 0.00765768 0.41708 0.427439
680 4 0.0116886 0.440688 0.434623
1383 4 0.0189748 0.455472 0.447385
1381 2 0.0199153 0.479477 0.454319
384 4 0.113414 0.424077 0.478716
568 2 0.137266 0.477364 0.419006
382 2 0.112608 0.432839 0.455312
383 4 0.111802 0.441602 0.431908
569 4 0.125308 0.457211 0.427725
669 4 0.285645 0.419051 0.453969
636 4 0.268647 0.472887 0.419569
772 2 0.281984 0.429905 0.489436
635 4 0.28456 0.450175 0.461182
774 4 0.292005 0.432865 0.466721
634 2 0.276604 0.461531 0.440376
588 4 0.39897 0.460111 0.450865
882 4 0.352419 0.429264 0.473537
880 2 0.345398 0.42922 0.497535
586 2 0.404225 0.436583 0.44423
661 2 0.461427 0.479047 0.468357
663 4 0.453355 0.455866 0.463592
587 4 0.409479 0.413056 0.437596
430 2 0.311326 0.0587516 0.514152
431 4 0.321954 0.0614903 0.536618
951 4 0.266537 0.0558986 0.587611
1031 4 0.265427 0.0740806 0.577268
841 2 0.359358 0.0699107 0.539029
842 4 0.382166 0.0719914 0.528996
843 4 0.336551 0.06783 0.549063
1217 4 0.393074 0.0603305 0.517103
1216 2 0.411376 0.043548 0.520032
1218 4 0.429678 0.0267656 0.52296
3007 2 0.48843 0.0459732 0.580434
1128 4 0.00936069 0.101292 0.580322
937 2 0.101977 0.161915 0.553789
1059 4 0.134577 0.12093 0.570443
1151 4 0.17204 0.124309 0.51634
939 4 0.124944 0.155113 0.560959
1057 2 0.13309 0.0978524 0.57995
1155 4 0.129732 0.139926 0.573874
342 4 0.205798 0.082809 0.491818
1030 2 0.247138 0.0875319 0.566791
1152 4 0.212447 0.0975145 0.504089
1150 2 0.192243 0.110912 0.510215
1032 4 0.228849 0.100983 0.556314
1182 4 0.266389 0.132134 0.519654
877 2 0.0566313 0.212954 0.581948
879 4 0.0785976 0.202477 0.587683
470 4 0.0282067 0.159983 0.538252
469 2 0.0265794 0.180845 0.524566
878 4 0.034665 0.223432 0.576214
471 4 0.024952 0.201707 0.51088
938 4 0.0790092 0.168717 0.546618
858 4 0.207629 0.22888 0.544901
856 2 0.204856 0.240103 0.522731
898 2 0.307906 0.180837 0.56714
900 4 0.30123 0.177723 0.543247
576 4 0.362703 0.192789 0.524988
574 2 0.378494 0.186324 0.506712
3159 4 0.477615 0.185497 0.565557
3157 2 0.498655 0.194691 0.555658
906 4 0.456597 0.244507 0.573764
983 4 0.0167778 0.303341 0.529617
1245 4 0.0411188 0.303681 0.566734
1243 2 0.0451417 0.280037 0.573802
982 2 0.0201951 0.322554 0.545248
1244 4 0.0491647 0.256393 0.58087
9 3 0.14866 0.326849 0.49639
1259 4 0.148457 0.308093 0.505883
798 4 0.193943 0.290807 0.584648
857 4 0.202083 0.251326 0.50056
650 4 0.271871 0.255464 0.511235
872 4 0.34898 0.284865 0.537128
871 2 0.355286 0.308315 0.543088
873 4 0.361591 0.331765 0.549048
3065 4 0.498098 0.260188 0.511277
953 4 0.436906 0.249774 0.571617
904 2 0.476995 0.258903 0.575127
952 2 0.423333 0.269231 0.579514
905 4 0.497393 0.273299 0.576489
584 4 0.475099 0.285573 0.502732
984 4 0.0236123 0.341768 0.56088
3354 4 0.0117016 0.35637 0.569367
3352 2 0.00288772 0.377835 0.560052
1189 2 0.226318 0.38058 0.576512
1190 4 0.243697 0.37004 0.56195
8 3 0.168956 0.35372 0.514011
803 4 0.257315 0.36053 0.550969
802 2 0.267105 0.357864 0.528116
804 4 0.276895 0.355198 0.505264
1239 4 0.331497 0.339085 0.586373
813 4 0.36388 0.347742 0.537296
928 2 0.339465 0.376225 0.579463
811 2 0.379398 0.365382 0.528741
929 4 0.354647 0.3939 0.570393
812 4 0.394916 0.383022 0.520185
927 4 0.410728 0.387206 0.530414
926 4 0.447819 0.376833 0.56231
925 2 0.429273 0.38202 0.546362
539 4 0.0672829 0.46985 0.533711
538 2 0.088716 0.480733 0.52683
540 4 0.110149 0.491617 0.519949
1160 4 0.131637 0.459305 0.583644
773 4 0.271963 0.426946 0.512152
881 4 0.338376 0.429176 0.521532
1002 4 0.39882 0.444632 0.552299
1000 2 0.418965 0.458752 0.547825
1001 4 0.439109 0.472871 0.543351
823 2 0.125603 0.00529305 0.631744
1058 4 0.131602 0.0747744 0.589456
825 4 0.114332 0.0275634 0.633218
949 2 0.290051 0.0484799 0.591761
950 4 0.313565 0.0410613 0.595912
2283 4 0.403432 0.0238807 0.636287
3008 4 0.468951 0.0535435 0.594162
809 4 0.462332 0.0695337 0.602049
808 2 0.45864 0.0811495 0.62388
2281 2 0.423249 0.00869133 0.634971
42 3 0.447698 0.0804644 0.66465
1083 4 0.0509115 0.0922163 0.612063
1126 2 0.0327953 0.0954105 0.586757
1081 2 0.0558562 0.0945157 0.636464
1127 4 0.05623 0.0895291 0.593192
1082 4 0.060801 0.0968151 0.660866
1153 2 0.148199 0.14937 0.587836
1283 4 0.15551 0.0889572 0.644976
1154 4 0.166667 0.158813 0.601799
1221 4 0.184419 0.158068 0.593871
810 4 0.454948 0.0927653 0.645712
45 3 0.45767 0.113548 0.650544
3424 2 0.495056 0.12533 0.658856
3425 4 0.473579 0.114576 0.665803
1199 4 0.0187671 0.211755 0.576129
1272 4 0.085005 0.218442 0.597478
1270 2 0.108612 0.225855 0.593883
1271 4 0.132219 0.233269 0.590289
1212 4 0.227302 0.192492 0.626662
1219 2 0.204432 0.167071 0.605854
1220 4 0.224445 0.176073 0.617838
1210 2 0.243073 0.198132 0.645227
899 4 0.314582 0.18395 0.591034
1211 4 0.258844 0.203772 0.663792
1193 4 0.358712 0.173033 0.646587
1192 2 0.339625 0.176601 0.66234
1136 4 0.123311 0.303332 0.59857
948 4 0.137632 0.292167 0.604615
946 2 0.159608 0.28375 0.596163
1135 2 0.127632 0.327872 0.600645
796 2 0.214127 0.281854 0.596379
947 4 0.181583 0.275334 0.587712
797 4 0.234312 0.272901 0.60811
791 4 0.246542 0.287011 0.606214
792 4 0.29633 0.285998 0.610773
790 2 0.271436 0.286504 0.608493
1238 4 0.308324 0.297608 0.601974
1237 2 0.31991 0.318347 0.594173
805 2 0.339936 0.316497 0.664631
954 4 0.40976 0.288689 0.587411
806 4 0.344992 0.330604 0.644616
3123 4 0.495249 0.251947 0.65807
1039 2 0.0708426 0.410204 0.63982
1041 4 0.0465777 0.415248 0.643129
3264 4 0.0315211 0.402802 0.644287
3262 2 0.0253443 0.378653 0.642331
3263 4 0.0191676 0.354503 0.640375
3240 4 0.0141831 0.412894 0.645115
1040 4 0.0951074 0.405159 0.636512
993 4 0.100354 0.386011 0.64303
1137 4 0.131953 0.352411 0.602721
897 4 0.150603 0.360464 0.604413
991 2 0.117641 0.377775 0.626952
992 4 0.134928 0.369539 0.610873
1172 4 0.215789 0.410055 0.589856
1191 4 0.208939 0.39112 0.591074
896 4 0.190314 0.390375 0.599022
895 2 0.170458 0.37542 0.601718
1029 4 0.233363 0.405753 0.666536
930 4 0.324284 0.358549 0.588534
1204 2 0.408615 0.403852 0.653798
1205 4 0.384977 0.396289 0.656837
1206 4 0.432253 0.411414 0.650759
1159 2 0.147865 0.477843 0.587904
1161 4 0.164094 0.496381 0.592163
1171 2 0.222461 0.43398 0.592728
1173 4 0.229133 0.457905 0.595601
1187 4 0.225565 0.476486 0.601097
1186 2 0.204329 0.48902 0.59696
1140 4 0.241673 0.423379 0.659909
1952 4 0.328236 0.476834 0.586725
889 2 0.301157 0.47784 0.62206
891 4 0.287241 0.477576 0.642831
890 4 0.315073 0.478104 0.601288
1230 4 0.371208 0.481096 0.659229
1269 4 0.438535 0.466158 0.655152
1267 2 0.455038 0.482967 0.646767
943 2 0.0481061 0.0474175 0.673482
945 4 0.0298403 0.0310194 0.668723
944 4 0.066372 0.0638155 0.67824
2989 2 0.00085497 0.062642 0.745173
1147 2 0.22286 0.0613288 0.723486
1149 4 0.235796 0.0435128 0.711636
1148 4 0.209925 0.0791447 0.735337
1004 4 0.385941 0.0610816 0.693379
1163 4 0.46395 0.0823229 0.680875
1162 2 0.475041 0.062187 0.690709
2320 2 0.483419 0.0284872 0.734556
2321 4 0.489247 0.0261128 0.710358
1164 4 0.486133 0.042051 0.700543
4581 4 0.4944 0.00890989 0.703297
1076 4 0.061552 0.0832501 0.674405
862 2 0.0403863 0.106249 0.745824
864 4 0.0554584 0.112011 0.726724
1075 2 0.060242 0.100766 0.6922
1077 4 0.0589319 0.118282 0.709995
1107 4 0.066152 0.12967 0.723581
851 4 0.0539275 0.136196 0.70797
1105 2 0.0837686 0.139097 0.738612
850 2 0.0496502 0.15847 0.697445
1282 2 0.142992 0.0914907 0.666471
1284 4 0.130473 0.0940242 0.687967
908 4 0.201076 0.159574 0.703805
907 2 0.182476 0.164419 0.687812
1227 4 0.206048 0.146116 0.717314
1225 2 0.205852 0.121356 0.720785
1226 4 0.205655 0.0965948 0.724256
829 2 0.326602 0.151273 0.711328
830 4 0.313253 0.153242 0.690278
1003 2 0.380901 0.0833064 0.683092
1005 4 0.37586 0.105531 0.672805
831 4 0.339952 0.149304 0.732378
43 3 0.431151 0.111785 0.677214
41 1 0.451045 0.102712 0.669447
44 3 0.467458 0.104482 0.685753
852 4 0.0453729 0.180743 0.68692
1073 4 0.133709 0.21205 0.749828
1072 2 0.120892 0.233193 0.746101
1074 4 0.108074 0.254335 0.742374
909 4 0.163876 0.169263 0.67182
978 4 0.245051 0.233584 0.743899
1194 4 0.320539 0.18017 0.678093
888 4 0.264388 0.190494 0.676647
886 2 0.285906 0.177759 0.676696
887 4 0.307424 0.165025 0.676746
1025 4 0.438808 0.183944 0.670784
1262 4 0.442303 0.21942 0.723337
1142 4 0.437915 0.182551 0.726112
1024 2 0.437846 0.19235 0.694313
1141 2 0.446132 0.175371 0.748609
1026 4 0.436884 0.200756 0.717842
1261 2 0.462026 0.233954 0.728332
1145 4 0.48327 0.192946 0.711372
1209 4 0.147496 0.291053 0.695333
1207 2 0.124051 0.28245 0.696565
1208 4 0.100607 0.273847 0.697797
821 4 0.153983 0.309544 0.690883
820 2 0.177231 0.302233 0.685292
822 4 0.200479 0.294921 0.679701
1063 2 0.238748 0.311714 0.701096
1064 4 0.24222 0.299091 0.679794
1065 4 0.235275 0.324338 0.722398
916 2 0.316627 0.267848 0.748126
917 4 0.326688 0.290144 0.742947
807 4 0.33488 0.302391 0.684647
1263 4 0.481749 0.248488 0.733328
892 2 0.0245976 0.357756 0.711023
893 4 0.0150181 0.334815 0.708361
894 4 0.034177 0.380698 0.713685
1280 4 0.0529796 0.386942 0.71582
1279 2 0.0493816 0.411558 0.713316
816 4 0.0660272 0.379167 0.729105
814 2 0.0815492 0.364325 0.741909
1028 4 0.196831 0.389997 0.696833
1066 2 0.182941 0.37724 0.729191
1068 4 0.192506 0.373311 0.706425
1027 2 0.215097 0.397875 0.681684
1019 4 0.367175 0.377136 0.734008
1981 2 0.0693424 0.458375 0.73766
1281 4 0.0457837 0.436175 0.710813
1983 4 0.0565203 0.451537 0.717312
1176 4 0.201045 0.493779 0.72068
2016 4 0.184612 0.493679 0.731674
1138 2 0.253744 0.436456 0.677472
1139 4 0.265816 0.449533 0.695035
1988 4 0.313777 0.458974 0.749286
1987 2 0.325334 0.456379 0.727267
1989 4 0.336892 0.453784 0.705247
1228 2 0.354213 0.476525 0.67699
1229 4 0.337218 0.471955 0.694751
1100 4 0.39255 0.487012 0.703679
1099 2 0.416498 0.494197 0.70342
1101 4 0.440445 0.501382 0.703161
2991 4 0.99881 0.0381849 0.749953
1202 4 0.108949 0.0233888 0.75494
2049 4 0.118088 0.0165103 0.77126
1203 4 0.117856 0.0723816 0.759532
1201 2 0.113402 0.0478852 0.757236
1257 4 0.215829 0.072331 0.788744
1255 2 0.236141 0.0821618 0.799512
817 2 0.328718 0.0438552 0.805333
819 4 0.315768 0.0644665 0.811048
818 4 0.341668 0.023244 0.799618
1050 4 0.33426 0.00214753 0.776021
974 4 0.348549 0.00675824 0.790178
1113 4 0.404084 0.0785555 0.790505
2322 4 0.47759 0.0308616 0.758755
844 2 0.492128 0.0814463 0.786061
845 4 0.4705 0.0850537 0.798078
1111 2 0.42853 0.0835053 0.788745
834 4 0.0135164 0.125711 0.818907
863 4 0.0253142 0.100487 0.764924
833 4 0.0205834 0.119083 0.769848
832 2 0.0170499 0.122397 0.794378
911 4 0.121016 0.129587 0.824999
34 3 0.130395 0.135893 0.781599
31 1 0.124062 0.142861 0.802807
35 3 0.104997 0.132134 0.80914
32 3 0.140896 0.137784 0.817638
1106 4 0.101385 0.148525 0.753644
1085 4 0.304228 0.0817473 0.811805
840 4 0.263182 0.10398 0.825037
1256 4 0.256453 0.0919926 0.810279
1084 2 0.299129 0.102655 0.799075
1086 4 0.294029 0.123562 0.786345
960 4 0.305183 0.0915094 0.828261
1112 4 0.452975 0.088455 0.786985
47 3 0.43873 0.173175 0.82304
1214 4 0.017775 0.225744 0.772063
1213 2 0.00466444 0.225363 0.750775
33 3 0.120641 0.165811 0.802911
1130 4 0.164839 0.212661 0.798446
1129 2 0.182017 0.218709 0.781314
1131 4 0.199196 0.224757 0.764182
1277 4 0.207445 0.242294 0.770486
976 2 0.268651 0.234436 0.752114
977 4 0.292251 0.235289 0.760329