ITEM: TIMESTEP
780000
ITEM: NUMBER OF ATOMS
4590
ITEM: BOX BOUNDS pp pp pp
-9.9985700000000008e+00 9.9985700000000008e+00
-9.9985700000000008e+00 9.9985700000000008e+00
-9.9985700000000008e+00 9.9985700000000008e+00
ITEM: ATOMS id type xs ys zs
1668 4 0.083339 0.0404201 0.0650479
1475 4 0.284782 0.0228521 0.0667056
492 4 0.27333 0.0372843 0.0738465
747 4 0.446135 0.0505652 0.0224805
2974 2 0.468 0.0173808 0.0286487
2976 4 0.485842 0.0032629 0.0390181
2468 4 0.493492 0.00627465 0.056025
2975 4 0.450158 0.0314988 0.0182792
986 4 0.428676 0.0507696 0.0112629
745 2 0.438145 0.074138 0.0248592
566 4 0.163342 0.158765 0.0752449
567 4 0.199243 0.151113 0.041285
565 2 0.181293 0.154939 0.0582649
297 4 0.317669 0.0853666 0.061384
358 2 0.322407 0.146471 0.0696461
360 4 0.331329 0.160783 0.0511868
295 2 0.341579 0.0926226 0.0623193
296 4 0.365488 0.0998786 0.0632546
557 4 0.375824 0.108226 0.048355
556 2 0.394694 0.105756 0.0321376
558 4 0.413564 0.103286 0.0159202
769 2 0.414413 0.160175 0.0661744
770 4 0.393411 0.162303 0.0527732
746 4 0.430155 0.0977108 0.0272379
771 4 0.435414 0.158048 0.0795756
554 4 0.0724549 0.234358 0.00805529
664 2 0.350671 0.202409 0.0186767
665 4 0.352936 0.191348 0.0409859
323 4 0.422852 0.239651 0.0575124
553 2 0.0782692 0.255941 0.0192599
555 4 0.0840834 0.277524 0.0304644
293 4 0.152042 0.296201 0.0217098
507 4 0.15775 0.300763 0.0402711
287 4 0.160826 0.320792 0.04413
505 2 0.175376 0.29304 0.0562349
483 4 0.209143 0.277222 0.076536
506 4 0.193003 0.285318 0.0721988
481 2 0.231844 0.270066 0.0688775
573 4 0.269952 0.269831 0.0501584
482 4 0.254545 0.262911 0.0612189
572 4 0.310031 0.267688 0.0203298
571 2 0.289992 0.268759 0.0352441
357 4 0.300129 0.273117 0.00344655
957 4 0.337024 0.308658 0.0115387
1069 2 0.387197 0.287039 0.00798796
1070 4 0.411294 0.283514 0.0136536
1071 4 0.363101 0.290563 0.00232234
741 4 0.368068 0.331816 0.0501406
739 2 0.357005 0.333718 0.0724825
322 2 0.422654 0.252541 0.0360884
324 4 0.422456 0.265431 0.0146643
671 4 0.448206 0.329042 0.0756823
280 2 0.435799 0.308305 0.037774
281 4 0.446925 0.31752 0.0581819
282 4 0.424673 0.299091 0.017366
551 4 0.070801 0.400986 0.0734553
620 4 0.996997 0.338295 0.050257
550 2 0.0938507 0.393608 0.0797359
552 4 0.1169 0.386229 0.0860165
288 4 0.163448 0.369469 0.0329805
286 2 0.162137 0.345131 0.0385553
250 2 0.316255 0.4127 0.0397318
251 4 0.321938 0.402309 0.017711
330 4 0.022334 0.413815 0.00406576
245 4 0.223734 0.430455 0.0599358
626 4 0.209511 0.44113 0.0676767
244 2 0.233135 0.443788 0.0409878
246 4 0.242537 0.457121 0.0220399
272 4 0.24876 0.444887 0.00879453
252 4 0.310572 0.423091 0.0617526
609 4 0.298792 0.433346 0.0734578
563 4 0.455173 0.482479 0.0575719
228 4 0.470013 0.475351 0.0698327
226 2 0.470891 0.451997 0.0787219
19 3 0.042145 0.0653335 0.146931
1666 2 0.0785301 0.0598489 0.0800337
1667 4 0.0737211 0.0792778 0.0950194
18 3 0.0703914 0.052761 0.169033
1539 4 0.160366 0.000992147 0.143668
448 2 0.171172 0.0744076 0.158846
450 4 0.179423 0.0537133 0.170197
490 2 0.269355 0.0565298 0.0893058
652 2 0.291509 0.0201848 0.164887
653 4 0.304716 0.0414011 0.164095
491 4 0.26538 0.0757752 0.104765
654 4 0.278302 0.998969 0.16568
1506 4 0.258883 0.995907 0.162307
311 4 0.389471 0.0692672 0.161041
2722 2 0.47243 0.0432599 0.125239
2723 4 0.459436 0.0557481 0.107907
2724 4 0.485423 0.0307718 0.142571
1760 4 0.494643 0.0145701 0.146509
2744 4 0.501086 0.0291811 0.156262
701 4 0.0784482 0.0879841 0.112721
700 2 0.083858 0.11154 0.119126
702 4 0.0892678 0.135096 0.125531
476 4 0.0925884 0.151909 0.135274
475 2 0.109934 0.162615 0.149755
449 4 0.162921 0.0951019 0.147495
237 4 0.188161 0.157688 0.15673
235 2 0.181893 0.133604 0.15431
236 4 0.175625 0.10952 0.15189
737 4 0.205378 0.170961 0.128141
359 4 0.313485 0.13216 0.0881054
581 4 0.297059 0.124923 0.151948
310 2 0.396511 0.0884396 0.146618
628 2 0.402146 0.145054 0.121232
630 4 0.39022 0.166109 0.114937
629 4 0.414072 0.123999 0.127527
312 4 0.403551 0.107612 0.132194
254 4 0.373149 0.160332 0.108241
339 4 0.0643654 0.242859 0.12694
2625 4 0.0140943 0.189258 0.120844
337 2 0.0782536 0.239015 0.147373
736 2 0.190201 0.187767 0.11754
738 4 0.175024 0.204574 0.106939
461 4 0.310782 0.243517 0.086379
460 2 0.329341 0.226788 0.0873234
354 4 0.294723 0.247156 0.0977896
284 4 0.287189 0.232164 0.161917
278 4 0.269445 0.239389 0.158433
352 2 0.287157 0.243638 0.12136
353 4 0.279591 0.24012 0.14493
462 4 0.347901 0.21006 0.0882677
255 4 0.358824 0.208181 0.10579
253 2 0.365986 0.184257 0.107016
765 4 0.378982 0.249595 0.145239
763 2 0.36168 0.23969 0.160329
518 4 0.484995 0.2411 0.112743
528 4 0.472523 0.233425 0.127156
536 4 0.197881 0.299372 0.1096
535 2 0.203893 0.323358 0.113301
756 4 0.248501 0.300583 0.159514
754 2 0.258902 0.278457 0.154273
755 4 0.269303 0.256332 0.149032
624 4 0.389753 0.262768 0.135429
622 2 0.382744 0.256171 0.112353
623 4 0.375736 0.249574 0.0892757
672 4 0.411067 0.327577 0.109137
670 2 0.429636 0.32831 0.0924096
526 2 0.467892 0.251123 0.144201
527 4 0.463261 0.26882 0.161246
455 4 0.135265 0.379323 0.0871244
454 2 0.158982 0.387069 0.088757
456 4 0.1827 0.394814 0.0903896
537 4 0.209904 0.347345 0.117003
302 4 0.312552 0.361886 0.157856
387 4 0.321783 0.349052 0.14628
385 2 0.335292 0.351103 0.12534
740 4 0.345941 0.33562 0.0948243
15 3 0.367331 0.358721 0.103126
386 4 0.348802 0.353153 0.104401
11 1 0.389313 0.360575 0.108784
13 3 0.391533 0.361031 0.131877
14 3 0.398252 0.37991 0.0995842
495 4 0.409449 0.393308 0.0915147
12 3 0.400809 0.342425 0.100565
315 4 0.00322081 0.433792 0.110628
314 4 0.99402 0.421691 0.158268
313 2 0.998621 0.427741 0.134448
625 2 0.197168 0.44928 0.0878357
627 4 0.184824 0.457431 0.107995
607 2 0.317387 0.438534 0.0893482
767 4 0.275076 0.490806 0.166423
608 4 0.335981 0.443723 0.105239
658 2 0.364531 0.452894 0.114644
659 4 0.348444 0.455193 0.0956405
660 4 0.380617 0.450596 0.133647
493 2 0.416736 0.416216 0.0983944
596 4 0.471676 0.427349 0.16236
494 4 0.424022 0.439123 0.105274
227 4 0.47177 0.428644 0.0876112
16 1 0.0504546 0.0646238 0.168584
17 3 0.0351618 0.0539781 0.182073
2480 4 0.024455 0.0389946 0.188736
1422 4 0.0219806 0.0227773 0.175452
1420 2 0.0241742 0.997922 0.173845
673 2 0.116714 0.021511 0.229075
674 4 0.124003 0.0130144 0.206718
693 4 0.243378 0.0807458 0.201068
691 2 0.243049 0.0771646 0.225811
689 4 0.168662 0.0139597 0.21759
24 3 0.323043 0.0570088 0.237458
21 1 0.343348 0.0480037 0.23075
25 3 0.341781 0.0403937 0.209342
759 4 0.358426 0.0569548 0.210836
22 3 0.359461 0.0643873 0.231806
757 2 0.368142 0.0686035 0.190959
758 4 0.377858 0.0802523 0.171082
23 3 0.349373 0.0306337 0.244905
742 2 0.487663 0.0773252 0.228347
20 3 0.0538255 0.08578 0.176311
578 4 0.0762449 0.100987 0.227335
379 2 0.00960951 0.135425 0.181386
381 4 0.020673 0.133596 0.203734
512 4 0.0288185 0.151782 0.202709
511 2 0.0415895 0.16204 0.2216
477 4 0.127279 0.173322 0.164235
577 2 0.100311 0.0950583 0.230628
579 4 0.124377 0.0891299 0.233922
582 4 0.259825 0.112623 0.182981
580 2 0.278442 0.118773 0.167465
28 3 0.29665 0.140449 0.263229
632 4 0.370449 0.111849 0.24462
743 4 0.471823 0.0926677 0.240132
333 4 0.439862 0.133361 0.233342
331 2 0.459332 0.148026 0.23891
396 4 0.00184352 0.240435 0.246508
513 4 0.0543604 0.172298 0.24049
338 4 0.0921419 0.235171 0.167807
363 4 0.0857379 0.230465 0.185426
361 2 0.0949872 0.24894 0.199508
277 2 0.252742 0.223994 0.168881
279 4 0.236038 0.208599 0.179329
283 2 0.308246 0.230946 0.175344
285 4 0.329304 0.229728 0.188772
27 3 0.313005 0.167773 0.243265
764 4 0.344378 0.229786 0.175419
520 2 0.492682 0.185937 0.213259
521 4 0.475784 0.174801 0.227943
332 4 0.478803 0.162691 0.244478
394 2 0.00922089 0.259035 0.231515
395 4 0.0165983 0.277635 0.216522
750 4 0.084609 0.307479 0.253388
371 4 0.163068 0.301402 0.220237
370 2 0.139572 0.293247 0.217667
372 4 0.116076 0.285091 0.215096
748 2 0.085187 0.291714 0.233989
362 4 0.104237 0.267415 0.21359
749 4 0.085765 0.275948 0.214591
343 2 0.240554 0.310384 0.236183
612 4 0.244464 0.319159 0.161974
344 4 0.256964 0.308657 0.217398
610 2 0.253619 0.328739 0.183177
308 4 0.333621 0.285188 0.213554
307 2 0.331375 0.29237 0.237398
648 4 0.0846394 0.343325 0.16905
647 4 0.0855593 0.370817 0.210811
646 2 0.0850993 0.357071 0.189931
415 2 0.204608 0.40003 0.180187
291 4 0.240922 0.393938 0.200023
416 4 0.228716 0.394381 0.183663
417 4 0.1805 0.405679 0.176711
289 2 0.256075 0.41322 0.195147
611 4 0.262775 0.33832 0.20438
303 4 0.294982 0.370263 0.203919
301 2 0.303767 0.366075 0.180888
729 4 0.305073 0.384125 0.214757
727 2 0.308427 0.372245 0.236501
644 4 0.420286 0.362252 0.233499
595 2 0.458384 0.41115 0.176002
597 4 0.445093 0.394951 0.189643
643 2 0.424609 0.372623 0.211163
645 4 0.428933 0.382994 0.188826
1757 4 0.0627552 0.48522 0.234643
1756 2 0.0787557 0.503519 0.2405
1467 4 0.0070795 0.503883 0.185269
264 4 0.0239716 0.435837 0.250039
262 2 0.00866689 0.419378 0.239084
638 4 0.261348 0.503278 0.159493
290 4 0.271228 0.432502 0.190271
768 4 0.280295 0.449009 0.193377
766 2 0.277686 0.469908 0.1799
231 4 0.42319 0.474853 0.221784
232 2 0.0186891 0.0375814 0.291515
233 4 0.0403306 0.0350586 0.279249
1402 2 0.0843854 0.0289413 0.272832
1404 4 0.060006 0.0338976 0.275334
675 4 0.109424 0.0300077 0.251433
1403 4 0.108765 0.023985 0.27033
1464 4 0.111019 0.00499137 0.273615
692 4 0.24272 0.0735833 0.250555
699 4 0.36149 0.0822315 0.322778
478 2 0.48789 0.0655298 0.300475
480 4 0.47211 0.0798713 0.313532
351 4 0.453061 0.084303 0.308359
393 4 0.0577539 0.16427 0.25915
398 4 0.0364231 0.146368 0.326812
397 2 0.0480647 0.124892 0.332143
723 4 0.235196 0.0840775 0.265971
721 2 0.231411 0.093132 0.288968
722 4 0.227626 0.102187 0.311965
249 4 0.230363 0.115577 0.326414
403 2 0.250999 0.147126 0.317291
404 4 0.241031 0.12994 0.332473
405 4 0.260966 0.164312 0.30211
26 1 0.308033 0.160625 0.264557
29 3 0.327824 0.157795 0.276334
707 4 0.334364 0.143142 0.287483
633 4 0.353284 0.1392 0.282804
631 2 0.361867 0.125525 0.263712
706 2 0.339058 0.155321 0.308809
350 4 0.403127 0.0859993 0.310469
349 2 0.428094 0.0851511 0.309414
444 4 0.0294687 0.243804 0.302051
391 2 0.0823847 0.16843 0.260245
442 2 0.0198951 0.235546 0.280479
443 4 0.0103215 0.227288 0.258908
392 4 0.107015 0.172589 0.261341
546 4 0.159487 0.199363 0.249729
544 2 0.170153 0.211928 0.268532
390 4 0.113674 0.24755 0.309184
388 2 0.0931816 0.245619 0.323379
545 4 0.180819 0.224492 0.287335
30 3 0.295023 0.176223 0.274859
708 4 0.343753 0.1675 0.330136
717 4 0.381539 0.213468 0.322903
762 4 0.480046 0.169518 0.263549
761 4 0.46955 0.196142 0.304558
760 2 0.474798 0.18283 0.284054
300 4 0.104522 0.34038 0.261715
345 4 0.224143 0.31211 0.254969
401 4 0.177661 0.269983 0.31248
400 2 0.188146 0.262751 0.290964
402 4 0.198631 0.255519 0.269447
676 2 0.196637 0.323084 0.319817
496 2 0.310407 0.316517 0.297768
497 4 0.30069 0.328093 0.317686
377 4 0.284543 0.322825 0.326627
498 4 0.320124 0.30494 0.27785
309 4 0.329128 0.299552 0.261242
615 4 0.370192 0.325412 0.315371
541 2 0.385356 0.28759 0.325632
543 4 0.36925 0.30663 0.323823
542 4 0.401461 0.26855 0.327441
364 2 0.0128926 0.365111 0.292219
365 4 0.0297239 0.38176 0.284175
601 2 0.0631647 0.395422 0.2904
603 4 0.0440846 0.390721 0.274939
366 4 0.996061 0.348462 0.300262
602 4 0.0822448 0.400123 0.30586
549 4 0.0926156 0.407445 0.320739
298 2 0.128887 0.340883 0.256123
299 4 0.153252 0.341387 0.250532
677 4 0.20139 0.339635 0.301688
734 4 0.167436 0.354275 0.255932
733 2 0.185454 0.355442 0.273228
735 4 0.203473 0.35661 0.290523
728 4 0.31178 0.360365 0.258245
433 2 0.310005 0.372303 0.321481
435 4 0.287795 0.367761 0.33203
434 4 0.332214 0.376846 0.310933
447 4 0.415509 0.371776 0.250946
613 2 0.359866 0.348142 0.31675
614 4 0.34954 0.370871 0.318129
445 2 0.409057 0.358174 0.270909
446 4 0.402605 0.344572 0.290872
2463 4 0.018991 0.483893 0.302312
777 4 0.0807396 0.460697 0.30244
2690 4 0.00114821 0.478113 0.297076
2461 2 0.0141253 0.497243 0.322885
775 2 0.0915225 0.474593 0.320211
412 2 0.218681 0.485673 0.32784
413 4 0.236405 0.498235 0.31546
1437 4 0.291639 0.498776 0.314791
436 2 0.327263 0.464228 0.320508
1803 4 0.353007 0.48983 0.272329
437 4 0.334098 0.45332 0.299072
712 2 0.444248 0.45272 0.33171
714 4 0.467838 0.448692 0.324467
427 2 0.0734598 0.0133948 0.337719
428 4 0.0600457 0.0335698 0.343901
316 2 0.0549094 0.0655328 0.340284
317 4 0.0461876 0.0433118 0.332845
1781 4 0.112012 0.00920571 0.396658
368 4 0.118531 0.0110487 0.415974
1700 4 0.282324 0.0501795 0.341072
1701 4 0.267565 0.00240036 0.341258
1699 2 0.274944 0.02629 0.341165
683 4 0.305232 0.0561332 0.392182
682 2 0.299213 0.0793601 0.399214
697 2 0.373695 0.0662569 0.337645
698 4 0.3859 0.0502823 0.352512
257 4 0.393506 0.0349114 0.342181
256 2 0.418414 0.0327742 0.341698
258 4 0.443321 0.0306369 0.341216
1428 4 0.44434 0.0109493 0.341724
2879 4 0.480924 0.072348 0.409367
2642 4 0.500091 0.0651125 0.407874
732 4 0.0699724 0.104375 0.355116
399 4 0.0597064 0.103415 0.337473
2586 4 0.00966626 0.129882 0.387087
318 4 0.0636311 0.0877538 0.347723
457 2 0.0307564 0.155466 0.414272
458 4 0.0148133 0.144176 0.398666
606 4 0.132415 0.0897337 0.349118
604 2 0.156634 0.0855246 0.344547
731 4 0.11992 0.104789 0.352705
730 2 0.094946 0.104582 0.35391
598 2 0.146915 0.142642 0.367859
600 4 0.133602 0.134765 0.387503
599 4 0.160228 0.15052 0.348215
605 4 0.180854 0.0813156 0.339977
248 4 0.194707 0.091904 0.352277
247 2 0.212535 0.10374 0.339346
684 4 0.293194 0.102587 0.406247
452 4 0.455414 0.127603 0.40247
451 2 0.43939 0.136234 0.419613
389 4 0.0726892 0.243689 0.337575
686 4 0.151463 0.17263 0.415682
474 4 0.208277 0.19873 0.381777
276 4 0.203098 0.217631 0.376669
472 2 0.225208 0.180333 0.382004
274 2 0.18785 0.237415 0.37554
473 4 0.242139 0.161935 0.38223
715 2 0.399229 0.206594 0.339182
716 4 0.416919 0.199719 0.35546
467 4 0.412342 0.19942 0.374488
466 2 0.403009 0.194529 0.397163
468 4 0.393676 0.189639 0.419838
268 2 0.467576 0.235417 0.383713
270 4 0.442888 0.239258 0.384695
347 4 0.0637202 0.287618 0.364984
346 2 0.0444396 0.296196 0.378395
618 4 0.0736412 0.301125 0.377364
348 4 0.025159 0.304774 0.391806
616 2 0.0966578 0.305541 0.368652
617 4 0.119674 0.309958 0.359939
678 4 0.191884 0.306534 0.337947
275 4 0.172603 0.257199 0.374411
375 4 0.178492 0.307551 0.352195
373 2 0.186002 0.310654 0.375842
374 4 0.193512 0.313756 0.399488
376 2 0.277088 0.305776 0.343329
378 4 0.269633 0.288728 0.360031
420 4 0.411276 0.264145 0.344507
418 2 0.436067 0.26709 0.343124
419 4 0.460858 0.270036 0.341742
2928 4 0.998816 0.375143 0.407059
510 4 0.217857 0.36265 0.345886
508 2 0.239405 0.365929 0.358138
509 4 0.260954 0.369209 0.370389
561 4 0.470497 0.396525 0.406235
751 2 0.455041 0.413999 0.372498
753 4 0.445691 0.414356 0.349312
752 4 0.464391 0.413641 0.395685
547 2 0.0809497 0.41853 0.339875
548 4 0.0692837 0.429615 0.359012
407 4 0.070675 0.425707 0.37819
406 2 0.0864419 0.43027 0.397052
570 4 0.140768 0.493868 0.412933
776 4 0.102305 0.48849 0.337981
1555 2 0.239449 0.489013 0.412825
1556 4 0.216051 0.492112 0.404574
414 4 0.200958 0.473111 0.340219
438 4 0.320428 0.475135 0.341943
3 3 0.30303 0.468702 0.355294
5 3 0.299726 0.503569 0.369116
1 1 0.313992 0.486079 0.366077
2 3 0.331694 0.492911 0.353073
4 3 0.322101 0.478823 0.386571
1742 4 0.41392 0.490857 0.346135
594 4 0.42067 0.472392 0.351427
592 2 0.411585 0.472137 0.37472
593 4 0.402499 0.471881 0.398013
713 4 0.420658 0.456748 0.338952
2862 4 0.497956 0.468769 0.338471
119 3 0.478514 0.455569 0.340112
116 1 0.494431 0.449263 0.355773
117 3 0.486702 0.454564 0.376781
718 2 0.0614001 0.0282994 0.462373
720 4 0.0480532 0.0111656 0.474762
2237 4 0.0346737 0.0206366 0.487719
719 4 0.0747469 0.0454333 0.449985
369 4 0.0886321 0.0453021 0.436793
367 2 0.103582 0.0281754 0.426383
2428 2 0.215504 0.000521633 0.496363
340 2 0.212101 0.0560727 0.492817
341 4 0.213258 0.0326217 0.484221
2430 4 0.228788 0.0207868 0.490194
441 4 0.317252 0.0159382 0.415371
962 4 0.310713 0.0180043 0.433711
961 2 0.301692 0.0261522 0.455561
963 4 0.292672 0.0343001 0.477411
432 4 0.295958 0.0498349 0.491331
426 4 0.39361 0.0268392 0.421726
424 2 0.368853 0.0279825 0.425035
425 4 0.344096 0.0291257 0.428345
725 4 0.406647 0.0455597 0.46497
724 2 0.407875 0.0700427 0.460045
342 4 0.210944 0.0795236 0.501413
1152 4 0.225689 0.0923775 0.502961
1181 4 0.258795 0.13253 0.475739
320 4 0.30193 0.115475 0.420029
321 4 0.28107 0.159596 0.430933
319 2 0.2915 0.137536 0.425481
1180 2 0.261301 0.136048 0.500366
726 4 0.409104 0.0945257 0.455121
514 2 0.408402 0.164339 0.455912
453 4 0.423366 0.144866 0.436757
2878 2 0.480187 0.0892292 0.427797
2880 4 0.479449 0.106111 0.446227
640 2 0.484406 0.126211 0.477165
515 4 0.423168 0.165526 0.43577
641 4 0.47604 0.141445 0.49514
642 4 0.492773 0.110977 0.45919
260 4 0.0527101 0.185973 0.425907
459 4 0.0466994 0.166756 0.429878
259 2 0.0754048 0.185135 0.436367
685 2 0.134273 0.181727 0.431396
687 4 0.117084 0.190823 0.447111
261 4 0.0980995 0.184296 0.446828
1035 4 0.105727 0.192163 0.462156
1033 2 0.11565 0.203153 0.482305
489 4 0.319824 0.225461 0.449136
411 4 0.336804 0.224465 0.437993
487 2 0.312373 0.248183 0.441832
409 2 0.356915 0.212221 0.429578
410 4 0.377025 0.199976 0.421163
575 4 0.386289 0.177848 0.487545
516 4 0.393636 0.163151 0.476055
695 4 0.065649 0.250602 0.463196
694 2 0.0871524 0.263243 0.464923
696 4 0.108656 0.275884 0.466649
1258 2 0.136885 0.298731 0.490152
1260 4 0.123601 0.280774 0.478915
9 3 0.147977 0.336048 0.505427
651 4 0.239911 0.26956 0.490259
488 4 0.304923 0.270906 0.434528
266 4 0.346799 0.269396 0.43251
267 4 0.382579 0.264386 0.467085
265 2 0.364689 0.266891 0.449798
583 2 0.46046 0.269503 0.487622
585 4 0.435486 0.270538 0.487003
584 4 0.485435 0.268468 0.488241
326 4 0.0803771 0.354541 0.465051
6 1 0.157866 0.351906 0.491675
327 4 0.12673 0.366337 0.479644
325 2 0.103554 0.360439 0.472347
7 3 0.143805 0.370026 0.48991
502 2 0.242926 0.385258 0.425984
10 3 0.161404 0.343112 0.470967
711 4 0.166313 0.370266 0.431389
504 4 0.21864 0.388848 0.421245
709 2 0.189348 0.378891 0.43588
710 4 0.212383 0.387517 0.440371
503 4 0.267213 0.381668 0.430723
336 4 0.315868 0.385139 0.421803
668 4 0.296302 0.39173 0.423491
667 2 0.292239 0.404332 0.444701
587 4 0.416296 0.418558 0.428117
882 4 0.338849 0.408365 0.468372
335 4 0.363941 0.371387 0.422549
334 2 0.339905 0.378263 0.422176
238 2 0.395184 0.381771 0.43102
240 4 0.376637 0.365837 0.436246
3307 2 0.491021 0.386908 0.490739
559 2 0.485829 0.388776 0.424402
239 4 0.413731 0.397705 0.425795
3309 4 0.470771 0.401572 0.49045
679 2 0.0129219 0.427508 0.429691
680 4 0.0244297 0.446312 0.441488
1383 4 0.0139252 0.462531 0.438846
1381 2 0.0198696 0.486317 0.443754
408 4 0.102209 0.434833 0.415913
384 4 0.0925213 0.420887 0.478105
568 2 0.126023 0.477145 0.424251
382 2 0.0957854 0.432053 0.455972
383 4 0.0990494 0.443219 0.43384
569 4 0.111277 0.460421 0.435568
1557 4 0.262848 0.485914 0.421075
634 2 0.280945 0.45771 0.438924
774 4 0.29019 0.434113 0.475973
635 4 0.289366 0.446563 0.459661
669 4 0.288175 0.416934 0.465911
636 4 0.272524 0.468858 0.418188
772 2 0.277676 0.424086 0.495157
586 2 0.402953 0.439651 0.429609
880 2 0.33266 0.417273 0.4909
588 4 0.389609 0.460744 0.431101
663 4 0.450421 0.45947 0.461646
661 2 0.455193 0.483874 0.464262
430 2 0.306787 0.0614501 0.510644
431 4 0.317617 0.0730653 0.529957
951 4 0.274222 0.0536099 0.574494
1031 4 0.262218 0.0679659 0.580741
841 2 0.356963 0.0691698 0.538831
842 4 0.379714 0.0588165 0.538212
1217 4 0.382316 0.0516318 0.519407
1216 2 0.406622 0.0488158 0.52455
1218 4 0.430929 0.0459998 0.529693
3007 2 0.497766 0.0547723 0.574004
3008 4 0.477539 0.0627494 0.58635
1128 4 0.00921706 0.093395 0.577179
470 4 0.0450892 0.164457 0.541317
937 2 0.103288 0.156751 0.556395
1059 4 0.139787 0.120324 0.573029
939 4 0.127318 0.154923 0.56306
1057 2 0.120899 0.104095 0.575268
1155 4 0.135028 0.142051 0.574177
1153 2 0.153561 0.152519 0.587296
1151 4 0.198865 0.131468 0.518871
1030 2 0.250078 0.0897213 0.582862
1150 2 0.212277 0.111923 0.510916
1032 4 0.237938 0.111477 0.584984
1182 4 0.263807 0.139566 0.524994
900 4 0.279432 0.171521 0.530795
843 4 0.334212 0.0795231 0.539451
469 2 0.0334311 0.177097 0.523165
878 4 0.0340128 0.223533 0.574901
471 4 0.0217729 0.189737 0.505013
938 4 0.0792591 0.15858 0.549729
1244 4 0.0393528 0.242708 0.56976
1199 4 0.017377 0.213818 0.582236
1034 4 0.125572 0.214143 0.502453
858 4 0.186149 0.231038 0.546544
856 2 0.198731 0.242849 0.52845
898 2 0.288456 0.175103 0.553836
899 4 0.29748 0.178685 0.576878
576 4 0.370975 0.181948 0.534973
574 2 0.378632 0.179898 0.511259
3159 4 0.493363 0.176362 0.569499
983 4 0.0259941 0.315416 0.533925
1245 4 0.0477277 0.288225 0.55082
1243 2 0.0435402 0.265467 0.56029
982 2 0.0232699 0.332455 0.55202
1259 4 0.150169 0.316687 0.50139
857 4 0.211313 0.254661 0.510357
650 4 0.272377 0.253001 0.524501
649 2 0.256144 0.261281 0.50738
872 4 0.371483 0.290315 0.546272
871 2 0.364691 0.314216 0.54906
954 4 0.411331 0.294353 0.598773
906 4 0.463293 0.26548 0.572383
3065 4 0.500428 0.249183 0.506601
953 4 0.452206 0.281124 0.573181
904 2 0.488059 0.268124 0.570188
952 2 0.431769 0.287738 0.585977
984 4 0.0205457 0.349494 0.570116
3354 4 0.00434727 0.361768 0.572414
1189 2 0.220684 0.380771 0.577841
1190 4 0.239198 0.371011 0.56416
8 3 0.177998 0.3589 0.500851
803 4 0.24081 0.35496 0.552824
802 2 0.260308 0.360048 0.538022
804 4 0.279806 0.365136 0.523219
873 4 0.357899 0.338118 0.551847
813 4 0.357743 0.347568 0.533208
928 2 0.33426 0.381125 0.575259
811 2 0.372569 0.367521 0.530522
929 4 0.33981 0.397988 0.557652
812 4 0.387395 0.387475 0.527837
927 4 0.40496 0.386974 0.53842
926 4 0.439011 0.382334 0.574747
925 2 0.421986 0.384654 0.556584
539 4 0.0804918 0.466385 0.51753
538 2 0.101723 0.477461 0.524722
540 4 0.122955 0.488537 0.531914
773 4 0.265162 0.414058 0.514341
881 4 0.32647 0.42618 0.513429
1002 4 0.402493 0.452487 0.549771
1000 2 0.426291 0.451637 0.542146
1001 4 0.450088 0.450787 0.534522
945 4 0.0314202 0.0293676 0.660842
823 2 0.12009 0.00790143 0.625395
825 4 0.10109 0.0229954 0.631424
949 2 0.294423 0.0487128 0.588391
950 4 0.314624 0.0438156 0.602287
2283 4 0.410938 0.0100152 0.612719
809 4 0.461605 0.0702209 0.595959
808 2 0.458768 0.08029 0.618669
42 3 0.448016 0.0784817 0.658996
1083 4 0.0645714 0.0896334 0.615944
1126 2 0.0318078 0.0932568 0.587895
1081 2 0.0640855 0.0849193 0.640494
1127 4 0.0543984 0.0931187 0.59861
1082 4 0.0635996 0.0802052 0.665044
1058 4 0.10201 0.0878659 0.577506
1154 4 0.172094 0.162988 0.600415
1221 4 0.190375 0.160577 0.598827
810 4 0.455932 0.0903591 0.641379
45 3 0.456919 0.112862 0.647524
3424 2 0.495273 0.124633 0.667027
3425 4 0.472794 0.114242 0.663573
41 1 0.450053 0.100491 0.665369
877 2 0.0561946 0.215384 0.58307
879 4 0.0783765 0.207235 0.591239
1179 4 0.999997 0.203628 0.660957
1272 4 0.0965311 0.20664 0.601091
1270 2 0.118773 0.21041 0.590309
1271 4 0.141015 0.21418 0.579527
1212 4 0.221321 0.213227 0.629306
1219 2 0.201099 0.177941 0.613271
1220 4 0.211824 0.195305 0.627716
1210 2 0.238223 0.205703 0.646125
1211 4 0.255126 0.198178 0.662944
888 4 0.258984 0.180939 0.672414
1193 4 0.360519 0.181621 0.656984
1192 2 0.335887 0.178953 0.660353
1136 4 0.123509 0.296097 0.591323
948 4 0.134403 0.280784 0.58706
946 2 0.157782 0.273914 0.581456
1135 2 0.12829 0.32061 0.592517
798 4 0.199757 0.272143 0.579118
796 2 0.217744 0.272046 0.596486
947 4 0.181161 0.267044 0.575851
797 4 0.23573 0.271948 0.613854
791 4 0.255051 0.277162 0.611699
792 4 0.302377 0.279137 0.595667
790 2 0.278714 0.278149 0.603683
1238 4 0.310982 0.297978 0.594644
1237 2 0.321585 0.320598 0.593613
806 4 0.358895 0.324072 0.664837
3123 4 0.495198 0.249749 0.661902
1039 2 0.070391 0.409118 0.633775
1041 4 0.0463177 0.413875 0.638573
3264 4 0.0296151 0.40327 0.641399
3262 2 0.0251731 0.380998 0.65186
3263 4 0.020731 0.358727 0.662321
3240 4 0.0122994 0.412309 0.637851
1040 4 0.0944643 0.404361 0.628976
993 4 0.089581 0.388895 0.616032
1137 4 0.133072 0.345123 0.593711
897 4 0.138203 0.363589 0.593053
991 2 0.107777 0.372292 0.611741
992 4 0.125973 0.355689 0.60745
1172 4 0.213546 0.404243 0.600881
1191 4 0.202171 0.39053 0.591523
896 4 0.184885 0.381466 0.591681
895 2 0.161544 0.372527 0.592367
1029 4 0.23921 0.394935 0.666024
1239 4 0.332187 0.343219 0.592581
930 4 0.32871 0.364262 0.592866
1140 4 0.240249 0.414799 0.664829
1204 2 0.399417 0.409079 0.646052
1205 4 0.378931 0.416738 0.65817
1206 4 0.419902 0.401419 0.633934
1160 4 0.120712 0.467474 0.58942
1159 2 0.144251 0.475907 0.589282
1161 4 0.167789 0.484339 0.589143
1171 2 0.213822 0.428592 0.606555
1173 4 0.214099 0.452942 0.612228
1187 4 0.218035 0.472098 0.608314
1186 2 0.200018 0.48468 0.596386
1952 4 0.327145 0.481363 0.590471
889 2 0.295849 0.474386 0.615097
891 4 0.2831 0.468242 0.63571
890 4 0.308598 0.48053 0.594484
1951 2 0.343144 0.500574 0.590089
1230 4 0.35776 0.458354 0.649409
1268 4 0.460342 0.488537 0.644997
1269 4 0.431438 0.447764 0.646667
1267 2 0.44589 0.46815 0.645832
943 2 0.0421363 0.0449641 0.677185
944 4 0.0528523 0.0605606 0.693528
1076 4 0.0649072 0.074311 0.683988
2991 4 0.0159954 0.045523 0.743309
1283 4 0.15291 0.0828255 0.669194
1202 4 0.12119 0.0363204 0.75172
1147 2 0.219552 0.0610691 0.72796
1149 4 0.216723 0.037062 0.72157
1004 4 0.385318 0.0687472 0.701143
1163 4 0.461463 0.0796023 0.677264
1162 2 0.472398 0.0622532 0.691568
2320 2 0.487147 0.0290829 0.738592
2321 4 0.487997 0.0285832 0.713608
1164 4 0.483333 0.0449042 0.705872
4581 4 0.490493 0.015243 0.701089
864 4 0.0574491 0.114005 0.724258
1075 2 0.0647098 0.0963537 0.695789
1077 4 0.0645124 0.118396 0.70759
1107 4 0.0702445 0.129508 0.721818
851 4 0.0616476 0.136772 0.70566
850 2 0.0497744 0.153284 0.691114
1105 2 0.0926331 0.140374 0.72424
1282 2 0.137743 0.093038 0.686249
1284 4 0.122577 0.103251 0.703304
909 4 0.153341 0.170042 0.683545
1106 4 0.115022 0.151239 0.726663
1148 4 0.222381 0.0850763 0.73435
908 4 0.187091 0.142483 0.708084
907 2 0.170216 0.156262 0.695815
1227 4 0.206301 0.140549 0.706558
1225 2 0.206338 0.119151 0.719493
1226 4 0.206375 0.0977528 0.732428
829 2 0.328984 0.150261 0.709205
830 4 0.319314 0.152518 0.686258
1003 2 0.378949 0.0902205 0.69003
1005 4 0.37258 0.111694 0.678916
831 4 0.338655 0.148003 0.732152
43 3 0.429426 0.108087 0.672802
44 3 0.46566 0.101933 0.682478
1146 4 0.502893 0.159317 0.74029
852 4 0.0379011 0.169796 0.676569
1177 2 0.992651 0.203346 0.684855
1213 2 0.000612276 0.208982 0.738922
1073 4 0.114888 0.216561 0.730376
1072 2 0.117089 0.240804 0.736086
1194 4 0.311256 0.176285 0.663722
886 2 0.28203 0.171364 0.673958
887 4 0.305076 0.161789 0.675501
1025 4 0.441074 0.185314 0.672651
1262 4 0.434754 0.217298 0.730612
1142 4 0.446607 0.184221 0.723804
1024 2 0.439239 0.193257 0.696288
1141 2 0.447165 0.173773 0.746514
1026 4 0.437404 0.201201 0.719925
1261 2 0.449295 0.236208 0.738104
1074 4 0.119291 0.265047 0.741797
1209 4 0.136516 0.303307 0.693213
1207 2 0.118185 0.286732 0.697012
1208 4 0.0998549 0.270156 0.700811
821 4 0.156236 0.310511 0.691097
820 2 0.178803 0.300762 0.686531
822 4 0.201371 0.291013 0.681966
1063 2 0.242597 0.309592 0.70735
1065 4 0.232345 0.308774 0.730141
1064 4 0.252849 0.31041 0.68456
916 2 0.306777 0.262329 0.746752
917 4 0.31356 0.283888 0.736057
807 4 0.323706 0.291301 0.678566
805 2 0.341301 0.307686 0.671702
1263 4 0.463836 0.255119 0.745597
892 2 0.0216622 0.360028 0.718046
893 4 0.0148776 0.337168 0.710524
894 4 0.0284468 0.382887 0.725568
1280 4 0.046517 0.388563 0.71941
1279 2 0.0454606 0.412775 0.713259
816 4 0.0582447 0.378245 0.732214
814 2 0.0818575 0.371649 0.737124
1028 4 0.203434 0.370894 0.691378
1066 2 0.187909 0.378933 0.732568
1068 4 0.19754 0.372734 0.710342
1027 2 0.221322 0.382915 0.678701
1019 4 0.368087 0.374225 0.737408
1018 2 0.384921 0.392509 0.74015
1020 4 0.401755 0.410792 0.742891
1981 2 0.0658014 0.462088 0.727753
1281 4 0.0444041 0.436987 0.707108
1983 4 0.0441751 0.454828 0.717516
1176 4 0.200486 0.503507 0.73038
2016 4 0.182625 0.498241 0.740145
1138 2 0.252525 0.43169 0.678583
1139 4 0.264801 0.448581 0.692337
1988 4 0.318497 0.453983 0.748436
1987 2 0.326858 0.457423 0.725125
1989 4 0.33522 0.460863 0.701813
1229 4 0.334911 0.476926 0.689828
1228 2 0.346335 0.46764 0.669618
1100 4 0.420869 0.484968 0.709727
2989 2 0.00987151 0.0671481 0.754265
2049 4 0.130461 0.018409 0.750667
1203 4 0.0916471 0.0624367 0.782475
1201 2 0.106419 0.0493786 0.767097
1257 4 0.236908 0.066888 0.776397
1255 2 0.241759 0.0792066 0.797608
817 2 0.325514 0.0467921 0.796237
819 4 0.306027 0.0578589 0.807326
1085 4 0.303307 0.0765734 0.810349
818 4 0.345001 0.0357253 0.785149
1050 4 0.331257 0.0101634 0.764144
974 4 0.340837 0.0174524 0.779746
1113 4 0.425322 0.0804134 0.764868
2322 4 0.486297 0.0295825 0.763576
844 2 0.494527 0.0807443 0.793049
862 2 0.0450447 0.11319 0.745952
863 4 0.0326403 0.112374 0.767647
833 4 0.0165035 0.101545 0.772314
832 2 0.0100769 0.112369 0.793917
2990 4 0.0037476 0.0887732 0.765221
911 4 0.114116 0.123644 0.822831
34 3 0.122616 0.123516 0.780178
31 1 0.122461 0.135065 0.800303
35 3 0.101262 0.135979 0.808575
32 3 0.135978 0.124046 0.815304
33 3 0.130673 0.15654 0.797176
840 4 0.26218 0.105205 0.822573
1256 4 0.24661 0.0915251 0.818819
1084 2 0.300228 0.0983165 0.798393
1086 4 0.297149 0.12006 0.786438
960 4 0.307177 0.0839046 0.827511
845 4 0.475118 0.089684 0.806031
1111 2 0.441372 0.0894302 0.781788
1112 4 0.457422 0.0984469 0.798707
1214 4 0.0171067 0.199709 0.755266
1130 4 0.161122 0.200929 0.782205
978 4 0.24396 0.221415 0.764114
1129 2 0.182298 0.214113 0.780494
1131 4 0.203475 0.227297 0.778783
1277 4 0.20558 0.246107 0.786639
976 2 0.267794 0.227515 0.768579
977 4 0.291627 0.233616 0.773044
918 4 0.299994 0.24077 0.757446
1298 4 0.309217 0.226204 0.766878
1297 2 0.321731 0.20518 0.772035
1299 4 0.334244 0.184156 0.777191
1042 2 0.39976 0.235264 0.789791
1044 4 0.381496 0.251422 0.795314
1043 4 0.418024 0.219106 0.784267
1022 4 0.367497 0.173982 0.827886