ITEM: TIMESTEP
1510000
ITEM: NUMBER OF ATOMS
4590
ITEM: BOX BOUNDS pp pp pp
-9.9985700000000008e+00 9.9985700000000008e+00
-9.9985700000000008e+00 9.9985700000000008e+00
-9.9985700000000008e+00 9.9985700000000008e+00
ITEM: ATOMS id type xs ys zs
1666 2 0.0697093 0.0634413 0.0690967
1668 4 0.0726239 0.0609811 0.0443857
1474 2 0.286681 0.0013925 0.0829456
747 4 0.464008 0.0695695 0.0072217
2974 2 0.471373 0.0289578 0.0278262
2976 4 0.475338 0.00743494 0.0399186
2975 4 0.467409 0.0504806 0.0157337
986 4 0.460281 0.0528004 0.998615
2264 4 0.262385 0.164778 0.0149435
297 4 0.334026 0.0814323 0.0463743
295 2 0.348473 0.0950267 0.0311539
296 4 0.36292 0.108621 0.0159336
557 4 0.377695 0.110585 0.00559
556 2 0.400983 0.108257 0.0143886
771 4 0.410043 0.156356 0.0141668
827 4 0.360968 0.122934 0.00419612
745 2 0.45403 0.0905988 0.0163543
558 4 0.424271 0.105929 0.0231872
746 4 0.444053 0.111628 0.0254868
566 4 0.146698 0.198743 0.0179063
567 4 0.192194 0.187775 0.000283057
565 2 0.169446 0.193259 0.0090947
1133 4 0.21194 0.186888 0.997205
769 2 0.398877 0.169377 0.0323581
360 4 0.32044 0.185726 0.040718
358 2 0.345256 0.186476 0.0436755
770 4 0.387711 0.182399 0.0505494
359 4 0.370073 0.187225 0.0466329
664 2 0.386464 0.220269 0.0602889
665 4 0.382285 0.201806 0.0439535
666 4 0.390643 0.238731 0.0766243
555 4 0.0817227 0.268183 0.0415878
553 2 0.0838435 0.273484 0.0172447
287 4 0.160038 0.3064 0.0265292
292 2 0.162726 0.2781 0.00402139
507 4 0.166579 0.294455 0.0424917
293 4 0.170252 0.291025 0.0240582
505 2 0.181213 0.294693 0.0627644
481 2 0.235979 0.294702 0.0730167
506 4 0.195847 0.294932 0.0830371
483 4 0.213565 0.303044 0.0803125
573 4 0.253112 0.275833 0.0476804
482 4 0.258392 0.28636 0.0657208
571 2 0.260947 0.268641 0.0250514
322 2 0.409481 0.274346 0.0673984
1069 2 0.39243 0.298597 0.0194027
324 4 0.412516 0.280048 0.0432434
1070 4 0.412092 0.283715 0.0235366
741 4 0.355009 0.330677 0.0361324
957 4 0.355043 0.317903 0.0203239
1071 4 0.372767 0.313479 0.0152689
739 2 0.366315 0.33484 0.0580423
955 2 0.340049 0.314716 0.00057035
671 4 0.456491 0.311924 0.0540256
280 2 0.44839 0.291014 0.0282061
281 4 0.466853 0.299817 0.0425872
282 4 0.429928 0.282211 0.0138249
670 2 0.446167 0.322101 0.0743981
286 2 0.160863 0.331293 0.0287297
288 4 0.161688 0.356186 0.0309302
454 2 0.149078 0.376422 0.0650708
455 4 0.128488 0.362307 0.0664858
456 4 0.169667 0.390537 0.0636557
250 2 0.277342 0.391157 0.0490648
251 4 0.280368 0.375281 0.0299874
1290 4 0.286214 0.388616 0.0151418
252 4 0.274316 0.407034 0.0681423
740 4 0.37762 0.339002 0.0799522
495 4 0.395953 0.364742 0.0647822
493 2 0.387824 0.387178 0.0573186
14 3 0.39686 0.34834 0.077293
330 4 0.0168055 0.436424 0.0403054
245 4 0.223635 0.435565 0.0441547
626 4 0.204012 0.436888 0.0467463
625 2 0.185048 0.447138 0.0594147
244 2 0.240015 0.434386 0.0253004
627 4 0.166084 0.457388 0.0720832
246 4 0.256395 0.433207 0.00644603
609 4 0.284857 0.41431 0.0833299
494 4 0.379694 0.409614 0.0498549
1672 2 0.390637 0.465122 0.0512545
660 4 0.374142 0.423092 0.0622015
1673 4 0.366764 0.465811 0.0586583
854 4 0.426545 0.448744 0.0218813
1674 4 0.414509 0.464434 0.0438507
563 4 0.481336 0.444972 0.0386261
228 4 0.498124 0.451577 0.0474376
562 2 0.457314 0.451909 0.0386358
564 4 0.433293 0.458847 0.0386456
18 3 0.069015 0.0501338 0.143474
16 1 0.0649315 0.0518004 0.166255
17 3 0.0438783 0.0436411 0.170652
1667 4 0.0667948 0.0659014 0.0938077
701 4 0.0746287 0.0644719 0.112792
1475 4 0.279685 0.0253842 0.0821539
492 4 0.282927 0.0428986 0.0915354
490 2 0.285122 0.067309 0.0964847
485 4 0.398692 0.998994 0.108339
2723 4 0.417168 0.0378757 0.150521
2722 2 0.441911 0.0382137 0.154109
2724 4 0.466653 0.0385516 0.157697
1760 4 0.477431 0.0388333 0.141754
1759 2 0.49061 0.0281718 0.123374
700 2 0.0781446 0.0869706 0.123118
476 4 0.0931679 0.122589 0.141269
702 4 0.0816605 0.109469 0.133444
475 2 0.10083 0.12817 0.164406
491 4 0.287317 0.0917194 0.101434
628 2 0.380285 0.135013 0.153775
312 4 0.381635 0.103014 0.159864
629 4 0.394858 0.117687 0.164388
630 4 0.365713 0.152338 0.143161
738 4 0.246927 0.217877 0.0899277
736 2 0.249379 0.205664 0.111608
737 4 0.251832 0.193452 0.133288
461 4 0.30992 0.238747 0.111888
460 2 0.332763 0.236108 0.121708
354 4 0.288845 0.238048 0.111642
352 2 0.279588 0.244515 0.133951
353 4 0.270332 0.250982 0.15626
462 4 0.355606 0.233469 0.131527
254 4 0.361168 0.167208 0.131538
255 4 0.363773 0.216967 0.135771
253 2 0.36247 0.192088 0.133655
765 4 0.365555 0.231301 0.148416
624 4 0.372702 0.235295 0.131185
622 2 0.384844 0.243228 0.110818
623 4 0.396985 0.251161 0.0904508
763 2 0.355988 0.242475 0.168635
648 4 0.0662561 0.31513 0.171158
339 4 0.0797776 0.233249 0.137979
337 2 0.0748884 0.248338 0.157307
551 4 0.103415 0.330018 0.111492
537 4 0.18847 0.309149 0.0955977
302 4 0.323484 0.309466 0.140762
755 4 0.260415 0.267365 0.156941
387 4 0.333155 0.30928 0.122923
385 2 0.349491 0.319772 0.107168
323 4 0.406447 0.268645 0.0915535
528 4 0.475759 0.260602 0.0975529
518 4 0.495255 0.262575 0.0998303
526 2 0.460961 0.271838 0.114285
527 4 0.446163 0.283074 0.131016
672 4 0.435844 0.332277 0.0947706
552 4 0.132472 0.34497 0.0736394
550 2 0.117944 0.337494 0.0925659
535 2 0.195773 0.329139 0.10872
536 4 0.203076 0.34913 0.121843
291 4 0.213541 0.408553 0.145871
289 2 0.237395 0.415977 0.14485
15 3 0.380057 0.330008 0.105564
386 4 0.365828 0.330265 0.0914132
11 1 0.399024 0.340861 0.0991513
13 3 0.403046 0.358806 0.113302
12 3 0.416825 0.326338 0.100314
595 2 0.48647 0.390194 0.139478
596 4 0.497734 0.390723 0.117162
1791 4 0.0382143 0.496678 0.141578
1466 4 0.0504468 0.482631 0.154028
1789 2 0.0593956 0.504136 0.130583
417 4 0.157364 0.434985 0.117445
416 4 0.197138 0.420967 0.14432
1440 4 0.170235 0.487735 0.104068
415 2 0.177251 0.427976 0.130883
1438 2 0.193432 0.492349 0.112176
607 2 0.304528 0.426723 0.0925036
290 4 0.261249 0.423401 0.143828
608 4 0.324199 0.439136 0.101677
768 4 0.277187 0.434448 0.147892
767 4 0.268953 0.483749 0.149407
766 2 0.27307 0.459099 0.14865
658 2 0.358045 0.427889 0.0807235
659 4 0.341949 0.432686 0.0992454
1559 4 0.358695 0.502868 0.0886923
524 4 0.361987 0.510727 0.106843
19 3 0.065898 0.0740197 0.172871
2480 4 0.0311532 0.0299907 0.178281
1422 4 0.0415135 0.0148233 0.185908
2479 2 0.0119714 0.0448337 0.184358
20 3 0.0802797 0.0395759 0.177815
578 4 0.0888351 0.0542686 0.189218
675 4 0.109119 0.00368173 0.249629
674 4 0.143701 0.018372 0.21663
673 2 0.12641 0.0110269 0.23313
689 4 0.157136 0.0118538 0.203125
577 2 0.111259 0.0610066 0.197989
579 4 0.133683 0.0677447 0.20676
1506 4 0.249376 0.00634547 0.176503
1504 2 0.228316 0.993394 0.180238
654 4 0.264335 0.0196193 0.177975
652 2 0.278966 0.0172227 0.198109
653 4 0.293598 0.0148262 0.218242
25 3 0.330367 0.0461918 0.246856
311 4 0.387492 0.0597756 0.184295
758 4 0.376625 0.0522017 0.199203
759 4 0.345542 0.0575261 0.238012
757 2 0.361083 0.0548639 0.218607
2744 4 0.485447 0.032522 0.157937
744 4 0.503329 0.0332896 0.224586
2745 4 0.493558 0.0380005 0.206977
2743 2 0.489502 0.0352613 0.182457
742 2 0.506264 0.0559088 0.234829
511 2 0.0221266 0.145269 0.226125
513 4 0.0406982 0.147584 0.242706
393 4 0.0515205 0.161886 0.232666
381 4 0.00695361 0.122957 0.207555
450 4 0.148619 0.0787945 0.199392
448 2 0.162043 0.0998276 0.197784
477 4 0.108491 0.13375 0.187544
449 4 0.175467 0.120861 0.196177
237 4 0.236897 0.14456 0.174428
691 2 0.224825 0.121638 0.244224
693 4 0.213993 0.123194 0.221742
236 4 0.194879 0.128336 0.196153
235 2 0.215888 0.136448 0.185291
582 4 0.255562 0.140369 0.176547
581 4 0.287009 0.101555 0.174254
580 2 0.271285 0.120962 0.175401
27 3 0.326225 0.161202 0.237161
26 1 0.326864 0.157364 0.259833
310 2 0.384563 0.0813949 0.17208
521 4 0.487607 0.154118 0.22659
332 4 0.477473 0.137981 0.235409
762 4 0.468899 0.151131 0.224405
760 2 0.452732 0.155728 0.242917
394 2 0.0159176 0.235302 0.242786
395 4 0.0400976 0.22957 0.24002
277 2 0.246135 0.232601 0.178351
279 4 0.231494 0.21418 0.186806
284 4 0.282366 0.249075 0.171301
283 2 0.30469 0.250593 0.182458
285 4 0.327015 0.252111 0.193615
278 4 0.260776 0.251022 0.169897
764 4 0.346421 0.253648 0.188854
338 4 0.0699991 0.263427 0.176635
363 4 0.0716519 0.256194 0.195295
749 4 0.085745 0.296752 0.228796
748 2 0.0854917 0.319216 0.239773
361 2 0.0838644 0.27598 0.204491
370 2 0.131121 0.306979 0.213097
372 4 0.111236 0.299462 0.199935
362 4 0.0960768 0.295765 0.213687
371 4 0.151007 0.314496 0.226259
301 2 0.321202 0.313649 0.165308
754 2 0.264172 0.287368 0.171466
756 4 0.267929 0.307371 0.18599
612 4 0.264786 0.296882 0.202539
610 2 0.263317 0.304526 0.2263
307 2 0.319502 0.291261 0.219431
308 4 0.327485 0.303081 0.198895
303 4 0.31892 0.317832 0.189853
309 4 0.311519 0.27944 0.239967
611 4 0.261848 0.31217 0.250061
729 4 0.308462 0.334082 0.190119
646 2 0.0603625 0.339423 0.170609
647 4 0.0544688 0.363716 0.170061
750 4 0.0852385 0.34168 0.25075
734 4 0.165339 0.342749 0.2457
299 4 0.151496 0.35369 0.252835
298 2 0.126521 0.353673 0.254043
727 2 0.311734 0.355355 0.202844
728 4 0.315006 0.376628 0.215569
445 2 0.401888 0.385523 0.230977
446 4 0.378665 0.390469 0.238814
447 4 0.425111 0.380577 0.223141
644 4 0.431487 0.377845 0.20469
597 4 0.475206 0.389666 0.161795
643 2 0.453232 0.382941 0.193449
645 4 0.474977 0.388037 0.182208
1465 2 0.0410585 0.474708 0.175805
1467 4 0.0316701 0.466785 0.197583
1756 2 0.111188 0.466802 0.245303
1757 4 0.128069 0.449169 0.239892
231 4 0.459889 0.473437 0.230596
229 2 0.456814 0.492093 0.214236
232 2 0.028289 0.0415388 0.293885
233 4 0.0526516 0.0374023 0.290073
1404 4 0.061683 0.0221513 0.296072
1402 2 0.078404 0.014715 0.279034
316 2 0.0775786 0.054713 0.316142
317 4 0.0690998 0.0364507 0.301317
428 4 0.0657023 0.0218166 0.314702
427 2 0.0536926 0.00765911 0.33145
1403 4 0.0951249 0.0072787 0.261996
318 4 0.0860575 0.0729753 0.330967
24 3 0.315862 0.0756371 0.265301
22 3 0.351783 0.0758508 0.254245
21 1 0.334745 0.0625391 0.262096
23 3 0.34131 0.0530454 0.282225
699 4 0.357315 0.0691054 0.344641
351 4 0.410948 0.0629641 0.261883
349 2 0.401405 0.08276 0.27381
479 4 0.447225 0.0247612 0.301161
478 2 0.432639 0.0344217 0.283298
2664 4 0.466563 0.0257391 0.299227
480 4 0.418053 0.0440822 0.265434
1428 4 0.455393 0.0199442 0.315334
258 4 0.437527 0.026037 0.318094
2662 2 0.48889 0.0336904 0.291261
391 2 0.0701464 0.162411 0.249339
392 4 0.0887723 0.162936 0.266011
692 4 0.235656 0.120083 0.266706
721 2 0.232756 0.128922 0.299158
722 4 0.222979 0.122424 0.321234
723 4 0.242533 0.13542 0.277081
249 4 0.231111 0.117723 0.33843
28 3 0.327476 0.134468 0.263551
632 4 0.387827 0.116627 0.272407
350 4 0.391862 0.102556 0.285736
631 2 0.367257 0.130836 0.272035
707 4 0.351675 0.160816 0.283091
633 4 0.346686 0.145045 0.271662
761 4 0.436566 0.160325 0.261429
546 4 0.130814 0.206771 0.255462
544 2 0.147184 0.218956 0.269909
545 4 0.163554 0.231142 0.284356
402 4 0.17974 0.234663 0.272903
30 3 0.308275 0.166308 0.269482
376 2 0.271799 0.252252 0.319421
706 2 0.359053 0.18004 0.297276
29 3 0.345903 0.167323 0.268593
708 4 0.36643 0.199264 0.31146
444 4 0.00104249 0.290185 0.291584
390 4 0.109517 0.261657 0.320332
400 2 0.187662 0.257656 0.278713
401 4 0.195584 0.280649 0.284522
676 2 0.18099 0.304031 0.312364
345 4 0.204162 0.297732 0.278241
677 4 0.192697 0.298642 0.290938
343 2 0.22823 0.300806 0.272202
735 4 0.189244 0.309472 0.274369
344 4 0.252297 0.30388 0.266162
733 2 0.177291 0.32611 0.260035
496 2 0.294952 0.276404 0.275926
497 4 0.289988 0.265738 0.297989
377 4 0.279403 0.249277 0.295788
498 4 0.299916 0.28707 0.253863
615 4 0.364396 0.343513 0.334817
543 4 0.378073 0.329449 0.332792
365 4 0.0248513 0.356357 0.301867
601 2 0.0601543 0.372271 0.314783
603 4 0.0387275 0.371058 0.301953
602 4 0.0815812 0.373484 0.327612
364 2 0.00291595 0.366267 0.295098
549 4 0.0819569 0.39275 0.329029
300 4 0.101547 0.353656 0.255251
433 2 0.296893 0.37638 0.307809
435 4 0.274994 0.386493 0.314392
434 4 0.318792 0.366267 0.301227
614 4 0.329429 0.349458 0.299566
613 2 0.346913 0.346486 0.317191
2690 4 0.995798 0.47027 0.292723
2461 2 0.000650204 0.496358 0.319348
1758 4 0.0943067 0.484435 0.250714
777 4 0.103911 0.502974 0.27921
775 2 0.0956337 0.495739 0.301667
776 4 0.0873559 0.488504 0.324123
412 2 0.222076 0.487032 0.290636
1435 2 0.238511 0.458653 0.334802
1436 4 0.21618 0.468197 0.328849
413 4 0.216199 0.470473 0.308425
3 3 0.311067 0.457079 0.322129
438 4 0.328676 0.463686 0.333313
437 4 0.375042 0.447259 0.32431
436 2 0.351859 0.455473 0.328811
367 2 0.0620092 0.0157821 0.409987
369 4 0.0412552 0.0222399 0.422346
429 4 0.041683 0.993502 0.348199
1781 4 0.101297 0.0144255 0.403479
368 4 0.0827633 0.00932425 0.397628
732 4 0.0885336 0.0730487 0.35108
730 2 0.1103 0.0731126 0.363385
731 4 0.132065 0.0731765 0.37569
606 4 0.146055 0.0602113 0.370359
1780 2 0.122383 0.00741654 0.392013
604 2 0.167755 0.0701376 0.36289
1700 4 0.313737 0.0594368 0.354532
1701 4 0.321073 0.0296107 0.393994
1699 2 0.317405 0.0445238 0.374263
425 4 0.325093 0.0270328 0.412901
441 4 0.307653 0.0220021 0.404492
697 2 0.371102 0.0499766 0.352959
698 4 0.384889 0.0308478 0.361278
424 2 0.349334 0.029639 0.418447
257 4 0.402113 0.0330534 0.352695
724 2 0.407663 0.0752584 0.414778
256 2 0.41982 0.0295452 0.335395
2584 2 0.00900218 0.117124 0.35869
397 2 0.0598811 0.0984121 0.347343
398 4 0.0377067 0.108436 0.353088
2586 4 0.0321995 0.122699 0.366172
458 4 0.03047 0.141689 0.368348
457 2 0.0362998 0.157311 0.386981
399 4 0.0820555 0.0883886 0.341598
598 2 0.124672 0.152321 0.345248
600 4 0.113217 0.134634 0.33179
605 4 0.189454 0.0800639 0.355421
248 4 0.206206 0.0752621 0.347234
247 2 0.218659 0.0964924 0.342832
683 4 0.22325 0.104559 0.395948
404 4 0.237643 0.132335 0.351702
403 2 0.250669 0.1536 0.353514
682 2 0.247759 0.105174 0.391038
319 2 0.296584 0.137767 0.388601
684 4 0.272268 0.10579 0.386128
321 4 0.310449 0.156764 0.380111
320 4 0.282719 0.118771 0.397091
717 4 0.413947 0.174801 0.3482
725 4 0.405824 0.0926635 0.396921
459 4 0.0421297 0.172932 0.405613
389 4 0.119841 0.229564 0.357267
599 4 0.136127 0.170008 0.358707
686 4 0.123843 0.18401 0.36215
685 2 0.116504 0.188658 0.385596
275 4 0.152221 0.179069 0.354266
472 2 0.229446 0.203604 0.359856
474 4 0.20952 0.218516 0.362259
276 4 0.190901 0.209628 0.362671
274 2 0.171561 0.194348 0.358468
405 4 0.263694 0.174866 0.355327
473 4 0.249372 0.188693 0.357454
378 4 0.264195 0.255226 0.343054
715 2 0.399688 0.189984 0.362031
466 2 0.369445 0.204321 0.408602
716 4 0.385429 0.205167 0.375863
467 4 0.367138 0.208116 0.383997
419 4 0.471313 0.258493 0.33609
269 4 0.487827 0.249792 0.344176
270 4 0.480637 0.223293 0.385971
452 4 0.466143 0.214107 0.396138
268 2 0.484232 0.236542 0.365074
451 2 0.455895 0.212862 0.418911
2800 2 0.00965066 0.304968 0.406574
618 4 0.0628465 0.333891 0.383446
347 4 0.0432244 0.326582 0.383537
388 2 0.114679 0.24561 0.3388
616 2 0.0772428 0.314201 0.377951
617 4 0.0916392 0.29451 0.372455
374 4 0.110309 0.292882 0.367046
373 2 0.130433 0.301442 0.354925
375 4 0.150558 0.310003 0.342805
678 4 0.169284 0.30942 0.333791
509 4 0.234844 0.322997 0.379627
508 2 0.253635 0.333286 0.366735
488 4 0.33538 0.271336 0.42182
510 4 0.272426 0.343575 0.353842
541 2 0.394488 0.310824 0.329824
542 4 0.410903 0.292198 0.326855
418 2 0.449822 0.270655 0.332167
420 4 0.42833 0.282817 0.328244
2802 4 0.0109809 0.320649 0.426004
346 2 0.0337106 0.349705 0.38358
348 4 0.0241968 0.372828 0.383622
668 4 0.318826 0.386855 0.411427
336 4 0.336054 0.378792 0.406404
334 2 0.359048 0.369551 0.403078
335 4 0.382042 0.36031 0.399752
240 4 0.398583 0.363161 0.41026
752 4 0.48483 0.401503 0.389052
561 4 0.494457 0.404248 0.406342
547 2 0.0868652 0.412716 0.343257
407 4 0.102826 0.443317 0.370909
548 4 0.0917735 0.432682 0.357485
406 2 0.111028 0.45209 0.392839
500 4 0.102539 0.496301 0.334614
408 4 0.11923 0.460864 0.414769
1437 4 0.260841 0.449108 0.340754
1 1 0.303943 0.471429 0.338914
4 3 0.287112 0.46137 0.351322
2 3 0.321695 0.476017 0.352806
593 4 0.400344 0.462204 0.386828
588 4 0.402307 0.456448 0.406904
592 2 0.414818 0.471596 0.368732
586 2 0.410771 0.437218 0.420459
713 4 0.440281 0.484628 0.335012
751 2 0.490593 0.41794 0.371113
1742 4 0.431764 0.499721 0.343782
714 4 0.484527 0.461352 0.333908
712 2 0.462404 0.47299 0.33446
594 4 0.429292 0.480988 0.350635
719 4 0.0355016 0.0219729 0.441392
718 2 0.0148801 0.00788152 0.440223
341 4 0.197966 0.0309663 0.502259
962 4 0.307873 0.0279872 0.42199
961 2 0.30074 0.041941 0.441473
963 4 0.293607 0.0558947 0.460956
432 4 0.293214 0.072325 0.471711
430 2 0.311868 0.0820959 0.485193
426 4 0.373575 0.0322452 0.423992
726 4 0.409502 0.0578534 0.432635
642 4 0.503517 0.106733 0.448214
640 2 0.486813 0.124782 0.452728
641 4 0.470109 0.142832 0.457242
471 4 0.0178661 0.209513 0.501022
260 4 0.0496085 0.176924 0.423139
259 2 0.0738589 0.182976 0.423826
687 4 0.109165 0.193305 0.409042
261 4 0.0981093 0.189028 0.424514
1035 4 0.103841 0.207 0.422424
1033 2 0.101921 0.227172 0.437072
487 2 0.341186 0.255215 0.440029
489 4 0.346991 0.239093 0.458238
468 4 0.371751 0.200525 0.433208
514 2 0.416124 0.192809 0.456238
411 4 0.349942 0.227296 0.475465
516 4 0.393545 0.192708 0.466979
409 2 0.364884 0.211568 0.463034
410 4 0.379826 0.19584 0.450604
575 4 0.384296 0.185567 0.484318
266 4 0.357127 0.239605 0.489677
515 4 0.438702 0.192909 0.445497
453 4 0.445646 0.211617 0.441684
585 4 0.505145 0.214926 0.46099
583 2 0.493907 0.233755 0.473004
584 4 0.482668 0.252584 0.485018
2847 4 0.0178851 0.316455 0.444256
695 4 0.0306367 0.261153 0.491585
694 2 0.0543402 0.26041 0.483663
1034 4 0.100001 0.247344 0.45172
1258 2 0.10839 0.282656 0.468719
1259 4 0.120299 0.30455 0.470719
9 3 0.116547 0.324182 0.474096
1260 4 0.0964813 0.260761 0.466719
696 4 0.0780437 0.259667 0.47574
265 2 0.360641 0.263485 0.496202
2456 4 0.493449 0.265689 0.497393
2845 2 0.000764538 0.331743 0.454173
326 4 0.0436248 0.367546 0.461823
325 2 0.0685838 0.368605 0.462875
10 3 0.134097 0.350516 0.453697
6 1 0.124 0.346151 0.473638
7 3 0.105956 0.360181 0.476225
327 4 0.0935427 0.369664 0.463928
709 2 0.152507 0.407693 0.48042
8 3 0.138911 0.349822 0.491033
503 4 0.223349 0.364027 0.469553
504 4 0.192961 0.401622 0.482355
502 2 0.208155 0.382824 0.475954
710 4 0.174474 0.399162 0.488777
667 2 0.3134 0.404639 0.428145
239 4 0.426077 0.399882 0.43017
238 2 0.41233 0.381521 0.420215
882 4 0.390203 0.363546 0.499022
3308 4 0.49199 0.389483 0.507918
680 4 0.0114599 0.446959 0.450701
711 4 0.13054 0.416224 0.472063
384 4 0.111381 0.418908 0.46784
569 4 0.129638 0.467568 0.429903
382 2 0.116294 0.434101 0.448599
568 2 0.146204 0.482659 0.440994
383 4 0.121207 0.449294 0.429358
1543 2 0.206926 0.496664 0.449687
1544 4 0.231451 0.496705 0.444818
772 2 0.301636 0.433266 0.480118
774 4 0.314963 0.437178 0.459327
634 2 0.299033 0.462312 0.434212
635 4 0.308787 0.440651 0.442011
636 4 0.289279 0.483974 0.426414
669 4 0.307975 0.422422 0.444863
773 4 0.288308 0.429354 0.500909
587 4 0.419235 0.417987 0.434014
663 4 0.457512 0.475926 0.449515
661 2 0.47245 0.487994 0.465528
662 4 0.487388 0.500062 0.48154
342 4 0.20984 0.0767217 0.518574
340 2 0.203903 0.053844 0.510416
2430 4 0.189066 0.0135155 0.49624
1152 4 0.201532 0.0887295 0.531528
1217 4 0.394285 0.0707474 0.511009
842 4 0.38249 0.0840843 0.520132
843 4 0.332899 0.0904276 0.519039
841 2 0.357695 0.087256 0.519586
1216 2 0.414622 0.056264 0.51236
3007 2 0.494722 0.0526286 0.573774
1218 4 0.434959 0.0417806 0.513711
3008 4 0.48432 0.0432584 0.59449
1058 4 0.118096 0.106848 0.523514
1057 2 0.11668 0.115603 0.546891
1059 4 0.115264 0.124358 0.570269
1150 2 0.218502 0.0879149 0.549873
1151 4 0.235472 0.0871003 0.568217
1180 2 0.230718 0.151679 0.564214
1182 4 0.252531 0.15291 0.552053
431 4 0.330521 0.0918669 0.498674
900 4 0.256646 0.172362 0.550381
1199 4 0.0408858 0.214743 0.57145
1198 2 0.0178994 0.221735 0.564528
878 4 0.052932 0.229903 0.576714
1244 4 0.0451359 0.245738 0.587611
470 4 0.0324174 0.164218 0.516426
469 2 0.0251418 0.186865 0.508724
1181 4 0.208906 0.150447 0.576374
796 2 0.250033 0.255636 0.573159
858 4 0.206929 0.240561 0.482227
798 4 0.228028 0.261325 0.562736
856 2 0.219782 0.249956 0.501507
947 4 0.214222 0.270008 0.551943
898 2 0.272118 0.18748 0.537842
650 4 0.281274 0.210915 0.508008
899 4 0.287591 0.202598 0.525302
649 2 0.283977 0.23574 0.509274
797 4 0.272037 0.249947 0.583581
576 4 0.396557 0.154324 0.521389
574 2 0.390426 0.169946 0.502854
1243 2 0.0395877 0.269546 0.582362
857 4 0.232635 0.259352 0.520787
946 2 0.197596 0.269118 0.570598
651 4 0.28668 0.260565 0.510541
791 4 0.290308 0.257777 0.586285
1237 2 0.32442 0.331171 0.589319
872 4 0.36099 0.263378 0.555082
871 2 0.36992 0.28311 0.567574
873 4 0.37885 0.302843 0.580066
813 4 0.396327 0.311718 0.584482
267 4 0.364155 0.287365 0.502728
2457 4 0.499901 0.315086 0.501759
2455 2 0.496675 0.290387 0.499576
1010 4 0.490548 0.32094 0.517674
984 4 0.0189243 0.342 0.562389
1189 2 0.236679 0.373727 0.575904
896 4 0.210617 0.370818 0.594011
1190 4 0.248413 0.361202 0.55772
803 4 0.260991 0.374987 0.552117
804 4 0.283655 0.381637 0.508039
802 2 0.272323 0.378312 0.530078
930 4 0.322608 0.370418 0.57341
928 2 0.331226 0.380595 0.55226
1239 4 0.332241 0.35247 0.578813
811 2 0.407929 0.332215 0.576087
929 4 0.339844 0.390773 0.53111
881 4 0.349121 0.387885 0.513873
880 2 0.369662 0.375716 0.506448
812 4 0.419531 0.352711 0.567693
1011 4 0.49164 0.370876 0.515231
926 4 0.463249 0.40379 0.579827
1009 2 0.491094 0.345908 0.516452
538 2 0.087757 0.459807 0.573999
540 4 0.0921629 0.483585 0.567646
1160 4 0.103544 0.497833 0.572173
1159 2 0.128305 0.498373 0.5756
2244 4 0.0906789 0.497861 0.555547
1951 2 0.376969 0.494261 0.551102
1952 4 0.353108 0.493035 0.558471
1910 4 0.408788 0.499897 0.561974
1909 2 0.425894 0.489569 0.577003
2114 4 0.996034 0.0079102 0.628341
1082 4 0.060284 0.0588609 0.651482
1081 2 0.0618115 0.0780558 0.635532
823 2 0.174209 0.0303315 0.658877
824 4 0.186429 0.00924672 0.653286
1030 2 0.262836 0.0794148 0.589939
1031 4 0.283314 0.0654002 0.593008
951 4 0.297115 0.0502028 0.591795
949 2 0.311591 0.0336109 0.603642
950 4 0.326067 0.017019 0.615488
809 4 0.480681 0.0357876 0.61215
808 2 0.473465 0.04786 0.632823
810 4 0.466249 0.0599324 0.653496
42 3 0.46552 0.0516225 0.673738
41 1 0.459294 0.0737431 0.672705
1128 4 0.0042314 0.104918 0.597546
1083 4 0.0633391 0.0972506 0.619582
1126 2 0.0287268 0.106628 0.60226
1127 4 0.0532223 0.108339 0.606975
938 4 0.0830989 0.0947115 0.620498
1155 4 0.120935 0.135499 0.585216
1271 4 0.105244 0.143604 0.593042
939 4 0.104886 0.124988 0.587191
937 2 0.0939927 0.10985 0.603844
1153 2 0.14321 0.133486 0.596393
1032 4 0.242357 0.0934294 0.586871
1221 4 0.172987 0.150459 0.606363
1154 4 0.165486 0.131472 0.60757
886 2 0.297056 0.156534 0.645241
887 4 0.321641 0.152729 0.647744
1194 4 0.339119 0.152737 0.638109
888 4 0.272471 0.160339 0.642738
1192 2 0.364058 0.151035 0.638685
1193 4 0.388997 0.149333 0.63926
45 3 0.459483 0.080582 0.650983
3424 2 0.485232 0.113457 0.651306
3425 4 0.474037 0.0942749 0.66279
877 2 0.0759587 0.220167 0.5771
879 4 0.0989854 0.21043 0.577487
1272 4 0.0939051 0.191224 0.582821
1270 2 0.0995747 0.167414 0.587932
1212 4 0.21234 0.184552 0.644529
1219 2 0.182147 0.166289 0.623412
1220 4 0.191307 0.182119 0.640462
1210 2 0.235377 0.176138 0.649394
1211 4 0.258415 0.167725 0.65426
982 2 0.0192419 0.320799 0.57564
983 4 0.0195595 0.299598 0.58889
1245 4 0.0340396 0.293355 0.577113
1136 4 0.172325 0.283308 0.60077
1135 2 0.166948 0.307603 0.59832
1137 4 0.161571 0.331899 0.595871
948 4 0.180971 0.268228 0.589252
1065 4 0.207458 0.326 0.669432
790 2 0.303479 0.278888 0.583827
1238 4 0.316598 0.309873 0.599824
792 4 0.31665 0.299998 0.581369
906 4 0.48699 0.306107 0.597811
953 4 0.47152 0.316293 0.592027
952 2 0.449509 0.305481 0.596904
954 4 0.427498 0.294668 0.601781
3123 4 0.474882 0.275429 0.658484
1039 2 0.0718843 0.389615 0.623098
1041 4 0.0498013 0.39042 0.634797
3264 4 0.0424475 0.396928 0.652451
3262 2 0.0385968 0.377347 0.667514
1040 4 0.0939674 0.38881 0.611398
993 4 0.113599 0.378931 0.609042
897 4 0.166405 0.34889 0.602082
991 2 0.130505 0.360681 0.606523
992 4 0.14741 0.342432 0.604003
895 2 0.188511 0.359854 0.598046
1172 4 0.219383 0.405162 0.598716
1191 4 0.224946 0.386252 0.594087
1171 2 0.206651 0.423977 0.609161
1206 4 0.392676 0.388486 0.617882
1204 2 0.406519 0.407032 0.627347
927 4 0.435983 0.362277 0.573994
925 2 0.449616 0.383034 0.576911
1002 4 0.456949 0.420087 0.574178
3240 4 0.0319619 0.413937 0.648475
539 4 0.0833511 0.436029 0.580352
3238 2 0.0131967 0.43046 0.648312
1161 4 0.153067 0.498914 0.579028
1188 4 0.169569 0.494358 0.588777
1186 2 0.174579 0.475794 0.60476
1173 4 0.193919 0.442791 0.619606
1187 4 0.17959 0.45723 0.620743
1139 4 0.244251 0.474587 0.681865
891 4 0.319186 0.454291 0.603634
890 4 0.341601 0.486655 0.572797
889 2 0.330394 0.470473 0.588216
1230 4 0.359229 0.416655 0.66689
1205 4 0.420362 0.425579 0.636812
1911 4 0.443 0.479241 0.592033
1000 2 0.455106 0.441993 0.586089
1001 4 0.453264 0.4639 0.598001
1269 4 0.458382 0.480847 0.605154
1267 2 0.463845 0.494266 0.625532
945 4 0.0502375 0.999171 0.690306
4337 4 0.021779 0.993048 0.674475
943 2 0.0514168 0.0235067 0.684686
944 4 0.0525961 0.047842 0.679067
1076 4 0.0576883 0.0658483 0.669978
1075 2 0.0605109 0.0769847 0.692185
1283 4 0.150757 0.0644965 0.674197
825 4 0.161988 0.0514164 0.664469
1147 2 0.249426 0.0524324 0.71007
1148 4 0.233147 0.0685043 0.699976
1226 4 0.237172 0.0872457 0.692511
1149 4 0.265704 0.0363605 0.720164
1092 4 0.30941 0.0182828 0.686274
1004 4 0.38061 0.0782202 0.716496
43 3 0.43794 0.0759446 0.681513
1163 4 0.478155 0.0638778 0.687946
1162 2 0.497754 0.0569936 0.701862
864 4 0.0562807 0.0890524 0.732184
1077 4 0.0633335 0.0881212 0.714393
1107 4 0.0744025 0.0965214 0.727966
851 4 0.0726291 0.104518 0.709779
862 2 0.033497 0.0888521 0.742482
850 2 0.0812653 0.125519 0.699311
852 4 0.0899016 0.146519 0.688844
1282 2 0.152891 0.0886631 0.680247
1284 4 0.155024 0.11283 0.686297
1105 2 0.0883783 0.0992799 0.748514
909 4 0.152404 0.124444 0.702345
907 2 0.176481 0.128699 0.707577
908 4 0.200558 0.132954 0.712809
1227 4 0.219081 0.126599 0.717506
1225 2 0.228126 0.106922 0.705009
830 4 0.324878 0.152326 0.667566
829 2 0.33271 0.140347 0.688068
831 4 0.340542 0.128367 0.70857
1003 2 0.366269 0.0984254 0.719852
1005 4 0.351928 0.118631 0.723208
44 3 0.474316 0.0863509 0.685105
1142 4 0.454267 0.165248 0.737555
1177 2 0.0125728 0.240422 0.687838
1179 4 0.0297324 0.254793 0.676693
1072 2 0.0977961 0.218458 0.738026
1074 4 0.115136 0.235749 0.743076
1073 4 0.0804561 0.201167 0.732975
978 4 0.294784 0.18671 0.745801
1144 2 0.492326 0.170262 0.733581
1025 4 0.440192 0.173596 0.676544
1262 4 0.462183 0.194024 0.733499
1024 2 0.446427 0.176828 0.700541
1026 4 0.452663 0.18006 0.724538
1261 2 0.462966 0.218791 0.736844
1145 4 0.46824 0.176256 0.730565
1263 4 0.463748 0.243557 0.740189
1209 4 0.11444 0.280771 0.708237
1207 2 0.117747 0.267859 0.729391
1208 4 0.121055 0.254947 0.750546
821 4 0.122723 0.270689 0.692151
820 2 0.141985 0.284032 0.683426
822 4 0.161247 0.297374 0.6747
1064 4 0.168536 0.305318 0.693055
1063 2 0.187997 0.315659 0.681244
805 2 0.290647 0.32625 0.684493
807 4 0.27851 0.30441 0.683548
3263 4 0.0347461 0.357765 0.682578
892 2 0.0206445 0.34676 0.750983
894 4 0.0368614 0.363178 0.741359
1280 4 0.0565696 0.363887 0.740103
1279 2 0.0552701 0.382834 0.72384
816 4 0.0599117 0.345186 0.745691
1281 4 0.0539707 0.401781 0.707577
814 2 0.0825069 0.340751 0.755437
1028 4 0.23594 0.362084 0.714622
1066 2 0.198605 0.35568 0.735999
1068 4 0.217505 0.36104 0.720532
1027 2 0.237849 0.385089 0.705015
1029 4 0.239758 0.408094 0.695408
806 4 0.302784 0.34809 0.685437
1018 2 0.394821 0.386544 0.729978
1020 4 0.386098 0.408521 0.721849
1019 4 0.403544 0.364566 0.738108
1983 4 0.059889 0.421406 0.706834
1981 2 0.0703421 0.437846 0.722507
1982 4 0.0807951 0.454287 0.738179
1138 2 0.241504 0.449766 0.683114
1140 4 0.238757 0.424945 0.684363
1175 4 0.209992 0.453204 0.726137
1174 2 0.193191 0.471715 0.726663
1176 4 0.176391 0.490225 0.727189
1988 4 0.298018 0.463273 0.739717
1987 2 0.31637 0.455755 0.72449
1989 4 0.334722 0.448238 0.709263
1229 4 0.323894 0.436194 0.696393
1228 2 0.341562 0.426425 0.681641
2991 4 0.000482215 0.0307077 0.786549
2989 2 0.00324298 0.0540455 0.778011
2990 4 0.00600375 0.0773834 0.769472
2048 4 0.154382 0.00392748 0.745569
2049 4 0.115413 0.0315096 0.760448
1202 4 0.106799 0.0352404 0.778128
2047 2 0.134897 0.0177185 0.753009
1201 2 0.110609 0.0577125 0.788407
1203 4 0.114418 0.0801847 0.798687
817 2 0.321492 0.0446713 0.822946
818 4 0.331651 0.0229683 0.815808
1085 4 0.308202 0.0856808 0.830961
1050 4 0.343193 0.00494994 0.785118
974 4 0.342386 0.0117518 0.804969
973 2 0.358026 0.00342489 0.822611
1113 4 0.426416 0.0369948 0.797367
2322 4 0.504203 0.043283 0.777655
1111 2 0.44948 0.0414749 0.788813
845 4 0.489678 0.0548962 0.785432
1112 4 0.472543 0.0459551 0.780258
844 2 0.492375 0.0759322 0.798676
3083 4 0.994798 0.0829907 0.755712
863 4 0.0107134 0.0886518 0.75278
833 4 0.00353211 0.0963228 0.768707
832 2 0.00940746 0.112046 0.78724
834 4 0.0152828 0.127768 0.805772
1125 4 0.0316233 0.136474 0.811517
1123 2 0.0444112 0.155138 0.822163
1106 4 0.102354 0.102038 0.769063
911 4 0.102039 0.098717 0.831432
34 3 0.108993 0.0970947 0.786819
31 1 0.113836 0.10476 0.808178
35 3 0.0956339 0.115237 0.816986
32 3 0.119399 0.0868062 0.821439
33 3 0.131819 0.119406 0.80745
1257 4 0.277568 0.111104 0.767084
1256 4 0.244053 0.107822 0.804053
840 4 0.254951 0.1077 0.821519
1255 2 0.26081 0.109463 0.785569
1084 2 0.309571 0.0970062 0.808711
1086 4 0.31094 0.108332 0.786462
47 3 0.405892 0.149963 0.81316
1023 4 0.397969 0.148253 0.831675
48 3 0.400822 0.153842 0.776121
846 4 0.495072 0.0969682 0.811919
1143 4 0.420561 0.166564 0.774472
1141 2 0.437414 0.165906 0.756013
1124 4 0.0571992 0.173801 0.832809
1131 4 0.167448 0.261394 0.803009
977 4 0.315435 0.220479 0.776361