ITEM: TIMESTEP
2870000
ITEM: NUMBER OF ATOMS
4590
ITEM: BOX BOUNDS pp pp pp
-9.9985700000000008e+00 9.9985700000000008e+00
-9.9985700000000008e+00 9.9985700000000008e+00
-9.9985700000000008e+00 9.9985700000000008e+00
ITEM: ATOMS id type xs ys zs
1667 4 0.00291838 0.0676093 0.0518826
701 4 0.0184604 0.0748593 0.0624777
491 4 0.26735 0.0758776 0.0884529
485 4 0.417959 0.977199 0.0887431
2974 2 0.456488 0.00982347 0.0171956
745 2 0.434377 0.064448 0.00568643
747 4 0.437682 0.0397659 0.00344114
2467 2 0.488576 0.0138305 0.0676901
986 4 0.422491 0.0265335 0.00406149
2468 4 0.480675 0.99763 0.0503616
2976 4 0.472691 0.999094 0.0329281
2975 4 0.440285 0.0205528 0.00146315
700 2 0.0323808 0.093283 0.0720677
702 4 0.0463011 0.111707 0.0816577
567 4 0.231709 0.163429 0.00100493
566 4 0.212234 0.157614 0.0466953
565 2 0.221972 0.160521 0.0238501
297 4 0.345447 0.118929 0.0284031
746 4 0.431071 0.0891302 0.00793171
558 4 0.432451 0.106015 0.996038
771 4 0.442452 0.15125 0.0318497
555 4 0.0648416 0.232067 0.016087
482 4 0.259989 0.254075 0.0820304
573 4 0.265177 0.250937 0.0626566
571 2 0.278448 0.254421 0.0417539
770 4 0.403227 0.17878 0.0175584
359 4 0.388712 0.190464 0.0119198
664 2 0.399512 0.210839 0.0467093
665 4 0.39665 0.192885 0.0295442
666 4 0.402373 0.228793 0.0638744
323 4 0.410284 0.24648 0.0645869
358 2 0.366095 0.192447 0.00144437
623 4 0.393957 0.241295 0.0755383
769 2 0.422839 0.165015 0.024704
3338 4 0.997393 0.261765 0.00676484
292 2 0.168896 0.318422 0.0360924
294 4 0.154434 0.307143 0.0190983
293 4 0.183359 0.329702 0.0530864
507 4 0.192818 0.327452 0.0669868
287 4 0.202176 0.329648 0.0505798
286 2 0.222362 0.32272 0.0375521
288 4 0.242548 0.315792 0.0245245
505 2 0.197504 0.308302 0.0823648
572 4 0.291719 0.257905 0.0208511
357 4 0.307082 0.25881 0.00965855
355 2 0.320306 0.278949 0.00297142
956 4 0.331635 0.309405 0.0120091
1069 2 0.408072 0.312172 0.0280965
955 2 0.350614 0.320808 0.0236264
1071 4 0.387722 0.32651 0.0304346
957 4 0.369593 0.33221 0.0352436
322 2 0.42132 0.265298 0.05237
324 4 0.432357 0.284116 0.0401532
1070 4 0.428422 0.297833 0.0257584
280 2 0.460169 0.30843 0.0479851
282 4 0.446144 0.294723 0.0324743
281 4 0.474194 0.322138 0.063496
527 4 0.475718 0.323248 0.0822308
671 4 0.460285 0.331435 0.0762428
456 4 0.197822 0.391957 0.0433933
552 4 0.175874 0.336029 0.0690812
454 2 0.1949 0.368478 0.0514776
455 4 0.191978 0.344999 0.059562
1290 4 0.266968 0.400685 0.0331177
250 2 0.267096 0.411397 0.0641958
1288 2 0.27431 0.383165 0.0168594
1289 4 0.281651 0.365644 0.00060116
741 4 0.384863 0.337295 0.0459708
739 2 0.389389 0.341336 0.070227
328 2 0.00490007 0.41715 0.0285558
329 4 0.0259046 0.418919 0.0420042
1788 4 0.0726208 0.472661 0.0752233
1786 2 0.0859642 0.487057 0.0597344
627 4 0.150974 0.493486 0.0727747
626 4 0.194894 0.475413 0.0571215
625 2 0.172934 0.484449 0.0649481
245 4 0.214062 0.474714 0.0615639
244 2 0.23347 0.460536 0.0546726
246 4 0.252878 0.446358 0.0477813
251 4 0.267333 0.419121 0.0404166
272 4 0.261433 0.436641 0.0321282
271 2 0.260642 0.445387 0.00871759
1672 2 0.398575 0.43393 0.06996
853 2 0.388706 0.442496 0.014483
1674 4 0.406425 0.438765 0.0467185
854 4 0.407646 0.447556 0.0300027
564 4 0.419437 0.452569 0.0461111
563 4 0.465022 0.471422 0.0379077
562 2 0.44223 0.461996 0.0420094
228 4 0.484137 0.46762 0.035098
19 3 0.0632025 0.0326202 0.156734
16 1 0.068681 0.0104749 0.160974
578 4 0.0879337 0.0300612 0.163805
577 2 0.100851 0.0513842 0.165718
579 4 0.113768 0.0727072 0.167632
580 2 0.249809 0.07187 0.148186
582 4 0.23997 0.0939849 0.141916
581 4 0.259648 0.0497551 0.154455
490 2 0.279016 0.0541898 0.0927802
1475 4 0.309116 0.0255802 0.0919921
492 4 0.290682 0.032502 0.0971074
2722 2 0.46887 0.0596264 0.164037
2724 4 0.484212 0.0406777 0.158493
1760 4 0.499368 0.0309073 0.151487
2723 4 0.453527 0.0785751 0.169581
486 4 0.447203 0.0156721 0.101604
484 2 0.432581 0.996436 0.0951735
476 4 0.0621543 0.114324 0.0937189
475 2 0.0719827 0.137119 0.0907237
513 4 0.060442 0.152694 0.154325
393 4 0.0680574 0.170041 0.149399
477 4 0.0818111 0.159914 0.0877285
237 4 0.220082 0.0980299 0.147441
235 2 0.201441 0.0941771 0.163653
738 4 0.217269 0.160005 0.100631
628 2 0.375986 0.163605 0.148762
629 4 0.361383 0.144578 0.141697
312 4 0.343918 0.134393 0.147725
310 2 0.340249 0.11681 0.165118
2759 4 0.0120283 0.176529 0.113732
2624 4 0.00731464 0.193187 0.123192
391 2 0.0725871 0.186082 0.168036
737 4 0.244913 0.201661 0.0994835
736 2 0.231091 0.180833 0.100057
755 4 0.247778 0.241158 0.162279
460 2 0.329387 0.227139 0.117388
461 4 0.307317 0.21636 0.112709
354 4 0.290384 0.214392 0.124154
352 2 0.278007 0.22865 0.140546
353 4 0.265629 0.242907 0.156938
630 4 0.39059 0.182631 0.155827
462 4 0.351458 0.237918 0.122066
255 4 0.367329 0.241221 0.134434
253 2 0.375057 0.220738 0.146513
622 2 0.380275 0.244849 0.0961627
624 4 0.366594 0.248403 0.116787
536 4 0.171946 0.255954 0.147214
481 2 0.241123 0.26987 0.0864781
483 4 0.222257 0.285665 0.0909258
506 4 0.20219 0.289151 0.0977428
537 4 0.198521 0.286812 0.118191
535 2 0.185233 0.271383 0.132703
754 2 0.235315 0.262833 0.162046
756 4 0.222851 0.284508 0.161813
301 2 0.32109 0.321533 0.142482
303 4 0.320979 0.303272 0.159561
285 4 0.312222 0.290755 0.167276
764 4 0.331659 0.287877 0.160936
284 4 0.273014 0.260138 0.162171
283 2 0.292618 0.275446 0.164723
765 4 0.353939 0.254072 0.131584
763 2 0.342799 0.270975 0.14626
12 3 0.411003 0.319972 0.115106
647 4 0.0646027 0.357221 0.15597
550 2 0.158392 0.346581 0.0835108
551 4 0.14091 0.357134 0.0979404
290 4 0.213784 0.415105 0.151635
252 4 0.26686 0.403672 0.0879751
302 4 0.321201 0.339795 0.125403
609 4 0.28033 0.411227 0.0999629
387 4 0.325531 0.35102 0.10839
385 2 0.350358 0.351143 0.105426
493 2 0.390116 0.385186 0.101467
495 4 0.389544 0.360495 0.105368
386 4 0.375185 0.351266 0.102463
15 3 0.378016 0.337274 0.112781
740 4 0.393916 0.345377 0.0944832
14 3 0.409847 0.357174 0.10988
11 1 0.399452 0.339194 0.120228
13 3 0.399605 0.34213 0.143245
494 4 0.390688 0.409877 0.0975663
672 4 0.417497 0.339392 0.100873
526 2 0.49764 0.33389 0.0878274
670 2 0.438891 0.335414 0.0885578
1791 4 0.0539179 0.487712 0.132341
1465 2 0.0728053 0.465032 0.109462
1466 4 0.0619411 0.468806 0.131663
1467 4 0.0836696 0.461257 0.0872608
638 4 0.214455 0.490191 0.152396
767 4 0.231534 0.477536 0.155934
637 2 0.198422 0.501445 0.136857
766 2 0.228438 0.453806 0.148689
768 4 0.225342 0.430076 0.141443
607 2 0.299274 0.421712 0.112466
608 4 0.318219 0.432197 0.12497
659 4 0.330601 0.429847 0.10856
660 4 0.380003 0.422944 0.105025
1673 4 0.390724 0.429095 0.0932016
658 2 0.355302 0.426396 0.106792
524 4 0.402345 0.477856 0.136629
523 2 0.396648 0.456912 0.124216
525 4 0.390951 0.435968 0.111804
1559 4 0.384776 0.48897 0.133782
595 2 0.486396 0.411328 0.163344
17 3 0.0539757 0.00202032 0.176512
2480 4 0.0367574 0.00196439 0.188123
2479 2 0.0291133 0.0242545 0.196483
380 4 0.0393868 0.0564039 0.200636
2481 4 0.0214692 0.0465447 0.204844
379 2 0.0357723 0.0795808 0.191979
20 3 0.0898736 0.0091521 0.169206
674 4 0.138048 0.00883444 0.204527
673 2 0.122611 0.00151736 0.222785
450 4 0.125375 0.0748087 0.185576
1504 2 0.232334 0.004221 0.178424
1506 4 0.248019 0.0234172 0.175156
654 4 0.261679 0.0339723 0.167076
652 2 0.285084 0.0339849 0.175873
653 4 0.308489 0.0339975 0.18467
758 4 0.339539 0.0801822 0.189746
759 4 0.361131 0.0749146 0.234543
757 2 0.350335 0.0775484 0.212144
350 4 0.373645 0.0721732 0.241515
349 2 0.396655 0.0625299 0.243168
22 3 0.357103 0.0611437 0.247348
632 4 0.364927 0.0788664 0.251216
480 4 0.439864 0.0593508 0.243906
743 4 0.483258 0.0649647 0.252499
333 4 0.483937 0.0859953 0.250457
511 2 0.0521853 0.13634 0.171341
512 4 0.0439286 0.119986 0.188357
381 4 0.0321578 0.102758 0.183322
448 2 0.146431 0.0882442 0.184437
449 4 0.167487 0.10168 0.183297
236 4 0.1828 0.0903243 0.179866
30 3 0.332801 0.143852 0.229302
26 1 0.347504 0.155353 0.242348
311 4 0.33658 0.0992266 0.182512
761 4 0.41536 0.16483 0.244727
521 4 0.465707 0.142744 0.214815
762 4 0.452541 0.136395 0.227129
760 2 0.43395 0.150613 0.235928
332 4 0.470261 0.129683 0.23033
331 2 0.477099 0.107839 0.240393
520 2 0.486621 0.153347 0.206133
392 4 0.0771168 0.202123 0.186673
339 4 0.0652907 0.21732 0.182588
337 2 0.0568255 0.236702 0.195924
396 4 0.991853 0.25365 0.24885
279 4 0.271406 0.222343 0.216941
277 2 0.268533 0.234256 0.195147
278 4 0.26566 0.24617 0.173353
27 3 0.336966 0.173785 0.2512
254 4 0.382785 0.200255 0.158592
28 3 0.365547 0.162433 0.229592
394 2 0.00873749 0.264778 0.234144
395 4 0.0256223 0.275905 0.219438
338 4 0.0483602 0.256084 0.20926
363 4 0.0439592 0.275909 0.208474
361 2 0.0552779 0.297996 0.211516
648 4 0.0631907 0.331611 0.198898
362 4 0.0665965 0.320082 0.214559
372 4 0.0805284 0.324505 0.202524
749 4 0.054631 0.335769 0.214805
370 2 0.103234 0.325003 0.212983
371 4 0.12594 0.325502 0.223441
612 4 0.231614 0.297421 0.172464
611 4 0.241178 0.322095 0.214896
610 2 0.236396 0.309758 0.19368
344 4 0.225787 0.329144 0.226563
343 2 0.208032 0.322241 0.242759
729 4 0.310134 0.308643 0.17464
727 2 0.29858 0.325175 0.189418
308 4 0.324255 0.294731 0.176851
498 4 0.334304 0.28818 0.231817
307 2 0.336189 0.287731 0.197678
309 4 0.348123 0.280732 0.218505
748 2 0.059151 0.35265 0.232687
646 2 0.0638967 0.344416 0.177434
734 4 0.129289 0.33778 0.237653
733 2 0.152576 0.331258 0.244004
417 4 0.136136 0.366978 0.210033
299 4 0.128557 0.35517 0.248058
289 2 0.203825 0.403071 0.171159
291 4 0.193866 0.391038 0.190683
416 4 0.175701 0.394423 0.196539
415 2 0.155919 0.380701 0.203286
728 4 0.287027 0.341706 0.204196
445 2 0.393144 0.380817 0.239013
446 4 0.371567 0.374646 0.250036
447 4 0.414722 0.386989 0.227991
644 4 0.412754 0.402711 0.214207
643 2 0.433957 0.405641 0.201283
645 4 0.45516 0.408572 0.188359
264 4 0.0130309 0.434875 0.239299
1757 4 0.0300701 0.42919 0.249534
412 2 0.237977 0.467467 0.231018
413 4 0.22835 0.450726 0.2469
414 4 0.247603 0.484209 0.215136
1574 4 0.312027 0.489921 0.20736
1573 2 0.29185 0.500883 0.197464
597 4 0.463319 0.416019 0.171749
229 2 0.467569 0.498485 0.221097
231 4 0.477906 0.478733 0.232419
427 2 0.0597069 0.999173 0.327463
234 4 0.00549792 0.0524159 0.295749
232 2 0.0270747 0.0400606 0.29311
233 4 0.0486514 0.0277053 0.29047
2756 4 0.995632 0.0706017 0.300521
317 4 0.0654782 0.0320594 0.299992
1404 4 0.0654624 0.0176978 0.290633
316 2 0.0785534 0.0481502 0.313967
1402 2 0.0803852 0.0100478 0.272087
428 4 0.0683256 0.0137114 0.309036
2755 2 0.000294128 0.0856633 0.319927
318 4 0.0916287 0.0642411 0.327942
730 2 0.131054 0.0817342 0.325469
731 4 0.154818 0.08873 0.328866
693 4 0.311611 0.0518371 0.279141
691 2 0.301755 0.0716264 0.290821
24 3 0.324342 0.0517357 0.263186
25 3 0.343612 0.0266487 0.242767
21 1 0.345441 0.0440321 0.257365
23 3 0.356914 0.037247 0.276358
351 4 0.419665 0.0528865 0.244822
479 4 0.450793 0.0368431 0.287204
478 2 0.445329 0.048097 0.265555
2664 4 0.464539 0.0263042 0.296125
1428 4 0.444582 0.025109 0.297931
258 4 0.438629 0.0438783 0.299986
2662 2 0.488441 0.0336287 0.295656
256 2 0.425563 0.0584757 0.315523
1426 2 0.440333 0.00332415 0.309444
732 4 0.107291 0.0747383 0.322072
692 4 0.291899 0.0914158 0.302501
721 2 0.264178 0.115769 0.312152
723 4 0.274534 0.100404 0.295364
722 4 0.253822 0.131134 0.328941
29 3 0.354894 0.14187 0.259726
631 2 0.366109 0.102602 0.258989
707 4 0.372043 0.140579 0.271718
633 4 0.367291 0.126337 0.266761
706 2 0.375036 0.142419 0.296474
708 4 0.378029 0.144258 0.321229
444 4 0.0306608 0.219584 0.296688
442 2 0.0179294 0.233247 0.280063
544 2 0.126001 0.247202 0.258134
546 4 0.101429 0.242779 0.259487
403 2 0.244227 0.164077 0.332483
405 4 0.230344 0.183004 0.323868
473 4 0.217964 0.194575 0.335095
269 4 0.399446 0.227919 0.329362
268 2 0.421765 0.223437 0.339704
443 4 0.00519805 0.24691 0.263437
545 4 0.150573 0.251626 0.256781
402 4 0.164339 0.264788 0.248929
375 4 0.159678 0.326794 0.320119
400 2 0.17451 0.284177 0.261002
401 4 0.184682 0.303567 0.273076
676 2 0.176923 0.328395 0.294046
345 4 0.190277 0.315339 0.258954
677 4 0.176283 0.322359 0.269791
735 4 0.175864 0.324735 0.250355
378 4 0.296624 0.275265 0.311574
376 2 0.313323 0.29211 0.303663
377 4 0.330021 0.308955 0.295751
615 4 0.333886 0.326663 0.303498
419 4 0.401657 0.24474 0.320903
497 4 0.3381 0.307927 0.277603
496 2 0.336202 0.298054 0.25471
541 2 0.367209 0.313224 0.306605
542 4 0.388534 0.311386 0.319531
420 4 0.400226 0.294722 0.321541
543 4 0.345885 0.315062 0.29368
418 2 0.400941 0.269731 0.321222
2537 4 0.493635 0.320244 0.327945
750 4 0.063671 0.369531 0.25057
364 2 0.0154277 0.393314 0.303885
365 4 0.0383101 0.383586 0.301252
601 2 0.0578172 0.380996 0.340174
603 4 0.0431505 0.384324 0.320199
300 4 0.0828501 0.371377 0.260264
298 2 0.105703 0.363273 0.254161
678 4 0.177564 0.334431 0.318302
510 4 0.185633 0.350846 0.327964
434 4 0.316234 0.383544 0.305538
433 2 0.307716 0.40669 0.309646
614 4 0.323526 0.373846 0.290571
613 2 0.328706 0.350254 0.297034
1756 2 0.0433526 0.44664 0.261545
1758 4 0.0566351 0.46409 0.273556
1775 4 0.0737088 0.473712 0.279535
777 4 0.0648176 0.487146 0.292574
775 2 0.0542402 0.483049 0.314857
1776 4 0.121971 0.46853 0.26751
1774 2 0.0978399 0.471121 0.273522
1436 4 0.219156 0.443188 0.263885
1435 2 0.23508 0.442542 0.283151
1437 4 0.251005 0.441895 0.302417
4 3 0.248443 0.427092 0.318885
3 3 0.268616 0.4561 0.304884
1 1 0.26611 0.441608 0.322832
436 2 0.306751 0.461206 0.297294
438 4 0.289452 0.447154 0.308628
2 3 0.285419 0.42934 0.325237
435 4 0.299198 0.429836 0.313755
1801 2 0.351085 0.492296 0.298944
437 4 0.32405 0.475259 0.285961
1802 4 0.327574 0.494044 0.290616
119 3 0.490481 0.462761 0.321761
606 4 0.167153 0.0724578 0.330831
604 2 0.184234 0.0773511 0.348423
257 4 0.412498 0.0730732 0.33106
699 4 0.356851 0.059762 0.368156
1699 2 0.355013 0.0269667 0.39235
1700 4 0.355711 0.0514003 0.387088
697 2 0.377184 0.0677388 0.355987
1701 4 0.354316 0.00253311 0.397612
698 4 0.397518 0.0757156 0.343817
2585 4 0.00134026 0.116039 0.35175
397 2 0.0777456 0.0933389 0.350171
398 4 0.0631655 0.103415 0.367808
2584 2 0.024758 0.116468 0.360503
2586 4 0.0481756 0.116897 0.369255
458 4 0.0507863 0.123589 0.387914
457 2 0.0621949 0.137552 0.405235
399 4 0.0923257 0.0832624 0.332534
600 4 0.099155 0.16411 0.360197
605 4 0.201315 0.0822444 0.366015
248 4 0.2179 0.0945662 0.363002
247 2 0.233507 0.112838 0.356093
249 4 0.249115 0.131109 0.349184
404 4 0.25811 0.14515 0.341097
683 4 0.266844 0.136415 0.356271
682 2 0.290505 0.143783 0.359599
684 4 0.314165 0.151152 0.362927
320 4 0.319242 0.162048 0.346768
321 4 0.366814 0.150487 0.336574
319 2 0.343028 0.156268 0.341671
726 4 0.395123 0.140529 0.412965
717 4 0.369857 0.154113 0.357151
715 2 0.383062 0.15362 0.378377
716 4 0.396266 0.153126 0.399604
641 4 0.453362 0.0997383 0.382786
640 2 0.477727 0.0991342 0.388369
598 2 0.105189 0.187496 0.366666
599 4 0.111223 0.210882 0.373135
389 4 0.129587 0.239065 0.373869
686 4 0.112113 0.229406 0.378917
685 2 0.102125 0.229438 0.401839
275 4 0.128703 0.220167 0.37721
274 2 0.153373 0.216568 0.379114
474 4 0.183571 0.217812 0.362984
472 2 0.200767 0.206193 0.34904
276 4 0.178042 0.212969 0.381017
270 4 0.444084 0.218954 0.350046
452 4 0.456613 0.205163 0.358418
451 2 0.464705 0.216586 0.379135
453 4 0.472796 0.228008 0.399853
347 4 0.0654813 0.300322 0.395318
346 2 0.0441821 0.295662 0.407558
348 4 0.0228829 0.291003 0.419798
618 4 0.0759205 0.312832 0.383214
388 2 0.126161 0.260742 0.361888
616 2 0.094766 0.305639 0.36844
390 4 0.122735 0.282418 0.349907
617 4 0.113611 0.298446 0.353665
374 4 0.132139 0.30108 0.353
373 2 0.145908 0.313937 0.336559
602 4 0.072484 0.377667 0.360148
549 4 0.0879791 0.380756 0.371186
547 2 0.0920841 0.403832 0.379894
508 2 0.206871 0.350833 0.341159
509 4 0.228109 0.35082 0.354355
335 4 0.331943 0.373155 0.407057
240 4 0.344072 0.372622 0.391298
238 2 0.354306 0.388271 0.374698
239 4 0.36454 0.40392 0.358098
587 4 0.381856 0.414481 0.358756
752 4 0.475674 0.392487 0.382211
561 4 0.474101 0.397894 0.402572
559 2 0.491051 0.386498 0.416994
751 2 0.483071 0.410713 0.366775
776 4 0.0436628 0.478952 0.337139
500 4 0.0577822 0.465373 0.343388
499 2 0.0682664 0.462377 0.365889
501 4 0.0787506 0.459381 0.38839
548 4 0.096189 0.426908 0.388602
407 4 0.0894877 0.443497 0.394541
406 2 0.104975 0.45127 0.412566
1545 4 0.173625 0.498678 0.411876
1544 4 0.216986 0.494488 0.387321
1556 4 0.225699 0.48131 0.375979
1543 2 0.195306 0.496583 0.399598
5 3 0.262322 0.453452 0.341912
636 4 0.270513 0.490523 0.417398
1555 2 0.246088 0.478949 0.390258
1557 4 0.266476 0.476588 0.404538
586 2 0.385871 0.439159 0.358505
593 4 0.39053 0.478417 0.342863
588 4 0.389887 0.463836 0.358254
592 2 0.414692 0.484777 0.341903
594 4 0.438854 0.491136 0.340943
712 2 0.469098 0.486662 0.344773
714 4 0.486343 0.469088 0.340418
753 4 0.490469 0.428939 0.35134
117 3 0.490689 0.45127 0.357546
719 4 0.0508898 0.00600058 0.475841
718 2 0.0277381 0.00145169 0.467565
369 4 0.0623023 0.00991561 0.461171
963 4 0.302048 0.030085 0.448022
432 4 0.294739 0.0434806 0.460168
430 2 0.309488 0.0440612 0.48035
961 2 0.318397 0.0169856 0.434374
962 4 0.334746 0.00388615 0.420725
1217 4 0.400398 0.0362871 0.477698
425 4 0.350928 0.99337 0.415363
842 4 0.386815 0.0409264 0.491472
1216 2 0.422826 0.0473032 0.478586
1218 4 0.445255 0.0583193 0.479474
260 4 0.0636907 0.169141 0.424665
459 4 0.0736036 0.151516 0.422557
467 4 0.38954 0.158087 0.418045
724 2 0.389861 0.118372 0.423287
725 4 0.3846 0.0962143 0.433609
259 2 0.0753236 0.190711 0.42962
261 4 0.0869565 0.212282 0.434576
687 4 0.0921365 0.229469 0.42476
1035 4 0.0899769 0.229018 0.443486
1033 2 0.0874477 0.251506 0.454118
466 2 0.402386 0.178057 0.425879
468 4 0.415231 0.198027 0.433713
409 2 0.400646 0.230029 0.455876
410 4 0.411153 0.208029 0.450327
515 4 0.468988 0.220027 0.41847
575 4 0.422868 0.208485 0.464854
516 4 0.429154 0.206108 0.445307
574 2 0.435544 0.196436 0.482723
514 2 0.449071 0.213067 0.431889
696 4 0.0948469 0.273233 0.482754
1034 4 0.0849185 0.273995 0.46475
1260 4 0.103342 0.277545 0.466151
1258 2 0.118261 0.297084 0.461589
1259 4 0.133181 0.316623 0.457027
9 3 0.145128 0.319664 0.435154
7 3 0.144797 0.325765 0.472239
411 4 0.390139 0.252029 0.461424
489 4 0.376666 0.264679 0.456567
488 4 0.344561 0.272276 0.418986
487 2 0.360613 0.268477 0.437777
266 4 0.391073 0.269729 0.468385
265 2 0.395905 0.291838 0.479018
267 4 0.400736 0.313946 0.489651
2457 4 0.466981 0.272568 0.516691
3308 4 0.487584 0.33069 0.474484
1011 4 0.469998 0.321019 0.478946
1010 4 0.463541 0.2752 0.497911
1009 2 0.466769 0.298109 0.488428
6 1 0.151157 0.33451 0.451936
326 4 0.0863111 0.356847 0.4841
327 4 0.128275 0.340161 0.462622
325 2 0.107293 0.348504 0.473361
10 3 0.140694 0.354488 0.448765
709 2 0.137588 0.397234 0.490427
711 4 0.119699 0.404089 0.47436
8 3 0.174163 0.337536 0.451947
334 2 0.31576 0.387985 0.419029
336 4 0.299577 0.402816 0.431002
668 4 0.299667 0.399692 0.450907
882 4 0.349986 0.363604 0.483667
560 4 0.508001 0.375101 0.431416
3307 2 0.499969 0.348097 0.461493
1383 4 0.0164255 0.45216 0.474716
1381 2 0.0148412 0.477048 0.47651
568 2 0.154738 0.479416 0.433346
383 4 0.125202 0.464205 0.449897
384 4 0.127813 0.422056 0.476681
382 2 0.126508 0.443131 0.463289
408 4 0.120463 0.459043 0.430591
569 4 0.138193 0.4609 0.436282
570 4 0.171283 0.497931 0.43041
774 4 0.317564 0.452452 0.446374
635 4 0.301446 0.45677 0.437513
634 2 0.28598 0.473647 0.427456
669 4 0.299273 0.44953 0.454994
667 2 0.29947 0.424611 0.452951
773 4 0.358749 0.480077 0.439946
772 2 0.338157 0.466264 0.44316
663 4 0.472521 0.491295 0.470354
2430 4 0.163968 0.0104575 0.499628
341 4 0.183439 0.00833672 0.497934
1152 4 0.198613 0.0663963 0.52457
342 4 0.20232 0.0525705 0.511631
340 2 0.19288 0.0304536 0.504782
1032 4 0.237624 0.0677095 0.576361
1150 2 0.212375 0.0720306 0.54467
431 4 0.324236 0.0446417 0.500533
841 2 0.363752 0.0471258 0.498876
843 4 0.340688 0.0533252 0.50628
1058 4 0.127252 0.101463 0.50638
1270 2 0.0864098 0.145583 0.555212
1271 4 0.102898 0.12747 0.560237
1057 2 0.117169 0.106463 0.528707
1059 4 0.107085 0.111462 0.551034
1155 4 0.117295 0.11453 0.566721
939 4 0.0983724 0.113649 0.569169
1151 4 0.226137 0.077665 0.564771
1180 2 0.233247 0.110919 0.578435
1181 4 0.23939 0.0867073 0.577324
1182 4 0.227105 0.135131 0.579546
1199 4 0.0217783 0.211007 0.580342
879 4 0.0713149 0.182196 0.556662
1198 2 0.00321434 0.215892 0.564321
877 2 0.0563009 0.199165 0.567236
1272 4 0.0699214 0.163695 0.550187
651 4 0.212773 0.228448 0.52148
858 4 0.205678 0.244531 0.512223
898 2 0.243368 0.166944 0.570654
649 2 0.228704 0.211219 0.530112
650 4 0.244635 0.193989 0.538745
899 4 0.251274 0.181945 0.552279
2456 4 0.501577 0.236623 0.520124
576 4 0.448219 0.184386 0.500593
695 4 0.0891419 0.273714 0.532432
694 2 0.0919944 0.273474 0.507593
946 2 0.167772 0.282039 0.569583
856 2 0.196477 0.261773 0.527819
857 4 0.187276 0.279015 0.543415
947 4 0.18357 0.266042 0.558642
798 4 0.203486 0.263954 0.563375
796 2 0.225446 0.271541 0.572616
503 4 0.186316 0.332024 0.510305
797 4 0.247405 0.279129 0.581857
791 4 0.258153 0.29113 0.567515
790 2 0.263545 0.31542 0.569982
2455 2 0.484279 0.254595 0.518407
710 4 0.155477 0.390378 0.506495
502 2 0.179404 0.356013 0.511711
504 4 0.172492 0.380001 0.513116
1189 2 0.237852 0.364744 0.579307
803 4 0.265058 0.367059 0.555192
804 4 0.278791 0.384258 0.510288
802 2 0.271925 0.375659 0.53274
1190 4 0.257444 0.354799 0.567372
1238 4 0.273201 0.358898 0.572302
792 4 0.268937 0.33971 0.572449
1237 2 0.294916 0.362308 0.584219
929 4 0.363739 0.382432 0.549293
881 4 0.35987 0.375218 0.531292
880 2 0.354928 0.369411 0.50748
928 2 0.348326 0.376988 0.568213
2244 4 0.101897 0.495385 0.5753
1081 2 0.0636235 0.0686644 0.639103
1082 4 0.0654001 0.0604303 0.662645
1083 4 0.0618469 0.0768985 0.615561
1030 2 0.242113 0.0523671 0.595587
825 4 0.17146 0.0577125 0.654398
1031 4 0.246602 0.0370247 0.614813
824 4 0.178614 0.00879948 0.661951
823 2 0.175037 0.033256 0.658175
951 4 0.258168 0.0239919 0.624102
949 2 0.272577 0.00478604 0.631079
3008 4 0.497104 0.0205658 0.596432
809 4 0.485511 0.0217907 0.613194
808 2 0.473809 0.0370509 0.629174
810 4 0.462107 0.0523111 0.645154
45 3 0.458274 0.0737947 0.640699
41 1 0.452295 0.068511 0.662029
1127 4 0.0471438 0.0891345 0.621322
1126 2 0.025843 0.0955547 0.609909
1128 4 0.00454225 0.101975 0.598497
938 4 0.0731231 0.0860828 0.602385
1153 2 0.136925 0.126491 0.576558
937 2 0.0857478 0.0998658 0.585777
1154 4 0.156556 0.138451 0.586395
900 4 0.235462 0.151943 0.589028
1221 4 0.170654 0.152435 0.583046
1219 2 0.194701 0.148191 0.58842
1211 4 0.23905 0.141817 0.65649
1210 2 0.235398 0.143387 0.631804
1220 4 0.218749 0.143947 0.593795
1212 4 0.231746 0.144956 0.607118
908 4 0.221665 0.139768 0.664682
1227 4 0.237411 0.129666 0.668397
1192 2 0.324604 0.150941 0.645334
1194 4 0.311722 0.154118 0.666526
3424 2 0.488817 0.100244 0.652023
3425 4 0.469013 0.0855761 0.656251
878 4 0.041287 0.216135 0.577809
1244 4 0.0488197 0.219159 0.596831
1243 2 0.0388869 0.240586 0.605039
1193 4 0.337486 0.147764 0.624141
3123 4 0.491602 0.224712 0.646206
983 4 0.0295695 0.279162 0.603245
1245 4 0.028954 0.262014 0.613246
982 2 0.00937968 0.285703 0.590025
3263 4 0.0553722 0.333512 0.607354
948 4 0.151974 0.298035 0.580524
820 2 0.160267 0.314403 0.662748
1135 2 0.169974 0.322529 0.610496
1136 4 0.167421 0.307554 0.590636
822 4 0.171095 0.331909 0.648553
872 4 0.361624 0.286879 0.603147
871 2 0.361887 0.307888 0.616701
813 4 0.379612 0.330303 0.640969
873 4 0.36215 0.328897 0.630256
954 4 0.449425 0.298015 0.593816
952 2 0.458262 0.319783 0.602375
3262 2 0.0570551 0.355895 0.618369
1041 4 0.0649597 0.392393 0.641566
3264 4 0.0587379 0.378278 0.629384
3240 4 0.055928 0.396555 0.625617
3238 2 0.0325314 0.405289 0.624398
3239 4 0.00913491 0.414024 0.623179
1039 2 0.0899013 0.394149 0.641667
1040 4 0.114843 0.395904 0.641768
993 4 0.128518 0.38084 0.643958
991 2 0.148375 0.365749 0.642191
992 4 0.168233 0.350658 0.640425
1137 4 0.172527 0.337504 0.630356
1064 4 0.183959 0.345622 0.645033
897 4 0.184144 0.352289 0.627097
896 4 0.204917 0.38845 0.599501
895 2 0.194531 0.37037 0.613299
1172 4 0.222374 0.392525 0.595932
1191 4 0.218261 0.37469 0.591241
1171 2 0.227728 0.41675 0.59904
1239 4 0.316631 0.365718 0.596135
930 4 0.332912 0.371544 0.587133
811 2 0.388619 0.353564 0.639246
1204 2 0.379525 0.398428 0.671908
1206 4 0.389123 0.387181 0.651744
927 4 0.390534 0.394375 0.633052
812 4 0.397626 0.376826 0.637523
925 2 0.406481 0.40265 0.615663
926 4 0.422429 0.410925 0.598274
953 4 0.467099 0.34155 0.610934
906 4 0.478744 0.346609 0.59402
540 4 0.103233 0.478808 0.587656
539 4 0.0903144 0.4305 0.587274
538 2 0.0967739 0.454654 0.587465
1159 2 0.142924 0.487026 0.587092
1160 4 0.118668 0.488112 0.581123
1186 2 0.205542 0.468063 0.60699
1173 4 0.233082 0.440975 0.602148
1187 4 0.227293 0.457311 0.613031
1188 4 0.183792 0.478815 0.60095
1161 4 0.16718 0.48594 0.593062
1002 4 0.419913 0.431144 0.594506
1911 4 0.445985 0.489961 0.61508
1001 4 0.444704 0.471993 0.60925
1000 2 0.432309 0.451569 0.601878
1269 4 0.460907 0.476717 0.618291
1267 2 0.472571 0.481788 0.639818
943 2 0.0335578 0.0167278 0.67723
944 4 0.0524256 0.0330438 0.675506
1076 4 0.066344 0.0478292 0.67837
1075 2 0.0677793 0.0650338 0.696456
945 4 0.0146901 0.000411799 0.678955
864 4 0.0600594 0.0726101 0.72847
862 2 0.0421477 0.0691545 0.74557
1283 4 0.158548 0.0707494 0.663452
1105 2 0.0977136 0.0856804 0.741183
1149 4 0.238532 0.0396046 0.725064
1147 2 0.249764 0.0568695 0.710889
1004 4 0.33161 0.0741333 0.742865
1148 4 0.260995 0.0741343 0.696713
1092 4 0.348898 0.00590548 0.685454
42 3 0.4567 0.0462573 0.665841
43 3 0.429603 0.0722924 0.665058
1163 4 0.46942 0.0600619 0.677922
1162 2 0.485001 0.0499857 0.694682
2321 4 0.499535 0.0340589 0.729928
1077 4 0.0692146 0.0822384 0.714543
851 4 0.0747069 0.100311 0.713468
850 2 0.0799492 0.12395 0.70723
852 4 0.0851915 0.147588 0.700993
1107 4 0.0755347 0.085908 0.72964
1282 2 0.168409 0.0896979 0.676448
1284 4 0.17827 0.108646 0.689443
909 4 0.178388 0.128841 0.687229
907 2 0.200027 0.134305 0.675955
1225 2 0.2461 0.107083 0.674698
886 2 0.274805 0.157197 0.670163
888 4 0.251661 0.147754 0.669561
1226 4 0.254789 0.0845001 0.680998
829 2 0.325946 0.148391 0.70044
830 4 0.312494 0.161448 0.683896
1005 4 0.342534 0.121605 0.731561
1003 2 0.337072 0.0978692 0.737213
831 4 0.339398 0.135333 0.716985
44 3 0.464527 0.0812617 0.677069
1214 4 0.997881 0.18529 0.715339
1213 2 0.997861 0.208082 0.725621
1299 4 0.251112 0.181529 0.738852
887 4 0.297949 0.166641 0.670766
977 4 0.30594 0.220478 0.729912
976 2 0.330289 0.219475 0.724319
1298 4 0.285367 0.217456 0.732803
918 4 0.295628 0.229994 0.742742
1297 2 0.268239 0.199493 0.735827
978 4 0.354638 0.218472 0.718727
1025 4 0.401647 0.191474 0.674396
1020 4 0.3698 0.22761 0.725364
1018 2 0.375576 0.244172 0.743183
1024 2 0.415887 0.193855 0.69481
1142 4 0.44213 0.193483 0.729415
1144 2 0.471179 0.186628 0.712677
1262 4 0.438685 0.211684 0.72168
1026 4 0.430127 0.196237 0.715224
1261 2 0.444734 0.235898 0.723178
1145 4 0.449661 0.199359 0.712971
1178 4 0.0069502 0.245565 0.726261
1177 2 0.0246759 0.253903 0.710722
1179 4 0.0424015 0.26224 0.695182
1208 4 0.159138 0.264289 0.72476
1074 4 0.14241 0.26371 0.73355
1207 2 0.162193 0.282161 0.707542
821 4 0.149438 0.296897 0.676942
1209 4 0.165248 0.300033 0.690325
1072 2 0.117736 0.260142 0.73546
1130 4 0.155523 0.252347 0.741848
1073 4 0.093062 0.256574 0.73737
806 4 0.257433 0.323895 0.707898
1263 4 0.450783 0.260113 0.724676
892 2 0.0242245 0.367008 0.735126
1279 2 0.0648367 0.411958 0.731222
1280 4 0.0629771 0.387326 0.727348
816 4 0.0607537 0.367842 0.723371
894 4 0.0461354 0.377736 0.729649
893 4 0.00231364 0.35628 0.740604
814 2 0.0845454 0.360296 0.724852
815 4 0.108337 0.35275 0.726333
942 4 0.122896 0.346481 0.738049
940 2 0.144896 0.354674 0.746652
805 2 0.237451 0.337042 0.700615
1063 2 0.195843 0.354494 0.665164
1065 4 0.207726 0.363366 0.685295
807 4 0.217469 0.350188 0.693331
1028 4 0.210717 0.381456 0.691696
1066 2 0.195814 0.366408 0.725697
1068 4 0.207572 0.365613 0.703645
1027 2 0.223284 0.402786 0.68819
1067 4 0.184056 0.367204 0.74775
1029 4 0.235851 0.424116 0.684685
1205 4 0.369927 0.409675 0.692071
1281 4 0.0666964 0.436589 0.735096
1983 4 0.0739976 0.453998 0.730455
1981 2 0.0953247 0.461417 0.741192
1176 4 0.182787 0.479137 0.736219
1175 4 0.196601 0.488756 0.68913
1174 2 0.189694 0.483946 0.712675
2016 4 0.18616 0.495668 0.748343
1140 4 0.248648 0.42971 0.671185
1138 2 0.267076 0.446253 0.674639
1139 4 0.285503 0.462797 0.678092
1987 2 0.294597 0.45511 0.728013
1229 4 0.30225 0.463814 0.687299
1989 4 0.300692 0.466719 0.706724
2028 4 0.291123 0.475711 0.692615
1228 2 0.324583 0.462828 0.676099
1230 4 0.346917 0.461842 0.664899
1268 4 0.484235 0.48686 0.661345
1101 4 0.482591 0.484946 0.679691
1099 2 0.473742 0.475131 0.700917
1100 4 0.464892 0.465317 0.722143
2168 4 0.495382 0.497474 0.675232
2989 2 0.0131284 0.0278054 0.775555
2990 4 0.0118408 0.0523121 0.770765
2991 4 0.0144161 0.00329861 0.780344
863 4 0.0242361 0.0656989 0.76267
833 4 0.0143006 0.0697463 0.778583
3083 4 0.00543769 0.0665232 0.760611
1106 4 0.119893 0.0854528 0.752725
2049 4 0.118008 0.016838 0.795486
1202 4 0.115589 0.0333466 0.784779
1201 2 0.123652 0.0569581 0.786408
1203 4 0.131716 0.0805697 0.788037
1085 4 0.323484 0.0686405 0.807078
960 4 0.325879 0.0728846 0.826936
819 4 0.338788 0.0629475 0.817063
817 2 0.348351 0.0450134 0.8025
818 4 0.357915 0.0270793 0.787937
974 4 0.359194 0.00898003 0.798217
845 4 0.495905 0.0643328 0.79182
2322 4 0.491399 0.05304 0.775471
2320 2 0.495467 0.0435494 0.752699
832 2 0.0146575 0.0873372 0.796349
834 4 0.0150144 0.104928 0.814114
1125 4 0.0257283 0.113555 0.826749
32 3 0.147211 0.092034 0.798246
911 4 0.133854 0.104701 0.810969
34 3 0.122212 0.0941924 0.770263
31 1 0.136234 0.106465 0.78409
35 3 0.124025 0.121222 0.796412
33 3 0.151925 0.117864 0.771353
1256 4 0.232416 0.115329 0.807369