ITEM: TIMESTEP
2840000
ITEM: NUMBER OF ATOMS
4590
ITEM: BOX BOUNDS pp pp pp
-9.9985700000000008e+00 9.9985700000000008e+00
-9.9985700000000008e+00 9.9985700000000008e+00
-9.9985700000000008e+00 9.9985700000000008e+00
ITEM: ATOMS id type xs ys zs
1667 4 0.00889406 0.0693756 0.0482975
701 4 0.0239907 0.0827309 0.0485689
491 4 0.287275 0.0714772 0.0772061
485 4 0.413779 0.999027 0.0681374
2974 2 0.461308 0.0155983 0.0170673
745 2 0.434279 0.068796 0.00985643
747 4 0.434915 0.0456861 0.000332623
2467 2 0.494531 0.0159332 0.0645891
986 4 0.427343 0.0289437 0.00605143
2468 4 0.485826 0.0016897 0.045974
2976 4 0.47535 0.99925 0.029745
2975 4 0.447265 0.0319466 0.00438963
700 2 0.0410175 0.0941885 0.0628514
702 4 0.0580443 0.105646 0.0771338
567 4 0.226959 0.160684 0.00471255
566 4 0.221994 0.159663 0.0544621
565 2 0.224477 0.160173 0.0295873
297 4 0.327031 0.115926 0.0117979
746 4 0.433642 0.091906 0.0193802
558 4 0.426167 0.102331 0.00330608
771 4 0.444653 0.163943 0.0165251
555 4 0.0498101 0.226201 0.00765327
482 4 0.251802 0.249309 0.078017
573 4 0.26594 0.243368 0.0652627
571 2 0.280086 0.249728 0.0456509
770 4 0.397394 0.179616 0.0211778
359 4 0.395133 0.197676 0.0163802
664 2 0.400641 0.209349 0.0509235
665 4 0.392195 0.19205 0.0349677
666 4 0.409086 0.226648 0.0668794
323 4 0.412227 0.245227 0.0665782
358 2 0.374289 0.199039 0.00263785
623 4 0.403805 0.239278 0.0826967
769 2 0.421024 0.17178 0.0188515
3338 4 0.999055 0.267194 0.0131682
292 2 0.162459 0.320161 0.0376687
294 4 0.14595 0.311718 0.0208962
293 4 0.178969 0.328605 0.0544412
507 4 0.189337 0.327048 0.0679391
287 4 0.198998 0.329376 0.0520115
286 2 0.218331 0.323636 0.0372311
288 4 0.237664 0.317895 0.0224508
505 2 0.197249 0.310463 0.0848954
572 4 0.294232 0.256088 0.0260392
357 4 0.309706 0.258984 0.0140609
355 2 0.316215 0.281003 0.00416186
956 4 0.332741 0.317036 0.00331057
1069 2 0.40356 0.308962 0.029801
955 2 0.35062 0.325666 0.018511
1071 4 0.381812 0.321013 0.0324425
957 4 0.368499 0.334296 0.0337114
322 2 0.421788 0.262389 0.0511115
324 4 0.431348 0.279551 0.0356447
1070 4 0.425308 0.296911 0.0271596
280 2 0.456249 0.306803 0.0464328
282 4 0.443926 0.292614 0.0299403
281 4 0.468572 0.320992 0.0629253
527 4 0.475464 0.332828 0.0776346
671 4 0.456777 0.330647 0.0751724
456 4 0.195013 0.392659 0.0433316
552 4 0.177517 0.341452 0.0704371
454 2 0.191959 0.368685 0.0497442
455 4 0.188906 0.344712 0.0561567
1290 4 0.268996 0.407486 0.0293428
250 2 0.268275 0.415038 0.0662609
1288 2 0.270678 0.386133 0.0164427
1289 4 0.272359 0.36478 0.00354268
741 4 0.382807 0.336996 0.0459256
739 2 0.386571 0.341197 0.0702846
328 2 0.00374098 0.425724 0.023675
329 4 0.0242441 0.434252 0.0351673
1788 4 0.0937207 0.472199 0.0799049
1786 2 0.0944929 0.492565 0.0654188
627 4 0.15197 0.488139 0.0695086
626 4 0.201503 0.481904 0.0666318
625 2 0.176736 0.485021 0.0680702
245 4 0.218258 0.473651 0.073076
244 2 0.237134 0.461632 0.0619217
246 4 0.256011 0.449613 0.0507674
251 4 0.269519 0.423157 0.0426449
272 4 0.254128 0.43595 0.0361585
271 2 0.260075 0.441082 0.0124209
1672 2 0.399789 0.43133 0.0675325
853 2 0.386831 0.442496 0.0140921
1674 4 0.408465 0.432505 0.0441119
854 4 0.404371 0.446177 0.0315275
564 4 0.423208 0.44381 0.039488
563 4 0.465317 0.470334 0.0345824
562 2 0.444263 0.457072 0.0370352
228 4 0.483137 0.473558 0.0268449
19 3 0.0711145 0.0328226 0.151058
16 1 0.0721857 0.0131121 0.163254
578 4 0.088669 0.0330315 0.165505
577 2 0.105349 0.0516548 0.165168
579 4 0.12203 0.0702782 0.164831
580 2 0.247481 0.0611543 0.149209
582 4 0.235571 0.082382 0.143489
581 4 0.259391 0.0399266 0.154929
490 2 0.290092 0.0526883 0.0934608
1475 4 0.302021 0.0226442 0.0963733
492 4 0.292909 0.0338993 0.109716
2722 2 0.467792 0.0568879 0.167381
2724 4 0.490387 0.0481874 0.161141
1760 4 0.497778 0.0306815 0.152429
2723 4 0.445197 0.0655884 0.17362
486 4 0.428496 0.00617997 0.115392
484 2 0.421137 0.00260374 0.0917646
476 4 0.0603534 0.108328 0.0971545
475 2 0.0711502 0.130168 0.102777
513 4 0.0547895 0.157449 0.155644
393 4 0.0751151 0.160562 0.159504
477 4 0.0819471 0.152008 0.1084
237 4 0.22036 0.0894608 0.154757
235 2 0.19915 0.0931773 0.167465
738 4 0.222783 0.158349 0.0948303
628 2 0.370272 0.163761 0.158368
629 4 0.361028 0.141901 0.1505
312 4 0.352606 0.126288 0.139931
310 2 0.347708 0.112519 0.160218
2759 4 0.00765252 0.173357 0.111159
2624 4 0.00269892 0.191729 0.118851
391 2 0.0789694 0.184782 0.164377
737 4 0.244504 0.203057 0.100313
736 2 0.233644 0.180703 0.0975715
755 4 0.247349 0.248906 0.160647
460 2 0.329846 0.227723 0.112658
461 4 0.308452 0.216906 0.105555
354 4 0.292531 0.218738 0.117919
352 2 0.278513 0.231927 0.133879
353 4 0.264495 0.245117 0.149839
630 4 0.379516 0.18562 0.166236
462 4 0.35124 0.23854 0.119761
255 4 0.3624 0.239128 0.136591
253 2 0.3743 0.221749 0.150064
622 2 0.386787 0.241062 0.100928
624 4 0.369769 0.242845 0.11916
536 4 0.172902 0.264108 0.149714
481 2 0.235571 0.266689 0.0857432
483 4 0.219341 0.284069 0.0934693
506 4 0.205161 0.293878 0.101852
537 4 0.18624 0.2875 0.107575
535 2 0.179571 0.275804 0.128644
754 2 0.233436 0.269499 0.163395
756 4 0.219524 0.290092 0.166143
301 2 0.317132 0.319445 0.136987
303 4 0.318694 0.303806 0.156433
285 4 0.313429 0.291105 0.164462
764 4 0.331035 0.288845 0.155158
284 4 0.275176 0.259333 0.159169
283 2 0.294303 0.275219 0.161815
765 4 0.356023 0.254843 0.128323
763 2 0.343529 0.271844 0.14174
12 3 0.407936 0.321473 0.114927
647 4 0.0712574 0.348282 0.156652
550 2 0.157758 0.345886 0.0851028
551 4 0.137998 0.35032 0.0997685
290 4 0.232398 0.408813 0.157554
252 4 0.267031 0.40692 0.089877
302 4 0.315569 0.335085 0.117541
609 4 0.279007 0.406454 0.106417
387 4 0.321557 0.352066 0.107356
385 2 0.346373 0.35201 0.104301
493 2 0.387142 0.386594 0.0981609
495 4 0.386361 0.362019 0.102705
386 4 0.37119 0.351954 0.101246
15 3 0.375001 0.338928 0.11305
740 4 0.390335 0.345398 0.0946437
14 3 0.406812 0.35832 0.107598
11 1 0.39676 0.34107 0.119423
13 3 0.397956 0.345332 0.1422
494 4 0.387923 0.411168 0.0936164
672 4 0.414223 0.34018 0.0996468
526 2 0.498263 0.339407 0.085515
670 2 0.4355 0.335414 0.0874096
1791 4 0.0643065 0.489386 0.132981
1465 2 0.0742466 0.463988 0.111073
1466 4 0.0680405 0.469555 0.134645
1467 4 0.0804527 0.45842 0.0875
638 4 0.225161 0.489975 0.133534
767 4 0.229336 0.475573 0.147333
637 2 0.2017 0.494742 0.126321
766 2 0.233553 0.450927 0.147353
768 4 0.23777 0.426282 0.147373
607 2 0.301557 0.416212 0.111051
608 4 0.324106 0.42597 0.115685
659 4 0.329704 0.43685 0.0998817
660 4 0.378641 0.426799 0.102082
1673 4 0.391113 0.430155 0.090953
658 2 0.354172 0.431824 0.100982
524 4 0.411091 0.482219 0.121313
523 2 0.403036 0.459381 0.115089
525 4 0.39498 0.436544 0.108865
1559 4 0.396305 0.494046 0.12287
595 2 0.479263 0.421066 0.163709
17 3 0.0540053 0.0120663 0.177309
2480 4 0.0344344 0.00697215 0.178839
2479 2 0.0239736 0.0273728 0.188817
380 4 0.0241308 0.0615028 0.209434
2481 4 0.0135127 0.0477734 0.198795
379 2 0.0299073 0.0812553 0.195234
20 3 0.0912851 0.0126732 0.175651
674 4 0.138709 0.00952617 0.204446
673 2 0.120936 0.00305048 0.220797
450 4 0.116521 0.0804781 0.179943
1504 2 0.226582 0.000663742 0.177351
1506 4 0.238291 0.022056 0.171832
654 4 0.258328 0.0266096 0.170241
652 2 0.282067 0.029731 0.177445
653 4 0.305806 0.0328525 0.184648
758 4 0.34168 0.0791004 0.186402
759 4 0.358121 0.0706424 0.232865
757 2 0.3499 0.0748714 0.209634
350 4 0.375783 0.0726438 0.240133
349 2 0.397642 0.0614085 0.244732
22 3 0.358189 0.0666211 0.247481
632 4 0.365094 0.0838346 0.247478
480 4 0.439139 0.0530365 0.244464
743 4 0.485569 0.066284 0.243956
333 4 0.49123 0.0846253 0.241582
511 2 0.0497822 0.138039 0.170589
512 4 0.0447749 0.118629 0.185534
381 4 0.0356838 0.101008 0.181033
448 2 0.138027 0.0928954 0.182855
449 4 0.159533 0.105313 0.185766
236 4 0.17794 0.0968937 0.180173
30 3 0.339424 0.142779 0.220558
26 1 0.345752 0.158409 0.235865
311 4 0.342811 0.0987494 0.180506
761 4 0.418483 0.165989 0.239476
521 4 0.467408 0.140738 0.21147
762 4 0.452403 0.134511 0.220521
760 2 0.435443 0.15025 0.229999
332 4 0.468545 0.126251 0.225663
331 2 0.479887 0.105438 0.233622
520 2 0.485747 0.157166 0.207116
392 4 0.0828236 0.209001 0.16925
339 4 0.0733516 0.219041 0.182451
337 2 0.0607131 0.236977 0.19444
396 4 0.998304 0.247894 0.246569
279 4 0.271229 0.222789 0.211143
277 2 0.268108 0.234088 0.189057
278 4 0.264988 0.245386 0.166971
27 3 0.327989 0.172354 0.240242
254 4 0.3862 0.20437 0.163538
28 3 0.363318 0.171042 0.227482
394 2 0.0101141 0.258858 0.227451
395 4 0.0219248 0.269822 0.208334
338 4 0.0480746 0.254914 0.206429
363 4 0.0409205 0.273123 0.210938
361 2 0.0518414 0.295453 0.213638
648 4 0.0680528 0.330492 0.203278
362 4 0.0627623 0.317783 0.216338
372 4 0.0814224 0.317772 0.207695
749 4 0.0513495 0.333824 0.212719
370 2 0.103387 0.320338 0.219362
371 4 0.125353 0.322905 0.23103
612 4 0.228155 0.305906 0.1752
611 4 0.24338 0.323481 0.219473
610 2 0.235767 0.314694 0.197337
344 4 0.226727 0.331199 0.228091
343 2 0.208147 0.325372 0.243775
729 4 0.30892 0.307462 0.172297
727 2 0.295388 0.324497 0.184621
308 4 0.326233 0.296364 0.172319
498 4 0.335909 0.287045 0.232968
307 2 0.33533 0.287879 0.194008
309 4 0.344428 0.279394 0.215697
748 2 0.0568065 0.346032 0.233847
646 2 0.0696551 0.339387 0.179965
734 4 0.126102 0.342247 0.236131
733 2 0.148596 0.335077 0.244365
417 4 0.143175 0.383809 0.205464
299 4 0.125775 0.361452 0.244194
289 2 0.21082 0.403667 0.16909
291 4 0.189242 0.398521 0.180625
416 4 0.192448 0.387481 0.197753
415 2 0.167811 0.385645 0.201609
728 4 0.281857 0.341533 0.196945
445 2 0.399538 0.380422 0.231476
446 4 0.381268 0.365197 0.239196
447 4 0.417807 0.395648 0.223757
644 4 0.42473 0.384355 0.208839
643 2 0.441757 0.397524 0.196117
645 4 0.458783 0.410693 0.183395
264 4 0.0155816 0.428209 0.2353
1757 4 0.0330447 0.434813 0.2434
412 2 0.236471 0.467312 0.22962
413 4 0.224226 0.449402 0.242048
414 4 0.248716 0.485223 0.217192
1574 4 0.318257 0.472402 0.192574
1573 2 0.305141 0.493667 0.191585
597 4 0.455222 0.425002 0.169341
229 2 0.468755 0.494106 0.22895
231 4 0.48867 0.48002 0.234442
427 2 0.0633297 0.999943 0.324758
234 4 0.00828127 0.0542582 0.283624
232 2 0.0306408 0.0435737 0.286951
233 4 0.0530004 0.0328893 0.290279
2756 4 0.00180338 0.0642742 0.300927
317 4 0.0730951 0.0314641 0.295734
1404 4 0.0644093 0.0179737 0.29093
316 2 0.0831924 0.0495321 0.309762
1402 2 0.0776068 0.00919783 0.271592
428 4 0.0735659 0.0127122 0.305854
2755 2 0.99973 0.0836309 0.316617
318 4 0.0932896 0.0676002 0.323789
730 2 0.129732 0.0793255 0.32331
731 4 0.154403 0.0762131 0.325921
693 4 0.315685 0.0582419 0.279141
691 2 0.29662 0.0714919 0.288422
24 3 0.324545 0.0575447 0.261563
25 3 0.348787 0.0306887 0.251136
21 1 0.346886 0.0513724 0.260475
23 3 0.356138 0.0513319 0.281755
351 4 0.4195 0.0501732 0.249331
479 4 0.449373 0.0323132 0.28881
478 2 0.444256 0.0426749 0.266637
2664 4 0.467094 0.0308583 0.296151
1428 4 0.449131 0.022011 0.302161
258 4 0.435532 0.0397009 0.29972
2662 2 0.491684 0.0344111 0.298958
256 2 0.425697 0.0537563 0.31791
1426 2 0.442911 0.999605 0.311352
732 4 0.10506 0.0824378 0.320698
692 4 0.277555 0.084742 0.297703
721 2 0.271338 0.119166 0.314075
723 4 0.284995 0.104084 0.299542
722 4 0.257682 0.134248 0.328608
29 3 0.352174 0.148023 0.255595
631 2 0.362964 0.107446 0.255423
707 4 0.362355 0.143855 0.271146
633 4 0.360835 0.131058 0.263369
706 2 0.368724 0.148006 0.294966
708 4 0.375094 0.152157 0.318785
444 4 0.0217185 0.224629 0.301779
442 2 0.0144185 0.238334 0.282181
544 2 0.130069 0.238896 0.270605
546 4 0.10866 0.226504 0.274245
403 2 0.245767 0.167242 0.332957
405 4 0.238078 0.187763 0.320918
473 4 0.222502 0.199559 0.325227
269 4 0.401033 0.2318 0.322944
268 2 0.421737 0.221275 0.332206
443 4 0.0071186 0.252038 0.262583
545 4 0.151478 0.251289 0.266965
402 4 0.162945 0.263282 0.25409
375 4 0.158193 0.327921 0.328296
400 2 0.173261 0.284334 0.262784
401 4 0.183576 0.305386 0.271479
676 2 0.173384 0.331607 0.29331
345 4 0.189566 0.319544 0.259459
677 4 0.17718 0.323998 0.269796
735 4 0.17109 0.327907 0.252598
378 4 0.30057 0.286509 0.321985
376 2 0.315294 0.298111 0.305439
377 4 0.330018 0.309714 0.288892
615 4 0.333717 0.327452 0.283679
419 4 0.406371 0.251609 0.326937
497 4 0.343863 0.298628 0.280961
496 2 0.339886 0.292837 0.256964
541 2 0.369579 0.316207 0.301571
542 4 0.393063 0.318437 0.309862
420 4 0.398779 0.299482 0.314637
543 4 0.346096 0.313978 0.29328
418 2 0.402575 0.275546 0.320787
2537 4 0.496386 0.31848 0.322777
750 4 0.0622634 0.35824 0.254974
364 2 0.0103486 0.394783 0.303831
365 4 0.0343001 0.389929 0.298545
601 2 0.0587899 0.375971 0.327365
603 4 0.0418163 0.374375 0.309075
300 4 0.0782918 0.371511 0.25623
298 2 0.102033 0.366481 0.250212
678 4 0.169589 0.339216 0.316823
510 4 0.184976 0.350865 0.317706
434 4 0.311324 0.38296 0.309663
433 2 0.305817 0.407332 0.310608
614 4 0.325645 0.374559 0.298393
613 2 0.329681 0.351005 0.291036
1756 2 0.04825 0.444169 0.260906
1758 4 0.0634553 0.453524 0.278411
1775 4 0.0708962 0.471237 0.284678
777 4 0.0598288 0.488185 0.288922
775 2 0.0541599 0.482459 0.312591
1776 4 0.113712 0.47631 0.259345
1774 2 0.0923043 0.473774 0.272011
1436 4 0.230234 0.445103 0.260349
1435 2 0.244432 0.445572 0.280925
1437 4 0.258629 0.44604 0.301502
4 3 0.253622 0.432751 0.319824
3 3 0.274846 0.460782 0.305397
1 1 0.271556 0.446946 0.323731
436 2 0.313609 0.460024 0.299266
438 4 0.293345 0.449027 0.30894
2 3 0.290486 0.43429 0.326989
435 4 0.300311 0.431703 0.311554
1801 2 0.35465 0.501111 0.302496
437 4 0.333874 0.471021 0.289592
1802 4 0.334783 0.491276 0.290931
119 3 0.490781 0.460917 0.32064
606 4 0.159884 0.0705369 0.342547
604 2 0.18096 0.0781183 0.353659
257 4 0.415862 0.0678116 0.336101
699 4 0.357618 0.0556358 0.365431
1699 2 0.34753 0.0267304 0.388064
1700 4 0.343172 0.0480792 0.375799
697 2 0.376957 0.06139 0.350663
1701 4 0.351889 0.0053817 0.400328
698 4 0.396296 0.0671441 0.335896
2585 4 0.00113348 0.1168 0.346524
397 2 0.076902 0.10381 0.343148
398 4 0.0642543 0.121852 0.354968
2584 2 0.0238755 0.119374 0.356591
2586 4 0.0466176 0.121948 0.366658
458 4 0.0442774 0.132958 0.38429
457 2 0.0526547 0.140216 0.406703
399 4 0.0895497 0.0857688 0.331328
600 4 0.0998116 0.163368 0.353028
605 4 0.202037 0.0856997 0.364771
248 4 0.216525 0.0999847 0.366178
247 2 0.234608 0.113994 0.356082
249 4 0.252691 0.128004 0.345986
404 4 0.253457 0.14672 0.344995
683 4 0.261737 0.141365 0.360984
682 2 0.286446 0.144482 0.363205
684 4 0.311155 0.147599 0.365427
320 4 0.317962 0.140502 0.349098
321 4 0.3647 0.153709 0.337187
319 2 0.341331 0.147106 0.343142
726 4 0.392807 0.133282 0.412826
717 4 0.376225 0.155606 0.354737
715 2 0.383701 0.152417 0.378383
716 4 0.391176 0.149228 0.402029
641 4 0.454523 0.0986156 0.386784
640 2 0.479124 0.0950349 0.389466
598 2 0.106292 0.185015 0.363732
599 4 0.112772 0.206662 0.374436
389 4 0.128015 0.233899 0.371141
686 4 0.121508 0.220685 0.385665
685 2 0.105043 0.224432 0.404105
275 4 0.129351 0.215059 0.369467
274 2 0.153591 0.209781 0.372585
474 4 0.187404 0.210012 0.35928
472 2 0.204953 0.204786 0.342253
276 4 0.177832 0.204503 0.375703
270 4 0.44244 0.21075 0.341467
452 4 0.460738 0.20733 0.349221
451 2 0.466249 0.214611 0.372497
453 4 0.47176 0.221892 0.395774
347 4 0.0650717 0.295043 0.389038
346 2 0.0421227 0.293208 0.398793
348 4 0.0191736 0.291373 0.408547
618 4 0.068608 0.305386 0.371712
388 2 0.123667 0.257795 0.365204
616 2 0.0933189 0.302346 0.369406
390 4 0.119318 0.281691 0.359267
617 4 0.11803 0.299307 0.367101
374 4 0.12423 0.297151 0.348308
373 2 0.141211 0.312536 0.338302
602 4 0.0757634 0.377567 0.345655
549 4 0.0755597 0.382059 0.364213
547 2 0.0806899 0.40071 0.380056
508 2 0.202303 0.353346 0.335561
509 4 0.219629 0.355827 0.353417
335 4 0.330806 0.369587 0.402168
240 4 0.335417 0.378239 0.384388
238 2 0.346492 0.397693 0.37325
239 4 0.357567 0.417148 0.362112
587 4 0.377086 0.413597 0.359075
752 4 0.479101 0.388101 0.374867
561 4 0.476633 0.38584 0.395859
559 2 0.488404 0.37551 0.41535
751 2 0.484966 0.409685 0.363689
776 4 0.048491 0.476733 0.336261
500 4 0.0641565 0.46504 0.344702
499 2 0.0698327 0.457339 0.367803
501 4 0.0755089 0.449638 0.390904
548 4 0.08582 0.419361 0.3959
407 4 0.0840152 0.438058 0.403342
406 2 0.101497 0.450002 0.416643
1545 4 0.176314 0.498779 0.412333
1544 4 0.219773 0.497211 0.387643
1556 4 0.226346 0.48319 0.373791
1543 2 0.198044 0.497995 0.399988
5 3 0.267628 0.459492 0.342328
636 4 0.274744 0.49354 0.409044
1555 2 0.249376 0.487303 0.382616
1557 4 0.272406 0.491415 0.391442
586 2 0.384132 0.437587 0.35909
593 4 0.388417 0.473514 0.343651
588 4 0.391178 0.461578 0.359105
592 2 0.411138 0.483547 0.340774
594 4 0.433858 0.493581 0.337896
712 2 0.468038 0.48703 0.33964
714 4 0.486183 0.46983 0.33997
753 4 0.490831 0.431268 0.352511
117 3 0.489853 0.453735 0.357521
719 4 0.0510407 0.00630508 0.471015
718 2 0.0281105 0.000586977 0.462849
369 4 0.0674335 0.011633 0.461053
963 4 0.310915 0.0350381 0.45949
432 4 0.297792 0.0455682 0.470633
430 2 0.312703 0.0446546 0.490684
961 2 0.320937 0.0220761 0.440603
962 4 0.330959 0.00911397 0.421716
1217 4 0.393485 0.036049 0.468171
425 4 0.349565 0.00493016 0.421124
842 4 0.387843 0.047011 0.483778
1216 2 0.415688 0.0439557 0.476519
1218 4 0.437891 0.0518624 0.484868
260 4 0.0631389 0.166211 0.43964
459 4 0.061032 0.147475 0.429115
467 4 0.401191 0.151006 0.418386
724 2 0.390464 0.111177 0.424274
725 4 0.388122 0.0890718 0.435722
259 2 0.0727254 0.18901 0.435967
261 4 0.0823119 0.211809 0.432294
687 4 0.0885771 0.228178 0.422544
1035 4 0.0846066 0.228399 0.440956
1033 2 0.086115 0.247176 0.457397
466 2 0.407822 0.173841 0.426117
468 4 0.414453 0.196676 0.433847
409 2 0.405359 0.232228 0.45632
410 4 0.416088 0.211449 0.447471
515 4 0.469576 0.219522 0.416533
575 4 0.427134 0.200313 0.461208
516 4 0.431301 0.200828 0.44273
574 2 0.433789 0.187215 0.48144
514 2 0.450438 0.210175 0.429632
696 4 0.0848903 0.282445 0.48302
1034 4 0.0876234 0.265953 0.473839
1260 4 0.0959259 0.28207 0.466839
1258 2 0.112561 0.299786 0.46096
1259 4 0.129196 0.317503 0.45508
9 3 0.143323 0.317683 0.434202
7 3 0.139382 0.325623 0.470727
411 4 0.39463 0.253007 0.465168
489 4 0.377353 0.262877 0.459079
488 4 0.344956 0.278725 0.424438
487 2 0.361155 0.270801 0.441758
266 4 0.388515 0.26974 0.472112
265 2 0.396019 0.290764 0.483375
267 4 0.403523 0.311788 0.494638
2457 4 0.458499 0.265377 0.49679
3308 4 0.480145 0.33224 0.48714
1011 4 0.469309 0.323858 0.501821
1010 4 0.456662 0.279491 0.482526
1009 2 0.462985 0.301675 0.492174
6 1 0.147174 0.333624 0.450617
326 4 0.085513 0.364722 0.481093
327 4 0.124685 0.340545 0.461556
325 2 0.105099 0.352633 0.471324
10 3 0.136201 0.352901 0.445454
709 2 0.145331 0.390659 0.490052
711 4 0.127142 0.39952 0.475361
8 3 0.169935 0.337729 0.452489
334 2 0.313854 0.377853 0.418583
336 4 0.296901 0.38612 0.434999
668 4 0.288629 0.404195 0.444883
882 4 0.341237 0.371441 0.495359
560 4 0.500174 0.365179 0.434841
3307 2 0.492373 0.343398 0.468401
1383 4 0.00840931 0.452089 0.479356
1381 2 0.0125565 0.476551 0.482457
568 2 0.154282 0.475747 0.435687
383 4 0.120426 0.45135 0.447358
384 4 0.137574 0.416749 0.47913
382 2 0.129 0.43405 0.463244
408 4 0.118978 0.461946 0.429944
569 4 0.135455 0.459815 0.439794
570 4 0.173109 0.491679 0.43158
774 4 0.315054 0.456733 0.447158
635 4 0.301813 0.471668 0.444955
634 2 0.288278 0.482604 0.427
669 4 0.296857 0.453485 0.443018
667 2 0.292743 0.42884 0.44395
773 4 0.362624 0.47215 0.446807
772 2 0.338839 0.464442 0.446983
663 4 0.471912 0.498011 0.462361
2430 4 0.1658 0.0142079 0.518416
341 4 0.178013 0.016932 0.503033
1152 4 0.198057 0.0641414 0.52432
342 4 0.209635 0.0546495 0.511875
340 2 0.193824 0.0357908 0.507454
1032 4 0.23054 0.0773271 0.577959
1150 2 0.211384 0.0747463 0.542626
431 4 0.327613 0.0437409 0.510735
841 2 0.367124 0.048159 0.497728
843 4 0.346406 0.0493069 0.511679
1058 4 0.125247 0.100897 0.509096
1270 2 0.0876499 0.146755 0.553431
1271 4 0.0996316 0.124893 0.555348
1057 2 0.12025 0.108372 0.532428
1059 4 0.115254 0.115846 0.555759
1155 4 0.112911 0.12675 0.571108
939 4 0.0997256 0.113414 0.56808
1151 4 0.224711 0.0853512 0.560932
1180 2 0.235711 0.111605 0.575015
1181 4 0.242381 0.0885238 0.56809
1182 4 0.22904 0.134686 0.58194
1199 4 0.0207276 0.202546 0.579093
879 4 0.0589627 0.176734 0.542403
1198 2 0.00105224 0.211962 0.56687
877 2 0.0493935 0.188875 0.562055
1272 4 0.0756681 0.168616 0.551513
651 4 0.210697 0.227864 0.510761
858 4 0.211691 0.248207 0.510083
898 2 0.236435 0.172729 0.575207
649 2 0.225653 0.218287 0.528362
650 4 0.240609 0.20871 0.545963
899 4 0.239609 0.193751 0.562047
2456 4 0.49643 0.23619 0.511282
576 4 0.440445 0.174116 0.501671
695 4 0.0912535 0.26341 0.528823
694 2 0.0880719 0.272927 0.505922
946 2 0.174186 0.279969 0.57225
856 2 0.196031 0.262216 0.523636
857 4 0.180371 0.276226 0.537188
947 4 0.187352 0.268518 0.554342
798 4 0.205218 0.262012 0.556323
796 2 0.226926 0.266232 0.567992
503 4 0.198037 0.335821 0.506231
797 4 0.248633 0.270451 0.57966
791 4 0.25709 0.289598 0.582478
790 2 0.256578 0.313125 0.57403
2455 2 0.477464 0.250783 0.504036
710 4 0.163519 0.381798 0.504743
502 2 0.186577 0.356961 0.513085
504 4 0.175118 0.378101 0.519939
1189 2 0.236355 0.365217 0.582298
803 4 0.265316 0.362817 0.554534
804 4 0.273944 0.370187 0.505831
802 2 0.26963 0.366502 0.530182
1190 4 0.254838 0.355332 0.568667
1238 4 0.270792 0.349251 0.569867
792 4 0.256066 0.336653 0.565581
1237 2 0.29155 0.35913 0.579699
929 4 0.358177 0.381488 0.550114
881 4 0.368678 0.37102 0.537163
880 2 0.354957 0.37123 0.516261
928 2 0.344601 0.379264 0.570994
2244 4 0.104735 0.488914 0.579962
1081 2 0.0660211 0.0648387 0.634362
1082 4 0.0713708 0.0538544 0.656177
1083 4 0.0606713 0.075823 0.612546
1030 2 0.241025 0.0590318 0.591395
825 4 0.180343 0.052356 0.657438
1031 4 0.25151 0.0407365 0.604831
824 4 0.186503 0.00360146 0.666699
823 2 0.183423 0.0279787 0.662069
951 4 0.264633 0.0309688 0.615642
949 2 0.272731 0.00916717 0.624824
3008 4 0.495171 0.0236917 0.601971
809 4 0.47956 0.026753 0.614001
808 2 0.470864 0.0417871 0.631988
810 4 0.462168 0.0568212 0.649976
45 3 0.459171 0.0779287 0.644527
41 1 0.452065 0.074159 0.665833
1127 4 0.0457559 0.0845761 0.621311
1126 2 0.0241604 0.0895227 0.60972
1128 4 0.00256486 0.0944693 0.598129
938 4 0.0699119 0.0891621 0.600076
1153 2 0.13152 0.134788 0.585747
937 2 0.0848187 0.101288 0.584078
1154 4 0.150129 0.142826 0.600386
900 4 0.23326 0.151707 0.588367
1221 4 0.169637 0.146226 0.600719
1219 2 0.194572 0.144882 0.599465
1211 4 0.240475 0.146169 0.656182
1210 2 0.23926 0.148538 0.631321
1220 4 0.219508 0.143538 0.598211
1212 4 0.238045 0.150907 0.606459
908 4 0.225397 0.137037 0.663626
1227 4 0.244927 0.131944 0.664773
1192 2 0.324114 0.164928 0.637751
1194 4 0.318038 0.161174 0.661713
3424 2 0.494746 0.096165 0.651846
3425 4 0.473847 0.0848193 0.659572
878 4 0.0398242 0.201016 0.581707
1244 4 0.0532211 0.211335 0.592284
1243 2 0.0465865 0.234077 0.600281
1193 4 0.330191 0.168683 0.61379
3123 4 0.486864 0.23361 0.642093
983 4 0.0338014 0.275596 0.604686
1245 4 0.039952 0.256819 0.608278
982 2 0.0155517 0.288478 0.593452
3263 4 0.0599264 0.328276 0.618265
948 4 0.16102 0.29142 0.590159
820 2 0.156762 0.312969 0.663504
1135 2 0.173841 0.322758 0.61255
1136 4 0.172844 0.308272 0.592195
822 4 0.165553 0.330885 0.64844
872 4 0.355513 0.293432 0.596253
871 2 0.368537 0.305167 0.614082
813 4 0.384662 0.325208 0.65021
873 4 0.38156 0.316902 0.63191
954 4 0.449407 0.295449 0.596176
952 2 0.457864 0.316438 0.606813
3262 2 0.0617512 0.352093 0.625652
1041 4 0.0698041 0.394071 0.639244
3264 4 0.0635761 0.375911 0.633039
3240 4 0.0547653 0.391705 0.628717
3238 2 0.0325737 0.40191 0.623373
3239 4 0.0103821 0.412116 0.618029
1039 2 0.0947673 0.392716 0.639671
1040 4 0.11973 0.391361 0.640099
993 4 0.121355 0.371065 0.640942
991 2 0.143512 0.359486 0.640557
992 4 0.16567 0.347907 0.640171
1137 4 0.174839 0.337244 0.632905
1064 4 0.180303 0.345803 0.648771
897 4 0.181063 0.354813 0.63081
896 4 0.206407 0.388651 0.6041
895 2 0.193735 0.371732 0.617455
1172 4 0.225676 0.390938 0.605799
1191 4 0.217871 0.375103 0.595929
1171 2 0.223562 0.41542 0.601175
1239 4 0.312309 0.36901 0.589532
930 4 0.331026 0.37704 0.591873
811 2 0.389319 0.349675 0.648008
1204 2 0.384958 0.403292 0.66436
1206 4 0.388765 0.392308 0.642223
927 4 0.389383 0.38017 0.627305
812 4 0.393975 0.374143 0.645806
925 2 0.400984 0.395894 0.611706
926 4 0.412585 0.411619 0.596107
953 4 0.466322 0.337426 0.61745
906 4 0.478183 0.351933 0.60898
540 4 0.104519 0.474529 0.593033
539 4 0.0882393 0.427567 0.598537
538 2 0.0963791 0.451048 0.595785
1159 2 0.143902 0.48967 0.597361
1160 4 0.119616 0.486463 0.592353
1186 2 0.205039 0.473134 0.601966
1173 4 0.221449 0.439901 0.596551
1187 4 0.22393 0.457735 0.607547
1188 4 0.186147 0.488533 0.596385
1161 4 0.168188 0.492877 0.60237
1002 4 0.417867 0.430282 0.602486
1911 4 0.45346 0.485203 0.606955
1001 4 0.451864 0.466502 0.608236
1000 2 0.434865 0.448392 0.605361
1269 4 0.463784 0.477143 0.620801
1267 2 0.473135 0.4771 0.643991
943 2 0.0327691 0.0217898 0.671451
944 4 0.0470043 0.0423392 0.671962
1076 4 0.0655178 0.0491237 0.675439
1075 2 0.0653798 0.0659883 0.693898
945 4 0.0185338 0.00124045 0.670941
864 4 0.0598954 0.0785965 0.729821
862 2 0.0399814 0.0749162 0.744486
1283 4 0.16682 0.0634283 0.668361
1105 2 0.0963091 0.0845128 0.739403
1149 4 0.237037 0.0412223 0.727539
1147 2 0.247699 0.0578807 0.712242
1004 4 0.341981 0.0735724 0.739443
1148 4 0.258361 0.0745391 0.696944
1092 4 0.351453 0.00752382 0.686333
42 3 0.452534 0.0515577 0.670089
43 3 0.430315 0.0818254 0.668397
1163 4 0.467901 0.0628973 0.683556
1162 2 0.48476 0.0541795 0.699834
2321 4 0.499149 0.033227 0.731894
1077 4 0.0652418 0.0828529 0.712357
851 4 0.0742891 0.100022 0.70918
850 2 0.0750212 0.124828 0.706135
852 4 0.0757533 0.149635 0.703091
1107 4 0.0768362 0.0871227 0.723938
1282 2 0.169012 0.0870101 0.676378
1284 4 0.171204 0.110592 0.684395
909 4 0.178013 0.127768 0.676646
907 2 0.201705 0.132403 0.670136
1225 2 0.250472 0.108752 0.672296
886 2 0.277114 0.159954 0.669335
888 4 0.253975 0.15049 0.668862
1226 4 0.256017 0.085561 0.679818
829 2 0.324486 0.147274 0.697435
830 4 0.311043 0.156673 0.678564
1005 4 0.340281 0.122558 0.72953
1003 2 0.341131 0.0980651 0.734487
831 4 0.337929 0.137874 0.716307
44 3 0.466081 0.0849166 0.680874
1214 4 0.00128458 0.17923 0.720474
1213 2 0.999591 0.2041 0.722418
1299 4 0.241409 0.194722 0.732366
887 4 0.300253 0.169417 0.669808
977 4 0.305763 0.216053 0.72564
976 2 0.330337 0.217093 0.721142
1298 4 0.28711 0.214964 0.730817
918 4 0.299354 0.229777 0.736818
1297 2 0.26426 0.204843 0.731592
978 4 0.354911 0.218133 0.716645
1025 4 0.405222 0.194842 0.672917
1020 4 0.37011 0.231003 0.720366
1018 2 0.377132 0.241483 0.741954
1024 2 0.419337 0.197714 0.693354
1142 4 0.439443 0.193081 0.729871
1144 2 0.476667 0.18901 0.716467
1262 4 0.443632 0.212756 0.723612
1026 4 0.433453 0.200586 0.713791
1261 2 0.448848 0.236411 0.72981
1145 4 0.453233 0.197648 0.717644
1178 4 0.000698474 0.249119 0.724794
1177 2 0.0231443 0.253151 0.714542
1179 4 0.0455901 0.257184 0.70429
1208 4 0.142387 0.26205 0.724068
1074 4 0.135493 0.256988 0.74088
1207 2 0.153249 0.277856 0.708025
821 4 0.147972 0.295053 0.678568
1209 4 0.164112 0.293662 0.691983
1072 2 0.110631 0.258962 0.742663
1130 4 0.155554 0.259508 0.737656
1073 4 0.0857692 0.260936 0.744446
806 4 0.257116 0.319671 0.70891
1263 4 0.454064 0.260067 0.736008
892 2 0.023161 0.367675 0.738813
1279 2 0.0601433 0.405849 0.733887
1280 4 0.057532 0.382175 0.726279
816 4 0.0643943 0.361647 0.72789
894 4 0.0474248 0.368083 0.732789
893 4 0.998897 0.367266 0.744836
814 2 0.0880406 0.355214 0.722925
815 4 0.111687 0.348781 0.717961
942 4 0.122334 0.34551 0.734338
940 2 0.141048 0.358729 0.74435
805 2 0.237182 0.334477 0.705974
1063 2 0.195167 0.352447 0.667747
1065 4 0.210031 0.359091 0.686724
807 4 0.217249 0.349283 0.703037
1028 4 0.211494 0.378164 0.687988
1066 2 0.191796 0.371061 0.722238
1068 4 0.207928 0.365615 0.703928
1027 2 0.227279 0.397534 0.688893
1067 4 0.175663 0.376507 0.740548
1029 4 0.243064 0.416903 0.689798
1205 4 0.381151 0.414275 0.686497
1281 4 0.0627546 0.429524 0.741495
1983 4 0.0741164 0.443433 0.733977
1981 2 0.0884536 0.462219 0.742146
1176 4 0.1719 0.486583 0.727509
1175 4 0.194573 0.483409 0.68305
1174 2 0.183237 0.484996 0.70528
2016 4 0.180279 0.495045 0.743276
1140 4 0.25542 0.428332 0.677093
1138 2 0.272337 0.446463 0.680301
1139 4 0.289253 0.464594 0.683509
1987 2 0.29619 0.46138 0.731501
1229 4 0.305643 0.467254 0.692868
1989 4 0.302671 0.47316 0.71042
2028 4 0.296208 0.481515 0.693803
1228 2 0.327848 0.462871 0.682242
1230 4 0.350053 0.458487 0.671617
1268 4 0.482486 0.477056 0.66718
1101 4 0.472163 0.485935 0.680711
1099 2 0.464292 0.476904 0.702658
1100 4 0.456421 0.467873 0.724605
2168 4 0.486532 0.496551 0.673807
2989 2 0.0198706 0.0323786 0.774518
2990 4 0.0117709 0.0552172 0.768356
2991 4 0.0279703 0.00954 0.78068
863 4 0.0200673 0.0712359 0.759151
833 4 0.0101226 0.0731432 0.775501
3083 4 0.00110401 0.0679359 0.75905
1106 4 0.115782 0.0819029 0.754868
2049 4 0.124174 0.0183521 0.79243
1202 4 0.10869 0.0298877 0.787759
1201 2 0.115937 0.0537372 0.785794
1203 4 0.123184 0.0775867 0.783828
1085 4 0.321065 0.0746676 0.804944
960 4 0.321165 0.0684465 0.823155
819 4 0.337825 0.0669474 0.813478
817 2 0.345267 0.0448941 0.804343
818 4 0.35271 0.0228408 0.795209
974 4 0.367277 0.0086736 0.793147
845 4 0.491565 0.0701565 0.789212
2322 4 0.490872 0.0547482 0.776267
2320 2 0.49501 0.0439876 0.754081
832 2 0.018919 0.0880037 0.793583
834 4 0.0277154 0.102864 0.811666
1125 4 0.0272795 0.122095 0.816464
32 3 0.137052 0.0845346 0.800249
911 4 0.12931 0.102541 0.810674
34 3 0.121122 0.0962042 0.76827
31 1 0.135777 0.101978 0.785307
35 3 0.128222 0.120558 0.796093
33 3 0.156909 0.105935 0.776577
1256 4 0.22962 0.11092 0.798294
840 4 0.228967 0.126709 0.809683