ITEM: TIMESTEP
3040000
ITEM: NUMBER OF ATOMS
4590
ITEM: BOX BOUNDS pp pp pp
-9.9985700000000008e+00 9.9985700000000008e+00
-9.9985700000000008e+00 9.9985700000000008e+00
-9.9985700000000008e+00 9.9985700000000008e+00
ITEM: ATOMS id type xs ys zs
1667 4 0.0022557 0.0605831 0.054838
701 4 0.0168035 0.0740915 0.0576898
490 2 0.284559 0.0534039 0.0761519
492 4 0.292071 0.0313492 0.0670781
2974 2 0.4603 0.00813516 0.0275249
745 2 0.437225 0.063494 0.0243388
747 4 0.444278 0.0400345 0.0193287
2467 2 0.495278 0.00600964 0.0702889
986 4 0.433943 0.0329006 0.00320844
2975 4 0.447636 0.0228916 0.0118074
700 2 0.040371 0.0824433 0.0577225
702 4 0.0639384 0.0907951 0.0577552
476 4 0.0797477 0.102068 0.0643988
475 2 0.0811273 0.126302 0.0703994
477 4 0.0825068 0.150535 0.0764
566 4 0.212918 0.141303 0.0296811
565 2 0.225105 0.152775 0.0111059
769 2 0.406244 0.155554 0.0316953
556 2 0.393238 0.096467 0.00891584
558 4 0.416644 0.096525 0.017712
746 4 0.430173 0.0869535 0.0293488
771 4 0.413067 0.131901 0.0360724
737 4 0.22009 0.201245 0.0657376
573 4 0.263259 0.249003 0.0534903
770 4 0.399422 0.179207 0.0273182
359 4 0.379528 0.180568 0.024285
664 2 0.39349 0.20715 0.0514807
665 4 0.387374 0.185218 0.0411478
666 4 0.399607 0.229082 0.0618135
323 4 0.401027 0.247514 0.0569047
358 2 0.363651 0.182989 0.00512123
623 4 0.390863 0.244015 0.0720715
555 4 0.0875254 0.257931 0.00346887
292 2 0.150006 0.327132 0.037811
294 4 0.132874 0.323126 0.0200453
293 4 0.167138 0.331139 0.0555767
507 4 0.177253 0.321819 0.0657013
287 4 0.188013 0.328924 0.0523038
286 2 0.207037 0.325442 0.0364572
288 4 0.226062 0.321961 0.0206105
481 2 0.222643 0.256839 0.0698694
505 2 0.182873 0.300107 0.0767551
483 4 0.2004 0.265574 0.0772263
506 4 0.188493 0.278395 0.0878089
482 4 0.244886 0.248104 0.0625126
571 2 0.279836 0.262994 0.0410551
572 4 0.296412 0.276986 0.0286199
357 4 0.310904 0.27372 0.0142468
355 2 0.323828 0.293099 0.00515861
956 4 0.336176 0.322635 0.0126349
1069 2 0.411481 0.317704 0.0278548
955 2 0.356451 0.332446 0.0234911
1071 4 0.393571 0.334576 0.0322954
322 2 0.413104 0.265195 0.0439946
324 4 0.425182 0.282877 0.0310844
1070 4 0.429392 0.300831 0.0234142
280 2 0.454172 0.300228 0.0541657
282 4 0.442195 0.290987 0.0342574
281 4 0.466149 0.309469 0.074074
671 4 0.460267 0.328934 0.0771605
527 4 0.476254 0.321763 0.084558
329 4 0.0196197 0.386902 0.0322617
456 4 0.186898 0.390459 0.0570952
552 4 0.165329 0.334873 0.0741415
454 2 0.182929 0.36588 0.0593954
455 4 0.17896 0.341301 0.0616956
1290 4 0.264856 0.394268 0.0468746
250 2 0.265464 0.415943 0.0758768
1288 2 0.280966 0.382831 0.0315494
1289 4 0.297075 0.371394 0.0162241
251 4 0.254567 0.410978 0.0539272
903 4 0.300016 0.371347 0.996906
957 4 0.376726 0.342257 0.0343473
741 4 0.386756 0.340692 0.050617
739 2 0.391876 0.346331 0.0744323
1787 4 0.0939831 0.497961 0.0507753
1786 2 0.0878178 0.478467 0.0651673
627 4 0.162611 0.50811 0.0231874
1690 2 0.115724 0.497538 0.0134862
626 4 0.193939 0.489487 0.0574287
625 2 0.178275 0.498799 0.0403081
245 4 0.197002 0.469704 0.0636052
244 2 0.216345 0.455656 0.0562769
246 4 0.235687 0.441608 0.0489485
272 4 0.251444 0.427387 0.0421297
271 2 0.259994 0.43119 0.0189431
1672 2 0.410036 0.434956 0.0725506
853 2 0.396877 0.436073 0.018184
854 4 0.416982 0.437033 0.0330185
855 4 0.376772 0.435114 0.00334952
37 3 0.3577 0.423863 0.00323216
1674 4 0.42392 0.436611 0.0518223
564 4 0.434932 0.442101 0.0369347
563 4 0.477602 0.468171 0.0364236
562 2 0.456267 0.455136 0.0366791
228 4 0.489171 0.478614 0.0242747
226 2 0.486711 0.499973 0.0115093
19 3 0.0601351 0.0303812 0.155995
16 1 0.0649644 0.00890193 0.163325
582 4 0.234418 0.070573 0.150687
580 2 0.250007 0.0628496 0.168645
491 4 0.277047 0.0754586 0.0852258
1475 4 0.299328 0.0215241 0.0851382
1760 4 0.482211 0.0452043 0.145121
486 4 0.436434 0.00525422 0.10175
1759 2 0.487954 0.0282005 0.127712
2724 4 0.476671 0.0638246 0.15076
1761 4 0.493697 0.0111966 0.110304
2744 4 0.493337 0.0561208 0.156788
237 4 0.223777 0.0853213 0.159866
235 2 0.203316 0.0893663 0.173655
628 2 0.375346 0.15883 0.17111
2722 2 0.462215 0.0842094 0.151583
2723 4 0.447759 0.104594 0.152406
738 4 0.209493 0.185708 0.112074
736 2 0.214792 0.193477 0.0889056
755 4 0.249459 0.240733 0.160857
460 2 0.323618 0.221394 0.110132
461 4 0.301377 0.210682 0.106159
354 4 0.284266 0.213837 0.118327
352 2 0.276095 0.226683 0.138161
353 4 0.267924 0.239529 0.157995
284 4 0.275196 0.256029 0.163027
630 4 0.382766 0.182697 0.170402
462 4 0.345858 0.232106 0.114105
255 4 0.359022 0.22591 0.128995
253 2 0.372541 0.208474 0.140759
622 2 0.376857 0.238915 0.0921464
624 4 0.362851 0.233816 0.112221
254 4 0.38606 0.191038 0.152523
765 4 0.352207 0.243504 0.127396
550 2 0.14645 0.339652 0.0898226
551 4 0.12757 0.344431 0.105504
536 4 0.194427 0.245145 0.141711
537 4 0.184728 0.279682 0.10687
535 2 0.189578 0.262414 0.12429
754 2 0.233396 0.259215 0.165913
756 4 0.217332 0.277697 0.170968
301 2 0.321648 0.313256 0.133513
303 4 0.321185 0.296209 0.151799
285 4 0.315334 0.28585 0.162398
283 2 0.295265 0.27094 0.162713
764 4 0.33189 0.279184 0.155942
763 2 0.342048 0.261344 0.141669
12 3 0.417251 0.33045 0.122708
647 4 0.0524054 0.357865 0.157043
302 4 0.322112 0.330302 0.115227
387 4 0.329294 0.348576 0.113806
385 2 0.353499 0.353314 0.1097
493 2 0.389348 0.392515 0.101572
495 4 0.392949 0.368232 0.106322
386 4 0.377704 0.358052 0.105593
15 3 0.383395 0.34485 0.116437
740 4 0.396995 0.35197 0.0982476
14 3 0.41413 0.36488 0.107961
11 1 0.404709 0.349733 0.122801
13 3 0.404734 0.358594 0.144247
494 4 0.385747 0.416798 0.0968225
526 2 0.498383 0.333368 0.0854596
672 4 0.420721 0.345384 0.102973
670 2 0.440494 0.337159 0.0900666
1788 4 0.0816524 0.458972 0.0795592
1791 4 0.0592337 0.495981 0.146673
1465 2 0.0755073 0.470027 0.121378
1466 4 0.069273 0.478751 0.143966
1467 4 0.0817416 0.461302 0.0987906
638 4 0.209426 0.485719 0.162629
767 4 0.22442 0.473466 0.160892
637 2 0.195941 0.496572 0.144586
252 4 0.276361 0.420908 0.0978263
609 4 0.27837 0.438801 0.107267
607 2 0.301866 0.440887 0.115558
608 4 0.325363 0.442973 0.123849
659 4 0.327799 0.432594 0.105658
1316 4 0.289498 0.508471 0.156925
660 4 0.376923 0.434722 0.0965463
1673 4 0.396151 0.433301 0.0932789
658 2 0.352361 0.433658 0.101102
524 4 0.393071 0.492175 0.124729
523 2 0.391042 0.468817 0.116042
525 4 0.389013 0.445459 0.107355
578 4 0.0807985 0.0287352 0.167963
20 3 0.0851991 0.00862195 0.173771
17 3 0.0486848 0.00227178 0.178163
2480 4 0.0397043 0.999922 0.195613
2479 2 0.0312018 0.0212049 0.20561
380 4 0.0267615 0.0539135 0.199884
2481 4 0.0226993 0.0424875 0.215607
577 2 0.0929079 0.0499726 0.173208
579 4 0.105017 0.0712101 0.178453
674 4 0.152172 8.4414e-05 0.232385
673 2 0.128689 0.99857 0.240836
450 4 0.12132 0.0787919 0.189799
448 2 0.144538 0.0834332 0.181764
1504 2 0.243482 0.00498123 0.187272
449 4 0.167756 0.0880744 0.17373
581 4 0.265597 0.0551263 0.186603
1506 4 0.261351 0.022355 0.185267
654 4 0.264474 0.0383568 0.197404
652 2 0.285926 0.0389382 0.210236
653 4 0.307378 0.0395196 0.223068
758 4 0.349123 0.0690119 0.189378
759 4 0.361381 0.0608774 0.237172
757 2 0.355252 0.0649446 0.213275
350 4 0.374983 0.0619042 0.245295
349 2 0.398101 0.0524658 0.244015
22 3 0.360483 0.0477113 0.250322
311 4 0.346573 0.0735622 0.170272
480 4 0.441652 0.0436166 0.237848
351 4 0.42122 0.0430273 0.242735
513 4 0.0444211 0.156932 0.177758
379 2 0.0291931 0.0783235 0.195045
511 2 0.0326239 0.134905 0.17685
512 4 0.0208267 0.112878 0.175941
381 4 0.0316246 0.102734 0.190206
236 4 0.182854 0.0934113 0.187444
30 3 0.324037 0.129692 0.231304
312 4 0.358171 0.121339 0.161129
629 4 0.367926 0.134963 0.171818
310 2 0.352372 0.0974504 0.1657
26 1 0.336562 0.142078 0.245738
28 3 0.350467 0.156383 0.233888
521 4 0.465842 0.145159 0.230256
762 4 0.453162 0.149528 0.243093
760 2 0.428434 0.149253 0.246783
332 4 0.457484 0.129125 0.235785
331 2 0.465756 0.106067 0.240791
520 2 0.485537 0.154204 0.217787
393 4 0.0490023 0.173975 0.167107
391 2 0.0662458 0.189813 0.175881
392 4 0.0834892 0.205652 0.184655
339 4 0.0849793 0.225494 0.187365
337 2 0.0742411 0.244578 0.199435
396 4 0.00937314 0.250605 0.253548
544 2 0.12626 0.241811 0.250454
546 4 0.106237 0.239713 0.235626
279 4 0.27546 0.221178 0.218852
277 2 0.270547 0.23144 0.196587
278 4 0.265634 0.241702 0.174322
394 2 0.0215898 0.264459 0.236696
395 4 0.0338065 0.278312 0.219843
338 4 0.0635029 0.263661 0.211505
363 4 0.0512956 0.280325 0.209259
361 2 0.0595355 0.303889 0.210675
362 4 0.0677753 0.327453 0.212091
372 4 0.0844233 0.328631 0.204216
733 2 0.151952 0.330227 0.240612
612 4 0.233614 0.290709 0.171854
611 4 0.227712 0.326233 0.206552
610 2 0.230663 0.308471 0.189203
344 4 0.220621 0.322389 0.227281
343 2 0.201955 0.313439 0.241305
729 4 0.313638 0.304275 0.169252
727 2 0.300621 0.320399 0.183245
308 4 0.328261 0.29223 0.169117
728 4 0.287604 0.336522 0.197237
498 4 0.344665 0.280886 0.229005
307 2 0.340744 0.286281 0.189949
309 4 0.353227 0.280331 0.21078
749 4 0.0565828 0.339466 0.220854
648 4 0.066827 0.340488 0.201661
748 2 0.065712 0.358637 0.234057
646 2 0.0596162 0.349176 0.179352
370 2 0.108237 0.335741 0.206963
371 4 0.13205 0.342851 0.20971
734 4 0.136629 0.346467 0.229358
417 4 0.136089 0.359321 0.218639
299 4 0.136541 0.36706 0.235424
415 2 0.151453 0.371069 0.202792
416 4 0.166816 0.382817 0.186946
298 2 0.115158 0.37271 0.247087
290 4 0.227837 0.408018 0.180488
289 2 0.205793 0.396307 0.179031
291 4 0.18375 0.384596 0.177574
445 2 0.39434 0.387459 0.234823
447 4 0.408352 0.408167 0.234935
595 2 0.483799 0.392254 0.166995
644 4 0.425462 0.41369 0.228134
643 2 0.441441 0.401977 0.21288
645 4 0.45742 0.390264 0.197627
597 4 0.466345 0.382305 0.181879
766 2 0.223973 0.448963 0.165852
768 4 0.223525 0.424461 0.170812
412 2 0.242228 0.465877 0.222026
413 4 0.224438 0.454196 0.235148
414 4 0.260019 0.477559 0.208903
1574 4 0.302085 0.494386 0.222308
229 2 0.479814 0.495331 0.221583
231 4 0.500688 0.482353 0.216995
427 2 0.0575921 0.00180681 0.325223
234 4 0.0104145 0.0585065 0.294609
232 2 0.0318347 0.0458875 0.291941
233 4 0.0532548 0.0332685 0.289273
317 4 0.0721863 0.0335692 0.298484
1404 4 0.0660994 0.0195483 0.290735
316 2 0.0854652 0.0502245 0.311578
1402 2 0.0775543 0.00536631 0.273622
428 4 0.0700307 0.0167888 0.309538
318 4 0.0987441 0.0668797 0.324672
693 4 0.323155 0.0655655 0.278188
691 2 0.307219 0.0834475 0.285362
24 3 0.325309 0.0512594 0.263083
25 3 0.339843 0.0171956 0.256295
632 4 0.361976 0.0683449 0.251009
21 1 0.344468 0.0381896 0.263812
23 3 0.35257 0.037215 0.285534
257 4 0.42268 0.0720401 0.337687
743 4 0.489597 0.0719562 0.248308
479 4 0.454696 0.0411538 0.286061
478 2 0.448174 0.0423852 0.261955
2664 4 0.472549 0.0324762 0.285208
1428 4 0.457728 0.0296733 0.298174
258 4 0.445107 0.0420189 0.304574
2662 2 0.493824 0.0428655 0.293247
256 2 0.433893 0.0570295 0.32113
1426 2 0.453709 0.00719684 0.308364
2755 2 0.993746 0.0939727 0.3158
2757 4 0.987463 0.116097 0.325609
403 2 0.233297 0.167573 0.329568
404 4 0.246429 0.146323 0.33065
692 4 0.291284 0.10133 0.292537
721 2 0.263552 0.112532 0.310584
723 4 0.272027 0.0953794 0.294485
722 4 0.255078 0.129684 0.326682
27 3 0.322603 0.154613 0.259049
761 4 0.403705 0.148977 0.250472
29 3 0.349234 0.128092 0.259235
631 2 0.362373 0.0920626 0.258914
707 4 0.357888 0.124502 0.277714
633 4 0.36277 0.11578 0.266819
706 2 0.355629 0.135109 0.300243
708 4 0.35337 0.145716 0.322772
333 4 0.474028 0.0830082 0.245797
443 4 0.00942929 0.24904 0.273734
405 4 0.220166 0.188824 0.328486
402 4 0.165929 0.245038 0.271647
545 4 0.146283 0.243908 0.265281
735 4 0.167275 0.313987 0.251865
400 2 0.175172 0.268269 0.27136
401 4 0.184416 0.291499 0.271073
676 2 0.171581 0.318382 0.292622
345 4 0.183289 0.304488 0.255328
677 4 0.173029 0.306148 0.270864
678 4 0.170133 0.330616 0.31438
378 4 0.295893 0.284405 0.325091
376 2 0.311558 0.292764 0.307487
377 4 0.327222 0.301123 0.289882
615 4 0.33307 0.317929 0.298606
497 4 0.339688 0.290449 0.277836
496 2 0.342176 0.285668 0.253421
541 2 0.36717 0.301446 0.300182
542 4 0.390263 0.299257 0.309515
543 4 0.344077 0.303634 0.29085
418 2 0.4018 0.263439 0.328471
420 4 0.401132 0.287089 0.320384
750 4 0.0748411 0.377807 0.247261
364 2 0.00320695 0.393823 0.29287
365 4 0.0277905 0.39604 0.29686
603 4 0.0295857 0.385714 0.314734
601 2 0.0452996 0.385973 0.334181
375 4 0.155283 0.328218 0.326914
300 4 0.0937755 0.37836 0.258751
510 4 0.178657 0.348549 0.310703
508 2 0.19953 0.354613 0.323061
434 4 0.319747 0.378917 0.310352
433 2 0.309278 0.401615 0.30974
614 4 0.324051 0.367076 0.296612
613 2 0.32856 0.342503 0.297609
446 4 0.380327 0.366751 0.234711
264 4 0.00758902 0.439923 0.258596
1757 4 0.0224326 0.429316 0.267022
1756 2 0.044502 0.438364 0.274522
1758 4 0.0665715 0.447412 0.282022
1775 4 0.0731498 0.465728 0.273048
777 4 0.062125 0.478647 0.285074
775 2 0.0667262 0.481286 0.309508
1776 4 0.119329 0.451381 0.260307
1774 2 0.0962395 0.458554 0.266677
1436 4 0.236114 0.447198 0.250451
1435 2 0.245396 0.443877 0.273429
4 3 0.250837 0.42143 0.308817
1437 4 0.254677 0.440556 0.296407
3 3 0.268865 0.454848 0.307187
1 1 0.265887 0.435446 0.319561
436 2 0.309644 0.459031 0.303973
438 4 0.290216 0.444199 0.309241
2 3 0.286104 0.42463 0.321412
435 4 0.29881 0.424314 0.309127
437 4 0.329073 0.473862 0.298705
1801 2 0.362445 0.477718 0.316332
1802 4 0.34333 0.485975 0.302489
119 3 0.496557 0.457058 0.326395
1781 4 0.0979248 0.00824061 0.41249
732 4 0.0985929 0.0687696 0.343215
730 2 0.122674 0.0660643 0.349375
731 4 0.146756 0.0633591 0.355534
399 4 0.0867247 0.0804179 0.333003
699 4 0.38879 0.0414549 0.38156
1699 2 0.362229 0.0150012 0.388956
1700 4 0.369599 0.0366766 0.378904
697 2 0.39692 0.0524107 0.360606
698 4 0.405049 0.0633666 0.339653
2585 4 0.00368836 0.118672 0.337996
397 2 0.0762774 0.0998713 0.344733
398 4 0.06583 0.119325 0.356463
2584 2 0.025681 0.123063 0.349052
2586 4 0.0476737 0.127454 0.360107
458 4 0.04961 0.132877 0.379462
457 2 0.0443217 0.153639 0.392353
459 4 0.0390334 0.1744 0.405245
606 4 0.152609 0.0833526 0.356961
605 4 0.198247 0.0890157 0.376603
604 2 0.175428 0.0861842 0.366782
248 4 0.211442 0.100893 0.368099
247 2 0.227328 0.115003 0.354919
249 4 0.243215 0.129113 0.341739
683 4 0.258224 0.140639 0.344057
682 2 0.278935 0.148176 0.355866
684 4 0.299645 0.155713 0.367675
319 2 0.33381 0.158798 0.346363
321 4 0.357415 0.154703 0.339208
726 4 0.407398 0.144779 0.401057
717 4 0.376637 0.157897 0.344831
715 2 0.384198 0.152503 0.368046
716 4 0.391758 0.14711 0.39126
467 4 0.394139 0.15867 0.406091
724 2 0.421426 0.124546 0.405417
725 4 0.435454 0.104313 0.409777
642 4 0.499402 0.0989191 0.387627
641 4 0.452838 0.107111 0.371334
640 2 0.47612 0.103015 0.37948
600 4 0.0971105 0.190276 0.337678
598 2 0.11075 0.204003 0.353512
599 4 0.12439 0.21773 0.369345
389 4 0.136434 0.246127 0.38013
686 4 0.126668 0.228757 0.38479
685 2 0.114577 0.225841 0.406481
275 4 0.141131 0.229015 0.372658
274 2 0.165004 0.225285 0.379085
473 4 0.220007 0.208266 0.325966
474 4 0.202649 0.222452 0.370667
472 2 0.211328 0.215359 0.348317
276 4 0.188878 0.221554 0.385513
320 4 0.310204 0.162893 0.353518
419 4 0.402467 0.239788 0.336559
269 4 0.418272 0.229713 0.329945
268 2 0.436227 0.219927 0.344334
270 4 0.454181 0.210141 0.358723
452 4 0.46768 0.223309 0.36358
451 2 0.472049 0.216307 0.387182
453 4 0.476419 0.209304 0.410784
347 4 0.059783 0.314305 0.386329
346 2 0.0397544 0.305157 0.398176
618 4 0.0634944 0.313151 0.366195
373 2 0.138793 0.313375 0.338444
388 2 0.128233 0.26897 0.37412
616 2 0.0884058 0.311488 0.364841
390 4 0.120032 0.291813 0.368109
617 4 0.113317 0.309824 0.363488
374 4 0.122302 0.298532 0.349973
2537 4 0.487151 0.285953 0.32032
602 4 0.0610134 0.386232 0.353628
549 4 0.0725114 0.387066 0.368745
547 2 0.0858371 0.405564 0.379013
509 4 0.220404 0.360677 0.335419
240 4 0.321967 0.384571 0.387428
335 4 0.334908 0.386969 0.40195
238 2 0.336133 0.387057 0.366975
239 4 0.350298 0.389543 0.346521
587 4 0.360996 0.406094 0.352945
752 4 0.461647 0.398709 0.391823
561 4 0.472295 0.382077 0.397886
751 2 0.474313 0.41304 0.375719
559 2 0.491716 0.369872 0.407839
776 4 0.0713275 0.483925 0.333942
500 4 0.0712826 0.464245 0.340219
499 2 0.0716402 0.456775 0.364078
501 4 0.0719977 0.449305 0.387937
548 4 0.0991628 0.424062 0.389281
407 4 0.0913801 0.443089 0.388099
406 2 0.10439 0.45017 0.408243
1555 2 0.23505 0.490211 0.387764
5 3 0.258207 0.440604 0.340372
636 4 0.253345 0.476754 0.422671
1557 4 0.249113 0.475996 0.402776
1803 4 0.381559 0.469462 0.330176
586 2 0.377266 0.42493 0.350565
593 4 0.392767 0.4644 0.34618
588 4 0.393536 0.443766 0.348184
592 2 0.413131 0.478803 0.344437
594 4 0.433495 0.493206 0.342694
712 2 0.469345 0.481189 0.340955
714 4 0.487213 0.463763 0.342451
753 4 0.486979 0.427371 0.359614
117 3 0.486773 0.448875 0.36175
719 4 0.0487016 0.99877 0.457377
718 2 0.0237631 0.000292525 0.456412
369 4 0.0649705 0.00787189 0.465374
720 4 0.998825 0.00181522 0.455446
367 2 0.0818075 0.00290241 0.447569
341 4 0.197619 0.00554056 0.483273
963 4 0.298512 0.0337959 0.427256
432 4 0.306257 0.0384765 0.445166
430 2 0.319721 0.0481894 0.463862
961 2 0.312627 0.0143173 0.420434
431 4 0.333186 0.0579022 0.482558
843 4 0.351104 0.0651762 0.476938
841 2 0.369785 0.0610775 0.493045
1216 2 0.424471 0.0595386 0.490737
1218 4 0.443207 0.0509871 0.476559
576 4 0.403072 0.160337 0.486307
260 4 0.0482582 0.184635 0.419444
259 2 0.0655323 0.201779 0.425177
261 4 0.0828064 0.218923 0.430909
687 4 0.102487 0.222926 0.428172
1035 4 0.0923725 0.231583 0.442001
1033 2 0.0940916 0.252144 0.456124
466 2 0.405379 0.177502 0.418099
409 2 0.402645 0.227832 0.444035
410 4 0.416806 0.207279 0.445519
411 4 0.388484 0.248385 0.442551
468 4 0.416618 0.196335 0.430107
515 4 0.474292 0.210279 0.431265
575 4 0.422602 0.200703 0.464175
516 4 0.429134 0.195595 0.446944
574 2 0.412837 0.18052 0.475241
514 2 0.451713 0.202937 0.439105
2802 4 0.00224882 0.290898 0.418875
348 4 0.0197259 0.296009 0.410023
1034 4 0.0958106 0.272705 0.470248
696 4 0.0996929 0.279791 0.488477
1260 4 0.113605 0.278212 0.475433
1258 2 0.118368 0.301849 0.468815
1259 4 0.123132 0.325485 0.462196
9 3 0.154596 0.329355 0.430524
7 3 0.139352 0.332502 0.464734
488 4 0.347523 0.274786 0.397736
489 4 0.372543 0.260778 0.438705
487 2 0.360033 0.267782 0.41822
266 4 0.38863 0.267225 0.446058
265 2 0.388802 0.275561 0.46963
267 4 0.388974 0.283898 0.493203
3308 4 0.483046 0.329187 0.470685
1011 4 0.473373 0.312288 0.471203
1009 2 0.467873 0.294937 0.488346
1010 4 0.462372 0.277586 0.505488
326 4 0.0745221 0.358787 0.473452
6 1 0.143976 0.34381 0.445243
327 4 0.119924 0.34487 0.457778
325 2 0.0972231 0.351828 0.465615
10 3 0.124499 0.35128 0.436104
709 2 0.141889 0.405142 0.495182
8 3 0.157843 0.361769 0.450099
503 4 0.171366 0.338464 0.487149
334 2 0.322758 0.391123 0.423405
336 4 0.310607 0.395277 0.444859
668 4 0.307926 0.399851 0.465452
882 4 0.320721 0.390748 0.477214
3307 2 0.494836 0.343448 0.453868
1381 2 0.997193 0.478221 0.484847
1383 4 0.986753 0.462602 0.468348
384 4 0.131646 0.436695 0.483012
383 4 0.124666 0.465773 0.442931
711 4 0.130996 0.417675 0.476489
408 4 0.117399 0.457251 0.428387
382 2 0.128156 0.451234 0.462972
569 4 0.138051 0.461821 0.430995
568 2 0.146486 0.484375 0.424261
667 2 0.304659 0.424264 0.461149
774 4 0.308864 0.466492 0.453275
635 4 0.290423 0.464609 0.453951
634 2 0.271884 0.470682 0.438311
669 4 0.301392 0.448676 0.456846
773 4 0.357427 0.466143 0.44135
772 2 0.333145 0.466317 0.447312
663 4 0.440703 0.49559 0.452504
1058 4 0.11161 0.0723412 0.529292
1152 4 0.223856 0.0527167 0.50971
342 4 0.217915 0.0353196 0.517943
340 2 0.207767 0.0204301 0.500608
1150 2 0.227316 0.0613911 0.532904
1151 4 0.230775 0.0700654 0.556099
1181 4 0.243064 0.0750835 0.572593
1032 4 0.233242 0.0590385 0.571594
2430 4 0.185825 0.998706 0.498027
842 4 0.388465 0.0569787 0.509151
1217 4 0.405735 0.0680902 0.504915
3007 2 0.486057 0.0401933 0.57108
1270 2 0.091204 0.150751 0.553517
1271 4 0.0988947 0.127291 0.557475
1057 2 0.109041 0.091415 0.545254
1059 4 0.106473 0.110489 0.561215
1155 4 0.117492 0.125536 0.565584
939 4 0.100428 0.125104 0.574293
1153 2 0.14005 0.127699 0.576149
1154 4 0.162609 0.129862 0.586713
1180 2 0.238968 0.0985719 0.580123
898 2 0.250816 0.158421 0.567239
1182 4 0.234872 0.12206 0.587652
1221 4 0.175622 0.143919 0.591012
1199 4 0.0281981 0.226754 0.569701
879 4 0.0644438 0.180852 0.546258
877 2 0.0540275 0.198172 0.560979
1272 4 0.0835132 0.174211 0.549559
878 4 0.0436112 0.215492 0.5757
1198 2 0.00523029 0.22651 0.559822
651 4 0.218562 0.222657 0.528387
858 4 0.198488 0.226896 0.524647
649 2 0.235832 0.205418 0.53384
650 4 0.253102 0.188179 0.539293
899 4 0.259092 0.178471 0.554801
695 4 0.0884601 0.262519 0.534043
982 2 0.0106028 0.2852 0.583155
694 2 0.0940765 0.271155 0.51126
946 2 0.179864 0.292436 0.568704
856 2 0.190721 0.249324 0.53251
857 4 0.182954 0.271753 0.540373
947 4 0.194763 0.279554 0.553301
798 4 0.209353 0.269312 0.561693
796 2 0.229735 0.272702 0.575775
790 2 0.264269 0.317096 0.587115
872 4 0.354172 0.315622 0.586569
2455 2 0.495754 0.25474 0.519523
2457 4 0.474119 0.2672 0.518165
3353 4 0.00650877 0.329087 0.525246
936 4 0.00956024 0.343836 0.513078
710 4 0.152783 0.39261 0.513875
504 4 0.160757 0.375436 0.519106
502 2 0.166061 0.35695 0.503127
1189 2 0.242963 0.366169 0.572187
1191 4 0.219322 0.374092 0.574057
803 4 0.27424 0.350876 0.552363
804 4 0.26393 0.341173 0.504402
802 2 0.269085 0.346025 0.528382
1190 4 0.266604 0.358245 0.570318
1238 4 0.280301 0.348225 0.569881
792 4 0.267004 0.341349 0.581684
1237 2 0.300692 0.362154 0.573803
929 4 0.352907 0.373022 0.526339
881 4 0.347666 0.363932 0.509704
880 2 0.334194 0.37734 0.493459
928 2 0.344766 0.380131 0.548886
930 4 0.336625 0.387239 0.571433
1382 4 0.00763384 0.493839 0.501347
1081 2 0.0779027 0.0721623 0.643558
4337 4 0.0216968 0.00260011 0.661788
944 4 0.0801358 0.027083 0.679639
825 4 0.151604 0.0626481 0.662636
1082 4 0.082305 0.0582979 0.663894
1030 2 0.240079 0.0389181 0.58477
1031 4 0.246917 0.0187977 0.597946
824 4 0.164619 0.0149574 0.67018
823 2 0.158112 0.0388027 0.666408
2133 4 0.179584 0.00442501 0.665917
951 4 0.259598 0.0237226 0.612735
949 2 0.276487 0.0054885 0.615461
3008 4 0.487919 0.0302139 0.59393
809 4 0.478635 0.0175605 0.606416
808 2 0.472239 0.0327331 0.625232
810 4 0.465842 0.0479057 0.644048
45 3 0.463629 0.0705168 0.641307
41 1 0.457628 0.065225 0.66263
42 3 0.459998 0.0425597 0.665764
43 3 0.435462 0.0710268 0.666287
3425 4 0.478362 0.0806793 0.656328
1083 4 0.0735003 0.0860268 0.623221
1127 4 0.0599318 0.0970345 0.611023
1126 2 0.0366333 0.0960615 0.602
1128 4 0.0133349 0.0950886 0.592977
938 4 0.0787001 0.0985135 0.610646
937 2 0.0895639 0.111809 0.59247
900 4 0.24254 0.138371 0.579676
1219 2 0.20039 0.141229 0.588896
1211 4 0.246112 0.135064 0.648507
1210 2 0.243848 0.135641 0.623613
1220 4 0.225159 0.138539 0.58678
1212 4 0.241584 0.136219 0.598719
1227 4 0.250411 0.127032 0.662915
888 4 0.26345 0.140382 0.654164
886 2 0.285045 0.151667 0.659773
1225 2 0.257131 0.103767 0.669143
887 4 0.306641 0.162953 0.665383
3424 2 0.499062 0.0947037 0.656385
1244 4 0.0448355 0.213946 0.595675
1243 2 0.0363115 0.235938 0.603976
1194 4 0.325417 0.171076 0.66363
1192 2 0.335775 0.179124 0.642343
1193 4 0.346133 0.187171 0.621056
3123 4 0.476756 0.258072 0.631658
983 4 0.0229444 0.275152 0.60244
1245 4 0.0277875 0.257929 0.612277
3263 4 0.0525391 0.336886 0.600329
948 4 0.164965 0.305318 0.584107
1135 2 0.168776 0.319413 0.6195
1136 4 0.163187 0.300547 0.604072
791 4 0.261534 0.292843 0.592547
797 4 0.250116 0.276091 0.589856
871 2 0.371135 0.31211 0.6046
873 4 0.388097 0.308597 0.622631
813 4 0.397675 0.324044 0.629202
954 4 0.450237 0.286991 0.594743
952 2 0.456995 0.310569 0.599598
953 4 0.463753 0.334148 0.604453
3262 2 0.0547179 0.358275 0.613093
1041 4 0.0701024 0.392263 0.623293
3264 4 0.0568967 0.379664 0.625858
3240 4 0.0493139 0.395545 0.619654
3238 2 0.0265234 0.405669 0.617844
3239 4 0.0037329 0.415793 0.616034
822 4 0.164921 0.342832 0.652521
1039 2 0.0944802 0.397065 0.626093
1040 4 0.118858 0.401868 0.628893
993 4 0.130465 0.386275 0.629393
991 2 0.149032 0.370023 0.63343
992 4 0.1676 0.353771 0.637468
1137 4 0.174366 0.338278 0.634928
1064 4 0.181289 0.351089 0.647127
897 4 0.184604 0.354997 0.629007
896 4 0.21016 0.374862 0.59089
895 2 0.197382 0.364929 0.609949
1172 4 0.214725 0.391603 0.583156
1063 2 0.196915 0.358814 0.665053
1239 4 0.321084 0.376082 0.577725
811 2 0.399566 0.347425 0.63786
1206 4 0.40442 0.385059 0.658384
927 4 0.400892 0.390565 0.640923
812 4 0.401457 0.370805 0.646518
925 2 0.414811 0.402471 0.623902
906 4 0.474087 0.350399 0.604969
904 2 0.496323 0.360847 0.600326
540 4 0.118998 0.4715 0.595427
539 4 0.085269 0.43458 0.595498
2244 4 0.124363 0.485903 0.58273
1160 4 0.136246 0.470957 0.587483
538 2 0.102134 0.45304 0.595462
1159 2 0.157774 0.475766 0.599256
1171 2 0.218934 0.414454 0.592392
1186 2 0.214138 0.4685 0.598348
1173 4 0.223143 0.437306 0.601627
1187 4 0.233231 0.452642 0.595326
1188 4 0.195044 0.484358 0.601369
1161 4 0.179301 0.480575 0.611029
926 4 0.42873 0.414376 0.606881
1002 4 0.421366 0.430713 0.617863
1911 4 0.44997 0.487213 0.607064
1001 4 0.439003 0.477447 0.620215
1000 2 0.430184 0.45408 0.619039
1269 4 0.457073 0.484389 0.624137
1267 2 0.463251 0.487428 0.648174
1268 4 0.469428 0.490468 0.672211
943 2 0.0586188 0.0148483 0.676102
1076 4 0.0780056 0.0483926 0.680274
1075 2 0.0759532 0.0635949 0.700019
945 4 0.0371018 0.00261357 0.672565
864 4 0.0694199 0.0763799 0.738894
1077 4 0.0739008 0.0787971 0.719764
1283 4 0.146467 0.0801004 0.672229
1148 4 0.248016 0.0687584 0.670372
2254 2 0.175335 0.995656 0.705479
2256 4 0.175372 0.0102947 0.685209
1149 4 0.252763 0.0282906 0.699364
1147 2 0.25039 0.0485245 0.684868
2255 4 0.175298 0.981016 0.725749
1226 4 0.26385 0.0805025 0.675371
1004 4 0.336708 0.0845783 0.738589
1092 4 0.342525 0.0115773 0.697388
1163 4 0.474428 0.0545928 0.681458
1162 2 0.491239 0.0473303 0.698483
44 3 0.47132 0.076353 0.6777
1107 4 0.0816928 0.0891657 0.730983
851 4 0.0711911 0.0985439 0.717462
850 2 0.0746824 0.119111 0.703678
852 4 0.0781738 0.139678 0.689895
1105 2 0.104104 0.0866098 0.741771
1282 2 0.156806 0.102794 0.670419
908 4 0.231355 0.128667 0.66078
1284 4 0.167145 0.125488 0.668609
909 4 0.183289 0.137435 0.671433
907 2 0.207322 0.133051 0.666106
829 2 0.338342 0.148656 0.692247
830 4 0.321102 0.158288 0.676911
1005 4 0.361261 0.123835 0.719702
1003 2 0.348984 0.104207 0.729145
831 4 0.355582 0.139024 0.707583
3268 2 0.498466 0.147386 0.73701
1215 4 0.996827 0.233068 0.726081
1213 2 0.998128 0.209078 0.733006
1214 4 0.99943 0.185087 0.73993
1073 4 0.0836308 0.244834 0.724167
977 4 0.30962 0.228801 0.730927
918 4 0.295453 0.232001 0.743076
1297 2 0.281497 0.196136 0.739271
1299 4 0.265266 0.177992 0.744976
976 2 0.334197 0.232082 0.734148
978 4 0.358774 0.235363 0.73737
1025 4 0.384824 0.21032 0.693236
1020 4 0.378014 0.240416 0.738633
1024 2 0.405434 0.208019 0.707204
3270 4 0.50502 0.166996 0.722951
1142 4 0.432185 0.202267 0.740397
1144 2 0.466029 0.189755 0.723001
1262 4 0.435638 0.218497 0.731294
1026 4 0.426045 0.205718 0.721172
1261 2 0.443545 0.241267 0.724645
1145 4 0.443499 0.20038 0.725166
1146 4 0.48856 0.17913 0.720836
1178 4 0.999966 0.248585 0.737759
1177 2 0.0175268 0.264232 0.729276
1179 4 0.0350874 0.27988 0.720793
820 2 0.152839 0.32894 0.669439
1072 2 0.106726 0.253275 0.728701
1208 4 0.140375 0.265199 0.718596
1074 4 0.129821 0.261716 0.733235
1207 2 0.145741 0.281812 0.700696
821 4 0.140757 0.315047 0.686357
1209 4 0.151106 0.298424 0.682796
1130 4 0.148917 0.258512 0.735692
815 4 0.111371 0.334291 0.729557
806 4 0.25348 0.31978 0.704629
1263 4 0.451452 0.264037 0.717997
892 2 0.0339745 0.361315 0.719379
1279 2 0.075661 0.402189 0.735663
1280 4 0.0609684 0.38385 0.727121
816 4 0.0744153 0.367962 0.728447
894 4 0.0555964 0.366537 0.730798
893 4 0.0123526 0.356092 0.70796
814 2 0.0928932 0.351127 0.729002
942 4 0.130905 0.335491 0.728634
940 2 0.149848 0.348899 0.737939
805 2 0.235381 0.336832 0.702012
1065 4 0.21254 0.366539 0.682979
807 4 0.217283 0.353885 0.699396
1028 4 0.218658 0.383834 0.683079
1066 2 0.19577 0.374228 0.718714
1068 4 0.212902 0.371981 0.700641
1027 2 0.228149 0.404314 0.672325
1067 4 0.178638 0.376475 0.736786
941 4 0.16879 0.362307 0.747244
1204 2 0.387253 0.387032 0.676456
1205 4 0.370087 0.389006 0.694527
1983 4 0.100702 0.434039 0.733313
1281 4 0.0903535 0.420529 0.744205
1981 2 0.10527 0.451864 0.750241
1029 4 0.237641 0.424795 0.661571
1176 4 0.185507 0.480633 0.74323
1175 4 0.202933 0.507398 0.704749
1174 2 0.19422 0.494015 0.72399
2016 4 0.169744 0.488079 0.75408
1140 4 0.252268 0.427281 0.675249
1138 2 0.266729 0.447616 0.673652
1139 4 0.281189 0.467951 0.672054
1987 2 0.291838 0.45209 0.723029
1229 4 0.298309 0.468212 0.681486
1989 4 0.292384 0.463721 0.700903
2028 4 0.285164 0.476116 0.688909
1228 2 0.321717 0.460514 0.677245
1230 4 0.345125 0.452817 0.673004
1101 4 0.478031 0.494444 0.688348
1099 2 0.491288 0.478156 0.701917
862 2 0.0489558 0.0726684 0.752773
2989 2 0.0177778 0.0346752 0.780024
2990 4 0.0182174 0.0596731 0.77973
2991 4 0.0173381 0.00967718 0.780318
863 4 0.0284916 0.068957 0.766651
833 4 0.0265888 0.0780465 0.783166
3083 4 0.0112502 0.0770429 0.775564
2049 4 0.106595 0.0118995 0.801084
1202 4 0.113562 0.0298489 0.803484
1201 2 0.122325 0.0520963 0.796174
1203 4 0.131089 0.0743436 0.788864
32 3 0.141904 0.084144 0.804188
1085 4 0.318449 0.0799915 0.812082
819 4 0.326403 0.0639695 0.805072
1084 2 0.300105 0.0878741 0.797031
973 2 0.377256 0.0024474 0.81859
1050 4 0.363404 0.00835137 0.785595
817 2 0.339687 0.0443087 0.797188
818 4 0.352971 0.0246478 0.789303
974 4 0.364087 0.0172888 0.803375
844 2 0.491789 0.0603807 0.821689
845 4 0.496035 0.0568862 0.797298
2322 4 0.496259 0.054917 0.778314
1112 4 0.499475 0.0727104 0.785841
832 2 0.0280463 0.0949153 0.801564
834 4 0.0295039 0.111784 0.819963
1125 4 0.0240768 0.131195 0.819265