ITEM: TIMESTEP
2000000
ITEM: NUMBER OF ATOMS
4590
ITEM: BOX BOUNDS pp pp pp
-9.9985700000000008e+00 9.9985700000000008e+00
-9.9985700000000008e+00 9.9985700000000008e+00
-9.9985700000000008e+00 9.9985700000000008e+00
ITEM: ATOMS id type xs ys zs
1666 2 0.0393609 0.0665871 0.0511325
1668 4 0.0370056 0.0529934 0.0302796
1667 4 0.0417163 0.0801808 0.0719853
1474 2 0.296984 0.00848364 0.0727002
1475 4 0.281504 0.0269574 0.0793525
2974 2 0.470736 0.0255745 0.00541979
2976 4 0.480606 0.00496135 0.0155619
2467 2 0.479453 0.999195 0.0545794
2469 4 0.485321 0.00298178 0.0785879
2264 4 0.220428 0.153226 0.00364384
2263 2 0.234065 0.133896 0.995547
297 4 0.326627 0.117268 0.0176643
295 2 0.347859 0.110062 0.00659831
556 2 0.403305 0.111915 0.00272374
558 4 0.425231 0.105293 0.0127528
746 4 0.440809 0.103114 0.0271076
566 4 0.169424 0.168274 0.0222199
565 2 0.193271 0.170306 0.0149833
567 4 0.217118 0.172338 0.00774667
738 4 0.225686 0.187778 0.0801061
1133 4 0.229518 0.185021 0.997004
360 4 0.341104 0.182595 0.008986
769 2 0.423918 0.175133 0.00688567
770 4 0.40761 0.176241 0.0258069
359 4 0.389913 0.180117 0.0195819
358 2 0.365509 0.181356 0.0142839
664 2 0.398512 0.205589 0.049475
665 4 0.393698 0.183912 0.0379801
666 4 0.403326 0.227265 0.0609698
323 4 0.416617 0.235227 0.0713815
555 4 0.0633047 0.254561 0.0174879
2808 4 0.00668201 0.264196 0.0222444
287 4 0.1625 0.322362 0.0347051
292 2 0.132594 0.295493 0.02663
507 4 0.159766 0.309269 0.0500694
293 4 0.155089 0.304785 0.0323588
294 4 0.1101 0.2862 0.0209013
551 4 0.0996725 0.315689 0.0644038
286 2 0.176323 0.325229 0.0140684
505 2 0.17504 0.310102 0.0698477
482 4 0.249021 0.282551 0.0740373
481 2 0.229576 0.296474 0.0813349
506 4 0.190314 0.310936 0.089626
573 4 0.255662 0.282677 0.0543589
571 2 0.270706 0.278153 0.0349065
572 4 0.28575 0.273629 0.015454
357 4 0.297077 0.275504 0.998577
1069 2 0.399593 0.297434 0.02255
957 4 0.373489 0.326677 0.0175147
1071 4 0.377391 0.308916 0.0219136
955 2 0.357252 0.323556 0.998759
741 4 0.37148 0.323905 0.0358365
739 2 0.374891 0.328754 0.0601271
322 2 0.419015 0.25578 0.057345
1070 4 0.421795 0.285951 0.0231865
324 4 0.421413 0.276332 0.0433085
671 4 0.455308 0.323212 0.0820098
280 2 0.448493 0.3024 0.0432595
281 4 0.454853 0.314159 0.0643891
282 4 0.442132 0.290642 0.0221298
527 4 0.462151 0.305666 0.0804208
455 4 0.140112 0.355812 0.0640664
552 4 0.121365 0.360241 0.0711356
550 2 0.110519 0.337965 0.0677697
454 2 0.159079 0.37008 0.0562043
456 4 0.178047 0.384349 0.0483421
1290 4 0.270514 0.410184 0.00724702
252 4 0.269821 0.402523 0.0712952
250 2 0.26689 0.410324 0.0477213
251 4 0.263958 0.418125 0.0241473
493 2 0.384172 0.388998 0.0749354
495 4 0.396523 0.367346 0.0768903
626 4 0.231312 0.49358 0.0605946
625 2 0.207627 0.493932 0.0685999
627 4 0.183942 0.494284 0.0766051
245 4 0.24707 0.485279 0.0698874
244 2 0.25472 0.464842 0.0576806
246 4 0.26237 0.444406 0.0454737
272 4 0.264961 0.438304 0.0263412
1672 2 0.409585 0.43648 0.058461
853 2 0.41175 0.448288 0.0032338
660 4 0.373575 0.428265 0.0829585
1673 4 0.395828 0.429851 0.0782593
854 4 0.430593 0.446197 0.0195359
1674 4 0.423341 0.44311 0.0386626
563 4 0.483791 0.465812 0.0209137
562 2 0.462921 0.453945 0.0278977
564 4 0.44205 0.442078 0.0348817
228 4 0.496234 0.466425 0.0362739
18 3 0.0754314 0.0299598 0.156153
492 4 0.294379 0.0430254 0.0801568
490 2 0.277309 0.05957 0.0879071
491 4 0.260239 0.0761146 0.0956574
486 4 0.408466 0.0128739 0.09774
2723 4 0.44568 0.0733064 0.152751
2722 2 0.466882 0.0600997 0.15164
2724 4 0.488084 0.0468929 0.15053
1761 4 0.484078 0.00765094 0.0984214
1759 2 0.484645 0.0178262 0.121254
1760 4 0.485212 0.0280015 0.144086
701 4 0.0501009 0.0967596 0.0798203
700 2 0.06293 0.111082 0.0958038
702 4 0.0757592 0.125404 0.111787
476 4 0.0933028 0.134229 0.114714
475 2 0.112302 0.146274 0.125629
477 4 0.131301 0.158318 0.136545
737 4 0.23811 0.164109 0.122368
582 4 0.247117 0.133921 0.157972
580 2 0.264038 0.1236 0.142731
581 4 0.28096 0.113278 0.127489
628 2 0.370714 0.145037 0.139676
312 4 0.372138 0.111679 0.154861
629 4 0.384565 0.12518 0.145923
630 4 0.356863 0.164894 0.133429
339 4 0.0668184 0.214598 0.159382
736 2 0.231898 0.175943 0.101237
755 4 0.251982 0.254575 0.148287
460 2 0.327478 0.23476 0.106197
352 2 0.279396 0.248333 0.126304
353 4 0.270295 0.249552 0.149561
461 4 0.305984 0.239385 0.0942888
354 4 0.288496 0.247114 0.103047
278 4 0.260897 0.238843 0.158284
623 4 0.400765 0.233563 0.0803059
254 4 0.369996 0.176079 0.142624
462 4 0.348972 0.230135 0.118106
255 4 0.359837 0.224027 0.132703
253 2 0.364917 0.200053 0.137663
765 4 0.358203 0.242423 0.13155
624 4 0.365815 0.232654 0.116061
622 2 0.38329 0.233108 0.0981833
483 4 0.210132 0.310396 0.0886326
537 4 0.179749 0.325085 0.101108
535 2 0.18789 0.318186 0.12372
754 2 0.24156 0.270934 0.164065
536 4 0.19603 0.311287 0.146332
756 4 0.231138 0.287294 0.179842
387 4 0.326621 0.298324 0.113677
301 2 0.322191 0.30293 0.155479
302 4 0.321358 0.307034 0.130829
284 4 0.276852 0.249953 0.167184
763 2 0.348031 0.251259 0.152612
385 2 0.344659 0.311445 0.102379
15 3 0.369489 0.331939 0.106382
386 4 0.362697 0.324567 0.0910811
740 4 0.378302 0.333603 0.0844177
670 2 0.432837 0.3318 0.0888283
528 4 0.490478 0.270531 0.101957
526 2 0.476314 0.288098 0.0911889
315 4 0.996754 0.362224 0.136505
417 4 0.169036 0.411225 0.166112
415 2 0.183954 0.396512 0.152468
291 4 0.218015 0.386754 0.130736
289 2 0.239976 0.398423 0.133332
416 4 0.198872 0.3818 0.138824
609 4 0.281164 0.407736 0.0855808
290 4 0.261937 0.410093 0.135929
494 4 0.371821 0.41065 0.0729805
12 3 0.404705 0.335657 0.118168
672 4 0.410366 0.340387 0.0956467
14 3 0.394734 0.349553 0.0846996
11 1 0.387641 0.345693 0.106453
13 3 0.382299 0.365799 0.116728
595 2 0.479118 0.402237 0.146126
596 4 0.467585 0.405439 0.124174
102 3 0.483734 0.33596 0.127159
1791 4 0.0530031 0.495488 0.151337
1466 4 0.0431636 0.480133 0.143362
1465 2 0.0396935 0.455865 0.148282
1467 4 0.0362234 0.431597 0.153202
638 4 0.261992 0.49853 0.130017
767 4 0.258987 0.478843 0.12794
766 2 0.26281 0.454398 0.13155
768 4 0.266633 0.429954 0.13516
607 2 0.296947 0.418712 0.101568
608 4 0.31273 0.429687 0.117556
659 4 0.330374 0.433448 0.107608
658 2 0.351974 0.430857 0.0952832
1559 4 0.355883 0.478 0.108232
1558 2 0.338101 0.495273 0.104968
524 4 0.370925 0.488003 0.100259
523 2 0.393652 0.490267 0.110435
16 1 0.0708353 0.045472 0.172786
19 3 0.0601014 0.0639139 0.163671
17 3 0.0569914 0.0357677 0.188385
2480 4 0.0363345 0.0320883 0.185396
1422 4 0.0368318 0.0134533 0.192478
2479 2 0.0157795 0.0457994 0.189226
20 3 0.0901712 0.0519582 0.18292
450 4 0.154498 0.0797589 0.179571
578 4 0.102107 0.0553057 0.16831
674 4 0.16513 0.0206418 0.229763
673 2 0.143844 0.00866718 0.23512
577 2 0.119502 0.0719181 0.175138
579 4 0.136897 0.0885305 0.181966
688 2 0.185615 0.999744 0.199433
689 4 0.174999 0.0181321 0.212637
693 4 0.251536 0.0773727 0.236175
448 2 0.179405 0.0791563 0.177457
652 2 0.288298 0.0034981 0.186131
653 4 0.301325 0.0200083 0.199654
25 3 0.321486 0.0469721 0.238016
758 4 0.357824 0.0787964 0.195044
759 4 0.337659 0.0625835 0.237837
757 2 0.347742 0.07069 0.21644
511 2 0.041974 0.152867 0.186742
513 4 0.0643939 0.163683 0.184389
512 4 0.0195541 0.142051 0.189095
381 4 0.0117192 0.124862 0.19824
237 4 0.242016 0.130547 0.176359
449 4 0.204312 0.0785537 0.175343
235 2 0.230156 0.109265 0.181975
236 4 0.218295 0.0879816 0.187591
26 1 0.327388 0.156913 0.249356
28 3 0.326833 0.151154 0.226885
310 2 0.374155 0.0988779 0.176244
311 4 0.376172 0.0860766 0.197627
521 4 0.486848 0.144818 0.224733
332 4 0.495465 0.131469 0.234868
762 4 0.483623 0.141688 0.245319
760 2 0.461064 0.152469 0.245529
761 4 0.438505 0.16325 0.245738
337 2 0.0598534 0.236833 0.168453
393 4 0.0806991 0.172253 0.190921
394 2 0.0123925 0.250039 0.213197
391 2 0.0833136 0.175862 0.215524
392 4 0.085928 0.179471 0.240127
279 4 0.25063 0.200763 0.189028
277 2 0.255763 0.219803 0.173656
27 3 0.320662 0.178797 0.251593
395 4 0.0283399 0.257098 0.19528
338 4 0.0528883 0.259068 0.177524
363 4 0.0487765 0.261377 0.197937
361 2 0.0614415 0.281798 0.20485
749 4 0.0655893 0.315506 0.222482
648 4 0.0783482 0.32011 0.208317
362 4 0.0741066 0.302218 0.211762
748 2 0.0728944 0.326107 0.243917
370 2 0.116361 0.30448 0.217003
372 4 0.0927818 0.304987 0.2087
371 4 0.13994 0.303972 0.225307
734 4 0.150495 0.314061 0.240089
610 2 0.239672 0.309203 0.208722
612 4 0.236493 0.306602 0.184058
611 4 0.242851 0.311803 0.233386
344 4 0.246661 0.300485 0.250612
285 4 0.320851 0.263777 0.186516
283 2 0.298851 0.256865 0.17685
307 2 0.327065 0.288484 0.21414
308 4 0.323145 0.28299 0.190065
303 4 0.323024 0.298827 0.18013
729 4 0.312957 0.314069 0.187025
309 4 0.330986 0.293978 0.238215
764 4 0.337859 0.260095 0.173675
646 2 0.0691044 0.333481 0.189318
647 4 0.0598605 0.346851 0.170319
727 2 0.297117 0.330922 0.196525
728 4 0.281276 0.347774 0.206025
446 4 0.398489 0.39174 0.240193
645 4 0.488621 0.400725 0.18653
445 2 0.417729 0.381223 0.228178
447 4 0.43697 0.370705 0.216162
644 4 0.454044 0.382292 0.217602
643 2 0.471332 0.391509 0.202066
597 4 0.490652 0.399036 0.168078
414 4 0.229909 0.473305 0.224992
229 2 0.457049 0.481621 0.229194
231 4 0.46375 0.474866 0.252317
234 4 0.0142984 0.048465 0.288488
232 2 0.0376915 0.0396964 0.289515
233 4 0.0610846 0.0309278 0.290542
1404 4 0.0755661 0.0166203 0.286484
317 4 0.078996 0.0318068 0.29726
428 4 0.0841627 0.0140609 0.303653
2756 4 0.997647 0.0560368 0.295827
316 2 0.0905649 0.0521344 0.306099
1402 2 0.0937784 0.00978084 0.270777
318 4 0.102134 0.0724621 0.314938
730 2 0.131722 0.0856239 0.333453
731 4 0.153487 0.082524 0.345363
399 4 0.0918017 0.0882491 0.324567
606 4 0.158931 0.0660388 0.333847
24 3 0.305893 0.070757 0.26269
21 1 0.32364 0.0563642 0.258651
23 3 0.324242 0.039784 0.274872
22 3 0.343266 0.0683316 0.259517
349 2 0.382273 0.0651696 0.259315
351 4 0.403768 0.0524074 0.258819
350 4 0.360777 0.0779318 0.259811
699 4 0.358419 0.0432381 0.330377
479 4 0.454524 0.0317265 0.288037
478 2 0.438684 0.040339 0.270713
2664 4 0.473785 0.0235253 0.289
480 4 0.422844 0.0489516 0.25339
1428 4 0.458186 0.0188176 0.298646
258 4 0.451893 0.0337595 0.30872
2662 2 0.488557 0.0406695 0.299632
256 2 0.438375 0.0458309 0.325946
732 4 0.109957 0.0887237 0.321543
691 2 0.252531 0.0916509 0.256677
721 2 0.253261 0.125443 0.307808
722 4 0.240891 0.134467 0.327575
249 4 0.236679 0.119755 0.338172
692 4 0.253526 0.105929 0.277179
30 3 0.313286 0.143487 0.261169
723 4 0.26563 0.116419 0.288041
29 3 0.349002 0.154836 0.257535
632 4 0.36119 0.094459 0.272598
631 2 0.360365 0.119419 0.271373
707 4 0.362295 0.159298 0.273412
633 4 0.359541 0.144379 0.270148
546 4 0.150408 0.177031 0.29342
544 2 0.163117 0.194475 0.280795
545 4 0.175825 0.21192 0.268171
402 4 0.188302 0.227112 0.270422
400 2 0.194742 0.250257 0.277353
706 2 0.355201 0.172248 0.29359
708 4 0.348107 0.185198 0.313767
418 2 0.410056 0.252228 0.326257
443 4 0.00326757 0.24872 0.248817
442 2 0.0136005 0.256491 0.270219
444 4 0.0239334 0.264262 0.29162
733 2 0.17026 0.305117 0.25252
401 4 0.201183 0.273401 0.284284
676 2 0.184739 0.297278 0.307247
345 4 0.204938 0.290162 0.276171
677 4 0.189577 0.290198 0.28376
343 2 0.225799 0.295324 0.263392
735 4 0.190025 0.296173 0.264951
678 4 0.179901 0.304358 0.330734
378 4 0.248909 0.266922 0.311255
498 4 0.326536 0.282794 0.254936
376 2 0.273617 0.26742 0.307452
496 2 0.317707 0.283937 0.278302
497 4 0.308878 0.28508 0.301667
377 4 0.298324 0.267917 0.303648
541 2 0.385692 0.297141 0.303202
542 4 0.398032 0.275398 0.303561
543 4 0.373352 0.318885 0.302842
420 4 0.415491 0.270203 0.309748
615 4 0.359254 0.333047 0.302632
264 4 0.0167329 0.393209 0.252206
365 4 0.0113154 0.359991 0.304555
601 2 0.0380516 0.390055 0.324224
603 4 0.0270713 0.371988 0.310875
750 4 0.0801995 0.336708 0.265351
602 4 0.0490318 0.408122 0.337573
299 4 0.14555 0.327216 0.255185
298 2 0.122685 0.333409 0.263187
300 4 0.0998203 0.339601 0.271189
510 4 0.215089 0.336877 0.320282
433 2 0.312911 0.389155 0.313202
435 4 0.290445 0.394395 0.303559
434 4 0.335378 0.383916 0.322844
614 4 0.35129 0.373245 0.331291
613 2 0.355272 0.353146 0.316962
2537 4 0.490616 0.319045 0.332604
500 4 0.0760024 0.490703 0.335062
777 4 0.0749866 0.495421 0.271363
1757 4 0.0596886 0.432089 0.277881
1756 2 0.0582883 0.454414 0.266709
1775 4 0.0736673 0.487332 0.254162
1758 4 0.0568879 0.476739 0.255537
412 2 0.231795 0.480213 0.248949
1436 4 0.224651 0.481037 0.289343
413 4 0.233681 0.487121 0.272905
1435 2 0.239726 0.464912 0.301087
3 3 0.286035 0.483386 0.33079
1437 4 0.254801 0.448787 0.312831
436 2 0.328429 0.481682 0.333364
437 4 0.352191 0.48933 0.331938
119 3 0.497193 0.459474 0.319205
1742 4 0.425327 0.478233 0.326294
1780 2 0.125092 0.00639511 0.399725
604 2 0.182028 0.0650271 0.343371
605 4 0.205124 0.0640153 0.352894
248 4 0.220203 0.0767592 0.357681
441 4 0.320657 0.0120955 0.399502
1701 4 0.33259 0.0178645 0.382039
962 4 0.320192 0.0269971 0.411151
425 4 0.335369 0.0199755 0.400019
698 4 0.404657 0.0590122 0.341049
1699 2 0.33661 0.0269975 0.359112
1700 4 0.340629 0.0361304 0.336186
697 2 0.381538 0.0511252 0.335713
257 4 0.424858 0.0579022 0.343173
397 2 0.0705187 0.0981996 0.333123
2584 2 0.0184439 0.110184 0.34856
398 4 0.0492356 0.10815 0.341679
2586 4 0.0402856 0.117742 0.358099
458 4 0.0417497 0.129385 0.373
457 2 0.035073 0.13909 0.395055
600 4 0.148778 0.144838 0.399411
598 2 0.140049 0.165643 0.388637
247 2 0.228441 0.0982571 0.347927
404 4 0.231524 0.136601 0.34568
683 4 0.24437 0.130569 0.37886
403 2 0.225499 0.160639 0.342355
682 2 0.269262 0.132664 0.379926
319 2 0.32194 0.159425 0.37688
684 4 0.294155 0.134759 0.380992
320 4 0.303494 0.14933 0.390409
717 4 0.428625 0.155573 0.347409
261 4 0.0648183 0.205936 0.429114
599 4 0.131319 0.186449 0.377862
389 4 0.113352 0.220935 0.369128
686 4 0.115656 0.192681 0.388184
685 2 0.0992546 0.199949 0.405601
275 4 0.131528 0.193642 0.35812
274 2 0.153787 0.204235 0.353939
388 2 0.113711 0.245817 0.366691
474 4 0.184981 0.229482 0.341463
276 4 0.176047 0.214828 0.349759
472 2 0.206201 0.216702 0.338067
405 4 0.219475 0.184677 0.339029
473 4 0.227422 0.203922 0.334671
419 4 0.404621 0.234254 0.342766
321 4 0.340385 0.16952 0.363351
467 4 0.393419 0.179866 0.398759
716 4 0.409399 0.172334 0.390422
466 2 0.402885 0.189473 0.419814
715 2 0.419012 0.163953 0.368915
269 4 0.413525 0.231112 0.361777
270 4 0.455194 0.208996 0.378369
452 4 0.473256 0.201113 0.380661
268 2 0.434359 0.220054 0.370073
451 2 0.476251 0.201909 0.405472
616 2 0.0884212 0.305503 0.374823
390 4 0.11407 0.270699 0.364254
617 4 0.103383 0.286797 0.367652
374 4 0.123137 0.287861 0.366119
373 2 0.14271 0.298013 0.354327
375 4 0.162282 0.308165 0.342535
618 4 0.073459 0.324208 0.381994
347 4 0.071894 0.330878 0.399778
549 4 0.0684488 0.402838 0.337766
346 2 0.0508296 0.340695 0.390553
348 4 0.0297651 0.350511 0.381328
509 4 0.244801 0.340114 0.360375
508 2 0.229945 0.338496 0.340329
668 4 0.30669 0.389074 0.417291
334 2 0.33461 0.360511 0.400456
335 4 0.353636 0.3456 0.394065
240 4 0.371057 0.353373 0.400822
238 2 0.391048 0.366591 0.407952
239 4 0.411039 0.379808 0.415082
587 4 0.404534 0.397113 0.406556
752 4 0.467537 0.399301 0.374375
561 4 0.475166 0.401879 0.393112
751 2 0.482351 0.41635 0.363647
547 2 0.07935 0.419164 0.353252
499 2 0.0782057 0.479018 0.357057
548 4 0.0902512 0.43549 0.368738
2462 4 0.00101492 0.488803 0.336618
501 4 0.0804089 0.467332 0.379051
407 4 0.0939314 0.451428 0.38208
406 2 0.107038 0.461182 0.401007
1556 4 0.240761 0.501182 0.39774
1544 4 0.226533 0.494094 0.411461
4 3 0.268293 0.449885 0.328086
1555 2 0.263007 0.494462 0.406966
5 3 0.266696 0.469708 0.360057
1557 4 0.285254 0.487741 0.416192
1 1 0.279799 0.464205 0.342262
438 4 0.304666 0.474034 0.334789
2 3 0.298745 0.453562 0.349807
586 2 0.408615 0.419878 0.397056
593 4 0.398523 0.454988 0.37903
592 2 0.412408 0.467013 0.362065
588 4 0.412697 0.442644 0.387555
713 4 0.441539 0.486546 0.336814
712 2 0.462838 0.473465 0.337462
714 4 0.484136 0.460384 0.33811
753 4 0.497164 0.433399 0.35292
117 3 0.496203 0.45596 0.356613
594 4 0.426293 0.479037 0.3451
367 2 0.078425 0.0195333 0.424892
369 4 0.0571808 0.0161602 0.437639
719 4 0.0472863 0.0297628 0.446921
718 2 0.0234436 0.025438 0.453086
1781 4 0.119806 0.0282725 0.410616
368 4 0.0996691 0.0229064 0.412145
341 4 0.171532 0.0396222 0.50487
961 2 0.305701 0.0396025 0.42716
963 4 0.29121 0.0522078 0.443169
432 4 0.302863 0.058697 0.458422
430 2 0.319584 0.0725626 0.470805
725 4 0.405626 0.0560322 0.415481
424 2 0.356956 0.0197263 0.412633
426 4 0.378543 0.0194772 0.425246
1216 2 0.425562 0.0529716 0.506145
724 2 0.417753 0.0728424 0.429464
1218 4 0.44877 0.0577725 0.498176
459 4 0.0283963 0.148795 0.41711
431 4 0.336304 0.0864283 0.483189
843 4 0.352869 0.090573 0.493281
726 4 0.42988 0.0896527 0.443447
642 4 0.501081 0.114769 0.436067
640 2 0.479597 0.109716 0.447817
641 4 0.458112 0.104663 0.459567
260 4 0.0329755 0.168622 0.419396
687 4 0.0828527 0.207218 0.423017
259 2 0.0488969 0.187279 0.424255
1035 4 0.0727542 0.223631 0.429236
696 4 0.0908872 0.24051 0.48188
1033 2 0.0870784 0.233447 0.447226
1034 4 0.101403 0.243263 0.465216
487 2 0.342863 0.246637 0.44585
468 4 0.41235 0.19908 0.440868
411 4 0.377941 0.24704 0.464525
409 2 0.390832 0.225956 0.460716
410 4 0.403722 0.204873 0.456908
266 4 0.368048 0.250501 0.480047
489 4 0.360417 0.241001 0.46274
574 2 0.404474 0.18314 0.493678
575 4 0.410721 0.197152 0.473934
516 4 0.421829 0.199188 0.458857
514 2 0.445469 0.204363 0.452569
515 4 0.469109 0.209537 0.446281
453 4 0.479245 0.202705 0.430283
2802 4 0.000165336 0.296064 0.444588
1258 2 0.109443 0.279302 0.477456
1259 4 0.123348 0.299982 0.479493
9 3 0.144481 0.304411 0.470017
1260 4 0.0955372 0.258622 0.475419
7 3 0.114487 0.320366 0.486093
6 1 0.136083 0.32405 0.479083
327 4 0.0949842 0.322374 0.485441
858 4 0.210362 0.246533 0.497082
488 4 0.325309 0.252273 0.42896
1011 4 0.4576 0.333714 0.48284
326 4 0.059842 0.357652 0.490048
325 2 0.0774131 0.340013 0.487744
10 3 0.136157 0.340522 0.463356
709 2 0.159686 0.418543 0.489171
711 4 0.137644 0.429732 0.485414
503 4 0.206228 0.348722 0.475676
502 2 0.196203 0.371594 0.476922
710 4 0.181728 0.407353 0.492928
504 4 0.186178 0.394465 0.478168
336 4 0.315583 0.375421 0.406847
560 4 0.49005 0.397251 0.440628
3309 4 0.492003 0.385689 0.456849
559 2 0.482608 0.399565 0.41687
3307 2 0.483842 0.364046 0.466344
3308 4 0.475681 0.342402 0.475838
1381 2 0.0241721 0.484175 0.459654
384 4 0.122052 0.437925 0.47614
382 2 0.116131 0.450859 0.455577
408 4 0.120145 0.470936 0.419935
568 2 0.141632 0.492242 0.430328
383 4 0.110211 0.463793 0.435015
569 4 0.121085 0.479964 0.437556
1543 2 0.203175 0.497127 0.41985
636 4 0.296902 0.481731 0.432153
669 4 0.331248 0.430629 0.430361
634 2 0.315092 0.464857 0.435254
667 2 0.318969 0.409851 0.423826
635 4 0.333281 0.447984 0.438355
774 4 0.346601 0.435379 0.44324
773 4 0.393016 0.436309 0.461826
772 2 0.369809 0.435844 0.452533
661 2 0.494791 0.49574 0.469514
663 4 0.49868 0.471464 0.464956
2430 4 0.155996 0.0278559 0.507469
2428 2 0.14266 0.00746776 0.513096
1152 4 0.226938 0.0604901 0.519643
1150 2 0.231951 0.0755151 0.53899
1032 4 0.25147 0.0842769 0.568259
342 4 0.212449 0.0682135 0.507879
340 2 0.19199 0.0539178 0.506374
1030 2 0.269626 0.0684923 0.575069
949 2 0.29507 0.0139995 0.561265
951 4 0.28957 0.0336172 0.575759
1217 4 0.402353 0.0481706 0.514114
842 4 0.388099 0.0609369 0.512807
841 2 0.370484 0.0757549 0.503044
3009 4 0.496935 0.0525255 0.562432
1058 4 0.0941255 0.106423 0.518364
1057 2 0.0968949 0.115027 0.541676
1059 4 0.0996644 0.123631 0.564989
1154 4 0.153682 0.116769 0.592989
1151 4 0.236965 0.0905401 0.558337
1180 2 0.217257 0.131795 0.550272
1181 4 0.227274 0.109069 0.55317
1182 4 0.20724 0.15452 0.547374
900 4 0.223162 0.166034 0.542838
1198 2 0.00769004 0.230524 0.556377
1199 4 0.028269 0.223856 0.568917
1244 4 0.052088 0.249219 0.567447
878 4 0.0453514 0.232347 0.574903
877 2 0.0553938 0.211113 0.583473
879 4 0.0654363 0.18988 0.592044
695 4 0.100006 0.225981 0.528853
694 2 0.0954465 0.233245 0.505366
898 2 0.24208 0.179407 0.533432
650 4 0.269097 0.205592 0.511513
899 4 0.260998 0.192779 0.524027
649 2 0.280606 0.223062 0.525207
651 4 0.292115 0.240533 0.5389
576 4 0.398227 0.169128 0.513421
267 4 0.361306 0.250106 0.529596
265 2 0.364677 0.250303 0.504822
948 4 0.163514 0.273711 0.582568
1136 4 0.15248 0.290428 0.585434
856 2 0.204482 0.257935 0.518544
857 4 0.198603 0.269337 0.540006
798 4 0.216462 0.272717 0.573069
947 4 0.206413 0.266396 0.557933
946 2 0.184964 0.270054 0.570251
2457 4 0.485867 0.287197 0.510512
1010 4 0.481589 0.305717 0.516625
1009 2 0.469595 0.319715 0.499732
8 3 0.148901 0.330468 0.497329
803 4 0.270234 0.370411 0.567401
804 4 0.291616 0.365545 0.522459
802 2 0.280925 0.367978 0.54493
928 2 0.347304 0.392252 0.569926
929 4 0.364716 0.394469 0.552119
881 4 0.365156 0.395898 0.532139
880 2 0.375497 0.374081 0.525638
882 4 0.385838 0.352263 0.519137
540 4 0.100612 0.467314 0.574876
2244 4 0.0949534 0.484824 0.570992
1160 4 0.113288 0.481604 0.579116
538 2 0.0859942 0.4473 0.57818
2154 4 0.230651 0.47971 0.541944
1909 2 0.441928 0.492079 0.561108
1000 2 0.46714 0.438918 0.578617
1911 4 0.455452 0.479689 0.578101
1001 4 0.465494 0.462806 0.571418
1081 2 0.0626232 0.0693544 0.639051
1082 4 0.07249 0.0629391 0.661111
938 4 0.0649209 0.0743325 0.599606
1083 4 0.0527563 0.0757696 0.61699
824 4 0.187899 0.00547519 0.671057
1031 4 0.287782 0.0527076 0.58188
3007 2 0.489729 0.0410577 0.58345
3008 4 0.482522 0.0295899 0.604467
809 4 0.48058 0.0406241 0.621527
808 2 0.471719 0.0548769 0.640062
810 4 0.462858 0.0691297 0.658596
1127 4 0.0465423 0.0955578 0.613772
1126 2 0.0233138 0.0899991 0.606375
1270 2 0.0750184 0.151236 0.583966
1155 4 0.104812 0.117768 0.582435
1153 2 0.129247 0.117268 0.587712
1271 4 0.0902575 0.13202 0.579098
939 4 0.0877646 0.113149 0.577877
937 2 0.0763428 0.093741 0.588742
1221 4 0.167602 0.130517 0.593254
1219 2 0.185909 0.136502 0.609198
1220 4 0.204217 0.142486 0.625141
1212 4 0.213137 0.160293 0.620092
1148 4 0.24427 0.0942192 0.666463
1194 4 0.304895 0.142435 0.665705
1192 2 0.319194 0.130292 0.649175
1193 4 0.333493 0.118149 0.632645
45 3 0.46484 0.0918028 0.655221
1272 4 0.0597794 0.170452 0.588833
1210 2 0.229869 0.171057 0.635238
1211 4 0.2466 0.181821 0.650383
886 2 0.27788 0.164188 0.660136
888 4 0.263494 0.173094 0.641726
1243 2 0.0432769 0.266724 0.582976
1245 4 0.0344657 0.284228 0.598504
983 4 0.0205152 0.298917 0.600795
1135 2 0.155242 0.314326 0.592248
822 4 0.147127 0.306599 0.651375
1064 4 0.157243 0.32243 0.644675
820 2 0.147333 0.282469 0.657921
796 2 0.234478 0.274336 0.59033
797 4 0.252495 0.275954 0.607592
792 4 0.287465 0.325344 0.57688
791 4 0.2657 0.290992 0.605983
790 2 0.276583 0.308168 0.591431
872 4 0.327762 0.296494 0.581358
871 2 0.351311 0.299647 0.589146
813 4 0.388525 0.316725 0.594832
873 4 0.374861 0.3028 0.596934
954 4 0.50437 0.247806 0.58999
3123 4 0.471393 0.272782 0.664238
1041 4 0.0596715 0.382389 0.644471
3264 4 0.0484688 0.38209 0.660848
3240 4 0.034022 0.394461 0.667958
3238 2 0.017264 0.411533 0.660688
1039 2 0.0788452 0.387024 0.629107
1137 4 0.158004 0.338224 0.599063
1040 4 0.098019 0.391659 0.613742
993 4 0.106326 0.373373 0.611148
991 2 0.129013 0.362921 0.612256
992 4 0.151701 0.352469 0.613365
897 4 0.165062 0.355597 0.600202
1063 2 0.172182 0.339498 0.655197
1189 2 0.24045 0.377969 0.594661
896 4 0.204016 0.384791 0.611649
895 2 0.184539 0.370194 0.605926
1172 4 0.228555 0.410742 0.605887
1191 4 0.222795 0.390571 0.607097
1238 4 0.28798 0.336712 0.591534
1190 4 0.258106 0.365367 0.582224
1239 4 0.322111 0.373156 0.594297
1237 2 0.305046 0.354934 0.592915
930 4 0.329892 0.390035 0.587733
811 2 0.395521 0.340201 0.599844
1204 2 0.376707 0.383031 0.631607
1205 4 0.35691 0.37686 0.645578
1206 4 0.396503 0.389203 0.617636
927 4 0.409885 0.382019 0.603934
812 4 0.402516 0.363677 0.604856
1002 4 0.468786 0.41503 0.585817
926 4 0.45391 0.403815 0.594585
925 2 0.431898 0.392917 0.59926
539 4 0.0713767 0.427285 0.581484
3239 4 0.000505913 0.428606 0.653417
1159 2 0.133963 0.48025 0.593112
1161 4 0.154638 0.478895 0.607108
1188 4 0.170296 0.485159 0.595639
1171 2 0.227863 0.43534 0.610319
1186 2 0.191928 0.479733 0.606943
1173 4 0.22717 0.459938 0.61475
1187 4 0.213561 0.474307 0.618247
1099 2 0.445334 0.492756 0.663314
1269 4 0.467079 0.469453 0.588963
1267 2 0.468074 0.482902 0.610018
1268 4 0.469069 0.496351 0.631074
945 4 0.0564834 0.00244249 0.685184
943 2 0.0648348 0.0257303 0.688805
944 4 0.0731862 0.0490181 0.692426
1076 4 0.0732056 0.0650954 0.680718
1075 2 0.073586 0.0814926 0.69959
825 4 0.155889 0.0422326 0.682237
1283 4 0.144726 0.0531019 0.694865
1282 2 0.147967 0.077694 0.698012
823 2 0.171894 0.0238539 0.676647
1147 2 0.247727 0.0694672 0.667217
1149 4 0.251183 0.0447151 0.66797
1092 4 0.307152 0.0165595 0.688787
1004 4 0.322438 0.0653079 0.745401
42 3 0.453636 0.0645226 0.678094
1163 4 0.466249 0.0738777 0.692588
1162 2 0.48046 0.0596093 0.707409
1164 4 0.49467 0.0453408 0.72223
864 4 0.070912 0.0915991 0.738639
1077 4 0.0739665 0.0978898 0.718462
1107 4 0.0830507 0.104632 0.733084
851 4 0.0755322 0.11765 0.721442
862 2 0.0485136 0.0879364 0.749131
850 2 0.0714929 0.1373 0.706518
852 4 0.0674536 0.15695 0.691593
1284 4 0.151209 0.102286 0.701159
1105 2 0.101403 0.111639 0.748553
909 4 0.164804 0.109406 0.712645
907 2 0.185165 0.120964 0.703868
908 4 0.205525 0.132523 0.695091
1227 4 0.222828 0.141583 0.690689
1225 2 0.238343 0.122501 0.686179
887 4 0.292265 0.155281 0.678546
1226 4 0.253858 0.103419 0.681669
829 2 0.306645 0.133408 0.711416
1005 4 0.327974 0.105177 0.715728
1003 2 0.325206 0.0852425 0.730564
830 4 0.291489 0.145476 0.69561
831 4 0.3218 0.12134 0.727223
3424 2 0.493306 0.119721 0.672228
3425 4 0.473478 0.104547 0.673564
41 1 0.454145 0.0872851 0.674813
43 3 0.43236 0.0952291 0.673956
44 3 0.465487 0.0971585 0.692484
1113 4 0.436287 0.106448 0.733261
1073 4 0.0679353 0.228482 0.744261
1072 2 0.0910416 0.23602 0.738391
1130 4 0.132227 0.24572 0.738341
1074 4 0.114148 0.243558 0.732521
978 4 0.314756 0.199555 0.7246
976 2 0.302233 0.206998 0.74492
1025 4 0.414087 0.169589 0.681606
1024 2 0.428872 0.179816 0.698985
1142 4 0.438193 0.185109 0.733677
1144 2 0.474734 0.168392 0.733818
1262 4 0.459285 0.200088 0.71553
1026 4 0.443656 0.190042 0.716363
1261 2 0.462627 0.224584 0.719266
1145 4 0.455464 0.180909 0.723961
1263 4 0.465969 0.24908 0.723002
893 4 0.00122063 0.32165 0.72189
1177 2 0.0161956 0.251646 0.714952
1179 4 0.0373723 0.264936 0.715265
892 2 0.0217456 0.335924 0.722291
1208 4 0.129669 0.23848 0.720358
1209 4 0.150924 0.265178 0.683805
1207 2 0.140296 0.251829 0.702081
821 4 0.14754 0.258338 0.664468
1019 4 0.336182 0.31165 0.697607
1018 2 0.355555 0.323576 0.687233
3262 2 0.0517215 0.360775 0.673508
3263 4 0.0549742 0.33946 0.686168
1279 2 0.0435278 0.384596 0.741215
1281 4 0.0363173 0.407962 0.74643
894 4 0.0422706 0.350198 0.722691
1280 4 0.0507382 0.361229 0.736
816 4 0.0651065 0.359555 0.749695
1065 4 0.187121 0.356565 0.665718
807 4 0.205762 0.350104 0.667343
1028 4 0.20507 0.394524 0.698169
1066 2 0.196364 0.375747 0.736574
1068 4 0.207463 0.386951 0.717171
1027 2 0.226302 0.401414 0.686904
805 2 0.22837 0.34517 0.676814
806 4 0.250978 0.340235 0.686286
1029 4 0.247534 0.408304 0.675639
1020 4 0.374928 0.335503 0.67686
1983 4 0.0549622 0.415343 0.752604
1981 2 0.0663009 0.436172 0.744681
1982 4 0.0776396 0.457001 0.736758
2172 4 0.131638 0.479457 0.663439
2016 4 0.168384 0.488821 0.744653
1175 4 0.1861 0.436438 0.712716
1174 2 0.180556 0.459828 0.719599
1176 4 0.175011 0.483217 0.726483
1140 4 0.246498 0.426733 0.665831
1138 2 0.260438 0.446623 0.671767
1139 4 0.274378 0.466514 0.677702
1987 2 0.278905 0.462795 0.728632
1229 4 0.294756 0.469846 0.686177
1989 4 0.287551 0.466395 0.705449
2028 4 0.280597 0.477021 0.692006
1228 2 0.313903 0.453827 0.684767
1230 4 0.333049 0.437808 0.683357
1100 4 0.432534 0.481724 0.681743
2991 4 0.994278 0.0328287 0.781732
2989 2 0.00443856 0.0552729 0.777466
2990 4 0.0145992 0.0777171 0.7732
863 4 0.0261153 0.0842736 0.759622
2049 4 0.117002 0.0242327 0.774898
1202 4 0.118426 0.0416629 0.765188
2047 2 0.126643 0.0013119 0.772278
1201 2 0.125801 0.063255 0.775414
817 2 0.329929 0.0487935 0.819151
819 4 0.325333 0.0713608 0.828886
818 4 0.334525 0.0262262 0.809416
1050 4 0.331779 0.999432 0.78197
974 4 0.335503 0.0108589 0.797247
2322 4 0.480242 0.0557677 0.782898
845 4 0.467786 0.0719031 0.783457
1112 4 0.455114 0.0801327 0.77139
844 2 0.473658 0.0746457 0.807606
2320 2 0.491647 0.0491925 0.761641
846 4 0.47953 0.0773883 0.831755
833 4 0.0251734 0.093998 0.775569
832 2 0.0241693 0.110674 0.794172
1125 4 0.02859 0.118674 0.830522
834 4 0.0231652 0.127349 0.812776
3083 4 0.00913586 0.0941235 0.765492
1203 4 0.133176 0.0848471 0.78564
1106 4 0.119754 0.118646 0.764022
911 4 0.130861 0.0988968 0.821093
34 3 0.129905 0.107351 0.777273
31 1 0.139239 0.109026 0.79845
35 3 0.124437 0.11883 0.812713
32 3 0.144242 0.0879035 0.806063
33 3 0.158788 0.121492 0.797527
1255 2 0.244233 0.109615 0.799635
1256 4 0.224753 0.110946 0.815253
840 4 0.220966 0.126496 0.826894
1085 4 0.311763 0.085385 0.821013
1257 4 0.263712 0.108284 0.784016
1084 2 0.297081 0.0987013 0.805772
1086 4 0.2824 0.112018 0.79053
1023 4 0.399735 0.154724 0.832218
1021 2 0.378566 0.141575 0.830175
1022 4 0.357397 0.128426 0.828132
1052 4 0.413854 0.141105 0.833332
1111 2 0.445701 0.0932902 0.752326
1129 2 0.14776 0.251131 0.757173
1277 4 0.17368 0.241057 0.781426
1131 4 0.163292 0.256542 0.776005
1276 2 0.192358 0.25152 0.794342
977 4 0.289709 0.214441 0.765241
918 4 0.282976 0.231689 0.767058
1298 4 0.285045 0.217391 0.783079
1297 2 0.280714 0.206622 0.805226
1299 4 0.276383 0.195854 0.827372
47 3 0.403494 0.167712 0.817724
48 3 0.396358 0.170868 0.780958
46 1 0.399458 0.182652 0.800705
1043 4 0.398686 0.208933 0.801664
49 3 0.380348 0.194801 0.805763
1042 2 0.396624 0.233474 0.797342