ITEM: TIMESTEP
520000
ITEM: NUMBER OF ATOMS
4590
ITEM: BOX BOUNDS pp pp pp
-9.9985700000000008e+00 9.9985700000000008e+00
-9.9985700000000008e+00 9.9985700000000008e+00
-9.9985700000000008e+00 9.9985700000000008e+00
ITEM: ATOMS id type xs ys zs
463 2 0.0336296 0.0707897 0.0175795
464 4 0.0547864 0.0700206 0.00427635
465 4 0.0124727 0.0715587 0.0308827
591 4 0.0116018 0.0550542 0.0742498
589 2 0.998899 0.0728014 0.0864507
1475 4 0.266951 0.0108137 0.0654731
492 4 0.297819 0.0631885 0.0620499
297 4 0.341349 0.0383896 0.0375768
295 2 0.349823 0.0615867 0.0414833
486 4 0.353184 0.00947195 0.0572291
987 4 0.416317 0.0266336 0.0128583
747 4 0.473164 0.0663142 0.00417803
2974 2 0.478982 0.0264831 0.0180448
2976 4 0.485335 0.00748185 0.0330039
2468 4 0.489755 0.00595968 0.0508376
1607 4 0.425218 0.0108375 0.0216238
2975 4 0.47263 0.0454843 0.00308578
3233 4 0.0218151 0.143808 0.998918
422 4 0.0997377 0.132034 0.0275134
421 2 0.112016 0.142477 0.00839834
565 2 0.200132 0.148116 0.0620014
566 4 0.177304 0.140905 0.0692164
567 4 0.22296 0.155327 0.0547864
358 2 0.301918 0.141048 0.0534564
359 4 0.283573 0.143927 0.0702005
360 4 0.320263 0.138169 0.0367124
296 4 0.358297 0.0847838 0.0453898
557 4 0.370222 0.0929253 0.0318857
556 2 0.381822 0.110593 0.045246
558 4 0.393422 0.12826 0.0586063
745 2 0.468446 0.0902271 0.00975416
746 4 0.463728 0.11414 0.0153303
771 4 0.443173 0.152595 0.0581649
554 4 0.0723966 0.233434 0.0407305
836 4 0.10129 0.23399 0.0113013
666 4 0.334782 0.193952 0.00571003
665 4 0.34571 0.190185 0.0543629
664 2 0.340246 0.192068 0.0300364
769 2 0.434182 0.175903 0.0571319
324 4 0.442329 0.236458 0.0471393
770 4 0.425191 0.199211 0.0560989
553 2 0.0571642 0.253262 0.040746
555 4 0.0419317 0.27309 0.0407615
292 2 0.145456 0.301641 0.00362518
293 4 0.151795 0.285392 0.0215407
507 4 0.152788 0.290681 0.040966
483 4 0.216121 0.298565 0.0619785
505 2 0.175973 0.288769 0.050129
506 4 0.199158 0.286857 0.059292
481 2 0.238605 0.289405 0.0679561
573 4 0.267325 0.268802 0.0577761
572 4 0.275821 0.250662 0.0119561
357 4 0.277761 0.269654 0.00470818
571 2 0.271573 0.259732 0.0348661
482 4 0.261089 0.280245 0.0739337
1071 4 0.376837 0.267764 0.00652016
1069 2 0.394986 0.28444 0.0107284
1070 4 0.413135 0.301116 0.0149366
323 4 0.406951 0.257911 0.0752271
322 2 0.42464 0.247184 0.0611832
671 4 0.444773 0.316493 0.0718427
280 2 0.441138 0.320372 0.0364992
281 4 0.455487 0.324651 0.0565232
282 4 0.426789 0.316092 0.0164752
288 4 0.165462 0.342697 0.0225486
454 2 0.127024 0.396279 0.0864425
287 4 0.20903 0.363542 0.00958704
286 2 0.187246 0.35312 0.0160678
252 4 0.292095 0.389789 0.0404838
250 2 0.310374 0.387793 0.0235402
251 4 0.328652 0.385797 0.00659659
609 4 0.281644 0.401592 0.053047
741 4 0.335413 0.346164 0.053326
739 2 0.343069 0.350809 0.0766711
551 4 0.055546 0.434953 0.0565786
328 2 0.0182009 0.417321 0.0134329
550 2 0.0762188 0.427538 0.0685303
329 4 0.0312185 0.435902 0.0239444
552 4 0.0968915 0.420124 0.080482
455 4 0.113958 0.412365 0.0724526
242 4 0.14352 0.499309 0.0455519
241 2 0.151308 0.504136 0.0688163
245 4 0.20982 0.439217 0.0352261
626 4 0.217989 0.447307 0.0518888
244 2 0.230245 0.445182 0.0220951
625 2 0.222795 0.44836 0.0764034
246 4 0.25067 0.451147 0.00896399
272 4 0.269782 0.444414 0.00937321
271 2 0.284744 0.463207 0.00243367
273 4 0.299706 0.482 0.995494
226 2 0.491744 0.453287 0.0873471
563 4 0.467852 0.484216 0.0727998
228 4 0.484707 0.475175 0.0775191
1666 2 0.0695809 0.0515117 0.100757
1668 4 0.0511638 0.0346048 0.101142
19 3 0.051473 0.035967 0.14707
20 3 0.0633438 0.0654165 0.167305
1667 4 0.087998 0.0684185 0.100371
450 4 0.161659 0.0506113 0.141782
448 2 0.175954 0.0696206 0.13407
490 2 0.291031 0.0647689 0.0860624
652 2 0.309581 0.999938 0.14484
491 4 0.284243 0.0663492 0.110075
654 4 0.290781 0.989058 0.132455
653 4 0.328382 0.0108169 0.157224
310 2 0.417796 0.0811192 0.155819
2722 2 0.489131 0.056284 0.149659
1759 2 0.477569 0.00775106 0.129152
1760 4 0.492415 0.018558 0.146123
2724 4 0.500325 0.0348071 0.155872
380 4 0.0105118 0.147123 0.144461
701 4 0.102127 0.0814225 0.105942
700 2 0.111288 0.100187 0.119695
702 4 0.12045 0.118952 0.133448
476 4 0.114137 0.137931 0.131584
475 2 0.118408 0.146297 0.154757
237 4 0.204857 0.151699 0.148714
449 4 0.190249 0.08863 0.126358
235 2 0.195896 0.130111 0.139834
236 4 0.186935 0.108524 0.130954
582 4 0.308816 0.102886 0.144582
580 2 0.29085 0.111247 0.15983
629 4 0.415381 0.121389 0.119745
628 2 0.411136 0.145868 0.122566
312 4 0.428616 0.0887221 0.134598
2723 4 0.477937 0.0777609 0.143445
2625 4 0.997679 0.202427 0.11722
337 2 0.067582 0.240602 0.14351
656 4 0.0134981 0.24054 0.0814458
338 4 0.085402 0.227359 0.155011
737 4 0.180393 0.183206 0.115151
736 2 0.200362 0.19371 0.104377
738 4 0.22033 0.204215 0.0936025
277 2 0.236676 0.23963 0.164146
461 4 0.299042 0.217865 0.094361
460 2 0.322881 0.211305 0.0906349
354 4 0.279899 0.217284 0.0963917
352 2 0.274802 0.229122 0.117818
284 4 0.274106 0.232588 0.156447
353 4 0.269705 0.240959 0.139244
283 2 0.294371 0.230916 0.170997
255 4 0.365722 0.200664 0.0835981
462 4 0.346719 0.204746 0.0869087
254 4 0.386405 0.174209 0.120653
253 2 0.376063 0.187437 0.102125
765 4 0.398352 0.221172 0.157143
624 4 0.38563 0.23207 0.145317
630 4 0.406892 0.170347 0.125386
518 4 0.490748 0.229614 0.129178
339 4 0.0497619 0.253844 0.13201
536 4 0.202639 0.316996 0.122258
278 4 0.257746 0.243539 0.151263
754 2 0.274032 0.281547 0.146854
755 4 0.26401 0.259319 0.141319
756 4 0.284055 0.303775 0.152389
622 2 0.383296 0.253393 0.132468
623 4 0.380963 0.274715 0.11962
670 2 0.446322 0.312964 0.0965475
672 4 0.447871 0.309435 0.121252
528 4 0.48037 0.26986 0.140766
526 2 0.477394 0.267145 0.165443
621 4 0.0169146 0.381144 0.122119
619 2 0.01427 0.363356 0.104747
620 4 0.0116253 0.345569 0.0873752
456 4 0.14009 0.380194 0.100432
535 2 0.193324 0.331958 0.139994
537 4 0.18401 0.34692 0.157729
607 2 0.290691 0.407131 0.0756884
302 4 0.310775 0.391662 0.15117
387 4 0.31652 0.37457 0.142647
608 4 0.299739 0.41267 0.0983298
385 2 0.336657 0.371207 0.128212
740 4 0.350725 0.355454 0.100016
15 3 0.375421 0.365466 0.118492
386 4 0.356794 0.367843 0.113777
11 1 0.393437 0.373042 0.130183
13 3 0.386496 0.382337 0.150278
12 3 0.407544 0.355422 0.13462
14 3 0.404905 0.388868 0.117677
495 4 0.411134 0.407629 0.123967
596 4 0.492643 0.383928 0.167888
315 4 0.00292843 0.463273 0.106927
313 2 0.00631879 0.463152 0.131699
314 4 0.00970915 0.46303 0.156472
637 2 0.247911 0.492132 0.138435
627 4 0.227602 0.449413 0.100918
638 4 0.257555 0.47608 0.155004
523 2 0.330367 0.491507 0.105708
525 4 0.33799 0.473584 0.121387
658 2 0.376042 0.453002 0.14371
659 4 0.386073 0.460102 0.121934
227 4 0.498781 0.431399 0.0971751
493 2 0.433207 0.415245 0.132908
494 4 0.45528 0.422861 0.141849
16 1 0.0556531 0.04401 0.16843
17 3 0.0360675 0.0436194 0.180488
2480 4 0.0228714 0.0464176 0.195249
18 3 0.0712721 0.0305339 0.179053
1422 4 0.0139416 0.0297187 0.194535
1420 2 0.0263998 0.00852016 0.199074
578 4 0.0747718 0.0673551 0.220367
2479 2 0.00546123 0.0603287 0.183911
673 2 0.107536 0.0348116 0.244179
674 4 0.112648 0.0412046 0.220553
689 4 0.171033 0.0420358 0.222479
688 2 0.184741 0.0261711 0.236102
692 4 0.227586 0.0604803 0.229834
723 4 0.219239 0.0607317 0.247692
691 2 0.234659 0.0763961 0.211894
690 4 0.198449 0.0103064 0.249725
24 3 0.330766 0.0409532 0.226458
21 1 0.351815 0.0316151 0.229318
23 3 0.350309 0.0125705 0.242487
25 3 0.360803 0.0263649 0.209062
759 4 0.372674 0.0439613 0.218359
22 3 0.365363 0.0469107 0.239884
757 2 0.391843 0.0540707 0.205889
758 4 0.411013 0.0641801 0.193419
311 4 0.406977 0.0735163 0.177039
742 2 0.474261 0.0595323 0.209531
744 4 0.479531 0.0412854 0.225793
743 4 0.468992 0.0777793 0.193269
379 2 0.0110845 0.154388 0.168379
381 4 0.0116572 0.161653 0.192297
511 2 0.0304329 0.164357 0.221398
512 4 0.0148385 0.150323 0.207794
477 4 0.122678 0.154663 0.177929
577 2 0.0865856 0.0846126 0.234071
693 4 0.241733 0.0923119 0.193955
581 4 0.272884 0.119609 0.175077
28 3 0.307066 0.142403 0.232467
26 1 0.312817 0.15607 0.250314
331 2 0.443823 0.164797 0.242541
332 4 0.46547 0.169728 0.254043
513 4 0.0460274 0.178391 0.235001
394 2 0.0148044 0.250944 0.219788
396 4 0.00434092 0.247624 0.242253
363 4 0.0912009 0.238838 0.17119
279 4 0.215606 0.235721 0.177028
285 4 0.314636 0.229245 0.185547
333 4 0.422177 0.159865 0.23104
764 4 0.357896 0.203947 0.180962
763 2 0.378124 0.212559 0.169052
520 2 0.489388 0.209288 0.204158
521 4 0.468875 0.196523 0.19772
762 4 0.480296 0.182292 0.250928
395 4 0.0252678 0.254265 0.197323
361 2 0.0940616 0.250574 0.193082
371 4 0.164635 0.271369 0.211033
370 2 0.139885 0.271365 0.214583
372 4 0.115135 0.271362 0.218132
748 2 0.0929426 0.298031 0.228743
362 4 0.0969224 0.262309 0.214975
749 4 0.0841041 0.274762 0.226373
750 4 0.101781 0.3213 0.231112
343 2 0.246626 0.310269 0.241616
612 4 0.275536 0.310594 0.168986
344 4 0.247898 0.285903 0.236149
307 2 0.312155 0.288169 0.243736
308 4 0.312243 0.293561 0.219321
610 2 0.276907 0.322181 0.1911
527 4 0.474419 0.26443 0.19012
647 4 0.0655786 0.363859 0.165647
646 2 0.0874823 0.359613 0.176933
648 4 0.109386 0.355368 0.18822
300 4 0.0961148 0.371621 0.250733
298 2 0.120483 0.377209 0.250345
417 4 0.156935 0.389966 0.187615
415 2 0.180089 0.398396 0.191855
291 4 0.220827 0.397402 0.196251
416 4 0.203244 0.406826 0.196095
611 4 0.278279 0.333768 0.213215
303 4 0.310481 0.394256 0.201109
301 2 0.310628 0.392959 0.176139
729 4 0.304151 0.403967 0.21612
727 2 0.317208 0.389236 0.231538
595 2 0.467738 0.384071 0.170109
597 4 0.442834 0.384214 0.17233
643 2 0.426701 0.367788 0.203293
644 4 0.426292 0.360034 0.227061
645 4 0.427109 0.375541 0.179526
447 4 0.432675 0.361711 0.245396
262 2 0.0213901 0.423417 0.240001
264 4 0.00212615 0.436101 0.230348
1756 2 0.0886795 0.486655 0.247037
290 4 0.245513 0.437883 0.212148
289 2 0.23317 0.417643 0.2042
768 4 0.260994 0.444148 0.200875
766 2 0.257325 0.464432 0.186723
767 4 0.253655 0.484717 0.172572
660 4 0.366012 0.445902 0.165485
1568 4 0.485336 0.526891 0.205548
232 2 0.0181001 0.044816 0.290154
233 4 0.0406018 0.0396831 0.280536
1402 2 0.0700342 0.016918 0.281817
1404 4 0.0453903 0.0196995 0.284998
675 4 0.102424 0.0284185 0.267805
1403 4 0.0946781 0.0141364 0.278636
1701 4 0.226635 0.0422744 0.319148
1699 2 0.250449 0.0394535 0.312067
721 2 0.218767 0.0710744 0.270452
1700 4 0.274262 0.0366326 0.304987
478 2 0.480532 0.0430348 0.300216
480 4 0.465746 0.0526471 0.282492
351 4 0.460821 0.0712068 0.275438
479 4 0.495319 0.0334226 0.31794
531 4 0.00520001 0.155489 0.266854
579 4 0.0983993 0.10187 0.247775
732 4 0.0817144 0.0990432 0.330637
722 4 0.218296 0.081417 0.293211
249 4 0.212579 0.0988749 0.300163
247 2 0.207056 0.0993063 0.324545
403 2 0.222874 0.139182 0.283407
404 4 0.211741 0.117157 0.287425
29 3 0.300104 0.150563 0.268927
27 3 0.335048 0.152858 0.255279
632 4 0.3764 0.114754 0.26363
631 2 0.358354 0.120485 0.279961
633 4 0.340308 0.126216 0.296291
706 2 0.344753 0.159874 0.322231
707 4 0.339255 0.145387 0.302608
349 2 0.447892 0.0894702 0.286595
350 4 0.434963 0.107733 0.297751
393 4 0.0611957 0.171156 0.244962
442 2 0.0014868 0.247584 0.285668
392 4 0.100617 0.175622 0.275404
546 4 0.138518 0.17161 0.270558
391 2 0.0809064 0.173389 0.260183
544 2 0.156676 0.183428 0.283041
405 4 0.234007 0.161206 0.279389
545 4 0.174833 0.195247 0.295523
30 3 0.309445 0.177904 0.244784
717 4 0.388641 0.202471 0.337445
418 2 0.427882 0.234818 0.325638
761 4 0.485564 0.224836 0.276677
760 2 0.48293 0.203564 0.263802
443 4 0.00806189 0.244012 0.26181
390 4 0.0967119 0.272132 0.309399
388 2 0.0979385 0.26049 0.331493
345 4 0.245353 0.334634 0.247084
400 2 0.191971 0.290424 0.303149
402 4 0.212049 0.301547 0.313066
401 4 0.171894 0.279301 0.293233
309 4 0.312068 0.282777 0.268151
496 2 0.309074 0.309329 0.298347
497 4 0.299033 0.320532 0.318318
498 4 0.319115 0.298125 0.278376
543 4 0.382388 0.303727 0.30037
615 4 0.386706 0.318994 0.31121
613 2 0.364607 0.330431 0.313656
541 2 0.395566 0.285079 0.310558
420 4 0.425632 0.257403 0.315147
542 4 0.408744 0.266432 0.320745
364 2 0.0218449 0.360258 0.290165
365 4 0.0445911 0.352493 0.297056
601 2 0.0716655 0.381049 0.292495
603 4 0.0594886 0.36033 0.285595
299 4 0.144851 0.382797 0.249958
602 4 0.0838425 0.401768 0.299396
734 4 0.156116 0.386851 0.265294
510 4 0.228832 0.344897 0.332035
733 2 0.16737 0.372576 0.282462
677 4 0.170678 0.341683 0.308363
735 4 0.178623 0.3583 0.29963
676 2 0.180555 0.346447 0.330834
433 2 0.311519 0.372093 0.314814
434 4 0.328744 0.356319 0.323739
728 4 0.330265 0.374506 0.246956
435 4 0.294294 0.387867 0.305888
614 4 0.342507 0.341868 0.316101
445 2 0.450864 0.369671 0.260594
446 4 0.469053 0.377631 0.275792
263 4 0.040654 0.410733 0.249655
549 4 0.0760896 0.413969 0.313649
1757 4 0.0701481 0.472298 0.255734
777 4 0.0820887 0.458394 0.314167
775 2 0.0865739 0.480239 0.325474
414 4 0.21275 0.491817 0.29712
412 2 0.19546 0.4742 0.301103
413 4 0.17817 0.456582 0.305085
436 2 0.331856 0.455417 0.300454
437 4 0.339284 0.45612 0.27659
438 4 0.324427 0.454714 0.324318
231 4 0.385852 0.47707 0.252405
119 3 0.487821 0.437529 0.318822
713 4 0.432061 0.467488 0.309615
712 2 0.450905 0.452354 0.31602
714 4 0.46975 0.43722 0.322426
316 2 0.059692 0.0670628 0.350483
317 4 0.0504603 0.0486355 0.364639
428 4 0.0769258 0.0184037 0.3511
1781 4 0.110738 0.0173861 0.407884
606 4 0.135681 0.0798952 0.356842
429 4 0.119447 0.0355985 0.331175
427 2 0.0981863 0.0270011 0.341138
683 4 0.309669 0.0642058 0.365582
682 2 0.30086 0.0820567 0.380712
439 2 0.294419 0.00946758 0.413813
698 4 0.396937 0.0545579 0.35679
699 4 0.347308 0.0579727 0.361897
257 4 0.418072 0.0530027 0.358854
697 2 0.372122 0.0562653 0.359343
256 2 0.439136 0.0414689 0.351892
258 4 0.4602 0.0299352 0.34493
318 4 0.0689237 0.0854902 0.336327
398 4 0.0603537 0.148104 0.373927
397 2 0.0665215 0.131692 0.356101
399 4 0.0726893 0.115279 0.338276
457 2 0.0250524 0.151322 0.407886
458 4 0.00228955 0.140988 0.408369
731 4 0.129452 0.0950151 0.344976
730 2 0.105583 0.0970292 0.337807
604 2 0.159268 0.0881687 0.356237
599 4 0.153971 0.159959 0.376896
600 4 0.165971 0.126606 0.341622
598 2 0.159971 0.143283 0.359259
605 4 0.182855 0.0964421 0.355633
248 4 0.201532 0.0997378 0.348927
684 4 0.292051 0.0999075 0.395842
2879 4 0.495261 0.0712659 0.41571
452 4 0.47606 0.115453 0.400409
451 2 0.461778 0.135479 0.404898
453 4 0.447496 0.155506 0.409386
515 4 0.434607 0.168249 0.416621
260 4 0.0557465 0.181424 0.409278
459 4 0.0478153 0.161657 0.407404
389 4 0.0991651 0.248847 0.353586
474 4 0.211629 0.22508 0.37869
276 4 0.206994 0.239379 0.391512
472 2 0.212478 0.200475 0.383055
473 4 0.213328 0.17587 0.38742
708 4 0.350251 0.174361 0.341855
715 2 0.379384 0.214358 0.3574
716 4 0.370127 0.226244 0.377354
467 4 0.371683 0.212153 0.391416
466 2 0.368408 0.202323 0.414171
306 4 0.49231 0.168145 0.407054
419 4 0.430131 0.212234 0.336129
268 2 0.491126 0.245107 0.412473
270 4 0.470964 0.23042 0.410753
2493 4 0.0114878 0.33724 0.335584
347 4 0.06158 0.322334 0.387796
346 2 0.0440314 0.31225 0.402477
616 2 0.080484 0.330912 0.350569
618 4 0.0640822 0.321377 0.366855
274 2 0.203113 0.260842 0.379286
275 4 0.199232 0.282304 0.36706
374 4 0.179803 0.341401 0.415067
373 2 0.180381 0.339435 0.390147
376 2 0.287414 0.286274 0.34406
377 4 0.295121 0.306856 0.332137
378 4 0.279708 0.265691 0.355982
488 4 0.275931 0.260303 0.416496
617 4 0.0968857 0.340447 0.334282
678 4 0.190431 0.351211 0.353305
508 2 0.233208 0.345494 0.356646
375 4 0.180958 0.337469 0.365228
509 4 0.237585 0.346091 0.381256
503 4 0.256441 0.39731 0.411478
336 4 0.340787 0.388266 0.406958
334 2 0.355869 0.3697 0.414238
559 2 0.492456 0.394356 0.402715
561 4 0.479172 0.399658 0.382207
752 4 0.465377 0.41086 0.373298
547 2 0.0721541 0.41665 0.338195
548 4 0.0682185 0.41933 0.362741
407 4 0.0794159 0.435093 0.364281
406 2 0.0804405 0.435273 0.389263
570 4 0.165267 0.489156 0.400025
3 3 0.319772 0.468531 0.337937
5 3 0.307033 0.483218 0.370181
1 1 0.318651 0.487612 0.351093
4 3 0.340051 0.494881 0.356347
594 4 0.393484 0.467154 0.374661
592 2 0.389222 0.487148 0.360264
751 2 0.447167 0.426466 0.380371
753 4 0.428957 0.442072 0.387444
2237 4 0.0384127 0.0224011 0.483784
718 2 0.0594161 0.0474782 0.471109
720 4 0.0437421 0.0288931 0.465269
719 4 0.07509 0.0660634 0.476948
368 4 0.118152 0.0167631 0.426253
367 2 0.0996784 0.0248657 0.441026
369 4 0.0812044 0.0329684 0.455799
341 4 0.204365 0.0403802 0.487498
441 4 0.29303 0.0302587 0.427632
962 4 0.305976 0.0200153 0.439848
961 2 0.303675 0.0335679 0.460733
963 4 0.301375 0.0471205 0.481619
426 4 0.392964 0.0151812 0.410979
424 2 0.375497 0.0290633 0.422265
425 4 0.35803 0.0429454 0.43355
725 4 0.390993 0.0641267 0.457943
724 2 0.368739 0.0753257 0.460073
726 4 0.346485 0.0865246 0.462203
471 4 0.0203487 0.152646 0.489009
321 4 0.248342 0.123635 0.437777
320 4 0.283537 0.0977279 0.41347
319 2 0.265939 0.110681 0.425624
1181 4 0.274564 0.106362 0.476178
1182 4 0.269012 0.150737 0.498555
1180 2 0.271788 0.12855 0.487366
2878 2 0.495959 0.0893891 0.432922
2880 4 0.496657 0.107512 0.450134
640 2 0.493486 0.10034 0.489147
259 2 0.0772151 0.187124 0.420757
469 2 0.028394 0.174675 0.49768
685 2 0.135342 0.179654 0.41857
687 4 0.111531 0.18722 0.417582
261 4 0.0986837 0.192825 0.432237
1035 4 0.105972 0.19225 0.450076
1033 2 0.103879 0.199197 0.474003
1034 4 0.101785 0.206145 0.497931
686 4 0.159153 0.172087 0.419557
487 2 0.290825 0.244532 0.428932
489 4 0.305719 0.228762 0.441368
411 4 0.307538 0.216448 0.455309
409 2 0.330902 0.207625 0.454096
574 2 0.389205 0.173795 0.487701
410 4 0.354265 0.198802 0.452883
468 4 0.365133 0.192493 0.436927
575 4 0.39772 0.184516 0.466778
516 4 0.411562 0.192423 0.45384
514 2 0.423084 0.180336 0.435231
304 2 0.491597 0.180036 0.429038
305 4 0.490884 0.191927 0.451021
695 4 0.0791675 0.253271 0.469299
348 4 0.0264829 0.302166 0.417158
694 2 0.100217 0.263667 0.477902
696 4 0.121267 0.274064 0.486505
9 3 0.163237 0.327849 0.470634
1260 4 0.134406 0.289725 0.488601
651 4 0.240395 0.286666 0.463296
649 2 0.262554 0.276041 0.467908
650 4 0.284713 0.265415 0.472521
266 4 0.342682 0.288673 0.476841
267 4 0.377052 0.275648 0.442933
265 2 0.359867 0.28216 0.459887
583 2 0.465941 0.274118 0.480878
585 4 0.449402 0.273415 0.462139
2846 4 0.0164512 0.356366 0.484125
681 4 0.0119293 0.405885 0.441334
326 4 0.0780902 0.348628 0.436394
6 1 0.151406 0.342537 0.484149
327 4 0.120581 0.35104 0.462651
325 2 0.0993358 0.349834 0.449523
7 3 0.129349 0.34253 0.477617
711 4 0.165276 0.372077 0.435833
502 2 0.238114 0.404986 0.426656
10 3 0.159853 0.363579 0.482017
504 4 0.219786 0.412661 0.441833
709 2 0.183703 0.388977 0.435919
710 4 0.20213 0.405878 0.436004
668 4 0.327379 0.41265 0.42734
772 2 0.269432 0.415909 0.484085
335 4 0.370951 0.351133 0.421518
812 4 0.353121 0.359108 0.487722
238 2 0.398632 0.370788 0.448818
240 4 0.379928 0.363074 0.434127
239 4 0.417336 0.378501 0.463509
680 4 0.00760821 0.452723 0.424355
1383 4 0.010883 0.472788 0.425318
679 2 0.00976876 0.429304 0.432845
539 4 0.0704643 0.460302 0.501831
568 2 0.152519 0.488442 0.421522
384 4 0.111459 0.427999 0.474667
569 4 0.13977 0.487728 0.44302
383 4 0.0973988 0.434898 0.427176
382 2 0.104429 0.431449 0.450922
408 4 0.0814652 0.435452 0.414245
636 4 0.245999 0.484834 0.444245
635 4 0.26285 0.438376 0.451884
774 4 0.270534 0.421701 0.459786
667 2 0.307074 0.411992 0.441915
669 4 0.286769 0.411334 0.456491
634 2 0.254425 0.461605 0.448064
1557 4 0.2538 0.501498 0.438984
880 2 0.343508 0.463216 0.488544
588 4 0.39436 0.453205 0.459476
881 4 0.340691 0.487323 0.494552
586 2 0.41247 0.4529 0.442239
882 4 0.346325 0.439109 0.482536
661 2 0.46361 0.461221 0.483071
662 4 0.480252 0.478971 0.477313
1332 4 0.493344 0.490373 0.469573
587 4 0.430581 0.452595 0.425003
663 4 0.446968 0.443471 0.488829
1126 2 0.0154079 0.0637242 0.570654
1127 4 0.0403001 0.0615758 0.569682
1058 4 0.135558 0.0684277 0.566293
1031 4 0.214743 0.0788216 0.571887
340 2 0.206716 0.0547279 0.50784
342 4 0.209068 0.0690757 0.528181
2428 2 0.207682 0.999093 0.504355
2430 4 0.202053 0.0219599 0.495952
432 4 0.295701 0.0561479 0.498313
430 2 0.314203 0.0569219 0.515114
1217 4 0.407257 0.0417699 0.52646
1216 2 0.415624 0.0329886 0.548324
841 2 0.36955 0.0596757 0.518864
842 4 0.393078 0.0513364 0.517424
843 4 0.346023 0.0680149 0.520305
431 4 0.332705 0.0576958 0.531914
3008 4 0.487725 0.0673383 0.579221
1218 4 0.423992 0.0242074 0.570189
938 4 0.07091 0.144024 0.552681
937 2 0.0933023 0.147075 0.56338
939 4 0.115694 0.150126 0.574078
1059 4 0.125256 0.11712 0.561436
1057 2 0.130407 0.0927741 0.563865
1153 2 0.147437 0.149967 0.583927
1155 4 0.130005 0.13685 0.571711
1030 2 0.225035 0.101358 0.568516
1152 4 0.197454 0.0861297 0.530444
1151 4 0.176691 0.130237 0.519301
1150 2 0.187073 0.108183 0.524873
1032 4 0.235328 0.123894 0.565145
576 4 0.380691 0.163075 0.508624
641 4 0.481516 0.0935889 0.510036
3159 4 0.48872 0.157281 0.557981
877 2 0.052899 0.222854 0.575061
878 4 0.0308764 0.211335 0.572324
1199 4 0.0162146 0.224185 0.575897
879 4 0.0749215 0.234374 0.577798
470 4 0.0364392 0.196704 0.506351
1272 4 0.0847979 0.225198 0.56381
1270 2 0.108369 0.228627 0.571414
856 2 0.229663 0.233598 0.511923
1221 4 0.178548 0.176556 0.599638
857 4 0.218054 0.236193 0.48993
858 4 0.241273 0.231002 0.533915
898 2 0.311238 0.176939 0.566909
900 4 0.286251 0.176052 0.566807
899 4 0.336226 0.177826 0.567012
983 4 0.0337346 0.318052 0.539065
982 2 0.0178628 0.326054 0.55665
984 4 0.00199105 0.334056 0.574235
1258 2 0.144006 0.287407 0.511571
1259 4 0.153607 0.285089 0.534541
872 4 0.365472 0.27517 0.538887
871 2 0.36006 0.299578 0.538517
873 4 0.354648 0.323986 0.538147
954 4 0.417564 0.311165 0.594844
2456 4 0.500152 0.264616 0.504416
584 4 0.48248 0.274821 0.499617
8 3 0.152674 0.335703 0.506287
1189 2 0.22335 0.379403 0.563446
1191 4 0.200121 0.386357 0.569548
1190 4 0.246579 0.372448 0.557345
896 4 0.187511 0.398261 0.581783
803 4 0.261373 0.371602 0.54326
802 2 0.264033 0.364219 0.51952
773 4 0.268329 0.410118 0.508383
804 4 0.266693 0.356835 0.49578
813 4 0.340063 0.337489 0.530883
928 2 0.335832 0.372071 0.565468
930 4 0.330292 0.354115 0.581963
811 2 0.346592 0.348299 0.509303
929 4 0.341373 0.390026 0.548973
926 4 0.426558 0.345118 0.52457
925 2 0.429692 0.368837 0.531834
927 4 0.432827 0.392555 0.539098
3307 2 0.50415 0.364485 0.511172
3309 4 0.481978 0.370075 0.521287
538 2 0.0855066 0.475385 0.514924
1159 2 0.140925 0.470838 0.570168
540 4 0.100549 0.490468 0.528016
1161 4 0.153263 0.491968 0.565022
1172 4 0.252472 0.42228 0.575497
1951 2 0.345923 0.485657 0.58336
1953 4 0.356896 0.494844 0.562857
1911 4 0.465038 0.485476 0.556172
1002 4 0.421215 0.434645 0.557958
1000 2 0.442516 0.445984 0.564505
1001 4 0.463817 0.457324 0.571052
1083 4 0.0423385 0.0720892 0.620685
823 2 0.13099 0.992942 0.650087
825 4 0.114792 0.00847694 0.661109
951 4 0.252973 0.0217524 0.593942
949 2 0.267486 0.036145 0.608343
950 4 0.282 0.0505376 0.622744
2283 4 0.403965 0.0131582 0.66104
809 4 0.471846 0.0698516 0.611485
808 2 0.464151 0.0759953 0.634468
810 4 0.456456 0.082139 0.657451
1082 4 0.047966 0.0989877 0.662464
1081 2 0.0451522 0.0855384 0.641574
1154 4 0.16487 0.163083 0.596144
1283 4 0.182475 0.122515 0.641332
1282 2 0.181663 0.100894 0.653865
45 3 0.453072 0.103687 0.663642
3179 4 0.00132421 0.173946 0.645659
1271 4 0.131941 0.232056 0.579017
1210 2 0.243307 0.17727 0.642154
1212 4 0.232474 0.181202 0.619965
1219 2 0.201799 0.185194 0.602794
1220 4 0.22505 0.193832 0.605951
1211 4 0.254139 0.173337 0.664344
888 4 0.273413 0.173972 0.67073
1193 4 0.374181 0.199757 0.665272
1192 2 0.351606 0.189016 0.665678
1025 4 0.434616 0.219995 0.660247
905 4 0.499905 0.250632 0.598731
1244 4 0.0572228 0.26445 0.610939
1243 2 0.0498704 0.283326 0.596281
1245 4 0.042518 0.302201 0.581624
1209 4 0.108508 0.251261 0.657416
1136 4 0.138048 0.319459 0.606279
948 4 0.141688 0.270259 0.621776
946 2 0.164547 0.263308 0.614407
797 4 0.244041 0.256898 0.602799
796 2 0.220085 0.258116 0.595738
798 4 0.19613 0.259334 0.588678
947 4 0.187407 0.256357 0.607038
791 4 0.263154 0.254891 0.609738
792 4 0.297688 0.285775 0.590916
790 2 0.280421 0.270333 0.600327
1238 4 0.310057 0.29523 0.602377
1237 2 0.313271 0.319205 0.596048
805 2 0.327851 0.295031 0.646114
1064 4 0.268304 0.299662 0.661236
807 4 0.304713 0.285555 0.646261
806 4 0.350989 0.304507 0.645966
953 4 0.459482 0.284599 0.600997
904 2 0.48772 0.272318 0.596197
906 4 0.475535 0.294004 0.593663
952 2 0.438523 0.297882 0.59792
3263 4 0.0105133 0.345284 0.618626
1039 2 0.0640244 0.399308 0.619751
1041 4 0.0396582 0.40031 0.614232
3264 4 0.0206934 0.394113 0.615042
3262 2 0.0156034 0.369698 0.616834
3240 4 0.00945312 0.408155 0.621627
1040 4 0.0883906 0.398306 0.625271
993 4 0.0995839 0.414695 0.623269
1137 4 0.137866 0.368787 0.614493
897 4 0.148437 0.372111 0.598815
1135 2 0.137957 0.344123 0.610386
991 2 0.119333 0.400836 0.616705
992 4 0.139082 0.386978 0.61014
895 2 0.167974 0.385186 0.590299
1239 4 0.316485 0.34318 0.58972
1204 2 0.386888 0.399928 0.644922
1206 4 0.363752 0.400874 0.635486
1205 4 0.410023 0.398983 0.654358
1160 4 0.128588 0.449708 0.575314
1171 2 0.236918 0.439027 0.585636
1173 4 0.221365 0.455774 0.595776
1187 4 0.221751 0.475715 0.595711
1186 2 0.198396 0.484474 0.597442
1188 4 0.175041 0.493232 0.599173
889 2 0.29822 0.477446 0.620127
891 4 0.279682 0.471025 0.635628
890 4 0.316759 0.483867 0.604626
1952 4 0.33495 0.476471 0.603863
1230 4 0.367829 0.462479 0.653425
1269 4 0.481217 0.464578 0.63396
1267 2 0.481143 0.480682 0.653087
943 2 0.0569131 0.0571281 0.694476
945 4 0.0510932 0.0336963 0.700977
2991 4 0.00997594 0.0495429 0.721731
1147 2 0.215662 0.0553411 0.715918
1149 4 0.234482 0.040654 0.723351
1148 4 0.196841 0.0700282 0.708484
1004 4 0.376097 0.0589822 0.693169
1003 2 0.365299 0.0813603 0.695963
1163 4 0.463174 0.0594054 0.678838
1162 2 0.482812 0.0439301 0.678594
42 3 0.445362 0.0683447 0.672829
2320 2 0.484849 0.0239719 0.749686
2322 4 0.463001 0.0329051 0.757933
846 4 0.499661 0.0719298 0.745758
944 4 0.0627329 0.0805599 0.687975
1076 4 0.0488553 0.0929096 0.681711
862 2 0.0291016 0.127989 0.743157
864 4 0.0406219 0.137484 0.7231
1075 2 0.0475003 0.115017 0.693313
1077 4 0.0461453 0.137124 0.704916
1107 4 0.0545351 0.150977 0.714967
851 4 0.0467763 0.154386 0.697136
1105 2 0.072506 0.157893 0.730916
909 4 0.166348 0.169653 0.668246
1203 4 0.135363 0.0876703 0.750304
1284 4 0.18085 0.0792731 0.666397
908 4 0.184266 0.14282 0.706452
907 2 0.175307 0.156237 0.687349
1227 4 0.200479 0.137409 0.715149
1225 2 0.203003 0.112546 0.714377
1226 4 0.205528 0.0876818 0.713605
829 2 0.33828 0.14943 0.707296
830 4 0.333447 0.146727 0.682913
1005 4 0.354501 0.103738 0.698757
831 4 0.343114 0.152132 0.731679
43 3 0.42353 0.0960927 0.685716
41 1 0.445266 0.0901356 0.680198
44 3 0.458921 0.0917949 0.698885
3425 4 0.466243 0.106114 0.680837
3424 2 0.486964 0.12004 0.682219
852 4 0.063103 0.191457 0.667812
850 2 0.0549397 0.172921 0.682474
1177 2 0.032494 0.228441 0.704287
1178 4 0.0203119 0.214983 0.721482
1179 4 0.044676 0.241899 0.687092
1073 4 0.152384 0.236813 0.746166
1130 4 0.189692 0.174856 0.751658
886 2 0.297604 0.168718 0.674248
887 4 0.321794 0.163464 0.677767
1194 4 0.32903 0.178276 0.666085
976 2 0.283789 0.202695 0.732355
978 4 0.272849 0.186345 0.716923
977 4 0.29473 0.219045 0.747787
1262 4 0.424825 0.254872 0.714324
1142 4 0.448668 0.189013 0.710746
1024 2 0.434035 0.210639 0.683427
1141 2 0.44285 0.179148 0.732973
1026 4 0.433454 0.201284 0.706607
1261 2 0.445221 0.245156 0.725038
1263 4 0.465617 0.235439 0.735751
3123 4 0.488604 0.236748 0.688101
1207 2 0.107781 0.270083 0.673859
1208 4 0.107054 0.288905 0.690303
1072 2 0.134126 0.253894 0.746405
821 4 0.19149 0.316964 0.703793
820 2 0.182376 0.293904 0.700582
822 4 0.173261 0.270843 0.69737
1065 4 0.257923 0.304618 0.709902
1063 2 0.263113 0.30214 0.685569
892 2 0.0266667 0.365067 0.701839
893 4 0.00237281 0.359155 0.702035
894 4 0.0509605 0.370979 0.701643
1280 4 0.0517424 0.389191 0.71059
1279 2 0.0618121 0.41204 0.711901
3276 4 0.997188 0.377873 0.754979
940 2 0.134687 0.388282 0.749762
941 4 0.158559 0.382032 0.753794
942 4 0.110816 0.394532 0.74573
1067 4 0.168079 0.39383 0.739077
1029 4 0.252086 0.393573 0.674545
1028 4 0.207475 0.391573 0.697052
1066 2 0.187425 0.385723 0.725469
1068 4 0.206772 0.377616 0.711861
1027 2 0.22978 0.392573 0.685799
1140 4 0.270822 0.39358 0.671783
1138 2 0.282333 0.411473 0.684918
1019 4 0.341179 0.369046 0.744052
1981 2 0.0591692 0.458744 0.743481
1281 4 0.0718818 0.434888 0.713211
1983 4 0.0678637 0.4382 0.73219
1139 4 0.293844 0.429365 0.698053
1987 2 0.326031 0.456077 0.72428
1988 4 0.308749 0.450923 0.741599
1228 2 0.364525 0.457637 0.677732
1229 4 0.361221 0.452796 0.702039
1989 4 0.343313 0.461231 0.706961
1100 4 0.414838 0.442263 0.685737
1099 2 0.428603 0.452954 0.703665
1101 4 0.442368 0.463645 0.721592
1201 2 0.123965 0.0657817 0.754324
1202 4 0.112568 0.0438931 0.758345
2049 4 0.103849 0.0260514 0.759402
2047 2 0.114698 0.00952292 0.774709
817 2 0.343327 0.0629969 0.830477
1113 4 0.430555 0.0700007 0.815537
1112 4 0.442596 0.0702169 0.767001
844 2 0.478112 0.0787639 0.756441
1111 2 0.436576 0.0701088 0.791269
845 4 0.456563 0.0855979 0.767123
911 4 0.0829305 0.110585 0.815742
863 4 0.0175813 0.118494 0.763215
832 2 0.00962576 0.102632 0.794308
833 4 0.027162 0.107895 0.77728
34 3 0.132229 0.155725 0.81004
31 1 0.109044 0.156648 0.810257
35 3 0.100621 0.144474 0.792952
32 3 0.101438 0.147864 0.83011
1257 4 0.248024 0.0921177 0.797463
1256 4 0.296946 0.102364 0.795926
1255 2 0.272485 0.097241 0.796694
1086 4 0.32666 0.137875 0.791792
840 4 0.263443 0.117786 0.831941
1084 2 0.328863 0.119188 0.808257
1085 4 0.331066 0.100501 0.824723
819 4 0.328203 0.0821937 0.825193
1214 4 0.99965 0.197103 0.777268
1213 2 0.000811143 0.206096 0.753966
1106 4 0.0904769 0.16481 0.746866
33 3 0.101979 0.178688 0.808611
1129 2 0.187437 0.197441 0.762146