ITEM: TIMESTEP
2150000
ITEM: NUMBER OF ATOMS
4590
ITEM: BOX BOUNDS pp pp pp
-9.9985700000000008e+00 9.9985700000000008e+00
-9.9985700000000008e+00 9.9985700000000008e+00
-9.9985700000000008e+00 9.9985700000000008e+00
ITEM: ATOMS id type xs ys zs
1666 2 0.0267963 0.0704781 0.0662491
1668 4 0.0149263 0.04849 0.0653513
491 4 0.246758 0.0747523 0.0712268
2974 2 0.46986 0.027353 0.0119128
2976 4 0.471643 0.00869842 0.0284658
745 2 0.447991 0.0808232 0.0064757
1667 4 0.0386663 0.0924662 0.067147
701 4 0.0351784 0.105063 0.0817189
566 4 0.189046 0.158924 0.0433149
565 2 0.197293 0.15939 0.0197151
297 4 0.317429 0.0956183 0.022298
295 2 0.337817 0.10201 0.00930979
556 2 0.402741 0.110316 0.00243643
558 4 0.426208 0.110643 0.0110587
746 4 0.443433 0.102856 0.0173835
555 4 0.0336448 0.249787 0.000548384
770 4 0.400426 0.19399 0.00816357
359 4 0.390477 0.184022 0.0203475
358 2 0.368316 0.188377 0.00961844
664 2 0.399516 0.214966 0.0437501
665 4 0.405876 0.19932 0.0253125
666 4 0.393156 0.230611 0.0621876
623 4 0.386028 0.240467 0.077005
769 2 0.422823 0.184602 0.00221359
2807 4 0.00710594 0.282178 0.0694403
292 2 0.130625 0.274001 0.0345896
507 4 0.154217 0.289167 0.0607914
293 4 0.148119 0.289675 0.0431608
294 4 0.113132 0.258327 0.0260184
551 4 0.100826 0.310019 0.0799401
550 2 0.114363 0.326537 0.0669366
287 4 0.166258 0.289154 0.0426862
286 2 0.176465 0.301182 0.0232876
505 2 0.170381 0.28373 0.0790771
481 2 0.221527 0.265559 0.0758007
482 4 0.237001 0.251624 0.0619611
288 4 0.186673 0.31321 0.0038891
573 4 0.252387 0.255423 0.0489857
571 2 0.27312 0.263806 0.0378047
572 4 0.293854 0.27219 0.0266237
357 4 0.305213 0.267968 0.0101788
323 4 0.388823 0.250395 0.0609195
1069 2 0.401197 0.316683 0.0186077
1071 4 0.38243 0.333062 0.0164396
322 2 0.398539 0.269167 0.0475631
955 2 0.350332 0.332111 0.00634848
324 4 0.408256 0.287939 0.0342068
1070 4 0.419963 0.300303 0.0207759
671 4 0.45322 0.318779 0.0852918
280 2 0.44628 0.301628 0.0478657
281 4 0.45244 0.304736 0.0718985
282 4 0.440121 0.298519 0.0238329
455 4 0.146564 0.340179 0.0463263
552 4 0.127899 0.343055 0.0539331
454 2 0.161869 0.358722 0.0394643
456 4 0.177174 0.377265 0.0326022
1290 4 0.260045 0.399372 0.0184673
252 4 0.285152 0.400561 0.0771866
250 2 0.273894 0.406142 0.0555696
251 4 0.262636 0.411722 0.0339526
1288 2 0.273261 0.381834 0.00651215
741 4 0.372127 0.339309 0.0348569
739 2 0.372364 0.340507 0.0598307
957 4 0.368497 0.345067 0.0176319
493 2 0.391711 0.394543 0.0813585
495 4 0.392558 0.370377 0.087721
1788 4 0.0702765 0.491945 0.034399
626 4 0.218293 0.482313 0.0739055
625 2 0.199006 0.497697 0.0698366
245 4 0.234731 0.486907 0.0630025
244 2 0.246606 0.468343 0.0511916
246 4 0.258482 0.449778 0.0393807
272 4 0.257663 0.430048 0.0319981
271 2 0.26609 0.435845 0.00918221
494 4 0.390865 0.418708 0.0749961
1672 2 0.405731 0.44386 0.0627305
853 2 0.400422 0.441016 0.00528283
1674 4 0.413638 0.453754 0.0411717
854 4 0.417754 0.449059 0.02141
563 4 0.480029 0.45626 0.0346238
562 2 0.455044 0.456553 0.0336996
564 4 0.430059 0.456846 0.0327754
228 4 0.495936 0.462505 0.045143
18 3 0.0626964 0.0106247 0.164131
19 3 0.0647125 0.0482413 0.159097
1474 2 0.284242 0.00620422 0.0876378
1475 4 0.278609 0.0303526 0.0908484
492 4 0.27435 0.0465252 0.10193
490 2 0.260554 0.0606388 0.0865783
1506 4 0.255301 0.0076601 0.164603
486 4 0.411382 0.0225531 0.0867154
484 2 0.405723 0.0247313 0.110973
485 4 0.400064 0.0269094 0.13523
2722 2 0.480457 0.0634197 0.149567
2724 4 0.477416 0.0386078 0.150118
1759 2 0.489389 0.0084244 0.123963
1760 4 0.490023 0.0278844 0.13965
2744 4 0.491271 0.0295956 0.159894
700 2 0.0539947 0.119578 0.0894946
702 4 0.072811 0.134092 0.0972704
476 4 0.0862911 0.127701 0.111004
475 2 0.0975957 0.148256 0.119656
582 4 0.256817 0.107815 0.166576
580 2 0.273809 0.0989536 0.150517
581 4 0.290802 0.0900921 0.134458
628 2 0.381568 0.143803 0.165377
630 4 0.370211 0.164175 0.156367
2723 4 0.483498 0.0882315 0.149016
339 4 0.0360664 0.249939 0.142962
2833 2 0.00536671 0.243792 0.088288
2625 4 0.00295193 0.208361 0.1086
2834 4 0.00557749 0.219321 0.0934151
477 4 0.1089 0.168812 0.128308
738 4 0.20071 0.211143 0.0940309
737 4 0.227253 0.169322 0.0871625
736 2 0.213981 0.190232 0.0905967
460 2 0.318687 0.237744 0.106463
461 4 0.297465 0.240726 0.0935825
354 4 0.280114 0.251173 0.101836
278 4 0.254754 0.244004 0.16337
254 4 0.358863 0.172972 0.142411
462 4 0.339909 0.234762 0.119343
255 4 0.348816 0.218725 0.124907
253 2 0.353839 0.195848 0.133659
765 4 0.351833 0.233877 0.13579
624 4 0.358671 0.234902 0.118494
622 2 0.372349 0.237685 0.0977494
763 2 0.341142 0.24599 0.154873
337 2 0.0504164 0.250649 0.163425
2835 4 0.00515594 0.268264 0.0831609
483 4 0.206053 0.279494 0.0896403
506 4 0.186544 0.278293 0.0973627
755 4 0.24068 0.253822 0.156798
537 4 0.177945 0.290289 0.111815
535 2 0.190716 0.294347 0.132924
754 2 0.241639 0.278163 0.162436
536 4 0.203486 0.298404 0.154034
352 2 0.269891 0.251698 0.124649
353 4 0.259669 0.252222 0.147461
387 4 0.31654 0.310994 0.109879
301 2 0.323994 0.299118 0.151233
284 4 0.270565 0.255606 0.163229
302 4 0.320082 0.303249 0.126885
385 2 0.338222 0.321923 0.103909
386 4 0.359904 0.332851 0.097939
12 3 0.405913 0.336897 0.121614
527 4 0.459196 0.301119 0.0905553
670 2 0.431295 0.32852 0.0923345
526 2 0.482952 0.304954 0.0973488
647 4 0.0735079 0.340779 0.161089
291 4 0.2145 0.380306 0.159711
289 2 0.227408 0.397423 0.146843
416 4 0.196717 0.38969 0.15839
290 4 0.240317 0.414539 0.133976
609 4 0.287333 0.398312 0.0965101
607 2 0.305115 0.415291 0.101063
15 3 0.369313 0.333427 0.115189
740 4 0.3726 0.341704 0.0848044
672 4 0.40937 0.33826 0.0993771
14 3 0.391183 0.350862 0.0899816
11 1 0.38737 0.347053 0.11255
13 3 0.383752 0.367196 0.123484
595 2 0.456351 0.416104 0.145095
102 3 0.493712 0.351312 0.118666
1791 4 0.0573514 0.497487 0.163317
1466 4 0.0519442 0.479467 0.153317
1465 2 0.0487985 0.462628 0.135104
1467 4 0.0456528 0.445788 0.116891
638 4 0.238238 0.478728 0.123293
767 4 0.242402 0.471735 0.141643
766 2 0.249258 0.447726 0.142979
637 2 0.221167 0.49647 0.127652
768 4 0.256113 0.423718 0.144316
608 4 0.322896 0.432269 0.105616
1560 4 0.313159 0.502023 0.104893
660 4 0.377944 0.428242 0.0848441
1673 4 0.397825 0.433966 0.0842893
659 4 0.340473 0.441277 0.115286
658 2 0.359209 0.434759 0.100065
1559 4 0.360553 0.489884 0.0945412
1558 2 0.336856 0.495954 0.0997171
524 4 0.367886 0.489417 0.112847
523 2 0.390118 0.478502 0.116281
525 4 0.41235 0.467587 0.119715
596 4 0.455686 0.426947 0.122576
16 1 0.063908 0.0311883 0.174811
17 3 0.0451293 0.0339343 0.18781
2480 4 0.0309246 0.0220707 0.195217
1422 4 0.0280045 0.00298788 0.192463
2479 2 0.0117755 0.0379671 0.19281
20 3 0.0823983 0.0319734 0.188083
380 4 0.00102082 0.0719143 0.185371
578 4 0.0842204 0.0480559 0.171128
577 2 0.102112 0.0654863 0.172252
579 4 0.120003 0.0829168 0.173375
674 4 0.166437 0.00185348 0.236509
689 4 0.175873 0.0119932 0.224204
652 2 0.290668 0.00981028 0.174891
653 4 0.31466 0.0120152 0.168207
25 3 0.32676 0.0441614 0.246212
654 4 0.266675 0.00760531 0.181575
758 4 0.358187 0.0580781 0.191169
759 4 0.341579 0.0590742 0.238327
757 2 0.349883 0.0585762 0.214748
311 4 0.36839 0.0614477 0.174346
333 4 0.500394 0.0790626 0.233207
379 2 0.00404061 0.0930695 0.198352
511 2 0.0432814 0.139165 0.20797
512 4 0.0223119 0.126144 0.21196
381 4 0.00706041 0.114225 0.211334
513 4 0.0642509 0.152185 0.203979
393 4 0.0650199 0.166748 0.215833
448 2 0.159407 0.0855293 0.181597
450 4 0.139015 0.0837726 0.167234
237 4 0.238167 0.115319 0.170121
449 4 0.179798 0.087286 0.195959
235 2 0.216882 0.104969 0.178185
236 4 0.195597 0.0946194 0.186249
693 4 0.244167 0.0822534 0.246191
28 3 0.326416 0.16052 0.228112
312 4 0.395194 0.103295 0.179918
629 4 0.392924 0.123431 0.174388
310 2 0.381792 0.0823715 0.177132
521 4 0.494332 0.134848 0.219703
332 4 0.490015 0.1277 0.238438
762 4 0.480135 0.141505 0.229815
760 2 0.457798 0.152374 0.232659
331 2 0.495204 0.103382 0.235823
761 4 0.435461 0.163244 0.235502
396 4 0.998953 0.238701 0.234042
394 2 0.0191113 0.247649 0.222264
391 2 0.0857632 0.17941 0.209953
392 4 0.106507 0.192071 0.204072
279 4 0.232957 0.202626 0.181074
277 2 0.243855 0.223315 0.172222
395 4 0.03927 0.256597 0.210485
338 4 0.0647664 0.25136 0.183889
363 4 0.0567752 0.255707 0.201743
361 2 0.0617908 0.279383 0.208026
749 4 0.0585855 0.318235 0.221409
648 4 0.0723071 0.319645 0.206395
362 4 0.0668065 0.303058 0.214308
748 2 0.0672944 0.333766 0.238963
646 2 0.0729075 0.330212 0.183742
370 2 0.108945 0.304214 0.218524
372 4 0.0851782 0.303609 0.21078
371 4 0.132711 0.304819 0.226268
734 4 0.13602 0.317541 0.23996
733 2 0.156289 0.305675 0.248535
756 4 0.242597 0.302504 0.168073
610 2 0.246496 0.31614 0.202061
344 4 0.227747 0.313933 0.230709
611 4 0.236092 0.329292 0.220607
343 2 0.21203 0.301085 0.245306
612 4 0.256901 0.302988 0.183515
283 2 0.292893 0.259195 0.173895
285 4 0.315221 0.262783 0.184561
307 2 0.336504 0.281495 0.205506
308 4 0.327244 0.277151 0.18269
303 4 0.327907 0.294986 0.17558
729 4 0.327949 0.313141 0.185179
764 4 0.330451 0.258103 0.173955
727 2 0.316027 0.333249 0.19405
309 4 0.345764 0.28584 0.228321
498 4 0.338466 0.280442 0.247902
417 4 0.153221 0.401061 0.180287
299 4 0.139575 0.336825 0.247262
415 2 0.174969 0.395376 0.169339
728 4 0.304105 0.353357 0.202922
446 4 0.377182 0.386635 0.243117
445 2 0.401211 0.384944 0.236414
645 4 0.463029 0.40754 0.18607
447 4 0.42524 0.383253 0.229711
644 4 0.443318 0.380052 0.222902
643 2 0.453173 0.393796 0.204486
597 4 0.457017 0.40526 0.167615
1757 4 0.0294687 0.432547 0.245171
1756 2 0.044414 0.452275 0.248727
414 4 0.19946 0.45368 0.224555
412 2 0.212954 0.464319 0.242718
229 2 0.447353 0.472032 0.220171
231 4 0.459204 0.45086 0.21413
230 4 0.435503 0.493204 0.226212
427 2 0.068481 0.00536632 0.322714
2755 2 0.0015626 0.0619702 0.323101
234 4 0.0168072 0.0430382 0.297787
232 2 0.0401888 0.041573 0.28905
233 4 0.0635703 0.0401079 0.280313
1404 4 0.0736743 0.0239557 0.282544
317 4 0.0756436 0.0362994 0.296706
428 4 0.07182 0.0170177 0.300845
2756 4 0.998418 0.0493291 0.301759
2478 4 0.0060194 0.0529757 0.28441
316 2 0.0928248 0.0528508 0.304191
1402 2 0.0887606 0.00794911 0.270654
318 4 0.110006 0.0694022 0.311677
730 2 0.14219 0.0734497 0.322952
731 4 0.162744 0.0624782 0.332025
24 3 0.309658 0.0741213 0.261297
21 1 0.32899 0.0612917 0.261052
22 3 0.346654 0.0745808 0.254684
23 3 0.333191 0.0528896 0.282269
349 2 0.390139 0.0719951 0.256765
351 4 0.414103 0.065194 0.254612
350 4 0.366174 0.0787962 0.258918
480 4 0.422897 0.0471762 0.250278
479 4 0.448554 0.0297962 0.289525
478 2 0.435726 0.0384862 0.269902
2664 4 0.467116 0.0207142 0.29169
1428 4 0.449671 0.0139375 0.295787
258 4 0.443634 0.0258371 0.309424
2662 2 0.489105 0.0325795 0.29264
256 2 0.436755 0.0408628 0.328188
397 2 0.0856991 0.104326 0.32269
399 4 0.103243 0.0883052 0.314897
732 4 0.121635 0.0844212 0.31388
26 1 0.321468 0.161267 0.25077
691 2 0.258656 0.0856861 0.266278
721 2 0.260142 0.118663 0.311231
692 4 0.273145 0.0891189 0.286364
30 3 0.301949 0.150258 0.254828
723 4 0.269368 0.108786 0.290195
29 3 0.338687 0.151611 0.262961
632 4 0.37269 0.0995786 0.257939
631 2 0.365355 0.12311 0.26214
707 4 0.352707 0.158982 0.274486
633 4 0.35802 0.146642 0.26634
442 2 0.00767631 0.235134 0.274265
444 4 0.0129032 0.223588 0.295818
546 4 0.138212 0.189091 0.306193
544 2 0.154646 0.197364 0.289262
545 4 0.17108 0.205637 0.272331
402 4 0.180435 0.22284 0.271973
400 2 0.187925 0.246654 0.270571
27 3 0.31924 0.183249 0.257174
706 2 0.353978 0.174201 0.294283
708 4 0.355249 0.18942 0.314081
401 4 0.195416 0.270468 0.26917
676 2 0.185875 0.296017 0.295802
345 4 0.196313 0.288237 0.259903
677 4 0.185102 0.286554 0.272671
735 4 0.176559 0.293809 0.257109
678 4 0.186647 0.305481 0.318932
510 4 0.196894 0.3287 0.305874
375 4 0.173506 0.298626 0.332686
378 4 0.256943 0.253102 0.319693
376 2 0.278587 0.263255 0.31237
496 2 0.325585 0.278846 0.269273
497 4 0.312704 0.27725 0.290644
377 4 0.300231 0.273407 0.305046
418 2 0.389585 0.261728 0.328346
541 2 0.37321 0.300177 0.291793
542 4 0.389685 0.282637 0.298581
420 4 0.380481 0.267019 0.305668
543 4 0.356734 0.317718 0.285006
365 4 0.0108731 0.394464 0.301963
601 2 0.0486806 0.406829 0.322676
603 4 0.027335 0.398186 0.312938
750 4 0.0760033 0.349296 0.256517
298 2 0.117174 0.345981 0.25355
300 4 0.0947728 0.355137 0.259839
508 2 0.210344 0.343515 0.320867
433 2 0.311633 0.39 0.326571
435 4 0.29021 0.396723 0.315568
615 4 0.356897 0.33163 0.298087
614 4 0.340052 0.369286 0.326354
613 2 0.348475 0.350458 0.31222
264 4 0.0133075 0.424977 0.253921
776 4 0.0737202 0.484414 0.316818
775 2 0.070781 0.491533 0.293031
1758 4 0.0593593 0.472002 0.252283
1775 4 0.0711077 0.487324 0.253759
777 4 0.0678417 0.498653 0.269243
500 4 0.0869178 0.490031 0.331443
1436 4 0.244986 0.473802 0.26634
413 4 0.226447 0.474958 0.260881
1435 2 0.251046 0.456261 0.283095
1437 4 0.257106 0.438719 0.29985
4 3 0.264666 0.452064 0.31411
436 2 0.329031 0.46547 0.323858
3 3 0.290408 0.478508 0.32319
438 4 0.304591 0.461175 0.326927
1 1 0.278772 0.459921 0.330774
1803 4 0.371355 0.496641 0.265489
1801 2 0.369437 0.490034 0.289527
437 4 0.353471 0.469765 0.32079
1802 4 0.367518 0.483427 0.313565
119 3 0.493724 0.464161 0.311294
712 2 0.457753 0.476661 0.331492
714 4 0.479151 0.464027 0.328723
2757 4 0.0047074 0.0746113 0.344443
1781 4 0.114225 0.0136108 0.418328
606 4 0.170849 0.0472233 0.344296
604 2 0.183853 0.0643506 0.357053
605 4 0.196858 0.081478 0.369809
441 4 0.324936 0.0100836 0.40313
1701 4 0.330953 0.0211399 0.38874
425 4 0.338085 0.0175945 0.408056
699 4 0.361806 0.0559021 0.346038
698 4 0.41127 0.06322 0.345344
1699 2 0.344762 0.0288103 0.369358
1700 4 0.35857 0.0364807 0.349976
697 2 0.386538 0.059561 0.345691
725 4 0.4021 0.0699158 0.385582
724 2 0.40555 0.0819271 0.407238
257 4 0.429877 0.0558884 0.346952
398 4 0.0681556 0.120347 0.330483
2585 4 0.0111247 0.0947911 0.338906
2584 2 0.0317256 0.108871 0.340496
2586 4 0.0523264 0.122952 0.342085
458 4 0.0438164 0.128716 0.358821
457 2 0.0396409 0.141846 0.379687
459 4 0.0354655 0.154975 0.400552
600 4 0.116639 0.136089 0.368611
598 2 0.11979 0.160892 0.368766
248 4 0.214338 0.0888908 0.362407
249 4 0.250645 0.121222 0.350691
247 2 0.232491 0.105056 0.356549
404 4 0.245578 0.137289 0.348468
403 2 0.236728 0.160031 0.343023
722 4 0.250916 0.128539 0.332267
683 4 0.253825 0.13585 0.365539
682 2 0.278167 0.135042 0.371198
684 4 0.302508 0.134234 0.376856
320 4 0.313941 0.144007 0.389998
319 2 0.33695 0.135189 0.385755
321 4 0.359959 0.126372 0.381512
261 4 0.0681971 0.204367 0.415311
260 4 0.0294536 0.17433 0.405443
259 2 0.0488253 0.189349 0.410377
599 4 0.122942 0.185696 0.368921
389 4 0.121515 0.219821 0.369877
686 4 0.120775 0.203065 0.37939
685 2 0.104005 0.204685 0.397864
275 4 0.133367 0.201212 0.368524
274 2 0.155067 0.200679 0.356114
388 2 0.123665 0.24425 0.365001
687 4 0.0872341 0.206304 0.416339
474 4 0.188281 0.216895 0.347508
472 2 0.211765 0.208342 0.346758
473 4 0.235248 0.199789 0.346008
276 4 0.176767 0.200146 0.343704
405 4 0.227878 0.182773 0.337578
715 2 0.402992 0.175331 0.363382
716 4 0.382228 0.175874 0.377301
467 4 0.392668 0.182362 0.393852
269 4 0.413299 0.242943 0.352346
717 4 0.423756 0.174788 0.349464
270 4 0.444644 0.205778 0.364047
452 4 0.453173 0.196422 0.379269
268 2 0.428972 0.22436 0.358196
451 2 0.462137 0.201329 0.402089
346 2 0.0467977 0.322586 0.383238
348 4 0.0255174 0.313899 0.393081
618 4 0.0851713 0.321299 0.370539
616 2 0.102074 0.302959 0.368774
390 4 0.125814 0.26868 0.360124
617 4 0.118978 0.284619 0.367009
374 4 0.137944 0.284743 0.364987
373 2 0.155725 0.291685 0.348836
419 4 0.398688 0.256436 0.351025
602 4 0.0700261 0.415472 0.332415
347 4 0.0680779 0.331273 0.373396
549 4 0.088547 0.407739 0.338446
509 4 0.223793 0.358331 0.335861
668 4 0.310304 0.393117 0.415834
336 4 0.313421 0.375279 0.40747
434 4 0.333056 0.383278 0.337573
334 2 0.333385 0.360903 0.41194
238 2 0.388652 0.369825 0.411252
239 4 0.406194 0.384715 0.401467
587 4 0.40348 0.405464 0.399388
752 4 0.477124 0.391828 0.370072
561 4 0.468849 0.394354 0.388514
751 2 0.484388 0.411459 0.356396
559 2 0.479999 0.3937 0.410884
548 4 0.0865925 0.440002 0.376603
407 4 0.0779512 0.456658 0.387368
499 2 0.0873758 0.480193 0.354426
501 4 0.0878338 0.470356 0.377408
547 2 0.0875697 0.423871 0.357525
406 2 0.095308 0.460528 0.404945
1544 4 0.220445 0.496023 0.404957
5 3 0.266664 0.465352 0.349282
2 3 0.293845 0.4434 0.336159
586 2 0.403362 0.429481 0.392434
593 4 0.406447 0.47139 0.393205
588 4 0.403243 0.453498 0.385481
592 2 0.417761 0.480793 0.372987
713 4 0.436354 0.489294 0.334262
753 4 0.491652 0.43109 0.34272
117 3 0.490268 0.453592 0.347197
594 4 0.429075 0.490195 0.352769
720 4 0.00266964 0.013589 0.457511
367 2 0.0801413 0.0237473 0.435052
369 4 0.0660132 0.0390333 0.448906
719 4 0.0478454 0.0328654 0.448114
718 2 0.0252575 0.0232272 0.452812
368 4 0.0942693 0.00846142 0.421199
2430 4 0.176834 0.00973587 0.49114
341 4 0.185616 0.0285599 0.491442
962 4 0.320787 0.0207389 0.417207
961 2 0.307004 0.0371324 0.430109
963 4 0.293221 0.0535259 0.443011
432 4 0.308511 0.0583658 0.453697
430 2 0.318059 0.0686027 0.474415
431 4 0.327607 0.0788396 0.495133
424 2 0.359393 0.0139205 0.420611
426 4 0.380702 0.0102465 0.433166
843 4 0.343112 0.0695 0.503079
726 4 0.409 0.0939384 0.428895
640 2 0.488841 0.103432 0.446166
641 4 0.470242 0.102826 0.462866
1035 4 0.0750607 0.211732 0.431434
1033 2 0.075118 0.223896 0.453279
1034 4 0.0751754 0.23606 0.475125
696 4 0.0892692 0.236368 0.488072
487 2 0.330462 0.248651 0.453967
488 4 0.313836 0.250591 0.435393
466 2 0.396275 0.190232 0.417309
468 4 0.399883 0.198102 0.440766
411 4 0.358116 0.235276 0.462669
409 2 0.376934 0.218968 0.460413
410 4 0.395753 0.20266 0.458158
266 4 0.364377 0.239801 0.480342
489 4 0.347088 0.246712 0.472541
574 2 0.413056 0.189401 0.49362
575 4 0.406143 0.203554 0.474202
516 4 0.411101 0.209035 0.455412
514 2 0.435195 0.208558 0.448746
515 4 0.459289 0.208082 0.442079
453 4 0.471102 0.206237 0.424908
1260 4 0.0851471 0.252428 0.475337
1258 2 0.0997799 0.272477 0.472322
1259 4 0.114413 0.292526 0.469308
9 3 0.133313 0.288368 0.45629
7 3 0.120682 0.30733 0.486183
6 1 0.134686 0.308375 0.467963
8 3 0.156412 0.311741 0.475384
327 4 0.110933 0.31582 0.470368
325 2 0.0877023 0.324851 0.472361
10 3 0.128288 0.325643 0.454565
1009 2 0.471224 0.308383 0.496297
1011 4 0.47015 0.332796 0.491002
326 4 0.0644719 0.333882 0.474353
709 2 0.153552 0.409336 0.48523
711 4 0.130789 0.410297 0.474928
503 4 0.220909 0.367614 0.491806
502 2 0.198184 0.378043 0.491723
710 4 0.176314 0.408374 0.495531
504 4 0.17546 0.388473 0.491641
667 2 0.320562 0.413787 0.425463
335 4 0.353348 0.346527 0.416409
240 4 0.371109 0.354935 0.421036
560 4 0.49115 0.393045 0.433254
3309 4 0.481158 0.374595 0.437557
3307 2 0.474649 0.36131 0.457715
3308 4 0.468139 0.348026 0.477873
1381 2 0.0273915 0.484613 0.452733
1383 4 0.0239072 0.467019 0.435312
680 4 0.017207 0.447691 0.429608
384 4 0.117232 0.421452 0.464524
382 2 0.114352 0.444118 0.454369
408 4 0.112665 0.464398 0.422522
568 2 0.144966 0.485469 0.432554
383 4 0.111473 0.466784 0.444213
569 4 0.126691 0.468461 0.433948
1556 4 0.233109 0.489608 0.419521
1543 2 0.200899 0.50156 0.419534
636 4 0.295759 0.48737 0.417403
669 4 0.330819 0.434457 0.435092
1555 2 0.257353 0.492344 0.424989
634 2 0.310566 0.469837 0.427328
635 4 0.325374 0.452304 0.437252
1557 4 0.281598 0.495081 0.430457
774 4 0.338189 0.441839 0.450642
773 4 0.382898 0.434934 0.471952
772 2 0.360544 0.438386 0.461297
663 4 0.481465 0.485311 0.426844
1152 4 0.199222 0.065087 0.531101
342 4 0.205771 0.046713 0.533454
340 2 0.195694 0.0376365 0.512448
949 2 0.279411 0.0344673 0.557276
951 4 0.281367 0.0576223 0.566506
1031 4 0.286607 0.0759307 0.56255
950 4 0.277454 0.0113122 0.548046
1217 4 0.400086 0.0675419 0.503423
842 4 0.389527 0.0593984 0.518709
841 2 0.366319 0.0644492 0.510894
1216 2 0.423798 0.0605956 0.507248
1218 4 0.447511 0.0536494 0.511073
3007 2 0.496082 0.0648107 0.582769
1270 2 0.0614561 0.144395 0.577895
1271 4 0.0772656 0.126869 0.569645
1058 4 0.0840669 0.122231 0.509421
1057 2 0.0853615 0.118268 0.534075
1059 4 0.0866561 0.114306 0.558728
1155 4 0.0959286 0.129273 0.566074
939 4 0.0931642 0.11653 0.577142
1153 2 0.116617 0.138123 0.576976
1221 4 0.154173 0.14029 0.580276
1150 2 0.213011 0.0842175 0.539412
1151 4 0.226799 0.103348 0.547723
1180 2 0.218585 0.139033 0.558773
1181 4 0.21174 0.115591 0.553408
1182 4 0.22543 0.162476 0.564138
1032 4 0.245462 0.103274 0.554795
900 4 0.222077 0.166116 0.54454
1030 2 0.266035 0.0896023 0.558672
1198 2 0.00550054 0.233443 0.55933
1199 4 0.0278599 0.232985 0.570511
878 4 0.0460723 0.224589 0.573439
877 2 0.0511834 0.20107 0.580215
695 4 0.092963 0.210833 0.53091
694 2 0.0911161 0.2236 0.509491
898 2 0.232567 0.185122 0.532133
899 4 0.243056 0.204128 0.519727
650 4 0.254747 0.21578 0.531556
649 2 0.269484 0.230855 0.518112
651 4 0.284222 0.245929 0.504668
576 4 0.41997 0.175247 0.513038
982 2 0.0161526 0.30278 0.571912
1245 4 0.0562915 0.28654 0.581709
983 4 0.0388348 0.299231 0.581816
948 4 0.153411 0.289793 0.571108
856 2 0.205229 0.273276 0.515757
857 4 0.192676 0.290801 0.528425
798 4 0.20955 0.294661 0.562716
947 4 0.197809 0.291676 0.548172
946 2 0.17561 0.290734 0.55964
796 2 0.229653 0.289186 0.576539
858 4 0.217782 0.255751 0.503089
267 4 0.355426 0.265149 0.522509
265 2 0.359902 0.252475 0.501426
2457 4 0.492489 0.279807 0.502364
1010 4 0.472299 0.28397 0.501592
803 4 0.2657 0.3673 0.570872
804 4 0.289767 0.373975 0.527548
802 2 0.277733 0.370637 0.54921
928 2 0.334896 0.393475 0.564063
929 4 0.34675 0.39291 0.542055
881 4 0.353377 0.376799 0.532605
880 2 0.370238 0.358557 0.535453
882 4 0.387099 0.340315 0.538301
926 4 0.42737 0.403833 0.578767
539 4 0.0896555 0.441775 0.54486
540 4 0.102257 0.475689 0.579382
2244 4 0.0980175 0.493333 0.57379
538 2 0.0959561 0.458732 0.562121
1160 4 0.115993 0.491359 0.579108
2154 4 0.238065 0.489441 0.541403
2152 2 0.251088 0.498813 0.56058
1953 4 0.404029 0.481358 0.549024
1951 2 0.384322 0.491456 0.560637
1909 2 0.437135 0.479658 0.572769
1910 4 0.42107 0.489128 0.556112
1911 4 0.4532 0.470189 0.589425
1081 2 0.0781942 0.0710391 0.637307
938 4 0.0792902 0.0725548 0.596492
1083 4 0.0708784 0.075821 0.61388
1128 4 0.0108355 0.0744728 0.597296
1126 2 0.0332868 0.0818254 0.605485
1082 4 0.0855099 0.0662571 0.660733
825 4 0.168867 0.0412611 0.670962
3008 4 0.488657 0.0506001 0.601955
809 4 0.481653 0.039143 0.615079
808 2 0.472828 0.0552769 0.63202
810 4 0.464004 0.0714109 0.648961
1272 4 0.0456466 0.161921 0.586145
1127 4 0.0557381 0.089178 0.613674
937 2 0.0862272 0.0945424 0.586817
1154 4 0.137306 0.146973 0.587877
1219 2 0.170896 0.150006 0.596123
1220 4 0.187619 0.159722 0.61197
1192 2 0.31996 0.138299 0.646075
1194 4 0.303662 0.1434 0.664338
1193 4 0.336259 0.133198 0.627813
45 3 0.464902 0.0963751 0.647226
3424 2 0.496926 0.118355 0.662011
3425 4 0.475862 0.105427 0.665798
41 1 0.454895 0.0896787 0.666557
43 3 0.433305 0.0981116 0.667628
1244 4 0.0520506 0.237131 0.588151
879 4 0.0562945 0.177552 0.586992
1212 4 0.200207 0.163612 0.627111
1210 2 0.22085 0.174878 0.635605
1211 4 0.241493 0.186144 0.644099
888 4 0.249657 0.174211 0.657408
1243 2 0.0541711 0.261836 0.58493
1136 4 0.14726 0.295971 0.589887
1135 2 0.149282 0.318824 0.599829
822 4 0.153924 0.319041 0.643327
820 2 0.15249 0.296068 0.653093
821 4 0.151057 0.273096 0.662859
797 4 0.249756 0.283711 0.590362
791 4 0.267394 0.27716 0.598721
790 2 0.283358 0.296211 0.601442
792 4 0.299323 0.315262 0.604162
872 4 0.332713 0.298034 0.590462
1238 4 0.308611 0.333163 0.612556
871 2 0.356784 0.296726 0.5971
813 4 0.387859 0.31116 0.591489
873 4 0.380855 0.295418 0.603737
811 2 0.397103 0.334252 0.59404
3123 4 0.477919 0.268976 0.648433
953 4 0.492323 0.304608 0.59835
952 2 0.498043 0.280575 0.594494
1041 4 0.0501256 0.371758 0.635832
3264 4 0.0414333 0.36476 0.653615
3240 4 0.0338829 0.378221 0.643457
3238 2 0.012529 0.391136 0.645005
1039 2 0.0700293 0.380979 0.623832
1064 4 0.157113 0.335034 0.655202
1137 4 0.151303 0.341677 0.609771
1040 4 0.089933 0.3902 0.611832
993 4 0.109746 0.389722 0.605268
991 2 0.12771 0.373573 0.611723
992 4 0.145674 0.357423 0.618178
897 4 0.163941 0.356941 0.614156
1189 2 0.241911 0.372194 0.595562
896 4 0.212412 0.368679 0.610486
895 2 0.188176 0.36281 0.612321
1172 4 0.223857 0.398019 0.615066
1191 4 0.221006 0.384488 0.601646
1190 4 0.262816 0.3599 0.589479
1239 4 0.316749 0.380789 0.59966
1237 2 0.31268 0.356976 0.606108
930 4 0.323042 0.394041 0.586071
806 4 0.254191 0.341694 0.670276
1204 2 0.36885 0.393288 0.627196
1205 4 0.351408 0.399448 0.644019
1206 4 0.386293 0.387128 0.610374
927 4 0.39659 0.372978 0.603288
812 4 0.406346 0.357343 0.596592
925 2 0.41198 0.388405 0.591028
1002 4 0.437832 0.409549 0.594711
1159 2 0.135926 0.485712 0.593107
1161 4 0.155859 0.480066 0.607107
1188 4 0.163303 0.484241 0.625298
1171 2 0.213143 0.420222 0.619236
1186 2 0.185401 0.47293 0.62231
1173 4 0.20243 0.442426 0.623406
1187 4 0.207498 0.461619 0.619323
1140 4 0.245245 0.434206 0.666868
890 4 0.355777 0.493166 0.587668
1001 4 0.461799 0.453115 0.589397
1000 2 0.449816 0.431332 0.592054
1269 4 0.450783 0.459693 0.605261
1267 2 0.456807 0.47662 0.62265
1268 4 0.46283 0.493547 0.640038
943 2 0.0614036 0.0195946 0.684477
944 4 0.0707197 0.0427044 0.682396
1076 4 0.0752705 0.0624115 0.679716
1075 2 0.0742318 0.0782935 0.699
1282 2 0.173596 0.0830453 0.685733
1149 4 0.224158 0.0384918 0.682748
1283 4 0.17585 0.0605066 0.675145
823 2 0.178177 0.0181002 0.672401
1147 2 0.234945 0.0610303 0.681837
1092 4 0.312451 0.00809361 0.676332
42 3 0.453936 0.0667003 0.667026
4579 2 0.494758 0.00020182 0.727959
1163 4 0.465364 0.0744953 0.684116
1162 2 0.481152 0.0622869 0.699178
1164 4 0.49694 0.0500785 0.71424
2321 4 0.498436 0.0433007 0.731648
4581 4 0.498311 0.024118 0.734329
864 4 0.0700646 0.0903787 0.737308
1077 4 0.0731931 0.0941755 0.718284
851 4 0.0748041 0.112734 0.716318
850 2 0.0635362 0.135054 0.716494
852 4 0.0522683 0.157374 0.71667
862 2 0.04871 0.0864415 0.749703
1107 4 0.0846172 0.101981 0.731533
1105 2 0.101613 0.101819 0.749871
1284 4 0.171342 0.105584 0.69632
909 4 0.16888 0.125785 0.692264
907 2 0.19001 0.139142 0.691726
908 4 0.21114 0.152499 0.691188
1227 4 0.225852 0.13927 0.69557
1225 2 0.2399 0.120461 0.686965
1148 4 0.245732 0.0835689 0.680926
886 2 0.270894 0.164243 0.666056
887 4 0.292132 0.154275 0.674703
1226 4 0.253948 0.101652 0.67836
829 2 0.30303 0.123646 0.701562
1005 4 0.329675 0.111662 0.72419
830 4 0.295172 0.137258 0.682116
831 4 0.310889 0.110033 0.721007
1003 2 0.338612 0.0925106 0.73755
44 3 0.467192 0.097047 0.684802
1113 4 0.458751 0.108679 0.727997
1146 4 0.495888 0.158183 0.740129
1111 2 0.455404 0.0893995 0.743563
1073 4 0.0758744 0.25351 0.738605
1072 2 0.100287 0.251078 0.733779
1130 4 0.139486 0.245013 0.736816
1208 4 0.138519 0.244797 0.716616
978 4 0.32805 0.207847 0.716172
976 2 0.307706 0.214006 0.72934
977 4 0.287363 0.220165 0.742508
1025 4 0.410858 0.177417 0.683942
1024 2 0.430258 0.180964 0.699311
1142 4 0.440218 0.186891 0.733283
1144 2 0.476753 0.17332 0.734658
1262 4 0.46092 0.200434 0.713194
1026 4 0.449659 0.184512 0.71468
1261 2 0.463669 0.225023 0.709589
1145 4 0.457618 0.188456 0.729188
1177 2 0.0215815 0.252803 0.7158
1179 4 0.0454078 0.260262 0.714442
893 4 2.48119e-05 0.330924 0.716263
3263 4 0.045001 0.325663 0.68459
1074 4 0.124699 0.248646 0.728952
1209 4 0.162893 0.261829 0.67641
1207 2 0.150706 0.253313 0.696513
1019 4 0.37732 0.292873 0.723575
1018 2 0.36908 0.305691 0.703751
1020 4 0.36084 0.318509 0.683927
1263 4 0.466418 0.249612 0.705984
892 2 0.0231326 0.336734 0.723842
3262 2 0.0432171 0.345211 0.669102
1279 2 0.0531916 0.381582 0.736626
894 4 0.0462405 0.342544 0.731422
1280 4 0.0574874 0.357722 0.73051
816 4 0.0631588 0.340447 0.739624
1281 4 0.0488957 0.405442 0.742743
814 2 0.0872403 0.341398 0.746284
1063 2 0.174889 0.344613 0.669948
1065 4 0.192664 0.354192 0.684695
807 4 0.204403 0.343261 0.674688
1028 4 0.219761 0.392618 0.702281
1066 2 0.195737 0.375772 0.734438
1068 4 0.213063 0.381202 0.717248
1027 2 0.236965 0.407178 0.691456
805 2 0.229297 0.342477 0.672482
2172 4 0.166232 0.487282 0.673655
2016 4 0.151935 0.493791 0.728082
1176 4 0.162531 0.478388 0.720208
1175 4 0.211681 0.487223 0.717568
1174 2 0.187106 0.482806 0.718888
1029 4 0.254169 0.421739 0.68063
1138 2 0.262652 0.452033 0.668965
1139 4 0.280058 0.469859 0.671061
1987 2 0.272845 0.458268 0.722684
1229 4 0.291985 0.464249 0.684691
1989 4 0.284397 0.465959 0.701886
2028 4 0.285395 0.479754 0.687388
1228 2 0.315795 0.457856 0.680518
1988 4 0.261293 0.450577 0.743482
1230 4 0.339605 0.451464 0.676346
1099 2 0.443344 0.493412 0.672367
1100 4 0.439822 0.486283 0.696072
2989 2 0.0191024 0.0505745 0.78143
2990 4 0.0188207 0.0752256 0.777256
2991 4 0.019384 0.0259233 0.785603
2049 4 0.114345 0.0206453 0.772693
1202 4 0.11709 0.0388899 0.778456
1201 2 0.12588 0.0606235 0.787148
1203 4 0.134671 0.082357 0.79584
817 2 0.329772 0.057152 0.802865
819 4 0.323647 0.0789087 0.813557
1050 4 0.336365 0.0161979 0.765456
1004 4 0.347549 0.0733587 0.750911
973 2 0.360525 0.00672191 0.795281
818 4 0.335897 0.0353953 0.792174
974 4 0.348385 0.0236153 0.78141
2322 4 0.47913 0.0546351 0.776365
845 4 0.463106 0.0648066 0.774296
1112 4 0.452057 0.0701206 0.759129
844 2 0.466444 0.078139 0.795183
2320 2 0.488783 0.0489679 0.754007
863 4 0.0273554 0.0825043 0.762099
833 4 0.0214671 0.0946647 0.775248
832 2 0.0208193 0.10871 0.795924
834 4 0.0201716 0.122754 0.8166
3083 4 0.00758911 0.0854987 0.766163
1106 4 0.118608 0.101657 0.76821
911 4 0.138972 0.0981524 0.82748
34 3 0.126045 0.102958 0.786948
31 1 0.142816 0.106028 0.802686
35 3 0.135217 0.119144 0.819682
32 3 0.148958 0.0855209 0.811104
33 3 0.161309 0.115895 0.792733
1256 4 0.228875 0.112203 0.810799
840 4 0.222638 0.127534 0.820448
1255 2 0.247563 0.116251 0.794689
1085 4 0.317835 0.0956193 0.806494