ITEM: TIMESTEP
250000
ITEM: NUMBER OF ATOMS
4590
ITEM: BOX BOUNDS pp pp pp
-9.9985700000000008e+00 9.9985700000000008e+00
-9.9985700000000008e+00 9.9985700000000008e+00
-9.9985700000000008e+00 9.9985700000000008e+00
ITEM: ATOMS id type xs ys zs
463 2 0.0286519 0.0572075 0.0211753
465 4 0.0227634 0.0805927 0.0145697
464 4 0.0345404 0.0338222 0.0277809
1667 4 0.0608764 0.0216365 0.0643153
701 4 0.0873035 0.0720079 0.0544299
700 2 0.103415 0.0774657 0.0727546
534 4 0.201918 0.0583632 0.0165582
490 2 0.281628 0.0634789 0.0529473
491 4 0.288437 0.0581366 0.0764054
492 4 0.27482 0.0688212 0.0294891
296 4 0.380155 0.0420069 0.0540708
557 4 0.362602 0.0821646 0.0382158
295 2 0.364856 0.0440638 0.0737397
745 2 0.459037 0.0751176 0.0319977
747 4 0.458604 0.0696305 0.00760754
2975 4 0.466807 0.0516567 0.00171901
2974 2 0.482799 0.0325111 0.00341473
589 2 0.0219038 0.124039 0.0603979
590 4 0.0188983 0.146811 0.0505185
3233 4 0.00943272 0.135551 0.0110112
591 4 0.0249093 0.101268 0.0702774
422 4 0.122054 0.127911 0.0186116
421 2 0.102607 0.138193 0.00672533
565 2 0.206933 0.115174 0.0379404
566 4 0.183999 0.12261 0.0313127
567 4 0.229867 0.107739 0.0445681
358 2 0.285623 0.12745 0.0339286
359 4 0.300739 0.1162 0.017493
360 4 0.270507 0.138699 0.0503641
556 2 0.375633 0.100727 0.0487413
558 4 0.388665 0.11929 0.0592668
746 4 0.45947 0.0806048 0.0563879
553 2 0.0538492 0.217137 0.0232557
555 4 0.0700421 0.201013 0.0131077
554 4 0.0376563 0.233261 0.0334038
571 2 0.312537 0.245852 0.0454553
573 4 0.287866 0.249052 0.0479542
666 4 0.31486 0.205795 0.997864
461 4 0.315397 0.226894 0.0858311
572 4 0.337209 0.242652 0.0429563
324 4 0.399714 0.219895 0.0621401
322 2 0.415437 0.236339 0.0725119
771 4 0.431624 0.17191 0.0681526
770 4 0.479555 0.183743 0.060194
769 2 0.45559 0.177827 0.0641733
292 2 0.140058 0.314516 0.0188681
293 4 0.156058 0.295637 0.0224424
507 4 0.160286 0.284824 0.0388657
483 4 0.216987 0.29852 0.0635597
505 2 0.183316 0.277861 0.0456699
506 4 0.206347 0.270897 0.052474
481 2 0.239049 0.303238 0.0527805
357 4 0.269664 0.268305 0.00839196
482 4 0.261111 0.307955 0.0420014
957 4 0.330852 0.323295 0.0130592
1071 4 0.389453 0.265266 0.0446723
1069 2 0.40241 0.271752 0.0242946
956 4 0.380411 0.322944 0.00638319
1070 4 0.415366 0.278238 0.00391692
955 2 0.355632 0.32312 0.00972119
671 4 0.470238 0.317492 0.0603655
280 2 0.463373 0.318844 0.0209008
281 4 0.476016 0.324243 0.0417855
670 2 0.454761 0.324017 0.0788876
330 4 0.0237615 0.383777 0.0215144
621 4 0.030122 0.354383 0.0769885
328 2 0.0278239 0.405575 0.00995958
294 4 0.124058 0.333394 0.0152937
454 2 0.114812 0.395414 0.0818835
455 4 0.103776 0.403624 0.061003
552 4 0.0921423 0.416137 0.0521492
288 4 0.184523 0.399981 0.00947747
286 2 0.179845 0.378609 0.0215813
287 4 0.175167 0.357236 0.033685
252 4 0.288098 0.380926 0.0499493
250 2 0.281364 0.389175 0.0273267
251 4 0.274629 0.397424 0.0047041
550 2 0.0706139 0.427592 0.0466273
551 4 0.0490854 0.439047 0.0411055
241 2 0.164007 0.492794 0.0728144
242 4 0.163363 0.477433 0.053096
1786 2 0.103886 0.500513 0.0647378
245 4 0.232274 0.450345 0.0508251
244 2 0.25145 0.451541 0.0348243
246 4 0.270626 0.452738 0.0188236
272 4 0.287347 0.455244 0.00633203
271 2 0.297539 0.477568 0.0111204
524 4 0.307747 0.485556 0.0767144
227 4 0.484406 0.451792 0.0510419
562 2 0.444866 0.501712 0.0400695
564 4 0.431963 0.496923 0.0609446
1666 2 0.05552 0.0172607 0.0883432
1668 4 0.0501636 0.0128849 0.112371
19 3 0.0442449 0.042614 0.153815
20 3 0.0749845 0.0623156 0.163012
702 4 0.119527 0.0829235 0.0910793
450 4 0.148327 0.0788759 0.128206
1504 2 0.239603 0.00799861 0.159497
693 4 0.214202 0.0760937 0.154609
1506 4 0.257953 0.999501 0.144791
652 2 0.294492 0.0295227 0.150607
654 4 0.276197 0.0190673 0.164067
653 4 0.312786 0.0399781 0.137147
297 4 0.349556 0.0461208 0.0934087
758 4 0.410923 0.0710128 0.16583
448 2 0.166588 0.0850901 0.144115
237 4 0.182424 0.161681 0.156607
449 4 0.184849 0.0913044 0.160024
235 2 0.182899 0.136682 0.156435
236 4 0.183373 0.111684 0.156264
582 4 0.276626 0.102358 0.146758
580 2 0.278366 0.117839 0.166315
629 4 0.43967 0.158196 0.141386
476 4 0.122739 0.190046 0.107041
475 2 0.114079 0.182131 0.12912
477 4 0.105418 0.174216 0.1512
337 2 0.0843198 0.244816 0.147555
737 4 0.182505 0.201295 0.1083
736 2 0.20097 0.186423 0.100359
738 4 0.219434 0.171551 0.0924182
354 4 0.269094 0.219024 0.0896456
284 4 0.280092 0.221512 0.156228
352 2 0.270059 0.235361 0.10855
460 2 0.331612 0.208229 0.0895533
283 2 0.261064 0.207784 0.164868
255 4 0.360256 0.174593 0.0979866
462 4 0.347828 0.189563 0.0932755
254 4 0.405824 0.192451 0.108252
253 2 0.38304 0.183522 0.103119
630 4 0.422146 0.199212 0.118775
628 2 0.430908 0.178704 0.13008
518 4 0.486361 0.241351 0.0995271
339 4 0.0772114 0.255544 0.126118
537 4 0.168768 0.321207 0.137845
277 2 0.24618 0.261273 0.161038
353 4 0.271024 0.251697 0.127454
754 2 0.277793 0.294759 0.121881
755 4 0.276355 0.269818 0.120835
756 4 0.279231 0.319699 0.122927
278 4 0.264044 0.254195 0.14504
612 4 0.28131 0.326639 0.141822
741 4 0.344184 0.320032 0.0852086
622 2 0.38426 0.263739 0.138455
624 4 0.392474 0.260574 0.161858
623 4 0.376047 0.266903 0.115052
323 4 0.43116 0.252782 0.0828837
528 4 0.457715 0.250323 0.155143
672 4 0.439284 0.330543 0.0974096
526 2 0.481065 0.258742 0.15815
619 2 0.0261397 0.354494 0.101673
620 4 0.0221573 0.354604 0.126357
646 2 0.0793945 0.361454 0.165136
456 4 0.125848 0.387204 0.102764
648 4 0.0984573 0.376438 0.15903
535 2 0.190282 0.332195 0.144296
626 4 0.249115 0.40394 0.0957129
536 4 0.211795 0.343182 0.150748
609 4 0.305769 0.364475 0.0931053
607 2 0.321866 0.383373 0.0901123
610 2 0.266915 0.333694 0.16101
608 4 0.337963 0.40227 0.0871194
739 2 0.360003 0.335825 0.0964123
740 4 0.375822 0.351618 0.107616
387 4 0.347232 0.400838 0.131614
15 3 0.388922 0.361242 0.137568
385 2 0.359977 0.379491 0.128963
386 4 0.372723 0.358144 0.126312
11 1 0.410262 0.360449 0.145482
13 3 0.410929 0.368414 0.167266
14 3 0.424195 0.373164 0.131969
12 3 0.417603 0.338649 0.145308
495 4 0.442108 0.382022 0.133228
493 2 0.441985 0.40599 0.12611
595 2 0.487863 0.402242 0.161175
315 4 0.0191369 0.430454 0.088474
313 2 0.0136376 0.451322 0.101102
314 4 0.00813828 0.47219 0.11373
1787 4 0.114022 0.490847 0.08545
625 2 0.23984 0.427145 0.0949097
627 4 0.230564 0.450351 0.0941065
637 2 0.255833 0.496171 0.138465
523 2 0.325146 0.484487 0.0946395
638 4 0.271468 0.483448 0.153259
525 4 0.342545 0.483419 0.112565
658 2 0.379872 0.45617 0.154162
659 4 0.356188 0.452918 0.146838
660 4 0.403557 0.459422 0.161485
494 4 0.441861 0.429959 0.118991
2480 4 0.00166149 0.0443905 0.182657
16 1 0.0571628 0.0507903 0.17127
17 3 0.0442833 0.0649091 0.184074
18 3 0.0645417 0.0332545 0.184554
1422 4 0.00382377 0.0247337 0.176178
1420 2 0.011898 0.00309796 0.185764
673 2 0.120691 0.0501655 0.231372
674 4 0.131856 0.0707302 0.240182
675 4 0.109526 0.0296008 0.222563
1403 4 0.0932037 0.0402271 0.247169
1505 4 0.221254 0.0164962 0.174204
689 4 0.211967 0.0138111 0.219867
688 2 0.204511 0.0146024 0.24372
692 4 0.233565 0.0766655 0.200712
691 2 0.223883 0.0763796 0.177661
21 1 0.36518 0.0429172 0.228928
23 3 0.36559 0.0223594 0.239681
24 3 0.345633 0.0542405 0.234229
25 3 0.366562 0.039929 0.206394
759 4 0.383792 0.0482672 0.201147
22 3 0.383157 0.0553859 0.236034
757 2 0.397357 0.05964 0.183489
1760 4 0.495529 0.00415106 0.171573
742 2 0.460909 0.0576031 0.23453
744 4 0.459263 0.032813 0.237344
379 2 0.0111146 0.159563 0.168152
579 4 0.07484 0.0897386 0.221127
381 4 0.0291058 0.162588 0.18525
511 2 0.0420897 0.162041 0.230037
512 4 0.0346725 0.162118 0.206159
577 2 0.0949299 0.104026 0.225303
578 4 0.11502 0.118314 0.229478
723 4 0.18476 0.099274 0.226496
721 2 0.192932 0.102166 0.249949
581 4 0.280105 0.133319 0.185873
30 3 0.307727 0.126252 0.224303
26 1 0.308415 0.116868 0.245042
28 3 0.29917 0.0955951 0.244417
27 3 0.33031 0.115262 0.25191
312 4 0.40867 0.122973 0.178457
333 4 0.415498 0.138539 0.240669
743 4 0.462555 0.0823931 0.231716
310 2 0.432062 0.114533 0.175853
311 4 0.455454 0.106094 0.17325
331 2 0.436545 0.150653 0.246622
395 4 0.0243317 0.244652 0.201467
394 2 0.0198428 0.248079 0.225825
338 4 0.0914281 0.234087 0.168992
285 4 0.242036 0.194055 0.173508
764 4 0.361161 0.23159 0.176131
763 2 0.374817 0.214658 0.188459
765 4 0.388474 0.197726 0.200787
520 2 0.474199 0.224405 0.237647
521 4 0.45164 0.216859 0.229946
522 4 0.496758 0.231952 0.245348
363 4 0.0939714 0.252571 0.176825
748 2 0.091403 0.284023 0.248229
370 2 0.15689 0.254558 0.219325
361 2 0.104439 0.259297 0.198513
362 4 0.114907 0.266023 0.220201
372 4 0.133698 0.263531 0.216715
300 4 0.122914 0.317319 0.231195
749 4 0.106998 0.281195 0.228891
371 4 0.180082 0.245585 0.221934
279 4 0.228315 0.268351 0.177035
345 4 0.234144 0.300846 0.236862
343 2 0.253596 0.285359 0.234223
344 4 0.273048 0.269872 0.231584
307 2 0.31045 0.279855 0.223543
309 4 0.300431 0.297928 0.209466
308 4 0.32047 0.261783 0.237621
647 4 0.0603318 0.346471 0.171242
263 4 0.0453553 0.415513 0.208939
298 2 0.134713 0.33078 0.248652
417 4 0.147971 0.406262 0.180481
290 4 0.241548 0.409462 0.211957
611 4 0.25252 0.340748 0.180198
303 4 0.310678 0.376424 0.179998
301 2 0.32674 0.393706 0.188276
729 4 0.337613 0.388659 0.224542
302 4 0.342801 0.410989 0.196554
727 2 0.341599 0.386333 0.249116
597 4 0.468782 0.387622 0.168057
643 2 0.453917 0.374627 0.200046
644 4 0.455867 0.359076 0.219528
645 4 0.451968 0.390178 0.180564
447 4 0.462251 0.357012 0.238501
262 2 0.0329625 0.433242 0.22148
264 4 0.0205697 0.450971 0.234021
415 2 0.166315 0.419076 0.191638
416 4 0.184659 0.43189 0.202796
291 4 0.202461 0.439293 0.202842
289 2 0.222004 0.424378 0.2074
768 4 0.236438 0.465366 0.210832
766 2 0.250181 0.47168 0.190921
767 4 0.263924 0.477993 0.171009
1574 4 0.31593 0.48672 0.193272
229 2 0.400703 0.493413 0.237478
231 4 0.386433 0.481976 0.220427
232 2 0.023103 0.0557434 0.295968
233 4 0.0274924 0.0319764 0.302374
1402 2 0.0786867 0.0221582 0.256547
234 4 0.0187135 0.0795104 0.289561
1404 4 0.0641697 0.00408921 0.265925
690 4 0.197054 0.0153936 0.267572
248 4 0.230145 0.0756731 0.303987
1701 4 0.24682 0.0112049 0.324301
1699 2 0.262527 0.0257331 0.311362
1700 4 0.278234 0.0402614 0.298424
478 2 0.487152 0.0425721 0.325308
480 4 0.484657 0.0317963 0.302884
351 4 0.459299 0.0577116 0.291931
349 2 0.451553 0.081479 0.291387
513 4 0.049507 0.161963 0.253915
529 2 0.00150768 0.141573 0.270515
530 4 0.0154355 0.154777 0.286541
731 4 0.133692 0.0886786 0.304837
546 4 0.154452 0.167676 0.280225
730 2 0.127343 0.101032 0.325627
722 4 0.201103 0.105058 0.273402
249 4 0.199719 0.113488 0.291945
247 2 0.214932 0.0945805 0.297966
403 2 0.22118 0.149612 0.296809
404 4 0.213485 0.125838 0.297669
600 4 0.20193 0.146477 0.328302
29 3 0.296778 0.130123 0.260119
632 4 0.336611 0.119833 0.288523
631 2 0.359204 0.127629 0.295869
633 4 0.381797 0.135425 0.303214
332 4 0.457592 0.162767 0.252576
350 4 0.443808 0.105246 0.290843
392 4 0.108128 0.180327 0.278736
391 2 0.0966574 0.201424 0.271769
393 4 0.0851864 0.22252 0.264802
544 2 0.164985 0.185675 0.266432
545 4 0.175517 0.203675 0.252638
405 4 0.228875 0.173387 0.295948
706 2 0.317735 0.169759 0.31721
707 4 0.32262 0.184158 0.297361
420 4 0.413988 0.232484 0.295109
762 4 0.471473 0.172554 0.264103
418 2 0.422626 0.217915 0.313502
419 4 0.431263 0.203346 0.331896
761 4 0.489871 0.19096 0.306805
760 2 0.480672 0.181757 0.285454
750 4 0.0758076 0.286851 0.267567
396 4 0.0153539 0.251506 0.250182
444 4 0.00568498 0.258064 0.317413
443 4 0.0105403 0.258203 0.267643
442 2 0.00811262 0.258134 0.292528
400 2 0.189687 0.264982 0.296711
402 4 0.204417 0.271985 0.315663
401 4 0.174957 0.257979 0.27776
508 2 0.231961 0.33372 0.325504
496 2 0.306013 0.298516 0.293691
497 4 0.315972 0.297674 0.31661
498 4 0.296054 0.299357 0.270771
543 4 0.393263 0.301503 0.313601
615 4 0.390227 0.321538 0.320269
541 2 0.417248 0.306698 0.308811
542 4 0.441232 0.311893 0.304021
366 4 0.0131314 0.356991 0.269702
364 2 0.0284697 0.353166 0.289074
365 4 0.0438079 0.349341 0.308447
602 4 0.0740086 0.40155 0.298807
299 4 0.146511 0.344241 0.26611
601 2 0.0833661 0.378536 0.301638
603 4 0.0927236 0.355523 0.304469
734 4 0.145801 0.364397 0.267437
733 2 0.163831 0.364356 0.284761
676 2 0.17536 0.334136 0.329649
677 4 0.178271 0.344471 0.307068
735 4 0.18186 0.364315 0.302084
509 4 0.230825 0.356144 0.314502
433 2 0.305721 0.384236 0.334098
434 4 0.323235 0.392563 0.318316
613 2 0.372096 0.336787 0.328266
728 4 0.345585 0.384008 0.27369
445 2 0.470382 0.371419 0.257249
446 4 0.478514 0.385826 0.275998
1757 4 0.0682398 0.486458 0.263941
549 4 0.0505542 0.427839 0.313565
777 4 0.0882853 0.462275 0.282826
775 2 0.0915216 0.465147 0.307452
776 4 0.0947579 0.468018 0.332079
414 4 0.15049 0.488099 0.266772
412 2 0.16225 0.4774 0.28607
413 4 0.17401 0.466701 0.305368
436 2 0.286445 0.450766 0.283932
437 4 0.297065 0.451214 0.261301
438 4 0.275824 0.450318 0.306564
713 4 0.421344 0.477967 0.284523
712 2 0.441026 0.467464 0.295813
714 4 0.460709 0.456961 0.307103
316 2 0.0427097 0.0780801 0.353997
317 4 0.0433338 0.0601807 0.371444
428 4 0.0669136 0.0409454 0.350697
429 4 0.106464 0.0109942 0.344421
427 2 0.0866888 0.0259698 0.347559
606 4 0.160356 0.0522779 0.346145
604 2 0.184211 0.0538144 0.353476
605 4 0.208067 0.0553509 0.360807
440 4 0.30516 0.000792003 0.412908
683 4 0.29912 0.0684451 0.369365
682 2 0.285657 0.0842756 0.383269
699 4 0.331801 0.0271977 0.342508
257 4 0.395937 0.0506721 0.343832
698 4 0.380562 0.0382903 0.342694
697 2 0.356181 0.032744 0.342601
256 2 0.413919 0.0664964 0.351003
479 4 0.489646 0.0533479 0.347732
258 4 0.4319 0.0823207 0.358173
426 4 0.421811 0.0245448 0.41082
398 4 0.0704447 0.154352 0.344583
318 4 0.0420856 0.0959796 0.33655
732 4 0.120993 0.113386 0.346418
397 2 0.0872748 0.136311 0.340527
399 4 0.104105 0.11827 0.336471
598 2 0.188781 0.158899 0.345564
708 4 0.31285 0.155361 0.33706
684 4 0.272194 0.100106 0.397173
320 4 0.260229 0.102616 0.412958
451 2 0.484748 0.148583 0.386792
453 4 0.46053 0.152743 0.382168
514 2 0.431976 0.154463 0.413307
515 4 0.444378 0.158109 0.391904
2654 4 0.0170106 0.203731 0.347502
686 4 0.16609 0.171506 0.401116
599 4 0.175633 0.171321 0.362827
474 4 0.226118 0.213532 0.348816
274 2 0.200162 0.249162 0.391839
276 4 0.225083 0.247252 0.391134
275 4 0.175241 0.251072 0.392544
472 2 0.24558 0.199033 0.354832
473 4 0.265041 0.184534 0.360849
488 4 0.287836 0.20965 0.399329
487 2 0.280467 0.233482 0.401026
715 2 0.360677 0.220138 0.363384
716 4 0.349138 0.203742 0.378324
717 4 0.372217 0.236534 0.348445
618 4 0.0493482 0.321793 0.365254
347 4 0.0407837 0.313298 0.380689
346 2 0.0420409 0.296912 0.399533
348 4 0.043298 0.280527 0.418378
390 4 0.0904517 0.27114 0.33612
389 4 0.124082 0.249293 0.365994
388 2 0.107267 0.260217 0.351057
678 4 0.172448 0.323802 0.35223
375 4 0.174637 0.322874 0.381575
373 2 0.192915 0.310056 0.392836
510 4 0.233097 0.311295 0.336505
374 4 0.211193 0.297239 0.404097
376 2 0.289936 0.291545 0.356104
377 4 0.306975 0.27329 0.35483
378 4 0.272897 0.309799 0.357378
489 4 0.273097 0.257315 0.402723
268 2 0.48094 0.256793 0.401662
270 4 0.4569 0.250463 0.398985
616 2 0.0661737 0.338239 0.356792
407 4 0.0796208 0.408459 0.37165
617 4 0.0829993 0.354686 0.34833
502 2 0.247054 0.404241 0.41528
435 4 0.288207 0.375909 0.349881
503 4 0.255447 0.411439 0.392854
614 4 0.353966 0.352035 0.336263
336 4 0.367061 0.348608 0.405568
561 4 0.456899 0.397387 0.407377
752 4 0.46252 0.408881 0.391671
559 2 0.47946 0.387769 0.412242
2463 4 0.99748 0.454705 0.34966
408 4 0.0650776 0.431952 0.413331
406 2 0.0723492 0.420206 0.392491
548 4 0.0676901 0.418609 0.359629
547 2 0.0591221 0.423224 0.336597
499 2 0.115714 0.479365 0.377236
500 4 0.135945 0.474241 0.363465
501 4 0.0954828 0.48449 0.391006
570 4 0.173058 0.495411 0.413928
5 3 0.295299 0.448784 0.360897
1 1 0.312785 0.462565 0.365689
2 3 0.305429 0.48436 0.365861
4 3 0.321436 0.457404 0.386592
3 3 0.329279 0.460343 0.349521
594 4 0.391059 0.469091 0.341124
592 2 0.400917 0.490147 0.350325
751 2 0.443244 0.418554 0.379021
753 4 0.423967 0.428226 0.36637
2237 4 0.0346749 0.0127912 0.488125
718 2 0.0526697 0.0455066 0.472188
720 4 0.0501945 0.0214606 0.478578
719 4 0.0551449 0.0695527 0.465797
367 2 0.130363 0.0325207 0.446483
369 4 0.139189 0.041826 0.467947
368 4 0.121537 0.0232154 0.425019
340 2 0.188928 0.051858 0.498892
341 4 0.188037 0.0288427 0.489161
1181 4 0.250893 0.0644327 0.46839
441 4 0.266919 0.030863 0.424489
439 2 0.286039 0.0158275 0.418698
726 4 0.318367 0.0890876 0.452378
724 2 0.340374 0.0836112 0.441848
424 2 0.398036 0.0297271 0.416572
425 4 0.374261 0.0349094 0.422324
725 4 0.362381 0.0781347 0.431318
2878 2 0.49388 0.0822004 0.452703
457 2 0.0160649 0.160591 0.430366
458 4 0.0347827 0.144154 0.428211
471 4 0.00981562 0.157117 0.486461
685 2 0.163539 0.154111 0.418894
687 4 0.160988 0.136716 0.436673
1180 2 0.24969 0.08662 0.479855
321 4 0.287511 0.13832 0.434904
319 2 0.27387 0.120468 0.423931
1182 4 0.248487 0.108807 0.491321
574 2 0.396703 0.155417 0.459157
516 4 0.419574 0.150817 0.43471
576 4 0.385077 0.14577 0.479081
642 4 0.471701 0.111173 0.472971
2880 4 0.480317 0.10278 0.456908
640 2 0.468826 0.12966 0.489559
469 2 0.0294731 0.172456 0.488325
470 4 0.0491306 0.187795 0.490189
260 4 0.0944863 0.195052 0.422406
261 4 0.132909 0.191411 0.454204
259 2 0.113698 0.193232 0.438305
1035 4 0.119953 0.183365 0.467731
1033 2 0.123321 0.180482 0.492339
695 4 0.0978569 0.228384 0.484547
468 4 0.33555 0.180083 0.448239
411 4 0.277931 0.211113 0.460077
409 2 0.30157 0.204621 0.455156
410 4 0.32521 0.198129 0.450235
575 4 0.408328 0.165064 0.439233
467 4 0.376446 0.185075 0.419896
466 2 0.355998 0.182579 0.434067
304 2 0.493175 0.194741 0.430463
305 4 0.474996 0.178534 0.436122
694 2 0.105478 0.252197 0.484738
696 4 0.113099 0.27601 0.484928
10 3 0.165547 0.318624 0.476707
651 4 0.251057 0.275461 0.467368
649 2 0.261717 0.297872 0.464325
650 4 0.272378 0.320284 0.461283
812 4 0.324118 0.308714 0.498645
266 4 0.336259 0.286238 0.421235
267 4 0.365769 0.258601 0.450665
265 2 0.351014 0.272419 0.43595
583 2 0.467471 0.276291 0.479455
584 4 0.49129 0.273818 0.472263
585 4 0.443652 0.278764 0.486646
935 4 0.999297 0.398978 0.48815
326 4 0.0769809 0.334728 0.444123
327 4 0.121899 0.341659 0.46498
325 2 0.0994402 0.338194 0.454552
6 1 0.154419 0.333247 0.49016
7 3 0.134316 0.338718 0.48041
8 3 0.16694 0.35259 0.492895
384 4 0.111254 0.409566 0.465716
711 4 0.18014 0.385049 0.479841
504 4 0.238661 0.397043 0.437706
709 2 0.188948 0.380578 0.456871
710 4 0.197756 0.376107 0.433902
774 4 0.252052 0.419294 0.480754
588 4 0.406964 0.410334 0.430383
334 2 0.369071 0.365187 0.424176
238 2 0.389846 0.37565 0.472855
240 4 0.367437 0.378584 0.46216
335 4 0.37108 0.381766 0.442785
239 4 0.412256 0.372716 0.48355
680 4 0.0445799 0.465103 0.429728
1381 2 0.0274629 0.491295 0.448367
1383 4 0.0376686 0.484845 0.426472
681 4 0.0391445 0.415807 0.436134
679 2 0.0418622 0.440455 0.432931
383 4 0.0711084 0.43425 0.44899
539 4 0.0704929 0.466269 0.487968
540 4 0.114129 0.490116 0.49325
568 2 0.15327 0.480882 0.418675
569 4 0.133483 0.466352 0.423421
382 2 0.0911811 0.421908 0.457353
538 2 0.092311 0.478192 0.490609
634 2 0.245173 0.443424 0.455547
636 4 0.233661 0.447682 0.433763
1401 4 0.324794 0.499059 0.455047
669 4 0.297967 0.432185 0.475759
667 2 0.305983 0.439635 0.453278
668 4 0.313998 0.447085 0.430796
635 4 0.256685 0.439167 0.47733
1332 4 0.477691 0.488616 0.478583
586 2 0.427236 0.424736 0.43299
663 4 0.440758 0.460472 0.475014
587 4 0.447509 0.439138 0.435596
661 2 0.461044 0.459843 0.489617
1126 2 0.0281817 0.0476187 0.537764
1127 4 0.0254516 0.027147 0.52367
1128 4 0.0309119 0.0680905 0.551858
2236 2 0.0324842 0.996836 0.507252
1058 4 0.138439 0.0546061 0.564806
1057 2 0.143013 0.0768299 0.575311
1152 4 0.202171 0.0832105 0.522168
1031 4 0.217763 0.081618 0.580249
342 4 0.18982 0.0748732 0.508622
2430 4 0.192394 0.0181264 0.505235
961 2 0.290247 0.0337235 0.515741
963 4 0.297868 0.0574392 0.513579
962 4 0.282627 0.0100078 0.517903
432 4 0.298731 0.0769989 0.510036
1217 4 0.411316 0.0434265 0.548478
1216 2 0.405374 0.0288254 0.567886
841 2 0.377096 0.071992 0.540003
842 4 0.3963 0.0567523 0.544919
1062 4 0.487382 0.00818815 0.53945
938 4 0.092078 0.129049 0.558986
937 2 0.11629 0.128148 0.552811
939 4 0.140503 0.127247 0.546636
1030 2 0.234815 0.088615 0.563354
1032 4 0.251867 0.0956121 0.546459
1151 4 0.193939 0.132526 0.523148
1150 2 0.198055 0.107868 0.522658
430 2 0.323029 0.0821612 0.512888
899 4 0.32977 0.145387 0.559102
843 4 0.357893 0.0872316 0.535088
431 4 0.347327 0.0873236 0.515741
641 4 0.465951 0.148146 0.506147
877 2 0.071359 0.209291 0.567072
878 4 0.0560786 0.190337 0.561376
1199 4 0.0123016 0.188869 0.570519
1034 4 0.126689 0.177599 0.516946
879 4 0.0866394 0.228245 0.572768
856 2 0.229275 0.22489 0.540367
858 4 0.227632 0.215096 0.563314
857 4 0.230919 0.234683 0.517419
898 2 0.332218 0.167036 0.546835
791 4 0.306463 0.235084 0.582862
900 4 0.334666 0.188686 0.534568
872 4 0.417139 0.244997 0.517316
906 4 0.459292 0.209468 0.577871
983 4 0.0590747 0.304418 0.55854
982 2 0.0485858 0.324012 0.569995
1258 2 0.140901 0.281776 0.519114
1260 4 0.126009 0.2823 0.499036
9 3 0.15033 0.323473 0.510804
1259 4 0.155793 0.281251 0.539193
813 4 0.329057 0.297952 0.54723
811 2 0.326588 0.303333 0.522938
871 2 0.40008 0.263234 0.516046
873 4 0.383022 0.28147 0.514777
3065 4 0.491316 0.254418 0.534162
1137 4 0.126803 0.379883 0.581055
1189 2 0.224335 0.371811 0.574555
773 4 0.236851 0.391024 0.519101
1190 4 0.237021 0.360913 0.555968
772 2 0.244451 0.405159 0.499927
802 2 0.269344 0.355501 0.536208
803 4 0.254797 0.351819 0.556208
804 4 0.28389 0.359183 0.516207
928 2 0.367289 0.376236 0.576695
929 4 0.374601 0.378994 0.552944
925 2 0.461586 0.373878 0.535589
927 4 0.463448 0.393963 0.550363
926 4 0.459724 0.353792 0.520814
1161 4 0.161329 0.469981 0.541344
2243 4 0.147723 0.500427 0.570094
1159 2 0.171478 0.461836 0.562694
1171 2 0.227766 0.451472 0.564785
1173 4 0.215671 0.466315 0.548705
882 4 0.320042 0.464542 0.510285
880 2 0.341848 0.468822 0.521747
881 4 0.363654 0.473102 0.533208
1952 4 0.34972 0.468899 0.567166
1002 4 0.411403 0.436905 0.559858
1951 2 0.353752 0.492211 0.575257
1000 2 0.435903 0.438481 0.564593
1001 4 0.460404 0.440058 0.569327
662 4 0.48133 0.459214 0.50422
1185 4 0.999773 0.048891 0.648206
825 4 0.140939 0.0364244 0.647814
823 2 0.151079 0.0137875 0.644661
949 2 0.271485 0.0166548 0.601519
951 4 0.255859 0.0337877 0.592166
950 4 0.28711 0.999522 0.610872
1092 4 0.320013 0.00169477 0.662226
1218 4 0.399432 0.0142243 0.587295
809 4 0.469292 0.0651562 0.615591
808 2 0.455184 0.0744513 0.634023
1163 4 0.467123 0.0381877 0.662396
45 3 0.446882 0.0711303 0.6692
1083 4 0.0460658 0.0899116 0.604987
1082 4 0.0455117 0.0853911 0.654787
1081 2 0.0457887 0.0876514 0.629887
1059 4 0.147588 0.0990536 0.585817
1153 2 0.159208 0.136252 0.591984
1155 4 0.145684 0.115633 0.596126
909 4 0.153424 0.151179 0.655373
1154 4 0.172732 0.15687 0.587842
1284 4 0.168984 0.0904617 0.63478
1283 4 0.217398 0.102828 0.632813
1282 2 0.193191 0.096645 0.633797
810 4 0.441076 0.0837464 0.652455
1244 4 0.0496783 0.249684 0.594329
1272 4 0.0988849 0.231038 0.588967
1270 2 0.123656 0.229211 0.591836
1271 4 0.148427 0.227384 0.594705
1221 4 0.17315 0.175704 0.5929
797 4 0.239274 0.22262 0.592123
1210 2 0.238504 0.182527 0.64707
1212 4 0.216691 0.179526 0.635222
1219 2 0.192577 0.183517 0.606563
1220 4 0.212005 0.191331 0.620227
796 2 0.230495 0.236891 0.610682
798 4 0.221715 0.251162 0.629241
947 4 0.203477 0.250536 0.636952
1211 4 0.260317 0.185527 0.658918
904 2 0.466769 0.223879 0.596886
1024 2 0.451288 0.199246 0.660864
1025 4 0.451827 0.213677 0.640453
905 4 0.474247 0.23829 0.615902
1243 2 0.0472738 0.266268 0.612886
1245 4 0.0448693 0.282852 0.631444
946 2 0.189575 0.270367 0.630736
948 4 0.175673 0.290198 0.62452
792 4 0.308181 0.285007 0.585199
790 2 0.307322 0.260046 0.584031
1238 4 0.302982 0.304902 0.585401
1237 2 0.302964 0.313218 0.608981
1239 4 0.302945 0.321534 0.632562
954 4 0.440845 0.262701 0.596364
952 2 0.447671 0.286672 0.594368
953 4 0.454497 0.310643 0.592372
984 4 0.038097 0.343606 0.581451
1040 4 0.0767046 0.404465 0.630543
1039 2 0.0520857 0.400453 0.628813
1041 4 0.0274667 0.396441 0.627084
897 4 0.144197 0.373279 0.588432
1136 4 0.0917844 0.345044 0.588847
1135 2 0.109294 0.362464 0.584951
991 2 0.120268 0.41187 0.630364
993 4 0.0972307 0.402237 0.629064
1191 4 0.211648 0.382709 0.593142
896 4 0.193002 0.378438 0.598028
895 2 0.1686 0.375859 0.59323
806 4 0.346103 0.348891 0.657553
930 4 0.359978 0.373478 0.600446
1204 2 0.400315 0.394734 0.642444
1206 4 0.379741 0.406735 0.634838
1205 4 0.420889 0.382733 0.650051
992 4 0.143305 0.421502 0.631663
2172 4 0.100709 0.490083 0.648529
1187 4 0.219164 0.48088 0.588225
1160 4 0.181628 0.453691 0.584044
1186 2 0.218365 0.497187 0.607162
1172 4 0.239862 0.43663 0.580866
889 2 0.319855 0.450561 0.612047
891 4 0.305747 0.470259 0.605871
890 4 0.333963 0.430863 0.618223
1269 4 0.423355 0.462357 0.657348
2991 4 0.0105815 0.0725372 0.70765
944 4 0.0450411 0.0633388 0.675698
943 2 0.0509837 0.0414047 0.686127
945 4 0.0569263 0.0194705 0.696556
1147 2 0.204433 0.0661384 0.719371
1149 4 0.207321 0.0413025 0.719485
1162 2 0.484023 0.0460524 0.679061
42 3 0.426669 0.0718812 0.700565
2320 2 0.496925 0.0152019 0.73042
1076 4 0.0421302 0.0830902 0.675098
862 2 0.0526977 0.129531 0.73999
864 4 0.0616217 0.122023 0.717873
1075 2 0.0440806 0.102466 0.69078
1077 4 0.046031 0.121842 0.706463
907 2 0.154146 0.153127 0.68029
908 4 0.154869 0.155075 0.705207
1227 4 0.160452 0.140269 0.717588
1148 4 0.201544 0.0909742 0.719256
1225 2 0.170747 0.117586 0.719754
1226 4 0.181042 0.0949035 0.72192
1005 4 0.329192 0.0908159 0.669044
829 2 0.323596 0.163503 0.715013
1003 2 0.343903 0.0872396 0.688943
831 4 0.338982 0.154678 0.732635
1004 4 0.358615 0.0836632 0.708842
43 3 0.432484 0.103701 0.681426
41 1 0.441851 0.083421 0.687701
1142 4 0.436965 0.153525 0.707359
44 3 0.461036 0.0870937 0.700224
3425 4 0.497663 0.159246 0.685368
1215 4 0.0101323 0.221126 0.7296
851 4 0.0568541 0.179009 0.721064
852 4 0.0356143 0.208021 0.686309
850 2 0.0462342 0.193515 0.703687
1107 4 0.0720538 0.173527 0.732241
1178 4 0.0217682 0.235329 0.722868
1105 2 0.0893041 0.177747 0.749842
1207 2 0.108414 0.243183 0.67977
1208 4 0.111602 0.223567 0.694942
1129 2 0.187925 0.200514 0.743866
1131 4 0.193538 0.224615 0.740281
1130 4 0.182313 0.176414 0.74745
830 4 0.308209 0.172328 0.697391
886 2 0.285773 0.188158 0.686593
888 4 0.261978 0.18451 0.679834
887 4 0.309567 0.191806 0.693352
976 2 0.290867 0.198435 0.748425
978 4 0.271749 0.188628 0.735638
1194 4 0.328305 0.198003 0.691942
1193 4 0.370196 0.214148 0.669915
1192 2 0.349251 0.206076 0.680929
1143 4 0.411463 0.183212 0.738488
1141 2 0.424214 0.168369 0.722923
1026 4 0.45075 0.184816 0.681276
1261 2 0.439826 0.228898 0.719334
1263 4 0.444753 0.220741 0.696218
1262 4 0.434898 0.237056 0.74245
1177 2 0.0174195 0.257261 0.711674
1179 4 0.0130709 0.279192 0.700481
1209 4 0.105226 0.2628 0.664598
821 4 0.162382 0.28852 0.718202
820 2 0.173388 0.280017 0.738981
1065 4 0.239406 0.274704 0.717998
1063 2 0.247023 0.287442 0.697876
1064 4 0.254641 0.30018 0.677754
3123 4 0.485713 0.278755 0.680881
892 2 0.0564172 0.367776 0.698715
893 4 0.0540004 0.345533 0.687554
894 4 0.0588341 0.39002 0.709876
3276 4 0.0139098 0.379332 0.740361
940 2 0.13681 0.388037 0.73767
1067 4 0.16495 0.402904 0.72527
941 4 0.159129 0.397172 0.744275
942 4 0.114492 0.378902 0.731066
815 4 0.104383 0.371927 0.747773
1028 4 0.223437 0.401742 0.685816
1066 2 0.184465 0.402148 0.709656
1068 4 0.203981 0.401391 0.694043
1027 2 0.248068 0.404695 0.682692
807 4 0.323694 0.333696 0.699597
1029 4 0.2727 0.407648 0.679568
1139 4 0.266528 0.406891 0.72943
805 2 0.334899 0.341293 0.678575
1019 4 0.39696 0.352403 0.737869
1981 2 0.0327475 0.483537 0.72983
1281 4 0.0319121 0.443561 0.712365
1280 4 0.0765894 0.431478 0.693427
1279 2 0.0542507 0.437519 0.702896
1983 4 0.0386071 0.462189 0.718205
1176 4 0.218722 0.492435 0.729631
1174 2 0.224493 0.494087 0.705359
1175 4 0.230265 0.49574 0.681087
1138 2 0.286594 0.421809 0.729499
1140 4 0.306659 0.436728 0.729568
1228 2 0.358058 0.458724 0.698072
1229 4 0.355937 0.482756 0.70464
1230 4 0.360179 0.434692 0.691504
1267 2 0.444033 0.472113 0.667469
1268 4 0.46471 0.481869 0.67759
1100 4 0.422029 0.454287 0.714564
1099 2 0.44384 0.445277 0.722827
1101 4 0.465652 0.436268 0.73109
1250 4 0.466993 0.499904 0.74221
1294 2 0.00149003 0.0306301 0.808667
911 4 0.0746361 0.0557094 0.819716
1296 4 0.0162484 0.034056 0.828558
1203 4 0.134261 0.0799038 0.772532
1201 2 0.123804 0.0590544 0.763524
1202 4 0.113347 0.0382051 0.754517
2049 4 0.106175 0.0238295 0.767567
910 2 0.0818179 0.0773684 0.829938
2047 2 0.119275 0.00288682 0.763698
1255 2 0.284016 0.0660553 0.807383
1256 4 0.294172 0.0749772 0.828417
1257 4 0.273859 0.0571334 0.786349
975 4 0.369891 0.0306396 0.82302
1113 4 0.420215 0.0295272 0.782107
1050 4 0.338465 0.00936742 0.767295
1112 4 0.423778 0.0694006 0.812076
846 4 0.4777 0.082602 0.759436
844 2 0.478613 0.0664426 0.778494
1111 2 0.421997 0.0494639 0.797092
845 4 0.479526 0.0502831 0.797553
863 4 0.0437738 0.13704 0.762107
832 2 0.00989974 0.120624 0.780107
833 4 0.027235 0.125583 0.762785
34 3 0.109986 0.136072 0.825971
31 1 0.115783 0.155629 0.814912
33 3 0.132 0.151179 0.798924
35 3 0.0973907 0.1647 0.805008
839 4 0.243613 0.12597 0.811378
838 2 0.254017 0.134115 0.832605
1084 2 0.347644 0.129073 0.799544
1085 4 0.361586 0.116796 0.816278
1086 4 0.333701 0.141351 0.782809
819 4 0.382157 0.117742 0.822318
3270 4 0.499852 0.166314 0.759485
1213 2 0.0230017 0.217447 0.750719
1214 4 0.0358711 0.213769 0.771838
1073 4 0.0743274 0.217301 0.775748
32 3 0.124304 0.170566 0.83019
1106 4 0.106554 0.181967 0.767443
1072 2 0.0963403 0.227627 0.781579
1074 4 0.118353 0.237952 0.78741
1277 4 0.202702 0.230894 0.757108