ITEM: TIMESTEP
1780000
ITEM: NUMBER OF ATOMS
4590
ITEM: BOX BOUNDS pp pp pp
-9.9985700000000008e+00 9.9985700000000008e+00
-9.9985700000000008e+00 9.9985700000000008e+00
-9.9985700000000008e+00 9.9985700000000008e+00
ITEM: ATOMS id type xs ys zs
1666 2 0.0456778 0.060179 0.0586836
1668 4 0.0360916 0.0606846 0.0355962
1474 2 0.305005 0.0116482 0.0835524
2974 2 0.470343 0.0294965 0.0154932
745 2 0.451625 0.0836781 0.00707122
2976 4 0.473849 0.00865742 0.0288579
2467 2 0.478309 0.00383186 0.0641346
566 4 0.18898 0.148551 0.0279313
2264 4 0.24622 0.166776 0.0121057
297 4 0.328098 0.114116 0.0375384
295 2 0.344577 0.107395 0.0199759
556 2 0.402771 0.108959 0.0116477
557 4 0.378543 0.107486 0.0056456
296 4 0.361056 0.100673 0.00241343
558 4 0.426999 0.110432 0.0176497
746 4 0.445771 0.103022 0.0217928
565 2 0.209538 0.162129 0.0236671
567 4 0.230097 0.175706 0.019403
1133 4 0.226974 0.194387 0.0122295
360 4 0.330561 0.181945 0.0154862
769 2 0.406308 0.165427 0.00530091
358 2 0.352846 0.173515 0.0230691
770 4 0.393051 0.162519 0.0263003
359 4 0.375131 0.165085 0.030652
664 2 0.39134 0.199565 0.0498214
665 4 0.385015 0.180137 0.035409
666 4 0.397666 0.218993 0.0642338
323 4 0.412513 0.229764 0.0676437
623 4 0.400741 0.228104 0.0822739
555 4 0.0381647 0.263406 0.0160304
553 2 0.0521351 0.267579 0.995718
287 4 0.162978 0.309219 0.0334956
292 2 0.130992 0.281574 0.0323027
507 4 0.156014 0.309908 0.0507595
293 4 0.151409 0.294797 0.0380917
294 4 0.110575 0.268352 0.0265137
286 2 0.158258 0.329672 0.0199094
505 2 0.171528 0.302969 0.0690991
481 2 0.227848 0.29862 0.0784613
483 4 0.203408 0.303889 0.0788203
573 4 0.265652 0.289973 0.0637377
482 4 0.252287 0.293352 0.0781024
571 2 0.273167 0.280602 0.0418087
572 4 0.280682 0.27123 0.0198797
357 4 0.281868 0.274633 0.999162
1069 2 0.397148 0.29077 0.0259756
957 4 0.362371 0.312333 0.0297943
1071 4 0.373232 0.297817 0.0240953
955 2 0.344158 0.315193 0.0129033
741 4 0.363306 0.329612 0.0404428
322 2 0.420413 0.248222 0.0527411
324 4 0.428313 0.266679 0.0378385
1070 4 0.421064 0.283723 0.0278558
671 4 0.452143 0.320056 0.0695841
280 2 0.452266 0.302951 0.0383855
281 4 0.465749 0.314459 0.0560196
282 4 0.438783 0.291444 0.0207514
454 2 0.165821 0.381164 0.0566445
455 4 0.145999 0.366806 0.0515364
552 4 0.131286 0.365146 0.0652397
550 2 0.111046 0.350507 0.0641393
551 4 0.0908053 0.335869 0.0630389
288 4 0.153538 0.350125 0.00632315
456 4 0.185644 0.395522 0.0617527
1290 4 0.276992 0.403576 0.0240251
739 2 0.369379 0.335459 0.0639822
495 4 0.396889 0.370905 0.0826935
493 2 0.387896 0.393771 0.0780589
494 4 0.378904 0.416636 0.0734243
670 2 0.43257 0.32984 0.0816822
245 4 0.241089 0.486322 0.0510779
626 4 0.227309 0.469711 0.0503206
625 2 0.20933 0.465271 0.0671199
244 2 0.258884 0.47143 0.0417632
246 4 0.276678 0.456538 0.0324484
1778 4 0.208805 0.505427 0.015189
251 4 0.273112 0.422712 0.0306577
250 2 0.276522 0.415964 0.0544905
252 4 0.279933 0.409215 0.0783234
272 4 0.280663 0.439428 0.0221833
1672 2 0.400738 0.451041 0.0638878
853 2 0.408445 0.448814 0.00858042
1674 4 0.414191 0.454123 0.0430383
854 4 0.423782 0.458402 0.0258443
563 4 0.479017 0.443053 0.0469447
562 2 0.454451 0.443637 0.0423262
564 4 0.429885 0.44422 0.0377078
228 4 0.498009 0.433162 0.0490908
1667 4 0.055264 0.0596735 0.081771
701 4 0.0690982 0.069132 0.0935192
18 3 0.0613976 0.0441428 0.141962
1475 4 0.305469 0.0336614 0.0954007
492 4 0.298296 0.043247 0.111785
490 2 0.287638 0.0612763 0.0981277
491 4 0.27698 0.0793057 0.0844704
485 4 0.383521 0.998511 0.124329
2723 4 0.445512 0.0610522 0.13904
2722 2 0.463806 0.0440078 0.139009
2724 4 0.4821 0.0269633 0.138978
1760 4 0.499995 0.0183392 0.138781
1759 2 0.501939 0.0140678 0.114222
2744 4 0.492736 0.0261622 0.155144
2469 4 0.484272 0.0131088 0.0865747
700 2 0.0731839 0.0937989 0.0933518
702 4 0.0772695 0.118466 0.0931844
475 2 0.0847094 0.139073 0.131462
476 4 0.0835686 0.133819 0.107044
737 4 0.255573 0.165778 0.120902
237 4 0.235719 0.145439 0.157501
582 4 0.249885 0.131928 0.155996
628 2 0.362629 0.14076 0.149826
312 4 0.382416 0.113495 0.158631
629 4 0.36188 0.118191 0.160562
630 4 0.363378 0.163329 0.13909
339 4 0.077625 0.233698 0.139694
736 2 0.251653 0.186132 0.106918
738 4 0.247733 0.206485 0.0929341
461 4 0.309926 0.239145 0.0981435
460 2 0.331104 0.233822 0.110324
354 4 0.289443 0.239729 0.106325
352 2 0.2813 0.242592 0.129791
353 4 0.273156 0.245455 0.153257
254 4 0.37717 0.17458 0.1478
462 4 0.352281 0.228498 0.122505
255 4 0.361013 0.220462 0.136202
253 2 0.369091 0.197521 0.142001
765 4 0.363891 0.238417 0.138355
624 4 0.370623 0.232562 0.121944
622 2 0.385682 0.230333 0.102109
763 2 0.351972 0.247961 0.158155
337 2 0.0654845 0.248073 0.15616
506 4 0.187042 0.296031 0.0874386
537 4 0.186476 0.3036 0.105098
535 2 0.199371 0.313786 0.123943
536 4 0.212265 0.323972 0.142789
755 4 0.259091 0.256416 0.159212
387 4 0.322327 0.31452 0.122345
301 2 0.317192 0.301634 0.162413
302 4 0.317118 0.304619 0.137589
385 2 0.342125 0.324469 0.11076
15 3 0.374342 0.335125 0.115063
518 4 0.496129 0.280262 0.0893769
528 4 0.482781 0.273116 0.103336
526 2 0.466507 0.286762 0.0901409
527 4 0.450233 0.300409 0.0769458
315 4 0.0150859 0.388932 0.115266
647 4 0.0744771 0.356331 0.147197
417 4 0.137165 0.408583 0.156986
415 2 0.15937 0.404135 0.146388
291 4 0.194146 0.411803 0.142537
289 2 0.218948 0.414563 0.140987
14 3 0.39431 0.351901 0.0879066
386 4 0.361923 0.334418 0.0991742
12 3 0.411631 0.333846 0.115954
740 4 0.375453 0.341306 0.0875216
672 4 0.412998 0.339624 0.0937803
11 1 0.393386 0.346756 0.110514
13 3 0.393961 0.366239 0.123102
595 2 0.483966 0.406184 0.12179
597 4 0.474285 0.394531 0.141681
645 4 0.482617 0.401375 0.158601
104 3 0.513459 0.369375 0.140642
102 3 0.50023 0.33843 0.123907
1791 4 0.0571821 0.493087 0.134411
1466 4 0.0599056 0.478108 0.147068
1465 2 0.0358583 0.473798 0.152391
627 4 0.191351 0.460832 0.0839191
290 4 0.243751 0.417323 0.139436
416 4 0.181575 0.399687 0.135789
637 2 0.239272 0.500159 0.127225
609 4 0.283614 0.424485 0.0922895
607 2 0.304045 0.42636 0.106581
608 4 0.324475 0.428234 0.120872
768 4 0.260981 0.426835 0.139577
767 4 0.269901 0.475772 0.134446
766 2 0.265441 0.451303 0.137011
638 4 0.25548 0.486736 0.140728
1673 4 0.387286 0.447958 0.0847373
659 4 0.343379 0.43468 0.121945
660 4 0.379307 0.429977 0.0874813
658 2 0.361343 0.432328 0.104713
1559 4 0.348173 0.496428 0.113885
596 4 0.493647 0.417838 0.101899
380 4 0.00218289 0.084465 0.216635
16 1 0.062444 0.0490528 0.164616
19 3 0.0657564 0.0718184 0.167642
17 3 0.0425301 0.0430636 0.174451
2480 4 0.0271994 0.0333648 0.182903
1422 4 0.027681 0.0183176 0.196253
2479 2 0.0134706 0.0511422 0.193888
20 3 0.0794151 0.0373733 0.174322
1403 4 0.099055 0.00250231 0.256635
578 4 0.0965071 0.0467696 0.168466
674 4 0.136226 0.0205355 0.20232
673 2 0.12422 0.0164138 0.223862
689 4 0.143985 0.00244737 0.198375
577 2 0.112551 0.0627711 0.179036
579 4 0.128595 0.0787726 0.189605
675 4 0.112214 0.0122921 0.245403
652 2 0.284566 0.00433973 0.207645
653 4 0.302735 0.999335 0.224077
25 3 0.321538 0.0463931 0.238327
311 4 0.379021 0.0764066 0.192002
758 4 0.373069 0.0588849 0.19837
759 4 0.340583 0.058893 0.236388
757 2 0.356826 0.0588889 0.217379
2743 2 0.50289 0.0310487 0.177465
511 2 0.0408374 0.150286 0.213786
513 4 0.0623262 0.155782 0.225328
381 4 0.0195836 0.126101 0.195086
512 4 0.0193486 0.144791 0.202245
379 2 0.0108833 0.105283 0.20586
477 4 0.0858502 0.144327 0.155881
450 4 0.140761 0.0934488 0.182231
448 2 0.160393 0.107406 0.175524
449 4 0.180025 0.121362 0.168818
691 2 0.23908 0.10456 0.240062
693 4 0.229241 0.105593 0.217098
236 4 0.191607 0.134983 0.178607
235 2 0.213663 0.140211 0.168054
581 4 0.291063 0.11399 0.17798
580 2 0.270474 0.122959 0.166988
26 1 0.32692 0.157917 0.246415
30 3 0.306261 0.150374 0.240502
28 3 0.343072 0.142465 0.24019
310 2 0.380719 0.0949509 0.175317
333 4 0.49923 0.0810088 0.240715
521 4 0.482665 0.14432 0.219334
332 4 0.487676 0.127803 0.227391
762 4 0.469888 0.134986 0.230714
760 2 0.446949 0.140488 0.239001
331 2 0.493453 0.104406 0.234053
520 2 0.503394 0.15301 0.20838
394 2 0.0222097 0.226291 0.235734
395 4 0.0407474 0.20954 0.236699
393 4 0.064282 0.165326 0.242252
279 4 0.251204 0.196395 0.1839
277 2 0.257529 0.219828 0.177895
27 3 0.3311 0.177799 0.235627
278 4 0.263854 0.243261 0.171889
284 4 0.282658 0.241313 0.169362
396 4 0.00367197 0.243042 0.234769
338 4 0.053344 0.262448 0.172626
363 4 0.0685132 0.275162 0.176269
361 2 0.0766297 0.292393 0.192468
749 4 0.0740614 0.326958 0.208033
443 4 0.997104 0.258822 0.244977
648 4 0.0733451 0.325746 0.186744
370 2 0.126715 0.308743 0.222083
372 4 0.105674 0.305434 0.208987
362 4 0.0847461 0.309623 0.208668
371 4 0.147756 0.312052 0.235178
734 4 0.156054 0.327872 0.246174
756 4 0.23137 0.28718 0.187246
610 2 0.240633 0.297867 0.222547
285 4 0.323867 0.26292 0.187683
283 2 0.303263 0.252116 0.178522
754 2 0.24523 0.271798 0.173229
612 4 0.240394 0.301746 0.197847
307 2 0.320736 0.2883 0.215957
308 4 0.315585 0.280848 0.192652
303 4 0.317266 0.298649 0.187238
729 4 0.314044 0.319278 0.190015
309 4 0.325887 0.295752 0.239262
764 4 0.340054 0.257506 0.177954
748 2 0.0812 0.336241 0.230124
264 4 0.00728763 0.405072 0.24526
646 2 0.0739111 0.341038 0.166971
299 4 0.148701 0.341809 0.257844
727 2 0.310689 0.342241 0.199321
728 4 0.307333 0.365205 0.208626
446 4 0.439358 0.364153 0.241134
445 2 0.439612 0.382984 0.224686
447 4 0.439867 0.401814 0.208238
644 4 0.457241 0.408611 0.201079
643 2 0.469929 0.404993 0.17984
1467 4 0.011811 0.469488 0.157714
229 2 0.457034 0.485149 0.232241
230 4 0.458323 0.501403 0.213285
1568 4 0.472232 0.4971 0.185882
232 2 0.0273245 0.0356367 0.29062
233 4 0.0500284 0.028707 0.282766
1404 4 0.0680089 0.0258918 0.288096
1402 2 0.0835319 0.014197 0.272365
316 2 0.0747217 0.0560411 0.307456
317 4 0.0604761 0.0379426 0.297725
428 4 0.069697 0.0220858 0.306311
427 2 0.0632801 0.00379103 0.3221
318 4 0.0889674 0.0741396 0.317186
732 4 0.101533 0.0808705 0.329341
21 1 0.324759 0.0589164 0.257074
23 3 0.324119 0.0453336 0.275876
24 3 0.308385 0.0752889 0.258569
22 3 0.345362 0.0690851 0.255944
351 4 0.410911 0.0490042 0.262781
349 2 0.395528 0.0684426 0.259512
479 4 0.455287 0.027565 0.296797
478 2 0.442314 0.0349625 0.276743
2664 4 0.475125 0.025034 0.297111
480 4 0.42934 0.0423601 0.256689
1428 4 0.462381 0.014411 0.305135
258 4 0.449086 0.0238396 0.315698
2662 2 0.496161 0.0306655 0.284823
397 2 0.0726537 0.107632 0.334752
399 4 0.0900169 0.0944619 0.322494
721 2 0.241683 0.12498 0.296547
722 4 0.242459 0.129951 0.321039
723 4 0.240906 0.120009 0.272055
692 4 0.248919 0.103526 0.263025
632 4 0.378446 0.104749 0.267287
350 4 0.380144 0.087881 0.256244
631 2 0.362454 0.123725 0.264232
707 4 0.341964 0.149241 0.276887
633 4 0.346461 0.142701 0.261178
761 4 0.424009 0.145989 0.247289
391 2 0.0747706 0.18333 0.256073
392 4 0.0852592 0.201335 0.269894
546 4 0.124075 0.195774 0.277785
544 2 0.148477 0.201197 0.277217
545 4 0.172879 0.206619 0.27665
402 4 0.182767 0.220649 0.285727
400 2 0.181545 0.245623 0.285665
474 4 0.193614 0.217263 0.339895
29 3 0.327786 0.161487 0.269326
706 2 0.343926 0.161432 0.298629
708 4 0.345889 0.173624 0.32037
717 4 0.444313 0.174474 0.349722
442 2 0.00235954 0.276119 0.26225
444 4 0.00761526 0.293417 0.279523
378 4 0.250865 0.259602 0.328004
611 4 0.240872 0.293988 0.247247
401 4 0.180323 0.270596 0.285604
676 2 0.180957 0.299048 0.316016
345 4 0.191297 0.286736 0.279538
677 4 0.181525 0.287977 0.293604
343 2 0.215411 0.287671 0.272993
735 4 0.179991 0.303008 0.282361
733 2 0.168023 0.31544 0.264268
344 4 0.239524 0.288605 0.266447
678 4 0.180389 0.310118 0.338428
376 2 0.265837 0.273147 0.313254
496 2 0.305896 0.286203 0.27547
497 4 0.297185 0.274013 0.295487
377 4 0.280808 0.286692 0.298505
498 4 0.314607 0.298394 0.255453
541 2 0.394154 0.302327 0.318595
542 4 0.393818 0.278284 0.311737
543 4 0.394489 0.326369 0.325453
420 4 0.412269 0.276014 0.320946
418 2 0.417342 0.253041 0.329413
2537 4 0.495701 0.334448 0.324928
365 4 0.0334707 0.369355 0.295772
601 2 0.0527829 0.37179 0.329992
603 4 0.0497957 0.364197 0.306357
364 2 0.00865336 0.366778 0.294148
750 4 0.0883386 0.345524 0.252216
298 2 0.124965 0.349581 0.259009
300 4 0.101228 0.357352 0.260174
433 2 0.314602 0.388528 0.287715
435 4 0.298383 0.396343 0.270364
434 4 0.33082 0.380712 0.305066
614 4 0.337512 0.361648 0.310138
615 4 0.379581 0.335295 0.316179
613 2 0.358547 0.348471 0.313159
1757 4 0.0967262 0.438716 0.276001
1756 2 0.108385 0.458269 0.26566
1758 4 0.120044 0.477822 0.25532
412 2 0.234011 0.450102 0.268843
1436 4 0.229856 0.433419 0.301007
413 4 0.226706 0.450619 0.29275
414 4 0.241317 0.449584 0.244937
1435 2 0.24348 0.431152 0.321849
3 3 0.292348 0.469949 0.325323
1803 4 0.373858 0.485622 0.275106
437 4 0.360077 0.471887 0.337713
436 2 0.33542 0.467743 0.337971
231 4 0.455745 0.468894 0.251196
119 3 0.503512 0.450691 0.318262
712 2 0.462344 0.465245 0.326687
713 4 0.439009 0.473235 0.322586
714 4 0.485679 0.457254 0.330788
1782 4 0.131464 0.994437 0.382115
1781 4 0.0986876 0.00234181 0.419046
730 2 0.121063 0.0676364 0.337625
1780 2 0.115076 0.998389 0.400581
731 4 0.140593 0.0544023 0.345909
606 4 0.153319 0.0673382 0.35166
604 2 0.176286 0.0698545 0.361218
1701 4 0.324761 0.0207381 0.390731
441 4 0.317237 0.0137602 0.407043
1699 2 0.327926 0.0335059 0.369467
425 4 0.331103 0.026211 0.40901
1700 4 0.331091 0.0462737 0.348203
699 4 0.349567 0.0467871 0.340908
697 2 0.37414 0.0487026 0.3367
698 4 0.398712 0.0506181 0.332491
257 4 0.415233 0.0467254 0.344523
256 2 0.432159 0.0352825 0.330111
2879 4 0.503485 0.0681335 0.409442
2584 2 0.0139351 0.111885 0.347983
398 4 0.0552906 0.120803 0.347009
2586 4 0.0362328 0.123138 0.349147
458 4 0.0328461 0.136413 0.363459
457 2 0.0402829 0.146213 0.385226
459 4 0.0477198 0.156014 0.406994
600 4 0.143206 0.128134 0.391617
598 2 0.142688 0.151706 0.383294
605 4 0.199253 0.0723708 0.370776
248 4 0.203493 0.0880713 0.359152
249 4 0.232963 0.120105 0.334534
247 2 0.218228 0.104088 0.346843
683 4 0.241036 0.0925425 0.398795
403 2 0.240004 0.159402 0.342777
404 4 0.243475 0.134709 0.34094
682 2 0.2601 0.108187 0.394676
319 2 0.312336 0.127946 0.398142
684 4 0.279164 0.123832 0.390556
321 4 0.335494 0.129202 0.388798
320 4 0.289178 0.12669 0.407486
725 4 0.394196 0.0962517 0.402323
2878 2 0.50443 0.0917404 0.417628
599 4 0.142171 0.175278 0.37497
389 4 0.108256 0.234389 0.350462
686 4 0.136179 0.188258 0.387336
685 2 0.11694 0.19616 0.401215
275 4 0.155777 0.174153 0.358079
274 2 0.165242 0.193095 0.344782
687 4 0.0977019 0.204061 0.415095
472 2 0.217477 0.209807 0.339582
276 4 0.174708 0.212036 0.331486
405 4 0.236533 0.184095 0.344615
473 4 0.241341 0.202351 0.339269
466 2 0.406574 0.200173 0.404949
467 4 0.404386 0.190058 0.382187
716 4 0.397379 0.182268 0.365123
269 4 0.438896 0.238867 0.343104
715 2 0.420846 0.178371 0.357423
270 4 0.476935 0.220821 0.370086
452 4 0.467134 0.211568 0.385929
268 2 0.457915 0.229844 0.356595
451 2 0.462761 0.207423 0.410196
419 4 0.422416 0.230069 0.33788
388 2 0.112086 0.258692 0.354919
616 2 0.0768943 0.321495 0.371596
390 4 0.115917 0.282995 0.359375
617 4 0.0966344 0.3099 0.361544
374 4 0.115019 0.30295 0.359965
373 2 0.137982 0.307394 0.351126
375 4 0.160945 0.311838 0.342287
509 4 0.213902 0.324341 0.369197
508 2 0.232223 0.33078 0.353446
618 4 0.0571542 0.33309 0.381649
347 4 0.0370242 0.338486 0.385705
549 4 0.0595885 0.395677 0.365311
602 4 0.0557701 0.379384 0.353626
346 2 0.0301488 0.356711 0.401382
348 4 0.0232735 0.374936 0.417059
510 4 0.250543 0.337218 0.337695
668 4 0.319845 0.387261 0.405167
667 2 0.315542 0.406586 0.420438
336 4 0.324823 0.36841 0.410697
334 2 0.348208 0.359712 0.409065
335 4 0.371593 0.351014 0.407433
752 4 0.469108 0.41148 0.394782
561 4 0.471891 0.400153 0.411466
547 2 0.0727333 0.416138 0.371118
548 4 0.0858781 0.4366 0.376924
407 4 0.0815153 0.455485 0.380057
406 2 0.0993362 0.461997 0.396342
499 2 0.0844732 0.503263 0.355367
501 4 0.0999882 0.494489 0.372902
408 4 0.117157 0.468509 0.412626
1556 4 0.238128 0.502625 0.420136
1544 4 0.221802 0.494567 0.41349
1555 2 0.261489 0.497882 0.41259
5 3 0.273074 0.475873 0.35712
1557 4 0.28485 0.49314 0.405044
1 1 0.285026 0.460557 0.345237
438 4 0.310764 0.463599 0.338229
1437 4 0.257105 0.428884 0.342692
4 3 0.271894 0.441935 0.340856
2 3 0.303326 0.454021 0.357548
636 4 0.29 0.481668 0.422084
593 4 0.410193 0.460464 0.382669
592 2 0.419502 0.466929 0.360381
588 4 0.423021 0.449611 0.395573
1742 4 0.427282 0.48916 0.327199
586 2 0.429076 0.427786 0.406167
753 4 0.493823 0.433798 0.357475
117 3 0.489161 0.454166 0.352825
751 2 0.481466 0.422639 0.376129
594 4 0.42881 0.473394 0.338094
367 2 0.0683245 0.0229178 0.425247
369 4 0.0439468 0.0273269 0.421861
719 4 0.0402487 0.0219377 0.439973
718 2 0.019438 0.0230917 0.453784
368 4 0.0927023 0.0185088 0.428633
962 4 0.312669 0.0279163 0.417945
961 2 0.300735 0.0437275 0.433202
963 4 0.288802 0.0595388 0.448459
432 4 0.290966 0.0775366 0.457386
430 2 0.307018 0.0852203 0.47495
424 2 0.354666 0.0238295 0.417028
426 4 0.37823 0.021448 0.425046
726 4 0.407264 0.0700791 0.442881
1218 4 0.40304 0.0553302 0.486272
1216 2 0.385666 0.0619025 0.503009
260 4 0.0453303 0.165886 0.424714
431 4 0.323069 0.0929039 0.492514
724 2 0.40073 0.0831654 0.422602
642 4 0.493865 0.117806 0.443149
640 2 0.472283 0.129638 0.447551
641 4 0.450701 0.141471 0.451953
2880 4 0.505376 0.115347 0.425813
259 2 0.0625091 0.183967 0.422942
261 4 0.0796879 0.202048 0.42117
696 4 0.0998322 0.246067 0.472253
1035 4 0.0866629 0.219816 0.422524
1033 2 0.0983263 0.233995 0.439498
694 2 0.0917179 0.238463 0.494647
488 4 0.315567 0.245253 0.428033
487 2 0.334799 0.253083 0.441962
489 4 0.354031 0.260913 0.45589
468 4 0.408762 0.210288 0.42771
411 4 0.366252 0.246006 0.459896
516 4 0.407104 0.202785 0.461076
409 2 0.384087 0.229801 0.453226
410 4 0.401922 0.213595 0.446557
575 4 0.405972 0.202352 0.48166
266 4 0.374328 0.244625 0.478886
574 2 0.396222 0.18529 0.49712
514 2 0.430591 0.196434 0.455312
515 4 0.454078 0.190084 0.449547
453 4 0.458388 0.203277 0.434462
2847 4 0.000549359 0.301797 0.450282
1034 4 0.10999 0.248174 0.456471
1258 2 0.11277 0.287568 0.471515
1259 4 0.120176 0.311097 0.475601
9 3 0.1385 0.31722 0.481529
1260 4 0.105364 0.264038 0.467429
10 3 0.152386 0.339691 0.454698
584 4 0.497639 0.243154 0.495822
326 4 0.0558786 0.339242 0.476401
325 2 0.0802491 0.343739 0.479723
6 1 0.140356 0.339099 0.474026
7 3 0.119277 0.347423 0.470088
327 4 0.10462 0.348236 0.483044
709 2 0.148369 0.403409 0.472629
8 3 0.150684 0.352164 0.490183
711 4 0.125662 0.411372 0.465834
503 4 0.214035 0.364301 0.46815
502 2 0.201315 0.384133 0.476521
710 4 0.171076 0.395447 0.479424
504 4 0.188595 0.403964 0.484893
240 4 0.386844 0.361881 0.413399
238 2 0.406261 0.376961 0.408845
882 4 0.373485 0.367796 0.473828
880 2 0.36709 0.372852 0.497465
560 4 0.50564 0.402697 0.44828
587 4 0.43513 0.405962 0.41676
239 4 0.425678 0.392041 0.404291
559 2 0.488766 0.401425 0.429873
3307 2 0.490436 0.390094 0.485966
1381 2 0.00213193 0.487259 0.465155
1383 4 0.987121 0.468304 0.458787
384 4 0.109313 0.420372 0.459957
569 4 0.127905 0.471175 0.427528
382 2 0.112552 0.437375 0.441912
568 2 0.143401 0.490299 0.431924
383 4 0.115791 0.454377 0.423868
1543 2 0.199172 0.500768 0.422127
772 2 0.335129 0.431659 0.465107
634 2 0.305788 0.462553 0.425324
774 4 0.319895 0.438414 0.446467
669 4 0.311239 0.425912 0.435708
635 4 0.321577 0.443438 0.428565
773 4 0.350363 0.424903 0.483748
662 4 0.466965 0.505946 0.480572
663 4 0.479472 0.482046 0.438464
661 2 0.473218 0.493996 0.459518
342 4 0.196867 0.0738872 0.512668
340 2 0.186258 0.0512486 0.51233
1152 4 0.204936 0.0889511 0.52191
341 4 0.175649 0.0286099 0.511991
2430 4 0.1786 0.00742755 0.514868
1030 2 0.267042 0.0603526 0.576876
1217 4 0.368292 0.0684749 0.519746
842 4 0.352601 0.0685227 0.533041
3007 2 0.481938 0.043216 0.571032
3009 4 0.491712 0.0490817 0.548778
470 4 0.0179184 0.156127 0.516838
1058 4 0.0859113 0.127452 0.526834
1057 2 0.100399 0.120444 0.545969
1059 4 0.114888 0.113436 0.565105
1155 4 0.119436 0.125687 0.578435
1150 2 0.226015 0.0868598 0.535194
1151 4 0.247095 0.0847686 0.548477
1180 2 0.209933 0.142223 0.528154
1181 4 0.20945 0.117732 0.533168
1182 4 0.210416 0.166714 0.52314
1032 4 0.260809 0.0774101 0.55969
843 4 0.321495 0.100142 0.509947
841 2 0.337048 0.0843323 0.521494
576 4 0.386473 0.168229 0.512581
1198 2 0.00248924 0.219902 0.564369
469 2 0.00496162 0.175425 0.526051
695 4 0.0836037 0.230859 0.517042
900 4 0.228735 0.177778 0.524846
898 2 0.250486 0.189934 0.522772
798 4 0.224459 0.251348 0.566906
650 4 0.284827 0.208866 0.534662
899 4 0.272237 0.20209 0.520697
649 2 0.294338 0.230679 0.526988
651 4 0.30385 0.252492 0.519314
265 2 0.368471 0.245702 0.50317
857 4 0.216674 0.251297 0.532884
947 4 0.212643 0.255222 0.551431
856 2 0.237473 0.2443 0.5209
946 2 0.19247 0.264276 0.563102
948 4 0.172296 0.27333 0.574774
796 2 0.245826 0.262883 0.572869
858 4 0.258271 0.237302 0.508915
872 4 0.355938 0.284336 0.560948
871 2 0.36896 0.297979 0.577363
873 4 0.381982 0.311623 0.593779
267 4 0.362613 0.246778 0.527454
2457 4 0.495298 0.301945 0.523862
2455 2 0.50066 0.279058 0.515341
803 4 0.266427 0.371937 0.56975
804 4 0.281096 0.383685 0.523409
802 2 0.273762 0.377811 0.546579
1190 4 0.252476 0.357943 0.575624
930 4 0.337883 0.380275 0.571985
928 2 0.339781 0.377531 0.547205
929 4 0.341679 0.374787 0.522425
881 4 0.360695 0.377908 0.521103
1011 4 0.47976 0.367934 0.521668
1009 2 0.487649 0.344239 0.520451
927 4 0.424465 0.368898 0.593234
925 2 0.441142 0.381462 0.579478
3308 4 0.487571 0.381813 0.509384
926 4 0.457818 0.394025 0.565722
1002 4 0.460019 0.411368 0.572865
540 4 0.100434 0.471717 0.576992
1160 4 0.114452 0.481416 0.568929
1159 2 0.135641 0.488028 0.580439
2244 4 0.0976816 0.490653 0.574108
1910 4 0.404696 0.487776 0.559205
890 4 0.337679 0.492905 0.559883
1909 2 0.424515 0.47916 0.57178
1000 2 0.459994 0.435505 0.579394
1911 4 0.444334 0.470543 0.584356
1081 2 0.0615927 0.0760313 0.644607
1083 4 0.063429 0.0909176 0.624602
1127 4 0.0457924 0.0932839 0.616285
823 2 0.154828 0.012731 0.654212
825 4 0.138552 0.0295843 0.662943
824 4 0.171105 0.995878 0.645481
1031 4 0.273275 0.043295 0.594063
951 4 0.278737 0.0253114 0.59531
949 2 0.299067 0.0107636 0.595761
3008 4 0.472164 0.0373504 0.593286
809 4 0.478784 0.03672 0.61255
808 2 0.471312 0.0496765 0.632587
810 4 0.46384 0.062633 0.652624
45 3 0.459211 0.0856493 0.652069
1126 2 0.0215712 0.096511 0.610984
938 4 0.0796251 0.0855524 0.612489
1128 4 0.99735 0.0997381 0.605684
939 4 0.102699 0.117152 0.581348
1271 4 0.102052 0.135688 0.583248
937 2 0.0911622 0.101352 0.596918
1153 2 0.142543 0.130425 0.586729
1270 2 0.0912691 0.157849 0.587467
1154 4 0.165651 0.135163 0.595023
1221 4 0.176576 0.127175 0.609615
1219 2 0.197188 0.137809 0.618955
1220 4 0.2178 0.148443 0.628295
1192 2 0.350102 0.16213 0.655866
1193 4 0.373994 0.155631 0.652384
3424 2 0.484696 0.116592 0.668441
1199 4 0.0203634 0.211005 0.579421
1244 4 0.0336039 0.23888 0.590775
878 4 0.0328487 0.218552 0.592415
877 2 0.0514289 0.203659 0.60004
879 4 0.0700091 0.188765 0.607665
1272 4 0.0804864 0.18001 0.591685
1210 2 0.246615 0.18049 0.636773
1212 4 0.228368 0.164707 0.630203
1211 4 0.264861 0.196272 0.643342
886 2 0.2987 0.185141 0.66724
888 4 0.275099 0.189452 0.660198
982 2 0.0283109 0.320341 0.579558
1243 2 0.0410642 0.261762 0.583997
983 4 0.0462539 0.30377 0.574208
1245 4 0.0485246 0.284644 0.57722
984 4 0.0103679 0.336912 0.584909
1137 4 0.16348 0.327563 0.607492
1135 2 0.163538 0.303826 0.599636
1136 4 0.163595 0.280088 0.591781
822 4 0.194287 0.288776 0.662913
1064 4 0.205404 0.301511 0.653476
797 4 0.267193 0.274419 0.578832
792 4 0.296014 0.321038 0.597496
791 4 0.268647 0.27923 0.599463
790 2 0.28233 0.300134 0.598479
805 2 0.265523 0.319027 0.655272
813 4 0.388235 0.32467 0.608424
906 4 0.503843 0.319655 0.593092
953 4 0.49936 0.302768 0.602486
952 2 0.493413 0.279169 0.596755
954 4 0.487465 0.255569 0.591023
1041 4 0.0602245 0.386093 0.64272
3264 4 0.040988 0.388892 0.643529
3262 2 0.0344651 0.372338 0.661096
3240 4 0.030549 0.40544 0.638162
1039 2 0.0823782 0.381168 0.632226
1040 4 0.104532 0.376242 0.621731
993 4 0.1108 0.358651 0.627948
991 2 0.132235 0.351962 0.616948
992 4 0.153669 0.345274 0.605947
897 4 0.170358 0.343998 0.614624
1189 2 0.239706 0.369945 0.593458
896 4 0.206875 0.37804 0.611727
895 2 0.188617 0.361019 0.613176
1172 4 0.227895 0.39911 0.599098
1191 4 0.226937 0.381946 0.611293
1171 2 0.216789 0.421452 0.597455
1239 4 0.324722 0.384057 0.588102
1238 4 0.302227 0.340179 0.59643
806 4 0.286612 0.323713 0.642682
1237 2 0.313474 0.362118 0.592266
811 2 0.404214 0.338926 0.595517
1204 2 0.396395 0.388835 0.621615
1205 4 0.38331 0.402057 0.638323
1206 4 0.40948 0.375614 0.604907
812 4 0.420193 0.353183 0.582609
539 4 0.0663026 0.435827 0.570091
3238 2 0.0093967 0.418271 0.641786
538 2 0.0833683 0.453772 0.573542
1161 4 0.15683 0.494641 0.591949
2154 4 0.213383 0.508726 0.570263
2152 2 0.237562 0.504385 0.574921
1188 4 0.16943 0.486582 0.603921
1186 2 0.178867 0.463506 0.605822
1173 4 0.205684 0.443793 0.595813
1187 4 0.188305 0.44043 0.607723
889 2 0.333165 0.487132 0.583789
891 4 0.32865 0.48136 0.607694
1001 4 0.45997 0.459641 0.585923
1269 4 0.455183 0.468027 0.602022
1267 2 0.465859 0.485976 0.615771
945 4 0.0356032 0.999413 0.676684
1082 4 0.0597564 0.0611449 0.664612
943 2 0.0457942 0.0210062 0.684104
944 4 0.0559852 0.0425994 0.691524
1076 4 0.0637821 0.0592538 0.684631
1075 2 0.064112 0.0782368 0.700901
1283 4 0.14064 0.0498989 0.664949
1282 2 0.140064 0.064318 0.685368
1284 4 0.139489 0.0787371 0.705787
1148 4 0.264722 0.0874223 0.687904
1147 2 0.267469 0.0632134 0.693522
1149 4 0.270216 0.0390045 0.69914
1092 4 0.312294 0.00813938 0.68914
1004 4 0.353817 0.0863969 0.750968
42 3 0.459114 0.05521 0.673664
41 1 0.453005 0.0773484 0.672348
43 3 0.429992 0.0789415 0.674849
1163 4 0.471115 0.0688966 0.687897
1162 2 0.487395 0.0570664 0.702736
44 3 0.463647 0.0890863 0.6893
864 4 0.058048 0.0982317 0.734864
1077 4 0.0644418 0.0972198 0.717171
1107 4 0.0780572 0.0952224 0.730396
851 4 0.082974 0.102014 0.71272
862 2 0.0355875 0.0995343 0.745773
850 2 0.0975729 0.120999 0.705535
852 4 0.112172 0.139984 0.69835
1105 2 0.0902485 0.0889541 0.751306
909 4 0.149279 0.0971453 0.703681
907 2 0.169941 0.11078 0.707191
1226 4 0.247552 0.0952535 0.683894
908 4 0.190604 0.124415 0.710701
1227 4 0.207535 0.118378 0.702989
1225 2 0.227544 0.106816 0.693441
887 4 0.322301 0.180831 0.674282
829 2 0.317545 0.155333 0.709736
830 4 0.317625 0.17451 0.693692
1194 4 0.326211 0.16863 0.659349
831 4 0.317464 0.136156 0.72578
1005 4 0.327319 0.119257 0.724157
1003 2 0.340568 0.102827 0.737563
3425 4 0.469537 0.0967731 0.670057
1177 2 0.00872502 0.238073 0.709217
1073 4 0.0737641 0.22079 0.74429
1072 2 0.095719 0.232419 0.741477
1074 4 0.117674 0.244049 0.738663
978 4 0.274335 0.196433 0.733401
1142 4 0.460479 0.171724 0.742611
1144 2 0.494166 0.174428 0.735483
1025 4 0.426887 0.171343 0.685744
1262 4 0.458518 0.195485 0.725165
1024 2 0.44357 0.173304 0.704265
1026 4 0.460253 0.175264 0.722786
1261 2 0.456836 0.219807 0.730709
1145 4 0.471132 0.183749 0.732703
1263 4 0.455154 0.24413 0.736254
1179 4 0.0277386 0.253732 0.704919
1209 4 0.151375 0.266959 0.702027
1207 2 0.142607 0.25988 0.724347
821 4 0.151383 0.281014 0.687401
820 2 0.172835 0.284895 0.675157
807 4 0.244435 0.314341 0.667862
1063 2 0.207567 0.325894 0.658569
1019 4 0.360157 0.321069 0.711969
3123 4 0.48302 0.26555 0.677422
3263 4 0.0279423 0.355783 0.678662
1280 4 0.0524242 0.363994 0.744266
1279 2 0.0547014 0.388179 0.738344
1281 4 0.0569785 0.412364 0.732421
894 4 0.0335828 0.361392 0.740166
892 2 0.0168027 0.344082 0.746796
1065 4 0.209731 0.350278 0.663662
1028 4 0.216858 0.382157 0.705044
1066 2 0.193027 0.367868 0.731996
1068 4 0.209936 0.365127 0.713782
1027 2 0.22733 0.404459 0.709304
1018 2 0.381241 0.33153 0.703533
1020 4 0.402326 0.341991 0.695096
1983 4 0.0636452 0.429833 0.725935
1981 2 0.0629669 0.449472 0.741395
1982 4 0.0622886 0.469111 0.756856
1029 4 0.237801 0.426761 0.713563
1175 4 0.204251 0.449824 0.733122
1174 2 0.195826 0.47169 0.724402
1176 4 0.1874 0.493557 0.715682
1138 2 0.257872 0.454964 0.690281
1140 4 0.24702 0.443167 0.709471
1139 4 0.268723 0.466761 0.671091
1987 2 0.294908 0.469487 0.735366
1229 4 0.315175 0.458972 0.699548
1989 4 0.313444 0.463455 0.719707
2028 4 0.283392 0.482166 0.673514
1230 4 0.356386 0.435986 0.682995
1228 2 0.335781 0.447479 0.691272
2991 4 0.00748811 0.0422348 0.783038
2989 2 0.00742073 0.0666225 0.777523
2049 4 0.102219 0.0202308 0.777125
1202 4 0.108851 0.0309775 0.792417
2047 2 0.120919 0.00456394 0.771644
1201 2 0.115206 0.0550648 0.794561
1203 4 0.121561 0.0791521 0.796704
1257 4 0.236384 0.0860712 0.769638
1255 2 0.234909 0.0903258 0.794233
817 2 0.322459 0.0405307 0.825473
1085 4 0.312505 0.0790872 0.83025
818 4 0.334468 0.0207869 0.815926
974 4 0.340879 0.00611947 0.801671
1113 4 0.434295 0.0480589 0.74889
1111 2 0.454235 0.0562552 0.761555
845 4 0.491888 0.0629412 0.781182
1112 4 0.474175 0.0644516 0.774219
2322 4 0.504771 0.0485192 0.776417
2990 4 0.00735336 0.0910101 0.772008
863 4 0.0131271 0.100837 0.756683
1125 4 0.0242869 0.139902 0.808169
1123 2 0.0433786 0.139652 0.824313
1124 4 0.0624704 0.139401 0.840456
834 4 0.00723365 0.143329 0.79911
1106 4 0.10244 0.0826859 0.772217
911 4 0.114071 0.10608 0.819049
34 3 0.11921 0.0924388 0.777825
31 1 0.126255 0.10516 0.795907
35 3 0.110152 0.120246 0.80154
32 3 0.130131 0.0911909 0.813767
33 3 0.145958 0.116215 0.790617
1256 4 0.233435 0.0945804 0.818828
840 4 0.246326 0.109235 0.822201
1084 2 0.293639 0.0876383 0.816245
1086 4 0.274773 0.0961894 0.80224
1023 4 0.395701 0.152965 0.823994
1131 4 0.178908 0.237282 0.785717
977 4 0.296488 0.217895 0.772763
918 4 0.292052 0.229902 0.788415
976 2 0.285412 0.207164 0.753082
1298 4 0.298785 0.212074 0.790683
1297 2 0.303927 0.197362 0.810235