ITEM: TIMESTEP
3150000
ITEM: NUMBER OF ATOMS
4590
ITEM: BOX BOUNDS pp pp pp
-9.9985700000000008e+00 9.9985700000000008e+00
-9.9985700000000008e+00 9.9985700000000008e+00
-9.9985700000000008e+00 9.9985700000000008e+00
ITEM: ATOMS id type xs ys zs
1667 4 0.00956561 0.0572654 0.0578929
701 4 0.025881 0.0671768 0.0624657
700 2 0.0473596 0.0795388 0.0657865
490 2 0.276844 0.0581133 0.0647741
492 4 0.274051 0.0355511 0.0543663
1475 4 0.280142 0.0265259 0.0715446
2974 2 0.459856 0.0165016 0.0275407
745 2 0.422741 0.0683635 0.025662
747 4 0.436488 0.0513123 0.0136009
2975 4 0.445265 0.0318267 0.0142207
2468 4 0.491145 0.999654 0.0524494
986 4 0.434751 0.0384741 0.000455733
702 4 0.0688382 0.0919009 0.0691073
476 4 0.0720702 0.110802 0.0608487
475 2 0.0707762 0.135615 0.0636448
477 4 0.0694822 0.160428 0.0664409
566 4 0.202062 0.131966 0.0164422
565 2 0.217116 0.147267 0.00361831
491 4 0.279638 0.0806754 0.075182
769 2 0.396424 0.152248 0.0236474
556 2 0.378312 0.0940266 0.0109929
558 4 0.388985 0.0874949 0.0326401
771 4 0.403274 0.129634 0.0154704
746 4 0.408995 0.0854148 0.037723
737 4 0.23838 0.195325 0.0438473
736 2 0.216404 0.20156 0.0540143
738 4 0.194428 0.207794 0.0641812
573 4 0.260019 0.26562 0.0500611
770 4 0.389573 0.174861 0.0318243
359 4 0.397341 0.188321 0.0192963
664 2 0.402317 0.207675 0.055834
665 4 0.398841 0.190086 0.0384063
666 4 0.405792 0.225264 0.0732616
323 4 0.405664 0.242099 0.0646166
358 2 0.389146 0.201122 0.999443
3338 4 0.0140558 0.249105 0.997924
292 2 0.152457 0.32468 0.0328088
294 4 0.133517 0.321091 0.0168857
482 4 0.25063 0.247785 0.0548998
293 4 0.171398 0.328269 0.0487319
507 4 0.182901 0.322322 0.0580181
287 4 0.18813 0.331234 0.0401768
286 2 0.203642 0.329502 0.0206433
288 4 0.219154 0.327771 0.00110985
481 2 0.227956 0.255592 0.0619798
505 2 0.191101 0.301117 0.0684225
483 4 0.205282 0.263398 0.0690598
506 4 0.199301 0.279911 0.0788268
571 2 0.276268 0.266837 0.0310969
572 4 0.292518 0.268054 0.0121327
357 4 0.310525 0.270749 0.00370991
355 2 0.317217 0.294838 0.00403365
623 4 0.390349 0.235669 0.0765315
956 4 0.333775 0.329598 0.017315
1069 2 0.40609 0.316707 0.0359362
322 2 0.415462 0.263427 0.0559972
324 4 0.42526 0.284755 0.0473779
1070 4 0.423875 0.299347 0.0331961
280 2 0.454379 0.305063 0.0540547
282 4 0.440629 0.291388 0.0382712
281 4 0.468128 0.318738 0.0698382
671 4 0.464457 0.335772 0.081468
329 4 0.0108917 0.396852 0.0673975
552 4 0.169299 0.332318 0.068096
456 4 0.198724 0.386918 0.0632564
454 2 0.189778 0.36393 0.0591719
455 4 0.180832 0.340941 0.0550873
1290 4 0.273325 0.407237 0.0475472
1288 2 0.282653 0.392695 0.0294725
1289 4 0.291981 0.378153 0.0113977
251 4 0.263155 0.425925 0.0493193
903 4 0.285504 0.362762 0.000536265
955 2 0.353157 0.334762 0.0322441
1071 4 0.388305 0.334067 0.0386763
957 4 0.372538 0.339925 0.0471733
741 4 0.387944 0.346509 0.0558181
739 2 0.3931 0.348667 0.0801889
1787 4 0.100114 0.49554 0.0538992
1786 2 0.0980696 0.476725 0.0702389
1690 2 0.112799 0.500977 0.0165116
626 4 0.189914 0.476561 0.0534205
625 2 0.175225 0.496745 0.0519858
245 4 0.191172 0.456731 0.0532386
244 2 0.214733 0.453681 0.0454449
246 4 0.238295 0.450631 0.0376511
250 2 0.263583 0.435234 0.0725214
272 4 0.255017 0.438958 0.0388362
271 2 0.262194 0.439484 0.0148905
1672 2 0.408105 0.439631 0.076865
853 2 0.397265 0.43802 0.0201923
854 4 0.414513 0.438471 0.0382882
855 4 0.380016 0.437569 0.00209646
37 3 0.364946 0.421249 0.00135956
1674 4 0.41971 0.444454 0.055249
564 4 0.428339 0.45322 0.0407984
563 4 0.469098 0.465393 0.0145083
562 2 0.448719 0.459306 0.0276534
228 4 0.486358 0.475212 0.020147
19 3 0.0721597 0.0202923 0.158627
16 1 0.071509 0.000147591 0.170124
582 4 0.246736 0.084099 0.154845
580 2 0.257184 0.06367 0.164779
1760 4 0.501187 0.0632848 0.140437
486 4 0.433407 0.999866 0.121191
1759 2 0.508642 0.0453438 0.124698
2724 4 0.490789 0.0791937 0.14422
2744 4 0.495811 0.0686656 0.158818
237 4 0.228967 0.0845723 0.168505
312 4 0.364532 0.126627 0.160254
628 2 0.383979 0.165255 0.16823
629 4 0.374888 0.142279 0.164408
310 2 0.360179 0.103319 0.168189
2722 2 0.480259 0.10177 0.146369
2723 4 0.469729 0.124346 0.148518
391 2 0.0440695 0.200602 0.159799
392 4 0.0532045 0.223652 0.156575
536 4 0.180694 0.250961 0.130599
460 2 0.324216 0.223224 0.114393
461 4 0.301945 0.212302 0.111248
354 4 0.289665 0.209707 0.127522
352 2 0.277909 0.220403 0.146824
353 4 0.266154 0.231098 0.166127
630 4 0.393071 0.188232 0.172052
462 4 0.346487 0.234147 0.117538
255 4 0.35748 0.233245 0.132705
253 2 0.368795 0.214809 0.145246
622 2 0.376231 0.24036 0.0966279
624 4 0.362113 0.245051 0.116724
765 4 0.350432 0.250019 0.130313
537 4 0.207653 0.276657 0.0972271
535 2 0.194173 0.263809 0.113913
754 2 0.235273 0.255167 0.161013
756 4 0.22326 0.277064 0.159847
301 2 0.317979 0.316508 0.142848
303 4 0.314447 0.298491 0.159822
764 4 0.325468 0.282459 0.159038
763 2 0.33795 0.266239 0.144675
12 3 0.416901 0.32579 0.123066
527 4 0.474482 0.320808 0.0877941
647 4 0.0562047 0.359869 0.147317
315 4 0.999856 0.403684 0.133024
550 2 0.153118 0.332985 0.087146
551 4 0.136937 0.333652 0.106196
302 4 0.321511 0.334524 0.125874
387 4 0.331995 0.350959 0.124667
385 2 0.355979 0.354006 0.11829
493 2 0.394422 0.392109 0.110492
495 4 0.39592 0.367362 0.113734
386 4 0.379963 0.357054 0.111912
15 3 0.384568 0.344413 0.123872
740 4 0.398256 0.350826 0.10456
14 3 0.41648 0.362642 0.115687
11 1 0.406847 0.345783 0.128391
13 3 0.410099 0.350036 0.150969
672 4 0.422496 0.344008 0.107394
670 2 0.443477 0.33989 0.094431
1788 4 0.0960249 0.45791 0.0865786
1791 4 0.0574075 0.499385 0.117961
1465 2 0.066693 0.469047 0.113289
1466 4 0.0468062 0.481864 0.121376
1467 4 0.0865798 0.456229 0.105202
638 4 0.206411 0.478727 0.153641
637 2 0.184376 0.486857 0.145064
639 4 0.162342 0.494987 0.136488
252 4 0.264011 0.444542 0.0957236
609 4 0.278037 0.433966 0.106503
607 2 0.301097 0.427943 0.114062
608 4 0.324157 0.42192 0.121622
659 4 0.332618 0.433647 0.106922
494 4 0.392924 0.416856 0.107249
660 4 0.382423 0.432462 0.111258
1673 4 0.3965 0.434808 0.0984809
658 2 0.35752 0.433055 0.10909
524 4 0.400726 0.494744 0.126741
523 2 0.397732 0.470547 0.1212
525 4 0.394738 0.446349 0.115659
2480 4 0.0346779 0.00414278 0.187937
2479 2 0.0296668 0.0274719 0.195408
380 4 0.0299066 0.0593813 0.219222
2481 4 0.0246557 0.050801 0.202879
379 2 0.0281725 0.0836168 0.213322
578 4 0.0844193 0.022189 0.177598
20 3 0.0844323 0.00145558 0.18883
577 2 0.100232 0.0394419 0.186401
579 4 0.116044 0.0566948 0.195203
674 4 0.154259 0.0138468 0.239679
450 4 0.125994 0.0689704 0.183217
448 2 0.14949 0.077147 0.180718
673 2 0.132945 0.00452555 0.248843
1504 2 0.235955 0.00371677 0.194707
235 2 0.206676 0.0788483 0.178279
236 4 0.184385 0.0731243 0.188053
689 4 0.167595 0.00350947 0.227639
581 4 0.267632 0.043241 0.174712
1506 4 0.255252 0.0192816 0.191461
654 4 0.264109 0.0375367 0.192513
652 2 0.270445 0.0446695 0.215625
653 4 0.276782 0.0518023 0.238736
758 4 0.338577 0.0756399 0.186062
759 4 0.352361 0.0601224 0.231559
757 2 0.345469 0.0678812 0.20881
350 4 0.368109 0.057397 0.237093
349 2 0.392727 0.0555907 0.233111
22 3 0.349647 0.0571245 0.247707
311 4 0.355826 0.080011 0.176125
632 4 0.362415 0.068305 0.248294
480 4 0.431972 0.0447694 0.241085
351 4 0.417345 0.0537844 0.22913
743 4 0.496371 0.0796157 0.248711
2743 2 0.498601 0.0526732 0.177835
513 4 0.0358159 0.161277 0.175202
511 2 0.0279076 0.138989 0.183318
512 4 0.0199992 0.116701 0.191434
381 4 0.0264384 0.107852 0.207422
449 4 0.172986 0.0853235 0.178219
30 3 0.328623 0.13357 0.231146
26 1 0.346485 0.14472 0.239823
28 3 0.359135 0.15395 0.2227
761 4 0.401741 0.135557 0.220442
521 4 0.46684 0.144395 0.213522
762 4 0.449856 0.138292 0.207094
760 2 0.425799 0.136924 0.213768
332 4 0.460176 0.124934 0.216157
331 2 0.468909 0.106787 0.230977
520 2 0.481803 0.163228 0.206692
333 4 0.477641 0.0886404 0.245797
2483 4 0.000691247 0.248718 0.227483
393 4 0.0349344 0.177551 0.163024
337 2 0.0651145 0.245895 0.190753
396 4 0.0179925 0.244354 0.235755
339 4 0.0611509 0.226516 0.175458
546 4 0.0958724 0.248188 0.221155
544 2 0.117511 0.245399 0.233369
755 4 0.247286 0.233269 0.162178
279 4 0.268173 0.215945 0.221174
277 2 0.262632 0.227501 0.199705
278 4 0.257091 0.239057 0.178235
254 4 0.38011 0.196373 0.157786
394 2 0.0289769 0.264476 0.225773
395 4 0.0399613 0.284598 0.215792
338 4 0.0690782 0.265274 0.206048
363 4 0.0542178 0.277257 0.203288
361 2 0.0616025 0.30104 0.201045
362 4 0.0689872 0.324823 0.198802
372 4 0.0864566 0.327967 0.191983
733 2 0.144359 0.334079 0.24492
545 4 0.13915 0.242609 0.245582
612 4 0.210959 0.289631 0.169394
611 4 0.212418 0.314093 0.212986
610 2 0.211688 0.301862 0.19119
344 4 0.215518 0.316663 0.232498
343 2 0.194004 0.310113 0.243425
284 4 0.273698 0.248168 0.173501
285 4 0.307681 0.284159 0.166392
283 2 0.290689 0.266163 0.169947
729 4 0.304295 0.302277 0.175356
727 2 0.288537 0.315697 0.189383
308 4 0.319652 0.290774 0.176539
728 4 0.272778 0.329118 0.203409
498 4 0.339979 0.284593 0.231285
307 2 0.334817 0.285533 0.195716
309 4 0.349982 0.280292 0.214892
749 4 0.0576389 0.342644 0.203492
648 4 0.0716143 0.341831 0.191339
748 2 0.0616824 0.355604 0.224489
646 2 0.0639095 0.35085 0.169328
750 4 0.0657259 0.368563 0.245486
370 2 0.106595 0.336337 0.204213
371 4 0.126733 0.344708 0.216442
734 4 0.12847 0.350004 0.234006
417 4 0.13453 0.362448 0.223877
299 4 0.130508 0.369415 0.241171
415 2 0.146864 0.375244 0.206289
298 2 0.106242 0.374371 0.244599
300 4 0.0819754 0.379327 0.248028
416 4 0.159198 0.388039 0.188701
290 4 0.206095 0.424087 0.180839
289 2 0.192102 0.403405 0.182117
291 4 0.178108 0.382724 0.183395
445 2 0.382192 0.38128 0.239642
447 4 0.406042 0.388556 0.237797
446 4 0.358342 0.374003 0.241487
596 4 0.496508 0.398095 0.159056
595 2 0.486698 0.390349 0.180712
644 4 0.415929 0.386672 0.222457
643 2 0.440485 0.382822 0.219744
645 4 0.465041 0.378971 0.217031
597 4 0.476888 0.382604 0.202367
264 4 0.0077913 0.437624 0.274863
767 4 0.222532 0.478836 0.166826
766 2 0.222918 0.454002 0.16971
768 4 0.223304 0.429169 0.172593
412 2 0.239528 0.486491 0.22855
414 4 0.238112 0.488391 0.203659
1574 4 0.287957 0.507005 0.213955
2756 4 0.000989365 0.0661191 0.303396
234 4 0.000402767 0.047404 0.298126
232 2 0.0235217 0.0379643 0.296866
233 4 0.0466406 0.0285247 0.295607
317 4 0.0604106 0.0236117 0.310106
1404 4 0.0584136 0.0134893 0.294046
1402 2 0.0741567 0.00384944 0.277181
428 4 0.0608109 0.0031715 0.310283
316 2 0.0742252 0.0400011 0.322979
318 4 0.0880399 0.0563905 0.335853
693 4 0.313777 0.05544 0.266456
691 2 0.303324 0.0738864 0.279709
24 3 0.326938 0.0417803 0.273427
25 3 0.342957 0.0204168 0.246882
21 1 0.345934 0.0383969 0.260538
23 3 0.364314 0.0349491 0.274274
479 4 0.451439 0.036207 0.286344
478 2 0.441705 0.0404882 0.263714
2664 4 0.469097 0.0323691 0.291948
1428 4 0.450692 0.0297364 0.301808
258 4 0.439616 0.0448274 0.300798
2662 2 0.492067 0.0400924 0.298105
256 2 0.431773 0.0576922 0.320752
1426 2 0.444303 0.00620885 0.307359
403 2 0.227075 0.15709 0.319954
404 4 0.24131 0.138041 0.327678
692 4 0.292871 0.0923329 0.292962
721 2 0.261515 0.108074 0.308622
723 4 0.27236 0.0944116 0.290709
722 4 0.25067 0.121737 0.326536
27 3 0.338954 0.161646 0.25346
29 3 0.359535 0.130214 0.25238
631 2 0.358734 0.0919153 0.255655
707 4 0.359851 0.13185 0.271526
633 4 0.355052 0.115526 0.263015
706 2 0.362685 0.136711 0.295888
708 4 0.365519 0.141572 0.32025
444 4 0.0197714 0.228169 0.301939
442 2 0.0161396 0.232617 0.277604
443 4 0.0125077 0.237065 0.253268
600 4 0.104969 0.209521 0.331693
405 4 0.212839 0.176139 0.31223
473 4 0.2143 0.195761 0.314601
418 2 0.409531 0.254544 0.315806
419 4 0.418705 0.23214 0.322058
269 4 0.413288 0.222834 0.340282
402 4 0.139566 0.25455 0.259727
735 4 0.160248 0.318155 0.255834
375 4 0.149504 0.32446 0.325073
400 2 0.147821 0.278058 0.261834
676 2 0.16668 0.323831 0.293549
677 4 0.170554 0.312427 0.271638
401 4 0.156075 0.301565 0.26394
345 4 0.172489 0.303563 0.254352
378 4 0.279267 0.288927 0.295545
376 2 0.303747 0.293772 0.29711
377 4 0.328226 0.298617 0.298676
615 4 0.340072 0.313465 0.304127
497 4 0.333406 0.298058 0.278995
496 2 0.336692 0.291326 0.25514
541 2 0.364311 0.289481 0.306764
542 4 0.383837 0.280182 0.319312
543 4 0.344785 0.298781 0.294217
420 4 0.400356 0.276947 0.309554
2537 4 0.474256 0.308408 0.320398
364 2 0.999782 0.388514 0.286763
365 4 0.0244444 0.392458 0.287934
603 4 0.031008 0.403449 0.304248
601 2 0.0457215 0.40709 0.324133
678 4 0.162806 0.335235 0.315461
510 4 0.165379 0.355773 0.313849
508 2 0.184179 0.372192 0.315318
509 4 0.202979 0.388611 0.316787
434 4 0.323181 0.376341 0.318239
433 2 0.311168 0.398269 0.318105
613 2 0.336422 0.336524 0.313079
614 4 0.332773 0.359583 0.322032
1757 4 0.027168 0.439412 0.272406
1756 2 0.0504994 0.448398 0.272115
1758 4 0.0738309 0.457383 0.271825
1775 4 0.0805126 0.472817 0.281598
775 2 0.0584387 0.487895 0.313297
776 4 0.0449239 0.488362 0.334328
777 4 0.0719534 0.487429 0.292266
1776 4 0.12586 0.452237 0.286155
1774 2 0.103186 0.462527 0.283876
413 4 0.240943 0.48459 0.253441
1436 4 0.252431 0.469391 0.259984
1435 2 0.256424 0.456142 0.28081
4 3 0.250041 0.421765 0.306396
1437 4 0.260418 0.442894 0.301635
3 3 0.271238 0.450181 0.320094
1 1 0.26422 0.428336 0.323548
436 2 0.309117 0.453046 0.320611
438 4 0.289747 0.437251 0.32134
2 3 0.282629 0.414543 0.323674
435 4 0.299155 0.420197 0.317971
437 4 0.328486 0.468841 0.319881
1801 2 0.362198 0.485671 0.31741
1802 4 0.337288 0.486497 0.31941
1803 4 0.387108 0.484845 0.315411
119 3 0.488339 0.463952 0.330323
732 4 0.0994359 0.0717304 0.333793
730 2 0.122957 0.0722494 0.342258
731 4 0.146479 0.0727683 0.350722
606 4 0.16586 0.0698421 0.35409
604 2 0.183792 0.0817942 0.36677
257 4 0.423929 0.070557 0.340706
699 4 0.376176 0.0584698 0.375331
1699 2 0.366893 0.0198729 0.379063
1700 4 0.377568 0.0402747 0.369317
697 2 0.396768 0.0690237 0.365856
698 4 0.417359 0.0795777 0.35638
397 2 0.0724423 0.0928738 0.352478
398 4 0.0611246 0.114304 0.358629
2584 2 0.0247368 0.123728 0.350469
2586 4 0.0479424 0.129138 0.358045
458 4 0.0473813 0.146038 0.369172
457 2 0.0463187 0.156063 0.392054
399 4 0.08376 0.0714436 0.346327
605 4 0.201723 0.0937463 0.37945
248 4 0.219451 0.102398 0.382885
247 2 0.229481 0.112141 0.362157
249 4 0.239512 0.121883 0.341429
683 4 0.252654 0.135079 0.341747
682 2 0.275325 0.144289 0.346882
684 4 0.297996 0.153499 0.352017
319 2 0.330533 0.156551 0.338837
320 4 0.309366 0.168966 0.34363
321 4 0.351701 0.144136 0.334044
726 4 0.403301 0.140425 0.397934
717 4 0.358714 0.147149 0.352139
715 2 0.372903 0.147896 0.372713
716 4 0.387092 0.148642 0.393287
467 4 0.403527 0.159217 0.399262
724 2 0.419919 0.123615 0.406086
725 4 0.436537 0.106805 0.414237
642 4 0.497802 0.108223 0.389212
641 4 0.455977 0.123932 0.366747
640 2 0.47689 0.116077 0.377979
459 4 0.0452561 0.166088 0.414935
598 2 0.117848 0.211404 0.353041
599 4 0.130727 0.213288 0.37439
389 4 0.137989 0.244579 0.384236
686 4 0.129975 0.226962 0.388454
685 2 0.116036 0.220584 0.408208
275 4 0.143884 0.226477 0.378513
274 2 0.167644 0.218916 0.376645
474 4 0.201538 0.217966 0.357552
472 2 0.207919 0.206864 0.336077
276 4 0.191404 0.211355 0.374778
268 2 0.436441 0.215258 0.345914
270 4 0.459594 0.207683 0.351546
452 4 0.473898 0.196951 0.360586
451 2 0.473386 0.199713 0.385431
453 4 0.472874 0.202475 0.410277
347 4 0.0505195 0.312732 0.380015
346 2 0.0349535 0.31006 0.399399
618 4 0.0637372 0.306285 0.366206
348 4 0.0193875 0.307387 0.418783
2802 4 0.0035244 0.296907 0.412515
373 2 0.140738 0.31294 0.34546
388 2 0.127475 0.265783 0.376172
616 2 0.0887338 0.305883 0.366641
390 4 0.11696 0.286986 0.368107
617 4 0.11373 0.30548 0.367076
374 4 0.131971 0.301421 0.365848
488 4 0.360521 0.289012 0.408001
602 4 0.0604349 0.410731 0.344019
549 4 0.072411 0.397223 0.354186
547 2 0.0781978 0.411102 0.374162
240 4 0.335625 0.37813 0.386251
335 4 0.326557 0.377576 0.405263
238 2 0.352829 0.385033 0.369472
239 4 0.370034 0.391935 0.352693
587 4 0.370958 0.411375 0.349019
752 4 0.46998 0.39003 0.380661
561 4 0.474797 0.370858 0.380888
751 2 0.480613 0.408622 0.367759
559 2 0.484682 0.36508 0.403116
500 4 0.0390166 0.47208 0.342701
499 2 0.0519181 0.461179 0.361138
501 4 0.0648197 0.450279 0.379575
407 4 0.0810296 0.443429 0.387298
548 4 0.0839845 0.424981 0.394139
406 2 0.0939964 0.454153 0.405792
568 2 0.137679 0.489707 0.422715
1555 2 0.23994 0.485218 0.384369
1557 4 0.254711 0.466321 0.391433
5 3 0.253483 0.426697 0.343565
586 2 0.378896 0.434639 0.344444
593 4 0.392681 0.475885 0.332761
588 4 0.386834 0.457903 0.339868
592 2 0.412694 0.488034 0.34154
713 4 0.448107 0.499305 0.361298
594 4 0.432707 0.500182 0.35032
712 2 0.467285 0.484207 0.35587
714 4 0.486462 0.469109 0.350443
753 4 0.491245 0.427214 0.354856
117 3 0.491647 0.448334 0.364349
367 2 0.0771277 0.0083583 0.441655
720 4 0.999276 0.00753286 0.453648
718 2 0.0220689 0.997346 0.452279
1781 4 0.116043 0.00426761 0.430492
368 4 0.101645 0.0130276 0.440141
341 4 0.21133 0.00427645 0.504467
342 4 0.224896 0.0523926 0.505693
340 2 0.218113 0.0283345 0.50508
963 4 0.314496 0.0461675 0.431327
432 4 0.327709 0.0539158 0.4447
430 2 0.333298 0.0627578 0.46741
961 2 0.324424 0.026389 0.419689
431 4 0.338887 0.0715999 0.490121
1216 2 0.427613 0.0574745 0.504578
1218 4 0.451883 0.0611207 0.499795
260 4 0.055044 0.183793 0.413506
259 2 0.0707276 0.198323 0.42647
261 4 0.0864112 0.212853 0.439435
687 4 0.102098 0.214207 0.427963
1035 4 0.102583 0.224019 0.444398
1033 2 0.108661 0.243598 0.458712
466 2 0.410637 0.17702 0.415315
409 2 0.408202 0.22693 0.447286
411 4 0.397035 0.249301 0.447338
468 4 0.417748 0.194823 0.431367
410 4 0.419369 0.204558 0.447234
574 2 0.419703 0.190133 0.487492
515 4 0.480016 0.201108 0.428764
575 4 0.423387 0.195944 0.463454
516 4 0.433467 0.195562 0.446176
514 2 0.456742 0.198335 0.43747
1034 4 0.114739 0.263177 0.473026
696 4 0.111234 0.271843 0.489595
1260 4 0.126551 0.278299 0.480592
1258 2 0.130903 0.302002 0.473927
1259 4 0.135255 0.325705 0.467261
9 3 0.151834 0.322117 0.426392
503 4 0.149992 0.332241 0.481145
487 2 0.37141 0.27498 0.425599
489 4 0.382299 0.260947 0.443197
266 4 0.391864 0.264049 0.459673
265 2 0.400021 0.276924 0.479493
267 4 0.408179 0.289799 0.499314
3308 4 0.477322 0.3292 0.478704
1011 4 0.466525 0.315019 0.471634
1009 2 0.460159 0.298129 0.488937
326 4 0.0835378 0.361975 0.470278
7 3 0.147797 0.334093 0.461789
6 1 0.151234 0.34085 0.440071
327 4 0.128898 0.34434 0.45878
325 2 0.106218 0.353158 0.464529
10 3 0.134214 0.354578 0.433704
709 2 0.145944 0.404895 0.496253
8 3 0.171436 0.352198 0.438853
502 2 0.159746 0.350601 0.495036
334 2 0.317157 0.378826 0.428398
336 4 0.307757 0.380075 0.451534
668 4 0.303295 0.391844 0.465657
882 4 0.322151 0.385244 0.462259
880 2 0.331252 0.374905 0.483126
560 4 0.494566 0.359303 0.425345
3307 2 0.489417 0.339248 0.459264
1383 4 0.992182 0.459294 0.473069
1381 2 0.99379 0.484227 0.474039
384 4 0.133781 0.444187 0.485085
383 4 0.114696 0.458483 0.441129
711 4 0.133006 0.426059 0.49311
408 4 0.106963 0.464877 0.424286
382 2 0.124238 0.451335 0.463107
569 4 0.120849 0.474957 0.433867
772 2 0.314408 0.470288 0.471253
667 2 0.298232 0.416284 0.464158
634 2 0.278063 0.45289 0.425976
774 4 0.292626 0.46131 0.462878
636 4 0.264813 0.45424 0.404814
669 4 0.293168 0.440724 0.46266
635 4 0.291312 0.45154 0.447137
773 4 0.33619 0.479265 0.479628
1058 4 0.0928177 0.0794316 0.525033
1152 4 0.236898 0.0634146 0.517774
1150 2 0.2456 0.0620303 0.541173
1151 4 0.254302 0.060646 0.564573
1181 4 0.252339 0.0784751 0.571095
1032 4 0.240963 0.0626546 0.577981
842 4 0.388146 0.0618451 0.519453
1217 4 0.403344 0.0538283 0.509362
841 2 0.364534 0.0684559 0.514557
843 4 0.340922 0.0750668 0.509662
3007 2 0.494062 0.0381047 0.573586
3009 4 0.491957 0.0461325 0.55
1270 2 0.0938652 0.150357 0.555032
1271 4 0.0983736 0.127684 0.564561
1057 2 0.101714 0.0962609 0.541245
1059 4 0.11061 0.11309 0.557456
1155 4 0.116437 0.125988 0.570123
939 4 0.101709 0.111581 0.57414
1153 2 0.140674 0.128889 0.575536
1154 4 0.164912 0.131791 0.58095
1180 2 0.24616 0.101363 0.579041
898 2 0.249281 0.157703 0.5647
900 4 0.2403 0.137243 0.575921
1221 4 0.176445 0.144335 0.570498
1219 2 0.199787 0.138694 0.577466
1199 4 0.0266335 0.223684 0.565559
879 4 0.080228 0.191194 0.545463
877 2 0.0624094 0.203608 0.557856
1272 4 0.0893568 0.173029 0.545503
878 4 0.0445907 0.216022 0.570248
1198 2 0.00394963 0.224508 0.555073
695 4 0.0971177 0.268129 0.537424
651 4 0.205492 0.221569 0.547558
858 4 0.195022 0.224101 0.530433
649 2 0.224869 0.205834 0.546102
650 4 0.244246 0.190099 0.544646
856 2 0.192534 0.248923 0.532126
899 4 0.258262 0.178162 0.553479
576 4 0.41602 0.184321 0.51153
2455 2 0.484407 0.25142 0.515257
982 2 0.0130316 0.283126 0.580306
984 4 0.993408 0.28505 0.564931
694 2 0.104176 0.269986 0.513509
946 2 0.175554 0.287176 0.567659
857 4 0.190046 0.273744 0.533819
947 4 0.193349 0.279504 0.551859
798 4 0.212674 0.276431 0.552593
796 2 0.231779 0.286344 0.565317
804 4 0.27793 0.324501 0.511363
797 4 0.250884 0.296258 0.578041
872 4 0.379781 0.316529 0.566891
2457 4 0.464519 0.266289 0.512331
1010 4 0.453792 0.28124 0.50624
936 4 0.991628 0.354993 0.514929
3263 4 0.0466278 0.344073 0.584498
710 4 0.158881 0.383731 0.499396
504 4 0.169501 0.36896 0.508927
1189 2 0.242631 0.372415 0.57476
1191 4 0.225435 0.390092 0.578887
803 4 0.266892 0.349968 0.55296
802 2 0.272411 0.337235 0.532161
1190 4 0.259827 0.354739 0.570633
1238 4 0.276355 0.358187 0.567901
1237 2 0.299514 0.367444 0.569668
1239 4 0.322673 0.376702 0.571436
930 4 0.333395 0.388766 0.559402
929 4 0.353252 0.371552 0.516857
881 4 0.340353 0.364565 0.503993
928 2 0.343323 0.380159 0.53813
2244 4 0.119285 0.489309 0.587403
1160 4 0.13008 0.471282 0.588658
1081 2 0.0689821 0.067369 0.64524
4337 4 0.0221452 0.00786101 0.656491
1082 4 0.0696629 0.0515796 0.664615
1083 4 0.0683013 0.0831585 0.625865
825 4 0.150013 0.0670985 0.661271
823 2 0.157322 0.0440392 0.667598
1283 4 0.147403 0.0857064 0.659257
1030 2 0.243882 0.0444649 0.594886
1031 4 0.246802 0.0262752 0.611791
2133 4 0.180949 0.0115984 0.6689
951 4 0.265158 0.019549 0.609991
949 2 0.28693 0.00763936 0.613044
950 4 0.308702 0.99573 0.616097
3008 4 0.496167 0.030077 0.597173
809 4 0.48023 0.0254347 0.60887
808 2 0.471041 0.0406686 0.626439
810 4 0.461851 0.0559025 0.644008
45 3 0.46568 0.0789011 0.644582
41 1 0.457967 0.0721504 0.664919
1127 4 0.055726 0.0950346 0.61843
1126 2 0.0341824 0.0942706 0.605762
1128 4 0.0126388 0.0935066 0.593095
938 4 0.0744094 0.0957153 0.612918
937 2 0.0880589 0.103648 0.593529
1182 4 0.239981 0.124251 0.586987
1211 4 0.250945 0.141113 0.640938
1210 2 0.243577 0.142516 0.617086
1220 4 0.223128 0.133052 0.584433
1212 4 0.236209 0.143919 0.593233
1227 4 0.257045 0.127877 0.649186
908 4 0.237252 0.13378 0.651757
1282 2 0.165404 0.102985 0.657638
1284 4 0.183404 0.120263 0.656019
907 2 0.214648 0.131087 0.6621
888 4 0.267371 0.146895 0.647759
886 2 0.289202 0.154752 0.657077
1194 4 0.32648 0.16658 0.655307
887 4 0.311034 0.162608 0.666396
3425 4 0.479437 0.0885645 0.661898
3424 2 0.498177 0.105101 0.661165
1244 4 0.0582743 0.223379 0.583893
1243 2 0.047804 0.243217 0.594937
1192 2 0.334277 0.176388 0.63367
1193 4 0.342074 0.186197 0.612032
3123 4 0.49415 0.225906 0.62394
983 4 0.0326553 0.281203 0.595681
1245 4 0.0373337 0.263056 0.605982
948 4 0.157759 0.294848 0.58346
1135 2 0.169762 0.32733 0.609265
1136 4 0.167632 0.308433 0.59303
790 2 0.267308 0.324594 0.588807
791 4 0.263816 0.300098 0.592403
871 2 0.385015 0.323561 0.590307
873 4 0.390249 0.330594 0.613724
813 4 0.395444 0.324177 0.631892
954 4 0.461134 0.277823 0.592091
952 2 0.465481 0.30168 0.598182
3262 2 0.0555688 0.365503 0.593773
1041 4 0.0679124 0.394087 0.621354
3264 4 0.0645098 0.386932 0.603047
3240 4 0.0521898 0.399568 0.611993
3238 2 0.0284806 0.40732 0.613712
3239 4 0.0047713 0.415072 0.615431
1039 2 0.0912371 0.393972 0.630361
1040 4 0.114562 0.393857 0.639368
993 4 0.13255 0.390367 0.629533
991 2 0.150893 0.373772 0.633184
822 4 0.166472 0.33998 0.644127
992 4 0.169235 0.357177 0.636836
1137 4 0.171892 0.346226 0.6255
1064 4 0.182302 0.349194 0.641265
897 4 0.185717 0.358864 0.623843
896 4 0.209804 0.387862 0.590986
895 2 0.197761 0.373363 0.607415
1172 4 0.221431 0.403383 0.592617
1171 2 0.230992 0.423735 0.603551
1063 2 0.197506 0.358359 0.658872
792 4 0.270801 0.34909 0.585211
811 2 0.394986 0.344277 0.646757
927 4 0.395409 0.381336 0.651904
812 4 0.394528 0.364377 0.661621
925 2 0.410575 0.399879 0.644743
953 4 0.469828 0.325538 0.604273
906 4 0.481094 0.34343 0.6066
904 2 0.498999 0.358674 0.598102
926 4 0.425742 0.418423 0.637582
540 4 0.111104 0.472123 0.587124
539 4 0.0998115 0.424779 0.598602
538 2 0.105458 0.448451 0.592863
1159 2 0.154911 0.472856 0.591134
1186 2 0.207654 0.473032 0.610678
1173 4 0.240553 0.444088 0.614485
1187 4 0.228546 0.4598 0.614368
1188 4 0.186761 0.486263 0.606988
1161 4 0.179742 0.47443 0.593609
1228 2 0.303379 0.467206 0.668674
1230 4 0.308686 0.46498 0.644342
1002 4 0.434901 0.433109 0.626698
1911 4 0.444081 0.499282 0.615763
1001 4 0.447125 0.481358 0.621864
1000 2 0.441013 0.457234 0.624281
1269 4 0.453898 0.495818 0.63245
1267 2 0.457721 0.502615 0.656206
944 4 0.0692371 0.023794 0.685566
943 2 0.0481136 0.0115633 0.680145
1076 4 0.0690706 0.0433625 0.68248
1075 2 0.0716087 0.0619034 0.699063
824 4 0.16463 0.0209799 0.673926
2256 4 0.173528 0.0110906 0.687618
1149 4 0.240671 0.0306375 0.696053
1147 2 0.250346 0.0500982 0.68369
1148 4 0.260021 0.0695589 0.671326
1226 4 0.270898 0.0809099 0.659329
1092 4 0.328377 0.00278642 0.689107
1004 4 0.358429 0.0759183 0.725406
42 3 0.455475 0.0492825 0.664868
43 3 0.437369 0.0819309 0.669219
1163 4 0.470268 0.0544432 0.681573
1162 2 0.484486 0.0443074 0.69947
44 3 0.473128 0.0780063 0.681479
4581 4 0.494806 0.0173427 0.74297
2321 4 0.493499 0.0345973 0.73571
864 4 0.0659248 0.0851118 0.732591
1077 4 0.0741469 0.0804443 0.715645
851 4 0.0689162 0.0971096 0.703824
850 2 0.0569261 0.118266 0.698008
852 4 0.044936 0.139422 0.692191
1107 4 0.0766066 0.0965439 0.721082
1105 2 0.0970828 0.0986789 0.735271
1106 4 0.117559 0.100814 0.749461
909 4 0.192043 0.128393 0.672443
1225 2 0.263971 0.104394 0.654257
830 4 0.32569 0.15092 0.667928
829 2 0.343877 0.136057 0.676502
1005 4 0.349433 0.118425 0.700648
1003 2 0.353931 0.0971717 0.713027
831 4 0.362063 0.121194 0.685077
3268 2 0.487226 0.150396 0.739627
977 4 0.313795 0.232586 0.736422
918 4 0.296521 0.240231 0.744583
1297 2 0.278111 0.207788 0.739292
1299 4 0.257915 0.193134 0.740883
1298 4 0.298307 0.222443 0.737701
976 2 0.337519 0.239135 0.732009
978 4 0.361243 0.245684 0.727597
1025 4 0.391833 0.199566 0.695152
1024 2 0.41139 0.205757 0.709447
1020 4 0.377326 0.254675 0.733241
3270 4 0.496248 0.171726 0.730202
1142 4 0.433786 0.206902 0.741962
1144 2 0.472209 0.201696 0.727839
1262 4 0.438036 0.224746 0.737223
1026 4 0.430947 0.211949 0.723743
1261 2 0.439562 0.249259 0.732539
1145 4 0.448918 0.210626 0.729559
1146 4 0.4955 0.192766 0.726118
1178 4 0.00599084 0.252526 0.724474
1073 4 0.0770178 0.261489 0.722022
1177 2 0.0268571 0.264999 0.718625
1179 4 0.0477233 0.277471 0.712776
820 2 0.154221 0.328905 0.6629
1072 2 0.101725 0.259474 0.725291
1208 4 0.141902 0.268332 0.722759
1074 4 0.126432 0.25746 0.72856
1207 2 0.144459 0.290659 0.711797
821 4 0.141969 0.317829 0.681672
1209 4 0.147017 0.312986 0.700836
1130 4 0.143651 0.257401 0.738479
815 4 0.112982 0.333825 0.710149
806 4 0.254983 0.319477 0.693134
1263 4 0.441087 0.273772 0.727855
892 2 0.0422389 0.366827 0.711273
1280 4 0.0725818 0.376798 0.722427
816 4 0.071079 0.361038 0.712225
894 4 0.0594506 0.364996 0.729317
893 4 0.0250273 0.368658 0.693229
942 4 0.125594 0.342475 0.722716
1279 2 0.0830882 0.394404 0.736739
814 2 0.0920306 0.347431 0.711187
940 2 0.145513 0.355769 0.729903
941 4 0.165433 0.369064 0.737089
1080 4 0.170264 0.386247 0.746482
805 2 0.236288 0.336066 0.692424
1065 4 0.21271 0.367524 0.676479
807 4 0.217594 0.352655 0.691714
1028 4 0.217568 0.385136 0.680557
1066 2 0.194915 0.375343 0.712017
1068 4 0.211217 0.369486 0.693986
1027 2 0.227399 0.407978 0.677953
1067 4 0.178613 0.3812 0.730048
1206 4 0.387317 0.380501 0.669625
1204 2 0.367088 0.389341 0.681365
1205 4 0.346859 0.39818 0.693105
1029 4 0.237231 0.430819 0.675348
1176 4 0.188397 0.470722 0.759217
1174 2 0.186265 0.478888 0.735681
1140 4 0.243091 0.43059 0.693881
1175 4 0.184133 0.487054 0.712145
2172 4 0.184321 0.491552 0.690974
2026 2 0.284209 0.501965 0.70702
1138 2 0.261366 0.447632 0.694761
1139 4 0.279641 0.464675 0.695642
1987 2 0.308352 0.450173 0.729818
1229 4 0.298072 0.469432 0.693006
1989 4 0.306094 0.465169 0.709939
2028 4 0.289931 0.477665 0.705624
1988 4 0.310609 0.435176 0.749698
1101 4 0.469281 0.499715 0.69443
1099 2 0.484718 0.486669 0.70915
1100 4 0.500155 0.473623 0.72387
862 2 0.0466118 0.0838453 0.748421
2989 2 0.020501 0.0418993 0.775545
2990 4 0.023866 0.0665519 0.773074
2991 4 0.017136 0.0172468 0.778016
863 4 0.0272988 0.0825787 0.76425
3083 4 0.00894702 0.0801556 0.766563
2049 4 0.101815 0.0117559 0.780997
1202 4 0.11509 0.0252305 0.783939
1201 2 0.122677 0.0488835 0.781084
1203 4 0.130264 0.0725365 0.77823
1085 4 0.318398 0.0661287 0.806544
960 4 0.330058 0.0654637 0.821634
819 4 0.33617 0.0716179 0.802715
1050 4 0.349824 0.0169333 0.785296
817 2 0.34952 0.0509716 0.798168
818 4 0.36287 0.0303253 0.793621
974 4 0.359977 0.0129539 0.800802
2320 2 0.489672 0.046018 0.757621
844 2 0.497301 0.0647658 0.819964
845 4 0.488866 0.0573139 0.797637
2322 4 0.485844 0.0574388 0.779532
1112 4 0.4815 0.0738898 0.786696
833 4 0.0156084 0.0808485 0.781861
832 2 0.0190388 0.10285 0.793234
834 4 0.0224692 0.124851 0.804607
1125 4 0.0332368 0.126765 0.822965
34 3 0.124935 0.0934328 0.764127
32 3 0.137761 0.0795083 0.796597
911 4 0.130027 0.0964872 0.809164
31 1 0.136351 0.0984932 0.783684
35 3 0.125181 0.11462 0.795251
33 3 0.157808 0.105768 0.778675
910 2 0.127537 0.0947687 0.833984
1256 4 0.237134 0.11447 0.823658