ITEM: TIMESTEP
3440000
ITEM: NUMBER OF ATOMS
4590
ITEM: BOX BOUNDS pp pp pp
-9.9985700000000008e+00 9.9985700000000008e+00
-9.9985700000000008e+00 9.9985700000000008e+00
-9.9985700000000008e+00 9.9985700000000008e+00
ITEM: ATOMS id type xs ys zs
701 4 0.0422496 0.0447876 0.0836604
700 2 0.0553763 0.0656124 0.0792791
1667 4 0.0252681 0.0547555 0.0785028
1666 2 0.000403961 0.0538695 0.0760189
702 4 0.068503 0.0864372 0.0748979
490 2 0.270182 0.0502915 0.0657917
492 4 0.285087 0.0307542 0.0704063
1475 4 0.290833 0.0194519 0.0541015
491 4 0.255276 0.0698287 0.0611771
745 2 0.414471 0.0731699 0.0238611
2974 2 0.468298 0.0327374 0.0263251
747 4 0.434506 0.0584726 0.0210749
2975 4 0.450088 0.0482848 0.0191241
986 4 0.432511 0.0459696 0.00736668
2976 4 0.486508 0.0171899 0.0335262
2468 4 0.492356 0.0071335 0.048771
3836 4 0.497672 0.0029143 0.029913
1826 4 0.481782 0.996918 0.0372947
475 2 0.0636044 0.12179 0.0730539
477 4 0.0742876 0.144083 0.0693044
476 4 0.0529213 0.0994963 0.0768035
566 4 0.216506 0.148456 0.0350723
565 2 0.228548 0.152289 0.0134976
746 4 0.394436 0.0878673 0.0266473
769 2 0.386631 0.141113 0.019821
556 2 0.370565 0.0937475 0.99303
558 4 0.385302 0.0977387 0.0128309
771 4 0.387779 0.117262 0.0124041
737 4 0.223556 0.192504 0.0266784
736 2 0.206432 0.19802 0.0440431
738 4 0.189308 0.203535 0.0614078
770 4 0.385483 0.164964 0.027238
359 4 0.383877 0.178993 0.012996
664 2 0.391654 0.205652 0.0426805
665 4 0.386238 0.184049 0.0313166
666 4 0.397071 0.227255 0.0540444
623 4 0.388611 0.237663 0.0678081
323 4 0.406256 0.243391 0.0630926
555 4 0.0636176 0.278486 0.996344
2808 4 0.0039503 0.250483 0.0123824
481 2 0.22996 0.269402 0.0702362
505 2 0.192903 0.316094 0.0675793
483 4 0.206428 0.277695 0.0718636
288 4 0.23685 0.335642 0.00903534
286 2 0.217355 0.339863 0.024111
573 4 0.271002 0.259244 0.0581968
482 4 0.253492 0.261109 0.0686089
571 2 0.292043 0.266638 0.0468921
572 4 0.313084 0.274032 0.0355873
357 4 0.313973 0.285227 0.0194656
355 2 0.326092 0.303769 0.00786915
1069 2 0.411557 0.3196 0.0366217
322 2 0.416561 0.264357 0.0541831
324 4 0.426866 0.285324 0.0452736
1070 4 0.426051 0.299521 0.0331658
280 2 0.455946 0.305818 0.0639447
282 4 0.442871 0.295891 0.0450854
292 2 0.163252 0.344097 0.0291157
294 4 0.145028 0.337378 0.0133709
507 4 0.18808 0.33825 0.0570423
287 4 0.197859 0.344084 0.0391866
293 4 0.181477 0.350817 0.0448605
552 4 0.17468 0.348317 0.0654404
456 4 0.218922 0.390024 0.0776271
454 2 0.205671 0.371755 0.0668652
455 4 0.192419 0.353486 0.0561033
1290 4 0.270553 0.407887 0.0409651
1288 2 0.27929 0.387985 0.0286053
1289 4 0.288027 0.368084 0.0162456
903 4 0.293829 0.370697 0.996522
901 2 0.313662 0.355522 0.995279
956 4 0.34565 0.337809 0.00798944
1071 4 0.397063 0.339679 0.0400776
955 2 0.36202 0.339676 0.0267969
957 4 0.378389 0.341543 0.0456043
741 4 0.390986 0.338367 0.0593333
1304 4 0.377678 0.365112 0.00761971
1303 2 0.373679 0.389607 0.00458443
1305 4 0.369679 0.414101 0.00154915
1786 2 0.109785 0.48602 0.0710368
625 2 0.158513 0.471005 0.0582588
627 4 0.14668 0.492149 0.0644273
1788 4 0.0907437 0.476578 0.0842077
626 4 0.170347 0.44986 0.0520902
245 4 0.185108 0.437098 0.0506514
244 2 0.209763 0.44117 0.0498033
246 4 0.234418 0.445243 0.0489551
251 4 0.260307 0.421866 0.0517932
272 4 0.24458 0.429637 0.0414699
271 2 0.259247 0.441363 0.0249608
273 4 0.273914 0.453089 0.00845162
250 2 0.271078 0.422636 0.0743449
1157 4 0.285894 0.438008 0.00225947
1672 2 0.413502 0.438693 0.082269
853 2 0.403592 0.448071 0.0291538
855 4 0.383773 0.444411 0.0143556
37 3 0.365983 0.431741 0.0154601
854 4 0.423411 0.451731 0.0439519
1674 4 0.426221 0.445641 0.0618939
564 4 0.441139 0.455215 0.0548232
563 4 0.470308 0.480298 0.0228748
562 2 0.455724 0.467756 0.038849
228 4 0.477005 0.47265 0.00500733
19 3 0.053396 0.00041875 0.158185
577 2 0.0781329 0.0346461 0.161162
579 4 0.0903418 0.0540903 0.151261
450 4 0.099033 0.0719961 0.155362
448 2 0.123914 0.0731991 0.157517
582 4 0.236787 0.0545601 0.156779
237 4 0.218958 0.0645425 0.153168
235 2 0.194677 0.0697425 0.156088
236 4 0.170395 0.0749425 0.159008
2759 4 0.0131982 0.172076 0.123027
393 4 0.0367358 0.16646 0.181519
449 4 0.148796 0.0744022 0.159672
628 2 0.371488 0.161857 0.159987
629 4 0.360781 0.139745 0.155341
2723 4 0.486698 0.107458 0.116436
2624 4 0.996934 0.18409 0.117515
460 2 0.326496 0.227227 0.107679
461 4 0.305378 0.215409 0.10139
354 4 0.286182 0.220448 0.107474
352 2 0.275971 0.23158 0.127398
353 4 0.26576 0.242713 0.147323
278 4 0.258723 0.243456 0.165648
462 4 0.347614 0.239044 0.113967
255 4 0.363012 0.237788 0.125145
253 2 0.37128 0.219717 0.140318
622 2 0.375418 0.243525 0.0882233
254 4 0.379548 0.201645 0.155491
630 4 0.382195 0.183969 0.164633
624 4 0.362226 0.249386 0.108639
506 4 0.197726 0.293938 0.0781163
537 4 0.184036 0.28698 0.0893672
755 4 0.246796 0.243021 0.149757
536 4 0.185908 0.252502 0.12554
535 2 0.184972 0.269741 0.107454
754 2 0.238544 0.266579 0.151196
756 4 0.230292 0.290138 0.152635
612 4 0.220914 0.306774 0.160424
301 2 0.317425 0.322273 0.14075
303 4 0.314327 0.302269 0.155428
764 4 0.327055 0.28756 0.151171
284 4 0.273334 0.255402 0.159738
283 2 0.291894 0.272076 0.161377
285 4 0.310454 0.28875 0.163017
765 4 0.355178 0.25517 0.125466
763 2 0.341116 0.271365 0.138319
12 3 0.403501 0.324308 0.134026
281 4 0.469021 0.315745 0.0828039
671 4 0.458187 0.324291 0.0999497
527 4 0.475452 0.31734 0.100239
526 2 0.496716 0.328218 0.0928434
647 4 0.0592251 0.340347 0.149561
550 2 0.156507 0.352681 0.0820501
551 4 0.138334 0.357045 0.0986597
302 4 0.320523 0.342276 0.126072
387 4 0.32532 0.3558 0.112198
739 2 0.392061 0.343652 0.0837482
385 2 0.350262 0.357545 0.112018
493 2 0.391733 0.390508 0.110394
495 4 0.390623 0.365989 0.115165
386 4 0.375204 0.359291 0.111839
15 3 0.374831 0.345215 0.122457
740 4 0.393135 0.348938 0.108163
14 3 0.409657 0.359526 0.122428
11 1 0.39476 0.345579 0.133473
13 3 0.391639 0.352975 0.155243
494 4 0.392842 0.415027 0.105623
672 4 0.413847 0.339164 0.117655
670 2 0.436017 0.331728 0.108802
1465 2 0.0650925 0.470056 0.0995405
1466 4 0.0502018 0.481494 0.116052
1791 4 0.0348214 0.495173 0.117885
1467 4 0.0799832 0.458618 0.0830295
766 2 0.215135 0.454495 0.157132
768 4 0.219902 0.429957 0.156537
767 4 0.210369 0.479032 0.157726
290 4 0.204397 0.419008 0.164046
638 4 0.191206 0.482654 0.163179
252 4 0.281848 0.423406 0.0968965
609 4 0.281803 0.43966 0.110748
607 2 0.305334 0.439809 0.119202
608 4 0.328864 0.439958 0.127656
659 4 0.334666 0.439871 0.107998
660 4 0.384073 0.433756 0.103279
1673 4 0.400784 0.431745 0.102644
658 2 0.359369 0.436814 0.105638
524 4 0.400999 0.487836 0.141476
523 2 0.398737 0.468105 0.126285
525 4 0.396474 0.448375 0.111094
578 4 0.065924 0.0152018 0.171064
2479 2 0.000229359 0.0260247 0.200413
380 4 0.996575 0.0656734 0.203307
2481 4 0.991365 0.0472143 0.210292
20 3 0.0618635 0.0109317 0.193334
17 3 0.0273024 0.999418 0.185218
580 2 0.252798 0.0463371 0.174135
1506 4 0.252201 0.0100001 0.210925
581 4 0.268809 0.038114 0.19149
654 4 0.26368 0.024057 0.205707
652 2 0.2826 0.0296875 0.221053
653 4 0.30152 0.0353179 0.2364
24 3 0.315499 0.0431769 0.24843
758 4 0.340513 0.0777144 0.180865
759 4 0.360339 0.0568719 0.22177
757 2 0.350426 0.0672932 0.201317
350 4 0.368598 0.0532956 0.240079
349 2 0.392368 0.0498621 0.233122
632 4 0.358479 0.06344 0.241687
25 3 0.337787 0.0182333 0.231146
22 3 0.352894 0.0462876 0.250578
21 1 0.335427 0.0313499 0.249613
743 4 0.49732 0.0585103 0.236498
480 4 0.436304 0.0429653 0.228602
351 4 0.416138 0.0464287 0.226166
478 2 0.447792 0.0415681 0.250767
513 4 0.0434599 0.149816 0.172779
379 2 0.0115379 0.0856348 0.204988
511 2 0.0413443 0.135089 0.192875
512 4 0.0392288 0.120363 0.21297
381 4 0.0265012 0.105596 0.206669
312 4 0.353644 0.136038 0.173546
310 2 0.341302 0.114304 0.172823
30 3 0.361856 0.151465 0.231417
311 4 0.32896 0.0925712 0.1721
26 1 0.379233 0.140437 0.241167
28 3 0.39352 0.132178 0.224855
761 4 0.405749 0.119794 0.216444
27 3 0.390904 0.155036 0.254576
631 2 0.360411 0.0861046 0.252068
521 4 0.467766 0.137281 0.223107
762 4 0.453056 0.127923 0.230467
760 2 0.429403 0.123859 0.223455
332 4 0.469192 0.1181 0.230624
331 2 0.476451 0.0952682 0.23778
520 2 0.481363 0.157264 0.216704
391 2 0.0491087 0.186709 0.173642
392 4 0.0614816 0.206958 0.165764
339 4 0.0764361 0.220109 0.170167
337 2 0.0751735 0.239855 0.185454
279 4 0.244039 0.203329 0.191628
277 2 0.251381 0.223392 0.178638
394 2 0.0329902 0.26859 0.23416
395 4 0.0514729 0.274668 0.218455
338 4 0.0739109 0.2596 0.20074
363 4 0.0711818 0.270147 0.217305
361 2 0.0732523 0.294219 0.210869
362 4 0.0753227 0.318291 0.204433
546 4 0.0852687 0.262957 0.228039
544 2 0.107907 0.253793 0.233398
545 4 0.130545 0.244629 0.238757
372 4 0.0941679 0.317616 0.200676
733 2 0.159255 0.3292 0.2392
611 4 0.230649 0.306899 0.209474
610 2 0.225781 0.306837 0.184949
344 4 0.233913 0.311198 0.229131
343 2 0.212259 0.306132 0.24056
735 4 0.17778 0.314448 0.247224
401 4 0.171868 0.296782 0.253029
729 4 0.308113 0.305722 0.173232
727 2 0.293716 0.316798 0.190414
308 4 0.324415 0.293545 0.168987
728 4 0.279319 0.327874 0.207596
496 2 0.341598 0.303379 0.24581
498 4 0.347028 0.2917 0.224379
307 2 0.340615 0.294038 0.188026
309 4 0.356815 0.294531 0.207066
749 4 0.0645537 0.336129 0.20476
648 4 0.0798141 0.331142 0.194194
748 2 0.0697225 0.351145 0.224073
646 2 0.0695196 0.335745 0.171877
750 4 0.0748912 0.366161 0.243386
370 2 0.115004 0.330719 0.205074
371 4 0.13584 0.343822 0.209471
734 4 0.140731 0.343952 0.231176
417 4 0.141511 0.357346 0.221183
299 4 0.138182 0.360051 0.241244
415 2 0.153583 0.377553 0.212749
298 2 0.11464 0.364253 0.248543
416 4 0.165655 0.39776 0.204316
289 2 0.195296 0.409182 0.18516
291 4 0.186194 0.399356 0.206273
445 2 0.390602 0.36056 0.232046
446 4 0.368661 0.35527 0.221286
447 4 0.412544 0.365851 0.242806
644 4 0.427207 0.369406 0.229707
595 2 0.488235 0.39452 0.169417
643 2 0.440757 0.382712 0.213443
645 4 0.454306 0.396019 0.197179
597 4 0.46781 0.388475 0.182511
412 2 0.243071 0.494163 0.244649
414 4 0.238396 0.507567 0.224067
229 2 0.44643 0.475761 0.218451
231 4 0.448083 0.452722 0.228024
234 4 0.0208891 0.0542462 0.286493
232 2 0.040084 0.0416833 0.296438
233 4 0.059279 0.0291205 0.306384
317 4 0.0724016 0.0241231 0.319884
1404 4 0.0720979 0.0138593 0.303771
428 4 0.0726075 0.0046946 0.320575
2756 4 0.0112959 0.0683207 0.295009
2478 4 0.00101748 0.0534107 0.289359
1402 2 0.0826869 0.00920695 0.281603
1403 4 0.0932759 0.00455456 0.259435
693 4 0.30803 0.0552908 0.262106
691 2 0.300809 0.0782911 0.268741
23 3 0.335721 0.0182182 0.268741
698 4 0.410676 0.0869702 0.329717
333 4 0.483711 0.0724368 0.244936
257 4 0.423778 0.0749922 0.320092
479 4 0.45928 0.040171 0.272931
2664 4 0.474495 0.0336855 0.281304
1428 4 0.454923 0.0290181 0.28493
258 4 0.449047 0.0483193 0.28617
2662 2 0.497877 0.0309562 0.289729
256 2 0.436413 0.0616557 0.303131
1426 2 0.448164 0.00845964 0.297454
2755 2 0.00493431 0.0807733 0.315737
403 2 0.236791 0.154582 0.320345
404 4 0.252695 0.136101 0.325886
692 4 0.293588 0.101291 0.275376
721 2 0.270392 0.117039 0.299844
723 4 0.277821 0.114022 0.276161
722 4 0.262964 0.120057 0.323527
29 3 0.371221 0.123019 0.254237
707 4 0.372666 0.112835 0.27242
633 4 0.362343 0.108769 0.262448
706 2 0.363518 0.125305 0.292067
708 4 0.35437 0.137775 0.311713
321 4 0.360814 0.143275 0.330171
717 4 0.380824 0.144118 0.331704
600 4 0.0966395 0.206477 0.339241
405 4 0.220887 0.173063 0.314805
419 4 0.409019 0.238695 0.324189
269 4 0.422606 0.240649 0.338452
396 4 0.0145075 0.262513 0.249864
442 2 0.998701 0.25925 0.290198
443 4 0.0120854 0.264398 0.269716
402 4 0.143766 0.255522 0.250105
400 2 0.157817 0.276152 0.251567
676 2 0.184032 0.310299 0.290876
677 4 0.180367 0.308402 0.266216
345 4 0.190605 0.301066 0.251989
678 4 0.187698 0.312196 0.315537
375 4 0.167835 0.311166 0.32116
378 4 0.276299 0.307745 0.279506
376 2 0.300135 0.315292 0.279736
377 4 0.323972 0.322839 0.279966
497 4 0.336167 0.315057 0.267241
543 4 0.339405 0.319212 0.286512
418 2 0.38994 0.254755 0.322393
541 2 0.353899 0.304025 0.300092
542 4 0.368394 0.288838 0.313673
420 4 0.370861 0.270816 0.320597
2537 4 0.495226 0.322048 0.325622
364 2 0.00927284 0.393555 0.284233
601 2 0.0507938 0.410061 0.316848
603 4 0.0349604 0.41023 0.297497
365 4 0.0258713 0.411557 0.279175
300 4 0.0910973 0.368455 0.255842
510 4 0.198596 0.329088 0.32159
508 2 0.210887 0.350604 0.318243
509 4 0.223178 0.372119 0.314897
615 4 0.326903 0.332988 0.29599
434 4 0.318336 0.381667 0.323549
433 2 0.303738 0.400773 0.316691
613 2 0.328616 0.350834 0.313419
614 4 0.330329 0.368681 0.330847
2 3 0.271539 0.410856 0.314392
1757 4 0.0154739 0.428481 0.275623
1756 2 0.0325698 0.446246 0.279783
1758 4 0.0496656 0.464012 0.283942
1775 4 0.0630172 0.475685 0.275104
775 2 0.0550353 0.487934 0.315499
777 4 0.054661 0.481515 0.291337
1776 4 0.105077 0.471072 0.248451
1774 2 0.0840471 0.473378 0.261777
413 4 0.247745 0.480758 0.265232
4 3 0.240053 0.427763 0.302755
1436 4 0.24089 0.490515 0.280837
1435 2 0.245308 0.469831 0.294172
1437 4 0.249727 0.449147 0.307507
3 3 0.265587 0.446844 0.323451
1 1 0.255426 0.42626 0.32007
436 2 0.29818 0.455651 0.31145
438 4 0.283477 0.43619 0.316953
435 4 0.28914 0.41988 0.309833
437 4 0.312882 0.475111 0.305946
1802 4 0.33088 0.477718 0.298542
1801 2 0.352614 0.474981 0.310596
1803 4 0.374348 0.472244 0.322651
316 2 0.0777374 0.0406567 0.337866
399 4 0.0856652 0.0761217 0.365528
318 4 0.0830733 0.0571902 0.355848
732 4 0.0974529 0.0617185 0.366954
730 2 0.121437 0.0673765 0.362719
731 4 0.145421 0.0730346 0.358483
606 4 0.158477 0.0776299 0.344279
604 2 0.179197 0.0872657 0.354427
425 4 0.366367 0.000432099 0.406631
1701 4 0.37224 0.0017152 0.386886
699 4 0.378326 0.0617503 0.35832
1699 2 0.377621 0.0249868 0.379493
1700 4 0.383002 0.0482583 0.3721
697 2 0.394501 0.0743602 0.344018
962 4 0.35028 0.0140709 0.404922
397 2 0.0644444 0.0891926 0.367531
398 4 0.0432237 0.102263 0.369533
2584 2 0.0124444 0.105416 0.366895
2586 4 0.032261 0.116355 0.377516
458 4 0.0293261 0.132684 0.388249
457 2 0.0371095 0.151952 0.402154
605 4 0.199918 0.0969015 0.364576
249 4 0.248644 0.121638 0.337745
248 4 0.218479 0.0902869 0.362401
247 2 0.233561 0.105962 0.350073
683 4 0.265917 0.129442 0.339867
682 2 0.285351 0.144414 0.3447
684 4 0.304784 0.159386 0.349533
319 2 0.339972 0.156604 0.333796
726 4 0.407592 0.142645 0.390134
715 2 0.39209 0.149118 0.353458
716 4 0.403357 0.154117 0.375212
467 4 0.401041 0.160723 0.393765
724 2 0.406148 0.119215 0.398743
725 4 0.404703 0.0957847 0.407352
641 4 0.4743 0.131806 0.355909
640 2 0.491635 0.126203 0.373035
459 4 0.0448928 0.171219 0.41606
598 2 0.112285 0.213808 0.357315
599 4 0.12793 0.221138 0.375389
686 4 0.126111 0.232974 0.392026
685 2 0.109829 0.232594 0.410998
275 4 0.141415 0.230397 0.385122
389 4 0.140888 0.24799 0.389236
274 2 0.163234 0.218316 0.383346
473 4 0.20797 0.181938 0.327355
474 4 0.19938 0.192301 0.375516
472 2 0.203675 0.18712 0.351436
276 4 0.185054 0.206235 0.38157
320 4 0.319131 0.169933 0.337422
466 2 0.404896 0.177429 0.411965
268 2 0.446244 0.238685 0.34636
270 4 0.469883 0.23672 0.354269
452 4 0.477098 0.22169 0.36678
451 2 0.476002 0.214893 0.390817
453 4 0.474907 0.208096 0.414854
2802 4 0.00555235 0.292792 0.402804
347 4 0.0640098 0.318463 0.37704
346 2 0.0441139 0.307336 0.387312
618 4 0.080744 0.323049 0.386677
348 4 0.0242179 0.29621 0.397584
616 2 0.102308 0.31486 0.377028
373 2 0.154718 0.311867 0.342435
388 2 0.13956 0.270629 0.378705
390 4 0.138232 0.293268 0.368175
617 4 0.123872 0.306672 0.367379
374 4 0.1416 0.312569 0.36371
9 3 0.143119 0.3169 0.410177
488 4 0.37063 0.272725 0.385325
487 2 0.371417 0.262962 0.40833
602 4 0.0666272 0.409892 0.336199
549 4 0.071235 0.398388 0.3537
547 2 0.0804761 0.416505 0.368245
10 3 0.143641 0.354541 0.410892
335 4 0.307228 0.384913 0.411858
240 4 0.318903 0.389634 0.396415
238 2 0.337174 0.395635 0.380436
239 4 0.355445 0.401635 0.364457
752 4 0.446568 0.395833 0.380071
561 4 0.441892 0.381674 0.393967
751 2 0.461955 0.414908 0.375114
559 2 0.456283 0.367856 0.409038
500 4 0.049833 0.494695 0.359104
499 2 0.0647733 0.478742 0.371247
501 4 0.0797136 0.462789 0.383391
407 4 0.0861912 0.449291 0.396571
548 4 0.0897173 0.434622 0.38279
406 2 0.0962964 0.452598 0.419201
1555 2 0.230494 0.497566 0.400716
5 3 0.244995 0.419514 0.339158
1557 4 0.250411 0.485124 0.4093
1544 4 0.196112 0.496318 0.389666
636 4 0.266603 0.489714 0.41952
587 4 0.349817 0.420531 0.36702
593 4 0.378788 0.467307 0.341462
588 4 0.386715 0.44876 0.348517
586 2 0.368266 0.434646 0.357769
592 2 0.399372 0.479886 0.34804
119 3 0.481676 0.468677 0.341784
2862 4 0.494999 0.480901 0.356013
116 1 0.489153 0.456023 0.359739
712 2 0.45226 0.490052 0.358839
714 4 0.471734 0.474375 0.359265
753 4 0.477342 0.433983 0.370158
117 3 0.472948 0.455976 0.376065
118 3 0.493035 0.434174 0.352961
594 4 0.419956 0.492464 0.354617
718 2 0.0197977 0.00945657 0.462035
369 4 0.0598861 0.0221361 0.450808
367 2 0.0847004 0.0193107 0.449604
719 4 0.04363 0.0169559 0.461056
1781 4 0.125276 0.0101385 0.438547
368 4 0.109515 0.0164853 0.4484
963 4 0.324264 0.047094 0.432003
432 4 0.311896 0.0617404 0.438095
430 2 0.320765 0.0711276 0.459506
431 4 0.329634 0.0805148 0.480916
961 2 0.337272 0.0305825 0.418462
841 2 0.365236 0.0699668 0.506052
843 4 0.343946 0.0700112 0.49294
2656 2 0.498258 0.132432 0.428615
3489 4 0.486264 0.131567 0.467399
2657 4 0.484529 0.138278 0.448678
576 4 0.411662 0.149151 0.485291
260 4 0.0489481 0.183055 0.431759
259 2 0.0625029 0.203807 0.428475
261 4 0.0760577 0.22456 0.42519
687 4 0.0935471 0.232214 0.42997
1035 4 0.0777919 0.23246 0.442023
1033 2 0.0866486 0.248409 0.459121
409 2 0.388787 0.22185 0.444338
411 4 0.370164 0.23849 0.443116
410 4 0.40741 0.205211 0.445561
468 4 0.408751 0.194134 0.430166
575 4 0.414587 0.192374 0.460312
574 2 0.413124 0.170762 0.472801
515 4 0.465575 0.217215 0.430549
516 4 0.421955 0.196485 0.443524
514 2 0.443765 0.20685 0.437037
2847 4 0.00398861 0.301329 0.422539
1034 4 0.0955052 0.264358 0.47622
696 4 0.104257 0.278145 0.486874
1260 4 0.0988957 0.281781 0.46799
1258 2 0.108637 0.302755 0.458481
1259 4 0.118378 0.323728 0.448972
6 1 0.145272 0.335709 0.423593
8 3 0.16571 0.33531 0.434573
266 4 0.378394 0.252871 0.451482
489 4 0.372204 0.253198 0.431335
265 2 0.376202 0.266796 0.472134
267 4 0.374009 0.28072 0.492785
1010 4 0.496744 0.282426 0.503225
326 4 0.0803085 0.373868 0.42465
503 4 0.120764 0.336134 0.457676
7 3 0.128418 0.335646 0.439248
327 4 0.113278 0.342529 0.445424
325 2 0.0967931 0.358199 0.435037
502 2 0.132632 0.347958 0.476237
334 2 0.301533 0.390397 0.435579
336 4 0.295838 0.395881 0.459299
668 4 0.290905 0.401362 0.478283
882 4 0.303139 0.387168 0.474406
880 2 0.326395 0.38471 0.483253
804 4 0.290165 0.382818 0.487274
881 4 0.349652 0.382253 0.4921
2508 4 0.48779 0.355513 0.435022
3308 4 0.46954 0.343142 0.491771
3309 4 0.470688 0.354358 0.443052
560 4 0.470674 0.354037 0.424109
3307 2 0.470114 0.34875 0.467412
1383 4 0.999906 0.46919 0.456881
1381 2 0.997346 0.488537 0.472512
382 2 0.132217 0.446277 0.475119
569 4 0.122932 0.465682 0.443368
568 2 0.135493 0.486308 0.436893
408 4 0.106402 0.455906 0.441832
383 4 0.120379 0.448584 0.453216
384 4 0.144054 0.44397 0.497022
669 4 0.290217 0.450897 0.471459
774 4 0.302087 0.464623 0.46586
772 2 0.322582 0.475745 0.474885
667 2 0.290561 0.42613 0.474871
634 2 0.275209 0.475946 0.438534
635 4 0.283816 0.462177 0.457548
773 4 0.343077 0.486867 0.48391
663 4 0.464391 0.486688 0.464135
1128 4 0.999932 0.0766594 0.587528
1152 4 0.243282 0.0752197 0.517483
1150 2 0.243362 0.0756571 0.542482
342 4 0.233092 0.0575487 0.513628
2430 4 0.195855 0.00860487 0.520511
340 2 0.215877 0.0398306 0.509769
341 4 0.198662 0.0221125 0.50591
1151 4 0.243441 0.0760944 0.567482
1217 4 0.400901 0.0739613 0.534101
842 4 0.386526 0.0699223 0.519164
1216 2 0.42001 0.0766019 0.518194
1218 4 0.439119 0.0792425 0.502286
1058 4 0.0981277 0.0856769 0.519863
1270 2 0.0932794 0.147591 0.559016
1271 4 0.0977437 0.123819 0.565351
1057 2 0.102739 0.0960717 0.542131
1059 4 0.10735 0.106466 0.564399
1155 4 0.115168 0.121523 0.574072
1153 2 0.139952 0.123149 0.576953
1154 4 0.164736 0.124776 0.579833
1180 2 0.240212 0.112269 0.589407
898 2 0.241293 0.165051 0.569091
1181 4 0.246202 0.0897928 0.580236
1199 4 0.0352952 0.217451 0.551473
877 2 0.0626634 0.200222 0.550411
878 4 0.0528422 0.222396 0.556496
1198 2 0.0112966 0.22035 0.545082
879 4 0.0724846 0.178047 0.544326
1244 4 0.0671069 0.236335 0.56276
1272 4 0.088815 0.171363 0.55268
651 4 0.20663 0.230858 0.527299
858 4 0.18769 0.227955 0.520001
649 2 0.221887 0.211644 0.532116
650 4 0.237144 0.192429 0.536933
856 2 0.180951 0.246302 0.535595
899 4 0.246454 0.179183 0.54912
1243 2 0.0486664 0.24997 0.572721
1245 4 0.0302259 0.263605 0.582682
695 4 0.114895 0.262331 0.533107
694 2 0.109576 0.270238 0.50999
946 2 0.170306 0.289404 0.571876
857 4 0.174212 0.264649 0.551189
947 4 0.188017 0.273578 0.564062
798 4 0.206047 0.276625 0.556294
796 2 0.229937 0.28021 0.562743
797 4 0.253827 0.283796 0.569193
790 2 0.268917 0.320835 0.559692
791 4 0.267401 0.296779 0.566341
872 4 0.362333 0.307872 0.579919
954 4 0.494896 0.284375 0.559877
952 2 0.49151 0.301572 0.577708
1011 4 0.469628 0.324172 0.498454
1009 2 0.483186 0.303299 0.50084
2457 4 0.489901 0.263143 0.50135
3263 4 0.0415628 0.337702 0.555151
3262 2 0.0478083 0.352886 0.574009
936 4 0.998638 0.356381 0.517352
709 2 0.151395 0.400509 0.502821
710 4 0.15141 0.375548 0.504278
504 4 0.144501 0.359781 0.494799
1189 2 0.244598 0.371251 0.558489
1191 4 0.22629 0.382226 0.57151
803 4 0.270779 0.370856 0.531792
802 2 0.280472 0.376837 0.509533
1190 4 0.262907 0.360276 0.545469
1238 4 0.278079 0.362571 0.54969
1237 2 0.300657 0.366809 0.559563
792 4 0.270433 0.344891 0.553043
1239 4 0.323235 0.371048 0.569435
930 4 0.338727 0.37354 0.556399
929 4 0.35789 0.383575 0.511312
928 2 0.348309 0.378558 0.533856
711 4 0.15138 0.42547 0.501363
1082 4 0.0592697 0.0522623 0.657407
1081 2 0.0544768 0.0694924 0.639934
1032 4 0.241792 0.0704878 0.585711
1030 2 0.255564 0.0505228 0.591787
1031 4 0.269336 0.0305578 0.597863
951 4 0.28236 0.0427163 0.606036
949 2 0.30283 0.0296285 0.611941
950 4 0.3233 0.0165406 0.617846
1226 4 0.253855 0.0797799 0.660627
1148 4 0.25117 0.068777 0.643733
1147 2 0.253742 0.0452191 0.651707
809 4 0.490198 0.0295367 0.613355
808 2 0.479997 0.0400229 0.633631
810 4 0.469795 0.050509 0.653908
45 3 0.467247 0.0724187 0.649762
41 1 0.459251 0.0669338 0.670369
43 3 0.436554 0.0716081 0.671556
1126 2 0.0228471 0.0825461 0.595615
1083 4 0.0496839 0.0867225 0.62246
1127 4 0.0457626 0.0884327 0.603703
938 4 0.064357 0.0908656 0.609328
937 2 0.0816306 0.101518 0.594722
939 4 0.0989042 0.11217 0.580116
1283 4 0.151088 0.0896808 0.652179
900 4 0.236133 0.150919 0.589062
1221 4 0.169189 0.139111 0.592586
1219 2 0.193879 0.142089 0.595181
1220 4 0.218568 0.145067 0.597776
1182 4 0.234223 0.134746 0.598577
1210 2 0.237707 0.150758 0.629188
1212 4 0.232954 0.154938 0.604999
908 4 0.233223 0.133858 0.666498
1211 4 0.242461 0.146578 0.653377
1227 4 0.250295 0.12963 0.658903
888 4 0.261449 0.146092 0.659401
1225 2 0.252075 0.104705 0.659765
3425 4 0.478967 0.0829155 0.665451
1192 2 0.328229 0.188804 0.651913
1193 4 0.334516 0.208793 0.638272
3123 4 0.490467 0.198531 0.645375
3121 2 0.502374 0.220383 0.647801
982 2 0.017414 0.292608 0.584304
983 4 0.0317081 0.276693 0.597249
948 4 0.152596 0.30523 0.579689
1136 4 0.159466 0.30909 0.598219
1135 2 0.164324 0.329521 0.61179
871 2 0.373538 0.310462 0.602121
873 4 0.384743 0.313053 0.624323
813 4 0.392874 0.326045 0.637599
953 4 0.488125 0.318769 0.59554
3112 2 0.49048 0.27241 0.66908
3114 4 0.473018 0.286872 0.679621
1041 4 0.067438 0.377501 0.604967
3264 4 0.0540537 0.368069 0.592868
3240 4 0.0492849 0.383785 0.601942
3238 2 0.027339 0.39385 0.608442
3239 4 0.00539298 0.403914 0.614943
1039 2 0.0881623 0.38386 0.617427
1040 4 0.108887 0.390218 0.629887
993 4 0.129476 0.396268 0.629274
991 2 0.14815 0.37979 0.631495
822 4 0.165142 0.346353 0.643416
992 4 0.166824 0.363312 0.633716
1137 4 0.169182 0.349952 0.62536
1064 4 0.181696 0.356563 0.638192
897 4 0.180089 0.364103 0.61935
896 4 0.213805 0.378437 0.585314
895 2 0.196947 0.37127 0.602332
1172 4 0.223627 0.395612 0.585435
1063 2 0.198929 0.362071 0.655451
1171 2 0.222606 0.418897 0.594487
811 2 0.396237 0.349228 0.646342
927 4 0.399297 0.384812 0.639937
812 4 0.399599 0.37241 0.655086
925 2 0.417285 0.400074 0.631649
1206 4 0.383197 0.383231 0.649832
1204 2 0.366892 0.391547 0.666868
906 4 0.4818 0.336693 0.602464
926 4 0.435273 0.415336 0.623362
539 4 0.0823829 0.436345 0.58167
2244 4 0.123928 0.48502 0.594594
1160 4 0.139132 0.473996 0.592319
540 4 0.122079 0.46544 0.590529
538 2 0.102231 0.450892 0.5861
1159 2 0.158022 0.477009 0.608421
1186 2 0.206545 0.4604 0.628643
1173 4 0.221584 0.442182 0.603539
1187 4 0.21839 0.439312 0.622305
1188 4 0.1947 0.481488 0.634981
1161 4 0.176912 0.480023 0.624522
1230 4 0.330198 0.429016 0.656895
1002 4 0.447361 0.422428 0.639236
1911 4 0.437848 0.485343 0.619974
1001 4 0.43928 0.471364 0.632859
1000 2 0.44332 0.446896 0.636048
1269 4 0.448491 0.489936 0.635134
945 4 0.00824489 0.00488879 0.679206
944 4 0.0367908 0.0458595 0.676514
943 2 0.0225179 0.0253742 0.67786
1076 4 0.0564573 0.0459372 0.675953
1075 2 0.0622008 0.0606767 0.695316
864 4 0.0616043 0.0656102 0.729366
1077 4 0.0679442 0.0754162 0.714679
1107 4 0.075129 0.0782857 0.733664
862 2 0.0437254 0.071162 0.745941
825 4 0.159049 0.0761803 0.66523
823 2 0.163914 0.0517098 0.666876
1105 2 0.0983076 0.0755874 0.742645
2133 4 0.182879 0.0145603 0.666507
2256 4 0.170803 0.01157 0.681397
824 4 0.168778 0.0272393 0.668522
1149 4 0.256314 0.0216613 0.659682
1092 4 0.322586 0.018886 0.691462
42 3 0.462409 0.0444361 0.673979
1163 4 0.471963 0.0560485 0.69057
1162 2 0.482628 0.0473351 0.711439
4581 4 0.499651 0.0158476 0.750624
2321 4 0.492313 0.0329097 0.750087
44 3 0.470653 0.0788261 0.686708
1164 4 0.493293 0.0386217 0.732309
851 4 0.0756965 0.0900986 0.718783
850 2 0.0706687 0.114142 0.714111
852 4 0.065641 0.138185 0.709439
1282 2 0.15915 0.108539 0.66648
907 2 0.209312 0.13419 0.673801
1284 4 0.167213 0.127398 0.680781
909 4 0.185401 0.134522 0.681103
886 2 0.283197 0.156143 0.666556
887 4 0.304945 0.166193 0.67371
830 4 0.319683 0.165109 0.685729
829 2 0.335265 0.153351 0.701354
1005 4 0.360952 0.127975 0.726865
1003 2 0.362178 0.111244 0.745405
831 4 0.350847 0.141594 0.71698
3268 2 0.491384 0.132689 0.740462
3270 4 0.491051 0.149678 0.72212
1214 4 0.0152796 0.200428 0.742429
1215 4 0.00749772 0.242179 0.716029
1213 2 0.0113886 0.221303 0.729229
1178 4 0.0262615 0.252634 0.715427
1194 4 0.321941 0.168815 0.665554
1297 2 0.288382 0.227946 0.72626
1298 4 0.305109 0.246166 0.722602
1299 4 0.271654 0.209725 0.729918
1025 4 0.382192 0.201381 0.718103
1024 2 0.405184 0.2003 0.72787
978 4 0.37077 0.26022 0.732026
1146 4 0.484874 0.170645 0.720939
1144 2 0.46648 0.186514 0.726856
1262 4 0.43564 0.216495 0.735447
1026 4 0.428176 0.199219 0.737637
1145 4 0.448087 0.202384 0.732774
1261 2 0.445721 0.236925 0.725142
1142 4 0.442099 0.203418 0.750078
1073 4 0.0727915 0.266149 0.748295
1177 2 0.0460186 0.265333 0.724004
1179 4 0.0657756 0.278032 0.73258
3038 4 0.00933766 0.260632 0.715912
1072 2 0.0971118 0.271571 0.74622
1208 4 0.128532 0.282505 0.727146
1074 4 0.121432 0.276993 0.744145
1207 2 0.129126 0.302356 0.711955
821 4 0.141202 0.328451 0.683504
1209 4 0.129719 0.322207 0.696764
1130 4 0.139323 0.270111 0.737457
805 2 0.23812 0.334594 0.683226
918 4 0.312112 0.254022 0.738856
977 4 0.323473 0.245416 0.725353
806 4 0.255384 0.316919 0.679386
1020 4 0.389666 0.259959 0.73748
976 2 0.347122 0.252818 0.72869
1263 4 0.455801 0.257354 0.714837
892 2 0.0360901 0.350623 0.718601
1280 4 0.0742755 0.368622 0.733728
816 4 0.0765026 0.358651 0.7178
894 4 0.0584063 0.360847 0.723359
893 4 0.0137738 0.340399 0.713842
1279 2 0.0723348 0.391738 0.743058
820 2 0.153172 0.337402 0.66346
815 4 0.117137 0.335167 0.700536
942 4 0.138902 0.336564 0.703943
814 2 0.0968198 0.346909 0.709168
940 2 0.154974 0.349815 0.717773
1078 2 0.168011 0.404406 0.745207
941 4 0.171046 0.363067 0.731603
1080 4 0.171789 0.381863 0.735072
1065 4 0.216162 0.367579 0.672709
807 4 0.220856 0.352269 0.687066
1028 4 0.221588 0.384889 0.676131
1066 2 0.203604 0.372199 0.710358
1068 4 0.219118 0.370283 0.690843
1027 2 0.223576 0.409333 0.671261
1067 4 0.18809 0.374115 0.729873
1205 4 0.350588 0.399862 0.683903
1281 4 0.070394 0.414855 0.752389
1029 4 0.225564 0.433777 0.66639
1079 4 0.164233 0.426949 0.755343
1174 2 0.181342 0.475757 0.733218
1175 4 0.186424 0.481325 0.709378
1140 4 0.237682 0.445451 0.677007
1228 2 0.317177 0.44476 0.67131
1138 2 0.261109 0.454135 0.677972
1139 4 0.284536 0.46282 0.678937
1987 2 0.315886 0.45995 0.727663
1229 4 0.304156 0.460503 0.685724
1989 4 0.308259 0.467856 0.705203
2028 4 0.293622 0.470659 0.693672
2026 2 0.292671 0.495645 0.693747
1099 2 0.493863 0.492035 0.697106
1100 4 0.498469 0.472614 0.712167
2989 2 0.0191676 0.0500085 0.790577
2990 4 0.0189147 0.072602 0.77987
2991 4 0.0194205 0.027415 0.801285
863 4 0.0258466 0.0767138 0.762515
3083 4 0.00936207 0.085731 0.769159
1106 4 0.121486 0.0728891 0.751625
2049 4 0.105172 0.0049099 0.801757
1202 4 0.105963 0.0201545 0.789367
1201 2 0.118752 0.0415522 0.787431
1203 4 0.131542 0.0629499 0.785495
32 3 0.146633 0.0691938 0.801239
1085 4 0.30651 0.0651582 0.798325
960 4 0.303223 0.0632329 0.817203
819 4 0.300007 0.0483044 0.803971
817 2 0.320015 0.0345644 0.797965
973 2 0.362543 0.997506 0.819297
818 4 0.340023 0.0208244 0.79196
974 4 0.352656 0.005155 0.797643
2320 2 0.485799 0.0493787 0.767737
844 2 0.486398 0.0650299 0.827758
845 4 0.475279 0.0661676 0.805392
2322 4 0.479286 0.0658476 0.785387
1112 4 0.465048 0.0765531 0.792351
833 4 0.0237775 0.0888728 0.778
832 2 0.0251446 0.103955 0.797896
834 4 0.0265116 0.119036 0.817792
1125 4 0.0420191 0.131202 0.81597