ITEM: TIMESTEP
1110000
ITEM: NUMBER OF ATOMS
4590
ITEM: BOX BOUNDS pp pp pp
-9.9985700000000008e+00 9.9985700000000008e+00
-9.9985700000000008e+00 9.9985700000000008e+00
-9.9985700000000008e+00 9.9985700000000008e+00
ITEM: ATOMS id type xs ys zs
1668 4 0.0533482 0.0454972 0.0843827
1475 4 0.269985 0.0118747 0.0742427
492 4 0.2707 0.0305632 0.0825234
297 4 0.326499 0.067735 0.0522555
295 2 0.347337 0.0787721 0.0439411
747 4 0.452642 0.0597275 0.00550217
2974 2 0.469964 0.0233967 0.0258249
2976 4 0.480811 0.00512496 0.0390031
2975 4 0.459117 0.0416685 0.0126466
986 4 0.441956 0.0442815 0.00496093
2467 2 0.492692 0.0114437 0.0782062
1247 4 0.993882 0.0940106 0.0106642
566 4 0.156741 0.151255 0.056569
565 2 0.171069 0.161655 0.038914
360 4 0.319361 0.148252 0.0695774
358 2 0.34423 0.150392 0.0681151
296 4 0.368175 0.0898091 0.0356267
557 4 0.36553 0.102099 0.019915
556 2 0.390296 0.105437 0.0191072
769 2 0.403732 0.149394 0.0503154
359 4 0.369099 0.152532 0.0666528
558 4 0.415063 0.108775 0.0182994
770 4 0.383949 0.163433 0.0563753
827 4 0.366656 0.097595 0.00183722
745 2 0.442497 0.0825756 0.00597292
771 4 0.423515 0.135354 0.0442555
746 4 0.432352 0.105424 0.00644367
567 4 0.185398 0.172056 0.0212589
664 2 0.38014 0.201983 0.0399761
665 4 0.375481 0.183187 0.0557936
666 4 0.384798 0.220778 0.0241586
555 4 0.0894528 0.280313 0.058748
553 2 0.0847303 0.2727 0.0354045
554 4 0.0800078 0.265087 0.0120609
287 4 0.154676 0.305435 0.0354518
292 2 0.156539 0.270868 0.0110716
293 4 0.163457 0.290003 0.0256039
286 2 0.148249 0.328329 0.0277225
507 4 0.166793 0.294225 0.0444038
505 2 0.185661 0.290748 0.0604385
506 4 0.204528 0.287272 0.0764732
481 2 0.241167 0.278201 0.0663746
483 4 0.22251 0.282433 0.082474
482 4 0.259824 0.273969 0.0502752
573 4 0.247161 0.264609 0.0372867
571 2 0.257733 0.26732 0.0147911
322 2 0.403473 0.274651 0.0564691
1069 2 0.399129 0.300539 0.00701725
324 4 0.40873 0.277191 0.0321567
1070 4 0.417412 0.287178 0.0176186
741 4 0.35774 0.327929 0.0406872
671 4 0.446994 0.30855 0.0638405
280 2 0.446996 0.296746 0.0296177
281 4 0.457635 0.31104 0.0471582
282 4 0.436357 0.282452 0.0120772
670 2 0.437601 0.324209 0.0809209
288 4 0.141822 0.351223 0.0199932
454 2 0.139013 0.359755 0.0709393
455 4 0.120525 0.37036 0.0840123
456 4 0.157501 0.349151 0.0578663
250 2 0.305248 0.40605 0.034558
251 4 0.309611 0.397711 0.0113935
252 4 0.300885 0.41439 0.0577225
609 4 0.310122 0.404062 0.0721342
956 4 0.317189 0.342299 0.994517
739 2 0.351313 0.330309 0.0647331
740 4 0.344886 0.332689 0.0887791
495 4 0.392356 0.380782 0.0718646
493 2 0.397785 0.403882 0.0797428
955 2 0.339819 0.331902 0.996742
3347 4 0.485768 0.345085 0.00335733
245 4 0.228678 0.467952 0.0613332
626 4 0.211172 0.459628 0.0636463
244 2 0.249439 0.466152 0.0475172
625 2 0.197031 0.441969 0.0742933
246 4 0.270201 0.464351 0.0337012
272 4 0.274154 0.463814 0.0139196
563 4 0.465216 0.472632 0.0557926
228 4 0.461762 0.477095 0.0744901
562 2 0.449141 0.476243 0.0369844
564 4 0.433067 0.479855 0.0181762
854 4 0.418158 0.466949 0.0141885
1674 4 0.42659 0.495293 0.00737888
1666 2 0.0725564 0.0578387 0.0945764
19 3 0.0658863 0.0636618 0.139541
1667 4 0.0917646 0.0701802 0.10477
701 4 0.0943575 0.0856273 0.116885
1539 4 0.187756 0.995914 0.161298
491 4 0.263379 0.0593288 0.122769
490 2 0.26704 0.044946 0.102646
486 4 0.358598 0.0129582 0.103546
2722 2 0.482589 0.0546394 0.15633
2723 4 0.462318 0.0692762 0.156482
476 4 0.0872415 0.133373 0.147233
702 4 0.0718997 0.119649 0.145848
700 2 0.0831286 0.102638 0.131367
236 4 0.213212 0.109205 0.175643
235 2 0.226798 0.128498 0.167373
581 4 0.299447 0.113692 0.144332
628 2 0.397413 0.129017 0.130013
630 4 0.389034 0.149815 0.118949
312 4 0.394997 0.111383 0.157631
629 4 0.405791 0.108219 0.141078
2625 4 0.00198998 0.184472 0.110849
738 4 0.180096 0.220199 0.133434
737 4 0.204794 0.176719 0.133834
736 2 0.192445 0.198459 0.133634
277 2 0.242525 0.237418 0.155275
279 4 0.222171 0.223029 0.153316
461 4 0.309359 0.231446 0.0895161
460 2 0.332715 0.22541 0.0960921
354 4 0.296227 0.242304 0.100683
278 4 0.262879 0.251808 0.157234
352 2 0.284631 0.247594 0.122195
353 4 0.273036 0.252885 0.143706
284 4 0.27622 0.239938 0.16154
462 4 0.356071 0.219374 0.102668
254 4 0.38372 0.168401 0.113273
255 4 0.36911 0.21614 0.116159
253 2 0.376415 0.192271 0.114716
765 4 0.36441 0.225969 0.132528
624 4 0.365754 0.232797 0.114209
763 2 0.348555 0.224887 0.151832
646 2 0.0641298 0.317015 0.153785
648 4 0.0405149 0.323693 0.148997
339 4 0.0767153 0.268022 0.136238
337 2 0.0793362 0.263974 0.160772
536 4 0.203152 0.31378 0.130296
535 2 0.198605 0.319266 0.10633
754 2 0.264699 0.287966 0.162064
755 4 0.259946 0.267671 0.148254
756 4 0.269451 0.30826 0.175874
323 4 0.398216 0.272112 0.0807815
622 2 0.383192 0.249117 0.106808
623 4 0.40063 0.265436 0.0994065
528 4 0.460599 0.267751 0.119743
518 4 0.47171 0.271342 0.103722
526 2 0.444096 0.259227 0.136481
527 4 0.427593 0.250704 0.15322
517 2 0.491809 0.271704 0.0888533
551 4 0.0667553 0.355613 0.118618
552 4 0.113485 0.362739 0.1023
550 2 0.0901201 0.359176 0.110459
537 4 0.194057 0.324752 0.0823628
302 4 0.31525 0.342043 0.152632
387 4 0.315899 0.332462 0.134857
607 2 0.320688 0.414173 0.0924144
385 2 0.335579 0.329753 0.119674
12 3 0.407646 0.341241 0.101174
15 3 0.370646 0.339115 0.105581
386 4 0.355259 0.327043 0.104491
11 1 0.388421 0.353332 0.104829
13 3 0.390385 0.364626 0.125004
14 3 0.385694 0.368507 0.0874892
672 4 0.428207 0.339868 0.0980013
596 4 0.469787 0.396641 0.162782
104 3 0.504101 0.358372 0.128511
1791 4 0.0532405 0.485137 0.145842
1466 4 0.045227 0.475923 0.161488
416 4 0.205203 0.425765 0.148583
415 2 0.188612 0.439219 0.161579
627 4 0.182889 0.42431 0.0849403
291 4 0.22127 0.414071 0.148936
289 2 0.244364 0.422844 0.152792
767 4 0.278204 0.489912 0.153135
638 4 0.25903 0.497013 0.156205
766 2 0.279722 0.46603 0.160384
768 4 0.28124 0.442149 0.167633
290 4 0.267458 0.431617 0.156648
525 4 0.379724 0.482799 0.122311
608 4 0.331255 0.424284 0.112695
658 2 0.368241 0.439179 0.108074
659 4 0.344738 0.438431 0.116574
660 4 0.391743 0.439928 0.0995729
494 4 0.403215 0.426983 0.087621
523 2 0.364481 0.495226 0.10687
226 2 0.477754 0.465646 0.0899292
227 4 0.493745 0.454198 0.105368
18 3 0.0733701 0.0394558 0.167869
16 1 0.0605297 0.0576312 0.161298
1420 2 0.0436948 0.00113806 0.173751
20 3 0.0641515 0.0751883 0.175343
17 3 0.0383124 0.0517269 0.162122
2480 4 0.0229601 0.0405752 0.169405
1422 4 0.0355832 0.024742 0.172257
2479 2 0.00694522 0.0478533 0.187174
674 4 0.147801 0.0192566 0.245893
448 2 0.191135 0.0834285 0.18279
1506 4 0.246463 0.024265 0.174823
450 4 0.188392 0.0606853 0.19281
691 2 0.237264 0.0813757 0.248273
1504 2 0.231826 0.00620931 0.184039
652 2 0.281251 0.0295562 0.179999
653 4 0.304548 0.0221504 0.174746
654 4 0.257954 0.036962 0.185253
25 3 0.327561 0.0523821 0.24071
311 4 0.381032 0.0701413 0.182224
758 4 0.374113 0.0567072 0.195233
759 4 0.347696 0.0627192 0.237265
757 2 0.360905 0.0597132 0.216249
22 3 0.350535 0.0778933 0.255347
379 2 0.0079416 0.117772 0.189514
381 4 0.998617 0.135276 0.20474
512 4 0.0172948 0.143011 0.205709
475 2 0.0852447 0.145225 0.169158
511 2 0.0337211 0.160244 0.213349
380 4 0.0172666 0.100269 0.174287
578 4 0.106849 0.118611 0.244502
477 4 0.0832479 0.157078 0.191083
577 2 0.110248 0.103888 0.22458
579 4 0.113647 0.0891649 0.204659
693 4 0.225048 0.087451 0.22732
449 4 0.193879 0.106172 0.17277
237 4 0.240383 0.147791 0.159103
582 4 0.260284 0.116898 0.175263
580 2 0.279865 0.115295 0.159798
28 3 0.308222 0.139367 0.253758
310 2 0.388015 0.090762 0.169928
632 4 0.382609 0.104231 0.248063
513 4 0.0501475 0.177477 0.220989
393 4 0.0523629 0.193163 0.235249
394 2 0.00474056 0.234904 0.215887
395 4 0.0144561 0.240025 0.193424
391 2 0.0705975 0.185837 0.250709
363 4 0.0791759 0.243654 0.197703
546 4 0.170532 0.179157 0.24121
338 4 0.0819572 0.259926 0.185306
283 2 0.296657 0.229889 0.171861
285 4 0.317094 0.21984 0.182181
27 3 0.311346 0.17591 0.245542
764 4 0.332701 0.223805 0.171136
749 4 0.0905351 0.280361 0.243192
647 4 0.0877448 0.310338 0.158573
361 2 0.0909594 0.257707 0.214698
371 4 0.154127 0.304206 0.198726
370 2 0.137475 0.288979 0.209498
372 4 0.120824 0.273752 0.220271
362 4 0.102743 0.27176 0.231693
344 4 0.241481 0.313604 0.247863
612 4 0.2814 0.310272 0.192018
610 2 0.267169 0.314461 0.212145
307 2 0.309256 0.286866 0.238589
308 4 0.315186 0.283734 0.214502
611 4 0.252937 0.318649 0.232272
303 4 0.330032 0.347947 0.200038
264 4 0.0242737 0.419636 0.242693
299 4 0.154759 0.353123 0.250768
301 2 0.322641 0.344995 0.176335
729 4 0.34514 0.352866 0.210588
727 2 0.334951 0.372601 0.222073
644 4 0.405802 0.374512 0.237545
728 4 0.324763 0.392336 0.233559
595 2 0.467163 0.399933 0.187428
597 4 0.464538 0.403225 0.212075
643 2 0.426617 0.384383 0.227824
645 4 0.447432 0.394254 0.218104
262 2 0.999415 0.421918 0.244107
417 4 0.172021 0.452674 0.174575
231 4 0.427343 0.462308 0.189501
229 2 0.433363 0.482776 0.20254
234 4 0.00059506 0.0480612 0.299657
232 2 0.0212944 0.0353132 0.293808
233 4 0.0419938 0.0225653 0.28796
1404 4 0.0598775 0.0212152 0.294507
1402 2 0.0740189 0.0114955 0.276321
316 2 0.0755243 0.0486213 0.320151
317 4 0.0710979 0.026223 0.309958
318 4 0.0799507 0.0710196 0.330345
428 4 0.0799157 0.0133779 0.321377
689 4 0.164427 0.0113052 0.252398
673 2 0.12484 0.0172029 0.255575
675 4 0.101879 0.0151492 0.265256
1403 4 0.0881602 0.00177579 0.258135
692 4 0.249481 0.0753004 0.269226
723 4 0.232354 0.0753784 0.27981
24 3 0.313577 0.0803016 0.261749
23 3 0.334094 0.0526217 0.27779
21 1 0.331352 0.0656791 0.258806
479 4 0.476834 0.0686875 0.304333
478 2 0.452252 0.0642017 0.303463
2664 4 0.48051 0.0520441 0.313352
480 4 0.427669 0.0597159 0.302593
1428 4 0.463215 0.0243995 0.340242
351 4 0.422817 0.0642787 0.283131
397 2 0.0685396 0.104786 0.325712
398 4 0.0678659 0.124623 0.310505
399 4 0.0692133 0.0849497 0.340918
721 2 0.231061 0.0855311 0.302623
722 4 0.229768 0.0956838 0.325436
29 3 0.330277 0.161993 0.274878
26 1 0.310556 0.160639 0.262727
30 3 0.292801 0.165393 0.276175
404 4 0.247569 0.126795 0.322207
403 2 0.255199 0.15031 0.325947
631 2 0.371922 0.124363 0.258341
350 4 0.401788 0.0990597 0.253997
707 4 0.348861 0.155615 0.281015
633 4 0.361235 0.144496 0.268619
706 2 0.35368 0.155746 0.305549
708 4 0.358498 0.155877 0.330084
349 2 0.412303 0.0816692 0.268564
743 4 0.480625 0.0793565 0.242122
333 4 0.484946 0.0929071 0.256306
331 2 0.486939 0.117766 0.258109
332 4 0.488932 0.142624 0.259912
762 4 0.482354 0.157382 0.250003
443 4 0.00457004 0.235179 0.25516
392 4 0.0888322 0.178512 0.26617
388 2 0.113615 0.223524 0.304483
389 4 0.11649 0.209021 0.324646
545 4 0.164669 0.198798 0.286824
544 2 0.1676 0.188978 0.264017
402 4 0.171094 0.217418 0.282447
390 4 0.110741 0.238027 0.284319
400 2 0.178834 0.241127 0.28423
405 4 0.26283 0.173826 0.329687
717 4 0.395509 0.20511 0.317824
761 4 0.440884 0.183761 0.259229
760 2 0.461619 0.170572 0.254616
748 2 0.0991712 0.300194 0.255731
300 4 0.107896 0.338472 0.26025
750 4 0.107807 0.320028 0.26827
401 4 0.186575 0.264835 0.286012
676 2 0.197419 0.320363 0.3171
345 4 0.228833 0.315242 0.296216
677 4 0.211306 0.323632 0.296566
343 2 0.235157 0.314423 0.272039
735 4 0.198375 0.333759 0.286054
496 2 0.294125 0.306741 0.293443
497 4 0.290715 0.305837 0.318196
377 4 0.278454 0.291136 0.318882
498 4 0.297535 0.307645 0.268689
309 4 0.303326 0.289997 0.262677
376 2 0.266286 0.271486 0.328423
543 4 0.391975 0.331249 0.337037
615 4 0.373134 0.33768 0.332973
365 4 0.023877 0.352443 0.293624
601 2 0.0493902 0.380469 0.310143
603 4 0.0322792 0.362276 0.308955
602 4 0.0665012 0.398662 0.311332
298 2 0.131327 0.345797 0.255509
734 4 0.172647 0.361487 0.253345
733 2 0.185511 0.347623 0.269699
433 2 0.297238 0.376428 0.322329
435 4 0.27829 0.392091 0.317764
434 4 0.316185 0.360764 0.326894
447 4 0.39591 0.373932 0.254804
614 4 0.333925 0.365798 0.319832
613 2 0.35353 0.351739 0.326403
445 2 0.37759 0.38246 0.269529
446 4 0.359271 0.390988 0.284255
549 4 0.0612015 0.41315 0.323508
2461 2 0.00837367 0.495105 0.321454
2690 4 0.99863 0.483408 0.289906
1757 4 0.109428 0.457039 0.250564
777 4 0.121625 0.485761 0.287325
775 2 0.121538 0.487798 0.312246
1756 2 0.111431 0.481922 0.249164
1437 4 0.274212 0.453308 0.319935
1435 2 0.262343 0.474329 0.313424
1436 4 0.250473 0.495351 0.306913
1803 4 0.336942 0.469699 0.250624
436 2 0.343344 0.459604 0.325308
437 4 0.364217 0.455308 0.312228
1801 2 0.335959 0.494626 0.252324
119 3 0.484518 0.461005 0.318008
606 4 0.145912 0.0870053 0.371169
732 4 0.0824539 0.0736667 0.348874
730 2 0.106198 0.0754464 0.356506
731 4 0.129941 0.0772261 0.364138
368 4 0.1027 0.0144122 0.417168
1699 2 0.317996 0.00434012 0.351906
1700 4 0.317491 0.0243446 0.366897
683 4 0.267883 0.0697863 0.383234
699 4 0.352201 0.0470512 0.328351
697 2 0.372227 0.0540403 0.34159
698 4 0.392253 0.0610293 0.354829
257 4 0.406363 0.0476844 0.34538
426 4 0.367052 0.0298895 0.372735
425 4 0.335851 0.0201252 0.410575
424 2 0.351451 0.0250073 0.391655
258 4 0.446635 0.0182178 0.348635
256 2 0.426499 0.0329511 0.347008
2757 4 0.00692849 0.0847977 0.349631
458 4 0.0135823 0.128932 0.423568
2586 4 0.0135431 0.116961 0.408061
2584 2 0.00840031 0.108311 0.385172
2585 4 0.00325756 0.0996618 0.362283
598 2 0.14971 0.167177 0.358171
600 4 0.146525 0.143024 0.352544
604 2 0.17024 0.0903013 0.375905
249 4 0.239409 0.11105 0.333244
605 4 0.194569 0.0935973 0.380642
248 4 0.20508 0.106707 0.369346
247 2 0.222245 0.108878 0.351295
682 2 0.273433 0.0871692 0.400329
321 4 0.324403 0.141641 0.394337
319 2 0.308144 0.12942 0.408879
684 4 0.278982 0.104552 0.417423
599 4 0.152894 0.19133 0.363798
686 4 0.163839 0.187262 0.411103
275 4 0.164198 0.207256 0.372344
474 4 0.219395 0.218693 0.351295
276 4 0.209115 0.227988 0.365038
472 2 0.239076 0.204917 0.344361
274 2 0.186656 0.217622 0.368691
473 4 0.258756 0.191142 0.337427
715 2 0.393085 0.199885 0.342155
466 2 0.3813 0.193464 0.406293
716 4 0.390661 0.19466 0.366486
467 4 0.394418 0.20016 0.386088
452 4 0.457126 0.184947 0.383808
451 2 0.451492 0.176098 0.406505
269 4 0.462606 0.23848 0.35038
268 2 0.47929 0.246009 0.367413
419 4 0.448614 0.245605 0.338156
346 2 0.0459966 0.329213 0.398614
347 4 0.0663472 0.31624 0.392078
618 4 0.0728946 0.325002 0.375834
616 2 0.095934 0.316906 0.381203
617 4 0.118973 0.30881 0.386571
374 4 0.135403 0.301116 0.376228
373 2 0.152242 0.301548 0.357749
678 4 0.183531 0.317094 0.337634
375 4 0.16908 0.30198 0.33927
509 4 0.239992 0.302076 0.362843
378 4 0.254119 0.251836 0.337963
541 2 0.4082 0.312326 0.339004
542 4 0.424424 0.293403 0.340972
420 4 0.410831 0.277995 0.343065
418 2 0.429723 0.2618 0.340611
348 4 0.025646 0.342187 0.405151
508 2 0.252572 0.322721 0.369223
503 4 0.232568 0.393253 0.425157
510 4 0.265153 0.343366 0.375603
336 4 0.332649 0.359814 0.421691
753 4 0.483207 0.408512 0.335865
561 4 0.468267 0.394151 0.395314
751 2 0.482087 0.398065 0.358554
752 4 0.480966 0.387618 0.381242
559 2 0.484727 0.397334 0.413865
547 2 0.0775188 0.419429 0.341383
407 4 0.0966226 0.434846 0.377132
548 4 0.0938361 0.425708 0.359257
406 2 0.105962 0.448126 0.396149
501 4 0.0916311 0.512056 0.377684
1556 4 0.227574 0.493365 0.404532
5 3 0.294319 0.492795 0.350581
438 4 0.322472 0.463901 0.338387
3 3 0.29967 0.458654 0.335635
1 1 0.302985 0.472062 0.35428
4 3 0.292895 0.462459 0.372838
2 3 0.325577 0.473884 0.358208
592 2 0.406262 0.484599 0.371812
588 4 0.409897 0.473417 0.410056
593 4 0.398657 0.481667 0.39545
594 4 0.413867 0.48753 0.348174
713 4 0.432625 0.488441 0.351574
714 4 0.471579 0.460639 0.337069
712 2 0.452102 0.47454 0.344321
116 1 0.492016 0.44511 0.333159
117 3 0.479439 0.446624 0.35236
718 2 0.0336399 0.00267469 0.44838
719 4 0.0535453 0.0103841 0.43536
369 4 0.0527975 0.0173847 0.415914
367 2 0.077749 0.0158985 0.416541
1781 4 0.117205 0.00041857 0.414303
441 4 0.319426 0.019607 0.424128
962 4 0.308877 0.0232975 0.439323
961 2 0.302631 0.0306237 0.462398
963 4 0.296384 0.0379499 0.485474
432 4 0.291326 0.0449902 0.503417
457 2 0.0337498 0.142612 0.429163
320 4 0.291884 0.117198 0.42342
725 4 0.388229 0.0761738 0.446403
724 2 0.396615 0.0969392 0.435283
726 4 0.405001 0.117705 0.424163
642 4 0.493637 0.127911 0.460716
453 4 0.445858 0.16725 0.429202
2878 2 0.498935 0.108362 0.426246
2880 4 0.484958 0.121545 0.442246
640 2 0.486377 0.132891 0.484118
515 4 0.435672 0.175609 0.444971
459 4 0.0539172 0.156292 0.434759
260 4 0.0555015 0.176116 0.430882
259 2 0.0788508 0.184251 0.434597
685 2 0.142248 0.191374 0.423025
687 4 0.120657 0.195485 0.434946
261 4 0.1022 0.192386 0.438313
1035 4 0.11217 0.20245 0.451269
1033 2 0.114501 0.212476 0.474056
1034 4 0.116832 0.222501 0.496842
489 4 0.324465 0.2221 0.454873
487 2 0.325599 0.245329 0.445691
468 4 0.368182 0.186768 0.426499
514 2 0.411665 0.177855 0.451589
411 4 0.338326 0.211908 0.464341
516 4 0.387658 0.180101 0.458207
409 2 0.35541 0.196587 0.454412
410 4 0.372494 0.181266 0.444483
575 4 0.387054 0.193936 0.472746
574 2 0.388304 0.195539 0.497667
266 4 0.360607 0.249518 0.447424
305 4 0.492398 0.171278 0.41157
2847 4 0.00166534 0.321046 0.471068
695 4 0.0369592 0.2684 0.486352
694 2 0.0605244 0.260307 0.48844
1258 2 0.113979 0.279014 0.498168
1259 4 0.125144 0.301299 0.500145
9 3 0.124462 0.316854 0.4842
696 4 0.0840896 0.252213 0.490528
857 4 0.22616 0.287061 0.498861
488 4 0.326733 0.268557 0.436509
267 4 0.383735 0.28767 0.470012
265 2 0.372171 0.268594 0.458718
584 4 0.49621 0.257833 0.487844
583 2 0.484694 0.254282 0.465936
585 4 0.473178 0.250732 0.444028
681 4 0.0013478 0.418053 0.421793
326 4 0.0685837 0.353517 0.434576
325 2 0.0806685 0.356621 0.456244
384 4 0.12749 0.418083 0.467167
6 1 0.12729 0.339434 0.488735
327 4 0.0927534 0.359725 0.477912
7 3 0.110422 0.351247 0.478484
711 4 0.133408 0.382354 0.437206
10 3 0.147378 0.346522 0.480679
709 2 0.155036 0.392441 0.444667
504 4 0.186159 0.387844 0.44298
502 2 0.209363 0.390548 0.434069
710 4 0.176664 0.402527 0.452128
774 4 0.303515 0.421993 0.458896
772 2 0.292056 0.414853 0.47994
669 4 0.30171 0.414986 0.440035
668 4 0.332531 0.380369 0.421263
667 2 0.31712 0.397677 0.430649
335 4 0.382166 0.360812 0.428605
334 2 0.357408 0.360313 0.425148
238 2 0.404014 0.395212 0.42898
240 4 0.394447 0.373802 0.420305
3307 2 0.498611 0.388069 0.48432
560 4 0.501187 0.400518 0.432416
3309 4 0.485086 0.396091 0.464881
239 4 0.413581 0.416622 0.437655
1381 2 0.0241306 0.49201 0.452369
1383 4 0.0372451 0.472069 0.444916
680 4 0.0276661 0.455864 0.441245
679 2 0.014507 0.436959 0.431519
408 4 0.115301 0.461405 0.415165
569 4 0.109284 0.471475 0.430042
568 2 0.128563 0.487382 0.429395
383 4 0.117171 0.454255 0.434215
382 2 0.12233 0.436169 0.450691
1555 2 0.244851 0.49286 0.4226
1557 4 0.262127 0.492355 0.440668
634 2 0.287569 0.458772 0.444389
636 4 0.271568 0.476201 0.436302
635 4 0.30357 0.441343 0.452475
587 4 0.424096 0.427816 0.424875
586 2 0.416996 0.450617 0.417466
882 4 0.369738 0.420315 0.493612
663 4 0.446608 0.487155 0.45026
661 2 0.455123 0.49903 0.47055
1058 4 0.137297 0.0858669 0.558924
342 4 0.222348 0.0768015 0.512953
340 2 0.227265 0.0525101 0.509646
2430 4 0.217148 0.0148116 0.50867
341 4 0.232181 0.0282186 0.50634
1152 4 0.208257 0.0857082 0.522724
2428 2 0.198495 0.999427 0.515038
430 2 0.30573 0.0575858 0.519513
431 4 0.320133 0.0701814 0.535609
1031 4 0.285517 0.0630688 0.576764
843 4 0.33171 0.0864788 0.538214
1030 2 0.261722 0.0702756 0.57941
1217 4 0.391316 0.0671041 0.530627
1216 2 0.414932 0.058908 0.530062
841 2 0.354086 0.0757001 0.541095
842 4 0.376463 0.0649215 0.543975
1218 4 0.438547 0.0507118 0.529496
3007 2 0.502697 0.0479238 0.57133
470 4 0.0120151 0.147207 0.52237
1057 2 0.129906 0.107161 0.569746
939 4 0.11161 0.142607 0.589603
1151 4 0.218641 0.106777 0.566872
1150 2 0.213449 0.0962426 0.544798
1181 4 0.23636 0.115807 0.539733
1180 2 0.250689 0.132751 0.528211
1182 4 0.265017 0.149695 0.516688
900 4 0.276142 0.163216 0.527283
898 2 0.301013 0.16111 0.525815
899 4 0.325885 0.159004 0.524347
641 4 0.479116 0.137872 0.50752
469 2 0.0242617 0.168886 0.520091
471 4 0.0365083 0.190566 0.517811
1199 4 0.0237803 0.239893 0.577169
877 2 0.0478218 0.214023 0.585074
879 4 0.0585812 0.19225 0.579129
1272 4 0.0763051 0.182013 0.579252
1198 2 0.00313585 0.246051 0.564478
798 4 0.215147 0.243227 0.577256
796 2 0.239575 0.247083 0.573568
649 2 0.282954 0.248229 0.502863
650 4 0.260701 0.237231 0.505871
576 4 0.389554 0.197141 0.522587
3159 4 0.493548 0.16581 0.56772
983 4 0.0443554 0.301714 0.553354
1245 4 0.0534268 0.28939 0.565605
982 2 0.0330093 0.323663 0.557185
1243 2 0.053179 0.268176 0.578837
1136 4 0.154852 0.301062 0.588119
1260 4 0.102814 0.256729 0.496191
858 4 0.189197 0.257455 0.51492
948 4 0.171595 0.291574 0.58597
856 2 0.207679 0.272258 0.506891
946 2 0.191262 0.276138 0.586306
804 4 0.25235 0.338106 0.520986
947 4 0.210929 0.260702 0.586642
797 4 0.264002 0.250938 0.569879
792 4 0.288151 0.304743 0.590361
651 4 0.305206 0.259227 0.499855
872 4 0.390366 0.262142 0.582471
871 2 0.393688 0.285628 0.574563
873 4 0.39701 0.309114 0.566656
813 4 0.405847 0.315787 0.549455
906 4 0.467701 0.294371 0.555958
953 4 0.456769 0.294069 0.572926
904 2 0.490373 0.284106 0.558366
952 2 0.453116 0.315287 0.58564
984 4 0.0216633 0.345612 0.561017
3354 4 0.000958459 0.347324 0.564074
8 3 0.126191 0.343116 0.511618
1190 4 0.233151 0.3665 0.560347
803 4 0.238874 0.379277 0.545968
802 2 0.245612 0.358692 0.533477
1189 2 0.220319 0.375844 0.579666
1237 2 0.307103 0.3333 0.56568
930 4 0.323694 0.37075 0.568965
773 4 0.280596 0.407713 0.500985
1239 4 0.316355 0.355128 0.557734
881 4 0.337651 0.385754 0.510246
811 2 0.406234 0.340691 0.551649
812 4 0.406621 0.365595 0.553844
927 4 0.424392 0.367998 0.547128
929 4 0.361417 0.403535 0.567286
928 2 0.342555 0.387143 0.568125
880 2 0.353694 0.403035 0.501929
926 4 0.439852 0.415426 0.543617
925 2 0.432122 0.391712 0.545372
539 4 0.0708374 0.455677 0.581533
538 2 0.0807672 0.470102 0.563686
540 4 0.090697 0.484527 0.54584
1160 4 0.122574 0.488326 0.548463
1159 2 0.138684 0.477135 0.563967
1161 4 0.154795 0.465943 0.579471
2244 4 0.107072 0.492082 0.536004
1953 4 0.384623 0.497308 0.569439
1000 2 0.457302 0.447558 0.566762
1001 4 0.462803 0.47021 0.575805
1911 4 0.447627 0.48277 0.572845
1002 4 0.451801 0.424906 0.557718
945 4 0.0446612 0.0196589 0.671734
1082 4 0.0730449 0.078149 0.649778
943 2 0.0521471 0.0434474 0.673537
1076 4 0.0602287 0.0830334 0.664219
823 2 0.154194 0.0176829 0.635748
825 4 0.138831 0.0347725 0.625895
951 4 0.295905 0.056406 0.593028
949 2 0.313617 0.0402614 0.600156
950 4 0.33133 0.0241169 0.607283
2283 4 0.395059 0.0300607 0.628013
2281 2 0.402925 0.0132204 0.644738
3008 4 0.494928 0.048749 0.595081
809 4 0.47549 0.0458935 0.59513
808 2 0.468278 0.0563908 0.616647
42 3 0.459312 0.0551918 0.656805
810 4 0.461066 0.0668881 0.638164
41 1 0.453322 0.0769348 0.661335
1126 2 0.0182563 0.101497 0.584638
1083 4 0.0481639 0.0965591 0.610501
938 4 0.0631332 0.132274 0.596228
1081 2 0.0606044 0.0873541 0.630139
1127 4 0.0419934 0.0972459 0.591246
1155 4 0.126631 0.134278 0.597896
937 2 0.0873718 0.137441 0.592915
1059 4 0.122514 0.128454 0.580568
1153 2 0.148555 0.143948 0.605039
1032 4 0.237926 0.0774824 0.582057
1154 4 0.170478 0.153618 0.612182
1221 4 0.162493 0.161708 0.628079
43 3 0.431298 0.0772834 0.668631
45 3 0.45543 0.089398 0.642391
3425 4 0.470165 0.0975661 0.658609
3424 2 0.489295 0.113389 0.655637
878 4 0.0370624 0.235796 0.59102
1179 4 0.0184185 0.247757 0.66685
1271 4 0.119615 0.203672 0.591735
1270 2 0.0979602 0.192843 0.585493
1212 4 0.201459 0.195238 0.66805
1219 2 0.173685 0.179394 0.641758
1220 4 0.184877 0.19708 0.655438
1210 2 0.225452 0.190852 0.662545
888 4 0.268743 0.18485 0.652107
886 2 0.293317 0.18189 0.655643
1211 4 0.249444 0.186466 0.65704
887 4 0.317892 0.178929 0.659179
1193 4 0.372072 0.202893 0.658382
1244 4 0.0529312 0.246962 0.592069
1135 2 0.147199 0.323728 0.59539
791 4 0.279579 0.256384 0.580946
1238 4 0.297852 0.311472 0.573625
790 2 0.283865 0.280564 0.585654
807 4 0.319403 0.305679 0.661753
805 2 0.328031 0.328997 0.659109
954 4 0.449463 0.336505 0.598354
1039 2 0.0597661 0.386042 0.604187
1041 4 0.0417641 0.385886 0.621539
3264 4 0.0316407 0.375066 0.634964
3262 2 0.0406521 0.35713 0.649873
3240 4 0.0145267 0.384887 0.637581
1040 4 0.0777682 0.386197 0.586835
3238 2 2.1297e-05 0.396896 0.621133
897 4 0.154125 0.355667 0.613275
993 4 0.0937554 0.385782 0.600008
1137 4 0.139546 0.346393 0.602662
991 2 0.116148 0.375366 0.603916
992 4 0.13854 0.36495 0.607824
895 2 0.176088 0.367574 0.614295
1172 4 0.214812 0.403169 0.605656
1191 4 0.207487 0.385189 0.598984
896 4 0.198051 0.37948 0.615316
806 4 0.336659 0.352316 0.656465
1204 2 0.405348 0.416017 0.64744
1206 4 0.406107 0.394101 0.635429
1188 4 0.157166 0.474666 0.597577
1186 2 0.167205 0.460944 0.61591
1171 2 0.201259 0.41708 0.621403
1173 4 0.187706 0.430991 0.637151
1187 4 0.177245 0.447221 0.634242
891 4 0.298985 0.439975 0.578761
889 2 0.314692 0.455753 0.590142
890 4 0.330398 0.471531 0.601523
1951 2 0.365396 0.48458 0.579109
1230 4 0.341258 0.44802 0.649337
1952 4 0.34617 0.471852 0.58878
1205 4 0.404588 0.437934 0.659452
1269 4 0.452637 0.473351 0.618303
1267 2 0.45583 0.484423 0.640493
1268 4 0.459024 0.495494 0.662683
944 4 0.059633 0.0672359 0.675339
1283 4 0.13865 0.0597567 0.682243
2049 4 0.119256 0.0430708 0.762006
1147 2 0.217728 0.0552002 0.720448
1148 4 0.21663 0.0799247 0.716888
1149 4 0.218826 0.0304757 0.724008
1163 4 0.474076 0.0638478 0.671708
1162 2 0.490064 0.0503896 0.685435
2320 2 0.499402 0.0414044 0.737936
864 4 0.0506515 0.110753 0.718174
1075 2 0.0613097 0.0984659 0.683862
1077 4 0.0623907 0.113898 0.703505
1107 4 0.0658291 0.124213 0.71925
851 4 0.0668232 0.132129 0.699759
850 2 0.0557093 0.154494 0.698561
862 2 0.0363604 0.101649 0.736561
1282 2 0.141419 0.0842201 0.686608
1105 2 0.0836041 0.126249 0.736716
1284 4 0.144188 0.108684 0.690973
909 4 0.135115 0.132046 0.729016
907 2 0.155814 0.129416 0.715239
1226 4 0.229926 0.094609 0.719231
908 4 0.176513 0.126785 0.701462
1227 4 0.195088 0.122453 0.696609
1225 2 0.212507 0.108531 0.70792
829 2 0.327293 0.147096 0.688686
830 4 0.32286 0.164082 0.670881
1004 4 0.369808 0.0872253 0.696726
1003 2 0.355376 0.103167 0.709485
1005 4 0.340945 0.119109 0.722243
831 4 0.331725 0.13011 0.706491
44 3 0.467283 0.0852682 0.677889
852 4 0.0445953 0.17686 0.697364
1177 2 0.00111403 0.243578 0.684408
1073 4 0.0937948 0.214917 0.732803
1072 2 0.0998609 0.237106 0.723004
1194 4 0.32345 0.195487 0.667426
1192 2 0.347761 0.19919 0.662904
1025 4 0.449405 0.189264 0.67096
1262 4 0.462804 0.201959 0.731368
1142 4 0.462241 0.170532 0.729988
1024 2 0.453679 0.188246 0.695575
1026 4 0.457952 0.187228 0.720189
1261 2 0.459054 0.226123 0.736585
1145 4 0.473562 0.186277 0.727199
1263 4 0.455305 0.250287 0.741803
1074 4 0.105927 0.259295 0.713205
1209 4 0.12368 0.312395 0.691769
1207 2 0.109092 0.293947 0.700259
1208 4 0.0945052 0.275499 0.708748
821 4 0.142192 0.321525 0.694003
820 2 0.163068 0.307939 0.691819
822 4 0.183944 0.294353 0.689635
1063 2 0.21981 0.2945 0.707007
1064 4 0.201652 0.285768 0.692202
1065 4 0.237969 0.303232 0.721813
3123 4 0.485847 0.266 0.682827
3263 4 0.0496634 0.339193 0.664781
892 2 0.0175506 0.353718 0.747158
894 4 0.0401668 0.361389 0.739753
1280 4 0.058562 0.367287 0.729891
1279 2 0.06179 0.389575 0.719029
816 4 0.0698281 0.352153 0.736296
814 2 0.0944427 0.348275 0.734232
815 4 0.119057 0.344398 0.732168
1028 4 0.234267 0.380445 0.722925
1066 2 0.197768 0.376654 0.733967
1068 4 0.215076 0.37993 0.716222
1027 2 0.240297 0.402843 0.713592
941 4 0.169739 0.356722 0.752407
1019 4 0.352951 0.406827 0.750783
1018 2 0.376632 0.41124 0.744082
1281 4 0.065018 0.411864 0.708167
1983 4 0.0800661 0.424085 0.710744
1981 2 0.0824074 0.448448 0.715854
1982 4 0.0847486 0.472812 0.720965
1029 4 0.246327 0.425242 0.704258
1140 4 0.241286 0.444444 0.699523
2016 4 0.181329 0.499341 0.740611
1138 2 0.251181 0.451114 0.677551
1139 4 0.261076 0.457784 0.655579
1987 2 0.332211 0.467981 0.73011
1229 4 0.332644 0.450131 0.698552
1228 2 0.336951 0.449076 0.673944
1989 4 0.345888 0.456045 0.712916
1020 4 0.400313 0.415653 0.73738
2991 4 0.0201824 0.0285659 0.780105
2989 2 0.0206816 0.0523556 0.772425
2990 4 0.0211809 0.0761452 0.764745
1202 4 0.10626 0.057791 0.758129
1201 2 0.10699 0.0794086 0.770671
2047 2 0.129392 0.0215978 0.769839
2048 4 0.139529 0.000124862 0.777671
1257 4 0.234678 0.0693727 0.752967
1255 2 0.242377 0.0828345 0.77258
817 2 0.324013 0.0408305 0.813862
819 4 0.309538 0.0593353 0.822419
1085 4 0.312531 0.0771135 0.830183
818 4 0.338489 0.0223257 0.805306
1050 4 0.353181 0.0028689 0.779945
974 4 0.355161 0.0176897 0.794112
1113 4 0.410711 0.0589607 0.770967
973 2 0.375369 0.00694487 0.804181
2322 4 0.488803 0.0502714 0.758774
1111 2 0.434443 0.061783 0.778318
845 4 0.473571 0.0767862 0.795432
1112 4 0.458174 0.0646053 0.785669
844 2 0.492596 0.0878887 0.783601
3083 4 0.00568315 0.0852615 0.759631
863 4 0.0220693 0.0925456 0.754947
833 4 0.0168505 0.0895291 0.774579
832 2 0.0192 0.109018 0.790065
834 4 0.0215495 0.128508 0.805551
1125 4 0.0158954 0.143524 0.81841
1123 2 0.0382625 0.143518 0.829585
1106 4 0.101379 0.128285 0.754183
1203 4 0.107721 0.101026 0.783214
911 4 0.096437 0.120892 0.812969
34 3 0.104736 0.119738 0.769886
31 1 0.110613 0.126995 0.791127
35 3 0.0938844 0.139719 0.799897
32 3 0.114023 0.108647 0.804576
33 3 0.130247 0.139322 0.790136
840 4 0.243322 0.102702 0.811433
1256 4 0.250076 0.0962964 0.792193
1084 2 0.318183 0.0975687 0.816961
1086 4 0.323835 0.118024 0.80374
1143 4 0.445486 0.157476 0.77526
48 3 0.436925 0.169505 0.788407
1130 4 0.13703 0.214706 0.794523
1129 2 0.1603 0.217931 0.785961
1131 4 0.18357 0.221156 0.7774
1277 4 0.184089 0.240173 0.784694
978 4 0.245501 0.210088 0.765622
977 4 0.293923 0.21751 0.775665
918 4 0.301383 0.232945 0.767562
976 2 0.269712 0.213799 0.770644
1298 4 0.313023 0.22327 0.779846
1297 2 0.32669 0.203716 0.77236
1299 4 0.340358 0.184163 0.764874