ITEM: TIMESTEP
1160000
ITEM: NUMBER OF ATOMS
4590
ITEM: BOX BOUNDS pp pp pp
-9.9985700000000008e+00 9.9985700000000008e+00
-9.9985700000000008e+00 9.9985700000000008e+00
-9.9985700000000008e+00 9.9985700000000008e+00
ITEM: ATOMS id type xs ys zs
1668 4 0.0823217 0.025484 0.075394
1475 4 0.265297 0.0156099 0.0666096
297 4 0.338234 0.0505733 0.04985
295 2 0.354895 0.0687101 0.0455314
747 4 0.456599 0.0604909 0.00521245
2974 2 0.470288 0.027643 0.0261911
2976 4 0.482232 0.00961917 0.0387473
2975 4 0.458344 0.0456669 0.0136348
986 4 0.445532 0.0435725 0.99972
2467 2 0.492819 0.00341361 0.0796919
745 2 0.443686 0.0815951 0.00160102
2468 4 0.486135 0.999551 0.0559102
565 2 0.167352 0.171998 0.0401897
567 4 0.18726 0.172782 0.0250816
358 2 0.337839 0.141385 0.0745159
296 4 0.371556 0.086847 0.0412127
557 4 0.373613 0.0906505 0.0217835
556 2 0.392774 0.101396 0.00984445
769 2 0.393465 0.142624 0.0580141
359 4 0.361165 0.146016 0.0667964
558 4 0.411936 0.112142 0.997905
770 4 0.377021 0.159931 0.0654476
827 4 0.364217 0.083546 0.00643952
771 4 0.409909 0.125317 0.0505805
746 4 0.430773 0.102699 0.99799
566 4 0.147445 0.171213 0.0552979
664 2 0.385399 0.198763 0.0447626
665 4 0.378476 0.175676 0.0514147
666 4 0.392321 0.22185 0.0381104
554 4 0.0780885 0.263426 0.0112993
555 4 0.10161 0.292004 0.0449262
553 2 0.0898492 0.277715 0.0281128
287 4 0.160035 0.309776 0.0321188
292 2 0.16536 0.271105 0.0129228
293 4 0.16211 0.29446 0.0212382
286 2 0.146412 0.328965 0.0236692
507 4 0.162227 0.294099 0.0423989
505 2 0.179314 0.296853 0.060444
506 4 0.196402 0.299606 0.0784892
481 2 0.23416 0.274694 0.0721926
483 4 0.212272 0.285429 0.0777442
537 4 0.202242 0.314924 0.0901912
482 4 0.256049 0.263959 0.066641
573 4 0.256621 0.265848 0.046418
571 2 0.25903 0.269567 0.0218102
322 2 0.398177 0.278215 0.0568153
1069 2 0.38955 0.302704 0.00674195
324 4 0.403691 0.284359 0.0332137
1070 4 0.4092 0.28947 0.0147365
741 4 0.356324 0.330872 0.0291572
955 2 0.336033 0.321745 0.995895
1071 4 0.369899 0.315937 0.998747
957 4 0.355981 0.325874 0.0103929
671 4 0.453103 0.316643 0.0572921
280 2 0.443345 0.297911 0.0259059
281 4 0.458396 0.314158 0.0375102
282 4 0.428293 0.281664 0.0143015
670 2 0.435281 0.323691 0.0733501
288 4 0.132788 0.348153 0.0152196
454 2 0.149734 0.361759 0.0713528
456 4 0.169558 0.367447 0.0572165
250 2 0.304237 0.386868 0.036015
251 4 0.30465 0.364261 0.0253401
252 4 0.303825 0.409474 0.0466899
609 4 0.297743 0.407522 0.0666974
739 2 0.354871 0.327398 0.0538755
740 4 0.353417 0.323924 0.0785938
495 4 0.397895 0.381748 0.0721368
493 2 0.396061 0.406424 0.0757353
14 3 0.392948 0.368706 0.0878852
3347 4 0.497672 0.33585 0.000703952
330 4 0.999162 0.459865 0.0247003
245 4 0.242103 0.464691 0.0584398
626 4 0.236693 0.447413 0.0667256
625 2 0.212185 0.442491 0.066175
627 4 0.187677 0.437569 0.0656244
244 2 0.259571 0.4569 0.042336
246 4 0.27704 0.449109 0.0262322
272 4 0.276568 0.46513 0.0134358
494 4 0.394227 0.431099 0.0793337
563 4 0.466888 0.481567 0.0529531
228 4 0.471557 0.489117 0.071309
562 2 0.446732 0.483067 0.0382336
564 4 0.426576 0.484567 0.023514
854 4 0.43101 0.469623 0.0115797
1674 4 0.420881 0.502644 0.0262597
1666 2 0.0873119 0.0473246 0.0864966
19 3 0.0632825 0.0683959 0.137379
18 3 0.0699623 0.033947 0.151976
16 1 0.0577461 0.0535349 0.154317
17 3 0.0353401 0.0485506 0.152808
1667 4 0.092302 0.0691652 0.0975991
1539 4 0.177388 0.998179 0.160398
492 4 0.272389 0.0219478 0.0839361
491 4 0.26987 0.0586101 0.117851
490 2 0.27113 0.040279 0.100894
486 4 0.3733 0.0265158 0.101689
2722 2 0.481542 0.0488049 0.162998
2723 4 0.463795 0.0635675 0.153392
2469 4 0.499504 0.00727657 0.103474
701 4 0.083021 0.0844168 0.104021
700 2 0.0847613 0.101382 0.122306
476 4 0.10582 0.121147 0.145086
702 4 0.0865016 0.118347 0.140591
449 4 0.190934 0.0981791 0.171124
237 4 0.240627 0.13919 0.179213
360 4 0.314512 0.136753 0.0822354
581 4 0.298248 0.111552 0.152236
582 4 0.257529 0.134401 0.170142
580 2 0.277888 0.122976 0.161189
628 2 0.380929 0.132488 0.135089
630 4 0.380174 0.151735 0.119146
312 4 0.398114 0.108247 0.159809
629 4 0.381684 0.113241 0.151032
738 4 0.186522 0.214943 0.107167
737 4 0.220971 0.179339 0.113978
736 2 0.203746 0.197141 0.110573
277 2 0.237082 0.242565 0.167072
279 4 0.215922 0.230533 0.172788
461 4 0.301816 0.239415 0.0990955
460 2 0.326242 0.234485 0.101148
354 4 0.281246 0.241063 0.0978104
278 4 0.258243 0.254596 0.161356
352 2 0.273183 0.246214 0.120911
353 4 0.265121 0.251366 0.144011
284 4 0.269803 0.239033 0.157267
462 4 0.350669 0.229554 0.1032
254 4 0.375427 0.170457 0.116084
255 4 0.35825 0.217421 0.115793
253 2 0.366839 0.193939 0.115938
765 4 0.35475 0.219963 0.133869
624 4 0.363369 0.23279 0.11994
763 2 0.341244 0.222553 0.154751
622 2 0.377774 0.250865 0.110404
648 4 0.0366728 0.297235 0.157615
339 4 0.0659158 0.259424 0.131042
337 2 0.07743 0.254449 0.152672
536 4 0.212494 0.316085 0.139123
535 2 0.207368 0.315504 0.114657
755 4 0.26569 0.269576 0.148881
387 4 0.319258 0.329001 0.132326
323 4 0.392664 0.272072 0.0804168
623 4 0.39218 0.268941 0.100868
12 3 0.40889 0.339529 0.105413
528 4 0.468293 0.275697 0.123957
518 4 0.477873 0.276341 0.10655
526 2 0.446089 0.268915 0.13324
527 4 0.423885 0.262133 0.142522
517 2 0.499571 0.265673 0.100184
672 4 0.417458 0.330738 0.089408
551 4 0.0713499 0.35409 0.119519
455 4 0.12991 0.356071 0.0854891
552 4 0.111572 0.362204 0.0909345
550 2 0.0914608 0.358147 0.105227
291 4 0.227728 0.417354 0.144575
302 4 0.312589 0.330538 0.151453
385 2 0.336339 0.332387 0.114383
15 3 0.371687 0.341992 0.10376
386 4 0.353421 0.335773 0.0964408
11 1 0.390972 0.353951 0.105684
13 3 0.391064 0.365653 0.125721
104 3 0.492862 0.342189 0.120544
1791 4 0.0344221 0.483715 0.146998
1466 4 0.0266746 0.475874 0.163671
1789 2 0.051387 0.490992 0.130133
416 4 0.208574 0.411127 0.145762
415 2 0.194468 0.430578 0.152678
289 2 0.250625 0.424073 0.152041
417 4 0.180361 0.45003 0.159593
607 2 0.309082 0.421372 0.0841556
767 4 0.280559 0.493303 0.170052
766 2 0.283286 0.469625 0.162495
768 4 0.286014 0.445948 0.154939
290 4 0.273523 0.430791 0.159508
608 4 0.320421 0.435221 0.101614
525 4 0.380479 0.490168 0.116343
658 2 0.358604 0.439099 0.101447
659 4 0.336739 0.437519 0.113472
660 4 0.38047 0.440678 0.089422
523 2 0.361898 0.505095 0.108785
226 2 0.478662 0.468262 0.0831308
227 4 0.485768 0.447407 0.0949525
1420 2 0.0386497 0.00127529 0.173586
20 3 0.0619839 0.0629564 0.174613
2480 4 0.0219349 0.040149 0.164107
1422 4 0.0283309 0.0240459 0.173137
2479 2 0.00563139 0.057387 0.171996
674 4 0.151525 0.00822928 0.250133
673 2 0.127588 0.00160106 0.247263
448 2 0.192534 0.0750765 0.180552
1506 4 0.244758 0.0327273 0.179964
450 4 0.194134 0.051974 0.18998
691 2 0.228541 0.0848623 0.241864
1504 2 0.230511 0.0139931 0.188405
693 4 0.218181 0.0885443 0.219407
689 4 0.166006 0.0204926 0.241399
688 2 0.180618 0.00199674 0.233058
652 2 0.283542 0.0222104 0.183267
653 4 0.3052 0.0195316 0.195472
654 4 0.261884 0.0248892 0.171063
25 3 0.327616 0.0519028 0.241316
311 4 0.375525 0.0737449 0.188094
758 4 0.370057 0.0541503 0.19216
759 4 0.349406 0.0584581 0.2375
757 2 0.359732 0.0563042 0.21483
743 4 0.485157 0.0709466 0.24255
379 2 0.993638 0.111124 0.200298
512 4 0.0193307 0.132226 0.200267
511 2 0.0360329 0.149864 0.206194
380 4 0.983149 0.0919016 0.188229
513 4 0.0527351 0.167501 0.21212
475 2 0.0976883 0.131508 0.166339
578 4 0.0985371 0.0834931 0.242459
477 4 0.0895567 0.141869 0.187593
577 2 0.10881 0.0868614 0.219913
579 4 0.119082 0.0902298 0.197367
236 4 0.202662 0.112115 0.161149
235 2 0.221645 0.125653 0.170181
310 2 0.38682 0.0909962 0.173952
333 4 0.489187 0.0902213 0.246147
762 4 0.470814 0.154418 0.240469
521 4 0.491536 0.154292 0.242936
393 4 0.0661497 0.179681 0.220692
394 2 0.0102233 0.236756 0.228377
395 4 0.0306162 0.237814 0.213949
443 4 0.993685 0.23141 0.262375
546 4 0.159114 0.188278 0.240878
283 2 0.29005 0.23284 0.170566
285 4 0.310297 0.226647 0.183866
27 3 0.323802 0.183771 0.247675
764 4 0.327738 0.225143 0.175633
646 2 0.0508933 0.316874 0.16372
363 4 0.0929324 0.243983 0.192137
647 4 0.0651138 0.336513 0.169825
338 4 0.0889442 0.249473 0.174301
749 4 0.101365 0.27818 0.243379
361 2 0.101694 0.260283 0.208951
371 4 0.165503 0.309007 0.210269
370 2 0.147526 0.292473 0.215615
372 4 0.129548 0.275938 0.220961
362 4 0.110456 0.276582 0.225766
344 4 0.244025 0.315775 0.256275
754 2 0.270182 0.285385 0.167725
756 4 0.274674 0.301194 0.186568
612 4 0.268714 0.318779 0.188314
610 2 0.259655 0.320084 0.211582
307 2 0.312024 0.292374 0.232246
308 4 0.316499 0.278658 0.211826
611 4 0.250597 0.321389 0.234851
264 4 0.0273161 0.412771 0.235769
303 4 0.319962 0.364079 0.187803
301 2 0.316275 0.347308 0.169628
729 4 0.332375 0.358556 0.203208
727 2 0.339803 0.376578 0.218867
644 4 0.409515 0.378486 0.235663
728 4 0.347231 0.3946 0.234527
596 4 0.475232 0.401709 0.158457
595 2 0.470453 0.403737 0.182916
597 4 0.465673 0.405766 0.207374
643 2 0.430043 0.385646 0.223313
645 4 0.45057 0.392806 0.210963
262 2 0.00513281 0.424293 0.23519
1465 2 0.0296066 0.495132 0.179346
1757 4 0.0986614 0.45992 0.248955
1756 2 0.106257 0.48137 0.238591
638 4 0.260507 0.499292 0.169013
231 4 0.440381 0.458628 0.213027
229 2 0.439798 0.483146 0.208155
234 4 0.00184622 0.0356768 0.304952
232 2 0.025682 0.02993 0.300052
233 4 0.0495179 0.0241832 0.295152
1404 4 0.0632718 0.0119244 0.292759
1402 2 0.0743838 0.00312365 0.272162
316 2 0.0749754 0.0452436 0.318359
317 4 0.0685467 0.0252199 0.304835
428 4 0.0691311 0.00574225 0.309706
675 4 0.10365 0.994973 0.244393
692 4 0.238902 0.0811803 0.26432
23 3 0.332105 0.0501467 0.278658
21 1 0.335418 0.0629865 0.259617
22 3 0.357951 0.0668633 0.257091
351 4 0.429559 0.076578 0.27039
349 2 0.412539 0.0881685 0.256207
699 4 0.366432 0.0595798 0.31181
697 2 0.385406 0.0515671 0.325985
479 4 0.458972 0.0314216 0.315491
478 2 0.450032 0.0454686 0.296838
2664 4 0.478343 0.032893 0.32068
480 4 0.441092 0.0595156 0.278185
397 2 0.0702542 0.105254 0.331885
398 4 0.0633175 0.128181 0.324716
723 4 0.239015 0.0941469 0.280841
721 2 0.238364 0.101448 0.304746
722 4 0.237714 0.108749 0.328651
404 4 0.256786 0.130859 0.332064
28 3 0.310712 0.148539 0.247557
24 3 0.324502 0.0833458 0.261793
26 1 0.316814 0.166406 0.261046
403 2 0.255544 0.155012 0.32572
632 4 0.378767 0.0979606 0.251083
29 3 0.334276 0.160191 0.275004
631 2 0.366954 0.118445 0.259208
350 4 0.395519 0.099759 0.242024
707 4 0.350373 0.151023 0.282607
633 4 0.35514 0.138929 0.267333
706 2 0.359182 0.148317 0.305851
708 4 0.36799 0.145612 0.329095
331 2 0.485163 0.114897 0.246481
332 4 0.481138 0.139572 0.246814
391 2 0.0762011 0.189193 0.241516
392 4 0.0862525 0.198706 0.262341
388 2 0.129938 0.218447 0.316503
389 4 0.130219 0.201256 0.334657
390 4 0.129657 0.235638 0.298349
545 4 0.177697 0.204266 0.284464
544 2 0.168406 0.196272 0.262671
402 4 0.174614 0.220988 0.292391
400 2 0.183449 0.242784 0.300879
30 3 0.298981 0.17321 0.273468
405 4 0.254302 0.179165 0.319376
473 4 0.258443 0.19927 0.322226
717 4 0.416598 0.220526 0.322183
761 4 0.442445 0.191693 0.257975
760 2 0.456629 0.173055 0.249222
748 2 0.0987054 0.301109 0.252989
750 4 0.0960453 0.324038 0.262599
401 4 0.192284 0.264581 0.309367
676 2 0.189863 0.3227 0.317082
345 4 0.223561 0.319217 0.301773
677 4 0.204681 0.321458 0.296981
343 2 0.233793 0.317496 0.279024
735 4 0.198992 0.329575 0.279557
496 2 0.299996 0.309296 0.293683
497 4 0.289511 0.306904 0.316256
377 4 0.276031 0.294293 0.327665
498 4 0.31048 0.311689 0.27111
309 4 0.307549 0.30609 0.252667
376 2 0.267146 0.274009 0.339276
365 4 0.0250158 0.365984 0.295072
601 2 0.0515577 0.380594 0.310607
603 4 0.0335107 0.363364 0.312227
602 4 0.0696046 0.397823 0.308987
549 4 0.0735851 0.408316 0.324721
364 2 0.000234205 0.362734 0.294373
299 4 0.153154 0.357405 0.246927
300 4 0.108493 0.335822 0.253274
298 2 0.130824 0.346614 0.2501
734 4 0.174087 0.357758 0.2466
733 2 0.186539 0.343667 0.263078
433 2 0.295756 0.389071 0.325243
435 4 0.274103 0.3967 0.315338
434 4 0.317409 0.381441 0.335147
543 4 0.395502 0.333836 0.33112
615 4 0.376096 0.343525 0.327488
447 4 0.39451 0.377566 0.250841
614 4 0.335172 0.372207 0.329314
613 2 0.355634 0.357866 0.328401
445 2 0.374608 0.379283 0.265879
446 4 0.354705 0.381 0.280916
2461 2 0.0112906 0.49539 0.317055
777 4 0.10895 0.480199 0.286851
775 2 0.119585 0.487477 0.308278
776 4 0.130219 0.494754 0.329706
1437 4 0.266525 0.454992 0.328755
1435 2 0.260514 0.477068 0.31867
1436 4 0.254503 0.499144 0.308584
3 3 0.308239 0.458237 0.338413
1803 4 0.345296 0.483021 0.263709
436 2 0.348529 0.465557 0.32655
437 4 0.368144 0.464972 0.311056
118 3 0.495547 0.417676 0.331634
119 3 0.493043 0.453249 0.318493
116 1 0.499538 0.440027 0.33642
318 4 0.081404 0.0652673 0.331883
399 4 0.0771909 0.0823264 0.339054
369 4 0.05521 0.00993853 0.412259
367 2 0.0794398 0.00463024 0.415408
732 4 0.089631 0.0724294 0.349118
730 2 0.112729 0.0750083 0.358337
731 4 0.135828 0.0775872 0.367556
368 4 0.10367 0.999322 0.418557
1700 4 0.326434 0.0176724 0.358249
683 4 0.279984 0.084722 0.362177
425 4 0.32757 0.0233116 0.401922
698 4 0.404381 0.0435544 0.34016
257 4 0.408716 0.0336275 0.357505
426 4 0.374122 0.0413652 0.399144
424 2 0.350846 0.0323384 0.400533
1428 4 0.467922 0.0183366 0.326089
258 4 0.452464 0.0259676 0.334522
256 2 0.43059 0.0297976 0.346013
2586 4 0.0174151 0.124124 0.399264
2584 2 0.00921401 0.113683 0.378077
2585 4 0.00101289 0.103243 0.356889
606 4 0.148973 0.0892088 0.37718
600 4 0.149428 0.1459 0.338794
604 2 0.173763 0.0903733 0.380225
249 4 0.246397 0.119319 0.342727
605 4 0.198553 0.0915377 0.383271
248 4 0.208634 0.104922 0.372178
247 2 0.227515 0.11212 0.357453
682 2 0.283729 0.0963108 0.384014
319 2 0.314641 0.13395 0.41125
684 4 0.287475 0.1079 0.405851
320 4 0.295749 0.120141 0.420058
321 4 0.333532 0.14776 0.402441
598 2 0.154198 0.162583 0.356798
599 4 0.158968 0.179265 0.374801
686 4 0.156897 0.192032 0.38974
275 4 0.169365 0.191895 0.362229
474 4 0.221603 0.220859 0.348254
276 4 0.204712 0.227113 0.358912
472 2 0.240023 0.210065 0.33524
274 2 0.187039 0.209504 0.360571
715 2 0.405921 0.207839 0.340897
466 2 0.386867 0.188974 0.40339
716 4 0.395244 0.195152 0.359612
467 4 0.392815 0.194693 0.379787
270 4 0.49007 0.22298 0.372085
452 4 0.452181 0.186668 0.387081
451 2 0.447992 0.180056 0.410827
269 4 0.462268 0.249495 0.340073
268 2 0.476169 0.236238 0.356079
419 4 0.456284 0.258657 0.322946
347 4 0.0605784 0.319124 0.403248
618 4 0.0707837 0.312437 0.38731
616 2 0.0957256 0.311935 0.385628
617 4 0.120667 0.311432 0.383946
374 4 0.127847 0.308406 0.364723
373 2 0.151093 0.306922 0.355634
678 4 0.175045 0.323942 0.337183
375 4 0.174338 0.305438 0.346545
509 4 0.228569 0.318166 0.373203
378 4 0.258261 0.253725 0.350887
508 2 0.251581 0.322494 0.364435
541 2 0.405377 0.312339 0.339214
420 4 0.411397 0.273512 0.339231
542 4 0.415252 0.290841 0.347309
418 2 0.43384 0.266084 0.331088
346 2 0.042741 0.333736 0.393579
348 4 0.0249035 0.348348 0.38391
510 4 0.274594 0.326822 0.355667
336 4 0.329591 0.366817 0.416475
753 4 0.481134 0.407551 0.34071
561 4 0.478572 0.394356 0.403297
751 2 0.474627 0.398779 0.363201
752 4 0.468119 0.390007 0.385693
547 2 0.082645 0.426092 0.339791
407 4 0.0941299 0.442808 0.374622
548 4 0.0917049 0.443868 0.354861
406 2 0.104336 0.451339 0.395794
501 4 0.0897822 0.488009 0.378161
500 4 0.11628 0.506339 0.339917
408 4 0.114543 0.459869 0.416966
569 4 0.109137 0.476007 0.425775
499 2 0.103031 0.497174 0.359039
1544 4 0.202998 0.490446 0.405829
5 3 0.293834 0.48746 0.357286
438 4 0.328914 0.466141 0.342045
1 1 0.308934 0.470433 0.35814
4 3 0.304258 0.456601 0.376174
2 3 0.330057 0.479163 0.360745
592 2 0.426346 0.488243 0.380118
588 4 0.410195 0.462375 0.404351
593 4 0.415727 0.481825 0.401826
594 4 0.436966 0.494661 0.358411
713 4 0.446169 0.493359 0.340011
714 4 0.483237 0.459827 0.338497
712 2 0.464703 0.476593 0.339254
117 3 0.487214 0.445988 0.354907
719 4 0.0510368 0.00229767 0.431372
441 4 0.31606 0.0200128 0.419614
962 4 0.310131 0.0220106 0.437218
961 2 0.309467 0.0362665 0.457748
963 4 0.308802 0.0505224 0.478279
458 4 0.0148821 0.13851 0.414298
457 2 0.031003 0.155732 0.422586
459 4 0.047124 0.172955 0.430874
725 4 0.382359 0.107805 0.447297
724 2 0.404019 0.10119 0.436702
726 4 0.425678 0.0945739 0.426106
642 4 0.49165 0.128527 0.455339
2880 4 0.488943 0.117457 0.439505
640 2 0.481161 0.132336 0.477714
305 4 0.490934 0.166534 0.421557
260 4 0.0672632 0.176115 0.431921
259 2 0.088069 0.189929 0.433136
685 2 0.141655 0.198358 0.408524
687 4 0.126414 0.204685 0.427309
261 4 0.108875 0.203742 0.434351
1035 4 0.124822 0.210561 0.445276
1033 2 0.119055 0.223417 0.465932
1034 4 0.113288 0.236274 0.486587
489 4 0.320766 0.220952 0.445536
487 2 0.327528 0.243107 0.436123
468 4 0.380919 0.183255 0.426993
514 2 0.410856 0.172684 0.455574
411 4 0.338327 0.212835 0.452433
516 4 0.389021 0.181526 0.463953
409 2 0.360131 0.20078 0.450323
410 4 0.381935 0.188726 0.448213
575 4 0.385894 0.181597 0.484272
453 4 0.443804 0.173444 0.434574
515 4 0.432692 0.163841 0.447195
583 2 0.493293 0.239807 0.472774
585 4 0.477889 0.231805 0.454777
2847 4 0.0102335 0.318982 0.46565
695 4 0.0416869 0.265403 0.493296
694 2 0.0662957 0.261332 0.49156
1258 2 0.123074 0.277067 0.486345
1259 4 0.135729 0.298529 0.488444
9 3 0.134279 0.311575 0.472956
696 4 0.0909045 0.257261 0.489824
1260 4 0.110419 0.255605 0.484247
857 4 0.223337 0.276122 0.499579
488 4 0.334291 0.265262 0.426711
266 4 0.360972 0.251715 0.443433
267 4 0.385871 0.283338 0.473109
265 2 0.373422 0.267526 0.458271
2845 2 0.0046657 0.343358 0.465739
326 4 0.0542135 0.359698 0.445346
325 2 0.0693237 0.347941 0.461428
327 4 0.084434 0.336185 0.47751
6 1 0.126854 0.333263 0.476551
7 3 0.104016 0.333846 0.473862
711 4 0.123584 0.39546 0.44797
10 3 0.136538 0.347381 0.461532
709 2 0.146236 0.384891 0.448569
503 4 0.231243 0.394217 0.425876
504 4 0.188532 0.378277 0.446427
502 2 0.209887 0.386247 0.436151
710 4 0.168888 0.374323 0.449168
772 2 0.295574 0.422969 0.471738
668 4 0.322374 0.384854 0.410499
667 2 0.314334 0.402189 0.426625
773 4 0.287675 0.409101 0.490985
335 4 0.378243 0.35589 0.420256
334 2 0.353917 0.361353 0.418366
238 2 0.400452 0.393299 0.423097
240 4 0.387189 0.372364 0.42641
239 4 0.413716 0.414235 0.419784
881 4 0.340953 0.396997 0.490456
880 2 0.354832 0.416932 0.496386
559 2 0.488926 0.397792 0.425795
3307 2 0.498364 0.396393 0.483482
560 4 0.499281 0.401228 0.448292
3309 4 0.496219 0.411866 0.463958
1381 2 0.0219231 0.495822 0.445749
1383 4 0.0325779 0.479152 0.43046
680 4 0.0237126 0.460599 0.432125
679 2 0.0103165 0.440361 0.426112
384 4 0.126728 0.416742 0.454515
568 2 0.129244 0.490862 0.426264
383 4 0.115078 0.462279 0.437445
382 2 0.120903 0.43951 0.44598
1543 2 0.182469 0.491371 0.420074
1555 2 0.242955 0.497004 0.419269
1557 4 0.267488 0.49721 0.424092
635 4 0.314956 0.451922 0.444407
636 4 0.276731 0.481197 0.430895
634 2 0.295844 0.46656 0.437651
774 4 0.303473 0.436838 0.45249
669 4 0.306293 0.419524 0.44275
882 4 0.368711 0.436867 0.502315
663 4 0.447458 0.477105 0.446169
586 2 0.421665 0.441664 0.412393
587 4 0.433134 0.420953 0.420435
342 4 0.212001 0.0626975 0.520408
340 2 0.220749 0.0428318 0.507998
2430 4 0.214456 0.00944449 0.501607
341 4 0.229498 0.0229661 0.495589
1032 4 0.235508 0.0708274 0.581819
430 2 0.306992 0.0634942 0.512188
431 4 0.318201 0.0753647 0.531126
1031 4 0.285485 0.069606 0.580589
843 4 0.3335 0.080744 0.542239
1030 2 0.260496 0.0702167 0.581204
432 4 0.295783 0.0516238 0.493251
1217 4 0.398049 0.0646959 0.537694
1216 2 0.421164 0.0621117 0.528518
841 2 0.35847 0.0794782 0.54198
842 4 0.383441 0.0782125 0.541721
1218 4 0.444279 0.0595275 0.519342
470 4 0.0183595 0.148882 0.533415
938 4 0.0576005 0.14239 0.586279
1128 4 0.994628 0.104771 0.578191
1058 4 0.120261 0.094833 0.540318
1057 2 0.118741 0.104344 0.563392
1152 4 0.212646 0.0825955 0.521417
1151 4 0.2274 0.0839649 0.569178
1150 2 0.220023 0.0832802 0.545298
1181 4 0.225654 0.11004 0.52986
1180 2 0.241834 0.128998 0.527863
1182 4 0.258015 0.147955 0.525866
900 4 0.271481 0.146962 0.510926
898 2 0.290083 0.159986 0.521393
641 4 0.470671 0.136145 0.500089
469 2 0.0176453 0.168828 0.518354
471 4 0.0169311 0.188773 0.503292
1199 4 0.0300223 0.237731 0.564125
1198 2 0.0053972 0.24132 0.561695
878 4 0.036106 0.237731 0.583736
1244 4 0.0539121 0.24632 0.578454
798 4 0.211213 0.258115 0.557275
796 2 0.235583 0.255445 0.56219
899 4 0.308684 0.17301 0.53186
649 2 0.268629 0.242423 0.502643
650 4 0.247448 0.230604 0.508714
576 4 0.392518 0.212088 0.52335
574 2 0.389206 0.196843 0.503811
3159 4 0.500398 0.171703 0.583871
983 4 0.0540138 0.303366 0.563629
1245 4 0.0698585 0.290455 0.561175
982 2 0.0321922 0.315323 0.566087
1243 2 0.0618853 0.268387 0.569815
984 4 0.0103705 0.327279 0.568545
858 4 0.184234 0.261807 0.527269
948 4 0.168503 0.292636 0.580261
856 2 0.203785 0.268964 0.513424
946 2 0.187642 0.276674 0.578243
804 4 0.262735 0.326802 0.531516
797 4 0.259953 0.252775 0.567106
792 4 0.298814 0.295599 0.580721
651 4 0.289809 0.254243 0.496573
1237 2 0.307913 0.326126 0.567809
791 4 0.271753 0.253589 0.582614
1238 4 0.289641 0.309738 0.572577
790 2 0.285284 0.274594 0.581667
872 4 0.386729 0.262151 0.581695
871 2 0.395292 0.280695 0.567274
873 4 0.403855 0.299239 0.552852
813 4 0.392241 0.314252 0.54729
906 4 0.480928 0.309408 0.562705
953 4 0.461514 0.315284 0.562102
904 2 0.499217 0.292358 0.562642
3354 4 0.0102675 0.345983 0.565483
8 3 0.132035 0.339929 0.498164
1190 4 0.23339 0.359539 0.575095
803 4 0.24363 0.364411 0.558373
1189 2 0.22113 0.372698 0.592465
802 2 0.253183 0.345607 0.544944
930 4 0.323712 0.35753 0.576128
1239 4 0.326185 0.342514 0.563041
811 2 0.397704 0.337898 0.553307
812 4 0.403167 0.361544 0.559325
927 4 0.406732 0.378052 0.548375
929 4 0.356069 0.387696 0.552811
928 2 0.339891 0.372613 0.56447
926 4 0.446917 0.40778 0.549833
925 2 0.426824 0.392916 0.549104
538 2 0.0760699 0.463614 0.566942
540 4 0.085634 0.480952 0.551675
1160 4 0.11666 0.468251 0.543731
1159 2 0.132844 0.469626 0.562741
1161 4 0.149028 0.471001 0.58175
2244 4 0.103425 0.483401 0.540739
891 4 0.303735 0.43404 0.571954
889 2 0.320158 0.447961 0.584668
1953 4 0.381426 0.498854 0.563968
1951 2 0.367705 0.481035 0.574895
1000 2 0.448922 0.446869 0.566733
1001 4 0.44563 0.467768 0.580059
1911 4 0.452396 0.482825 0.591933
1002 4 0.452213 0.42597 0.553407
823 2 0.147392 0.022247 0.642176
825 4 0.134961 0.0422604 0.633803
824 4 0.159824 0.00223358 0.650548
951 4 0.297425 0.0598675 0.592888
949 2 0.303416 0.0368745 0.600673
950 4 0.309407 0.0138815 0.608458
2283 4 0.397425 0.0279541 0.636315
2281 2 0.398792 0.00425934 0.644181
3008 4 0.492314 0.0496024 0.595157
809 4 0.474097 0.0432349 0.596744
808 2 0.469074 0.0548912 0.618287
42 3 0.461726 0.0553995 0.661208
810 4 0.464051 0.0665476 0.639829
41 1 0.454398 0.0772023 0.661509
43 3 0.431951 0.0774909 0.667379
1082 4 0.061561 0.0971762 0.652947
1076 4 0.0651666 0.083586 0.667852
1126 2 0.0171921 0.09753 0.586167
1083 4 0.0450189 0.106267 0.606639
1081 2 0.0532899 0.101722 0.629793
1127 4 0.0397558 0.0902886 0.594143
937 2 0.0802085 0.133306 0.591894
939 4 0.102817 0.124222 0.597509
1155 4 0.120138 0.119698 0.603712
1059 4 0.117221 0.113856 0.586465
1153 2 0.139748 0.132551 0.612396
1154 4 0.159358 0.145404 0.621081
1221 4 0.164342 0.165304 0.615095
45 3 0.457138 0.0863229 0.640822
3425 4 0.47012 0.0956522 0.656355
3424 2 0.48881 0.111795 0.65245
877 2 0.0480194 0.215754 0.584237
879 4 0.0599328 0.193777 0.584738
1272 4 0.0771574 0.192778 0.594628
1271 4 0.121771 0.204556 0.57535
1270 2 0.099464 0.198667 0.584989
1212 4 0.199789 0.178197 0.666668
1219 2 0.172525 0.170445 0.638156
1220 4 0.180709 0.175585 0.661216
1210 2 0.223835 0.183213 0.662001
1211 4 0.247882 0.188229 0.657334
888 4 0.266316 0.181916 0.656888
886 2 0.290978 0.18126 0.660955
887 4 0.31564 0.180604 0.665022
1194 4 0.327792 0.195952 0.659303
1193 4 0.377583 0.194957 0.654772
1192 2 0.352687 0.195455 0.657038
1136 4 0.157774 0.29496 0.59709
1135 2 0.149936 0.318582 0.599485
947 4 0.206781 0.260711 0.576224
807 4 0.31821 0.315293 0.658479
805 2 0.330378 0.336334 0.652614
952 2 0.450708 0.323853 0.582958
954 4 0.439901 0.332422 0.603814
1039 2 0.0609176 0.388678 0.603033
1041 4 0.0456353 0.386695 0.622723
3264 4 0.0353777 0.382526 0.638826
3262 2 0.0377256 0.36628 0.657687
3240 4 0.0147108 0.384829 0.637438
1040 4 0.0761999 0.39066 0.583343
897 4 0.146272 0.362016 0.609183
993 4 0.0919464 0.387321 0.595755
1137 4 0.142098 0.342205 0.601881
991 2 0.111641 0.372091 0.598074
992 4 0.131335 0.356861 0.600392
895 2 0.167906 0.374216 0.612065
1172 4 0.222138 0.400984 0.613174
1191 4 0.208871 0.385856 0.609836
896 4 0.18954 0.386417 0.614947
806 4 0.342546 0.357375 0.646748
1206 4 0.413657 0.398087 0.66264
539 4 0.0665058 0.446275 0.58221
1188 4 0.160244 0.481574 0.595044
1186 2 0.168162 0.463786 0.610731
1171 2 0.207494 0.421227 0.614139
1173 4 0.192851 0.441471 0.615104
1187 4 0.17608 0.445999 0.626418
1139 4 0.24207 0.461335 0.666425
1230 4 0.320377 0.434402 0.654421
1204 2 0.402024 0.418815 0.654882
890 4 0.336582 0.461882 0.597383
1952 4 0.353984 0.463216 0.585822
1205 4 0.390391 0.439544 0.647123
1269 4 0.461559 0.480094 0.609388
1267 2 0.458846 0.490269 0.632066
945 4 0.0491689 0.0216471 0.690541
943 2 0.0575062 0.0442098 0.683715
944 4 0.0658436 0.0667726 0.676889
1283 4 0.137146 0.0575413 0.674068
1147 2 0.232899 0.0533279 0.727363
1148 4 0.224002 0.0662476 0.707892
1149 4 0.241796 0.0404081 0.746834
1092 4 0.326938 0.0076217 0.69693
1163 4 0.473003 0.0677286 0.677269
1162 2 0.489449 0.056977 0.692732
864 4 0.0536542 0.109962 0.721159
1075 2 0.0648028 0.0994409 0.687183
1077 4 0.0644391 0.115296 0.706513
1107 4 0.0685018 0.124141 0.722872
851 4 0.0644037 0.134314 0.705761
850 2 0.064388 0.154352 0.690806
862 2 0.0353879 0.101922 0.736222
1282 2 0.140973 0.0820438 0.677255
1105 2 0.0849217 0.131218 0.74035
1284 4 0.144801 0.106546 0.680441
909 4 0.139822 0.125139 0.725598
907 2 0.164511 0.129078 0.725949
1106 4 0.101341 0.138295 0.757828
1226 4 0.22662 0.0869654 0.704733
908 4 0.1892 0.133017 0.726301
1227 4 0.203458 0.130572 0.712652
1225 2 0.215039 0.108769 0.708693
829 2 0.333116 0.148901 0.683394
1004 4 0.384385 0.0906403 0.723453
1003 2 0.368576 0.104922 0.710365
1005 4 0.352767 0.119203 0.697277
831 4 0.345184 0.136256 0.701273
44 3 0.466817 0.0890751 0.677105
852 4 0.0643723 0.17439 0.67585
1177 2 0.00708527 0.241587 0.687196
1073 4 0.110055 0.217987 0.74486
1072 2 0.105366 0.231476 0.724336
830 4 0.321049 0.161546 0.665515
1144 2 0.499628 0.181088 0.735797
1025 4 0.434773 0.19036 0.681684
1262 4 0.464666 0.200948 0.732597
1142 4 0.463784 0.171067 0.73867
1024 2 0.448865 0.186831 0.702034
1026 4 0.462957 0.183303 0.722385
1261 2 0.465596 0.225469 0.7374
1145 4 0.475085 0.185582 0.73418
1179 4 0.0208367 0.258894 0.67551
1074 4 0.100677 0.244964 0.703811
1209 4 0.1193 0.307255 0.695285
1207 2 0.107426 0.285662 0.699519
1208 4 0.0955513 0.264069 0.703752
821 4 0.139132 0.310134 0.692741
820 2 0.1638 0.306204 0.69163
822 4 0.188468 0.302275 0.690519
1063 2 0.221358 0.301498 0.697717
1064 4 0.200302 0.288146 0.699595
1065 4 0.242415 0.31485 0.695839
1263 4 0.466526 0.249989 0.742203
3123 4 0.485211 0.253005 0.652466
3263 4 0.0400735 0.350035 0.676549
892 2 0.0155319 0.357618 0.756687
894 4 0.0269991 0.367293 0.736685
1280 4 0.0419709 0.370496 0.723798
1279 2 0.0497315 0.3932 0.716765
816 4 0.0595331 0.360546 0.727872
814 2 0.0810239 0.349599 0.734466
815 4 0.102515 0.338651 0.74106
942 4 0.112963 0.354788 0.74702
1028 4 0.235418 0.38467 0.73314
1066 2 0.197472 0.377023 0.75108
1068 4 0.219982 0.37366 0.740729
1027 2 0.246918 0.405628 0.725809
1018 2 0.385757 0.395557 0.758585
1020 4 0.409579 0.395293 0.750995
1281 4 0.0574921 0.415904 0.709732
1983 4 0.0657102 0.433737 0.702811
1981 2 0.067428 0.454566 0.716536
1982 4 0.0691458 0.475395 0.730261
2172 4 0.108236 0.498384 0.685105
1029 4 0.258417 0.426585 0.718479
1140 4 0.250572 0.42442 0.69907
2016 4 0.177602 0.496823 0.746818
1138 2 0.246321 0.442878 0.682747
1987 2 0.331059 0.470674 0.725362
1228 2 0.332959 0.443664 0.673942
1988 4 0.314923 0.471778 0.74443
1229 4 0.345541 0.452926 0.693463
1989 4 0.347194 0.469569 0.706293
1101 4 0.457512 0.499076 0.673869
2991 4 0.028882 0.0335963 0.771354
2989 2 0.0242848 0.0580246 0.768651
2990 4 0.0196876 0.0824528 0.765948
2049 4 0.116826 0.0449848 0.772434
1202 4 0.110944 0.0617836 0.764201
1201 2 0.113236 0.0845526 0.774276
2047 2 0.126151 0.0220054 0.769247
1257 4 0.2351 0.0847904 0.751876
1255 2 0.233767 0.0890864 0.776471
817 2 0.320296 0.040422 0.810157
819 4 0.31251 0.0594024 0.82445
1085 4 0.310926 0.0779295 0.830189
818 4 0.328083 0.0214417 0.795864
975 4 0.390632 0.0138256 0.819915
1050 4 0.352115 0.000880007 0.784227
974 4 0.347588 0.0174529 0.794721
1113 4 0.421144 0.0530507 0.776414
973 2 0.36911 0.0156393 0.807318
2322 4 0.505554 0.0527002 0.765695
1111 2 0.444197 0.061134 0.781745
845 4 0.486392 0.0630323 0.792059
1112 4 0.467249 0.0692174 0.787076
844 2 0.493127 0.0846303 0.781412
3083 4 0.00181756 0.0837217 0.761004
863 4 0.0171217 0.0938831 0.751285
833 4 0.00806158 0.100587 0.765955
832 2 0.00970976 0.11445 0.786698
834 4 0.0113579 0.128312 0.807442
1125 4 0.0216675 0.145786 0.812526
1123 2 0.0394913 0.144673 0.830026
1203 4 0.115527 0.107322 0.78435
911 4 0.103845 0.121481 0.812738
34 3 0.111721 0.126829 0.771003
31 1 0.116702 0.13159 0.79316
35 3 0.0985812 0.140857 0.803379
32 3 0.122276 0.112026 0.803899
33 3 0.134729 0.146157 0.794273
910 2 0.0932616 0.115805 0.834668
1256 4 0.232435 0.0933824 0.801067
840 4 0.245989 0.102426 0.810957
1084 2 0.316687 0.0978123 0.816165
1086 4 0.322448 0.117695 0.802141
47 3 0.417869 0.16249 0.820949
1143 4 0.430309 0.182625 0.773976
48 3 0.431546 0.168987 0.786549
1130 4 0.136241 0.236084 0.797419
1129 2 0.15795 0.231911 0.785736
1131 4 0.179659 0.227738 0.774053
1277 4 0.196859 0.231379 0.762504
978 4 0.253602 0.199138 0.782945
1276 2 0.214453 0.247868 0.769118