ITEM: TIMESTEP
2940000
ITEM: NUMBER OF ATOMS
4590
ITEM: BOX BOUNDS pp pp pp
-9.9985700000000008e+00 9.9985700000000008e+00
-9.9985700000000008e+00 9.9985700000000008e+00
-9.9985700000000008e+00 9.9985700000000008e+00
ITEM: ATOMS id type xs ys zs
1667 4 0.999056 0.065744 0.0514222
701 4 0.016297 0.0773887 0.0503963
2974 2 0.458381 0.00719591 0.0312317
745 2 0.435448 0.0594279 0.0208304
747 4 0.430099 0.0366184 0.0295648
2467 2 0.495465 0.0122224 0.0735423
986 4 0.422066 0.0242788 0.0169275
2975 4 0.440459 0.0220425 0.0220916
700 2 0.0321922 0.0938293 0.0605069
702 4 0.0480875 0.11027 0.0706176
566 4 0.198808 0.15628 0.0319429
565 2 0.218469 0.160562 0.0171019
297 4 0.325319 0.126911 0.00964241
295 2 0.345448 0.117688 0.998025
746 4 0.440798 0.0822373 0.012096
558 4 0.423307 0.0925214 0.0154373
771 4 0.420788 0.139016 0.0082021
769 2 0.406245 0.155963 0.0194486
555 4 0.0707725 0.239614 0.0123596
770 4 0.391702 0.17291 0.030695
359 4 0.385863 0.188401 0.0186866
664 2 0.399309 0.207403 0.0479717
665 4 0.4005 0.18968 0.030374
666 4 0.398118 0.225125 0.0655693
323 4 0.4083 0.240867 0.0667211
358 2 0.368373 0.189687 0.000863687
623 4 0.387006 0.239596 0.0682212
292 2 0.162007 0.324607 0.0371202
294 4 0.149096 0.318664 0.0165493
293 4 0.174918 0.33055 0.0576912
507 4 0.18424 0.324217 0.0705785
287 4 0.195449 0.329487 0.0564311
286 2 0.21629 0.32561 0.0431721
288 4 0.237131 0.321733 0.029913
505 2 0.188302 0.303362 0.0837596
481 2 0.227543 0.264115 0.0781557
482 4 0.247934 0.256347 0.0659482
573 4 0.267365 0.257349 0.0588922
571 2 0.283601 0.255319 0.0399859
572 4 0.299837 0.25329 0.0210795
357 4 0.294237 0.267144 0.00626807
956 4 0.333239 0.316197 0.0133601
1069 2 0.409792 0.312048 0.0315426
955 2 0.353132 0.323942 0.0263774
1071 4 0.392585 0.330112 0.0332183
957 4 0.373025 0.331688 0.0393947
322 2 0.419528 0.258865 0.0534854
324 4 0.430756 0.276862 0.0402497
1070 4 0.427 0.293985 0.0298668
280 2 0.456987 0.302596 0.0554479
282 4 0.44401 0.289878 0.038271
281 4 0.469964 0.315313 0.0726248
671 4 0.459882 0.328688 0.0806301
456 4 0.193406 0.391882 0.0583044
552 4 0.170844 0.337113 0.0766316
454 2 0.188937 0.367471 0.0613553
455 4 0.184469 0.34306 0.0644062
1290 4 0.262155 0.396864 0.0412261
250 2 0.26241 0.409428 0.073545
1288 2 0.270171 0.378838 0.0258645
1289 4 0.278186 0.360811 0.0105029
251 4 0.259674 0.414023 0.04912
741 4 0.387502 0.339938 0.0482532
739 2 0.390846 0.343891 0.0727148
328 2 0.00284715 0.407033 0.0188227
329 4 0.0250335 0.396015 0.0222217
1788 4 0.0916984 0.4578 0.0773811
1786 2 0.0975294 0.476269 0.0615673
627 4 0.150396 0.499039 0.0515055
1690 2 0.105852 0.504898 0.0117811
626 4 0.184925 0.464498 0.0622491
625 2 0.16766 0.481768 0.0568773
245 4 0.202686 0.456869 0.0693645
244 2 0.226158 0.452561 0.0619026
246 4 0.24963 0.448253 0.0544407
272 4 0.258423 0.43391 0.0427469
271 2 0.26734 0.4379 0.0197308
1672 2 0.406073 0.433656 0.0741069
853 2 0.387753 0.441955 0.0189016
1674 4 0.413228 0.436751 0.0503495
854 4 0.404336 0.447987 0.0366151
855 4 0.371169 0.435923 0.00118804
564 4 0.423406 0.446629 0.0373966
563 4 0.465081 0.474262 0.0368484
562 2 0.444244 0.460445 0.0371225
228 4 0.483653 0.473153 0.0282992
226 2 0.500015 0.491897 0.0307723
19 3 0.055165 0.0334462 0.157253
16 1 0.0584811 0.0122449 0.16608
578 4 0.0737958 0.0339372 0.170877
577 2 0.092458 0.050366 0.173521
579 4 0.11112 0.0667949 0.176166
20 3 0.0775321 0.0119138 0.178554
580 2 0.251811 0.0593087 0.151729
582 4 0.235665 0.0750586 0.140939
491 4 0.251432 0.0625998 0.0781707
581 4 0.267957 0.0435588 0.162519
490 2 0.274656 0.0534296 0.0794931
1475 4 0.308676 0.0263701 0.0839566
492 4 0.297879 0.0442593 0.0808154
1474 2 0.300348 0.00335514 0.0788449
1760 4 0.487927 0.0327058 0.153094
486 4 0.428997 0.00546998 0.120767
1759 2 0.488352 0.0287714 0.128406
2469 4 0.504681 0.0273874 0.091157
476 4 0.06517 0.11398 0.0808471
475 2 0.0782071 0.133973 0.0882963
513 4 0.0547111 0.159245 0.164118
477 4 0.0912442 0.153967 0.0957454
237 4 0.231564 0.0942752 0.150167
235 2 0.209972 0.0973307 0.162399
738 4 0.21243 0.173527 0.086447
628 2 0.371632 0.165912 0.165884
629 4 0.354139 0.148509 0.169925
312 4 0.358174 0.13001 0.158976
2723 4 0.45331 0.0880626 0.167534
393 4 0.0417404 0.175392 0.163035
2759 4 0.00210309 0.181868 0.115371
2624 4 0.998633 0.194212 0.0999946
737 4 0.249891 0.203336 0.1009
736 2 0.23116 0.188431 0.0936735
755 4 0.247863 0.238503 0.170183
460 2 0.327649 0.227645 0.11313
461 4 0.306774 0.214678 0.108522
354 4 0.287416 0.216388 0.119852
352 2 0.275665 0.22771 0.138797
353 4 0.263913 0.239032 0.157741
630 4 0.389124 0.183315 0.161843
462 4 0.348525 0.240612 0.117737
255 4 0.364536 0.233299 0.124658
253 2 0.376905 0.218319 0.140398
622 2 0.376902 0.243933 0.0906778
624 4 0.366799 0.248269 0.113135
254 4 0.389275 0.203339 0.156139
536 4 0.194022 0.259008 0.159253
483 4 0.207152 0.271883 0.0903632
506 4 0.192364 0.282507 0.0969408
537 4 0.183033 0.278566 0.11456
535 2 0.188527 0.268787 0.136906
754 2 0.235349 0.260052 0.168139
756 4 0.222834 0.281602 0.166094
301 2 0.322984 0.315976 0.139142
303 4 0.321698 0.299018 0.157471
764 4 0.334642 0.285731 0.158149
284 4 0.277619 0.252386 0.166753
302 4 0.324269 0.332934 0.120813
765 4 0.357818 0.251984 0.129431
763 2 0.34623 0.268857 0.14379
12 3 0.409885 0.322141 0.120198
527 4 0.475985 0.320893 0.0896662
526 2 0.497571 0.333048 0.08628
647 4 0.05183 0.363645 0.161584
550 2 0.150404 0.342253 0.0900827
551 4 0.129963 0.347393 0.103534
289 2 0.202111 0.403196 0.1696
252 4 0.265146 0.404834 0.09797
609 4 0.279509 0.418205 0.103646
387 4 0.326051 0.349438 0.109116
385 2 0.350815 0.3521 0.106909
493 2 0.391472 0.388236 0.105056
495 4 0.390326 0.363431 0.107986
386 4 0.375578 0.354762 0.104702
15 3 0.377883 0.340801 0.115668
740 4 0.39419 0.347844 0.0971765
14 3 0.410746 0.358744 0.111707
11 1 0.399263 0.342297 0.123369
13 3 0.399184 0.34725 0.146038
494 4 0.392619 0.413041 0.102125
672 4 0.41721 0.340016 0.104113
670 2 0.438546 0.334352 0.0923718
595 2 0.485819 0.40505 0.164231
1791 4 0.0551849 0.489462 0.13275
1465 2 0.072374 0.459519 0.112009
1466 4 0.0640962 0.470685 0.132793
1467 4 0.0806519 0.448354 0.0912244
290 4 0.217113 0.418599 0.156837
638 4 0.213644 0.496767 0.158794
767 4 0.218374 0.477359 0.162494
766 2 0.225074 0.453281 0.163213
768 4 0.231775 0.429203 0.163931
607 2 0.302302 0.426168 0.110145
608 4 0.325095 0.434131 0.116644
659 4 0.332509 0.43133 0.0976205
1316 4 0.292268 0.49569 0.150973
660 4 0.381549 0.42753 0.106646
1673 4 0.398919 0.430561 0.0978643
658 2 0.357029 0.42943 0.102133
524 4 0.397636 0.482411 0.141616
523 2 0.39494 0.463177 0.125868
525 4 0.392245 0.443944 0.110121
1559 4 0.390362 0.498222 0.152473
17 3 0.0405631 0.00687873 0.179471
2480 4 0.0235046 0.00791178 0.190196
2479 2 0.0171295 0.0294558 0.201169
380 4 0.0145438 0.070485 0.208237
2481 4 0.0107544 0.0509998 0.212141
379 2 0.0215529 0.0896375 0.193772
674 4 0.14228 0.0116778 0.226816
673 2 0.121545 0.000673476 0.235428
450 4 0.129859 0.0637118 0.181405
689 4 0.158167 0.00588948 0.216562
1504 2 0.234707 0.00367787 0.189842
1506 4 0.251498 0.0221645 0.188617
654 4 0.260682 0.0365701 0.180402
652 2 0.279966 0.0388958 0.196147
653 4 0.29925 0.0412215 0.211892
758 4 0.349286 0.0685486 0.188853
759 4 0.365442 0.0611208 0.235592
757 2 0.357364 0.0648347 0.212223
350 4 0.372766 0.0498519 0.24597
349 2 0.39775 0.0505319 0.246684
25 3 0.344902 0.0225481 0.240427
2722 2 0.469266 0.0692676 0.163372
2724 4 0.485223 0.0504726 0.15921
742 2 0.509477 0.0633656 0.236734
480 4 0.440552 0.0601767 0.244966
2744 4 0.501337 0.0429783 0.165501
351 4 0.422734 0.0512119 0.247399
511 2 0.0515196 0.135022 0.169434
512 4 0.0483282 0.1108 0.17475
381 4 0.028562 0.10879 0.179307
448 2 0.149603 0.0787655 0.178447
449 4 0.169347 0.0938192 0.175488
236 4 0.188379 0.100386 0.174631
30 3 0.341137 0.135885 0.226441
310 2 0.357589 0.108642 0.171947
26 1 0.343936 0.14768 0.24572
311 4 0.357004 0.0872735 0.184917
521 4 0.462277 0.143804 0.223034
762 4 0.448308 0.138829 0.235154
760 2 0.423427 0.140767 0.233614
332 4 0.460968 0.124964 0.230364
331 2 0.471651 0.103012 0.235762
520 2 0.481072 0.15904 0.216727
391 2 0.0568589 0.190381 0.176148
392 4 0.0719774 0.205369 0.189261
339 4 0.0760745 0.211293 0.207238
337 2 0.062186 0.231281 0.212963
396 4 0.99357 0.254638 0.240333
279 4 0.267107 0.216069 0.219045
277 2 0.266859 0.227598 0.19686
278 4 0.266612 0.239126 0.174674
761 4 0.398547 0.142706 0.232074
28 3 0.359466 0.164609 0.24246
394 2 0.0137583 0.266358 0.231374
395 4 0.0339466 0.278078 0.222415
338 4 0.0482975 0.251269 0.218688
363 4 0.052363 0.271056 0.214436
361 2 0.0567768 0.295001 0.20875
362 4 0.0611906 0.318946 0.203064
372 4 0.0796683 0.323527 0.201152
370 2 0.103364 0.328729 0.207205
371 4 0.127059 0.333931 0.213258
612 4 0.229446 0.299335 0.164216
611 4 0.233338 0.325752 0.206497
610 2 0.231392 0.312544 0.185357
344 4 0.230168 0.325762 0.22539
343 2 0.209664 0.319071 0.238039
735 4 0.179658 0.327401 0.244896
285 4 0.314946 0.285645 0.165654
283 2 0.296283 0.269015 0.166204
729 4 0.316645 0.304307 0.174707
727 2 0.299658 0.317406 0.187553
308 4 0.328348 0.289497 0.175291
498 4 0.35082 0.283684 0.235841
307 2 0.341213 0.283579 0.195899
309 4 0.354077 0.277662 0.216506
648 4 0.0650733 0.337679 0.202218
749 4 0.0533649 0.331693 0.216165
748 2 0.0619748 0.341726 0.237388
646 2 0.0584517 0.350662 0.181901
734 4 0.13795 0.346113 0.224622
733 2 0.158804 0.336757 0.234759
417 4 0.14148 0.360253 0.210422
299 4 0.132448 0.353449 0.241745
415 2 0.154401 0.376145 0.196081
291 4 0.187109 0.387794 0.182363
416 4 0.167321 0.392037 0.181739
728 4 0.28267 0.330506 0.200398
445 2 0.389194 0.376569 0.243153
447 4 0.401633 0.395765 0.233056
644 4 0.411161 0.404846 0.21834
643 2 0.428084 0.40473 0.199934
645 4 0.445007 0.404615 0.181528
597 4 0.463605 0.401954 0.175283
264 4 0.0161316 0.426409 0.256306
412 2 0.239006 0.465972 0.225495
413 4 0.23894 0.441044 0.227439
414 4 0.239071 0.4909 0.223551
1574 4 0.308735 0.492786 0.211598
229 2 0.464426 0.486943 0.216075
231 4 0.484614 0.473847 0.209285
234 4 0.00608118 0.0508135 0.28898
232 2 0.0290573 0.0418595 0.293116
233 4 0.0520334 0.0329055 0.297252
317 4 0.0668632 0.02492 0.306532
1404 4 0.0604429 0.01508 0.294064
316 2 0.0792716 0.041085 0.32102
1402 2 0.0744475 0.00213576 0.277893
428 4 0.0587959 0.0105722 0.313987
2755 2 0.997244 0.0884776 0.310505
318 4 0.0916801 0.0572499 0.335508
732 4 0.103598 0.0694476 0.325433
693 4 0.314663 0.059795 0.268069
691 2 0.30409 0.0764051 0.283481
24 3 0.320156 0.0478556 0.253265
22 3 0.356912 0.0556855 0.252697
632 4 0.366416 0.068403 0.252873
21 1 0.341433 0.0389605 0.255829
23 3 0.343899 0.0303711 0.277243
257 4 0.404854 0.0622191 0.327852
743 4 0.493748 0.0712081 0.254518
479 4 0.458909 0.042652 0.288055
478 2 0.44973 0.0514144 0.26651
2664 4 0.472241 0.0292079 0.290024
1428 4 0.453654 0.0300128 0.298356
258 4 0.444298 0.0469337 0.301183
2662 2 0.492854 0.0394701 0.299768
256 2 0.424576 0.0545764 0.314517
1426 2 0.448295 0.00576885 0.301304
730 2 0.127646 0.0701592 0.332243
731 4 0.151694 0.0708708 0.339053
403 2 0.23797 0.158697 0.331295
692 4 0.293518 0.0930151 0.298892
721 2 0.266305 0.113833 0.304347
723 4 0.277885 0.0988693 0.288002
722 4 0.254725 0.128797 0.320692
29 3 0.351069 0.133546 0.262684
631 2 0.365102 0.0928367 0.258015
707 4 0.364024 0.126967 0.275185
633 4 0.363788 0.11727 0.263158
706 2 0.364479 0.139862 0.296602
708 4 0.364935 0.152756 0.318019
333 4 0.482335 0.0810594 0.241161
444 4 0.0215886 0.21207 0.289289
442 2 0.0110785 0.227805 0.272945
443 4 0.000568348 0.24354 0.256602
544 2 0.128093 0.235345 0.251839
546 4 0.104687 0.227505 0.255822
545 4 0.151499 0.243186 0.247856
405 4 0.225268 0.17951 0.325759
27 3 0.323854 0.157087 0.251831
269 4 0.402677 0.233233 0.337767
419 4 0.408476 0.251407 0.330166
402 4 0.160506 0.259272 0.253943
375 4 0.154713 0.32531 0.320474
373 2 0.139288 0.310409 0.333327
400 2 0.172112 0.280551 0.26008
401 4 0.183718 0.30183 0.266218
676 2 0.174337 0.329777 0.287919
345 4 0.18916 0.312381 0.250689
677 4 0.180466 0.321284 0.265215
378 4 0.286549 0.288658 0.309599
376 2 0.308476 0.298989 0.303462
377 4 0.330403 0.30932 0.297326
615 4 0.33538 0.328441 0.302954
497 4 0.338817 0.304744 0.27958
496 2 0.344819 0.294214 0.25771
541 2 0.362524 0.312771 0.313461
542 4 0.378993 0.310694 0.33216
420 4 0.393806 0.298605 0.337772
543 4 0.346055 0.314849 0.294763
418 2 0.401141 0.275006 0.333969
750 4 0.0705847 0.351759 0.25861
364 2 0.0176204 0.391275 0.299019
365 4 0.0424085 0.390311 0.302149
603 4 0.0483452 0.375769 0.314368
300 4 0.0891745 0.355734 0.266703
298 2 0.110811 0.354592 0.254224
678 4 0.168209 0.33827 0.310623
510 4 0.187278 0.338716 0.316119
434 4 0.322816 0.382219 0.311889
433 2 0.31131 0.404044 0.315945
614 4 0.317836 0.374602 0.295075
613 2 0.326608 0.351522 0.299015
446 4 0.376754 0.357372 0.25325
1757 4 0.0354381 0.424739 0.2617
1756 2 0.0479221 0.445001 0.269368
1758 4 0.0604061 0.465262 0.277035
1775 4 0.0727015 0.481342 0.280205
777 4 0.0677689 0.491403 0.296453
775 2 0.0566965 0.48125 0.31644
776 4 0.0456241 0.471097 0.336428
1776 4 0.120452 0.468514 0.272718
1774 2 0.0965767 0.474928 0.276461
1436 4 0.239307 0.440444 0.247019
1435 2 0.248725 0.437885 0.270039
1437 4 0.258144 0.435327 0.293059
4 3 0.254107 0.416288 0.307713
3 3 0.269809 0.450833 0.3056
1 1 0.264572 0.433171 0.319707
436 2 0.308929 0.457511 0.308304
438 4 0.29024 0.442229 0.314812
2 3 0.284017 0.424887 0.328786
435 4 0.299804 0.425869 0.320001
437 4 0.327618 0.472793 0.301795
1801 2 0.35737 0.485278 0.313164
1802 4 0.34198 0.482753 0.29362
1803 4 0.372759 0.487802 0.332708
119 3 0.495 0.457107 0.322649
606 4 0.156533 0.0904196 0.343858
399 4 0.092754 0.0767562 0.338989
604 2 0.17899 0.0842485 0.352956
605 4 0.201447 0.0780775 0.362054
699 4 0.368769 0.0604618 0.380152
1699 2 0.354699 0.02551 0.38302
1700 4 0.360747 0.0460076 0.370041
697 2 0.381897 0.0677836 0.360172
1701 4 0.348651 0.0050125 0.395999
698 4 0.395025 0.0751054 0.340191
2757 4 0.996093 0.107124 0.327123
2585 4 0.998867 0.119353 0.343051
397 2 0.0746961 0.0905919 0.349365
398 4 0.0566383 0.104428 0.359741
2584 2 0.0220143 0.120342 0.352455
2586 4 0.0451611 0.121332 0.361858
458 4 0.0523026 0.13677 0.37184
457 2 0.0494035 0.153177 0.390484
248 4 0.218172 0.0896067 0.360608
247 2 0.235309 0.104216 0.349743
249 4 0.252446 0.118826 0.338877
404 4 0.250673 0.137884 0.336831
683 4 0.257814 0.130818 0.353483
682 2 0.281449 0.136437 0.359402
684 4 0.305083 0.142056 0.36532
320 4 0.308149 0.150882 0.347948
321 4 0.355784 0.15879 0.334943
319 2 0.331966 0.154836 0.341446
726 4 0.399875 0.136914 0.406972
717 4 0.366054 0.149055 0.350009
715 2 0.379428 0.148198 0.371118
716 4 0.392801 0.14734 0.392227
467 4 0.390713 0.154328 0.409826
642 4 0.503429 0.100749 0.390137
641 4 0.454844 0.100097 0.378318
640 2 0.479137 0.100423 0.384228
600 4 0.102817 0.181178 0.338408
598 2 0.110798 0.197314 0.35576
599 4 0.118779 0.21345 0.373113
389 4 0.137965 0.238316 0.375388
686 4 0.124521 0.228029 0.386349
685 2 0.108506 0.224336 0.405191
275 4 0.136563 0.219577 0.374819
274 2 0.160381 0.217214 0.382053
473 4 0.220086 0.196434 0.335153
474 4 0.19039 0.204624 0.374546
472 2 0.205238 0.200529 0.35485
276 4 0.184198 0.214851 0.389287
268 2 0.425106 0.224021 0.34387
270 4 0.447535 0.214809 0.349974
452 4 0.464526 0.214852 0.360069
451 2 0.469143 0.216108 0.38461
453 4 0.47376 0.217363 0.409152
347 4 0.0649541 0.309743 0.402663
346 2 0.0422036 0.301378 0.408796
618 4 0.0836007 0.314263 0.396936
388 2 0.127337 0.258194 0.364568
616 2 0.0961747 0.30474 0.377536
390 4 0.116709 0.278072 0.353747
617 4 0.108749 0.295216 0.358135
374 4 0.123864 0.295508 0.34618
2537 4 0.505279 0.326008 0.338999
601 2 0.0603473 0.381493 0.335542
602 4 0.0723495 0.387216 0.356717
549 4 0.0900514 0.381576 0.365241
547 2 0.0949058 0.399394 0.382097
508 2 0.200275 0.356549 0.327877
509 4 0.213272 0.374383 0.339634
335 4 0.327612 0.378768 0.401846
240 4 0.322492 0.388633 0.384059
238 2 0.340026 0.397659 0.368688
239 4 0.357559 0.406686 0.353317
587 4 0.372261 0.418498 0.360947
752 4 0.475671 0.390134 0.384647
561 4 0.471504 0.387962 0.403952
559 2 0.48724 0.376153 0.419382
751 2 0.481417 0.408094 0.368228
500 4 0.0605976 0.459806 0.343497
499 2 0.0752465 0.446566 0.358837
501 4 0.0898953 0.433326 0.374176
548 4 0.0997603 0.417212 0.398953
407 4 0.0998517 0.436189 0.391184
406 2 0.108967 0.448956 0.410654
1545 4 0.174663 0.510397 0.411415
1544 4 0.202582 0.499954 0.371263
1556 4 0.217992 0.490842 0.379262
1543 2 0.188622 0.505176 0.391339
1555 2 0.242583 0.488629 0.383207
5 3 0.250947 0.440389 0.336467
636 4 0.275361 0.488488 0.404469
1557 4 0.267174 0.486415 0.387153
586 2 0.375323 0.443237 0.358992
593 4 0.387318 0.476752 0.341321
588 4 0.378385 0.467975 0.357037
592 2 0.409959 0.48711 0.339024
594 4 0.4326 0.497467 0.336728
712 2 0.469295 0.483743 0.341232
714 4 0.486109 0.465277 0.340015
753 4 0.487163 0.426054 0.351808
117 3 0.487562 0.447957 0.358337
367 2 0.0875299 0.0126317 0.445889
719 4 0.0579421 0.0117971 0.470872
718 2 0.0330527 0.0125693 0.468613
369 4 0.0742651 0.0231089 0.464313
720 4 0.00816326 0.0133415 0.466355
368 4 0.100795 0.00215462 0.427465
2430 4 0.174656 0.00135983 0.483135
341 4 0.185052 0.019435 0.482976
963 4 0.310683 0.0284365 0.448641
432 4 0.308642 0.0474659 0.454351
430 2 0.321853 0.0562029 0.473698
961 2 0.320533 0.0108719 0.433821
431 4 0.335064 0.06494 0.493045
962 4 0.330383 0.993307 0.419
1217 4 0.406402 0.0313865 0.495189
842 4 0.39169 0.0312735 0.509144
841 2 0.368694 0.0392977 0.503491
1216 2 0.426298 0.0464904 0.494091
1218 4 0.446194 0.0615944 0.492992
459 4 0.0465043 0.169583 0.409128
724 2 0.389703 0.115466 0.414825
725 4 0.37953 0.0940176 0.422679
260 4 0.0533624 0.170711 0.428045
259 2 0.0675087 0.190845 0.432482
261 4 0.081655 0.210979 0.436919
687 4 0.0924904 0.220642 0.424034
1035 4 0.0865675 0.229318 0.44112
466 2 0.401508 0.170586 0.425456
468 4 0.412302 0.186845 0.441087
409 2 0.397748 0.226027 0.447301
410 4 0.409653 0.20409 0.4488
411 4 0.385844 0.247964 0.445803
515 4 0.467178 0.211627 0.42696
575 4 0.41337 0.205126 0.466587
516 4 0.425589 0.198424 0.451389
574 2 0.421313 0.191167 0.485751
514 2 0.446384 0.205025 0.439175
576 4 0.429255 0.177208 0.504914
2802 4 0.000211878 0.289473 0.418193
348 4 0.0194531 0.293012 0.414929
1034 4 0.0935011 0.266165 0.474209
1033 2 0.0900343 0.247741 0.457664
696 4 0.0966888 0.278496 0.489763
1260 4 0.110411 0.2754 0.476426
1258 2 0.115307 0.298693 0.468769
1259 4 0.120203 0.321987 0.461113
9 3 0.144394 0.325048 0.428599
7 3 0.136774 0.327519 0.465321
489 4 0.375445 0.264145 0.447987
488 4 0.339511 0.274177 0.414688
487 2 0.357478 0.269161 0.431338
266 4 0.390922 0.260183 0.460064
265 2 0.402969 0.278252 0.472456
267 4 0.415017 0.29632 0.484849
3308 4 0.493926 0.314268 0.470409
1011 4 0.473893 0.31622 0.47349
1009 2 0.468154 0.299618 0.491284
326 4 0.0793892 0.359484 0.483498
6 1 0.142571 0.33957 0.446604
327 4 0.120513 0.34264 0.460567
325 2 0.0999511 0.351062 0.472032
10 3 0.126485 0.355142 0.442429
709 2 0.131146 0.39337 0.492467
711 4 0.123191 0.414572 0.481865
8 3 0.162922 0.350039 0.450428
334 2 0.32371 0.383148 0.426151
336 4 0.319808 0.387529 0.450457
668 4 0.30626 0.398678 0.462269
882 4 0.330643 0.363855 0.490882
1382 4 0.0191283 0.492193 0.484227
1383 4 0.998621 0.450906 0.464849
1381 2 0.00887491 0.471549 0.474538
568 2 0.154687 0.484625 0.42765
383 4 0.133566 0.457089 0.442174
384 4 0.140641 0.426547 0.481133
382 2 0.137103 0.441818 0.461653
408 4 0.118083 0.461724 0.430125
569 4 0.13458 0.469773 0.428168
570 4 0.174795 0.499478 0.427133
667 2 0.303585 0.423213 0.458263
774 4 0.311351 0.463165 0.45089
635 4 0.293295 0.460405 0.441757
634 2 0.284328 0.474447 0.423113
669 4 0.300911 0.447748 0.454258
772 2 0.3355 0.469086 0.448257
773 4 0.359649 0.475008 0.445623
663 4 0.472012 0.488904 0.460999
1152 4 0.196376 0.0488722 0.533674
342 4 0.205972 0.0329871 0.526328
340 2 0.195512 0.026211 0.504652
1032 4 0.226281 0.0666553 0.581895
1150 2 0.208658 0.0635916 0.549727
1151 4 0.220939 0.0783109 0.565779
843 4 0.345697 0.0473219 0.497837
1270 2 0.077799 0.15478 0.551769
1058 4 0.112765 0.0987318 0.509976
1271 4 0.0892431 0.133859 0.559287
1057 2 0.105805 0.108983 0.531693
1059 4 0.0988457 0.119234 0.553411
1155 4 0.108177 0.130677 0.565634
939 4 0.0919408 0.123214 0.572309
1153 2 0.13078 0.13484 0.57548
1180 2 0.236667 0.104002 0.57939
1181 4 0.237832 0.0795799 0.574159
1182 4 0.235502 0.128425 0.584621
1199 4 0.0179624 0.210903 0.577683
879 4 0.0700213 0.194932 0.542659
1198 2 0.997587 0.216311 0.564238
877 2 0.0531044 0.205456 0.557767
1272 4 0.0663549 0.175701 0.544251
651 4 0.219119 0.225388 0.515226
858 4 0.200996 0.234212 0.51903
898 2 0.243987 0.162377 0.56929
649 2 0.234344 0.208381 0.525432
650 4 0.249569 0.191374 0.535638
899 4 0.249774 0.177504 0.550241
695 4 0.0775802 0.288269 0.53493
982 2 0.0112903 0.286705 0.589989
694 2 0.0871345 0.283382 0.512346
946 2 0.173472 0.290217 0.572789
856 2 0.195013 0.254494 0.532372
857 4 0.18903 0.274776 0.545715
947 4 0.194975 0.279767 0.565469
798 4 0.207982 0.268132 0.576939
796 2 0.232955 0.269321 0.576574
503 4 0.190799 0.334192 0.496615
791 4 0.261266 0.289528 0.567349
790 2 0.263334 0.314239 0.570553
2455 2 0.481022 0.252226 0.521225
2457 4 0.462562 0.268962 0.523288
1010 4 0.462415 0.283016 0.509077
710 4 0.1391 0.372168 0.503068
502 2 0.172574 0.349187 0.504873
504 4 0.154349 0.364182 0.513131
1189 2 0.241945 0.370841 0.57872
803 4 0.272399 0.364194 0.555743
804 4 0.27762 0.363831 0.50601
802 2 0.275009 0.364013 0.530877
1190 4 0.259226 0.356089 0.568284
1238 4 0.275468 0.355637 0.573407
792 4 0.265402 0.33895 0.573758
1237 2 0.296866 0.365628 0.581622
930 4 0.336819 0.385087 0.588985
929 4 0.357207 0.377528 0.543953
881 4 0.361455 0.382617 0.525514
880 2 0.346049 0.373236 0.508198
928 2 0.347013 0.381307 0.566469
2244 4 0.109672 0.493433 0.584338
1160 4 0.124926 0.480326 0.584027
1081 2 0.0735176 0.0672889 0.642543
1082 4 0.0770441 0.0528313 0.662635
1083 4 0.0699911 0.0817466 0.62245
1283 4 0.152856 0.0691769 0.668603
1030 2 0.236514 0.0490625 0.59642
825 4 0.171431 0.0653243 0.662161
1031 4 0.246746 0.0314698 0.610945
824 4 0.186183 0.0176104 0.664706
823 2 0.178807 0.0414674 0.663433
951 4 0.249016 0.0307406 0.630493
949 2 0.265807 0.0128758 0.635403
3008 4 0.48729 0.0179732 0.586101
809 4 0.479571 0.0206706 0.603584
808 2 0.47331 0.036481 0.621915
810 4 0.467048 0.0522914 0.640245
45 3 0.465352 0.0741907 0.638415
41 1 0.456818 0.0684998 0.658748
1127 4 0.0527256 0.0900193 0.62223
1126 2 0.0315248 0.0952678 0.610058
1128 4 0.0103239 0.100516 0.597886
938 4 0.0753657 0.0890557 0.604854
937 2 0.0836532 0.106135 0.588581
1154 4 0.153384 0.139002 0.585326
900 4 0.2382 0.14725 0.58834
1221 4 0.172951 0.144709 0.585055
1219 2 0.197447 0.1416 0.588988
1211 4 0.240367 0.138891 0.653766
1210 2 0.234974 0.144407 0.629982
1220 4 0.221943 0.138492 0.59292
1212 4 0.229581 0.149923 0.606199
908 4 0.226108 0.141324 0.666626
1227 4 0.243444 0.131271 0.668269
1192 2 0.324203 0.165441 0.647761
1193 4 0.338129 0.160176 0.627673
3424 2 0.496508 0.0987403 0.647513
3425 4 0.47623 0.0860167 0.654731
878 4 0.0361875 0.21598 0.572875
1244 4 0.0462052 0.214504 0.591149
1243 2 0.0385751 0.236678 0.599826
3123 4 0.490378 0.223552 0.633261
983 4 0.0225438 0.276645 0.609922
1245 4 0.0309449 0.258852 0.608503
3263 4 0.0623344 0.325741 0.616568
948 4 0.151969 0.300667 0.580109
820 2 0.151662 0.323691 0.664052
797 4 0.257927 0.27051 0.576209
1135 2 0.163837 0.329838 0.611378
1136 4 0.158386 0.314059 0.592764
822 4 0.16063 0.339878 0.647237
872 4 0.368545 0.280303 0.588158
871 2 0.36535 0.298776 0.604703
873 4 0.362155 0.317248 0.621248
954 4 0.461143 0.295907 0.592634
952 2 0.466631 0.319791 0.597598
3262 2 0.0613802 0.350725 0.616764
1041 4 0.069056 0.390273 0.625561
3264 4 0.060426 0.37571 0.616961
3240 4 0.0532588 0.392283 0.611662
3238 2 0.0284079 0.394865 0.610688
3239 4 0.0035571 0.397447 0.609714
1039 2 0.0926015 0.398153 0.62851
1040 4 0.116147 0.406033 0.63146
993 4 0.126557 0.390579 0.635409
991 2 0.145166 0.373988 0.637311
992 4 0.163775 0.357396 0.639214
1137 4 0.169288 0.345617 0.629992
1064 4 0.17642 0.351424 0.64679
897 4 0.179961 0.360858 0.629203
896 4 0.20546 0.386758 0.594856
895 2 0.19271 0.373808 0.61203
1172 4 0.213717 0.400962 0.584443
1191 4 0.224663 0.385593 0.589156
1239 4 0.318264 0.375618 0.589837
813 4 0.379518 0.326016 0.626405
811 2 0.391229 0.346323 0.635105
1206 4 0.391516 0.377474 0.65651
927 4 0.397772 0.385208 0.640632
812 4 0.402939 0.366629 0.643805
925 2 0.405245 0.400804 0.622574
926 4 0.412718 0.4164 0.604516
953 4 0.472118 0.343675 0.602561
906 4 0.472145 0.362843 0.609891
540 4 0.107091 0.474838 0.579242
539 4 0.0750112 0.437643 0.588629
538 2 0.0910511 0.456241 0.583936
1159 2 0.148454 0.484965 0.591103
1171 2 0.217711 0.425419 0.587772
1186 2 0.205466 0.480506 0.602168
1173 4 0.221705 0.449875 0.591101
1187 4 0.220205 0.460936 0.607163
1188 4 0.190727 0.500077 0.597173
1161 4 0.171983 0.489605 0.598179
1002 4 0.413489 0.437012 0.603801
1911 4 0.446431 0.49075 0.611596
1001 4 0.443152 0.472964 0.621921
1000 2 0.428321 0.454988 0.612861
1269 4 0.459926 0.477979 0.614601
1267 2 0.473699 0.484357 0.63447
1268 4 0.487473 0.490735 0.654339
943 2 0.0452513 0.0177395 0.677374
944 4 0.0663484 0.029925 0.682996
1076 4 0.0791882 0.0464093 0.681478
1075 2 0.0729728 0.0632468 0.698886
945 4 0.0241541 0.005554 0.671753
864 4 0.0613476 0.0733152 0.734298
862 2 0.0442617 0.0718982 0.752498
1107 4 0.0759517 0.0846727 0.72963
1105 2 0.0970629 0.0862892 0.74293
1149 4 0.260531 0.0329268 0.718334
1147 2 0.251115 0.0506889 0.703466
1148 4 0.2417 0.0684509 0.688599
1004 4 0.337363 0.0771252 0.739579
1092 4 0.327926 0.0102622 0.685279
42 3 0.459248 0.0458454 0.661914
43 3 0.43425 0.073819 0.659632
1163 4 0.471985 0.056799 0.678365
1162 2 0.485376 0.0453952 0.696137
44 3 0.468258 0.0796912 0.675549
1077 4 0.0667573 0.0800843 0.716295
851 4 0.0735935 0.098407 0.715666
850 2 0.0678876 0.122063 0.709921
852 4 0.0621817 0.14572 0.704176
1282 2 0.162515 0.0916828 0.673638
1284 4 0.172175 0.114189 0.678673
909 4 0.180993 0.129883 0.684915
907 2 0.20355 0.135603 0.675771
1225 2 0.247331 0.107148 0.673574
888 4 0.258871 0.139416 0.656305
1194 4 0.310276 0.170705 0.667848
886 2 0.276425 0.15395 0.666589
1226 4 0.251217 0.0830249 0.678879
829 2 0.323344 0.153606 0.704134
830 4 0.311536 0.167637 0.687137
1005 4 0.347178 0.123758 0.72442
1003 2 0.34227 0.100441 0.731999
831 4 0.335152 0.139576 0.721131
3270 4 0.492154 0.163978 0.727168
1113 4 0.486788 0.114606 0.761084
1178 4 0.00927819 0.247041 0.732274
1215 4 0.996434 0.234376 0.738992
887 4 0.29398 0.168484 0.676872
977 4 0.304394 0.224339 0.728341
976 2 0.329353 0.224601 0.72688
1298 4 0.289577 0.218379 0.74062
918 4 0.29308 0.235113 0.74011
1297 2 0.287795 0.195659 0.750907
978 4 0.354313 0.224862 0.725419
1025 4 0.381487 0.198143 0.696019
1020 4 0.370884 0.235417 0.725772
1018 2 0.375696 0.243914 0.748789
1024 2 0.404185 0.200274 0.706287
1142 4 0.429408 0.204643 0.735048
1144 2 0.464729 0.188219 0.716542
1262 4 0.436846 0.21884 0.725725
1026 4 0.426884 0.202405 0.716554
1261 2 0.438348 0.242337 0.717311
1145 4 0.444948 0.202767 0.721258
1146 4 0.484509 0.17367 0.711825
1177 2 0.0232629 0.263371 0.71951
1179 4 0.0372476 0.279702 0.706746
1208 4 0.147762 0.273807 0.727747
1074 4 0.140379 0.254875 0.732192
1207 2 0.153895 0.289642 0.709394
821 4 0.142694 0.307504 0.680867
1209 4 0.160029 0.305476 0.691041
1072 2 0.11741 0.24532 0.734699
1130 4 0.154595 0.262846 0.741321
1073 4 0.0944403 0.235765 0.737206
1263 4 0.439849 0.265834 0.708897
3114 4 0.503002 0.318131 0.680118
892 2 0.0370636 0.364513 0.725284
1279 2 0.0765466 0.415711 0.72539
1280 4 0.0682665 0.392591 0.720692
816 4 0.0745011 0.375036 0.717844
894 4 0.0577771 0.378221 0.728153
893 4 0.01635 0.350806 0.722415
814 2 0.0951512 0.363121 0.72538
815 4 0.115801 0.351206 0.732917
942 4 0.123707 0.346283 0.750809
940 2 0.14531 0.358791 0.74939
805 2 0.238177 0.340871 0.702868
1063 2 0.193715 0.357017 0.663959
1065 4 0.21101 0.36261 0.681127
807 4 0.218136 0.354396 0.696494
1028 4 0.211246 0.382034 0.680766
1066 2 0.196222 0.373819 0.719165
1068 4 0.207796 0.372234 0.697058
1027 2 0.219661 0.404489 0.673686
1067 4 0.184648 0.375403 0.741272
806 4 0.258218 0.327347 0.709242
1204 2 0.377298 0.389547 0.673162
1205 4 0.363079 0.40162 0.689813
1281 4 0.0848268 0.438831 0.730088
1983 4 0.0809096 0.447916 0.747474
1981 2 0.100918 0.462889 0.748283
1029 4 0.228076 0.426945 0.666607
1176 4 0.172027 0.479415 0.731709
1175 4 0.197081 0.497125 0.692219
1174 2 0.184554 0.48827 0.711964
2016 4 0.174822 0.496532 0.741759
1140 4 0.24759 0.43301 0.670307
2026 2 0.283951 0.499837 0.699939
1138 2 0.264428 0.450556 0.676116
1139 4 0.281267 0.468102 0.681926
1987 2 0.296009 0.448466 0.722955
1229 4 0.301497 0.468934 0.684258
1989 4 0.302047 0.464182 0.70447
2028 4 0.290825 0.476208 0.695514
1228 2 0.323881 0.466937 0.673297
1988 4 0.289971 0.432749 0.741441
1230 4 0.346265 0.46494 0.662335
1101 4 0.486687 0.492095 0.674126
1099 2 0.483275 0.480922 0.696233
1100 4 0.479863 0.46975 0.71834
2168 4 0.480192 0.506632 0.663755
2989 2 0.0144944 0.0326377 0.784212
2990 4 0.0160576 0.0562926 0.776263
2991 4 0.0129312 0.00898284 0.792161
863 4 0.0271759 0.0704813 0.770698
833 4 0.0151496 0.0755212 0.783932
3083 4 0.00498246 0.0693687 0.769498
1106 4 0.118174 0.0879058 0.75623
2049 4 0.105508 0.0123176 0.797251
1202 4 0.113105 0.0266179 0.783687
1201 2 0.123798 0.0491752 0.785107
1203 4 0.13449 0.0717326 0.786528
1085 4 0.322111 0.0811369 0.812774
960 4 0.324587 0.0668373 0.827282
1084 2 0.299957 0.0845763 0.801705
819 4 0.33305 0.0657127 0.810173
817 2 0.343011 0.0464755 0.797687
818 4 0.352972 0.0272383 0.785202
974 4 0.361468 0.0136074 0.796486
844 2 0.497125 0.0683796 0.816661
845 4 0.496028 0.0609703 0.792805
2322 4 0.497959 0.0485378 0.77664
2320 2 0.499712 0.0380894 0.753992
832 2 0.018079 0.0941759 0.800321
834 4 0.0210084 0.112831 0.81671