ITEM: TIMESTEP
360000
ITEM: NUMBER OF ATOMS
4590
ITEM: BOX BOUNDS pp pp pp
-9.9985700000000008e+00 9.9985700000000008e+00
-9.9985700000000008e+00 9.9985700000000008e+00
-9.9985700000000008e+00 9.9985700000000008e+00
ITEM: ATOMS id type xs ys zs
463 2 0.0335137 0.0765913 0.0261359
464 4 0.0524451 0.0605805 0.0229053
534 4 0.211835 0.0583424 0.0227317
490 2 0.269589 0.0826171 0.068946
492 4 0.253627 0.0799721 0.0498824
296 4 0.369349 0.0741161 0.0308465
295 2 0.365674 0.0598678 0.0510618
297 4 0.361999 0.0456195 0.0712771
987 4 0.401356 0.0229219 0.0109451
747 4 0.485299 0.0681039 0.0197838
2975 4 0.471908 0.0560933 0.0121737
2974 2 0.472458 0.0315086 0.0166978
2976 4 0.473007 0.00692383 0.0212219
1826 4 0.484777 0.00295846 0.0606475
2467 2 0.495865 0.0337248 0.0714105
2468 4 0.483085 0.0220067 0.0533955
465 4 0.0145823 0.092602 0.0293664
589 2 0.0169647 0.098626 0.0757682
591 4 0.0411103 0.0923427 0.0774088
422 4 0.139066 0.115571 0.0169056
421 2 0.117305 0.115738 0.0045924
565 2 0.212371 0.130824 0.0539582
566 4 0.188348 0.124969 0.0502464
567 4 0.236394 0.13668 0.0576699
358 2 0.293129 0.141101 0.0445965
359 4 0.283559 0.154529 0.0258011
360 4 0.3027 0.127673 0.0633919
557 4 0.371963 0.0935583 0.0243255
556 2 0.386246 0.110045 0.036547
558 4 0.400529 0.126532 0.0487686
745 2 0.481636 0.0912835 0.0284132
746 4 0.477973 0.114463 0.0370426
771 4 0.424164 0.165027 0.0328223
769 2 0.437481 0.168184 0.0537478
553 2 0.0539561 0.235674 0.0292825
555 4 0.0292794 0.233128 0.0261586
554 4 0.0786327 0.23822 0.0324063
573 4 0.273917 0.239761 0.0632986
324 4 0.404311 0.229581 0.0774058
664 2 0.34091 0.184922 0.0126223
665 4 0.358221 0.185111 0.0306636
770 4 0.450798 0.171341 0.0746732
292 2 0.142094 0.32446 0.022243
293 4 0.152158 0.320376 0.0447641
507 4 0.160147 0.303018 0.0378726
483 4 0.21795 0.289619 0.0681434
505 2 0.183859 0.298315 0.0442577
506 4 0.207572 0.293612 0.0506429
481 2 0.241279 0.294093 0.060338
572 4 0.300398 0.260709 0.0264114
357 4 0.254232 0.268284 0.0210102
571 2 0.287157 0.250235 0.044855
482 4 0.264608 0.298568 0.0525326
322 2 0.411585 0.253471 0.0786368
957 4 0.345237 0.330755 0.00642475
1071 4 0.380193 0.282497 0.0306441
1069 2 0.402862 0.290036 0.0232652
671 4 0.452397 0.32647 0.0551183
280 2 0.452717 0.316528 0.0142588
281 4 0.443735 0.321842 0.0369801
670 2 0.449952 0.330425 0.0796856
323 4 0.418859 0.277361 0.0798678
1070 4 0.425531 0.297576 0.0158863
330 4 0.00684404 0.385532 0.00146595
328 2 0.0118829 0.408677 0.00946981
621 4 0.0464266 0.341863 0.0783474
550 2 0.0749969 0.410623 0.0436257
551 4 0.0502499 0.407888 0.0413272
552 4 0.0997439 0.413358 0.0459241
287 4 0.160187 0.386515 0.0485196
455 4 0.103381 0.400383 0.0600701
288 4 0.177353 0.363465 0.0075956
286 2 0.16877 0.37499 0.0280576
252 4 0.282874 0.40589 0.048295
250 2 0.284266 0.400782 0.0238584
609 4 0.276442 0.400831 0.0662239
955 2 0.370015 0.333739 0.00490607
741 4 0.357344 0.33563 0.0733219
329 4 0.0169217 0.431823 0.0174737
242 4 0.152853 0.478664 0.0582426
1788 4 0.0890285 0.490348 0.0546725
241 2 0.16778 0.49256 0.0727076
245 4 0.247822 0.444869 0.0485786
244 2 0.258432 0.452127 0.0271324
246 4 0.269041 0.459385 0.00568627
272 4 0.280307 0.474359 0.997246
271 2 0.296606 0.491166 0.00602301
227 4 0.48385 0.443962 0.0776544
226 2 0.487157 0.467767 0.0707599
563 4 0.459507 0.496926 0.0416938
228 4 0.490463 0.491573 0.0638654
701 4 0.0818399 0.0677132 0.0922465
1666 2 0.0759187 0.0333095 0.0922056
1668 4 0.06474 0.0136068 0.102789
19 3 0.0555716 0.030475 0.149133
1667 4 0.0870975 0.0530121 0.0816216
450 4 0.154563 0.0688916 0.144069
693 4 0.213046 0.0727673 0.16517
652 2 0.308568 0.028158 0.139434
653 4 0.321912 0.0408713 0.122537
654 4 0.295224 0.0154447 0.15633
758 4 0.398724 0.0443788 0.154734
1761 4 0.448303 0.0127457 0.131582
1759 2 0.470719 0.0144132 0.142533
1760 4 0.493135 0.0160807 0.153484
2724 4 0.498342 0.044653 0.157826
700 2 0.0972151 0.0853937 0.100975
702 4 0.11259 0.103074 0.109703
476 4 0.147476 0.139363 0.126084
475 2 0.132085 0.154164 0.139092
448 2 0.172835 0.084948 0.13828
237 4 0.188316 0.159109 0.155703
449 4 0.191106 0.101004 0.13249
235 2 0.185891 0.139122 0.140878
236 4 0.183466 0.119134 0.126053
491 4 0.28555 0.0852622 0.0880097
582 4 0.309683 0.101298 0.121022
580 2 0.293381 0.109166 0.138271
581 4 0.277079 0.117034 0.15552
312 4 0.43261 0.107348 0.137437
629 4 0.437037 0.155345 0.138185
310 2 0.434546 0.0894251 0.154763
628 2 0.423825 0.165731 0.119671
337 2 0.0800558 0.241497 0.12573
339 4 0.0705811 0.239685 0.102662
477 4 0.116693 0.168965 0.1521
338 4 0.0895306 0.243308 0.148798
737 4 0.178537 0.184077 0.0996977
736 2 0.203122 0.179562 0.10033
738 4 0.227706 0.175046 0.100962
354 4 0.279438 0.222476 0.102666
461 4 0.306582 0.241816 0.0870097
352 2 0.270022 0.237093 0.120634
460 2 0.326834 0.227179 0.0879112
284 4 0.275814 0.242777 0.158064
255 4 0.355995 0.194964 0.0899301
462 4 0.347085 0.212542 0.0888126
254 4 0.405951 0.193362 0.0915129
253 2 0.380973 0.194163 0.0907215
630 4 0.410614 0.176117 0.101157
518 4 0.49175 0.231233 0.111446
363 4 0.0908992 0.25399 0.166478
536 4 0.207362 0.319896 0.137665
277 2 0.244841 0.259791 0.165725
353 4 0.260606 0.25171 0.138603
278 4 0.266923 0.258408 0.154077
754 2 0.269439 0.291605 0.127427
755 4 0.270087 0.266669 0.129151
756 4 0.268791 0.316541 0.125703
612 4 0.27082 0.322759 0.143844
624 4 0.389472 0.251959 0.128916
622 2 0.385756 0.276583 0.126667
623 4 0.382041 0.301206 0.124418
528 4 0.464173 0.27701 0.163822
619 2 0.0370735 0.35826 0.0947435
620 4 0.0277204 0.374658 0.11114
647 4 0.0509048 0.357953 0.167196
454 2 0.111343 0.395926 0.0833494
456 4 0.119305 0.39147 0.106629
535 2 0.193258 0.339414 0.144398
537 4 0.179155 0.358932 0.151131
607 2 0.291562 0.405226 0.0856465
626 4 0.256192 0.418664 0.0790515
302 4 0.320734 0.383799 0.161489
387 4 0.319102 0.392039 0.14329
739 2 0.359186 0.353636 0.0905717
740 4 0.361029 0.371642 0.107822
15 3 0.375383 0.361745 0.131522
385 2 0.341739 0.385412 0.134995
386 4 0.364377 0.378786 0.126699
11 1 0.395879 0.361503 0.141447
13 3 0.393563 0.358377 0.164322
12 3 0.408285 0.344173 0.132792
14 3 0.406939 0.381467 0.137261
672 4 0.447506 0.33438 0.104253
495 4 0.415899 0.388551 0.120054
493 2 0.424642 0.409357 0.130817
596 4 0.493969 0.400986 0.16095
1467 4 0.0122692 0.505167 0.171331
315 4 0.050033 0.440065 0.0979254
313 2 0.0297729 0.450434 0.108279
314 4 0.00951277 0.460803 0.118633
625 2 0.24754 0.439844 0.0891364
627 4 0.238888 0.461025 0.0992212
608 4 0.306683 0.409621 0.105069
637 2 0.254051 0.497233 0.144974
638 4 0.266695 0.481105 0.1593
525 4 0.355922 0.488596 0.115725
658 2 0.383064 0.448019 0.155395
659 4 0.367453 0.436399 0.139696
494 4 0.433386 0.430162 0.14158
17 3 0.0311377 0.0533699 0.166205
2479 2 0.996362 0.0685053 0.174872
20 3 0.067469 0.0619096 0.166103
2480 4 0.0135444 0.0503456 0.175262
16 1 0.0524675 0.0448048 0.167117
18 3 0.0550407 0.0331881 0.187038
1422 4 0.0119977 0.0331209 0.185342
1420 2 0.0158304 0.00841393 0.185576
673 2 0.12742 0.0404014 0.23789
674 4 0.138116 0.0554273 0.221009
691 2 0.224226 0.0748148 0.187441
689 4 0.193352 0.0210719 0.214252
688 2 0.186252 0.0168487 0.237852
692 4 0.235407 0.0768622 0.209712
21 1 0.367741 0.0396779 0.225185
23 3 0.374026 0.0259625 0.242814
24 3 0.347108 0.0493235 0.229618
25 3 0.366683 0.0275775 0.20592
759 4 0.382865 0.0411641 0.202051
22 3 0.383393 0.0563657 0.2228
757 2 0.390794 0.0427715 0.178392
742 2 0.466015 0.0652086 0.228402
744 4 0.48076 0.0460388 0.222054
311 4 0.436482 0.0715021 0.172089
579 4 0.0897371 0.0862955 0.250937
577 2 0.0965954 0.0944782 0.228328
578 4 0.103454 0.102661 0.205719
723 4 0.200922 0.0919453 0.228881
30 3 0.305371 0.143715 0.240382
26 1 0.299873 0.121619 0.240816
28 3 0.277426 0.118941 0.235586
27 3 0.312529 0.110355 0.225256
333 4 0.417819 0.151419 0.242665
743 4 0.451271 0.0843783 0.23475
379 2 0.997622 0.165405 0.179079
381 4 0.0155474 0.176162 0.192797
511 2 0.0322508 0.180141 0.232739
512 4 0.0201039 0.183794 0.211192
395 4 0.0204833 0.242835 0.197763
371 4 0.169361 0.25075 0.232527
283 2 0.284199 0.221966 0.1691
285 4 0.292584 0.201156 0.180136
764 4 0.345409 0.232741 0.184269
763 2 0.366211 0.221528 0.192438
765 4 0.387013 0.210316 0.200606
520 2 0.480379 0.211286 0.216597
521 4 0.458378 0.199816 0.213508
394 2 0.0239375 0.24712 0.222154
396 4 0.0273918 0.251405 0.246544
370 2 0.147013 0.254207 0.22186
372 4 0.124665 0.257665 0.211193
748 2 0.0983788 0.28762 0.248612
361 2 0.0976568 0.257804 0.190247
362 4 0.104414 0.261619 0.214016
749 4 0.0969451 0.276788 0.226122
279 4 0.22276 0.261173 0.177373
345 4 0.225345 0.306973 0.235127
610 2 0.267874 0.331609 0.167043
343 2 0.246997 0.294707 0.232693
344 4 0.268649 0.282441 0.230258
307 2 0.32007 0.277096 0.227755
309 4 0.306792 0.293593 0.241048
308 4 0.333348 0.260599 0.214461
526 2 0.485721 0.267934 0.172683
646 2 0.0718825 0.346435 0.174439
263 4 0.0581897 0.401073 0.253345
262 2 0.0435299 0.412445 0.236583
648 4 0.0928601 0.334917 0.181682
300 4 0.0959578 0.33263 0.244632
298 2 0.11719 0.344553 0.250309
416 4 0.178002 0.413345 0.22038
611 4 0.264928 0.340459 0.190242
303 4 0.325346 0.371138 0.209646
301 2 0.32304 0.377468 0.185568
729 4 0.319441 0.38125 0.225431
727 2 0.337761 0.378462 0.242218
595 2 0.474342 0.392706 0.174042
597 4 0.454715 0.384426 0.187135
643 2 0.431135 0.370886 0.204033
644 4 0.426714 0.357086 0.224409
645 4 0.435555 0.384687 0.183657
447 4 0.437732 0.364227 0.238788
1756 2 0.0818964 0.496758 0.242483
264 4 0.0288702 0.423816 0.219821
417 4 0.140928 0.419057 0.18731
415 2 0.159465 0.416201 0.203845
291 4 0.194597 0.425658 0.215201
290 4 0.242191 0.440058 0.220502
289 2 0.218394 0.432858 0.217851
768 4 0.259166 0.448863 0.218351
766 2 0.266045 0.460765 0.197465
767 4 0.272924 0.472668 0.17658
1574 4 0.322966 0.489084 0.221079
660 4 0.398675 0.459638 0.171094
1568 4 0.496721 0.486313 0.20148
232 2 0.0249311 0.0484426 0.291699
233 4 0.0395995 0.0286909 0.28724
1402 2 0.08122 0.0339184 0.279823
234 4 0.0102627 0.0681944 0.296158
1404 4 0.0593176 0.0364472 0.291616
675 4 0.116724 0.0253756 0.254772
1403 4 0.103123 0.0313897 0.26803
1464 4 0.110863 0.00123579 0.295607
606 4 0.165545 0.0603461 0.324055
690 4 0.179151 0.0126254 0.261451
1701 4 0.230817 0.0352327 0.32322
1699 2 0.254281 0.0432806 0.326356
1700 4 0.277746 0.0513285 0.329492
1748 4 0.452296 0.0173968 0.250021
478 2 0.49107 0.0456388 0.317903
480 4 0.474679 0.0600632 0.30572
351 4 0.469085 0.0526725 0.288399
349 2 0.448518 0.0657071 0.282717
350 4 0.427952 0.0787417 0.277034
531 4 0.00937968 0.15993 0.251577
731 4 0.144815 0.0932512 0.304322
730 2 0.125385 0.0996888 0.318682
546 4 0.149476 0.161078 0.273182
732 4 0.105956 0.106126 0.333042
721 2 0.201313 0.103677 0.250958
248 4 0.230923 0.0905087 0.324479
722 4 0.201705 0.115409 0.273035
249 4 0.208909 0.121617 0.292101
247 2 0.219916 0.106063 0.30829
403 2 0.215913 0.161772 0.280979
404 4 0.220235 0.137438 0.284764
29 3 0.304218 0.11279 0.26183
632 4 0.379497 0.103338 0.26705
631 2 0.370467 0.120269 0.283081
633 4 0.361437 0.137199 0.299112
331 2 0.4388 0.15447 0.255919
332 4 0.459781 0.157522 0.269173
513 4 0.0443978 0.176487 0.254286
443 4 0.0092973 0.247045 0.253538
393 4 0.081327 0.196513 0.264764
392 4 0.128921 0.190872 0.279036
391 2 0.105124 0.193693 0.2719
544 2 0.159728 0.183594 0.269559
545 4 0.169981 0.206109 0.265935
405 4 0.211591 0.186107 0.277193
707 4 0.347225 0.182244 0.301893
706 2 0.341461 0.182071 0.326222
420 4 0.418827 0.230773 0.321567
762 4 0.471227 0.168123 0.256159
418 2 0.442105 0.224492 0.328189
761 4 0.490062 0.199225 0.29049
760 2 0.480645 0.183674 0.273325
750 4 0.0998124 0.298453 0.271101
390 4 0.114835 0.258048 0.320736
400 2 0.186781 0.285494 0.297993
402 4 0.207516 0.280406 0.311007
401 4 0.166047 0.290581 0.284979
510 4 0.234663 0.325394 0.308399
508 2 0.235437 0.334509 0.331669
496 2 0.315123 0.298866 0.308079
497 4 0.309701 0.281908 0.325635
498 4 0.320545 0.315824 0.290523
543 4 0.394221 0.306754 0.306883
615 4 0.379366 0.316997 0.315963
613 2 0.362744 0.334941 0.321149
541 2 0.417021 0.298569 0.313075
542 4 0.439821 0.290383 0.319267
366 4 0.998337 0.35757 0.288098
364 2 0.0159313 0.354306 0.305561
365 4 0.0335257 0.351042 0.323024
602 4 0.0545428 0.402468 0.300768
601 2 0.0626904 0.380577 0.291848
603 4 0.070838 0.358686 0.282928
549 4 0.0604899 0.403697 0.319684
299 4 0.138422 0.356475 0.255986
734 4 0.157256 0.351215 0.26285
733 2 0.162726 0.361594 0.284931
677 4 0.183517 0.361304 0.315938
735 4 0.168195 0.371973 0.307011
433 2 0.314002 0.369994 0.316524
435 4 0.301929 0.391382 0.311836
434 4 0.326075 0.348606 0.321212
728 4 0.356081 0.375673 0.259005
614 4 0.346121 0.352884 0.326334
445 2 0.453541 0.372545 0.256283
446 4 0.46935 0.380863 0.273777
1757 4 0.0619848 0.484505 0.251346
777 4 0.0789289 0.476627 0.300909
775 2 0.0801572 0.481818 0.325337
414 4 0.178196 0.492575 0.289883
412 2 0.191595 0.472143 0.295191
413 4 0.204994 0.451711 0.300498
436 2 0.318608 0.459509 0.298004
437 4 0.322323 0.440054 0.282744
438 4 0.314894 0.478964 0.313264
231 4 0.386791 0.496046 0.274708
2861 4 0.49126 0.473904 0.268859
119 3 0.486976 0.436095 0.321907
713 4 0.446433 0.477036 0.292059
712 2 0.458078 0.46227 0.308538
714 4 0.469723 0.447504 0.325017
316 2 0.0403539 0.0657131 0.34952
317 4 0.0179507 0.0549503 0.352248
318 4 0.062757 0.0764758 0.346792
428 4 0.0859029 0.0436232 0.386004
429 4 0.116047 0.0228631 0.351929
427 2 0.100975 0.0332432 0.368967
604 2 0.180932 0.0676097 0.342376
605 4 0.19632 0.0748732 0.360697
683 4 0.301444 0.0468934 0.376218
682 2 0.298683 0.0656109 0.392565
684 4 0.295921 0.0843284 0.408911
699 4 0.344581 0.055583 0.340655
257 4 0.409325 0.036063 0.352159
698 4 0.392919 0.0442642 0.346657
697 2 0.36875 0.0499236 0.343656
426 4 0.411435 0.0324128 0.409518
256 2 0.431843 0.0464344 0.348906
258 4 0.45436 0.0568059 0.345652
398 4 0.0412669 0.118265 0.349801
397 2 0.0661005 0.11679 0.347293
458 4 0.0171723 0.134944 0.409547
399 4 0.0909342 0.115314 0.344785
600 4 0.207378 0.133892 0.348797
598 2 0.196532 0.139855 0.370523
599 4 0.185686 0.145818 0.392248
320 4 0.292466 0.103071 0.416179
452 4 0.495001 0.124598 0.383486
451 2 0.472188 0.133845 0.387875
453 4 0.449376 0.143092 0.392264
514 2 0.422244 0.15628 0.407647
515 4 0.429296 0.141184 0.389004
260 4 0.0952369 0.20028 0.404916
474 4 0.235901 0.216583 0.382601
274 2 0.207139 0.244192 0.370433
276 4 0.217637 0.222672 0.377635
472 2 0.236451 0.197011 0.367051
473 4 0.237001 0.177438 0.351501
708 4 0.335697 0.181897 0.350551
715 2 0.375011 0.208895 0.369651
716 4 0.372957 0.187264 0.382022
717 4 0.377066 0.230526 0.357279
467 4 0.364067 0.17335 0.392775
466 2 0.357059 0.182427 0.414994
419 4 0.465383 0.218211 0.334811
618 4 0.0597759 0.329147 0.375077
347 4 0.0523213 0.310404 0.376745
346 2 0.0463415 0.296411 0.396585
348 4 0.0403617 0.282418 0.416425
389 4 0.096243 0.246036 0.365577
388 2 0.105539 0.252042 0.343156
275 4 0.196641 0.265712 0.363231
373 2 0.191271 0.329249 0.390314
374 4 0.213735 0.323087 0.399401
375 4 0.168807 0.335411 0.381227
376 2 0.298706 0.282505 0.359991
377 4 0.310747 0.270462 0.341683
378 4 0.286666 0.294548 0.378298
269 4 0.484399 0.262207 0.389246
268 2 0.474113 0.257619 0.411569
616 2 0.0666698 0.342874 0.355349
617 4 0.0735636 0.356602 0.33562
547 2 0.0638313 0.414373 0.342046
678 4 0.172928 0.344355 0.361778
676 2 0.178223 0.352829 0.338858
509 4 0.236211 0.343624 0.354939
336 4 0.349005 0.374436 0.386535
334 2 0.354774 0.370366 0.410522
561 4 0.475394 0.398698 0.388232
752 4 0.465723 0.407557 0.372844
559 2 0.495356 0.393074 0.402198
548 4 0.0671727 0.42505 0.364407
2463 4 0.00262455 0.461262 0.345138
407 4 0.0768733 0.421533 0.381285
776 4 0.0813856 0.48701 0.349764
406 2 0.0827358 0.421702 0.405591
499 2 0.105323 0.498415 0.377071
500 4 0.0988363 0.483213 0.358309
568 2 0.157029 0.49379 0.416151
1555 2 0.252757 0.489838 0.414945
503 4 0.263985 0.419308 0.416926
5 3 0.304464 0.502106 0.355579
1 1 0.323092 0.489944 0.360455
4 3 0.31758 0.4723 0.37448
3 3 0.332603 0.481848 0.3409
594 4 0.401856 0.456326 0.34634
592 2 0.410788 0.47774 0.355658
593 4 0.419721 0.499154 0.364977
751 2 0.444597 0.420683 0.375409
753 4 0.423471 0.433809 0.377974
2237 4 0.0362587 0.0163014 0.488336
718 2 0.0442853 0.0565191 0.493039
720 4 0.0437801 0.0333104 0.48375
2236 2 0.0173781 0.0017542 0.495891
367 2 0.121535 0.0274943 0.440223
369 4 0.137472 0.0466284 0.442479
368 4 0.105599 0.00836024 0.437967
341 4 0.204233 0.0351371 0.493595
340 2 0.194663 0.0578519 0.497793
441 4 0.279852 0.0319677 0.424563
439 2 0.283054 0.00840277 0.416841
962 4 0.274699 0.0305012 0.48063
961 2 0.293417 0.0426197 0.491941
424 2 0.393179 0.0337173 0.426553
425 4 0.374923 0.0350217 0.443588
457 2 0.0176016 0.156582 0.422067
471 4 0.0169073 0.154102 0.474196
685 2 0.158151 0.169126 0.432936
686 4 0.173399 0.150113 0.427353
342 4 0.185092 0.0805668 0.501991
1181 4 0.267421 0.0862914 0.483653
1182 4 0.253885 0.129114 0.46166
726 4 0.32587 0.0880161 0.433444
1180 2 0.260653 0.107703 0.472656
321 4 0.291888 0.146026 0.441776
319 2 0.292177 0.124549 0.428977
724 2 0.350786 0.088091 0.435525
725 4 0.375703 0.0881658 0.437606
642 4 0.479031 0.0973742 0.492596
2880 4 0.492367 0.0932468 0.477681
459 4 0.018031 0.178221 0.434588
469 2 0.0228894 0.178377 0.47455
470 4 0.0288716 0.202652 0.474904
687 4 0.142902 0.188139 0.438519
261 4 0.124248 0.186219 0.443143
259 2 0.109743 0.19325 0.42403
1035 4 0.109649 0.184743 0.456083
1033 2 0.114654 0.183406 0.480544
695 4 0.107035 0.228137 0.465332
488 4 0.26589 0.210019 0.41667
487 2 0.27019 0.230471 0.430396
489 4 0.27449 0.250923 0.444122
411 4 0.31631 0.232951 0.479232
409 2 0.330067 0.216028 0.467005
574 2 0.407975 0.170317 0.462036
576 4 0.391678 0.172894 0.480823
410 4 0.343825 0.199105 0.454777
516 4 0.415192 0.171375 0.42629
468 4 0.350052 0.191504 0.437212
575 4 0.424271 0.16774 0.443249
304 2 0.496907 0.192492 0.42923
305 4 0.478554 0.20654 0.438768
2845 2 0.0025064 0.335004 0.470725
326 4 0.0832849 0.325456 0.453603
694 2 0.111835 0.250154 0.476166
696 4 0.116634 0.272172 0.486999
1260 4 0.124293 0.286291 0.499215
327 4 0.132016 0.336474 0.455743
325 2 0.10765 0.330965 0.454673
10 3 0.17155 0.324791 0.483151
651 4 0.242998 0.299309 0.481708
649 2 0.260197 0.306794 0.465175
650 4 0.277397 0.314279 0.448642
266 4 0.321106 0.280501 0.422561
267 4 0.362052 0.278609 0.451208
265 2 0.341579 0.279555 0.436884
270 4 0.463827 0.253032 0.433892
583 2 0.467974 0.270147 0.464209
584 4 0.491248 0.265972 0.472339
585 4 0.4447 0.274321 0.456079
2846 4 0.00623291 0.345418 0.448301
681 4 0.0330977 0.409189 0.431902
6 1 0.157397 0.342083 0.487548
7 3 0.144107 0.345861 0.469156
8 3 0.169562 0.361313 0.49209
502 2 0.240807 0.41017 0.41904
711 4 0.170486 0.381088 0.458999
504 4 0.217629 0.401033 0.421153
709 2 0.192407 0.384314 0.447414
710 4 0.214329 0.387541 0.435829
772 2 0.265579 0.405782 0.48367
773 4 0.267755 0.384561 0.496712
812 4 0.331897 0.331293 0.492147
238 2 0.384498 0.37999 0.455638
240 4 0.377054 0.376382 0.432042
335 4 0.360544 0.366297 0.434508
239 4 0.391942 0.383597 0.479233
680 4 0.0212498 0.455773 0.41811
1381 2 0.0307095 0.486209 0.439884
1383 4 0.0333928 0.470899 0.420298
679 2 0.0271737 0.432481 0.425006
383 4 0.0778386 0.426517 0.44623
384 4 0.0794832 0.431871 0.495923
382 2 0.0786609 0.429194 0.471076
408 4 0.0885983 0.421871 0.429897
569 4 0.149102 0.471516 0.424286
1557 4 0.24258 0.476399 0.433411
634 2 0.240512 0.459126 0.457774
636 4 0.234078 0.481893 0.449683
774 4 0.263403 0.427004 0.470628
669 4 0.281041 0.436718 0.467646
667 2 0.300965 0.434903 0.452649
668 4 0.320889 0.433088 0.437652
635 4 0.246947 0.43636 0.465865
588 4 0.399042 0.448136 0.423807
1401 4 0.345458 0.487004 0.432896
586 2 0.410932 0.432943 0.439713
662 4 0.460369 0.487203 0.490673
661 2 0.451818 0.463736 0.489502
587 4 0.422821 0.41775 0.455619
663 4 0.443267 0.440269 0.488331
1126 2 0.0262446 0.0473054 0.553646
1127 4 0.028809 0.0315149 0.534429
1128 4 0.0236803 0.0630958 0.572862
719 4 0.0447906 0.0797278 0.502328
2430 4 0.212204 0.0242701 0.508136
963 4 0.312136 0.0547382 0.503252
432 4 0.311275 0.0762188 0.499899
430 2 0.33068 0.0865034 0.511852
951 4 0.267352 0.0167559 0.576333
1217 4 0.402387 0.0408577 0.549893
1216 2 0.408677 0.027205 0.569874
841 2 0.37763 0.06859 0.535494
842 4 0.389843 0.0467875 0.536317
1062 4 0.496969 0.0123293 0.531579
938 4 0.0692774 0.135684 0.573245
937 2 0.0924783 0.131247 0.565047
939 4 0.115679 0.126811 0.556849
1031 4 0.209761 0.0803542 0.565161
1030 2 0.232757 0.090038 0.563553
1152 4 0.184977 0.090288 0.518947
1151 4 0.189745 0.137791 0.533829
1150 2 0.187361 0.114039 0.526388
1032 4 0.255753 0.0997217 0.561944
899 4 0.321884 0.150098 0.5437
843 4 0.365417 0.0903925 0.534671
431 4 0.350084 0.096788 0.523805
641 4 0.463098 0.133692 0.523058
3159 4 0.49951 0.156096 0.564208
640 2 0.471065 0.115533 0.507827
877 2 0.060367 0.211 0.575185
878 4 0.0354098 0.210554 0.573729
1199 4 0.0184199 0.197227 0.57563
879 4 0.0853241 0.211445 0.576641
1034 4 0.119658 0.182069 0.505005
856 2 0.216099 0.231107 0.522926
858 4 0.228455 0.216328 0.538866
857 4 0.203742 0.245885 0.506985
898 2 0.332672 0.172107 0.538764
900 4 0.34346 0.194117 0.533828
3065 4 0.498309 0.251901 0.526367
983 4 0.0501276 0.304484 0.550184
982 2 0.0406288 0.320149 0.567201
1258 2 0.145418 0.284653 0.51249
1259 4 0.166544 0.283014 0.525765
9 3 0.14385 0.336822 0.505637
791 4 0.29912 0.254199 0.571915
813 4 0.347697 0.306876 0.532828
872 4 0.392397 0.256028 0.53706
811 2 0.339797 0.319085 0.512488
871 2 0.376373 0.274522 0.531926
873 4 0.360349 0.293016 0.526791
3354 4 0.00253707 0.351086 0.550804
1189 2 0.223069 0.381463 0.566935
1190 4 0.237424 0.377257 0.546899
803 4 0.245939 0.36964 0.530271
802 2 0.267717 0.360984 0.521554
804 4 0.289495 0.352329 0.512837
928 2 0.342117 0.365647 0.568371
929 4 0.343762 0.37201 0.544246
925 2 0.449114 0.378431 0.538155
927 4 0.465437 0.380316 0.557001
926 4 0.432791 0.376547 0.519309
3309 4 0.488174 0.396735 0.523626
539 4 0.0764019 0.469675 0.500801
538 2 0.0926661 0.488637 0.501839
1161 4 0.162446 0.468364 0.54367
1159 2 0.158395 0.462492 0.567634
1171 2 0.233915 0.443655 0.568165
1173 4 0.218179 0.461627 0.57555
1172 4 0.249651 0.425682 0.560779
882 4 0.335866 0.454189 0.50966
880 2 0.344807 0.476802 0.503838
881 4 0.353747 0.499415 0.498016
1952 4 0.344596 0.478847 0.579391
1911 4 0.437149 0.485422 0.553572
1000 2 0.434904 0.443859 0.576535
1001 4 0.456008 0.445951 0.563292
1332 4 0.480215 0.486461 0.496238
2319 4 0.0509764 0.993937 0.660806
1058 4 0.147963 0.0677282 0.582009
823 2 0.146535 0.0106356 0.652724
824 4 0.160843 0.997916 0.636641
1284 4 0.199145 0.0810519 0.639751
949 2 0.283417 0.0248745 0.593688
950 4 0.299482 0.032993 0.611043
1218 4 0.414966 0.0135522 0.589854
809 4 0.452815 0.0863415 0.602109
808 2 0.452323 0.0876439 0.627073
1082 4 0.053862 0.0905891 0.646911
1083 4 0.0218349 0.104915 0.611278
1081 2 0.0378485 0.097752 0.629094
1057 2 0.143016 0.0917869 0.586687
1059 4 0.138069 0.115846 0.591364
1153 2 0.159378 0.154023 0.593261
1155 4 0.146779 0.132686 0.596609
1283 4 0.193318 0.126392 0.619476
1282 2 0.196232 0.103722 0.629614
810 4 0.451831 0.0889463 0.652038
852 4 0.0323655 0.200181 0.669736
1272 4 0.102212 0.209871 0.587338
1270 2 0.124866 0.220042 0.590258
1271 4 0.147519 0.230214 0.593179
1154 4 0.171977 0.175359 0.589913
797 4 0.240206 0.221215 0.605281
1221 4 0.190413 0.182888 0.58497
1210 2 0.239049 0.17957 0.646447
1212 4 0.220114 0.177822 0.630211
1219 2 0.203156 0.189745 0.60536
1220 4 0.2159 0.196601 0.62575
796 2 0.225302 0.239618 0.613305
1211 4 0.257983 0.181317 0.662682
906 4 0.467041 0.257436 0.592406
904 2 0.480629 0.236563 0.594611
905 4 0.494217 0.21569 0.596816
1244 4 0.0526317 0.267165 0.60057
1243 2 0.0331342 0.270463 0.615872
1245 4 0.0136368 0.273761 0.631174
1136 4 0.110465 0.32828 0.596607
948 4 0.152352 0.284212 0.619702
798 4 0.210399 0.258022 0.621328
947 4 0.191365 0.254383 0.629132
946 2 0.171858 0.269297 0.624417
792 4 0.283882 0.296046 0.59466
790 2 0.291501 0.275122 0.583288
1238 4 0.300697 0.306752 0.596671
1237 2 0.312302 0.328696 0.599664
954 4 0.413293 0.281368 0.600445
952 2 0.434926 0.293321 0.596659
953 4 0.456559 0.305273 0.592872
984 4 0.03113 0.335813 0.584218
1040 4 0.0786877 0.392801 0.619042
1039 2 0.0538127 0.390336 0.618457
1041 4 0.0289378 0.387872 0.617872
3264 4 0.0103842 0.388358 0.613717
3262 2 0.00414931 0.371083 0.630685
993 4 0.0873829 0.410078 0.617145
1137 4 0.14555 0.361875 0.608487
897 4 0.147404 0.381798 0.60525
1135 2 0.128008 0.345078 0.602547
991 2 0.110416 0.40038 0.616377
992 4 0.133449 0.390681 0.615609
1191 4 0.208715 0.385668 0.586971
896 4 0.195768 0.373435 0.595674
895 2 0.171586 0.377616 0.600462
1239 4 0.323907 0.35064 0.602657
806 4 0.332353 0.33681 0.664324
1029 4 0.247823 0.382697 0.665105
930 4 0.340472 0.359285 0.592495
1204 2 0.40594 0.382874 0.644184
1206 4 0.386606 0.398726 0.644428
1205 4 0.425275 0.367022 0.64394
1160 4 0.154343 0.456619 0.591598
1187 4 0.20739 0.468154 0.591164
1186 2 0.213193 0.489442 0.602925
889 2 0.318773 0.462026 0.628595
891 4 0.294484 0.465559 0.633362
1002 4 0.413799 0.441767 0.589779
890 4 0.343063 0.458494 0.623827
1269 4 0.437377 0.451251 0.658378
1267 2 0.453127 0.470256 0.662372
1268 4 0.468877 0.48926 0.666366
944 4 0.05058 0.0716257 0.680661
943 2 0.0464006 0.0491531 0.690795
945 4 0.0422211 0.0266805 0.700928
1076 4 0.0544345 0.0834603 0.666386
825 4 0.132227 0.0233554 0.668807
1147 2 0.207683 0.0533511 0.72378
1149 4 0.220617 0.0320196 0.722092
1148 4 0.194748 0.0746826 0.725468
1004 4 0.373464 0.0619035 0.675683
1003 2 0.352701 0.0750364 0.680328
1163 4 0.467328 0.034543 0.696484
1162 2 0.488944 0.0423764 0.686657
42 3 0.435749 0.074779 0.698103
2320 2 0.486528 0.0192392 0.740206
2322 4 0.488431 0.0438725 0.744047
862 2 0.0460558 0.115077 0.740051
864 4 0.0537115 0.114731 0.716251
1075 2 0.0542924 0.103074 0.681893
1077 4 0.0541502 0.122687 0.697401
908 4 0.16252 0.1474 0.6975
1227 4 0.173437 0.138776 0.71254
1225 2 0.180122 0.115862 0.719987
1226 4 0.186807 0.0929481 0.727433
1005 4 0.331937 0.0881694 0.684972
829 2 0.323685 0.154281 0.724027
830 4 0.306473 0.156079 0.70598
831 4 0.340897 0.152482 0.742074
45 3 0.439596 0.0958486 0.667539
43 3 0.432116 0.1121 0.700669
41 1 0.443412 0.0948858 0.689971
1142 4 0.44714 0.168075 0.719902
44 3 0.466168 0.0965081 0.694207
3425 4 0.488875 0.147124 0.6894
851 4 0.0410884 0.184859 0.716532
850 2 0.036727 0.19252 0.693134
1107 4 0.05343 0.173734 0.729201
1178 4 0.00739646 0.2335 0.708252
1213 2 0.00507645 0.222758 0.749778
1105 2 0.0645785 0.168886 0.75105
1177 2 0.0278893 0.247632 0.705903
909 4 0.162547 0.191822 0.674534
907 2 0.162533 0.169611 0.686017
1207 2 0.124696 0.247934 0.677657
1208 4 0.104363 0.233511 0.679581
886 2 0.288064 0.181181 0.687872
888 4 0.266395 0.18924 0.67835
887 4 0.309734 0.173122 0.697395
1194 4 0.324582 0.186104 0.693577
976 2 0.293567 0.196375 0.744177
978 4 0.282438 0.179124 0.729902
1193 4 0.365151 0.201732 0.668865
1192 2 0.344866 0.193918 0.681221
1143 4 0.412888 0.192258 0.747155
1262 4 0.400801 0.240335 0.742154
1025 4 0.418684 0.201147 0.667293
1024 2 0.439825 0.200643 0.680634
1141 2 0.430014 0.180167 0.733529
1026 4 0.460967 0.200138 0.693975
1261 2 0.425135 0.234633 0.74145
1263 4 0.449469 0.22893 0.740747
1145 4 0.495716 0.201041 0.713173
1179 4 0.0483821 0.261763 0.703553
1209 4 0.14503 0.262357 0.675734
821 4 0.153973 0.296738 0.703866
820 2 0.174552 0.283943 0.710029
1065 4 0.234316 0.270974 0.694616
1063 2 0.247871 0.287305 0.681397
822 4 0.19513 0.271148 0.716192
1064 4 0.261425 0.303635 0.668177
807 4 0.317398 0.304005 0.698978
805 2 0.324875 0.320407 0.681651
3121 2 0.497856 0.265941 0.681886
3123 4 0.478108 0.281276 0.681678
892 2 0.0458643 0.365845 0.711441
893 4 0.0278302 0.350082 0.718616
894 4 0.0638984 0.381608 0.704266
1280 4 0.0598373 0.401631 0.699526
940 2 0.139804 0.375611 0.740039
941 4 0.160875 0.386393 0.73198
942 4 0.118733 0.364829 0.748098
815 4 0.100237 0.370539 0.747822
1067 4 0.179121 0.387773 0.740734
1028 4 0.200013 0.389443 0.678118
1066 2 0.18966 0.392303 0.718517
1068 4 0.200199 0.396834 0.696301
1027 2 0.223918 0.38607 0.671611
1981 2 0.0380845 0.475344 0.732578
1281 4 0.0640427 0.446856 0.720448
1279 2 0.06194 0.424244 0.709987
1983 4 0.0586502 0.461159 0.733587
1982 4 0.0175189 0.489529 0.731569
1139 4 0.268059 0.445178 0.736348
1138 2 0.280066 0.431787 0.718979
1140 4 0.292074 0.418396 0.70161
1987 2 0.321905 0.486456 0.729381
1988 4 0.31021 0.486693 0.751479
1228 2 0.359606 0.461623 0.692331
1229 4 0.346097 0.471202 0.711064
1230 4 0.373115 0.452044 0.673598
1989 4 0.3336 0.486219 0.707282
1100 4 0.415681 0.428406 0.69207
1099 2 0.428118 0.441068 0.709681
1101 4 0.440555 0.45373 0.727293
1250 4 0.466045 0.482326 0.754619
2168 4 0.483806 0.497244 0.677585
1201 2 0.121841 0.0633591 0.767451
1202 4 0.134574 0.0437433 0.758603
2049 4 0.128497 0.0319238 0.772628
2047 2 0.130027 0.00704483 0.770659
1203 4 0.109109 0.0829749 0.776299
1256 4 0.298831 0.0762786 0.800181
1050 4 0.322045 0.00794752 0.765206
1113 4 0.408171 0.0394324 0.811251
975 4 0.364303 0.021058 0.831545
1112 4 0.453415 0.0553635 0.797111
846 4 0.500527 0.0763408 0.750019
844 2 0.483211 0.0704997 0.767084
1111 2 0.430793 0.0473979 0.804181
845 4 0.465895 0.0646587 0.784149
911 4 0.06809 0.095707 0.801516
863 4 0.0384001 0.115423 0.763852
832 2 0.00775154 0.110302 0.789869
833 4 0.0312936 0.112204 0.781663
910 2 0.075084 0.0935845 0.825427
1106 4 0.075727 0.164038 0.772899
34 3 0.115902 0.144184 0.819657
31 1 0.123032 0.164533 0.82823
839 4 0.221947 0.123965 0.819124
1255 2 0.278213 0.0855728 0.789517
1257 4 0.257596 0.094867 0.778854
1086 4 0.333782 0.136858 0.781359
1084 2 0.335903 0.12836 0.804778
1085 4 0.338024 0.119862 0.828197
819 4 0.354089 0.107935 0.831048
1214 4 0.0110994 0.217619 0.773495
33 3 0.124211 0.180306 0.811252
1073 4 0.109613 0.217898 0.760089
1072 2 0.123571 0.233149 0.774151
1074 4 0.137529 0.2484 0.788213
1130 4 0.167303 0.192065 0.748917