ITEM: TIMESTEP
2530000
ITEM: NUMBER OF ATOMS
4590
ITEM: BOX BOUNDS pp pp pp
-9.9985700000000008e+00 9.9985700000000008e+00
-9.9985700000000008e+00 9.9985700000000008e+00
-9.9985700000000008e+00 9.9985700000000008e+00
ITEM: ATOMS id type xs ys zs
1666 2 0.0044645 0.0659485 0.0621213
1668 4 0.996102 0.0437185 0.069936
491 4 0.299015 0.0531261 0.0753101
2974 2 0.465312 0.00963394 0.0198976
745 2 0.44223 0.0687615 0.0114629
747 4 0.44617 0.044084 0.0122871
2975 4 0.452568 0.0265755 0.00664047
986 4 0.434101 0.0316386 0.00265546
1667 4 0.0128271 0.0881786 0.0543066
701 4 0.0224585 0.103047 0.0627173
700 2 0.0399149 0.118626 0.0715343
702 4 0.0573714 0.134206 0.0803514
566 4 0.215701 0.153514 0.0601153
565 2 0.225377 0.158177 0.0375364
567 4 0.235053 0.162841 0.0149576
297 4 0.344533 0.114266 0.0357806
295 2 0.355753 0.117376 0.0136529
558 4 0.433557 0.110637 0.00245138
746 4 0.43829 0.0934389 0.0106387
738 4 0.257538 0.203491 0.0763362
573 4 0.251831 0.243308 0.0503323
770 4 0.392635 0.177864 0.0243745
359 4 0.377583 0.189376 0.028925
664 2 0.39374 0.208469 0.0570853
665 4 0.393473 0.189814 0.0404391
666 4 0.394007 0.227124 0.0737315
323 4 0.403792 0.243795 0.0728213
358 2 0.357204 0.196107 0.016097
769 2 0.410062 0.172203 0.00736172
360 4 0.336824 0.202838 0.00326896
623 4 0.384261 0.244215 0.0739606
292 2 0.140295 0.319647 0.047322
293 4 0.160871 0.326736 0.0596326
294 4 0.119719 0.312557 0.0350114
552 4 0.160851 0.333612 0.0787696
507 4 0.17308 0.322784 0.0687736
287 4 0.177895 0.328535 0.0508669
286 2 0.191576 0.323596 0.0305295
505 2 0.18499 0.305645 0.0825432
481 2 0.223307 0.26238 0.0763475
482 4 0.244133 0.252041 0.0671511
288 4 0.205257 0.318657 0.0101921
483 4 0.202482 0.272718 0.0855439
571 2 0.268956 0.255489 0.036784
572 4 0.28608 0.267671 0.0232357
357 4 0.301407 0.263655 0.0109435
355 2 0.314756 0.284282 0.0063063
956 4 0.330664 0.321984 0.00998909
1069 2 0.401908 0.311202 0.0319871
955 2 0.349175 0.328199 0.0256059
957 4 0.367687 0.334414 0.0412227
1071 4 0.386036 0.330303 0.0348902
322 2 0.412285 0.26019 0.0559616
324 4 0.420777 0.276585 0.0391019
1070 4 0.41778 0.292102 0.0290839
280 2 0.450587 0.301227 0.0510915
282 4 0.435599 0.288948 0.0352886
281 4 0.465576 0.313506 0.0668945
454 2 0.169604 0.365575 0.0582028
456 4 0.167439 0.389524 0.0513512
455 4 0.171768 0.341626 0.0650544
1290 4 0.273547 0.392406 0.0311177
250 2 0.264961 0.395244 0.063352
1288 2 0.275218 0.376749 0.0116948
251 4 0.262575 0.407565 0.0417264
741 4 0.381402 0.331663 0.0533961
739 2 0.387584 0.339303 0.0763868
1788 4 0.0943768 0.459749 0.0444725
1786 2 0.101396 0.483746 0.0443153
626 4 0.197121 0.474059 0.0637705
625 2 0.184329 0.494997 0.0685779
245 4 0.200851 0.456379 0.0562167
244 2 0.223007 0.444925 0.0544484
246 4 0.245162 0.433472 0.05268
272 4 0.249089 0.421008 0.036642
271 2 0.262348 0.433186 0.01929
1672 2 0.401116 0.434946 0.0659951
853 2 0.393111 0.443594 0.01168
1674 4 0.41418 0.440535 0.0454213
854 4 0.408142 0.450758 0.0303335
564 4 0.427576 0.450957 0.0361005
563 4 0.476798 0.446147 0.0286956
562 2 0.452187 0.448552 0.032398
228 4 0.49099 0.459996 0.0323629
226 2 0.50136 0.47626 0.0482721
19 3 0.0540937 0.0459643 0.150097
18 3 0.053144 0.00876544 0.142367
16 1 0.0566637 0.0246531 0.158908
490 2 0.287502 0.0413251 0.0941078
1475 4 0.27341 0.0118276 0.121106
492 4 0.275989 0.0295241 0.112906
581 4 0.267175 0.0400054 0.161089
580 2 0.253747 0.0610955 0.160831
486 4 0.398204 0.0243904 0.0965102
484 2 0.404202 0.0420902 0.113121
485 4 0.4102 0.0597901 0.129732
2722 2 0.459958 0.0613121 0.154523
2724 4 0.471099 0.0405056 0.146267
1759 2 0.500813 0.0249694 0.121269
1760 4 0.488134 0.02972 0.142289
2744 4 0.479191 0.0290393 0.158881
476 4 0.0698025 0.138395 0.0948276
475 2 0.0729775 0.154957 0.113289
582 4 0.240319 0.0821855 0.160573
737 4 0.222226 0.176893 0.0997099
237 4 0.226824 0.0940343 0.151453
235 2 0.203981 0.100456 0.159335
628 2 0.390877 0.149197 0.152418
629 4 0.391977 0.126772 0.163421
2723 4 0.448818 0.0821186 0.162779
477 4 0.0761524 0.171518 0.13175
339 4 0.0290935 0.205187 0.1769
736 2 0.239882 0.190192 0.088023
460 2 0.316582 0.223302 0.116278
461 4 0.292693 0.216966 0.112485
354 4 0.277487 0.215243 0.124488
352 2 0.268563 0.228789 0.143516
353 4 0.259639 0.242334 0.162544
630 4 0.389776 0.171622 0.141415
254 4 0.38373 0.189468 0.149181
462 4 0.34047 0.229637 0.12007
255 4 0.357247 0.226073 0.127745
253 2 0.370489 0.207771 0.138463
765 4 0.351527 0.243363 0.132174
624 4 0.354546 0.240374 0.113997
622 2 0.369404 0.242294 0.093979
506 4 0.1969 0.288507 0.0963128
537 4 0.183761 0.292242 0.110765
535 2 0.17609 0.29041 0.134493
536 4 0.168419 0.288579 0.15822
301 2 0.321801 0.312336 0.141173
302 4 0.323731 0.327882 0.121685
303 4 0.319871 0.296789 0.160661
763 2 0.342119 0.262584 0.145106
12 3 0.413206 0.327343 0.124373
764 4 0.332712 0.281805 0.158038
671 4 0.458895 0.326744 0.080443
527 4 0.476203 0.319099 0.0817276
647 4 0.0530753 0.344957 0.156212
550 2 0.144924 0.339261 0.0971979
551 4 0.128997 0.34491 0.115626
289 2 0.216822 0.393106 0.146039
290 4 0.240131 0.398056 0.138465
291 4 0.193513 0.388156 0.153612
387 4 0.327255 0.347776 0.114304
252 4 0.267347 0.382922 0.0849775
609 4 0.283225 0.385877 0.0946989
607 2 0.300591 0.399242 0.106738
385 2 0.351637 0.351973 0.110689
493 2 0.38608 0.388427 0.0986232
495 4 0.390335 0.364542 0.104673
386 4 0.37602 0.35617 0.107073
15 3 0.379824 0.343002 0.118596
740 4 0.393767 0.346944 0.0993775
14 3 0.411139 0.361594 0.109035
11 1 0.401463 0.347123 0.124378
13 3 0.402353 0.35637 0.145641
494 4 0.381824 0.412311 0.0925736
672 4 0.417756 0.341674 0.104637
670 2 0.438326 0.334209 0.0925401
1791 4 0.0715343 0.495932 0.10218
1466 4 0.0869498 0.484694 0.109377
1465 2 0.0820336 0.463883 0.096419
1467 4 0.0771175 0.443072 0.0834609
637 2 0.217675 0.502875 0.135632
638 4 0.237424 0.488779 0.14167
766 2 0.238617 0.444577 0.141318
768 4 0.235504 0.419823 0.14296
767 4 0.241731 0.469332 0.139676
608 4 0.317958 0.412608 0.118778
659 4 0.324053 0.429559 0.111559
660 4 0.369759 0.428231 0.0913138
1673 4 0.388053 0.429357 0.086569
658 2 0.346906 0.428895 0.101437
1559 4 0.394561 0.500881 0.135496
524 4 0.390276 0.483226 0.127352
523 2 0.386229 0.463464 0.112578
525 4 0.382182 0.443702 0.0978038
596 4 0.500925 0.457913 0.164683
595 2 0.481445 0.444017 0.171938
1422 4 0.0201431 0.00562521 0.199537
17 3 0.0411307 0.0215821 0.175594
2480 4 0.0318981 0.0195391 0.189413
2479 2 0.023915 0.040151 0.2011
20 3 0.0775801 0.0223115 0.167607
578 4 0.0744744 0.0447822 0.162237
380 4 0.0176301 0.0762529 0.200167
577 2 0.0916288 0.0616501 0.169047
689 4 0.156586 0.00614404 0.223251
674 4 0.139291 0.0175499 0.220949
673 2 0.119144 0.00620273 0.230463
579 4 0.108783 0.078518 0.175857
1504 2 0.230879 0.00631331 0.186826
688 2 0.177187 0.995852 0.213513
1506 4 0.24681 0.0228226 0.176885
654 4 0.264842 0.0312869 0.178346
652 2 0.285428 0.0170966 0.178245
653 4 0.306015 0.00290623 0.178145
693 4 0.250382 0.0704782 0.24676
758 4 0.339298 0.0751689 0.196278
759 4 0.345074 0.0648093 0.244858
757 2 0.342186 0.0699891 0.220568
311 4 0.358444 0.0808788 0.19521
25 3 0.32767 0.0506056 0.252318
350 4 0.364038 0.0721968 0.24851
349 2 0.388934 0.0700043 0.24926
480 4 0.425586 0.0512409 0.250658
379 2 0.0299552 0.0919005 0.185054
511 2 0.0574561 0.142508 0.180445
512 4 0.0451505 0.121144 0.184606
381 4 0.0422803 0.107548 0.16994
513 4 0.0697617 0.163872 0.176284
450 4 0.115087 0.0949714 0.18691
448 2 0.13907 0.0973726 0.18026
449 4 0.163053 0.0997738 0.17361
236 4 0.181138 0.106878 0.167216
28 3 0.309908 0.13969 0.23224
26 1 0.318891 0.154261 0.247905
312 4 0.376178 0.115576 0.163868
310 2 0.367311 0.0982275 0.179539
521 4 0.485039 0.139065 0.212506
762 4 0.476205 0.129545 0.226478
760 2 0.45405 0.136678 0.235612
761 4 0.431894 0.14381 0.244746
393 4 0.0859977 0.176284 0.180574
337 2 0.0339468 0.228438 0.184713
391 2 0.0870758 0.200676 0.185965
392 4 0.0881539 0.225068 0.191356
546 4 0.116604 0.211128 0.258528
27 3 0.331671 0.169964 0.236984
279 4 0.259805 0.227281 0.219861
277 2 0.257593 0.239426 0.198117
394 2 0.0194404 0.263711 0.241883
395 4 0.0397721 0.265357 0.227423
338 4 0.0388001 0.251688 0.192526
363 4 0.0421368 0.264682 0.207766
361 2 0.0513644 0.287774 0.205156
749 4 0.0516528 0.321843 0.215233
648 4 0.066175 0.326225 0.200689
362 4 0.0605921 0.310865 0.202545
372 4 0.081123 0.315712 0.198526
370 2 0.101956 0.317216 0.21227
371 4 0.122789 0.318721 0.226014
734 4 0.131244 0.331289 0.236976
733 2 0.153529 0.325345 0.246631
755 4 0.242191 0.254435 0.163857
754 2 0.23713 0.278874 0.165365
756 4 0.232069 0.303314 0.166874
611 4 0.241636 0.326775 0.226709
610 2 0.241049 0.3225 0.202081
612 4 0.240462 0.318225 0.177453
344 4 0.225514 0.315852 0.234503
278 4 0.255381 0.25157 0.176373
284 4 0.272624 0.256446 0.17061
283 2 0.293274 0.270521 0.169795
285 4 0.313923 0.284597 0.168981
308 4 0.330577 0.290477 0.174424
729 4 0.312438 0.301236 0.177032
727 2 0.299505 0.317553 0.190876
307 2 0.344672 0.286539 0.194698
309 4 0.358767 0.282602 0.214971
498 4 0.353896 0.29269 0.231847
748 2 0.0563707 0.336592 0.234864
646 2 0.0596252 0.335591 0.178451
416 4 0.199683 0.386788 0.172087
417 4 0.170803 0.390373 0.212754
415 2 0.185243 0.38858 0.19242
728 4 0.286572 0.33387 0.204721
446 4 0.37388 0.373282 0.249672
445 2 0.394349 0.381956 0.238228
447 4 0.414818 0.39063 0.226785
644 4 0.434638 0.390844 0.226834
643 2 0.447291 0.405717 0.211218
1757 4 0.03645 0.447194 0.251343
1756 2 0.0533709 0.465514 0.253134
414 4 0.247613 0.468943 0.197268
412 2 0.241504 0.465912 0.221323
413 4 0.235395 0.462881 0.245379
645 4 0.459944 0.420591 0.195602
597 4 0.461966 0.430122 0.179193
229 2 0.470722 0.490441 0.220782
231 4 0.480745 0.4723 0.206796
2755 2 0.0082438 0.0757491 0.311258
234 4 0.015049 0.0369033 0.295096
232 2 0.0393645 0.031649 0.297611
233 4 0.06368 0.0263948 0.300127
2756 4 0.00910131 0.0549349 0.29743
2478 4 0.00521383 0.0477361 0.280639
317 4 0.0766333 0.0352961 0.31254
1404 4 0.0821021 0.0221032 0.300612
428 4 0.0907057 0.0208742 0.317444
316 2 0.08768 0.057584 0.310011
1402 2 0.0876706 0.0100019 0.279453
318 4 0.0987268 0.079872 0.307482
691 2 0.268199 0.0744283 0.263851
24 3 0.32467 0.0687763 0.285158
21 1 0.33889 0.0570558 0.271057
23 3 0.347346 0.0384381 0.282024
22 3 0.356382 0.0707472 0.265079
351 4 0.41383 0.0678118 0.250011
479 4 0.454918 0.0308571 0.285655
478 2 0.440252 0.041049 0.268156
2664 4 0.470554 0.0191631 0.290427
1428 4 0.452593 0.0149126 0.291647
258 4 0.444714 0.0275284 0.302839
2662 2 0.494174 0.0248239 0.28449
256 2 0.441326 0.0417472 0.323125
2757 4 0.00738629 0.0965633 0.325086
732 4 0.10628 0.0896971 0.321593
399 4 0.0882499 0.0943913 0.316779
721 2 0.269118 0.104516 0.313481
692 4 0.286016 0.0783784 0.280943
723 4 0.277994 0.0904285 0.294828
722 4 0.260241 0.118603 0.332134
29 3 0.332395 0.142601 0.262741
632 4 0.361035 0.0867677 0.252215
631 2 0.354286 0.109585 0.259897
707 4 0.346177 0.143615 0.277932
633 4 0.347538 0.132403 0.267578
706 2 0.351523 0.154799 0.299646
708 4 0.356868 0.165983 0.321361
321 4 0.355266 0.150406 0.335254
544 2 0.1377 0.223391 0.253076
545 4 0.158796 0.235655 0.247623
402 4 0.167769 0.248595 0.259806
405 4 0.225725 0.17079 0.331421
30 3 0.302162 0.164768 0.259235
419 4 0.411789 0.239349 0.324249
269 4 0.401815 0.224105 0.334184
375 4 0.155085 0.315555 0.340462
678 4 0.163616 0.321234 0.324431
343 2 0.207026 0.31327 0.251137
400 2 0.175766 0.271149 0.267057
401 4 0.183762 0.293702 0.274307
676 2 0.169051 0.317003 0.300395
345 4 0.188537 0.310689 0.267772
677 4 0.174486 0.312773 0.276358
735 4 0.175814 0.319401 0.256287
378 4 0.295953 0.270974 0.32145
376 2 0.307782 0.285601 0.304978
497 4 0.320247 0.29359 0.268829
377 4 0.31961 0.300227 0.288506
496 2 0.337071 0.29314 0.250338
541 2 0.377671 0.304107 0.297543
542 4 0.400781 0.297365 0.304297
420 4 0.412051 0.2826 0.299148
543 4 0.35456 0.310849 0.290788
418 2 0.41192 0.260974 0.311698
615 4 0.342692 0.325192 0.28319
364 2 0.00262444 0.383641 0.293132
365 4 0.0262086 0.391926 0.292559
601 2 0.0512977 0.383867 0.32736
603 4 0.0328253 0.382963 0.310534
750 4 0.0610886 0.351342 0.254495
300 4 0.0799665 0.35192 0.263007
299 4 0.128363 0.344233 0.253039
298 2 0.104165 0.348076 0.258023
508 2 0.191523 0.355019 0.333354
509 4 0.207975 0.373123 0.338525
434 4 0.318184 0.381006 0.313693
614 4 0.332181 0.369209 0.304467
433 2 0.309411 0.403168 0.321246
613 2 0.337437 0.3472 0.293829
1758 4 0.0702918 0.483835 0.254926
264 4 0.0212299 0.434662 0.248293
776 4 0.0710324 0.489761 0.335118
775 2 0.0726383 0.496929 0.311218
1775 4 0.0728279 0.497708 0.268664
777 4 0.0742442 0.504097 0.287318
1436 4 0.224666 0.445524 0.249459
1435 2 0.232129 0.4432 0.27321
1437 4 0.239591 0.440876 0.29696
5 3 0.255243 0.454603 0.327981
4 3 0.259328 0.439363 0.293794
3 3 0.280375 0.469285 0.304096
1 1 0.270165 0.449794 0.311462
436 2 0.321053 0.460148 0.316019
438 4 0.296813 0.454699 0.313201
1801 2 0.360702 0.50205 0.31007
1802 4 0.355459 0.481157 0.322765
119 3 0.484889 0.469091 0.324428
429 4 0.108939 0.992566 0.354416
427 2 0.0998224 0.00671998 0.33593
1781 4 0.106916 0.00723129 0.415847
441 4 0.340924 0.0032889 0.405579
699 4 0.374769 0.0599246 0.373448
1699 2 0.355838 0.027648 0.385554
1700 4 0.355913 0.0512246 0.377228
697 2 0.397468 0.0598699 0.362965
698 4 0.420168 0.0598152 0.352482
257 4 0.437939 0.0559661 0.343411
397 2 0.0738803 0.10701 0.332887
398 4 0.0595106 0.119628 0.348995
2584 2 0.0218873 0.119507 0.347086
2586 4 0.0437494 0.125711 0.357514
458 4 0.0355586 0.139983 0.370468
457 2 0.0328063 0.145816 0.394625
606 4 0.166821 0.0866086 0.323456
731 4 0.153702 0.0911957 0.337391
730 2 0.129991 0.0904464 0.329492
600 4 0.08751 0.158807 0.348148
604 2 0.18545 0.0810089 0.339165
605 4 0.204079 0.0754093 0.354874
248 4 0.214268 0.0874312 0.366778
247 2 0.233588 0.100631 0.357964
403 2 0.240299 0.151516 0.337845
249 4 0.252908 0.11383 0.34915
404 4 0.254874 0.132242 0.34427
683 4 0.262267 0.124326 0.362
682 2 0.285223 0.126238 0.371724
684 4 0.308178 0.12815 0.381448
320 4 0.319144 0.138332 0.367661
319 2 0.337205 0.144369 0.351457
725 4 0.381911 0.0992371 0.426552
724 2 0.385637 0.121643 0.416099
726 4 0.389364 0.144049 0.405647
467 4 0.395819 0.16221 0.41428
598 2 0.0999237 0.174819 0.362801
599 4 0.112337 0.190831 0.377453
389 4 0.128049 0.220627 0.378581
686 4 0.119499 0.205007 0.387989
685 2 0.10562 0.207222 0.408669
275 4 0.12888 0.202672 0.373835
274 2 0.15315 0.196664 0.374092
388 2 0.121622 0.244014 0.372506
473 4 0.209394 0.170556 0.319475
474 4 0.179501 0.1883 0.355423
472 2 0.194447 0.179428 0.337449
276 4 0.17742 0.190657 0.374349
717 4 0.400736 0.16767 0.353507
715 2 0.397959 0.173274 0.377715
716 4 0.395181 0.178877 0.401924
270 4 0.445128 0.201275 0.344359
452 4 0.454175 0.21108 0.359427
268 2 0.423472 0.21269 0.339272
451 2 0.45917 0.217729 0.383008
453 4 0.464164 0.224378 0.406588
347 4 0.0637923 0.321973 0.401932
346 2 0.042686 0.309925 0.407809
348 4 0.0215796 0.297876 0.413685
618 4 0.0685609 0.30671 0.390308
616 2 0.0890506 0.295359 0.381561
390 4 0.115195 0.267401 0.36643
617 4 0.10954 0.284008 0.372814
374 4 0.122229 0.28174 0.35713
373 2 0.138657 0.298648 0.348796
549 4 0.066969 0.4033 0.351054
602 4 0.0697702 0.384771 0.344186
547 2 0.0693566 0.413954 0.373548
510 4 0.17507 0.336915 0.328183
334 2 0.32005 0.373364 0.413864
238 2 0.368857 0.382192 0.374832
239 4 0.383648 0.392515 0.357517
587 4 0.390418 0.408891 0.366275
335 4 0.340087 0.362841 0.403234
240 4 0.354066 0.371869 0.392148
752 4 0.471514 0.402126 0.38871
561 4 0.471324 0.388882 0.405307
751 2 0.479982 0.420394 0.373886
500 4 0.0695349 0.488974 0.35533
499 2 0.0756463 0.467199 0.365993
548 4 0.0717441 0.424609 0.396041
407 4 0.0825888 0.441524 0.39567
501 4 0.0817578 0.445425 0.376656
406 2 0.101265 0.447337 0.411244
435 4 0.300638 0.42533 0.3288
636 4 0.297375 0.4987 0.401238
2 3 0.286289 0.435613 0.319711
1557 4 0.278346 0.504147 0.399902
1555 2 0.257921 0.491565 0.392853
437 4 0.345292 0.465597 0.318838
586 2 0.398996 0.432308 0.368075
593 4 0.390306 0.468908 0.368051
588 4 0.407573 0.455726 0.369874
592 2 0.40547 0.487353 0.360632
118 3 0.499399 0.437179 0.339108
712 2 0.457479 0.493873 0.343956
714 4 0.477202 0.478542 0.342881
753 4 0.488449 0.438663 0.359062
117 3 0.480872 0.461462 0.361011
116 1 0.495077 0.45964 0.34301
2237 4 0.00514731 0.00175835 0.462216
369 4 0.0769149 0.00494677 0.46504
367 2 0.0909749 0.0146878 0.446802
368 4 0.105035 0.0244289 0.428564
962 4 0.337594 0.0168571 0.417938
961 2 0.330005 0.0336918 0.434796
963 4 0.322417 0.0505264 0.451654
432 4 0.325433 0.0669645 0.464061
430 2 0.337193 0.0613598 0.485403
1216 2 0.418738 0.0477534 0.494737
1218 4 0.422161 0.0619113 0.474414
459 4 0.030054 0.151649 0.418783
640 2 0.483253 0.0967086 0.427832
641 4 0.459213 0.0996543 0.434043
260 4 0.0426548 0.166807 0.419269
259 2 0.0614775 0.180999 0.427604
1033 2 0.0794904 0.235755 0.450802
261 4 0.0803002 0.195191 0.435939
1035 4 0.075528 0.214329 0.438537
687 4 0.0917412 0.209438 0.429348
696 4 0.0971687 0.262156 0.476045
488 4 0.322715 0.232501 0.426911
487 2 0.340539 0.240793 0.442361
466 2 0.40386 0.178049 0.431877
468 4 0.4119 0.193888 0.449474
411 4 0.371671 0.239266 0.46884
409 2 0.39109 0.224158 0.464385
410 4 0.410509 0.209051 0.45993
489 4 0.358364 0.249086 0.45781
575 4 0.419803 0.206324 0.475888
516 4 0.426786 0.207155 0.456667
574 2 0.437431 0.195955 0.490273
514 2 0.440769 0.218835 0.439543
515 4 0.454753 0.230514 0.42242
2847 4 0.00440306 0.309842 0.441256
2802 4 0.00356341 0.307361 0.420949
1034 4 0.0834527 0.25718 0.463067
1260 4 0.0967857 0.270522 0.458698
1258 2 0.108684 0.292509 0.459154
1259 4 0.120583 0.314495 0.45961
9 3 0.138549 0.318531 0.442723
7 3 0.12459 0.325804 0.476853
6 1 0.135342 0.335023 0.458727
327 4 0.108492 0.334601 0.462474
266 4 0.362031 0.253869 0.476658
265 2 0.367541 0.275218 0.488448
267 4 0.373052 0.296568 0.500239
1011 4 0.466049 0.332711 0.495597
1009 2 0.466564 0.308805 0.502904
3308 4 0.484025 0.331804 0.489137
2455 2 0.490257 0.249868 0.504739
2457 4 0.478822 0.271867 0.501503
326 4 0.0626469 0.345972 0.478896
325 2 0.0855694 0.340286 0.470685
8 3 0.155829 0.343442 0.465642
10 3 0.122545 0.351794 0.450147
336 4 0.300014 0.383887 0.424493
668 4 0.299585 0.403503 0.423221
560 4 0.491634 0.374197 0.44858
559 2 0.481479 0.381539 0.426944
3307 2 0.490703 0.353105 0.477874
1383 4 0.995826 0.46799 0.472579
1381 2 0.00856426 0.489451 0.471039
382 2 0.123645 0.443796 0.46695
408 4 0.119942 0.45315 0.426819
384 4 0.126753 0.431863 0.488701
711 4 0.141486 0.420138 0.484182
568 2 0.15548 0.471978 0.430226
383 4 0.120536 0.45573 0.445199
569 4 0.137714 0.455467 0.436303
1545 4 0.191176 0.490242 0.429389
570 4 0.173246 0.488488 0.42415
635 4 0.321043 0.466097 0.430862
774 4 0.331891 0.454483 0.440332
634 2 0.309209 0.482399 0.41605
669 4 0.311469 0.450734 0.434566
667 2 0.305527 0.427119 0.428893
772 2 0.340606 0.455366 0.463751
773 4 0.349321 0.45625 0.48717
663 4 0.472156 0.478342 0.455758
341 4 0.161596 0.0172463 0.517605
1058 4 0.0826489 0.101487 0.514246
1152 4 0.192662 0.0554246 0.534741
342 4 0.189811 0.0584695 0.515307
340 2 0.175703 0.0378579 0.516456
1150 2 0.205764 0.0733064 0.546306
2430 4 0.164891 0.00208285 0.531587
1031 4 0.280145 0.0658155 0.57352
1030 2 0.257938 0.072629 0.564267
431 4 0.348953 0.0557552 0.506745
842 4 0.399662 0.0391467 0.526459
841 2 0.374856 0.042255 0.526016
843 4 0.35005 0.0453633 0.525574
1217 4 0.415315 0.0335955 0.515059
3007 2 0.497893 0.0325324 0.574507
3009 4 0.500034 0.0420252 0.551475
1272 4 0.0817454 0.164511 0.580028
1270 2 0.0916804 0.141686 0.577681
1271 4 0.101615 0.118861 0.575334
1057 2 0.093362 0.106142 0.536353
1059 4 0.104075 0.110798 0.558461
1155 4 0.119814 0.117049 0.569807
939 4 0.110915 0.100293 0.572112
1153 2 0.144585 0.119147 0.572489
1154 4 0.169355 0.121246 0.575172
1151 4 0.218866 0.0911882 0.557872
1180 2 0.218778 0.126295 0.553157
1181 4 0.221146 0.103724 0.542665
1182 4 0.21641 0.148867 0.56365
900 4 0.220723 0.162696 0.579269
1032 4 0.235732 0.0794425 0.555013
1198 2 0.00431569 0.227613 0.567307
1199 4 0.0258126 0.223059 0.579237
694 2 0.0961249 0.25556 0.50014
898 2 0.239436 0.178416 0.573987
651 4 0.232286 0.226817 0.513138
858 4 0.221615 0.242101 0.518604
649 2 0.241775 0.213806 0.532266
899 4 0.258149 0.194136 0.568706
650 4 0.251264 0.200795 0.551393
576 4 0.455059 0.185587 0.504658
695 4 0.0950812 0.248965 0.524236
948 4 0.152031 0.303043 0.577925
856 2 0.210035 0.259165 0.532742
857 4 0.198456 0.27623 0.546881
947 4 0.190548 0.274012 0.564717
946 2 0.171289 0.288528 0.571321
798 4 0.203837 0.268051 0.577553
1010 4 0.467079 0.284898 0.51021
953 4 0.495964 0.300448 0.614526
502 2 0.198282 0.402226 0.53062
503 4 0.216996 0.386095 0.52678
504 4 0.179568 0.418357 0.534461
803 4 0.26613 0.363109 0.569345
804 4 0.255345 0.367162 0.520683
802 2 0.260738 0.365136 0.545014
1190 4 0.259117 0.355872 0.586183
1238 4 0.275092 0.353278 0.582793
882 4 0.367629 0.366534 0.500625
929 4 0.373377 0.381417 0.565012
881 4 0.369491 0.367842 0.550581
880 2 0.36856 0.367188 0.525603
926 4 0.424261 0.407152 0.590662
539 4 0.117606 0.428199 0.574191
540 4 0.112097 0.477582 0.568558
2244 4 0.109753 0.496442 0.577604
538 2 0.114851 0.452891 0.571375
1160 4 0.126526 0.489689 0.571676
1159 2 0.145326 0.4964 0.586733
709 2 0.150959 0.420311 0.507321
710 4 0.160431 0.420483 0.53046
1909 2 0.436943 0.4894 0.569805
1910 4 0.427121 0.506167 0.554071
1081 2 0.0759908 0.0754854 0.636698
1083 4 0.0746016 0.076671 0.611761
1126 2 0.0365731 0.0814176 0.591449
1127 4 0.0596484 0.0800312 0.600977
1128 4 0.0134977 0.082804 0.581921
1082 4 0.07738 0.0742997 0.661635
938 4 0.0953988 0.075408 0.612617
951 4 0.289211 0.0527998 0.584206
949 2 0.284712 0.0452632 0.607618
950 4 0.280214 0.0377266 0.631031
3008 4 0.495753 0.0230397 0.597539
809 4 0.482351 0.0242488 0.612946
808 2 0.471267 0.037496 0.631024
810 4 0.460183 0.0507433 0.649103
45 3 0.457285 0.0773813 0.647477
3477 4 0.000429258 0.0910318 0.594802
937 2 0.103157 0.0878506 0.592364
1221 4 0.170338 0.137645 0.586666
1219 2 0.185703 0.151597 0.60061
1211 4 0.238281 0.150466 0.66317
1210 2 0.228755 0.159975 0.642098
1192 2 0.336129 0.150794 0.643234
1193 4 0.346237 0.160538 0.622544
3424 2 0.492206 0.0993931 0.656708
3425 4 0.471607 0.0872887 0.66408
878 4 0.0375354 0.210898 0.589683
877 2 0.053944 0.192242 0.592493
1244 4 0.0451212 0.222314 0.604191
879 4 0.0703526 0.173587 0.595303
1243 2 0.0392975 0.246455 0.607105
1220 4 0.201067 0.165549 0.614554
1212 4 0.219229 0.169485 0.621027
983 4 0.0306255 0.290549 0.614869
1245 4 0.0334739 0.270596 0.610018
3263 4 0.0434254 0.312257 0.66943
982 2 0.0128665 0.29558 0.598002
1135 2 0.161746 0.318284 0.61634
822 4 0.157811 0.330077 0.652526
1136 4 0.1587 0.302404 0.597268
820 2 0.148617 0.314145 0.669462
796 2 0.226074 0.269787 0.588852
797 4 0.248312 0.271522 0.60015
791 4 0.255202 0.289686 0.598213
790 2 0.261233 0.313008 0.591511
872 4 0.324249 0.281236 0.621479
871 2 0.33987 0.300038 0.616221
813 4 0.375701 0.323686 0.612217
873 4 0.355491 0.318839 0.610962
3123 4 0.493853 0.246689 0.634938
954 4 0.455019 0.271978 0.610832
952 2 0.475491 0.286213 0.612679
3239 4 0.00245636 0.40374 0.644279
1041 4 0.0569235 0.364522 0.640224
3264 4 0.0399234 0.353304 0.641082
3240 4 0.040367 0.372127 0.636274
3238 2 0.0214117 0.387933 0.640276
1039 2 0.079975 0.369191 0.631738
3262 2 0.0416744 0.33278 0.655256
1040 4 0.103027 0.37386 0.623252
993 4 0.115856 0.373785 0.639266
991 2 0.137307 0.361066 0.641077
992 4 0.158757 0.348348 0.642888
1064 4 0.171933 0.342621 0.652248
1137 4 0.164791 0.334164 0.635412
897 4 0.178457 0.347624 0.635567
1189 2 0.239673 0.367274 0.597005
896 4 0.202124 0.376182 0.602027
895 2 0.19029 0.361903 0.618797
1172 4 0.208936 0.393681 0.610717
1191 4 0.22023 0.378676 0.607827
1171 2 0.21128 0.418377 0.607594
792 4 0.267263 0.336329 0.58481
1239 4 0.320641 0.371331 0.592795
1237 2 0.297866 0.362305 0.587794
930 4 0.33895 0.375599 0.600812
928 2 0.356163 0.378508 0.582912
811 2 0.381602 0.345798 0.622286
1204 2 0.400001 0.383018 0.657888
1206 4 0.402798 0.382402 0.633049
927 4 0.393318 0.378295 0.617318
812 4 0.387503 0.367911 0.632355
925 2 0.40879 0.392724 0.60399
1161 4 0.164125 0.503111 0.60179
1188 4 0.179622 0.490238 0.59972
1186 2 0.199898 0.476596 0.605008
1173 4 0.213624 0.443074 0.604471
1187 4 0.220173 0.462953 0.610295
1002 4 0.425788 0.423457 0.601539
1911 4 0.446766 0.472633 0.585539
1001 4 0.458228 0.461244 0.597008
1000 2 0.442008 0.44235 0.599274
1269 4 0.457423 0.479784 0.600697
1267 2 0.462762 0.490303 0.622743
1101 4 0.453106 0.495736 0.655921
1268 4 0.468102 0.500822 0.644789
943 2 0.0477106 0.0320773 0.661362
1076 4 0.0616253 0.063501 0.670629
1075 2 0.0666611 0.077048 0.691032
945 4 0.0345736 0.0127031 0.67015
944 4 0.0608475 0.0514515 0.652573
824 4 0.186254 0.0131711 0.667172
1283 4 0.187281 0.0679335 0.69586
825 4 0.19092 0.0488889 0.701858
823 2 0.188587 0.03103 0.684515
1147 2 0.236493 0.0639129 0.702514
1149 4 0.223414 0.0622851 0.723762
1092 4 0.307412 0.992491 0.681221
1003 2 0.324543 0.0614798 0.718344
1004 4 0.32422 0.0397815 0.730764
2321 4 0.497213 0.0297513 0.739191
41 1 0.450994 0.0694423 0.667875
43 3 0.428071 0.0718235 0.670571
42 3 0.456371 0.0471221 0.669305
1163 4 0.467911 0.0586331 0.686711
1162 2 0.481761 0.0499828 0.705646
44 3 0.462179 0.0809419 0.68464
1164 4 0.49561 0.0413326 0.724581
4581 4 0.505905 0.0121276 0.735042
864 4 0.0566064 0.0867855 0.724663
1077 4 0.071697 0.090595 0.711436
851 4 0.0712382 0.109561 0.70688
850 2 0.0700063 0.133896 0.701271
852 4 0.0687744 0.158231 0.695661
862 2 0.0375442 0.0843182 0.740655
1107 4 0.0695721 0.100613 0.725076
1105 2 0.0891182 0.0999398 0.740654
1226 4 0.24911 0.0850295 0.671844
1148 4 0.249572 0.0655407 0.681267
1225 2 0.245743 0.109716 0.669744
1282 2 0.182857 0.0921822 0.700056
1284 4 0.178433 0.116431 0.704252
909 4 0.184289 0.13544 0.699952
907 2 0.206077 0.140722 0.68888
908 4 0.227864 0.146003 0.677808
1227 4 0.242377 0.134403 0.667643
1194 4 0.326021 0.141051 0.663924
888 4 0.256512 0.145312 0.660508
886 2 0.281464 0.146508 0.661583
887 4 0.306416 0.147703 0.662658
829 2 0.314922 0.117535 0.692653
830 4 0.311856 0.134407 0.674457
831 4 0.317989 0.100663 0.710849
1005 4 0.324867 0.0831781 0.705924
1130 4 0.14147 0.242186 0.739323
977 4 0.322106 0.22922 0.743249
918 4 0.307665 0.238211 0.745419
1298 4 0.308211 0.221781 0.733283
976 2 0.338913 0.232512 0.725032
978 4 0.355721 0.235803 0.706815
1025 4 0.40882 0.188269 0.671812
1146 4 0.495901 0.180292 0.712778
1024 2 0.421035 0.194352 0.692764
1142 4 0.435912 0.195366 0.731756
1144 2 0.472765 0.189471 0.715161
1262 4 0.443236 0.21651 0.710587
1026 4 0.433251 0.200436 0.713715
1261 2 0.441344 0.236735 0.725165
1145 4 0.44963 0.198649 0.717544
1177 2 0.0228975 0.257118 0.717829
1179 4 0.0393633 0.257548 0.699017
1208 4 0.132334 0.249414 0.724595
1074 4 0.122974 0.245663 0.742646
1207 2 0.137919 0.263891 0.704989
821 4 0.139423 0.298214 0.686399
1209 4 0.143503 0.278369 0.685383
805 2 0.225331 0.329816 0.705799
806 4 0.244226 0.313599 0.708065
1019 4 0.406547 0.271308 0.720177
1018 2 0.382264 0.27727 0.720053
1020 4 0.357982 0.283231 0.719929
1263 4 0.439451 0.25696 0.739744
892 2 0.0157241 0.353914 0.728881
1279 2 0.0501872 0.404653 0.738704
1280 4 0.0460445 0.380027 0.73746
816 4 0.055511 0.363706 0.736551
893 4 0.992687 0.344344 0.730575
814 2 0.078537 0.353965 0.736873
894 4 0.0387613 0.363485 0.727187
1063 2 0.18874 0.350122 0.669173
1065 4 0.205546 0.357623 0.686098
807 4 0.206436 0.346034 0.703533
1028 4 0.20827 0.377302 0.688582
1066 2 0.191133 0.368375 0.723368
1068 4 0.20626 0.364619 0.703816
1027 2 0.217088 0.400219 0.683868
1067 4 0.176007 0.372132 0.742919
1205 4 0.397204 0.383635 0.682727
1281 4 0.05433 0.42928 0.739947
1981 2 0.0762107 0.461108 0.752199
1982 4 0.0857814 0.484161 0.750735
2016 4 0.168655 0.490288 0.74261
1176 4 0.179054 0.504566 0.73235
1140 4 0.242422 0.434397 0.676178
1175 4 0.198096 0.476607 0.69552
1174 2 0.188575 0.490586 0.713935
1029 4 0.225906 0.423136 0.679153
1138 2 0.257079 0.453766 0.682111
1139 4 0.271735 0.473136 0.688043
1987 2 0.278995 0.459172 0.735195
1229 4 0.289149 0.472096 0.697101
1989 4 0.28684 0.473266 0.71609
2028 4 0.279439 0.485295 0.701761
1228 2 0.311265 0.467735 0.686282
1230 4 0.33338 0.463375 0.675462
1099 2 0.438841 0.485871 0.673931
1100 4 0.424576 0.476006 0.691941
2989 2 0.0255725 0.0539766 0.788092
2990 4 0.0175385 0.0722773 0.773068
2991 4 0.0336065 0.0356758 0.803116
3083 4 0.00112735 0.0781895 0.76358
2049 4 0.100244 0.0112229 0.773667
1202 4 0.107752 0.026378 0.784152
1201 2 0.114156 0.0505289 0.7851
1203 4 0.12056 0.0746798 0.786047
819 4 0.340749 0.0691617 0.813343
1085 4 0.323471 0.0779348 0.812527
1084 2 0.298696 0.0783769 0.809185
960 4 0.329512 0.0736766 0.8297
817 2 0.35174 0.0476439 0.806912
1050 4 0.358079 0.00655567 0.774162
818 4 0.36273 0.0261261 0.80048
974 4 0.356936 0.00833273 0.793719
2322 4 0.490976 0.0556383 0.781519
845 4 0.485175 0.0745933 0.782541
844 2 0.492747 0.0740919 0.806365
2320 2 0.494095 0.0426948 0.760355
846 4 0.50032 0.0735904 0.830189
863 4 0.0184821 0.0818509 0.756646
833 4 0.0115343 0.0903254 0.773815
832 2 0.0193775 0.108573 0.789004
834 4 0.0272208 0.126821 0.804192
1125 4 0.0373311 0.13833 0.818434
1106 4 0.108664 0.099267 0.756232
32 3 0.137146 0.0852657 0.795031
911 4 0.127936 0.0957816 0.811522
34 3 0.106375 0.0914933 0.774367
31 1 0.123475 0.101606 0.786355
35 3 0.114771 0.113937 0.803408
33 3 0.136005 0.115208 0.772341
1256 4 0.235301 0.11942 0.814743
840 4 0.218834 0.129162 0.820169
1255 2 0.247372 0.100649 0.803468
1257 4 0.259443 0.0818775 0.792194
1086 4 0.27392 0.078819 0.805843
48 3 0.410532 0.166257 0.785038
1112 4 0.499997 0.0873777 0.779664
1023 4 0.420158 0.156778 0.833916
1277 4 0.177579 0.257345 0.789884
1297 2 0.296908 0.201559 0.742689
1299 4 0.285605 0.181336 0.752094
46 1 0.409316 0.181745 0.802273
1043 4 0.397577 0.205733 0.800665
49 3 0.38713 0.185841 0.807692
1042 2 0.390655 0.229321 0.796095