ITEM: TIMESTEP
2720000
ITEM: NUMBER OF ATOMS
4590
ITEM: BOX BOUNDS pp pp pp
-9.9985700000000008e+00 9.9985700000000008e+00
-9.9985700000000008e+00 9.9985700000000008e+00
-9.9985700000000008e+00 9.9985700000000008e+00
ITEM: ATOMS id type xs ys zs
1667 4 0.0199747 0.0702422 0.0682425
1666 2 0.999296 0.0592652 0.0770209
491 4 0.289271 0.0784762 0.0775739
2974 2 0.470807 0.0163041 0.00869755
745 2 0.442482 0.0701755 0.00465178
747 4 0.44623 0.0458817 7.59645e-05
2975 4 0.458536 0.0321114 0.993707
986 4 0.438861 0.0292522 0.995428
2467 2 0.494351 0.00896677 0.059313
701 4 0.0282754 0.0877442 0.066101
567 4 0.232323 0.161892 0.00921205
297 4 0.342927 0.140619 0.0172063
295 2 0.356843 0.127411 0.00117299
556 2 0.410552 0.117688 0.992533
558 4 0.433275 0.113973 0.00228175
746 4 0.438733 0.0944694 0.00922759
566 4 0.208182 0.169495 0.0523414
565 2 0.220252 0.165693 0.0307767
573 4 0.251002 0.241715 0.0630926
571 2 0.266081 0.251737 0.0458485
770 4 0.396142 0.184525 0.0231604
359 4 0.377949 0.1788 0.0196857
664 2 0.391144 0.205517 0.0498049
665 4 0.381329 0.186879 0.0363336
666 4 0.40096 0.224155 0.0632762
323 4 0.410067 0.240997 0.0623441
358 2 0.356399 0.186793 0.00984359
769 2 0.412286 0.175707 0.00622559
623 4 0.391874 0.240203 0.0694637
292 2 0.155087 0.314461 0.0518193
294 4 0.137431 0.300904 0.0404331
482 4 0.24164 0.260218 0.0672649
293 4 0.172743 0.328018 0.0632055
507 4 0.185323 0.330021 0.0728098
287 4 0.190186 0.334884 0.054518
286 2 0.207864 0.33056 0.0373727
481 2 0.230905 0.271931 0.0865708
288 4 0.225542 0.326236 0.0202274
572 4 0.28116 0.261759 0.0286043
357 4 0.290052 0.263689 0.0097983
355 2 0.307095 0.281598 0.00606123
956 4 0.329916 0.314349 0.0126226
356 4 0.324138 0.299508 0.00232416
1069 2 0.402778 0.311314 0.0300567
955 2 0.34823 0.32482 0.0260443
1071 4 0.382454 0.325289 0.0341546
322 2 0.417176 0.261049 0.049207
957 4 0.366544 0.33529 0.039466
324 4 0.424285 0.281101 0.03607
1070 4 0.423102 0.297338 0.0259589
280 2 0.451973 0.305049 0.0466913
282 4 0.440648 0.291298 0.0291459
281 4 0.463298 0.3188 0.0642368
527 4 0.470827 0.32674 0.0794766
328 2 0.999064 0.405725 0.023184
456 4 0.169882 0.392845 0.0468893
552 4 0.1702 0.33976 0.0797136
454 2 0.173995 0.369629 0.055214
455 4 0.178108 0.346414 0.0635388
1290 4 0.272852 0.402667 0.0204938
250 2 0.273183 0.405864 0.0581522
1288 2 0.279866 0.382065 0.00818307
251 4 0.266952 0.413592 0.0352039
252 4 0.279414 0.398135 0.0811005
741 4 0.382735 0.338275 0.0493991
739 2 0.389661 0.34479 0.0725238
671 4 0.459979 0.338737 0.0697796
1788 4 0.0988992 0.467299 0.0729221
1786 2 0.104754 0.488516 0.0610579
627 4 0.167243 0.471116 0.0478596
1467 4 0.0933799 0.452986 0.0870421
626 4 0.204039 0.461616 0.0803638
625 2 0.185641 0.466366 0.0641117
245 4 0.220491 0.460183 0.0704351
244 2 0.24123 0.45178 0.0592799
246 4 0.26197 0.443378 0.0481247
272 4 0.275285 0.432109 0.0388269
271 2 0.281271 0.442583 0.016926
1672 2 0.400413 0.437228 0.0646218
853 2 0.392395 0.450723 0.00838254
1674 4 0.404687 0.441029 0.0402811
854 4 0.409266 0.45348 0.0266301
227 4 0.494627 0.50889 0.0589598
564 4 0.423322 0.443245 0.0362395
563 4 0.471976 0.452634 0.0295092
562 2 0.447649 0.44794 0.0328744
228 4 0.472451 0.47104 0.0349531
226 2 0.483539 0.489965 0.0469564
19 3 0.0628583 0.0381798 0.149474
18 3 0.0726532 0.00198881 0.143254
16 1 0.0698485 0.0184092 0.159407
578 4 0.0822924 0.0423407 0.162666
582 4 0.228315 0.0832174 0.14073
580 2 0.240011 0.0615365 0.145012
490 2 0.290426 0.0598257 0.0941873
1475 4 0.297285 0.0229248 0.111568
492 4 0.291581 0.0411752 0.110801
581 4 0.251706 0.0398556 0.149294
654 4 0.258761 0.0279033 0.163639
1474 2 0.301346 9.49066e-05 0.102215
484 2 0.411786 0.00540886 0.0817361
485 4 0.403737 0.0172448 0.0612347
2722 2 0.47109 0.0656503 0.15342
2724 4 0.493165 0.0546217 0.149386
1760 4 0.490789 0.036429 0.14388
2723 4 0.449016 0.0766788 0.157454
2469 4 0.493138 0.020989 0.0812031
700 2 0.0364694 0.105586 0.0815835
702 4 0.0446634 0.123428 0.0970659
476 4 0.0622896 0.132287 0.0998916
475 2 0.0784694 0.13354 0.118913
477 4 0.0946492 0.134793 0.137935
237 4 0.212945 0.0945867 0.139472
235 2 0.195141 0.0983022 0.156629
236 4 0.177336 0.102018 0.173787
628 2 0.383891 0.164719 0.142376
629 4 0.372128 0.142866 0.14542
312 4 0.374122 0.128301 0.15917
310 2 0.359817 0.109441 0.167222
738 4 0.236669 0.179136 0.102965
737 4 0.235129 0.20629 0.144929
736 2 0.235899 0.192713 0.123947
755 4 0.250441 0.242586 0.161494
460 2 0.330281 0.225586 0.11392
461 4 0.308278 0.213922 0.111679
354 4 0.288894 0.218893 0.117076
352 2 0.27954 0.23113 0.136772
353 4 0.270187 0.243366 0.156469
630 4 0.395655 0.186571 0.139331
254 4 0.39272 0.202701 0.151644
462 4 0.352283 0.23725 0.116161
255 4 0.367167 0.237707 0.126696
253 2 0.379944 0.220204 0.13917
624 4 0.364868 0.249976 0.110402
622 2 0.378371 0.24509 0.0899328
505 2 0.198095 0.31613 0.0892132
483 4 0.220169 0.283645 0.105877
506 4 0.210867 0.302238 0.105617
537 4 0.201608 0.301126 0.123463
535 2 0.183453 0.295354 0.139657
536 4 0.165297 0.289582 0.155851
754 2 0.238895 0.264104 0.156123
756 4 0.227348 0.285621 0.150752
301 2 0.328884 0.323371 0.142531
302 4 0.331317 0.342438 0.12654
303 4 0.326452 0.304304 0.158522
765 4 0.358189 0.254148 0.127617
764 4 0.334791 0.28733 0.15681
763 2 0.34649 0.270739 0.142213
550 2 0.153116 0.344227 0.0974161
551 4 0.136033 0.348695 0.115119
290 4 0.227919 0.407979 0.148519
609 4 0.298 0.401853 0.0803906
387 4 0.328904 0.358816 0.114681
607 2 0.308822 0.413416 0.0997385
385 2 0.353281 0.357866 0.109201
493 2 0.392739 0.391254 0.0965175
495 4 0.393023 0.367446 0.104152
386 4 0.377658 0.356915 0.103721
15 3 0.383392 0.343854 0.114425
740 4 0.396588 0.351305 0.0956485
14 3 0.413876 0.364268 0.105957
11 1 0.405049 0.34809 0.120056
13 3 0.406241 0.355277 0.142086
12 3 0.417364 0.328786 0.117855
672 4 0.420861 0.346063 0.100059
670 2 0.44042 0.3424 0.0849195
1791 4 0.0560575 0.490902 0.118543
1465 2 0.0770069 0.462162 0.103562
1466 4 0.0606339 0.471338 0.120082
638 4 0.227052 0.465515 0.137352
767 4 0.24265 0.464 0.149808
637 2 0.21472 0.478588 0.119969
639 4 0.202388 0.491661 0.102585
766 2 0.244743 0.439163 0.151778
768 4 0.246836 0.414325 0.153749
608 4 0.319644 0.42498 0.119086
659 4 0.334879 0.435126 0.112701
494 4 0.392454 0.415062 0.0888828
660 4 0.383 0.432219 0.0994121
1673 4 0.396139 0.433427 0.0889624
658 2 0.35894 0.433673 0.106057
524 4 0.403958 0.493966 0.118121
523 2 0.397807 0.472438 0.10699
525 4 0.391655 0.450911 0.0958591
1559 4 0.401277 0.501434 0.1364
17 3 0.0537659 0.0114922 0.174328
2480 4 0.0341819 0.0120565 0.178699
2479 2 0.0215655 0.0330978 0.183523
380 4 0.0166308 0.0715781 0.198115
2481 4 0.00894908 0.0541392 0.188346
20 3 0.0894336 0.0217993 0.170523
577 2 0.092988 0.0644846 0.167186
689 4 0.157355 0.00846502 0.217776
674 4 0.138125 0.00949964 0.21238
673 2 0.116006 0.00247674 0.221688
1403 4 0.0847056 6.66704e-05 0.247574
1504 2 0.228847 0.00105914 0.182701
1506 4 0.246997 0.0171027 0.176506
688 2 0.178021 0.996369 0.21058
652 2 0.281555 0.0248673 0.173458
653 4 0.304349 0.0218313 0.183276
25 3 0.339427 0.0349579 0.248218
758 4 0.333501 0.082023 0.188132
759 4 0.348532 0.0785726 0.235701
757 2 0.341016 0.0802978 0.211916
350 4 0.368104 0.0732052 0.244424
349 2 0.392092 0.0668968 0.241275
351 4 0.416081 0.0605884 0.238125
480 4 0.432196 0.0526851 0.246524
333 4 0.491518 0.0879424 0.235182
743 4 0.493871 0.0716511 0.245859
742 2 0.509556 0.0551906 0.235456
379 2 0.023122 0.0879583 0.180374
511 2 0.0605324 0.133324 0.172554
512 4 0.0396097 0.119748 0.170789
381 4 0.0296133 0.104338 0.162633
513 4 0.081455 0.1469 0.174318
449 4 0.162202 0.114645 0.176036
579 4 0.103684 0.0866285 0.171706
450 4 0.119256 0.0935687 0.161471
448 2 0.140729 0.104107 0.168754
30 3 0.314106 0.144759 0.247376
28 3 0.342822 0.162393 0.23058
311 4 0.345512 0.0905805 0.175275
761 4 0.410175 0.141505 0.246353
521 4 0.465839 0.14764 0.216583
762 4 0.450746 0.134648 0.217933
760 2 0.43046 0.138076 0.232143
332 4 0.468984 0.128188 0.215863
520 2 0.479754 0.167249 0.209724
331 2 0.480251 0.108065 0.225523
339 4 0.0612835 0.21989 0.169643
337 2 0.0570002 0.242091 0.180317
394 2 0.0128666 0.257594 0.229704
395 4 0.0275999 0.263483 0.21038
393 4 0.0912466 0.165821 0.169918
391 2 0.0781394 0.186085 0.176456
392 4 0.0650321 0.206349 0.182994
545 4 0.170875 0.236357 0.256004
279 4 0.269302 0.219732 0.215841
277 2 0.267739 0.232184 0.194216
278 4 0.266176 0.244637 0.17259
522 4 0.49367 0.186857 0.202865
338 4 0.0527168 0.264293 0.190991
363 4 0.0453971 0.270347 0.20801
361 2 0.0549166 0.293242 0.211229
648 4 0.0602454 0.3294 0.204466
362 4 0.0644361 0.316138 0.214449
372 4 0.0790255 0.326778 0.203721
749 4 0.0500505 0.326053 0.222624
370 2 0.101554 0.330382 0.21395
371 4 0.124083 0.333986 0.22418
611 4 0.245672 0.320909 0.208499
610 2 0.238159 0.309804 0.187394
612 4 0.230646 0.2987 0.166288
344 4 0.230163 0.32487 0.219725
343 2 0.21237 0.319949 0.236588
285 4 0.316614 0.291765 0.164531
284 4 0.27909 0.258775 0.162449
283 2 0.297852 0.27527 0.16349
729 4 0.320772 0.307569 0.176277
727 2 0.306686 0.322757 0.190282
308 4 0.332367 0.292811 0.17499
307 2 0.34361 0.2844 0.195679
309 4 0.354853 0.275989 0.216368
498 4 0.346703 0.28409 0.233122
647 4 0.0520359 0.36196 0.16741
748 2 0.0558789 0.341906 0.24106
646 2 0.0561407 0.34568 0.185938
734 4 0.133648 0.3399 0.240269
733 2 0.157141 0.333681 0.246151
289 2 0.215509 0.390804 0.161793
291 4 0.203098 0.37363 0.175067
417 4 0.15294 0.406359 0.204976
416 4 0.189166 0.376639 0.187508
415 2 0.171053 0.391499 0.196242
728 4 0.292601 0.337944 0.204287
445 2 0.412389 0.376175 0.251784
447 4 0.428446 0.392473 0.241698
644 4 0.445288 0.3816 0.236476
643 2 0.456132 0.392635 0.216833
645 4 0.466975 0.40367 0.197191
264 4 0.0210455 0.437145 0.251519
262 2 0.996787 0.434197 0.246226
412 2 0.238724 0.46418 0.224041
413 4 0.228055 0.451645 0.242861
414 4 0.249394 0.476715 0.20522
1574 4 0.282393 0.475796 0.228312
595 2 0.488212 0.42086 0.178619
597 4 0.466038 0.422862 0.189999
229 2 0.465828 0.484878 0.230958
231 4 0.475565 0.462171 0.227115
234 4 0.00931375 0.0590167 0.271921
232 2 0.030657 0.0482294 0.27922
233 4 0.0520002 0.037442 0.28652
2756 4 0.00203663 0.0760627 0.276613
317 4 0.0709831 0.0335384 0.293637
1404 4 0.0598227 0.0202408 0.285974
316 2 0.0848231 0.0536193 0.299149
1402 2 0.0722641 0.0101538 0.266774
428 4 0.07036 0.0165077 0.302555
318 4 0.098663 0.0737002 0.304662
730 2 0.132712 0.073461 0.321037
606 4 0.16574 0.0851953 0.337737
693 4 0.287888 0.0464655 0.263851
691 2 0.282827 0.0667079 0.277628
692 4 0.277766 0.0869504 0.291405
24 3 0.320259 0.059293 0.269621
21 1 0.341233 0.0531014 0.261864
23 3 0.355166 0.048194 0.279758
22 3 0.35025 0.0706308 0.250008
632 4 0.36025 0.08737 0.244539
479 4 0.448949 0.0309667 0.288338
478 2 0.440573 0.0418259 0.267431
2664 4 0.467747 0.0291991 0.283806
1428 4 0.457533 0.0177341 0.295024
258 4 0.44947 0.0326422 0.30728
2662 2 0.491034 0.0356641 0.290217
256 2 0.443586 0.0510503 0.323145
2585 4 0.00508707 0.108751 0.333394
732 4 0.107834 0.0709833 0.320694
399 4 0.0922556 0.0808206 0.324073
403 2 0.238877 0.163952 0.328535
26 1 0.332379 0.15791 0.250811
721 2 0.273479 0.112775 0.311063
723 4 0.290342 0.101903 0.296143
722 4 0.256616 0.123648 0.325983
404 4 0.245854 0.140136 0.331581
29 3 0.347181 0.147298 0.265186
631 2 0.358785 0.1097 0.255692
707 4 0.357175 0.138936 0.280621
633 4 0.35732 0.132031 0.266845
706 2 0.36084 0.149411 0.303027
708 4 0.364505 0.159886 0.325432
444 4 0.00177761 0.230948 0.307235
396 4 0.998133 0.251706 0.249029
544 2 0.14942 0.223579 0.254744
546 4 0.127965 0.210801 0.253484
405 4 0.2319 0.187769 0.325488
27 3 0.325737 0.177778 0.260313
269 4 0.399836 0.227422 0.318286
419 4 0.382657 0.236144 0.314822
268 2 0.416923 0.217372 0.333524
442 2 0.0069626 0.242132 0.285481
443 4 0.0121476 0.253315 0.263727
375 4 0.169187 0.31284 0.319879
402 4 0.168666 0.2549 0.258551
400 2 0.177939 0.277992 0.260991
401 4 0.187211 0.301084 0.263432
676 2 0.185962 0.323822 0.29332
345 4 0.194578 0.315027 0.253451
677 4 0.189458 0.320007 0.268858
735 4 0.180634 0.327462 0.252033
378 4 0.291277 0.284353 0.306749
376 2 0.309804 0.299389 0.299277
497 4 0.336904 0.305261 0.277354
377 4 0.328331 0.314426 0.291805
496 2 0.341804 0.294675 0.255238
541 2 0.366609 0.311034 0.302592
542 4 0.387965 0.304167 0.313633
420 4 0.39512 0.284556 0.316123
543 4 0.345252 0.3179 0.29155
418 2 0.388889 0.26035 0.315472
615 4 0.330317 0.33117 0.298997
364 2 0.00541972 0.386718 0.29304
365 4 0.0284475 0.38098 0.285168
601 2 0.0576338 0.373052 0.319115
603 4 0.0409288 0.373458 0.300515
750 4 0.0617072 0.357759 0.259496
300 4 0.080373 0.365021 0.263305
299 4 0.12832 0.355139 0.253102
298 2 0.104347 0.36008 0.258204
678 4 0.182466 0.327636 0.317782
510 4 0.193795 0.33582 0.332773
508 2 0.19807 0.360353 0.33502
434 4 0.313592 0.388199 0.317038
433 2 0.310512 0.412437 0.322349
614 4 0.329175 0.376886 0.319232
446 4 0.396332 0.359877 0.261869
613 2 0.329746 0.354028 0.309114
1757 4 0.0371227 0.43402 0.261929
1756 2 0.052243 0.453728 0.264789
1758 4 0.0673634 0.473435 0.267649
1775 4 0.0810512 0.480522 0.281171
1436 4 0.225911 0.444919 0.261845
1435 2 0.243489 0.445272 0.279624
1437 4 0.261066 0.445625 0.297403
4 3 0.256963 0.441479 0.31644
3 3 0.269029 0.477416 0.319147
1 1 0.270649 0.456097 0.328162
436 2 0.307542 0.485148 0.306363
438 4 0.290185 0.470192 0.316375
435 4 0.307433 0.436676 0.32766
2 3 0.292432 0.448915 0.326405
437 4 0.324899 0.500104 0.296351
1802 4 0.34379 0.497947 0.303844
119 3 0.488357 0.46252 0.316936
731 4 0.15759 0.0759386 0.32138
699 4 0.374268 0.0556262 0.359205
1699 2 0.361326 0.0178215 0.378848
1700 4 0.37053 0.0342708 0.36242
697 2 0.396558 0.0647422 0.352478
1701 4 0.352121 0.00137217 0.395276
698 4 0.418847 0.0738582 0.34575
257 4 0.437702 0.0694583 0.33901
397 2 0.0775373 0.0951844 0.338293
398 4 0.0628189 0.109548 0.352514
2584 2 0.0260263 0.114871 0.345612
2586 4 0.0469656 0.120991 0.357829
458 4 0.0514768 0.139353 0.369076
457 2 0.0593254 0.145047 0.392123
600 4 0.10294 0.153023 0.353317
604 2 0.184014 0.0889726 0.35438
605 4 0.202288 0.09275 0.371022
248 4 0.21726 0.0951712 0.356812
247 2 0.235025 0.111601 0.350515
249 4 0.25279 0.12803 0.344218
683 4 0.257852 0.14558 0.348429
682 2 0.279169 0.14378 0.361372
684 4 0.300486 0.141979 0.374315
320 4 0.317323 0.140803 0.362453
321 4 0.361863 0.156155 0.345684
319 2 0.339593 0.148479 0.354069
726 4 0.393647 0.142129 0.410053
467 4 0.384272 0.156183 0.419021
717 4 0.377969 0.161134 0.356941
715 2 0.387625 0.160175 0.379985
716 4 0.397281 0.159217 0.403029
642 4 0.489568 0.0921597 0.409574
640 2 0.466132 0.0897964 0.401186
641 4 0.442697 0.0874332 0.392798
598 2 0.110691 0.175563 0.360872
599 4 0.118441 0.198102 0.368428
389 4 0.116662 0.230326 0.372085
686 4 0.111212 0.213064 0.378119
685 2 0.0970476 0.211552 0.398668
275 4 0.129204 0.214912 0.37086
274 2 0.15303 0.208239 0.374459
473 4 0.219414 0.202042 0.329933
474 4 0.196161 0.204915 0.374112
472 2 0.207787 0.203479 0.352022
276 4 0.176856 0.201566 0.378058
270 4 0.434011 0.207323 0.348762
452 4 0.446749 0.221846 0.350643
451 2 0.454573 0.22304 0.374361
453 4 0.462398 0.224235 0.398079
515 4 0.457394 0.206361 0.408119
2800 2 0.999361 0.268442 0.413747
2802 4 0.00534718 0.291596 0.421043
347 4 0.0547794 0.310746 0.377839
346 2 0.0371752 0.301065 0.392723
348 4 0.019571 0.291384 0.407608
618 4 0.0733301 0.310691 0.369149
388 2 0.121981 0.253225 0.363568
616 2 0.096024 0.302107 0.363108
390 4 0.1273 0.276123 0.35505
617 4 0.118718 0.293524 0.357068
374 4 0.138438 0.29233 0.353561
373 2 0.153813 0.302585 0.33672
2537 4 0.496185 0.331713 0.333872
549 4 0.0850101 0.388766 0.338274
602 4 0.0743387 0.372645 0.337715
547 2 0.0871463 0.406288 0.355982
509 4 0.202344 0.384886 0.337267
334 2 0.316053 0.382531 0.409335
335 4 0.332148 0.368653 0.396161
238 2 0.364345 0.383511 0.374151
239 4 0.378278 0.398309 0.359588
240 4 0.350412 0.368714 0.388715
587 4 0.394784 0.409277 0.35504
752 4 0.472581 0.39801 0.380088
561 4 0.473509 0.384031 0.394681
559 2 0.487381 0.372598 0.412061
751 2 0.48265 0.413708 0.363434
500 4 0.0679459 0.487327 0.348558
499 2 0.0838364 0.471696 0.359886
501 4 0.0997269 0.456065 0.371215
548 4 0.0892825 0.423811 0.37369
407 4 0.100163 0.438947 0.381755
406 2 0.105666 0.447293 0.404673
1544 4 0.215196 0.469923 0.384072
1556 4 0.231746 0.474978 0.375954
1543 2 0.199823 0.474644 0.403217
5 3 0.26462 0.456467 0.35012
636 4 0.291386 0.492191 0.403537
1555 2 0.255024 0.480434 0.383271
1557 4 0.278302 0.48589 0.390588
586 2 0.386058 0.432697 0.354334
593 4 0.385951 0.473326 0.351971
588 4 0.377332 0.456118 0.353628
592 2 0.40512 0.487162 0.343829
712 2 0.462668 0.485274 0.336694
714 4 0.48172 0.469133 0.335396
753 4 0.49272 0.429406 0.34678
117 3 0.487602 0.451953 0.352997
367 2 0.0838772 0.998058 0.443942
368 4 0.0929998 0.99887 0.420676
963 4 0.322624 0.0396796 0.460615
432 4 0.319474 0.0475345 0.47881
430 2 0.329655 0.0457688 0.501578
961 2 0.331433 0.0235187 0.443691
962 4 0.340243 0.00735767 0.426768
1216 2 0.410059 0.0521897 0.476966
1217 4 0.404882 0.0379976 0.49689
1218 4 0.415235 0.0663817 0.457042
260 4 0.0644157 0.154446 0.435031
459 4 0.067174 0.150742 0.41517
724 2 0.384533 0.121153 0.420159
725 4 0.375419 0.100178 0.430266
259 2 0.0728833 0.177965 0.435592
261 4 0.0813509 0.201484 0.436152
1035 4 0.0825588 0.22059 0.43674
1033 2 0.089533 0.241813 0.447971
687 4 0.0828828 0.210039 0.419217
466 2 0.395984 0.17315 0.433167
468 4 0.407695 0.190118 0.447313
411 4 0.392954 0.250265 0.465205
409 2 0.403127 0.227786 0.461153
410 4 0.4133 0.205308 0.457102
575 4 0.430288 0.203193 0.465112
516 4 0.425489 0.20031 0.446147
574 2 0.446311 0.19395 0.481935
514 2 0.441442 0.203335 0.427133
2847 4 0.995396 0.301129 0.434523
696 4 0.0941071 0.263336 0.478077
1034 4 0.0965072 0.263035 0.459202
1260 4 0.0942881 0.280386 0.46686
1258 2 0.107045 0.301656 0.463696
1259 4 0.119802 0.322927 0.460532
9 3 0.137115 0.324368 0.442035
488 4 0.325112 0.253707 0.442277
489 4 0.372523 0.248197 0.457195
487 2 0.348818 0.250952 0.449736
266 4 0.380441 0.26393 0.46382
265 2 0.381121 0.283417 0.479473
267 4 0.381801 0.302903 0.495125
326 4 0.0668244 0.361724 0.472561
7 3 0.125287 0.336926 0.475428
6 1 0.137462 0.342361 0.456683
327 4 0.112523 0.34649 0.459134
325 2 0.0896735 0.354107 0.465848
8 3 0.159299 0.347006 0.463007
10 3 0.128192 0.360642 0.446756
711 4 0.134669 0.421577 0.490318
709 2 0.154124 0.407252 0.496758
336 4 0.299958 0.396408 0.422509
668 4 0.284832 0.404356 0.433623
882 4 0.373999 0.374293 0.496406
3308 4 0.482268 0.336238 0.490125
560 4 0.501252 0.361164 0.42944
3309 4 0.497138 0.357863 0.447558
3307 2 0.489703 0.347051 0.468842
680 4 0.0160633 0.447151 0.453338
1383 4 0.0132893 0.458092 0.469496
1381 2 0.0241547 0.480368 0.466193
382 2 0.125442 0.438137 0.456511
384 4 0.124485 0.420275 0.473982
408 4 0.111168 0.45564 0.427591
569 4 0.122521 0.471539 0.426433
383 4 0.1264 0.455999 0.439041
568 2 0.145635 0.480826 0.424273
1395 4 0.18341 0.498057 0.430902
570 4 0.168749 0.490114 0.422112
1545 4 0.18445 0.479366 0.422363
667 2 0.291574 0.426896 0.442087
669 4 0.298316 0.449437 0.45055
634 2 0.298316 0.479159 0.42372
635 4 0.305246 0.466128 0.443902
774 4 0.317767 0.452849 0.450712
772 2 0.34054 0.460147 0.458011
773 4 0.363314 0.467446 0.465311
2430 4 0.164503 0.00840237 0.514824
341 4 0.177919 0.0179331 0.525178
1152 4 0.199766 0.0784306 0.519399
342 4 0.197419 0.0609271 0.508686
340 2 0.187669 0.0394301 0.516932
1150 2 0.214517 0.0808129 0.539446
1030 2 0.25402 0.0654932 0.578376
1031 4 0.263865 0.0435318 0.585154
431 4 0.339837 0.0440031 0.524346
842 4 0.399354 0.0252953 0.511177
841 2 0.378161 0.0319852 0.522634
843 4 0.356967 0.0386751 0.53409
1058 4 0.117405 0.0919379 0.518617
1270 2 0.0983787 0.151235 0.569774
1271 4 0.112402 0.130538 0.570176
1057 2 0.116521 0.102473 0.541276
1059 4 0.115638 0.113008 0.563934
1155 4 0.124168 0.120477 0.581232
939 4 0.106161 0.114385 0.580479
1153 2 0.14659 0.131016 0.584605
1032 4 0.244175 0.0874547 0.571597
1154 4 0.169012 0.141554 0.587977
1151 4 0.229267 0.0831953 0.559494
1180 2 0.233732 0.123498 0.573796
1181 4 0.23578 0.101987 0.561216
1182 4 0.231684 0.145009 0.586376
900 4 0.233063 0.164748 0.586984
1199 4 0.0210537 0.199793 0.572788
879 4 0.067875 0.179065 0.559999
1198 2 0.00385947 0.209345 0.557351
877 2 0.0497205 0.188643 0.574276
1272 4 0.0843549 0.171931 0.569371
651 4 0.220643 0.223658 0.505791
858 4 0.218553 0.244445 0.504161
898 2 0.241061 0.176034 0.566156
649 2 0.235733 0.206112 0.515258
650 4 0.250822 0.188566 0.524725
899 4 0.24906 0.187321 0.545328
576 4 0.462334 0.184708 0.498758
2455 2 0.488162 0.248759 0.496887
695 4 0.0846737 0.25044 0.525463
694 2 0.0893904 0.256888 0.50177
856 2 0.210336 0.256136 0.524678
857 4 0.20212 0.267828 0.545196
947 4 0.192631 0.266418 0.562224
946 2 0.175902 0.28219 0.572052
798 4 0.204806 0.274456 0.576447
1011 4 0.470128 0.324997 0.50283
2457 4 0.466074 0.260052 0.500018
1010 4 0.466288 0.276183 0.512987
1009 2 0.468208 0.30059 0.507908
502 2 0.197427 0.367168 0.511696
503 4 0.201965 0.343138 0.516903
504 4 0.192889 0.391199 0.50649
710 4 0.17358 0.392927 0.503198
1189 2 0.229641 0.36685 0.580546
803 4 0.264407 0.363206 0.562663
804 4 0.261773 0.348173 0.515042
802 2 0.26309 0.35569 0.538853
1190 4 0.249182 0.35485 0.570582
1238 4 0.26435 0.359226 0.581746
792 4 0.257352 0.341187 0.581065
929 4 0.347065 0.367854 0.544825
881 4 0.344315 0.385702 0.534999
880 2 0.359157 0.379998 0.515703
928 2 0.335254 0.371599 0.566542
539 4 0.0955664 0.431544 0.579229
538 2 0.108982 0.452632 0.579932
1159 2 0.154276 0.497747 0.593138
1081 2 0.0703881 0.0669404 0.634438
1127 4 0.0473243 0.0792911 0.606243
1082 4 0.075674 0.053208 0.654653
943 2 0.0336562 0.0200288 0.666162
944 4 0.0514728 0.0374533 0.668195
4337 4 0.998078 0.000228589 0.658295
938 4 0.084653 0.0783559 0.607682
951 4 0.252594 0.028727 0.593932
949 2 0.26326 0.0247445 0.616194
950 4 0.273925 0.020762 0.638455
3008 4 0.495113 0.0239031 0.593806
809 4 0.484084 0.0260785 0.611751
808 2 0.474451 0.0401643 0.630026
810 4 0.464817 0.0542501 0.648301
45 3 0.462634 0.0780419 0.645425
41 1 0.456111 0.0714062 0.666211
43 3 0.434148 0.0778376 0.670045
42 3 0.457505 0.0484893 0.667634
1083 4 0.0651021 0.0806728 0.614222
1126 2 0.0251968 0.0873992 0.597888
1128 4 0.00306923 0.0955073 0.589533
937 2 0.0954071 0.0963705 0.59408
1221 4 0.171976 0.159525 0.596175
1219 2 0.196847 0.157209 0.597296
1211 4 0.234655 0.146633 0.666172
1210 2 0.228032 0.153082 0.64294
1220 4 0.221718 0.154893 0.598418
1194 4 0.314538 0.15642 0.659042
1192 2 0.321874 0.155276 0.635167
887 4 0.299332 0.164318 0.666951
886 2 0.275264 0.158769 0.670839
1193 4 0.32921 0.154131 0.611291
3424 2 0.493088 0.102948 0.653254
3425 4 0.475107 0.0882092 0.662454
878 4 0.031566 0.198222 0.588554
1244 4 0.0400185 0.209458 0.601581
1243 2 0.0426793 0.232954 0.609708
1212 4 0.221408 0.15953 0.619708
3123 4 0.485328 0.225709 0.652547
983 4 0.033911 0.269681 0.608734
1245 4 0.0453401 0.256449 0.617835
982 2 0.0212335 0.284577 0.593159
3263 4 0.0440746 0.320619 0.634406
948 4 0.159174 0.297962 0.58188
1135 2 0.164491 0.322154 0.617603
822 4 0.163795 0.333367 0.656477
1136 4 0.157686 0.309174 0.597345
820 2 0.154952 0.31395 0.669513
796 2 0.229449 0.276548 0.580123
797 4 0.254092 0.27864 0.5838
791 4 0.268609 0.29299 0.58821
790 2 0.262981 0.317088 0.584638
872 4 0.326226 0.294729 0.607625
871 2 0.350379 0.300032 0.603925
813 4 0.377554 0.321542 0.61246
873 4 0.374532 0.305335 0.600226
953 4 0.475717 0.328322 0.615115
954 4 0.454889 0.289276 0.591827
952 2 0.465303 0.308799 0.603471
906 4 0.493402 0.331338 0.606268
3262 2 0.0497527 0.344893 0.636341
1041 4 0.0692229 0.377254 0.647741
3264 4 0.0554308 0.369166 0.638275
3240 4 0.0509684 0.38678 0.642875
3238 2 0.0272796 0.394748 0.643604
3239 4 0.00359073 0.402716 0.644333
1039 2 0.0919821 0.385932 0.653388
1137 4 0.171296 0.335134 0.637861
1040 4 0.114741 0.394611 0.659034
993 4 0.12526 0.378862 0.655862
991 2 0.144414 0.363732 0.650441
992 4 0.163568 0.348602 0.64502
1064 4 0.177097 0.345417 0.652687
897 4 0.179694 0.352545 0.634251
896 4 0.19937 0.387986 0.604967
895 2 0.189532 0.370265 0.619609
1172 4 0.21826 0.391653 0.602066
1191 4 0.210099 0.37885 0.590511
1171 2 0.222883 0.416139 0.600011
1239 4 0.307562 0.375472 0.600968
1237 2 0.285956 0.367349 0.591357
930 4 0.323442 0.375343 0.58826
811 2 0.380406 0.342418 0.625921
1204 2 0.375015 0.390091 0.660064
1206 4 0.369287 0.37602 0.640205
927 4 0.382761 0.380131 0.627326
812 4 0.383258 0.363295 0.639382
925 2 0.396219 0.393644 0.611156
926 4 0.409678 0.407157 0.594987
540 4 0.122397 0.473721 0.580636
1160 4 0.131927 0.489715 0.585315
2244 4 0.116746 0.491621 0.573575
1186 2 0.207639 0.480602 0.600318
1173 4 0.227506 0.440625 0.597956
1187 4 0.218355 0.458188 0.603138
1188 4 0.196924 0.503017 0.597497
1909 2 0.442718 0.499281 0.583857
1911 4 0.450486 0.483657 0.601766
1002 4 0.422737 0.423459 0.597362
1001 4 0.449377 0.465216 0.604246
1000 2 0.436057 0.444338 0.600804
1269 4 0.45395 0.476799 0.619545
1267 2 0.462221 0.479934 0.642932
1268 4 0.470491 0.48307 0.666319
1076 4 0.0653097 0.0506241 0.670911
1075 2 0.0623593 0.0660385 0.690376
945 4 0.0158395 0.00260426 0.66413
864 4 0.0559068 0.071941 0.725494
1077 4 0.0594089 0.0814529 0.70984
862 2 0.036809 0.0716597 0.74163
824 4 0.176811 0.00311294 0.66125
825 4 0.177762 0.0489652 0.681185
823 2 0.177287 0.0260391 0.671217
1283 4 0.173491 0.0687189 0.681416
1149 4 0.22133 0.0546085 0.735312
1147 2 0.23769 0.0653823 0.719773
1148 4 0.25405 0.0761561 0.704235
1004 4 0.337543 0.0643633 0.728799
1003 2 0.339176 0.0850714 0.714882
1163 4 0.471234 0.0572072 0.681992
1162 2 0.488908 0.0496929 0.698003
44 3 0.470023 0.0807773 0.682243
1164 4 0.506581 0.0421785 0.714015
851 4 0.0638081 0.100434 0.709446
850 2 0.0602472 0.122538 0.698316
852 4 0.0566863 0.144643 0.687185
1107 4 0.0706565 0.0865598 0.72173
1105 2 0.0911727 0.0910802 0.735289
1282 2 0.171927 0.0920367 0.690305
1284 4 0.170363 0.115354 0.699194
909 4 0.174349 0.13503 0.693252
907 2 0.197973 0.138947 0.686058
908 4 0.221597 0.142864 0.678864
1227 4 0.241008 0.137242 0.678966
888 4 0.251196 0.15322 0.674727
1226 4 0.251179 0.0962595 0.705756
1225 2 0.246093 0.116751 0.692361
829 2 0.321326 0.136104 0.690165
830 4 0.305431 0.147592 0.674656
1005 4 0.340808 0.105779 0.700965
831 4 0.337222 0.124615 0.705674
1178 4 0.00475278 0.240487 0.728008
1130 4 0.148172 0.251602 0.74246
977 4 0.304371 0.223853 0.747922
1298 4 0.292773 0.211933 0.75706
976 2 0.322888 0.225613 0.731212
978 4 0.341405 0.227372 0.714502
1025 4 0.402825 0.181689 0.68491
1020 4 0.360086 0.233237 0.720121
1018 2 0.375344 0.241741 0.738011
1146 4 0.491008 0.164756 0.718936
1024 2 0.418109 0.189248 0.703198
1142 4 0.444669 0.194093 0.737509
1144 2 0.471646 0.180568 0.719488
1262 4 0.441493 0.211483 0.730448
1026 4 0.433392 0.196807 0.721486
1261 2 0.43971 0.236315 0.732764
1145 4 0.452285 0.196379 0.72004
1177 2 0.0156633 0.25868 0.714774
1179 4 0.0265739 0.276873 0.701539
1072 2 0.106446 0.262413 0.752708
1208 4 0.138101 0.261573 0.730542
1074 4 0.130901 0.260543 0.747848
1207 2 0.148889 0.271414 0.710245
821 4 0.146109 0.294533 0.68255
1209 4 0.159676 0.281254 0.689948
805 2 0.231558 0.32574 0.712239
806 4 0.244306 0.306709 0.722261
893 4 0.00498084 0.347554 0.738608
892 2 0.0231413 0.363835 0.733103
1279 2 0.0589912 0.413616 0.742825
1280 4 0.0540308 0.389586 0.738016
816 4 0.0593288 0.371826 0.733194
894 4 0.0413018 0.380116 0.727598
814 2 0.0812341 0.361349 0.727231
815 4 0.103139 0.350871 0.721267
942 4 0.119041 0.348135 0.732807
940 2 0.14105 0.359125 0.737278
941 4 0.163059 0.370116 0.74175
1063 2 0.195319 0.349221 0.66938
1065 4 0.213541 0.353025 0.686073
807 4 0.21881 0.344772 0.702216
1028 4 0.217663 0.371838 0.687172
1066 2 0.198097 0.369268 0.721237
1068 4 0.214672 0.363151 0.703544
1027 2 0.229479 0.392479 0.679457
1067 4 0.181522 0.375385 0.738929
1029 4 0.241295 0.413119 0.671741
1140 4 0.259724 0.4198 0.674952
1205 4 0.380743 0.404162 0.679923
1982 4 0.077462 0.488938 0.730904
1281 4 0.0639516 0.437646 0.747635
1983 4 0.0832212 0.442424 0.748338
1981 2 0.0803416 0.465681 0.739621
1176 4 0.180781 0.492472 0.735464
1175 4 0.174821 0.483767 0.686582
1174 2 0.177801 0.488119 0.711023
2016 4 0.168957 0.487313 0.749588
2026 2 0.275095 0.498071 0.689313
1138 2 0.272382 0.441002 0.678878
1139 4 0.28504 0.462205 0.682804
1987 2 0.279143 0.456622 0.73039
1229 4 0.297371 0.474561 0.69408
1989 4 0.289384 0.471606 0.713191
2028 4 0.280424 0.474726 0.69651
1228 2 0.321714 0.473482 0.688475
1230 4 0.346057 0.472403 0.68287
1101 4 0.454524 0.480234 0.676398
1099 2 0.444645 0.466488 0.6948
1100 4 0.434766 0.452743 0.713202
2168 4 0.466891 0.494175 0.682634
2989 2 0.0169279 0.037055 0.780309
2990 4 0.0145232 0.0587819 0.768171
2991 4 0.0193326 0.015328 0.792447
3083 4 0.999274 0.0694253 0.769011
863 4 0.0177113 0.0713784 0.757766
833 4 0.0150362 0.0772502 0.775249
2049 4 0.095509 0.0265494 0.77418
1202 4 0.105236 0.0338457 0.790307
1201 2 0.11422 0.0570878 0.78824
2047 2 0.103405 0.00413936 0.766394
1085 4 0.317649 0.0632973 0.811028
1084 2 0.305393 0.0813481 0.798815
1257 4 0.275496 0.0913556 0.795511
1050 4 0.367202 0.00972904 0.769044
960 4 0.328333 0.074247 0.821902
819 4 0.338063 0.0671073 0.807355
817 2 0.345792 0.0443561 0.800439
818 4 0.35352 0.0216048 0.793523
974 4 0.367 0.00781371 0.788989
2322 4 0.483281 0.0524649 0.772702
845 4 0.49408 0.0672224 0.780453
844 2 0.496074 0.0690873 0.805307
1112 4 0.497088 0.0849821 0.774028
832 2 0.0195745 0.0910962 0.795568
834 4 0.0241129 0.104942 0.815887
1125 4 0.0325898 0.120625 0.82491
1106 4 0.111689 0.0956006 0.748847
1203 4 0.123204 0.0803299 0.786173
32 3 0.135237 0.0924285 0.79909
911 4 0.123373 0.110215 0.805221
34 3 0.117804 0.0923348 0.765792
31 1 0.130838 0.104924 0.780284
35 3 0.119701 0.123858 0.786295
33 3 0.150932 0.110459 0.770086
910 2 0.11656 0.108606 0.829224
1256 4 0.231401 0.110908 0.808702
840 4 0.229501 0.122706 0.824934