ITEM: TIMESTEP
3350000
ITEM: NUMBER OF ATOMS
4590
ITEM: BOX BOUNDS pp pp pp
-9.9985700000000008e+00 9.9985700000000008e+00
-9.9985700000000008e+00 9.9985700000000008e+00
-9.9985700000000008e+00 9.9985700000000008e+00
ITEM: ATOMS id type xs ys zs
701 4 0.0436305 0.0469143 0.0763816
700 2 0.0523272 0.0697434 0.0710545
1667 4 0.0231695 0.0486636 0.0755798
996 4 0.0968262 0.0115884 0.998904
490 2 0.278285 0.0600322 0.0797024
492 4 0.284861 0.0389011 0.0680653
1474 2 0.281431 0.0056061 0.0598982
1475 4 0.295097 0.0262792 0.0565755
2974 2 0.465208 0.0322589 0.0331519
745 2 0.422312 0.080323 0.0257305
747 4 0.439585 0.0638821 0.0182139
2975 4 0.448368 0.0495199 0.0265457
986 4 0.438214 0.0446834 0.0112424
2976 4 0.482048 0.0149978 0.0397581
2468 4 0.491828 0.00931968 0.0519667
2467 2 0.502155 0.00840699 0.0747195
3836 4 0.501708 0.0087871 0.0362122
702 4 0.0610238 0.0925725 0.0657274
476 4 0.0497908 0.103742 0.0776692
475 2 0.0656826 0.12302 0.0786763
477 4 0.0815744 0.142297 0.0796834
566 4 0.211157 0.138146 0.0324605
565 2 0.22083 0.149303 0.0122833
491 4 0.27171 0.0811632 0.0913394
746 4 0.405038 0.0967639 0.0332471
769 2 0.390626 0.149145 0.0278168
556 2 0.373125 0.100339 0.01001
558 4 0.389908 0.108064 0.026857
771 4 0.385816 0.12589 0.0356429
737 4 0.230945 0.184726 0.0401434
736 2 0.20812 0.194406 0.0433844
738 4 0.185295 0.204086 0.0466255
573 4 0.27343 0.258286 0.0550072
770 4 0.395436 0.1724 0.0199907
359 4 0.397698 0.187338 0.00821874
664 2 0.393395 0.208268 0.0450191
665 4 0.39459 0.189228 0.0288572
666 4 0.392201 0.227309 0.061181
623 4 0.390071 0.242285 0.0735072
2808 4 7.07452e-05 0.262312 0.0108907
3338 4 0.0177695 0.264618 0.00100229
481 2 0.239111 0.284633 0.0656926
505 2 0.192096 0.315851 0.0751319
483 4 0.218414 0.295595 0.0744467
506 4 0.200034 0.295171 0.0867301
537 4 0.184327 0.288741 0.0951669
482 4 0.259808 0.273671 0.0569384
571 2 0.291534 0.257268 0.037791
572 4 0.309638 0.25625 0.0205748
357 4 0.31067 0.274689 0.0145528
355 2 0.317315 0.29824 0.00942123
323 4 0.403502 0.243499 0.0602348
1069 2 0.403484 0.315868 0.0379748
322 2 0.414577 0.263359 0.0498376
956 4 0.333868 0.334054 0.0148148
324 4 0.425652 0.283219 0.0394403
1070 4 0.423449 0.30124 0.0344217
280 2 0.452813 0.305096 0.0593383
282 4 0.441641 0.293289 0.0403394
281 4 0.463986 0.316902 0.0783373
292 2 0.156287 0.341029 0.035101
294 4 0.138352 0.338095 0.0179278
507 4 0.184158 0.336531 0.0635337
286 2 0.207908 0.330868 0.0265791
287 4 0.192842 0.339912 0.0443676
293 4 0.174221 0.343962 0.0522742
552 4 0.174856 0.351074 0.0713232
456 4 0.217667 0.391233 0.0667415
454 2 0.203067 0.371413 0.0623632
455 4 0.188467 0.351592 0.0579849
1290 4 0.265536 0.396875 0.0539488
1288 2 0.279668 0.383078 0.0386154
1289 4 0.2938 0.369281 0.023282
251 4 0.258562 0.415227 0.0596373
903 4 0.291307 0.371628 0.00418264
901 2 0.309915 0.355308 0.000638243
1071 4 0.38352 0.330496 0.0415278
955 2 0.351031 0.336934 0.0327678
957 4 0.368194 0.339814 0.0507207
741 4 0.384505 0.337099 0.0592043
739 2 0.389955 0.343293 0.0828073
1304 4 0.388923 0.375285 0.0118384
1303 2 0.380229 0.397312 0.00381337
1788 4 0.0950395 0.464067 0.0816782
1786 2 0.108432 0.481324 0.0695114
625 2 0.163942 0.48595 0.0573626
1690 2 0.119284 0.498166 0.0191459
626 4 0.185795 0.47385 0.0562684
245 4 0.200149 0.464233 0.0465426
244 2 0.221492 0.452726 0.0526467
246 4 0.242835 0.441219 0.0587508
272 4 0.25858 0.432015 0.0495351
271 2 0.269429 0.44161 0.0291531
273 4 0.280277 0.451204 0.00877105
1672 2 0.414395 0.434134 0.0738372
853 2 0.401745 0.447283 0.0191256
855 4 0.383314 0.446942 0.00223244
37 3 0.365097 0.437435 0.00522251
854 4 0.420175 0.447625 0.0360188
1674 4 0.425879 0.437763 0.0519251
564 4 0.435628 0.453859 0.04514
563 4 0.477502 0.472774 0.0254043
562 2 0.456565 0.463317 0.0352722
228 4 0.487581 0.48276 0.011257
19 3 0.0641707 0.00766326 0.155417
578 4 0.0744952 0.0201936 0.168732
577 2 0.087928 0.0410582 0.165664
579 4 0.101361 0.0619227 0.162597
450 4 0.113349 0.063148 0.146486
448 2 0.136529 0.068106 0.154442
582 4 0.238614 0.076722 0.155898
449 4 0.159708 0.073064 0.162398
486 4 0.437435 0.00260672 0.10518
393 4 0.0510428 0.162913 0.170107
312 4 0.354972 0.12852 0.153554
628 2 0.376543 0.157155 0.157464
629 4 0.367726 0.135632 0.166641
310 2 0.344618 0.110424 0.167356
2722 2 0.496262 0.0808836 0.132667
2723 4 0.486087 0.101323 0.122475
391 2 0.0458492 0.187329 0.171533
392 4 0.0406556 0.211746 0.172959
339 4 0.0578822 0.224114 0.171177
2759 4 0.0120466 0.168862 0.125169
755 4 0.243381 0.254608 0.148269
460 2 0.326882 0.229942 0.111569
461 4 0.30652 0.218186 0.103062
354 4 0.287783 0.222444 0.109423
352 2 0.274903 0.234836 0.126908
353 4 0.262023 0.247228 0.144393
462 4 0.347244 0.241698 0.120076
255 4 0.362983 0.238377 0.130201
253 2 0.374446 0.21887 0.140843
622 2 0.376648 0.246374 0.0942022
624 4 0.363225 0.250462 0.114897
254 4 0.385908 0.199363 0.151485
630 4 0.385361 0.178677 0.148288
536 4 0.178033 0.266734 0.139628
535 2 0.18118 0.277737 0.117397
754 2 0.22994 0.275436 0.151544
756 4 0.2165 0.296264 0.154819
301 2 0.318973 0.318318 0.142224
303 4 0.317175 0.301716 0.160834
764 4 0.328868 0.287084 0.159562
284 4 0.272524 0.256178 0.160452
283 2 0.290994 0.272565 0.16439
765 4 0.356769 0.256135 0.131913
763 2 0.342819 0.27161 0.145738
12 3 0.411052 0.324751 0.129178
671 4 0.462319 0.330863 0.0927089
527 4 0.479353 0.323155 0.0883441
526 2 0.501577 0.334296 0.0856678
647 4 0.0667955 0.349799 0.146013
550 2 0.15759 0.357499 0.0882277
551 4 0.140323 0.363925 0.105132
302 4 0.32077 0.33492 0.123614
387 4 0.327039 0.354134 0.120908
385 2 0.351631 0.355642 0.116649
493 2 0.394086 0.389873 0.107329
495 4 0.392556 0.365901 0.11427
386 4 0.376223 0.35715 0.112391
15 3 0.37934 0.343569 0.123422
740 4 0.395406 0.349487 0.10641
14 3 0.412457 0.361077 0.119631
11 1 0.400568 0.345091 0.131527
13 3 0.400065 0.350715 0.154033
494 4 0.395616 0.413845 0.100388
672 4 0.417998 0.341823 0.11311
670 2 0.440159 0.336343 0.102909
596 4 0.499543 0.368415 0.154661
1465 2 0.0700827 0.468398 0.105762
1466 4 0.0482179 0.479395 0.110879
1467 4 0.0919475 0.457402 0.100644
1791 4 0.04314 0.498818 0.111138
290 4 0.219646 0.422159 0.162497
766 2 0.214418 0.46655 0.157483
768 4 0.220069 0.442246 0.15908
250 2 0.258455 0.425606 0.0823848
252 4 0.258348 0.435985 0.105132
609 4 0.277649 0.432184 0.11183
607 2 0.302563 0.432765 0.113859
608 4 0.327478 0.433346 0.115889
1317 4 0.32591 0.507417 0.142732
659 4 0.338967 0.437931 0.0989688
660 4 0.388418 0.433053 0.104581
1673 4 0.402912 0.430505 0.0957493
658 2 0.363692 0.435492 0.101775
524 4 0.410946 0.486974 0.132293
523 2 0.407957 0.464628 0.12148
525 4 0.404969 0.442283 0.110667
1559 4 0.391759 0.488978 0.14172
1558 2 0.367721 0.495074 0.144917
2479 2 0.0211663 0.0181822 0.203946
380 4 0.0163769 0.0595803 0.217529
2481 4 0.0168403 0.0394243 0.216406
379 2 0.0338452 0.0744 0.207508
20 3 0.0767554 0.00864764 0.19089
580 2 0.248078 0.0591494 0.170958
1506 4 0.255841 0.0149186 0.210667
581 4 0.257543 0.0415768 0.186018
654 4 0.259565 0.0327611 0.203294
652 2 0.27217 0.0362732 0.2246
653 4 0.284775 0.0397852 0.245906
758 4 0.327864 0.078041 0.193931
759 4 0.367405 0.0670594 0.222508
757 2 0.347635 0.0725502 0.20822
350 4 0.374144 0.0559103 0.237113
349 2 0.397327 0.0514444 0.228881
22 3 0.36294 0.0538339 0.253268
632 4 0.369532 0.0692398 0.243121
25 3 0.353755 0.0212808 0.237494
480 4 0.437496 0.0452495 0.229752
351 4 0.420511 0.0469785 0.220649
513 4 0.0365592 0.149488 0.167519
511 2 0.0401407 0.128561 0.180724
512 4 0.0437222 0.107633 0.193929
381 4 0.0513134 0.0892197 0.197487
237 4 0.22349 0.0891719 0.148937
235 2 0.199571 0.087885 0.156104
236 4 0.175651 0.0865981 0.163271
30 3 0.354536 0.158992 0.24966
311 4 0.334263 0.0923277 0.181158
26 1 0.369218 0.143507 0.241704
28 3 0.360476 0.133293 0.222791
761 4 0.410418 0.114109 0.204778
27 3 0.388931 0.153943 0.23608
333 4 0.490897 0.0773342 0.238385
521 4 0.468115 0.140279 0.227619
762 4 0.456302 0.129122 0.217814
760 2 0.43336 0.121615 0.211296
332 4 0.466678 0.120551 0.231568
331 2 0.478787 0.0989424 0.234977
520 2 0.485015 0.158433 0.224456
337 2 0.0640664 0.246184 0.18117
396 4 0.013247 0.253228 0.247266
546 4 0.0840325 0.24896 0.235667
544 2 0.107755 0.249789 0.243523
279 4 0.252343 0.216912 0.200102
277 2 0.253953 0.232844 0.1809
278 4 0.255564 0.248777 0.161697
522 4 0.501914 0.176587 0.221293
394 2 0.0301735 0.260176 0.230224
395 4 0.0471001 0.267123 0.213183
338 4 0.0702506 0.268253 0.191163
363 4 0.0650264 0.277547 0.207847
361 2 0.0732665 0.300527 0.202441
362 4 0.0815066 0.323506 0.197035
545 4 0.131478 0.250617 0.251379
372 4 0.0970289 0.33063 0.189383
612 4 0.223516 0.296804 0.174076
611 4 0.226672 0.321564 0.217408
610 2 0.225094 0.309184 0.195742
344 4 0.226109 0.31218 0.233933
343 2 0.204951 0.310937 0.247199
285 4 0.309464 0.288952 0.168328
729 4 0.310439 0.306346 0.178297
727 2 0.294514 0.320814 0.191034
308 4 0.323568 0.291986 0.176815
498 4 0.336606 0.30063 0.22605
307 2 0.338399 0.291562 0.196941
309 4 0.353231 0.291137 0.217066
749 4 0.0658918 0.335791 0.203807
648 4 0.080656 0.342308 0.193474
748 2 0.0699208 0.348555 0.224927
646 2 0.0737257 0.346053 0.169743
750 4 0.0739497 0.36132 0.246046
733 2 0.153028 0.332583 0.244112
370 2 0.117038 0.339147 0.201722
371 4 0.137048 0.347664 0.214062
734 4 0.139611 0.350827 0.233514
417 4 0.136838 0.364892 0.224342
299 4 0.137143 0.369652 0.242378
415 2 0.152905 0.380134 0.212735
298 2 0.113616 0.367035 0.250429
416 4 0.168972 0.395376 0.201129
289 2 0.202169 0.412776 0.177718
291 4 0.184692 0.403393 0.192939
728 4 0.278588 0.335282 0.20377
445 2 0.388771 0.378561 0.226421
447 4 0.410346 0.381871 0.214226
446 4 0.367196 0.375251 0.238617
644 4 0.426658 0.371336 0.21092
595 2 0.493276 0.384107 0.173092
643 2 0.446395 0.383839 0.202015
645 4 0.466132 0.396343 0.19311
597 4 0.487009 0.399799 0.191522
767 4 0.208767 0.490854 0.155886
412 2 0.244357 0.485497 0.243567
414 4 0.236022 0.492754 0.221139
229 2 0.451163 0.483749 0.210644
231 4 0.466219 0.466042 0.219859
234 4 0.0165506 0.0553344 0.292158
232 2 0.035596 0.039628 0.296129
233 4 0.0546413 0.0239217 0.300099
317 4 0.0661003 0.022492 0.315182
1404 4 0.0693575 0.0106322 0.301194
1402 2 0.0850249 6.42129e-05 0.284822
428 4 0.0646101 0.00477712 0.321373
693 4 0.323097 0.0518014 0.272192
691 2 0.311921 0.0699176 0.28531
24 3 0.327673 0.0411333 0.256021
21 1 0.350018 0.0349169 0.255347
23 3 0.3558 0.0240045 0.274991
257 4 0.424543 0.0710093 0.32309
479 4 0.457547 0.0381096 0.275004
478 2 0.447522 0.0416795 0.252378
2664 4 0.47447 0.0293374 0.275664
1428 4 0.458166 0.026721 0.287752
258 4 0.454915 0.046259 0.292015
2662 2 0.498096 0.0334373 0.282747
256 2 0.439729 0.0586341 0.307553
1426 2 0.448984 0.00632487 0.298927
403 2 0.224749 0.149398 0.321114
404 4 0.244014 0.134463 0.326677
405 4 0.205484 0.164334 0.31555
692 4 0.300745 0.0880337 0.298428
721 2 0.269862 0.10489 0.311431
723 4 0.281276 0.0872841 0.297833
722 4 0.258448 0.122497 0.325029
29 3 0.373548 0.127586 0.258019
631 2 0.370484 0.0905096 0.256231
707 4 0.359643 0.124091 0.271846
633 4 0.371436 0.111779 0.269341
706 2 0.360805 0.130749 0.295919
708 4 0.361968 0.137407 0.319992
444 4 0.00366337 0.23752 0.31021
442 2 0.00959098 0.248015 0.288303
443 4 0.0155186 0.25851 0.266397
600 4 0.113349 0.214947 0.328015
473 4 0.201383 0.176899 0.331042
269 4 0.419222 0.233667 0.328488
419 4 0.40016 0.232568 0.335153
402 4 0.149628 0.250943 0.260732
375 4 0.177058 0.319699 0.33484
400 2 0.161051 0.27308 0.258576
735 4 0.166446 0.31434 0.254711
401 4 0.172474 0.295217 0.256421
676 2 0.172114 0.315364 0.294065
677 4 0.167481 0.304975 0.271798
345 4 0.183794 0.309694 0.260466
678 4 0.176748 0.325752 0.316331
378 4 0.266728 0.310696 0.290599
376 2 0.291531 0.313839 0.290237
377 4 0.316333 0.316983 0.289875
615 4 0.325935 0.330011 0.299643
497 4 0.325416 0.311196 0.27363
418 2 0.394424 0.253287 0.322386
496 2 0.331011 0.305913 0.24984
541 2 0.352981 0.299344 0.299251
542 4 0.373441 0.286555 0.305807
543 4 0.33252 0.312133 0.292695
420 4 0.388687 0.274006 0.30962
2537 4 0.502056 0.325655 0.33814
364 2 0.998285 0.400625 0.294455
365 4 0.0118181 0.421378 0.291088
601 2 0.045643 0.413364 0.31879
300 4 0.0900891 0.364419 0.258479
510 4 0.191479 0.339527 0.310206
508 2 0.201446 0.361875 0.315348
509 4 0.211413 0.384222 0.320491
434 4 0.323864 0.384349 0.315404
433 2 0.309353 0.404706 0.315843
613 2 0.32901 0.350611 0.313477
614 4 0.332085 0.37121 0.327312
2 3 0.279479 0.413195 0.321069
603 4 0.0306751 0.414569 0.298798
1757 4 0.0141773 0.424496 0.27148
1756 2 0.0304423 0.443469 0.272285
1758 4 0.0467073 0.462442 0.27309
1775 4 0.0640822 0.46221 0.283057
775 2 0.0482985 0.480793 0.31251
777 4 0.0482524 0.471071 0.289474
1776 4 0.111374 0.455381 0.268306
1774 2 0.0877278 0.458795 0.275681
413 4 0.252691 0.478239 0.265996
4 3 0.246759 0.423189 0.305506
1436 4 0.244072 0.48846 0.281301
1435 2 0.248883 0.467892 0.29468
1437 4 0.253695 0.447324 0.30806
3 3 0.267908 0.448841 0.323922
1 1 0.261008 0.426691 0.323482
436 2 0.302703 0.458686 0.317328
438 4 0.284406 0.442069 0.321108
435 4 0.294843 0.425064 0.316282
437 4 0.320999 0.475303 0.313547
1802 4 0.337339 0.475402 0.303411
1801 2 0.354739 0.483341 0.319517
1803 4 0.372139 0.491279 0.335623
593 4 0.376618 0.474569 0.344608
119 3 0.478155 0.458434 0.333087
316 2 0.0789014 0.0388895 0.329054
318 4 0.0917025 0.055287 0.342926
732 4 0.0952263 0.0698073 0.355222
730 2 0.12006 0.0677886 0.357322
731 4 0.144893 0.06577 0.359422
399 4 0.0770755 0.0646791 0.351441
606 4 0.161582 0.0602084 0.350848
604 2 0.183878 0.070971 0.354344
605 4 0.206175 0.0817337 0.35784
1701 4 0.373281 0.00460927 0.394613
699 4 0.373658 0.0636962 0.361776
1699 2 0.375375 0.0246265 0.379778
1700 4 0.37747 0.0446438 0.364942
697 2 0.396558 0.0671219 0.352341
962 4 0.351533 0.00877884 0.4161
425 4 0.36985 0.998621 0.413515
698 4 0.419458 0.0705477 0.342906
397 2 0.0659003 0.0866907 0.355414
398 4 0.0547251 0.108702 0.359387
2584 2 0.0224599 0.119042 0.359425
2586 4 0.0438848 0.121094 0.372151
458 4 0.0429559 0.126332 0.390553
457 2 0.0446352 0.14533 0.406722
249 4 0.250355 0.120752 0.341652
248 4 0.21838 0.0924925 0.367723
247 2 0.234368 0.106622 0.354687
683 4 0.257326 0.137705 0.338778
682 2 0.276557 0.153559 0.340786
684 4 0.295788 0.169412 0.342794
319 2 0.333559 0.163087 0.340631
321 4 0.353463 0.149825 0.333342
726 4 0.397001 0.138979 0.393046
717 4 0.370223 0.153255 0.34384
715 2 0.37827 0.154029 0.3675
716 4 0.386317 0.154803 0.391161
467 4 0.39362 0.152018 0.408511
642 4 0.501235 0.126082 0.386119
641 4 0.491528 0.152012 0.344477
640 2 0.496382 0.139047 0.365298
459 4 0.0463145 0.164328 0.422891
598 2 0.123085 0.216044 0.351019
599 4 0.13282 0.217142 0.374024
686 4 0.129888 0.229294 0.388743
685 2 0.112081 0.224898 0.405736
275 4 0.146131 0.227855 0.383787
389 4 0.139693 0.245765 0.384432
274 2 0.169262 0.219144 0.387562
474 4 0.200073 0.202557 0.373944
472 2 0.200728 0.189728 0.352493
276 4 0.192393 0.210433 0.391337
320 4 0.313655 0.176349 0.34792
268 2 0.441085 0.227087 0.33868
270 4 0.462949 0.220506 0.348871
452 4 0.472921 0.224001 0.365194
451 2 0.469192 0.217511 0.389051
453 4 0.465463 0.211021 0.412908
2802 4 0.000971729 0.290163 0.405893
347 4 0.0629039 0.313604 0.390645
346 2 0.0386139 0.308864 0.39421
618 4 0.0726168 0.302837 0.375344
348 4 0.014324 0.304123 0.397775
616 2 0.0975511 0.304422 0.374371
373 2 0.158428 0.311524 0.349376
388 2 0.138208 0.270695 0.38322
390 4 0.136722 0.295625 0.382009
617 4 0.122485 0.306006 0.373397
374 4 0.139799 0.30335 0.363912
488 4 0.398064 0.272309 0.392197
487 2 0.388069 0.262715 0.413011
602 4 0.0606109 0.412159 0.338782
549 4 0.0549738 0.405917 0.355788
547 2 0.0637657 0.417317 0.376231
5 3 0.250394 0.421471 0.342943
335 4 0.313821 0.364978 0.404937
240 4 0.315269 0.382071 0.392743
238 2 0.332923 0.388952 0.376428
239 4 0.350578 0.395832 0.360114
587 4 0.356458 0.411441 0.349464
752 4 0.461152 0.388317 0.388571
561 4 0.44712 0.374876 0.392813
751 2 0.470876 0.407388 0.375652
559 2 0.457351 0.367636 0.414449
776 4 0.0483447 0.490515 0.335546
500 4 0.0633745 0.478095 0.340337
499 2 0.0679395 0.471767 0.364092
501 4 0.0725046 0.465439 0.387846
407 4 0.0774114 0.447646 0.394598
548 4 0.0725576 0.428716 0.396674
406 2 0.0963251 0.454815 0.409297
568 2 0.141033 0.488786 0.426981
1555 2 0.23523 0.483686 0.396079
1557 4 0.251939 0.472151 0.41067
636 4 0.254978 0.488566 0.423735
588 4 0.3788 0.455206 0.340179
586 2 0.367629 0.433324 0.344822
592 2 0.396518 0.486907 0.353381
2862 4 0.49159 0.472905 0.344538
594 4 0.416418 0.499244 0.362154
116 1 0.489624 0.448672 0.350738
713 4 0.43092 0.495176 0.348812
712 2 0.451022 0.480341 0.349808
714 4 0.471125 0.465506 0.350803
753 4 0.4806 0.42646 0.362734
117 3 0.47652 0.449729 0.369614
718 2 0.0219873 0.00673368 0.463205
369 4 0.0626623 0.0268593 0.462666
367 2 0.0826352 0.0168442 0.451442
719 4 0.0446244 0.0172332 0.464786
1781 4 0.121197 0.0053218 0.437143
368 4 0.102608 0.00682914 0.440219
342 4 0.220856 0.0487581 0.508869
340 2 0.215574 0.0269629 0.497813
341 4 0.210292 0.00516776 0.486756
963 4 0.324391 0.0490127 0.428153
432 4 0.315215 0.0590715 0.442865
430 2 0.318756 0.0600274 0.467598
961 2 0.337962 0.0288958 0.422127
431 4 0.322297 0.0609834 0.492331
1217 4 0.403847 0.0696782 0.520734
842 4 0.387693 0.0650074 0.510755
724 2 0.398364 0.117956 0.406513
725 4 0.399727 0.0969322 0.419979
2657 4 0.484087 0.123892 0.447281
260 4 0.0439918 0.183407 0.424849
259 2 0.0598049 0.20275 0.425849
261 4 0.0756181 0.222092 0.426849
687 4 0.094274 0.220502 0.422729
1035 4 0.0880781 0.224335 0.440944
1033 2 0.0922678 0.244407 0.455254
409 2 0.396463 0.218507 0.447915
411 4 0.379719 0.236283 0.442542
466 2 0.403144 0.169086 0.424104
410 4 0.413206 0.200731 0.453288
266 4 0.378303 0.253171 0.453094
468 4 0.412668 0.186154 0.439698
574 2 0.419707 0.17034 0.479854
515 4 0.472568 0.203316 0.430034
575 4 0.421792 0.192667 0.468793
516 4 0.427828 0.192634 0.449654
514 2 0.450198 0.197975 0.439844
1034 4 0.0964576 0.264478 0.469564
696 4 0.109199 0.271902 0.48178
1260 4 0.107546 0.277451 0.461864
1258 2 0.115811 0.300713 0.457894
1259 4 0.124077 0.323975 0.453925
9 3 0.156392 0.315993 0.419234
489 4 0.378073 0.253121 0.433825
265 2 0.384974 0.267362 0.472569
267 4 0.391646 0.281552 0.492045
3308 4 0.469499 0.322584 0.48534
1011 4 0.458768 0.321543 0.502704
1009 2 0.47152 0.300315 0.506159
1010 4 0.484272 0.279087 0.509615
326 4 0.0755085 0.359449 0.435438
503 4 0.134812 0.335359 0.458136
7 3 0.134715 0.336444 0.442136
6 1 0.148322 0.337303 0.423609
327 4 0.118686 0.336752 0.44645
325 2 0.0970972 0.348101 0.440944
10 3 0.136292 0.344862 0.405811
709 2 0.146563 0.405475 0.497576
502 2 0.140379 0.348193 0.47886
8 3 0.165977 0.351726 0.427931
334 2 0.309681 0.377222 0.42634
336 4 0.305542 0.389466 0.447744
668 4 0.296436 0.399606 0.460929
882 4 0.313801 0.394311 0.466064
880 2 0.330788 0.387683 0.483172
3309 4 0.479097 0.346613 0.442547
560 4 0.467583 0.360397 0.436084
3307 2 0.474298 0.334598 0.463943
680 4 0.987753 0.45914 0.448503
1381 2 0.00452578 0.492078 0.458608
1383 4 0.00144674 0.473476 0.442186
711 4 0.141644 0.429909 0.495595
408 4 0.115239 0.461983 0.423996
383 4 0.122077 0.449259 0.435779
384 4 0.126773 0.434122 0.483209
569 4 0.128494 0.468897 0.435489
382 2 0.124425 0.44169 0.459494
773 4 0.327383 0.484128 0.490598
635 4 0.274503 0.463186 0.462145
669 4 0.276728 0.445234 0.466441
774 4 0.292435 0.455699 0.468892
772 2 0.309909 0.469914 0.479745
667 2 0.286582 0.42242 0.463685
634 2 0.26474 0.475876 0.44294
663 4 0.456299 0.477211 0.478549
1058 4 0.103254 0.0897651 0.520864
1152 4 0.228905 0.0661562 0.510181
1150 2 0.235884 0.0677165 0.53414
1151 4 0.242863 0.0692768 0.558099
1032 4 0.238602 0.0722119 0.57821
1181 4 0.237193 0.0858766 0.56519
841 2 0.362808 0.0635233 0.508827
843 4 0.337923 0.0620392 0.5069
1216 2 0.428534 0.0672227 0.523846
1218 4 0.453221 0.0647672 0.526959
1270 2 0.0865337 0.152706 0.569287
1271 4 0.0967357 0.130295 0.573626
1057 2 0.102409 0.101638 0.542853
1059 4 0.101565 0.11351 0.564842
1155 4 0.113552 0.127239 0.573248
939 4 0.102315 0.115674 0.583841
1153 2 0.137575 0.126554 0.58015
1154 4 0.161597 0.12587 0.587053
1180 2 0.233223 0.108925 0.574033
898 2 0.24847 0.163402 0.56142
900 4 0.238833 0.147911 0.578517
1221 4 0.168657 0.144021 0.584937
1219 2 0.193562 0.14572 0.583509
1220 4 0.218467 0.14742 0.582081
1182 4 0.229252 0.131972 0.582877
576 4 0.417621 0.148013 0.490915
1199 4 0.0291228 0.200387 0.558116
877 2 0.0629737 0.200574 0.554156
1272 4 0.0763316 0.175118 0.564949
878 4 0.043578 0.21554 0.559155
1198 2 0.00843007 0.209847 0.547748
879 4 0.0823695 0.185607 0.549158
651 4 0.210509 0.225228 0.531315
858 4 0.201306 0.237631 0.518928
649 2 0.229772 0.209344 0.532672
650 4 0.249034 0.19346 0.534028
856 2 0.189433 0.247059 0.538811
899 4 0.258108 0.178894 0.544323
984 4 0.997952 0.306436 0.574789
695 4 0.113014 0.256188 0.529101
694 2 0.111106 0.264045 0.50544
946 2 0.171721 0.285391 0.574109
857 4 0.177559 0.256487 0.558693
947 4 0.189271 0.268836 0.567545
798 4 0.206162 0.273502 0.577341
796 2 0.228144 0.284195 0.572086
797 4 0.250127 0.294888 0.56683
872 4 0.363267 0.306512 0.568872
2455 2 0.508658 0.258886 0.498521
2457 4 0.492905 0.276974 0.49146
954 4 0.493853 0.28994 0.560087
952 2 0.489404 0.304728 0.579752
3263 4 0.0406916 0.336115 0.569456
3262 2 0.0495924 0.352894 0.585717
710 4 0.151481 0.38104 0.499557
504 4 0.145946 0.361026 0.499584
1189 2 0.254438 0.371947 0.583295
1191 4 0.234549 0.380084 0.596077
804 4 0.277106 0.368931 0.502317
803 4 0.279765 0.360253 0.551493
802 2 0.278435 0.364592 0.526905
1190 4 0.274326 0.363809 0.570512
1238 4 0.288985 0.356359 0.567604
1237 2 0.3135 0.3592 0.571617
1239 4 0.338015 0.362042 0.575631
930 4 0.34772 0.372364 0.561791
929 4 0.359007 0.385354 0.514838
928 2 0.353364 0.378859 0.538315
881 4 0.347775 0.381056 0.500281
1081 2 0.0565488 0.0839426 0.641597
1082 4 0.0638837 0.0732882 0.662995
1126 2 0.0256816 0.0850121 0.593851
1128 4 0.00231575 0.0836518 0.585055
1030 2 0.249045 0.0529869 0.590315
1031 4 0.259487 0.033762 0.60242
2133 4 0.176331 0.0183842 0.668125
2131 2 0.183997 0.00652916 0.647489
951 4 0.271215 0.0172082 0.596891
949 2 0.295104 0.0150832 0.603959
950 4 0.318993 0.0129582 0.611027
1226 4 0.272901 0.0755785 0.649715
3008 4 0.49193 0.0302072 0.598414
809 4 0.487772 0.0265338 0.617647
808 2 0.47796 0.0412454 0.635324
810 4 0.468149 0.0559569 0.653001
45 3 0.469988 0.077526 0.647577
1083 4 0.0492139 0.094597 0.620199
1127 4 0.0490474 0.0863723 0.602646
938 4 0.0660259 0.0934122 0.610075
937 2 0.0841706 0.104543 0.596958
1210 2 0.239131 0.140992 0.618888
1212 4 0.231431 0.147808 0.596096
908 4 0.238306 0.121827 0.655307
907 2 0.215596 0.121517 0.665763
1211 4 0.246831 0.134177 0.641679
1227 4 0.25654 0.122832 0.650038
888 4 0.261601 0.14042 0.655348
886 2 0.283716 0.150081 0.661885
887 4 0.305832 0.159743 0.668421
1225 2 0.26472 0.0992054 0.649876
3425 4 0.482914 0.0870356 0.66306
1244 4 0.0471729 0.226166 0.576063
1243 2 0.0504047 0.250205 0.582136
1194 4 0.316711 0.166334 0.654227
1192 2 0.320675 0.187837 0.642098
1193 4 0.324639 0.209339 0.629969
3123 4 0.489269 0.210732 0.621809
982 2 0.0178665 0.295144 0.584844
983 4 0.0377806 0.283853 0.5949
1245 4 0.0536364 0.274243 0.588209
948 4 0.15417 0.301945 0.580674
1136 4 0.153344 0.306662 0.600528
1135 2 0.162046 0.324349 0.615911
790 2 0.272364 0.319808 0.578587
791 4 0.26487 0.295957 0.57897
871 2 0.377405 0.313629 0.588227
873 4 0.391543 0.320746 0.607583
813 4 0.396343 0.323641 0.627246
953 4 0.484955 0.319516 0.599417
3112 2 0.483162 0.273865 0.662506
1041 4 0.0664112 0.381391 0.614428
3264 4 0.0584933 0.369673 0.601978
3240 4 0.0494791 0.387714 0.608331
3238 2 0.0296308 0.402519 0.604863
3239 4 0.00978253 0.417325 0.601394
1039 2 0.0899823 0.387066 0.620541
1040 4 0.113553 0.392741 0.626655
993 4 0.133935 0.394353 0.627072
991 2 0.149959 0.375497 0.630654
822 4 0.160653 0.342999 0.646972
992 4 0.165984 0.356641 0.634237
1137 4 0.170748 0.342035 0.631294
1064 4 0.179438 0.352718 0.643907
897 4 0.18347 0.359538 0.626904
896 4 0.212867 0.377478 0.590646
895 2 0.198169 0.368508 0.608775
1172 4 0.222267 0.393632 0.591586
1063 2 0.197346 0.35596 0.661053
792 4 0.279858 0.343659 0.578204
811 2 0.397359 0.347295 0.635284
927 4 0.393124 0.38883 0.64947
812 4 0.398376 0.37095 0.643321
925 2 0.409731 0.400373 0.634769
1206 4 0.380964 0.37372 0.650329
906 4 0.487404 0.338209 0.605111
926 4 0.426339 0.411916 0.620067
539 4 0.078855 0.442575 0.583879
2244 4 0.113971 0.484799 0.600179
1160 4 0.12528 0.483208 0.61573
540 4 0.11373 0.467969 0.60917
538 2 0.0962927 0.455272 0.596524
1159 2 0.149885 0.483899 0.620124
1171 2 0.225609 0.415012 0.604112
1186 2 0.201991 0.468795 0.632762
1173 4 0.228952 0.436393 0.616637
1187 4 0.219243 0.452424 0.625047
1188 4 0.18474 0.485167 0.640478
1161 4 0.174489 0.48459 0.624518
1029 4 0.239163 0.422137 0.666509
1002 4 0.430895 0.426551 0.63263
1911 4 0.435407 0.491285 0.620757
1001 4 0.43675 0.476214 0.632398
1000 2 0.433823 0.451383 0.632514
1269 4 0.451291 0.489725 0.631741
944 4 0.04719 0.0388692 0.664413
943 2 0.0347439 0.0183763 0.671507
1076 4 0.0604985 0.0539821 0.670437
1075 2 0.0626923 0.0637428 0.693352
864 4 0.0649534 0.0699272 0.734699
862 2 0.0443689 0.0736604 0.748393
1077 4 0.064886 0.0735034 0.716267
825 4 0.144011 0.0683791 0.678849
823 2 0.16181 0.0508195 0.67865
1106 4 0.119138 0.0752116 0.754746
1148 4 0.263811 0.0705352 0.666937
2256 4 0.171911 0.0194074 0.68793
824 4 0.179609 0.0332599 0.678452
2254 2 0.164672 0.997657 0.697914
1147 2 0.255918 0.046843 0.665686
1149 4 0.248025 0.0231508 0.664436
1004 4 0.356201 0.0878758 0.754076
41 1 0.461026 0.0753355 0.668399
43 3 0.439612 0.0842621 0.668781
42 3 0.459877 0.0530153 0.673843
1163 4 0.473442 0.0641696 0.689543
1162 2 0.486379 0.0537061 0.708207
851 4 0.0680595 0.0901219 0.708641
850 2 0.0722241 0.114737 0.710036
852 4 0.0763887 0.139352 0.711431
1107 4 0.0802504 0.0806163 0.723774
1283 4 0.148958 0.0868414 0.679063
1282 2 0.16311 0.106441 0.67268
1105 2 0.0996942 0.0779139 0.73926
1284 4 0.177263 0.126041 0.666297
909 4 0.192886 0.121208 0.676219
830 4 0.321752 0.154053 0.6679
829 2 0.336159 0.142482 0.684743
1005 4 0.346949 0.115151 0.713197
1003 2 0.351575 0.101514 0.733636
831 4 0.350566 0.13091 0.701587
44 3 0.474404 0.0861716 0.683955
3268 2 0.482461 0.13195 0.742353
3270 4 0.487309 0.14847 0.724221
1214 4 0.00275384 0.196149 0.744148
1073 4 0.0697701 0.254508 0.744462
1215 4 0.013195 0.243895 0.733567
1213 2 0.0079744 0.220022 0.738858
977 4 0.311382 0.251761 0.743484
1297 2 0.290657 0.213692 0.73783
1298 4 0.305209 0.233663 0.741651
918 4 0.292514 0.249453 0.744183
1299 4 0.276105 0.193722 0.734009
1025 4 0.384161 0.19189 0.706855
1024 2 0.406091 0.193712 0.718728
976 2 0.335841 0.250712 0.738402
1020 4 0.380047 0.243503 0.738455
1142 4 0.430625 0.196541 0.749505
1144 2 0.459115 0.182515 0.732238
1262 4 0.430103 0.213272 0.740326
1026 4 0.42802 0.195535 0.7306
1145 4 0.444893 0.202657 0.736389
1146 4 0.473337 0.162373 0.728088
1261 2 0.439611 0.236212 0.743242
1178 4 0.0137703 0.262646 0.737101
1177 2 0.0378538 0.267527 0.741721
1179 4 0.0619374 0.272408 0.74634
1072 2 0.0939634 0.257889 0.739131
1208 4 0.129496 0.272935 0.724568
1074 4 0.118157 0.261271 0.733799
1207 2 0.12929 0.295201 0.713193
821 4 0.138245 0.327185 0.688788
1209 4 0.129084 0.317466 0.701818
1130 4 0.138669 0.260782 0.735924
815 4 0.117084 0.331409 0.710706
806 4 0.26022 0.313027 0.678051
978 4 0.3603 0.249662 0.73332
1263 4 0.449118 0.259153 0.746158
3114 4 0.464419 0.290386 0.661554
892 2 0.0351521 0.347778 0.71511
1280 4 0.0646675 0.368561 0.72109
816 4 0.0737997 0.356449 0.710273
894 4 0.0598221 0.348448 0.719125
893 4 0.0104822 0.347108 0.711094
820 2 0.149449 0.335092 0.66788
942 4 0.135635 0.334173 0.708249
1279 2 0.0715099 0.389183 0.733464
814 2 0.0954419 0.343929 0.710489
940 2 0.150614 0.349884 0.720658
1078 2 0.170423 0.399991 0.744828
941 4 0.165592 0.365595 0.733066
1080 4 0.175882 0.375604 0.745639
805 2 0.242173 0.329308 0.683918
1065 4 0.215254 0.359201 0.678199
807 4 0.224127 0.345589 0.689786
1028 4 0.225053 0.376893 0.682468
1066 2 0.202302 0.364176 0.713099
1068 4 0.220465 0.363981 0.695916
1027 2 0.232108 0.399515 0.674488
1067 4 0.18414 0.36437 0.730282
1204 2 0.365599 0.38694 0.664969
1205 4 0.350235 0.40016 0.679609
1079 4 0.164964 0.424378 0.744017
1174 2 0.178031 0.487203 0.730255
1175 4 0.174769 0.487907 0.705475
2172 4 0.184737 0.503605 0.696803
1140 4 0.243714 0.431675 0.683233
1228 2 0.314681 0.451288 0.684922
1138 2 0.259956 0.447991 0.692988
1139 4 0.276197 0.464308 0.702742
1987 2 0.314765 0.459644 0.740409
1229 4 0.296982 0.459869 0.700359
1989 4 0.305743 0.463 0.717333
2028 4 0.291684 0.473683 0.708198
1230 4 0.33238 0.442708 0.669485
2026 2 0.284684 0.497398 0.704485
1099 2 0.49254 0.48951 0.707912
2989 2 0.0179105 0.0475667 0.788073
2990 4 0.0187605 0.0707746 0.778808
2991 4 0.0170605 0.0243588 0.797339
863 4 0.0237845 0.0773936 0.762087
3083 4 0.00476547 0.0769306 0.76584
833 4 0.0153879 0.0894221 0.776351
2049 4 0.101255 0.00535604 0.789523
1202 4 0.109899 0.0221982 0.784444
1201 2 0.117275 0.0460631 0.783328
1203 4 0.124651 0.069928 0.782213
32 3 0.145173 0.0738347 0.791532
1085 4 0.309754 0.0666637 0.801342
960 4 0.314209 0.0669787 0.819953
819 4 0.327018 0.0605363 0.804916
1050 4 0.347518 0.00165147 0.789184
817 2 0.338649 0.0403599 0.795817
818 4 0.35028 0.0201835 0.786717
974 4 0.353881 0.0113225 0.804469
2320 2 0.488534 0.0515552 0.768161
844 2 0.488297 0.0626665 0.832597
845 4 0.481958 0.0637814 0.808436
2322 4 0.481058 0.0622298 0.789499
1112 4 0.473029 0.078166 0.79666
832 2 0.0195502 0.107547 0.793064
834 4 0.0237124 0.125671 0.809778
1125 4 0.0353076 0.140867 0.816058
34 3 0.118091 0.088431 0.769941
911 4 0.141106 0.0889769 0.808319
31 1 0.137531 0.0931705 0.781689
35 3 0.133268 0.108637 0.797852
33 3 0.153801 0.101145 0.767194
910 2 0.140916 0.0898437 0.833307
1256 4 0.219792 0.13408 0.819672