ITEM: TIMESTEP
740000
ITEM: NUMBER OF ATOMS
4590
ITEM: BOX BOUNDS pp pp pp
-9.9985700000000008e+00 9.9985700000000008e+00
-9.9985700000000008e+00 9.9985700000000008e+00
-9.9985700000000008e+00 9.9985700000000008e+00
ITEM: ATOMS id type xs ys zs
1668 4 0.0870213 0.035173 0.0686366
1475 4 0.285497 0.0209491 0.0665453
492 4 0.282883 0.0403653 0.0696036
297 4 0.318583 0.0810313 0.0513435
987 4 0.406333 0.0114122 0.999073
486 4 0.365009 0.000570685 0.0843207
985 2 0.419338 0.0326754 0.00105792
747 4 0.446529 0.0574197 0.0178484
2974 2 0.470863 0.0236883 0.0284287
2976 4 0.487222 0.00749686 0.0381971
2468 4 0.496296 0.00586581 0.0547009
2975 4 0.454505 0.0398797 0.0186603
986 4 0.432342 0.0539386 0.00304287
745 2 0.436359 0.0799944 0.0213318
463 2 0.0610948 0.0808403 0.998421
465 4 0.0520658 0.0946122 0.017236
567 4 0.201685 0.143223 0.0565353
566 4 0.163919 0.172534 0.0712099
565 2 0.182802 0.157878 0.0638726
295 2 0.340831 0.0878392 0.0605015
358 2 0.325073 0.141072 0.066964
359 4 0.328843 0.122941 0.0837628
360 4 0.321302 0.159204 0.0501651
296 4 0.363078 0.0946471 0.0696595
557 4 0.366714 0.100119 0.0501897
556 2 0.388646 0.106637 0.0401043
558 4 0.410577 0.113155 0.0300189
769 2 0.413563 0.157226 0.0598096
746 4 0.426188 0.102569 0.0248152
771 4 0.437687 0.158066 0.0663295
554 4 0.0581028 0.237614 0.0167857
553 2 0.06732 0.259535 0.0245108
666 4 0.345288 0.194679 0.00794493
664 2 0.342754 0.207724 0.0291247
665 4 0.340221 0.220769 0.0503045
770 4 0.389439 0.156386 0.0532898
323 4 0.415349 0.238916 0.0627349
322 2 0.427556 0.248798 0.0432798
555 4 0.0765372 0.281456 0.032236
293 4 0.160422 0.292706 0.0290802
507 4 0.163681 0.306193 0.0431174
287 4 0.161952 0.326361 0.0452335
292 2 0.151414 0.291862 0.0057706
505 2 0.177344 0.291128 0.0576617
483 4 0.210561 0.280662 0.078061
506 4 0.191008 0.276063 0.072206
481 2 0.233835 0.271897 0.0754828
573 4 0.272797 0.267327 0.0591666
482 4 0.25711 0.263133 0.0729046
572 4 0.303423 0.269491 0.0196938
571 2 0.28811 0.268409 0.0394302
357 4 0.290243 0.281619 0.0106953
1069 2 0.384308 0.288359 0.0226613
1070 4 0.406129 0.300566 0.0228332
1071 4 0.362487 0.276152 0.0224894
324 4 0.439764 0.25868 0.0238248
671 4 0.446012 0.335908 0.0686365
280 2 0.437367 0.310491 0.0358115
281 4 0.448165 0.319705 0.0563948
282 4 0.426568 0.301277 0.0152282
330 4 0.0160983 0.416186 0.0113377
551 4 0.0672365 0.398492 0.0561665
550 2 0.0903641 0.397162 0.0655755
552 4 0.113492 0.395833 0.0749844
288 4 0.184817 0.367091 0.0273733
286 2 0.173385 0.346726 0.0363034
456 4 0.17604 0.408859 0.0793336
250 2 0.299502 0.407597 0.0234291
252 4 0.296964 0.411244 0.0480348
251 4 0.30204 0.40395 0.998823
957 4 0.339627 0.340344 0.0158368
741 4 0.351285 0.330512 0.0530648
739 2 0.355427 0.332443 0.0776472
245 4 0.217414 0.442919 0.0601376
626 4 0.217846 0.436431 0.0792745
244 2 0.232167 0.44771 0.040527
246 4 0.24692 0.452501 0.0209165
625 2 0.201984 0.453421 0.0884895
609 4 0.2954 0.420425 0.0677972
607 2 0.316223 0.426286 0.0803359
525 4 0.36169 0.508922 0.0699296
563 4 0.465189 0.49282 0.0535953
228 4 0.466947 0.473103 0.0582807
226 2 0.472721 0.455802 0.0753842
19 3 0.0401833 0.0782878 0.144299
1666 2 0.0811427 0.0533026 0.0848212
1667 4 0.075264 0.0714321 0.101006
701 4 0.0950102 0.0792235 0.0994598
448 2 0.169796 0.070592 0.150672
450 4 0.172672 0.045758 0.1511
490 2 0.275925 0.0573596 0.0865732
652 2 0.299996 0.0179576 0.157501
653 4 0.316711 0.0311377 0.144383
491 4 0.268968 0.074354 0.103543
311 4 0.397433 0.0640646 0.165928
310 2 0.406588 0.0796121 0.148617
2722 2 0.477915 0.0479844 0.125704
2723 4 0.466389 0.0645201 0.11091
2724 4 0.489442 0.0314487 0.140499
1760 4 0.49511 0.0152114 0.147718
2744 4 0.495381 0.0308701 0.159461
380 4 0.995988 0.145313 0.161901
700 2 0.097591 0.102413 0.108446
702 4 0.100172 0.125603 0.117432
476 4 0.0935061 0.126314 0.135049
475 2 0.108011 0.138751 0.151176
237 4 0.180544 0.149939 0.152342
449 4 0.166921 0.0954261 0.150244
235 2 0.172703 0.128308 0.142555
236 4 0.164862 0.106676 0.132769
581 4 0.279935 0.123543 0.150078
628 2 0.402864 0.132863 0.128371
630 4 0.393274 0.154471 0.136513
629 4 0.412455 0.111255 0.120229
312 4 0.415743 0.0951596 0.131307
339 4 0.0735732 0.22864 0.115998
2625 4 0.0169477 0.191728 0.115773
337 2 0.0800702 0.233795 0.139586
338 4 0.0865672 0.23895 0.163174
737 4 0.182605 0.159996 0.116326
736 2 0.182855 0.184957 0.117769
738 4 0.183104 0.209917 0.119213
277 2 0.247992 0.224084 0.162198
461 4 0.301836 0.234806 0.0909713
460 2 0.321261 0.219074 0.0915554
354 4 0.293148 0.251867 0.0979644
284 4 0.282234 0.241024 0.156349
278 4 0.262238 0.24172 0.151653
462 4 0.340686 0.203341 0.0921395
254 4 0.382054 0.165523 0.123077
255 4 0.348574 0.200416 0.110338
253 2 0.365314 0.182969 0.116707
765 4 0.379775 0.239028 0.149131
624 4 0.392201 0.247471 0.135256
763 2 0.358885 0.233686 0.161791
656 4 0.00507069 0.29248 0.0823059
536 4 0.179988 0.315763 0.104783
535 2 0.188811 0.337715 0.112874
756 4 0.245091 0.307898 0.159463
352 2 0.283213 0.252062 0.120909
353 4 0.273278 0.252256 0.143853
754 2 0.250776 0.284457 0.152878
755 4 0.256461 0.261015 0.146294
622 2 0.381481 0.2506 0.112885
623 4 0.370761 0.253729 0.0905137
518 4 0.490233 0.244745 0.119343
528 4 0.470289 0.244167 0.123064
670 2 0.428637 0.334147 0.086531
526 2 0.467568 0.258635 0.143275
621 4 0.990073 0.360002 0.107178
619 2 0.994386 0.356365 0.0828196
455 4 0.129403 0.391988 0.0857444
454 2 0.152722 0.400424 0.082539
537 4 0.197634 0.359667 0.120965
302 4 0.308141 0.366776 0.157512
387 4 0.316822 0.356754 0.142348
385 2 0.338279 0.350953 0.130897
740 4 0.35957 0.334374 0.10223
15 3 0.370627 0.360704 0.110969
386 4 0.359736 0.345152 0.119446
11 1 0.391972 0.36662 0.116265
13 3 0.395047 0.365442 0.139233
14 3 0.396307 0.388153 0.108786
495 4 0.400966 0.396108 0.0921646
12 3 0.406611 0.352111 0.106049
672 4 0.411263 0.332387 0.104425
627 4 0.186121 0.47041 0.0977046
638 4 0.261331 0.49762 0.165241
767 4 0.278225 0.48659 0.16735
608 4 0.337046 0.432147 0.0928746
658 2 0.362699 0.445529 0.120435
659 4 0.351355 0.44385 0.0982163
660 4 0.374043 0.447209 0.142654
493 2 0.414068 0.416476 0.0983822
596 4 0.472944 0.40822 0.160039
494 4 0.42717 0.436844 0.1046
227 4 0.478494 0.438502 0.0924878
16 1 0.0442244 0.0733681 0.166612
17 3 0.0250001 0.0648617 0.175951
2480 4 0.0219817 0.0469777 0.187423
18 3 0.06105 0.0574793 0.168299
1422 4 0.0270365 0.0291455 0.179654
1420 2 0.0310214 0.00501282 0.174466
673 2 0.111921 0.0203908 0.237591
674 4 0.120888 0.0174764 0.214433
693 4 0.239147 0.0621228 0.220648
688 2 0.190015 0.998877 0.233111
654 4 0.283281 0.0047775 0.170619
1506 4 0.263019 0.00999828 0.171576
24 3 0.328051 0.0488863 0.248216
21 1 0.348543 0.0454751 0.237879
25 3 0.345399 0.0367041 0.217099
759 4 0.358168 0.0561368 0.215313
22 3 0.359386 0.0656767 0.236016
757 2 0.369379 0.0636311 0.194257
758 4 0.38059 0.0711254 0.173202
23 3 0.361562 0.0311233 0.250644
742 2 0.4895 0.0797816 0.22253
20 3 0.0502517 0.0922833 0.177771
578 4 0.0657529 0.0970112 0.235631
379 2 0.0100607 0.141155 0.182146
381 4 0.0241337 0.136997 0.20239
512 4 0.0284816 0.155149 0.207253
511 2 0.0434471 0.158624 0.226979
477 4 0.122516 0.151189 0.167304
577 2 0.0902107 0.0964498 0.230466
579 4 0.114668 0.0958884 0.2253
691 2 0.231465 0.0813164 0.234712
582 4 0.273318 0.104147 0.195693
580 2 0.276627 0.113845 0.172886
743 4 0.477052 0.0994748 0.231608
513 4 0.0584126 0.162098 0.246706
363 4 0.0942559 0.225471 0.176355
393 4 0.0633063 0.177579 0.256635
279 4 0.233746 0.206447 0.172742
283 2 0.301452 0.232749 0.170037
285 4 0.32067 0.224474 0.183725
764 4 0.337996 0.228344 0.174451
520 2 0.490673 0.187648 0.220265
521 4 0.472904 0.171456 0.227139
394 2 0.00227416 0.267527 0.231175
395 4 0.00286328 0.288897 0.218208
648 4 0.0869218 0.3271 0.183908
361 2 0.0989381 0.241305 0.195131
371 4 0.157641 0.294397 0.209092
370 2 0.139508 0.277979 0.214269
372 4 0.121374 0.26156 0.219445
748 2 0.0843387 0.288967 0.233981
362 4 0.10362 0.25714 0.213906
749 4 0.0888908 0.27088 0.217328
343 2 0.231881 0.316918 0.235653
345 4 0.209428 0.323355 0.244574
612 4 0.24471 0.316261 0.177687
344 4 0.254335 0.310482 0.226732
308 4 0.332165 0.286891 0.210201
307 2 0.334324 0.29233 0.23451
527 4 0.464848 0.273102 0.163485
647 4 0.0803259 0.374431 0.198638
646 2 0.0836238 0.350765 0.191273
263 4 0.00413667 0.397441 0.240057
415 2 0.195926 0.407671 0.175037
291 4 0.231304 0.404448 0.197134
416 4 0.217739 0.39944 0.184073
610 2 0.26026 0.332264 0.188969
289 2 0.251358 0.416584 0.188432
611 4 0.27581 0.348268 0.200251
303 4 0.298265 0.380454 0.204588
301 2 0.303203 0.373615 0.18105
729 4 0.302811 0.394768 0.2174
727 2 0.311529 0.379345 0.235045
644 4 0.407823 0.381446 0.23418
447 4 0.422211 0.375912 0.245517
595 2 0.465109 0.397552 0.181251
597 4 0.457273 0.386883 0.202464
643 2 0.423216 0.381006 0.214481
645 4 0.438609 0.380565 0.194782
264 4 0.0250007 0.442882 0.240762
262 2 0.0145687 0.420161 0.24041
417 4 0.174114 0.415903 0.166002
290 4 0.271412 0.42872 0.179729
768 4 0.276565 0.443528 0.192719
766 2 0.277395 0.465059 0.180035
231 4 0.415649 0.477857 0.232204
232 2 0.0173234 0.0322904 0.290338
233 4 0.0349848 0.0221384 0.27584
1402 2 0.0746389 0.0268869 0.276916
1404 4 0.0508397 0.0338209 0.273645
675 4 0.102953 0.0233052 0.260748
1403 4 0.0984381 0.019953 0.280187
1464 4 0.115782 0.0144882 0.290153
689 4 0.172546 0.0154984 0.239726
723 4 0.225851 0.0891543 0.265686
1700 4 0.27695 0.0513926 0.329638
699 4 0.349833 0.0785851 0.32337
697 2 0.364766 0.0599764 0.330846
698 4 0.379699 0.0413678 0.338323
478 2 0.490715 0.0555996 0.294651
480 4 0.468881 0.063169 0.304198
351 4 0.45378 0.0770531 0.307456
398 4 0.029871 0.14507 0.323847
692 4 0.223783 0.10051 0.248775
721 2 0.225083 0.0968198 0.289473
722 4 0.224314 0.104485 0.31326
249 4 0.227309 0.114263 0.331224
403 2 0.245149 0.143251 0.309398
404 4 0.235742 0.132183 0.329749
405 4 0.254556 0.15432 0.289047
27 3 0.317573 0.168818 0.25083
28 3 0.297553 0.137063 0.24897
26 1 0.305012 0.153924 0.263058
29 3 0.318275 0.144933 0.279841
707 4 0.335042 0.141677 0.292132
30 3 0.287239 0.164837 0.272206
632 4 0.378484 0.123677 0.246568
633 4 0.341413 0.126523 0.28001
631 2 0.359949 0.1251 0.263289
706 2 0.341975 0.160104 0.307546
333 4 0.447949 0.11962 0.238536
331 2 0.456009 0.143152 0.241079
349 2 0.434351 0.0927204 0.305968
350 4 0.414921 0.108388 0.30448
444 4 0.0254535 0.252326 0.308604
389 4 0.0715752 0.238999 0.34144
391 2 0.0875745 0.182381 0.260265
392 4 0.111843 0.187183 0.263894
546 4 0.138982 0.198002 0.250809
544 2 0.158293 0.198616 0.26668
390 4 0.118737 0.238565 0.324818
388 2 0.0951561 0.238782 0.333129
545 4 0.177603 0.19923 0.282552
708 4 0.348907 0.17853 0.322959
717 4 0.381946 0.195969 0.324902
332 4 0.464069 0.166684 0.243623
762 4 0.47202 0.179387 0.255682
761 4 0.482955 0.174732 0.304257
760 2 0.477487 0.177059 0.279969
750 4 0.0797865 0.307054 0.250633
442 2 0.0176694 0.249754 0.284982
443 4 0.00988532 0.247181 0.261361
401 4 0.164674 0.273175 0.309302
400 2 0.175306 0.26574 0.287928
402 4 0.185937 0.258305 0.266553
676 2 0.196916 0.319404 0.315921
678 4 0.198521 0.302691 0.334449
496 2 0.306766 0.315488 0.287523
497 4 0.288955 0.324571 0.302538
377 4 0.297968 0.324398 0.321133
498 4 0.324576 0.306404 0.272508
309 4 0.336483 0.297769 0.258819
615 4 0.376618 0.317333 0.314159
541 2 0.386215 0.281197 0.334444
543 4 0.374457 0.299166 0.321636
364 2 0.0232462 0.365288 0.288804
365 4 0.0353614 0.382511 0.275321
601 2 0.0742352 0.394531 0.292109
603 4 0.0545224 0.385805 0.279443
366 4 0.011131 0.348066 0.302286
602 4 0.093948 0.403258 0.304776
549 4 0.0891924 0.405446 0.324859
300 4 0.104422 0.349259 0.272799
298 2 0.128928 0.348951 0.267844
299 4 0.153434 0.348643 0.26289
677 4 0.19531 0.336117 0.297393
734 4 0.166888 0.360712 0.254034
733 2 0.184291 0.356846 0.271566
735 4 0.201694 0.35298 0.289098
728 4 0.320246 0.363923 0.25269
433 2 0.31214 0.375127 0.318306
435 4 0.287406 0.376029 0.321852
434 4 0.336875 0.374225 0.31476
613 2 0.364063 0.338956 0.314107
614 4 0.351508 0.360578 0.314056
445 2 0.412808 0.362991 0.264748
446 4 0.403404 0.350071 0.283978
2463 4 0.0148119 0.478441 0.311401
777 4 0.0788526 0.459634 0.305728
2690 4 0.00650408 0.472791 0.29399
2461 2 0.00911355 0.495421 0.328848
775 2 0.0839006 0.47575 0.324167
412 2 0.21779 0.488703 0.326977
413 4 0.229986 0.490975 0.305268
436 2 0.337233 0.455259 0.30998
1436 4 0.246514 0.495513 0.315087
1803 4 0.338593 0.481715 0.262657
437 4 0.339031 0.448922 0.28586
713 4 0.415769 0.465777 0.329273
2862 4 0.501526 0.462282 0.33245
119 3 0.482347 0.449636 0.328692
712 2 0.440152 0.460426 0.32785
714 4 0.464535 0.455075 0.326428
427 2 0.0734457 0.0191687 0.330415
428 4 0.0612262 0.0395557 0.338176
316 2 0.0507497 0.0700568 0.342943
317 4 0.0431314 0.0463902 0.34029
1781 4 0.117578 0.015103 0.400324
368 4 0.106284 0.00450064 0.413464
606 4 0.138466 0.0865292 0.345558
605 4 0.184268 0.089145 0.36546
248 4 0.201272 0.0816272 0.35875
604 2 0.161367 0.0878371 0.355509
1701 4 0.259708 0.0117174 0.354724
1699 2 0.268329 0.031555 0.342181
683 4 0.301514 0.0657711 0.382253
257 4 0.399151 0.0416938 0.335646
256 2 0.423814 0.0387674 0.338537
258 4 0.448477 0.035841 0.341428
1428 4 0.45144 0.0209657 0.354506
2879 4 0.479495 0.0756583 0.412266
2642 4 0.49624 0.0655313 0.408172
732 4 0.0725932 0.100302 0.356265
399 4 0.0600664 0.113035 0.34757
2586 4 0.0137065 0.130037 0.388913
318 4 0.058368 0.0937233 0.345595
397 2 0.0449687 0.129053 0.335708
457 2 0.029654 0.152818 0.422872
458 4 0.0149535 0.142378 0.405549
731 4 0.121025 0.0964275 0.34443
730 2 0.0968091 0.098365 0.350347
598 2 0.139916 0.149187 0.359409
600 4 0.139854 0.128409 0.373318
247 2 0.214291 0.0979451 0.344987
682 2 0.301457 0.0843724 0.398961
684 4 0.3014 0.102974 0.415669
452 4 0.469245 0.129038 0.402806
451 2 0.451275 0.142686 0.413577
599 4 0.139979 0.169964 0.345499
686 4 0.161087 0.181236 0.414014
474 4 0.211272 0.203954 0.389039
276 4 0.196833 0.218802 0.38822
472 2 0.224353 0.182799 0.386487
274 2 0.186926 0.240425 0.380507
473 4 0.237434 0.161644 0.383934
715 2 0.391783 0.203533 0.346609
716 4 0.40162 0.211096 0.368316
467 4 0.405449 0.206951 0.386863
466 2 0.395653 0.202059 0.409342
268 2 0.477129 0.24042 0.391896
270 4 0.45224 0.238181 0.392746
347 4 0.0569292 0.281912 0.386088
346 2 0.0335908 0.290478 0.383419
618 4 0.0672976 0.297282 0.378439
348 4 0.0102524 0.299044 0.380751
616 2 0.0871926 0.301625 0.36393
617 4 0.107088 0.305969 0.349422
275 4 0.177019 0.262047 0.372794
375 4 0.180733 0.299642 0.344243
373 2 0.181628 0.308156 0.367736
374 4 0.182523 0.316669 0.391228
376 2 0.282928 0.315919 0.339219
378 4 0.267888 0.30744 0.357304
488 4 0.298549 0.256149 0.405596
542 4 0.397973 0.263229 0.347253
420 4 0.413799 0.251038 0.343038
269 4 0.502018 0.242659 0.391046
418 2 0.436562 0.256809 0.351624
419 4 0.459325 0.26258 0.36021
510 4 0.217157 0.359289 0.344753
508 2 0.238566 0.367039 0.355086
509 4 0.259975 0.374789 0.36542
503 4 0.27266 0.383495 0.414106
502 2 0.248073 0.387992 0.41342
559 2 0.485944 0.399439 0.413601
561 4 0.47303 0.409305 0.394599
751 2 0.449349 0.411936 0.367481
753 4 0.445256 0.407861 0.343154
547 2 0.0764055 0.41874 0.34174
548 4 0.0636186 0.432033 0.35862
407 4 0.0767913 0.432134 0.374015
500 4 0.101456 0.508578 0.341806
406 2 0.0862356 0.437395 0.396561
570 4 0.157132 0.492927 0.412822
776 4 0.0889486 0.491866 0.342606
408 4 0.09568 0.442656 0.419106
1555 2 0.240692 0.488247 0.403157
1556 4 0.21569 0.488438 0.403364
414 4 0.205594 0.486432 0.348686
1544 4 0.207889 0.504865 0.393976
438 4 0.335436 0.461596 0.3341
3 3 0.322643 0.461107 0.35074
5 3 0.298489 0.48252 0.370124
1 1 0.320497 0.478791 0.365608
1557 4 0.265694 0.488055 0.402951
2 3 0.329579 0.497658 0.356084
4 3 0.331918 0.474061 0.385245
594 4 0.410981 0.477719 0.344622
592 2 0.407963 0.47893 0.369413
593 4 0.404945 0.480141 0.394205
752 4 0.453442 0.416011 0.391808
118 3 0.498022 0.418629 0.344095
116 1 0.493167 0.441084 0.347352
117 3 0.479287 0.443123 0.365582
718 2 0.0602767 0.0391247 0.470357
720 4 0.0412201 0.0341185 0.485751
2237 4 0.0305476 0.0208369 0.497635
719 4 0.0793333 0.0441308 0.454964
369 4 0.0948315 0.0430315 0.443212
367 2 0.100558 0.0237661 0.428338
340 2 0.214059 0.0594083 0.488323
341 4 0.212299 0.0345954 0.485794
2430 4 0.223914 0.0200139 0.480646
441 4 0.305872 0.0193853 0.413438
962 4 0.304763 0.014677 0.433812
961 2 0.304681 0.0226421 0.457513
963 4 0.304599 0.0306071 0.481213
432 4 0.300693 0.0411325 0.497945
426 4 0.366452 0.0125989 0.416123
424 2 0.356241 0.0316372 0.428711
425 4 0.34603 0.0506755 0.441299
725 4 0.397599 0.0452155 0.467799
724 2 0.396228 0.0700729 0.470124
1181 4 0.253145 0.129751 0.470617
320 4 0.285706 0.102766 0.427659
321 4 0.279086 0.151951 0.433801
319 2 0.282396 0.127358 0.43073
1180 2 0.259995 0.130627 0.494648
726 4 0.394857 0.0949304 0.472449
453 4 0.433306 0.156334 0.424348
2878 2 0.478658 0.0923732 0.430843
2880 4 0.477821 0.109088 0.449419
640 2 0.487354 0.130883 0.47553
515 4 0.416854 0.152943 0.432038
514 2 0.411474 0.160667 0.455202
641 4 0.482176 0.139001 0.498605
642 4 0.492533 0.122765 0.452454
260 4 0.0516502 0.182182 0.441279
459 4 0.0443545 0.163258 0.440195
259 2 0.0763376 0.185808 0.439678
685 2 0.140284 0.183661 0.427671
687 4 0.119481 0.186086 0.441328
261 4 0.101025 0.189433 0.438078
1035 4 0.110413 0.194082 0.45556
1033 2 0.122619 0.204459 0.474756
1034 4 0.134825 0.214837 0.493953
489 4 0.310001 0.227893 0.445234
411 4 0.323561 0.212608 0.442541
487 2 0.304275 0.242021 0.425415
409 2 0.346468 0.208234 0.433523
410 4 0.369375 0.20386 0.424505
468 4 0.385857 0.197167 0.43182
575 4 0.398043 0.169242 0.495757
516 4 0.406094 0.16839 0.478366
695 4 0.0573753 0.274894 0.462345
694 2 0.0806409 0.270238 0.470233
696 4 0.103907 0.265583 0.47812
1258 2 0.130284 0.292271 0.496268
1260 4 0.121266 0.273288 0.482721
651 4 0.242968 0.279428 0.483611
649 2 0.258212 0.262459 0.493851
266 4 0.352435 0.273941 0.445278
267 4 0.391659 0.264184 0.474721
265 2 0.372047 0.269063 0.46
583 2 0.465531 0.270385 0.484749
585 4 0.452306 0.255713 0.469419
2456 4 0.493622 0.275644 0.509086
681 4 0.00794169 0.393684 0.425695
2847 4 0.996082 0.344145 0.461478
326 4 0.094685 0.337123 0.448777
6 1 0.161414 0.342844 0.493536
327 4 0.132346 0.359837 0.472577
325 2 0.113515 0.34848 0.460677
7 3 0.151358 0.357143 0.478583
10 3 0.181477 0.3361 0.485132
711 4 0.166578 0.365825 0.43577
504 4 0.223487 0.392489 0.412734
709 2 0.187751 0.378325 0.431227
710 4 0.208924 0.390824 0.426684
336 4 0.319425 0.374126 0.432661
668 4 0.324271 0.393248 0.436722
667 2 0.307067 0.409916 0.443889
335 4 0.364631 0.358516 0.418051
334 2 0.342028 0.366321 0.425356
238 2 0.394298 0.37917 0.435793
240 4 0.376375 0.361927 0.433222
239 4 0.412222 0.396413 0.438363
3309 4 0.470266 0.387572 0.487649
679 2 0.0126132 0.416731 0.434192
680 4 0.0172847 0.439778 0.442688
1383 4 0.0153673 0.456479 0.451564
1381 2 0.0182239 0.481047 0.455228
384 4 0.104958 0.424092 0.472583
568 2 0.139499 0.476998 0.4206
382 2 0.109295 0.433178 0.449697
383 4 0.113632 0.442264 0.42681
569 4 0.121866 0.461068 0.428379
669 4 0.289862 0.426584 0.451057
636 4 0.26635 0.478517 0.421976
772 2 0.274748 0.427033 0.490094
635 4 0.283074 0.455446 0.46307
774 4 0.284941 0.435061 0.468721
634 2 0.274712 0.466981 0.442523
588 4 0.389647 0.457734 0.442879
882 4 0.346055 0.423986 0.471282
880 2 0.341623 0.42552 0.495841
586 2 0.402553 0.436483 0.440237
661 2 0.460816 0.4826 0.474153
663 4 0.462725 0.458558 0.467556
587 4 0.41546 0.415231 0.437595
430 2 0.306088 0.0553501 0.517793
431 4 0.311483 0.0695676 0.537641
951 4 0.266466 0.0512503 0.585693
1031 4 0.264856 0.0709757 0.579647
841 2 0.353818 0.0741538 0.538211
842 4 0.378132 0.0706945 0.533517
843 4 0.329503 0.0776132 0.542905
1217 4 0.391295 0.0603034 0.52031
1216 2 0.411509 0.0457438 0.522451
1218 4 0.431723 0.0311841 0.524591
3007 2 0.491094 0.0527841 0.577217
1128 4 0.00820043 0.0939231 0.579348
937 2 0.10614 0.16406 0.555101
1059 4 0.1372 0.116867 0.570466
1151 4 0.178171 0.122315 0.520087
939 4 0.127507 0.153696 0.562927
1057 2 0.130326 0.0938432 0.577381
1155 4 0.136767 0.134599 0.565806
342 4 0.215819 0.0842212 0.490853
1030 2 0.243773 0.082472 0.57268
1152 4 0.219502 0.097697 0.506432
1150 2 0.198836 0.110006 0.51326
1032 4 0.22269 0.0939683 0.565714
1182 4 0.266846 0.131502 0.518679
877 2 0.0549659 0.211313 0.576544
879 4 0.0770277 0.203282 0.585143
470 4 0.0272226 0.166069 0.542739
469 2 0.0302673 0.183609 0.525182
878 4 0.0329041 0.219345 0.567945
471 4 0.0333121 0.201149 0.507624
938 4 0.0847743 0.174424 0.547274
858 4 0.206943 0.22302 0.536472
856 2 0.208538 0.241403 0.5196
898 2 0.304124 0.177317 0.567421
900 4 0.303708 0.167295 0.544518
576 4 0.360998 0.192484 0.520011
574 2 0.379521 0.180863 0.507884
3159 4 0.480578 0.175481 0.559703
3157 2 0.499623 0.190936 0.554844
906 4 0.45531 0.253472 0.571651
983 4 0.0166379 0.3078 0.52432
1245 4 0.043046 0.298452 0.559611
1243 2 0.0469882 0.274249 0.564494
982 2 0.0196043 0.325552 0.541677
1244 4 0.0509304 0.250045 0.569377
9 3 0.147616 0.324475 0.49679
1259 4 0.139302 0.311254 0.509814
798 4 0.194329 0.284864 0.590131
857 4 0.210133 0.259787 0.502727
650 4 0.273455 0.24549 0.504091
872 4 0.359624 0.283015 0.551411
871 2 0.358719 0.30784 0.548568
873 4 0.357814 0.332665 0.545726
3065 4 0.49105 0.256122 0.513226
953 4 0.434874 0.255174 0.566198
904 2 0.477901 0.264044 0.569897
952 2 0.421346 0.273803 0.575951
905 4 0.500491 0.274616 0.568144
584 4 0.478755 0.285058 0.500079
984 4 0.0225706 0.343303 0.559035
3354 4 0.00774021 0.351805 0.57004
3352 2 0.00157776 0.374962 0.562903
1189 2 0.223283 0.377535 0.576115
1190 4 0.236919 0.365455 0.558988
8 3 0.164597 0.354018 0.513621
803 4 0.247098 0.351633 0.552378
802 2 0.261483 0.35952 0.533509
804 4 0.275868 0.367407 0.51464
1239 4 0.334191 0.337609 0.58889
813 4 0.360524 0.348035 0.531606
928 2 0.343972 0.37696 0.575058
811 2 0.378041 0.364932 0.525879
929 4 0.350814 0.396745 0.561386
812 4 0.395559 0.381829 0.520152
927 4 0.410632 0.38805 0.532196
926 4 0.444963 0.376658 0.566726
925 2 0.427797 0.382354 0.549461
539 4 0.075424 0.462542 0.529392
538 2 0.0905837 0.481721 0.524145
540 4 0.105743 0.5009 0.518898
1160 4 0.130414 0.456761 0.586587
773 4 0.264555 0.419004 0.511467
881 4 0.33719 0.427054 0.520401
1002 4 0.399397 0.436411 0.555168
1000 2 0.416685 0.453897 0.550639
1001 4 0.433974 0.471383 0.54611
823 2 0.123682 0.00710293 0.631942
1058 4 0.123451 0.0708189 0.584295
825 4 0.110011 0.0278056 0.635056
949 2 0.290473 0.046353 0.590677
950 4 0.31448 0.0414557 0.595662
2283 4 0.40448 0.0202572 0.635565
3008 4 0.468046 0.0542778 0.586795
809 4 0.46597 0.0653742 0.604255
808 2 0.461187 0.0780913 0.625245
2281 2 0.423903 0.00472429 0.632991
42 3 0.446302 0.0823043 0.663744
1083 4 0.0565715 0.0913269 0.611322
1126 2 0.0319703 0.0893225 0.585593
1081 2 0.0553277 0.0933048 0.636216
1127 4 0.0557402 0.084722 0.591839
1082 4 0.0540839 0.0952826 0.661111
1153 2 0.151878 0.146225 0.581983
1283 4 0.151952 0.0935847 0.653028
1154 4 0.166989 0.15785 0.59816
1221 4 0.184971 0.165212 0.59688
810 4 0.456405 0.0908084 0.646235
45 3 0.45971 0.114194 0.649737
3424 2 0.497429 0.122015 0.659773
3425 4 0.474344 0.113958 0.665006
1199 4 0.0151225 0.212288 0.572334
1272 4 0.091039 0.215021 0.593737
1270 2 0.115287 0.220656 0.591398
1271 4 0.139534 0.226291 0.589059
1212 4 0.226301 0.198018 0.625936
1219 2 0.205859 0.171895 0.608887
1220 4 0.226748 0.178579 0.620894
1210 2 0.245357 0.194085 0.641638
899 4 0.304541 0.187339 0.590325
1211 4 0.264414 0.190151 0.657341
1193 4 0.362411 0.170498 0.650325
1192 2 0.341709 0.176148 0.663159
1136 4 0.123567 0.302917 0.594894
948 4 0.139518 0.294385 0.601588
946 2 0.160228 0.282867 0.593613
1135 2 0.128036 0.327146 0.599154
796 2 0.21688 0.278989 0.599193
947 4 0.180938 0.271349 0.585638
797 4 0.239431 0.273114 0.608254
791 4 0.252785 0.283734 0.619327
792 4 0.298134 0.283661 0.598253
790 2 0.27546 0.283697 0.60879
1238 4 0.309828 0.297096 0.605195
1237 2 0.32201 0.317352 0.597042
805 2 0.341081 0.316859 0.666927
954 4 0.407818 0.292433 0.585704
806 4 0.345914 0.33896 0.656278
3123 4 0.497327 0.250934 0.65779
1039 2 0.0678478 0.412868 0.639435
1041 4 0.0430955 0.416032 0.641013
3264 4 0.0310124 0.401509 0.645829
3262 2 0.0257754 0.377088 0.644668
3263 4 0.0205384 0.352666 0.643507
3240 4 0.0128065 0.408777 0.648791
1040 4 0.0926001 0.409703 0.637858
993 4 0.105861 0.394777 0.643642
1137 4 0.132504 0.351375 0.603414
897 4 0.146291 0.364345 0.600545
991 2 0.1179 0.38289 0.625232
992 4 0.129939 0.371003 0.606821
1172 4 0.214252 0.409276 0.599101
1191 4 0.209647 0.389614 0.593241
896 4 0.189462 0.38911 0.595675
895 2 0.167876 0.376727 0.59811
1029 4 0.229189 0.406554 0.665557
930 4 0.33713 0.357175 0.58873
1204 2 0.405501 0.404388 0.654095
1205 4 0.384046 0.393732 0.661256
1206 4 0.426957 0.415044 0.646934
1159 2 0.147873 0.474539 0.588661
1161 4 0.165332 0.492318 0.590734
1171 2 0.221018 0.433223 0.601544
1173 4 0.227784 0.457169 0.603987
1187 4 0.222363 0.47685 0.597506
1186 2 0.201868 0.490897 0.594707
1140 4 0.232575 0.427255 0.666212
1952 4 0.326195 0.477067 0.59272
889 2 0.300577 0.478013 0.626591
891 4 0.290544 0.474948 0.649288
890 4 0.31061 0.481077 0.603895
1230 4 0.361251 0.475204 0.650757
1269 4 0.438505 0.456687 0.653899
1267 2 0.452423 0.476748 0.648512
943 2 0.0460454 0.0470338 0.67462
945 4 0.0318335 0.0276666 0.667684
944 4 0.0602572 0.0664011 0.681556
2989 2 9.91997e-05 0.065253 0.741974
1147 2 0.228211 0.0555494 0.721675
1149 4 0.236132 0.0362277 0.707923
1148 4 0.22029 0.0748711 0.735427
1004 4 0.376557 0.0652156 0.695993
1163 4 0.462269 0.0828898 0.67815
1162 2 0.474867 0.0640383 0.688689
2320 2 0.485106 0.0301956 0.736485
2321 4 0.489736 0.0291297 0.711937
1164 4 0.487466 0.0451868 0.699228
4581 4 0.492069 0.014067 0.69969
1076 4 0.0647473 0.0848092 0.674689
862 2 0.0430212 0.105331 0.747275
864 4 0.0622283 0.108927 0.731676
1075 2 0.0651351 0.100138 0.694439
1077 4 0.0655229 0.115466 0.714189
1107 4 0.0673253 0.128249 0.727954
851 4 0.0558705 0.131515 0.711014
1105 2 0.08661 0.140245 0.738413
850 2 0.0496663 0.151505 0.697336
1282 2 0.138919 0.0973623 0.674029
1284 4 0.125886 0.10114 0.69503
908 4 0.202391 0.147725 0.70136
907 2 0.182354 0.156518 0.689261
1227 4 0.203996 0.141405 0.719768
1225 2 0.209393 0.117245 0.72328
1226 4 0.214791 0.0930848 0.726791
829 2 0.322249 0.148826 0.71117
830 4 0.313251 0.154711 0.688597
1003 2 0.377368 0.0877376 0.685163
1005 4 0.37818 0.11026 0.674334
831 4 0.331247 0.142941 0.733744
43 3 0.431508 0.115084 0.674668
41 1 0.451077 0.104328 0.66836
44 3 0.46652 0.10519 0.685657
852 4 0.0434622 0.171495 0.683659
1073 4 0.131778 0.217381 0.743401
1072 2 0.123079 0.240236 0.738188
1074 4 0.114381 0.263091 0.732975
909 4 0.162317 0.165311 0.677162
978 4 0.240943 0.225873 0.755252
1194 4 0.321008 0.181798 0.675994
888 4 0.261393 0.185128 0.676666
886 2 0.284724 0.176224 0.675413
887 4 0.308055 0.167321 0.674161
1025 4 0.438792 0.185172 0.671272
1262 4 0.449254 0.216401 0.724848
1142 4 0.443947 0.188092 0.72681
1024 2 0.436766 0.194552 0.694361
1141 2 0.449159 0.180975 0.750206
1026 4 0.43474 0.203931 0.71745
1261 2 0.461715 0.236846 0.732054
1145 4 0.482973 0.194358 0.717095
1209 4 0.140876 0.295599 0.695446
1207 2 0.120247 0.28287 0.701579
1208 4 0.0996187 0.270142 0.707713
821 4 0.15522 0.308444 0.697032
820 2 0.176546 0.301011 0.686303
822 4 0.197873 0.293579 0.675575
1063 2 0.232954 0.308235 0.701774
1064 4 0.243404 0.298297 0.681348
1065 4 0.222504 0.318173 0.722199
916 2 0.311282 0.267329 0.743845
917 4 0.317979 0.290538 0.737389
807 4 0.336249 0.294758 0.677575
1263 4 0.474177 0.25729 0.739259
892 2 0.0307432 0.357563 0.709202
893 4 0.0241757 0.333454 0.710092
894 4 0.0373106 0.381673 0.708312
1280 4 0.0496467 0.38894 0.721383
1279 2 0.0489631 0.411943 0.711608
816 4 0.067072 0.379523 0.726886
814 2 0.0854577 0.365666 0.736639
1028 4 0.197032 0.383716 0.696299
1066 2 0.179895 0.375338 0.728171
1068 4 0.187156 0.368335 0.705292
1027 2 0.21311 0.395135 0.680928
1019 4 0.376622 0.370686 0.735008
1981 2 0.0645474 0.461055 0.732333
1281 4 0.0482795 0.434947 0.701833
1983 4 0.0521677 0.451298 0.712924
1176 4 0.19847 0.500167 0.721534
2016 4 0.185346 0.490606 0.732328
1138 2 0.250484 0.435623 0.681523
1139 4 0.268393 0.443991 0.696833
1988 4 0.316896 0.460353 0.74929
1987 2 0.324681 0.457667 0.725682
1989 4 0.332467 0.454982 0.702074
1228 2 0.349253 0.474362 0.672678
1229 4 0.337255 0.47352 0.694598
1100 4 0.398812 0.494231 0.6999
1099 2 0.422153 0.503199 0.699884
1101 4 0.445493 0.512166 0.699868
2991 4 0.99868 0.0405356 0.745469
1202 4 0.110421 0.025973 0.749057
2049 4 0.117633 0.0135816 0.763404
1203 4 0.113033 0.0734471 0.764552
1201 2 0.111727 0.04971 0.756805
1257 4 0.222281 0.0774744 0.780084
1255 2 0.240484 0.0832189 0.796234
817 2 0.325068 0.0462008 0.806471
819 4 0.307826 0.063855 0.810499
818 4 0.34231 0.0285467 0.802443
1050 4 0.33434 0.00241095 0.775666
974 4 0.341191 0.0113622 0.791101
1113 4 0.413778 0.074741 0.78663
2322 4 0.480476 0.0312616 0.761033
844 2 0.491605 0.0809472 0.787149
845 4 0.471005 0.0832679 0.801129
1111 2 0.436014 0.0855092 0.790475
834 4 0.0103 0.132194 0.817534
863 4 0.0238141 0.101734 0.762875
833 4 0.0109591 0.112359 0.771634
832 2 0.0106296 0.122277 0.794584
911 4 0.119648 0.127612 0.824931
34 3 0.132511 0.13528 0.784071
31 1 0.125625 0.142953 0.804859
35 3 0.10481 0.135003 0.809572
32 3 0.140394 0.135452 0.82082
1106 4 0.105895 0.15224 0.748872
1085 4 0.315797 0.0827889 0.808725
840 4 0.263926 0.0975715 0.82993
1256 4 0.258688 0.0889635 0.812384
1084 2 0.303529 0.102836 0.800192
1086 4 0.291261 0.122882 0.791659
960 4 0.310837 0.0864951 0.829058
1112 4 0.45825 0.0962773 0.79432
47 3 0.434258 0.178768 0.826028
1214 4 0.0110637 0.2269 0.773233
1213 2 0.00341827 0.223026 0.749745
33 3 0.125478 0.166155 0.805089
1130 4 0.158134 0.207982 0.798845
1129 2 0.175395 0.217895 0.783713
1131 4 0.192656 0.227807 0.768581
1277 4 0.208079 0.23921 0.775088
976 2 0.26572 0.229057 0.756337