ITEM: TIMESTEP
3000000
ITEM: NUMBER OF ATOMS
4590
ITEM: BOX BOUNDS pp pp pp
-9.9985700000000008e+00 9.9985700000000008e+00
-9.9985700000000008e+00 9.9985700000000008e+00
-9.9985700000000008e+00 9.9985700000000008e+00
ITEM: ATOMS id type xs ys zs
1667 4 0.000848104 0.0679625 0.0527089
701 4 0.0147884 0.0662996 0.0671135
491 4 0.263358 0.0736249 0.0915135
490 2 0.27569 0.0536812 0.0828329
492 4 0.288022 0.0337375 0.0741524
1474 2 0.301164 0.998813 0.0849224
2974 2 0.461165 0.0134113 0.0233556
745 2 0.428149 0.0617999 0.0250801
747 4 0.434095 0.0385419 0.0180887
2467 2 0.489512 0.00912857 0.0702751
986 4 0.430288 0.0245482 0.00308602
2975 4 0.447902 0.0289158 0.00890226
746 4 0.422202 0.0850578 0.0320716
700 2 0.0323619 0.0836669 0.0632755
702 4 0.0499353 0.101034 0.0594375
476 4 0.0612305 0.110179 0.0744651
566 4 0.210312 0.138832 0.0210192
565 2 0.226592 0.153308 0.00874853
567 4 0.242873 0.167785 0.996478
297 4 0.315536 0.12356 0.98068
769 2 0.413675 0.162845 0.0255071
556 2 0.397968 0.103914 0.00606263
558 4 0.415888 0.102455 0.0234385
771 4 0.434891 0.149831 0.0231258
555 4 0.0821277 0.250314 0.00688065
770 4 0.392459 0.17586 0.0278884
359 4 0.386548 0.193972 0.0266834
664 2 0.400309 0.209159 0.0527471
665 4 0.400874 0.1877 0.0399274
666 4 0.399743 0.230619 0.0655667
323 4 0.399611 0.242972 0.0510712
358 2 0.370415 0.192829 0.00761489
623 4 0.386151 0.24563 0.0644696
3338 4 7.61676e-05 0.249337 0.00700073
2808 4 0.996932 0.265647 0.0162948
292 2 0.162989 0.320565 0.033804
294 4 0.148566 0.314558 0.0142828
293 4 0.177412 0.326571 0.0533252
507 4 0.186409 0.323089 0.0674609
287 4 0.196941 0.330427 0.0537524
286 2 0.215827 0.331304 0.03739
288 4 0.234713 0.332181 0.0210275
481 2 0.231348 0.25701 0.0737969
482 4 0.254237 0.247541 0.0772041
573 4 0.258936 0.246914 0.0570729
571 2 0.276285 0.257189 0.0422865
572 4 0.293633 0.267465 0.0275
357 4 0.304934 0.270669 0.0110187
355 2 0.317973 0.290346 0.0027728
956 4 0.3358 0.318363 0.010659
1069 2 0.411946 0.31336 0.027972
955 2 0.356914 0.328013 0.0199473
1071 4 0.396012 0.33225 0.0317746
322 2 0.414758 0.259666 0.0402535
324 4 0.429906 0.276361 0.0294359
1070 4 0.427879 0.294469 0.0241693
280 2 0.457704 0.297732 0.0514198
282 4 0.444957 0.285836 0.0334984
281 4 0.470451 0.309628 0.0693412
328 2 0.99618 0.39962 0.0246918
329 4 0.00960539 0.379277 0.0302677
456 4 0.183282 0.391667 0.0600782
552 4 0.173786 0.334772 0.0739486
454 2 0.183017 0.366668 0.0597191
455 4 0.182753 0.341668 0.0593599
1290 4 0.270671 0.392119 0.0500997
250 2 0.26429 0.415747 0.0789038
1288 2 0.276938 0.374913 0.0330744
1289 4 0.283205 0.357707 0.016049
251 4 0.26299 0.411408 0.0543139
903 4 0.293305 0.365902 0.000426124
957 4 0.378027 0.337664 0.0292356
741 4 0.386708 0.341444 0.045986
739 2 0.391153 0.346158 0.0701353
1787 4 0.100035 0.491824 0.0482625
1788 4 0.0839719 0.464913 0.0872304
1786 2 0.0920034 0.478369 0.0677464
627 4 0.162682 0.498194 0.0222724
626 4 0.186467 0.477822 0.061259
625 2 0.174575 0.488008 0.0417657
245 4 0.204491 0.470496 0.0575174
244 2 0.224089 0.456504 0.0507859
246 4 0.243688 0.442512 0.0440544
272 4 0.254744 0.426912 0.0418124
271 2 0.264542 0.433134 0.0196658
1672 2 0.408357 0.435863 0.0738962
853 2 0.391507 0.441872 0.0218377
1674 4 0.422168 0.438763 0.0532559
854 4 0.411882 0.440741 0.0362867
855 4 0.371132 0.443002 0.00738868
37 3 0.356915 0.423504 0.0048618
564 4 0.430617 0.443068 0.0366919
563 4 0.463114 0.480879 0.0328222
562 2 0.446865 0.461973 0.034757
228 4 0.481951 0.473797 0.0306181
226 2 0.492343 0.495147 0.0227857
19 3 0.0613894 0.0349139 0.159104
582 4 0.230782 0.076445 0.150916
580 2 0.245914 0.0592143 0.16088
581 4 0.261047 0.0419836 0.170844
1475 4 0.300892 0.0238129 0.0852196
1760 4 0.483946 0.056654 0.141105
486 4 0.430813 0.00458099 0.109737
1759 2 0.489888 0.0390125 0.124412
2722 2 0.467683 0.0866011 0.159583
2724 4 0.477441 0.0636995 0.157243
1761 4 0.495831 0.0213709 0.107719
475 2 0.0759803 0.130293 0.0762099
513 4 0.0514695 0.160318 0.177217
477 4 0.09073 0.150407 0.0779548
237 4 0.22223 0.0947508 0.150951
235 2 0.20073 0.0946446 0.163715
628 2 0.368388 0.162118 0.160788
312 4 0.352301 0.126928 0.166173
2723 4 0.457925 0.109503 0.161924
393 4 0.039996 0.176022 0.179799
2759 4 0.983614 0.179689 0.117475
2624 4 0.00253552 0.18717 0.120093
738 4 0.209711 0.171532 0.103116
737 4 0.224965 0.213374 0.0803725
736 2 0.217338 0.192453 0.0917443
460 2 0.326898 0.220825 0.115299
461 4 0.305564 0.208426 0.11126
354 4 0.286335 0.209138 0.117445
352 2 0.276796 0.220824 0.137385
353 4 0.267257 0.23251 0.157326
630 4 0.382552 0.178251 0.14797
462 4 0.348232 0.233223 0.119337
255 4 0.366669 0.233142 0.122296
253 2 0.378979 0.213809 0.132291
622 2 0.374031 0.24501 0.0863303
624 4 0.361911 0.244389 0.108191
254 4 0.391288 0.194477 0.142285
505 2 0.194069 0.300923 0.0761298
536 4 0.197127 0.259826 0.143054
483 4 0.208459 0.266479 0.0703897
506 4 0.20173 0.278756 0.0847986
537 4 0.186676 0.271548 0.0955765
535 2 0.191901 0.265687 0.119315
754 2 0.235065 0.261789 0.163695
756 4 0.222759 0.28354 0.164502
301 2 0.324982 0.316402 0.139104
303 4 0.319294 0.298226 0.155304
284 4 0.276188 0.249868 0.163931
285 4 0.311291 0.285257 0.15991
283 2 0.29374 0.267563 0.161921
764 4 0.330407 0.282739 0.151886
765 4 0.356204 0.249055 0.125417
763 2 0.343306 0.265897 0.138652
12 3 0.414949 0.328074 0.117437
671 4 0.459397 0.324346 0.0766307
527 4 0.477892 0.321783 0.0821565
647 4 0.0494122 0.358515 0.155113
315 4 0.999073 0.393008 0.112632
550 2 0.153028 0.3331 0.0877874
551 4 0.132271 0.331429 0.101626
302 4 0.33067 0.334578 0.122903
252 4 0.26559 0.420086 0.103494
387 4 0.328309 0.348153 0.10806
385 2 0.352698 0.352867 0.105202
493 2 0.388982 0.391622 0.0986815
495 4 0.392467 0.367193 0.102714
386 4 0.377086 0.35758 0.102344
15 3 0.381957 0.345301 0.114669
740 4 0.395599 0.350872 0.0942847
14 3 0.413532 0.363762 0.105732
11 1 0.403936 0.348116 0.119928
13 3 0.405973 0.355107 0.141959
494 4 0.385498 0.416051 0.0946493
526 2 0.498369 0.336097 0.0831288
672 4 0.419287 0.344378 0.098781
670 2 0.439342 0.334362 0.0877058
595 2 0.480651 0.393788 0.17011
1791 4 0.0635045 0.49449 0.150281
1465 2 0.075765 0.46458 0.12171
1466 4 0.0676105 0.477548 0.141471
1467 4 0.0839195 0.451612 0.101949
290 4 0.224246 0.408172 0.178635
638 4 0.21708 0.493813 0.159925
767 4 0.22276 0.47358 0.162872
766 2 0.227422 0.449443 0.167436
768 4 0.232085 0.425305 0.172001
609 4 0.277761 0.431261 0.112544
607 2 0.300958 0.440591 0.11234
608 4 0.324155 0.44992 0.112136
659 4 0.328098 0.434755 0.100148
1316 4 0.289131 0.502481 0.146411
660 4 0.376666 0.432692 0.0884159
1673 4 0.394545 0.432964 0.0945365
658 2 0.352382 0.433723 0.094282
524 4 0.400212 0.483428 0.1301
523 2 0.391574 0.464497 0.116237
525 4 0.382935 0.445567 0.102373
1559 4 0.393253 0.499775 0.140192
16 1 0.0603732 0.0124443 0.164804
578 4 0.0799933 0.0296175 0.171106
20 3 0.0777761 0.00710441 0.178489
17 3 0.0405749 0.0084537 0.175815
2480 4 0.036341 0.00432405 0.194488
2479 2 0.0275813 0.0249169 0.205641
380 4 0.017862 0.0609699 0.204738
2481 4 0.0188216 0.0455098 0.216794
577 2 0.0985354 0.0450312 0.177724
579 4 0.117077 0.060445 0.184341
674 4 0.148002 0.00549093 0.22526
673 2 0.127237 0.00045861 0.238247
450 4 0.124342 0.0661892 0.166551
689 4 0.166471 0.00179938 0.220395
448 2 0.144682 0.0755367 0.17769
1504 2 0.235028 0.0031313 0.191375
1506 4 0.254971 0.0168536 0.18512
654 4 0.270768 0.0309551 0.184637
652 2 0.281986 0.0262765 0.206488
653 4 0.293203 0.021598 0.228339
758 4 0.339481 0.0701148 0.19115
759 4 0.364321 0.0613994 0.233667
757 2 0.351901 0.0657571 0.212409
350 4 0.374468 0.0648164 0.244866
349 2 0.397469 0.0551826 0.243043
25 3 0.351194 0.0206738 0.25567
22 3 0.356741 0.0570049 0.249175
480 4 0.441073 0.0479619 0.240134
351 4 0.42047 0.0455487 0.24122
743 4 0.493399 0.0740295 0.253022
333 4 0.484611 0.0920184 0.252244
379 2 0.0275058 0.0824638 0.19636
511 2 0.0382382 0.1393 0.180106
512 4 0.025007 0.118282 0.182995
381 4 0.0371496 0.103958 0.187982
449 4 0.165022 0.0848843 0.188829
236 4 0.17923 0.0945385 0.176479
629 4 0.354224 0.145985 0.173605
30 3 0.328457 0.131097 0.231699
310 2 0.353259 0.102839 0.172803
26 1 0.339097 0.147027 0.244016
311 4 0.354217 0.0787494 0.179434
761 4 0.410016 0.150176 0.256003
28 3 0.349252 0.162437 0.229951
521 4 0.465159 0.145047 0.220685
762 4 0.446535 0.143437 0.222511
760 2 0.428276 0.146807 0.239257
332 4 0.460666 0.128884 0.228406
331 2 0.472638 0.110451 0.240325
520 2 0.484667 0.157951 0.211847
391 2 0.0577552 0.193551 0.181389
392 4 0.0755144 0.21108 0.182979
339 4 0.0722354 0.219948 0.199593
337 2 0.0635655 0.242726 0.205173
755 4 0.247371 0.240038 0.162888
279 4 0.265964 0.20972 0.213316
277 2 0.264798 0.224155 0.192933
278 4 0.263632 0.23859 0.17255
522 4 0.504175 0.170855 0.20301
394 2 0.0162819 0.266396 0.232671
395 4 0.0301171 0.285368 0.224078
338 4 0.0548956 0.265505 0.210753
363 4 0.0423154 0.281203 0.208818
361 2 0.0528102 0.303891 0.209364
362 4 0.063305 0.326579 0.20991
372 4 0.0783463 0.331182 0.196772
749 4 0.0507896 0.34121 0.215098
370 2 0.10175 0.333351 0.205301
612 4 0.233408 0.298683 0.173185
611 4 0.238844 0.330273 0.211568
610 2 0.236126 0.314478 0.192376
344 4 0.228029 0.327229 0.227826
343 2 0.209644 0.317214 0.241496
735 4 0.173796 0.319181 0.251481
729 4 0.308202 0.300782 0.170026
727 2 0.295324 0.317315 0.183664
308 4 0.324822 0.287738 0.169378
728 4 0.282447 0.333848 0.197302
498 4 0.345862 0.290017 0.228106
307 2 0.339093 0.286099 0.189843
309 4 0.353364 0.284461 0.210309
648 4 0.0641465 0.343145 0.200361
748 2 0.0600703 0.356913 0.232199
646 2 0.0567793 0.35083 0.177737
371 4 0.125154 0.335519 0.21383
734 4 0.135041 0.341193 0.228804
733 2 0.154418 0.330187 0.240142
417 4 0.138454 0.349703 0.211092
299 4 0.132994 0.354394 0.245713
415 2 0.150475 0.364291 0.194725
416 4 0.162497 0.378878 0.178359
289 2 0.202251 0.396516 0.180995
291 4 0.180257 0.38486 0.183356
445 2 0.397436 0.377643 0.242925
447 4 0.406656 0.398186 0.232055
644 4 0.423886 0.40543 0.225045
643 2 0.438637 0.403942 0.20491
645 4 0.453387 0.402454 0.184776
597 4 0.455862 0.394673 0.166966
412 2 0.236373 0.464666 0.221485
413 4 0.227089 0.451549 0.240639
414 4 0.245658 0.477784 0.20233
1436 4 0.227608 0.448644 0.260145
1574 4 0.293223 0.488061 0.217626
229 2 0.463676 0.492995 0.215065
231 4 0.484681 0.479805 0.211902
234 4 0.00056294 0.0482177 0.297337
232 2 0.0239613 0.0417898 0.291306
233 4 0.0473596 0.035362 0.285274
317 4 0.0642668 0.0335327 0.295492
1404 4 0.059766 0.0203439 0.285539
316 2 0.0774589 0.0507915 0.307873
1402 2 0.0731348 0.00638822 0.269674
428 4 0.0608464 0.0160384 0.304046
2756 4 0.995678 0.0659407 0.302173
732 4 0.103883 0.0643519 0.333625
730 2 0.128735 0.0665838 0.335228
693 4 0.322522 0.0657154 0.269474
691 2 0.310178 0.0807306 0.285202
24 3 0.325425 0.0458165 0.266691
632 4 0.363809 0.0734732 0.251976
21 1 0.348089 0.0416555 0.263963
23 3 0.359046 0.0438319 0.284301
257 4 0.406857 0.0604357 0.330763
479 4 0.452656 0.0381229 0.287776
478 2 0.446864 0.0430424 0.263955
2664 4 0.47035 0.0314689 0.291342
1428 4 0.451544 0.0240587 0.297524
258 4 0.435908 0.0379582 0.296829
2662 2 0.490233 0.0443134 0.299397
256 2 0.421382 0.049197 0.313796
1426 2 0.447674 0.00221838 0.309065
403 2 0.229772 0.164518 0.333127
692 4 0.297834 0.0957458 0.300929
721 2 0.267149 0.11429 0.311054
723 4 0.278908 0.0987584 0.29538
722 4 0.25539 0.129822 0.326727
27 3 0.323716 0.157966 0.257165
29 3 0.354994 0.137132 0.257719
631 2 0.36321 0.0972692 0.259629
707 4 0.356649 0.131583 0.276873
633 4 0.362612 0.121065 0.267282
706 2 0.354011 0.140812 0.299961
708 4 0.351374 0.150041 0.323049
444 4 0.996118 0.21066 0.301056
442 2 0.996407 0.223157 0.279401
443 4 0.996696 0.235653 0.257746
544 2 0.129691 0.248644 0.242189
546 4 0.105625 0.24735 0.235529
545 4 0.153757 0.249938 0.248848
600 4 0.0995653 0.184802 0.337952
405 4 0.213901 0.183811 0.334165
419 4 0.406326 0.24622 0.341744
402 4 0.171293 0.247638 0.256765
375 4 0.158478 0.332225 0.330241
373 2 0.137575 0.321238 0.338461
400 2 0.178673 0.2707 0.262997
401 4 0.186054 0.293762 0.26923
676 2 0.173288 0.320681 0.29008
345 4 0.191259 0.307198 0.255166
677 4 0.177623 0.310987 0.267443
378 4 0.291521 0.283913 0.310437
376 2 0.311034 0.296973 0.301844
377 4 0.330547 0.310033 0.293251
615 4 0.340194 0.325564 0.298796
497 4 0.335249 0.301845 0.275521
496 2 0.340556 0.295931 0.251813
541 2 0.36674 0.308154 0.303268
542 4 0.386766 0.306336 0.318129
543 4 0.346715 0.309972 0.288407
418 2 0.400348 0.267161 0.329457
750 4 0.0693511 0.372616 0.249301
364 2 0.00728827 0.394145 0.295908
365 4 0.0309588 0.395628 0.303826
603 4 0.0348009 0.381221 0.316507
300 4 0.0892828 0.376853 0.254965
298 2 0.111139 0.365624 0.250339
678 4 0.168954 0.330376 0.312716
510 4 0.180217 0.34509 0.307929
508 2 0.197871 0.354083 0.323182
434 4 0.323543 0.38077 0.314831
433 2 0.313446 0.403618 0.31591
614 4 0.320556 0.371553 0.299092
613 2 0.330375 0.348559 0.298944
4 3 0.25173 0.419652 0.314811
446 4 0.388216 0.357099 0.253794
264 4 0.0129308 0.441101 0.253427
1757 4 0.030216 0.431668 0.257234
1756 2 0.049813 0.441674 0.269109
1758 4 0.0694101 0.45168 0.280984
1775 4 0.0840638 0.465428 0.281567
777 4 0.0742243 0.480048 0.290552
775 2 0.0620726 0.480365 0.312402
1776 4 0.129102 0.457777 0.261226
1774 2 0.106583 0.461602 0.271397
1435 2 0.240175 0.444153 0.281289
1437 4 0.252742 0.439661 0.302433
3 3 0.270648 0.452389 0.310966
1 1 0.267883 0.433471 0.324113
436 2 0.310672 0.458968 0.309066
438 4 0.292066 0.443434 0.315204
2 3 0.28783 0.422047 0.324994
435 4 0.303349 0.426467 0.31699
437 4 0.329278 0.474502 0.302927
1801 2 0.363728 0.474071 0.32265
1802 4 0.349535 0.479775 0.302872
1803 4 0.377922 0.468367 0.342429
119 3 0.493872 0.457742 0.322141
594 4 0.432603 0.497181 0.336494
318 4 0.090651 0.0680504 0.320254
731 4 0.153587 0.0688158 0.33683
399 4 0.0864785 0.0717062 0.33884
605 4 0.194104 0.0956167 0.367622
699 4 0.377622 0.049376 0.387763
1699 2 0.356803 0.0144782 0.386131
1700 4 0.361186 0.038566 0.381057
697 2 0.389849 0.0592334 0.368308
1701 4 0.352421 0.99039 0.391205
698 4 0.402076 0.0690909 0.348853
397 2 0.0753806 0.0929233 0.346041
398 4 0.0642827 0.11414 0.353242
2584 2 0.0261024 0.12591 0.348545
2586 4 0.0490879 0.125465 0.358376
458 4 0.0503876 0.129828 0.377812
457 2 0.0523063 0.148959 0.393796
606 4 0.149915 0.0850409 0.346737
604 2 0.172009 0.0903288 0.35718
248 4 0.213548 0.0940932 0.364586
247 2 0.228057 0.110615 0.352682
404 4 0.245642 0.145224 0.332089
249 4 0.242567 0.127136 0.340779
683 4 0.256695 0.138762 0.34561
682 2 0.27663 0.149699 0.356008
684 4 0.296566 0.160636 0.366406
320 4 0.312268 0.171815 0.361305
319 2 0.331698 0.159347 0.351703
321 4 0.351128 0.146879 0.342102
726 4 0.408958 0.142886 0.400793
717 4 0.36915 0.147686 0.351476
715 2 0.381724 0.151361 0.372773
716 4 0.394299 0.155037 0.39407
467 4 0.397124 0.152289 0.412589
724 2 0.409075 0.118858 0.407708
641 4 0.453356 0.108602 0.375336
640 2 0.476452 0.104965 0.384197
459 4 0.0542249 0.16809 0.40978
598 2 0.108397 0.203759 0.351655
599 4 0.11723 0.222716 0.365359
389 4 0.130794 0.247956 0.374871
686 4 0.122739 0.23221 0.381129
685 2 0.11221 0.229472 0.403642
275 4 0.13535 0.228203 0.368041
274 2 0.158286 0.220366 0.37418
473 4 0.219275 0.202017 0.338024
474 4 0.199995 0.220412 0.380339
472 2 0.209635 0.211214 0.359181
276 4 0.181222 0.212528 0.380318
269 4 0.410948 0.227407 0.338577
268 2 0.43318 0.220061 0.34735
270 4 0.455411 0.212716 0.356123
452 4 0.465832 0.226952 0.364602
451 2 0.472952 0.222436 0.388141
453 4 0.480071 0.217921 0.41168
347 4 0.0592307 0.313501 0.39711
346 2 0.0421101 0.301651 0.410954
618 4 0.071093 0.32435 0.386503
388 2 0.126885 0.271155 0.366402
616 2 0.0881472 0.312639 0.372461
390 4 0.122976 0.294353 0.357934
617 4 0.105201 0.300928 0.358418
374 4 0.116673 0.310251 0.346681
420 4 0.394371 0.288101 0.317171
488 4 0.337077 0.28382 0.414939
601 2 0.0527968 0.377063 0.33336
602 4 0.0707927 0.372905 0.350213
549 4 0.0795546 0.385695 0.361611
547 2 0.0873382 0.404565 0.37605
509 4 0.215525 0.363075 0.338435
240 4 0.325764 0.381613 0.383253
335 4 0.330561 0.374617 0.40226
238 2 0.339436 0.393067 0.36573
239 4 0.353109 0.404521 0.348207
752 4 0.463736 0.390631 0.379941
561 4 0.47686 0.377089 0.389427
751 2 0.476012 0.408656 0.36771
776 4 0.0499208 0.480682 0.334252
500 4 0.0572456 0.463873 0.342556
499 2 0.0678844 0.459952 0.364841
501 4 0.0785231 0.456031 0.387126
548 4 0.0951218 0.423436 0.39049
407 4 0.0930601 0.443895 0.391145
406 2 0.107473 0.454311 0.408722
1556 4 0.224991 0.50058 0.378708
1555 2 0.247548 0.494913 0.387886
5 3 0.26175 0.439492 0.345202
636 4 0.265326 0.471753 0.406271
1557 4 0.270106 0.489247 0.397063
587 4 0.363588 0.416004 0.360688
586 2 0.376546 0.43683 0.365539
593 4 0.394077 0.471224 0.355006
588 4 0.389505 0.457656 0.370391
592 2 0.41334 0.484202 0.34575
712 2 0.469006 0.48316 0.338041
714 4 0.486673 0.465562 0.339873
753 4 0.488288 0.42668 0.355478
117 3 0.485379 0.447326 0.357241
1772 4 0.992045 0.00152463 0.442712
719 4 0.0535496 0.0128313 0.463383
718 2 0.0293734 0.00762036 0.459704
369 4 0.07379 0.0134738 0.463056
720 4 0.00519724 0.00240943 0.456025
367 2 0.0888687 0.00448526 0.445252
2430 4 0.17472 0.00320156 0.502658
341 4 0.191289 0.00714189 0.491913
963 4 0.301306 0.0328495 0.426813
432 4 0.303516 0.0427976 0.442675
430 2 0.314895 0.0518432 0.463019
961 2 0.31556 0.0129549 0.421693
431 4 0.326274 0.0608888 0.483363
1217 4 0.412625 0.057431 0.504776
843 4 0.345939 0.0518109 0.483127
1216 2 0.429609 0.0602778 0.486648
1218 4 0.446593 0.0631246 0.468521
725 4 0.409193 0.0948299 0.414623
260 4 0.0506982 0.187276 0.418979
259 2 0.0668891 0.204301 0.427535
261 4 0.0830799 0.221326 0.43609
687 4 0.101682 0.226734 0.426155
1035 4 0.0983623 0.227319 0.444449
1033 2 0.0977314 0.245302 0.46181
466 2 0.408356 0.173327 0.420101
468 4 0.419587 0.194365 0.427614
409 2 0.400169 0.225601 0.440573
410 4 0.414752 0.205455 0.443158
411 4 0.385587 0.245747 0.437988
515 4 0.475216 0.21403 0.431431
575 4 0.416408 0.199471 0.460843
516 4 0.429662 0.197846 0.444222
574 2 0.423142 0.181854 0.477258
514 2 0.452439 0.205938 0.437827
2802 4 0.00578013 0.288069 0.417314
348 4 0.0249894 0.289801 0.424797
1034 4 0.0971006 0.263285 0.47917
696 4 0.100458 0.27221 0.49593
1260 4 0.112481 0.275964 0.481316
1258 2 0.112768 0.299703 0.47347
1259 4 0.113055 0.323442 0.465625
9 3 0.147987 0.326515 0.429954
7 3 0.131025 0.325001 0.46346
489 4 0.378609 0.263421 0.433904
487 2 0.357843 0.27362 0.424421
266 4 0.389454 0.260081 0.450485
265 2 0.390771 0.276266 0.469498
267 4 0.392089 0.292451 0.488511
3308 4 0.479776 0.332484 0.474491
1011 4 0.479586 0.31458 0.463794
1009 2 0.470502 0.299952 0.481924
326 4 0.0722917 0.35822 0.474555
6 1 0.140566 0.339095 0.447984
327 4 0.115964 0.341104 0.45722
325 2 0.0941277 0.349662 0.465887
10 3 0.125027 0.354223 0.441032
709 2 0.140816 0.402843 0.489015
711 4 0.129207 0.421706 0.477412
8 3 0.158449 0.350088 0.457869
503 4 0.17884 0.34059 0.484103
334 2 0.315015 0.386311 0.417968
336 4 0.299468 0.398004 0.433676
668 4 0.29787 0.39932 0.453697
882 4 0.326821 0.370961 0.481003
559 2 0.492139 0.366587 0.406204
1382 4 0.00700427 0.490235 0.499052
1381 2 0.00348409 0.476256 0.478622
408 4 0.121887 0.464728 0.426298
382 2 0.136597 0.452081 0.459261
569 4 0.141013 0.467969 0.429009
568 2 0.15775 0.485047 0.421701
383 4 0.129457 0.470248 0.443635
384 4 0.143738 0.433915 0.474887
570 4 0.174487 0.502125 0.414394
772 2 0.334867 0.461978 0.444039
669 4 0.294957 0.449243 0.453801
634 2 0.281042 0.470499 0.425677
635 4 0.296759 0.469244 0.445083
774 4 0.31094 0.458284 0.450288
667 2 0.296414 0.424281 0.453749
773 4 0.358794 0.465673 0.437791
663 4 0.450285 0.489534 0.450991
1152 4 0.224386 0.056238 0.51295
342 4 0.207148 0.0473692 0.517032
340 2 0.199218 0.0272555 0.504473
1150 2 0.226021 0.0637868 0.536731
1151 4 0.227655 0.0713356 0.560512
1181 4 0.241314 0.0822919 0.56704
842 4 0.393096 0.0547708 0.499502
841 2 0.369517 0.0532908 0.491314
1061 4 0.503037 0.0463081 0.5419
3007 2 0.49678 0.0377954 0.574632
1270 2 0.0892839 0.150806 0.553394
1058 4 0.115248 0.0813755 0.513261
1271 4 0.0961176 0.127295 0.558464
1057 2 0.11224 0.0969061 0.532624
1059 4 0.109232 0.112437 0.551987
1155 4 0.115 0.128206 0.560535
939 4 0.103004 0.116239 0.569577
1153 2 0.135672 0.131386 0.574237
1180 2 0.236102 0.106113 0.572569
898 2 0.245852 0.161286 0.57072
1199 4 0.0214808 0.225695 0.581187
879 4 0.0659915 0.183398 0.552085
877 2 0.0524026 0.20012 0.56477
1272 4 0.0824503 0.174317 0.548324
878 4 0.0388137 0.216841 0.577456
651 4 0.220549 0.221737 0.5213
858 4 0.202642 0.23056 0.521654
649 2 0.237747 0.205814 0.53001
650 4 0.254945 0.18989 0.538719
899 4 0.257437 0.176274 0.554401
576 4 0.429877 0.164237 0.493673
695 4 0.0770883 0.274483 0.540082
694 2 0.0887734 0.273346 0.518006
948 4 0.159854 0.296286 0.588745
946 2 0.177243 0.292077 0.571278
856 2 0.196698 0.25352 0.529571
857 4 0.190755 0.276481 0.537487
947 4 0.194633 0.287869 0.553812
798 4 0.207609 0.27521 0.562981
796 2 0.229075 0.275441 0.5758
791 4 0.265131 0.290216 0.589148
790 2 0.2709 0.313657 0.582636
797 4 0.250541 0.275672 0.58862
2455 2 0.486539 0.257965 0.512316
2457 4 0.46524 0.271034 0.513166
1010 4 0.461419 0.285324 0.500054
710 4 0.152424 0.383981 0.500618
504 4 0.160164 0.374013 0.516271
502 2 0.169502 0.357302 0.500187
1189 2 0.242969 0.366181 0.574752
803 4 0.267507 0.352363 0.553636
804 4 0.275786 0.3545 0.504365
802 2 0.271646 0.353432 0.529
1190 4 0.263542 0.352141 0.572559
1238 4 0.279789 0.35325 0.567485
792 4 0.276669 0.337099 0.576124
1237 2 0.299654 0.364813 0.577327
929 4 0.35981 0.369025 0.538888
881 4 0.360498 0.369688 0.517949
880 2 0.343659 0.370324 0.499476
928 2 0.34942 0.373472 0.561192
540 4 0.117719 0.470559 0.595742
1081 2 0.0817612 0.0752441 0.642117
1083 4 0.0745365 0.0904861 0.623659
4337 4 0.0142582 0.00169464 0.663918
1032 4 0.240966 0.065862 0.57606
1030 2 0.244894 0.0492868 0.594363
825 4 0.153273 0.063994 0.659196
1031 4 0.248822 0.0327116 0.612667
824 4 0.182271 0.0234208 0.662891
823 2 0.167772 0.0437074 0.661043
2133 4 0.173551 0.00513313 0.659598
951 4 0.268838 0.0363888 0.618302
949 2 0.279118 0.0136627 0.62004
3008 4 0.488698 0.0199878 0.590212
809 4 0.474397 0.0196772 0.604675
808 2 0.469809 0.0350921 0.623819
810 4 0.465221 0.0505069 0.642963
45 3 0.467193 0.071596 0.642742
41 1 0.457738 0.0653696 0.662503
42 3 0.45619 0.0424312 0.663266
43 3 0.436433 0.074389 0.664276
1127 4 0.0583223 0.0892654 0.613711
1126 2 0.0343944 0.0899125 0.606485
1128 4 0.0104664 0.0905595 0.599259
938 4 0.0762288 0.0936546 0.605267
937 2 0.0896162 0.104947 0.587422
1154 4 0.156344 0.134565 0.587938
1182 4 0.230889 0.129934 0.578098
900 4 0.234267 0.146297 0.587039
1221 4 0.172318 0.145689 0.578551
1219 2 0.195637 0.139832 0.585417
1211 4 0.242913 0.14191 0.651775
1210 2 0.234919 0.144117 0.628186
1220 4 0.218955 0.133976 0.592282
1212 4 0.226925 0.146324 0.604598
1227 4 0.24724 0.129951 0.663255
888 4 0.261807 0.142848 0.654787
886 2 0.285516 0.14976 0.658695
3424 2 0.498172 0.0945131 0.655319
3425 4 0.478366 0.0801074 0.660355
1244 4 0.0516002 0.218077 0.59466
1243 2 0.0419864 0.239796 0.602473
1192 2 0.343187 0.168412 0.645906
1193 4 0.35813 0.173879 0.626618
3123 4 0.483961 0.238667 0.635752
982 2 0.0126367 0.278427 0.57654
983 4 0.0287766 0.267395 0.592128
1245 4 0.0323726 0.261515 0.610285
3263 4 0.0600171 0.32956 0.614731
820 2 0.14953 0.332567 0.668026
1135 2 0.172389 0.320967 0.618939
1136 4 0.172502 0.300257 0.60493
872 4 0.363834 0.298944 0.576725
871 2 0.370204 0.306925 0.599548
873 4 0.376574 0.314906 0.622371
813 4 0.388128 0.329613 0.62835
954 4 0.446435 0.294069 0.587321
952 2 0.457464 0.31361 0.598353
3262 2 0.0581855 0.35408 0.619266
1041 4 0.0717718 0.389095 0.619244
3264 4 0.056354 0.378601 0.623801
3240 4 0.0544281 0.396899 0.617291
3238 2 0.0310845 0.40255 0.61034
3239 4 0.00774085 0.408202 0.603389
822 4 0.163096 0.343592 0.65015
1039 2 0.0940088 0.395306 0.628842
1040 4 0.116246 0.401518 0.63844
993 4 0.135182 0.395384 0.634434
991 2 0.150494 0.375634 0.635271
992 4 0.165806 0.355885 0.636108
1137 4 0.172276 0.341676 0.632949
1064 4 0.179874 0.353512 0.645577
897 4 0.184872 0.355508 0.627398
896 4 0.209589 0.381059 0.592228
895 2 0.197231 0.368283 0.609813
1172 4 0.224456 0.393092 0.591198
1191 4 0.222395 0.380221 0.576945
1063 2 0.196279 0.358999 0.663631
930 4 0.33903 0.377919 0.583495
1239 4 0.319518 0.376375 0.58717
811 2 0.399178 0.349676 0.638377
1206 4 0.404621 0.384309 0.661701
927 4 0.40679 0.387129 0.642992
812 4 0.410229 0.369739 0.648405
925 2 0.414567 0.403414 0.625686
926 4 0.422344 0.419699 0.60838
953 4 0.468492 0.333151 0.609385
906 4 0.470496 0.352337 0.603353
904 2 0.494982 0.356699 0.600783
539 4 0.0849233 0.432844 0.597402
2244 4 0.123934 0.487872 0.58616
1160 4 0.134775 0.472154 0.587386
538 2 0.101321 0.451701 0.596572
1159 2 0.156762 0.482009 0.594064
1171 2 0.222794 0.417039 0.598195
1186 2 0.210087 0.474979 0.594764
1173 4 0.221132 0.440986 0.605193
1187 4 0.221641 0.453251 0.590343
1188 4 0.198532 0.496708 0.599186
1161 4 0.17875 0.491865 0.600742
1029 4 0.23306 0.428002 0.669748
1002 4 0.419953 0.439092 0.610907
1230 4 0.346435 0.461135 0.670159
1911 4 0.452512 0.497173 0.600983
1001 4 0.445351 0.48216 0.610006
1000 2 0.432652 0.460626 0.610456
1269 4 0.463784 0.489452 0.614042
1267 2 0.473266 0.493653 0.636794
1268 4 0.482748 0.497853 0.659545
1082 4 0.0889858 0.0600022 0.660574
943 2 0.0484772 0.0231323 0.668772
944 4 0.0641396 0.0426059 0.667967
1076 4 0.0797816 0.0500842 0.67663
1075 2 0.0754797 0.0638692 0.697042
945 4 0.0328148 0.00365868 0.669577
864 4 0.0617527 0.0795484 0.734161
1107 4 0.0802107 0.0859846 0.72943
1077 4 0.0711778 0.0776542 0.717454
4520 4 0.0206752 0.989688 0.677499
1283 4 0.147929 0.0759833 0.675121
1148 4 0.250667 0.0632524 0.672656
2254 2 0.181388 0.00479272 0.700734
2256 4 0.176971 0.0117125 0.677116
1149 4 0.240078 0.039952 0.715617
1147 2 0.245372 0.0516022 0.694136
1226 4 0.257844 0.081293 0.667801
1004 4 0.345228 0.0757119 0.727049
1092 4 0.338787 0.0113832 0.694633
1163 4 0.472513 0.0509307 0.678254
1162 2 0.487858 0.041374 0.695528
44 3 0.470896 0.0725929 0.680198
1164 4 0.503203 0.0318174 0.712802
851 4 0.0758112 0.095028 0.710895
850 2 0.071042 0.118406 0.703418
852 4 0.0662727 0.141784 0.695942
1105 2 0.099555 0.0906804 0.74456
1282 2 0.158213 0.0985297 0.678448
908 4 0.22869 0.138788 0.664137
1284 4 0.168498 0.121076 0.681774
909 4 0.182798 0.135766 0.683773
907 2 0.205744 0.137277 0.673955
1225 2 0.252542 0.105622 0.665528
829 2 0.330899 0.148427 0.700144
1005 4 0.347422 0.125664 0.727859
1003 2 0.346325 0.100688 0.727454
831 4 0.342484 0.144761 0.721996
3270 4 0.492739 0.169317 0.728566
3268 2 0.495671 0.147289 0.740027
1178 4 0.0078357 0.252547 0.738541
1072 2 0.112755 0.250374 0.723355
1073 4 0.0884497 0.248791 0.729004
1194 4 0.328245 0.162945 0.665193
830 4 0.319315 0.152092 0.678291
887 4 0.309226 0.156672 0.662604
977 4 0.310513 0.222508 0.736062
976 2 0.33494 0.226088 0.732102
1298 4 0.297997 0.216741 0.749327
918 4 0.301447 0.235049 0.749586
1297 2 0.284246 0.197205 0.741949
978 4 0.359367 0.229667 0.728143
1025 4 0.382771 0.192599 0.698042
1020 4 0.3714 0.239381 0.740542
1024 2 0.403459 0.197164 0.711322
1142 4 0.434625 0.203283 0.740329
1144 2 0.4634 0.19254 0.719021
1262 4 0.430037 0.219205 0.72913
1026 4 0.424147 0.201728 0.724602
1261 2 0.435095 0.242574 0.721815
1145 4 0.444517 0.207743 0.725144
1146 4 0.482282 0.177337 0.712898
1177 2 0.0240071 0.268026 0.727402
1179 4 0.0401785 0.283505 0.716264
1208 4 0.14381 0.269948 0.716204
1074 4 0.137061 0.251958 0.717706
1207 2 0.147422 0.292616 0.706291
821 4 0.135963 0.321541 0.685902
1209 4 0.151033 0.315285 0.696379
1130 4 0.150456 0.257381 0.730288
806 4 0.245136 0.315014 0.707023
1263 4 0.440153 0.265942 0.7145
892 2 0.0392589 0.359567 0.725057
1279 2 0.0794086 0.404277 0.731678
1280 4 0.0706244 0.381359 0.726906
816 4 0.0801771 0.370769 0.714614
894 4 0.0638647 0.363912 0.725976
893 4 0.014653 0.355221 0.724138
814 2 0.0958223 0.353117 0.72291
815 4 0.111468 0.335466 0.731206
942 4 0.128429 0.342994 0.737229
940 2 0.151296 0.352648 0.740248
805 2 0.22864 0.332897 0.701254
1065 4 0.212684 0.364486 0.681685
807 4 0.212145 0.35078 0.695485
1028 4 0.217332 0.384151 0.687925
1066 2 0.195898 0.375307 0.718022
1068 4 0.211674 0.370636 0.699195
1027 2 0.225196 0.406077 0.678837
1067 4 0.180122 0.379979 0.73685
941 4 0.174162 0.362301 0.743267
1204 2 0.383743 0.390672 0.6739
1205 4 0.362865 0.397035 0.686098
1983 4 0.089719 0.446752 0.733391
1281 4 0.0881928 0.427195 0.73645
1981 2 0.102936 0.463553 0.746362
1176 4 0.190954 0.47311 0.736404
1175 4 0.202545 0.495723 0.693334
1174 2 0.19675 0.484417 0.714869
2016 4 0.179257 0.486696 0.745185
1140 4 0.252741 0.430001 0.668752
2026 2 0.286933 0.499787 0.691391
1138 2 0.268362 0.449211 0.672236
1139 4 0.283983 0.468421 0.67572
1987 2 0.292379 0.455865 0.729679
1229 4 0.299121 0.460985 0.686349
1989 4 0.294579 0.46248 0.705668
2028 4 0.29186 0.475291 0.692316
1228 2 0.322778 0.46106 0.678254
1988 4 0.290178 0.449249 0.753691
1101 4 0.478453 0.488153 0.675153
1099 2 0.490266 0.476003 0.693538
1100 4 0.502079 0.463854 0.711923
862 2 0.042571 0.0790349 0.750192
2989 2 0.0144127 0.0385375 0.777522
2990 4 0.0140872 0.0626007 0.770737
2991 4 0.0147382 0.0144744 0.784307
863 4 0.0233893 0.0785214 0.766222
833 4 0.0157768 0.0746362 0.785119
3083 4 0.00558742 0.0807321 0.772756
2049 4 0.108475 0.00873095 0.804833
1202 4 0.111628 0.0274582 0.797315
1201 2 0.122006 0.0498359 0.793226
1203 4 0.132384 0.0722136 0.789137
32 3 0.143118 0.0837381 0.806562
1085 4 0.312643 0.0663022 0.818717
960 4 0.314201 0.0612045 0.837449
1050 4 0.349493 0.0113404 0.785493
819 4 0.329411 0.0611229 0.824864
817 2 0.340531 0.0427358 0.81208
818 4 0.351651 0.0243488 0.799295
974 4 0.365915 0.0116547 0.798122
844 2 0.499879 0.0644968 0.814767
845 4 0.495163 0.068085 0.790476
2322 4 0.495661 0.0577668 0.773759
2320 2 0.500479 0.0453621 0.752591