ITEM: TIMESTEP
1190000
ITEM: NUMBER OF ATOMS
4590
ITEM: BOX BOUNDS pp pp pp
-9.9985700000000008e+00 9.9985700000000008e+00
-9.9985700000000008e+00 9.9985700000000008e+00
-9.9985700000000008e+00 9.9985700000000008e+00
ITEM: ATOMS id type xs ys zs
1668 4 0.0823291 0.0336476 0.0624164
2183 4 0.106234 0.0658302 0.993688
1475 4 0.268426 0.0148093 0.0877631
297 4 0.345222 0.0538026 0.0614303
295 2 0.360151 0.0695612 0.0490222
747 4 0.455248 0.0580691 0.00518935
2974 2 0.471009 0.0254422 0.029539
2976 4 0.48187 0.00573008 0.0404316
2975 4 0.460148 0.0451543 0.0186463
986 4 0.447584 0.0406942 0.00234704
2467 2 0.488754 2.14032e-05 0.0829502
745 2 0.44562 0.0809972 0.00258369
2468 4 0.482164 0.00127849 0.0588634
360 4 0.310099 0.146183 0.0824163
358 2 0.334089 0.151196 0.0774613
296 4 0.375081 0.0853198 0.0366142
557 4 0.369511 0.0953796 0.0188568
556 2 0.393691 0.0986486 0.0133976
769 2 0.391529 0.145646 0.0508701
359 4 0.358078 0.156208 0.0725062
770 4 0.374262 0.161337 0.0598594
827 4 0.355256 0.0835955 0.0112408
771 4 0.408796 0.129954 0.0418809
558 4 0.417872 0.101918 0.00793836
565 2 0.16817 0.176727 0.0359893
566 4 0.147167 0.171654 0.0485723
567 4 0.189173 0.181799 0.0234062
664 2 0.378705 0.198438 0.0395929
665 4 0.37276 0.175006 0.045978
666 4 0.38465 0.22187 0.0332077
554 4 0.0805047 0.273076 0.0039044
555 4 0.090952 0.297486 0.0462802
553 2 0.0857284 0.285281 0.0250923
292 2 0.16156 0.274395 0.0177098
293 4 0.15951 0.295857 0.0303729
286 2 0.150856 0.327971 0.0312168
294 4 0.16361 0.252933 0.0050466
287 4 0.170626 0.312698 0.0301749
507 4 0.170735 0.300464 0.0449776
505 2 0.185291 0.295155 0.0646018
506 4 0.199848 0.289846 0.084226
481 2 0.236059 0.27142 0.073217
483 4 0.213482 0.275723 0.0830624
482 4 0.258636 0.267117 0.0633716
573 4 0.251897 0.268717 0.0450511
571 2 0.258409 0.277896 0.0227238
322 2 0.391626 0.277129 0.0594613
1069 2 0.391149 0.303597 0.0102707
324 4 0.396815 0.283918 0.0359634
1070 4 0.408604 0.2884 0.0197342
957 4 0.356645 0.326623 0.00841661
739 2 0.355939 0.334728 0.0520197
740 4 0.352605 0.335064 0.0767977
671 4 0.448398 0.320126 0.0601519
280 2 0.441355 0.292541 0.0337356
281 4 0.455891 0.307846 0.0471403
282 4 0.42682 0.277237 0.0203309
670 2 0.437444 0.333218 0.0784214
288 4 0.131087 0.343244 0.0322587
454 2 0.145209 0.365257 0.0776976
456 4 0.1664 0.3769 0.0713272
250 2 0.29481 0.389032 0.034297
251 4 0.296765 0.367681 0.0214326
252 4 0.292856 0.410383 0.0471613
609 4 0.294296 0.422013 0.0631716
741 4 0.359273 0.334391 0.0272416
495 4 0.395155 0.376832 0.067205
493 2 0.389804 0.399892 0.075254
245 4 0.244916 0.460424 0.0527031
626 4 0.226596 0.451507 0.0530392
625 2 0.203897 0.44349 0.0597958
627 4 0.181198 0.435472 0.0665523
244 2 0.259281 0.451009 0.034532
246 4 0.273646 0.441594 0.0163609
272 4 0.269413 0.453192 0.000140217
607 2 0.309231 0.431792 0.0806786
563 4 0.46611 0.476646 0.0613529
228 4 0.474224 0.490681 0.073861
562 2 0.44977 0.480101 0.0427445
564 4 0.433431 0.483556 0.0241362
854 4 0.433043 0.47322 0.00690113
1674 4 0.417701 0.487396 0.0362719
1666 2 0.0836513 0.0491657 0.0819771
19 3 0.0601956 0.0737803 0.140637
18 3 0.0722214 0.0385305 0.148203
16 1 0.0604344 0.0567576 0.156403
17 3 0.0387797 0.0502907 0.160693
1667 4 0.0849734 0.0646837 0.101538
701 4 0.0855296 0.0843997 0.103632
492 4 0.258443 0.031616 0.0943801
491 4 0.285673 0.0497847 0.132185
490 2 0.272058 0.0407004 0.113282
486 4 0.374717 0.0318007 0.0909657
484 2 0.373709 0.011906 0.106077
2469 4 0.495344 0.998764 0.107037
700 2 0.0848605 0.0982827 0.124417
476 4 0.0932132 0.130604 0.145763
702 4 0.0841914 0.112166 0.145201
475 2 0.0887348 0.143195 0.166895
581 4 0.296252 0.127404 0.164014
580 2 0.272626 0.135088 0.166834
628 2 0.381468 0.140258 0.134206
630 4 0.383683 0.151251 0.111858
312 4 0.383304 0.109203 0.159268
629 4 0.379252 0.129266 0.156554
738 4 0.180112 0.217559 0.114644
737 4 0.202637 0.174517 0.126506
736 2 0.191374 0.196038 0.120575
277 2 0.241285 0.239143 0.162857
279 4 0.221567 0.223768 0.162911
461 4 0.30425 0.233881 0.0892148
460 2 0.327293 0.231245 0.0985565
354 4 0.293276 0.23959 0.104276
352 2 0.280807 0.244323 0.125426
353 4 0.268338 0.249057 0.146576
284 4 0.273061 0.241125 0.165765
462 4 0.350336 0.22861 0.107898
254 4 0.37337 0.168643 0.114754
255 4 0.359848 0.216509 0.119931
253 2 0.366609 0.192576 0.117342
765 4 0.363317 0.22138 0.138249
624 4 0.361838 0.233236 0.121853
763 2 0.345899 0.225209 0.155774
648 4 0.0371238 0.302429 0.1464
339 4 0.0800876 0.25752 0.129441
337 2 0.0855823 0.246219 0.151058
646 2 0.0487709 0.317709 0.162402
537 4 0.205714 0.3085 0.0886859
536 4 0.201171 0.316322 0.137868
535 2 0.203443 0.312411 0.113277
278 4 0.261002 0.254519 0.162804
755 4 0.265024 0.268563 0.150269
387 4 0.331898 0.317528 0.138333
302 4 0.316404 0.326437 0.147349
622 2 0.376432 0.251022 0.112063
323 4 0.386437 0.270339 0.0829592
623 4 0.391027 0.268807 0.102273
385 2 0.342318 0.325744 0.117142
386 4 0.352737 0.333961 0.0959499
528 4 0.473447 0.279905 0.127606
518 4 0.474037 0.272529 0.108434
526 2 0.449342 0.276224 0.133137
527 4 0.425238 0.272542 0.138669
517 2 0.495886 0.260932 0.104791
551 4 0.0747076 0.35238 0.11756
455 4 0.124019 0.353613 0.084068
552 4 0.111003 0.368059 0.0869405
550 2 0.0928554 0.360219 0.10225
291 4 0.227791 0.41838 0.138491
416 4 0.207934 0.413832 0.137024
14 3 0.390613 0.362963 0.0795453
12 3 0.408742 0.336725 0.0994333
15 3 0.371426 0.336914 0.0988047
11 1 0.390015 0.35007 0.0988276
13 3 0.389977 0.363796 0.117536
672 4 0.42649 0.346311 0.0966909
104 3 0.496735 0.35166 0.124721
596 4 0.487423 0.401171 0.160702
1791 4 0.0429089 0.473942 0.145503
1466 4 0.0463079 0.479596 0.165133
1789 2 0.0501864 0.491258 0.128999
415 2 0.18991 0.430914 0.139941
417 4 0.171886 0.447996 0.142858
289 2 0.24996 0.42662 0.146603
768 4 0.287793 0.443359 0.166128
290 4 0.272129 0.43486 0.154716
608 4 0.324165 0.441572 0.0981855
494 4 0.384454 0.422952 0.0833029
525 4 0.380894 0.48821 0.117618
658 2 0.362865 0.438021 0.104107
659 4 0.339264 0.437958 0.112365
660 4 0.386465 0.438083 0.0958493
226 2 0.485904 0.473853 0.0881985
227 4 0.497585 0.457025 0.102536
1420 2 0.0294259 0.00144612 0.176249
20 3 0.0700116 0.064165 0.175692
2480 4 0.0253273 0.0430176 0.170892
1422 4 0.0218957 0.0249264 0.180391
2479 2 0.00629796 0.0586111 0.175353
674 4 0.15 0.0158278 0.243622
673 2 0.126242 0.00850361 0.240956
449 4 0.197116 0.0817563 0.166011
448 2 0.200216 0.0626458 0.181834
1506 4 0.251477 0.0280657 0.185537
450 4 0.203316 0.0435354 0.197657
1504 2 0.231627 0.0176317 0.196597
689 4 0.169197 0.0232749 0.240963
688 2 0.185652 0.00570109 0.234212
1505 4 0.211778 0.00719769 0.207656
652 2 0.285127 0.0199084 0.179985
653 4 0.308593 0.0220718 0.18834
654 4 0.26166 0.017745 0.171629
25 3 0.323089 0.0627817 0.238803
311 4 0.38749 0.0667684 0.185392
758 4 0.380595 0.0646112 0.204405
759 4 0.346996 0.0614476 0.241308
757 2 0.363796 0.0630294 0.222857
2722 2 0.472642 0.0400782 0.171231
2723 4 0.448407 0.0448176 0.167312
743 4 0.486906 0.0716232 0.24895
2724 4 0.496878 0.0353389 0.175149
512 4 0.0152131 0.135546 0.194765
511 2 0.0282911 0.154937 0.203605
381 4 0.00145903 0.133875 0.209857
578 4 0.0928338 0.084534 0.226843
477 4 0.0842565 0.155787 0.188028
577 2 0.108196 0.0847468 0.207116
579 4 0.123557 0.0849596 0.187389
237 4 0.231735 0.14019 0.18008
582 4 0.249 0.142773 0.169653
691 2 0.228633 0.0954749 0.240791
693 4 0.233309 0.108326 0.219858
236 4 0.207687 0.0981249 0.167714
235 2 0.219711 0.119158 0.173897
310 2 0.385397 0.0879859 0.17233
632 4 0.387193 0.116007 0.243641
350 4 0.407528 0.114839 0.246779
762 4 0.475793 0.144375 0.238533
521 4 0.494343 0.149634 0.235887
332 4 0.490675 0.13626 0.2494
760 2 0.460302 0.160674 0.249467
513 4 0.041369 0.174327 0.212445
393 4 0.0581865 0.170064 0.222104
394 2 0.0103852 0.238538 0.231127
391 2 0.0753652 0.17919 0.237813
546 4 0.166144 0.198947 0.241686
363 4 0.0943161 0.2466 0.189899
338 4 0.0910769 0.234918 0.172674
283 2 0.29359 0.232052 0.176784
285 4 0.314119 0.222979 0.187803
764 4 0.328481 0.229039 0.173299
395 4 0.0293436 0.249741 0.219284
647 4 0.0604179 0.332989 0.178404
749 4 0.0979084 0.280431 0.24411
361 2 0.101698 0.261064 0.208912
371 4 0.156676 0.314942 0.217095
370 2 0.143291 0.294285 0.221492
372 4 0.129906 0.273629 0.22589
362 4 0.10908 0.275527 0.227925
754 2 0.2706 0.288688 0.164019
756 4 0.276176 0.308814 0.177768
612 4 0.27847 0.322349 0.192664
610 2 0.267128 0.326883 0.214481
307 2 0.314832 0.28589 0.241304
308 4 0.321423 0.274006 0.220315
611 4 0.255785 0.331417 0.236297
299 4 0.154038 0.360257 0.243002
734 4 0.171023 0.352287 0.249213
303 4 0.321871 0.356295 0.18709
301 2 0.319138 0.341366 0.167219
729 4 0.325447 0.352056 0.206055
727 2 0.329961 0.373873 0.217406
644 4 0.415752 0.378299 0.240022
728 4 0.334474 0.395689 0.228757
447 4 0.396759 0.380724 0.24696
595 2 0.474149 0.404156 0.181681
597 4 0.460876 0.407141 0.202659
643 2 0.434 0.384665 0.224159
645 4 0.452249 0.391031 0.208295
264 4 0.03092 0.420134 0.224113
262 2 0.00874749 0.424755 0.234706
1465 2 0.0294633 0.490296 0.180198
1757 4 0.105867 0.462257 0.240992
1756 2 0.112795 0.48628 0.241248
767 4 0.276754 0.490298 0.179381
766 2 0.282273 0.466828 0.172754
231 4 0.433549 0.458453 0.211376
229 2 0.43023 0.482992 0.207914
234 4 0.00265853 0.0308875 0.304139
232 2 0.0270853 0.0293175 0.299035
233 4 0.051512 0.0277475 0.293932
1404 4 0.0696759 0.0226354 0.293245
1402 2 0.0789677 0.0128614 0.27219
316 2 0.0728215 0.0493303 0.319929
317 4 0.0644105 0.0276202 0.310813
428 4 0.0715606 0.0086216 0.305502
2756 4 0.995221 0.0417934 0.320378
692 4 0.223956 0.0826238 0.261723
23 3 0.317903 0.0465924 0.272399
21 1 0.328095 0.0640351 0.260985
24 3 0.320949 0.0843703 0.269577
22 3 0.350877 0.0624019 0.263714
699 4 0.370983 0.0638546 0.31411
697 2 0.384163 0.0566497 0.334099
351 4 0.430323 0.0737665 0.263929
479 4 0.459862 0.0401132 0.317257
478 2 0.448373 0.0500026 0.297373
2664 4 0.476953 0.0320759 0.314366
480 4 0.436884 0.059892 0.277489
1428 4 0.460572 0.0216903 0.320172
397 2 0.0626733 0.101508 0.331173
398 4 0.0534491 0.121761 0.319775
723 4 0.224873 0.0975408 0.274056
721 2 0.233808 0.103439 0.296651
722 4 0.242744 0.109337 0.319247
28 3 0.313796 0.146183 0.256679
26 1 0.321944 0.16642 0.264583
403 2 0.25454 0.154047 0.325843
349 2 0.418926 0.0943029 0.255354
29 3 0.344473 0.16441 0.269762
631 2 0.368745 0.125057 0.257887
707 4 0.351343 0.151547 0.283206
633 4 0.350297 0.134108 0.272132
706 2 0.353485 0.145239 0.307306
708 4 0.355627 0.138931 0.331405
333 4 0.488146 0.0878378 0.26163
331 2 0.48941 0.112049 0.255515
392 4 0.092544 0.188317 0.253522
388 2 0.129512 0.223215 0.310171
389 4 0.137003 0.202242 0.321538
390 4 0.122022 0.244188 0.298804
545 4 0.173714 0.215178 0.288377
544 2 0.169929 0.207063 0.265032
402 4 0.192832 0.221896 0.288918
400 2 0.18425 0.238553 0.305472
473 4 0.256421 0.192992 0.321989
472 2 0.241575 0.208573 0.334716
27 3 0.31948 0.182349 0.248171
30 3 0.310265 0.172817 0.283058
405 4 0.254852 0.175321 0.31271
717 4 0.404662 0.227928 0.32203
761 4 0.444811 0.176973 0.260401
748 2 0.100558 0.302541 0.255481
750 4 0.103207 0.324651 0.266852
401 4 0.175667 0.255211 0.322026
676 2 0.191061 0.319608 0.315047
345 4 0.227751 0.317028 0.298009
677 4 0.207019 0.322348 0.295994
343 2 0.236346 0.320002 0.274718
344 4 0.244941 0.322977 0.251427
496 2 0.292494 0.303154 0.292825
497 4 0.280274 0.292462 0.311839
377 4 0.278794 0.281561 0.329718
498 4 0.304713 0.313847 0.273811
309 4 0.308241 0.297773 0.262292
419 4 0.456458 0.253895 0.330626
418 2 0.433582 0.263969 0.330029
365 4 0.0224905 0.358377 0.284141
601 2 0.0465249 0.37818 0.309263
603 4 0.0347536 0.358295 0.299713
602 4 0.0582962 0.398064 0.318814
549 4 0.0773112 0.40074 0.324296
300 4 0.11034 0.343576 0.260694
298 2 0.132189 0.351916 0.251848
735 4 0.204575 0.32936 0.278356
733 2 0.187799 0.340823 0.263784
433 2 0.302356 0.383927 0.319274
435 4 0.279272 0.389806 0.311677
434 4 0.325441 0.378048 0.326872
615 4 0.374002 0.334492 0.331466
614 4 0.343542 0.372525 0.320221
613 2 0.358772 0.353508 0.325844
445 2 0.37553 0.383571 0.259861
446 4 0.354302 0.386417 0.272762
2690 4 0.00361687 0.466351 0.289809
2461 2 0.00870854 0.496148 0.313162
777 4 0.111702 0.488464 0.287356
775 2 0.119429 0.498893 0.308726
1437 4 0.26566 0.452294 0.342731
1435 2 0.259439 0.471403 0.327854
1436 4 0.253218 0.490512 0.312977
1803 4 0.358605 0.498098 0.268935
436 2 0.353385 0.474092 0.325435
437 4 0.372581 0.477623 0.309807
119 3 0.498775 0.45631 0.321236
318 4 0.0812326 0.0710404 0.329045
399 4 0.0718976 0.0812555 0.342571
369 4 0.0537009 0.00382827 0.416909
367 2 0.0786377 0.00505693 0.415559
732 4 0.0884739 0.073032 0.346746
730 2 0.109893 0.0760199 0.359294
731 4 0.131312 0.0790078 0.371843
368 4 0.103575 0.00628559 0.414208
1699 2 0.30545 0.00571151 0.361562
1700 4 0.317834 0.0247579 0.351118
425 4 0.334453 0.0149847 0.417545
698 4 0.397342 0.0494449 0.354088
257 4 0.414568 0.043797 0.363171
426 4 0.376448 0.0275918 0.393499
424 2 0.355451 0.0212883 0.405522
726 4 0.415065 0.0765888 0.409228
258 4 0.454191 0.0339934 0.334282
256 2 0.434379 0.0388952 0.348726
2586 4 0.00398857 0.133173 0.394516
2584 2 0.00155969 0.113477 0.379306
458 4 0.0157038 0.147324 0.405334
606 4 0.148602 0.0836177 0.365054
598 2 0.162621 0.158663 0.357768
600 4 0.163643 0.139029 0.342321
604 2 0.172276 0.0915693 0.366281
249 4 0.241723 0.118662 0.337445
605 4 0.19595 0.0995209 0.367507
248 4 0.215737 0.0911168 0.370106
247 2 0.22873 0.104889 0.353776
404 4 0.254228 0.132772 0.338976
683 4 0.263546 0.0883675 0.367013
682 2 0.27543 0.101197 0.384884
319 2 0.319167 0.130955 0.418073
684 4 0.287314 0.114027 0.402754
320 4 0.297996 0.117675 0.417308
321 4 0.340339 0.144235 0.418838
599 4 0.161598 0.178298 0.373216
686 4 0.155106 0.186912 0.39079
685 2 0.139177 0.1966 0.407451
275 4 0.170997 0.191378 0.361353
474 4 0.226728 0.224155 0.347444
276 4 0.207908 0.224583 0.355379
274 2 0.189453 0.20798 0.358366
715 2 0.397778 0.218867 0.344294
466 2 0.385965 0.189679 0.404378
716 4 0.390893 0.209805 0.366557
467 4 0.389682 0.193566 0.37996
270 4 0.488295 0.218629 0.37133
452 4 0.457359 0.188214 0.394375
451 2 0.445089 0.17541 0.412002
268 2 0.47 0.229706 0.358377
347 4 0.0633792 0.323897 0.407289
618 4 0.0725043 0.320091 0.390003
616 2 0.0942913 0.308055 0.387627
617 4 0.116078 0.296019 0.385251
374 4 0.122882 0.292836 0.366212
373 2 0.145291 0.300443 0.358141
678 4 0.175104 0.316867 0.3341
375 4 0.167701 0.308051 0.350071
509 4 0.228464 0.31126 0.376756
508 2 0.248184 0.323763 0.367814
376 2 0.263885 0.267163 0.343703
378 4 0.248975 0.252765 0.357688
510 4 0.267904 0.336266 0.358871
543 4 0.39325 0.332214 0.337726
541 2 0.407297 0.311608 0.335918
420 4 0.410706 0.274043 0.329432
542 4 0.421343 0.291002 0.334109
269 4 0.451704 0.240782 0.345424
346 2 0.0466324 0.342151 0.403893
348 4 0.0298857 0.360404 0.400497
668 4 0.330241 0.391747 0.407465
753 4 0.4853 0.411459 0.346542
561 4 0.491526 0.404039 0.402605
751 2 0.479697 0.406143 0.370323
752 4 0.474093 0.400828 0.394104
547 2 0.0895214 0.416594 0.339288
407 4 0.098134 0.438134 0.372892
548 4 0.101732 0.432447 0.354281
406 2 0.103014 0.453037 0.392367
501 4 0.0956508 0.484946 0.380316
408 4 0.107895 0.467939 0.411842
1543 2 0.187208 0.499542 0.413954
1556 4 0.220067 0.491987 0.41759
3 3 0.315239 0.459324 0.333808
5 3 0.293071 0.482363 0.353694
438 4 0.33419 0.470561 0.341063
1 1 0.311382 0.468852 0.35461
4 3 0.308163 0.45222 0.370467
2 3 0.329739 0.481363 0.360578
588 4 0.415272 0.465823 0.394485
592 2 0.434233 0.49018 0.380761
593 4 0.428685 0.479068 0.402462
594 4 0.43978 0.501292 0.35906
713 4 0.447788 0.495995 0.339392
714 4 0.48521 0.462924 0.336811
712 2 0.466499 0.47946 0.338102
117 3 0.490441 0.450237 0.357379
718 2 0.0247576 0.00414029 0.449319
720 4 0.00633019 0.00425236 0.466219
719 4 0.043185 0.00402821 0.43242
340 2 0.226697 0.041383 0.497109
2430 4 0.216914 0.0100973 0.497532
341 4 0.224497 0.0211597 0.482571
441 4 0.315332 0.0196411 0.420863
962 4 0.30624 0.0256214 0.438207
961 2 0.308004 0.0369359 0.460434
963 4 0.309768 0.0482504 0.482661
432 4 0.298451 0.0626855 0.491001
457 2 0.0336016 0.156777 0.420013
459 4 0.0514994 0.16623 0.434693
725 4 0.414109 0.116937 0.438755
724 2 0.414587 0.096763 0.423991
2878 2 0.497059 0.0982837 0.426226
642 4 0.499195 0.131414 0.455627
2880 4 0.494018 0.117195 0.442298
640 2 0.489922 0.130928 0.478842
453 4 0.432819 0.162606 0.429628
515 4 0.430603 0.165623 0.449358
260 4 0.0676386 0.174875 0.442496
259 2 0.0895258 0.186637 0.439707
687 4 0.123248 0.206288 0.424112
261 4 0.111413 0.198399 0.436918
1035 4 0.123718 0.211081 0.444317
1033 2 0.116752 0.228828 0.460494
1034 4 0.109786 0.246576 0.47667
489 4 0.339757 0.216704 0.440774
487 2 0.33766 0.240228 0.432563
649 2 0.270827 0.241045 0.499538
468 4 0.382248 0.185792 0.428797
514 2 0.40678 0.168515 0.456378
411 4 0.332308 0.202819 0.452782
516 4 0.382957 0.171408 0.463397
409 2 0.354001 0.191046 0.44878
410 4 0.375694 0.179274 0.444778
575 4 0.390799 0.180902 0.479615
584 4 0.489611 0.243685 0.496325
305 4 0.488371 0.171489 0.42658
583 2 0.484522 0.235387 0.473294
585 4 0.479432 0.22709 0.450262
2847 4 0.022092 0.328144 0.468099
695 4 0.0471477 0.264926 0.489018
694 2 0.0718182 0.268922 0.488259
1258 2 0.125827 0.279499 0.489103
1259 4 0.140968 0.299263 0.486797
9 3 0.130216 0.309001 0.473654
696 4 0.0964887 0.272918 0.487499
1260 4 0.110686 0.259735 0.491409
6 1 0.124452 0.331237 0.470375
7 3 0.102719 0.332262 0.462906
488 4 0.335563 0.263751 0.424352
651 4 0.287592 0.258243 0.492586
266 4 0.370265 0.247688 0.441881
267 4 0.390229 0.275315 0.478472
265 2 0.380247 0.261501 0.460176
2845 2 0.00720436 0.348176 0.466608
326 4 0.0526181 0.369355 0.449166
325 2 0.0673024 0.351159 0.458023
327 4 0.0819868 0.332963 0.466881
711 4 0.130498 0.410279 0.449954
10 3 0.138183 0.34061 0.454811
709 2 0.153515 0.401472 0.44573
8 3 0.126063 0.342871 0.490386
503 4 0.234418 0.390836 0.438589
504 4 0.187627 0.38285 0.45432
502 2 0.211023 0.386843 0.446455
710 4 0.176532 0.392665 0.441505
667 2 0.317301 0.407373 0.422079
773 4 0.300068 0.407142 0.494722
336 4 0.334219 0.377585 0.420079
335 4 0.377539 0.356164 0.432931
334 2 0.355879 0.366874 0.426505
238 2 0.407632 0.387261 0.423402
240 4 0.394425 0.36615 0.425656
239 4 0.420839 0.408372 0.421148
559 2 0.500435 0.401699 0.42585
1381 2 0.0171959 0.490716 0.447776
1383 4 0.0280149 0.468216 0.446403
680 4 0.017567 0.459085 0.432756
679 2 0.0038715 0.439027 0.426815
569 4 0.114411 0.482174 0.425008
382 2 0.119999 0.447351 0.442763
384 4 0.132172 0.429418 0.455228
568 2 0.13322 0.498467 0.427447
383 4 0.107825 0.465284 0.430298
1545 4 0.165821 0.502096 0.426652
1555 2 0.244805 0.491389 0.421171
669 4 0.304361 0.422998 0.436693
774 4 0.301085 0.435358 0.453448
634 2 0.295136 0.468501 0.446226
636 4 0.277715 0.486183 0.443216
772 2 0.300577 0.42125 0.474085
635 4 0.312556 0.450819 0.449236
1557 4 0.269544 0.490791 0.424753
586 2 0.417913 0.446563 0.41021
661 2 0.455447 0.493126 0.458834
587 4 0.420553 0.427304 0.425935
663 4 0.452003 0.477649 0.4395
342 4 0.228896 0.0616063 0.511647
1032 4 0.242592 0.0825271 0.575996
1152 4 0.218445 0.075875 0.522254
1150 2 0.222443 0.0837932 0.545632
430 2 0.309903 0.0677401 0.512646
431 4 0.321354 0.0727947 0.534291
843 4 0.335216 0.0850419 0.541447
1030 2 0.266827 0.0801504 0.581672
1217 4 0.389041 0.0765991 0.530618
1216 2 0.411032 0.0663108 0.524641
841 2 0.359743 0.0819046 0.545163
842 4 0.384269 0.0787674 0.548878
1218 4 0.433023 0.0560225 0.518665
469 2 0.00347949 0.159541 0.516151
1058 4 0.114466 0.0930645 0.536048
1057 2 0.118614 0.101967 0.559041
1059 4 0.122762 0.11087 0.582035
1151 4 0.22644 0.0917115 0.569009
1181 4 0.22025 0.13045 0.542467
1180 2 0.243777 0.138242 0.539159
1182 4 0.267304 0.146034 0.535852
900 4 0.269186 0.144642 0.516283
898 2 0.285903 0.163098 0.518537
641 4 0.480648 0.130442 0.502057
471 4 0.0132708 0.182253 0.512477
1199 4 0.0272357 0.247518 0.571081
1198 2 0.00332963 0.241446 0.56698
878 4 0.0366188 0.233465 0.581274
1244 4 0.0549912 0.243979 0.581531
1271 4 0.125917 0.188439 0.575352
1270 2 0.10111 0.18579 0.577014
650 4 0.254062 0.223847 0.506491
899 4 0.30262 0.181555 0.520791
797 4 0.271178 0.248327 0.561041
576 4 0.389272 0.206554 0.522514
574 2 0.390036 0.193728 0.501065
983 4 0.0445073 0.301464 0.564393
1245 4 0.0609634 0.291635 0.567606
982 2 0.0252193 0.316721 0.568909
1243 2 0.0579773 0.267807 0.574569
984 4 0.00593138 0.331977 0.573425
798 4 0.221711 0.255349 0.563159
796 2 0.246444 0.251838 0.5621
858 4 0.187849 0.272905 0.549701
948 4 0.169417 0.294224 0.588651
856 2 0.201247 0.265427 0.529959
946 2 0.189592 0.280889 0.582299
947 4 0.209767 0.267554 0.575948
857 4 0.214645 0.257949 0.510217
804 4 0.257924 0.324155 0.542539
1237 2 0.317655 0.328176 0.565384
791 4 0.27636 0.262522 0.576999
1238 4 0.301141 0.310235 0.570914
790 2 0.283606 0.285825 0.582446
871 2 0.3871 0.276288 0.565659
873 4 0.389441 0.29633 0.550894
813 4 0.392555 0.314762 0.547405
906 4 0.475984 0.294993 0.555153
953 4 0.463136 0.309596 0.557267
904 2 0.498184 0.284668 0.560225
952 2 0.450224 0.32592 0.571122
3354 4 0.0107282 0.351131 0.565344
1190 4 0.234005 0.359549 0.575084
803 4 0.247161 0.368485 0.563026
802 2 0.252543 0.34632 0.552783
930 4 0.328497 0.363209 0.570012
1239 4 0.334168 0.346117 0.559853
811 2 0.393415 0.338986 0.55354
812 4 0.394275 0.36321 0.559675
927 4 0.409399 0.376018 0.556389
929 4 0.358252 0.400842 0.555902
928 2 0.343374 0.382026 0.562957
881 4 0.334538 0.401603 0.495901
926 4 0.445872 0.410218 0.557255
925 2 0.427635 0.393118 0.556822
538 2 0.0695796 0.46811 0.571014
539 4 0.0485745 0.456972 0.578754
540 4 0.0905847 0.479248 0.563274
1160 4 0.117666 0.469165 0.547313
1159 2 0.139089 0.468841 0.560204
1161 4 0.160511 0.468517 0.573095
2244 4 0.100159 0.480616 0.544875
891 4 0.312917 0.429061 0.578408
1953 4 0.38933 0.485114 0.579764
882 4 0.358188 0.440434 0.516723
880 2 0.346363 0.421019 0.506312
1000 2 0.440994 0.447713 0.576299
1002 4 0.44061 0.428884 0.559853
2114 4 0.00307434 0.0129465 0.60886
823 2 0.147517 0.0302595 0.64323
825 4 0.132351 0.0497023 0.639091
824 4 0.162684 0.0108168 0.647369
1031 4 0.291061 0.0777737 0.587348
951 4 0.295631 0.0573662 0.585853
949 2 0.300953 0.0344018 0.594188
950 4 0.306276 0.0114374 0.602524
2283 4 0.400103 0.0300124 0.662375
2281 2 0.400177 0.00628466 0.65449
809 4 0.486492 0.0474315 0.598178
808 2 0.477702 0.0557892 0.620043
42 3 0.464719 0.0531684 0.661422
810 4 0.468911 0.0641469 0.641907
41 1 0.458964 0.0753339 0.663596
43 3 0.435927 0.0769141 0.665876
938 4 0.0676564 0.143624 0.601803
1082 4 0.0674817 0.0831502 0.649755
1126 2 0.0181324 0.101066 0.588448
1083 4 0.0551313 0.105364 0.606688
1081 2 0.0613065 0.0942571 0.628221
1127 4 0.041047 0.0941605 0.595688
937 2 0.0905614 0.134257 0.598225
939 4 0.113466 0.12489 0.594646
1155 4 0.130338 0.117287 0.597862
1153 2 0.146779 0.132676 0.608726
1154 4 0.16322 0.148066 0.619591
1221 4 0.157692 0.165979 0.62761
45 3 0.465735 0.0866945 0.645056
3425 4 0.473684 0.0969038 0.664363
3424 2 0.486634 0.118225 0.662673
3426 4 0.499585 0.139547 0.660983
877 2 0.0529773 0.215219 0.58624
879 4 0.0693359 0.196973 0.591207
1272 4 0.0763023 0.183141 0.578676
1212 4 0.208201 0.190234 0.668686
1219 2 0.173177 0.174353 0.645366
1220 4 0.188662 0.182727 0.663122
1210 2 0.232857 0.186298 0.667343
888 4 0.270271 0.170207 0.655722
886 2 0.294341 0.175992 0.659238
1194 4 0.333364 0.187031 0.652935
1193 4 0.383174 0.189846 0.656355
1192 2 0.358269 0.188439 0.654645
3123 4 0.485079 0.249785 0.652907
1136 4 0.15122 0.302044 0.584378
1135 2 0.146057 0.323069 0.596888
792 4 0.290851 0.309127 0.587893
807 4 0.311309 0.323496 0.66163
872 4 0.38476 0.256246 0.580424
954 4 0.437313 0.342245 0.584978
1039 2 0.0599729 0.392192 0.609487
1041 4 0.0457844 0.396633 0.629591
3264 4 0.0357964 0.387011 0.643034
3262 2 0.0375085 0.363181 0.650409
3240 4 0.0153658 0.387537 0.645228
1040 4 0.0741614 0.387752 0.589384
3263 4 0.0392206 0.339351 0.657783
3238 2 0.00534747 0.408085 0.6351
897 4 0.144352 0.36225 0.617085
993 4 0.0882702 0.376337 0.599964
1137 4 0.140894 0.344093 0.609398
991 2 0.111982 0.368426 0.600536
992 4 0.135694 0.360514 0.601107
1189 2 0.220114 0.372599 0.591268
895 2 0.168495 0.36874 0.616661
1172 4 0.21309 0.396187 0.622981
1191 4 0.206224 0.38565 0.607451
896 4 0.192638 0.375229 0.616237
805 2 0.329722 0.33832 0.653482
806 4 0.348135 0.353144 0.645334
1206 4 0.40381 0.410109 0.657432
1188 4 0.153755 0.473318 0.590469
1186 2 0.165488 0.458327 0.60668
1171 2 0.20316 0.418183 0.616444
1173 4 0.19323 0.44018 0.609908
1187 4 0.177221 0.443335 0.62289
1139 4 0.245714 0.448732 0.655084
889 2 0.324804 0.447515 0.590378
1230 4 0.317183 0.448121 0.649932
890 4 0.336692 0.46597 0.602349
1951 2 0.367836 0.484023 0.592493
1204 2 0.40242 0.434481 0.652025
1952 4 0.346343 0.482933 0.605222
1205 4 0.40103 0.458854 0.646618
1001 4 0.441377 0.466543 0.592745
1911 4 0.449109 0.485152 0.589903
1269 4 0.460191 0.493269 0.604142
1267 2 0.45898 0.497765 0.628708
945 4 0.0570531 0.0162502 0.691761
943 2 0.0639818 0.0392844 0.684934
944 4 0.0709104 0.0623185 0.678108
1283 4 0.138993 0.0539782 0.670041
1282 2 0.141912 0.0779868 0.676385
1147 2 0.233981 0.0514072 0.732092
1148 4 0.224696 0.0657217 0.713814
1149 4 0.243265 0.0370927 0.750369
1226 4 0.233653 0.0814708 0.705861
1257 4 0.241806 0.0875372 0.74526
1092 4 0.328908 0.00486915 0.694774
1163 4 0.474045 0.0623007 0.679794
1162 2 0.491832 0.0556627 0.696065
1076 4 0.0692895 0.0802059 0.668883
864 4 0.060319 0.107162 0.722939
1075 2 0.0690922 0.0972394 0.687186
1077 4 0.0688948 0.114273 0.705489
1107 4 0.0716238 0.122339 0.722146
851 4 0.0635695 0.13323 0.707998
850 2 0.0716042 0.152331 0.694006
862 2 0.0402354 0.100907 0.736456
1105 2 0.0871172 0.129156 0.740549
1284 4 0.144832 0.101995 0.682729
909 4 0.15352 0.120024 0.72923
907 2 0.177337 0.12763 0.728992
908 4 0.201154 0.135236 0.728753
1227 4 0.21695 0.126166 0.720832
1225 2 0.225301 0.103818 0.713347
829 2 0.329785 0.149078 0.691362
1004 4 0.37303 0.0784012 0.726262
1003 2 0.364591 0.0987073 0.714362
1005 4 0.356151 0.119013 0.702462
831 4 0.340184 0.132367 0.706783
44 3 0.4694 0.0839807 0.68243
852 4 0.0796388 0.171432 0.680014
1177 2 0.0114022 0.253991 0.696284
1214 4 0.000663744 0.176691 0.735315
1073 4 0.100165 0.215936 0.746754
1072 2 0.0941742 0.228966 0.726273
1074 4 0.0881834 0.241996 0.705791
1211 4 0.257512 0.182362 0.666
887 4 0.31841 0.181776 0.662754
830 4 0.319387 0.165788 0.675941
1144 2 0.494908 0.175259 0.732729
1025 4 0.431489 0.189584 0.682886
1262 4 0.474394 0.205533 0.726684
1142 4 0.45616 0.17699 0.735599
1024 2 0.445858 0.191421 0.703267
1026 4 0.460226 0.193258 0.723647
1261 2 0.473395 0.22826 0.737061
1145 4 0.472338 0.186006 0.733237
1179 4 0.026569 0.27384 0.69521
1209 4 0.117708 0.302854 0.701199
1207 2 0.108225 0.279752 0.699936
1208 4 0.0987428 0.256651 0.698672
821 4 0.135406 0.307064 0.69196
820 2 0.160349 0.307379 0.690262
822 4 0.185293 0.307694 0.688564
1063 2 0.220309 0.301875 0.695806
1064 4 0.197378 0.306867 0.704435
1065 4 0.243239 0.296883 0.687177
892 2 0.0158222 0.363019 0.741541
894 4 0.031476 0.363502 0.72205
1280 4 0.0475581 0.371372 0.731882
1279 2 0.058541 0.390382 0.719917
816 4 0.0612938 0.35706 0.73716
814 2 0.0823157 0.345523 0.744243
1281 4 0.0695238 0.409393 0.707952
1028 4 0.233915 0.382866 0.72247
1066 2 0.198958 0.38211 0.743894
1068 4 0.223036 0.379863 0.737541
1027 2 0.243654 0.40577 0.720066
1020 4 0.399633 0.40346 0.743392
1983 4 0.0710967 0.429593 0.707967
1981 2 0.057783 0.443493 0.723927
1982 4 0.0444692 0.457393 0.739887
2172 4 0.124299 0.497025 0.688481
1140 4 0.242469 0.433502 0.702605
2016 4 0.176415 0.492123 0.742846
1138 2 0.244092 0.441117 0.678844
1029 4 0.253392 0.428673 0.717662
1987 2 0.329706 0.474397 0.725926
1228 2 0.328997 0.448673 0.671961
1100 4 0.413684 0.49319 0.692392
1229 4 0.340811 0.449225 0.693991
1989 4 0.343399 0.464152 0.707685
1099 2 0.436627 0.495922 0.682835
2991 4 0.0427443 0.0406978 0.78244
2989 2 0.0312572 0.0606413 0.772669
2990 4 0.0197701 0.0805849 0.762898
2048 4 0.143682 0.0109595 0.779101
2049 4 0.1223 0.0554099 0.770873
1202 4 0.119189 0.0657719 0.753366
2047 2 0.132991 0.0331847 0.774987
817 2 0.321623 0.038455 0.816855
819 4 0.312204 0.0576432 0.829826
1085 4 0.313209 0.076318 0.828319
818 4 0.331043 0.0192667 0.803883
975 4 0.388228 0.00952901 0.839903
974 4 0.350471 0.0111636 0.807155
973 2 0.369349 0.0103463 0.823529
1113 4 0.417206 0.0496989 0.783518
1111 2 0.440555 0.0566303 0.777863
845 4 0.472435 0.066099 0.789909
1112 4 0.463903 0.0635617 0.772208
3083 4 0.00253535 0.0891529 0.754819
863 4 0.0201518 0.0946515 0.749972
833 4 0.0126413 0.0968699 0.768901
832 2 0.0189287 0.114124 0.78587
834 4 0.0252162 0.131378 0.802839
1125 4 0.0195623 0.145567 0.815096
1123 2 0.0396622 0.148677 0.829639
1106 4 0.102611 0.135972 0.758952
1201 2 0.118653 0.0865785 0.767221
1203 4 0.118118 0.107385 0.781077
911 4 0.106947 0.118294 0.817996
34 3 0.114921 0.128454 0.773416
31 1 0.117752 0.129072 0.796437
35 3 0.0986488 0.136423 0.806421
32 3 0.122527 0.107849 0.803915
33 3 0.135425 0.143092 0.801871
1255 2 0.240274 0.0938454 0.769406
1256 4 0.238743 0.100154 0.793552
840 4 0.241817 0.0911727 0.810766
1084 2 0.315944 0.094415 0.811284
1086 4 0.318679 0.112512 0.794249
47 3 0.416684 0.162284 0.814607
846 4 0.494947 0.108448 0.775751
844 2 0.483691 0.0872736 0.78283
48 3 0.408262 0.168637 0.778532
1130 4 0.137441 0.230839 0.790653
1129 2 0.159804 0.2228 0.782879
1131 4 0.182168 0.214761 0.775105
1277 4 0.194863 0.227916 0.765538
978 4 0.251951 0.201519 0.770706
1276 2 0.209853 0.245815 0.774489
977 4 0.298656 0.217688 0.763094
918 4 0.309891 0.232661 0.77139
976 2 0.275303 0.209604 0.7669
1298 4 0.308316 0.215428 0.77909
1297 2 0.326577 0.204043 0.791822
1299 4 0.344837 0.192657 0.804554
1042 2 0.381908 0.224555 0.797837
1043 4 0.400786 0.21083 0.806805
1044 4 0.363031 0.23828 0.788868
49 3 0.395482 0.191997 0.805651
46 1 0.413227 0.178683 0.798851
1263 4 0.472397 0.250986 0.747438