ITEM: TIMESTEP
720000
ITEM: NUMBER OF ATOMS
4590
ITEM: BOX BOUNDS pp pp pp
-9.9985700000000008e+00 9.9985700000000008e+00
-9.9985700000000008e+00 9.9985700000000008e+00
-9.9985700000000008e+00 9.9985700000000008e+00
ITEM: ATOMS id type xs ys zs
1668 4 0.105338 0.0341222 0.0705052
1475 4 0.280069 0.0140531 0.0646776
492 4 0.282796 0.0445878 0.0706098
297 4 0.311275 0.0822701 0.0448687
1607 4 0.395869 0.994741 0.0168123
987 4 0.408147 0.00829508 0.00743858
985 2 0.419468 0.0303935 0.00449263
747 4 0.448883 0.0551743 0.0134327
2974 2 0.47615 0.0221356 0.0270011
2976 4 0.492168 0.00480786 0.035268
2468 4 0.497123 0.00505432 0.0547949
2975 4 0.460132 0.0394633 0.0187342
986 4 0.430789 0.0524918 0.00154668
463 2 0.0613445 0.0847767 0.00681915
465 4 0.0558886 0.0932173 0.0297138
567 4 0.219886 0.143932 0.0667027
295 2 0.332208 0.086408 0.057901
358 2 0.325698 0.144354 0.0619578
359 4 0.320638 0.125638 0.0777464
360 4 0.330758 0.16307 0.0461691
296 4 0.353142 0.0905459 0.0709334
557 4 0.362222 0.0953131 0.054136
556 2 0.381183 0.0999506 0.0385107
558 4 0.400144 0.104588 0.0228855
769 2 0.414101 0.156792 0.0613489
745 2 0.444369 0.0795612 0.0166076
746 4 0.439855 0.103948 0.0197826
771 4 0.436155 0.145036 0.0621068
554 4 0.064581 0.229655 0.0107464
566 4 0.172387 0.159062 0.0627439
565 2 0.196136 0.151497 0.0647233
666 4 0.343455 0.186263 0.009261
664 2 0.342691 0.201372 0.0291686
665 4 0.341926 0.216481 0.0490762
770 4 0.392047 0.168549 0.0605911
323 4 0.410139 0.239982 0.0689449
322 2 0.418041 0.24588 0.0459676
553 2 0.0692682 0.25152 0.0219319
555 4 0.0739553 0.273385 0.0331173
293 4 0.16167 0.294495 0.0284624
507 4 0.159567 0.309016 0.0420751
505 2 0.178511 0.297137 0.0532628
483 4 0.212138 0.273817 0.0711218
506 4 0.197456 0.285258 0.0644505
481 2 0.236299 0.268508 0.0747607
287 4 0.154505 0.331384 0.0120679
573 4 0.273611 0.268635 0.0645611
482 4 0.26046 0.263198 0.0783995
572 4 0.298067 0.27167 0.0210475
571 2 0.285839 0.270153 0.0428043
357 4 0.296869 0.272169 0.00109798
1069 2 0.38273 0.283848 0.0252727
1070 4 0.405152 0.294904 0.0247729
957 4 0.3467 0.345106 0.0196009
1071 4 0.360309 0.272793 0.0257725
324 4 0.425943 0.251778 0.0229903
671 4 0.441923 0.320996 0.0709255
280 2 0.437117 0.306958 0.0367555
281 4 0.449557 0.322005 0.0523764
282 4 0.424677 0.291911 0.0211345
330 4 0.00790505 0.416119 0.00474566
550 2 0.091706 0.398068 0.0642046
552 4 0.114017 0.393196 0.074385
455 4 0.124749 0.403014 0.0879532
454 2 0.149684 0.401609 0.0867493
288 4 0.182856 0.365372 0.0353428
286 2 0.168681 0.348378 0.0237053
250 2 0.301535 0.40617 0.0257743
609 4 0.302197 0.424276 0.0586767
252 4 0.297205 0.406466 0.0503983
741 4 0.342092 0.340628 0.055469
739 2 0.351504 0.339248 0.0785921
551 4 0.0693946 0.402941 0.0540243
245 4 0.233596 0.442558 0.0619719
626 4 0.224114 0.44762 0.0785903
244 2 0.240614 0.444406 0.0380446
246 4 0.247632 0.446253 0.0141173
607 2 0.322713 0.427938 0.0724911
563 4 0.465966 0.485188 0.064563
1666 2 0.0988026 0.0506253 0.0881153
19 3 0.0356934 0.0669101 0.151083
1667 4 0.0922671 0.0671285 0.105725
701 4 0.0954668 0.0834232 0.0958927
448 2 0.166731 0.0698762 0.151423
450 4 0.172255 0.0455458 0.153067
490 2 0.286724 0.0608074 0.0892288
652 2 0.301698 0.0146263 0.159665
653 4 0.320128 0.0235882 0.145341
491 4 0.290653 0.0770271 0.107848
654 4 0.283267 0.00566434 0.17399
311 4 0.392008 0.0612498 0.161494
310 2 0.40565 0.0801242 0.152393
2722 2 0.480316 0.0536431 0.128503
2723 4 0.477475 0.0734371 0.113493
2724 4 0.483156 0.0338491 0.143513
1760 4 0.492171 0.0172139 0.144274
2744 4 0.494291 0.0280575 0.159872
380 4 0.0178149 0.150968 0.154389
700 2 0.0981823 0.107032 0.103666
702 4 0.100898 0.130641 0.11144
476 4 0.104007 0.13521 0.132555
475 2 0.117413 0.146119 0.150622
237 4 0.162721 0.153076 0.143762
477 4 0.13082 0.157028 0.16869
449 4 0.161207 0.0942066 0.149779
235 2 0.16757 0.128736 0.140727
236 4 0.172419 0.104395 0.137692
581 4 0.279169 0.110619 0.157589
628 2 0.412078 0.134572 0.129072
630 4 0.406345 0.158811 0.131265
629 4 0.417811 0.110334 0.12688
312 4 0.419292 0.0989987 0.143292
339 4 0.0695182 0.221454 0.11703
2625 4 0.0214583 0.188938 0.113879
337 2 0.0763743 0.229967 0.139518
338 4 0.0832304 0.238481 0.162006
737 4 0.191352 0.167119 0.11673
736 2 0.187182 0.191366 0.121186
738 4 0.183013 0.215613 0.125642
277 2 0.247217 0.229114 0.161025
279 4 0.22922 0.214254 0.169995
461 4 0.298112 0.228649 0.10016
460 2 0.317879 0.213339 0.0999079
354 4 0.296904 0.249374 0.0980574
352 2 0.286524 0.251591 0.120697
284 4 0.281985 0.244021 0.160899
353 4 0.276145 0.253807 0.143336
278 4 0.265215 0.243973 0.152055
283 2 0.302129 0.232306 0.169964
462 4 0.337647 0.19803 0.0996557
254 4 0.390461 0.169368 0.123428
255 4 0.34938 0.197038 0.116541
253 2 0.369921 0.183203 0.119984
765 4 0.372941 0.247943 0.14423
624 4 0.387671 0.24444 0.130864
763 2 0.3579 0.234736 0.159214
518 4 0.49675 0.250787 0.126847
528 4 0.475812 0.248944 0.129684
536 4 0.173104 0.317726 0.107293
754 2 0.252872 0.283173 0.149772
755 4 0.25679 0.25933 0.143344
622 2 0.378827 0.254571 0.109785
623 4 0.369983 0.264703 0.0887062
670 2 0.426074 0.329717 0.0881866
526 2 0.466829 0.263891 0.147603
621 4 0.00477085 0.348422 0.109631
619 2 0.999153 0.350561 0.0853604
535 2 0.189258 0.33258 0.119276
456 4 0.174619 0.400204 0.0855455
537 4 0.205411 0.347435 0.131259
302 4 0.30854 0.362537 0.150529
387 4 0.326505 0.359065 0.143408
385 2 0.346153 0.348351 0.132258
740 4 0.360917 0.337868 0.101715
15 3 0.3792 0.352505 0.123978
386 4 0.365802 0.337638 0.121108
11 1 0.396375 0.366279 0.118149
13 3 0.411339 0.368171 0.135781
14 3 0.38815 0.387217 0.112459
495 4 0.40086 0.397705 0.101352
12 3 0.407364 0.357419 0.0999865
672 4 0.410226 0.338439 0.105448
596 4 0.476775 0.41703 0.159463
315 4 0.000820003 0.441185 0.111659
625 2 0.200624 0.455289 0.0824107
627 4 0.177134 0.462957 0.0862312
638 4 0.253454 0.492693 0.16498
767 4 0.271279 0.481248 0.16115
608 4 0.34323 0.431599 0.0863055
523 2 0.335932 0.507621 0.0807105
525 4 0.35839 0.497666 0.076051
658 2 0.357662 0.437502 0.124966
659 4 0.350837 0.425433 0.104159
660 4 0.364488 0.44957 0.145773
228 4 0.469962 0.465297 0.0624144
493 2 0.413127 0.417841 0.109674
226 2 0.477034 0.455784 0.0844296
494 4 0.425393 0.437977 0.117996
227 4 0.484106 0.446271 0.106445
16 1 0.0430712 0.0701327 0.172845
17 3 0.0261773 0.0643692 0.187355
2480 4 0.0170176 0.0457077 0.182171
18 3 0.0614879 0.0566566 0.177043
1422 4 0.0137669 0.0309445 0.17318
1420 2 0.0239431 0.00830276 0.176176
673 2 0.119699 0.0147741 0.24205
674 4 0.134848 0.0242823 0.224578
689 4 0.174308 0.0216072 0.248858
1506 4 0.263343 0.00909568 0.174073
24 3 0.327282 0.0574511 0.247672
21 1 0.345717 0.0499404 0.235749
25 3 0.339549 0.0445101 0.214509
759 4 0.356693 0.0599163 0.213384
22 3 0.361439 0.0667165 0.235017
757 2 0.372344 0.0671763 0.195287
758 4 0.387995 0.0744363 0.177189
23 3 0.354965 0.0314477 0.24628
742 2 0.491874 0.0748767 0.223366
743 4 0.474046 0.0914993 0.228936
20 3 0.0485592 0.0920046 0.176031
578 4 0.0705969 0.0948448 0.239536
379 2 0.0183926 0.145905 0.178867
381 4 0.0189703 0.140843 0.203346
512 4 0.0158311 0.157766 0.210453
511 2 0.0308031 0.164566 0.229288
577 2 0.0945 0.100095 0.234412
579 4 0.118403 0.105346 0.229288
691 2 0.238424 0.0840608 0.22989
693 4 0.24843 0.0718244 0.210516
582 4 0.257528 0.0995519 0.201292
580 2 0.268348 0.105086 0.179441
27 3 0.307058 0.166832 0.253365
632 4 0.369366 0.112624 0.25347
333 4 0.445945 0.121588 0.251628
513 4 0.0457751 0.171366 0.248124
396 4 0.998891 0.248172 0.241177
363 4 0.0825184 0.238294 0.182008
361 2 0.0979172 0.252123 0.196037
285 4 0.322272 0.220591 0.179029
764 4 0.342859 0.221528 0.174197
520 2 0.492948 0.191496 0.231864
521 4 0.477331 0.171998 0.232923
522 4 0.508565 0.210994 0.230805
394 2 0.00518219 0.268695 0.228356
395 4 0.0114738 0.289219 0.215536
750 4 0.0787582 0.307576 0.252678
371 4 0.1545 0.304131 0.215105
370 2 0.142355 0.282447 0.217845
372 4 0.13021 0.260764 0.220585
748 2 0.0910296 0.294386 0.235339
362 4 0.113316 0.265952 0.210066
749 4 0.103301 0.281196 0.218001
343 2 0.23387 0.314371 0.239087
345 4 0.211427 0.32439 0.234493
756 4 0.248954 0.307017 0.1562
344 4 0.256314 0.304352 0.24368
612 4 0.245219 0.322583 0.168493
308 4 0.324352 0.287794 0.211204
610 2 0.26391 0.334575 0.179983
307 2 0.333716 0.29165 0.234064
527 4 0.457847 0.278838 0.165522
648 4 0.0802711 0.333948 0.186209
647 4 0.0717616 0.382838 0.192382
646 2 0.0760163 0.358393 0.189296
415 2 0.191764 0.414169 0.177136
291 4 0.231353 0.394953 0.182667
416 4 0.21401 0.403398 0.180913
289 2 0.251207 0.409109 0.188201
611 4 0.282601 0.346567 0.191473
303 4 0.306556 0.390101 0.192206
301 2 0.307548 0.376319 0.171368
729 4 0.303185 0.391599 0.212926
727 2 0.307426 0.380125 0.234733
644 4 0.410152 0.372305 0.221327
447 4 0.421714 0.378879 0.236479
595 2 0.467187 0.399031 0.173929
597 4 0.457599 0.381031 0.188396
643 2 0.424791 0.379789 0.202489
645 4 0.439431 0.387273 0.183651
264 4 0.0221424 0.443643 0.220396
262 2 0.0137818 0.424476 0.234104
417 4 0.169518 0.42494 0.173359
290 4 0.271061 0.423264 0.193735
768 4 0.2741 0.443799 0.19417
766 2 0.272689 0.462523 0.17766
232 2 0.0118624 0.0360732 0.289088
233 4 0.0328812 0.027875 0.278309
1402 2 0.076466 0.0192775 0.276452
1404 4 0.0530612 0.0276542 0.273764
427 2 0.0661868 0.0182143 0.333599
428 4 0.0596311 0.0415428 0.339762
675 4 0.104551 0.00526584 0.259523
1403 4 0.0998709 0.0109008 0.279139
1464 4 0.112663 0.0125794 0.294265
1700 4 0.270564 0.0575017 0.323838
699 4 0.348046 0.0738861 0.327781
697 2 0.366232 0.0567965 0.329329
478 2 0.491042 0.0585202 0.29449
480 4 0.468182 0.0608247 0.304354
351 4 0.462734 0.079642 0.300901
258 4 0.437934 0.0268144 0.337143
531 4 0.997156 0.157573 0.28875
398 4 0.0363646 0.153001 0.329885
692 4 0.228419 0.0962973 0.249264
723 4 0.233312 0.0854886 0.265424
721 2 0.232599 0.0919482 0.289568
722 4 0.231887 0.0984078 0.313713
249 4 0.236548 0.109894 0.329946
403 2 0.243801 0.144057 0.304402
404 4 0.244589 0.128294 0.323795
405 4 0.243012 0.159819 0.285009
28 3 0.292163 0.132341 0.252291
26 1 0.297251 0.150328 0.266038
29 3 0.31214 0.14371 0.282558
707 4 0.32896 0.140523 0.295211
30 3 0.278223 0.158474 0.275537
633 4 0.338111 0.122802 0.291156
631 2 0.353739 0.117713 0.272313
706 2 0.342316 0.155675 0.30995
708 4 0.355671 0.170827 0.324689
331 2 0.456865 0.14407 0.250945
349 2 0.444547 0.0967747 0.299967
350 4 0.42636 0.113907 0.299033
393 4 0.0633121 0.179422 0.243348
391 2 0.0847484 0.185693 0.254588
444 4 0.0215297 0.249146 0.305937
392 4 0.106185 0.191964 0.265828
546 4 0.150534 0.209287 0.249013
544 2 0.159481 0.198417 0.269677
390 4 0.117496 0.236249 0.325267
388 2 0.0931681 0.241621 0.323155
545 4 0.168429 0.187548 0.29034
717 4 0.384114 0.202206 0.328469
332 4 0.467785 0.166552 0.250261
762 4 0.47297 0.177941 0.265734
761 4 0.49524 0.176224 0.310476
760 2 0.484105 0.177082 0.288105
442 2 0.0142872 0.252183 0.282199
443 4 0.00704478 0.25522 0.258461
401 4 0.155495 0.250838 0.300571
400 2 0.178731 0.257621 0.294304
402 4 0.201967 0.264404 0.288038
676 2 0.193635 0.320532 0.314635
677 4 0.191589 0.33798 0.296842
678 4 0.195682 0.303085 0.332428
496 2 0.313333 0.306204 0.28778
497 4 0.292514 0.309231 0.301292
377 4 0.294363 0.309574 0.320284
498 4 0.334152 0.303177 0.274268
309 4 0.343081 0.295507 0.256925
615 4 0.367064 0.314803 0.310534
541 2 0.386844 0.282695 0.330959
543 4 0.370543 0.299067 0.321397
263 4 0.00542126 0.40531 0.247813
2493 4 0.999577 0.356304 0.310102
364 2 0.0217733 0.361915 0.284245
365 4 0.0364303 0.379113 0.27354
601 2 0.0718049 0.39111 0.295623
603 4 0.0533255 0.380182 0.282806
366 4 0.00711632 0.344718 0.29495
602 4 0.0902844 0.402038 0.308439
549 4 0.0919942 0.407972 0.326563
300 4 0.106481 0.345255 0.263505
298 2 0.130023 0.353679 0.263559
299 4 0.153565 0.362103 0.263614
734 4 0.16742 0.375827 0.266638
733 2 0.185199 0.364896 0.280408
735 4 0.202977 0.353965 0.294178
728 4 0.311668 0.36865 0.256539
433 2 0.316679 0.377169 0.319922
434 4 0.341625 0.377548 0.318272
435 4 0.291732 0.376789 0.321573
613 2 0.358408 0.337421 0.316753
614 4 0.349752 0.360039 0.322972
445 2 0.418413 0.371845 0.260245
446 4 0.415113 0.364812 0.284011
2463 4 0.0102745 0.482645 0.31213
777 4 0.0816902 0.451378 0.305117
775 2 0.089884 0.46891 0.320948
412 2 0.213013 0.486271 0.328586
413 4 0.216952 0.480913 0.304483
436 2 0.33249 0.458153 0.313004
437 4 0.336195 0.444522 0.292373
1436 4 0.253513 0.496222 0.315839
231 4 0.416556 0.480994 0.230755
713 4 0.419354 0.474575 0.328978
2862 4 0.495349 0.462143 0.328955
119 3 0.474059 0.451859 0.327724
712 2 0.439312 0.460493 0.323634
714 4 0.45927 0.446411 0.318291
2860 2 0.506299 0.481697 0.317868
316 2 0.0500235 0.0720393 0.343023
317 4 0.041582 0.048771 0.34656
1781 4 0.122493 0.0182362 0.394196
368 4 0.117086 0.01887 0.413458
1701 4 0.255265 0.0133804 0.341726
605 4 0.192621 0.0742869 0.355957
248 4 0.213232 0.0752421 0.357448
1699 2 0.262914 0.035441 0.332782
439 2 0.298145 0.997213 0.416734
698 4 0.384418 0.039707 0.330878
257 4 0.393665 0.048107 0.346501
1428 4 0.447041 0.0193387 0.364982
256 2 0.415799 0.0374607 0.341822
2879 4 0.484442 0.0745896 0.414109
732 4 0.0765662 0.0990635 0.34375
399 4 0.066737 0.114024 0.337567
2586 4 0.0109269 0.125648 0.387215
318 4 0.0584649 0.0953076 0.339487
397 2 0.0515508 0.133512 0.333726
457 2 0.0284557 0.154062 0.414521
458 4 0.0215173 0.137117 0.397494
606 4 0.145269 0.0881307 0.34778
731 4 0.125667 0.0923479 0.35044
730 2 0.101117 0.0957057 0.347095
604 2 0.168945 0.0812088 0.351869
598 2 0.138349 0.146614 0.360868
600 4 0.140213 0.123133 0.369255
247 2 0.22489 0.0925683 0.343697
682 2 0.308336 0.0850438 0.392626
684 4 0.30128 0.104448 0.406728
683 4 0.315392 0.0656394 0.378525
452 4 0.467369 0.116249 0.393123
451 2 0.455352 0.132449 0.407899
389 4 0.0688399 0.246993 0.321043
599 4 0.136485 0.170095 0.352482
474 4 0.200917 0.199936 0.376866
276 4 0.194352 0.218253 0.375672
472 2 0.223654 0.192106 0.383714
274 2 0.18397 0.24028 0.38135
473 4 0.246391 0.184276 0.390562
715 2 0.389196 0.205048 0.352785
716 4 0.394278 0.20789 0.377101
467 4 0.406924 0.203247 0.391099
466 2 0.395596 0.203974 0.413378
269 4 0.484693 0.251184 0.393424
268 2 0.465771 0.235254 0.389769
270 4 0.446849 0.219324 0.386113
347 4 0.0587888 0.284503 0.381669
346 2 0.0376888 0.297651 0.384331
618 4 0.0669351 0.302213 0.377803
348 4 0.0165889 0.3108 0.386993
616 2 0.0901191 0.30681 0.369645
617 4 0.113303 0.311407 0.361487
275 4 0.173588 0.262306 0.387028
375 4 0.184017 0.30831 0.346466
373 2 0.188782 0.317124 0.369374
374 4 0.193547 0.325939 0.392282
376 2 0.276709 0.306298 0.337685
378 4 0.259055 0.303023 0.355086
488 4 0.302975 0.258255 0.405576
542 4 0.403145 0.266324 0.34052
420 4 0.416519 0.252716 0.333928
418 2 0.437172 0.258568 0.34675
419 4 0.457825 0.26442 0.359571
510 4 0.214212 0.360877 0.343456
508 2 0.235908 0.366478 0.354551
509 4 0.257604 0.37208 0.365646
503 4 0.274316 0.385036 0.413838
335 4 0.363466 0.356378 0.425681
334 2 0.343461 0.371247 0.42371
559 2 0.480824 0.406607 0.411269
561 4 0.460077 0.409653 0.397651
751 2 0.443964 0.415974 0.362848
753 4 0.434813 0.407982 0.340995
547 2 0.0779276 0.418653 0.344261
548 4 0.063861 0.429335 0.361959
407 4 0.0802013 0.424066 0.373359
500 4 0.0915869 0.504044 0.345333
406 2 0.0929029 0.431829 0.393448
570 4 0.146465 0.496869 0.412009
776 4 0.0980778 0.486443 0.33678
1555 2 0.243038 0.480004 0.399224
1556 4 0.219473 0.480141 0.390867
438 4 0.328785 0.471784 0.333636
3 3 0.325107 0.462611 0.351865
5 3 0.297083 0.475415 0.373507
1 1 0.317267 0.480563 0.364302
4 3 0.332469 0.485864 0.381011
1557 4 0.266603 0.479867 0.407582
594 4 0.412087 0.476046 0.346901
592 2 0.414675 0.481847 0.371084
593 4 0.417263 0.487649 0.395267
752 4 0.453115 0.423966 0.384701
118 3 0.493342 0.420361 0.336692
116 1 0.486993 0.441467 0.343945
117 3 0.474507 0.439289 0.363142
718 2 0.0623927 0.038664 0.473543
720 4 0.0440942 0.0258077 0.484726
2237 4 0.0271781 0.0223607 0.493034
719 4 0.0806912 0.0515203 0.46236
369 4 0.0909723 0.0368039 0.452151
367 2 0.104029 0.0278369 0.432804
340 2 0.211742 0.0622866 0.497962
341 4 0.210736 0.0392884 0.488202
441 4 0.295861 0.0204209 0.425752
962 4 0.30921 0.0208259 0.441192
961 2 0.30135 0.0307487 0.462754
963 4 0.293489 0.0406714 0.484316
426 4 0.375795 0.0141627 0.420491
424 2 0.364307 0.0331528 0.432005
425 4 0.352819 0.0521428 0.44352
725 4 0.390519 0.0509253 0.475217
724 2 0.388929 0.0758007 0.477183
686 4 0.152223 0.166263 0.416392
1181 4 0.255494 0.131137 0.474907
320 4 0.30087 0.105153 0.426645
321 4 0.271587 0.145176 0.42021
319 2 0.286228 0.125164 0.423427
726 4 0.387339 0.100676 0.479149
453 4 0.443334 0.148648 0.422675
2878 2 0.480825 0.088739 0.434404
2880 4 0.477208 0.102888 0.454699
640 2 0.486359 0.130472 0.476756
515 4 0.432869 0.147702 0.439484
514 2 0.420383 0.159121 0.457893
641 4 0.478616 0.147525 0.493321
260 4 0.0475499 0.185754 0.437888
459 4 0.0353941 0.171006 0.431548
259 2 0.0725165 0.18704 0.438327
685 2 0.133983 0.177988 0.428843
687 4 0.115743 0.189713 0.441294
261 4 0.0974831 0.188326 0.438765
1035 4 0.105325 0.204003 0.448622
1033 2 0.116858 0.211514 0.469497
1034 4 0.128392 0.219024 0.490371
489 4 0.307433 0.227132 0.444463
411 4 0.316589 0.209392 0.443128
487 2 0.305204 0.242693 0.425019
409 2 0.341079 0.204516 0.441843
410 4 0.365568 0.199641 0.440558
468 4 0.384268 0.204701 0.435656
575 4 0.394777 0.17381 0.490535
516 4 0.407898 0.170541 0.476302
305 4 0.510425 0.191486 0.44931
695 4 0.0619931 0.265056 0.454508
694 2 0.0849964 0.263844 0.464232
696 4 0.108 0.262632 0.473956
9 3 0.151359 0.324411 0.502266
1258 2 0.135379 0.291788 0.495648
1259 4 0.151128 0.30536 0.509538
1260 4 0.119629 0.278215 0.481758
857 4 0.206256 0.261242 0.508067
651 4 0.244713 0.284672 0.480106
649 2 0.25676 0.268549 0.494942
650 4 0.268808 0.252426 0.509777
266 4 0.350111 0.274766 0.452458
267 4 0.394141 0.261781 0.472296
265 2 0.372126 0.268273 0.462377
583 2 0.461022 0.273381 0.486445
585 4 0.444019 0.264689 0.470303
584 4 0.478024 0.282072 0.502587
326 4 0.0953858 0.337056 0.457303
6 1 0.162178 0.341318 0.490626
327 4 0.136079 0.364681 0.466335
325 2 0.115733 0.350868 0.461819
7 3 0.146568 0.353336 0.47875
384 4 0.120133 0.426826 0.4756
502 2 0.250033 0.390645 0.41585
10 3 0.177318 0.332343 0.476173
711 4 0.170343 0.363878 0.424017
504 4 0.22575 0.396254 0.417862
709 2 0.189111 0.380396 0.424351
710 4 0.207879 0.396914 0.424685
336 4 0.323456 0.386116 0.421739
668 4 0.325774 0.397283 0.438595
667 2 0.303606 0.406895 0.445029
587 4 0.417347 0.417824 0.435955
238 2 0.397624 0.384242 0.429858
240 4 0.378419 0.368448 0.432485
239 4 0.41683 0.400036 0.427232
3307 2 0.499921 0.384913 0.490853
1382 4 0.0246713 0.504356 0.465573
680 4 0.0191873 0.440848 0.440855
1383 4 0.0180506 0.456323 0.453335
1381 2 0.021361 0.48034 0.459454
568 2 0.135865 0.47631 0.421503
408 4 0.105605 0.439593 0.413538
382 2 0.113672 0.437158 0.453767
383 4 0.107211 0.447491 0.431934
569 4 0.125265 0.455751 0.430996
772 2 0.281531 0.429536 0.490602
635 4 0.283154 0.444563 0.462735
774 4 0.288184 0.426279 0.466721
634 2 0.272722 0.457581 0.44411
636 4 0.26229 0.4706 0.425486
669 4 0.281439 0.416507 0.451463
586 2 0.404496 0.439116 0.43854
880 2 0.3479 0.429468 0.491116
882 4 0.355706 0.430821 0.4674
588 4 0.391645 0.460407 0.441125
663 4 0.44957 0.458998 0.474308
661 2 0.4596 0.481837 0.472595
1128 4 0.00642862 0.0955436 0.581023
2430 4 0.218399 0.0209536 0.484647
2428 2 0.216941 0.999419 0.49727
430 2 0.312446 0.0585496 0.515072
432 4 0.298742 0.0571816 0.494203
431 4 0.326149 0.0599176 0.535941
951 4 0.269233 0.055766 0.578253
1031 4 0.262808 0.0752546 0.582815
841 2 0.362968 0.068652 0.537786
842 4 0.386985 0.0625074 0.534531
843 4 0.33895 0.0747966 0.541042
1217 4 0.394455 0.0570529 0.516523
1216 2 0.409329 0.0392916 0.525929
1218 4 0.424203 0.0215302 0.535334
938 4 0.0818869 0.168457 0.5389
937 2 0.100149 0.161577 0.554531
1059 4 0.13327 0.120425 0.572803
1151 4 0.163998 0.1212 0.519022
939 4 0.118412 0.154697 0.570162
342 4 0.212748 0.0852849 0.507721
1030 2 0.247785 0.0894328 0.568727
1152 4 0.208191 0.10417 0.502971
1150 2 0.186095 0.112685 0.510996
1032 4 0.232762 0.103611 0.554639
1182 4 0.274616 0.128645 0.521046
1180 2 0.265055 0.129891 0.497976
877 2 0.0529012 0.209513 0.576561
879 4 0.07626 0.20122 0.579844
470 4 0.0156864 0.169297 0.539388
469 2 0.0243283 0.184696 0.521686
878 4 0.0295425 0.217806 0.573278
471 4 0.0329703 0.200094 0.503983
858 4 0.210621 0.230233 0.547055
856 2 0.208439 0.245737 0.527561
898 2 0.302866 0.18054 0.573323
900 4 0.290379 0.174982 0.552386
899 4 0.315353 0.186098 0.59426
576 4 0.362492 0.187515 0.52618
574 2 0.378634 0.180662 0.508357
3159 4 0.47704 0.176754 0.570296
3157 2 0.49436 0.188656 0.556749
983 4 0.013772 0.306441 0.53026
1245 4 0.0458272 0.300473 0.564212
1243 2 0.0474873 0.276897 0.572372
872 4 0.342955 0.291063 0.52842
871 2 0.353981 0.312138 0.536128
873 4 0.365008 0.333214 0.543836
3065 4 0.495741 0.260076 0.513874
953 4 0.438411 0.251645 0.568373
2456 4 0.495988 0.27273 0.497507
904 2 0.478705 0.261895 0.574923
906 4 0.458753 0.24705 0.572331
982 2 0.0199076 0.325697 0.544982
984 4 0.0260432 0.344953 0.559704
3354 4 0.0113206 0.356726 0.565981
3352 2 0.00225884 0.378842 0.558635
1189 2 0.228577 0.383757 0.579451
1190 4 0.24755 0.372697 0.567499
1172 4 0.208926 0.413638 0.585927
8 3 0.172894 0.35556 0.505482
803 4 0.256356 0.369339 0.550274
802 2 0.26622 0.359791 0.529377
804 4 0.276084 0.350243 0.508479
1239 4 0.333662 0.336424 0.580766
930 4 0.332207 0.35176 0.592577
813 4 0.357679 0.349477 0.535375
928 2 0.336728 0.374285 0.582709
811 2 0.375918 0.363359 0.525387
929 4 0.341249 0.39681 0.572842
812 4 0.394158 0.377242 0.515399
927 4 0.406168 0.386019 0.529016
926 4 0.445918 0.376031 0.557668
925 2 0.426043 0.381025 0.543342
3309 4 0.476643 0.388606 0.482506
539 4 0.0591493 0.467025 0.535702
538 2 0.08117 0.478753 0.534057
1159 2 0.151251 0.478358 0.584039
540 4 0.103191 0.490482 0.532413
1160 4 0.138147 0.457303 0.580855
773 4 0.274878 0.432792 0.514483
881 4 0.340095 0.428115 0.514832
1952 4 0.324482 0.482439 0.586586
1002 4 0.400128 0.448594 0.555023
1951 2 0.341007 0.501095 0.584568
1000 2 0.42307 0.456479 0.548971
1001 4 0.446013 0.464364 0.542919
1083 4 0.0507668 0.0979018 0.61134
1126 2 0.0292945 0.089531 0.589158
1058 4 0.13382 0.0742282 0.59194
825 4 0.111298 0.0199048 0.628605
949 2 0.286139 0.045866 0.593789
950 4 0.303044 0.035966 0.609325
2283 4 0.401585 0.0182232 0.635694
3007 2 0.492298 0.0454025 0.582391
3008 4 0.471268 0.0491811 0.595377
809 4 0.462808 0.0672775 0.603145
808 2 0.459375 0.0767317 0.626036
2281 2 0.424499 0.00916808 0.631434
2282 4 0.447413 0.000112975 0.627174
1081 2 0.0569241 0.0931266 0.635099
1127 4 0.0521604 0.0835185 0.597293
1082 4 0.0630814 0.0883514 0.658857
1057 2 0.133545 0.0973268 0.582371
1155 4 0.133284 0.141652 0.573175
1153 2 0.150066 0.150121 0.589663
1283 4 0.156527 0.094135 0.645765
909 4 0.166885 0.164616 0.669904
810 4 0.455942 0.0861858 0.648927
45 3 0.457248 0.108276 0.649177
3424 2 0.491935 0.12646 0.658972
1199 4 0.0196492 0.20276 0.581441
1272 4 0.0846799 0.212837 0.594312
1270 2 0.108663 0.219889 0.594815
1154 4 0.166848 0.15859 0.60615
1271 4 0.132646 0.226941 0.595318
1221 4 0.184488 0.160118 0.595803
1212 4 0.222375 0.196943 0.627223
1219 2 0.204206 0.169591 0.607913
1220 4 0.223924 0.179064 0.620022
1210 2 0.240375 0.196099 0.644557
1211 4 0.258376 0.195255 0.66189
1193 4 0.358541 0.176667 0.651589
1192 2 0.336565 0.181074 0.66267
1025 4 0.440537 0.188817 0.665173
1244 4 0.0491474 0.253321 0.580532
1136 4 0.12313 0.302463 0.596794
948 4 0.138607 0.289894 0.600016
946 2 0.162539 0.282945 0.597981
1135 2 0.129765 0.326202 0.600992
798 4 0.195973 0.284948 0.581284
796 2 0.217141 0.281279 0.594076
947 4 0.186471 0.275996 0.595946
797 4 0.238309 0.277609 0.606868
791 4 0.245458 0.295985 0.607223
792 4 0.2943 0.291579 0.61701
790 2 0.269879 0.293782 0.612117
1238 4 0.308324 0.302406 0.607251
1237 2 0.320993 0.319415 0.594009
805 2 0.345294 0.310292 0.665191
954 4 0.407721 0.286492 0.586935
806 4 0.344134 0.327346 0.646943
952 2 0.423066 0.269068 0.577654
3123 4 0.495132 0.263202 0.659381
1039 2 0.0719763 0.40829 0.635595
1041 4 0.0479977 0.415328 0.634775
3264 4 0.0286745 0.407056 0.63749
3262 2 0.0212424 0.383216 0.63622
3263 4 0.0138102 0.359377 0.634951
1040 4 0.095955 0.401253 0.636416
993 4 0.101667 0.384707 0.647053
1137 4 0.136399 0.349941 0.605189
897 4 0.148058 0.365797 0.600812
991 2 0.117962 0.375865 0.630276
992 4 0.134257 0.367022 0.613499
1191 4 0.209603 0.394817 0.591404
896 4 0.189858 0.390784 0.589448
895 2 0.168958 0.378291 0.59513
1204 2 0.406433 0.39934 0.658165
1205 4 0.385535 0.38607 0.661684
1206 4 0.42733 0.41261 0.654646
3240 4 0.0105613 0.411401 0.639697
1161 4 0.164356 0.499413 0.587223
1171 2 0.217588 0.437011 0.587887
1173 4 0.22625 0.460384 0.589848
1187 4 0.223463 0.4776 0.600399
1186 2 0.202548 0.490993 0.597507
889 2 0.301998 0.478408 0.623788
891 4 0.289671 0.474631 0.645211
890 4 0.314324 0.482184 0.602364
1230 4 0.376742 0.481921 0.661189
1269 4 0.434968 0.462051 0.653943
1267 2 0.449821 0.481823 0.65025
943 2 0.0476964 0.0505659 0.677703
945 4 0.0314952 0.0321601 0.672812
944 4 0.0638976 0.0689716 0.682595
1202 4 0.108017 0.0277371 0.755636
2049 4 0.120481 0.0194737 0.769572
1147 2 0.221665 0.0578223 0.727054
1149 4 0.231864 0.0363392 0.719331
1004 4 0.379717 0.0596091 0.694644
1003 2 0.381763 0.0836149 0.687957
42 3 0.448059 0.076661 0.666753
1163 4 0.464729 0.0801779 0.680299
1162 2 0.476321 0.059502 0.688256
2320 2 0.482144 0.0287996 0.734708
2321 4 0.488902 0.0269117 0.71071
1164 4 0.487913 0.0388261 0.696213
4581 4 0.489836 0.00830795 0.703924
1076 4 0.0645106 0.0894143 0.679501
862 2 0.0367656 0.104796 0.749241
864 4 0.0520864 0.113732 0.731617
1075 2 0.0573771 0.105701 0.697081
1077 4 0.0502435 0.121988 0.71466
1107 4 0.0644041 0.129103 0.724954
851 4 0.0554466 0.139318 0.70879
1105 2 0.079443 0.142523 0.739749
850 2 0.0441937 0.159866 0.700053
1282 2 0.143315 0.0900203 0.666591
1284 4 0.130104 0.0859055 0.687416
1148 4 0.211467 0.0793054 0.734777
908 4 0.204759 0.162285 0.702474
907 2 0.185822 0.16345 0.686189
1227 4 0.206732 0.145671 0.715922
1225 2 0.208929 0.121417 0.721588
1226 4 0.211125 0.0971625 0.727253
829 2 0.328754 0.147557 0.710371
830 4 0.321675 0.15354 0.687148
1005 4 0.383808 0.107621 0.68127
831 4 0.335833 0.141575 0.733593
43 3 0.430888 0.108774 0.676057
41 1 0.450941 0.0993558 0.669159
44 3 0.467381 0.103183 0.68508
3425 4 0.472356 0.112144 0.665047
852 4 0.0329408 0.180414 0.691316
1177 2 0.997272 0.19753 0.696126
1178 4 0.9966 0.207901 0.718867
1179 4 0.997944 0.187159 0.673384
1215 4 0.998675 0.22534 0.729984
1073 4 0.141936 0.213357 0.744119
1072 2 0.124015 0.230678 0.746125
978 4 0.246619 0.232176 0.746403
1194 4 0.314589 0.185482 0.673752
888 4 0.26193 0.184514 0.678327
886 2 0.285442 0.176016 0.678753
887 4 0.308953 0.167519 0.679179
976 2 0.270414 0.235352 0.753396
977 4 0.294209 0.238528 0.760389
1262 4 0.448955 0.219905 0.714767
1142 4 0.440709 0.187554 0.725578
1024 2 0.439982 0.196029 0.689108
1141 2 0.451537 0.178666 0.746289
1026 4 0.439428 0.203241 0.713042
1261 2 0.458862 0.237753 0.729205
1145 4 0.484492 0.190584 0.708998
1209 4 0.140876 0.302834 0.693278
1207 2 0.122162 0.286258 0.693698
1208 4 0.103448 0.269681 0.694119
821 4 0.1557 0.31327 0.702712
1074 4 0.106094 0.247999 0.748132
820 2 0.175456 0.304835 0.689917
822 4 0.195212 0.2964 0.677122
1063 2 0.23553 0.320073 0.700947
1064 4 0.239116 0.309024 0.678805
916 2 0.310761 0.268608 0.744807
917 4 0.308467 0.291187 0.734313
807 4 0.346454 0.293239 0.68344
1263 4 0.46877 0.255602 0.743642
892 2 0.0264473 0.363208 0.710684
893 4 0.0134812 0.343181 0.703201
894 4 0.0394134 0.383234 0.718167
1280 4 0.0591087 0.384018 0.717892
1279 2 0.0568645 0.408798 0.715419
816 4 0.0697055 0.36787 0.721023
814 2 0.084788 0.358555 0.738657
942 4 0.112314 0.364218 0.752388
1065 4 0.231944 0.331121 0.723088
1028 4 0.201238 0.391963 0.704323
1066 2 0.186576 0.3766 0.735666
1068 4 0.194145 0.374904 0.711896
1027 2 0.214674 0.400237 0.684927
1029 4 0.22811 0.40851 0.665531
1019 4 0.367585 0.376933 0.738684
1981 2 0.0719052 0.462376 0.73701
1281 4 0.0546203 0.433578 0.712946
1983 4 0.0584783 0.451449 0.718969
1140 4 0.241475 0.42264 0.663098
2016 4 0.178186 0.489966 0.730392
1138 2 0.255297 0.43747 0.677733
1139 4 0.26912 0.4523 0.692369
1988 4 0.321312 0.463787 0.749807
1987 2 0.326855 0.45958 0.725792
1228 2 0.360223 0.476674 0.67921
1229 4 0.343703 0.471427 0.697231
1989 4 0.332398 0.455373 0.701776
1100 4 0.393139 0.478994 0.712
1099 2 0.415977 0.487285 0.706095
1101 4 0.438815 0.495576 0.700191
2991 4 0.00665896 0.0407139 0.75414
1203 4 0.127681 0.0724721 0.766258
1201 2 0.117849 0.0501046 0.760947
2047 2 0.134385 0.998712 0.768682
1257 4 0.219161 0.0736944 0.777217
1255 2 0.237378 0.0813146 0.792555
817 2 0.325756 0.0436535 0.81057
819 4 0.312728 0.064368 0.815706
1085 4 0.313166 0.0832045 0.812121
818 4 0.338783 0.022939 0.805435
1050 4 0.338156 0.00360834 0.777142
974 4 0.349524 0.010773 0.792682
1113 4 0.408289 0.0713342 0.792649
2322 4 0.475386 0.0306875 0.758707
844 2 0.489019 0.0807126 0.781482
863 4 0.0214447 0.0958609 0.766865
833 4 0.0200387 0.114046 0.774948
832 2 0.0106319 0.121357 0.796931
911 4 0.120252 0.130057 0.820702
34 3 0.130567 0.141285 0.776413
31 1 0.123992 0.14391 0.79851
35 3 0.105061 0.131884 0.802465
32 3 0.140812 0.136292 0.812228
1106 4 0.0944819 0.155943 0.754545
840 4 0.259382 0.0942426 0.826298
1256 4 0.255596 0.0889349 0.807892
1084 2 0.303416 0.104017 0.802274
1086 4 0.293666 0.124829 0.792427
845 4 0.472583 0.0822955 0.800258
1112 4 0.454507 0.0901167 0.796097
1111 2 0.431398 0.0807254 0.794373
1214 4 0.0116049 0.229157 0.77814
1213 2 0.00514006 0.227249 0.754062
33 3 0.120206 0.166351 0.803035
1130 4 0.162434 0.218382 0.796419
1129 2 0.182808 0.220387 0.782064
1131 4 0.203182 0.222392 0.767709
1277 4 0.213177 0.24016 0.766294
918 4 0.313054 0.24603 0.755302