ITEM: TIMESTEP
2820000
ITEM: NUMBER OF ATOMS
4590
ITEM: BOX BOUNDS pp pp pp
-9.9985700000000008e+00 9.9985700000000008e+00
-9.9985700000000008e+00 9.9985700000000008e+00
-9.9985700000000008e+00 9.9985700000000008e+00
ITEM: ATOMS id type xs ys zs
1667 4 0.0122582 0.0710111 0.0465399
485 4 0.416351 0.993104 0.0674974
2974 2 0.468578 0.0160865 0.0105335
745 2 0.439844 0.0668456 0.0104063
747 4 0.437441 0.0420849 0.00789328
2467 2 0.493678 0.0117622 0.061312
986 4 0.433024 0.0235375 0.00384551
701 4 0.0308642 0.0730765 0.0528409
700 2 0.0377403 0.0884177 0.0713489
567 4 0.233204 0.163769 0.0081407
297 4 0.331506 0.119917 0.0155188
295 2 0.350041 0.114809 0.999533
746 4 0.442246 0.0916063 0.0129194
558 4 0.43171 0.106506 0.00395393
555 4 0.0480646 0.228403 0.0106545
566 4 0.221584 0.158294 0.0564699
565 2 0.227394 0.161031 0.0323053
573 4 0.269574 0.245385 0.0615495
1292 4 0.328405 0.214248 0.00265292
770 4 0.407213 0.184964 0.0204744
359 4 0.389812 0.190608 0.0164557
664 2 0.401937 0.209961 0.0526527
665 4 0.397782 0.192273 0.0354755
666 4 0.406092 0.227649 0.0698299
323 4 0.417299 0.24273 0.0680675
358 2 0.369161 0.20145 0.00744591
769 2 0.427086 0.170988 0.0145666
623 4 0.399321 0.2431 0.0779871
292 2 0.161937 0.316151 0.0425764
294 4 0.145078 0.304638 0.0281397
293 4 0.178795 0.327664 0.057013
507 4 0.188129 0.325513 0.0707282
287 4 0.199759 0.328513 0.0563246
286 2 0.21464 0.322672 0.0370998
288 4 0.229522 0.31683 0.0178749
482 4 0.252254 0.251109 0.0711213
571 2 0.280372 0.24786 0.039134
572 4 0.29117 0.250335 0.0167186
357 4 0.298093 0.266284 0.00723122
355 2 0.313215 0.28476 0.999806
956 4 0.327927 0.319438 0.00471726
1069 2 0.401381 0.30584 0.0251919
955 2 0.347967 0.326794 0.0177343
1071 4 0.382796 0.322056 0.0292915
957 4 0.368008 0.334149 0.0307514
322 2 0.42128 0.262844 0.0537574
324 4 0.425262 0.282957 0.0394472
1070 4 0.419967 0.289624 0.0210923
280 2 0.451236 0.306422 0.044773
282 4 0.437029 0.293217 0.0289948
281 4 0.465443 0.319628 0.0605513
527 4 0.476304 0.326935 0.0727478
671 4 0.458259 0.332751 0.0754271
526 2 0.497769 0.338621 0.0780301
456 4 0.194345 0.392027 0.0493462
552 4 0.178023 0.340923 0.0737094
454 2 0.191469 0.367621 0.0539578
455 4 0.188594 0.343215 0.0585694
1290 4 0.272465 0.402845 0.0300463
250 2 0.26518 0.412179 0.0621995
1288 2 0.276564 0.384004 0.0141287
1289 4 0.280662 0.365162 0.998211
741 4 0.382096 0.332429 0.04504
739 2 0.387292 0.33777 0.0689076
328 2 0.00934081 0.41816 0.0230392
329 4 0.0276677 0.433894 0.0295
1788 4 0.086637 0.471728 0.0832836
1786 2 0.0877681 0.491731 0.0683239
627 4 0.149981 0.480906 0.062592
626 4 0.198335 0.474577 0.0736635
625 2 0.174158 0.477741 0.0681277
245 4 0.216986 0.475943 0.0772461
244 2 0.228685 0.459335 0.0626683
246 4 0.240383 0.442727 0.0480905
251 4 0.262557 0.417995 0.0380239
272 4 0.24578 0.428003 0.0348132
271 2 0.256493 0.436779 0.0139949
1672 2 0.40173 0.432565 0.066195
853 2 0.38852 0.439699 0.00873872
1674 4 0.404588 0.437842 0.0419222
854 4 0.408199 0.444894 0.0232614
564 4 0.42191 0.436487 0.0332821
563 4 0.459912 0.468539 0.027876
562 2 0.440911 0.452513 0.0305791
228 4 0.479802 0.474695 0.0270674
226 2 0.497941 0.490248 0.0344315
19 3 0.0718061 0.0361275 0.161284
18 3 0.0781288 0.00112363 0.147898
16 1 0.0771635 0.0142828 0.166985
578 4 0.091685 0.0370633 0.170411
580 2 0.241867 0.066253 0.149898
581 4 0.256613 0.0487282 0.159928
582 4 0.227121 0.0837778 0.139867
237 4 0.219996 0.0826295 0.15899
490 2 0.286499 0.0515159 0.102605
1475 4 0.297135 0.0203447 0.0987845
492 4 0.292937 0.0312993 0.115835
1474 2 0.302662 0.998165 0.0886504
654 4 0.264786 0.0356248 0.173385
2722 2 0.469679 0.0597278 0.168074
2724 4 0.492485 0.0501095 0.164531
1760 4 0.497415 0.0422795 0.146547
1759 2 0.502522 0.0343799 0.123381
2723 4 0.446873 0.0693461 0.171617
702 4 0.0446163 0.103759 0.0898569
476 4 0.0490192 0.121382 0.0958533
475 2 0.0700665 0.132335 0.103741
513 4 0.0623651 0.1457 0.154223
393 4 0.0683348 0.162674 0.164615
477 4 0.0911139 0.143288 0.111629
235 2 0.19832 0.0918404 0.167387
491 4 0.280062 0.0717325 0.0893753
628 2 0.37099 0.165956 0.151703
629 4 0.363137 0.146585 0.137982
312 4 0.358242 0.126771 0.14636
2624 4 0.00317255 0.188805 0.124677
391 2 0.0701821 0.187327 0.160878
392 4 0.0720294 0.211981 0.15714
738 4 0.23064 0.16268 0.0942737
737 4 0.243713 0.207332 0.112605
736 2 0.237176 0.185006 0.103439
755 4 0.249643 0.242981 0.160743
460 2 0.327405 0.225486 0.116551
461 4 0.305885 0.21324 0.113075
354 4 0.288889 0.214205 0.123251
352 2 0.278455 0.228186 0.141163
353 4 0.26802 0.242167 0.159075
630 4 0.378842 0.185328 0.165424
254 4 0.383851 0.203675 0.16199
462 4 0.348926 0.237732 0.120027
255 4 0.361353 0.238828 0.134443
253 2 0.372602 0.221251 0.148216
622 2 0.382406 0.244031 0.0963772
624 4 0.365491 0.244961 0.114767
536 4 0.175462 0.258329 0.143891
481 2 0.237238 0.268403 0.0811515
505 2 0.19655 0.307159 0.0854721
483 4 0.222222 0.285697 0.0911817
506 4 0.204971 0.288804 0.100216
537 4 0.191811 0.294004 0.112894
535 2 0.183636 0.276166 0.128393
754 2 0.239383 0.2656 0.157866
756 4 0.229124 0.28822 0.154988
301 2 0.322496 0.319321 0.139945
303 4 0.322914 0.30365 0.159424
285 4 0.313755 0.290446 0.165114
764 4 0.330829 0.285098 0.158259
765 4 0.357021 0.255546 0.127576
763 2 0.343925 0.270322 0.142917
12 3 0.406735 0.31817 0.115203
647 4 0.0596722 0.344983 0.157646
550 2 0.158303 0.34406 0.088759
551 4 0.138584 0.347197 0.103809
290 4 0.236945 0.411868 0.153837
289 2 0.217411 0.400874 0.164915
252 4 0.267803 0.406362 0.0863752
302 4 0.322077 0.334992 0.120466
609 4 0.28642 0.40446 0.0917404
387 4 0.324461 0.351127 0.107946
607 2 0.306057 0.41463 0.103409
385 2 0.348999 0.351051 0.103147
493 2 0.391339 0.384536 0.0965139
495 4 0.389811 0.359915 0.100592
386 4 0.373538 0.350975 0.0983467
15 3 0.375865 0.338801 0.11142
740 4 0.392488 0.343111 0.0927752
14 3 0.409695 0.354732 0.10701
11 1 0.39743 0.338908 0.11874
13 3 0.39806 0.343638 0.141448
494 4 0.392867 0.409158 0.0924355
672 4 0.415058 0.336127 0.100387
670 2 0.436658 0.334439 0.0879071
1467 4 0.0787968 0.453678 0.0864525
1791 4 0.0544037 0.487391 0.125628
1465 2 0.0705166 0.461588 0.10868
1466 4 0.0622364 0.469498 0.130907
638 4 0.225239 0.491766 0.121839
767 4 0.225823 0.478035 0.136492
637 2 0.201348 0.498753 0.119482
639 4 0.177456 0.50574 0.117124
766 2 0.230049 0.453546 0.13925
768 4 0.234275 0.429057 0.142008
608 4 0.325693 0.4248 0.115078
659 4 0.334713 0.43515 0.100666
660 4 0.383716 0.425506 0.0981388
1673 4 0.398873 0.427288 0.0904678
658 2 0.359214 0.430328 0.0994025
524 4 0.411747 0.48084 0.125537
523 2 0.403555 0.45888 0.116826
525 4 0.395364 0.436921 0.108116
1559 4 0.39256 0.483228 0.135812
17 3 0.0608237 0.00600921 0.180903
2480 4 0.0413069 0.0090226 0.186097
2479 2 0.0287951 0.0290789 0.194244
380 4 0.0110295 0.0686286 0.201136
2481 4 0.0162834 0.0491351 0.202392
1422 4 0.0352566 0.990772 0.194479
577 2 0.104155 0.0584609 0.173849
20 3 0.0971983 0.0137656 0.177802
674 4 0.143096 0.00964256 0.219698
673 2 0.120931 0.00127797 0.227695
579 4 0.116625 0.0798586 0.177287
1504 2 0.230887 0.00536213 0.180094
1506 4 0.248535 0.0229831 0.178299
652 2 0.28889 0.0334686 0.179673
653 4 0.312993 0.0313125 0.185961
758 4 0.347125 0.0744968 0.188887
759 4 0.360457 0.0732847 0.237069
757 2 0.353791 0.0738908 0.212978
742 2 0.502131 0.0532806 0.233777
351 4 0.419407 0.0548682 0.245037
480 4 0.439394 0.0542014 0.246771
743 4 0.485997 0.0654095 0.248533
333 4 0.490403 0.0818467 0.23709
379 2 0.0293849 0.0823596 0.19115
511 2 0.058056 0.129407 0.172693
512 4 0.0537468 0.113114 0.191163
381 4 0.0477402 0.0960906 0.181164
450 4 0.113423 0.0956033 0.190137
448 2 0.13691 0.10255 0.185106
449 4 0.160396 0.109496 0.180075
236 4 0.176644 0.101051 0.175783
30 3 0.343201 0.139406 0.222242
26 1 0.342777 0.154682 0.239128
310 2 0.35064 0.108688 0.161864
28 3 0.355186 0.173373 0.233208
311 4 0.343038 0.0906039 0.177368
761 4 0.407158 0.149618 0.229025
521 4 0.46662 0.142687 0.216876
762 4 0.455228 0.136223 0.232271
760 2 0.431193 0.14292 0.230648
332 4 0.467768 0.124285 0.223403
331 2 0.479085 0.103066 0.230247
520 2 0.487718 0.155235 0.212121
339 4 0.0776438 0.218676 0.175091
337 2 0.0634938 0.233797 0.189103
279 4 0.27513 0.224879 0.216704
277 2 0.26981 0.23698 0.195481
522 4 0.508816 0.167782 0.207365
394 2 0.0112216 0.262073 0.234127
395 4 0.0277865 0.269107 0.216769
338 4 0.0493439 0.248918 0.203114
363 4 0.043789 0.266824 0.205267
361 2 0.0525752 0.289844 0.209515
648 4 0.0653545 0.325964 0.203545
362 4 0.0613613 0.312865 0.213762
372 4 0.0798039 0.317045 0.214421
749 4 0.0507463 0.327427 0.218411
370 2 0.103775 0.319587 0.22106
371 4 0.127747 0.32213 0.227699
612 4 0.237262 0.302362 0.165827
611 4 0.237754 0.317559 0.213466
610 2 0.237508 0.30996 0.189647
344 4 0.221711 0.323298 0.220815
343 2 0.207417 0.319171 0.240911
284 4 0.274613 0.259525 0.161577
283 2 0.294184 0.274986 0.163346
278 4 0.264491 0.249081 0.174257
729 4 0.313695 0.306432 0.175302
727 2 0.299909 0.321977 0.189211
308 4 0.33017 0.293401 0.173181
307 2 0.340947 0.285095 0.194158
309 4 0.351724 0.27679 0.215136
498 4 0.344411 0.288171 0.229505
748 2 0.0583 0.345001 0.234512
646 2 0.0625134 0.335473 0.180596
750 4 0.0658537 0.362575 0.250614
734 4 0.133106 0.340507 0.237225
733 2 0.155257 0.334366 0.247065
417 4 0.146703 0.3834 0.192956
299 4 0.132197 0.356394 0.24699
298 2 0.108306 0.362673 0.25086
291 4 0.197877 0.38988 0.175994
416 4 0.196221 0.389061 0.197028
415 2 0.171462 0.386231 0.194992
728 4 0.286123 0.337523 0.20312
445 2 0.40546 0.381925 0.232636
446 4 0.382222 0.372702 0.23293
447 4 0.428699 0.391148 0.232343
644 4 0.43662 0.383697 0.21627
643 2 0.445977 0.39256 0.194844
645 4 0.455334 0.401422 0.173418
264 4 0.0172771 0.432788 0.238165
412 2 0.229816 0.473513 0.230344
413 4 0.216612 0.460325 0.246984
414 4 0.24302 0.486701 0.213703
1574 4 0.302652 0.482283 0.215129
1573 2 0.298693 0.500765 0.198761
595 2 0.489371 0.42451 0.169465
597 4 0.465031 0.419139 0.171428
229 2 0.468436 0.492231 0.226073
231 4 0.482791 0.471949 0.228861
234 4 0.00425857 0.0487782 0.292917
232 2 0.0276934 0.0405886 0.289931
233 4 0.0511282 0.032399 0.286945
2756 4 0.00417861 0.0684542 0.296099
317 4 0.0666424 0.0291639 0.299678
1404 4 0.0620496 0.0174009 0.28823
316 2 0.0782968 0.0479578 0.311346
1402 2 0.0765938 0.00998707 0.269291
428 4 0.0635295 0.0105073 0.30625
318 4 0.0899512 0.0667516 0.323014
730 2 0.128092 0.0802055 0.322815
732 4 0.103435 0.0827939 0.319574
731 4 0.152749 0.077617 0.326057
693 4 0.310324 0.054039 0.278356
691 2 0.297179 0.0698546 0.292578
24 3 0.320615 0.0606479 0.263286
25 3 0.344102 0.0318553 0.257205
350 4 0.37115 0.0679381 0.246094
349 2 0.395279 0.0614031 0.245566
21 1 0.342181 0.0526403 0.266313
23 3 0.34724 0.0518657 0.288945
22 3 0.356932 0.066877 0.255879
632 4 0.359116 0.0836852 0.247472
479 4 0.44792 0.0342698 0.291835
478 2 0.443657 0.0442356 0.269303
2664 4 0.465907 0.0342288 0.299251
1428 4 0.449979 0.0222536 0.303812
258 4 0.433855 0.0352699 0.304067
2662 2 0.490812 0.0361712 0.300307
256 2 0.422474 0.0512312 0.319587
1426 2 0.443874 0.999966 0.313361
257 4 0.411093 0.0671926 0.335108
2755 2 0.00263365 0.0872986 0.31246
399 4 0.089521 0.082954 0.332513
692 4 0.284034 0.0856701 0.3068
721 2 0.27058 0.115863 0.312009
723 4 0.28695 0.103341 0.297851
722 4 0.254211 0.128384 0.326166
29 3 0.351375 0.145284 0.258523
631 2 0.360129 0.106597 0.257432
707 4 0.361624 0.143396 0.274781
633 4 0.361141 0.129509 0.267392
706 2 0.366819 0.147384 0.298911
708 4 0.372014 0.151373 0.323042
396 4 0.994657 0.25504 0.251485
444 4 0.0198997 0.222878 0.30753
442 2 0.0116814 0.23677 0.288434
443 4 0.00346311 0.250661 0.269337
544 2 0.128649 0.238685 0.260488
546 4 0.109502 0.222737 0.262542
545 4 0.147796 0.254634 0.258435
403 2 0.248149 0.167144 0.32966
405 4 0.240289 0.189359 0.321299
473 4 0.222686 0.200462 0.320638
27 3 0.32103 0.16111 0.242986
269 4 0.414778 0.242288 0.310494
419 4 0.398997 0.252489 0.318125
268 2 0.426544 0.225152 0.324389
402 4 0.168377 0.258402 0.254003
400 2 0.176029 0.280019 0.263971
401 4 0.18368 0.301636 0.273938
676 2 0.1769 0.328001 0.296432
345 4 0.193123 0.315044 0.261007
677 4 0.182422 0.320399 0.273261
678 4 0.171378 0.335603 0.319604
378 4 0.301364 0.280239 0.315073
376 2 0.316074 0.295764 0.302121
377 4 0.330784 0.311289 0.289168
615 4 0.333391 0.33013 0.285917
497 4 0.341024 0.299491 0.278096
496 2 0.342718 0.293831 0.253801
541 2 0.3684 0.312756 0.298304
542 4 0.390065 0.308606 0.310075
420 4 0.40145 0.301939 0.325148
543 4 0.346734 0.316907 0.286533
418 2 0.400224 0.277214 0.321636
2537 4 0.498904 0.32275 0.327798
364 2 0.0145213 0.396007 0.304107
365 4 0.039017 0.391112 0.30302
601 2 0.0603057 0.375998 0.333362
603 4 0.0414929 0.375928 0.316892
300 4 0.0844155 0.368952 0.25473
735 4 0.177407 0.328225 0.256905
434 4 0.306685 0.383321 0.306536
433 2 0.300698 0.407473 0.308987
614 4 0.32355 0.372063 0.311324
613 2 0.328471 0.351096 0.298621
1757 4 0.0318274 0.426889 0.251258
1756 2 0.0486177 0.442341 0.261481
1758 4 0.065408 0.457793 0.271703
1775 4 0.0760135 0.468904 0.283295
777 4 0.0708388 0.485178 0.294049
775 2 0.0625909 0.485503 0.317651
1776 4 0.116849 0.488562 0.262158
1774 2 0.0964313 0.478733 0.272727
1436 4 0.225771 0.446345 0.258411
1435 2 0.240277 0.446609 0.278774
1437 4 0.254784 0.446873 0.299137
4 3 0.254716 0.429442 0.3144
3 3 0.269262 0.463117 0.304457
1 1 0.267908 0.447233 0.321318
436 2 0.309646 0.461645 0.296632
438 4 0.28901 0.453103 0.307872
2 3 0.289062 0.439456 0.325923
437 4 0.330282 0.470188 0.285392
435 4 0.294711 0.431625 0.311439
1802 4 0.341742 0.488169 0.283701
119 3 0.488862 0.463575 0.324317
594 4 0.429532 0.494058 0.32922
606 4 0.160187 0.0720515 0.342956
699 4 0.363411 0.0494991 0.359067
1699 2 0.352974 0.0205165 0.388123
1700 4 0.35116 0.0397046 0.372195
697 2 0.380189 0.0653744 0.349492
1701 4 0.354789 0.00132836 0.404051
698 4 0.396966 0.0812496 0.339917
641 4 0.455337 0.0927659 0.390775
640 2 0.479991 0.0902866 0.394117
397 2 0.0732266 0.0998606 0.341106
398 4 0.0569323 0.116767 0.349699
2584 2 0.0218907 0.121285 0.35234
2586 4 0.0432861 0.119973 0.365212
458 4 0.0551284 0.128981 0.379069
457 2 0.0572207 0.14025 0.401291
600 4 0.0959077 0.156187 0.359132
604 2 0.181715 0.082575 0.350096
605 4 0.203242 0.0930986 0.357236
248 4 0.221346 0.0927599 0.365308
247 2 0.235823 0.110273 0.354873
249 4 0.250301 0.127786 0.344439
404 4 0.25601 0.14493 0.338021
683 4 0.259789 0.139529 0.356534
682 2 0.284252 0.138264 0.361548
684 4 0.308715 0.136999 0.366562
320 4 0.313033 0.131246 0.347195
321 4 0.359106 0.148823 0.33889
319 2 0.336069 0.140034 0.343043
726 4 0.390201 0.135947 0.406494
717 4 0.362439 0.159545 0.356702
715 2 0.377467 0.155894 0.376349
716 4 0.392496 0.152244 0.395996
467 4 0.391627 0.152574 0.416286
642 4 0.504646 0.0878074 0.39746
598 2 0.106071 0.177171 0.368163
599 4 0.116234 0.198155 0.377195
389 4 0.121196 0.231173 0.371175
686 4 0.115531 0.216445 0.381663
685 2 0.103937 0.219118 0.403654
275 4 0.13089 0.213176 0.371316
274 2 0.155576 0.209371 0.372465
388 2 0.121563 0.255241 0.364408
474 4 0.192406 0.212029 0.358717
472 2 0.207546 0.206246 0.339677
276 4 0.180261 0.205566 0.373614
270 4 0.43831 0.208016 0.338285
452 4 0.455064 0.214533 0.346356
451 2 0.462359 0.212905 0.370216
453 4 0.469653 0.211277 0.394076
515 4 0.455922 0.220406 0.404446
347 4 0.0661157 0.305353 0.39249
346 2 0.0426512 0.302437 0.40062
348 4 0.0191866 0.29952 0.408749
618 4 0.0719823 0.312134 0.374741
375 4 0.162905 0.325107 0.334892
616 2 0.0947301 0.305001 0.367203
390 4 0.12193 0.279309 0.357641
617 4 0.117478 0.297868 0.359664
374 4 0.127935 0.290449 0.343649
373 2 0.14542 0.307778 0.33927
510 4 0.190027 0.342585 0.327059
602 4 0.0791185 0.376069 0.349832
549 4 0.0705198 0.380415 0.367272
547 2 0.0807805 0.400207 0.378593
548 4 0.0910412 0.42 0.389913
508 2 0.203659 0.357637 0.341646
509 4 0.21729 0.37269 0.356233
240 4 0.330809 0.379375 0.38316
335 4 0.330767 0.369354 0.399381
238 2 0.343985 0.396391 0.37043
239 4 0.35716 0.413407 0.357699
587 4 0.37316 0.419154 0.370363
752 4 0.482037 0.390472 0.379183
561 4 0.470967 0.376984 0.388963
559 2 0.48221 0.374901 0.411199
751 2 0.487543 0.410957 0.365946
776 4 0.0543429 0.485828 0.341253
500 4 0.0609009 0.467436 0.345913
499 2 0.0659036 0.457943 0.368497
501 4 0.0709064 0.44845 0.391081
407 4 0.0888533 0.439623 0.390306
406 2 0.103275 0.449886 0.407966
1544 4 0.219332 0.48462 0.389098
1556 4 0.230066 0.478535 0.372941
1543 2 0.198164 0.487637 0.402058
5 3 0.259098 0.45659 0.340118
636 4 0.286804 0.497089 0.406073
1555 2 0.252193 0.482728 0.383805
1557 4 0.274319 0.486921 0.39467
586 2 0.379546 0.441855 0.362052
593 4 0.383492 0.478631 0.34118
588 4 0.385932 0.464556 0.353742
592 2 0.406512 0.486344 0.3352
713 4 0.444373 0.501271 0.343586
712 2 0.46394 0.485717 0.342971
714 4 0.483507 0.470163 0.342357
753 4 0.493049 0.431443 0.352709
117 3 0.488826 0.452979 0.360378
720 4 0.00660867 0.998878 0.463895
719 4 0.0513261 0.0144653 0.479961
718 2 0.0289674 0.00667153 0.471928
369 4 0.0620984 0.0131425 0.46253
963 4 0.308506 0.0317359 0.465641
432 4 0.296655 0.0478255 0.473861
430 2 0.312782 0.04561 0.492839
961 2 0.319305 0.0198118 0.4465
962 4 0.330104 0.00788768 0.427359
1216 2 0.411361 0.0481249 0.467369
1217 4 0.391377 0.0331521 0.46864
425 4 0.347744 0.00250289 0.421626
1218 4 0.431346 0.0630977 0.466098
260 4 0.0537477 0.169467 0.431864
459 4 0.059313 0.151518 0.423513
724 2 0.393388 0.116646 0.422067
725 4 0.396575 0.0973459 0.43764
259 2 0.0652385 0.191653 0.432822
261 4 0.0767293 0.213839 0.433779
687 4 0.0923422 0.22179 0.425645
1035 4 0.0829429 0.228392 0.443586
1033 2 0.0847565 0.247907 0.459112
466 2 0.400507 0.173299 0.427093
468 4 0.409387 0.194024 0.4379
411 4 0.39356 0.253633 0.459421
409 2 0.402335 0.23044 0.45622
410 4 0.411109 0.207246 0.453019
575 4 0.428455 0.200228 0.459941
516 4 0.425862 0.203595 0.440702
574 2 0.428225 0.184247 0.47917
514 2 0.440892 0.212001 0.422574
576 4 0.427995 0.168267 0.498399
2457 4 0.465184 0.267739 0.499601
2802 4 0.00498564 0.286266 0.413309
696 4 0.0901116 0.283333 0.490637
1034 4 0.08657 0.267423 0.474637
1260 4 0.0930051 0.284314 0.472869
1258 2 0.109598 0.301578 0.465671
1259 4 0.126192 0.318841 0.458473
9 3 0.136744 0.317137 0.435782
7 3 0.137648 0.331249 0.470606
6 1 0.143016 0.335413 0.448628
8 3 0.16592 0.338752 0.447004
489 4 0.373547 0.257761 0.459289
488 4 0.341241 0.266949 0.422241
487 2 0.357394 0.262355 0.440765
266 4 0.385799 0.270199 0.465029
265 2 0.386186 0.289556 0.480851
267 4 0.386574 0.308913 0.496674
3308 4 0.483788 0.338584 0.488898
1011 4 0.47029 0.325995 0.498323
1010 4 0.464808 0.278651 0.483185
1009 2 0.467549 0.302323 0.490754
326 4 0.0848051 0.366551 0.484642
327 4 0.12139 0.34326 0.459746
325 2 0.103098 0.354906 0.472194
10 3 0.131932 0.354024 0.441597
709 2 0.148647 0.391477 0.494831
711 4 0.126683 0.40273 0.490812
384 4 0.129232 0.419496 0.480715
334 2 0.314883 0.377358 0.416954
336 4 0.298999 0.385362 0.434528
668 4 0.287761 0.401867 0.431185
882 4 0.344361 0.364382 0.496524
560 4 0.493453 0.372817 0.433434
3309 4 0.495313 0.357842 0.444211
3307 2 0.489551 0.348213 0.466555
680 4 0.993536 0.458117 0.462785
1383 4 0.0102199 0.455295 0.475408
1381 2 0.0122656 0.480214 0.475304
570 4 0.169601 0.489181 0.432484
382 2 0.124353 0.434587 0.461386
408 4 0.117696 0.460149 0.425626
569 4 0.124511 0.469318 0.441032
383 4 0.119473 0.449679 0.442056
568 2 0.147056 0.47925 0.436758
1545 4 0.176995 0.490654 0.415019
667 2 0.294031 0.4244 0.440023
669 4 0.300301 0.446934 0.448861
634 2 0.295988 0.478821 0.420464
635 4 0.305173 0.460553 0.434855
774 4 0.314526 0.459004 0.45193
772 2 0.338977 0.461605 0.447394
773 4 0.363428 0.464207 0.442859
663 4 0.476893 0.50052 0.449321
2430 4 0.154748 0.0139428 0.519729
341 4 0.166658 0.0154413 0.50308
1152 4 0.203952 0.0671092 0.518023
342 4 0.20304 0.0485273 0.512157
340 2 0.184849 0.0319843 0.507619
1032 4 0.230456 0.0737607 0.576461
1030 2 0.247305 0.0583619 0.586667
431 4 0.328909 0.0433944 0.511818
842 4 0.386274 0.0351135 0.487845
841 2 0.366841 0.0422157 0.501884
843 4 0.347408 0.0493179 0.515924
1058 4 0.123413 0.0978719 0.506907
1270 2 0.0883059 0.148794 0.558464
1271 4 0.101275 0.128045 0.563609
1057 2 0.116231 0.106659 0.529186
1059 4 0.109049 0.115447 0.551466
1155 4 0.116925 0.119419 0.570417
939 4 0.101339 0.108851 0.567475
1153 2 0.135593 0.130149 0.583128
1150 2 0.214942 0.0761553 0.538579
1151 4 0.225932 0.0852014 0.559135
1180 2 0.234671 0.114159 0.576453
1181 4 0.238272 0.0897731 0.572264
1199 4 0.0206117 0.206276 0.58272
879 4 0.0623095 0.180904 0.541376
1198 2 0.000201041 0.214547 0.57088
877 2 0.0506628 0.190102 0.561499
1272 4 0.0753368 0.169543 0.553319
651 4 0.215034 0.226983 0.512122
858 4 0.199206 0.239325 0.507152
898 2 0.242714 0.171518 0.574626
649 2 0.229837 0.213077 0.526705
650 4 0.24464 0.19917 0.541287
899 4 0.249444 0.189434 0.558535
2455 2 0.481741 0.249945 0.505468
984 4 0.996505 0.29808 0.586904
695 4 0.103647 0.255879 0.530182
694 2 0.0968791 0.269606 0.51041
946 2 0.169099 0.283514 0.566776
856 2 0.192207 0.258872 0.521084
857 4 0.185207 0.278419 0.535015
947 4 0.185657 0.270474 0.553324
798 4 0.199007 0.262571 0.565636
796 2 0.221871 0.268523 0.573818
791 4 0.255381 0.290486 0.579678
790 2 0.255097 0.314972 0.574627
502 2 0.191606 0.360948 0.508701
503 4 0.210515 0.348074 0.498609
504 4 0.172696 0.373823 0.518793
710 4 0.170611 0.380224 0.498849
803 4 0.268026 0.367507 0.55995
804 4 0.273711 0.37225 0.510494
802 2 0.270868 0.369878 0.535222
1190 4 0.252686 0.358422 0.566753
1238 4 0.270086 0.352257 0.57261
792 4 0.254813 0.339459 0.569576
929 4 0.359664 0.383934 0.555714
881 4 0.355782 0.368196 0.54506
880 2 0.350071 0.366289 0.520792
928 2 0.34277 0.382318 0.574075
540 4 0.106392 0.475525 0.592009
4337 4 0.99471 0.000511163 0.662049
1081 2 0.0670127 0.0663422 0.636652
1082 4 0.0698885 0.0524067 0.657212
1083 4 0.0641369 0.0802778 0.616092
825 4 0.162909 0.0472156 0.658419
951 4 0.270422 0.0256772 0.60622
1031 4 0.264154 0.0429632 0.596873
949 2 0.275975 0.00890241 0.62391
950 4 0.281528 0.992128 0.641601
3008 4 0.493358 0.0115358 0.59826
809 4 0.487239 0.0227363 0.613989
808 2 0.476007 0.037946 0.630351
810 4 0.464775 0.0531556 0.646712
45 3 0.463909 0.0756701 0.642516
41 1 0.45412 0.071715 0.662694
42 3 0.456415 0.0494485 0.667994
1127 4 0.0479384 0.0892715 0.623105
1126 2 0.0263018 0.0904132 0.610626
1128 4 0.00466514 0.0915549 0.598146
938 4 0.0807344 0.0904593 0.609163
937 2 0.0910366 0.0996552 0.588319
1154 4 0.15426 0.140879 0.595839
900 4 0.235985 0.153602 0.590717
1182 4 0.231069 0.138544 0.580642
1221 4 0.169795 0.151466 0.592404
1219 2 0.194578 0.148519 0.593917
1211 4 0.23567 0.146278 0.659125
1210 2 0.234945 0.148726 0.634252
1220 4 0.219361 0.145573 0.59543
1212 4 0.234221 0.151173 0.609379
1192 2 0.316716 0.1588 0.641549
1193 4 0.320905 0.153892 0.617392
1194 4 0.312526 0.163707 0.665705
3424 2 0.491792 0.103697 0.651857
3425 4 0.471914 0.090001 0.658374
878 4 0.0390161 0.1993 0.581621
1244 4 0.0555548 0.210434 0.587199
1243 2 0.0474283 0.231384 0.598164
3123 4 0.492973 0.235148 0.632823
983 4 0.0291824 0.26913 0.611293
1245 4 0.0393017 0.252334 0.60913
982 2 0.0128436 0.283605 0.599099
3263 4 0.0601472 0.331855 0.62503
948 4 0.152541 0.296555 0.580229
1135 2 0.167008 0.318214 0.615834
1136 4 0.162852 0.302528 0.596811
797 4 0.244736 0.274476 0.581999
822 4 0.16505 0.330125 0.65304
872 4 0.356693 0.28108 0.601135
871 2 0.366542 0.294917 0.619484
813 4 0.393218 0.319977 0.642332
873 4 0.376391 0.308755 0.637833
954 4 0.453201 0.292987 0.588787
952 2 0.460095 0.313145 0.601875
3262 2 0.0614418 0.356825 0.624936
1041 4 0.0707739 0.396084 0.63627
3264 4 0.0627364 0.381794 0.624841
3240 4 0.0538169 0.398141 0.627263
3238 2 0.0292234 0.402582 0.628044
1039 2 0.0952429 0.397148 0.641301
1040 4 0.119712 0.398212 0.646332
993 4 0.124989 0.379187 0.647211
991 2 0.143746 0.362803 0.645006
992 4 0.162504 0.346418 0.6428
1189 2 0.235596 0.368031 0.582269
1137 4 0.171164 0.333901 0.634856
1064 4 0.17736 0.344531 0.65103
897 4 0.181086 0.349506 0.633306
896 4 0.201762 0.384957 0.604733
895 2 0.191424 0.367232 0.619019
1172 4 0.218396 0.395868 0.60353
1191 4 0.218505 0.377639 0.597786
1239 4 0.310567 0.367899 0.597456
1237 2 0.290326 0.360078 0.585033
930 4 0.325875 0.380703 0.592437
811 2 0.387812 0.344265 0.639872
1204 2 0.370445 0.401512 0.663649
1206 4 0.379212 0.386352 0.645803
927 4 0.39101 0.384654 0.630102
812 4 0.382407 0.368553 0.637412
925 2 0.401081 0.398985 0.612258
926 4 0.411152 0.413315 0.594414
953 4 0.46699 0.333303 0.614963
906 4 0.48397 0.344437 0.610833
904 2 0.503566 0.350722 0.596631
3239 4 0.00462977 0.407024 0.628824
539 4 0.0913969 0.427841 0.593454
538 2 0.0988943 0.451683 0.592731
2244 4 0.109904 0.492043 0.582947
1159 2 0.147411 0.49113 0.595027
1160 4 0.1231 0.485321 0.595649
1171 2 0.226921 0.419351 0.602496
1186 2 0.206048 0.470932 0.601598
1173 4 0.235446 0.442833 0.601462
1187 4 0.223347 0.45655 0.612511
1188 4 0.18875 0.485313 0.590685
1911 4 0.455312 0.489132 0.604992
1002 4 0.419959 0.431272 0.600889
1001 4 0.449778 0.471203 0.605013
1000 2 0.434869 0.451238 0.602951
1269 4 0.454003 0.480852 0.621971
1267 2 0.467715 0.482885 0.64278
1268 4 0.481427 0.484918 0.663589
943 2 0.0252354 0.0234269 0.678202
944 4 0.0460195 0.0371575 0.680363
1076 4 0.0593809 0.0515674 0.674758
1075 2 0.0620852 0.0674082 0.693913
945 4 0.00445125 0.00969622 0.676042
864 4 0.0595798 0.0789997 0.730126
1077 4 0.0647895 0.083249 0.713069
862 2 0.0381024 0.0751171 0.742325
824 4 0.180295 0.00242473 0.672284
823 2 0.171602 0.0248201 0.665351
1283 4 0.160656 0.0665234 0.658522
1149 4 0.23918 0.0592867 0.741064
1147 2 0.246362 0.0686567 0.719023
1092 4 0.342678 0.0175761 0.685708
1004 4 0.343115 0.0731124 0.729995
43 3 0.431525 0.076895 0.661684
1163 4 0.467582 0.06245 0.684958
1162 2 0.482528 0.0539362 0.703105
44 3 0.464437 0.0844392 0.679128
1164 4 0.497474 0.0454223 0.721252
851 4 0.0762046 0.099007 0.707271
850 2 0.0717359 0.122744 0.70081
852 4 0.0672672 0.146482 0.694349
1107 4 0.0745796 0.0915433 0.724436
1105 2 0.0960466 0.0872606 0.736519
1106 4 0.117514 0.0829778 0.748602
1282 2 0.166746 0.0883745 0.66904
1284 4 0.172835 0.110226 0.679558
909 4 0.174251 0.130551 0.681959
907 2 0.198502 0.133574 0.676675
908 4 0.222754 0.136597 0.671391
1227 4 0.241052 0.133153 0.668672
1148 4 0.253544 0.0780267 0.696983
1225 2 0.247264 0.109385 0.673326
886 2 0.273134 0.15872 0.67459
888 4 0.250195 0.148911 0.672926
1226 4 0.253477 0.0856166 0.677979
829 2 0.324733 0.146857 0.700175
830 4 0.309302 0.155485 0.682494
1005 4 0.331758 0.121302 0.722958
887 4 0.296073 0.168528 0.676253
1003 2 0.337437 0.0972071 0.726476
831 4 0.340164 0.13823 0.717857
1178 4 0.00635035 0.241487 0.724668
977 4 0.302568 0.219041 0.721009
976 2 0.327231 0.220923 0.717353
1298 4 0.28936 0.215405 0.73418
918 4 0.298031 0.233624 0.731893
978 4 0.351894 0.222805 0.713697
1025 4 0.407253 0.187978 0.679581
1020 4 0.365546 0.225699 0.728316
1018 2 0.377079 0.237067 0.747367
1146 4 0.500423 0.175203 0.718674
1024 2 0.422458 0.19621 0.697642
1142 4 0.439577 0.192513 0.730442
1144 2 0.477894 0.186016 0.719491
1262 4 0.448014 0.210745 0.730272
1026 4 0.437664 0.204441 0.715704
1261 2 0.445086 0.235409 0.733153
1145 4 0.455364 0.196829 0.720307
1177 2 0.027077 0.251249 0.714654
1179 4 0.0478037 0.261011 0.70464
820 2 0.156409 0.311761 0.667645
1208 4 0.146346 0.258694 0.723682
1074 4 0.13591 0.251144 0.737635
1207 2 0.15429 0.27812 0.710092
821 4 0.147769 0.293397 0.682249
1209 4 0.162235 0.297546 0.696501
1072 2 0.114419 0.261845 0.744623
805 2 0.235312 0.33257 0.703449
806 4 0.255434 0.318057 0.706559
1263 4 0.442158 0.260073 0.736033
892 2 0.0228059 0.370934 0.742583
1279 2 0.065113 0.403209 0.735211
1280 4 0.0604873 0.379855 0.72757
816 4 0.0609726 0.359713 0.72716
894 4 0.0453858 0.369477 0.731943
814 2 0.0847129 0.354199 0.721576
815 4 0.108453 0.348686 0.715992
942 4 0.115346 0.353291 0.733199
940 2 0.138786 0.35783 0.740625
941 4 0.162226 0.362369 0.748051
1063 2 0.193993 0.3512 0.668467
1065 4 0.210626 0.35787 0.685903
807 4 0.215191 0.347084 0.700338
1028 4 0.208677 0.376908 0.686459
1066 2 0.193241 0.368608 0.722644
1068 4 0.209 0.365271 0.70352
1027 2 0.222871 0.396968 0.681846
1067 4 0.177483 0.371945 0.741768
1205 4 0.361678 0.416673 0.681495
1281 4 0.0697387 0.426563 0.742852
1983 4 0.0751885 0.44434 0.738524
1981 2 0.0898044 0.464571 0.740034
1982 4 0.10442 0.484801 0.741544
1176 4 0.177881 0.488316 0.729077
1029 4 0.237065 0.417029 0.677233
1175 4 0.184459 0.484694 0.679637
1174 2 0.18117 0.486505 0.704357
2016 4 0.173307 0.489154 0.748446
1140 4 0.252557 0.43127 0.672549
1138 2 0.268871 0.449009 0.679209
1139 4 0.285184 0.466749 0.68587
1987 2 0.296694 0.460742 0.733385
1229 4 0.303932 0.469238 0.693923
1989 4 0.298032 0.474216 0.712365
2028 4 0.292139 0.481472 0.695866
1228 2 0.326998 0.461714 0.687878
1988 4 0.295357 0.447268 0.754406
1230 4 0.350064 0.45419 0.681833
1101 4 0.478392 0.485384 0.684115
1099 2 0.462703 0.478939 0.702486
1100 4 0.447014 0.472494 0.720857
2168 4 0.493034 0.493563 0.675819
2989 2 0.0183558 0.0310967 0.773857
2990 4 0.0153335 0.0551754 0.767836
2991 4 0.0213781 0.00701798 0.779879
863 4 0.0166249 0.0712345 0.754525
833 4 0.0122563 0.0731579 0.772911
3083 4 0.000726196 0.0624225 0.759213
2049 4 0.11574 0.0239097 0.780244
1202 4 0.105575 0.0332772 0.794619
1201 2 0.115893 0.0553842 0.789142
2047 2 0.113821 0.999698 0.774303
1203 4 0.126211 0.0774912 0.783666
1085 4 0.325523 0.0788526 0.805148
1084 2 0.307418 0.0835895 0.788566
960 4 0.326164 0.0802169 0.823816
819 4 0.338695 0.0675115 0.813131
1086 4 0.289313 0.0883264 0.771984
1050 4 0.368956 0.00504801 0.772747
817 2 0.346328 0.0460991 0.802718
818 4 0.353961 0.0246866 0.792305
974 4 0.366549 0.00988395 0.793947
2322 4 0.494607 0.0507899 0.785079
2320 2 0.49898 0.0445737 0.761258
1112 4 0.491902 0.0886733 0.788557
832 2 0.0150998 0.0903778 0.790815
834 4 0.0179434 0.107598 0.80872