ITEM: TIMESTEP
2540000
ITEM: NUMBER OF ATOMS
4590
ITEM: BOX BOUNDS pp pp pp
-9.9985700000000008e+00 9.9985700000000008e+00
-9.9985700000000008e+00 9.9985700000000008e+00
-9.9985700000000008e+00 9.9985700000000008e+00
ITEM: ATOMS id type xs ys zs
1666 2 0.00177266 0.0677014 0.065638
491 4 0.304562 0.0515383 0.0761174
1541 4 0.257935 0.0024886 0.0478701
2974 2 0.464608 0.0112715 0.0198662
745 2 0.440797 0.0682919 0.0111778
747 4 0.450639 0.0453433 0.00987951
2975 4 0.449926 0.0265494 0.00659198
986 4 0.432737 0.0350837 0.00573322
1667 4 0.0114924 0.0901324 0.0603885
701 4 0.0119474 0.109615 0.0648619
700 2 0.0324278 0.121897 0.0722693
702 4 0.0529082 0.13418 0.0796767
566 4 0.221791 0.147641 0.0591942
565 2 0.22729 0.156871 0.036617
567 4 0.23279 0.166102 0.0140398
297 4 0.336666 0.109265 0.0299306
295 2 0.353085 0.113509 0.0115576
558 4 0.435855 0.109117 0.00578425
746 4 0.430955 0.0912404 0.012476
482 4 0.242293 0.253015 0.0671724
738 4 0.254568 0.202543 0.0753462
770 4 0.39104 0.183998 0.0227542
359 4 0.372942 0.190423 0.0292336
664 2 0.395065 0.207757 0.0546391
665 4 0.388019 0.188006 0.0410226
666 4 0.40211 0.227509 0.0682556
323 4 0.404592 0.24595 0.0725829
358 2 0.356425 0.203933 0.0162008
769 2 0.404817 0.171706 0.00589335
360 4 0.339908 0.217443 0.00316806
623 4 0.386342 0.23942 0.071959
2808 4 0.00559813 0.248981 0.0351589
2806 2 0.999721 0.263233 0.054845
292 2 0.143641 0.315902 0.0452541
293 4 0.16341 0.325621 0.0570828
294 4 0.123872 0.306184 0.0334254
507 4 0.173174 0.318595 0.0674321
287 4 0.183149 0.324975 0.052739
286 2 0.19838 0.319483 0.0336861
505 2 0.187047 0.303538 0.0817849
481 2 0.222413 0.261204 0.0799354
288 4 0.213612 0.313991 0.0146333
573 4 0.246938 0.251723 0.048388
571 2 0.267258 0.255383 0.0342851
572 4 0.287578 0.259043 0.0201822
357 4 0.305681 0.262517 0.0110585
355 2 0.318029 0.28405 0.00804721
956 4 0.326297 0.320581 0.0192506
356 4 0.330377 0.305582 0.00503597
1069 2 0.403306 0.315074 0.0306883
955 2 0.348515 0.325578 0.0295734
957 4 0.370733 0.330576 0.0398962
1071 4 0.38739 0.334284 0.0323727
322 2 0.411715 0.263297 0.0560442
324 4 0.418838 0.280644 0.0395055
1070 4 0.419222 0.295864 0.0290039
280 2 0.450292 0.303951 0.052536
282 4 0.436075 0.29189 0.0358753
281 4 0.46451 0.316011 0.0691967
671 4 0.459805 0.329017 0.082865
527 4 0.47855 0.323544 0.080433
552 4 0.162406 0.331599 0.0758997
454 2 0.175385 0.362399 0.0574375
456 4 0.175375 0.386517 0.0508409
455 4 0.175394 0.338282 0.0640341
1290 4 0.276897 0.391668 0.0313258
250 2 0.268566 0.396478 0.061581
1288 2 0.279173 0.379985 0.00933744
251 4 0.268888 0.407904 0.0393431
252 4 0.268244 0.385052 0.0838189
741 4 0.383965 0.33907 0.0511575
739 2 0.388921 0.344156 0.0751315
1467 4 0.0757196 0.446959 0.0768112
1788 4 0.0955699 0.450361 0.0487035
1786 2 0.104121 0.473465 0.0444296
1787 4 0.112671 0.496569 0.0401556
626 4 0.202956 0.474014 0.0696101
625 2 0.185956 0.492303 0.0683112
245 4 0.200561 0.460107 0.0557127
244 2 0.221726 0.447537 0.0513268
246 4 0.24289 0.434968 0.046941
272 4 0.256142 0.422164 0.0398388
271 2 0.268174 0.433141 0.0208675
273 4 0.280207 0.444118 0.00189626
1672 2 0.400768 0.4319 0.063512
853 2 0.39571 0.44732 0.0101227
1674 4 0.412547 0.436817 0.0420116
854 4 0.413537 0.452258 0.0269444
564 4 0.42648 0.448812 0.0400398
563 4 0.475633 0.44824 0.0308564
562 2 0.451057 0.448526 0.0354481
228 4 0.492687 0.460967 0.0327356
226 2 0.496691 0.478016 0.0505809
19 3 0.055253 0.0441143 0.156391
18 3 0.0579039 0.00702724 0.148521
16 1 0.0599144 0.0231235 0.165112
578 4 0.074567 0.0441437 0.168386
582 4 0.23841 0.0858253 0.157177
490 2 0.292331 0.0393712 0.0942157
1475 4 0.275626 0.0141741 0.126072
492 4 0.2801 0.0272042 0.112314
581 4 0.258188 0.0399482 0.159373
580 2 0.248299 0.0628867 0.158275
486 4 0.400222 0.0114311 0.0955591
484 2 0.403148 0.0331426 0.10761
485 4 0.406073 0.0548541 0.119661
2722 2 0.46496 0.0632865 0.152759
2724 4 0.476222 0.0430934 0.143241
1760 4 0.493932 0.0373406 0.135754
2744 4 0.488124 0.0314238 0.152496
476 4 0.0607468 0.126379 0.0971413
475 2 0.0669155 0.147495 0.109026
237 4 0.22343 0.0966096 0.148504
235 2 0.202386 0.101097 0.161239
628 2 0.390129 0.149548 0.154997
629 4 0.391832 0.125831 0.162729
312 4 0.372661 0.120096 0.162551
2723 4 0.453698 0.0834796 0.162276
477 4 0.0730842 0.168611 0.12091
737 4 0.222984 0.174775 0.102404
736 2 0.238776 0.188659 0.0888752
460 2 0.318221 0.22324 0.115991
461 4 0.295867 0.212101 0.114803
354 4 0.278085 0.214204 0.124536
352 2 0.26825 0.230235 0.141012
353 4 0.258414 0.246267 0.157487
630 4 0.388426 0.173265 0.147264
254 4 0.38192 0.19314 0.146899
462 4 0.340575 0.234379 0.117178
255 4 0.356979 0.231314 0.126372
253 2 0.36945 0.212227 0.136635
765 4 0.34985 0.24875 0.128916
624 4 0.355665 0.244572 0.111114
622 2 0.371003 0.241996 0.0915364
483 4 0.202533 0.269392 0.0926985
506 4 0.20092 0.288481 0.0961376
537 4 0.187248 0.295708 0.111087
535 2 0.182358 0.292348 0.135376
536 4 0.177467 0.288987 0.159665
301 2 0.325085 0.316025 0.145547
302 4 0.331622 0.3333 0.128693
303 4 0.318549 0.298751 0.1624
764 4 0.329867 0.281203 0.161291
763 2 0.339859 0.264976 0.145103
12 3 0.413972 0.328201 0.124754
647 4 0.0571851 0.352757 0.156069
550 2 0.146716 0.335796 0.0949103
551 4 0.131027 0.339994 0.113921
289 2 0.219692 0.396059 0.147437
290 4 0.241874 0.403137 0.138325
291 4 0.19751 0.388982 0.15655
387 4 0.326789 0.348419 0.116183
609 4 0.279166 0.387404 0.0999101
607 2 0.299615 0.399546 0.10763
608 4 0.320065 0.411687 0.115349
385 2 0.351146 0.352006 0.11182
493 2 0.385701 0.391064 0.100004
495 4 0.389822 0.366524 0.102447
386 4 0.375503 0.355592 0.107457
15 3 0.379883 0.341904 0.118195
740 4 0.393877 0.349242 0.0991054
14 3 0.410259 0.362767 0.11047
11 1 0.400983 0.347184 0.124945
13 3 0.400491 0.35572 0.146516
494 4 0.381579 0.415605 0.0975608
672 4 0.417669 0.343664 0.105465
670 2 0.438737 0.33634 0.0941648
1791 4 0.0675959 0.493119 0.104054
1465 2 0.0772083 0.463144 0.0958113
1466 4 0.078697 0.479329 0.114811
638 4 0.23401 0.488518 0.145862
766 2 0.241502 0.447682 0.140206
768 4 0.241633 0.422892 0.143464
767 4 0.241371 0.472472 0.136948
659 4 0.325091 0.42923 0.105891
660 4 0.373298 0.433846 0.0934225
1673 4 0.38899 0.426983 0.0850124
658 2 0.349195 0.431538 0.0996569
524 4 0.400231 0.482535 0.123338
523 2 0.395057 0.463068 0.108524
525 4 0.389883 0.443602 0.09371
1422 4 0.0182705 0.00387272 0.20297
17 3 0.0448089 0.0184957 0.181832
2480 4 0.0251764 0.0152355 0.18802
2479 2 0.0212067 0.037042 0.199591
20 3 0.0809878 0.0227987 0.173741
380 4 0.0161216 0.0784621 0.2019
2481 4 0.017237 0.0588484 0.211163
577 2 0.0883228 0.0647349 0.171845
689 4 0.155335 0.00882033 0.217066
674 4 0.140232 0.02072 0.223254
673 2 0.121697 0.00558382 0.230501
579 4 0.102079 0.0853261 0.175303
1504 2 0.22821 0.00301956 0.187478
1506 4 0.245213 0.0198405 0.180188
654 4 0.260568 0.0318283 0.176727
652 2 0.283321 0.0214641 0.176969
653 4 0.306074 0.0110999 0.177211
693 4 0.25705 0.068062 0.24092
25 3 0.327275 0.0496071 0.250075
758 4 0.341898 0.069243 0.192683
759 4 0.345501 0.0624362 0.242094
757 2 0.343699 0.0658396 0.217389
350 4 0.361967 0.0725159 0.244991
349 2 0.38661 0.0701053 0.248467
480 4 0.426526 0.054494 0.249851
743 4 0.493368 0.0612995 0.237519
333 4 0.499007 0.0792401 0.228105
2743 2 0.499247 0.0233577 0.173386
379 2 0.0294996 0.0926781 0.186276
511 2 0.0615867 0.145112 0.177986
512 4 0.0477209 0.124355 0.179419
381 4 0.0428776 0.106894 0.170652
513 4 0.0754526 0.16587 0.176553
450 4 0.11336 0.102571 0.178879
448 2 0.138299 0.101071 0.179843
449 4 0.163239 0.0995712 0.180806
236 4 0.181342 0.105584 0.173974
28 3 0.306616 0.136525 0.232692
26 1 0.315276 0.152483 0.247141
311 4 0.356522 0.0819356 0.190552
310 2 0.364591 0.101016 0.176552
521 4 0.478915 0.144004 0.221231
762 4 0.468562 0.128064 0.221831
760 2 0.447632 0.134211 0.234052
761 4 0.426703 0.140358 0.246272
332 4 0.488547 0.128105 0.226235
520 2 0.488175 0.163104 0.208016
331 2 0.493777 0.103673 0.22717
339 4 0.0186442 0.211518 0.171496
337 2 0.0282568 0.231885 0.182356
393 4 0.088333 0.172796 0.191435
391 2 0.0907607 0.197253 0.186836
392 4 0.0931885 0.22171 0.182237
544 2 0.139616 0.224233 0.24856
545 4 0.15433 0.242872 0.240734
27 3 0.328253 0.167165 0.235092
279 4 0.26095 0.228711 0.221973
277 2 0.259988 0.236274 0.19816
278 4 0.259027 0.243838 0.174347
522 4 0.497436 0.182203 0.194801
394 2 0.0210718 0.261828 0.242898
395 4 0.0394733 0.264402 0.226167
338 4 0.0378694 0.252253 0.193216
363 4 0.0455806 0.266592 0.206923
361 2 0.0549185 0.289779 0.206325
749 4 0.0505049 0.325653 0.213512
648 4 0.0621574 0.328053 0.199263
362 4 0.0642564 0.312965 0.205726
372 4 0.0810547 0.317435 0.200193
370 2 0.102996 0.318444 0.212141
371 4 0.124937 0.319453 0.224089
734 4 0.129925 0.330379 0.238824
733 2 0.152305 0.323791 0.247819
755 4 0.243693 0.25368 0.170563
754 2 0.239277 0.27819 0.168344
756 4 0.23486 0.302701 0.166126
611 4 0.23643 0.328282 0.224005
610 2 0.240977 0.322086 0.200212
612 4 0.245523 0.315891 0.176418
344 4 0.230574 0.323919 0.242405
284 4 0.273994 0.253359 0.169235
283 2 0.293155 0.26942 0.16895
285 4 0.312316 0.285481 0.168666
308 4 0.327946 0.291211 0.177329
729 4 0.312103 0.301909 0.180037
727 2 0.298876 0.318242 0.193581
307 2 0.344251 0.289267 0.196185
309 4 0.360556 0.287323 0.215041
498 4 0.343938 0.291503 0.226401
748 2 0.0561189 0.337961 0.23454
646 2 0.0596713 0.340405 0.177666
416 4 0.204912 0.386361 0.176133
417 4 0.166469 0.39971 0.205196
415 2 0.18569 0.393035 0.190665
728 4 0.285649 0.334575 0.207126
445 2 0.400647 0.384639 0.241118
447 4 0.421493 0.39163 0.22921
644 4 0.441822 0.390944 0.227881
643 2 0.448655 0.408223 0.211151
264 4 0.0208961 0.438528 0.245298
414 4 0.253715 0.457442 0.199912
412 2 0.245045 0.464008 0.222426
413 4 0.236374 0.470574 0.244941
1436 4 0.223133 0.457206 0.250901
595 2 0.486827 0.438436 0.169168
645 4 0.455488 0.425503 0.19442
597 4 0.467304 0.424885 0.176941
229 2 0.467686 0.489487 0.218577
231 4 0.482273 0.473582 0.205951
2755 2 0.0096318 0.0781174 0.30898
234 4 0.0139398 0.0387683 0.296741
232 2 0.0378913 0.0318477 0.298642
233 4 0.0618427 0.0249271 0.300543
2756 4 0.00710973 0.0567977 0.296163
2478 4 0.00493607 0.046186 0.280647
317 4 0.0816007 0.0289987 0.304136
1404 4 0.0751004 0.0119753 0.298185
428 4 0.0876913 0.0104564 0.312312
316 2 0.0885906 0.0527436 0.307672
1402 2 0.0860568 0.00182123 0.278135
318 4 0.0955804 0.0764884 0.311208
691 2 0.270449 0.0778546 0.259622
24 3 0.326071 0.0709347 0.281081
692 4 0.283848 0.0876471 0.278323
21 1 0.339084 0.0566561 0.268228
23 3 0.345726 0.0384067 0.280926
22 3 0.357802 0.0680004 0.261152
351 4 0.411253 0.0676948 0.251943
479 4 0.454056 0.0280764 0.282176
478 2 0.440291 0.0412852 0.266013
2664 4 0.47032 0.0164804 0.286134
1428 4 0.452304 0.0127732 0.288838
258 4 0.445547 0.0246708 0.301253
2662 2 0.494616 0.0220928 0.284287
256 2 0.438405 0.0384654 0.320846
2585 4 0.00244631 0.115033 0.329829
2757 4 0.0121539 0.0994371 0.321798
732 4 0.105971 0.0833125 0.326314
399 4 0.0890423 0.0919869 0.321487
730 2 0.129465 0.0890579 0.332657
606 4 0.167386 0.089182 0.327291
721 2 0.270154 0.106425 0.313959
723 4 0.2791 0.088733 0.298723
722 4 0.261208 0.124117 0.329195
29 3 0.328496 0.142254 0.263235
30 3 0.298317 0.163928 0.257143
632 4 0.35667 0.086311 0.252167
631 2 0.350741 0.109168 0.260387
707 4 0.342297 0.143315 0.278154
633 4 0.344812 0.132026 0.268607
706 2 0.348025 0.15375 0.300142
708 4 0.353753 0.164184 0.322131
546 4 0.124901 0.205594 0.256385
405 4 0.225793 0.170222 0.326278
473 4 0.207522 0.172684 0.317872
419 4 0.409253 0.242971 0.329594
269 4 0.402193 0.225613 0.336013
443 4 0.0114218 0.248166 0.272496
396 4 0.00267029 0.259254 0.25963
442 2 0.997904 0.252407 0.293099
402 4 0.168453 0.252608 0.250661
678 4 0.167112 0.323206 0.323275
343 2 0.210089 0.315383 0.253924
400 2 0.174983 0.273177 0.263289
401 4 0.181513 0.293747 0.275916
676 2 0.172224 0.318416 0.299272
345 4 0.189604 0.306847 0.265443
677 4 0.177335 0.313627 0.27527
735 4 0.174685 0.317204 0.256814
378 4 0.302174 0.278282 0.318516
376 2 0.315911 0.293144 0.303834
497 4 0.332097 0.296668 0.274711
377 4 0.329648 0.308006 0.289151
496 2 0.338017 0.294086 0.250556
541 2 0.369919 0.303209 0.29609
542 4 0.393956 0.301587 0.302784
420 4 0.403572 0.284799 0.302781
543 4 0.345883 0.30483 0.289395
418 2 0.406413 0.263885 0.316187
615 4 0.340038 0.323177 0.294891
364 2 0.00431007 0.382723 0.294492
365 4 0.0266628 0.393828 0.29598
601 2 0.0522748 0.388094 0.324727
603 4 0.0380725 0.380879 0.305455
750 4 0.0617329 0.350268 0.255569
300 4 0.0792406 0.35425 0.263627
299 4 0.127322 0.345585 0.252959
298 2 0.103281 0.349918 0.258293
508 2 0.187969 0.357962 0.332318
510 4 0.170595 0.341835 0.324365
434 4 0.321984 0.380668 0.304351
433 2 0.310679 0.4 0.315471
446 4 0.379802 0.377649 0.253025
614 4 0.339386 0.372976 0.299402
613 2 0.339712 0.348077 0.297147
2537 4 0.495261 0.333733 0.327467
1757 4 0.0374556 0.448855 0.245054
1756 2 0.0569856 0.463519 0.250415
1758 4 0.0765157 0.478182 0.255776
775 2 0.0703667 0.496637 0.312023
1775 4 0.0796767 0.490698 0.269409
777 4 0.0769554 0.499701 0.288098
1435 2 0.231766 0.449994 0.273231
1437 4 0.240398 0.442782 0.295561
5 3 0.253991 0.44876 0.326711
4 3 0.259844 0.438037 0.291096
3 3 0.27985 0.46669 0.306037
1 1 0.269704 0.446287 0.310413
436 2 0.318394 0.459447 0.317294
438 4 0.294688 0.451889 0.314828
435 4 0.299375 0.419332 0.326591
2 3 0.285723 0.431391 0.317531
1802 4 0.351856 0.48486 0.323463
437 4 0.3421 0.467005 0.319759
119 3 0.486643 0.466013 0.325949
427 2 0.0988872 0.00458674 0.333884
1781 4 0.114248 0.00633191 0.419016
604 2 0.184961 0.0820428 0.34358
605 4 0.202536 0.0749035 0.359869
441 4 0.34344 0.999035 0.411167
699 4 0.378592 0.0584025 0.378486
1699 2 0.36091 0.0227188 0.387387
1700 4 0.364564 0.0446994 0.376043
697 2 0.397019 0.0600806 0.361669
425 4 0.355377 0.00791331 0.4191
1701 4 0.357257 0.000738125 0.398731
698 4 0.415446 0.0617588 0.344852
257 4 0.431264 0.05226 0.340439
397 2 0.0751939 0.103856 0.33859
398 4 0.0613455 0.115725 0.355693
2584 2 0.0223262 0.118048 0.344691
2586 4 0.0422062 0.121063 0.359553
458 4 0.0325077 0.130357 0.373708
457 2 0.032619 0.142019 0.395826
260 4 0.0509969 0.160059 0.415361
731 4 0.152958 0.0948032 0.339
600 4 0.0864625 0.15595 0.347475
248 4 0.217173 0.0872974 0.366067
247 2 0.234454 0.101478 0.354866
403 2 0.239794 0.151927 0.335997
249 4 0.251735 0.115658 0.343665
404 4 0.253795 0.133633 0.345716
683 4 0.261376 0.121741 0.35947
682 2 0.283467 0.127609 0.369606
684 4 0.305558 0.133476 0.379742
320 4 0.32541 0.132061 0.374424
321 4 0.352527 0.151963 0.337421
319 2 0.338968 0.142012 0.355923
726 4 0.387873 0.146306 0.412824
467 4 0.395483 0.16467 0.41142
598 2 0.10077 0.172676 0.359337
599 4 0.115077 0.189403 0.3712
389 4 0.118253 0.218934 0.36855
686 4 0.116231 0.205709 0.380696
685 2 0.104263 0.204638 0.402623
275 4 0.130816 0.203229 0.372726
274 2 0.155375 0.198689 0.373909
388 2 0.117207 0.243868 0.367007
474 4 0.180683 0.191906 0.355434
472 2 0.194103 0.182295 0.336653
276 4 0.179935 0.194149 0.375092
717 4 0.393164 0.166414 0.350993
715 2 0.393715 0.173079 0.375086
716 4 0.394266 0.179743 0.399179
270 4 0.447876 0.205547 0.339364
452 4 0.451948 0.203135 0.35981
268 2 0.425034 0.21558 0.337689
451 2 0.457507 0.210495 0.38305
453 4 0.463067 0.217855 0.40629
347 4 0.05827 0.326051 0.394712
346 2 0.0368609 0.315852 0.402637
348 4 0.0154519 0.305652 0.410561
618 4 0.0761318 0.315711 0.391065
375 4 0.159292 0.31592 0.339835
616 2 0.0946555 0.302037 0.381314
390 4 0.11616 0.268802 0.365463
617 4 0.113179 0.288363 0.371563
374 4 0.126268 0.283321 0.358472
373 2 0.14278 0.29962 0.349153
549 4 0.0573033 0.409789 0.353254
602 4 0.0664771 0.39531 0.343999
547 2 0.0688157 0.415841 0.374609
509 4 0.205343 0.374089 0.340271
334 2 0.32198 0.371619 0.416925
238 2 0.369593 0.380423 0.379617
239 4 0.38874 0.392148 0.368612
587 4 0.393862 0.410609 0.370966
335 4 0.339016 0.358934 0.403732
240 4 0.350447 0.368698 0.390621
752 4 0.470972 0.39985 0.384197
561 4 0.477379 0.390947 0.402078
776 4 0.063778 0.493574 0.335947
500 4 0.0666535 0.494488 0.35556
499 2 0.0742391 0.473075 0.366005
548 4 0.0803281 0.421894 0.395963
501 4 0.0818247 0.451661 0.376451
407 4 0.0908224 0.438849 0.392166
406 2 0.102601 0.439433 0.414213
1544 4 0.216348 0.47687 0.389085
1556 4 0.235834 0.474714 0.383581
1543 2 0.201356 0.482404 0.408315
1555 2 0.256794 0.484323 0.393252
586 2 0.394802 0.435058 0.365814
593 4 0.393067 0.474239 0.374465
588 4 0.395743 0.459507 0.360662
592 2 0.407989 0.490476 0.362679
751 2 0.478787 0.420424 0.372333
118 3 0.501623 0.436425 0.344512
712 2 0.460043 0.492722 0.345143
714 4 0.47924 0.476755 0.343843
753 4 0.486603 0.440999 0.360468
117 3 0.485702 0.464686 0.363499
116 1 0.498207 0.459372 0.344937
1772 4 0.00869331 0.00037865 0.446832
2237 4 0.00459067 0.999318 0.464872
369 4 0.0724748 0.00565933 0.453974
367 2 0.0930882 0.0143627 0.442815
368 4 0.113702 0.0230661 0.431656
961 2 0.330457 0.0336949 0.434357
963 4 0.325341 0.0536582 0.448516
432 4 0.332652 0.0599668 0.465339
962 4 0.335574 0.0137317 0.420198
430 2 0.34177 0.0538941 0.487814
1216 2 0.415653 0.0470856 0.489801
1218 4 0.416972 0.0507733 0.465106
459 4 0.0327303 0.15368 0.417943
725 4 0.389801 0.0969051 0.420342
724 2 0.388837 0.121606 0.416583
640 2 0.483345 0.096949 0.430775
641 4 0.458644 0.100402 0.432547
259 2 0.0661563 0.176802 0.426088
1033 2 0.081801 0.231558 0.45012
261 4 0.0813158 0.193544 0.436814
1035 4 0.07764 0.212221 0.434824
687 4 0.0922945 0.203568 0.42455
488 4 0.325448 0.23365 0.428214
487 2 0.346354 0.24134 0.439571
466 2 0.405329 0.178205 0.429995
468 4 0.415175 0.19174 0.448571
411 4 0.376124 0.240081 0.465891
409 2 0.394165 0.223015 0.462979
410 4 0.412205 0.205949 0.460067
575 4 0.425437 0.205059 0.473359
516 4 0.427773 0.208068 0.454425
574 2 0.442204 0.193289 0.487695
514 2 0.443523 0.218734 0.438196
515 4 0.459273 0.229399 0.421967
2802 4 0.998924 0.309245 0.421639
696 4 0.0954042 0.25967 0.479283
1034 4 0.085962 0.250895 0.465415
1260 4 0.0902544 0.271278 0.465101
1258 2 0.104176 0.291906 0.462677
1259 4 0.118097 0.312533 0.460253
9 3 0.133243 0.315602 0.440276
7 3 0.125771 0.322206 0.476515
6 1 0.134137 0.331463 0.45719
489 4 0.36726 0.24903 0.450928
266 4 0.367431 0.256689 0.469584
265 2 0.374942 0.276379 0.48304
267 4 0.382453 0.296069 0.496496
1011 4 0.469587 0.333179 0.493331
3308 4 0.488489 0.333949 0.489858
2457 4 0.473185 0.273097 0.498628
326 4 0.0657343 0.350545 0.481773
327 4 0.109904 0.3343 0.464865
325 2 0.0878191 0.342422 0.473319
8 3 0.156127 0.337895 0.460862
10 3 0.121582 0.349595 0.451511
336 4 0.304945 0.384304 0.430118
668 4 0.298803 0.400697 0.421264
3309 4 0.494731 0.375883 0.463338
560 4 0.497838 0.373991 0.444441
559 2 0.487608 0.382469 0.42326
3307 2 0.49161 0.354916 0.476598
1381 2 0.0144119 0.488948 0.470156
382 2 0.119013 0.445101 0.467053
408 4 0.114379 0.440018 0.436261
384 4 0.12199 0.433629 0.489069
711 4 0.138073 0.422865 0.484352
568 2 0.149547 0.469724 0.432395
383 4 0.116037 0.456573 0.445036
569 4 0.130539 0.453501 0.43322
1545 4 0.186364 0.487938 0.427545
570 4 0.168556 0.485947 0.431571
667 2 0.303761 0.423119 0.431158
669 4 0.308719 0.44554 0.441052
635 4 0.317981 0.459311 0.431519
774 4 0.327794 0.45014 0.445339
634 2 0.305988 0.479253 0.422372
773 4 0.351542 0.463983 0.487114
772 2 0.339668 0.457062 0.466227
663 4 0.482563 0.474301 0.451514
661 2 0.482917 0.498605 0.457376
341 4 0.159892 0.0119498 0.516767
2430 4 0.162336 0.000795976 0.532573
1152 4 0.189781 0.0552434 0.534269
342 4 0.19242 0.04982 0.513854
340 2 0.176156 0.0308849 0.51531
1150 2 0.206361 0.0706101 0.544952
1032 4 0.231886 0.0690428 0.562624
1031 4 0.279016 0.0609921 0.577274
1030 2 0.255451 0.0650174 0.569949
951 4 0.286526 0.0434149 0.582702
431 4 0.350889 0.0478213 0.51029
842 4 0.401665 0.0412157 0.530775
841 2 0.376739 0.0400083 0.529229
843 4 0.351812 0.0388009 0.527684
1217 4 0.414333 0.0433979 0.514496
3007 2 0.493783 0.0325945 0.572529
3009 4 0.50014 0.043744 0.55107
1058 4 0.0793499 0.102918 0.515866
1272 4 0.0817619 0.162988 0.584683
1270 2 0.0930801 0.14224 0.576524
1271 4 0.104398 0.121491 0.568365
1057 2 0.0939225 0.105529 0.536016
1059 4 0.108495 0.108139 0.556165
1155 4 0.124042 0.11652 0.56202
939 4 0.115297 0.108755 0.576418
1153 2 0.147825 0.118291 0.569531
1154 4 0.171608 0.120062 0.577042
1151 4 0.222942 0.0859768 0.555635
1180 2 0.217505 0.124343 0.558093
1181 4 0.213596 0.102304 0.546951
1182 4 0.221414 0.146383 0.569236
900 4 0.221947 0.158971 0.585081
1221 4 0.176379 0.137412 0.585305
1199 4 0.0223163 0.219113 0.576659
898 2 0.237456 0.175656 0.574773
651 4 0.244232 0.23416 0.516544
858 4 0.224538 0.237403 0.520823
649 2 0.244901 0.213908 0.531193
650 4 0.245571 0.193656 0.545842
899 4 0.252964 0.192342 0.564464
576 4 0.458972 0.18152 0.502031
585 4 0.494188 0.173906 0.5046
694 2 0.0943224 0.256953 0.504115
695 4 0.0932406 0.254236 0.528947
948 4 0.153793 0.297413 0.578301
856 2 0.210846 0.256227 0.529953
857 4 0.197154 0.275051 0.539083
947 4 0.192492 0.273129 0.557969
946 2 0.173142 0.285271 0.568135
798 4 0.201899 0.270456 0.575676
1010 4 0.465867 0.286434 0.510704
1009 2 0.467727 0.309807 0.502017
2455 2 0.487295 0.25248 0.499629
502 2 0.197058 0.396685 0.527331
503 4 0.213454 0.380363 0.517846
504 4 0.180663 0.413007 0.536815
803 4 0.266709 0.363839 0.564001
804 4 0.251182 0.362274 0.516491
802 2 0.258946 0.363057 0.540246
1238 4 0.277363 0.35435 0.576693
792 4 0.267936 0.339366 0.583713
882 4 0.365444 0.377401 0.504573
929 4 0.367862 0.388477 0.561277
881 4 0.377375 0.372106 0.552847
880 2 0.37141 0.374754 0.52871
928 2 0.353519 0.380933 0.580316
539 4 0.113861 0.429616 0.57659
540 4 0.116341 0.479462 0.573441
2244 4 0.112327 0.497688 0.579186
538 2 0.115101 0.454539 0.575015
1160 4 0.128818 0.493517 0.568565
709 2 0.149827 0.418735 0.506031
710 4 0.161582 0.414606 0.527709
1909 2 0.439699 0.491158 0.56579
1911 4 0.447243 0.474329 0.582674
1081 2 0.0742481 0.0736064 0.635396
1083 4 0.0740241 0.0714867 0.610483
1126 2 0.0375226 0.0841167 0.594455
1127 4 0.0608913 0.0840038 0.603347
1128 4 0.0141539 0.0842296 0.585563
1082 4 0.074472 0.0757262 0.660308
943 2 0.044218 0.0318467 0.664124
944 4 0.0520247 0.0550538 0.659058
3077 4 0.00248876 0.0697769 0.589194
938 4 0.0931995 0.0714305 0.601304
949 2 0.286453 0.0381183 0.607138
950 4 0.28638 0.0328218 0.631574
3008 4 0.487425 0.021445 0.593987
809 4 0.484693 0.0270528 0.613485
808 2 0.474785 0.0415541 0.631281
810 4 0.464876 0.0560554 0.649078
45 3 0.460513 0.0780047 0.646051
3477 4 0.00682906 0.085506 0.602773
937 2 0.104249 0.0900926 0.588861
1219 2 0.190133 0.155472 0.595786
1211 4 0.235656 0.147595 0.662464
1210 2 0.224758 0.15964 0.643455
1227 4 0.243451 0.133938 0.668197
1192 2 0.333381 0.152028 0.641442
1194 4 0.32061 0.140224 0.659407
888 4 0.255568 0.147551 0.661401
886 2 0.28046 0.148926 0.66332
887 4 0.305352 0.150301 0.66524
1193 4 0.346152 0.163832 0.623477
3424 2 0.491477 0.102944 0.655857
3425 4 0.471501 0.0897225 0.663021
878 4 0.0324567 0.209867 0.590876
877 2 0.0505764 0.192644 0.59133
1244 4 0.0455893 0.221999 0.602293
879 4 0.0686962 0.17542 0.591783
1243 2 0.0415328 0.246575 0.604469
1220 4 0.203888 0.173532 0.606266
1212 4 0.213861 0.171685 0.624446
3123 4 0.497376 0.240446 0.634002
983 4 0.0288599 0.286202 0.617943
1245 4 0.0374762 0.271152 0.606645
982 2 0.0114509 0.29282 0.60126
3262 2 0.0483452 0.330261 0.659218
1135 2 0.162741 0.315757 0.616983
822 4 0.155945 0.330078 0.650264
1136 4 0.158087 0.299698 0.598392
796 2 0.224471 0.273449 0.586005
797 4 0.247044 0.276442 0.596334
791 4 0.257555 0.290685 0.588519
790 2 0.262746 0.315026 0.586116
872 4 0.322625 0.281991 0.618815
871 2 0.338214 0.300783 0.613427
813 4 0.373222 0.326426 0.606269
873 4 0.353802 0.319575 0.608039
953 4 0.495693 0.29748 0.616206
954 4 0.459466 0.268686 0.597253
952 2 0.47758 0.283083 0.606729
906 4 0.501492 0.315711 0.614758
3239 4 0.00075818 0.403482 0.644306
1041 4 0.0544832 0.36969 0.640226
3264 4 0.0491122 0.352976 0.648796
3240 4 0.0356596 0.367678 0.645116
3238 2 0.0182089 0.38558 0.644711
1039 2 0.0785674 0.369237 0.633523
1040 4 0.102652 0.368783 0.62682
993 4 0.118862 0.374102 0.638288
991 2 0.13955 0.360145 0.639825
992 4 0.160239 0.346188 0.641363
1137 4 0.167395 0.331816 0.635575
1064 4 0.173972 0.341833 0.649917
897 4 0.175863 0.347633 0.630362
1189 2 0.243215 0.36862 0.596276
896 4 0.205027 0.378084 0.603475
895 2 0.190445 0.362858 0.616919
1172 4 0.212486 0.394052 0.610534
1191 4 0.224163 0.378864 0.608815
1190 4 0.262268 0.358375 0.583737
1239 4 0.32477 0.366027 0.587506
1237 2 0.301067 0.360189 0.582099
930 4 0.339175 0.373388 0.599356
811 2 0.377292 0.347862 0.618479
1204 2 0.395668 0.382574 0.657023
1206 4 0.397984 0.380711 0.632197
927 4 0.388033 0.379127 0.61592
812 4 0.381362 0.369298 0.63069
925 2 0.405538 0.391872 0.603418
926 4 0.423043 0.404618 0.590916
1159 2 0.146537 0.499836 0.585035
1171 2 0.215279 0.418512 0.606164
1188 4 0.176422 0.492578 0.593808
1186 2 0.193518 0.47652 0.602473
1173 4 0.218072 0.442972 0.601794
1187 4 0.210613 0.460463 0.611138
1002 4 0.431474 0.419872 0.601163
1001 4 0.455296 0.463014 0.592679
1000 2 0.443385 0.441443 0.596921
1269 4 0.454363 0.480717 0.600146
1267 2 0.460897 0.490149 0.622361
1101 4 0.450883 0.496074 0.655359
1076 4 0.0625714 0.0658605 0.670432
1075 2 0.0653067 0.0799286 0.69092
945 4 0.0364114 0.00863973 0.669191
824 4 0.184604 0.0174877 0.669367
1283 4 0.183385 0.0674994 0.702945
825 4 0.195067 0.051367 0.704629
823 2 0.189835 0.0344274 0.686998
1147 2 0.239975 0.0653439 0.704843
1149 4 0.227711 0.0648922 0.726628
1003 2 0.322911 0.0618328 0.713952
1004 4 0.325373 0.0401898 0.726228
1148 4 0.252239 0.0657956 0.683059
1005 4 0.320449 0.0834758 0.701676
41 1 0.45336 0.0711084 0.666544
43 3 0.43038 0.0738363 0.668239
42 3 0.458423 0.0488309 0.669234
1163 4 0.467576 0.0613073 0.685181
1162 2 0.480528 0.0499656 0.703314
44 3 0.464031 0.0832858 0.683165
1164 4 0.49348 0.0386239 0.721446
864 4 0.0599948 0.0963751 0.728316
1077 4 0.068042 0.0939968 0.711409
851 4 0.0684813 0.109225 0.700984
850 2 0.0664359 0.134143 0.700706
852 4 0.0643905 0.159061 0.700429
862 2 0.0396059 0.0922935 0.742202
1107 4 0.0744501 0.107324 0.719935
1105 2 0.0932763 0.102803 0.735756
1226 4 0.248473 0.0846884 0.675265
1225 2 0.245962 0.109313 0.671731
1282 2 0.181825 0.0922397 0.70621
1284 4 0.180264 0.11698 0.709475
909 4 0.185323 0.135762 0.705463
907 2 0.205972 0.139294 0.691813
908 4 0.226621 0.142826 0.678164
829 2 0.317336 0.118633 0.694726
830 4 0.31384 0.135626 0.676721
831 4 0.320833 0.10164 0.712732
1130 4 0.143586 0.245149 0.742825
1208 4 0.13445 0.246584 0.724769
1074 4 0.124755 0.243925 0.741134
977 4 0.320279 0.231556 0.741519
918 4 0.302326 0.232141 0.748264
1298 4 0.306025 0.219018 0.734778
1297 2 0.294434 0.199041 0.744357
976 2 0.336427 0.23309 0.722491
978 4 0.352575 0.234625 0.703462
1025 4 0.406309 0.186129 0.680145
1146 4 0.49142 0.172893 0.709193
1024 2 0.421847 0.193852 0.698147
1142 4 0.440629 0.192606 0.73238
1144 2 0.472451 0.187967 0.715368
1262 4 0.445514 0.218838 0.713043
1026 4 0.437386 0.201574 0.71615
1261 2 0.439735 0.235947 0.730337
1145 4 0.453482 0.203041 0.721544
3263 4 0.0475782 0.307546 0.669639
1178 4 0.00416484 0.262258 0.73707
1177 2 0.0213028 0.263656 0.718917
1179 4 0.0384407 0.265053 0.700765
820 2 0.146058 0.315323 0.667863
1207 2 0.139439 0.265159 0.708792
821 4 0.136171 0.300568 0.685462
1209 4 0.144428 0.283734 0.692816
805 2 0.227428 0.328928 0.705283
806 4 0.243102 0.310477 0.711536
1019 4 0.403898 0.262485 0.729332
1018 2 0.382473 0.272827 0.721642
1020 4 0.361047 0.28317 0.713951
1263 4 0.433956 0.253055 0.747631
892 2 0.0164657 0.355542 0.72737
1279 2 0.0531548 0.402765 0.738865
1280 4 0.0473688 0.379377 0.73218
816 4 0.0578583 0.361917 0.7324
814 2 0.0803455 0.352331 0.737656
894 4 0.0402929 0.362763 0.725068
815 4 0.102833 0.342746 0.742913
942 4 0.122664 0.341137 0.743225
1063 2 0.186996 0.350177 0.669563
1065 4 0.20002 0.35852 0.689209
807 4 0.211755 0.347379 0.699031
1028 4 0.203189 0.378048 0.690809
1066 2 0.191598 0.368232 0.72508
1068 4 0.206546 0.365829 0.705182
1027 2 0.216608 0.39713 0.68181
1067 4 0.176649 0.370636 0.744978
1205 4 0.393353 0.384436 0.681849
1281 4 0.0589408 0.426153 0.745551
2016 4 0.164637 0.490152 0.745592
1140 4 0.235544 0.434887 0.67695
1175 4 0.200291 0.476963 0.694631
1174 2 0.188443 0.488234 0.713546
1029 4 0.230028 0.416212 0.672811
1138 2 0.252427 0.452926 0.680784
1139 4 0.269311 0.470965 0.684619
1987 2 0.281771 0.457835 0.731472
1229 4 0.287765 0.46792 0.688903
1989 4 0.286545 0.46834 0.70929
2028 4 0.281194 0.480737 0.695636
1228 2 0.31164 0.464483 0.682322
1230 4 0.335516 0.461046 0.67574
1099 2 0.439288 0.48368 0.67372
1100 4 0.427693 0.471285 0.692081
2989 2 0.0240519 0.0584745 0.790342
2990 4 0.0205542 0.0742194 0.771235
2991 4 0.0275496 0.0427297 0.809448
3083 4 0.00440413 0.0793361 0.762832
2049 4 0.101955 0.0128878 0.774198
1202 4 0.118135 0.0243512 0.776579
1201 2 0.12007 0.0491116 0.779469
1203 4 0.122006 0.073872 0.78236
32 3 0.139693 0.079643 0.793965
1085 4 0.324743 0.0808035 0.812849
1084 2 0.30034 0.0823678 0.807634
960 4 0.331976 0.0747676 0.829284
1257 4 0.257268 0.0791348 0.794445
819 4 0.343211 0.0714493 0.814485
817 2 0.351492 0.0490825 0.806979
1050 4 0.35413 0.00904691 0.774408
818 4 0.359772 0.0267156 0.799474
974 4 0.354019 0.00823924 0.795542
2322 4 0.487969 0.0544678 0.77932
845 4 0.490491 0.0731965 0.781848
844 2 0.488622 0.0707477 0.806661
2320 2 0.494318 0.0419866 0.758605
846 4 0.486753 0.0682989 0.831474
863 4 0.019217 0.0882119 0.756087
833 4 0.01406 0.091836 0.773832
832 2 0.0184532 0.111464 0.788685
834 4 0.0228463 0.131092 0.803539
1125 4 0.0340916 0.142889 0.8171
1106 4 0.112102 0.098282 0.751578
911 4 0.130945 0.0928998 0.810849
34 3 0.113565 0.094234 0.771225
31 1 0.131603 0.0991992 0.78495
35 3 0.124983 0.113041 0.801779
33 3 0.14844 0.10928 0.772568
1256 4 0.237156 0.118656 0.817561
840 4 0.218835 0.127172 0.816093