ITEM: TIMESTEP
3310000
ITEM: NUMBER OF ATOMS
4590
ITEM: BOX BOUNDS pp pp pp
-9.9985700000000008e+00 9.9985700000000008e+00
-9.9985700000000008e+00 9.9985700000000008e+00
-9.9985700000000008e+00 9.9985700000000008e+00
ITEM: ATOMS id type xs ys zs
701 4 0.0375676 0.0456404 0.0642512
700 2 0.0517036 0.0662582 0.0647624
1667 4 0.0214604 0.0580447 0.0693031
996 4 0.0924405 0.0151131 0.000873653
490 2 0.267146 0.0682939 0.0737578
492 4 0.277606 0.0485932 0.0624594
1474 2 0.274416 0.00379226 0.069394
1475 4 0.281296 0.0277239 0.0671311
2974 2 0.465252 0.026551 0.0328164
745 2 0.420767 0.0784227 0.0270298
747 4 0.435722 0.0584274 0.0283342
2975 4 0.445923 0.0420943 0.0296556
986 4 0.427572 0.0406527 0.0250726
2976 4 0.48458 0.0110077 0.0359772
2468 4 0.496354 0.00654826 0.049982
2467 2 0.502997 0.00481769 0.0740246
3836 4 0.497092 0.995597 0.0351258
702 4 0.0658396 0.0868759 0.0652736
476 4 0.050555 0.0995195 0.0595682
475 2 0.0640745 0.119992 0.0643913
477 4 0.0775941 0.140465 0.0692144
566 4 0.20171 0.139812 0.0348057
565 2 0.212561 0.147049 0.0134738
491 4 0.256686 0.0879946 0.0850563
746 4 0.405811 0.0984179 0.0257254
769 2 0.386538 0.151023 0.0307722
556 2 0.371046 0.103864 0.009251
558 4 0.388957 0.10844 0.0260868
771 4 0.38187 0.126459 0.0306638
737 4 0.22202 0.164455 0.046361
736 2 0.20806 0.184518 0.0516346
738 4 0.194101 0.20458 0.0569082
573 4 0.270272 0.257635 0.0568904
770 4 0.391205 0.175586 0.0308806
359 4 0.386702 0.188568 0.0174068
664 2 0.399099 0.212143 0.0449074
665 4 0.401757 0.191946 0.0304095
666 4 0.396441 0.23234 0.0594053
623 4 0.39041 0.240387 0.0755276
2808 4 0.00869534 0.279546 0.0131951
3338 4 0.0235394 0.267533 0.00434274
481 2 0.237613 0.280988 0.0636981
505 2 0.191271 0.318325 0.0715791
483 4 0.214623 0.285884 0.0722206
506 4 0.203074 0.299011 0.0822021
537 4 0.191323 0.287387 0.0920189
482 4 0.260604 0.276092 0.0551757
571 2 0.29074 0.262748 0.0434714
572 4 0.311209 0.267862 0.0300523
357 4 0.315614 0.275059 0.0117379
355 2 0.323701 0.298517 0.00865212
323 4 0.406665 0.247683 0.0683357
1069 2 0.40632 0.318966 0.037094
322 2 0.416238 0.26731 0.0561567
956 4 0.336992 0.340989 0.0125406
324 4 0.425812 0.286936 0.0439776
1070 4 0.424453 0.302501 0.0320666
280 2 0.456334 0.306234 0.0583519
282 4 0.441125 0.297531 0.0405156
281 4 0.471543 0.314936 0.0761881
292 2 0.146747 0.341897 0.0397214
294 4 0.124447 0.338418 0.0289624
507 4 0.179467 0.337638 0.060956
286 2 0.196437 0.337647 0.0198333
287 4 0.185409 0.343936 0.041374
293 4 0.169048 0.345376 0.0504803
552 4 0.166712 0.34942 0.069163
456 4 0.213428 0.392443 0.0631582
454 2 0.197993 0.373014 0.0600794
455 4 0.182558 0.353586 0.0570006
1290 4 0.271732 0.400039 0.0584473
1288 2 0.284336 0.385943 0.0420879
1289 4 0.296939 0.371848 0.0257285
251 4 0.258492 0.415127 0.0571387
903 4 0.296859 0.376243 0.0067904
901 2 0.312415 0.357309 0.00181978
1071 4 0.388187 0.335431 0.0421215
955 2 0.353875 0.338336 0.0307923
957 4 0.370757 0.335683 0.0490439
741 4 0.387263 0.334211 0.0612277
739 2 0.391999 0.341013 0.0848175
1304 4 0.369751 0.360847 0.00639763
1303 2 0.369422 0.385257 0.000993771
1788 4 0.0943748 0.469717 0.0865941
1786 2 0.107557 0.483876 0.0707533
625 2 0.161731 0.484333 0.0574996
1690 2 0.12345 0.491581 0.0150958
626 4 0.181378 0.468878 0.0580556
245 4 0.2002 0.470899 0.0591987
244 2 0.220211 0.457013 0.0535494
246 4 0.240222 0.443127 0.0479002
272 4 0.257456 0.433231 0.0509996
271 2 0.26584 0.442176 0.0292081
273 4 0.274224 0.451122 0.00741664
1672 2 0.41034 0.440651 0.0757892
853 2 0.401895 0.448928 0.0201299
855 4 0.385451 0.440703 0.00318507
37 3 0.367746 0.428024 0.00824808
854 4 0.41834 0.457152 0.0370748
1674 4 0.422345 0.450326 0.0561055
564 4 0.434879 0.459899 0.0459458
563 4 0.468497 0.479501 0.0145411
562 2 0.451688 0.4697 0.0302435
228 4 0.486101 0.481316 0.00356409
19 3 0.0610576 0.00645426 0.150451
578 4 0.0766661 0.0164496 0.162137
577 2 0.0928811 0.0344991 0.156098
579 4 0.109096 0.0525485 0.150059
450 4 0.125354 0.0575739 0.140027
448 2 0.143748 0.0732002 0.146559
582 4 0.240237 0.0802621 0.16116
449 4 0.162141 0.0888265 0.153091
486 4 0.436753 0.0120702 0.101985
393 4 0.057698 0.160622 0.168087
312 4 0.352191 0.124814 0.152938
628 2 0.369928 0.160684 0.150441
629 4 0.366289 0.136488 0.145292
310 2 0.345777 0.107918 0.170217
2722 2 0.499112 0.088738 0.129234
2723 4 0.489295 0.109604 0.119569
391 2 0.0610353 0.185295 0.170382
392 4 0.0643726 0.209968 0.172678
339 4 0.0574397 0.220221 0.157857
2759 4 0.0017297 0.165154 0.125365
755 4 0.246161 0.2471 0.154274
460 2 0.328042 0.225489 0.120939
461 4 0.307677 0.212302 0.114897
354 4 0.287368 0.218405 0.116279
352 2 0.275948 0.230911 0.134673
353 4 0.264528 0.243418 0.153067
462 4 0.348408 0.238677 0.12698
255 4 0.366385 0.241067 0.136701
253 2 0.374958 0.221227 0.149274
622 2 0.377405 0.242167 0.0968085
624 4 0.3644 0.243947 0.118089
254 4 0.38353 0.201387 0.161847
630 4 0.373567 0.184879 0.15559
536 4 0.164751 0.277549 0.133224
535 2 0.178037 0.282468 0.112622
754 2 0.231241 0.267164 0.154167
756 4 0.216321 0.287228 0.154059
301 2 0.317505 0.321108 0.145369
303 4 0.318742 0.303194 0.162768
764 4 0.329776 0.288235 0.160713
284 4 0.274862 0.255766 0.162882
283 2 0.292696 0.273149 0.165107
765 4 0.3551 0.255877 0.13221
763 2 0.342438 0.272056 0.146461
12 3 0.414245 0.326379 0.133403
671 4 0.45954 0.322703 0.0912807
527 4 0.477724 0.319595 0.093049
526 2 0.501319 0.326239 0.0881181
647 4 0.0670519 0.342182 0.141943
550 2 0.155422 0.356636 0.0902733
551 4 0.144132 0.363852 0.111384
302 4 0.316267 0.339022 0.12797
387 4 0.329164 0.351039 0.119192
385 2 0.353992 0.353475 0.117523
493 2 0.393148 0.389301 0.109572
495 4 0.39301 0.364942 0.115212
386 4 0.378821 0.355911 0.115854
15 3 0.381427 0.343346 0.128114
740 4 0.396734 0.347816 0.108407
14 3 0.41343 0.361738 0.120684
11 1 0.403021 0.346419 0.134663
13 3 0.403644 0.354 0.156584
494 4 0.393287 0.41366 0.103932
672 4 0.420085 0.341978 0.115207
670 2 0.439813 0.332341 0.103244
596 4 0.498796 0.384377 0.156399
1465 2 0.0596008 0.46462 0.102935
1466 4 0.0372238 0.472755 0.110568
1467 4 0.0819779 0.456485 0.0953017
1791 4 0.0421119 0.491157 0.114023
290 4 0.213495 0.428588 0.163811
766 2 0.209887 0.463718 0.155161
768 4 0.211782 0.440136 0.147068
250 2 0.261632 0.420349 0.0813885
252 4 0.264771 0.425571 0.105638
609 4 0.282291 0.431905 0.112716
607 2 0.306874 0.427551 0.114093
608 4 0.331457 0.423198 0.115469
1317 4 0.329426 0.499462 0.130099
659 4 0.338389 0.439277 0.104875
660 4 0.387591 0.431262 0.108829
1673 4 0.398335 0.430975 0.095473
658 2 0.36299 0.43527 0.106852
524 4 0.407899 0.478506 0.143179
523 2 0.406353 0.458409 0.128384
525 4 0.404807 0.438312 0.113589
1559 4 0.390117 0.4884 0.141109
1558 2 0.367431 0.498871 0.140172
2479 2 0.0247229 0.0191724 0.202646
380 4 0.0167652 0.0531326 0.205424
2481 4 0.025624 0.0392358 0.21754
379 2 0.0304563 0.0740531 0.205174
20 3 0.0792917 0.00794212 0.18336
580 2 0.248617 0.0602834 0.173642
1506 4 0.256308 0.0149793 0.205237
581 4 0.256998 0.0403048 0.186124
654 4 0.263717 0.0327982 0.202257
652 2 0.27299 0.0444649 0.222333
653 4 0.282263 0.0561316 0.24241
758 4 0.341866 0.071042 0.187508
759 4 0.369075 0.0626042 0.228607
757 2 0.355471 0.0668231 0.208057
350 4 0.382014 0.0570976 0.237431
349 2 0.40574 0.0512052 0.23218
22 3 0.363322 0.0501078 0.241671
632 4 0.374075 0.0677969 0.2422
25 3 0.34603 0.0171496 0.238906
480 4 0.441907 0.0344895 0.237166
351 4 0.429465 0.0453127 0.226929
513 4 0.0431407 0.149099 0.173442
511 2 0.0431139 0.124829 0.179457
512 4 0.0430871 0.10056 0.185472
381 4 0.0441474 0.0949737 0.204923
237 4 0.226648 0.0940743 0.15672
235 2 0.20185 0.0955226 0.159573
236 4 0.177052 0.0969708 0.162426
30 3 0.355784 0.159958 0.247947
311 4 0.339362 0.0910216 0.187496
26 1 0.370204 0.142929 0.243393
28 3 0.363113 0.131372 0.224564
761 4 0.41196 0.118394 0.198095
27 3 0.391128 0.151593 0.239359
333 4 0.498863 0.0804842 0.236426
521 4 0.470715 0.136797 0.222283
762 4 0.454981 0.122586 0.22324
760 2 0.433471 0.12049 0.210667
332 4 0.471081 0.121976 0.233719
331 2 0.484972 0.10123 0.235073
520 2 0.482881 0.157391 0.215
337 2 0.0569783 0.241684 0.170675
396 4 0.0144986 0.249138 0.247837
546 4 0.0891747 0.231575 0.238506
544 2 0.111802 0.240097 0.244873
279 4 0.249591 0.211662 0.206428
277 2 0.253937 0.227424 0.187511
278 4 0.258283 0.243186 0.168594
522 4 0.495047 0.177986 0.207716
394 2 0.030894 0.259596 0.232121
395 4 0.0472895 0.270055 0.216405
338 4 0.0565169 0.263147 0.183493
363 4 0.0585892 0.273196 0.200716
361 2 0.0670724 0.296713 0.200302
362 4 0.0755555 0.32023 0.199889
545 4 0.13443 0.248619 0.25124
372 4 0.0934311 0.326696 0.194815
612 4 0.222333 0.299957 0.167699
611 4 0.230267 0.318566 0.213432
610 2 0.2263 0.309261 0.190565
344 4 0.22931 0.311515 0.232891
343 2 0.208082 0.312376 0.246075
285 4 0.31053 0.290532 0.167332
729 4 0.311125 0.305535 0.180529
727 2 0.295789 0.320352 0.193584
308 4 0.323326 0.290945 0.17845
498 4 0.342489 0.299287 0.230917
307 2 0.336764 0.287846 0.199306
309 4 0.350202 0.284746 0.220163
749 4 0.0643994 0.333407 0.206676
648 4 0.0769772 0.336743 0.190653
748 2 0.0664388 0.350524 0.224788
646 2 0.0720145 0.339462 0.166298
750 4 0.0684783 0.367641 0.242899
733 2 0.156297 0.335581 0.240436
370 2 0.114571 0.33729 0.202941
371 4 0.135711 0.347884 0.211068
734 4 0.142979 0.352377 0.227564
417 4 0.135945 0.36661 0.222165
299 4 0.135502 0.36758 0.241039
415 2 0.151003 0.381174 0.208516
298 2 0.11126 0.370273 0.24654
416 4 0.16606 0.395739 0.194866
289 2 0.199628 0.41297 0.177558
291 4 0.185761 0.397353 0.191305
728 4 0.280452 0.335169 0.206639
445 2 0.384171 0.376229 0.231679
447 4 0.408579 0.381135 0.229372
446 4 0.359762 0.371322 0.233986
644 4 0.417994 0.377201 0.21155
595 2 0.489983 0.391907 0.178554
643 2 0.439953 0.388991 0.209549
645 4 0.461911 0.400781 0.207548
597 4 0.48117 0.399437 0.200708
767 4 0.207992 0.4873 0.163253
412 2 0.240862 0.485605 0.236602
414 4 0.239019 0.475654 0.213738
229 2 0.457029 0.485922 0.210755
231 4 0.474258 0.468249 0.214758
234 4 0.0165594 0.0581372 0.29155
232 2 0.0337829 0.0416291 0.299034
233 4 0.0510063 0.0251209 0.306518
317 4 0.0643343 0.0195795 0.318562
1404 4 0.0660356 0.0110004 0.301927
1402 2 0.080919 0.00348252 0.283295
428 4 0.0636601 0.000822989 0.319019
693 4 0.335327 0.0488542 0.285125
691 2 0.316343 0.0651005 0.286058
24 3 0.338739 0.0397293 0.268141
21 1 0.35504 0.0321734 0.253457
23 3 0.372397 0.0223101 0.265284
257 4 0.422909 0.0828483 0.31984
479 4 0.462276 0.0416994 0.282264
478 2 0.452092 0.0380944 0.259715
2664 4 0.476349 0.0332216 0.291423
1428 4 0.457269 0.030596 0.294197
258 4 0.451634 0.050098 0.295283
2662 2 0.500736 0.0298318 0.295776
256 2 0.437272 0.0664732 0.307562
1426 2 0.450034 0.0100976 0.306552
403 2 0.229805 0.145159 0.322753
404 4 0.246029 0.128533 0.332003
405 4 0.213582 0.161785 0.313503
692 4 0.29736 0.0813468 0.28699
721 2 0.268663 0.0987911 0.310897
723 4 0.278195 0.0814215 0.295646
722 4 0.259131 0.116161 0.326149
29 3 0.371422 0.128521 0.26154
631 2 0.373434 0.0886809 0.255934
707 4 0.368712 0.119002 0.279866
633 4 0.372794 0.109565 0.269669
706 2 0.366306 0.134043 0.299694
708 4 0.363899 0.149083 0.319523
444 4 0.990917 0.223305 0.299853
442 2 0.00539326 0.234333 0.282707
443 4 0.0198691 0.245362 0.26556
600 4 0.110912 0.213738 0.330433
473 4 0.20481 0.177677 0.322761
269 4 0.418491 0.224462 0.320899
419 4 0.406824 0.240772 0.325795
402 4 0.146987 0.258734 0.262707
375 4 0.169419 0.321907 0.330057
400 2 0.159737 0.279519 0.257173
735 4 0.169616 0.318785 0.253308
401 4 0.172488 0.300303 0.25164
676 2 0.175122 0.319043 0.291387
677 4 0.171928 0.307503 0.269437
345 4 0.186854 0.313236 0.259259
678 4 0.178316 0.330582 0.313337
378 4 0.269502 0.302391 0.293364
376 2 0.293782 0.308311 0.29258
377 4 0.318062 0.314231 0.291796
615 4 0.326486 0.322065 0.307714
497 4 0.330387 0.307496 0.278738
418 2 0.392172 0.256483 0.313
496 2 0.336438 0.303392 0.254828
541 2 0.351209 0.293824 0.306915
542 4 0.372462 0.283381 0.314942
543 4 0.329955 0.304268 0.298889
420 4 0.377521 0.272194 0.300206
2537 4 0.498311 0.331037 0.32553
364 2 0.0016384 0.396 0.290061
365 4 0.0135947 0.417926 0.288855
601 2 0.0441634 0.410016 0.321953
300 4 0.087018 0.372967 0.252041
510 4 0.185635 0.348485 0.317671
508 2 0.198753 0.368812 0.311353
509 4 0.211871 0.389139 0.305035
434 4 0.323624 0.384211 0.297865
433 2 0.310173 0.403768 0.305723
613 2 0.327829 0.34688 0.310465
614 4 0.329171 0.371696 0.313215
2 3 0.281079 0.412317 0.317281
603 4 0.0292339 0.413465 0.302195
1757 4 0.0161863 0.422145 0.269261
1756 2 0.0324772 0.440394 0.274435
1758 4 0.048768 0.458642 0.279609
1775 4 0.0614442 0.472449 0.278944
775 2 0.0504564 0.48414 0.314436
777 4 0.0474039 0.476703 0.29076
1776 4 0.109775 0.461521 0.272203
1774 2 0.0856095 0.466985 0.275574
413 4 0.242704 0.495555 0.259466
4 3 0.247297 0.422032 0.303975
1436 4 0.241658 0.483739 0.274721
1435 2 0.249502 0.464956 0.289242
1437 4 0.257347 0.446173 0.303763
3 3 0.269204 0.447738 0.321403
1 1 0.262608 0.425494 0.321064
436 2 0.304573 0.45835 0.317436
438 4 0.288673 0.439062 0.316849
435 4 0.296721 0.423325 0.31358
437 4 0.320473 0.477637 0.318022
1802 4 0.327103 0.495102 0.309305
1801 2 0.347685 0.490245 0.322646
1803 4 0.368267 0.485388 0.335987
593 4 0.378114 0.467575 0.333182
119 3 0.483305 0.456848 0.331582
316 2 0.0775896 0.0369996 0.330646
318 4 0.0908448 0.0544196 0.34273
732 4 0.0973222 0.0637641 0.358397
730 2 0.122115 0.0630324 0.355243
731 4 0.146908 0.0623007 0.352089
399 4 0.0839247 0.0724255 0.347902
606 4 0.165772 0.0659954 0.352546
604 2 0.187407 0.0707552 0.364142
605 4 0.209041 0.0755149 0.375739
1701 4 0.35758 0.0001491 0.388359
699 4 0.373921 0.0561036 0.355333
1699 2 0.365084 0.0182211 0.372794
1700 4 0.372588 0.0362931 0.357229
697 2 0.395385 0.0647213 0.345833
962 4 0.345596 0.0143379 0.414975
425 4 0.362395 0.00596827 0.407129
698 4 0.416848 0.0733389 0.336334
397 2 0.0685379 0.0914035 0.353218
398 4 0.0531511 0.110382 0.358534
2584 2 0.0189342 0.11344 0.360004
2586 4 0.0400532 0.115876 0.373166
458 4 0.0404515 0.125943 0.389374
457 2 0.0473667 0.147583 0.399817
249 4 0.250335 0.11491 0.344589
248 4 0.217246 0.0945182 0.376053
247 2 0.23379 0.104714 0.360321
683 4 0.264472 0.126964 0.340602
682 2 0.2815 0.145177 0.342473
684 4 0.298529 0.16339 0.344343
319 2 0.333872 0.168438 0.337464
321 4 0.356606 0.158156 0.335842
726 4 0.387901 0.132775 0.399909
717 4 0.369137 0.151123 0.350194
715 2 0.375477 0.151127 0.37438
716 4 0.381816 0.151131 0.398567
467 4 0.398316 0.147824 0.40856
642 4 0.490757 0.128354 0.387455
641 4 0.487071 0.13674 0.338294
640 2 0.488914 0.132547 0.362875
459 4 0.054282 0.169223 0.410261
598 2 0.122555 0.216242 0.352418
599 4 0.134198 0.218746 0.374403
686 4 0.133109 0.228841 0.391418
685 2 0.116652 0.224191 0.409659
275 4 0.14702 0.231253 0.381815
389 4 0.141884 0.247274 0.390163
274 2 0.170865 0.2238 0.380806
474 4 0.198655 0.203712 0.36501
472 2 0.201732 0.190694 0.343886
276 4 0.194711 0.216347 0.379797
320 4 0.311138 0.178721 0.339086
268 2 0.438894 0.224654 0.335351
270 4 0.459297 0.224846 0.349804
452 4 0.471 0.229323 0.365555
451 2 0.469386 0.218321 0.38795
453 4 0.467772 0.20732 0.410345
2802 4 0.0058576 0.290059 0.405328
347 4 0.0624693 0.318243 0.381757
346 2 0.0440066 0.305387 0.392667
618 4 0.0725765 0.312467 0.366185
348 4 0.025544 0.29253 0.403577
616 2 0.0962353 0.304662 0.368311
373 2 0.150608 0.314169 0.344598
388 2 0.140621 0.269981 0.379771
390 4 0.139358 0.292688 0.36938
617 4 0.119894 0.296857 0.370437
374 4 0.131798 0.306431 0.35914
488 4 0.385325 0.263974 0.394454
487 2 0.384906 0.255156 0.417847
602 4 0.0590928 0.406566 0.341712
549 4 0.0609341 0.392893 0.355402
547 2 0.0665203 0.40844 0.374171
5 3 0.253327 0.419836 0.341076
335 4 0.30935 0.37561 0.39754
240 4 0.321416 0.375621 0.380931
238 2 0.339555 0.391435 0.374144
239 4 0.357693 0.40725 0.367357
587 4 0.359447 0.407845 0.347082
752 4 0.457348 0.384235 0.38323
561 4 0.455669 0.365025 0.389086
751 2 0.468411 0.40455 0.373738
559 2 0.470364 0.358867 0.408355
776 4 0.0535089 0.491577 0.338111
500 4 0.0627656 0.473328 0.339693
499 2 0.0663255 0.462656 0.362023
501 4 0.0698855 0.451984 0.384353
407 4 0.0766781 0.441316 0.398424
548 4 0.0721065 0.423986 0.39294
406 2 0.092976 0.453114 0.413269
568 2 0.133596 0.495092 0.415693
1555 2 0.231623 0.487832 0.396081
1557 4 0.252212 0.481678 0.408863
636 4 0.246267 0.475544 0.427352
588 4 0.363859 0.453582 0.327349
586 2 0.361653 0.430713 0.337215
592 2 0.396877 0.480174 0.343877
2862 4 0.495378 0.46986 0.343849
594 4 0.41564 0.492773 0.354573
116 1 0.489886 0.44534 0.350626
713 4 0.43142 0.490734 0.341182
712 2 0.452188 0.477126 0.344127
714 4 0.472957 0.463518 0.347072
753 4 0.479474 0.424865 0.364246
117 3 0.473023 0.44652 0.366227
718 2 0.0193906 0.00854371 0.456655
369 4 0.05674 0.0194548 0.474056
367 2 0.0767774 0.0129296 0.460598
719 4 0.0427656 0.017269 0.458285
1781 4 0.111769 0.00162176 0.433608
368 4 0.0968148 0.00640438 0.447141
342 4 0.232534 0.0395677 0.50164
340 2 0.212749 0.02441 0.499648
341 4 0.192964 0.0092522 0.497655
963 4 0.308775 0.0455492 0.428043
432 4 0.311715 0.0520257 0.447993
430 2 0.316981 0.0533353 0.472401
961 2 0.327186 0.0299435 0.421509
431 4 0.322247 0.0546448 0.496808
1217 4 0.410347 0.0650825 0.512011
842 4 0.390924 0.0644058 0.504195
724 2 0.394202 0.110313 0.408907
725 4 0.400503 0.0878519 0.417905
2657 4 0.487908 0.121139 0.451435
260 4 0.0538954 0.184621 0.42202
259 2 0.0711156 0.199816 0.431908
261 4 0.0883357 0.21501 0.441796
687 4 0.100195 0.219542 0.427899
1035 4 0.0927744 0.234878 0.435227
1033 2 0.096734 0.251789 0.453214
409 2 0.398725 0.214261 0.455472
411 4 0.384613 0.23485 0.456927
466 2 0.408851 0.163203 0.425223
410 4 0.412838 0.193672 0.454017
266 4 0.382718 0.254246 0.459341
468 4 0.419386 0.178582 0.441887
574 2 0.417786 0.174932 0.489954
515 4 0.470408 0.20426 0.430156
575 4 0.42431 0.190669 0.471652
516 4 0.428938 0.189542 0.453912
514 2 0.449673 0.196901 0.442034
1034 4 0.100694 0.2687 0.4712
696 4 0.104533 0.277243 0.487608
1260 4 0.112605 0.282812 0.470204
1258 2 0.123667 0.304647 0.465101
1259 4 0.134729 0.326482 0.459998
9 3 0.166915 0.316518 0.439054
489 4 0.384486 0.246338 0.44124
265 2 0.381687 0.273733 0.474973
267 4 0.380656 0.29322 0.490605
3308 4 0.469516 0.3235 0.472243
1011 4 0.471975 0.325591 0.491783
1009 2 0.469952 0.301829 0.499299
1010 4 0.467928 0.278068 0.506815
326 4 0.0870551 0.366022 0.444465
503 4 0.134207 0.333996 0.474954
7 3 0.142828 0.338692 0.457516
6 1 0.157852 0.337852 0.440116
327 4 0.127623 0.344822 0.464603
325 2 0.107339 0.355422 0.454534
10 3 0.147064 0.342689 0.420651
709 2 0.145253 0.40241 0.498427
502 2 0.145513 0.347545 0.492668
8 3 0.174638 0.353408 0.443941
334 2 0.309663 0.379826 0.422184
336 4 0.309975 0.384042 0.446828
668 4 0.29732 0.397154 0.452209
882 4 0.312513 0.394356 0.464015
880 2 0.33067 0.387116 0.479607
3309 4 0.498441 0.349542 0.440843
560 4 0.485059 0.352709 0.427625
3307 2 0.483978 0.336521 0.456543
680 4 0.0031885 0.450715 0.449755
1381 2 0.00694571 0.489606 0.468889
1383 4 0.00963225 0.467422 0.457672
711 4 0.140954 0.425064 0.488759
408 4 0.109274 0.464911 0.428114
383 4 0.126838 0.46106 0.437966
384 4 0.128453 0.425364 0.472951
569 4 0.126001 0.472282 0.422562
382 2 0.127645 0.443212 0.455459
773 4 0.329777 0.482679 0.500256
635 4 0.28071 0.463659 0.461603
669 4 0.286497 0.444198 0.465264
774 4 0.295687 0.459532 0.471921
772 2 0.312732 0.471105 0.486089
667 2 0.291909 0.420676 0.458737
634 2 0.263489 0.469602 0.444478
663 4 0.467513 0.480866 0.486401
1058 4 0.0900137 0.0891447 0.520945
1152 4 0.237402 0.0579115 0.508018
1150 2 0.23883 0.0610211 0.532786
1151 4 0.240258 0.0641306 0.557554
1032 4 0.245894 0.0650637 0.575097
1181 4 0.236426 0.0805328 0.566717
841 2 0.366572 0.059585 0.501214
843 4 0.342219 0.0547642 0.498232
1216 2 0.432074 0.0693848 0.523613
1218 4 0.453801 0.0736872 0.535215
1270 2 0.0812662 0.151317 0.567931
1271 4 0.0928868 0.129428 0.571248
1057 2 0.0966725 0.101879 0.541406
1059 4 0.103331 0.114614 0.561868
1155 4 0.111714 0.128202 0.568285
939 4 0.101337 0.115127 0.580882
1153 2 0.135044 0.136976 0.566311
1154 4 0.158375 0.145751 0.564337
1180 2 0.234295 0.103807 0.575602
898 2 0.244293 0.158607 0.558651
900 4 0.239797 0.143862 0.578337
1221 4 0.171628 0.149519 0.577875
1219 2 0.196019 0.144308 0.579632
1220 4 0.220411 0.139097 0.581389
1182 4 0.232164 0.127081 0.584487
576 4 0.411262 0.159195 0.508256
1199 4 0.0309438 0.20512 0.554736
877 2 0.0617857 0.203061 0.561522
1272 4 0.0696455 0.173206 0.564615
878 4 0.0425635 0.218724 0.564741
1198 2 0.00863103 0.21411 0.547916
879 4 0.0810079 0.187398 0.558303
651 4 0.208698 0.22405 0.517089
858 4 0.193139 0.236402 0.514706
649 2 0.220099 0.203141 0.524706
650 4 0.2315 0.182232 0.532323
856 2 0.186665 0.250149 0.534563
899 4 0.24879 0.173352 0.538965
984 4 0.997931 0.308515 0.578918
695 4 0.104769 0.254986 0.532388
694 2 0.104651 0.266115 0.509998
946 2 0.172094 0.286968 0.575782
857 4 0.180191 0.263896 0.554419
947 4 0.189332 0.281552 0.558499
798 4 0.208838 0.280053 0.562626
796 2 0.233124 0.284456 0.566628
797 4 0.257409 0.288858 0.57063
872 4 0.368271 0.319755 0.569768
2455 2 0.505845 0.259795 0.503199
2457 4 0.485267 0.272756 0.497391
954 4 0.489186 0.288225 0.560787
952 2 0.485776 0.307117 0.576808
3263 4 0.0348587 0.341227 0.569395
3262 2 0.0438995 0.355955 0.587465
710 4 0.149553 0.379756 0.508096
504 4 0.15682 0.361094 0.510382
1189 2 0.250548 0.373236 0.577764
1191 4 0.22846 0.383082 0.584117
804 4 0.280435 0.363198 0.505581
803 4 0.278347 0.368603 0.555251
802 2 0.279391 0.3659 0.530416
1190 4 0.272635 0.36339 0.571412
1238 4 0.288797 0.357693 0.569698
1237 2 0.313616 0.358045 0.57271
1239 4 0.338435 0.358398 0.575722
930 4 0.352244 0.360781 0.561531
929 4 0.355351 0.375355 0.513796
928 2 0.353798 0.368068 0.537663
881 4 0.348827 0.379877 0.495198
1081 2 0.0579017 0.0778735 0.641961
1082 4 0.064977 0.0674053 0.663537
1126 2 0.0308511 0.0837708 0.594139
1128 4 0.00872771 0.0753785 0.586058
1030 2 0.24663 0.0485074 0.593819
1031 4 0.247366 0.0319511 0.612542
2133 4 0.182162 0.0208736 0.660529
2131 2 0.186748 0.00610198 0.640884
951 4 0.262193 0.0192469 0.617132
949 2 0.286595 0.0159657 0.612778
950 4 0.310996 0.0126845 0.608423
1226 4 0.264506 0.0759749 0.649465
3008 4 0.498228 0.0328663 0.598891
809 4 0.480338 0.0310946 0.607625
808 2 0.476547 0.0439478 0.628735
810 4 0.472756 0.056801 0.649844
45 3 0.473856 0.0804989 0.647854
1083 4 0.0508264 0.0883417 0.620385
1127 4 0.0529746 0.0921631 0.60222
938 4 0.069685 0.0905393 0.610787
937 2 0.0855109 0.102833 0.595835
1210 2 0.237775 0.139977 0.618592
1212 4 0.229991 0.142954 0.595018
908 4 0.232841 0.127246 0.655601
907 2 0.209662 0.128307 0.664919
1211 4 0.245558 0.137001 0.642166
1227 4 0.25071 0.123969 0.652097
888 4 0.26128 0.140109 0.654665
886 2 0.284603 0.149121 0.654785
887 4 0.307926 0.158134 0.654906
1225 2 0.257608 0.0999722 0.650781
3425 4 0.486272 0.0923429 0.662898
1244 4 0.0434114 0.222063 0.585451
1243 2 0.046073 0.245668 0.593256
1194 4 0.318378 0.174065 0.65654
1192 2 0.333232 0.190327 0.644705
1193 4 0.348087 0.206588 0.632869
3123 4 0.495627 0.211092 0.628117
982 2 0.0142562 0.293995 0.591077
983 4 0.0305818 0.279476 0.603236
1245 4 0.0487346 0.269272 0.601061
948 4 0.154855 0.292384 0.593065
1136 4 0.163133 0.309561 0.597555
1135 2 0.166395 0.32817 0.613933
790 2 0.269056 0.322741 0.58396
791 4 0.26036 0.299501 0.587036
871 2 0.380062 0.316789 0.591616
873 4 0.391852 0.313823 0.613465
813 4 0.394204 0.321077 0.631816
953 4 0.482367 0.326009 0.592828
3112 2 0.487153 0.278833 0.666146
1041 4 0.0660219 0.385635 0.611346
3264 4 0.0529404 0.370683 0.605535
3240 4 0.0479228 0.389004 0.607322
3238 2 0.0296117 0.405144 0.612742
3239 4 0.0113006 0.421284 0.618163
1039 2 0.0888698 0.386086 0.621493
1040 4 0.111718 0.386536 0.631639
993 4 0.128995 0.395461 0.626416
991 2 0.146832 0.378413 0.630466
822 4 0.161326 0.347837 0.647507
992 4 0.164669 0.361366 0.634515
1137 4 0.169657 0.346779 0.630311
1064 4 0.179052 0.357835 0.642872
897 4 0.180935 0.362773 0.624494
896 4 0.211887 0.386005 0.592824
895 2 0.196411 0.374389 0.608659
1172 4 0.226374 0.400578 0.591508
1063 2 0.197259 0.359391 0.659939
792 4 0.277752 0.345981 0.580884
811 2 0.396633 0.344807 0.63931
927 4 0.401615 0.383119 0.658787
812 4 0.399063 0.368537 0.646804
925 2 0.412899 0.397073 0.641376
1206 4 0.384079 0.381993 0.653124
906 4 0.485279 0.340103 0.608049
926 4 0.424183 0.411026 0.623964
539 4 0.0711619 0.442173 0.587011
2244 4 0.112409 0.485098 0.594814
1160 4 0.124133 0.478482 0.608267
540 4 0.113879 0.465145 0.599186
538 2 0.0925207 0.453659 0.593099
1159 2 0.14752 0.478293 0.617108
1171 2 0.22779 0.422887 0.60271
1186 2 0.204255 0.473751 0.618748
1173 4 0.229206 0.445196 0.613911
1187 4 0.225217 0.461765 0.625237
1188 4 0.183293 0.485737 0.61226
1161 4 0.170908 0.478103 0.62595
1029 4 0.238451 0.4218 0.67246
1002 4 0.418809 0.430285 0.62888
1911 4 0.426589 0.493365 0.625021
1001 4 0.430585 0.478467 0.635251
1000 2 0.424697 0.454376 0.632066
1269 4 0.443616 0.4914 0.637541
944 4 0.0530377 0.0348013 0.673675
943 2 0.0366515 0.0159208 0.673232
1076 4 0.0546946 0.0544592 0.676609
1075 2 0.0589256 0.0695649 0.69608
864 4 0.0641859 0.0807603 0.734148
862 2 0.0431242 0.0806715 0.747623
1077 4 0.0631566 0.0846707 0.71555
825 4 0.149143 0.0721246 0.687113
823 2 0.157611 0.0507855 0.677208
1106 4 0.118245 0.0767158 0.753893
1148 4 0.246124 0.0699371 0.657555
2256 4 0.176752 0.0183676 0.679527
824 4 0.166079 0.0294464 0.667302
2254 2 0.168331 0.999751 0.693938
1147 2 0.24751 0.0466558 0.666568
1149 4 0.248896 0.0233745 0.675582
1004 4 0.355616 0.0858235 0.749664
41 1 0.465697 0.0761531 0.668668
43 3 0.443853 0.0837907 0.670362
42 3 0.465938 0.0534413 0.67231
1163 4 0.47943 0.063505 0.687151
1162 2 0.488341 0.0539452 0.708467
851 4 0.0697245 0.102072 0.71291
850 2 0.0643469 0.123248 0.70075
852 4 0.0589693 0.144424 0.68859
1107 4 0.0796675 0.0894659 0.724739
1283 4 0.149381 0.0917604 0.692746
1282 2 0.158185 0.111456 0.680106
1105 2 0.0989563 0.0830908 0.739316
1284 4 0.166989 0.131151 0.667466
909 4 0.186484 0.129368 0.674236
830 4 0.322063 0.156736 0.667728
829 2 0.332934 0.13886 0.68142
1005 4 0.341849 0.104306 0.705285
1003 2 0.348733 0.0950649 0.727474
831 4 0.343805 0.120985 0.695112
44 3 0.478957 0.0864588 0.68468
3268 2 0.476331 0.138468 0.743211
3270 4 0.482436 0.154392 0.724926
1214 4 0.00689363 0.194087 0.743176
1073 4 0.0705246 0.253101 0.738651
1215 4 0.00640486 0.242602 0.731063
1213 2 0.00664925 0.218344 0.73712
977 4 0.312869 0.245219 0.735946
1297 2 0.283147 0.215888 0.732499
1298 4 0.302985 0.229262 0.739764
918 4 0.293708 0.245016 0.743564
1299 4 0.263309 0.202514 0.725234
1025 4 0.385448 0.188655 0.696685
1024 2 0.405138 0.195369 0.710556
976 2 0.33723 0.250593 0.734251
1020 4 0.381184 0.258288 0.737867
1142 4 0.429628 0.195229 0.741414
1144 2 0.460439 0.183957 0.720486
1262 4 0.433285 0.215101 0.735413
1026 4 0.424827 0.202083 0.724428
1145 4 0.443678 0.199986 0.72983
1146 4 0.477201 0.167928 0.711142
1261 2 0.434981 0.238443 0.744215
1178 4 0.0141664 0.257023 0.740828
1177 2 0.0381974 0.263898 0.74148
1179 4 0.0622284 0.270773 0.742131
1072 2 0.0951777 0.256723 0.736581
1208 4 0.127449 0.277004 0.729588
1074 4 0.119831 0.260345 0.734511
1207 2 0.129393 0.297585 0.715524
821 4 0.136863 0.325835 0.685165
1209 4 0.131337 0.318167 0.701459
1130 4 0.13684 0.263465 0.74213
815 4 0.116177 0.32653 0.708596
806 4 0.258154 0.313115 0.681841
978 4 0.36159 0.255966 0.732557
1263 4 0.436678 0.261784 0.753017
3114 4 0.465415 0.28933 0.672659
892 2 0.0400745 0.357692 0.708092
1280 4 0.0729536 0.36356 0.732151
816 4 0.0764179 0.356563 0.712826
894 4 0.0601819 0.353279 0.722283
893 4 0.0199671 0.362104 0.6939
820 2 0.149094 0.336836 0.666336
942 4 0.135848 0.333736 0.705033
1279 2 0.0783921 0.387342 0.73763
814 2 0.0962977 0.341547 0.710711
940 2 0.150697 0.348982 0.718157
1078 2 0.166844 0.406738 0.733737
941 4 0.165546 0.364227 0.731282
1080 4 0.171638 0.38221 0.732976
805 2 0.239201 0.329234 0.684316
1065 4 0.215465 0.360948 0.677006
807 4 0.220248 0.345354 0.68679
1028 4 0.226833 0.374484 0.683726
1066 2 0.20318 0.36538 0.712685
1068 4 0.221706 0.361532 0.696341
1027 2 0.232642 0.398142 0.678093
1067 4 0.184653 0.369228 0.729029
1204 2 0.361951 0.378048 0.664076
1205 4 0.339822 0.374103 0.675029
1079 4 0.162051 0.431266 0.734498
1174 2 0.188907 0.485011 0.72498
1175 4 0.190677 0.47741 0.701225
2172 4 0.176306 0.480827 0.688451
1140 4 0.23569 0.440233 0.68012
1228 2 0.312555 0.447149 0.684646
1138 2 0.25625 0.451809 0.688392
1139 4 0.27681 0.463386 0.696665
1987 2 0.306655 0.449809 0.738277
1229 4 0.295332 0.460298 0.697122
1989 4 0.298272 0.456449 0.715675
2028 4 0.287459 0.472077 0.710743
1230 4 0.329777 0.434 0.672169
2026 2 0.28254 0.496577 0.711612
1099 2 0.488676 0.489802 0.708969
2989 2 0.0186308 0.0473291 0.786978
2990 4 0.0210502 0.0701617 0.777078
2991 4 0.0162113 0.0244965 0.796877
863 4 0.0220626 0.0805827 0.761098
3083 4 0.00439581 0.0774773 0.771436
833 4 0.0174801 0.0899651 0.776924
2049 4 0.10173 0.00847975 0.778751
1202 4 0.109489 0.0262608 0.780779
1201 2 0.120094 0.048898 0.780271
1203 4 0.1307 0.0715352 0.779763
32 3 0.151397 0.0778107 0.787627
1085 4 0.312148 0.0748192 0.804179
960 4 0.32136 0.077257 0.819972
819 4 0.326548 0.0616829 0.810223
1050 4 0.344002 0.00566233 0.794075
817 2 0.339905 0.041239 0.804853
818 4 0.353261 0.0207951 0.799483
974 4 0.355523 0.0033228 0.80905
2320 2 0.48591 0.0510544 0.767759
844 2 0.489 0.0548155 0.826932
845 4 0.481349 0.0603662 0.803784
2322 4 0.472696 0.0608342 0.786599
1112 4 0.471993 0.0764468 0.798718
832 2 0.0193436 0.10726 0.794885
834 4 0.0212071 0.124555 0.812846
1125 4 0.0398756 0.124685 0.815917
34 3 0.121576 0.0906246 0.768676
911 4 0.148265 0.0939745 0.80343
31 1 0.14193 0.0965051 0.778137
35 3 0.138743 0.112293 0.794238
33 3 0.156213 0.10466 0.76177
910 2 0.152362 0.0907025 0.827878
1256 4 0.226231 0.132059 0.83773