ITEM: TIMESTEP
2710000
ITEM: NUMBER OF ATOMS
4590
ITEM: BOX BOUNDS pp pp pp
-9.9985700000000008e+00 9.9985700000000008e+00
-9.9985700000000008e+00 9.9985700000000008e+00
-9.9985700000000008e+00 9.9985700000000008e+00
ITEM: ATOMS id type xs ys zs
1667 4 0.0229721 0.0686078 0.0672038
1666 2 0.00123553 0.0615629 0.0773562
491 4 0.286423 0.0752224 0.0734998
2974 2 0.470102 0.020371 0.0144247
745 2 0.441239 0.0727025 0.0057806
747 4 0.44206 0.0478021 0.00366527
2975 4 0.45715 0.0365821 0.000474103
986 4 0.438568 0.0328414 0.992301
2467 2 0.489665 0.00736852 0.0656258
701 4 0.0222287 0.0888171 0.0644333
567 4 0.232019 0.159721 0.00876407
297 4 0.337904 0.142088 0.0179242
295 2 0.352426 0.12866 0.0026284
556 2 0.404188 0.113129 0.991465
558 4 0.425054 0.109079 0.00463299
746 4 0.440418 0.0976029 0.00789593
566 4 0.206021 0.169185 0.0504203
565 2 0.21902 0.164453 0.0295922
573 4 0.248413 0.237057 0.0601601
571 2 0.262629 0.246184 0.0417269
770 4 0.39635 0.182539 0.0244503
359 4 0.378472 0.181412 0.0174155
664 2 0.39042 0.20928 0.0479359
665 4 0.381275 0.192301 0.0320232
666 4 0.399566 0.22626 0.0638487
323 4 0.409165 0.242395 0.0666747
358 2 0.356691 0.190276 0.00891642
769 2 0.408193 0.172223 0.00499519
623 4 0.38913 0.240672 0.0710087
292 2 0.15639 0.317187 0.0554448
294 4 0.138008 0.305722 0.0429618
482 4 0.240252 0.25097 0.0705577
293 4 0.174772 0.328653 0.0679279
507 4 0.186517 0.333139 0.0776942
287 4 0.190137 0.335835 0.059015
286 2 0.206499 0.331997 0.0405022
481 2 0.230049 0.269532 0.0838445
288 4 0.222862 0.32816 0.0219895
572 4 0.276845 0.25531 0.0232936
357 4 0.294195 0.260178 0.0120993
355 2 0.307261 0.280794 0.00667007
956 4 0.32963 0.313038 0.0135727
356 4 0.320326 0.301409 0.00124089
1069 2 0.402711 0.312098 0.0284175
955 2 0.34904 0.323379 0.0254672
1071 4 0.385867 0.330487 0.0302312
322 2 0.417596 0.26056 0.0517039
957 4 0.368451 0.33372 0.0373617
324 4 0.426027 0.278726 0.0367331
1070 4 0.419554 0.293708 0.0266038
280 2 0.452212 0.306893 0.0474494
282 4 0.439009 0.292079 0.0322371
281 4 0.465414 0.321707 0.0626618
527 4 0.471428 0.324258 0.0808695
328 2 0.999888 0.403332 0.0229409
456 4 0.168601 0.391055 0.0469113
552 4 0.169623 0.338563 0.0851326
454 2 0.172496 0.369187 0.058391
455 4 0.176392 0.347318 0.0698706
1290 4 0.268437 0.394677 0.0292379
250 2 0.268642 0.403931 0.0605875
1288 2 0.277615 0.381569 0.0100256
251 4 0.267105 0.41398 0.0377439
252 4 0.270178 0.393882 0.0834311
741 4 0.382419 0.340742 0.0480349
739 2 0.388307 0.346413 0.0716642
671 4 0.460694 0.338228 0.0751573
1788 4 0.0947764 0.467429 0.0732645
1786 2 0.101467 0.487298 0.0596395
627 4 0.167893 0.468584 0.0563967
1467 4 0.0926178 0.45378 0.0885013
626 4 0.207522 0.463509 0.0864705
625 2 0.187708 0.466046 0.0714336
245 4 0.223526 0.459835 0.0754295
244 2 0.242458 0.451491 0.061389
246 4 0.26139 0.443147 0.0473485
272 4 0.275156 0.430774 0.0400173
271 2 0.281668 0.441509 0.0183949
1672 2 0.401616 0.44002 0.0637533
853 2 0.393237 0.450649 0.00581295
1674 4 0.406213 0.443236 0.0393873
854 4 0.410972 0.453732 0.0231664
227 4 0.495426 0.509428 0.0568058
564 4 0.423132 0.440201 0.0293418
563 4 0.471999 0.450701 0.0309177
562 2 0.447565 0.445451 0.0301298
228 4 0.472378 0.468438 0.0397971
226 2 0.483902 0.488933 0.0483015
19 3 0.0654236 0.0349952 0.149587
18 3 0.0758399 0.99927 0.141866
16 1 0.0716178 0.014603 0.158762
578 4 0.0817665 0.0383422 0.164835
582 4 0.227109 0.0834539 0.138251
580 2 0.23869 0.0630162 0.146816
490 2 0.290171 0.0574711 0.0907053
1475 4 0.299059 0.0227693 0.117778
492 4 0.293918 0.0397199 0.107911
581 4 0.250271 0.0425784 0.155381
654 4 0.261636 0.0248941 0.159912
1474 2 0.299078 0.999291 0.109179
484 2 0.41588 0.00730678 0.0780455
485 4 0.406467 0.0187229 0.0578896
2722 2 0.473517 0.0657753 0.152455
2724 4 0.492997 0.0508166 0.147771
1760 4 0.502098 0.0358653 0.139185
2723 4 0.454037 0.0807339 0.157139
2469 4 0.490999 0.0196673 0.0873546
700 2 0.0322688 0.105851 0.0797374
702 4 0.042309 0.122885 0.0950415
476 4 0.0569792 0.133181 0.103558
475 2 0.0747377 0.131146 0.121041
477 4 0.0924961 0.129111 0.138525
237 4 0.212263 0.0956955 0.140257
235 2 0.195218 0.100533 0.157898
236 4 0.178172 0.10537 0.17554
628 2 0.387752 0.165588 0.140709
629 4 0.383847 0.141169 0.144402
312 4 0.374946 0.126994 0.155066
310 2 0.357706 0.115256 0.168857
738 4 0.230392 0.174291 0.106685
737 4 0.236359 0.205254 0.145497
736 2 0.233375 0.189772 0.126091
755 4 0.250151 0.240213 0.157744
460 2 0.331532 0.225542 0.115302
461 4 0.310086 0.213932 0.109784
354 4 0.292509 0.215607 0.118915
352 2 0.280058 0.229301 0.135727
353 4 0.267607 0.242995 0.152538
630 4 0.391658 0.190007 0.137017
254 4 0.388968 0.199104 0.154394
462 4 0.352978 0.237152 0.120819
255 4 0.365619 0.238848 0.135004
253 2 0.377294 0.218976 0.144699
624 4 0.368513 0.247318 0.116081
622 2 0.378821 0.243995 0.0935447
505 2 0.197649 0.316574 0.0927561
483 4 0.219845 0.288093 0.0971314
506 4 0.20878 0.300009 0.107818
537 4 0.205737 0.294718 0.126674
535 2 0.185003 0.292134 0.140407
536 4 0.164269 0.28955 0.15414
754 2 0.23822 0.262015 0.15501
756 4 0.226289 0.283818 0.152276
301 2 0.326537 0.32079 0.144162
302 4 0.328932 0.339955 0.128284
303 4 0.324141 0.301625 0.160041
765 4 0.359263 0.255307 0.129326
764 4 0.334642 0.286203 0.159986
763 2 0.346953 0.270755 0.144656
550 2 0.151992 0.344255 0.101923
551 4 0.134361 0.349947 0.118714
290 4 0.235391 0.405045 0.154396
609 4 0.289289 0.39981 0.0849101
387 4 0.326847 0.354368 0.114897
607 2 0.305392 0.410814 0.100556
385 2 0.351006 0.356526 0.108823
493 2 0.38932 0.393323 0.0959397
495 4 0.390779 0.369064 0.101817
386 4 0.375164 0.358684 0.10275
15 3 0.379854 0.347481 0.115929
740 4 0.394195 0.352085 0.0952935
14 3 0.411245 0.366231 0.106947
11 1 0.401869 0.350336 0.121013
13 3 0.404087 0.357028 0.143119
12 3 0.41296 0.33039 0.118132
672 4 0.418266 0.34724 0.100044
670 2 0.43948 0.342734 0.0876004
1791 4 0.0567363 0.492837 0.116035
1465 2 0.0771435 0.46371 0.105446
1466 4 0.0616693 0.47364 0.122391
638 4 0.232622 0.469921 0.136916
767 4 0.244553 0.470161 0.152532
637 2 0.215444 0.479736 0.121627
639 4 0.198266 0.489552 0.106339
766 2 0.245066 0.445259 0.150346
768 4 0.245578 0.420356 0.148159
608 4 0.321496 0.421818 0.116201
659 4 0.333829 0.436942 0.108632
494 4 0.387862 0.417582 0.0900623
660 4 0.38178 0.434747 0.0946131
1673 4 0.397019 0.436803 0.0881193
658 2 0.357804 0.435844 0.101623
524 4 0.409164 0.494133 0.119646
523 2 0.401144 0.472459 0.110102
525 4 0.393125 0.450784 0.100558
1559 4 0.398357 0.504997 0.132325
17 3 0.0543535 0.00675575 0.171782
2480 4 0.0371558 0.0118873 0.179822
2479 2 0.0254183 0.0339608 0.17941
380 4 0.0113979 0.0715509 0.190348
2481 4 0.0136809 0.0560344 0.178998
20 3 0.0901782 0.0172193 0.171697
577 2 0.0943003 0.0591308 0.170828
689 4 0.15641 0.014872 0.207638
674 4 0.139556 0.00496664 0.207495
673 2 0.118145 0.00160607 0.219963
1403 4 0.0835367 0.000666607 0.246084
1504 2 0.229848 0.00233076 0.182455
1506 4 0.248083 0.016006 0.172177
688 2 0.175912 0.999426 0.205132
652 2 0.281084 0.0270435 0.175479
653 4 0.300531 0.0291929 0.191047
25 3 0.326711 0.0406546 0.242081
758 4 0.331413 0.0861621 0.188886
759 4 0.353941 0.0771198 0.232606
757 2 0.342677 0.0816409 0.210746
350 4 0.365439 0.067636 0.236747
349 2 0.390259 0.0646914 0.237457
351 4 0.415078 0.0617469 0.238167
480 4 0.427989 0.0513136 0.249006
333 4 0.481126 0.0799782 0.232674
743 4 0.486515 0.0647214 0.243002
742 2 0.505339 0.0541361 0.230401
379 2 0.0225233 0.0902027 0.177958
511 2 0.0617739 0.130507 0.176607
512 4 0.04715 0.111547 0.183809
381 4 0.0336487 0.108855 0.165568
513 4 0.0763977 0.149466 0.169404
449 4 0.160862 0.115783 0.175347
579 4 0.106834 0.0799193 0.176821
450 4 0.116262 0.094446 0.167849
448 2 0.138562 0.105115 0.171598
30 3 0.308979 0.147598 0.251138
28 3 0.335683 0.161551 0.228559
311 4 0.340467 0.103517 0.182648
761 4 0.410357 0.13503 0.243944
521 4 0.468598 0.143333 0.2095
762 4 0.452847 0.137527 0.217694
760 2 0.431602 0.136278 0.230819
332 4 0.471111 0.126251 0.216572
520 2 0.480706 0.165034 0.206732
331 2 0.476119 0.103114 0.224623
339 4 0.0541776 0.213214 0.175387
337 2 0.054635 0.235841 0.186017
394 2 0.0139034 0.260167 0.231752
395 4 0.0249834 0.265491 0.209979
393 4 0.091415 0.162726 0.170882
391 2 0.08132 0.184675 0.177324
392 4 0.071225 0.206624 0.183767
545 4 0.172627 0.241307 0.246736
279 4 0.272065 0.223853 0.216576
277 2 0.269709 0.231668 0.192942
278 4 0.267354 0.239483 0.169308
522 4 0.492814 0.186735 0.203965
338 4 0.0550924 0.258467 0.196648
363 4 0.0427885 0.271566 0.204282
361 2 0.0534057 0.293409 0.210227
648 4 0.0595008 0.326892 0.205306
362 4 0.064023 0.315252 0.216172
372 4 0.0800661 0.321649 0.208928
749 4 0.0509849 0.325253 0.224934
370 2 0.10355 0.326256 0.216171
371 4 0.127034 0.330863 0.223414
611 4 0.24495 0.322484 0.207354
610 2 0.238146 0.308932 0.187473
612 4 0.231343 0.29538 0.167593
344 4 0.23025 0.319214 0.22131
343 2 0.21184 0.319102 0.23823
285 4 0.314569 0.288627 0.165822
284 4 0.277279 0.255318 0.165041
283 2 0.295924 0.271973 0.165432
729 4 0.316736 0.304857 0.177076
727 2 0.303586 0.320752 0.191203
308 4 0.329526 0.290996 0.177481
307 2 0.341977 0.283514 0.197832
309 4 0.354429 0.276032 0.218183
498 4 0.345674 0.272726 0.236668
647 4 0.056802 0.360789 0.168641
748 2 0.0573209 0.343093 0.241267
646 2 0.0581514 0.343841 0.186974
734 4 0.133727 0.342374 0.236052
733 2 0.155435 0.335616 0.246457
289 2 0.218902 0.388321 0.162973
291 4 0.202412 0.371597 0.17155
417 4 0.162521 0.412942 0.20902
416 4 0.191313 0.377885 0.187981
415 2 0.176917 0.395414 0.198501
728 4 0.290435 0.336647 0.20533
445 2 0.418964 0.378529 0.248387
447 4 0.433505 0.393019 0.234112
644 4 0.448569 0.383426 0.230268
643 2 0.46036 0.397038 0.212922
645 4 0.472151 0.41065 0.195577
264 4 0.0222589 0.43776 0.246606
262 2 0.997382 0.439524 0.24482
412 2 0.233784 0.465994 0.222386
413 4 0.222786 0.453351 0.240943
414 4 0.244782 0.478638 0.203829
1574 4 0.290563 0.480614 0.227884
595 2 0.490006 0.42653 0.177117
597 4 0.470432 0.431539 0.191845
229 2 0.466484 0.480118 0.231104
231 4 0.465751 0.456227 0.238444
234 4 0.0133855 0.0601429 0.269184
232 2 0.0339725 0.0486524 0.27751
233 4 0.0545596 0.0371618 0.285835
2756 4 0.00352202 0.0739841 0.280166
317 4 0.0660983 0.0338659 0.299899
1404 4 0.0647576 0.0190365 0.288635
316 2 0.0813688 0.0530259 0.304887
1402 2 0.0741472 0.00985154 0.267359
428 4 0.0607989 0.0182483 0.308494
318 4 0.0966393 0.072186 0.309875
730 2 0.133253 0.0730613 0.325746
606 4 0.168818 0.0716912 0.343153
693 4 0.285146 0.044309 0.261511
691 2 0.28615 0.0636324 0.277347
692 4 0.287154 0.0829558 0.293183
24 3 0.322366 0.065214 0.270288
21 1 0.337492 0.0520998 0.258556
23 3 0.347947 0.0372362 0.272983
22 3 0.35342 0.0657539 0.24912
632 4 0.355043 0.0830855 0.247485
479 4 0.450267 0.0341931 0.290373
478 2 0.439128 0.0427534 0.269689
2664 4 0.469841 0.0285222 0.289378
1428 4 0.455251 0.019298 0.297203
258 4 0.449936 0.0316628 0.310593
2662 2 0.493623 0.0317405 0.296394
256 2 0.440339 0.050609 0.323789
2585 4 0.00215807 0.117771 0.331263
732 4 0.10871 0.0687531 0.323689
399 4 0.0944049 0.080266 0.328129
403 2 0.241344 0.166048 0.32594
26 1 0.329377 0.157709 0.250556
721 2 0.276898 0.11611 0.309847
723 4 0.290626 0.10322 0.293398
722 4 0.26317 0.128999 0.326297
404 4 0.253958 0.14506 0.330995
29 3 0.345144 0.14434 0.261096
631 2 0.35493 0.105392 0.258781
707 4 0.356615 0.141113 0.277847
633 4 0.354816 0.127698 0.270078
706 2 0.35735 0.145418 0.302466
708 4 0.358085 0.149724 0.327085
444 4 0.0109111 0.238275 0.314416
396 4 0.0028234 0.254842 0.253525
544 2 0.151864 0.229372 0.25392
546 4 0.1311 0.217436 0.261104
405 4 0.22873 0.187037 0.320886
27 3 0.328159 0.177866 0.261572
269 4 0.400682 0.22372 0.321976
419 4 0.385163 0.237607 0.323628
268 2 0.421202 0.215052 0.333333
442 2 0.0143109 0.245929 0.290857
443 4 0.0177108 0.253582 0.267297
375 4 0.174008 0.314251 0.327942
402 4 0.167843 0.254118 0.261862
400 2 0.177378 0.277216 0.261014
401 4 0.186913 0.300315 0.260166
676 2 0.185789 0.321543 0.294704
345 4 0.193431 0.318991 0.255149
677 4 0.185819 0.316261 0.270265
735 4 0.177143 0.328858 0.256863
378 4 0.291616 0.280983 0.308019
376 2 0.309597 0.295721 0.29882
497 4 0.338515 0.303239 0.275635
377 4 0.327579 0.31046 0.289622
496 2 0.342094 0.287982 0.256151
541 2 0.36556 0.309101 0.304782
542 4 0.386867 0.305011 0.317209
420 4 0.395622 0.28626 0.318709
543 4 0.344252 0.313191 0.292355
418 2 0.390393 0.261934 0.321169
615 4 0.331457 0.326212 0.299443
364 2 0.003016 0.37775 0.291992
365 4 0.0271595 0.374511 0.286355
601 2 0.0557552 0.377111 0.320133
603 4 0.0370039 0.378507 0.303652
750 4 0.063657 0.360932 0.2576
300 4 0.0811732 0.367688 0.261599
299 4 0.128958 0.358725 0.249894
298 2 0.105065 0.363207 0.255747
678 4 0.185759 0.326826 0.319143
510 4 0.19932 0.341294 0.325567
508 2 0.195434 0.363833 0.335671
434 4 0.30726 0.385984 0.316618
433 2 0.304486 0.410607 0.319965
614 4 0.32001 0.371094 0.318291
446 4 0.404424 0.364038 0.262663
613 2 0.325733 0.348653 0.308867
1757 4 0.0409799 0.437405 0.252858
1756 2 0.0514767 0.458217 0.261907
1758 4 0.0619734 0.479029 0.270955
1775 4 0.0804073 0.487029 0.273901
1436 4 0.22639 0.458304 0.260179
1435 2 0.2425 0.450238 0.277516
1437 4 0.258611 0.442172 0.294853
4 3 0.258414 0.44054 0.314248
3 3 0.265728 0.47719 0.321157
1 1 0.269081 0.455432 0.32849
436 2 0.307008 0.487891 0.311993
438 4 0.288344 0.472866 0.319139
435 4 0.301712 0.43523 0.323313
2 3 0.291643 0.450947 0.328397
437 4 0.325672 0.502916 0.304847
1802 4 0.345014 0.497419 0.308735
119 3 0.488389 0.466732 0.321194
731 4 0.157797 0.0773696 0.327803
699 4 0.371563 0.054162 0.354697
1699 2 0.358231 0.020954 0.382726
1700 4 0.362965 0.0397445 0.366925
697 2 0.395431 0.0615875 0.354114
1701 4 0.353497 0.00216341 0.398527
698 4 0.4193 0.0690129 0.353531
257 4 0.430743 0.0695551 0.336985
397 2 0.0797189 0.0963583 0.340399
398 4 0.0650329 0.112451 0.352668
2584 2 0.0236061 0.116866 0.344082
2586 4 0.0450541 0.115961 0.356902
458 4 0.0472066 0.132406 0.370415
457 2 0.0554269 0.142029 0.391979
600 4 0.111009 0.151448 0.349259
604 2 0.185388 0.0850876 0.356235
605 4 0.201958 0.0984839 0.369318
248 4 0.218131 0.0969104 0.358174
247 2 0.235044 0.113695 0.350598
249 4 0.251957 0.13048 0.343022
683 4 0.256774 0.146348 0.351557
682 2 0.278722 0.144709 0.363422
684 4 0.30067 0.14307 0.375287
320 4 0.315285 0.146117 0.361511
321 4 0.36072 0.157686 0.344116
319 2 0.338003 0.151902 0.352813
726 4 0.391361 0.144261 0.406247
467 4 0.390936 0.156369 0.421107
717 4 0.377123 0.166131 0.35597
715 2 0.386646 0.164201 0.379009
716 4 0.396169 0.162272 0.402047
642 4 0.493646 0.095345 0.406345
640 2 0.469142 0.0915574 0.403119
641 4 0.444639 0.0877699 0.399892
598 2 0.114262 0.17359 0.360409
599 4 0.117515 0.195733 0.37156
389 4 0.122824 0.229807 0.372649
686 4 0.108689 0.215852 0.375376
685 2 0.102258 0.214526 0.399502
275 4 0.126731 0.21116 0.376983
274 2 0.151214 0.206449 0.378874
473 4 0.222028 0.202158 0.332284
474 4 0.192562 0.206485 0.372455
472 2 0.207295 0.204321 0.352369
276 4 0.175697 0.201739 0.380766
270 4 0.441721 0.206384 0.344691
452 4 0.453244 0.221513 0.351243
451 2 0.457269 0.221254 0.375919
453 4 0.461294 0.220995 0.400595
515 4 0.463966 0.20459 0.409182
2800 2 0.99362 0.271059 0.411298
2802 4 0.00171177 0.292631 0.421012
347 4 0.054528 0.305436 0.377408
346 2 0.035917 0.298539 0.392615
348 4 0.0173061 0.291643 0.407821
618 4 0.0732691 0.310517 0.373065
388 2 0.124834 0.253767 0.365788
616 2 0.0962088 0.302797 0.366792
390 4 0.126844 0.277727 0.358927
617 4 0.119148 0.295078 0.360518
374 4 0.138918 0.291847 0.355646
373 2 0.156463 0.303049 0.341794
2537 4 0.498187 0.331726 0.327969
549 4 0.0796176 0.393568 0.342783
602 4 0.0745065 0.375715 0.336614
547 2 0.0881387 0.408038 0.361309
509 4 0.191547 0.386371 0.345776
334 2 0.314101 0.381116 0.409464
335 4 0.332407 0.368956 0.397538
238 2 0.359719 0.389758 0.370646
239 4 0.373551 0.406796 0.358664
240 4 0.345887 0.37272 0.382629
587 4 0.391056 0.411095 0.350455
752 4 0.476651 0.400962 0.385624
561 4 0.471445 0.387655 0.399829
559 2 0.484143 0.373039 0.41565
751 2 0.485746 0.417738 0.369469
500 4 0.0738541 0.485477 0.341024
499 2 0.0887493 0.472005 0.355918
501 4 0.103644 0.458533 0.370812
548 4 0.0966598 0.422507 0.379835
407 4 0.0972818 0.441464 0.381275
406 2 0.105041 0.446854 0.404425
1544 4 0.21297 0.467551 0.385141
1556 4 0.232273 0.475235 0.381519
1543 2 0.199278 0.475514 0.404487
5 3 0.261046 0.453044 0.349665
636 4 0.294761 0.492675 0.400305
1555 2 0.256779 0.478364 0.385376
1557 4 0.281284 0.481493 0.389232
586 2 0.38668 0.434859 0.356881
593 4 0.384129 0.477293 0.354381
588 4 0.382304 0.458623 0.363308
592 2 0.403879 0.489056 0.344546
712 2 0.462036 0.486757 0.341805
714 4 0.483132 0.473506 0.339673
753 4 0.494841 0.434515 0.353313
117 3 0.49009 0.457096 0.357483
367 2 0.08409 0.99931 0.445025
368 4 0.0957555 0.998064 0.422945
963 4 0.327079 0.0410668 0.463603
432 4 0.314206 0.0469428 0.478513
430 2 0.328402 0.0445136 0.498952
961 2 0.334112 0.0257224 0.445157
962 4 0.341146 0.010378 0.426711
1216 2 0.41378 0.0559969 0.476873
1217 4 0.406583 0.040838 0.495409
1218 4 0.420977 0.0711559 0.458337
260 4 0.0666841 0.156928 0.432964
459 4 0.0636471 0.151653 0.413543
724 2 0.383459 0.123156 0.417078
725 4 0.375558 0.10205 0.427909
259 2 0.0774381 0.179386 0.43524
261 4 0.088192 0.201844 0.437516
1035 4 0.0855797 0.219907 0.438634
1033 2 0.0901616 0.242027 0.449351
687 4 0.0958273 0.2132 0.423628
466 2 0.399172 0.175922 0.434337
468 4 0.407407 0.195475 0.447567
411 4 0.395113 0.250278 0.460044
409 2 0.407783 0.228831 0.457885
410 4 0.420454 0.207384 0.455725
575 4 0.437806 0.200154 0.457235
516 4 0.425736 0.200265 0.441127
574 2 0.443209 0.190805 0.479786
514 2 0.444851 0.202428 0.425155
2847 4 0.99986 0.305237 0.436969
696 4 0.10045 0.26322 0.478787
1034 4 0.0947435 0.264148 0.460069
1260 4 0.10125 0.280091 0.468215
1258 2 0.113243 0.301874 0.465593
1259 4 0.125236 0.323656 0.46297
9 3 0.138265 0.325943 0.442205
488 4 0.330483 0.252941 0.440139
489 4 0.377886 0.246507 0.45471
487 2 0.354185 0.249724 0.447425
266 4 0.384058 0.265249 0.462152
265 2 0.380193 0.283834 0.478426
267 4 0.376329 0.30242 0.494699
326 4 0.0672091 0.357897 0.472561
7 3 0.132091 0.337102 0.47756
6 1 0.138973 0.344023 0.45673
327 4 0.115079 0.346032 0.464291
325 2 0.0911441 0.351965 0.468426
8 3 0.160675 0.352083 0.458294
10 3 0.125085 0.360485 0.449329
711 4 0.137016 0.418924 0.488566
709 2 0.156318 0.405548 0.497151
336 4 0.295795 0.393275 0.421389
668 4 0.282927 0.407779 0.431514
882 4 0.374561 0.371418 0.494554
3308 4 0.489121 0.332895 0.489366
560 4 0.49684 0.358423 0.431472
3309 4 0.501033 0.361652 0.450227
3307 2 0.495077 0.347274 0.469796
680 4 0.0161832 0.446832 0.456095
1383 4 0.0159618 0.459488 0.471992
1381 2 0.0222849 0.483589 0.469898
382 2 0.121898 0.439834 0.459368
384 4 0.122824 0.421064 0.47586
408 4 0.112801 0.452245 0.427575
569 4 0.123732 0.468971 0.427051
383 4 0.120973 0.458605 0.442876
568 2 0.145531 0.481161 0.428216
1395 4 0.184245 0.499196 0.433856
570 4 0.167331 0.493351 0.429381
1545 4 0.185585 0.483476 0.423834
667 2 0.294058 0.427939 0.441255
669 4 0.305188 0.448099 0.450995
634 2 0.299605 0.478056 0.420003
635 4 0.304448 0.463437 0.439701
774 4 0.321898 0.460356 0.446999
772 2 0.34607 0.464239 0.452079
773 4 0.370243 0.468122 0.457158
2430 4 0.164358 0.00878318 0.517855
341 4 0.182806 0.00937587 0.524691
1152 4 0.201937 0.0706512 0.516137
342 4 0.193124 0.0554555 0.508231
340 2 0.187965 0.0324157 0.516461
1150 2 0.216814 0.0788392 0.534489
1030 2 0.258783 0.0667398 0.576921
1031 4 0.274409 0.0488329 0.584691
431 4 0.342598 0.0420844 0.519391
842 4 0.405221 0.0272875 0.508603
841 2 0.382635 0.0331603 0.517578
843 4 0.360049 0.039033 0.526553
1058 4 0.124441 0.0989211 0.512858
1270 2 0.0962491 0.151897 0.567647
1271 4 0.107393 0.129665 0.565055
1057 2 0.120251 0.10629 0.536381
1059 4 0.11606 0.113658 0.559904
1155 4 0.12332 0.122594 0.57454
939 4 0.106302 0.115671 0.577821
1153 2 0.145792 0.131139 0.58141
1032 4 0.243158 0.0846467 0.569151
1154 4 0.168263 0.139685 0.588279
1151 4 0.231691 0.0870271 0.552842
1180 2 0.231602 0.120687 0.574345
1181 4 0.22896 0.0970995 0.566482
1182 4 0.234244 0.144274 0.582209
900 4 0.227561 0.162585 0.582825
1199 4 0.0196329 0.20399 0.570445
879 4 0.0677579 0.172918 0.559537
1198 2 0.999789 0.212798 0.558042
877 2 0.0516569 0.188166 0.571088
1272 4 0.0851051 0.17413 0.570239
651 4 0.223881 0.222774 0.497719
858 4 0.215887 0.241794 0.500309
898 2 0.238925 0.175269 0.564518
649 2 0.238629 0.208496 0.511995
650 4 0.253377 0.194217 0.526271
899 4 0.250289 0.187954 0.546211
576 4 0.448612 0.181456 0.502338
2455 2 0.490049 0.248928 0.499936
695 4 0.0836887 0.2477 0.523272
694 2 0.0920694 0.25546 0.501029
856 2 0.209906 0.253579 0.521534
857 4 0.203926 0.265364 0.542759
947 4 0.196067 0.266931 0.561897
946 2 0.176972 0.279616 0.571879
798 4 0.207898 0.266967 0.577551
1011 4 0.474968 0.32218 0.498417
2457 4 0.468343 0.258148 0.508245
1010 4 0.46296 0.276658 0.515279
1009 2 0.468964 0.299419 0.506848
502 2 0.20033 0.367131 0.511761
503 4 0.204646 0.342599 0.51394
504 4 0.196014 0.391662 0.509581
710 4 0.17562 0.392173 0.505736
1189 2 0.229637 0.36544 0.582735
803 4 0.263148 0.365076 0.562153
804 4 0.265948 0.344861 0.5165
802 2 0.264548 0.354969 0.539326
1190 4 0.24974 0.354953 0.572196
1238 4 0.264786 0.362211 0.5817
792 4 0.259979 0.344465 0.586248
929 4 0.347643 0.365846 0.545066
881 4 0.350829 0.382992 0.537022
880 2 0.362695 0.377205 0.515788
928 2 0.335678 0.375842 0.564613
539 4 0.10048 0.423538 0.583514
538 2 0.110272 0.446494 0.585041
1159 2 0.152996 0.496473 0.589414
1081 2 0.0698395 0.0728263 0.63263
1127 4 0.0448546 0.0839503 0.607884
1082 4 0.0759869 0.0585385 0.652206
943 2 0.0337295 0.0286721 0.663178
944 4 0.0535163 0.0436907 0.666025
4337 4 0.00139077 0.000601052 0.656371
938 4 0.0804996 0.0803539 0.602063
951 4 0.263748 0.0333171 0.588661
949 2 0.26577 0.0241665 0.611842
950 4 0.267793 0.0150159 0.635023
3008 4 0.494776 0.030631 0.597637
809 4 0.481795 0.0191859 0.607516
808 2 0.473546 0.0342264 0.625708
810 4 0.465297 0.049267 0.643899
45 3 0.464156 0.0724179 0.640318
41 1 0.456549 0.0676337 0.661244
43 3 0.43473 0.0751521 0.663648
42 3 0.45696 0.044856 0.664432
1083 4 0.063692 0.0871142 0.613053
1126 2 0.0224831 0.0890174 0.597933
1128 4 0.000111688 0.0940845 0.587982
937 2 0.0934008 0.0980124 0.589942
1221 4 0.17192 0.159 0.589491
1219 2 0.196102 0.162345 0.594896
1211 4 0.234826 0.146799 0.665072
1210 2 0.230091 0.156793 0.642647
1220 4 0.220284 0.165691 0.600301
1194 4 0.311814 0.149615 0.655412
1192 2 0.323775 0.148873 0.633468
887 4 0.300346 0.162648 0.663392
886 2 0.276728 0.156639 0.668984
1193 4 0.335737 0.148131 0.611523
3424 2 0.494747 0.101524 0.653476
3425 4 0.476605 0.0844795 0.655836
878 4 0.0355558 0.203414 0.582639
1244 4 0.0378802 0.207742 0.601812
1243 2 0.0395835 0.231003 0.610822
1212 4 0.225355 0.166787 0.620222
3123 4 0.481571 0.2292 0.643084
983 4 0.0412858 0.271689 0.60958
1245 4 0.0412868 0.254264 0.619833
982 2 0.0250586 0.283296 0.594509
3263 4 0.0458565 0.318098 0.635292
948 4 0.157877 0.292302 0.58186
1135 2 0.166119 0.320181 0.614953
822 4 0.166838 0.326736 0.651466
1136 4 0.163322 0.305222 0.595114
820 2 0.155938 0.311572 0.668092
796 2 0.231217 0.2756 0.580176
797 4 0.254536 0.284233 0.582801
791 4 0.261211 0.295941 0.59827
790 2 0.260595 0.320203 0.592259
872 4 0.326212 0.296795 0.59934
871 2 0.350532 0.301581 0.602626
813 4 0.369982 0.323448 0.616051
873 4 0.374852 0.306367 0.605912
953 4 0.4686 0.329214 0.613287
954 4 0.466284 0.282199 0.596405
952 2 0.467442 0.305706 0.604846
906 4 0.487786 0.333621 0.609014
3262 2 0.050232 0.342562 0.632549
1041 4 0.0687243 0.380613 0.635319
3264 4 0.0546076 0.367027 0.629806
3240 4 0.0504517 0.381782 0.64034
3238 2 0.0283088 0.393389 0.639951
3239 4 0.00616579 0.404995 0.639561
1039 2 0.0904363 0.386675 0.646136
1137 4 0.168916 0.33514 0.634792
1040 4 0.112148 0.392738 0.656954
993 4 0.123422 0.375426 0.657708
991 2 0.142698 0.360547 0.652031
992 4 0.161974 0.345668 0.646354
1064 4 0.176758 0.343369 0.651745
897 4 0.176302 0.35301 0.635026
896 4 0.198538 0.386496 0.605278
895 2 0.18742 0.369753 0.620152
1172 4 0.215812 0.39312 0.600724
1191 4 0.209534 0.375927 0.593274
1171 2 0.218039 0.417783 0.604182
1239 4 0.306608 0.385898 0.595505
1237 2 0.285697 0.374054 0.588603
930 4 0.323713 0.385838 0.58416
811 2 0.376861 0.344064 0.628414
1204 2 0.374302 0.391243 0.661322
1206 4 0.371626 0.37948 0.639422
927 4 0.387361 0.377836 0.627079
812 4 0.383739 0.36468 0.640776
925 2 0.397747 0.394454 0.61155
926 4 0.408133 0.411071 0.59602
540 4 0.120064 0.46945 0.586569
1160 4 0.131151 0.484345 0.590342
2244 4 0.113657 0.486103 0.579942
1186 2 0.204831 0.482197 0.600074
1173 4 0.220267 0.442446 0.60764
1187 4 0.217139 0.460889 0.604505
1188 4 0.192522 0.503506 0.595643
1909 2 0.443613 0.501715 0.583558
1911 4 0.447452 0.484807 0.601574
1002 4 0.424011 0.425103 0.596065
1001 4 0.453436 0.46538 0.599625
1000 2 0.438724 0.445242 0.597845
1269 4 0.457061 0.475631 0.615278
1267 2 0.458599 0.480362 0.639782
1268 4 0.460137 0.485094 0.664285
1076 4 0.0711911 0.0514262 0.669964
1075 2 0.0649359 0.0662181 0.689127
945 4 0.0139426 0.0136536 0.660332
864 4 0.0511923 0.0760868 0.724759
1077 4 0.0586808 0.08101 0.708291
862 2 0.0383119 0.0733902 0.74602
824 4 0.171264 0.0026615 0.667717
825 4 0.174688 0.0515548 0.677639
823 2 0.172976 0.0271082 0.672678
1283 4 0.170277 0.0670677 0.689917
1149 4 0.231082 0.0451071 0.736611
1147 2 0.239827 0.0615179 0.719896
1148 4 0.248571 0.0779287 0.703181
1004 4 0.34194 0.0614304 0.732965
1003 2 0.339725 0.082151 0.719147
1163 4 0.471586 0.0545944 0.679952
1162 2 0.486548 0.0481476 0.698919
44 3 0.470181 0.0776751 0.677111
1164 4 0.50151 0.0417008 0.717886
851 4 0.0651359 0.0985519 0.710434
850 2 0.0578215 0.117739 0.696167
852 4 0.0505071 0.136926 0.6819
1107 4 0.0704323 0.0810115 0.720703
1105 2 0.0884349 0.0906385 0.735139
1282 2 0.170842 0.0919411 0.692401
1284 4 0.171408 0.116815 0.694886
909 4 0.174377 0.135511 0.689815
907 2 0.198602 0.140168 0.685736
908 4 0.222827 0.144825 0.681658
1227 4 0.240343 0.138176 0.678804
888 4 0.25311 0.150631 0.674576
1226 4 0.256849 0.0982386 0.703969
1225 2 0.248596 0.118207 0.691386
829 2 0.326606 0.136698 0.688697
830 4 0.311078 0.151013 0.675314
1005 4 0.337509 0.102871 0.705329
831 4 0.342134 0.122382 0.702081
1178 4 0.999452 0.241463 0.718787
1130 4 0.149661 0.249867 0.740301
977 4 0.299944 0.224022 0.742448
1298 4 0.287284 0.21194 0.750155
976 2 0.322573 0.228708 0.7329
978 4 0.345202 0.233393 0.723352
1025 4 0.401247 0.183497 0.680375
1020 4 0.364797 0.234336 0.724466
1018 2 0.375733 0.245942 0.743724
1146 4 0.497137 0.179283 0.713148
1024 2 0.417055 0.190214 0.698546
1142 4 0.440602 0.195055 0.734837
1144 2 0.474299 0.188967 0.71628
1262 4 0.438867 0.21238 0.726499
1026 4 0.432864 0.196931 0.716716
1261 2 0.442285 0.236869 0.730215
1145 4 0.451461 0.198651 0.719411
1177 2 0.0160265 0.258522 0.711077
1179 4 0.0326006 0.275582 0.703367
1072 2 0.109983 0.262368 0.752367
1208 4 0.139648 0.256814 0.72555
1074 4 0.133602 0.258386 0.745193
1207 2 0.149569 0.270377 0.707035
821 4 0.145037 0.296408 0.684718
1209 4 0.15949 0.283941 0.688521
805 2 0.231319 0.325599 0.710536
806 4 0.242826 0.306511 0.721869
893 4 0.00763855 0.342665 0.736036
892 2 0.0237385 0.361672 0.733873
1279 2 0.059913 0.41332 0.747081
1280 4 0.0542535 0.39027 0.739217
816 4 0.0598649 0.374259 0.730424
894 4 0.0398384 0.38068 0.731709
814 2 0.0821303 0.363981 0.725547
815 4 0.104396 0.353702 0.720671
942 4 0.122615 0.351575 0.727616
940 2 0.14322 0.363792 0.734781
941 4 0.163825 0.37601 0.741946
1063 2 0.194863 0.348685 0.668151
1065 4 0.212968 0.354 0.684557
807 4 0.219812 0.344687 0.699204
1028 4 0.211588 0.374666 0.684864
1066 2 0.196742 0.368581 0.721575
1068 4 0.208576 0.363583 0.700124
1027 2 0.228265 0.391724 0.677374
1067 4 0.184909 0.373579 0.743027
1029 4 0.244941 0.408783 0.669885
1140 4 0.262295 0.41471 0.678343
1205 4 0.376979 0.403006 0.683223
1982 4 0.0714667 0.493726 0.741621
1281 4 0.0655724 0.43637 0.754945
1983 4 0.0825877 0.445319 0.747435
1981 2 0.0770272 0.469522 0.744528
1176 4 0.185824 0.494953 0.731434
1175 4 0.17711 0.469782 0.689111
1174 2 0.181467 0.482368 0.710273
2016 4 0.169677 0.489645 0.741803
2026 2 0.27276 0.495099 0.692124
1138 2 0.274324 0.436508 0.680656
1139 4 0.286353 0.458305 0.682968
1987 2 0.28056 0.45974 0.734162
1229 4 0.296227 0.46419 0.698308
1989 4 0.288646 0.47302 0.71458
2028 4 0.28106 0.471929 0.696533
1228 2 0.32033 0.466416 0.692044
1230 4 0.344434 0.468642 0.68578
1101 4 0.445064 0.484557 0.6724
1099 2 0.443057 0.470778 0.693168
1100 4 0.441049 0.456998 0.713935
2168 4 0.460749 0.49539 0.680303
2989 2 0.0217453 0.0350328 0.786553
2990 4 0.0201928 0.0584222 0.777852
2991 4 0.0232979 0.0116435 0.795254
3083 4 0.00753005 0.0654966 0.763744
863 4 0.0254315 0.0706936 0.76728
833 4 0.0109931 0.0748107 0.779967
2049 4 0.10087 0.0250841 0.778656
1202 4 0.106713 0.0335143 0.796413
1201 2 0.112733 0.0566281 0.789017
2047 2 0.103653 0.00465238 0.764515
1085 4 0.322161 0.0617144 0.803913
1084 2 0.304221 0.0776373 0.796857
1257 4 0.270136 0.0819042 0.788319
1050 4 0.368749 0.0111087 0.772785
960 4 0.336155 0.0689233 0.818791
819 4 0.340078 0.066277 0.800813
817 2 0.347679 0.0424835 0.801941
818 4 0.35528 0.01869 0.803068
974 4 0.366796 0.0051991 0.792799
2322 4 0.480961 0.0562437 0.77338
845 4 0.495366 0.0673038 0.779647
844 2 0.493766 0.0694788 0.804504
1112 4 0.491227 0.0843899 0.770312
832 2 0.0188772 0.094565 0.793112
834 4 0.0267614 0.114319 0.806257
1125 4 0.0331529 0.12296 0.823638
1106 4 0.106437 0.100265 0.749576
1203 4 0.118752 0.079742 0.781622
32 3 0.1331 0.0894252 0.797124
911 4 0.123376 0.106334 0.806097
34 3 0.115055 0.0949094 0.764613
31 1 0.13058 0.103833 0.779369
35 3 0.123302 0.124 0.787049
33 3 0.151067 0.106325 0.768764
910 2 0.115638 0.105349 0.829853
1256 4 0.235584 0.114726 0.803473