ITEM: TIMESTEP
1630000
ITEM: NUMBER OF ATOMS
4590
ITEM: BOX BOUNDS pp pp pp
-9.9985700000000008e+00 9.9985700000000008e+00
-9.9985700000000008e+00 9.9985700000000008e+00
-9.9985700000000008e+00 9.9985700000000008e+00
ITEM: ATOMS id type xs ys zs
1666 2 0.0595685 0.0633372 0.0701626
1668 4 0.0402786 0.0474592 0.0711473
1667 4 0.0788584 0.0792152 0.069178
747 4 0.460696 0.0637993 0.0244724
2974 2 0.472748 0.0222573 0.0301928
2975 4 0.465436 0.0444361 0.0212584
986 4 0.462234 0.0560653 0.00654572
566 4 0.189005 0.156185 0.0373154
2264 4 0.267631 0.152921 0.00237467
297 4 0.332909 0.110499 0.037736
295 2 0.34617 0.112289 0.0166145
296 4 0.359431 0.114079 0.995493
556 2 0.400032 0.110849 0.00749031
769 2 0.404872 0.163948 0.0307965
557 4 0.37848 0.116177 0.995987
745 2 0.451413 0.0869463 0.0226723
771 4 0.427126 0.154174 0.0249311
558 4 0.421583 0.105521 0.0189936
746 4 0.442131 0.110093 0.0208722
565 2 0.202477 0.175526 0.0289714
567 4 0.215948 0.194866 0.0206273
1133 4 0.227582 0.188458 0.00500321
360 4 0.32182 0.169633 0.0565044
358 2 0.344311 0.1762 0.0477759
770 4 0.382618 0.173722 0.0366618
359 4 0.366803 0.182767 0.0390473
664 2 0.389942 0.208572 0.0596541
665 4 0.382332 0.18618 0.0515396
666 4 0.397553 0.230964 0.0677685
323 4 0.403996 0.248282 0.0702563
555 4 0.0774887 0.289454 0.0412131
553 2 0.071366 0.277917 0.0198919
287 4 0.141438 0.321124 0.0445729
292 2 0.132709 0.280701 0.0305273
507 4 0.150804 0.30912 0.0564855
293 4 0.138886 0.302085 0.0419191
294 4 0.126531 0.259318 0.0191355
505 2 0.170991 0.303003 0.0699101
481 2 0.232055 0.30023 0.0657093
483 4 0.208624 0.300064 0.0744355
506 4 0.191179 0.296885 0.0833346
573 4 0.274288 0.293084 0.0583557
482 4 0.255485 0.300396 0.056983
571 2 0.275378 0.279564 0.0373512
572 4 0.276467 0.266043 0.0163466
357 4 0.288249 0.26271 0.999399
322 2 0.405838 0.261385 0.0490412
1069 2 0.391868 0.302034 0.013806
324 4 0.407679 0.274489 0.027826
1070 4 0.412605 0.288145 0.0123114
957 4 0.355067 0.327092 0.0193767
1071 4 0.37113 0.315923 0.0153005
955 2 0.339677 0.319598 0.00115174
671 4 0.44622 0.312085 0.0523525
280 2 0.446229 0.296326 0.0237181
281 4 0.461133 0.309733 0.0386617
282 4 0.431326 0.282918 0.00877448
670 2 0.430233 0.32307 0.0681304
518 4 0.494598 0.278253 0.0848279
286 2 0.152866 0.337943 0.0300233
454 2 0.159286 0.389683 0.0686434
455 4 0.143943 0.36998 0.0673958
552 4 0.124589 0.362546 0.0662395
550 2 0.110462 0.345708 0.0781594
288 4 0.164294 0.354762 0.0154737
456 4 0.174628 0.409387 0.069891
250 2 0.268698 0.408321 0.0418883
251 4 0.277427 0.397857 0.0209247
1290 4 0.285827 0.381229 0.0168398
741 4 0.365536 0.340605 0.0308895
739 2 0.371333 0.338931 0.055154
740 4 0.377131 0.337256 0.0794184
495 4 0.399353 0.365905 0.0730516
493 2 0.390278 0.389172 0.0742624
14 3 0.396584 0.34748 0.0792105
494 4 0.381203 0.412439 0.0754733
330 4 0.00614962 0.434857 0.0285737
245 4 0.204097 0.450619 0.0256732
626 4 0.204401 0.465757 0.039082
625 2 0.187507 0.460527 0.0567579
244 2 0.228738 0.449548 0.0215722
627 4 0.170614 0.455298 0.0744338
252 4 0.259968 0.418786 0.062852
246 4 0.25338 0.448476 0.0174712
609 4 0.27735 0.425071 0.06971
272 4 0.264347 0.432751 0.0127833
1672 2 0.392206 0.455062 0.0601102
1673 4 0.367606 0.451969 0.0633463
853 2 0.408774 0.443934 0.000835903
854 4 0.420448 0.445601 0.0228837
1674 4 0.416805 0.458156 0.0568742
563 4 0.475897 0.443315 0.0428548
228 4 0.491179 0.452393 0.032516
562 2 0.451354 0.447974 0.0418037
564 4 0.426811 0.452633 0.0407527
18 3 0.0523361 0.0420189 0.141778
16 1 0.052755 0.0551396 0.160911
19 3 0.0383534 0.0731684 0.15847
1506 4 0.240332 0.0122885 0.162361
1475 4 0.294974 0.0221417 0.102543
492 4 0.291199 0.0422232 0.104596
490 2 0.286151 0.0653777 0.112569
491 4 0.281103 0.0885322 0.120541
485 4 0.383616 0.00932611 0.0961995
2723 4 0.423347 0.054743 0.145934
2722 2 0.447816 0.0496279 0.145425
2724 4 0.472286 0.0445129 0.144916
1760 4 0.490541 0.0439137 0.137795
1759 2 0.492003 0.0320461 0.115836
2744 4 0.48639 0.0359552 0.154345
1761 4 0.493465 0.0201786 0.0938768
700 2 0.0870834 0.100275 0.106017
702 4 0.0874448 0.112209 0.127986
476 4 0.0791266 0.130954 0.127092
701 4 0.0867221 0.0883416 0.0840483
475 2 0.0953376 0.138878 0.144401
581 4 0.293918 0.107549 0.153959
580 2 0.275339 0.116641 0.168006
628 2 0.365888 0.131286 0.150581
312 4 0.374884 0.0944935 0.151125
629 4 0.374286 0.111815 0.163832
630 4 0.357491 0.150756 0.137331
339 4 0.104966 0.233564 0.151627
337 2 0.083671 0.2432 0.160509
738 4 0.247027 0.204884 0.0894319
736 2 0.248268 0.189811 0.109343
737 4 0.249509 0.174739 0.129254
461 4 0.30779 0.236492 0.104749
460 2 0.329951 0.233852 0.116023
354 4 0.288871 0.244285 0.110515
254 4 0.36588 0.169187 0.14337
462 4 0.352112 0.231212 0.127297
255 4 0.363836 0.218083 0.133091
253 2 0.364858 0.193635 0.138231
765 4 0.364774 0.233857 0.142824
624 4 0.369575 0.236873 0.125069
622 2 0.38561 0.238501 0.105953
623 4 0.401644 0.24013 0.0868366
763 2 0.355193 0.243693 0.16372
551 4 0.0963355 0.328869 0.0900794
537 4 0.18942 0.310269 0.0975932
535 2 0.200321 0.323735 0.115622
536 4 0.211221 0.3372 0.13365
352 2 0.280562 0.251412 0.132995
353 4 0.272254 0.25854 0.155475
755 4 0.25838 0.272981 0.155922
387 4 0.328473 0.313481 0.122843
301 2 0.330522 0.309473 0.164107
278 4 0.259988 0.257608 0.167262
302 4 0.332911 0.304162 0.139791
385 2 0.345385 0.323574 0.107438
15 3 0.375905 0.331215 0.106146
386 4 0.362297 0.333668 0.0920343
12 3 0.413133 0.328873 0.107363
672 4 0.414247 0.334055 0.0839083
528 4 0.478755 0.277966 0.0968851
526 2 0.453801 0.278075 0.0984601
527 4 0.428848 0.278185 0.100035
315 4 0.00571252 0.384256 0.120018
647 4 0.0730804 0.346758 0.157212
417 4 0.146239 0.399152 0.121046
415 2 0.167454 0.408254 0.13065
291 4 0.204157 0.40641 0.145632
289 2 0.229061 0.408533 0.146302
416 4 0.188669 0.417355 0.140255
290 4 0.253965 0.410655 0.146972
11 1 0.395312 0.34231 0.101795
13 3 0.396329 0.36174 0.114438
595 2 0.478907 0.41282 0.131028
597 4 0.466532 0.408771 0.152373
645 4 0.473007 0.390259 0.159065
104 3 0.490298 0.349152 0.121414
1791 4 0.0583204 0.486907 0.12346
1466 4 0.0425481 0.480288 0.135655
1465 2 0.0366769 0.470807 0.158034
1440 4 0.159953 0.493635 0.112488
637 2 0.238216 0.500558 0.137115
607 2 0.295893 0.428277 0.0861736
608 4 0.314436 0.431484 0.102637
768 4 0.260353 0.429924 0.146379
767 4 0.271961 0.473766 0.125313
766 2 0.266157 0.451845 0.135846
638 4 0.259582 0.489129 0.130948
659 4 0.332423 0.436139 0.105675
660 4 0.378181 0.427592 0.0874042
658 2 0.355302 0.431865 0.0965397
525 4 0.402963 0.496055 0.141607
596 4 0.491283 0.416868 0.109682
17 3 0.0458086 0.042441 0.17879
2480 4 0.0326596 0.0299143 0.186841
1422 4 0.0321018 0.0104049 0.189761
2479 2 0.0153335 0.0436887 0.19847
20 3 0.0739313 0.0625773 0.16477
2481 4 0.998007 0.0574631 0.2101
578 4 0.0908356 0.0546195 0.169274
674 4 0.14922 0.0261757 0.21689
673 2 0.131942 0.0162918 0.23202
689 4 0.151549 0.00753177 0.205924
577 2 0.110346 0.0683177 0.176816
579 4 0.129856 0.082016 0.184359
654 4 0.244901 0.00920976 0.181112
652 2 0.262556 0.0136716 0.198247
653 4 0.28021 0.0181335 0.215381
311 4 0.369927 0.0563497 0.183081
758 4 0.366246 0.0538116 0.202215
759 4 0.341992 0.0526253 0.24593
757 2 0.354119 0.0532185 0.224072
310 2 0.372406 0.0754216 0.167103
511 2 0.0351385 0.13781 0.222753
513 4 0.0536969 0.138139 0.239506
381 4 0.00553732 0.123708 0.19373
512 4 0.0165801 0.13748 0.206001
379 2 0.999453 0.100175 0.199591
393 4 0.0554445 0.154361 0.251324
477 4 0.111549 0.146802 0.161709
450 4 0.147685 0.0936866 0.180525
448 2 0.161037 0.11343 0.188081
449 4 0.174388 0.133174 0.195638
237 4 0.239636 0.122316 0.174232
691 2 0.233276 0.10944 0.246311
693 4 0.21527 0.119901 0.232471
236 4 0.19362 0.133729 0.190137
235 2 0.216628 0.128023 0.182185
582 4 0.256759 0.125734 0.182052
26 1 0.319592 0.164355 0.245352
28 3 0.316272 0.141484 0.247426
521 4 0.490994 0.140334 0.219838
332 4 0.492281 0.127069 0.233707
762 4 0.486687 0.1443 0.239943
760 2 0.463935 0.146393 0.250097
391 2 0.0760586 0.168506 0.250911
394 2 0.0166504 0.234549 0.23774
395 4 0.0359245 0.226166 0.224197
392 4 0.0966726 0.182651 0.250499
277 2 0.244219 0.238701 0.171625
279 4 0.22845 0.219794 0.175988
27 3 0.325753 0.169041 0.22369
338 4 0.0623765 0.252835 0.16939
363 4 0.0686973 0.266781 0.183662
361 2 0.0823016 0.279526 0.200325
749 4 0.0826938 0.309319 0.217619
748 2 0.086185 0.324531 0.237153
370 2 0.135984 0.303586 0.224711
372 4 0.115363 0.297372 0.212008
362 4 0.0959058 0.292272 0.216989
371 4 0.156605 0.309799 0.237414
734 4 0.161628 0.326246 0.250707
285 4 0.32628 0.254522 0.191373
284 4 0.280074 0.254104 0.172254
283 2 0.303177 0.254313 0.181814
754 2 0.258272 0.29206 0.172083
756 4 0.258164 0.311138 0.188244
612 4 0.273308 0.306061 0.20198
610 2 0.268472 0.301618 0.226106
307 2 0.333417 0.285408 0.220731
308 4 0.331491 0.300792 0.201114
303 4 0.328132 0.314784 0.188423
729 4 0.315092 0.329754 0.183985
309 4 0.335344 0.270025 0.240348
764 4 0.345613 0.253528 0.184617
264 4 0.00899702 0.386726 0.240022
646 2 0.0762262 0.346838 0.182016
648 4 0.0793721 0.346919 0.206821
727 2 0.311687 0.348523 0.20015
728 4 0.308283 0.367292 0.216315
445 2 0.425514 0.372249 0.224992
447 4 0.440714 0.372794 0.205147
644 4 0.450289 0.389656 0.20361
643 2 0.461648 0.389957 0.181337
1467 4 0.0308058 0.461325 0.180413
1757 4 0.088371 0.445774 0.245941
1756 2 0.0938658 0.47002 0.248609
1758 4 0.0993607 0.494266 0.251277
231 4 0.467696 0.464847 0.237337
229 2 0.460022 0.485174 0.224963
232 2 0.0241375 0.0288678 0.292778
233 4 0.0473319 0.0292689 0.283449
1404 4 0.0651741 0.0213549 0.288324
1402 2 0.0807926 0.0147959 0.269934
316 2 0.0682062 0.0571371 0.307015
317 4 0.0607286 0.0361387 0.295686
428 4 0.0650263 0.0226191 0.308346
318 4 0.0756838 0.0781354 0.318343
427 2 0.0624493 0.000911622 0.320484
732 4 0.0946247 0.0754221 0.325649
675 4 0.114663 0.00640801 0.24715
1403 4 0.0964111 0.00823684 0.251543
25 3 0.325623 0.0377745 0.24991
24 3 0.308696 0.064372 0.270494
21 1 0.328066 0.0519338 0.267578
23 3 0.332688 0.0398409 0.286835
22 3 0.345562 0.0662803 0.263428
351 4 0.406484 0.0600278 0.272559
349 2 0.388948 0.077149 0.277511
479 4 0.447649 0.0276565 0.299842
478 2 0.435231 0.0392263 0.281482
2664 4 0.466674 0.0338992 0.30495
480 4 0.422814 0.050796 0.263121
1428 4 0.457702 0.0174599 0.308436
258 4 0.443883 0.0215295 0.320288
2662 2 0.488636 0.0409724 0.295318
399 4 0.0807808 0.0846807 0.335034
721 2 0.254353 0.113718 0.296539
722 4 0.247791 0.115416 0.320606
692 4 0.251282 0.0989782 0.26015
723 4 0.260914 0.11202 0.272471
632 4 0.355781 0.10647 0.277707
350 4 0.371411 0.0942702 0.282462
631 2 0.345195 0.127555 0.26943
707 4 0.339692 0.161375 0.274485
633 4 0.334609 0.148641 0.261152
761 4 0.441182 0.148485 0.260251
546 4 0.130718 0.191584 0.26255
544 2 0.144678 0.21079 0.270387
545 4 0.158639 0.229996 0.278225
402 4 0.175344 0.233563 0.266158
378 4 0.241309 0.252758 0.316337
30 3 0.30033 0.175478 0.250245
29 3 0.336546 0.171225 0.259627
706 2 0.348745 0.178397 0.290406
708 4 0.357798 0.19542 0.306326
269 4 0.467418 0.243959 0.340608
442 2 0.0147777 0.279222 0.271442
444 4 0.0234626 0.300817 0.280575
443 4 0.00609283 0.257627 0.262309
400 2 0.186093 0.253034 0.277582
401 4 0.196842 0.272505 0.289006
676 2 0.182853 0.297305 0.317741
345 4 0.207456 0.291286 0.288045
677 4 0.193132 0.289136 0.296462
343 2 0.225899 0.295926 0.271812
735 4 0.190248 0.302282 0.283984
733 2 0.175938 0.314264 0.267346
344 4 0.244342 0.300566 0.255579
611 4 0.263637 0.297175 0.250232
376 2 0.26194 0.262062 0.305709
496 2 0.315402 0.271455 0.278309
497 4 0.301185 0.265527 0.298004
377 4 0.282571 0.271366 0.29508
498 4 0.32962 0.277383 0.258614
541 2 0.395992 0.317408 0.327387
2537 4 0.494517 0.334255 0.325563
420 4 0.415726 0.280799 0.33343
365 4 0.0369524 0.37458 0.295729
601 2 0.0590945 0.371233 0.325423
603 4 0.0504666 0.361718 0.303971
364 2 0.0125452 0.372971 0.290545
549 4 0.0620474 0.39884 0.339953
750 4 0.0896762 0.339742 0.256688
299 4 0.153439 0.342038 0.256598
298 2 0.129173 0.345149 0.261764
300 4 0.104908 0.34826 0.266929
433 2 0.305554 0.380514 0.296104
435 4 0.285393 0.388905 0.283927
434 4 0.325716 0.372124 0.308281
446 4 0.410315 0.371705 0.244838
543 4 0.392145 0.342057 0.325717
614 4 0.342281 0.376654 0.318555
615 4 0.377675 0.341794 0.31283
613 2 0.359978 0.359224 0.315693
412 2 0.230471 0.485433 0.290507
1436 4 0.222278 0.461946 0.325719
413 4 0.223708 0.467588 0.306663
414 4 0.237234 0.503278 0.274351
5 3 0.294581 0.482647 0.325497
3 3 0.310801 0.448835 0.322138
1803 4 0.365083 0.488692 0.269339
1801 2 0.354635 0.495218 0.291098
119 3 0.494689 0.45601 0.313949
1742 4 0.420416 0.490341 0.33397
714 4 0.482191 0.460338 0.332487
712 2 0.458551 0.468481 0.332638
367 2 0.0660158 0.0305966 0.403425
369 4 0.0433104 0.0241364 0.411666
1781 4 0.107009 0.0317723 0.405207
368 4 0.0887211 0.0370568 0.395184
730 2 0.114852 0.073776 0.340254
1780 2 0.12026 0.0137188 0.394086
731 4 0.13508 0.0721299 0.354859
606 4 0.148404 0.0774972 0.368736
604 2 0.172765 0.0766435 0.374305
605 4 0.197125 0.0757899 0.379875
248 4 0.205678 0.0851504 0.365125
1701 4 0.328336 0.0338704 0.399101
1699 2 0.32893 0.0408039 0.375085
441 4 0.319325 0.020272 0.408622
439 2 0.311622 0.996806 0.404724
1700 4 0.329524 0.0477375 0.351069
699 4 0.342233 0.0550664 0.337992
697 2 0.367208 0.0539472 0.337552
698 4 0.392182 0.052828 0.337112
257 4 0.408547 0.0460425 0.345806
425 4 0.333115 0.0282624 0.418865
2879 4 0.491625 0.0673815 0.399913
256 2 0.426215 0.033786 0.333047
2584 2 0.0107499 0.113669 0.34723
397 2 0.0653881 0.103361 0.341302
398 4 0.0499954 0.122042 0.347569
2586 4 0.0313418 0.127622 0.349772
458 4 0.0287761 0.134166 0.367171
457 2 0.0342793 0.144023 0.389481
459 4 0.0397826 0.153879 0.411791
600 4 0.151455 0.130341 0.37173
598 2 0.140607 0.152581 0.368144
249 4 0.238624 0.10752 0.334879
404 4 0.24824 0.125758 0.334223
247 2 0.222151 0.0963354 0.350002
683 4 0.233317 0.0966262 0.410254
403 2 0.244657 0.147106 0.346737
682 2 0.253661 0.107968 0.401161
319 2 0.290126 0.146 0.390322
684 4 0.274004 0.119311 0.392068
321 4 0.29893 0.16412 0.405131
320 4 0.281322 0.127879 0.375513
725 4 0.409641 0.11021 0.398874
724 2 0.41955 0.0882107 0.405433
2878 2 0.494926 0.0872465 0.414734
390 4 0.0865467 0.255189 0.351184
599 4 0.129759 0.174821 0.364558
389 4 0.127987 0.227218 0.352193
686 4 0.133328 0.181403 0.381954
685 2 0.118362 0.19422 0.397346
275 4 0.144971 0.183099 0.353473
388 2 0.107267 0.241204 0.351688
687 4 0.103396 0.207037 0.412739
274 2 0.163729 0.198979 0.348876
472 2 0.219143 0.199032 0.349546
474 4 0.201128 0.216053 0.352849
276 4 0.182487 0.214859 0.344279
405 4 0.241075 0.168455 0.359251
473 4 0.237159 0.182011 0.346242
715 2 0.412866 0.189764 0.351491
466 2 0.39049 0.204364 0.406842
716 4 0.405906 0.194402 0.375054
467 4 0.390024 0.202499 0.381913
717 4 0.419826 0.185126 0.327927
270 4 0.475064 0.203493 0.368976
452 4 0.474993 0.205765 0.388341
268 2 0.471241 0.223726 0.354792
451 2 0.463081 0.213686 0.408848
419 4 0.447799 0.242774 0.338542
2801 4 0.998804 0.271328 0.387264
2800 2 0.99963 0.291544 0.401954
618 4 0.0527112 0.320574 0.371986
616 2 0.0748599 0.310017 0.367174
617 4 0.0970086 0.299459 0.362363
374 4 0.106043 0.286171 0.350035
373 2 0.13012 0.292555 0.347862
375 4 0.154197 0.298938 0.345688
678 4 0.172573 0.305474 0.339019
509 4 0.209056 0.335693 0.360379
508 2 0.231343 0.324687 0.363087
510 4 0.25363 0.313682 0.365795
488 4 0.321552 0.269815 0.411816
542 4 0.399839 0.292759 0.329057
418 2 0.431763 0.261786 0.335986
347 4 0.0397003 0.330966 0.382252
602 4 0.0677224 0.380748 0.346875
346 2 0.0317092 0.350767 0.395262
348 4 0.0237181 0.370568 0.408271
668 4 0.322451 0.389256 0.404438
336 4 0.333272 0.374843 0.398754
334 2 0.35744 0.368464 0.398136
335 4 0.381609 0.362085 0.397519
240 4 0.391199 0.359906 0.415135
752 4 0.485119 0.410436 0.395658
561 4 0.474563 0.400436 0.410848
547 2 0.0715669 0.419918 0.349456
548 4 0.0810864 0.440995 0.358959
407 4 0.0868219 0.451072 0.376664
406 2 0.102186 0.457562 0.395292
408 4 0.11755 0.464053 0.41392
1435 2 0.242027 0.453542 0.338545
1 1 0.297562 0.462411 0.33551
438 4 0.32109 0.451997 0.343322
1437 4 0.261776 0.445138 0.351371
4 3 0.277007 0.45229 0.33918
2 3 0.308076 0.465445 0.355743
636 4 0.292679 0.488452 0.410491
437 4 0.368524 0.436173 0.343965
436 2 0.344807 0.444085 0.343643
593 4 0.400013 0.447203 0.381542
588 4 0.418177 0.443528 0.389959
592 2 0.409711 0.460125 0.36246
586 2 0.425824 0.428047 0.408044
713 4 0.434911 0.476624 0.332788
753 4 0.497047 0.436755 0.354844
117 3 0.493223 0.458437 0.351427
751 2 0.491083 0.423595 0.375251
594 4 0.41941 0.473047 0.343378
719 4 0.0365784 0.0293559 0.429309
718 2 0.0146758 0.0241253 0.440176
962 4 0.313078 0.0275592 0.424419
961 2 0.308792 0.0481947 0.437872
963 4 0.304506 0.0688302 0.451325
424 2 0.357987 0.0279927 0.421409
426 4 0.38286 0.0277229 0.423952
726 4 0.429458 0.0662112 0.411992
1218 4 0.427697 0.043899 0.496378
432 4 0.309967 0.0878712 0.450807
430 2 0.316135 0.0924963 0.474593
431 4 0.322303 0.0971214 0.498378
2880 4 0.498227 0.107111 0.429556
642 4 0.498388 0.121104 0.445145
640 2 0.478382 0.126854 0.458997
641 4 0.458375 0.132605 0.472848
260 4 0.0500209 0.166674 0.422357
259 2 0.0676297 0.184236 0.419774
261 4 0.0852386 0.201799 0.417191
1035 4 0.0952965 0.212 0.429498
1033 2 0.0909259 0.233848 0.440843
489 4 0.347442 0.242345 0.444616
468 4 0.390956 0.206229 0.431772
411 4 0.356735 0.24122 0.460987
516 4 0.401033 0.193682 0.461388
409 2 0.371524 0.221569 0.456484
410 4 0.386314 0.201918 0.45198
575 4 0.402547 0.178028 0.474651
266 4 0.355597 0.240951 0.481893
574 2 0.397283 0.169781 0.49766
585 4 0.497862 0.231069 0.453684
514 2 0.423026 0.201775 0.452671
515 4 0.445019 0.209869 0.443954
453 4 0.451169 0.221608 0.429355
2802 4 0.000455473 0.31176 0.416645
2847 4 0.00588787 0.314051 0.436785
1034 4 0.0865552 0.255697 0.452188
1258 2 0.111769 0.282924 0.466044
1259 4 0.125862 0.30339 0.463269
9 3 0.127686 0.324166 0.460062
1260 4 0.0976755 0.262458 0.46882
696 4 0.0886619 0.26138 0.487085
858 4 0.231823 0.275208 0.494192
487 2 0.334497 0.25608 0.428216
326 4 0.0561684 0.344103 0.463192
325 2 0.0796315 0.348314 0.455647
10 3 0.145946 0.349249 0.43873
6 1 0.13521 0.346064 0.45856
7 3 0.117131 0.360237 0.45975
327 4 0.103095 0.352525 0.448102
709 2 0.157022 0.405591 0.477279
8 3 0.149572 0.350731 0.476177
503 4 0.233793 0.379664 0.479462
502 2 0.212094 0.385592 0.49038
710 4 0.176262 0.392634 0.486614
667 2 0.322615 0.409415 0.419229
238 2 0.408277 0.377195 0.421021
882 4 0.388895 0.378679 0.490311
3309 4 0.492856 0.390461 0.463043
559 2 0.490437 0.39838 0.430056
3307 2 0.479623 0.38839 0.484157
239 4 0.425354 0.394483 0.426908
1381 2 0.0143662 0.494382 0.469829
1383 4 0.0139145 0.474491 0.454685
680 4 0.0112354 0.454452 0.452579
570 4 0.164345 0.497292 0.446718
711 4 0.137782 0.418547 0.467945
384 4 0.120564 0.415293 0.457783
569 4 0.125096 0.471938 0.428901
382 2 0.12474 0.434352 0.442146
568 2 0.144721 0.484615 0.43781
383 4 0.128917 0.45341 0.426509
1543 2 0.202593 0.493796 0.434647
1544 4 0.221884 0.48589 0.420845
634 2 0.304298 0.46763 0.418016
774 4 0.317801 0.444634 0.444543
773 4 0.290512 0.424706 0.481406
669 4 0.322779 0.429574 0.43402
635 4 0.315917 0.446809 0.42554
772 2 0.304156 0.43467 0.462975
587 4 0.433471 0.412566 0.426128
661 2 0.47942 0.480187 0.453139
663 4 0.479868 0.465484 0.432921
342 4 0.220853 0.0657852 0.525704
340 2 0.205591 0.0477844 0.517443
1152 4 0.212865 0.0837499 0.529947
341 4 0.19033 0.0297837 0.509183
2430 4 0.187074 0.0110436 0.514183
2428 2 0.16835 0.999282 0.525855
1217 4 0.396489 0.0753599 0.51955
842 4 0.378897 0.0719288 0.513688
1216 2 0.412093 0.0596294 0.507964
3007 2 0.487101 0.039322 0.576367
3009 4 0.490739 0.0481506 0.553258
1058 4 0.0877276 0.110251 0.526911
1057 2 0.0985404 0.109806 0.549451
1059 4 0.109353 0.10936 0.571991
1155 4 0.123572 0.120827 0.578288
1150 2 0.222599 0.0902846 0.552032
1151 4 0.232333 0.0968193 0.574116
1180 2 0.215364 0.145738 0.551457
1181 4 0.198045 0.129245 0.558751
1182 4 0.232682 0.162231 0.544163
1032 4 0.247225 0.0891039 0.585064
843 4 0.336807 0.098821 0.511236
841 2 0.357852 0.0853749 0.512462
576 4 0.392018 0.161533 0.52067
470 4 0.0372543 0.182054 0.516857
1199 4 0.0299886 0.22094 0.57897
1198 2 0.00798879 0.226824 0.568647
469 2 0.0174885 0.194999 0.525037
471 4 0.997723 0.207944 0.533217
695 4 0.0620145 0.229294 0.514673
694 2 0.0753382 0.245337 0.500879
1272 4 0.0859437 0.174385 0.581429
900 4 0.238916 0.178955 0.534104
947 4 0.221665 0.25424 0.557604
898 2 0.261398 0.189013 0.538415
650 4 0.289107 0.214173 0.529405
899 4 0.28388 0.199071 0.542726
649 2 0.291784 0.234396 0.514946
982 2 0.0094804 0.327148 0.569743
1244 4 0.0518173 0.251424 0.582196
1243 2 0.0439407 0.274836 0.578316
983 4 0.0160695 0.303048 0.570714
1245 4 0.0360642 0.298247 0.574436
798 4 0.234377 0.25407 0.572883
856 2 0.228205 0.263822 0.516157
857 4 0.224586 0.252437 0.538122
946 2 0.201652 0.263439 0.569437
948 4 0.181639 0.272639 0.58127
796 2 0.258466 0.260747 0.573473
651 4 0.294461 0.254618 0.500487
797 4 0.282554 0.267423 0.574063
791 4 0.294274 0.269502 0.589145
872 4 0.347058 0.283156 0.552541
871 2 0.360253 0.299871 0.565644
873 4 0.373447 0.316585 0.578748
267 4 0.355289 0.269951 0.522632
811 2 0.414465 0.330775 0.577751
813 4 0.393098 0.318884 0.582969
265 2 0.355443 0.255451 0.502263
1010 4 0.491382 0.326347 0.531087
906 4 0.49178 0.317723 0.583088
2457 4 0.498523 0.318256 0.514928
953 4 0.48321 0.300964 0.575069
984 4 0.00289126 0.351248 0.568771
3354 4 0.994957 0.369111 0.573568
504 4 0.190395 0.391521 0.501298
1190 4 0.261247 0.372165 0.568283
803 4 0.257759 0.367226 0.549542
804 4 0.293023 0.389097 0.521634
802 2 0.275391 0.378162 0.535588
930 4 0.327408 0.371402 0.566295
928 2 0.338216 0.387414 0.550421
929 4 0.349024 0.403426 0.534547
881 4 0.349387 0.390587 0.518562
880 2 0.369141 0.384633 0.504436
812 4 0.435832 0.342666 0.572533
1011 4 0.475634 0.371867 0.517647
1009 2 0.483508 0.349107 0.524367
927 4 0.433075 0.361225 0.564142
925 2 0.436821 0.385571 0.559846
3308 4 0.46639 0.38632 0.50527
926 4 0.440566 0.409916 0.555551
538 2 0.101599 0.448045 0.566646
540 4 0.111292 0.470912 0.569529
1160 4 0.117646 0.483966 0.557663
1159 2 0.138726 0.487532 0.570627
539 4 0.0919057 0.425178 0.563764
2244 4 0.0988983 0.483333 0.557631
2154 4 0.221349 0.501071 0.574708
1951 2 0.387621 0.49564 0.554305
1952 4 0.366707 0.481942 0.553929
890 4 0.347324 0.477979 0.559427
889 2 0.341393 0.470877 0.582655
1002 4 0.443735 0.414545 0.573984
1909 2 0.431225 0.489641 0.585238
1082 4 0.0555048 0.0611582 0.660161
1081 2 0.0598532 0.0741562 0.639249
1083 4 0.0642017 0.0871541 0.618336
2114 4 0.998368 0.0011845 0.610371
825 4 0.164487 0.0335819 0.660906
823 2 0.171121 0.0106579 0.653446
1031 4 0.283927 0.0585426 0.599884
1030 2 0.265576 0.0738233 0.592474
951 4 0.298372 0.0431011 0.602199
949 2 0.294128 0.0184815 0.601177
3008 4 0.483463 0.0304934 0.599475
809 4 0.479799 0.0476983 0.607864
808 2 0.472241 0.0542562 0.630778
810 4 0.464682 0.0608141 0.653691
45 3 0.45357 0.0812889 0.65384
1126 2 0.0225678 0.0955698 0.606873
1127 4 0.0463821 0.0922706 0.613741
938 4 0.0832042 0.0870542 0.62027
1271 4 0.115659 0.135153 0.590295
939 4 0.108233 0.117736 0.589726
937 2 0.0957187 0.102395 0.604998
1153 2 0.146393 0.120939 0.588504
1270 2 0.100801 0.154769 0.585862
1221 4 0.174012 0.12533 0.61768
1154 4 0.169214 0.12105 0.598719
1219 2 0.185105 0.145771 0.62686
1210 2 0.236657 0.162519 0.631341
1220 4 0.196199 0.166212 0.63604
886 2 0.292298 0.164288 0.656241
1211 4 0.259324 0.153068 0.636041
888 4 0.268099 0.159905 0.651726
1194 4 0.333939 0.166042 0.653734
1192 2 0.347949 0.150964 0.639538
1193 4 0.361958 0.135885 0.625341
3426 4 0.492103 0.133771 0.653774
3424 2 0.479323 0.113532 0.660999
878 4 0.0469531 0.231816 0.578232
877 2 0.0601358 0.210711 0.580672
879 4 0.0733185 0.189605 0.583112
1212 4 0.213991 0.17197 0.626641
887 4 0.316496 0.168671 0.660757
1137 4 0.164656 0.330034 0.614015
1135 2 0.170711 0.307525 0.604967
1136 4 0.176766 0.285016 0.595919
1064 4 0.17331 0.311669 0.664075
1063 2 0.1938 0.325961 0.663033
792 4 0.324345 0.308803 0.596352
790 2 0.309309 0.289152 0.592748
1238 4 0.312639 0.322328 0.585146
806 4 0.301237 0.324694 0.653653
952 2 0.472799 0.291186 0.595592
954 4 0.462388 0.281407 0.616115
3123 4 0.483501 0.258994 0.656747
1041 4 0.0613903 0.402449 0.635359
3264 4 0.0421907 0.401479 0.64285
3262 2 0.040739 0.383163 0.659808
3240 4 0.027087 0.41301 0.635234
1039 2 0.0830837 0.397069 0.624151
1040 4 0.104777 0.391689 0.612942
993 4 0.116998 0.375771 0.612569
991 2 0.133154 0.357156 0.616772
992 4 0.149309 0.338541 0.620974
1189 2 0.242453 0.373882 0.584685
897 4 0.16689 0.348073 0.618093
896 4 0.206494 0.369859 0.596702
895 2 0.186692 0.358966 0.607397
1172 4 0.2249 0.393056 0.609742
1191 4 0.223658 0.375599 0.601086
1171 2 0.215984 0.416413 0.609359
1239 4 0.315522 0.372114 0.581433
1237 2 0.314081 0.347221 0.58329
1206 4 0.399149 0.382759 0.616994
1204 2 0.412477 0.403544 0.620936
3238 2 0.00416396 0.422496 0.632113
1161 4 0.159807 0.491099 0.58359
1188 4 0.163304 0.476495 0.596095
1186 2 0.177771 0.46028 0.608463
1173 4 0.207068 0.439769 0.608976
1187 4 0.192237 0.444065 0.620832
891 4 0.335462 0.463776 0.605884
1205 4 0.425805 0.424328 0.624879
1911 4 0.441709 0.472611 0.600247
1000 2 0.448625 0.436193 0.585501
1001 4 0.453515 0.457841 0.597017
1269 4 0.458909 0.469689 0.611049
1267 2 0.464848 0.487592 0.627462
943 2 0.0418041 0.0247252 0.690103
944 4 0.0398312 0.049575 0.68816
1076 4 0.0509242 0.064632 0.679015
945 4 0.043777 0.999875 0.692046
1283 4 0.15665 0.0482896 0.671277
1282 2 0.152535 0.0716966 0.679046
1148 4 0.241035 0.0655821 0.696451
1090 2 0.324947 0.00202688 0.724225
1147 2 0.259376 0.048592 0.696111
1149 4 0.277717 0.0316019 0.695771
1092 4 0.331679 0.0188554 0.707001
1004 4 0.361984 0.0809901 0.728146
42 3 0.462136 0.0517036 0.674917
41 1 0.452168 0.0724343 0.674775
43 3 0.429912 0.070098 0.680909
1163 4 0.472471 0.0645502 0.691312
1162 2 0.488795 0.0544455 0.707331
44 3 0.463162 0.0861475 0.689924
1075 2 0.0564067 0.0820211 0.696124
864 4 0.0569318 0.094749 0.732726
1077 4 0.0618891 0.0994102 0.713234
1107 4 0.0744547 0.0985193 0.726862
851 4 0.0772898 0.10946 0.710284
862 2 0.0372764 0.092064 0.747946
850 2 0.0827964 0.130757 0.698397
852 4 0.0883029 0.152054 0.68651
1284 4 0.14842 0.0951035 0.686815
1105 2 0.0913507 0.0964763 0.745179
909 4 0.151219 0.10719 0.702834
1226 4 0.244145 0.0848826 0.692161
907 2 0.174041 0.10916 0.712856
908 4 0.196864 0.11113 0.722877
1227 4 0.216673 0.114827 0.721304
1225 2 0.230409 0.099855 0.706733
830 4 0.313496 0.156685 0.676673
829 2 0.322518 0.147828 0.698245
831 4 0.331539 0.138971 0.719816
1003 2 0.35275 0.102832 0.72022
1005 4 0.343516 0.124675 0.712294
3425 4 0.466542 0.0932924 0.668225
1179 4 0.0342532 0.235418 0.684047
1177 2 0.0119265 0.230148 0.693993
1073 4 0.0585007 0.213388 0.736452
1072 2 0.0810039 0.223533 0.740434
1074 4 0.103507 0.233679 0.744415
978 4 0.303751 0.197662 0.738504
1142 4 0.447996 0.187159 0.733207
1144 2 0.485036 0.177366 0.728723
1025 4 0.43431 0.17539 0.674652
1262 4 0.464831 0.209455 0.714967
1024 2 0.442124 0.18622 0.69579
1026 4 0.449937 0.19705 0.716929
1261 2 0.471243 0.231986 0.723708
1145 4 0.464929 0.19075 0.72226
1209 4 0.134641 0.269494 0.715871
1207 2 0.124103 0.257978 0.735404
821 4 0.145735 0.264197 0.699715
820 2 0.156413 0.285043 0.69096
822 4 0.16709 0.305888 0.682205
805 2 0.282462 0.318048 0.66877
807 4 0.263687 0.311403 0.683886
1263 4 0.477655 0.254518 0.732449
3263 4 0.0392873 0.364847 0.676767
1280 4 0.0518977 0.360996 0.744238
1279 2 0.0502518 0.37962 0.727638
816 4 0.0706789 0.358083 0.750293
1281 4 0.0486058 0.398245 0.711037
1065 4 0.21429 0.340253 0.661992
1028 4 0.233932 0.370006 0.716924
1066 2 0.20511 0.354065 0.735424
1068 4 0.224067 0.352377 0.719207
1027 2 0.236331 0.390419 0.702685
1029 4 0.23873 0.410831 0.688446
1067 4 0.186154 0.355753 0.751641
1018 2 0.383753 0.358222 0.718606
1020 4 0.382382 0.382448 0.71257
1019 4 0.385124 0.333997 0.724642
1983 4 0.0519028 0.4157 0.720109
1981 2 0.0609344 0.435931 0.731699
1982 4 0.069966 0.456162 0.743288
2016 4 0.15894 0.503111 0.725045
1138 2 0.252734 0.452822 0.685606
1140 4 0.245965 0.428879 0.683137
1175 4 0.206289 0.45839 0.71172
1174 2 0.185861 0.472635 0.713939
1176 4 0.165432 0.486881 0.716159
1139 4 0.259503 0.476765 0.688075
1987 2 0.301057 0.475621 0.727091
1229 4 0.314955 0.451312 0.70147
1989 4 0.310026 0.47058 0.704302
1228 2 0.327173 0.44199 0.681748
1988 4 0.292089 0.480663 0.74988
1230 4 0.339391 0.432667 0.662025
2989 2 0.00289701 0.0584094 0.786281
2990 4 0.00562241 0.0805174 0.774924
2049 4 0.119043 0.0184985 0.778022
1202 4 0.10904 0.0314449 0.791241
2047 2 0.133974 0.00797034 0.760951
1201 2 0.11178 0.0559572 0.795342
1203 4 0.114519 0.0804695 0.799444
1257 4 0.212925 0.0816007 0.775522
817 2 0.33266 0.0469619 0.820583
819 4 0.322952 0.0682719 0.829348
818 4 0.342368 0.0256519 0.811818
974 4 0.343917 0.00557291 0.809792
844 2 0.500812 0.0797553 0.797055
1113 4 0.438623 0.0357787 0.757443
1111 2 0.455498 0.0467259 0.772294
845 4 0.492096 0.0613754 0.782516
1112 4 0.472373 0.057673 0.787146
863 4 0.017621 0.089379 0.763166
833 4 0.00488326 0.101117 0.771344
832 2 6.89091e-05 0.114876 0.791659
834 4 0.995255 0.128635 0.811974
1125 4 0.0142347 0.134763 0.816608
1123 2 0.0375656 0.137662 0.825119
1106 4 0.108247 0.0944332 0.763497
911 4 0.112887 0.106776 0.824183
34 3 0.104354 0.0950423 0.784812
31 1 0.118543 0.106534 0.799131
35 3 0.106872 0.12241 0.810547
32 3 0.127683 0.0916325 0.814083
33 3 0.135666 0.116469 0.787026
840 4 0.241559 0.116847 0.813645
1255 2 0.231611 0.0920434 0.788443
1256 4 0.250298 0.102486 0.801364
1085 4 0.309162 0.0821501 0.825468
1084 2 0.296251 0.097749 0.8108
1086 4 0.283339 0.113348 0.796133
47 3 0.403256 0.15626 0.810663
48 3 0.399821 0.164493 0.774152
1023 4 0.400329 0.160542 0.831707
1208 4 0.113566 0.246463 0.754937