ITEM: TIMESTEP
2850000
ITEM: NUMBER OF ATOMS
4590
ITEM: BOX BOUNDS pp pp pp
-9.9985700000000008e+00 9.9985700000000008e+00
-9.9985700000000008e+00 9.9985700000000008e+00
-9.9985700000000008e+00 9.9985700000000008e+00
ITEM: ATOMS id type xs ys zs
1667 4 0.0139239 0.0646343 0.0524816
701 4 0.0278076 0.0792954 0.0543439
491 4 0.283309 0.0766369 0.0846511
485 4 0.417161 0.990738 0.0737331
2974 2 0.458674 0.0140563 0.0170496
745 2 0.431999 0.0682292 0.00660946
747 4 0.433597 0.0447119 0.998269
2467 2 0.4914 0.0165403 0.0622632
986 4 0.424425 0.0303655 0.00844971
2468 4 0.484821 0.00319106 0.0421712
2976 4 0.473393 0.99742 0.0285284
2975 4 0.443955 0.0306924 0.00557075
700 2 0.0415163 0.0945285 0.0686688
702 4 0.055225 0.109762 0.0829938
567 4 0.224046 0.162365 0.00368011
566 4 0.224112 0.154467 0.0530597
565 2 0.224079 0.158416 0.0283699
297 4 0.336747 0.109448 0.0214959
746 4 0.430401 0.0917466 0.0149497
558 4 0.423051 0.108124 0.00610503
771 4 0.44553 0.151598 0.0174959
555 4 0.0523763 0.225351 0.0059942
482 4 0.251516 0.253832 0.0715413
573 4 0.268634 0.244809 0.0627421
571 2 0.28008 0.250453 0.0412402
770 4 0.404158 0.179218 0.0226147
359 4 0.395111 0.194755 0.0112475
664 2 0.401436 0.211505 0.0469052
665 4 0.395771 0.194304 0.029665
666 4 0.407101 0.228706 0.0641454
323 4 0.414042 0.245795 0.0696585
358 2 0.371558 0.19828 0.00363165
623 4 0.396578 0.240054 0.0766287
769 2 0.424844 0.165408 0.0200553
3338 4 0.994822 0.267199 0.00661544
292 2 0.168119 0.321327 0.0374197
294 4 0.150767 0.315434 0.0204086
293 4 0.18547 0.327219 0.0544307
507 4 0.19301 0.326215 0.0693616
287 4 0.205736 0.331041 0.0564984
286 2 0.223662 0.323211 0.0409259
288 4 0.241589 0.315381 0.0253534
505 2 0.199512 0.309431 0.0867163
572 4 0.291525 0.256097 0.0197383
357 4 0.309291 0.262796 0.011545
355 2 0.319031 0.283598 0.00166545
956 4 0.334238 0.319737 0.00205136
1069 2 0.403148 0.310389 0.028877
955 2 0.349806 0.325351 0.0207943
1071 4 0.383325 0.325454 0.0311714
957 4 0.365374 0.330964 0.0395373
322 2 0.42165 0.262399 0.0525822
324 4 0.429258 0.279004 0.0355059
1070 4 0.422971 0.295324 0.0265826
280 2 0.453559 0.308298 0.0484792
282 4 0.441569 0.293586 0.0322013
281 4 0.465549 0.323011 0.064757
527 4 0.477254 0.329192 0.0786335
671 4 0.458049 0.334864 0.0766886
456 4 0.202525 0.391864 0.0465473
552 4 0.180036 0.339366 0.0709947
454 2 0.197536 0.368054 0.0523236
455 4 0.192547 0.344243 0.0581
1290 4 0.264811 0.398718 0.0337435
250 2 0.267152 0.409307 0.06413
1288 2 0.266277 0.380778 0.0163892
1289 4 0.267744 0.362837 0.999035
741 4 0.381884 0.337372 0.045826
739 2 0.386128 0.341802 0.0700654
328 2 0.003576 0.425926 0.0297658
329 4 0.0212388 0.433881 0.0455749
1788 4 0.0839694 0.474178 0.0786197
1786 2 0.0900758 0.493174 0.0635509
627 4 0.154907 0.487578 0.0714993
626 4 0.203883 0.484032 0.0620376
625 2 0.179395 0.485805 0.0667684
245 4 0.213411 0.464695 0.0668825
244 2 0.233523 0.458245 0.0535004
246 4 0.253635 0.451796 0.0401183
251 4 0.26606 0.417372 0.040488
272 4 0.257975 0.434104 0.0311529
271 2 0.262012 0.442347 0.00789491
1672 2 0.403741 0.429992 0.066452
853 2 0.386353 0.444069 0.0149938
1674 4 0.409634 0.431328 0.0421896
854 4 0.404923 0.44815 0.0312317
564 4 0.422766 0.444367 0.0372468
563 4 0.466667 0.467869 0.0326518
562 2 0.444717 0.456118 0.0349493
228 4 0.483505 0.479382 0.0327216
19 3 0.0633465 0.0338622 0.157473
16 1 0.0696749 0.0124002 0.163616
578 4 0.0860972 0.0339772 0.16412
577 2 0.101351 0.0533995 0.160212
579 4 0.116605 0.0728217 0.156304
580 2 0.246513 0.0614326 0.144986
582 4 0.23256 0.0800772 0.135882
581 4 0.260465 0.0427879 0.154091
490 2 0.28605 0.0540618 0.0950449
1475 4 0.302808 0.0235047 0.0927493
492 4 0.288791 0.0314867 0.105439
2722 2 0.467901 0.0577244 0.163901
2724 4 0.488332 0.0467939 0.154504
1760 4 0.49864 0.0316148 0.145387
2723 4 0.447471 0.0686549 0.173298
486 4 0.428863 0.0177831 0.114135
484 2 0.423012 0.00426054 0.0939341
476 4 0.0716966 0.112908 0.0944566
475 2 0.070574 0.13763 0.0980251
513 4 0.0546337 0.156963 0.158382
393 4 0.072034 0.163818 0.158135
477 4 0.0694514 0.162352 0.101594
237 4 0.220399 0.0930008 0.144603
235 2 0.199507 0.0948048 0.158221
738 4 0.226863 0.157039 0.0927237
628 2 0.370715 0.163074 0.153522
629 4 0.361376 0.140318 0.149039
312 4 0.352343 0.124547 0.140845
310 2 0.344444 0.10987 0.159483
2759 4 0.011756 0.176842 0.115939
2624 4 0.00607115 0.195315 0.115507
391 2 0.076693 0.18692 0.166486
737 4 0.242248 0.202316 0.107352
736 2 0.234556 0.179678 0.100038
755 4 0.24834 0.248107 0.158957
460 2 0.331512 0.228006 0.115932
461 4 0.311885 0.213015 0.112025
354 4 0.29335 0.216138 0.115571
352 2 0.279853 0.229419 0.131899
353 4 0.266356 0.242701 0.148227
630 4 0.380055 0.185831 0.158005
462 4 0.351138 0.242997 0.119839
255 4 0.363729 0.237233 0.134754
253 2 0.375929 0.220477 0.148739
622 2 0.383261 0.2426 0.0976367
624 4 0.369943 0.245147 0.118645
536 4 0.167874 0.271306 0.152164
481 2 0.236992 0.267465 0.0866538
483 4 0.222468 0.281097 0.101766
506 4 0.206014 0.292647 0.104071
537 4 0.189891 0.281801 0.108508
535 2 0.178882 0.276554 0.130336
754 2 0.234104 0.268642 0.159869
756 4 0.219868 0.289177 0.160781
301 2 0.320703 0.321222 0.138925
303 4 0.322101 0.304758 0.157691
285 4 0.312683 0.293017 0.162904
764 4 0.331652 0.287511 0.159325
284 4 0.276641 0.259162 0.155449
283 2 0.294662 0.27609 0.159177
765 4 0.358776 0.255042 0.132665
763 2 0.345214 0.271277 0.145995
12 3 0.408025 0.32145 0.116712
647 4 0.0693506 0.348217 0.154093
550 2 0.159607 0.346228 0.0836738
551 4 0.139178 0.35309 0.0963529
290 4 0.231637 0.418608 0.166378
252 4 0.268244 0.401242 0.087772
302 4 0.319305 0.337685 0.120158
609 4 0.276887 0.414787 0.100462
387 4 0.322819 0.354256 0.108367
385 2 0.347716 0.354224 0.10606
493 2 0.388835 0.386035 0.0965944
495 4 0.387128 0.362167 0.103848
386 4 0.372613 0.354192 0.103753
15 3 0.375422 0.339266 0.11317
740 4 0.390372 0.346232 0.0943047
14 3 0.407669 0.358068 0.108244
11 1 0.396977 0.341319 0.120226
13 3 0.397451 0.346258 0.142893
494 4 0.390542 0.409902 0.0893405
672 4 0.414003 0.339575 0.0998927
526 2 0.499173 0.338412 0.0863604
670 2 0.436026 0.33722 0.0882907
1791 4 0.0667677 0.489527 0.139512
1465 2 0.0831434 0.465897 0.109755
1466 4 0.078512 0.474838 0.132641
1467 4 0.0877748 0.456955 0.0868685
638 4 0.223325 0.496438 0.141926
767 4 0.231194 0.476567 0.142461
637 2 0.200155 0.498637 0.13279
766 2 0.233872 0.451942 0.145865
768 4 0.236551 0.427316 0.149269
607 2 0.298378 0.424907 0.108266
608 4 0.319869 0.435027 0.11607
659 4 0.3357 0.440732 0.104475
660 4 0.382774 0.425234 0.0977991
1673 4 0.397847 0.428655 0.0907144
658 2 0.359237 0.432983 0.101137
524 4 0.410186 0.480267 0.128907
523 2 0.403323 0.458876 0.117929
525 4 0.39646 0.437485 0.10695
1559 4 0.400372 0.497408 0.124093
595 2 0.481984 0.421561 0.164165
17 3 0.0554782 0.00488758 0.180083
2480 4 0.0370608 0.00560381 0.185179
2479 2 0.0257648 0.0266925 0.192449
380 4 0.0297155 0.060633 0.203427
2481 4 0.0144688 0.0477811 0.199718
379 2 0.0337196 0.0821368 0.191314
20 3 0.0910015 0.0125739 0.171603
674 4 0.137739 0.00702216 0.203848
673 2 0.119846 0.00117074 0.220303
450 4 0.127722 0.0753649 0.17387
1504 2 0.224943 0.00134231 0.176447
1506 4 0.242227 0.0171644 0.167723
654 4 0.258715 0.0260066 0.167067
652 2 0.282776 0.0274428 0.173715
653 4 0.306836 0.0288791 0.180363
758 4 0.337614 0.0795641 0.189276
759 4 0.36325 0.0704258 0.231229
757 2 0.350432 0.074995 0.210253
350 4 0.375693 0.0712694 0.241401
349 2 0.399166 0.0626595 0.241157
22 3 0.357848 0.0672417 0.249746
632 4 0.366844 0.0837518 0.244747
480 4 0.441873 0.0564531 0.245544
743 4 0.484879 0.065861 0.250146
333 4 0.4824 0.0851663 0.245401
511 2 0.0506738 0.137255 0.173251
512 4 0.0467139 0.117546 0.188119
381 4 0.0377237 0.103641 0.179201
448 2 0.146684 0.0908849 0.178844
449 4 0.165646 0.106405 0.183817
236 4 0.178615 0.0966089 0.171839
30 3 0.330829 0.139279 0.230061
26 1 0.345572 0.153636 0.239817
311 4 0.336545 0.0951934 0.178122
761 4 0.42095 0.168134 0.248302
521 4 0.465902 0.139392 0.211247
762 4 0.453065 0.137223 0.225635
760 2 0.437008 0.152679 0.236969
332 4 0.472003 0.130788 0.227758
331 2 0.477201 0.107977 0.236579
520 2 0.485707 0.154323 0.208085
392 4 0.0813521 0.210023 0.174837
339 4 0.0656317 0.219569 0.180086
337 2 0.0582296 0.236951 0.196464
396 4 0.997587 0.252793 0.248307
279 4 0.270301 0.22783 0.210654
277 2 0.268254 0.237148 0.187542
278 4 0.266208 0.246466 0.16443
27 3 0.333937 0.169523 0.251707
254 4 0.388129 0.203721 0.162723
28 3 0.358247 0.164245 0.223532
394 2 0.00995562 0.258773 0.227416
395 4 0.0223247 0.264753 0.206526
338 4 0.0508275 0.254333 0.212842
363 4 0.039247 0.270465 0.215746
361 2 0.0498424 0.29308 0.214532
648 4 0.0622755 0.328286 0.199407
362 4 0.0604378 0.315695 0.213317
372 4 0.0782581 0.316675 0.206451
749 4 0.0497032 0.334019 0.211709
370 2 0.0996757 0.320376 0.218811
371 4 0.121093 0.324078 0.23117
612 4 0.224829 0.305775 0.171459
611 4 0.241714 0.322899 0.215304
610 2 0.233272 0.314337 0.193382
344 4 0.229172 0.329969 0.22964
343 2 0.208905 0.324647 0.243282
729 4 0.31117 0.310951 0.173673
727 2 0.297127 0.326189 0.187665
308 4 0.323187 0.295989 0.174534
498 4 0.330994 0.278215 0.233137
307 2 0.333183 0.287763 0.195925
309 4 0.343179 0.279536 0.217316
748 2 0.0563942 0.349263 0.230364
646 2 0.0658131 0.338251 0.17675
734 4 0.126952 0.342003 0.23728
733 2 0.149695 0.333592 0.243377
417 4 0.138304 0.380353 0.216801
299 4 0.127962 0.356443 0.248694
289 2 0.210487 0.406138 0.171105
291 4 0.189337 0.393668 0.175831
416 4 0.182047 0.386943 0.193482
415 2 0.160176 0.383648 0.205142
728 4 0.283085 0.341428 0.201658
445 2 0.400298 0.378974 0.236136
446 4 0.377326 0.369753 0.239666
447 4 0.423269 0.388195 0.232606
644 4 0.423955 0.385305 0.210961
643 2 0.442416 0.397823 0.199661
645 4 0.460876 0.410342 0.188361
264 4 0.0114393 0.427513 0.240543
1757 4 0.0299722 0.43326 0.24472
412 2 0.231814 0.466567 0.228412
413 4 0.221214 0.453817 0.247127
414 4 0.242414 0.479316 0.209696
1574 4 0.314865 0.478023 0.196638
1573 2 0.298779 0.49662 0.192104
597 4 0.458714 0.423731 0.173054
229 2 0.471955 0.500382 0.225922
231 4 0.487391 0.481478 0.231356
427 2 0.0631555 0.996905 0.323366
234 4 0.00795081 0.0572325 0.294419
232 2 0.0295654 0.0452572 0.2906
233 4 0.0511799 0.0332819 0.286782
2756 4 0.995634 0.063432 0.308892
317 4 0.0676188 0.033092 0.301304
1404 4 0.0666512 0.0227218 0.288364
316 2 0.0802568 0.050878 0.313516
1402 2 0.079214 0.010971 0.270218
428 4 0.0667095 0.0130451 0.304603
2755 2 0.995571 0.086262 0.319088
318 4 0.0928948 0.0686641 0.325727
730 2 0.129961 0.0793455 0.319311
731 4 0.154861 0.077104 0.319658
693 4 0.313123 0.0589801 0.283751
691 2 0.296479 0.0755593 0.292312
24 3 0.32501 0.0614624 0.267093
25 3 0.344091 0.0326334 0.252178
21 1 0.346051 0.0525858 0.262981
23 3 0.357466 0.0496771 0.282972
351 4 0.422639 0.0540495 0.240913
479 4 0.45039 0.0357845 0.290276
478 2 0.446132 0.0461188 0.26791
2664 4 0.465688 0.0243137 0.298053
1428 4 0.447943 0.0259521 0.304063
258 4 0.434251 0.0392869 0.301928
2662 2 0.488638 0.0340725 0.299851
256 2 0.423715 0.0548967 0.318375
1426 2 0.440961 0.00309039 0.311396
732 4 0.105061 0.081587 0.318964
692 4 0.279835 0.0921385 0.300873
721 2 0.266027 0.123307 0.313666
723 4 0.277236 0.111124 0.294928
722 4 0.254818 0.135489 0.332404
29 3 0.359454 0.142055 0.254363
631 2 0.365764 0.105843 0.256408
707 4 0.366387 0.142412 0.273017
633 4 0.364684 0.127935 0.268069
706 2 0.369393 0.144204 0.297775
708 4 0.3724 0.145997 0.322532
444 4 0.0158348 0.220837 0.301634
442 2 0.0142702 0.236087 0.281882
544 2 0.126053 0.239833 0.270495
546 4 0.105658 0.225371 0.270213
403 2 0.24574 0.168544 0.339136
405 4 0.237358 0.19005 0.329523
473 4 0.226538 0.207192 0.329975
269 4 0.401237 0.230263 0.317555
268 2 0.41955 0.22024 0.331316
443 4 0.0127057 0.251338 0.26213
545 4 0.146448 0.254296 0.270777
402 4 0.161653 0.260249 0.258255
375 4 0.157366 0.328805 0.323082
400 2 0.173669 0.281824 0.262167
401 4 0.185684 0.303399 0.26608
676 2 0.175811 0.327408 0.29346
345 4 0.188638 0.319325 0.256924
677 4 0.176913 0.321619 0.269161
735 4 0.172438 0.325181 0.249474
378 4 0.295108 0.295549 0.323664
376 2 0.314082 0.302466 0.308922
377 4 0.333056 0.309383 0.29418
615 4 0.337602 0.327679 0.290578
419 4 0.409881 0.247074 0.324253
497 4 0.33556 0.299755 0.278036
496 2 0.333277 0.288985 0.255587
541 2 0.369285 0.310722 0.30067
542 4 0.390142 0.310417 0.314456
420 4 0.40314 0.295298 0.312865
543 4 0.348427 0.311026 0.286884
418 2 0.40651 0.271186 0.318559
2537 4 0.497141 0.317924 0.323471
750 4 0.0630853 0.364507 0.24902
364 2 0.0125339 0.393109 0.300297
365 4 0.0374001 0.390786 0.299092
601 2 0.0616555 0.374939 0.330513
603 4 0.0488207 0.378306 0.309321
300 4 0.0807403 0.369222 0.259063
298 2 0.104351 0.362833 0.253878
678 4 0.174709 0.333198 0.317759
510 4 0.190709 0.347782 0.318752
434 4 0.316167 0.384017 0.311407
433 2 0.308164 0.407653 0.312981
614 4 0.326236 0.376149 0.295286
613 2 0.331919 0.351914 0.292932
1756 2 0.0448785 0.444371 0.261439
1758 4 0.0597847 0.455483 0.278158
1775 4 0.0685608 0.473211 0.282979
777 4 0.0567732 0.489969 0.289968
775 2 0.0540268 0.486018 0.314504
1776 4 0.116624 0.468561 0.269979
1774 2 0.0925925 0.470886 0.276479
1436 4 0.227143 0.441099 0.262257
1435 2 0.241545 0.441602 0.28269
1437 4 0.255948 0.442104 0.303122
4 3 0.254332 0.427767 0.320789
3 3 0.271623 0.458889 0.307491
1 1 0.270245 0.444048 0.325274
436 2 0.30855 0.460746 0.297014
438 4 0.291353 0.449318 0.311115
2 3 0.290692 0.433889 0.328082
435 4 0.300161 0.431289 0.314556
1801 2 0.352469 0.497268 0.302642
437 4 0.325748 0.472174 0.282913
1802 4 0.331678 0.49042 0.290558
119 3 0.49347 0.463638 0.322561
606 4 0.164875 0.0680114 0.335513
604 2 0.184906 0.0730837 0.349593
257 4 0.413179 0.0705066 0.334822
699 4 0.364455 0.049731 0.361397
1699 2 0.35153 0.0217944 0.390762
1700 4 0.350512 0.0411962 0.375023
697 2 0.379922 0.0644487 0.348385
1701 4 0.352549 0.00239266 0.406501
698 4 0.39539 0.0791664 0.335372
2585 4 0.00395912 0.11838 0.344971
397 2 0.0762701 0.100408 0.343666
398 4 0.0572819 0.113205 0.353709
2584 2 0.0258211 0.119088 0.357084
2586 4 0.0476831 0.119796 0.369197
458 4 0.0505137 0.132454 0.384472
457 2 0.0608231 0.138359 0.406472
399 4 0.0952583 0.0876106 0.333624
600 4 0.0973106 0.163363 0.358895
605 4 0.204936 0.0781561 0.363672
248 4 0.214652 0.0959773 0.360617
247 2 0.232795 0.112294 0.355159
249 4 0.250937 0.12861 0.349701
404 4 0.254123 0.147038 0.348749
683 4 0.26489 0.133592 0.360918
682 2 0.287892 0.142539 0.364921
684 4 0.310894 0.151485 0.368923
320 4 0.317673 0.142427 0.350683
321 4 0.366227 0.149523 0.341047
319 2 0.34195 0.145975 0.345865
726 4 0.386428 0.13746 0.415767
717 4 0.377955 0.156852 0.354878
715 2 0.387367 0.151162 0.377333
716 4 0.396779 0.145471 0.399788
641 4 0.453031 0.101226 0.389525
640 2 0.477858 0.098362 0.388753
598 2 0.103728 0.185602 0.368351
599 4 0.110146 0.207841 0.377807
389 4 0.129129 0.235512 0.377212
686 4 0.117153 0.224289 0.387104
685 2 0.100269 0.2249 0.405536
275 4 0.127688 0.215034 0.373998
274 2 0.152029 0.209326 0.373684
474 4 0.182805 0.20431 0.354054
472 2 0.204672 0.205751 0.342015
276 4 0.17637 0.203618 0.37337
270 4 0.437863 0.210218 0.345077
452 4 0.456306 0.211339 0.352957
451 2 0.463282 0.217041 0.37628
453 4 0.470259 0.222743 0.399604
347 4 0.0630967 0.294436 0.385912
346 2 0.0401775 0.292213 0.395656
348 4 0.0172582 0.28999 0.4054
618 4 0.0644505 0.30573 0.369488
388 2 0.126241 0.258191 0.367089
616 2 0.0887061 0.300732 0.366043
390 4 0.123352 0.28087 0.356965
617 4 0.112962 0.295735 0.362598
374 4 0.128185 0.297481 0.348929
373 2 0.142775 0.313143 0.336005
602 4 0.0744902 0.371571 0.351705
549 4 0.0829801 0.376726 0.368364
547 2 0.0837477 0.39881 0.380064
508 2 0.206091 0.354567 0.337259
509 4 0.221474 0.361353 0.355766
335 4 0.338227 0.375667 0.40893
240 4 0.346733 0.374838 0.389875
238 2 0.355409 0.390714 0.372617
239 4 0.364084 0.40659 0.355358
587 4 0.378164 0.416664 0.363828
752 4 0.471814 0.392158 0.380005
561 4 0.478817 0.389552 0.398548
559 2 0.492216 0.376237 0.41493
751 2 0.480159 0.411239 0.366167
776 4 0.0512804 0.482068 0.33904
500 4 0.0649973 0.470025 0.346705
499 2 0.0699728 0.461793 0.369784
501 4 0.0749483 0.453561 0.392864
548 4 0.0845153 0.420893 0.391765
407 4 0.0884309 0.44027 0.397985
406 2 0.10491 0.449358 0.414449
1545 4 0.176347 0.498831 0.409528
1544 4 0.219822 0.495076 0.385102
1556 4 0.225993 0.476572 0.381995
1543 2 0.198084 0.496953 0.397315
5 3 0.264751 0.455243 0.34433
636 4 0.27226 0.493413 0.414609
1555 2 0.249154 0.483245 0.388643
1557 4 0.272316 0.489917 0.395291
586 2 0.38357 0.440592 0.358993
593 4 0.391439 0.478543 0.341217
588 4 0.388975 0.464521 0.354157
592 2 0.415379 0.485681 0.340161
594 4 0.439319 0.492818 0.339104
712 2 0.469519 0.487651 0.343397
714 4 0.487173 0.470227 0.34025
753 4 0.488504 0.43032 0.35233
117 3 0.488674 0.451927 0.357952
719 4 0.049532 0.00565078 0.472599
718 2 0.0255478 0.000816658 0.467445
369 4 0.0668888 0.00844871 0.463448
963 4 0.300984 0.0418125 0.450468
432 4 0.296658 0.0474383 0.469294
430 2 0.3097 0.0430935 0.49018
961 2 0.314472 0.0241835 0.438958
962 4 0.327961 0.00655462 0.427449
1217 4 0.394835 0.0380524 0.477902
425 4 0.347294 0.000765766 0.425369
842 4 0.388731 0.0507963 0.492125
1216 2 0.417893 0.0456014 0.483948
1218 4 0.44095 0.0531503 0.489994
260 4 0.0642557 0.163441 0.429813
459 4 0.0711325 0.144264 0.428473
467 4 0.395711 0.154104 0.416722
724 2 0.386886 0.113474 0.422811
725 4 0.387345 0.0894873 0.429855
259 2 0.0720034 0.186942 0.4334
261 4 0.0797511 0.210443 0.436987
687 4 0.0833845 0.22551 0.423967
1035 4 0.0837242 0.228367 0.442626
1033 2 0.0860309 0.24794 0.458013
466 2 0.406611 0.174954 0.425186
468 4 0.417511 0.195805 0.433649
409 2 0.403116 0.22951 0.456819
410 4 0.416461 0.209945 0.448801
515 4 0.46655 0.222751 0.418792
575 4 0.425429 0.197293 0.46305
516 4 0.431562 0.199024 0.445503
574 2 0.434218 0.189685 0.485187
514 2 0.449056 0.210887 0.432148
696 4 0.0885718 0.285167 0.482073
1034 4 0.0883376 0.267513 0.4734
1260 4 0.100759 0.281218 0.467626
1258 2 0.116433 0.300212 0.463298
1259 4 0.132107 0.319206 0.458969
9 3 0.143725 0.317928 0.436336
7 3 0.145879 0.326639 0.472834
411 4 0.389771 0.249076 0.464838
489 4 0.376363 0.261793 0.461365
488 4 0.348966 0.274953 0.421654
487 2 0.362664 0.268373 0.441509
266 4 0.386829 0.264937 0.477117
265 2 0.395776 0.287479 0.483201
267 4 0.404723 0.31002 0.489284
2457 4 0.457703 0.263516 0.505878
3308 4 0.483609 0.335639 0.487319
1011 4 0.466582 0.328373 0.494172
1010 4 0.461446 0.278639 0.493248
1009 2 0.464014 0.303506 0.49371
6 1 0.152311 0.33305 0.451699
326 4 0.089423 0.363292 0.481895
327 4 0.131406 0.342916 0.463923
325 2 0.110414 0.353104 0.472909
10 3 0.144247 0.353911 0.447409
709 2 0.144554 0.391144 0.491698
711 4 0.127057 0.399087 0.4757
8 3 0.175489 0.333144 0.450617
334 2 0.316569 0.381424 0.420019
336 4 0.294911 0.387181 0.431108
668 4 0.288936 0.399401 0.445664
882 4 0.344686 0.363739 0.489543
560 4 0.505614 0.362922 0.431312
3307 2 0.495678 0.344308 0.46721
1383 4 0.00839194 0.454186 0.47603
1381 2 0.0147465 0.478049 0.479951
568 2 0.154199 0.481598 0.435921
383 4 0.120816 0.456152 0.450483
384 4 0.138885 0.414783 0.471995
382 2 0.12985 0.435467 0.461239
408 4 0.121389 0.458445 0.430912
569 4 0.133753 0.468607 0.442115
570 4 0.174645 0.49459 0.429728
774 4 0.317538 0.451071 0.444352
635 4 0.303703 0.465734 0.441922
634 2 0.287982 0.479574 0.428266
669 4 0.299504 0.448208 0.448295
667 2 0.29422 0.423804 0.446979
773 4 0.364 0.469241 0.447786
772 2 0.340769 0.460156 0.446069
663 4 0.46984 0.494353 0.467581
2430 4 0.167154 0.0150636 0.51011
341 4 0.172724 0.0178833 0.490733
1152 4 0.204863 0.0583618 0.525256
342 4 0.210074 0.0444697 0.510704
340 2 0.191399 0.0311765 0.500719
1032 4 0.238501 0.0723786 0.578979
1150 2 0.216025 0.0684138 0.545245
431 4 0.322741 0.0387487 0.511066
841 2 0.36504 0.0486905 0.499837
843 4 0.341349 0.0465846 0.50755
1058 4 0.127947 0.103201 0.503725
1270 2 0.0898382 0.146203 0.552065
1271 4 0.0999082 0.123473 0.554729
1057 2 0.120938 0.107118 0.527405
1059 4 0.11393 0.111036 0.551084
1155 4 0.115829 0.121377 0.567025
939 4 0.100545 0.110858 0.566233
1151 4 0.227186 0.0784658 0.565234
1180 2 0.235153 0.113685 0.576323
1181 4 0.242112 0.0899575 0.572612
1182 4 0.228193 0.137412 0.580034
1199 4 0.0212292 0.206891 0.574452
879 4 0.0673831 0.184622 0.546571
1198 2 0.999339 0.213585 0.564394
877 2 0.0530876 0.195282 0.564098
1272 4 0.0797683 0.168934 0.549402
651 4 0.213608 0.23997 0.516714
858 4 0.203168 0.252303 0.504837
898 2 0.234792 0.174243 0.57486
649 2 0.225027 0.222516 0.530503
650 4 0.236446 0.205062 0.544292
899 4 0.239091 0.194551 0.56092
2456 4 0.497815 0.236536 0.518678
576 4 0.443006 0.182077 0.507324
695 4 0.0901239 0.26791 0.528983
694 2 0.0893478 0.276539 0.505528
946 2 0.173059 0.284184 0.575609
856 2 0.193027 0.265852 0.523243
857 4 0.182886 0.279401 0.541649
947 4 0.188868 0.273302 0.559583
798 4 0.204241 0.26011 0.561007
796 2 0.225168 0.266621 0.573042
503 4 0.181054 0.331887 0.507037
797 4 0.246095 0.273132 0.585077
791 4 0.256697 0.28913 0.579145
790 2 0.259717 0.313281 0.573418
2455 2 0.477759 0.250026 0.512278
710 4 0.162051 0.383202 0.507697
502 2 0.180727 0.356643 0.510531
504 4 0.1804 0.381399 0.514025
1189 2 0.23768 0.368577 0.577148
803 4 0.269809 0.362819 0.553386
804 4 0.279007 0.373806 0.505476
802 2 0.274408 0.368312 0.529431
1190 4 0.255334 0.355667 0.565029
1238 4 0.271323 0.354288 0.570101
792 4 0.262738 0.337432 0.567692
1237 2 0.291852 0.360459 0.582972
929 4 0.358555 0.378474 0.552056
881 4 0.365044 0.377883 0.532974
880 2 0.354865 0.370811 0.511258
928 2 0.345053 0.374822 0.572781
2244 4 0.11127 0.493277 0.579599
1081 2 0.0665516 0.0712858 0.633456
1082 4 0.0728095 0.060207 0.65498
1083 4 0.0602936 0.0823647 0.611932
1030 2 0.243732 0.0573564 0.59827
825 4 0.178922 0.0524825 0.66101
1031 4 0.248962 0.0423341 0.617562
824 4 0.183363 0.00313514 0.66778
823 2 0.181143 0.0278088 0.664395
951 4 0.266816 0.0354156 0.610367
949 2 0.271037 0.0152858 0.624585
3008 4 0.49916 0.0212177 0.601946
809 4 0.483604 0.0272387 0.614995
808 2 0.47262 0.0425015 0.631475
810 4 0.461635 0.0577642 0.647954
45 3 0.459871 0.0790869 0.643444
41 1 0.453058 0.073689 0.664494
1127 4 0.0440291 0.0910273 0.620914
1126 2 0.022579 0.0953588 0.608819
1128 4 0.0011289 0.0996904 0.596723
938 4 0.0658546 0.0860574 0.592352
1153 2 0.134361 0.131126 0.580689
937 2 0.0832 0.0984578 0.579293
1154 4 0.152893 0.140875 0.594353
900 4 0.230494 0.153935 0.588799
1221 4 0.170043 0.151352 0.597616
1219 2 0.194447 0.145946 0.597002
1211 4 0.241879 0.146238 0.656148
1210 2 0.23735 0.147768 0.631606
1220 4 0.218852 0.140541 0.596388
1212 4 0.232822 0.149297 0.607064
908 4 0.22558 0.138454 0.662576
1227 4 0.244368 0.130657 0.66029
1192 2 0.324632 0.159744 0.63992
1194 4 0.317215 0.158007 0.663734
3424 2 0.4941 0.0980444 0.652817
3425 4 0.473861 0.0848781 0.659314
878 4 0.038792 0.205943 0.581624
1244 4 0.0478096 0.215338 0.597909
1243 2 0.0403638 0.238468 0.603806
1193 4 0.332049 0.161482 0.616105
3123 4 0.492875 0.227974 0.641597
983 4 0.0317037 0.278604 0.598902
1245 4 0.032918 0.261597 0.609703
982 2 0.00924085 0.286788 0.591579
3263 4 0.0520052 0.329739 0.622588
948 4 0.15725 0.295066 0.591636
820 2 0.15843 0.316726 0.66583
1135 2 0.174675 0.322374 0.615187
1136 4 0.174284 0.304632 0.597573
822 4 0.168655 0.332939 0.649775
872 4 0.351511 0.288147 0.601042
871 2 0.3622 0.306358 0.614432
813 4 0.387782 0.324143 0.641601
873 4 0.37289 0.324569 0.627821
954 4 0.447738 0.297302 0.590863
952 2 0.458143 0.314726 0.605469
3262 2 0.0578864 0.353891 0.625286
1041 4 0.0704417 0.394109 0.638632
3264 4 0.0637675 0.378043 0.627983
3240 4 0.0541306 0.395097 0.629266
3238 2 0.0318338 0.40631 0.627746
3239 4 0.00953703 0.417522 0.626227
1039 2 0.0952223 0.394481 0.635321
1040 4 0.120003 0.394854 0.63201
993 4 0.12174 0.375417 0.637781
991 2 0.143034 0.36236 0.638904
992 4 0.164327 0.349302 0.640027
1137 4 0.175065 0.340115 0.632801
1064 4 0.179096 0.350025 0.648651
897 4 0.178055 0.358994 0.630348
896 4 0.206721 0.388248 0.601657
895 2 0.192388 0.373621 0.616002
1172 4 0.225463 0.392453 0.605026
1191 4 0.220027 0.381486 0.589267
1171 2 0.224281 0.417185 0.601549
1239 4 0.312381 0.36663 0.595842
930 4 0.33155 0.37117 0.593506
811 2 0.389143 0.349069 0.640186
1204 2 0.383181 0.402928 0.663729
1206 4 0.382826 0.392812 0.640866
927 4 0.384299 0.384657 0.624107
812 4 0.390503 0.373995 0.63877
925 2 0.402846 0.396379 0.612116
926 4 0.421394 0.408101 0.600125
953 4 0.468548 0.33215 0.620074
906 4 0.479201 0.343653 0.607419
540 4 0.102081 0.475506 0.585852
539 4 0.103778 0.426493 0.595631
538 2 0.10293 0.451 0.590741
1159 2 0.143819 0.487961 0.592051
1160 4 0.120381 0.479771 0.589089
1186 2 0.204322 0.473266 0.606474
1173 4 0.223099 0.441918 0.598072
1187 4 0.222209 0.45697 0.612772
1188 4 0.186435 0.489562 0.600176
1161 4 0.167257 0.496151 0.595012
1002 4 0.424256 0.427335 0.599559
1911 4 0.453922 0.490091 0.611749
1001 4 0.449628 0.468544 0.612161
1000 2 0.436942 0.44794 0.60586
1269 4 0.461359 0.47753 0.623469
1267 2 0.475518 0.479655 0.643967
943 2 0.0350484 0.0210946 0.671736
944 4 0.0523453 0.0386974 0.675753
1076 4 0.0663863 0.0520178 0.671979
1075 2 0.0685031 0.0660755 0.692548
945 4 0.0177515 0.00349188 0.667719
864 4 0.0608423 0.0757633 0.729985
862 2 0.0417866 0.0726462 0.74587
1283 4 0.170069 0.0627788 0.675889
1105 2 0.096258 0.0860725 0.741154
1149 4 0.239979 0.0387676 0.7293
1147 2 0.247405 0.0568653 0.713727
1004 4 0.328389 0.0768916 0.732634
1148 4 0.25483 0.0749631 0.698155
1092 4 0.345316 0.0113969 0.687982
42 3 0.453281 0.0508126 0.666897
43 3 0.431462 0.0813949 0.668047
1163 4 0.467701 0.0610622 0.679627
1162 2 0.484066 0.0517592 0.696083
2321 4 0.503125 0.0368653 0.731009
1077 4 0.0706199 0.0801332 0.713117
851 4 0.0734895 0.0992225 0.711234
850 2 0.0758996 0.123535 0.705918
852 4 0.0783097 0.147848 0.700602
1107 4 0.0752186 0.0877523 0.727749
1282 2 0.170289 0.0877795 0.676191
1284 4 0.170509 0.11278 0.676492
909 4 0.180447 0.129127 0.681987
907 2 0.203013 0.133791 0.672282
1225 2 0.250172 0.108506 0.67033
886 2 0.278887 0.156039 0.671104
888 4 0.255787 0.146903 0.668258
1226 4 0.255976 0.086354 0.680369
829 2 0.323628 0.145604 0.702746
830 4 0.312663 0.151102 0.680958
1005 4 0.343472 0.124532 0.734535
1003 2 0.33593 0.100712 0.733584
831 4 0.334593 0.140106 0.724534
44 3 0.467465 0.0830121 0.680113
1214 4 0.983214 0.184011 0.714857
1213 2 0.992561 0.206735 0.719486
1299 4 0.246528 0.187099 0.73684
887 4 0.301987 0.165175 0.67395
977 4 0.304825 0.213547 0.731489
976 2 0.328549 0.218529 0.725363
1298 4 0.28623 0.216228 0.728125
918 4 0.294786 0.231002 0.73635
1297 2 0.266379 0.201663 0.732482
978 4 0.352273 0.223511 0.719237
1025 4 0.398718 0.197419 0.675159
1020 4 0.371633 0.226033 0.722038
1018 2 0.379501 0.237893 0.742596
1024 2 0.416202 0.198475 0.693002
1142 4 0.441287 0.194831 0.72732
1144 2 0.474172 0.183424 0.713545
1262 4 0.448986 0.210782 0.720363
1026 4 0.433685 0.19953 0.710846
1261 2 0.448388 0.235312 0.725172
1145 4 0.452244 0.194962 0.710196
1178 4 0.000630657 0.249735 0.724475
1177 2 0.0222621 0.255255 0.713215
1179 4 0.0438935 0.260776 0.701955
1208 4 0.150803 0.265603 0.724247
1074 4 0.141848 0.257036 0.739667
1207 2 0.158964 0.280043 0.705537
821 4 0.148204 0.300513 0.681885
1209 4 0.167124 0.294482 0.686827
1072 2 0.117259 0.261428 0.740806
1130 4 0.161073 0.257347 0.737947
1073 4 0.0926708 0.26582 0.741945
806 4 0.253157 0.317285 0.710586
1263 4 0.447789 0.259841 0.72998
892 2 0.0252271 0.36679 0.738656
1279 2 0.0593418 0.408024 0.7327
1280 4 0.0572558 0.383546 0.728047
816 4 0.0668881 0.367719 0.730524
894 4 0.0502149 0.367552 0.739112
893 4 0.000239316 0.366027 0.738201
814 2 0.0894864 0.357642 0.726925
815 4 0.112085 0.347566 0.723326
942 4 0.119388 0.343937 0.741412
940 2 0.140738 0.356162 0.745873
805 2 0.236462 0.3353 0.705904
1063 2 0.195754 0.354333 0.666793
1065 4 0.212412 0.358641 0.684935
807 4 0.219768 0.353316 0.701222
1028 4 0.211042 0.377086 0.685652
1066 2 0.188373 0.371312 0.719711
1068 4 0.202309 0.364524 0.700093
1027 2 0.223834 0.39843 0.683212
1067 4 0.174436 0.3781 0.739329
1029 4 0.236627 0.419774 0.680771
1205 4 0.383535 0.413044 0.686592
1281 4 0.0614278 0.432502 0.737353
1983 4 0.0723457 0.449997 0.734756
1981 2 0.0929879 0.463295 0.73947
1176 4 0.172437 0.495397 0.729783
1175 4 0.199408 0.476928 0.691939
1174 2 0.185922 0.486163 0.710861
2016 4 0.179226 0.491868 0.74769
1140 4 0.256504 0.422841 0.678218
1138 2 0.268963 0.444446 0.679998
1139 4 0.281422 0.466051 0.681778
1987 2 0.295063 0.458542 0.726058
1229 4 0.30037 0.461012 0.688801
1989 4 0.302911 0.470661 0.705644
2028 4 0.294763 0.477118 0.689782
1228 2 0.32287 0.461552 0.67791
1230 4 0.34537 0.462092 0.667018
1268 4 0.489678 0.481781 0.664465
1101 4 0.476179 0.483277 0.677777
1099 2 0.468769 0.47165 0.698636
1100 4 0.461359 0.460023 0.719494
2168 4 0.491175 0.496343 0.676792
2989 2 0.0164641 0.0328488 0.773385
2990 4 0.00833405 0.0555965 0.766933
2991 4 0.0245941 0.0101012 0.779837
863 4 0.0227309 0.069529 0.761755
833 4 0.00857112 0.073333 0.773959
3083 4 0.00532581 0.069683 0.754622
1106 4 0.117297 0.0843927 0.754559
2049 4 0.114207 0.0169556 0.795632
1202 4 0.106631 0.0313332 0.784293
1201 2 0.114059 0.0551946 0.785088
1203 4 0.121488 0.0790559 0.785882
1085 4 0.317671 0.0630103 0.807921
960 4 0.322759 0.0712161 0.824868
819 4 0.336823 0.0668755 0.812191
817 2 0.350287 0.0480026 0.802826
818 4 0.363751 0.0291296 0.793461
974 4 0.364943 0.00947478 0.79661
845 4 0.493191 0.0676147 0.789342
2322 4 0.492943 0.0508642 0.777924
2320 2 0.498034 0.0438647 0.754466
832 2 0.0156324 0.0905981 0.790609
834 4 0.0226937 0.107863 0.80726
1125 4 0.028347 0.123632 0.818105
32 3 0.13642 0.085403 0.799828
911 4 0.13003 0.104739 0.811834
34 3 0.11657 0.0974886 0.770289
31 1 0.132524 0.103415 0.78606
35 3 0.124986 0.120906 0.798545
33 3 0.152351 0.1092 0.775485
1256 4 0.2331 0.121378 0.800174