ITEM: TIMESTEP
610000
ITEM: NUMBER OF ATOMS
4590
ITEM: BOX BOUNDS pp pp pp
-9.9985700000000008e+00 9.9985700000000008e+00
-9.9985700000000008e+00 9.9985700000000008e+00
-9.9985700000000008e+00 9.9985700000000008e+00
ITEM: ATOMS id type xs ys zs
591 4 0.00470607 0.0589258 0.0640098
1668 4 0.0658166 0.0254098 0.0905862
1475 4 0.284265 0.0117404 0.0582794
492 4 0.288125 0.0547709 0.0849047
297 4 0.30582 0.0687052 0.0383585
295 2 0.32583 0.0811016 0.0467914
985 2 0.401952 0.0398361 0.00774556
1607 4 0.396998 0.00580601 0.0315354
987 4 0.406195 0.018052 0.0192617
747 4 0.4729 0.0681729 0.999446
2974 2 0.482396 0.0299645 0.0186771
2976 4 0.488077 0.0104469 0.0332362
2468 4 0.492207 0.0134091 0.0524916
2975 4 0.476715 0.0494821 0.00411802
745 2 0.459052 0.085989 0.0102171
463 2 0.0525557 0.0821128 0.00820089
464 4 0.0647823 0.0644746 0.995372
465 4 0.0403292 0.0997511 0.0210299
422 4 0.121506 0.1176 0.00151342
566 4 0.172039 0.149887 0.0756301
358 2 0.309089 0.147658 0.0668479
360 4 0.325743 0.150337 0.0483915
296 4 0.34584 0.093498 0.0552242
557 4 0.359699 0.0934171 0.0406486
556 2 0.378337 0.108179 0.0483857
558 4 0.396976 0.122941 0.0561229
746 4 0.445204 0.103805 0.0209877
554 4 0.0840682 0.219719 0.0351905
553 2 0.0720421 0.241452 0.0323214
565 2 0.191403 0.165648 0.0769857
567 4 0.210766 0.181409 0.0783412
666 4 0.31593 0.206975 0.0188821
665 4 0.344198 0.18432 0.0533555
664 2 0.330064 0.195647 0.0361188
769 2 0.415077 0.178832 0.0529266
770 4 0.394739 0.186742 0.0407214
771 4 0.435416 0.170922 0.0651318
324 4 0.454776 0.229421 0.0565208
322 2 0.430496 0.23404 0.0603088
555 4 0.060016 0.263185 0.0294523
836 4 0.0880815 0.267679 0.99884
292 2 0.138842 0.296481 0.012606
293 4 0.141856 0.284687 0.0344467
507 4 0.152674 0.296704 0.0462236
505 2 0.17351 0.298589 0.0599165
483 4 0.209044 0.295929 0.0617635
506 4 0.194346 0.300474 0.0736095
481 2 0.227854 0.280049 0.0573825
573 4 0.266062 0.256895 0.0510871
572 4 0.298208 0.268955 0.014729
571 2 0.282135 0.262925 0.032908
482 4 0.246664 0.26417 0.0530015
323 4 0.406217 0.238659 0.0640968
1071 4 0.371127 0.270398 6.52715e-05
1069 2 0.386682 0.288088 0.00844842
1070 4 0.402238 0.305778 0.0168316
957 4 0.340481 0.334107 0.00982428
671 4 0.435501 0.322994 0.0696396
280 2 0.436269 0.318364 0.0379642
281 4 0.451557 0.324172 0.0568772
282 4 0.42098 0.312555 0.0190512
550 2 0.0707081 0.411486 0.0675583
551 4 0.0457349 0.41263 0.0670955
330 4 0.0144009 0.404063 0.0122655
288 4 0.160573 0.355529 0.0398741
552 4 0.0956812 0.410343 0.0680211
455 4 0.11256 0.401476 0.0617378
286 2 0.172248 0.352156 0.0180225
252 4 0.296208 0.417103 0.0409417
250 2 0.306487 0.404135 0.0221971
251 4 0.316766 0.391168 0.0034525
609 4 0.287966 0.416054 0.0594709
607 2 0.302831 0.412197 0.079202
741 4 0.341124 0.341876 0.0430069
739 2 0.349141 0.349519 0.065423
328 2 0.0131894 0.428913 0.0147548
329 4 0.0119778 0.453763 0.0172441
245 4 0.215753 0.46023 0.0331584
626 4 0.21455 0.460005 0.0548001
244 2 0.23094 0.448788 0.0169217
625 2 0.211542 0.455709 0.0792476
246 4 0.246127 0.437347 0.000685031
272 4 0.256424 0.454656 0.99981
563 4 0.465689 0.47806 0.0738025
228 4 0.483291 0.482699 0.081862
562 2 0.453293 0.497866 0.0649022
1666 2 0.0720193 0.0496035 0.0917566
19 3 0.0566649 0.0560663 0.147616
1667 4 0.078222 0.0737972 0.092927
450 4 0.174453 0.0523081 0.144927
448 2 0.170257 0.0760466 0.13829
449 4 0.166061 0.0997852 0.131653
654 4 0.282836 0.997819 0.161716
490 2 0.298676 0.0716091 0.100081
652 2 0.303983 0.011072 0.160179
491 4 0.309227 0.0884474 0.115258
653 4 0.325129 0.0243249 0.158643
310 2 0.415103 0.0844294 0.151899
2722 2 0.490024 0.05648 0.133892
1759 2 0.489096 0.997586 0.122601
1760 4 0.494454 0.0161785 0.138437
2723 4 0.482841 0.0787269 0.125022
2744 4 0.506066 0.0221917 0.154477
380 4 0.0306081 0.149636 0.147318
701 4 0.0847771 0.0894002 0.103037
700 2 0.102079 0.104938 0.112223
702 4 0.119381 0.120477 0.121409
476 4 0.121248 0.138211 0.131683
475 2 0.120242 0.147167 0.155006
237 4 0.178479 0.154425 0.142615
235 2 0.180636 0.129603 0.140519
236 4 0.182794 0.104781 0.138423
359 4 0.292435 0.144979 0.0853043
629 4 0.421531 0.112381 0.139105
628 2 0.413003 0.135142 0.13324
312 4 0.419158 0.0952068 0.129705
630 4 0.404475 0.157902 0.127374
254 4 0.389954 0.162218 0.114626
337 2 0.0691363 0.241319 0.147626
339 4 0.054549 0.248529 0.128642
477 4 0.119236 0.156123 0.178328
737 4 0.200379 0.194535 0.13502
736 2 0.210839 0.21377 0.122946
738 4 0.221299 0.233005 0.110872
461 4 0.302782 0.225241 0.0914337
460 2 0.323554 0.211358 0.0924112
354 4 0.285553 0.236314 0.0959489
352 2 0.277983 0.242547 0.118949
284 4 0.281323 0.241907 0.155821
353 4 0.270413 0.24878 0.14195
278 4 0.261183 0.2463 0.156167
283 2 0.301267 0.235638 0.169536
255 4 0.363673 0.197402 0.0907072
462 4 0.344326 0.197475 0.0933888
253 2 0.376814 0.17981 0.102667
765 4 0.381038 0.228085 0.151051
624 4 0.38731 0.232322 0.131414
763 2 0.36095 0.229314 0.165888
518 4 0.48829 0.237346 0.106616
536 4 0.189946 0.303884 0.123662
535 2 0.197112 0.325147 0.134695
754 2 0.266006 0.283531 0.157338
755 4 0.256157 0.262612 0.147821
756 4 0.275855 0.30445 0.166855
622 2 0.38955 0.254796 0.120687
623 4 0.391789 0.27727 0.10996
670 2 0.427589 0.312767 0.0910405
672 4 0.419678 0.30254 0.112441
528 4 0.476262 0.264061 0.130835
621 4 0.0113604 0.362543 0.133668
619 2 0.0047531 0.361178 0.109592
454 2 0.129033 0.396004 0.0797348
456 4 0.145505 0.390532 0.0977319
537 4 0.204277 0.34641 0.145727
302 4 0.312483 0.375544 0.15406
387 4 0.327535 0.375919 0.140086
385 2 0.345121 0.371213 0.122946
740 4 0.357159 0.357163 0.0878391
15 3 0.381133 0.363738 0.113945
386 4 0.362707 0.366508 0.105806
11 1 0.399953 0.368915 0.125678
13 3 0.395951 0.366732 0.148429
14 3 0.406574 0.390623 0.120846
495 4 0.409972 0.410115 0.114905
12 3 0.416831 0.354483 0.119678
596 4 0.484606 0.409338 0.157596
493 2 0.428151 0.417257 0.130516
595 2 0.466995 0.396202 0.169531
314 4 0.984271 0.434626 0.148171
637 2 0.24403 0.495074 0.140321
627 4 0.208535 0.451413 0.103695
639 4 0.233148 0.514112 0.128306
608 4 0.317697 0.408339 0.0989331
638 4 0.254911 0.476037 0.152335
523 2 0.332235 0.49898 0.0992947
525 4 0.337172 0.481037 0.115993
658 2 0.366987 0.448211 0.125154
659 4 0.374407 0.456615 0.102804
660 4 0.359566 0.439807 0.147503
226 2 0.489736 0.46237 0.0949151
494 4 0.44633 0.424399 0.146127
20 3 0.0576925 0.0651649 0.184137
16 1 0.0522231 0.0488515 0.169217
17 3 0.0297774 0.0441512 0.17102
2480 4 0.0116869 0.0457788 0.180558
18 3 0.0643125 0.0295777 0.173775
1422 4 0.00652434 0.027311 0.186534
1420 2 0.0208358 0.00755749 0.192025
578 4 0.0566367 0.0798594 0.217938
577 2 0.07887 0.0900464 0.223143
673 2 0.112436 0.0377954 0.242905
674 4 0.120164 0.0376499 0.219126
689 4 0.173313 0.0383884 0.22844
688 2 0.171868 0.0179681 0.242797
692 4 0.22077 0.08072 0.241427
690 4 0.170423 0.997548 0.257153
24 3 0.322594 0.0469493 0.234213
21 1 0.34476 0.0407208 0.231338
25 3 0.348811 0.0363367 0.20936
759 4 0.363059 0.0540089 0.215923
22 3 0.358293 0.0579949 0.238238
757 2 0.38294 0.0636106 0.204187
758 4 0.402821 0.0732123 0.192451
311 4 0.411049 0.073652 0.174093
23 3 0.349439 0.0219488 0.244149
742 2 0.47493 0.0541067 0.216075
744 4 0.493981 0.0384102 0.220055
743 4 0.455878 0.0698032 0.212095
379 2 0.0189587 0.150071 0.169437
381 4 0.00730931 0.150507 0.191557
511 2 0.0356967 0.156113 0.224057
512 4 0.0219904 0.147076 0.205199
579 4 0.101103 0.100233 0.228347
691 2 0.231675 0.0874195 0.219947
693 4 0.242579 0.0941189 0.198467
582 4 0.298176 0.088362 0.184119
580 2 0.291403 0.108016 0.170225
581 4 0.28463 0.127669 0.156331
28 3 0.295554 0.132814 0.245792
331 2 0.453295 0.147757 0.240854
333 4 0.449859 0.123372 0.236525
338 4 0.0837235 0.234108 0.16661
513 4 0.0494029 0.165151 0.242915
396 4 0.996967 0.2405 0.248829
363 4 0.0914462 0.235733 0.185261
277 2 0.244032 0.230465 0.165126
279 4 0.22688 0.214629 0.174084
285 4 0.321211 0.229369 0.183252
764 4 0.340862 0.230542 0.180725
520 2 0.483191 0.197562 0.228687
521 4 0.464261 0.181247 0.227897
332 4 0.456731 0.172142 0.245182
394 2 0.0046104 0.255114 0.230036
395 4 0.0122542 0.269729 0.211243
361 2 0.0963674 0.252589 0.203061
371 4 0.164753 0.284316 0.228807
370 2 0.1423 0.273563 0.226477
372 4 0.119848 0.262811 0.224147
748 2 0.090988 0.312553 0.227505
362 4 0.101288 0.269445 0.220861
749 4 0.0946651 0.287884 0.225748
750 4 0.0873109 0.337223 0.229261
343 2 0.230926 0.307346 0.242022
345 4 0.21112 0.320784 0.234787
344 4 0.250731 0.293909 0.249256
612 4 0.263493 0.316113 0.180417
307 2 0.325774 0.287573 0.239299
308 4 0.320787 0.26657 0.226682
526 2 0.481839 0.267056 0.155025
527 4 0.487415 0.270051 0.179214
647 4 0.0653534 0.376824 0.180298
646 2 0.0754486 0.353968 0.181221
648 4 0.0855437 0.331111 0.182143
300 4 0.103012 0.358655 0.26221
417 4 0.1567 0.389276 0.183047
415 2 0.180406 0.396957 0.181001
291 4 0.219526 0.392964 0.182587
416 4 0.204112 0.404639 0.178955
289 2 0.235979 0.406794 0.195361
610 2 0.280373 0.334507 0.181797
611 4 0.297253 0.352902 0.183177
303 4 0.317135 0.399265 0.197837
301 2 0.314809 0.387405 0.175949
729 4 0.306117 0.389483 0.210454
727 2 0.306452 0.385057 0.235061
597 4 0.449383 0.383066 0.181467
643 2 0.429226 0.381242 0.210608
644 4 0.421023 0.366948 0.229412
645 4 0.437428 0.395536 0.191805
447 4 0.426843 0.358701 0.246316
262 2 0.0123497 0.42587 0.235276
263 4 0.0259321 0.41534 0.253436
1756 2 0.083978 0.50213 0.247562
1758 4 0.107907 0.503573 0.240457
290 4 0.252432 0.420624 0.208136
768 4 0.258091 0.43697 0.195684
766 2 0.253377 0.458486 0.183851
767 4 0.248663 0.480002 0.172018
229 2 0.418802 0.491852 0.242613
231 4 0.415913 0.474354 0.260239
232 2 0.0149983 0.0513408 0.29233
233 4 0.0275687 0.0471114 0.271133
1402 2 0.0689028 0.0293248 0.275813
1404 4 0.0449112 0.0362206 0.277239
675 4 0.104708 0.0379408 0.266684
1403 4 0.0928943 0.0224291 0.274388
429 4 0.102779 0.995972 0.323502
1464 4 0.105508 0.00689888 0.273534
427 2 0.0858924 0.00807971 0.33741
723 4 0.208225 0.0718384 0.253793
1701 4 0.232061 0.0295371 0.34743
721 2 0.208994 0.0776605 0.278097
722 4 0.209764 0.0834826 0.302401
1699 2 0.251155 0.0351203 0.332283
1700 4 0.270248 0.0407034 0.317136
478 2 0.473177 0.048645 0.293385
480 4 0.453877 0.048181 0.277496
351 4 0.438361 0.0568704 0.28626
479 4 0.492477 0.049109 0.309275
391 2 0.0760051 0.172448 0.262036
392 4 0.0920875 0.162022 0.278093
249 4 0.221375 0.0937064 0.314452
247 2 0.204747 0.0940419 0.333122
403 2 0.234121 0.127876 0.296699
404 4 0.234548 0.103848 0.303602
405 4 0.233694 0.151905 0.289796
26 1 0.302621 0.154173 0.251471
27 3 0.311615 0.164229 0.232839
29 3 0.318902 0.153007 0.267962
633 4 0.351276 0.125746 0.283229
632 4 0.360107 0.104558 0.238802
631 2 0.355692 0.115152 0.261016
706 2 0.338675 0.151278 0.314372
707 4 0.338622 0.135801 0.294734
350 4 0.420169 0.0959811 0.26096
349 2 0.429265 0.0764258 0.27361
531 4 0.0046968 0.151842 0.264511
393 4 0.0599227 0.182875 0.245979
442 2 0.007199 0.247904 0.285525
443 4 0.0100416 0.250224 0.260792
546 4 0.133384 0.192303 0.266139
544 2 0.15593 0.186294 0.275127
545 4 0.178475 0.180286 0.284115
30 3 0.284951 0.166498 0.258854
717 4 0.377665 0.214694 0.331652
708 4 0.338728 0.166754 0.334011
762 4 0.468024 0.180973 0.260032
418 2 0.427549 0.24733 0.340892
761 4 0.481613 0.196854 0.305461
760 2 0.474818 0.188913 0.282746
444 4 0.00435638 0.245583 0.310258
390 4 0.0993212 0.269895 0.298985
388 2 0.0910699 0.27319 0.322357
400 2 0.201523 0.277874 0.291371
402 4 0.208593 0.298109 0.278497
401 4 0.194453 0.257638 0.304244
309 4 0.33076 0.308576 0.251916
496 2 0.314719 0.319967 0.28334
497 4 0.299776 0.315057 0.302776
498 4 0.329663 0.324877 0.263904
377 4 0.285456 0.324236 0.313632
376 2 0.281951 0.304796 0.32896
543 4 0.3781 0.311635 0.335918
615 4 0.382494 0.324387 0.320357
541 2 0.384829 0.288423 0.329506
542 4 0.391557 0.265212 0.323094
420 4 0.410676 0.258961 0.326567
364 2 0.0172034 0.359301 0.290523
365 4 0.0343095 0.372196 0.277628
601 2 0.0687186 0.386941 0.29688
603 4 0.0522117 0.381294 0.278968
2493 4 0.994291 0.331003 0.313847
366 4 9.72122e-05 0.346406 0.303418
298 2 0.126492 0.365938 0.266775
299 4 0.149972 0.37322 0.27134
602 4 0.0852256 0.392588 0.314791
734 4 0.167587 0.370664 0.26138
549 4 0.0757347 0.409492 0.321086
733 2 0.181909 0.358419 0.277816
677 4 0.182323 0.336921 0.304017
735 4 0.19623 0.346173 0.294251
676 2 0.187293 0.333863 0.32833
510 4 0.224249 0.351922 0.331481
433 2 0.317333 0.378093 0.329499
728 4 0.306788 0.380632 0.259667
613 2 0.362378 0.337483 0.313358
434 4 0.337196 0.365848 0.320517
614 4 0.342261 0.35058 0.306359
118 3 0.496269 0.414779 0.322925
445 2 0.42879 0.374273 0.265781
446 4 0.430736 0.389845 0.285247
1757 4 0.0600486 0.500687 0.254667
776 4 0.0826218 0.489013 0.338236
777 4 0.0871921 0.464274 0.295017
775 2 0.0849069 0.476643 0.316626
414 4 0.22522 0.48463 0.327021
412 2 0.209127 0.479377 0.30862
413 4 0.193034 0.474124 0.290219
436 2 0.329197 0.455598 0.311191
437 4 0.332032 0.450128 0.286958
116 1 0.496322 0.437656 0.326804
119 3 0.481268 0.448134 0.312593
713 4 0.415531 0.451693 0.32591
712 2 0.440052 0.447359 0.323645
714 4 0.464572 0.443025 0.321379
316 2 0.066614 0.0644977 0.344547
317 4 0.0652845 0.040206 0.35032
428 4 0.0690056 0.0201872 0.351318
1781 4 0.126135 0.0172506 0.412188
683 4 0.313224 0.0768022 0.363364
698 4 0.39461 0.0621899 0.358822
699 4 0.357109 0.0639384 0.325786
257 4 0.409095 0.0602963 0.345728
697 2 0.37586 0.0630642 0.342304
426 4 0.361487 0.0263077 0.406582
2642 4 0.491815 0.0713899 0.398909
256 2 0.424822 0.0414152 0.350349
258 4 0.440549 0.0225342 0.354969
2879 4 0.482294 0.0718375 0.416141
732 4 0.084622 0.0976763 0.331726
2586 4 0.0153382 0.128185 0.382796
318 4 0.0679434 0.0887894 0.338774
398 4 0.044565 0.142961 0.362748
397 2 0.0571367 0.125057 0.350641
399 4 0.0697084 0.107152 0.338535
457 2 0.0271083 0.15367 0.41569
458 4 0.0172521 0.136732 0.400161
606 4 0.133841 0.104622 0.360758
731 4 0.132771 0.108086 0.340331
730 2 0.108696 0.102881 0.336029
604 2 0.157562 0.0988048 0.366111
599 4 0.128856 0.164643 0.393925
598 2 0.141959 0.15155 0.37713
600 4 0.155061 0.138458 0.360335
605 4 0.181283 0.0929872 0.371464
248 4 0.188119 0.0943773 0.351792
682 2 0.303483 0.0839937 0.385241
684 4 0.293742 0.0911851 0.407117
320 4 0.296993 0.10346 0.421789
452 4 0.481725 0.122516 0.392728
451 2 0.464733 0.140314 0.397159
453 4 0.44774 0.158113 0.40159
306 4 0.512471 0.162046 0.424995
260 4 0.0556628 0.175488 0.437032
474 4 0.205695 0.222823 0.369905
276 4 0.188565 0.230223 0.3789
472 2 0.22728 0.212275 0.376834
473 4 0.248865 0.201728 0.383763
715 2 0.38129 0.220601 0.355676
716 4 0.384914 0.226508 0.379699
467 4 0.388106 0.21787 0.398289
466 2 0.378617 0.211992 0.420662
419 4 0.444422 0.235699 0.355217
268 2 0.470894 0.233955 0.408227
270 4 0.451867 0.219118 0.414783
347 4 0.0479933 0.3011 0.384091
346 2 0.0447336 0.292827 0.40746
618 4 0.0551579 0.305327 0.364946
616 2 0.0764725 0.315446 0.356671
389 4 0.0828187 0.276486 0.345729
274 2 0.191249 0.255005 0.380855
275 4 0.193933 0.279787 0.382809
375 4 0.206205 0.338889 0.365009
378 4 0.278447 0.285355 0.344289
488 4 0.291826 0.263135 0.414241
617 4 0.0977871 0.325565 0.348396
374 4 0.172952 0.350371 0.400549
373 2 0.189579 0.34463 0.382779
678 4 0.192263 0.330806 0.352643
508 2 0.24042 0.352041 0.35055
509 4 0.256591 0.35216 0.36962
435 4 0.29747 0.390338 0.338481
559 2 0.491269 0.397335 0.409996
561 4 0.47614 0.404724 0.391511
752 4 0.458938 0.412996 0.393493
547 2 0.077676 0.421492 0.342936
548 4 0.0796173 0.433492 0.364785
407 4 0.0739255 0.448663 0.377811
406 2 0.0826858 0.444474 0.400852
501 4 0.111561 0.492158 0.386985
1545 4 0.171743 0.502993 0.39136
570 4 0.166136 0.485578 0.399053
438 4 0.326363 0.461068 0.335423
1436 4 0.254197 0.495629 0.338487
3 3 0.323882 0.464101 0.355
5 3 0.298142 0.480322 0.37718
1 1 0.318252 0.483214 0.36689
4 3 0.334626 0.487838 0.382668
594 4 0.416701 0.470921 0.36939
592 2 0.40123 0.490273 0.366021
117 3 0.489937 0.441524 0.348562
751 2 0.449589 0.421308 0.371844
753 4 0.440241 0.42962 0.350194
2237 4 0.0515561 0.0124549 0.494803
718 2 0.0681286 0.0442364 0.487439
720 4 0.0475549 0.0327304 0.495777
719 4 0.0887023 0.0557423 0.479102
369 4 0.0826535 0.0197762 0.457657
368 4 0.107757 0.0280397 0.415204
367 2 0.0952053 0.0239079 0.43643
439 2 0.30496 0.000100243 0.423643
441 4 0.308975 0.0245786 0.426785
962 4 0.314552 0.0393092 0.439952
961 2 0.310663 0.0456869 0.463813
963 4 0.306775 0.0520645 0.487675
424 2 0.366517 0.0303236 0.430743
425 4 0.371548 0.0343395 0.454903
725 4 0.399722 0.0665704 0.464212
724 2 0.378052 0.0790313 0.463671
2878 2 0.484881 0.0876532 0.435334
459 4 0.0369646 0.170608 0.431218
685 2 0.140199 0.166983 0.438242
686 4 0.158976 0.150616 0.436067
1181 4 0.259335 0.103834 0.488621
321 4 0.251712 0.122248 0.431658
319 2 0.274352 0.112854 0.426723
1182 4 0.26993 0.151316 0.500192
1180 2 0.264633 0.127575 0.494407
726 4 0.356381 0.0914922 0.463129
2880 4 0.487468 0.103469 0.454526
640 2 0.492634 0.118451 0.480118
471 4 0.0221919 0.189361 0.493102
259 2 0.0797226 0.18223 0.436109
695 4 0.0765085 0.23872 0.469829
687 4 0.121423 0.18335 0.440417
261 4 0.103782 0.188972 0.435186
1035 4 0.110571 0.191929 0.453606
1033 2 0.117622 0.204309 0.474154
1034 4 0.124674 0.216688 0.494701
694 2 0.0904951 0.257805 0.47791
489 4 0.307606 0.233519 0.451317
411 4 0.311818 0.216821 0.46154
409 2 0.335556 0.209123 0.45998
574 2 0.388454 0.176242 0.485686
410 4 0.359294 0.201426 0.45842
468 4 0.369127 0.206113 0.443036
575 4 0.395314 0.168851 0.462806
516 4 0.414099 0.176231 0.456827
515 4 0.443291 0.156793 0.42118
514 2 0.428695 0.166512 0.439003
304 2 0.499241 0.182563 0.430399
348 4 0.0414739 0.284553 0.430829
696 4 0.104482 0.27689 0.485991
9 3 0.158344 0.315497 0.47853
857 4 0.208962 0.257782 0.489186
487 2 0.299716 0.248327 0.432779
651 4 0.244192 0.298844 0.477552
649 2 0.264479 0.284233 0.477179
650 4 0.284766 0.269623 0.476805
266 4 0.373167 0.305046 0.473382
267 4 0.390419 0.258942 0.464576
265 2 0.381793 0.281994 0.468979
583 2 0.474969 0.288658 0.477242
585 4 0.457947 0.296607 0.460743
584 4 0.491991 0.280709 0.493742
2846 4 0.0100543 0.362197 0.482644
326 4 0.083703 0.345294 0.459024
6 1 0.158596 0.338353 0.482527
327 4 0.130961 0.355686 0.471649
325 2 0.107332 0.35049 0.465337
7 3 0.149533 0.349178 0.464366
384 4 0.129804 0.434131 0.465836
10 3 0.180012 0.345471 0.485583
711 4 0.167373 0.385646 0.442478
502 2 0.248334 0.393374 0.434486
504 4 0.228624 0.406992 0.427326
709 2 0.188283 0.395206 0.432652
710 4 0.209193 0.404766 0.422825
503 4 0.268043 0.379756 0.441646
336 4 0.329215 0.388767 0.431205
669 4 0.290794 0.410502 0.463241
668 4 0.314209 0.375688 0.436031
667 2 0.302502 0.393095 0.449636
334 2 0.351562 0.377683 0.429492
335 4 0.373909 0.366598 0.427779
812 4 0.379006 0.366494 0.494618
238 2 0.404502 0.384174 0.451948
240 4 0.389762 0.366563 0.442063
239 4 0.419243 0.401786 0.461833
680 4 0.00452892 0.449283 0.440316
1383 4 0.0095023 0.463974 0.451309
679 2 0.00221556 0.425647 0.432495
1381 2 0.0157443 0.487204 0.458134
408 4 0.091446 0.440286 0.423893
382 2 0.10879 0.43174 0.4525
383 4 0.0877756 0.429349 0.439163
569 4 0.159583 0.485442 0.448629
568 2 0.162859 0.48551 0.423841
635 4 0.265626 0.438483 0.457304
772 2 0.27259 0.421533 0.487771
636 4 0.264851 0.485133 0.439307
774 4 0.27975 0.426464 0.464327
634 2 0.265239 0.461808 0.448305
882 4 0.35362 0.427308 0.463037
586 2 0.388948 0.443272 0.442747
588 4 0.383246 0.465049 0.453629
880 2 0.350832 0.442123 0.482985
587 4 0.394651 0.421494 0.431866
661 2 0.458339 0.480176 0.465055
662 4 0.465626 0.503611 0.46027
663 4 0.451052 0.456742 0.46984
1126 2 0.0199036 0.0758971 0.583524
1127 4 0.0410254 0.0703494 0.595701
1128 4 0.998782 0.0814448 0.571347
2236 2 0.0302289 0.00110654 0.501249
1031 4 0.236191 0.0630934 0.574987
340 2 0.217344 0.0648167 0.504904
341 4 0.212588 0.0405395 0.501274
2430 4 0.210942 0.0214176 0.500891
430 2 0.315649 0.0655624 0.522217
431 4 0.33047 0.0780474 0.538018
432 4 0.300829 0.0530773 0.506417
841 2 0.371417 0.0645899 0.527566
842 4 0.394903 0.0610889 0.519734
843 4 0.347931 0.0680908 0.535399
1217 4 0.394511 0.0412636 0.516886
1216 2 0.40943 0.0251197 0.528801
1218 4 0.42435 0.0089758 0.540715
938 4 0.0687057 0.166663 0.561277
937 2 0.0903176 0.158804 0.571093
939 4 0.111929 0.150946 0.580909
1059 4 0.130874 0.124747 0.576553
1057 2 0.134917 0.100133 0.574822
1151 4 0.163596 0.118359 0.512213
342 4 0.2221 0.089094 0.508534
1030 2 0.226167 0.0849255 0.568054
1152 4 0.208115 0.0965288 0.518714
1150 2 0.185856 0.107444 0.515463
1032 4 0.216144 0.106758 0.561121
899 4 0.319885 0.166363 0.579218
3159 4 0.48362 0.160446 0.531593
641 4 0.480712 0.122725 0.501677
877 2 0.0487128 0.207106 0.580245
1199 4 0.011087 0.212442 0.594966
879 4 0.0735363 0.204367 0.581455
470 4 0.0368284 0.184643 0.540686
469 2 0.0295102 0.187002 0.516894
878 4 0.0238892 0.209846 0.579035
1272 4 0.0858501 0.219497 0.581985
1270 2 0.107572 0.231605 0.584578
858 4 0.222038 0.229936 0.52861
856 2 0.2155 0.243859 0.508898
898 2 0.309806 0.183963 0.564595
900 4 0.299726 0.201562 0.549972
576 4 0.381594 0.183633 0.508566
3157 2 0.495626 0.180186 0.541151
983 4 0.0396402 0.321111 0.532118
1245 4 0.0669584 0.284353 0.570139
1258 2 0.134339 0.287061 0.491456
1259 4 0.154714 0.296055 0.480091
1260 4 0.113964 0.278068 0.502821
872 4 0.358889 0.280588 0.517556
871 2 0.360987 0.30354 0.527253
873 4 0.363086 0.326491 0.536949
982 2 0.0294412 0.337474 0.548036
984 4 0.0192422 0.353837 0.563955
3354 4 0.0115075 0.366229 0.577096
8 3 0.14587 0.343252 0.5013
1189 2 0.226668 0.378998 0.568127
1191 4 0.210874 0.398062 0.571639
1190 4 0.242461 0.359935 0.564616
803 4 0.243161 0.344766 0.550732
802 2 0.259517 0.349735 0.532484
1239 4 0.326045 0.342551 0.587142
930 4 0.326975 0.35802 0.575056
804 4 0.275873 0.354703 0.514236
813 4 0.358549 0.346944 0.535849
928 2 0.341942 0.375698 0.56564
811 2 0.368778 0.356719 0.515233
929 4 0.356909 0.393376 0.556225
926 4 0.439559 0.361308 0.53641
925 2 0.427848 0.381292 0.526996
927 4 0.416136 0.401277 0.517581
3309 4 0.478815 0.377872 0.529046
539 4 0.0583341 0.477214 0.525135
2244 4 0.122718 0.494472 0.524559
538 2 0.0831016 0.479282 0.527869
1159 2 0.147115 0.472927 0.573199
540 4 0.107869 0.481349 0.530602
1160 4 0.125698 0.460589 0.576978
1171 2 0.227623 0.434605 0.583091
1173 4 0.22865 0.45895 0.588698
1188 4 0.178296 0.500943 0.578808
773 4 0.265429 0.416601 0.511214
1002 4 0.415098 0.425314 0.571626
1951 2 0.334777 0.498856 0.585792
881 4 0.348044 0.456937 0.502934
1911 4 0.460483 0.491158 0.556882
1000 2 0.435598 0.433542 0.55991
1001 4 0.456097 0.44177 0.548195
1083 4 0.0512596 0.07071 0.613409
1081 2 0.0533419 0.0793483 0.636781
1058 4 0.13896 0.0755194 0.573092
825 4 0.124124 0.0197756 0.635457
951 4 0.249787 0.0376376 0.59473
949 2 0.273318 0.0409102 0.602525
950 4 0.296849 0.0441829 0.610319
2283 4 0.40381 0.0223093 0.643515
3008 4 0.471283 0.0504065 0.591553
809 4 0.462519 0.0658335 0.603282
808 2 0.458364 0.0750123 0.626165
42 3 0.448089 0.0711824 0.666535
1082 4 0.0554243 0.0879866 0.660152
1155 4 0.124574 0.137127 0.589705
1153 2 0.144809 0.150244 0.596312
1283 4 0.166266 0.113759 0.634051
1282 2 0.162747 0.108084 0.658146
1154 4 0.165044 0.163362 0.60292
810 4 0.454209 0.0841911 0.649049
45 3 0.460214 0.104693 0.655448
3179 4 0.98443 0.16301 0.660801
1221 4 0.180363 0.176164 0.6087
1210 2 0.247742 0.185834 0.6387
1212 4 0.241621 0.190217 0.614856
1219 2 0.202971 0.186728 0.607135
1220 4 0.22558 0.197293 0.605571
1194 4 0.322604 0.186001 0.648993
791 4 0.260695 0.253691 0.60779
1211 4 0.253863 0.18145 0.662543
888 4 0.269432 0.170529 0.670507
886 2 0.294156 0.172536 0.667368
1193 4 0.369564 0.198564 0.660725
1192 2 0.346084 0.192283 0.654859
1025 4 0.416687 0.201808 0.667084
905 4 0.500499 0.26529 0.600324
1244 4 0.0462236 0.255731 0.605517
1243 2 0.056591 0.270042 0.587828
1271 4 0.129294 0.243714 0.587171
1209 4 0.128554 0.28589 0.66281
1136 4 0.120988 0.32014 0.619149
948 4 0.14944 0.286972 0.615621
796 2 0.221237 0.259042 0.595919
946 2 0.169188 0.278552 0.602802
798 4 0.198965 0.254356 0.585565
947 4 0.188936 0.270132 0.589984
797 4 0.243508 0.263728 0.606274
792 4 0.28769 0.294926 0.599325
790 2 0.274192 0.274308 0.603557
1238 4 0.300105 0.307152 0.611116
1237 2 0.313075 0.324851 0.599129
807 4 0.325835 0.294114 0.663782
805 2 0.342903 0.309229 0.653515
954 4 0.40615 0.2962 0.603221
806 4 0.359971 0.324344 0.643249
953 4 0.441881 0.269029 0.581183
904 2 0.475535 0.265992 0.599106
906 4 0.450571 0.266694 0.597888
952 2 0.424016 0.282614 0.592202
3263 4 0.996569 0.3484 0.611744
1039 2 0.0664007 0.404052 0.626134
1041 4 0.0443253 0.396283 0.61733
3264 4 0.0268662 0.387475 0.619224
3262 2 0.0117176 0.367937 0.615484
3240 4 0.0135669 0.399843 0.612453
1040 4 0.0884761 0.411821 0.634937
993 4 0.099024 0.41159 0.617718
1137 4 0.138659 0.364974 0.605793
897 4 0.151434 0.376683 0.597262
1135 2 0.129823 0.342557 0.612471
991 2 0.119729 0.397905 0.614687
992 4 0.140435 0.38422 0.611657
1172 4 0.226596 0.41026 0.577484
896 4 0.195626 0.387719 0.576622
895 2 0.17353 0.382201 0.586942
1204 2 0.397883 0.386995 0.655052
1206 4 0.397843 0.374601 0.633336
1161 4 0.168531 0.485265 0.569421
1187 4 0.220467 0.477085 0.591179
1186 2 0.199382 0.489014 0.584994
889 2 0.301461 0.46921 0.625794
891 4 0.282767 0.473995 0.641694
890 4 0.320155 0.464426 0.609893
1952 4 0.322324 0.4833 0.600894
1230 4 0.384656 0.479087 0.654544
1269 4 0.459955 0.480486 0.619526
1267 2 0.460011 0.492454 0.641479
943 2 0.0476492 0.0508596 0.699133
945 4 0.0403904 0.0281301 0.706607
944 4 0.054908 0.0735892 0.69166
1203 4 0.127814 0.078018 0.741551
1201 2 0.117828 0.0576061 0.751982
1147 2 0.226162 0.0584062 0.726716
1149 4 0.233753 0.0347694 0.723738
1148 4 0.218572 0.0820429 0.729695
1004 4 0.395505 0.0468126 0.685236
1003 2 0.389388 0.0709101 0.687896
1163 4 0.464965 0.071207 0.681337
1162 2 0.477657 0.0514958 0.69003
2320 2 0.481691 0.0270754 0.740479
2321 4 0.49219 0.0235893 0.718055
1164 4 0.490349 0.0317846 0.698723
1076 4 0.0581434 0.0897374 0.680854
862 2 0.0212036 0.12771 0.741168
864 4 0.0422259 0.131137 0.728073
1075 2 0.053861 0.109442 0.695638
1077 4 0.0495786 0.129146 0.710423
1107 4 0.0572777 0.142188 0.722909
851 4 0.055028 0.146742 0.704551
1105 2 0.0735381 0.147822 0.741048
909 4 0.164739 0.164065 0.658611
1284 4 0.159228 0.102409 0.682242
908 4 0.184191 0.150802 0.702729
907 2 0.174465 0.157433 0.68067
1227 4 0.189695 0.14086 0.720321
1225 2 0.202314 0.120732 0.728118
1226 4 0.214934 0.100604 0.735914
829 2 0.334076 0.160367 0.703604
830 4 0.327439 0.168247 0.680822
1005 4 0.383272 0.0950076 0.690556
831 4 0.340714 0.152487 0.726386
43 3 0.434015 0.102224 0.682377
41 1 0.453093 0.0925708 0.673365
44 3 0.469819 0.0915989 0.689418
3425 4 0.475092 0.103199 0.672216
3424 2 0.496099 0.116336 0.668852
852 4 0.0550052 0.184781 0.672088
850 2 0.0550166 0.165762 0.68832
1177 2 0.0298103 0.227306 0.701353
1178 4 0.0101775 0.219198 0.714544
1179 4 0.0494432 0.235414 0.688162
1215 4 0.998269 0.227005 0.72887
1073 4 0.148163 0.228859 0.737487
887 4 0.318881 0.174542 0.66423
976 2 0.26757 0.20827 0.73875
978 4 0.244952 0.20214 0.73003
977 4 0.290188 0.2144 0.74747
918 4 0.296694 0.231629 0.747953
1262 4 0.440695 0.232777 0.711678
1142 4 0.442575 0.198013 0.714176
1024 2 0.431385 0.208755 0.686081
1141 2 0.440819 0.185198 0.735574
1026 4 0.446083 0.215703 0.705078
1261 2 0.457645 0.237551 0.729429
1072 2 0.134841 0.24856 0.745207
1207 2 0.114131 0.279937 0.682347
1208 4 0.0997082 0.273984 0.701885
821 4 0.158557 0.326312 0.698184
820 2 0.173218 0.307757 0.690061
822 4 0.187879 0.289203 0.681939
1065 4 0.237898 0.318691 0.71808
1063 2 0.249768 0.303932 0.701757
1064 4 0.261638 0.289173 0.685433
916 2 0.296208 0.256108 0.742883
917 4 0.295723 0.280588 0.737814
1263 4 0.474595 0.242324 0.74718
3123 4 0.487916 0.244318 0.667777
892 2 0.0268531 0.360525 0.706552
893 4 0.0192307 0.342729 0.690729
894 4 0.0344755 0.378321 0.722376
1280 4 0.051722 0.385067 0.731642
1279 2 0.0541646 0.409576 0.727341
816 4 0.0555515 0.367746 0.739797
1028 4 0.215565 0.369543 0.710401
1066 2 0.186953 0.386555 0.740111
1068 4 0.200802 0.373865 0.723608
1027 2 0.226442 0.382047 0.691679
1029 4 0.237319 0.394552 0.672957
1140 4 0.2549 0.402491 0.680828
1205 4 0.397923 0.399389 0.676768
1019 4 0.361961 0.384861 0.73011
1981 2 0.0593676 0.463313 0.721064
1281 4 0.0566073 0.434086 0.72304
1983 4 0.0737072 0.44337 0.716391
1982 4 0.045028 0.483256 0.725736
1138 2 0.272055 0.419802 0.686414
1139 4 0.28921 0.437113 0.692
1987 2 0.334757 0.460476 0.725262
1988 4 0.324149 0.468681 0.746365
1228 2 0.370379 0.472281 0.673909
1229 4 0.356102 0.465476 0.693275
1989 4 0.345365 0.452271 0.704159
1100 4 0.414793 0.44527 0.699285
1099 2 0.429308 0.463673 0.707994
1101 4 0.443822 0.482075 0.716703
1202 4 0.107842 0.0371941 0.762414
2049 4 0.103521 0.016528 0.762921
2047 2 0.122957 0.00125738 0.766692
817 2 0.326832 0.0620437 0.807097
818 4 0.342977 0.0437359 0.812513
974 4 0.352255 0.997675 0.784382
2322 4 0.471193 0.0305614 0.762902
845 4 0.452993 0.0739454 0.761842
911 4 0.0913579 0.134276 0.830498
863 4 0.000181265 0.124283 0.754264
833 4 0.0041719 0.111812 0.769254
34 3 0.131009 0.15773 0.797909
31 1 0.108246 0.153347 0.796892
35 3 0.104322 0.135852 0.78285
32 3 0.100759 0.147972 0.817968
1106 4 0.0897984 0.153456 0.759188
1257 4 0.22724 0.0960452 0.79557
819 4 0.310686 0.0803515 0.801681
1256 4 0.276516 0.103638 0.799437
1255 2 0.251878 0.0998414 0.797504
840 4 0.253455 0.100356 0.832592
1084 2 0.31812 0.116901 0.801149
1085 4 0.31381 0.0952532 0.812896
1086 4 0.322429 0.138548 0.789402
1113 4 0.422 0.0898734 0.817014
1112 4 0.436577 0.0850701 0.769421
1111 2 0.429289 0.0874717 0.793217
844 2 0.476804 0.0810089 0.758961
846 4 0.500616 0.0880723 0.75608
1214 4 0.0113776 0.208004 0.77323
1213 2 0.00482328 0.217504 0.75105
33 3 0.0968797 0.172163 0.789466
1130 4 0.159173 0.18738 0.777902
1129 2 0.17043 0.209627 0.776033
1131 4 0.181688 0.231875 0.774164