ITEM: TIMESTEP
2400000
ITEM: NUMBER OF ATOMS
4590
ITEM: BOX BOUNDS pp pp pp
-9.9985700000000008e+00 9.9985700000000008e+00
-9.9985700000000008e+00 9.9985700000000008e+00
-9.9985700000000008e+00 9.9985700000000008e+00
ITEM: ATOMS id type xs ys zs
2974 2 0.46318 0.0133007 0.00360309
745 2 0.437218 0.0713734 0.0102324
747 4 0.442095 0.0468542 0.00978258
2975 4 0.445304 0.0300992 0.998762
986 4 0.427854 0.0385906 0.999296
1667 4 0.026942 0.0854558 0.0679621
701 4 0.023722 0.105784 0.0682631
700 2 0.0374017 0.126015 0.0736257
566 4 0.204417 0.148655 0.0521612
565 2 0.211536 0.154773 0.0289865
297 4 0.336882 0.111943 0.0406273
295 2 0.352589 0.108054 0.0215654
556 2 0.404572 0.116586 0.00867521
558 4 0.428465 0.115041 0.01588
746 4 0.432341 0.0958925 0.0106823
555 4 0.0291481 0.251245 0.99465
738 4 0.212447 0.199919 0.0822703
770 4 0.401513 0.190748 0.0152046
359 4 0.381551 0.189876 0.0189783
664 2 0.396951 0.214798 0.0484022
665 4 0.39388 0.196324 0.0318358
666 4 0.400023 0.233273 0.0649687
323 4 0.410061 0.246674 0.0775766
358 2 0.358885 0.18871 0.00848679
769 2 0.412938 0.179039 0.996296
360 4 0.336219 0.187544 0.997995
292 2 0.139978 0.306038 0.0381349
507 4 0.172164 0.318291 0.0615414
293 4 0.158751 0.316256 0.0511091
294 4 0.121205 0.295819 0.0251606
552 4 0.157401 0.328826 0.067165
455 4 0.164709 0.334247 0.0504566
287 4 0.176764 0.32137 0.0432653
286 2 0.19358 0.316379 0.0254473
505 2 0.181209 0.300486 0.0765848
481 2 0.223887 0.263235 0.0699707
482 4 0.240578 0.248918 0.0580697
288 4 0.210396 0.311388 0.00762924
573 4 0.245838 0.251032 0.0398936
571 2 0.266674 0.256824 0.0273447
572 4 0.28751 0.262616 0.0147958
357 4 0.297881 0.262678 0.997773
956 4 0.337391 0.315063 0.00748857
1069 2 0.412614 0.308272 0.0367667
322 2 0.421142 0.261761 0.0610001
955 2 0.35616 0.322576 0.0222012
957 4 0.374929 0.330089 0.0369138
1071 4 0.39108 0.320919 0.0355227
324 4 0.432222 0.276848 0.0444236
1070 4 0.434147 0.295625 0.0380106
280 2 0.459677 0.30318 0.0638931
282 4 0.453988 0.297213 0.0402876
454 2 0.162835 0.357802 0.0422802
456 4 0.160962 0.381356 0.0341037
1290 4 0.266989 0.400385 0.0196421
250 2 0.267689 0.404554 0.0626892
1288 2 0.271027 0.378669 0.00792448
251 4 0.26357 0.408734 0.0383839
741 4 0.38561 0.334106 0.0513648
739 2 0.384274 0.340034 0.0756188
1788 4 0.07562 0.482609 0.0535722
1786 2 0.0938336 0.497639 0.0453533
626 4 0.210388 0.489892 0.0614952
625 2 0.185387 0.48976 0.0612036
245 4 0.216669 0.472174 0.0660615
244 2 0.226987 0.451034 0.0575859
246 4 0.237305 0.429895 0.0491102
272 4 0.252597 0.424892 0.0370757
271 2 0.262561 0.432426 0.0154162
1672 2 0.397269 0.438997 0.0702983
853 2 0.394462 0.43822 0.0127928
1674 4 0.406031 0.449597 0.0494163
854 4 0.409989 0.442975 0.031806
564 4 0.422143 0.456474 0.0426008
563 4 0.457221 0.480503 0.0162799
562 2 0.439682 0.468489 0.0294403
228 4 0.474663 0.481212 0.0259047
226 2 0.495161 0.479667 0.04014
1666 2 0.0305426 0.0629446 0.0782314
1668 4 0.0341432 0.0404333 0.0885007
19 3 0.0510339 0.0515267 0.159053
18 3 0.060562 0.0158438 0.150089
491 4 0.279627 0.0695895 0.0849005
490 2 0.264597 0.0507434 0.0915423
1475 4 0.247487 0.0126172 0.105898
492 4 0.249568 0.0318973 0.098184
486 4 0.39736 0.0121864 0.122458
484 2 0.420944 0.0192239 0.126871
485 4 0.444528 0.0262613 0.131283
2722 2 0.483758 0.0668193 0.150797
2724 4 0.495407 0.0446997 0.15125
1759 2 0.489146 0.0238576 0.115982
1760 4 0.487567 0.0319642 0.139582
1761 4 0.490724 0.015751 0.0923821
702 4 0.0510814 0.146246 0.0789883
476 4 0.0555142 0.151848 0.097091
475 2 0.0597897 0.161069 0.119936
737 4 0.249368 0.168328 0.0940821
582 4 0.248086 0.0889289 0.164379
628 2 0.37528 0.144999 0.158204
630 4 0.370561 0.169294 0.154643
312 4 0.385144 0.102302 0.159344
629 4 0.379998 0.120704 0.161765
2723 4 0.472109 0.0889389 0.150344
477 4 0.0640652 0.17029 0.14278
339 4 0.0374703 0.235594 0.151916
736 2 0.230907 0.184124 0.0881762
460 2 0.320943 0.229588 0.11988
461 4 0.297443 0.221757 0.116479
354 4 0.278214 0.22686 0.119638
352 2 0.271907 0.23773 0.141253
353 4 0.2656 0.248601 0.162869
623 4 0.393649 0.238385 0.0820103
254 4 0.376676 0.18858 0.154883
462 4 0.344444 0.23742 0.12328
255 4 0.354994 0.229894 0.136889
253 2 0.365835 0.209237 0.145886
765 4 0.35636 0.248889 0.136479
624 4 0.36316 0.239787 0.121623
622 2 0.378404 0.239086 0.101817
483 4 0.207196 0.277551 0.0818716
506 4 0.190255 0.28268 0.0916282
537 4 0.194044 0.285337 0.11242
535 2 0.191178 0.296624 0.134547
536 4 0.188313 0.307911 0.156673
755 4 0.250026 0.260491 0.164731
301 2 0.318934 0.312815 0.146169
302 4 0.314437 0.325469 0.125078
303 4 0.323431 0.300161 0.16726
764 4 0.335566 0.283026 0.166528
763 2 0.345963 0.265957 0.151503
12 3 0.405388 0.326254 0.130926
281 4 0.465366 0.309147 0.0874985
671 4 0.45855 0.323779 0.0980427
527 4 0.474969 0.315066 0.103734
670 2 0.436351 0.332263 0.105814
526 2 0.49985 0.315102 0.10126
647 4 0.0560048 0.352352 0.158399
550 2 0.140674 0.335533 0.084497
551 4 0.123947 0.342241 0.101829
289 2 0.230184 0.400112 0.161905
290 4 0.251187 0.413105 0.158003
387 4 0.317859 0.339178 0.110226
252 4 0.271808 0.400375 0.0869944
609 4 0.276964 0.399574 0.10536
607 2 0.300513 0.404519 0.112156
385 2 0.342086 0.344885 0.107846
493 2 0.383261 0.387831 0.101244
495 4 0.385259 0.363167 0.104835
386 4 0.366313 0.350592 0.105466
15 3 0.371549 0.336153 0.118687
740 4 0.382939 0.345962 0.0998728
672 4 0.414152 0.340747 0.113586
14 3 0.401335 0.357862 0.110997
11 1 0.391368 0.343996 0.126707
13 3 0.38786 0.355648 0.146464
1791 4 0.044006 0.491982 0.132325
1466 4 0.0544533 0.47723 0.122626
1465 2 0.0736912 0.464883 0.112495
1467 4 0.0929291 0.452536 0.102365
638 4 0.234058 0.480528 0.125167
766 2 0.237992 0.451651 0.146121
768 4 0.252807 0.432899 0.153476
767 4 0.223178 0.470403 0.138766
608 4 0.324062 0.409464 0.118951
659 4 0.326816 0.430041 0.117517
494 4 0.381263 0.412494 0.0976522
660 4 0.374932 0.43077 0.103912
1673 4 0.388508 0.428397 0.0911804
658 2 0.350874 0.430406 0.110714
1559 4 0.385497 0.486578 0.137106
524 4 0.401015 0.473648 0.140549
523 2 0.395112 0.459206 0.12101
525 4 0.38921 0.444764 0.101471
595 2 0.471345 0.441674 0.164317
596 4 0.486323 0.449417 0.145855
16 1 0.0536388 0.0299445 0.167166
17 3 0.0333984 0.0225236 0.175192
2480 4 0.0139692 0.0178678 0.181368
2479 2 0.000584183 0.0368757 0.190572
20 3 0.0689189 0.0297824 0.184052
1422 4 0.0121108 0.998701 0.187215
2481 4 0.987199 0.0558836 0.199777
578 4 0.068671 0.051464 0.174209
380 4 0.000386435 0.071175 0.199318
577 2 0.0854982 0.0697841 0.176739
689 4 0.169662 0.0144204 0.22503
674 4 0.155499 0.026554 0.235115
673 2 0.139704 0.00887898 0.24307
1506 4 0.254416 0.020337 0.179964
581 4 0.294588 0.0775166 0.149955
654 4 0.258204 0.0388703 0.182637
580 2 0.271337 0.0832227 0.157167
652 2 0.276314 0.0416411 0.199652
653 4 0.294424 0.0444119 0.216667
25 3 0.335888 0.0450853 0.250163
758 4 0.348628 0.0757393 0.196543
759 4 0.350633 0.0632047 0.244912
757 2 0.349631 0.069472 0.220728
311 4 0.361341 0.0665378 0.184939
379 2 0.00965044 0.0936017 0.193284
511 2 0.0472336 0.148273 0.180695
512 4 0.0314176 0.129156 0.177603
381 4 0.0189144 0.116028 0.187251
513 4 0.0630496 0.167391 0.183786
450 4 0.119355 0.100599 0.177732
579 4 0.102325 0.0881042 0.179268
448 2 0.143671 0.103752 0.182628
393 4 0.0779051 0.165137 0.196504
237 4 0.230537 0.0999254 0.164605
235 2 0.206216 0.104068 0.168669
236 4 0.181896 0.108211 0.172732
449 4 0.167986 0.106905 0.187525
28 3 0.314085 0.139468 0.229363
26 1 0.3268 0.152838 0.243433
30 3 0.314997 0.171426 0.249251
310 2 0.373242 0.0844197 0.172141
27 3 0.345947 0.159176 0.232371
521 4 0.49416 0.122438 0.210321
762 4 0.480672 0.122849 0.225378
760 2 0.456739 0.127787 0.23067
761 4 0.432806 0.132726 0.235962
337 2 0.0418455 0.243786 0.175131
391 2 0.0981531 0.179677 0.194562
392 4 0.118401 0.194217 0.192619
279 4 0.267225 0.215896 0.213492
277 2 0.263514 0.233501 0.196128
278 4 0.259803 0.251105 0.178765
394 2 0.0100626 0.259837 0.231974
395 4 0.0253039 0.27202 0.21634
338 4 0.0462207 0.251978 0.198346
363 4 0.0377556 0.269096 0.201728
361 2 0.0479427 0.291771 0.204421
749 4 0.0497573 0.326977 0.218596
648 4 0.0617163 0.330558 0.203043
362 4 0.0581297 0.314446 0.207113
372 4 0.0771414 0.319619 0.201359
370 2 0.10096 0.317695 0.208719
371 4 0.124778 0.315772 0.21608
734 4 0.133695 0.319917 0.232383
754 2 0.242938 0.283408 0.171784
756 4 0.235851 0.306325 0.178836
611 4 0.238687 0.320638 0.23917
610 2 0.243494 0.317833 0.214794
612 4 0.248301 0.315029 0.190418
284 4 0.27851 0.255637 0.177164
283 2 0.298459 0.270653 0.175855
285 4 0.318409 0.285669 0.174545
308 4 0.33108 0.291607 0.182185
729 4 0.314485 0.301795 0.184992
727 2 0.300505 0.319555 0.195684
728 4 0.286526 0.337316 0.206376
307 2 0.343018 0.285355 0.203246
309 4 0.354957 0.279103 0.224307
498 4 0.342547 0.282182 0.240167
748 2 0.0574171 0.335441 0.240841
646 2 0.0588605 0.341455 0.180721
417 4 0.157424 0.39988 0.201602
291 4 0.209181 0.387118 0.165806
416 4 0.188188 0.387391 0.164208
415 2 0.172806 0.393635 0.182905
446 4 0.392631 0.357448 0.236944
445 2 0.414171 0.365638 0.227241
447 4 0.43571 0.373829 0.217538
644 4 0.440643 0.393099 0.219999
643 2 0.455032 0.408097 0.2061
1757 4 0.0347569 0.452937 0.243142
414 4 0.235053 0.471311 0.219169
412 2 0.230319 0.459141 0.240492
645 4 0.469421 0.423096 0.192201
597 4 0.456367 0.43393 0.18278
229 2 0.463014 0.481137 0.226499
231 4 0.480163 0.463189 0.229489
2755 2 0.00609948 0.071434 0.314763
234 4 0.0247725 0.0500038 0.283496
232 2 0.0484636 0.0450215 0.289748
233 4 0.0721548 0.0400392 0.295999
2756 4 0.0111348 0.062358 0.292016
2478 4 0.00887095 0.0550592 0.274448
1404 4 0.0803259 0.022396 0.293965
1403 4 0.106792 0.997055 0.259935
317 4 0.0892521 0.0359749 0.30532
428 4 0.0866403 0.0175956 0.311948
316 2 0.0961142 0.0584735 0.3138
1402 2 0.093559 0.00972541 0.27695
318 4 0.102976 0.0809721 0.32228
427 2 0.0946232 0.00415173 0.33146
606 4 0.160772 0.0839274 0.339303
693 4 0.265297 0.0594247 0.230185
691 2 0.262196 0.0773388 0.24735
24 3 0.330087 0.0571056 0.285369
350 4 0.367163 0.0764933 0.251337
21 1 0.346019 0.0506468 0.269786
23 3 0.358116 0.032564 0.277853
22 3 0.360426 0.0682102 0.266163
349 2 0.391952 0.0759773 0.254567
480 4 0.428121 0.0596281 0.262577
351 4 0.41674 0.0754614 0.257798
479 4 0.453816 0.0247109 0.287502
478 2 0.440968 0.0421695 0.275039
2664 4 0.472463 0.0152558 0.290904
1428 4 0.455424 0.0130875 0.299436
258 4 0.445437 0.0269745 0.306883
2662 2 0.495706 0.0241887 0.288633
256 2 0.437162 0.0358395 0.328749
397 2 0.0774027 0.108484 0.336626
731 4 0.16216 0.0988589 0.326346
730 2 0.137912 0.0967713 0.320616
732 4 0.113663 0.0946837 0.314886
399 4 0.093952 0.0976312 0.321345
721 2 0.260879 0.10149 0.307334
692 4 0.259095 0.095253 0.264515
723 4 0.263041 0.0930891 0.283883
722 4 0.258717 0.109891 0.330784
29 3 0.332716 0.140941 0.262455
632 4 0.363473 0.0888481 0.262172
631 2 0.350929 0.109572 0.268364
707 4 0.334491 0.150375 0.274494
633 4 0.338384 0.130295 0.274556
706 2 0.342123 0.161499 0.295546
443 4 0.00565274 0.254249 0.261343
546 4 0.148092 0.194004 0.261834
544 2 0.167593 0.20894 0.257166
545 4 0.187094 0.223876 0.252497
402 4 0.176708 0.240021 0.256238
708 4 0.349755 0.172623 0.316598
419 4 0.408929 0.232395 0.320926
442 2 0.00471313 0.258367 0.285988
444 4 0.00377351 0.262485 0.310632
733 2 0.155198 0.31372 0.243538
299 4 0.129954 0.326292 0.251461
344 4 0.235097 0.310072 0.256094
343 2 0.211243 0.306578 0.262724
400 2 0.179397 0.263023 0.265663
401 4 0.182085 0.286026 0.275088
676 2 0.168594 0.310077 0.297369
345 4 0.187389 0.303083 0.269355
677 4 0.169492 0.302167 0.273667
735 4 0.1767 0.307524 0.254692
678 4 0.167696 0.317988 0.321071
510 4 0.176429 0.335201 0.316677
378 4 0.27399 0.250352 0.309203
376 2 0.289264 0.268599 0.301525
496 2 0.329103 0.288839 0.260171
497 4 0.315659 0.295496 0.280174
377 4 0.304537 0.286845 0.293848
541 2 0.376036 0.295798 0.291278
542 4 0.389204 0.274806 0.287943
420 4 0.410056 0.271818 0.290181
543 4 0.362868 0.31679 0.294614
615 4 0.347819 0.32514 0.284428
418 2 0.409493 0.252107 0.305554
364 2 0.013292 0.378202 0.29723
365 4 0.0367957 0.386287 0.299949
601 2 0.046998 0.408214 0.333211
603 4 0.0480552 0.398686 0.310119
750 4 0.065077 0.343905 0.263087
298 2 0.107417 0.332986 0.259972
300 4 0.0848798 0.339679 0.268484
508 2 0.185679 0.357924 0.321504
509 4 0.194929 0.380646 0.326331
434 4 0.318253 0.378664 0.318943
614 4 0.327874 0.366698 0.303816
613 2 0.337847 0.345919 0.294122
1758 4 0.075546 0.478287 0.257083
1756 2 0.0551515 0.465612 0.250112
264 4 0.0224897 0.444895 0.255852
776 4 0.0591776 0.479138 0.326252
775 2 0.0640763 0.491227 0.30492
1775 4 0.0768996 0.497181 0.266237
413 4 0.225586 0.44697 0.261814
1436 4 0.227335 0.427262 0.266968
1435 2 0.239 0.428414 0.289054
1437 4 0.250664 0.429565 0.31114
4 3 0.266068 0.426048 0.323884
3 3 0.282535 0.459564 0.31682
1 1 0.27426 0.445572 0.333377
436 2 0.324903 0.456072 0.327838
1801 2 0.370598 0.491843 0.318087
1802 4 0.351624 0.481279 0.330479
437 4 0.349247 0.461481 0.326021
119 3 0.499092 0.465032 0.321112
604 2 0.184406 0.0759415 0.340989
605 4 0.20804 0.0679556 0.342674
248 4 0.218392 0.077562 0.357066
441 4 0.328891 0.000180839 0.403401
1701 4 0.344674 0.00452918 0.392137
699 4 0.361116 0.0481046 0.351901
698 4 0.410403 0.0454274 0.343879
1699 2 0.344508 0.0256326 0.378728
1700 4 0.344341 0.0467361 0.36532
697 2 0.38576 0.046766 0.34789
725 4 0.410919 0.10018 0.424721
257 4 0.428886 0.0447044 0.350614
2585 4 0.00346868 0.0903713 0.355038
398 4 0.0608534 0.119336 0.351908
2584 2 0.0235659 0.104903 0.35822
2586 4 0.0436631 0.119434 0.361402
458 4 0.0405479 0.125606 0.379699
457 2 0.0405108 0.135668 0.402589
600 4 0.119466 0.139405 0.36142
598 2 0.119875 0.162973 0.369758
247 2 0.236163 0.0949095 0.354161
403 2 0.250531 0.148138 0.337724
249 4 0.253934 0.112257 0.351257
404 4 0.261044 0.125622 0.340502
683 4 0.272641 0.120138 0.354072
682 2 0.293543 0.124453 0.367098
684 4 0.314444 0.128767 0.380125
320 4 0.326409 0.144098 0.370554
319 2 0.337447 0.158312 0.353196
724 2 0.392473 0.105966 0.408863
717 4 0.397343 0.167292 0.345585
726 4 0.374027 0.111753 0.393006
321 4 0.348486 0.172525 0.335838
715 2 0.389582 0.170227 0.369172
716 4 0.38182 0.173162 0.392758
599 4 0.120285 0.186542 0.378096
389 4 0.125356 0.220152 0.377083
686 4 0.120318 0.204869 0.387289
685 2 0.103506 0.202282 0.405615
275 4 0.132788 0.200621 0.376456
274 2 0.157387 0.202044 0.372207
388 2 0.11789 0.242723 0.369337
473 4 0.226355 0.185113 0.339065
405 4 0.240018 0.170653 0.334946
474 4 0.180736 0.204219 0.346451
472 2 0.203546 0.194666 0.342758
276 4 0.181986 0.203466 0.367959
467 4 0.392705 0.169806 0.408336
269 4 0.405346 0.229543 0.339148
270 4 0.450507 0.225583 0.360255
452 4 0.459415 0.238022 0.374813
268 2 0.427926 0.227563 0.349702
451 2 0.462416 0.2239 0.395227
453 4 0.465416 0.209777 0.415641
347 4 0.0692823 0.319419 0.397212
618 4 0.0891925 0.315236 0.396322
346 2 0.0464495 0.329213 0.400024
375 4 0.151928 0.312867 0.331526
616 2 0.099833 0.299416 0.380146
390 4 0.110424 0.265294 0.361591
617 4 0.110473 0.283595 0.36397
374 4 0.125493 0.277639 0.355212
373 2 0.13871 0.295253 0.343369
348 4 0.0236167 0.339007 0.402837
549 4 0.0558424 0.408688 0.37097
433 2 0.298778 0.390498 0.329231
435 4 0.279303 0.402332 0.339519
334 2 0.321923 0.371789 0.408565
238 2 0.37138 0.388085 0.381214
239 4 0.385147 0.401913 0.36558
587 4 0.388664 0.418066 0.353319
335 4 0.340807 0.361616 0.395718
240 4 0.357613 0.374257 0.396848
752 4 0.468542 0.401433 0.382624
561 4 0.475326 0.385635 0.393229
559 2 0.49187 0.379311 0.410879
602 4 0.0459408 0.417742 0.356304
500 4 0.0605141 0.494725 0.337969
499 2 0.0661217 0.483898 0.359798
547 2 0.0634729 0.427272 0.385855
501 4 0.0717293 0.473072 0.381627
548 4 0.0711033 0.445857 0.400741
407 4 0.0808903 0.460394 0.393816
406 2 0.100959 0.462579 0.408568
636 4 0.297543 0.4936 0.413931
438 4 0.30056 0.450663 0.329655
5 3 0.257715 0.456135 0.344924
2 3 0.291348 0.440219 0.347816
1557 4 0.288377 0.493282 0.395623
586 2 0.398428 0.437615 0.365472
593 4 0.400623 0.47512 0.370694
588 4 0.408191 0.457163 0.377626
751 2 0.477854 0.418872 0.367315
592 2 0.417206 0.490384 0.359868
712 2 0.467012 0.490837 0.337304
714 4 0.486053 0.474632 0.33749
753 4 0.487166 0.43631 0.352005
117 3 0.484 0.458467 0.354902
1772 4 0.00439441 0.999486 0.442556
720 4 0.0155542 0.0107049 0.454746
369 4 0.0797117 0.0158197 0.464245
719 4 0.0621272 0.0152207 0.472389
718 2 0.0388407 0.0129628 0.463567
1781 4 0.121372 0.011806 0.429973
367 2 0.0949648 0.0217799 0.445351
368 4 0.110218 0.0277401 0.426456
341 4 0.188406 0.00583922 0.516859
962 4 0.3314 0.00737624 0.422948
961 2 0.326251 0.0278414 0.436359
963 4 0.321102 0.0483066 0.44977
432 4 0.305402 0.05904 0.458163
430 2 0.315293 0.0629179 0.480797
431 4 0.325184 0.0667958 0.503431
1216 2 0.411051 0.0626808 0.489661
1218 4 0.422905 0.0679746 0.468292
459 4 0.0404738 0.145731 0.425478
640 2 0.484137 0.0983691 0.430285
641 4 0.460322 0.103368 0.436033
260 4 0.0365374 0.164264 0.429976
259 2 0.0567408 0.178458 0.433914
1033 2 0.0782018 0.231633 0.452265
261 4 0.0769442 0.192653 0.437852
687 4 0.0866938 0.199696 0.423941
1035 4 0.0755318 0.211029 0.438355
488 4 0.314934 0.249505 0.421665
487 2 0.330516 0.244434 0.44055
466 2 0.400993 0.180339 0.429444
468 4 0.409282 0.190872 0.450552
411 4 0.362141 0.23358 0.467643
409 2 0.3824 0.21924 0.464618
410 4 0.402658 0.204901 0.461592
266 4 0.351934 0.241512 0.478885
489 4 0.346097 0.239362 0.459436
575 4 0.412627 0.208082 0.477574
516 4 0.419585 0.206076 0.459124
574 2 0.425095 0.19431 0.49431
514 2 0.438324 0.214589 0.444927
515 4 0.457063 0.223102 0.43073
696 4 0.0671311 0.25426 0.481052
2847 4 0.0150722 0.321305 0.437833
2802 4 0.0151334 0.306283 0.42376
325 2 0.0824769 0.340946 0.47409
1034 4 0.0808717 0.252238 0.466175
326 4 0.0605037 0.352055 0.478442
1260 4 0.0775915 0.269132 0.474128
1258 2 0.0937801 0.287896 0.470807
1259 4 0.109969 0.30666 0.467486
9 3 0.126091 0.303811 0.447857
7 3 0.119591 0.317086 0.482414
6 1 0.128731 0.322088 0.461906
327 4 0.10445 0.329837 0.469737
8 3 0.151291 0.326751 0.464683
265 2 0.351803 0.260311 0.49537
2457 4 0.46408 0.268791 0.50526
1011 4 0.462196 0.326377 0.478073
3308 4 0.480815 0.333323 0.47316
1009 2 0.457664 0.302761 0.484924
2845 2 0.00293071 0.339366 0.450144
10 3 0.118069 0.340214 0.453162
336 4 0.303038 0.381962 0.421412
668 4 0.309155 0.400169 0.427965
3307 2 0.494665 0.348645 0.459068
1381 2 0.0120253 0.48977 0.456381
569 4 0.133558 0.465353 0.436719
383 4 0.117756 0.451526 0.435427
711 4 0.1233 0.404113 0.484716
568 2 0.150044 0.483822 0.440225
709 2 0.146176 0.407657 0.494167
384 4 0.127807 0.419291 0.472314
408 4 0.121029 0.464764 0.42332
382 2 0.122781 0.435408 0.45387
570 4 0.166531 0.502291 0.44373
669 4 0.316214 0.446758 0.44471
634 2 0.312697 0.478139 0.42644
635 4 0.32785 0.462677 0.43895
667 2 0.312685 0.423464 0.436337
774 4 0.330807 0.453059 0.455479
772 2 0.348408 0.446175 0.47185
773 4 0.366008 0.439291 0.488222
663 4 0.507654 0.483386 0.459448
1152 4 0.208939 0.0527107 0.523516
342 4 0.189211 0.0553342 0.523952
340 2 0.188808 0.0305867 0.520406
1150 2 0.221573 0.0697027 0.536814
1217 4 0.399198 0.0573869 0.51103
842 4 0.38344 0.0476574 0.517953
841 2 0.362192 0.0606649 0.515829
843 4 0.340944 0.0736724 0.513705
3007 2 0.491819 0.0581151 0.57543
1271 4 0.0936907 0.138269 0.573304
1058 4 0.0768681 0.117 0.513287
1057 2 0.08743 0.123352 0.535042
1059 4 0.0979918 0.129704 0.556797
1155 4 0.111729 0.131493 0.567042
939 4 0.0982482 0.119874 0.574241
1153 2 0.134875 0.140886 0.565949
1154 4 0.158022 0.150279 0.564857
1221 4 0.167298 0.159599 0.581756
1151 4 0.234206 0.0866947 0.550112
1180 2 0.22624 0.122238 0.557706
1181 4 0.229085 0.0984322 0.564803
1182 4 0.223394 0.146044 0.550609
900 4 0.224098 0.161685 0.564314
1031 4 0.289264 0.0827362 0.580626
1032 4 0.253371 0.0903697 0.546654
1030 2 0.271317 0.0865529 0.56364
1198 2 0.0124821 0.231346 0.559612
1199 4 0.0361224 0.23159 0.567752
878 4 0.0434666 0.227979 0.585293
695 4 0.0750917 0.237485 0.527484
694 2 0.0711114 0.245873 0.504268
898 2 0.241796 0.177548 0.556547
649 2 0.24818 0.222078 0.519734
651 4 0.233748 0.237943 0.506881
899 4 0.259494 0.193411 0.54878
650 4 0.262612 0.206213 0.532588
576 4 0.437563 0.180539 0.511045
2456 4 0.496449 0.230678 0.504649
856 2 0.211215 0.264246 0.535643
857 4 0.196737 0.277905 0.550774
947 4 0.195519 0.273652 0.5697
946 2 0.184556 0.293843 0.579564
858 4 0.225694 0.250586 0.520511
267 4 0.351671 0.27911 0.511855
1010 4 0.453131 0.279145 0.491774
2455 2 0.480265 0.249735 0.504955
502 2 0.197469 0.392799 0.52014
503 4 0.213365 0.373568 0.52177
710 4 0.169052 0.411201 0.503618
504 4 0.181573 0.41203 0.51851
803 4 0.271633 0.359773 0.564755
804 4 0.281392 0.355714 0.515877
802 2 0.276512 0.357743 0.540316
1190 4 0.266534 0.353499 0.584384
882 4 0.373929 0.350902 0.514991
928 2 0.351017 0.38814 0.583614
929 4 0.36492 0.393591 0.563559
881 4 0.364646 0.390557 0.544008
880 2 0.369288 0.370729 0.529499
1002 4 0.436954 0.414891 0.579191
539 4 0.121042 0.425742 0.551631
540 4 0.119062 0.47564 0.55427
2244 4 0.10709 0.488127 0.562812
538 2 0.120052 0.450691 0.55295
1160 4 0.12571 0.493819 0.558358
1159 2 0.145972 0.495154 0.572948
1953 4 0.419425 0.504573 0.530134
1909 2 0.444066 0.491522 0.564278
1910 4 0.42953 0.502029 0.546857
1081 2 0.078829 0.0677857 0.639421
1083 4 0.0791795 0.0721711 0.614808
1126 2 0.0375473 0.0782703 0.60612
1127 4 0.0603603 0.0812918 0.615899
1128 4 0.0147343 0.0752487 0.596342
3477 4 0.99773 0.0822314 0.602563
951 4 0.288405 0.0646488 0.588471
949 2 0.295603 0.0489962 0.606593
950 4 0.3028 0.0333436 0.624714
3008 4 0.473428 0.0542011 0.591911
809 4 0.473713 0.0391893 0.606355
808 2 0.469868 0.0514213 0.627821
810 4 0.466024 0.0636534 0.649287
45 3 0.463978 0.0871203 0.653311
1270 2 0.0789426 0.157735 0.578666
938 4 0.0902531 0.0770095 0.598724
937 2 0.0942506 0.0984416 0.586482
1219 2 0.185522 0.159283 0.598872
1211 4 0.233416 0.152923 0.665481
1220 4 0.203746 0.158967 0.615989
1212 4 0.216529 0.172988 0.622902
1210 2 0.224973 0.162956 0.644192
1225 2 0.243188 0.111804 0.664938
1226 4 0.249496 0.0876351 0.663814
1194 4 0.314568 0.155802 0.668041
1192 2 0.332556 0.151628 0.651183
1193 4 0.350543 0.147454 0.634324
3424 2 0.494737 0.109497 0.671143
877 2 0.0608383 0.209996 0.585192
1272 4 0.0641944 0.177201 0.584028
1244 4 0.0462257 0.232121 0.604282
879 4 0.07821 0.192012 0.585091
3123 4 0.488154 0.249527 0.653113
983 4 0.00956171 0.283627 0.610105
1245 4 0.0292438 0.278349 0.612961
1243 2 0.0377347 0.255235 0.608622
948 4 0.173593 0.314034 0.589428
1135 2 0.162603 0.322981 0.618515
822 4 0.155039 0.324721 0.660372
820 2 0.14916 0.301686 0.668121
1136 4 0.163406 0.303355 0.603043
798 4 0.214243 0.277586 0.573419
796 2 0.237205 0.275742 0.58314
797 4 0.260168 0.273898 0.592862
791 4 0.263667 0.293415 0.594646
790 2 0.270794 0.317367 0.593805
872 4 0.331921 0.281477 0.613375
871 2 0.34788 0.30055 0.610781
813 4 0.380726 0.316492 0.595531
873 4 0.363839 0.319622 0.608187
811 2 0.387078 0.338604 0.605325
954 4 0.480101 0.251999 0.600662
952 2 0.486844 0.276076 0.600747
1041 4 0.0547725 0.370041 0.637682
3264 4 0.0442432 0.368709 0.652643
3240 4 0.0413289 0.382869 0.638097
3238 2 0.0194481 0.394445 0.634574
1039 2 0.0784733 0.366766 0.630421
3262 2 0.0362028 0.346545 0.660966
1064 4 0.155847 0.344097 0.652864
1137 4 0.1618 0.342606 0.633987
1040 4 0.102174 0.36349 0.62316
993 4 0.108492 0.377341 0.637723
991 2 0.131343 0.367211 0.63833
992 4 0.154194 0.35708 0.638936
897 4 0.167566 0.360184 0.625638
1189 2 0.24625 0.36682 0.590409
896 4 0.205796 0.384192 0.604126
895 2 0.186681 0.372188 0.614882
1172 4 0.220078 0.396225 0.603789
1191 4 0.225967 0.380142 0.596434
1063 2 0.174617 0.35161 0.667575
792 4 0.27792 0.341318 0.592965
1238 4 0.283455 0.352651 0.577237
1239 4 0.319084 0.375449 0.603912
1237 2 0.30127 0.36405 0.590575
930 4 0.337115 0.38269 0.603669
1204 2 0.397497 0.380776 0.65036
1206 4 0.397905 0.375296 0.625967
927 4 0.392352 0.380043 0.608175
812 4 0.393431 0.360715 0.615118
925 2 0.405796 0.39827 0.597582
926 4 0.419241 0.416497 0.586988
1161 4 0.166233 0.496488 0.587539
1188 4 0.167864 0.477676 0.58204
1171 2 0.218823 0.421016 0.600785
1186 2 0.184009 0.46357 0.594907
1173 4 0.217568 0.445807 0.597781
1187 4 0.200154 0.449464 0.607774
1911 4 0.458602 0.481015 0.581698
1001 4 0.451255 0.461795 0.589
1000 2 0.444105 0.438343 0.584095
1269 4 0.461104 0.474393 0.598952
1267 2 0.465175 0.485011 0.62122
1082 4 0.0784785 0.0634003 0.664035
943 2 0.040951 0.0282516 0.681462
1076 4 0.066107 0.0538254 0.676616
1075 2 0.069593 0.0714128 0.694043
945 4 0.0347446 0.00506417 0.688463
944 4 0.0471573 0.0514389 0.674462
1283 4 0.18541 0.0610705 0.695398
825 4 0.20152 0.0497764 0.689392
823 2 0.196382 0.0257002 0.685019
1147 2 0.245405 0.0681031 0.699131
1149 4 0.241799 0.0492893 0.715201
1148 4 0.249011 0.0869169 0.683062
1003 2 0.3409 0.0768894 0.736097
2321 4 0.488736 0.0208507 0.739133
41 1 0.45568 0.0753461 0.670951
43 3 0.432633 0.0778272 0.671987
42 3 0.460643 0.0530551 0.668188
1163 4 0.469871 0.0603323 0.687443
1162 2 0.479831 0.0460165 0.70536
44 3 0.465344 0.0827925 0.690688
1164 4 0.48979 0.0317007 0.723278
4581 4 0.501016 0.00536404 0.739579
864 4 0.0647954 0.0894922 0.728996
1077 4 0.0730791 0.0890001 0.711471
851 4 0.0731552 0.104429 0.70112
850 2 0.0719218 0.126954 0.690335
852 4 0.0706884 0.149478 0.679551
862 2 0.0462111 0.0916067 0.745589
1107 4 0.0787559 0.10151 0.721419
1105 2 0.100482 0.101386 0.733795
1106 4 0.122208 0.101261 0.74617
1282 2 0.184656 0.0856358 0.699998
1284 4 0.183902 0.110201 0.704598
909 4 0.184352 0.130531 0.708199
907 2 0.202089 0.13486 0.691116
908 4 0.219826 0.139189 0.674034
1227 4 0.23688 0.135972 0.666062
888 4 0.251733 0.150453 0.663648
886 2 0.275175 0.155074 0.671016
887 4 0.298617 0.159695 0.678385
829 2 0.315197 0.124993 0.697011
1005 4 0.328737 0.093338 0.721721
830 4 0.312937 0.146829 0.685042
831 4 0.317457 0.103157 0.708981
3425 4 0.475166 0.0939979 0.672541
1113 4 0.502698 0.109818 0.749897
1146 4 0.494963 0.156147 0.721508
1208 4 0.128638 0.239822 0.729333
1074 4 0.124404 0.254219 0.742716
976 2 0.330367 0.216453 0.728581
978 4 0.342106 0.212498 0.706861
1025 4 0.407038 0.17694 0.682214
1024 2 0.426485 0.183673 0.696415
1142 4 0.439139 0.188178 0.729271
1144 2 0.476315 0.172791 0.72214
1262 4 0.46381 0.201258 0.709263
1026 4 0.445932 0.190407 0.710615
1261 2 0.462812 0.226148 0.711427
1145 4 0.457667 0.189436 0.722772
3263 4 0.0281623 0.32438 0.669288
1177 2 0.0121123 0.240931 0.718143
1179 4 0.0346595 0.233108 0.710686
1130 4 0.141293 0.244585 0.742583
1072 2 0.101571 0.25891 0.751762
1207 2 0.13567 0.251131 0.70817
821 4 0.143282 0.278652 0.675869
1209 4 0.142701 0.262439 0.687008
1019 4 0.384612 0.275779 0.737634
1018 2 0.3832 0.291615 0.718337
1020 4 0.381788 0.307452 0.699039
1263 4 0.461815 0.251038 0.713592
892 2 0.0266365 0.355671 0.725977
1279 2 0.0594128 0.407805 0.738741
1280 4 0.0555303 0.383647 0.733591
816 4 0.064312 0.367432 0.734318
893 4 0.00904848 0.34258 0.713956
814 2 0.0863488 0.356659 0.739166
815 4 0.108386 0.345886 0.744013
942 4 0.128606 0.342755 0.739982
1065 4 0.193388 0.359123 0.682285
807 4 0.206354 0.34401 0.677201
1028 4 0.219452 0.391631 0.713544
1066 2 0.196046 0.388353 0.743269
1068 4 0.216942 0.397885 0.733387
1027 2 0.222011 0.406318 0.693471
805 2 0.225187 0.333051 0.689464
806 4 0.24402 0.322091 0.701727
1205 4 0.397089 0.386256 0.674752
1281 4 0.0632952 0.431962 0.743892
1983 4 0.065185 0.438084 0.763064
2016 4 0.160633 0.491525 0.732251
1176 4 0.170151 0.473718 0.732116
2172 4 0.16183 0.497879 0.689261
1140 4 0.231896 0.438787 0.676658
1175 4 0.217294 0.46597 0.717345
1174 2 0.193722 0.469844 0.724731
1029 4 0.224569 0.421005 0.673398
1138 2 0.250439 0.455258 0.679824
1139 4 0.268982 0.47173 0.68299
1987 2 0.277978 0.448089 0.729476
1229 4 0.285812 0.470086 0.696024
1989 4 0.274497 0.465235 0.711614
2028 4 0.272738 0.479823 0.699489
1228 2 0.304621 0.461067 0.682238
1230 4 0.323431 0.452048 0.668452
1099 2 0.450386 0.494 0.682763
1100 4 0.439012 0.492365 0.70497
2989 2 0.0294938 0.057469 0.787713
2990 4 0.0279856 0.078684 0.774566
2991 4 0.031002 0.0362541 0.800859
2049 4 0.123876 0.0217795 0.801774
1202 4 0.124969 0.0321659 0.78484
1201 2 0.126636 0.0569992 0.782452
1203 4 0.128304 0.0818326 0.780064
819 4 0.328299 0.0636388 0.807468
817 2 0.329827 0.0386986 0.806554
1085 4 0.314682 0.0770414 0.804701
1004 4 0.353064 0.0604407 0.750473
1050 4 0.348573 0.000802572 0.777872
973 2 0.367203 0.998689 0.802435
818 4 0.331355 0.0137585 0.805641
974 4 0.347107 0.0108007 0.793795
2322 4 0.482084 0.0453139 0.782238
845 4 0.47589 0.0614959 0.792357
844 2 0.476183 0.0685996 0.816328
2320 2 0.48541 0.0330823 0.760685
846 4 0.476477 0.0757033 0.8403
863 4 0.0276268 0.0937212 0.762182
3083 4 0.0116062 0.085229 0.768097
833 4 0.023509 0.096076 0.780519
832 2 0.0310638 0.114628 0.795483
834 4 0.0386187 0.13318 0.810448
1125 4 0.0395853 0.145492 0.824836
32 3 0.139316 0.0906124 0.797707
911 4 0.12552 0.103903 0.809212
34 3 0.121594 0.0989513 0.765628
31 1 0.132145 0.107857 0.784277
35 3 0.117583 0.120903 0.795955
33 3 0.150529 0.120413 0.777736
910 2 0.116107 0.0953507 0.83074
1256 4 0.230603 0.133059 0.803875
840 4 0.221323 0.124666 0.818653
1255 2 0.244647 0.114449 0.794841
1257 4 0.258691 0.0958387 0.785806
1084 2 0.290084 0.0803295 0.801647
1086 4 0.265487 0.0836177 0.798594
960 4 0.318193 0.071665 0.822801
47 3 0.413325 0.167277 0.814213
1023 4 0.428625 0.162296 0.827866
48 3 0.405932 0.175211 0.778227
1111 2 0.491818 0.0938801 0.765797
1112 4 0.480939 0.0779424 0.781697
1129 2 0.161157 0.242308 0.757596
1131 4 0.181022 0.240032 0.77261
977 4 0.318628 0.220407 0.7503
918 4 0.305887 0.235224 0.748875
1298 4 0.301772 0.219848 0.759657
1297 2 0.291268 0.199656 0.770006
1299 4 0.280763 0.179463 0.780355
46 1 0.409127 0.184308 0.799332
1043 4 0.409124 0.208578 0.810552
49 3 0.390012 0.195609 0.806063
1042 2 0.404061 0.232053 0.817513