ITEM: TIMESTEP
2510000
ITEM: NUMBER OF ATOMS
4590
ITEM: BOX BOUNDS pp pp pp
-9.9985700000000008e+00 9.9985700000000008e+00
-9.9985700000000008e+00 9.9985700000000008e+00
-9.9985700000000008e+00 9.9985700000000008e+00
ITEM: ATOMS id type xs ys zs
1666 2 0.00979904 0.0538418 0.0621201
1668 4 0.997985 0.0319122 0.0599505
491 4 0.299395 0.0557723 0.0767297
2974 2 0.467774 0.0105902 0.0208485
745 2 0.450064 0.0708991 0.00345534
747 4 0.447402 0.0461223 0.00550503
2975 4 0.454989 0.0306587 0.013168
986 4 0.435865 0.0308891 0.00613282
1667 4 0.0216127 0.0757715 0.0642898
701 4 0.024832 0.095081 0.0610353
700 2 0.0386388 0.113946 0.0699047
702 4 0.0524455 0.132811 0.0787741
566 4 0.212951 0.143822 0.0536947
565 2 0.219711 0.14979 0.0303735
567 4 0.22647 0.155757 0.00705231
297 4 0.343265 0.11382 0.0351385
295 2 0.358087 0.116883 0.0152366
558 4 0.439838 0.111969 0.00407454
746 4 0.452727 0.0956758 0.00140565
738 4 0.248731 0.201758 0.0691789
573 4 0.256451 0.242141 0.0522009
770 4 0.390514 0.184213 0.0231731
359 4 0.380636 0.197158 0.0331089
664 2 0.395525 0.208029 0.0592308
665 4 0.396223 0.190685 0.0412345
666 4 0.394828 0.225373 0.0772272
323 4 0.403066 0.239744 0.0689332
358 2 0.359239 0.192748 0.0209483
769 2 0.407104 0.16995 0.0110678
360 4 0.337841 0.188338 0.00878771
623 4 0.383591 0.240164 0.0778026
292 2 0.138984 0.312651 0.0473205
293 4 0.158922 0.322533 0.0587233
294 4 0.119047 0.302769 0.0359177
552 4 0.15742 0.33352 0.0743708
507 4 0.173005 0.32182 0.0660656
287 4 0.173982 0.325092 0.0470004
286 2 0.190578 0.320949 0.0287633
505 2 0.184228 0.303791 0.0792634
481 2 0.223198 0.260319 0.0720399
482 4 0.242329 0.24573 0.0652324
288 4 0.207173 0.316805 0.0105261
483 4 0.204067 0.274908 0.0788475
571 2 0.274188 0.252502 0.0379451
572 4 0.291925 0.262863 0.0236893
357 4 0.29915 0.261215 0.00466821
355 2 0.314625 0.28067 0.00198015
956 4 0.330717 0.31147 0.0168507
1069 2 0.406952 0.308015 0.0365093
955 2 0.350341 0.321458 0.0286966
957 4 0.369965 0.331445 0.0405424
1071 4 0.387405 0.323443 0.0387551
322 2 0.414179 0.25944 0.0582667
324 4 0.425292 0.279135 0.0476002
1070 4 0.4265 0.292587 0.0342635
280 2 0.456131 0.300456 0.0582504
282 4 0.442693 0.285905 0.042991
281 4 0.469569 0.315008 0.0735098
454 2 0.164254 0.362091 0.0502919
456 4 0.159947 0.384722 0.0405722
455 4 0.168562 0.339461 0.0600117
1290 4 0.265247 0.391838 0.0309589
250 2 0.266501 0.402243 0.0613363
1288 2 0.273249 0.377804 0.0118745
251 4 0.263038 0.412206 0.0386666
741 4 0.383781 0.332175 0.0555116
739 2 0.388571 0.34093 0.0784373
1788 4 0.0846378 0.461751 0.0482132
1786 2 0.0974597 0.483123 0.050223
626 4 0.199619 0.476519 0.0723992
625 2 0.190011 0.498822 0.0664477
245 4 0.203346 0.462372 0.0589693
244 2 0.223986 0.449857 0.0524476
246 4 0.244626 0.437342 0.0459259
272 4 0.261877 0.430684 0.0378342
271 2 0.267959 0.436292 0.0142389
1672 2 0.400984 0.436188 0.0716105
853 2 0.395282 0.44331 0.0143758
1674 4 0.413285 0.441305 0.0504517
854 4 0.410782 0.44905 0.0331365
564 4 0.42886 0.444471 0.0370785
563 4 0.476705 0.457189 0.0300178
562 2 0.452782 0.45083 0.0335482
228 4 0.487459 0.474309 0.0259343
226 2 0.493805 0.482717 0.0486105
19 3 0.0607735 0.0435653 0.150711
18 3 0.0587291 0.00650566 0.142537
16 1 0.0584241 0.0222517 0.159578
490 2 0.284542 0.0415247 0.0909277
1475 4 0.270748 0.0135122 0.121794
492 4 0.26969 0.0272772 0.105126
581 4 0.263995 0.0466434 0.161117
580 2 0.245242 0.0616314 0.154127
486 4 0.387097 0.0272803 0.107867
484 2 0.403859 0.0417124 0.119526
485 4 0.420621 0.0561445 0.131185
2722 2 0.464505 0.06666 0.155623
2724 4 0.473545 0.0457794 0.145257
1759 2 0.501661 0.0257722 0.117449
1760 4 0.490329 0.0360106 0.137247
2744 4 0.48163 0.0304884 0.153248
476 4 0.0670223 0.141477 0.0907599
475 2 0.0742778 0.154123 0.111073
582 4 0.226489 0.0766193 0.147138
737 4 0.229605 0.171447 0.104053
237 4 0.21856 0.0938258 0.145613
235 2 0.199146 0.100886 0.159699
628 2 0.385043 0.151206 0.154505
629 4 0.397786 0.131575 0.163302
2723 4 0.455465 0.0875406 0.165989
477 4 0.0815334 0.166768 0.131386
339 4 0.0157374 0.213285 0.169028
736 2 0.239168 0.186603 0.086616
460 2 0.32056 0.22159 0.125233
461 4 0.296968 0.213744 0.122583
354 4 0.279065 0.214955 0.127859
352 2 0.26949 0.232783 0.142544
353 4 0.259915 0.250611 0.15723
630 4 0.3723 0.170838 0.145709
254 4 0.380042 0.190548 0.148936
462 4 0.344153 0.229436 0.127883
255 4 0.35901 0.234351 0.137119
253 2 0.369526 0.21245 0.143027
765 4 0.351455 0.25087 0.133943
624 4 0.354616 0.241226 0.118546
622 2 0.369103 0.240695 0.0981744
506 4 0.195451 0.285762 0.0924613
537 4 0.187421 0.292197 0.109794
535 2 0.180549 0.286188 0.133072
536 4 0.173676 0.280179 0.156349
301 2 0.318545 0.31683 0.144035
302 4 0.316064 0.331892 0.124231
303 4 0.321026 0.301769 0.163838
763 2 0.340853 0.26736 0.149462
12 3 0.415323 0.333303 0.127926
764 4 0.330251 0.28385 0.164982
671 4 0.460095 0.329527 0.0855265
527 4 0.476204 0.321015 0.0897106
647 4 0.0619394 0.354896 0.161584
550 2 0.14496 0.339983 0.0950629
551 4 0.1325 0.346445 0.115755
289 2 0.216353 0.39833 0.145383
290 4 0.237906 0.402725 0.133494
291 4 0.194801 0.393936 0.157272
387 4 0.325156 0.347639 0.117833
252 4 0.269963 0.392279 0.0840059
609 4 0.283235 0.384599 0.0988204
607 2 0.300433 0.399152 0.109666
385 2 0.349553 0.351084 0.11358
493 2 0.383757 0.38879 0.0965637
495 4 0.389022 0.364902 0.101741
386 4 0.37395 0.354529 0.109326
15 3 0.379734 0.342069 0.12089
740 4 0.393361 0.349685 0.101363
14 3 0.407399 0.363517 0.107021
11 1 0.400445 0.350602 0.125
13 3 0.400017 0.363472 0.144303
494 4 0.378493 0.412679 0.0913867
672 4 0.417069 0.343908 0.106566
670 2 0.438582 0.336718 0.0960465
1791 4 0.0625879 0.502184 0.11184
1466 4 0.069856 0.485404 0.12026
1465 2 0.0803356 0.470827 0.102857
1467 4 0.0908153 0.45625 0.0854536
637 2 0.210114 0.504862 0.134691
638 4 0.23055 0.490491 0.133679
766 2 0.236963 0.447607 0.138187
768 4 0.235349 0.422665 0.137515
767 4 0.238578 0.47255 0.138858
608 4 0.317631 0.413705 0.120511
659 4 0.321845 0.429407 0.107883
660 4 0.370682 0.42843 0.0971732
1673 4 0.388684 0.43107 0.0927692
658 2 0.346263 0.428918 0.102528
1559 4 0.38947 0.502726 0.131702
524 4 0.387022 0.483687 0.134176
523 2 0.384683 0.462799 0.120632
525 4 0.382344 0.441912 0.107088
596 4 0.504511 0.458952 0.165695
595 2 0.487534 0.4428 0.174416
1422 4 0.0164055 0.00491325 0.197079
17 3 0.0382488 0.0209445 0.17055
2480 4 0.0226666 0.0204614 0.18468
2479 2 0.0116176 0.0427448 0.187239
20 3 0.0752676 0.01807 0.174324
578 4 0.0773636 0.040111 0.165812
380 4 0.0102691 0.0823722 0.189916
577 2 0.0925172 0.0591126 0.171685
689 4 0.156056 0.0110956 0.213583
674 4 0.138082 0.0203028 0.217523
673 2 0.12037 0.00941201 0.23141
579 4 0.107671 0.0781143 0.177557
1504 2 0.230709 0.0104488 0.188031
688 2 0.175603 0.997486 0.205976
1506 4 0.24865 0.0275525 0.184751
654 4 0.264515 0.0363537 0.17806
652 2 0.283306 0.0198914 0.179091
653 4 0.302097 0.00342898 0.180123
693 4 0.245721 0.0583215 0.252158
758 4 0.335993 0.0774149 0.195213
759 4 0.347507 0.063055 0.24171
757 2 0.34175 0.0702349 0.218461
311 4 0.349911 0.0862808 0.184434
25 3 0.328366 0.0517428 0.248329
350 4 0.363932 0.0723017 0.245655
349 2 0.388818 0.0705574 0.243964
480 4 0.418674 0.0516142 0.250867
379 2 0.0285941 0.0973918 0.181929
511 2 0.063022 0.142716 0.1839
512 4 0.0477173 0.124051 0.190425
381 4 0.0469191 0.112411 0.173943
513 4 0.0783266 0.161381 0.177375
450 4 0.1163 0.0936301 0.18648
448 2 0.139947 0.0948048 0.17844
449 4 0.163593 0.0959794 0.170399
236 4 0.179732 0.107947 0.173786
28 3 0.30212 0.139888 0.242402
26 1 0.318495 0.155706 0.24688
312 4 0.388113 0.116913 0.174282
310 2 0.369012 0.101597 0.179358
521 4 0.489605 0.135705 0.20827
762 4 0.484414 0.133375 0.227989
760 2 0.461113 0.133341 0.237057
761 4 0.437811 0.133306 0.246126
393 4 0.0743825 0.180915 0.179912
337 2 0.0266407 0.233804 0.178262
391 2 0.087656 0.201525 0.184833
392 4 0.10093 0.222135 0.189755
546 4 0.129923 0.205352 0.248937
27 3 0.328388 0.161977 0.227082
279 4 0.263129 0.227646 0.220445
277 2 0.260672 0.238263 0.197941
394 2 0.0129066 0.265593 0.240036
395 4 0.0265661 0.271932 0.220076
338 4 0.0375439 0.254323 0.187496
363 4 0.035505 0.265374 0.203706
361 2 0.0503747 0.285435 0.204983
749 4 0.0527927 0.318362 0.212869
648 4 0.063141 0.317392 0.194641
362 4 0.0652443 0.305496 0.206259
372 4 0.0820132 0.311909 0.201996
370 2 0.103994 0.318694 0.211794
371 4 0.125974 0.325479 0.221592
734 4 0.130672 0.329983 0.240946
733 2 0.15253 0.324151 0.251595
755 4 0.243246 0.25703 0.168631
754 2 0.240094 0.281437 0.16421
756 4 0.236943 0.305844 0.159789
611 4 0.239408 0.322882 0.227606
610 2 0.240474 0.318811 0.20296
612 4 0.24154 0.31474 0.178313
344 4 0.230583 0.315669 0.244637
278 4 0.258214 0.24888 0.175438
284 4 0.273708 0.25852 0.173471
283 2 0.293215 0.274058 0.171676
285 4 0.312721 0.289597 0.169881
308 4 0.326728 0.292409 0.17935
729 4 0.312288 0.305308 0.181333
727 2 0.298681 0.322879 0.192791
307 2 0.339739 0.287898 0.200219
309 4 0.35275 0.283386 0.221089
498 4 0.349143 0.272415 0.237571
748 2 0.0551896 0.333013 0.232989
646 2 0.0625402 0.336144 0.178112
416 4 0.189262 0.383749 0.172459
417 4 0.188209 0.403781 0.218267
415 2 0.188735 0.393765 0.195363
728 4 0.285074 0.340449 0.20425
446 4 0.375605 0.363229 0.24952
445 2 0.393865 0.373599 0.235947
447 4 0.412126 0.383968 0.222375
644 4 0.432636 0.390014 0.227405
643 2 0.448747 0.4013 0.211971
1757 4 0.0329353 0.449503 0.251952
1756 2 0.0496847 0.468003 0.253495
414 4 0.260727 0.468045 0.203699
412 2 0.24721 0.46294 0.224105
413 4 0.233693 0.457835 0.244511
645 4 0.464859 0.412585 0.196536
597 4 0.470557 0.426647 0.183136
229 2 0.464302 0.486171 0.221975
231 4 0.477193 0.467485 0.211493
2755 2 0.00439838 0.0759934 0.313375
234 4 0.0200251 0.0371632 0.294646
232 2 0.0442255 0.0318183 0.297955
233 4 0.0684259 0.0264734 0.301265
2756 4 0.0125264 0.0574533 0.2987
2478 4 0.0100727 0.0476241 0.282794
317 4 0.0876765 0.0313521 0.305039
1404 4 0.0823283 0.0136135 0.301627
428 4 0.0930009 0.0158108 0.316872
316 2 0.0928774 0.0553697 0.309653
1402 2 0.0862341 0.00270359 0.279471
318 4 0.0980783 0.0793872 0.314267
691 2 0.26293 0.0742863 0.260771
24 3 0.330366 0.0670412 0.282674
21 1 0.341252 0.0538577 0.266987
23 3 0.345701 0.0329229 0.275951
22 3 0.361157 0.0639152 0.261348
351 4 0.413703 0.0688131 0.242272
479 4 0.451799 0.0274894 0.279528
478 2 0.435236 0.0395518 0.265198
2664 4 0.469476 0.017716 0.281432
1428 4 0.454254 0.0173003 0.293045
258 4 0.449629 0.0350064 0.29797
2662 2 0.493237 0.0236616 0.286456
256 2 0.441936 0.0425054 0.320548
2757 4 0.99627 0.0945335 0.328051
732 4 0.104884 0.0877952 0.329773
399 4 0.0884214 0.0949216 0.321295
721 2 0.266819 0.106834 0.308057
692 4 0.280138 0.090251 0.269383
723 4 0.278718 0.101749 0.286661
722 4 0.25492 0.111918 0.329452
29 3 0.334681 0.146627 0.260808
632 4 0.360203 0.0840013 0.256561
631 2 0.351282 0.107056 0.260316
707 4 0.340973 0.147473 0.274094
633 4 0.342362 0.13011 0.26407
706 2 0.347707 0.155105 0.296932
708 4 0.354442 0.162738 0.31977
321 4 0.358431 0.150472 0.334658
544 2 0.145525 0.224717 0.251537
545 4 0.161127 0.244082 0.254136
402 4 0.178795 0.241772 0.263527
405 4 0.235631 0.171928 0.329073
30 3 0.309148 0.173995 0.256718
419 4 0.413976 0.247471 0.323817
269 4 0.402901 0.232534 0.330306
375 4 0.158807 0.305841 0.342975
678 4 0.163922 0.315819 0.327169
343 2 0.209714 0.311587 0.25779
400 2 0.178988 0.266228 0.268726
401 4 0.179181 0.290685 0.273925
676 2 0.168765 0.312392 0.30288
345 4 0.188845 0.307504 0.270942
677 4 0.173609 0.308965 0.278591
735 4 0.174388 0.318319 0.262243
378 4 0.30062 0.27168 0.328235
376 2 0.304516 0.2823 0.305937
497 4 0.326888 0.293068 0.277307
377 4 0.308413 0.292921 0.283639
496 2 0.338016 0.282742 0.257439
541 2 0.383305 0.309502 0.300836
542 4 0.399923 0.29084 0.299969
420 4 0.417861 0.285463 0.291533
543 4 0.366687 0.328164 0.301702
418 2 0.415918 0.266467 0.307675
615 4 0.351145 0.325099 0.289747
364 2 0.00585304 0.387649 0.290765
365 4 0.0300963 0.393766 0.290927
601 2 0.0591261 0.390411 0.324434
603 4 0.0414207 0.391356 0.306804
750 4 0.0575865 0.347663 0.253109
300 4 0.0772185 0.35067 0.261961
299 4 0.125635 0.339179 0.257013
298 2 0.101427 0.344924 0.259487
508 2 0.186127 0.353704 0.337549
509 4 0.199088 0.37424 0.343503
434 4 0.316971 0.376353 0.312053
614 4 0.327704 0.368645 0.29716
433 2 0.315242 0.398504 0.323522
613 2 0.339425 0.346872 0.293453
1758 4 0.0664341 0.486504 0.255037
264 4 0.020841 0.434328 0.252559
776 4 0.0704327 0.493437 0.33439
775 2 0.0744424 0.493379 0.30971
1775 4 0.0809829 0.496009 0.265511
777 4 0.0784521 0.493321 0.28503
1436 4 0.224427 0.441409 0.249235
1435 2 0.231126 0.43942 0.273242
1437 4 0.237825 0.43743 0.29725
5 3 0.253967 0.463896 0.322194
4 3 0.258139 0.43842 0.294786
3 3 0.28428 0.465526 0.29992
1 1 0.26909 0.451528 0.310491
436 2 0.318303 0.46335 0.322879
438 4 0.295144 0.457104 0.31582
1801 2 0.365007 0.506938 0.323417
1802 4 0.349996 0.486975 0.324557
119 3 0.486956 0.468629 0.325106
429 4 0.110363 0.00642759 0.36282
427 2 0.101682 0.0111192 0.339846
1781 4 0.105343 0.0119682 0.409463
441 4 0.339093 0.999516 0.403234
699 4 0.37157 0.05725 0.368989
1699 2 0.354267 0.0283823 0.382335
1700 4 0.353199 0.0492025 0.368531
697 2 0.39474 0.0577325 0.359603
698 4 0.41791 0.058215 0.350217
257 4 0.434243 0.0500044 0.343125
397 2 0.0690577 0.104186 0.334117
398 4 0.049694 0.11345 0.346939
2584 2 0.0188859 0.116909 0.350143
2586 4 0.039476 0.12178 0.363465
458 4 0.0383332 0.135563 0.375816
457 2 0.0326681 0.145936 0.39785
606 4 0.162251 0.09101 0.329829
731 4 0.151005 0.103704 0.340747
730 2 0.127945 0.0957494 0.33526
600 4 0.0902859 0.145856 0.360058
604 2 0.181531 0.0874583 0.345349
605 4 0.20081 0.0839067 0.360868
248 4 0.21647 0.091161 0.368643
247 2 0.237314 0.100341 0.358326
403 2 0.244725 0.149684 0.335979
249 4 0.258158 0.109521 0.348009
404 4 0.253819 0.127441 0.342885
683 4 0.264246 0.126808 0.358526
682 2 0.286373 0.130884 0.369435
684 4 0.308499 0.13496 0.380343
320 4 0.323282 0.141058 0.36896
319 2 0.340857 0.145765 0.351809
725 4 0.375777 0.0956548 0.422068
724 2 0.385887 0.117573 0.415543
726 4 0.395998 0.13949 0.409019
467 4 0.396822 0.159797 0.414255
598 2 0.102027 0.166904 0.366714
599 4 0.113767 0.187952 0.37337
389 4 0.12278 0.220707 0.382611
686 4 0.112612 0.203468 0.385716
685 2 0.103485 0.20407 0.408986
275 4 0.126622 0.202788 0.376019
274 2 0.149804 0.194423 0.371798
388 2 0.11734 0.243143 0.37301
473 4 0.21539 0.171187 0.322404
474 4 0.178361 0.190961 0.34958
472 2 0.196875 0.181074 0.335992
276 4 0.172986 0.186058 0.367577
717 4 0.395817 0.165432 0.351662
715 2 0.395353 0.169274 0.376364
716 4 0.394888 0.173116 0.401066
270 4 0.444717 0.209078 0.344517
452 4 0.457036 0.218784 0.357637
268 2 0.423809 0.220806 0.337412
451 2 0.461742 0.221802 0.382007
453 4 0.466447 0.224819 0.406378
347 4 0.0706554 0.323156 0.410739
346 2 0.0463736 0.318251 0.414132
348 4 0.0220917 0.313346 0.417524
618 4 0.074541 0.311963 0.394845
616 2 0.0877395 0.296466 0.380324
390 4 0.111899 0.26558 0.363409
617 4 0.100938 0.28097 0.365804
374 4 0.116466 0.281818 0.35441
373 2 0.137637 0.29383 0.348693
549 4 0.0674925 0.40064 0.356378
602 4 0.0768315 0.389466 0.342063
547 2 0.0756491 0.412755 0.376673
510 4 0.173166 0.333168 0.331594
334 2 0.3219 0.371903 0.422497
238 2 0.369045 0.383537 0.383392
239 4 0.385135 0.388889 0.365018
587 4 0.39212 0.406074 0.374876
335 4 0.344338 0.365104 0.413808
240 4 0.352954 0.378184 0.401766
752 4 0.464165 0.398908 0.380123
561 4 0.471505 0.392686 0.397837
751 2 0.473896 0.419311 0.369436
500 4 0.0607692 0.485389 0.350911
499 2 0.0700639 0.468154 0.366459
548 4 0.0838057 0.424869 0.396968
407 4 0.0820621 0.444545 0.400788
501 4 0.0793585 0.450919 0.382007
406 2 0.102834 0.451675 0.412741
435 4 0.313513 0.420654 0.334992
636 4 0.299755 0.507157 0.416566
2 3 0.280489 0.437788 0.324997
1557 4 0.284735 0.50276 0.403783
1555 2 0.26208 0.494637 0.397005
437 4 0.341462 0.469595 0.329938
586 2 0.395077 0.430722 0.371893
593 4 0.38839 0.472168 0.371318
588 4 0.398034 0.45537 0.36891
592 2 0.403455 0.489552 0.361519
118 3 0.500034 0.437751 0.342992
712 2 0.457956 0.494867 0.346991
714 4 0.477005 0.478948 0.344011
753 4 0.483627 0.439714 0.35875
117 3 0.477615 0.462023 0.360907
116 1 0.494464 0.460152 0.345358
2237 4 0.00645244 0.00174636 0.469461
369 4 0.0794449 0.00401844 0.470471
367 2 0.0929206 0.00606865 0.449509
368 4 0.106396 0.00811887 0.428548
962 4 0.335208 0.0106033 0.417868
961 2 0.33344 0.0297645 0.433833
963 4 0.331673 0.0489257 0.449799
432 4 0.322317 0.0620842 0.460074
430 2 0.335054 0.0604252 0.481526
1216 2 0.423002 0.043236 0.49084
1218 4 0.430432 0.051122 0.468306
459 4 0.027003 0.15631 0.419883
640 2 0.485875 0.0936861 0.432735
641 4 0.463483 0.0928481 0.443829
260 4 0.0380173 0.171695 0.425606
259 2 0.0586242 0.183932 0.432732
1033 2 0.0838927 0.234024 0.455813
261 4 0.0792312 0.19617 0.439858
1035 4 0.0788189 0.215124 0.44025
687 4 0.0943572 0.204672 0.432256
696 4 0.0940949 0.266505 0.484864
488 4 0.312884 0.227583 0.44418
487 2 0.335776 0.237304 0.446758
466 2 0.405602 0.176605 0.430551
468 4 0.414383 0.193413 0.446847
411 4 0.370898 0.237728 0.46149
409 2 0.390856 0.222722 0.460179
410 4 0.410813 0.207716 0.458868
489 4 0.358668 0.247025 0.449335
575 4 0.420715 0.208934 0.475278
516 4 0.427486 0.206096 0.455895
574 2 0.438196 0.198316 0.48966
514 2 0.442708 0.218017 0.44004
515 4 0.457929 0.229939 0.424186
2847 4 0.0093337 0.310602 0.445504
2802 4 0.00489615 0.310406 0.427234
1034 4 0.0889665 0.252925 0.471376
1260 4 0.100481 0.267684 0.466678
1258 2 0.111512 0.290102 0.465703
1259 4 0.122542 0.31252 0.464727
9 3 0.141345 0.317249 0.449234
7 3 0.12311 0.326131 0.480877
6 1 0.135481 0.33463 0.463444
327 4 0.109674 0.333896 0.463278
266 4 0.362713 0.255216 0.466709
265 2 0.361349 0.275647 0.481057
267 4 0.359984 0.296078 0.495406
1011 4 0.467984 0.331676 0.489749
1009 2 0.461118 0.308565 0.496375
3308 4 0.486741 0.332692 0.480547
2455 2 0.48543 0.2531 0.503417
2457 4 0.468361 0.271259 0.501394
326 4 0.0600462 0.339553 0.465689
325 2 0.08486 0.336724 0.464483
8 3 0.15458 0.344661 0.47199
10 3 0.123006 0.35 0.452185
336 4 0.299462 0.378702 0.431187
668 4 0.296493 0.398438 0.427833
560 4 0.494804 0.377432 0.439373
559 2 0.483155 0.385059 0.418605
3307 2 0.493532 0.353695 0.468802
1383 4 0.000568054 0.468048 0.466036
1381 2 0.0101534 0.491051 0.463996
382 2 0.121769 0.438712 0.460567
408 4 0.123605 0.458806 0.424695
384 4 0.127453 0.423752 0.479779
711 4 0.145723 0.429242 0.481577
568 2 0.155414 0.476964 0.43711
383 4 0.116086 0.453671 0.441356
569 4 0.133821 0.46459 0.43952
1545 4 0.193517 0.497163 0.430019
570 4 0.177007 0.489338 0.4347
635 4 0.319895 0.463933 0.431626
774 4 0.320247 0.450706 0.445176
634 2 0.309825 0.485545 0.424096
669 4 0.309634 0.446607 0.430623
667 2 0.303063 0.422522 0.429228
772 2 0.334927 0.449743 0.465393
773 4 0.349608 0.448779 0.485611
663 4 0.469825 0.485025 0.459202
341 4 0.154493 0.0208311 0.518599
1058 4 0.0883255 0.0945494 0.513731
1152 4 0.195611 0.0499456 0.532812
342 4 0.1972 0.0461056 0.51243
340 2 0.175847 0.0334684 0.515515
1150 2 0.210134 0.0673693 0.543333
2430 4 0.16087 0.00483673 0.52908
1031 4 0.28463 0.0680972 0.573723
1030 2 0.260102 0.0725397 0.571775
431 4 0.34779 0.0587663 0.502979
842 4 0.400242 0.0349786 0.526294
841 2 0.376398 0.0415419 0.522613
843 4 0.352554 0.0481052 0.518931
1217 4 0.415571 0.03535 0.513373
3007 2 0.487512 0.0434889 0.574295
3009 4 0.497341 0.0569735 0.555674
1272 4 0.07174 0.162314 0.583005
1270 2 0.0852841 0.143309 0.574031
1271 4 0.0988283 0.124303 0.565057
1057 2 0.0993143 0.104017 0.534098
1059 4 0.110303 0.113484 0.554464
1155 4 0.119162 0.124711 0.566962
939 4 0.107972 0.111188 0.574585
1153 2 0.141576 0.133952 0.573079
1154 4 0.163989 0.143192 0.579196
1151 4 0.224656 0.0847929 0.553855
1180 2 0.21724 0.126405 0.558983
1181 4 0.216626 0.102193 0.552771
1182 4 0.217853 0.150617 0.565195
900 4 0.229243 0.156247 0.581194
1032 4 0.235573 0.0769821 0.569828
1198 2 0.999024 0.222553 0.56839
1199 4 0.0187288 0.212937 0.580408
694 2 0.0981574 0.254665 0.506509
898 2 0.242522 0.176534 0.575089
651 4 0.234594 0.23311 0.514374
858 4 0.226491 0.248999 0.522106
649 2 0.24497 0.219618 0.53269
899 4 0.255801 0.196822 0.568984
650 4 0.255345 0.206126 0.551007
576 4 0.455677 0.187698 0.504042
695 4 0.10222 0.242826 0.528154
948 4 0.158231 0.303025 0.577904
856 2 0.214773 0.267222 0.534588
857 4 0.203055 0.285445 0.54707
947 4 0.197822 0.276113 0.563446
946 2 0.178027 0.289569 0.570675
798 4 0.210069 0.266414 0.575557
1010 4 0.454252 0.285454 0.503002
953 4 0.491073 0.304064 0.592526
502 2 0.192107 0.3989 0.527499
503 4 0.21422 0.387236 0.527827
504 4 0.169993 0.410565 0.527171
803 4 0.265308 0.357939 0.567905
804 4 0.255872 0.367084 0.519655
802 2 0.26059 0.362511 0.54378
1190 4 0.264172 0.355787 0.588643
1238 4 0.279072 0.355586 0.580197
882 4 0.366976 0.363824 0.508228
929 4 0.378881 0.39194 0.57133
881 4 0.378874 0.381089 0.553627
880 2 0.372925 0.372456 0.530927
926 4 0.428509 0.406494 0.591822
539 4 0.114362 0.427001 0.565629
540 4 0.122246 0.476378 0.564962
2244 4 0.111084 0.491819 0.565473
538 2 0.118304 0.45169 0.565295
1160 4 0.12966 0.494732 0.568254
1159 2 0.153276 0.495368 0.576445
709 2 0.150986 0.426845 0.505903
710 4 0.156248 0.424448 0.530228
1909 2 0.440307 0.486933 0.563087
1910 4 0.430957 0.50193 0.545399
1081 2 0.0788278 0.0671672 0.632254
1083 4 0.0740469 0.0686647 0.607758
1126 2 0.0369422 0.0830313 0.590917
1127 4 0.0610165 0.0772258 0.594367
1128 4 0.012868 0.0888368 0.587467
1082 4 0.0836087 0.0656697 0.656751
938 4 0.0923297 0.0702541 0.598678
951 4 0.286182 0.0538496 0.58798
949 2 0.289269 0.0425264 0.610058
950 4 0.292356 0.0312033 0.632136
3008 4 0.477683 0.0300044 0.592916
809 4 0.476396 0.021125 0.612881
808 2 0.467815 0.0368636 0.630312
810 4 0.459234 0.0526021 0.647744
45 3 0.45807 0.0746984 0.644862
3477 4 0.00328567 0.0874531 0.603749
937 2 0.100151 0.090721 0.586632
1221 4 0.160121 0.145972 0.597867
1219 2 0.182237 0.152285 0.607674
1211 4 0.234628 0.151244 0.664379
1210 2 0.225074 0.162886 0.64442
1192 2 0.335974 0.145999 0.641761
1193 4 0.351963 0.145318 0.622551
3424 2 0.491379 0.0969804 0.658872
3425 4 0.470933 0.082695 0.660619
878 4 0.0367894 0.207554 0.585911
877 2 0.0578199 0.194037 0.585486
1244 4 0.0475359 0.220628 0.594034
879 4 0.0788504 0.180519 0.585061
1243 2 0.0412613 0.242194 0.60502
1220 4 0.204353 0.158599 0.617482
1212 4 0.215519 0.174528 0.624461
983 4 0.0350053 0.280876 0.604845
1245 4 0.0349867 0.26376 0.616007
3263 4 0.0376272 0.316819 0.666109
982 2 0.0134232 0.288605 0.594862
1135 2 0.162136 0.31637 0.615753
822 4 0.158815 0.331576 0.653376
1136 4 0.161835 0.299922 0.596924
820 2 0.147043 0.314762 0.667654
796 2 0.232209 0.269792 0.586673
797 4 0.25435 0.27317 0.597789
791 4 0.261677 0.293328 0.597881
790 2 0.269709 0.31679 0.594682
872 4 0.326154 0.283104 0.614353
871 2 0.341837 0.302572 0.614841
813 4 0.374283 0.316177 0.622133
873 4 0.35752 0.32204 0.615329
3123 4 0.497007 0.243548 0.626444
954 4 0.452684 0.277602 0.610602
952 2 0.471879 0.290833 0.601564
3239 4 0.995676 0.402967 0.640967
1041 4 0.0533676 0.368689 0.632634
3264 4 0.0379913 0.358357 0.638267
3240 4 0.0359967 0.375732 0.629427
3238 2 0.0158362 0.389349 0.635197
1039 2 0.0770409 0.372693 0.625653
3262 2 0.0378092 0.337588 0.652188
1040 4 0.100714 0.376696 0.618673
993 4 0.114001 0.372538 0.634074
991 2 0.135558 0.360269 0.637231
992 4 0.157114 0.347999 0.640387
1064 4 0.171406 0.344737 0.649257
1137 4 0.162437 0.332819 0.634582
897 4 0.174532 0.347048 0.630649
1189 2 0.243166 0.367672 0.595174
896 4 0.200704 0.378118 0.601489
895 2 0.187618 0.362583 0.616069
1172 4 0.210675 0.390447 0.611185
1191 4 0.22216 0.379558 0.601706
1171 2 0.212002 0.415265 0.608449
792 4 0.27774 0.340251 0.591484
1239 4 0.323667 0.368047 0.599085
1237 2 0.30137 0.361817 0.589641
930 4 0.341525 0.377286 0.601172
928 2 0.360203 0.384613 0.586251
811 2 0.382319 0.339813 0.623534
1204 2 0.403915 0.378381 0.658107
1206 4 0.404607 0.37366 0.633563
927 4 0.394338 0.380744 0.617706
812 4 0.390355 0.363448 0.624935
925 2 0.411424 0.393619 0.604764
1161 4 0.176891 0.496004 0.584636
1188 4 0.182533 0.494719 0.603824
1186 2 0.198569 0.476339 0.609319
1173 4 0.213329 0.440083 0.605712
1187 4 0.214605 0.457959 0.614813
1002 4 0.425652 0.423224 0.604511
1911 4 0.449657 0.471937 0.580775
1001 4 0.458213 0.456432 0.586134
1000 2 0.441932 0.439828 0.595322
1269 4 0.454796 0.474196 0.598644
1267 2 0.460796 0.485533 0.620107
1101 4 0.457558 0.491337 0.656963
1268 4 0.466796 0.49687 0.64157
943 2 0.0433442 0.0288593 0.668004
1076 4 0.0661049 0.0655491 0.666365
1075 2 0.067757 0.0771744 0.68844
945 4 0.0326064 0.00672935 0.672493
944 4 0.0540819 0.0509892 0.663516
824 4 0.185101 0.0102974 0.671225
1283 4 0.182213 0.0683493 0.697187
825 4 0.195329 0.0563713 0.687757
823 2 0.190215 0.0333343 0.679491
1147 2 0.237033 0.0701188 0.707585
1149 4 0.227391 0.0571258 0.726648
1092 4 0.309007 0.994489 0.679669
1003 2 0.327608 0.0706475 0.721421
1004 4 0.316507 0.0488345 0.726534
2321 4 0.497431 0.0269435 0.734139
41 1 0.44934 0.0698153 0.665322
43 3 0.427549 0.0776656 0.66671
42 3 0.449227 0.047001 0.668262
1163 4 0.462537 0.0580037 0.684669
1162 2 0.475866 0.0485809 0.703609
44 3 0.46231 0.0794597 0.68197
1164 4 0.489195 0.0391581 0.722549
4581 4 0.504782 0.0110479 0.727258
864 4 0.0567369 0.0909191 0.725172
1077 4 0.0694091 0.0887996 0.710515
851 4 0.0743179 0.105599 0.703847
850 2 0.0707021 0.129964 0.699551
852 4 0.0670862 0.154328 0.695254
862 2 0.0372393 0.0878297 0.740518
1107 4 0.0749912 0.0987891 0.72321
1105 2 0.0929141 0.1013 0.740462
1226 4 0.242953 0.0868244 0.669906
1148 4 0.246675 0.0831117 0.688522
1225 2 0.239237 0.111518 0.671174
1282 2 0.179601 0.0932091 0.6966
1284 4 0.176989 0.118069 0.696013
909 4 0.173079 0.138132 0.693078
907 2 0.195873 0.142723 0.683884
908 4 0.218667 0.147314 0.674689
1227 4 0.235521 0.136211 0.672442
1194 4 0.319984 0.146681 0.660971
888 4 0.252085 0.146887 0.672052
886 2 0.276913 0.147581 0.669178
887 4 0.301741 0.148275 0.666304
829 2 0.320108 0.122689 0.695937
830 4 0.316192 0.138241 0.676754
831 4 0.324024 0.107138 0.71512
1005 4 0.338709 0.0924605 0.716308
1130 4 0.146016 0.245084 0.738332
977 4 0.323685 0.237979 0.739249
918 4 0.303105 0.238753 0.739254
1298 4 0.313007 0.222329 0.73999
976 2 0.341523 0.233934 0.722201
978 4 0.35936 0.229889 0.705152
1025 4 0.410076 0.187151 0.667771
1146 4 0.492219 0.175653 0.714349
1024 2 0.421196 0.192964 0.689398
1142 4 0.431809 0.187148 0.725896
1144 2 0.469716 0.186268 0.716825
1262 4 0.439434 0.215113 0.7168
1026 4 0.432315 0.198776 0.711026
1261 2 0.442882 0.238974 0.723431
1145 4 0.447213 0.196882 0.719302
1177 2 0.0237141 0.255062 0.716644
1179 4 0.0428534 0.255366 0.700558
1208 4 0.132213 0.246598 0.72663
1074 4 0.1291 0.255045 0.743251
1207 2 0.131856 0.263191 0.707929
821 4 0.135271 0.297948 0.681933
1209 4 0.131499 0.279783 0.689228
805 2 0.224429 0.330925 0.703464
806 4 0.240972 0.312581 0.707336
1019 4 0.403671 0.283857 0.726952
1018 2 0.380272 0.288041 0.719195
1020 4 0.356873 0.292225 0.711438
1263 4 0.44633 0.262834 0.730063
892 2 0.0163111 0.360536 0.723431
1279 2 0.0456472 0.409852 0.736665
1280 4 0.0468702 0.385662 0.730457
816 4 0.0529673 0.366205 0.730812
893 4 0.994479 0.348822 0.726795
814 2 0.0750893 0.358631 0.739668
894 4 0.0381433 0.37225 0.720068
1063 2 0.184844 0.352876 0.668708
1065 4 0.198282 0.361015 0.68816
807 4 0.207885 0.349269 0.699591
1028 4 0.204715 0.378883 0.687722
1066 2 0.190874 0.371103 0.727608
1068 4 0.201937 0.368411 0.705347
1027 2 0.214375 0.40138 0.682648
1067 4 0.179811 0.373796 0.749868
1205 4 0.403224 0.383103 0.682651
1281 4 0.0444242 0.434041 0.742873
1981 2 0.0764503 0.460639 0.751676
1982 4 0.0911373 0.480662 0.754602
2016 4 0.167598 0.493366 0.735977
1176 4 0.186259 0.502066 0.729236
1140 4 0.236986 0.440834 0.67394
1175 4 0.190006 0.468076 0.692748
1174 2 0.188132 0.485071 0.710992
1029 4 0.224035 0.423877 0.677574
1138 2 0.254953 0.456019 0.682413
1139 4 0.27292 0.471205 0.690886
1987 2 0.275714 0.456951 0.73376
1229 4 0.290601 0.470125 0.701776
1989 4 0.284343 0.476652 0.721009
2028 4 0.27999 0.483371 0.703687
1228 2 0.310363 0.464015 0.687729
1230 4 0.330125 0.457905 0.673682
1099 2 0.440588 0.487172 0.674847
1100 4 0.423618 0.483007 0.692732
2989 2 0.0277063 0.0548292 0.784677
2990 4 0.018696 0.0730069 0.770063
2991 4 0.0367166 0.0366516 0.799291
3083 4 0.00224818 0.0854065 0.765281
2049 4 0.103058 0.0106026 0.778349
1202 4 0.107271 0.0309433 0.780663
1201 2 0.11461 0.0546646 0.783599
1203 4 0.121949 0.078386 0.786534
819 4 0.341366 0.0702268 0.815862
1085 4 0.322658 0.0711813 0.814042
1084 2 0.298281 0.0753308 0.810337
960 4 0.328151 0.0713795 0.832013
817 2 0.348593 0.0472962 0.808997
1050 4 0.358369 0.00198536 0.77085
818 4 0.35582 0.0243655 0.802131
974 4 0.358998 0.0093437 0.791659
2322 4 0.487552 0.0519523 0.776302
845 4 0.490708 0.0711043 0.780265
844 2 0.494708 0.0702623 0.804933
2320 2 0.492491 0.0394479 0.755221
846 4 0.498707 0.0694203 0.8296
863 4 0.0177417 0.0847403 0.755863
833 4 0.0169895 0.0914139 0.774107
832 2 0.0230776 0.111755 0.787311
834 4 0.0291657 0.132097 0.800515
1125 4 0.0292159 0.146281 0.814604
1106 4 0.110837 0.10381 0.757715
32 3 0.137556 0.0886897 0.796387
911 4 0.126853 0.0973874 0.815214
34 3 0.107216 0.0950067 0.77512
31 1 0.122618 0.10476 0.789476
35 3 0.11193 0.113377 0.807647
33 3 0.134228 0.121537 0.778425
1256 4 0.2342 0.1178 0.811628
840 4 0.219135 0.130275 0.813759
1255 2 0.253072 0.104851 0.801561
1257 4 0.271944 0.0919028 0.791493
1086 4 0.273904 0.0794803 0.806632
48 3 0.405825 0.167879 0.783157
1112 4 0.499873 0.0887154 0.779443
1023 4 0.423426 0.158148 0.824597
1277 4 0.178114 0.257043 0.789646
1297 2 0.30019 0.203145 0.749628
1299 4 0.287373 0.183961 0.759265
46 1 0.41153 0.18372 0.799124
1043 4 0.401365 0.208238 0.799237
49 3 0.392585 0.190493 0.810684
1042 2 0.392494 0.231609 0.799741