ITEM: TIMESTEP
1500000
ITEM: NUMBER OF ATOMS
4590
ITEM: BOX BOUNDS pp pp pp
-9.9985700000000008e+00 9.9985700000000008e+00
-9.9985700000000008e+00 9.9985700000000008e+00
-9.9985700000000008e+00 9.9985700000000008e+00
ITEM: ATOMS id type xs ys zs
1666 2 0.071544 0.0665796 0.0724507
1668 4 0.0697974 0.0701743 0.0477687
1474 2 0.293639 0.00192175 0.0838067
747 4 0.466659 0.0678876 0.00470608
2974 2 0.47469 0.0300485 0.0265226
2976 4 0.476502 0.00837583 0.0388591
2975 4 0.472877 0.0517211 0.0141861
986 4 0.464596 0.0509598 0.996664
2264 4 0.274367 0.161421 0.0137642
297 4 0.339442 0.0890272 0.0533624
295 2 0.353302 0.102719 0.0376899
296 4 0.367162 0.11641 0.0220174
557 4 0.380793 0.114949 0.0099102
556 2 0.403903 0.111836 0.0189332
771 4 0.407449 0.150857 0.0140949
827 4 0.363942 0.119135 0.00191446
745 2 0.457153 0.0871253 0.0175406
558 4 0.427013 0.108723 0.0279562
746 4 0.447647 0.106363 0.030375
566 4 0.146836 0.198524 0.0247784
567 4 0.193385 0.190164 0.00852876
565 2 0.17011 0.194344 0.0166536
1133 4 0.211558 0.188548 0.999264
769 2 0.397527 0.16689 0.0305162
360 4 0.322425 0.181376 0.0479499
358 2 0.346835 0.186791 0.0480927
770 4 0.387604 0.182924 0.0469374
359 4 0.371245 0.192206 0.0482355
664 2 0.387737 0.219823 0.0637616
665 4 0.386557 0.202689 0.0455896
666 4 0.388918 0.236956 0.0819337
555 4 0.084192 0.271108 0.0427525
553 2 0.0829686 0.270871 0.01778
287 4 0.160996 0.309057 0.031553
292 2 0.158261 0.278622 0.00569424
507 4 0.167067 0.296796 0.0446471
293 4 0.161218 0.288648 0.0284083
505 2 0.183612 0.300177 0.0630868
481 2 0.239183 0.292781 0.0722436
506 4 0.200156 0.303559 0.0815264
483 4 0.218637 0.306048 0.0774454
573 4 0.254651 0.27711 0.0475258
482 4 0.259729 0.279515 0.0670419
571 2 0.261116 0.26702 0.0255809
322 2 0.410473 0.274344 0.0657512
1069 2 0.393944 0.298001 0.0182229
324 4 0.414187 0.282899 0.0425525
1070 4 0.412234 0.281874 0.0237525
741 4 0.355727 0.326666 0.0351073
957 4 0.357131 0.321138 0.0159414
1071 4 0.375654 0.314127 0.0126933
739 2 0.368896 0.332272 0.055609
955 2 0.339931 0.316288 0.998453
671 4 0.454783 0.310628 0.054728
280 2 0.449882 0.291253 0.0300042
281 4 0.468351 0.301644 0.0432744
282 4 0.431413 0.280861 0.0167341
670 2 0.444801 0.323779 0.0735053
286 2 0.158209 0.33363 0.0278671
288 4 0.155422 0.358203 0.0241812
454 2 0.149495 0.37557 0.0636516
455 4 0.128405 0.362211 0.0622724
456 4 0.170586 0.388929 0.0650307
250 2 0.274511 0.395337 0.0502979
251 4 0.280134 0.381031 0.0305778
1290 4 0.278748 0.391228 0.0132698
252 4 0.268888 0.409644 0.0700179
740 4 0.382065 0.337878 0.0761107
495 4 0.395582 0.360584 0.0557704
493 2 0.387237 0.384075 0.0538415
14 3 0.400407 0.352266 0.0743298
330 4 0.0138867 0.43911 0.032338
245 4 0.220711 0.438076 0.0355355
626 4 0.202272 0.433458 0.0417917
625 2 0.184663 0.44418 0.0559382
244 2 0.238979 0.441643 0.0188405
627 4 0.167053 0.454902 0.0700847
246 4 0.257248 0.44521 0.0021456
609 4 0.286633 0.410031 0.0779439
494 4 0.378892 0.407566 0.0519125
1672 2 0.392943 0.46479 0.0491318
660 4 0.373696 0.422897 0.0632561
1673 4 0.368033 0.462799 0.0482875
854 4 0.427989 0.447945 0.0202307
1674 4 0.417853 0.466781 0.049976
563 4 0.481631 0.453417 0.0377111
228 4 0.492303 0.451075 0.0549663
562 2 0.456768 0.456057 0.0378194
564 4 0.431904 0.458698 0.0379277
18 3 0.0648912 0.0537003 0.143421
16 1 0.0643897 0.0557034 0.166533
17 3 0.0443974 0.0473766 0.174286
1667 4 0.0732906 0.0629848 0.0971328
701 4 0.0734763 0.0698886 0.115307
1475 4 0.29382 0.0265494 0.0794909
492 4 0.279822 0.0398914 0.0874878
490 2 0.284411 0.0630903 0.0956074
485 4 0.387526 0.0021286 0.103612
2723 4 0.421287 0.0374819 0.152509
2722 2 0.446232 0.0389263 0.153416
2724 4 0.471178 0.0403706 0.154323
1760 4 0.486574 0.0438781 0.142871
1759 2 0.496148 0.0288573 0.125324
700 2 0.0787563 0.0938034 0.120345
476 4 0.0948816 0.117559 0.142468
702 4 0.0840362 0.117718 0.125384
475 2 0.104179 0.125308 0.164347
491 4 0.289001 0.0862891 0.103727
628 2 0.381166 0.135839 0.147848
312 4 0.380108 0.106388 0.158727
629 4 0.395846 0.119729 0.1601
630 4 0.366486 0.15195 0.135595
738 4 0.248435 0.226076 0.0818119
736 2 0.253043 0.211608 0.101676
737 4 0.257651 0.197139 0.121541
461 4 0.311409 0.241008 0.102211
460 2 0.332555 0.237552 0.1151
354 4 0.292168 0.240453 0.11102
352 2 0.282353 0.247457 0.132924
353 4 0.272537 0.254461 0.154828
462 4 0.3537 0.234096 0.127988
254 4 0.358723 0.16922 0.133235
255 4 0.365065 0.218679 0.129456
253 2 0.361894 0.19395 0.131346
765 4 0.359852 0.228726 0.145732
624 4 0.372182 0.236673 0.132068
622 2 0.387126 0.241833 0.112697
623 4 0.40207 0.246993 0.0933269
763 2 0.352283 0.23955 0.166963
648 4 0.0673644 0.310876 0.16452
339 4 0.0836858 0.233107 0.137971
337 2 0.0759675 0.248591 0.156023
551 4 0.105427 0.321326 0.114493
537 4 0.187033 0.308223 0.0956198
302 4 0.323672 0.314722 0.1386
755 4 0.259369 0.267399 0.154686
387 4 0.335019 0.311543 0.12286
385 2 0.350814 0.321769 0.106395
323 4 0.406758 0.265788 0.08895
528 4 0.475972 0.266301 0.0983975
518 4 0.49189 0.260304 0.107613
526 2 0.460529 0.272314 0.11712
527 4 0.445086 0.278327 0.135843
672 4 0.434819 0.336931 0.0922825
552 4 0.118091 0.352398 0.0774139
550 2 0.111759 0.336862 0.0959534
535 2 0.189046 0.328711 0.109811
536 4 0.191058 0.349199 0.124002
291 4 0.214838 0.404291 0.142344
289 2 0.237885 0.41389 0.143701
15 3 0.382423 0.329867 0.0986714
386 4 0.36661 0.331994 0.089929
11 1 0.398419 0.345939 0.0965656
13 3 0.39291 0.364346 0.109576
12 3 0.418595 0.337534 0.103738
595 2 0.487925 0.383675 0.143216
596 4 0.499882 0.385878 0.121368
1791 4 0.0378278 0.4938 0.134176
1466 4 0.0387535 0.490609 0.152922
1789 2 0.0599969 0.50361 0.128055
417 4 0.161107 0.436268 0.123462
416 4 0.20075 0.418461 0.1482
1440 4 0.16762 0.494728 0.111806
415 2 0.180928 0.427364 0.135831
1438 2 0.190672 0.502172 0.117998
607 2 0.304771 0.420515 0.0915916
290 4 0.260932 0.42349 0.145058
608 4 0.32291 0.430998 0.105239
768 4 0.274297 0.437542 0.151116
767 4 0.27624 0.487454 0.148715
766 2 0.275269 0.462498 0.149915
658 2 0.357808 0.425339 0.0824084
659 4 0.341921 0.42778 0.101561
1559 4 0.359208 0.506253 0.0890679
524 4 0.361814 0.507584 0.109656
19 3 0.0660647 0.0780407 0.172586
2480 4 0.0314971 0.0329549 0.178122
1422 4 0.043847 0.0167103 0.177429
2479 2 0.0112852 0.0458951 0.185137
20 3 0.0815242 0.0438536 0.175733
578 4 0.0879494 0.053011 0.192178
675 4 0.106745 0.00836363 0.250425
674 4 0.144377 0.0186942 0.219154
673 2 0.125561 0.0135289 0.23479
689 4 0.152205 0.00736138 0.204065
577 2 0.111117 0.0615371 0.196147
579 4 0.134284 0.0700632 0.200117
1506 4 0.244524 0.0107533 0.170742
1504 2 0.225993 0.994505 0.174955
654 4 0.264779 0.0124184 0.170697
652 2 0.276091 0.0180977 0.19226
653 4 0.287404 0.0237771 0.213823
25 3 0.335423 0.0483788 0.248101
311 4 0.39109 0.0652397 0.184935
758 4 0.376684 0.0573623 0.196523
759 4 0.352746 0.0610839 0.24027
757 2 0.364715 0.0592231 0.218396
2744 4 0.489874 0.0361144 0.160456
744 4 0.497909 0.0329757 0.229952
2745 4 0.494166 0.0314464 0.210059
2743 2 0.49202 0.0337804 0.185257
742 2 0.504189 0.0561156 0.237043
511 2 0.0197139 0.148098 0.226789
513 4 0.0396618 0.154887 0.240248
393 4 0.0571807 0.163641 0.23349
381 4 0.00691422 0.122315 0.212174
450 4 0.148017 0.0834381 0.202646
448 2 0.162819 0.102831 0.197172
477 4 0.113476 0.133057 0.186226
449 4 0.177622 0.122225 0.191697
237 4 0.243625 0.13782 0.178126
691 2 0.229097 0.125176 0.241515
693 4 0.214174 0.122317 0.221658
236 4 0.197249 0.126383 0.192931
235 2 0.220437 0.132102 0.185529
582 4 0.263852 0.142794 0.177394
581 4 0.288846 0.0995492 0.174962
580 2 0.276349 0.121172 0.176178
27 3 0.326859 0.157046 0.232898
26 1 0.326302 0.155808 0.255861
310 2 0.385599 0.0858141 0.171831
521 4 0.489152 0.154137 0.222142
332 4 0.483106 0.138558 0.23033
762 4 0.471911 0.155793 0.228892
760 2 0.452209 0.159322 0.243878
394 2 0.0112336 0.239409 0.238252
395 4 0.0338672 0.233423 0.229474
277 2 0.245869 0.22987 0.170336
279 4 0.232184 0.209783 0.176208
284 4 0.27938 0.2508 0.171815
283 2 0.301629 0.251432 0.183207
285 4 0.323878 0.252064 0.194598
278 4 0.259553 0.249956 0.164465
764 4 0.344714 0.250373 0.188194
338 4 0.0682492 0.264075 0.174074
363 4 0.0753248 0.258424 0.191746
749 4 0.0849772 0.293845 0.232792
748 2 0.0876987 0.316983 0.241869
361 2 0.0868367 0.275686 0.205699
370 2 0.132246 0.307298 0.212036
372 4 0.10825 0.305222 0.205325
362 4 0.0983485 0.292948 0.219652
371 4 0.156243 0.309375 0.218747
301 2 0.321209 0.31429 0.163478
754 2 0.263453 0.287608 0.168831
756 4 0.267537 0.307817 0.182976
612 4 0.257962 0.30843 0.20016
610 2 0.256295 0.309227 0.225095
307 2 0.316947 0.291858 0.219433
308 4 0.329672 0.305844 0.203074
303 4 0.318747 0.313858 0.188356
309 4 0.304221 0.277871 0.235792
611 4 0.254627 0.310023 0.25003
729 4 0.305549 0.329622 0.190444
646 2 0.0652763 0.335313 0.169383
647 4 0.0631881 0.35975 0.174247
750 4 0.0904203 0.340121 0.250947
734 4 0.157597 0.339414 0.246115
299 4 0.150505 0.355658 0.257887
298 2 0.125856 0.356361 0.253748
727 2 0.306342 0.351638 0.202269
728 4 0.307134 0.373655 0.214094
445 2 0.406383 0.384209 0.230092
446 4 0.387451 0.391808 0.244548
447 4 0.425316 0.376609 0.215635
644 4 0.427787 0.367981 0.197107
597 4 0.475967 0.381472 0.165064
643 2 0.451667 0.372795 0.191469
645 4 0.475546 0.37761 0.185831
1465 2 0.0379917 0.475899 0.173126
1467 4 0.0372299 0.461189 0.193331
1756 2 0.10672 0.459985 0.247012
1757 4 0.114764 0.436603 0.243301
231 4 0.46128 0.472125 0.224498
229 2 0.460812 0.491447 0.208635
232 2 0.0263883 0.0456694 0.295825
233 4 0.0512376 0.0437493 0.293823
1404 4 0.0600737 0.0278117 0.296046
1402 2 0.0750149 0.0164657 0.279517
316 2 0.0813243 0.0559557 0.317924
317 4 0.0704152 0.0386096 0.303596
428 4 0.0662569 0.0222137 0.313593
427 2 0.0547118 0.0101199 0.332184
1403 4 0.089956 0.00511962 0.262988
318 4 0.0922333 0.0733018 0.332252
24 3 0.319787 0.0786108 0.2642
22 3 0.356278 0.0785043 0.2552
21 1 0.338868 0.0654906 0.262728
23 3 0.344311 0.0570506 0.283646
699 4 0.35054 0.065943 0.338877
351 4 0.423916 0.0666911 0.263576
349 2 0.40915 0.0837859 0.274295
479 4 0.448223 0.0215656 0.294334
478 2 0.43449 0.0343804 0.27783
2664 4 0.464584 0.0310111 0.293582
480 4 0.420757 0.0471952 0.261326
1428 4 0.45847 0.0175964 0.307427
258 4 0.441098 0.0237787 0.312864
2662 2 0.488669 0.0363193 0.28947
391 2 0.0743103 0.161059 0.251521
392 4 0.0914398 0.158476 0.269551
692 4 0.24402 0.128034 0.261372
721 2 0.231952 0.127679 0.301315
722 4 0.218221 0.120402 0.320903
723 4 0.245683 0.134955 0.281726
249 4 0.229559 0.116439 0.336824
28 3 0.329414 0.133722 0.26226
632 4 0.388472 0.115265 0.273504
350 4 0.394383 0.100881 0.285014
631 2 0.368866 0.130553 0.270852
707 4 0.348695 0.161898 0.27985
633 4 0.34926 0.145842 0.2682
761 4 0.432508 0.162852 0.258864
546 4 0.128347 0.205421 0.258046
544 2 0.146534 0.219451 0.267924
545 4 0.164721 0.233482 0.277801
402 4 0.182519 0.236904 0.269151
30 3 0.30611 0.163278 0.263288
376 2 0.272967 0.245431 0.317941
706 2 0.360137 0.179414 0.293541
29 3 0.3433 0.169029 0.264501
708 4 0.37158 0.19693 0.307231
444 4 0.000312478 0.292258 0.29677
390 4 0.112336 0.268045 0.320451
400 2 0.187964 0.259675 0.277925
401 4 0.193409 0.282447 0.286699
676 2 0.178172 0.305377 0.311525
345 4 0.202305 0.298231 0.277869
677 4 0.191161 0.301312 0.29055
343 2 0.226613 0.297785 0.27203
735 4 0.185614 0.309093 0.274336
344 4 0.250922 0.297339 0.266191
733 2 0.171605 0.324254 0.260225
496 2 0.292791 0.272735 0.275773
497 4 0.286302 0.262366 0.297581
377 4 0.278161 0.244194 0.293515
498 4 0.299281 0.283103 0.253966
615 4 0.36243 0.337795 0.335339
543 4 0.373595 0.321338 0.341275
365 4 0.0238433 0.357233 0.29868
601 2 0.0602165 0.370908 0.313033
603 4 0.0433504 0.362316 0.296696
602 4 0.0770827 0.3795 0.32937
364 2 0.00206511 0.369253 0.296149
549 4 0.0692062 0.395894 0.335142
300 4 0.101208 0.357064 0.249609
433 2 0.290641 0.374884 0.310586
435 4 0.269868 0.38714 0.317176
434 4 0.311414 0.362627 0.303995
614 4 0.325496 0.348646 0.303421
613 2 0.343963 0.343221 0.31938
2690 4 0.9983 0.476175 0.292888
2461 2 0.998275 0.496674 0.319333
1758 4 0.0986761 0.483367 0.250723
777 4 0.0976095 0.505897 0.275327
775 2 0.0971233 0.497027 0.2987
776 4 0.0966371 0.488157 0.322072
412 2 0.226274 0.488176 0.289824
1435 2 0.236005 0.456635 0.335638
1436 4 0.215693 0.465199 0.323837
413 4 0.215501 0.472018 0.305574
3 3 0.307004 0.463001 0.318137
438 4 0.324601 0.468629 0.331349
437 4 0.372221 0.453581 0.328774
436 2 0.348411 0.461105 0.330062
367 2 0.0621813 0.0123598 0.409006
369 4 0.040421 0.0183565 0.419763
429 4 0.0431667 0.998026 0.350775
1781 4 0.0995671 0.0166252 0.405923
368 4 0.0839416 0.00636305 0.39825
732 4 0.0918313 0.0673816 0.352073
730 2 0.112177 0.0678854 0.366599
731 4 0.132522 0.0683893 0.381124
606 4 0.14632 0.0691 0.364708
1780 2 0.119993 0.00843745 0.394052
604 2 0.17066 0.0737095 0.361317
1700 4 0.317492 0.0655629 0.356146
1701 4 0.314336 0.0287439 0.389837
1699 2 0.315914 0.0471534 0.372991
425 4 0.322589 0.0310771 0.408482
441 4 0.308592 0.0187338 0.404714
697 2 0.369228 0.0507375 0.345566
698 4 0.387915 0.035532 0.352256
424 2 0.346372 0.0279997 0.41556
257 4 0.405841 0.0282595 0.348043
724 2 0.408818 0.0843931 0.412386
256 2 0.423469 0.0260191 0.330453
2584 2 0.00732079 0.119085 0.358084
397 2 0.0624234 0.0967819 0.35087
398 4 0.0442839 0.112802 0.357154
2586 4 0.0307322 0.125264 0.364322
458 4 0.0349406 0.143689 0.371726
457 2 0.0347271 0.158583 0.391808
399 4 0.0805629 0.0807619 0.344585
598 2 0.130446 0.153783 0.345166
600 4 0.123759 0.132707 0.333491
605 4 0.195 0.078319 0.357927
248 4 0.211332 0.0715464 0.349201
247 2 0.220446 0.0939925 0.343013
683 4 0.224726 0.0988613 0.394265
404 4 0.238621 0.127419 0.352866
403 2 0.248029 0.150505 0.354783
682 2 0.249183 0.101734 0.38993
319 2 0.290499 0.138182 0.384536
684 4 0.273639 0.104607 0.385595
321 4 0.295632 0.16005 0.373552
320 4 0.285366 0.116315 0.39552
717 4 0.419269 0.174169 0.344238
725 4 0.408712 0.102935 0.395612
459 4 0.0345136 0.173478 0.41189
389 4 0.12097 0.229636 0.351287
599 4 0.137133 0.174858 0.35684
686 4 0.117879 0.183747 0.363375
685 2 0.115149 0.188435 0.387783
275 4 0.153341 0.186177 0.354144
472 2 0.230803 0.205114 0.353101
474 4 0.211466 0.220464 0.357053
276 4 0.196057 0.209726 0.365164
274 2 0.174699 0.197952 0.359654
405 4 0.257437 0.173592 0.3567
473 4 0.250141 0.189763 0.349149
378 4 0.267773 0.246668 0.342368
715 2 0.399401 0.183546 0.356177
466 2 0.375128 0.201919 0.410998
716 4 0.379534 0.192922 0.368116
467 4 0.376105 0.200121 0.386078
419 4 0.462924 0.252983 0.338943
269 4 0.482602 0.248937 0.337617
270 4 0.486929 0.227815 0.382738
452 4 0.475672 0.216182 0.394731
268 2 0.484766 0.238376 0.360178
451 2 0.459296 0.211163 0.412946
2800 2 0.0120993 0.30538 0.398188
618 4 0.0651569 0.333905 0.3821
347 4 0.0456488 0.32964 0.385803
388 2 0.116653 0.248841 0.335869
616 2 0.0814847 0.31516 0.379416
617 4 0.0978125 0.296415 0.376732
374 4 0.107229 0.297603 0.358959
373 2 0.130088 0.30564 0.352792
375 4 0.152947 0.313677 0.346624
678 4 0.165184 0.309442 0.3325
509 4 0.235265 0.318057 0.370426
508 2 0.254445 0.330209 0.359956
488 4 0.341118 0.267564 0.417401
510 4 0.273625 0.342361 0.349486
541 2 0.394302 0.310672 0.332184
542 4 0.415008 0.300006 0.323092
418 2 0.445913 0.270932 0.33525
420 4 0.428901 0.28888 0.331557
2802 4 0.0106702 0.32536 0.413153
346 2 0.0391105 0.353442 0.381815
348 4 0.0325722 0.377244 0.377827
668 4 0.319124 0.389479 0.411006
336 4 0.33712 0.381114 0.406678
334 2 0.360277 0.37237 0.403145
335 4 0.383434 0.363626 0.399612
240 4 0.39657 0.36469 0.414514
752 4 0.490762 0.397526 0.387844
561 4 0.497693 0.405765 0.405004
547 2 0.0835508 0.414174 0.344374
407 4 0.0981567 0.437787 0.372034
548 4 0.0978953 0.432454 0.353607
406 2 0.109239 0.449375 0.391219
500 4 0.101581 0.49299 0.340601
408 4 0.120321 0.460963 0.410404
1437 4 0.256317 0.448072 0.347439
1 1 0.299994 0.472352 0.338183
4 3 0.286106 0.457536 0.349407
2 3 0.318438 0.476611 0.351253
593 4 0.402275 0.463117 0.389935
588 4 0.408339 0.45768 0.408454
592 2 0.413284 0.470738 0.368819
586 2 0.415191 0.437159 0.420989
713 4 0.441629 0.485584 0.340457
751 2 0.494153 0.414113 0.369444
1742 4 0.427546 0.496883 0.34683
714 4 0.486203 0.463038 0.338102
712 2 0.463916 0.474311 0.339279
594 4 0.424293 0.478359 0.347702
719 4 0.0312901 0.02748 0.43574
718 2 0.0113136 0.0125272 0.437332
341 4 0.206272 0.0294267 0.50252
962 4 0.306515 0.0300412 0.420239
961 2 0.299578 0.0420938 0.441018
963 4 0.292641 0.0541464 0.461798
432 4 0.296 0.0701538 0.470656
430 2 0.311152 0.0817071 0.486846
426 4 0.370154 0.0249223 0.422639
726 4 0.408923 0.065851 0.429159
642 4 0.496993 0.105958 0.450487
640 2 0.482764 0.12615 0.454361
641 4 0.468536 0.146342 0.458235
471 4 0.0185836 0.209707 0.504151
260 4 0.0532265 0.173743 0.421591
259 2 0.0758247 0.184181 0.423945
687 4 0.112419 0.193122 0.412191
261 4 0.098423 0.194619 0.426298
1035 4 0.108523 0.209924 0.420857
1033 2 0.106589 0.22953 0.436253
487 2 0.340351 0.254217 0.438529
489 4 0.339584 0.240869 0.459658
468 4 0.374151 0.203717 0.435918
514 2 0.41647 0.193376 0.456303
411 4 0.34879 0.229798 0.474414
516 4 0.393637 0.192616 0.466463
409 2 0.364324 0.213253 0.463918
410 4 0.379857 0.196708 0.453423
575 4 0.39146 0.177113 0.47865
266 4 0.352731 0.235842 0.493625
515 4 0.439304 0.194136 0.446143
453 4 0.44292 0.206143 0.431161
585 4 0.508955 0.213712 0.458702
583 2 0.496832 0.229885 0.473421
584 4 0.48471 0.246058 0.488141
2847 4 0.0220717 0.312827 0.44633
695 4 0.0352978 0.264573 0.498063
694 2 0.0559002 0.261953 0.48414
1034 4 0.104655 0.249136 0.451649
1258 2 0.103875 0.283695 0.468232
1259 4 0.112016 0.306849 0.473006
9 3 0.124541 0.322501 0.474466
1260 4 0.0957338 0.260541 0.463457
696 4 0.0765027 0.259333 0.470217
265 2 0.360741 0.258748 0.499653
2456 4 0.496343 0.260723 0.493985
2845 2 0.00517079 0.329908 0.453242
326 4 0.0437362 0.37102 0.464774
325 2 0.0686182 0.369477 0.466693
10 3 0.1382 0.350049 0.452736
6 1 0.128209 0.345341 0.472652
7 3 0.107976 0.356231 0.47374
327 4 0.0935002 0.367934 0.468613
709 2 0.153223 0.407277 0.483665
8 3 0.141599 0.352627 0.490145
503 4 0.218818 0.359949 0.469272
504 4 0.192912 0.401715 0.478501
502 2 0.205865 0.380832 0.473887
710 4 0.176203 0.398311 0.48775
667 2 0.309888 0.405152 0.428158
239 4 0.425111 0.39732 0.439441
238 2 0.41084 0.381005 0.426977
882 4 0.386245 0.366634 0.49139
3308 4 0.492268 0.388326 0.504242
680 4 0.00872933 0.448323 0.450319
711 4 0.130243 0.416244 0.47958
384 4 0.117307 0.422941 0.46793
569 4 0.127931 0.464736 0.427427
382 2 0.117844 0.435239 0.446166
568 2 0.144818 0.481467 0.43518
383 4 0.118382 0.447536 0.424402
1543 2 0.203868 0.495935 0.451324
1544 4 0.228825 0.494527 0.450724
772 2 0.296773 0.431766 0.479056
774 4 0.309235 0.433741 0.457469
634 2 0.289785 0.460775 0.43109
635 4 0.297492 0.440555 0.443618
636 4 0.282077 0.480994 0.418562
669 4 0.300651 0.420825 0.445311
773 4 0.284312 0.429791 0.500643
587 4 0.422043 0.416638 0.433524
663 4 0.454365 0.476864 0.455407
661 2 0.47285 0.488972 0.467106
662 4 0.491335 0.50108 0.478805
342 4 0.210549 0.0783094 0.512159
340 2 0.208411 0.0538681 0.50734
2430 4 0.196849 0.0121812 0.504373
1152 4 0.207159 0.0776581 0.532776
1217 4 0.39437 0.0683506 0.507734
842 4 0.388329 0.0846464 0.517438
843 4 0.338375 0.0840192 0.515209
841 2 0.363352 0.0843328 0.516323
1216 2 0.41784 0.0603043 0.510831
3007 2 0.488054 0.0466361 0.574066
1218 4 0.44131 0.052258 0.513928
3008 4 0.471301 0.0373603 0.590143
1058 4 0.112918 0.106757 0.522165
1057 2 0.113138 0.114762 0.545851
1059 4 0.113358 0.122768 0.569537
1150 2 0.221105 0.0848182 0.552255
1151 4 0.23505 0.0919783 0.571734
1180 2 0.235243 0.152831 0.562783
1182 4 0.257972 0.153525 0.552385
431 4 0.326304 0.0932603 0.503037
900 4 0.259882 0.173465 0.550114
1199 4 0.0408122 0.213221 0.572201
1198 2 0.0178957 0.219349 0.564297
878 4 0.0512054 0.229558 0.578942
1244 4 0.0399282 0.245777 0.579449
470 4 0.0409061 0.165808 0.512824
469 2 0.0297449 0.187758 0.508487
1181 4 0.212514 0.152136 0.57318
796 2 0.250362 0.25403 0.574502
858 4 0.204017 0.242794 0.48497
798 4 0.22751 0.25438 0.56436
856 2 0.215871 0.252619 0.504671
947 4 0.213435 0.263417 0.553663
898 2 0.275754 0.186894 0.536224
650 4 0.284012 0.210118 0.50658
899 4 0.291626 0.200324 0.522335
649 2 0.283087 0.235095 0.507269
797 4 0.273213 0.25368 0.584644
576 4 0.383608 0.157443 0.523951
574 2 0.387534 0.167278 0.501301
1243 2 0.0366682 0.270554 0.578661
857 4 0.227725 0.262444 0.524372
946 2 0.194982 0.264925 0.570467
651 4 0.282161 0.260072 0.507958
791 4 0.293435 0.253786 0.583897
1237 2 0.324181 0.331696 0.58701
872 4 0.369541 0.257631 0.556423
871 2 0.375799 0.28031 0.564888
873 4 0.382058 0.30299 0.573353
813 4 0.390782 0.314295 0.586354
267 4 0.368751 0.281654 0.505681
2457 4 0.48775 0.307551 0.509284
2455 2 0.492046 0.284137 0.501635
1010 4 0.486453 0.323112 0.52129
984 4 0.017403 0.342452 0.564614
1189 2 0.238423 0.370129 0.575296
896 4 0.209565 0.36542 0.591345
1190 4 0.254768 0.358065 0.56072
803 4 0.265665 0.367326 0.547784
804 4 0.283241 0.385921 0.504819
802 2 0.274453 0.376624 0.526301
930 4 0.321244 0.371296 0.569455
928 2 0.333706 0.384834 0.552525
1239 4 0.331061 0.354173 0.578489
811 2 0.407125 0.331539 0.578561
929 4 0.346168 0.398371 0.535595
881 4 0.353462 0.383825 0.525013
880 2 0.369854 0.37523 0.508202
812 4 0.423468 0.348783 0.570768
1011 4 0.498532 0.370532 0.510984
926 4 0.456825 0.402052 0.573052
1009 2 0.492492 0.346822 0.516137
538 2 0.0875396 0.457988 0.573829
540 4 0.091077 0.481936 0.567572
1160 4 0.107622 0.49142 0.568508
1159 2 0.129278 0.493459 0.580837
2244 4 0.0943586 0.498705 0.556355
1951 2 0.377327 0.497319 0.555748
1952 4 0.353459 0.493367 0.562063
1910 4 0.406797 0.4994 0.569037
1909 2 0.424854 0.487933 0.581983
2114 4 0.991243 0.00607248 0.621777
1082 4 0.0608721 0.0586837 0.655229
1081 2 0.0609184 0.0775026 0.638766
823 2 0.171704 0.0311964 0.661272
824 4 0.178588 0.00820998 0.654244
1030 2 0.261293 0.0809572 0.591345
1031 4 0.281593 0.0663956 0.592354
951 4 0.289564 0.049667 0.600202
949 2 0.308047 0.0328799 0.601528
950 4 0.326529 0.0160927 0.602855
809 4 0.474444 0.0317683 0.608945
808 2 0.469053 0.0457066 0.628991
810 4 0.463663 0.0596449 0.649037
42 3 0.464732 0.0537069 0.671801
41 1 0.457478 0.0754366 0.669714
1128 4 0.00544993 0.112916 0.590277
1083 4 0.0609648 0.0963215 0.622303
1126 2 0.0275519 0.11098 0.601807
1127 4 0.0496539 0.109043 0.613336
938 4 0.0798945 0.101981 0.624674
1155 4 0.120254 0.133812 0.582939
1271 4 0.10725 0.145526 0.589739
939 4 0.104236 0.124619 0.587314
937 2 0.0920652 0.1133 0.605994
1153 2 0.143483 0.135297 0.59207
1032 4 0.240992 0.0955189 0.590336
1221 4 0.175738 0.153393 0.605897
1154 4 0.166712 0.136782 0.601202
886 2 0.297097 0.154289 0.644195
887 4 0.321121 0.150657 0.650099
1194 4 0.335265 0.151084 0.636953
888 4 0.273074 0.157922 0.63829
1192 2 0.359441 0.149223 0.643054
1193 4 0.383617 0.147361 0.649156
45 3 0.45701 0.081103 0.647661
3424 2 0.485173 0.112846 0.648527
3425 4 0.471291 0.0946857 0.658659
877 2 0.0739089 0.21969 0.582457
879 4 0.0966124 0.209822 0.585972
1272 4 0.0901259 0.191929 0.582379
1270 2 0.0986882 0.168727 0.586059
1212 4 0.210096 0.186301 0.648992
1219 2 0.18332 0.167889 0.624806
1220 4 0.190902 0.182385 0.643715
1210 2 0.233163 0.1768 0.647313
1211 4 0.25623 0.1673 0.645635
982 2 0.0201933 0.322451 0.579357
983 4 0.0229836 0.30245 0.5941
1245 4 0.0334081 0.295332 0.577873
1136 4 0.17096 0.281513 0.598013
1135 2 0.162331 0.30495 0.596818
1137 4 0.153701 0.328387 0.595623
948 4 0.176529 0.266433 0.587272
1065 4 0.207801 0.328204 0.661239
790 2 0.302661 0.276901 0.5815
1238 4 0.317302 0.309218 0.595531
792 4 0.311888 0.300016 0.579102
906 4 0.488471 0.301073 0.597564
953 4 0.473359 0.311005 0.587025
952 2 0.452652 0.301136 0.596974
954 4 0.431944 0.291267 0.606922
3123 4 0.476383 0.273616 0.660145
1039 2 0.0723244 0.389606 0.626932
1041 4 0.0492746 0.389807 0.636619
3264 4 0.0371501 0.395224 0.650086
3262 2 0.0336474 0.374563 0.663724
1040 4 0.0953742 0.389405 0.617244
993 4 0.112337 0.379866 0.612794
897 4 0.166099 0.342611 0.600895
991 2 0.129397 0.362604 0.606782
992 4 0.146457 0.345341 0.60077
895 2 0.187832 0.354016 0.59612
1172 4 0.210263 0.395783 0.599833
1191 4 0.222077 0.382194 0.589872
1171 2 0.202755 0.417543 0.609596
1206 4 0.387749 0.396048 0.616274
1204 2 0.40389 0.411545 0.627432
927 4 0.422862 0.366101 0.580453
925 2 0.439844 0.384077 0.576752
1002 4 0.456675 0.420026 0.581535
3240 4 0.0320357 0.413897 0.649359
539 4 0.0840022 0.43404 0.580087
3238 2 0.0131263 0.430239 0.648629
1161 4 0.150935 0.495498 0.593166
1188 4 0.170854 0.493005 0.589217
1186 2 0.176293 0.47375 0.604212
1173 4 0.195248 0.439302 0.61936
1187 4 0.181732 0.454495 0.619206
1139 4 0.247605 0.479965 0.680249
891 4 0.328477 0.451259 0.59893
890 4 0.347574 0.494034 0.581428
889 2 0.338025 0.472646 0.590179
1230 4 0.358057 0.42439 0.660126
1205 4 0.420031 0.427042 0.638589
1911 4 0.442911 0.476465 0.59493
1000 2 0.458376 0.444017 0.588368
1001 4 0.460078 0.468008 0.595202
1269 4 0.45535 0.485471 0.60605
1267 2 0.461369 0.497831 0.626935
945 4 0.0508966 0.996 0.685595
4337 4 0.0232124 0.998161 0.675865
943 2 0.0540346 0.0207412 0.683805
944 4 0.0571727 0.0454824 0.682015
1076 4 0.0571948 0.0636957 0.674327
1075 2 0.0606983 0.0793918 0.693472
1283 4 0.148277 0.0630556 0.675516
825 4 0.164819 0.0541828 0.668301
1147 2 0.245761 0.053871 0.708975
1148 4 0.229404 0.0713389 0.701729
1226 4 0.236939 0.087969 0.694062
1149 4 0.262118 0.0364031 0.71622
1092 4 0.313887 0.0246372 0.692477
1004 4 0.375372 0.0749969 0.724119
43 3 0.436187 0.0771408 0.67878
1163 4 0.478704 0.0669163 0.684691
1162 2 0.497928 0.0598675 0.699042
864 4 0.0573215 0.0955458 0.732337
1077 4 0.0642018 0.0950878 0.712617
1107 4 0.0758565 0.0968106 0.72761
851 4 0.0794101 0.108276 0.712874
862 2 0.0349447 0.091378 0.742685
850 2 0.0817633 0.128787 0.698769
852 4 0.0841164 0.149297 0.684664
1282 2 0.153785 0.0858177 0.684275
1284 4 0.159293 0.10858 0.693035
1105 2 0.0892198 0.0981895 0.748698
909 4 0.1529 0.126309 0.700101
907 2 0.175791 0.12968 0.709578
908 4 0.198682 0.133051 0.719056
1227 4 0.217462 0.128812 0.71535
1225 2 0.2272 0.10839 0.704706
830 4 0.324799 0.15674 0.669791
829 2 0.330321 0.143265 0.690116
831 4 0.335842 0.129789 0.710441
1003 2 0.358817 0.0935784 0.721706
1005 4 0.342261 0.11216 0.719292
44 3 0.472097 0.0893563 0.681156
1142 4 0.459372 0.160754 0.741306
1177 2 0.0160835 0.239226 0.689637
1179 4 0.0356005 0.248621 0.677147
1072 2 0.100096 0.219698 0.739644
1074 4 0.110961 0.241673 0.744568
1073 4 0.0892308 0.197724 0.73472
978 4 0.294303 0.184971 0.741908
1144 2 0.495141 0.172049 0.736791
1025 4 0.442343 0.175851 0.677997
1262 4 0.463471 0.191889 0.731699
1024 2 0.448636 0.175152 0.702185
1026 4 0.454929 0.174453 0.726374
1261 2 0.465287 0.216744 0.733728
1145 4 0.470404 0.17412 0.733796
1263 4 0.467103 0.241599 0.735757
1209 4 0.112114 0.282606 0.708053
1207 2 0.116593 0.270422 0.729423
1208 4 0.121072 0.258238 0.750793
821 4 0.123598 0.278376 0.69125
820 2 0.146369 0.287017 0.685592
822 4 0.169139 0.295658 0.679934
1064 4 0.172498 0.310861 0.69212
1063 2 0.19015 0.319532 0.67668
805 2 0.291748 0.327841 0.682613
807 4 0.279926 0.308265 0.692724
3263 4 0.0301447 0.353901 0.677362
892 2 0.0219329 0.346051 0.746139
894 4 0.0351889 0.364183 0.735153
1280 4 0.0542885 0.365982 0.735828
1279 2 0.0531733 0.386136 0.721072
816 4 0.0612666 0.347216 0.738308
1281 4 0.0520582 0.40629 0.706316
814 2 0.081998 0.341569 0.751094
1028 4 0.236362 0.370297 0.719978
1066 2 0.201202 0.356835 0.742781
1068 4 0.223894 0.35981 0.73271
1027 2 0.238098 0.391164 0.706314
1029 4 0.239834 0.412031 0.692649
806 4 0.30357 0.347417 0.672502
1018 2 0.391027 0.390984 0.731072
1020 4 0.388549 0.413958 0.721519
1019 4 0.393505 0.36801 0.740625
1983 4 0.0611326 0.423752 0.706912
1981 2 0.0682807 0.441002 0.723541
1982 4 0.0754289 0.458251 0.74017
1138 2 0.247003 0.45511 0.682907
1140 4 0.246401 0.430256 0.685566
1175 4 0.207696 0.44981 0.7321
1174 2 0.190401 0.4677 0.729639
1176 4 0.173107 0.485589 0.727178
1988 4 0.304075 0.468736 0.738426
1987 2 0.316946 0.453687 0.72316
1989 4 0.329817 0.438639 0.707895
1229 4 0.320548 0.426546 0.693128
1228 2 0.339302 0.425468 0.676627
2991 4 0.00508463 0.033498 0.793079
2989 2 0.00655303 0.0551295 0.780625
2990 4 0.00802143 0.0767609 0.768171
2048 4 0.153404 0.00133603 0.747504
2049 4 0.113239 0.0280934 0.760603
1202 4 0.111403 0.0388114 0.777931
2047 2 0.133321 0.0147147 0.754054
1201 2 0.113116 0.0612607 0.788807
1203 4 0.114829 0.0837101 0.799682
817 2 0.322744 0.0481564 0.825423
818 4 0.333641 0.0278479 0.815728
1085 4 0.309667 0.0850556 0.826548
1050 4 0.338029 0.00495468 0.786313
974 4 0.341208 0.0143095 0.805285
973 2 0.358332 0.00722539 0.822071
1113 4 0.422962 0.035805 0.791026
2322 4 0.503276 0.0474231 0.77644
1111 2 0.446408 0.0431198 0.786338
845 4 0.488656 0.057364 0.784758
1112 4 0.469853 0.0504347 0.781649
844 2 0.49095 0.0795165 0.796124
3083 4 0.995558 0.0875369 0.755045
863 4 0.0125678 0.0872103 0.753034
833 4 0.00431568 0.0953335 0.769934
832 2 0.0114717 0.110159 0.788754
834 4 0.0186278 0.124985 0.807573
1125 4 0.0323517 0.139073 0.813144
1123 2 0.0488614 0.156127 0.821003
1106 4 0.102583 0.0995684 0.769786
911 4 0.0992129 0.100123 0.829995
34 3 0.11179 0.103053 0.787728
31 1 0.114381 0.108257 0.810192
35 3 0.0956618 0.118635 0.817973
32 3 0.117717 0.0887972 0.821996
33 3 0.132837 0.122025 0.813056
1257 4 0.274506 0.10876 0.762904
1256 4 0.248207 0.1053 0.805296
840 4 0.261964 0.108431 0.819046
1255 2 0.261357 0.10703 0.7841
1084 2 0.31056 0.100055 0.806564
1086 4 0.311453 0.115055 0.786579
47 3 0.402696 0.157196 0.813549
1023 4 0.403604 0.153713 0.831459
48 3 0.40252 0.155393 0.776007
846 4 0.493245 0.101669 0.80749
1143 4 0.422069 0.16714 0.773992
1141 2 0.44072 0.163947 0.757649
1124 4 0.0653711 0.173181 0.828862
1131 4 0.167003 0.268806 0.797055
977 4 0.311755 0.220581 0.772372
918 4 0.295675 0.231437 0.776094
976 2 0.303029 0.202776 0.75714