ITEM: TIMESTEP
540000
ITEM: NUMBER OF ATOMS
4590
ITEM: BOX BOUNDS pp pp pp
-9.9985700000000008e+00 9.9985700000000008e+00
-9.9985700000000008e+00 9.9985700000000008e+00
-9.9985700000000008e+00 9.9985700000000008e+00
ITEM: ATOMS id type xs ys zs
463 2 0.0422225 0.0790323 0.0146832
464 4 0.0643405 0.0831159 0.00376104
465 4 0.0201044 0.0749487 0.0256053
591 4 0.000750754 0.0637356 0.0747285
589 2 0.983597 0.0773914 0.0867473
1475 4 0.265669 0.00617125 0.0589845
492 4 0.287945 0.0634207 0.0712834
297 4 0.32788 0.0501692 0.0399998
295 2 0.342629 0.0703222 0.0387763
486 4 0.354772 0.999144 0.050486
987 4 0.411934 0.0293335 0.0180593
747 4 0.471716 0.06688 0.00761097
2974 2 0.485623 0.0269624 0.0193912
2976 4 0.493559 0.00583353 0.0301507
2468 4 0.490561 0.999621 0.0502272
1607 4 0.417498 0.0153346 0.0317447
2975 4 0.477687 0.0480912 0.00863174
3233 4 0.0228534 0.153414 0.996421
422 4 0.096053 0.12562 0.0185482
421 2 0.10739 0.146248 0.010113
565 2 0.201597 0.151048 0.0629518
566 4 0.179913 0.139199 0.0667715
567 4 0.223281 0.162896 0.0591322
358 2 0.293566 0.140417 0.0595776
359 4 0.275292 0.136516 0.0761912
360 4 0.311841 0.144318 0.042964
296 4 0.357378 0.0904752 0.0375528
557 4 0.366195 0.105571 0.0274109
556 2 0.38263 0.108924 0.0459533
558 4 0.399066 0.112277 0.0644956
745 2 0.463639 0.090538 0.00713591
746 4 0.455561 0.114196 0.00666086
771 4 0.446554 0.15699 0.0647617
554 4 0.0729652 0.228396 0.0364956
836 4 0.0966772 0.256041 0.0127088
666 4 0.32314 0.192522 0.0123389
665 4 0.348754 0.188233 0.0550737
664 2 0.335947 0.190378 0.0337063
769 2 0.435741 0.178279 0.0573446
324 4 0.447877 0.233667 0.0464216
770 4 0.424927 0.199568 0.0499276
553 2 0.0600249 0.249641 0.0390201
555 4 0.0470847 0.270886 0.0415445
292 2 0.137915 0.30325 0.00574135
293 4 0.140754 0.29455 0.02901
507 4 0.15544 0.296047 0.042395
483 4 0.214337 0.305718 0.0729818
505 2 0.177966 0.295893 0.0532439
506 4 0.200493 0.29574 0.0640929
481 2 0.235763 0.293001 0.0708906
573 4 0.265921 0.264685 0.0617508
572 4 0.279052 0.253487 0.0148161
357 4 0.277965 0.2721 0.00743306
571 2 0.272486 0.259086 0.0382834
482 4 0.25719 0.280284 0.0687994
1071 4 0.385052 0.271321 0.00481249
1069 2 0.397671 0.29266 0.00806589
1070 4 0.410289 0.313999 0.0113193
323 4 0.411798 0.25342 0.0748627
322 2 0.429837 0.243544 0.0606421
671 4 0.438445 0.316744 0.0704295
280 2 0.439113 0.321115 0.0314541
281 4 0.450242 0.319244 0.0537662
282 4 0.427984 0.322986 0.00914196
288 4 0.158771 0.340805 0.0263871
454 2 0.129999 0.396497 0.0858788
287 4 0.207066 0.351348 0.0188279
286 2 0.182918 0.346076 0.0226075
252 4 0.292368 0.401452 0.0429797
250 2 0.306805 0.392346 0.024709
251 4 0.321242 0.38324 0.00643836
609 4 0.284507 0.398974 0.062504
741 4 0.339219 0.335211 0.0557904
739 2 0.348859 0.349035 0.0742602
551 4 0.0499474 0.421984 0.0579298
328 2 0.0155852 0.423614 0.00692016
550 2 0.0723688 0.416099 0.0673019
329 4 0.0289515 0.440741 0.0192961
552 4 0.0947902 0.410215 0.076674
455 4 0.112964 0.413354 0.0787483
242 4 0.140024 0.500356 0.0429702
241 2 0.148996 0.508391 0.0648823
245 4 0.214283 0.461135 0.0420846
626 4 0.223093 0.447635 0.0555379
244 2 0.230764 0.452053 0.0256203
625 2 0.22019 0.44433 0.0801514
246 4 0.247245 0.442971 0.009156
272 4 0.264391 0.451203 0.0151384
271 2 0.283407 0.462359 0.00334439
273 4 0.302423 0.473516 0.99155
226 2 0.492689 0.455443 0.0977571
563 4 0.473584 0.475555 0.069949
228 4 0.485005 0.475855 0.0855302
1666 2 0.0679332 0.058025 0.092648
1668 4 0.0505814 0.0407845 0.0874656
19 3 0.0546773 0.0341233 0.149127
20 3 0.0619127 0.0686479 0.162294
1667 4 0.0852851 0.0752655 0.0978304
450 4 0.166467 0.0414353 0.131452
448 2 0.177628 0.0638094 0.131412
490 2 0.295631 0.0634592 0.0950762
652 2 0.310844 0.00628245 0.146451
491 4 0.303317 0.0634978 0.118869
654 4 0.292004 0.990108 0.143517
653 4 0.329684 0.0224572 0.149385
310 2 0.410002 0.085451 0.153181
2722 2 0.487085 0.0574823 0.151007
1759 2 0.478447 0.0002965 0.129382
1760 4 0.490315 0.0147845 0.145948
2724 4 0.491777 0.0329386 0.151885
380 4 0.00657043 0.141745 0.146217
701 4 0.0948622 0.0840147 0.112338
700 2 0.102953 0.107655 0.111406
702 4 0.111044 0.131295 0.110473
476 4 0.111332 0.142752 0.126284
475 2 0.114549 0.152927 0.148895
237 4 0.197772 0.147052 0.135083
449 4 0.18879 0.0861835 0.131371
235 2 0.188016 0.124061 0.13628
236 4 0.178261 0.101071 0.137478
582 4 0.303746 0.0939325 0.161807
580 2 0.285114 0.110147 0.165692
629 4 0.41675 0.114693 0.129115
628 2 0.410003 0.138556 0.125917
312 4 0.413192 0.0947249 0.130181
2723 4 0.482393 0.082026 0.150129
2625 4 0.978265 0.205211 0.118652
337 2 0.0642263 0.236071 0.148593
656 4 0.00651677 0.259158 0.0827745
338 4 0.0809292 0.222334 0.161143
737 4 0.19286 0.190805 0.131278
736 2 0.205972 0.199706 0.111938
738 4 0.219083 0.208608 0.0925979
277 2 0.240165 0.232866 0.167782
461 4 0.303284 0.221322 0.100886
460 2 0.326321 0.216155 0.0926559
354 4 0.285164 0.229275 0.0937823
352 2 0.278356 0.232159 0.117668
284 4 0.276363 0.229351 0.158896
353 4 0.271548 0.235043 0.141553
283 2 0.299294 0.228131 0.168788
255 4 0.366728 0.202028 0.0903152
462 4 0.349359 0.210987 0.0844256
254 4 0.382621 0.163598 0.118087
253 2 0.374674 0.182813 0.104201
765 4 0.389856 0.217562 0.145938
624 4 0.393108 0.229066 0.12864
630 4 0.403255 0.162419 0.122719
518 4 0.487033 0.228646 0.122225
339 4 0.0475234 0.249808 0.136044
536 4 0.21302 0.316441 0.123181
278 4 0.260112 0.23852 0.153805
754 2 0.269638 0.277517 0.151788
755 4 0.266978 0.253886 0.144063
756 4 0.272298 0.301148 0.159513
622 2 0.384518 0.251566 0.12192
623 4 0.375929 0.274066 0.1152
670 2 0.441881 0.311713 0.0946796
672 4 0.445318 0.306683 0.11893
528 4 0.480505 0.273027 0.136936
526 2 0.482676 0.268133 0.16136
621 4 0.00395858 0.369352 0.133935
619 2 0.00488558 0.358045 0.111653
620 4 0.00581257 0.346739 0.0893707
456 4 0.147034 0.379641 0.0930092
535 2 0.201813 0.334387 0.136504
537 4 0.190607 0.352334 0.149828
607 2 0.295902 0.409665 0.082024
302 4 0.312813 0.385764 0.144298
387 4 0.315153 0.368843 0.132848
608 4 0.307298 0.420356 0.101544
385 2 0.337355 0.37089 0.121532
740 4 0.358499 0.36286 0.09273
15 3 0.377315 0.362133 0.114748
386 4 0.359557 0.372937 0.110215
11 1 0.394149 0.367988 0.128924
13 3 0.385439 0.378771 0.147532
12 3 0.405196 0.349023 0.135811
14 3 0.409195 0.381894 0.118031
495 4 0.419392 0.399968 0.115675
596 4 0.49349 0.376598 0.167006
315 4 0.00764141 0.468875 0.0997379
313 2 0.00655202 0.463237 0.124073
314 4 0.00546264 0.457599 0.148408
637 2 0.248374 0.49175 0.144044
627 4 0.217287 0.441025 0.104765
638 4 0.264371 0.48062 0.15971
523 2 0.328244 0.492575 0.104125
525 4 0.339222 0.476848 0.120166
658 2 0.373768 0.444784 0.139317
659 4 0.385504 0.454121 0.119311
227 4 0.500373 0.435032 0.109984
493 2 0.434734 0.415109 0.128346
494 4 0.450075 0.430251 0.141017
16 1 0.0570812 0.047179 0.168158
17 3 0.0373462 0.0468099 0.179971
2480 4 0.0182436 0.0478414 0.186478
18 3 0.0739969 0.0386304 0.181544
1422 4 0.0152272 0.0311445 0.196509
1420 2 0.0226701 0.00737204 0.194352
578 4 0.0697891 0.0652428 0.21404
2479 2 0.998867 0.0610383 0.177786
673 2 0.111245 0.0328991 0.238751
674 4 0.124831 0.0377658 0.218333
689 4 0.16284 0.0324259 0.22633
688 2 0.178247 0.0220415 0.243062
692 4 0.223188 0.0555484 0.232309
723 4 0.215617 0.0664305 0.247802
691 2 0.228535 0.0759702 0.21891
690 4 0.193655 0.0116571 0.259794
24 3 0.326624 0.0386234 0.241258
21 1 0.348299 0.0309429 0.238156
23 3 0.352055 0.0122648 0.251401
25 3 0.351632 0.0257259 0.21624
759 4 0.365324 0.0442091 0.221498
22 3 0.363014 0.0475135 0.244323
757 2 0.381451 0.0539565 0.205063
758 4 0.397578 0.0637038 0.188629
311 4 0.406812 0.076177 0.176181
742 2 0.474032 0.0568095 0.209507
744 4 0.473279 0.0348647 0.221466
743 4 0.474785 0.0787542 0.197547
379 2 0.00672219 0.144397 0.171079
381 4 0.00687394 0.14705 0.195941
511 2 0.0295053 0.16293 0.224305
512 4 0.0189512 0.143938 0.211932
477 4 0.117767 0.163103 0.171507
577 2 0.0868754 0.0808415 0.223522
693 4 0.233882 0.0963919 0.205511
581 4 0.266481 0.126362 0.169577
28 3 0.306272 0.140873 0.228755
26 1 0.310077 0.154737 0.246968
331 2 0.448623 0.158159 0.240378
332 4 0.463035 0.161413 0.260549
513 4 0.0400594 0.181922 0.236677
394 2 0.0180231 0.243676 0.22424
396 4 0.0158596 0.232473 0.246489
363 4 0.0882479 0.228305 0.178768
279 4 0.220219 0.227212 0.181759
285 4 0.322225 0.226911 0.17868
333 4 0.43421 0.154906 0.220207
764 4 0.362512 0.207845 0.186664
763 2 0.376184 0.212704 0.166301
520 2 0.481902 0.213121 0.202802
521 4 0.457949 0.211031 0.195944
762 4 0.475492 0.177229 0.259068
395 4 0.0201866 0.25488 0.201992
361 2 0.0930541 0.24585 0.195921
371 4 0.164028 0.282372 0.213839
370 2 0.140964 0.272814 0.212467
372 4 0.1179 0.263256 0.211094
748 2 0.0913844 0.298324 0.22853
362 4 0.0978603 0.263395 0.213075
749 4 0.0865701 0.274137 0.224408
750 4 0.0961986 0.322511 0.232652
343 2 0.24418 0.31252 0.248052
612 4 0.264422 0.3192 0.162734
344 4 0.246862 0.287748 0.250132
307 2 0.315055 0.284068 0.241126
308 4 0.311627 0.274873 0.218128
610 2 0.272644 0.330311 0.18357
527 4 0.484847 0.263238 0.185783
647 4 0.0720105 0.363562 0.173806
646 2 0.0927231 0.350702 0.179354
648 4 0.113436 0.337842 0.184902
300 4 0.102162 0.365207 0.242758
298 2 0.122446 0.375807 0.252825
417 4 0.157066 0.399665 0.175387
415 2 0.179535 0.400199 0.186344
291 4 0.22174 0.394776 0.196278
416 4 0.202004 0.400734 0.1973
611 4 0.280866 0.341423 0.204405
303 4 0.309724 0.3894 0.194077
301 2 0.311269 0.387582 0.169187
729 4 0.306936 0.402727 0.20889
727 2 0.313191 0.392386 0.230779
595 2 0.470319 0.385323 0.170494
597 4 0.447149 0.394049 0.173983
643 2 0.430723 0.373951 0.20713
644 4 0.428006 0.361968 0.228906
645 4 0.43344 0.385935 0.185354
447 4 0.431695 0.358027 0.248198
262 2 0.012587 0.422217 0.237206
264 4 0.989314 0.423138 0.228112
1756 2 0.0886319 0.493723 0.247728
290 4 0.250632 0.429747 0.217326
289 2 0.236186 0.412262 0.206802
768 4 0.258898 0.444045 0.2062
766 2 0.254801 0.462808 0.190189
767 4 0.250704 0.481571 0.174178
660 4 0.362033 0.435447 0.159324
1568 4 0.498523 0.523259 0.200068
232 2 0.0184645 0.0448677 0.295191
233 4 0.0368435 0.0395449 0.279095
1402 2 0.0722748 0.0173102 0.27522
1404 4 0.0493668 0.0255686 0.280895
675 4 0.0976587 0.0280323 0.25917
1403 4 0.0951829 0.00905183 0.269546
1701 4 0.225007 0.0275569 0.320833
1699 2 0.24879 0.0341156 0.316767
721 2 0.216048 0.072445 0.272068
1700 4 0.272573 0.0406742 0.3127
478 2 0.47297 0.0381938 0.293139
480 4 0.459657 0.0486242 0.274724
351 4 0.456683 0.0670256 0.269561
479 4 0.486284 0.0277633 0.311555
531 4 0.00579116 0.153964 0.26709
579 4 0.103962 0.0964402 0.233005
732 4 0.0809933 0.10063 0.332855
722 4 0.21648 0.0784595 0.296334
249 4 0.217141 0.0974828 0.303803
247 2 0.209653 0.098777 0.327623
403 2 0.22891 0.137785 0.29102
404 4 0.220839 0.114286 0.293823
29 3 0.298724 0.146708 0.265544
27 3 0.332617 0.15497 0.251555
632 4 0.374059 0.115643 0.266905
631 2 0.354093 0.119275 0.281511
633 4 0.334126 0.122908 0.296116
706 2 0.348103 0.154169 0.324288
707 4 0.342785 0.135542 0.308478
349 2 0.439339 0.0820464 0.279498
350 4 0.421995 0.0970672 0.289435
393 4 0.0549978 0.172929 0.249675
442 2 0.00363406 0.245236 0.286479
392 4 0.0987914 0.162827 0.271602
546 4 0.145607 0.193305 0.270807
391 2 0.0768946 0.167878 0.260639
544 2 0.162842 0.181316 0.284387
405 4 0.236981 0.161283 0.288218
545 4 0.180076 0.169328 0.297968
30 3 0.303174 0.175908 0.242195
717 4 0.394141 0.210309 0.328927
418 2 0.42812 0.235038 0.324117
761 4 0.482654 0.221593 0.281005
760 2 0.479073 0.199411 0.270037
443 4 0.0139997 0.243342 0.263804
390 4 0.096327 0.26932 0.308288
388 2 0.0992701 0.256798 0.329729
345 4 0.241499 0.337293 0.245972
400 2 0.192463 0.294979 0.300231
402 4 0.211854 0.310679 0.301869
401 4 0.173072 0.279279 0.298592
309 4 0.318482 0.293262 0.264124
496 2 0.315453 0.31312 0.29469
497 4 0.302623 0.319697 0.315118
498 4 0.328282 0.306543 0.274262
543 4 0.373591 0.301886 0.314574
615 4 0.384473 0.317655 0.308241
613 2 0.366504 0.335037 0.307852
541 2 0.392215 0.285476 0.317579
420 4 0.419834 0.254334 0.310546
542 4 0.410839 0.269066 0.320583
364 2 0.0140853 0.359149 0.280194
365 4 0.0387014 0.363393 0.279094
601 2 0.0714519 0.387301 0.294645
603 4 0.0540107 0.370282 0.289049
299 4 0.142731 0.386407 0.262892
602 4 0.0888931 0.404321 0.300241
734 4 0.162202 0.391923 0.265942
510 4 0.228172 0.341148 0.336377
733 2 0.169896 0.37213 0.279142
677 4 0.1723 0.342789 0.309769
735 4 0.177589 0.352337 0.292342
676 2 0.182821 0.341928 0.332435
433 2 0.31744 0.368969 0.323952
434 4 0.338214 0.355143 0.325522
728 4 0.319446 0.382045 0.252668
435 4 0.296665 0.382794 0.322383
614 4 0.348535 0.352419 0.307463
445 2 0.450491 0.372193 0.256639
446 4 0.469286 0.386358 0.265079
263 4 0.0358597 0.421296 0.246301
549 4 0.086778 0.41993 0.313313
1757 4 0.0683593 0.48773 0.26108
777 4 0.0851671 0.464857 0.298087
775 2 0.0903643 0.48228 0.315251
414 4 0.224369 0.486645 0.285959
412 2 0.205919 0.475719 0.298821
413 4 0.18747 0.464793 0.311683
436 2 0.338601 0.463576 0.305108
437 4 0.3421 0.458504 0.280875
438 4 0.335101 0.468648 0.32934
231 4 0.389462 0.47674 0.258351
119 3 0.485972 0.43898 0.312642
713 4 0.42358 0.465057 0.313314
712 2 0.446949 0.456833 0.316692
714 4 0.470319 0.448609 0.320071
316 2 0.0582949 0.0655093 0.344974
317 4 0.0447334 0.0465599 0.35404
428 4 0.0825694 0.0306128 0.354568
1781 4 0.109972 0.0121645 0.413747
606 4 0.136171 0.0791832 0.344039
429 4 0.111389 0.00976006 0.319421
427 2 0.0969794 0.0201864 0.336995
683 4 0.318231 0.0696818 0.359616
682 2 0.301876 0.0779485 0.376625
439 2 0.297201 0.00332698 0.418591
698 4 0.398801 0.0711289 0.357218
699 4 0.34947 0.0634092 0.359969
257 4 0.416636 0.063531 0.361254
697 2 0.374136 0.067269 0.358593
256 2 0.433997 0.0457478 0.358509
258 4 0.451358 0.0279646 0.355765
318 4 0.0718564 0.0844587 0.335908
398 4 0.0552745 0.14823 0.371784
397 2 0.0677271 0.1346 0.354922
399 4 0.0801797 0.12097 0.338059
457 2 0.0257961 0.145581 0.410759
458 4 0.00639444 0.130063 0.407942
731 4 0.129658 0.0978431 0.344022
730 2 0.105326 0.0992364 0.338439
604 2 0.160484 0.0844953 0.346451
599 4 0.150556 0.160443 0.381798
600 4 0.162028 0.134349 0.34071
598 2 0.156292 0.147396 0.361254
605 4 0.184798 0.0898074 0.348864
248 4 0.202164 0.100071 0.351444
684 4 0.28552 0.0862153 0.393635
2879 4 0.491991 0.0762756 0.406016
452 4 0.484816 0.125176 0.391838
451 2 0.465927 0.137812 0.402266
453 4 0.447038 0.150448 0.412693
515 4 0.440281 0.168953 0.419729
260 4 0.0539427 0.179408 0.416894
459 4 0.0451978 0.161099 0.413577
389 4 0.102213 0.244275 0.351169
474 4 0.205577 0.221266 0.379968
276 4 0.201278 0.235453 0.393833
472 2 0.21756 0.199365 0.381362
473 4 0.229543 0.177464 0.382756
708 4 0.353421 0.172795 0.340099
715 2 0.38528 0.214239 0.351976
716 4 0.376419 0.218169 0.375024
467 4 0.376761 0.200803 0.386744
466 2 0.371795 0.20178 0.41123
306 4 0.490958 0.173443 0.402163
419 4 0.436406 0.215741 0.337688
268 2 0.485228 0.241276 0.413398
270 4 0.468122 0.227451 0.401505
2493 4 0.0146457 0.334924 0.332037
347 4 0.0472333 0.311098 0.376123
346 2 0.0426544 0.303969 0.399647
616 2 0.0839943 0.325305 0.353712
618 4 0.0653567 0.314933 0.36676
274 2 0.198447 0.258033 0.383476
275 4 0.195617 0.280614 0.373118
374 4 0.187491 0.34605 0.417934
373 2 0.186109 0.338989 0.393988
376 2 0.287409 0.294232 0.347842
377 4 0.291975 0.307974 0.327458
378 4 0.282843 0.28049 0.368225
488 4 0.275473 0.261267 0.419421
617 4 0.102632 0.335677 0.340664
678 4 0.193342 0.341068 0.355101
508 2 0.239987 0.342309 0.358382
375 4 0.184727 0.331928 0.370042
509 4 0.251803 0.34347 0.380387
503 4 0.258366 0.388842 0.408525
336 4 0.335262 0.385501 0.39813
334 2 0.34807 0.370177 0.413174
559 2 0.488171 0.396319 0.402529
561 4 0.477011 0.400314 0.380513
752 4 0.462255 0.40672 0.369106
547 2 0.0785711 0.419695 0.33693
548 4 0.0703642 0.41946 0.360547
407 4 0.0687852 0.431618 0.377147
406 2 0.0823218 0.440117 0.396375
570 4 0.170519 0.488377 0.404945
3 3 0.320379 0.474368 0.341522
5 3 0.298514 0.478751 0.371859
1 1 0.31299 0.489227 0.35774
4 3 0.331061 0.497554 0.369677
594 4 0.38959 0.474763 0.38416
592 2 0.384953 0.492311 0.366963
751 2 0.450154 0.428435 0.371783
753 4 0.438053 0.450151 0.37446
2237 4 0.0425585 0.0250903 0.498111
718 2 0.0562671 0.0499572 0.481278
720 4 0.0481061 0.0264002 0.479369
719 4 0.0644282 0.0735142 0.483186
368 4 0.113952 0.0122821 0.434153
367 2 0.0918419 0.0221714 0.440361
369 4 0.069732 0.0320607 0.446568
341 4 0.210705 0.0320234 0.498894
441 4 0.305437 0.0252398 0.427376
962 4 0.302536 0.0161409 0.446329
961 2 0.304403 0.0317286 0.46579
963 4 0.30627 0.0473163 0.48525
426 4 0.40124 0.024955 0.407312
424 2 0.380136 0.0327418 0.418228
425 4 0.359032 0.0405287 0.429144
725 4 0.388173 0.0512305 0.455145
724 2 0.371713 0.0685013 0.462625
726 4 0.355253 0.0857721 0.470106
471 4 0.0161239 0.177245 0.48536
321 4 0.257204 0.125578 0.429572
320 4 0.286696 0.0878611 0.415138
319 2 0.27195 0.10672 0.422355
1181 4 0.273997 0.102193 0.486431
1182 4 0.271819 0.150295 0.499928
1180 2 0.272908 0.126244 0.493179
2878 2 0.497777 0.0838938 0.429117
2880 4 0.503564 0.091512 0.452218
640 2 0.489968 0.108963 0.478938
259 2 0.0754232 0.186122 0.427788
469 2 0.0319667 0.190754 0.499206
685 2 0.139378 0.184441 0.425136
687 4 0.11596 0.191198 0.430715
261 4 0.0969038 0.192835 0.438683
1035 4 0.0905569 0.191248 0.458105
1033 2 0.101803 0.203785 0.476586
1034 4 0.113049 0.216321 0.495067
686 4 0.162796 0.177685 0.419556
487 2 0.292089 0.246581 0.430972
489 4 0.308705 0.231896 0.442523
411 4 0.308868 0.216974 0.453885
409 2 0.331471 0.206426 0.452151
574 2 0.392138 0.176537 0.491469
410 4 0.354075 0.195878 0.450417
468 4 0.366828 0.202756 0.435716
575 4 0.397564 0.184429 0.468372
516 4 0.410899 0.189661 0.454494
514 2 0.42559 0.179307 0.437112
304 2 0.48578 0.184943 0.423753
305 4 0.480602 0.196443 0.445342
695 4 0.0913591 0.240348 0.46263
348 4 0.0380756 0.29684 0.423171
694 2 0.096234 0.259829 0.477527
696 4 0.101109 0.279309 0.492423
9 3 0.162481 0.327198 0.471385
1260 4 0.113679 0.291919 0.499621
651 4 0.237228 0.289344 0.467916
649 2 0.259502 0.278071 0.469308
650 4 0.281777 0.266798 0.4707
266 4 0.352614 0.296617 0.4717
267 4 0.380846 0.263485 0.447086
265 2 0.36673 0.280051 0.459393
583 2 0.47238 0.278562 0.474032
585 4 0.453655 0.283484 0.45821
2846 4 0.0062588 0.362758 0.479003
681 4 0.00546638 0.401546 0.440712
326 4 0.0845434 0.35577 0.431612
6 1 0.152709 0.34377 0.484358
327 4 0.124015 0.357751 0.462251
325 2 0.104279 0.35676 0.446932
7 3 0.131141 0.347142 0.477105
711 4 0.170232 0.376763 0.447908
502 2 0.24132 0.401258 0.421957
10 3 0.164438 0.363182 0.482294
504 4 0.224273 0.413675 0.435389
709 2 0.188443 0.391077 0.438492
710 4 0.206654 0.40539 0.429077
668 4 0.327906 0.396456 0.43821
772 2 0.271048 0.423238 0.485684
335 4 0.360878 0.354854 0.428218
812 4 0.358121 0.360084 0.491517
238 2 0.396511 0.374604 0.44696
240 4 0.377902 0.360352 0.438257
239 4 0.41512 0.388856 0.455663
680 4 0.00909558 0.447791 0.422031
1383 4 0.00494676 0.465696 0.432849
679 2 0.00728098 0.424668 0.431372
539 4 0.0737818 0.454686 0.502886
568 2 0.154742 0.490218 0.424256
384 4 0.10889 0.417042 0.47109
569 4 0.138965 0.492059 0.443566
383 4 0.0890815 0.445055 0.434708
382 2 0.0989857 0.431049 0.452899
408 4 0.0958584 0.448616 0.415602
636 4 0.24573 0.483564 0.440253
635 4 0.259487 0.442626 0.465463
774 4 0.27628 0.433716 0.463592
667 2 0.306712 0.406847 0.446457
669 4 0.285518 0.417239 0.454705
634 2 0.252609 0.463095 0.452858
1557 4 0.256621 0.501 0.434316
880 2 0.355599 0.459683 0.486152
588 4 0.386855 0.459176 0.464268
881 4 0.362894 0.480199 0.498443
586 2 0.401012 0.451653 0.44508
882 4 0.348305 0.439168 0.473861
661 2 0.463527 0.468674 0.479785
662 4 0.483799 0.483251 0.47847
1332 4 0.487542 0.500489 0.47004
587 4 0.415168 0.444129 0.425892
663 4 0.443255 0.454097 0.4811
1126 2 0.0185856 0.0553347 0.57262
1127 4 0.0422412 0.0618618 0.567826
1058 4 0.125807 0.0756806 0.574434
1031 4 0.217231 0.0701201 0.567377
340 2 0.213787 0.0561514 0.504684
342 4 0.21687 0.0802795 0.510473
2428 2 0.207267 0.00167385 0.504126
2430 4 0.194004 0.0218877 0.497747
432 4 0.299316 0.063599 0.493558
430 2 0.315915 0.0595386 0.511811
1217 4 0.406821 0.0466893 0.524257
1216 2 0.410522 0.033187 0.544973
841 2 0.370444 0.061962 0.524081
842 4 0.392741 0.0564648 0.514191
843 4 0.348147 0.0674591 0.533971
431 4 0.332514 0.0554782 0.530064
3008 4 0.486886 0.0772062 0.591725
1218 4 0.414223 0.0196847 0.565689
938 4 0.0836314 0.148352 0.543027
937 2 0.104795 0.150184 0.556216
939 4 0.125958 0.152015 0.569404
1059 4 0.129901 0.123839 0.561598
1057 2 0.127854 0.0997598 0.568016
1153 2 0.152554 0.154052 0.58712
1155 4 0.135945 0.138126 0.577337
1030 2 0.224795 0.093924 0.56622
1152 4 0.204814 0.093156 0.519323
1151 4 0.168187 0.126873 0.514593
1150 2 0.186501 0.110014 0.516958
1032 4 0.232359 0.117728 0.565063
576 4 0.386713 0.168646 0.514566
641 4 0.473706 0.106355 0.497751
3159 4 0.492203 0.155442 0.561427
877 2 0.0528676 0.22191 0.582224
878 4 0.0311678 0.209491 0.581961
1199 4 0.0124134 0.211833 0.576545
879 4 0.0745674 0.234329 0.582488
470 4 0.0478096 0.204262 0.513051
1272 4 0.085501 0.221344 0.571317
1270 2 0.107925 0.232403 0.571162
856 2 0.218051 0.240763 0.50004
1221 4 0.186638 0.179627 0.591794
857 4 0.208251 0.256325 0.483101
858 4 0.227852 0.225201 0.51698
898 2 0.311885 0.189278 0.567095
900 4 0.290159 0.201637 0.567718
899 4 0.333612 0.176919 0.566472
983 4 0.0321054 0.318482 0.530497
982 2 0.0202313 0.329272 0.549674
984 4 0.00835721 0.340062 0.568852
1258 2 0.135705 0.286157 0.509957
1259 4 0.157731 0.280395 0.520293
872 4 0.358048 0.274718 0.5468
871 2 0.352678 0.298352 0.540652
873 4 0.347307 0.321985 0.534504
954 4 0.40726 0.299249 0.602773
2456 4 0.502091 0.259892 0.500059
584 4 0.491105 0.273641 0.489854
8 3 0.152198 0.337154 0.506592
1189 2 0.22831 0.37453 0.564933
1191 4 0.207042 0.386169 0.571049
1190 4 0.249578 0.362891 0.558818
896 4 0.1927 0.380145 0.58269
803 4 0.255182 0.375878 0.544749
802 2 0.264549 0.368184 0.522881
773 4 0.265816 0.412761 0.507775
804 4 0.273917 0.36049 0.501012
813 4 0.345916 0.341701 0.536392
928 2 0.34288 0.372377 0.566731
930 4 0.33593 0.359565 0.587047
811 2 0.352019 0.350893 0.513954
929 4 0.34983 0.385189 0.546415
926 4 0.424937 0.342015 0.521135
925 2 0.427399 0.364205 0.532391
927 4 0.429862 0.386396 0.543648
3307 2 0.493471 0.365706 0.512748
3309 4 0.473338 0.378227 0.520689
538 2 0.0867539 0.474748 0.510264
1159 2 0.137499 0.469353 0.570687
540 4 0.099726 0.49481 0.517641
1161 4 0.149311 0.490708 0.576129
1172 4 0.24283 0.41917 0.55962
1951 2 0.346958 0.487123 0.584377
1953 4 0.361403 0.495949 0.565975
1911 4 0.458227 0.487738 0.55785
1002 4 0.418095 0.428948 0.561348
1000 2 0.439561 0.440759 0.556359
1001 4 0.461027 0.45257 0.55137
1083 4 0.0383119 0.0734745 0.614472
823 2 0.133179 0.986898 0.649224
825 4 0.124051 0.00822646 0.658549
951 4 0.254955 0.0139084 0.595785
949 2 0.271186 0.0286258 0.607832
950 4 0.287417 0.0433433 0.619879
2283 4 0.402863 0.00928186 0.658369
809 4 0.466996 0.0696156 0.608349
808 2 0.459429 0.0762318 0.631243
810 4 0.451862 0.0828479 0.654138
1082 4 0.0494193 0.0820338 0.662473
1081 2 0.0438656 0.0777541 0.638473
1154 4 0.169163 0.169977 0.596902
1283 4 0.180454 0.126224 0.647685
1282 2 0.181558 0.105286 0.661307
45 3 0.450839 0.103659 0.664208
3179 4 0.00541067 0.180408 0.645579
1271 4 0.13035 0.243462 0.571006
1210 2 0.245787 0.18178 0.646696
1212 4 0.231883 0.189722 0.627492
1219 2 0.207822 0.189548 0.600627
1220 4 0.229005 0.19947 0.609459
1211 4 0.259692 0.173838 0.6659
888 4 0.277446 0.172637 0.673749
1193 4 0.379604 0.198263 0.666919
1192 2 0.35519 0.192869 0.666752
1025 4 0.422951 0.221475 0.664423
905 4 0.506879 0.258173 0.593918
1244 4 0.0477209 0.271476 0.612899
1243 2 0.0478705 0.285576 0.59225
1245 4 0.0480201 0.299675 0.571602
1209 4 0.122898 0.250146 0.65122
1136 4 0.135659 0.316098 0.612228
948 4 0.142785 0.279095 0.614236
946 2 0.163906 0.270201 0.604238
797 4 0.244486 0.249952 0.598849
796 2 0.220803 0.250655 0.590864
798 4 0.197119 0.251358 0.582878
947 4 0.185027 0.261307 0.594239
791 4 0.258798 0.265483 0.600707
792 4 0.296358 0.295744 0.587508
790 2 0.277578 0.280613 0.594107
1238 4 0.304975 0.308114 0.60068
1237 2 0.310768 0.331822 0.595241
805 2 0.332335 0.298691 0.639937
1064 4 0.278623 0.303559 0.673248
807 4 0.309854 0.289296 0.64555
806 4 0.354816 0.308086 0.634324
953 4 0.454449 0.284874 0.594569
904 2 0.48877 0.274107 0.600499
906 4 0.47066 0.290041 0.607081
952 2 0.430855 0.292061 0.598671
3263 4 0.0143668 0.336913 0.616752
1039 2 0.0638785 0.397665 0.622337
1041 4 0.0405911 0.3901 0.617272
3264 4 0.020942 0.386473 0.615604
3262 2 0.0176544 0.361693 0.616178
3240 4 0.0128291 0.402368 0.624384
1040 4 0.0871659 0.40523 0.627401
993 4 0.10165 0.416619 0.619089
1137 4 0.135884 0.365727 0.6061
897 4 0.144906 0.381792 0.59731
1135 2 0.135772 0.340912 0.609164
991 2 0.119604 0.399353 0.616911
992 4 0.137558 0.382088 0.614733
895 2 0.168803 0.380968 0.59
1239 4 0.31656 0.355529 0.589802
1204 2 0.38912 0.395977 0.652441
1206 4 0.375636 0.381335 0.637309
1205 4 0.402604 0.410619 0.667573
1160 4 0.125688 0.447997 0.565246
1171 2 0.229172 0.432959 0.575385
1173 4 0.215515 0.446747 0.59115
1187 4 0.211752 0.466842 0.5864
1186 2 0.193884 0.480284 0.597591
1188 4 0.176017 0.493727 0.608783
889 2 0.298285 0.477612 0.625876
891 4 0.281335 0.467531 0.641246
890 4 0.315236 0.487692 0.610506
1952 4 0.332513 0.478297 0.602779
1230 4 0.380609 0.460369 0.650318
1269 4 0.474429 0.473994 0.628418
1267 2 0.471476 0.48394 0.651167
943 2 0.0538159 0.0590649 0.697051
945 4 0.0566078 0.0347214 0.702028
2991 4 0.00623284 0.0408676 0.733955
1147 2 0.220602 0.0544018 0.72195
1149 4 0.238018 0.0365311 0.723532
1148 4 0.203186 0.0722725 0.720367
1004 4 0.378073 0.0663902 0.710407
1003 2 0.37444 0.0870013 0.696726
1163 4 0.465585 0.0683286 0.683346
1162 2 0.481451 0.0491227 0.685483
42 3 0.448475 0.0669698 0.670629
2320 2 0.478336 0.0278127 0.745649
2322 4 0.456762 0.037778 0.753425
846 4 0.502003 0.0820808 0.757318
944 4 0.051024 0.0834084 0.692073
1076 4 0.0456686 0.0944921 0.677202
862 2 0.0268314 0.122342 0.744835
864 4 0.0395267 0.131321 0.725255
1075 2 0.0462451 0.114283 0.692471
1077 4 0.0468216 0.134074 0.707741
1107 4 0.052912 0.146438 0.720558
851 4 0.0569426 0.151103 0.70246
1105 2 0.0700091 0.152314 0.73783
909 4 0.164025 0.158499 0.663425
1203 4 0.135641 0.0756815 0.740345
1284 4 0.182661 0.0843474 0.674929
908 4 0.173426 0.143579 0.71022
907 2 0.168726 0.151039 0.686823
1227 4 0.185454 0.129806 0.716332
1225 2 0.199878 0.109384 0.716564
1226 4 0.214302 0.0889613 0.716796
829 2 0.341928 0.154694 0.710684
830 4 0.340919 0.16204 0.686805
1005 4 0.370807 0.107612 0.683045
831 4 0.342936 0.147347 0.734562
43 3 0.428791 0.0908793 0.691925
41 1 0.448694 0.0877918 0.680404
44 3 0.466617 0.0889956 0.69509
3425 4 0.467622 0.105973 0.679334
3424 2 0.488435 0.119796 0.678369
852 4 0.0687654 0.186181 0.668838
850 2 0.062854 0.168642 0.685649
1177 2 0.0332482 0.223482 0.703873
1178 4 0.0158903 0.21347 0.718827
1179 4 0.0506062 0.233495 0.688919
1073 4 0.141055 0.225416 0.741522
1130 4 0.182105 0.176515 0.74631
886 2 0.302304 0.169985 0.673282
887 4 0.327162 0.167334 0.672815
1194 4 0.330775 0.187476 0.666584
976 2 0.284839 0.20598 0.733321
978 4 0.269965 0.194021 0.717169
977 4 0.299713 0.21794 0.749474
1262 4 0.427378 0.245423 0.724776
1142 4 0.440432 0.187235 0.710155
1024 2 0.427345 0.212874 0.687486
1141 2 0.43862 0.175723 0.732277
1026 4 0.431739 0.204273 0.710549
1261 2 0.450693 0.238835 0.730956
1263 4 0.474008 0.232248 0.737136
3123 4 0.485651 0.243744 0.68721
1207 2 0.117548 0.263846 0.67144
1208 4 0.112198 0.277546 0.69166
1072 2 0.128574 0.246869 0.744551
821 4 0.174416 0.31618 0.705236
820 2 0.171783 0.293717 0.694575
822 4 0.16915 0.271254 0.683914
1065 4 0.232254 0.305953 0.69182
1063 2 0.255438 0.304756 0.682534
892 2 0.0259528 0.359938 0.698569
893 4 0.00429974 0.348268 0.694082
894 4 0.0476058 0.371608 0.703056
1280 4 0.0541668 0.384949 0.716976
1279 2 0.0601249 0.409222 0.717697
3276 4 0.984987 0.393279 0.774936
940 2 0.13665 0.387088 0.759544
941 4 0.159322 0.377795 0.764525
942 4 0.113978 0.39638 0.754564
1067 4 0.170904 0.384215 0.747953
1029 4 0.253769 0.39544 0.676517
1028 4 0.211834 0.39439 0.703738
1066 2 0.190635 0.382431 0.732698
1068 4 0.210365 0.380647 0.717444
1027 2 0.232801 0.394915 0.690127
1140 4 0.273496 0.398335 0.670311
1138 2 0.284609 0.414358 0.685961
1019 4 0.349266 0.374823 0.737929
1981 2 0.0609097 0.46092 0.736986
1281 4 0.0660831 0.433495 0.718418
1983 4 0.0744559 0.44001 0.734872
1139 4 0.295723 0.430381 0.701612
1987 2 0.330608 0.464135 0.727037
1988 4 0.314321 0.470232 0.745003
1228 2 0.371726 0.457408 0.673502
1229 4 0.362842 0.454446 0.696686
1989 4 0.346894 0.458039 0.709072
1100 4 0.421765 0.43631 0.682253
1099 2 0.426215 0.454878 0.698397
1101 4 0.430664 0.473446 0.714541
1201 2 0.1176 0.0598619 0.747374
1202 4 0.0995577 0.0440422 0.754404
2049 4 0.107575 0.0289155 0.767585
2047 2 0.116513 0.00741036 0.776686
817 2 0.338688 0.0590726 0.823294
1113 4 0.428971 0.0756616 0.820067
1112 4 0.451073 0.0817808 0.775629
844 2 0.477063 0.0837886 0.756798
1111 2 0.440022 0.0787212 0.797848
845 4 0.452123 0.0854964 0.756277
911 4 0.0751457 0.130469 0.8188
863 4 0.0141362 0.113362 0.764415
832 2 0.00407259 0.102219 0.802062
833 4 0.0173277 0.105998 0.781201
34 3 0.132141 0.165588 0.815647
31 1 0.11155 0.158929 0.807275
35 3 0.114335 0.141832 0.79249
32 3 0.0983848 0.15178 0.824732
1257 4 0.251308 0.0885377 0.8034
1256 4 0.296742 0.102205 0.787598
1255 2 0.274025 0.0953714 0.795499
1086 4 0.332797 0.137022 0.788335
840 4 0.260681 0.120192 0.829085
1084 2 0.328416 0.117401 0.803202
1085 4 0.324036 0.0977808 0.818069
819 4 0.328953 0.079878 0.813418
1214 4 0.00579726 0.19294 0.772451
1213 2 0.00252431 0.204113 0.750324
1106 4 0.0871062 0.158191 0.755103
33 3 0.10109 0.17681 0.796824
1129 2 0.182273 0.199704 0.75566
1131 4 0.182441 0.222893 0.76501