ITEM: TIMESTEP
500000
ITEM: NUMBER OF ATOMS
4590
ITEM: BOX BOUNDS pp pp pp
-9.9985700000000008e+00 9.9985700000000008e+00
-9.9985700000000008e+00 9.9985700000000008e+00
-9.9985700000000008e+00 9.9985700000000008e+00
ITEM: ATOMS id type xs ys zs
463 2 0.034898 0.0737019 0.0169755
464 4 0.0553646 0.0643029 0.00611472
465 4 0.0144314 0.0831009 0.0278362
534 4 0.210076 0.0349394 0.0032791
490 2 0.290614 0.0719388 0.0810974
1475 4 0.266905 0.00906765 0.0701209
297 4 0.343072 0.0414141 0.0454009
492 4 0.297308 0.0739653 0.0570919
295 2 0.351413 0.0648085 0.0482859
486 4 0.353006 0.00993175 0.0663105
987 4 0.416351 0.0280523 0.0134823
747 4 0.484586 0.0665415 0.00502623
2974 2 0.483088 0.0273315 0.02292
2976 4 0.488769 0.00667092 0.0358061
2468 4 0.488819 0.00686463 0.0552224
745 2 0.475478 0.0873705 0.0154364
1607 4 0.440067 0.00306157 0.018557
2975 4 0.477408 0.047992 0.0100339
422 4 0.111968 0.123941 0.0276092
421 2 0.114118 0.139022 0.00778191
565 2 0.198206 0.14712 0.0644355
566 4 0.177687 0.134084 0.0585858
567 4 0.218726 0.160155 0.0702852
358 2 0.296369 0.140278 0.0553096
359 4 0.277287 0.151821 0.0666157
360 4 0.315451 0.128735 0.0440035
296 4 0.359753 0.0882028 0.0511709
557 4 0.366967 0.0986725 0.0341368
556 2 0.383356 0.112508 0.0469887
558 4 0.399744 0.126343 0.0598406
665 4 0.355477 0.178012 0.0426795
746 4 0.46637 0.1082 0.0258466
771 4 0.43147 0.155893 0.059697
554 4 0.0682399 0.228851 0.0434975
836 4 0.0840205 0.218341 0.00678875
664 2 0.343202 0.191052 0.0252308
666 4 0.330928 0.204093 0.00778213
769 2 0.434022 0.18069 0.0577533
324 4 0.43439 0.253547 0.0451754
770 4 0.436575 0.205487 0.0558095
553 2 0.060326 0.252032 0.0384801
555 4 0.0524121 0.275214 0.0334626
292 2 0.143875 0.292308 0.00465628
293 4 0.155085 0.276486 0.0204414
507 4 0.151336 0.281868 0.0392659
483 4 0.210739 0.303353 0.0592901
505 2 0.173242 0.285217 0.0508458
506 4 0.195148 0.288566 0.0624257
481 2 0.234984 0.297836 0.0619241
573 4 0.269986 0.275624 0.0629657
572 4 0.272589 0.251352 0.0193218
357 4 0.268901 0.266 0.00665459
571 2 0.271287 0.263488 0.0411438
482 4 0.259228 0.292319 0.0645581
322 2 0.418225 0.254759 0.0642119
1071 4 0.36933 0.270596 0.0209406
1069 2 0.387329 0.28792 0.0220109
1070 4 0.405327 0.305243 0.0230813
741 4 0.34208 0.337846 0.0503737
323 4 0.402059 0.25597 0.0832484
671 4 0.457003 0.318687 0.072657
280 2 0.447668 0.324036 0.0331438
281 4 0.457232 0.328336 0.0558421
282 4 0.438104 0.319735 0.0104456
288 4 0.160517 0.345787 0.0286774
287 4 0.2045 0.367848 0.0197593
286 2 0.182508 0.356817 0.0242184
252 4 0.297135 0.390551 0.0549985
250 2 0.305648 0.387996 0.0316278
251 4 0.31416 0.385441 0.00825716
609 4 0.286061 0.405212 0.0605922
607 2 0.291215 0.411418 0.0842587
955 2 0.369128 0.334458 0.99193
956 4 0.385974 0.350646 0.000835126
739 2 0.349664 0.347694 0.0720689
551 4 0.0542236 0.425163 0.0511691
328 2 0.0232554 0.412455 0.00316792
550 2 0.0758993 0.42726 0.0634552
329 4 0.0345591 0.433268 0.0111815
552 4 0.0975749 0.429357 0.0757413
455 4 0.118431 0.428185 0.0763252
242 4 0.15155 0.485508 0.0457019
241 2 0.155609 0.50141 0.0645647
245 4 0.220641 0.446717 0.0409393
626 4 0.215712 0.441446 0.0604324
244 2 0.239565 0.451001 0.0251693
625 2 0.224777 0.447218 0.0830087
627 4 0.233842 0.45299 0.105585
246 4 0.258489 0.455285 0.00939924
272 4 0.276935 0.453698 0.00202984
226 2 0.487085 0.452407 0.0810416
563 4 0.47058 0.479722 0.0600912
228 4 0.488295 0.474926 0.0702435
227 4 0.485876 0.429887 0.0918397
591 4 0.0149207 0.0591462 0.0692967
1666 2 0.0734926 0.0506516 0.0934242
1668 4 0.0584093 0.0311117 0.0974074
19 3 0.057883 0.0504511 0.144431
20 3 0.0570625 0.0817227 0.165385
16 1 0.0580701 0.0589797 0.16601
701 4 0.0906813 0.0878034 0.100722
1667 4 0.0885759 0.0701915 0.089441
450 4 0.157077 0.0511754 0.1306
448 2 0.172793 0.0706213 0.130844
652 2 0.312678 0.00956129 0.148677
491 4 0.28392 0.0699123 0.105103
654 4 0.292098 0.99849 0.139784
653 4 0.333257 0.0206329 0.15757
1759 2 0.476028 0.00648441 0.134325
1760 4 0.480391 0.0213567 0.153946
2724 4 0.490619 0.0387845 0.149912
310 2 0.42271 0.0751471 0.153312
2744 4 0.496564 0.025995 0.162826
589 2 0.00206514 0.0786606 0.0781906
380 4 0.00551863 0.152095 0.142995
700 2 0.103924 0.100679 0.117575
702 4 0.117167 0.113554 0.134428
237 4 0.191254 0.157519 0.14663
449 4 0.188508 0.0900673 0.131088
235 2 0.191889 0.133114 0.141231
236 4 0.192524 0.108709 0.135831
582 4 0.314211 0.0956367 0.159108
580 2 0.294338 0.110036 0.163893
581 4 0.274464 0.124435 0.168678
312 4 0.439002 0.0864866 0.138108
629 4 0.414007 0.128505 0.122257
628 2 0.413443 0.153291 0.119013
2625 4 0.00877768 0.196754 0.123759
337 2 0.0714687 0.2396 0.141599
339 4 0.0595842 0.254611 0.125518
338 4 0.0833531 0.22459 0.157681
476 4 0.119411 0.143365 0.138952
737 4 0.169081 0.177994 0.111901
736 2 0.190853 0.188957 0.106336
738 4 0.212625 0.19992 0.100772
277 2 0.236693 0.238257 0.1598
279 4 0.217431 0.226583 0.170657
461 4 0.299275 0.219348 0.0903914
460 2 0.323768 0.219153 0.0954121
354 4 0.280556 0.226884 0.0916353
352 2 0.272614 0.236578 0.113272
284 4 0.273262 0.244098 0.152588
353 4 0.264672 0.246272 0.134908
278 4 0.255956 0.24993 0.148944
283 2 0.290649 0.231215 0.165115
255 4 0.36243 0.208171 0.0906745
462 4 0.348262 0.218958 0.100433
254 4 0.398697 0.174862 0.099391
253 2 0.380563 0.191517 0.0950328
765 4 0.395058 0.23129 0.158532
624 4 0.395085 0.236407 0.138904
630 4 0.412879 0.178077 0.11577
518 4 0.481332 0.230519 0.116832
517 2 0.503783 0.239883 0.122618
536 4 0.206647 0.321948 0.131077
535 2 0.188544 0.331958 0.145122
754 2 0.269693 0.28611 0.147014
755 4 0.257547 0.265841 0.138841
756 4 0.28184 0.30638 0.155187
612 4 0.289387 0.311248 0.172847
622 2 0.391823 0.260256 0.132139
623 4 0.388561 0.284105 0.125375
670 2 0.449418 0.315793 0.0963059
672 4 0.441833 0.312899 0.119955
528 4 0.476569 0.266631 0.143599
621 4 0.0180585 0.378964 0.12833
619 2 0.00563858 0.36535 0.111431
647 4 0.0600846 0.364646 0.172155
454 2 0.129837 0.406883 0.0827518
456 4 0.141243 0.385581 0.0891784
302 4 0.318486 0.387181 0.153342
387 4 0.312952 0.380903 0.134002
385 2 0.333835 0.372141 0.123406
740 4 0.357249 0.357541 0.0937641
15 3 0.374014 0.366925 0.118635
386 4 0.354719 0.363379 0.112809
11 1 0.392641 0.372985 0.130252
13 3 0.386613 0.384935 0.149206
12 3 0.404037 0.354071 0.136698
14 3 0.406495 0.385881 0.11683
495 4 0.405848 0.403453 0.12601
596 4 0.489057 0.391646 0.15994
595 2 0.469032 0.384952 0.173333
315 4 0.00572938 0.462062 0.0990224
313 2 0.0122216 0.464443 0.123051
314 4 0.0187138 0.466824 0.147079
638 4 0.260867 0.487322 0.154591
608 4 0.296369 0.417624 0.107925
523 2 0.334082 0.488942 0.107511
525 4 0.339397 0.471126 0.124229
658 2 0.372692 0.455881 0.150182
659 4 0.391263 0.451279 0.134085
493 2 0.424854 0.418373 0.132441
494 4 0.44386 0.433292 0.138871
17 3 0.0397693 0.0508936 0.177361
2480 4 0.0213347 0.0473088 0.185656
18 3 0.0773302 0.0522081 0.177037
1422 4 0.0219404 0.0337313 0.201317
1420 2 0.02862 0.0096692 0.202573
673 2 0.119946 0.0402279 0.250916
674 4 0.133177 0.0505277 0.232368
689 4 0.165267 0.03198 0.222496
688 2 0.185248 0.0260025 0.236287
692 4 0.222818 0.0597797 0.227198
723 4 0.22257 0.068886 0.244933
21 1 0.354815 0.0290641 0.227801
23 3 0.355624 0.0144005 0.245766
24 3 0.332761 0.0342679 0.222809
25 3 0.364884 0.0196838 0.209655
759 4 0.375021 0.0398226 0.212919
22 3 0.365916 0.0483959 0.233476
757 2 0.393373 0.0515384 0.200626
758 4 0.411725 0.0632542 0.188333
742 2 0.465694 0.0596838 0.218515
744 4 0.468789 0.0420618 0.235981
311 4 0.406419 0.0638075 0.168516
743 4 0.462599 0.0773057 0.201049
379 2 0.00847408 0.149771 0.167714
381 4 0.0114295 0.147447 0.192433
578 4 0.0731349 0.0798435 0.218935
511 2 0.0283967 0.164692 0.227725
513 4 0.0429304 0.17716 0.243803
475 2 0.119855 0.150262 0.162981
477 4 0.120299 0.15716 0.18701
577 2 0.0876278 0.087305 0.237895
579 4 0.102121 0.0947665 0.256854
693 4 0.22 0.0990961 0.196425
691 2 0.221409 0.0794379 0.211811
28 3 0.306154 0.140996 0.228221
27 3 0.333614 0.151994 0.251408
333 4 0.41889 0.1596 0.234415
331 2 0.443621 0.160563 0.237972
512 4 0.013863 0.152225 0.211646
394 2 0.011745 0.245913 0.223491
396 4 0.00961934 0.238076 0.247139
363 4 0.0873122 0.238955 0.171577
361 2 0.0935291 0.253305 0.191086
285 4 0.308035 0.218331 0.177642
764 4 0.357232 0.213261 0.185824
763 2 0.376145 0.222276 0.172178
520 2 0.478637 0.209149 0.204718
521 4 0.45511 0.207831 0.196358
395 4 0.0138707 0.253749 0.199842
371 4 0.164351 0.267278 0.222569
370 2 0.141314 0.270648 0.213453
372 4 0.118276 0.274017 0.204336
748 2 0.0965685 0.298211 0.22989
362 4 0.0997459 0.267655 0.210595
749 4 0.0857015 0.279464 0.217414
343 2 0.24866 0.305407 0.245353
344 4 0.25432 0.284245 0.233299
307 2 0.313709 0.288974 0.245068
308 4 0.308688 0.285785 0.220782
610 2 0.277484 0.32427 0.190564
527 4 0.482842 0.260457 0.192825
526 2 0.479705 0.263544 0.168212
646 2 0.0828831 0.356116 0.177868
648 4 0.105682 0.347586 0.183581
300 4 0.0953258 0.368176 0.2351
298 2 0.117819 0.365122 0.245584
417 4 0.160048 0.376216 0.185248
299 4 0.140312 0.362068 0.256067
537 4 0.170441 0.341968 0.159167
415 2 0.177119 0.394485 0.185378
291 4 0.212462 0.406883 0.19275
611 4 0.265581 0.337292 0.208282
303 4 0.30191 0.392778 0.200189
301 2 0.310198 0.38998 0.176765
729 4 0.304469 0.393063 0.219524
727 2 0.319678 0.380702 0.235049
597 4 0.449008 0.378259 0.186727
643 2 0.426613 0.370378 0.203246
644 4 0.421721 0.368605 0.227702
645 4 0.431505 0.372151 0.17879
447 4 0.419002 0.37242 0.246398
262 2 0.0258122 0.424866 0.24187
264 4 0.00247352 0.428806 0.23381
1467 4 0.00838539 0.499418 0.186524
416 4 0.194191 0.412753 0.185508
290 4 0.243109 0.436054 0.219405
289 2 0.227786 0.421468 0.206077
768 4 0.252735 0.451577 0.211373
766 2 0.254708 0.468514 0.193086
767 4 0.256681 0.485452 0.174799
660 4 0.354121 0.460482 0.16628
1568 4 0.496754 0.494076 0.201237
232 2 0.0188532 0.0407294 0.293591
233 4 0.0428466 0.0364381 0.288016
1402 2 0.0756664 0.0155853 0.282437
1404 4 0.05194 0.0193599 0.289364
234 4 0.99486 0.0450207 0.299167
675 4 0.106714 0.0299281 0.269464
1403 4 0.0993928 0.0118108 0.275509
1464 4 0.113485 0.00236147 0.283044
690 4 0.205229 0.0200249 0.250079
1701 4 0.228223 0.0446393 0.316534
1699 2 0.249918 0.037174 0.306594
1700 4 0.271612 0.0297088 0.296653
698 4 0.39385 0.0541015 0.347526
478 2 0.485697 0.045353 0.300335
480 4 0.473831 0.0532153 0.279779
351 4 0.466164 0.0716926 0.277977
349 2 0.447699 0.087295 0.284362
479 4 0.497564 0.0374907 0.320891
531 4 0.000661588 0.152244 0.261115
732 4 0.083297 0.100011 0.336121
731 4 0.131073 0.0888719 0.326421
730 2 0.107185 0.0944415 0.331271
392 4 0.107548 0.164797 0.277431
721 2 0.21784 0.0793706 0.267134
722 4 0.21311 0.0898552 0.289335
249 4 0.207768 0.106073 0.297315
247 2 0.201829 0.106503 0.321599
403 2 0.22672 0.141837 0.283464
404 4 0.216993 0.119307 0.288258
405 4 0.236447 0.164366 0.278671
30 3 0.301922 0.17163 0.249699
26 1 0.310798 0.150677 0.248791
29 3 0.302033 0.137619 0.265851
632 4 0.381265 0.118192 0.267405
631 2 0.365133 0.128934 0.283201
633 4 0.349 0.139676 0.298998
706 2 0.343095 0.166247 0.317618
707 4 0.34129 0.157206 0.294376
350 4 0.429234 0.102897 0.290748
332 4 0.468351 0.161526 0.241529
443 4 0.0167031 0.251926 0.259756
393 4 0.0734187 0.188996 0.250039
546 4 0.152743 0.164779 0.274921
391 2 0.0904832 0.176896 0.263735
544 2 0.166283 0.182725 0.285866
545 4 0.179822 0.200671 0.296812
762 4 0.475317 0.174062 0.256094
418 2 0.42932 0.232952 0.323052
761 4 0.485482 0.215214 0.282624
760 2 0.4804 0.194638 0.269359
419 4 0.435427 0.209546 0.329383
750 4 0.107436 0.316958 0.242366
390 4 0.100285 0.255245 0.304914
345 4 0.243001 0.32657 0.257407
400 2 0.190854 0.288993 0.295087
402 4 0.212597 0.287264 0.30731
401 4 0.16911 0.290723 0.282863
510 4 0.221098 0.347844 0.324415
309 4 0.31873 0.292163 0.269354
496 2 0.308756 0.314256 0.298888
497 4 0.306436 0.318715 0.323381
498 4 0.311077 0.309796 0.274395
420 4 0.423213 0.256357 0.316722
543 4 0.387372 0.29782 0.303574
615 4 0.381753 0.313982 0.313558
613 2 0.363412 0.330504 0.309582
541 2 0.408846 0.286182 0.308921
542 4 0.43032 0.274544 0.314269
263 4 0.0491508 0.420926 0.24993
366 4 0.00109249 0.355035 0.294984
364 2 0.0257262 0.353703 0.299057
365 4 0.0503599 0.352372 0.303129
602 4 0.0795912 0.410722 0.304177
601 2 0.0721755 0.387341 0.299325
603 4 0.0647597 0.363961 0.294474
549 4 0.0707794 0.425557 0.315805
734 4 0.153401 0.375104 0.262931
733 2 0.168585 0.363204 0.278837
677 4 0.17934 0.34111 0.310089
735 4 0.183768 0.351303 0.294744
676 2 0.174694 0.347503 0.333811
433 2 0.312026 0.372079 0.315054
614 4 0.345071 0.347026 0.305607
434 4 0.328716 0.353478 0.314281
728 4 0.334888 0.36834 0.250574
445 2 0.439248 0.366766 0.259936
446 4 0.459495 0.361111 0.273474
1757 4 0.0743531 0.475818 0.265403
777 4 0.0760263 0.470089 0.309316
775 2 0.0872967 0.484674 0.326211
1756 2 0.0864788 0.49076 0.249438
414 4 0.201152 0.492029 0.291819
412 2 0.194524 0.471801 0.304937
413 4 0.187896 0.451574 0.318056
436 2 0.329828 0.455248 0.300292
437 4 0.33189 0.458366 0.27557
3 3 0.317791 0.463807 0.337029
438 4 0.327766 0.45213 0.325015
119 3 0.489717 0.440914 0.320038
713 4 0.428079 0.466982 0.315089
712 2 0.449007 0.453865 0.318975
714 4 0.469935 0.440747 0.322862
316 2 0.0565206 0.0731976 0.345717
317 4 0.0445318 0.0573161 0.360858
428 4 0.0739286 0.0335711 0.357743
1781 4 0.098049 0.00588594 0.409458
606 4 0.140029 0.0756794 0.364208
429 4 0.118322 0.0396664 0.335544
427 2 0.0961253 0.0366188 0.346644
368 4 0.113808 0.0162133 0.417742
683 4 0.303758 0.0579442 0.36583
682 2 0.298963 0.075758 0.382708
439 2 0.291728 0.0070391 0.414204
699 4 0.352392 0.0593679 0.37499
257 4 0.411173 0.054773 0.337247
697 2 0.373121 0.0567347 0.361258
426 4 0.408118 0.014983 0.421004
1428 4 0.452837 0.985384 0.404627
256 2 0.433134 0.0450072 0.344142
258 4 0.455094 0.0352414 0.351037
318 4 0.0685093 0.089079 0.330577
398 4 0.0580587 0.142547 0.377804
397 2 0.0666002 0.129928 0.35798
399 4 0.0751418 0.11731 0.338156
457 2 0.0243469 0.159091 0.410651
604 2 0.163252 0.0830902 0.358643
599 4 0.151455 0.146184 0.38222
600 4 0.165613 0.133649 0.335926
605 4 0.186475 0.0905011 0.353078
248 4 0.19589 0.106933 0.345884
598 2 0.158534 0.139916 0.359073
684 4 0.294169 0.0935718 0.399586
320 4 0.291777 0.101291 0.418232
2879 4 0.496162 0.0843615 0.408124
452 4 0.474711 0.118614 0.391523
451 2 0.461593 0.136398 0.40322
453 4 0.448475 0.154182 0.414917
515 4 0.432155 0.166694 0.412363
260 4 0.062449 0.182923 0.408402
459 4 0.045837 0.171675 0.412885
389 4 0.0949818 0.249713 0.354331
259 2 0.0843829 0.187158 0.419634
474 4 0.222021 0.222032 0.372224
276 4 0.214353 0.237134 0.382668
472 2 0.215026 0.198077 0.370664
473 4 0.208032 0.174123 0.369105
708 4 0.3449 0.175288 0.340859
715 2 0.375858 0.212737 0.355569
716 4 0.366662 0.221431 0.377134
717 4 0.385053 0.204043 0.334005
467 4 0.367542 0.212345 0.396055
268 2 0.488864 0.237774 0.407438
347 4 0.0498616 0.321891 0.380398
346 2 0.0429557 0.316082 0.403716
616 2 0.0817611 0.326848 0.351038
388 2 0.0976332 0.252479 0.329622
617 4 0.102485 0.334215 0.339146
274 2 0.208723 0.261389 0.380402
275 4 0.203092 0.285645 0.378136
374 4 0.179557 0.330796 0.411857
376 2 0.289905 0.284834 0.347495
377 4 0.298162 0.304523 0.334481
378 4 0.281649 0.265146 0.360509
618 4 0.0610373 0.319481 0.362931
678 4 0.170048 0.353896 0.357532
373 2 0.183141 0.337483 0.388032
508 2 0.22802 0.346218 0.348386
375 4 0.186725 0.34417 0.364207
509 4 0.234942 0.344591 0.372358
435 4 0.295336 0.390681 0.315827
336 4 0.341961 0.375885 0.399174
334 2 0.362952 0.367552 0.409904
559 2 0.502096 0.39557 0.394653
561 4 0.481864 0.405389 0.383724
2463 4 0.00209076 0.478533 0.334352
500 4 0.0841123 0.506505 0.355584
407 4 0.0780006 0.442841 0.368768
406 2 0.0803906 0.442651 0.393656
547 2 0.0755197 0.424919 0.340347
548 4 0.0802599 0.424282 0.364889
570 4 0.164153 0.472718 0.401158
5 3 0.305294 0.481755 0.367678
1 1 0.31999 0.482709 0.350307
1401 4 0.359273 0.491499 0.41737
4 3 0.341693 0.484243 0.358372
594 4 0.39182 0.468453 0.378863
592 2 0.393294 0.488256 0.363669
752 4 0.467926 0.416182 0.375333
751 2 0.44561 0.42673 0.379324
753 4 0.423294 0.437278 0.383314
2237 4 0.0386578 0.0155461 0.480982
718 2 0.0580835 0.0534879 0.474336
720 4 0.0465132 0.031665 0.470454
2236 2 0.0225257 0.00408329 0.496264
719 4 0.0696538 0.0753108 0.478217
367 2 0.108016 0.0216854 0.441442
369 4 0.102224 0.0271575 0.465142
2430 4 0.207911 0.026283 0.508122
341 4 0.203949 0.0414545 0.494097
441 4 0.280475 0.0286913 0.419656
962 4 0.291228 0.0322175 0.437617
961 2 0.294482 0.0394292 0.461335
963 4 0.297735 0.0466409 0.485054
424 2 0.388228 0.0288887 0.427022
425 4 0.368339 0.0427944 0.43304
725 4 0.392423 0.0712441 0.454426
724 2 0.36803 0.0767258 0.454104
2586 4 0.999433 0.126618 0.414308
458 4 0.00285676 0.146506 0.408418
471 4 0.0219653 0.162132 0.473144
319 2 0.269791 0.111501 0.424358
1181 4 0.278071 0.103601 0.474673
1182 4 0.269089 0.152481 0.480224
1180 2 0.27358 0.128041 0.477449
321 4 0.247804 0.121712 0.430483
726 4 0.343637 0.0822074 0.453782
2878 2 0.495258 0.0908067 0.432266
2880 4 0.494353 0.0972518 0.456408
640 2 0.489024 0.100181 0.490005
469 2 0.0345274 0.179293 0.486293
470 4 0.0470895 0.196454 0.499441
695 4 0.0788865 0.262912 0.470719
685 2 0.145282 0.182067 0.422543
687 4 0.120384 0.181724 0.420273
261 4 0.106317 0.191393 0.430865
1035 4 0.114428 0.196589 0.447195
1033 2 0.109252 0.202563 0.470916
1034 4 0.104077 0.208536 0.494638
686 4 0.17018 0.18241 0.424812
857 4 0.214133 0.240654 0.505935
488 4 0.263496 0.249711 0.41174
487 2 0.279292 0.241806 0.429437
489 4 0.295088 0.233901 0.447134
411 4 0.30364 0.222103 0.459588
409 2 0.324662 0.208582 0.458936
466 2 0.363533 0.204183 0.419346
574 2 0.390336 0.174542 0.48735
410 4 0.345685 0.195062 0.458285
468 4 0.359523 0.196021 0.442637
575 4 0.396262 0.18788 0.467048
516 4 0.401722 0.183365 0.448371
270 4 0.471774 0.220255 0.412556
514 2 0.416939 0.17503 0.430367
304 2 0.493976 0.183702 0.426412
305 4 0.490987 0.199343 0.445689
348 4 0.0360498 0.310274 0.427035
2845 2 0.999898 0.342007 0.477911
694 2 0.102468 0.26561 0.478581
696 4 0.126049 0.268308 0.486444
9 3 0.15133 0.314134 0.47916
1260 4 0.12225 0.284369 0.496943
6 1 0.155606 0.336615 0.482999
651 4 0.237721 0.280608 0.473204
649 2 0.262695 0.281642 0.473826
650 4 0.287669 0.282676 0.474448
266 4 0.349284 0.28984 0.474806
267 4 0.381739 0.279798 0.43811
265 2 0.365512 0.284819 0.456458
583 2 0.465726 0.271863 0.483015
584 4 0.483691 0.270026 0.500308
585 4 0.44776 0.273701 0.465722
2846 4 0.0223629 0.350815 0.484464
681 4 0.0156663 0.411137 0.440158
327 4 0.125494 0.343135 0.461027
326 4 0.091705 0.360778 0.428658
325 2 0.108599 0.351956 0.444842
7 3 0.137552 0.348946 0.475845
711 4 0.162563 0.380888 0.449033
502 2 0.241457 0.405941 0.426063
10 3 0.174148 0.343078 0.471464
504 4 0.225111 0.410721 0.444369
709 2 0.184294 0.392717 0.445428
710 4 0.206026 0.404546 0.441823
667 2 0.310516 0.419112 0.444015
669 4 0.288063 0.420884 0.454874
503 4 0.257804 0.401161 0.407757
804 4 0.264431 0.354925 0.496294
335 4 0.383943 0.35922 0.420634
812 4 0.344763 0.349985 0.488391
238 2 0.400922 0.36897 0.457281
240 4 0.38462 0.368429 0.43833
239 4 0.417223 0.369511 0.476232
3309 4 0.476316 0.375728 0.502935
680 4 0.0158537 0.458466 0.424015
1381 2 0.00123733 0.495428 0.443379
1383 4 0.00693163 0.475992 0.428717
679 2 0.01576 0.434801 0.432087
539 4 0.0745113 0.467505 0.491035
568 2 0.152305 0.474973 0.42306
384 4 0.112667 0.41583 0.474946
569 4 0.140456 0.477228 0.444963
383 4 0.0971168 0.433572 0.430854
382 2 0.104892 0.424701 0.4529
408 4 0.0827805 0.442462 0.418544
1555 2 0.238597 0.508143 0.419365
1557 4 0.253541 0.495454 0.434885
634 2 0.248162 0.462821 0.451981
636 4 0.238513 0.484364 0.443735
774 4 0.269017 0.424414 0.461999
635 4 0.257812 0.441279 0.460226
772 2 0.271963 0.417716 0.485908
668 4 0.332968 0.41734 0.433156
586 2 0.401789 0.452913 0.446119
881 4 0.349599 0.483843 0.487937
588 4 0.376884 0.45092 0.447103
880 2 0.344034 0.459568 0.490151
587 4 0.426693 0.454905 0.445135
1332 4 0.498458 0.483767 0.479637
662 4 0.488881 0.466593 0.475779
661 2 0.470094 0.457887 0.489795
1330 2 0.505874 0.507297 0.4837
1126 2 0.0180195 0.0561515 0.56873
1127 4 0.0428667 0.0577785 0.56646
1058 4 0.132193 0.0737339 0.569591
1031 4 0.223983 0.0778734 0.568509
340 2 0.208319 0.059524 0.510817
342 4 0.212689 0.0775935 0.527537
432 4 0.294745 0.0547702 0.502376
430 2 0.315184 0.0588166 0.516199
1217 4 0.404565 0.039812 0.52475
1216 2 0.411369 0.0324685 0.547662
841 2 0.373232 0.0627082 0.516249
842 4 0.397728 0.0577026 0.516002
843 4 0.348736 0.0677138 0.516495
431 4 0.335623 0.062863 0.530022
3008 4 0.488727 0.0722344 0.566341
1218 4 0.418173 0.025125 0.570574
938 4 0.0717525 0.131957 0.554709
937 2 0.0916264 0.141608 0.566416
939 4 0.1115 0.15126 0.578123
1059 4 0.125935 0.122853 0.562597
1057 2 0.129064 0.0982932 0.566094
1153 2 0.148729 0.148571 0.581556
1155 4 0.126979 0.137936 0.575308
1030 2 0.234449 0.100086 0.563795
1152 4 0.196734 0.0904051 0.524126
1151 4 0.179392 0.137307 0.524527
1150 2 0.188063 0.113856 0.524327
1154 4 0.170478 0.159205 0.587804
899 4 0.336644 0.171825 0.565296
1032 4 0.244915 0.122299 0.55908
641 4 0.472071 0.100696 0.508376
3159 4 0.485065 0.161497 0.55033
877 2 0.0532862 0.214931 0.573252
878 4 0.0309717 0.204459 0.569058
1199 4 0.0205456 0.221053 0.574023
879 4 0.0756006 0.225403 0.577446
1272 4 0.0918997 0.228998 0.568457
1270 2 0.110973 0.233553 0.58397
856 2 0.235377 0.234117 0.517386
858 4 0.256622 0.227581 0.528836
898 2 0.312512 0.176729 0.560963
900 4 0.28838 0.181633 0.55663
576 4 0.384411 0.161204 0.507651
983 4 0.0483802 0.323553 0.541179
1258 2 0.135758 0.287405 0.517763
1259 4 0.149266 0.290442 0.538583
797 4 0.244852 0.257392 0.588749
813 4 0.348541 0.334732 0.535865
872 4 0.37553 0.27258 0.55112
871 2 0.363685 0.293839 0.545381
873 4 0.35184 0.315097 0.539641
953 4 0.461779 0.2937 0.589815
982 2 0.0374081 0.327338 0.563326
8 3 0.158706 0.340327 0.505693
1189 2 0.222651 0.38169 0.554852
1191 4 0.199815 0.391539 0.557437
1190 4 0.245488 0.371842 0.552267
803 4 0.263987 0.369443 0.544145
802 2 0.264209 0.362184 0.520219
928 2 0.343834 0.367115 0.561367
773 4 0.274909 0.411018 0.509817
930 4 0.339737 0.346851 0.575431
811 2 0.346652 0.342359 0.512128
929 4 0.347931 0.387378 0.547304
926 4 0.412848 0.354235 0.518528
925 2 0.423505 0.367013 0.537192
927 4 0.434161 0.379791 0.555856
538 2 0.0825696 0.480543 0.510789
1159 2 0.152602 0.470704 0.571244
540 4 0.0906278 0.493581 0.530544
1160 4 0.129402 0.463452 0.577105
1161 4 0.175802 0.477956 0.565382
1171 2 0.243267 0.434885 0.582484
1172 4 0.263133 0.421156 0.575999
1952 4 0.338626 0.482233 0.596713
882 4 0.338468 0.435292 0.492366
1951 2 0.352444 0.488843 0.576951
1911 4 0.464643 0.481472 0.554958
663 4 0.451307 0.449182 0.50381
1002 4 0.419263 0.439044 0.558114
1000 2 0.437889 0.446879 0.572841
1909 2 0.45709 0.501516 0.54206
823 2 0.127868 0.996337 0.642895
825 4 0.112971 0.0162349 0.645606
1284 4 0.188911 0.0898206 0.66756
951 4 0.256898 0.0311436 0.581997
949 2 0.271606 0.0318183 0.602205
950 4 0.286314 0.032493 0.622414
809 4 0.467634 0.0645026 0.606371
1082 4 0.0439829 0.0988247 0.662379
1083 4 0.0359381 0.0888946 0.614032
1081 2 0.0399605 0.0938597 0.638205
1283 4 0.177875 0.119537 0.628883
1282 2 0.183393 0.104679 0.648221
808 2 0.462179 0.0753417 0.628233
810 4 0.456724 0.0861807 0.650095
852 4 0.0491994 0.193843 0.667051
1271 4 0.130047 0.238107 0.599482
1209 4 0.111126 0.255337 0.653231
1221 4 0.180621 0.177393 0.584617
1210 2 0.245623 0.179534 0.644386
1212 4 0.234958 0.18431 0.622281
1219 2 0.199071 0.18465 0.599851
1220 4 0.217522 0.191907 0.615086
791 4 0.270441 0.252859 0.605979
1211 4 0.256288 0.174758 0.666491
1193 4 0.369669 0.207331 0.664703
1025 4 0.436496 0.221033 0.65813
1244 4 0.0511559 0.264913 0.607746
1243 2 0.051327 0.288716 0.600093
1245 4 0.0514981 0.312519 0.59244
1136 4 0.123834 0.321358 0.610331
948 4 0.141639 0.262237 0.628433
796 2 0.220035 0.25437 0.589171
798 4 0.195219 0.251349 0.589594
947 4 0.185619 0.256817 0.605256
946 2 0.163629 0.259527 0.616844
792 4 0.301334 0.290846 0.595811
790 2 0.285888 0.271852 0.600895
1238 4 0.320478 0.289489 0.604133
1237 2 0.323449 0.312303 0.594343
805 2 0.332861 0.295741 0.660185
806 4 0.352064 0.311398 0.656824
954 4 0.420077 0.320685 0.584023
904 2 0.486792 0.262682 0.591865
906 4 0.480717 0.286919 0.590942
952 2 0.440928 0.307192 0.586919
984 4 0.026436 0.331122 0.585472
3263 4 0.0135928 0.342326 0.620198
1040 4 0.0877736 0.397948 0.63304
1039 2 0.0638835 0.39773 0.625665
1041 4 0.0399934 0.397512 0.61829
3264 4 0.0211668 0.391624 0.623818
3262 2 0.0173798 0.366975 0.622008
993 4 0.100919 0.405577 0.62061
1137 4 0.138024 0.369241 0.612884
897 4 0.154557 0.379167 0.607208
1135 2 0.130929 0.345299 0.611608
991 2 0.124615 0.401737 0.613614
992 4 0.148311 0.397896 0.606619
896 4 0.19102 0.386436 0.573767
895 2 0.172788 0.382801 0.590487
1029 4 0.254436 0.381984 0.66717
1239 4 0.32642 0.335118 0.584553
1204 2 0.387084 0.396713 0.64674
1206 4 0.365641 0.390599 0.635426
1205 4 0.408527 0.402827 0.658053
1173 4 0.223402 0.448613 0.58897
1187 4 0.218721 0.468429 0.587055
1186 2 0.199995 0.483438 0.594071
889 2 0.302349 0.477918 0.615516
891 4 0.286617 0.476407 0.634891
890 4 0.318081 0.47943 0.596141
1230 4 0.355288 0.454597 0.654938
1001 4 0.456514 0.454714 0.587568
1269 4 0.479544 0.465534 0.643464
1267 2 0.481228 0.484519 0.659648
944 4 0.0583058 0.0797501 0.685836
943 2 0.0501361 0.0573464 0.693354
945 4 0.0419665 0.0349427 0.700871
2991 4 0.998165 0.0511398 0.694527
1147 2 0.221164 0.0546862 0.716089
1149 4 0.238752 0.0371166 0.718762
1148 4 0.203576 0.0722559 0.713417
1004 4 0.368078 0.0554218 0.702572
1003 2 0.358042 0.0782919 0.701381
1163 4 0.464846 0.0539553 0.68842
1162 2 0.484599 0.0403793 0.6813
42 3 0.450912 0.0628984 0.677646
2320 2 0.488389 0.0134689 0.744984
1076 4 0.0538319 0.0980855 0.680229
862 2 0.0280012 0.127531 0.743682
864 4 0.0420839 0.139103 0.726566
1075 2 0.0503666 0.118846 0.693725
1077 4 0.0469013 0.139607 0.707222
1107 4 0.055666 0.151145 0.719424
851 4 0.0471766 0.157941 0.701802
1105 2 0.0726676 0.162918 0.733478
909 4 0.157823 0.159777 0.672989
908 4 0.181678 0.137343 0.710782
907 2 0.169751 0.14856 0.691885
1227 4 0.201274 0.136145 0.715574
1225 2 0.208403 0.112282 0.713357
1226 4 0.215532 0.0884189 0.711141
1005 4 0.348006 0.101162 0.70019
831 4 0.331298 0.149496 0.737655
45 3 0.458599 0.0970234 0.664634
43 3 0.426852 0.0910697 0.683982
41 1 0.449266 0.0854478 0.681884
44 3 0.460507 0.0902115 0.701616
3425 4 0.47006 0.101873 0.683581
3424 2 0.488181 0.118833 0.686606
850 2 0.048188 0.175892 0.684427
1177 2 0.0287695 0.224794 0.711924
1106 4 0.0896693 0.174692 0.747532
1178 4 0.0158768 0.20834 0.725645
1073 4 0.14138 0.236975 0.740407
1130 4 0.174494 0.174502 0.742726
829 2 0.331386 0.1529 0.712884
830 4 0.331475 0.156304 0.688113
886 2 0.296397 0.176099 0.673811
888 4 0.274822 0.181427 0.662352
887 4 0.317972 0.170771 0.685271
1194 4 0.327275 0.181314 0.669855
976 2 0.285722 0.20499 0.728241
978 4 0.270999 0.187554 0.718024
977 4 0.300445 0.222426 0.738458
918 4 0.29689 0.232289 0.75623
1192 2 0.348472 0.194323 0.667279
1262 4 0.419624 0.243255 0.719099
1142 4 0.44958 0.183988 0.710072
1024 2 0.436438 0.210052 0.680593
1141 2 0.441577 0.179703 0.73337
1026 4 0.436379 0.199071 0.703056
1261 2 0.440572 0.234242 0.729353
1263 4 0.461519 0.225228 0.739607
1179 4 0.0416621 0.241247 0.698204
1207 2 0.10142 0.271934 0.669216
1208 4 0.0917152 0.288532 0.685201
821 4 0.176428 0.316422 0.707016
820 2 0.181269 0.293806 0.697514
822 4 0.18611 0.271191 0.688012
1065 4 0.252215 0.296395 0.704221
1063 2 0.265162 0.2944 0.682923
1064 4 0.278109 0.292406 0.661626
807 4 0.313658 0.280084 0.663547
1008 4 0.382546 0.302783 0.753736
3123 4 0.493909 0.237418 0.697231
892 2 0.029555 0.361684 0.702188
893 4 0.00486604 0.359488 0.698899
894 4 0.0542439 0.36388 0.705476
1280 4 0.0579032 0.385048 0.708413
1279 2 0.0613229 0.409724 0.710548
814 2 0.0775817 0.377312 0.755591
940 2 0.132289 0.3963 0.743194
941 4 0.156743 0.391176 0.742236
815 4 0.100992 0.386054 0.754759
942 4 0.107835 0.401425 0.744153
1067 4 0.167776 0.405373 0.733151
1028 4 0.212142 0.386363 0.693491
1066 2 0.187411 0.394482 0.72215
1068 4 0.207046 0.383591 0.711149
1027 2 0.233289 0.384174 0.680331
1140 4 0.267939 0.394354 0.673535
1019 4 0.341321 0.363606 0.744919
1981 2 0.0593597 0.456468 0.741488
1281 4 0.0647426 0.4344 0.712683
1983 4 0.0591618 0.433521 0.731559
1982 4 0.0595576 0.479414 0.751418
1080 4 0.166245 0.447243 0.762413
1175 4 0.237875 0.518144 0.692963
1139 4 0.284701 0.438421 0.690204
1138 2 0.27632 0.416387 0.68187
1987 2 0.325445 0.465135 0.729105
1988 4 0.311439 0.468642 0.749518
1228 2 0.35743 0.455638 0.679828
1229 4 0.359572 0.456679 0.704718
1989 4 0.339451 0.461628 0.708691
1100 4 0.426261 0.433007 0.679698
1099 2 0.434842 0.447362 0.698285
1101 4 0.443424 0.461717 0.716872
1201 2 0.128627 0.0668853 0.761267
1202 4 0.111716 0.049026 0.765766
2049 4 0.112918 0.0288428 0.760111
2047 2 0.1195 0.00919419 0.774104
1113 4 0.415826 0.0663493 0.808007
818 4 0.361556 0.0439852 0.83562
817 2 0.352503 0.0657801 0.827361
2322 4 0.464937 0.0221135 0.744309
1112 4 0.44395 0.0710695 0.766929
844 2 0.479335 0.0759031 0.762334
1111 2 0.429888 0.0687094 0.787468
846 4 0.499688 0.0704487 0.748873
911 4 0.0776439 0.0962261 0.809563
863 4 0.0139185 0.115959 0.760798
832 2 0.00784979 0.112262 0.794176
833 4 0.0257552 0.111135 0.77676
910 2 0.0774209 0.100901 0.834124
1203 4 0.145538 0.0847446 0.756768
34 3 0.131074 0.14647 0.812403
31 1 0.110366 0.156833 0.813891
35 3 0.0948331 0.144854 0.80232
1257 4 0.244703 0.0881288 0.802771
1256 4 0.292345 0.09877 0.791922
1255 2 0.268524 0.0934494 0.797346
1086 4 0.324281 0.13892 0.798927
840 4 0.258517 0.120742 0.83349
1084 2 0.327664 0.119145 0.813849
819 4 0.343451 0.087575 0.819102
1085 4 0.331047 0.0993696 0.828771
845 4 0.458982 0.0813576 0.775795