ITEM: TIMESTEP
3210000
ITEM: NUMBER OF ATOMS
4590
ITEM: BOX BOUNDS pp pp pp
-9.9985700000000008e+00 9.9985700000000008e+00
-9.9985700000000008e+00 9.9985700000000008e+00
-9.9985700000000008e+00 9.9985700000000008e+00
ITEM: ATOMS id type xs ys zs
1667 4 0.0221022 0.0748328 0.0764721
701 4 0.0371232 0.0598639 0.0741969
700 2 0.0551167 0.0757168 0.0671188
490 2 0.280454 0.0590597 0.0632982
492 4 0.271707 0.0358517 0.0664709
1475 4 0.282777 0.0272293 0.0800412
746 4 0.419938 0.0900722 0.0298505
2974 2 0.463782 0.0157295 0.0198682
745 2 0.427833 0.0668459 0.0250145
747 4 0.435728 0.0436197 0.0201785
2975 4 0.447452 0.0310948 0.00880423
986 4 0.430011 0.0362408 0.00343032
2467 2 0.498935 0.00666849 0.0682588
702 4 0.0731101 0.0915696 0.0600406
476 4 0.0781618 0.111584 0.0656295
475 2 0.0662568 0.13357 0.0658891
477 4 0.0543519 0.155556 0.0661486
566 4 0.194058 0.144693 0.017249
565 2 0.215015 0.154194 0.00746674
491 4 0.2892 0.0822678 0.0601254
769 2 0.404228 0.15473 0.0225221
556 2 0.382666 0.0983788 0.0102725
558 4 0.401169 0.0982039 0.027089
771 4 0.398366 0.130595 0.0254064
737 4 0.233022 0.176667 0.0488219
736 2 0.209844 0.185414 0.0522068
738 4 0.186666 0.19416 0.0555916
482 4 0.261032 0.26118 0.0702036
770 4 0.41009 0.178865 0.0196378
359 4 0.399668 0.1933 0.0143406
664 2 0.397852 0.209359 0.051214
665 4 0.403999 0.193331 0.0330346
666 4 0.391706 0.225388 0.0693935
323 4 0.396836 0.241944 0.056555
623 4 0.387575 0.243238 0.0725326
2808 4 0.0176242 0.268422 0.0128105
2806 2 0.998893 0.27555 0.0277614
292 2 0.153665 0.329889 0.0361481
294 4 0.133481 0.323848 0.0226846
293 4 0.17385 0.335929 0.0496117
507 4 0.184155 0.325948 0.05817
286 2 0.204341 0.331989 0.0195007
288 4 0.219195 0.327969 0.999794
481 2 0.238459 0.270569 0.0649616
505 2 0.193215 0.304056 0.0661606
483 4 0.215885 0.279957 0.0597196
506 4 0.202275 0.282165 0.0741512
573 4 0.264996 0.258919 0.0504196
571 2 0.288618 0.262243 0.0429273
572 4 0.31224 0.265566 0.035435
357 4 0.319831 0.272975 0.0197017
355 2 0.327398 0.295326 0.0114325
1069 2 0.405453 0.316343 0.0359739
322 2 0.407878 0.263629 0.0508095
356 4 0.334964 0.317676 0.00316323
324 4 0.41892 0.285314 0.0450641
1070 4 0.422001 0.298014 0.0320498
280 2 0.450946 0.302621 0.061178
282 4 0.437206 0.289566 0.0448701
281 4 0.464686 0.315676 0.0774858
526 2 0.499037 0.331749 0.0846746
329 4 0.991295 0.381358 0.0625185
287 4 0.189486 0.336009 0.0392076
552 4 0.170558 0.332351 0.0684117
456 4 0.214765 0.382135 0.0686305
454 2 0.199907 0.363108 0.0621216
455 4 0.185048 0.34408 0.0556127
1290 4 0.27324 0.406615 0.0426687
1288 2 0.281522 0.386077 0.0310577
1289 4 0.289803 0.36554 0.0194466
956 4 0.341635 0.335023 0.00908298
955 2 0.358208 0.341219 0.0267499
1071 4 0.388906 0.334672 0.039898
957 4 0.374781 0.347415 0.0444169
741 4 0.385562 0.33994 0.0584446
739 2 0.39107 0.346853 0.081834
1787 4 0.10561 0.499046 0.0540221
1786 2 0.0977494 0.480125 0.068353
1788 4 0.0898892 0.461203 0.0826839
626 4 0.200138 0.48029 0.0606259
625 2 0.182156 0.495812 0.0528244
245 4 0.195216 0.464924 0.0497102
244 2 0.216885 0.452832 0.0527723
246 4 0.238555 0.440739 0.0558344
251 4 0.260434 0.419499 0.0513301
250 2 0.262411 0.423113 0.075992
272 4 0.251787 0.434614 0.0430303
271 2 0.265771 0.445703 0.0255184
1157 4 0.287474 0.438775 0.00346428
1672 2 0.410425 0.438107 0.0745766
853 2 0.401903 0.442165 0.0178484
854 4 0.42041 0.442699 0.0346527
855 4 0.383396 0.44163 0.00104406
37 3 0.367047 0.425923 0.00435581
1674 4 0.423489 0.442162 0.0536465
564 4 0.436706 0.449774 0.0427427
563 4 0.469419 0.482387 0.0235853
562 2 0.453063 0.46608 0.033164
228 4 0.464708 0.47759 0.00440942
226 2 0.480884 0.492267 0.992241
19 3 0.0563171 0.0183921 0.150606
582 4 0.240685 0.0809625 0.155808
580 2 0.252234 0.061136 0.165743
1474 2 0.278607 0.0027047 0.0775249
1760 4 0.498084 0.0581181 0.135403
2724 4 0.506127 0.0766639 0.133914
2744 4 0.503362 0.0682197 0.151116
513 4 0.0472158 0.160963 0.172071
312 4 0.365149 0.124436 0.159923
628 2 0.385327 0.159065 0.161209
629 4 0.382421 0.134404 0.158274
2722 2 0.484683 0.0894827 0.132896
2723 4 0.46324 0.102301 0.131878
391 2 0.0560992 0.190086 0.153192
392 4 0.0711705 0.209872 0.150633
393 4 0.0410279 0.1703 0.15575
339 4 0.067147 0.217953 0.169718
755 4 0.243525 0.239103 0.159806
460 2 0.323865 0.225871 0.118114
461 4 0.301162 0.21578 0.115294
354 4 0.281879 0.209851 0.123177
352 2 0.27175 0.222563 0.142177
353 4 0.261621 0.235275 0.161177
462 4 0.346568 0.235961 0.120934
255 4 0.36173 0.238088 0.132344
253 2 0.375029 0.220664 0.144374
622 2 0.373778 0.245147 0.0932975
624 4 0.359981 0.247056 0.114062
254 4 0.388328 0.20324 0.156404
536 4 0.176915 0.255686 0.1331
537 4 0.195919 0.269751 0.0890356
535 2 0.186417 0.262718 0.111068
754 2 0.234591 0.262339 0.157473
756 4 0.225657 0.285575 0.15514
612 4 0.216768 0.299637 0.166894
301 2 0.315575 0.317842 0.148113
303 4 0.313959 0.298279 0.1636
764 4 0.326992 0.283689 0.161103
285 4 0.309031 0.283882 0.168326
765 4 0.352665 0.254285 0.129846
763 2 0.339829 0.268987 0.145474
12 3 0.415376 0.332012 0.129239
671 4 0.460998 0.331131 0.0877895
527 4 0.477776 0.319807 0.0902019
647 4 0.0587923 0.363511 0.154549
550 2 0.1585 0.338983 0.0892875
551 4 0.146442 0.345615 0.110163
302 4 0.31719 0.337405 0.132625
387 4 0.330151 0.350333 0.123451
385 2 0.35394 0.355349 0.11761
493 2 0.389749 0.394029 0.106077
495 4 0.392678 0.370118 0.112775
386 4 0.377729 0.360365 0.11177
15 3 0.382143 0.348149 0.123942
740 4 0.396578 0.353766 0.105223
14 3 0.413678 0.367401 0.116695
11 1 0.403633 0.351747 0.130567
13 3 0.404 0.359231 0.152527
672 4 0.420255 0.347904 0.111441
670 2 0.440627 0.339518 0.099615
596 4 0.510904 0.396901 0.155444
1465 2 0.0541698 0.470624 0.102572
1466 4 0.0332331 0.482694 0.108988
1467 4 0.0751065 0.458554 0.0961567
639 4 0.162948 0.505912 0.13478
638 4 0.206378 0.496775 0.157824
637 2 0.184663 0.501344 0.146302
252 4 0.264387 0.426728 0.100654
609 4 0.274372 0.427867 0.11874
607 2 0.29923 0.429997 0.120399
608 4 0.324087 0.432127 0.122058
659 4 0.331655 0.441143 0.10673
494 4 0.38682 0.417939 0.099378
660 4 0.381298 0.435177 0.105924
1673 4 0.397361 0.434053 0.0955067
658 2 0.356477 0.43816 0.106327
524 4 0.407291 0.48994 0.131387
523 2 0.401725 0.46727 0.122427
525 4 0.396159 0.4446 0.113468
2480 4 0.0316444 0.00278198 0.193728
2479 2 0.0284137 0.0240066 0.206544
380 4 0.0353302 0.0631215 0.225784
2481 4 0.0251829 0.0452312 0.219361
578 4 0.0770093 0.0182025 0.161979
577 2 0.0942751 0.0357669 0.157671
579 4 0.111541 0.0533313 0.153362
674 4 0.153986 0.995963 0.240179
450 4 0.118741 0.0709791 0.158411
448 2 0.14258 0.0718919 0.165899
673 2 0.131921 0.991928 0.251227
237 4 0.224658 0.0756077 0.167324
1504 2 0.227808 0.00107248 0.194225
581 4 0.263784 0.0413095 0.175677
1506 4 0.239506 0.0231357 0.195468
654 4 0.25751 0.0317645 0.191739
652 2 0.27083 0.0385235 0.21179
653 4 0.28415 0.0452825 0.231842
758 4 0.33873 0.0713515 0.186347
759 4 0.361108 0.0654799 0.23068
757 2 0.349919 0.0684157 0.208513
350 4 0.379769 0.069107 0.234964
349 2 0.401151 0.0562535 0.233296
22 3 0.361017 0.0584652 0.245628
632 4 0.366624 0.0733397 0.248115
25 3 0.346647 0.0242561 0.241611
480 4 0.437329 0.0488743 0.245478
351 4 0.422533 0.0433999 0.231628
743 4 0.496322 0.0629278 0.244744
379 2 0.0331848 0.081808 0.20931
511 2 0.0369044 0.140296 0.181648
512 4 0.026593 0.119628 0.191225
381 4 0.0310394 0.100494 0.192836
235 2 0.201601 0.0811088 0.175278
236 4 0.178543 0.0866098 0.183231
449 4 0.166418 0.0728047 0.173386
30 3 0.327832 0.151706 0.244104
310 2 0.353475 0.1029 0.164931
311 4 0.3418 0.081364 0.169939
26 1 0.350338 0.148905 0.246171
28 3 0.358973 0.139593 0.226751
761 4 0.416673 0.127518 0.188433
521 4 0.474009 0.141035 0.217653
762 4 0.458668 0.129895 0.215478
760 2 0.437671 0.128706 0.201955
332 4 0.470834 0.124817 0.228996
331 2 0.479377 0.102815 0.23725
520 2 0.485756 0.159612 0.205733
333 4 0.487919 0.080813 0.245503
2483 4 0.000464139 0.237764 0.231039
337 2 0.0648465 0.239168 0.182748
396 4 0.0145118 0.2476 0.243835
546 4 0.0910158 0.235329 0.237191
544 2 0.114429 0.242459 0.242304
545 4 0.137843 0.249588 0.247418
279 4 0.255485 0.224704 0.22345
277 2 0.256472 0.232761 0.199801
278 4 0.25746 0.240818 0.176151
630 4 0.388232 0.183725 0.164143
394 2 0.0300581 0.262475 0.231098
395 4 0.0456044 0.277349 0.21836
338 4 0.062546 0.260384 0.195778
363 4 0.0634686 0.27496 0.210125
361 2 0.0665355 0.299757 0.209189
362 4 0.0696024 0.324554 0.208253
372 4 0.0868337 0.325065 0.197815
733 2 0.149951 0.332685 0.24359
611 4 0.214739 0.303314 0.216724
610 2 0.215754 0.301475 0.191809
344 4 0.221867 0.314225 0.232453
343 2 0.200815 0.310322 0.245366
284 4 0.272364 0.25003 0.165116
283 2 0.290697 0.266956 0.166721
729 4 0.303638 0.301622 0.178833
727 2 0.28814 0.315511 0.192693
308 4 0.319879 0.28904 0.178745
498 4 0.35196 0.303051 0.230686
307 2 0.337897 0.291204 0.195945
309 4 0.355916 0.293367 0.213145
749 4 0.0579636 0.339136 0.210304
648 4 0.0721709 0.336904 0.19472
748 2 0.0640625 0.354181 0.229321
646 2 0.0654816 0.350208 0.174635
750 4 0.0701614 0.369226 0.248338
370 2 0.108871 0.33449 0.204935
371 4 0.130909 0.343915 0.212054
734 4 0.136272 0.348619 0.230019
417 4 0.141266 0.360037 0.218417
299 4 0.13624 0.365562 0.237626
415 2 0.157114 0.371137 0.20258
298 2 0.112857 0.372259 0.243421
416 4 0.172961 0.382238 0.186743
289 2 0.195575 0.408271 0.172439
291 4 0.173004 0.39993 0.179234
728 4 0.272642 0.3294 0.206552
445 2 0.390982 0.370809 0.239971
447 4 0.415783 0.370409 0.236819
595 2 0.495555 0.390532 0.174127
644 4 0.422854 0.383875 0.224988
643 2 0.446197 0.38196 0.216235
645 4 0.46954 0.380045 0.207481
597 4 0.480206 0.384164 0.192809
290 4 0.218145 0.416612 0.165645
767 4 0.218299 0.485811 0.169661
766 2 0.217847 0.461074 0.166046
768 4 0.217394 0.436338 0.16243
412 2 0.258374 0.488976 0.223618
414 4 0.250333 0.491401 0.200067
2755 2 0.993884 0.08577 0.316204
2756 4 0.00175292 0.0674417 0.301126
234 4 0.0145813 0.0558718 0.291986
232 2 0.0304105 0.0380495 0.299535
233 4 0.0462397 0.0202272 0.307083
317 4 0.0608901 0.0240943 0.3187
1404 4 0.0638494 0.0102238 0.306369
1402 2 0.0786336 0.999618 0.289219
428 4 0.0658403 0.00807523 0.326834
316 2 0.0743726 0.040895 0.331394
693 4 0.327197 0.0636755 0.274009
691 2 0.305477 0.0760618 0.274037
24 3 0.336186 0.0456577 0.270769
21 1 0.353711 0.0397136 0.25677
23 3 0.371261 0.0311005 0.269269
479 4 0.456447 0.0425881 0.291257
478 2 0.446888 0.0457312 0.268368
2664 4 0.467142 0.0343095 0.306607
1428 4 0.448502 0.0357757 0.30463
258 4 0.441088 0.0529866 0.301055
2662 2 0.490705 0.0410608 0.301671
256 2 0.429211 0.066501 0.318419
1426 2 0.443971 0.0115978 0.309112
403 2 0.22865 0.152972 0.32371
692 4 0.283757 0.088448 0.274065
721 2 0.261913 0.107438 0.30312
723 4 0.266833 0.092682 0.283543
722 4 0.256993 0.122193 0.322696
29 3 0.354977 0.135167 0.264286
631 2 0.363832 0.0956396 0.259074
707 4 0.366236 0.12929 0.279892
633 4 0.36104 0.117939 0.270033
706 2 0.363939 0.139864 0.302433
708 4 0.361641 0.150439 0.324973
444 4 0.0371217 0.232147 0.306904
442 2 0.0280364 0.236874 0.284094
443 4 0.0189511 0.241602 0.261284
600 4 0.108055 0.212104 0.339053
405 4 0.215565 0.173814 0.319284
473 4 0.205565 0.189705 0.318595
27 3 0.360235 0.169379 0.249639
402 4 0.136403 0.256001 0.266381
735 4 0.16363 0.316751 0.25716
375 4 0.162068 0.32487 0.33698
400 2 0.149728 0.277053 0.264276
676 2 0.167877 0.322682 0.296817
677 4 0.168547 0.311561 0.274433
401 4 0.163053 0.298105 0.262171
345 4 0.179763 0.306418 0.258279
378 4 0.283751 0.279878 0.295353
376 2 0.303852 0.294735 0.294719
377 4 0.323954 0.309591 0.294086
418 2 0.407623 0.253813 0.316636
615 4 0.334522 0.321962 0.30527
497 4 0.336993 0.305894 0.278315
496 2 0.344477 0.304472 0.254501
541 2 0.359278 0.292311 0.306691
542 4 0.378255 0.279295 0.316472
543 4 0.340302 0.305326 0.29691
420 4 0.393388 0.271265 0.305774
2537 4 0.484146 0.328768 0.315943
364 2 0.00266802 0.396704 0.286614
365 4 0.0202403 0.414345 0.288891
603 4 0.0346079 0.40796 0.301399
601 2 0.0468594 0.403959 0.322825
300 4 0.0894739 0.378955 0.249216
678 4 0.167207 0.333804 0.319201
510 4 0.177716 0.34809 0.312465
508 2 0.19082 0.368808 0.317385
509 4 0.203923 0.389527 0.322305
434 4 0.326745 0.385774 0.317474
433 2 0.312502 0.406257 0.315804
614 4 0.338456 0.369974 0.318689
2 3 0.282693 0.419359 0.32042
446 4 0.366182 0.371209 0.243124
613 2 0.336489 0.345968 0.311979
264 4 0.00196682 0.446789 0.282342
1757 4 0.0124322 0.429929 0.281374
1756 2 0.0329174 0.443581 0.276994
1758 4 0.0534025 0.457232 0.272614
1775 4 0.0691416 0.468536 0.278332
775 2 0.047947 0.486074 0.31033
777 4 0.05956 0.483431 0.288346
1776 4 0.114898 0.451082 0.288453
1774 2 0.0920198 0.459809 0.283393
413 4 0.266416 0.486551 0.247168
4 3 0.250421 0.423631 0.301634
1436 4 0.254169 0.47635 0.258662
1435 2 0.255346 0.460848 0.278245
1437 4 0.256523 0.445347 0.297828
3 3 0.268443 0.453855 0.315992
1 1 0.263187 0.431503 0.319339
436 2 0.306234 0.458268 0.322422
438 4 0.287839 0.441946 0.317904
435 4 0.298259 0.42674 0.314135
437 4 0.324629 0.474589 0.32694
1801 2 0.352594 0.487025 0.314164
1802 4 0.327699 0.48935 0.314368
1803 4 0.377488 0.4847 0.31396
593 4 0.379781 0.472025 0.331627
118 3 0.499014 0.423623 0.339627
119 3 0.488162 0.458462 0.329004
318 4 0.0878551 0.0576956 0.344088
732 4 0.102114 0.0680957 0.350834
730 2 0.126985 0.0691012 0.3532
731 4 0.151856 0.0701067 0.355566
606 4 0.171246 0.0655098 0.352194
399 4 0.0838827 0.0755067 0.350595
962 4 0.338541 0.000888321 0.417825
1701 4 0.364968 0.0031998 0.397694
257 4 0.417335 0.0800155 0.335782
699 4 0.383541 0.0466896 0.372093
1699 2 0.365112 0.0226272 0.381954
1700 4 0.365255 0.0420547 0.366215
697 2 0.398114 0.0653032 0.363948
698 4 0.412687 0.0839168 0.355803
397 2 0.0638522 0.088335 0.358302
398 4 0.0438216 0.101163 0.366009
2584 2 0.0137168 0.116729 0.356533
2586 4 0.0371942 0.118907 0.364854
458 4 0.0387397 0.129546 0.381809
457 2 0.046471 0.150719 0.39263
459 4 0.0542023 0.171892 0.403452
404 4 0.241734 0.13213 0.328135
604 2 0.186543 0.0774922 0.367929
605 4 0.20184 0.0894746 0.383665
248 4 0.21688 0.0981064 0.372893
247 2 0.230986 0.105396 0.353578
249 4 0.245092 0.112685 0.334263
683 4 0.254832 0.127488 0.341205
682 2 0.276892 0.136435 0.348851
684 4 0.298953 0.145383 0.356497
319 2 0.330958 0.157665 0.344145
320 4 0.306134 0.160353 0.345456
321 4 0.355782 0.154977 0.342834
726 4 0.398344 0.136537 0.403898
717 4 0.360207 0.151886 0.361122
715 2 0.37661 0.152828 0.37997
716 4 0.393013 0.153771 0.398817
467 4 0.406334 0.152884 0.412867
724 2 0.407072 0.11312 0.404709
725 4 0.415801 0.0897037 0.405519
641 4 0.467746 0.122887 0.363521
640 2 0.486966 0.124359 0.379446
598 2 0.12523 0.218525 0.356051
599 4 0.142406 0.224947 0.37305
389 4 0.141139 0.25049 0.391226
686 4 0.136146 0.231651 0.39247
685 2 0.119794 0.225216 0.410258
275 4 0.150237 0.234928 0.386346
274 2 0.170874 0.221009 0.383986
474 4 0.197859 0.210284 0.363515
472 2 0.201712 0.199995 0.341055
276 4 0.19151 0.20709 0.381625
419 4 0.421858 0.236362 0.327499
269 4 0.408352 0.225978 0.337151
466 2 0.416557 0.171864 0.425534
268 2 0.426299 0.21243 0.348084
270 4 0.444247 0.198882 0.359017
452 4 0.461912 0.205461 0.365716
451 2 0.470891 0.210974 0.388391
453 4 0.47987 0.216487 0.411067
347 4 0.0524027 0.306217 0.383125
346 2 0.0289376 0.308142 0.391543
618 4 0.0568623 0.308341 0.361941
348 4 0.00547239 0.310067 0.399961
373 2 0.142161 0.313581 0.347051
388 2 0.131642 0.27199 0.382698
616 2 0.0809724 0.302437 0.364944
390 4 0.122146 0.293491 0.37417
617 4 0.105083 0.296532 0.367947
374 4 0.122253 0.302292 0.357121
488 4 0.37143 0.276914 0.396067
602 4 0.0591109 0.399959 0.344251
549 4 0.0688334 0.396758 0.361782
547 2 0.068519 0.412336 0.381338
335 4 0.32441 0.373131 0.39717
240 4 0.328253 0.363432 0.379301
238 2 0.3419 0.38056 0.367236
239 4 0.355547 0.397688 0.355171
587 4 0.374452 0.405457 0.347479
752 4 0.46507 0.380843 0.375018
561 4 0.458332 0.369125 0.389787
751 2 0.474337 0.401894 0.365211
559 2 0.472881 0.3607 0.408294
776 4 0.0363339 0.488718 0.332315
500 4 0.047605 0.484278 0.347337
499 2 0.0600662 0.470187 0.363809
501 4 0.0725273 0.456096 0.380281
407 4 0.0806659 0.442579 0.393166
548 4 0.0682046 0.427914 0.400893
406 2 0.0861601 0.456405 0.413262
1555 2 0.232232 0.483369 0.381599
1557 4 0.247125 0.466265 0.392128
636 4 0.258151 0.460911 0.409151
5 3 0.251734 0.429054 0.33887
586 2 0.377522 0.429633 0.341885
588 4 0.380592 0.453809 0.336291
592 2 0.399866 0.481594 0.343037
116 1 0.494877 0.445273 0.346875
713 4 0.437327 0.493941 0.343598
712 2 0.457116 0.478699 0.344709
714 4 0.476905 0.463456 0.345819
753 4 0.483604 0.422945 0.355404
117 3 0.478011 0.444787 0.362509
369 4 0.052617 0.00547829 0.442462
367 2 0.0774214 0.0056343 0.445608
720 4 0.996728 0.00802942 0.457221
1781 4 0.119577 0.011484 0.442137
368 4 0.102226 0.00579032 0.448754
963 4 0.31929 0.0329379 0.451036
432 4 0.313793 0.052954 0.452139
430 2 0.325002 0.0580318 0.473905
961 2 0.328916 0.0169131 0.43443
431 4 0.33621 0.0631096 0.495671
260 4 0.0478118 0.187274 0.413735
259 2 0.0669214 0.200331 0.423196
261 4 0.0860309 0.213388 0.432658
687 4 0.103442 0.218781 0.428045
1035 4 0.0914895 0.229654 0.440626
409 2 0.402874 0.225099 0.447285
411 4 0.384489 0.242033 0.447953
468 4 0.42678 0.190843 0.438201
410 4 0.421258 0.208166 0.446616
574 2 0.417698 0.191508 0.488352
515 4 0.475957 0.221087 0.430583
575 4 0.422842 0.200634 0.465648
516 4 0.435609 0.200535 0.451805
514 2 0.455783 0.210811 0.441194
1033 2 0.0929157 0.249355 0.455956
1034 4 0.0943419 0.269057 0.471285
696 4 0.10199 0.275633 0.487575
1260 4 0.112431 0.27813 0.4715
1258 2 0.122072 0.300818 0.467317
1259 4 0.131714 0.323506 0.463134
9 3 0.156112 0.319678 0.420117
503 4 0.142423 0.326622 0.474705
487 2 0.381196 0.266333 0.416509
489 4 0.390962 0.255753 0.436951
266 4 0.393207 0.257893 0.45575
265 2 0.392329 0.271255 0.476865
3308 4 0.467482 0.329203 0.478466
1011 4 0.474005 0.310882 0.473411
1009 2 0.467014 0.291097 0.487007
326 4 0.0874222 0.366488 0.471615
7 3 0.146702 0.329609 0.455124
6 1 0.148239 0.337002 0.433395
327 4 0.125769 0.340671 0.452544
325 2 0.106595 0.35358 0.462079
10 3 0.127638 0.343545 0.426223
709 2 0.153654 0.400683 0.492947
8 3 0.162962 0.354919 0.432592
502 2 0.15183 0.343372 0.490708
334 2 0.316368 0.380163 0.419776
336 4 0.308327 0.387195 0.442383
668 4 0.303977 0.398644 0.456531
882 4 0.316815 0.383176 0.458768
880 2 0.332605 0.381952 0.478117
881 4 0.348394 0.380728 0.497466
3309 4 0.493393 0.355895 0.445047
560 4 0.487431 0.352275 0.426801
3307 2 0.480437 0.342549 0.461756
568 2 0.130144 0.488189 0.421706
569 4 0.111893 0.472744 0.429024
382 2 0.119022 0.450559 0.460561
408 4 0.0916544 0.470231 0.433357
711 4 0.14394 0.422514 0.485583
384 4 0.132432 0.436047 0.475882
383 4 0.105612 0.465071 0.445239
635 4 0.288269 0.460982 0.44907
669 4 0.293407 0.446969 0.463856
774 4 0.297478 0.465332 0.464811
772 2 0.316509 0.478482 0.474302
634 2 0.27321 0.460947 0.429111
667 2 0.298692 0.422807 0.460193
773 4 0.33554 0.491632 0.483792
663 4 0.448696 0.494713 0.498245
3077 4 0.000681176 0.0773348 0.571703
1152 4 0.225801 0.0571897 0.514644
1150 2 0.230843 0.0625706 0.538535
1151 4 0.235885 0.0679516 0.562426
1032 4 0.234567 0.0625614 0.581344
342 4 0.230804 0.0495376 0.496386
340 2 0.224169 0.0254338 0.496793
1181 4 0.247442 0.0757352 0.576817
842 4 0.398356 0.0461719 0.515103
1217 4 0.410187 0.0510304 0.498449
841 2 0.375094 0.0545838 0.511456
843 4 0.351832 0.0629958 0.507809
3007 2 0.497441 0.0391656 0.567767
3009 4 0.505932 0.0492081 0.546501
1216 2 0.434242 0.0574388 0.500786
1218 4 0.458297 0.0638472 0.503123
1058 4 0.0845806 0.090745 0.517398
1270 2 0.0861278 0.153912 0.556769
1271 4 0.0965974 0.131555 0.560737
1057 2 0.0929567 0.101915 0.538141
1059 4 0.101333 0.113085 0.558883
1155 4 0.111395 0.122822 0.568565
939 4 0.0945395 0.118101 0.576087
1153 2 0.135195 0.130236 0.5705
1154 4 0.158996 0.137651 0.572435
1180 2 0.242168 0.0996983 0.581626
898 2 0.252869 0.15424 0.559967
900 4 0.244085 0.134829 0.573054
1221 4 0.178041 0.132919 0.568644
1219 2 0.202304 0.136409 0.573571
1220 4 0.226568 0.1399 0.578498
1199 4 0.0356438 0.21287 0.556534
879 4 0.0812703 0.186947 0.568893
877 2 0.062725 0.203533 0.571372
1272 4 0.0756582 0.176268 0.552801
878 4 0.0441797 0.220119 0.57385
1198 2 0.0132672 0.219786 0.547779
651 4 0.209804 0.213323 0.528549
858 4 0.193796 0.220123 0.519394
649 2 0.227225 0.198109 0.538047
650 4 0.244646 0.182895 0.547546
856 2 0.1927 0.24337 0.528533
899 4 0.261653 0.17365 0.54688
576 4 0.412555 0.182382 0.511055
695 4 0.102383 0.266246 0.536692
694 2 0.102186 0.270939 0.512134
946 2 0.179222 0.287266 0.564467
857 4 0.191603 0.266618 0.537672
947 4 0.197734 0.282053 0.548488
798 4 0.21367 0.276117 0.559868
796 2 0.237944 0.280085 0.564362
797 4 0.262218 0.284052 0.568856
790 2 0.26301 0.325942 0.579904
791 4 0.260771 0.301047 0.580528
872 4 0.396261 0.337528 0.559994
267 4 0.391452 0.284618 0.497981
2455 2 0.489768 0.25334 0.516991
2457 4 0.46552 0.259117 0.515032
1010 4 0.460024 0.271311 0.500602
3263 4 0.0466165 0.347491 0.570769
710 4 0.163368 0.378852 0.500312
504 4 0.161237 0.360123 0.506711
1189 2 0.241456 0.374605 0.570095
1191 4 0.221491 0.38816 0.576639
804 4 0.28303 0.351279 0.500628
803 4 0.273469 0.356573 0.549426
802 2 0.27825 0.353926 0.525027
1190 4 0.261422 0.361049 0.563551
1238 4 0.277625 0.363363 0.568677
1237 2 0.302275 0.365898 0.572017
1239 4 0.326924 0.368433 0.575358
930 4 0.33394 0.375718 0.55706
929 4 0.350978 0.365743 0.511116
928 2 0.342459 0.370731 0.534088
1081 2 0.0602346 0.0656837 0.633294
4337 4 0.00650908 0.993606 0.673355
1082 4 0.0623786 0.0503201 0.652904
825 4 0.158658 0.065428 0.660039
823 2 0.163418 0.0440064 0.672024
1283 4 0.152027 0.0836123 0.654077
1030 2 0.241496 0.045582 0.59834
2133 4 0.176576 0.0152326 0.66809
1031 4 0.248426 0.0286025 0.615336
951 4 0.259524 0.0206063 0.629536
949 2 0.282692 0.0166572 0.621001
950 4 0.30586 0.0127081 0.612467
1148 4 0.250803 0.0679577 0.652178
1226 4 0.269192 0.0752825 0.656133
3008 4 0.488951 0.0291232 0.589033
809 4 0.478504 0.0245717 0.607071
808 2 0.472337 0.0394774 0.626175
810 4 0.466169 0.054383 0.645279
45 3 0.467845 0.0782042 0.644492
41 1 0.460137 0.0710487 0.664692
42 3 0.464448 0.0485624 0.666913
43 3 0.43723 0.0744687 0.666088
1083 4 0.0580906 0.0810472 0.613684
1127 4 0.0502274 0.0950262 0.603286
1126 2 0.027007 0.093826 0.594091
1128 4 0.00378648 0.0926259 0.584896
938 4 0.0656396 0.100411 0.612865
937 2 0.0800895 0.109256 0.594476
1282 2 0.163106 0.102204 0.666599
1182 4 0.236893 0.123661 0.586435
1210 2 0.24579 0.139689 0.616311
1212 4 0.239891 0.141574 0.592086
908 4 0.237722 0.126574 0.648146
907 2 0.216479 0.124158 0.66111
1211 4 0.251689 0.137805 0.640535
1227 4 0.257239 0.122923 0.646741
888 4 0.267541 0.140465 0.650113
886 2 0.290545 0.150257 0.650381
887 4 0.31355 0.16005 0.650649
1225 2 0.263215 0.0991029 0.651437
3425 4 0.479609 0.0899146 0.661892
3424 2 0.499895 0.104416 0.660058
1244 4 0.0503703 0.2318 0.587563
1243 2 0.0416395 0.251788 0.599787
1194 4 0.315354 0.178195 0.656634
1192 2 0.328095 0.188419 0.637704
1193 4 0.340835 0.198644 0.618775
3123 4 0.487726 0.218219 0.630389
3121 2 0.500387 0.238541 0.637591
982 2 0.0134718 0.294045 0.580922
983 4 0.0289259 0.283984 0.597807
1245 4 0.0329088 0.271776 0.612012
948 4 0.160711 0.292478 0.580446
1136 4 0.162434 0.309658 0.590916
820 2 0.14948 0.329247 0.66103
1135 2 0.166498 0.32647 0.608973
871 2 0.395052 0.32987 0.583766
873 4 0.393843 0.322212 0.607537
813 4 0.400366 0.330139 0.624261
954 4 0.479944 0.287263 0.585075
952 2 0.47812 0.307958 0.598988
953 4 0.476296 0.328653 0.612902
3262 2 0.0476461 0.363838 0.589661
1041 4 0.063321 0.39134 0.619024
3264 4 0.0486756 0.380185 0.608552
3240 4 0.0456769 0.397525 0.615926
3238 2 0.0252397 0.411867 0.617273
1039 2 0.0881468 0.394278 0.619495
1040 4 0.112973 0.397216 0.619967
993 4 0.127466 0.39198 0.632915
991 2 0.145828 0.37501 0.632908
992 4 0.16419 0.358039 0.632902
822 4 0.162838 0.34276 0.644777
1137 4 0.170562 0.343282 0.627029
1064 4 0.179328 0.352387 0.638533
897 4 0.179818 0.358923 0.62012
896 4 0.209541 0.386199 0.590568
895 2 0.194679 0.372561 0.605344
1172 4 0.22171 0.400556 0.593061
1063 2 0.19575 0.357878 0.656569
792 4 0.265249 0.350837 0.57928
811 2 0.403686 0.349091 0.640229
927 4 0.407416 0.386831 0.653038
812 4 0.407006 0.368043 0.656198
925 2 0.414485 0.408166 0.642083
1206 4 0.390382 0.380795 0.658433
906 4 0.477014 0.345433 0.602764
904 2 0.495179 0.361659 0.597115
3239 4 0.00480261 0.426209 0.618621
2244 4 0.115857 0.481265 0.604194
1160 4 0.130404 0.481369 0.590644
540 4 0.125603 0.464484 0.599684
539 4 0.104349 0.419843 0.592187
538 2 0.114976 0.442164 0.595936
1159 2 0.153379 0.482983 0.600376
1171 2 0.225156 0.421463 0.606335
1186 2 0.204965 0.477871 0.618416
1173 4 0.228602 0.442371 0.619608
1187 4 0.217889 0.458381 0.627263
1188 4 0.192042 0.497362 0.609569
1161 4 0.176354 0.484596 0.610109
1230 4 0.337396 0.45701 0.665419
926 4 0.421553 0.429502 0.631129
1002 4 0.435551 0.440083 0.621287
1911 4 0.434679 0.496938 0.620468
1001 4 0.447625 0.486874 0.634155
1000 2 0.441588 0.463479 0.627721
1269 4 0.440824 0.503269 0.637058
944 4 0.0618185 0.0303145 0.68276
943 2 0.0429244 0.0139607 0.681896
1076 4 0.0647976 0.0466793 0.672762
1075 2 0.0668613 0.0648162 0.689849
864 4 0.0634445 0.0766728 0.726125
1077 4 0.0689251 0.0829532 0.706936
862 2 0.0433895 0.0769058 0.741056
824 4 0.168178 0.0225848 0.684008
2256 4 0.177308 0.0052616 0.685057
1149 4 0.266751 0.0242721 0.670561
1147 2 0.258777 0.0461149 0.661369
1092 4 0.329931 0.00590231 0.692999
1004 4 0.358164 0.0880304 0.739333
1163 4 0.472548 0.0600657 0.685958
1162 2 0.485452 0.0498277 0.704768
44 3 0.470908 0.0824749 0.681775
4581 4 0.497152 0.0144708 0.741226
2321 4 0.494358 0.0334557 0.741305
1164 4 0.498357 0.0395896 0.723579
851 4 0.0715828 0.102334 0.709826
850 2 0.0643609 0.121474 0.69545
852 4 0.057139 0.140614 0.681073
1107 4 0.0772803 0.0893819 0.722492
1105 2 0.0995173 0.0902931 0.733888
1106 4 0.121754 0.0912043 0.745284
1284 4 0.174186 0.120795 0.67912
909 4 0.195236 0.121743 0.674074
830 4 0.32787 0.163646 0.663169
829 2 0.343162 0.146874 0.673658
1005 4 0.359871 0.1124 0.695699
1003 2 0.359018 0.100215 0.717516
831 4 0.358454 0.130101 0.684147
3268 2 0.490487 0.145904 0.73789
3269 4 0.485984 0.124593 0.750169
1178 4 0.00355171 0.256024 0.730109
977 4 0.314085 0.245709 0.736547
918 4 0.295914 0.255119 0.736908
1297 2 0.281021 0.219278 0.745023
1299 4 0.263615 0.201447 0.74708
1298 4 0.298427 0.23711 0.742967
976 2 0.337531 0.249074 0.728539
978 4 0.360977 0.252439 0.72053
1025 4 0.398614 0.179806 0.700726
1024 2 0.41402 0.19547 0.712663
1020 4 0.379049 0.254326 0.730569
1142 4 0.438634 0.215101 0.73998
1144 2 0.469807 0.198918 0.722272
1262 4 0.441698 0.227183 0.726035
1026 4 0.429426 0.211134 0.7246
1145 4 0.447642 0.210411 0.720935
1146 4 0.491972 0.187424 0.72361
1073 4 0.0796677 0.253603 0.726722
1177 2 0.0250237 0.268435 0.726928
1179 4 0.0464956 0.280845 0.723747
1072 2 0.104591 0.254137 0.724798
1208 4 0.139588 0.271014 0.719907
1074 4 0.129515 0.254671 0.722875
1207 2 0.144386 0.291093 0.705801
821 4 0.136122 0.315734 0.677282
1209 4 0.149183 0.311173 0.691694
1130 4 0.143771 0.25971 0.735283
815 4 0.116512 0.321655 0.718976
806 4 0.25415 0.326554 0.697619
1261 2 0.448887 0.250622 0.730943
1263 4 0.456075 0.274062 0.73585
3114 4 0.493252 0.312453 0.681707
892 2 0.0409753 0.361923 0.719431
1280 4 0.0791528 0.368313 0.730662
816 4 0.0757719 0.350546 0.721485
894 4 0.0622574 0.359211 0.732272
893 4 0.0196932 0.364635 0.70659
942 4 0.129082 0.337407 0.722097
1279 2 0.0842845 0.390148 0.741711
814 2 0.0961417 0.3361 0.72023
940 2 0.147423 0.352762 0.729379
941 4 0.165763 0.368117 0.736662
1080 4 0.167513 0.383948 0.747393
1078 2 0.161746 0.408116 0.7446
805 2 0.232778 0.339021 0.694015
1065 4 0.212173 0.36337 0.674606
807 4 0.211407 0.351489 0.69041
1028 4 0.21459 0.382881 0.679954
1066 2 0.193162 0.376109 0.71202
1068 4 0.207408 0.370088 0.692375
1027 2 0.228477 0.403511 0.677361
1067 4 0.178915 0.382131 0.731666
1204 2 0.369822 0.386241 0.671577
1205 4 0.349261 0.391687 0.684722
1029 4 0.242364 0.424141 0.674768
1174 2 0.175967 0.478173 0.728571
1140 4 0.237808 0.436388 0.688845
1175 4 0.186869 0.477044 0.706097
2172 4 0.184099 0.491909 0.693366
1228 2 0.318182 0.462878 0.680305
1138 2 0.25895 0.449691 0.689949
1139 4 0.280092 0.462994 0.691052
1987 2 0.299396 0.463119 0.734674
1229 4 0.298968 0.468746 0.69519
1989 4 0.295183 0.475824 0.713555
2028 4 0.286431 0.480176 0.69712
1988 4 0.303609 0.450415 0.755793
1099 2 0.482946 0.487584 0.701466
2989 2 0.00884239 0.0398646 0.775359
2990 4 0.0115012 0.0632126 0.766816
2991 4 0.00618355 0.0165166 0.783902
863 4 0.0233346 0.0771388 0.755987
3083 4 0.00495682 0.078886 0.759263
833 4 0.0195984 0.0786245 0.774323
2049 4 0.106025 0.0126404 0.788172
1202 4 0.119233 0.0222599 0.775549
1201 2 0.124235 0.0467075 0.777122
1203 4 0.129237 0.0711551 0.778695
32 3 0.14409 0.0798943 0.793227
1085 4 0.321196 0.0778778 0.809642
960 4 0.33521 0.071484 0.820531
1084 2 0.298615 0.0858082 0.802406
973 2 0.368982 0.000684441 0.817949
819 4 0.337206 0.0723326 0.800709
1050 4 0.357265 0.00979446 0.782366
817 2 0.341689 0.0485551 0.794407
818 4 0.346172 0.0247775 0.788106
974 4 0.35425 0.0123764 0.801473
1048 2 0.340577 0.996017 0.769842
2320 2 0.48845 0.0485142 0.760371
844 2 0.493572 0.0634403 0.821434
845 4 0.483077 0.0649212 0.798788
2322 4 0.482542 0.0635727 0.779437
1112 4 0.479464 0.0810902 0.787881
832 2 0.0241134 0.0962816 0.791441
834 4 0.0286285 0.113939 0.808558
1125 4 0.0463139 0.1213 0.813584
34 3 0.120484 0.0867624 0.764798
911 4 0.136807 0.0988153 0.806131
31 1 0.136894 0.0959385 0.778397
35 3 0.128395 0.1136 0.789993
33 3 0.154906 0.102859 0.765509
910 2 0.137995 0.103405 0.830681
1256 4 0.225459 0.124459 0.81746
840 4 0.235999 0.135063 0.830315
1255 2 0.242764 0.113716 0.802957
1086 4 0.276033 0.0937387 0.79517
1257 4 0.260068 0.102973 0.788455