ITEM: TIMESTEP
1230000
ITEM: NUMBER OF ATOMS
4590
ITEM: BOX BOUNDS pp pp pp
-9.9985700000000008e+00 9.9985700000000008e+00
-9.9985700000000008e+00 9.9985700000000008e+00
-9.9985700000000008e+00 9.9985700000000008e+00
ITEM: ATOMS id type xs ys zs
1668 4 0.0960353 0.0336356 0.0614184
1666 2 0.0877396 0.0495965 0.0787853
297 4 0.354566 0.0518111 0.0576194
295 2 0.360231 0.072909 0.0454552
747 4 0.460884 0.0578701 0.00077344
2974 2 0.469458 0.0232485 0.0242477
2976 4 0.479347 0.00501432 0.0382079
2975 4 0.459568 0.0414827 0.0102875
986 4 0.445139 0.0452042 0.998299
2467 2 0.492823 0.00824597 0.0790609
745 2 0.453844 0.0789936 0.0121497
2468 4 0.484184 0.00193022 0.0564631
566 4 0.15075 0.155032 0.0464129
2264 4 0.287436 0.0959651 0.00526256
358 2 0.343963 0.141455 0.0817984
296 4 0.365895 0.0940068 0.033291
557 4 0.377891 0.0995986 0.0183412
556 2 0.402748 0.0976782 0.0202434
769 2 0.390823 0.145462 0.0489067
359 4 0.35835 0.157833 0.0695519
770 4 0.373768 0.160489 0.0593225
827 4 0.368039 0.0923556 0.00197636
771 4 0.407878 0.130435 0.0384909
558 4 0.427605 0.0957579 0.0221455
746 4 0.446805 0.100117 0.0235259
565 2 0.164168 0.173502 0.0362141
567 4 0.177586 0.191971 0.0260153
664 2 0.386307 0.19853 0.0555786
665 4 0.387574 0.175353 0.0648742
666 4 0.385041 0.221707 0.0462829
555 4 0.0919553 0.281865 0.0411246
553 2 0.0895911 0.287572 0.0168961
286 2 0.148157 0.328401 0.0338496
287 4 0.161197 0.30877 0.0254994
292 2 0.172021 0.276487 0.010144
293 4 0.162909 0.290249 0.0289254
507 4 0.168911 0.304348 0.0423369
505 2 0.183895 0.29722 0.0610409
506 4 0.198879 0.290091 0.079745
481 2 0.23743 0.280963 0.0693876
573 4 0.247514 0.261981 0.0417932
482 4 0.257005 0.275593 0.054788
571 2 0.251579 0.266416 0.0175243
322 2 0.387245 0.286188 0.0628499
1069 2 0.391959 0.307974 0.0101742
324 4 0.396055 0.293681 0.0406819
1070 4 0.406898 0.292233 0.0225937
957 4 0.360942 0.32541 0.00934889
739 2 0.358731 0.331465 0.0504311
741 4 0.368517 0.330222 0.0274554
671 4 0.454583 0.326 0.0544581
280 2 0.442401 0.298958 0.0308728
281 4 0.460108 0.308866 0.0454829
282 4 0.424693 0.28905 0.0162626
288 4 0.135117 0.348033 0.0421998
454 2 0.153657 0.376122 0.0731864
455 4 0.132524 0.374354 0.086433
456 4 0.174789 0.377891 0.0599398
250 2 0.279602 0.397713 0.0400359
251 4 0.271891 0.376252 0.0297823
740 4 0.348946 0.332707 0.0734068
495 4 0.380837 0.380191 0.0606944
493 2 0.384367 0.402733 0.0709192
14 3 0.380332 0.367507 0.0772396
670 2 0.439348 0.336527 0.0712581
3347 4 0.49327 0.334621 0.997213
245 4 0.244313 0.441942 0.0556296
626 4 0.225254 0.447124 0.0581292
625 2 0.2015 0.449832 0.0654529
627 4 0.177747 0.45254 0.0727766
252 4 0.287314 0.419174 0.0502894
609 4 0.293757 0.415601 0.0692636
244 2 0.254504 0.4521 0.0351808
246 4 0.264694 0.462258 0.0147321
607 2 0.311429 0.425194 0.0841241
563 4 0.471403 0.482668 0.0482323
228 4 0.48549 0.48623 0.061444
562 2 0.451789 0.482056 0.0327369
564 4 0.432175 0.481445 0.0172415
854 4 0.422764 0.465739 0.00942522
1674 4 0.42511 0.496778 0.0284726
226 2 0.496845 0.470686 0.0774006
19 3 0.0476693 0.0789358 0.152167
18 3 0.0644168 0.0453964 0.145919
16 1 0.0579643 0.0606863 0.162135
1667 4 0.079444 0.0655574 0.0961522
701 4 0.0790697 0.0758501 0.114636
1475 4 0.269024 0.0129182 0.0812612
492 4 0.279222 0.0208785 0.0968646
491 4 0.278299 0.0518199 0.136139
490 2 0.278761 0.0363492 0.116502
654 4 0.266116 0.0321166 0.165736
486 4 0.383152 0.028452 0.0945228
484 2 0.377968 0.0140065 0.114262
485 4 0.372785 0.999561 0.134001
2469 4 0.501462 0.0145617 0.101659
2723 4 0.451899 0.0476087 0.160831
1760 4 0.500594 0.0196915 0.166124
700 2 0.0882182 0.0953491 0.127335
476 4 0.098867 0.129224 0.153538
702 4 0.0973667 0.114848 0.140034
360 4 0.329577 0.125077 0.094045
581 4 0.28942 0.110095 0.157457
580 2 0.270234 0.124403 0.164693
628 2 0.378313 0.13637 0.139812
630 4 0.380278 0.152613 0.120905
312 4 0.389663 0.106007 0.163036
629 4 0.376347 0.120127 0.15872
339 4 0.0744542 0.253182 0.123363
337 2 0.0769937 0.24606 0.147196
738 4 0.194262 0.24053 0.106124
737 4 0.203194 0.192953 0.118667
736 2 0.198728 0.216741 0.112396
277 2 0.242299 0.24047 0.165929
461 4 0.304806 0.230573 0.0952634
460 2 0.329337 0.229653 0.100016
354 4 0.292592 0.241159 0.106225
352 2 0.286331 0.246423 0.129853
462 4 0.353867 0.228733 0.104768
254 4 0.379639 0.173786 0.116615
255 4 0.36279 0.22081 0.118981
253 2 0.371215 0.197298 0.117798
765 4 0.35932 0.22951 0.138069
624 4 0.36252 0.237383 0.12186
763 2 0.346282 0.227517 0.159311
648 4 0.0341414 0.306566 0.157063
483 4 0.217855 0.286333 0.0839873
537 4 0.189919 0.304887 0.0899243
536 4 0.200464 0.319588 0.136544
535 2 0.195192 0.312237 0.113234
353 4 0.280069 0.251688 0.15348
278 4 0.262683 0.253944 0.160628
755 4 0.27316 0.269476 0.152227
387 4 0.325041 0.316085 0.127214
302 4 0.32038 0.316636 0.147283
754 2 0.275375 0.288424 0.168389
622 2 0.376719 0.254431 0.110331
323 4 0.378436 0.278695 0.0850179
623 4 0.390919 0.271479 0.0988017
385 2 0.341326 0.320546 0.108773
386 4 0.357611 0.325007 0.0903314
15 3 0.374509 0.33625 0.0974065
528 4 0.470921 0.26556 0.116092
518 4 0.473228 0.266185 0.0954132
526 2 0.461237 0.273535 0.137721
527 4 0.451553 0.28151 0.15935
517 2 0.49732 0.261529 0.0906123
551 4 0.0935121 0.362352 0.128276
552 4 0.115304 0.364519 0.083319
550 2 0.104408 0.363435 0.105798
12 3 0.407089 0.341246 0.0798993
11 1 0.390026 0.351728 0.0912196
13 3 0.398778 0.362121 0.110029
672 4 0.424112 0.347054 0.0880581
104 3 0.487369 0.342263 0.123675
596 4 0.491739 0.398966 0.169013
1791 4 0.0312683 0.472266 0.13652
1466 4 0.0287378 0.4781 0.155235
1789 2 0.0441165 0.488992 0.123091
417 4 0.167328 0.461339 0.127061
291 4 0.221136 0.425365 0.13279
416 4 0.207393 0.435675 0.142451
415 2 0.18736 0.448507 0.134756
289 2 0.241212 0.429724 0.147043
638 4 0.257534 0.487308 0.159204
768 4 0.280689 0.440375 0.159225
290 4 0.261287 0.434084 0.161296
608 4 0.329102 0.434787 0.0989847
767 4 0.277181 0.490037 0.163922
766 2 0.278935 0.465206 0.161573
494 4 0.387896 0.425276 0.081144
525 4 0.373791 0.476899 0.126245
658 2 0.360763 0.435717 0.107998
659 4 0.338196 0.443024 0.115905
660 4 0.38333 0.428411 0.100091
523 2 0.35711 0.491649 0.114871
17 3 0.0429948 0.0505602 0.176367
1420 2 0.0275151 0.0034742 0.181425
20 3 0.0761417 0.0675498 0.174015
2480 4 0.0241845 0.0439745 0.182599
1422 4 0.024083 0.0270128 0.173722
2479 2 0.00336347 0.0565674 0.188351
675 4 0.0978879 0.00285318 0.239759
674 4 0.145989 0.0106464 0.228521
673 2 0.121938 0.00674978 0.23414
689 4 0.156556 0.013402 0.246051
448 2 0.18047 0.0701491 0.183026
1506 4 0.248187 0.0234263 0.172128
450 4 0.184885 0.0474523 0.192541
1504 2 0.231514 0.0107264 0.185763
688 2 0.178412 0.00321163 0.239444
1505 4 0.214842 0.998026 0.199399
652 2 0.283967 0.0215579 0.179702
653 4 0.301818 0.0109993 0.193668
25 3 0.322961 0.0574278 0.233706
311 4 0.388492 0.0611089 0.185025
758 4 0.375508 0.0495089 0.194497
759 4 0.345225 0.0610779 0.232574
757 2 0.360366 0.0552934 0.213535
310 2 0.389078 0.0835579 0.174031
2722 2 0.474927 0.0418737 0.168705
2724 4 0.497955 0.0361386 0.176578
512 4 0.0104875 0.149454 0.21322
511 2 0.0299829 0.164835 0.216139
475 2 0.101042 0.140923 0.175529
578 4 0.115508 0.0951373 0.23891
477 4 0.103218 0.152622 0.19752
577 2 0.12401 0.087461 0.216684
579 4 0.132512 0.0797847 0.194459
449 4 0.176054 0.0928458 0.173511
237 4 0.234927 0.128198 0.166095
582 4 0.251048 0.138711 0.171929
691 2 0.218649 0.102197 0.232159
693 4 0.223978 0.108208 0.208482
236 4 0.196692 0.0966914 0.17289
235 2 0.21581 0.112444 0.169492
762 4 0.470905 0.144728 0.237276
521 4 0.48785 0.138801 0.23271
332 4 0.484305 0.136228 0.251258
760 2 0.454891 0.161135 0.247253
513 4 0.0494782 0.180216 0.219059
393 4 0.0644273 0.170941 0.228761
394 2 0.0127894 0.235462 0.222844
391 2 0.0780068 0.175284 0.249302
338 4 0.0795332 0.238937 0.171029
395 4 0.0331622 0.234347 0.208391
279 4 0.221915 0.226996 0.171231
546 4 0.160182 0.210231 0.246175
284 4 0.276644 0.245764 0.171412
283 2 0.296836 0.234837 0.181315
285 4 0.317027 0.22391 0.191219
764 4 0.333243 0.225524 0.180553
646 2 0.0520236 0.314066 0.172848
647 4 0.0699058 0.321566 0.188632
363 4 0.0876724 0.245125 0.187091
749 4 0.096611 0.282925 0.241204
361 2 0.0954882 0.259914 0.205675
371 4 0.163126 0.30235 0.218538
370 2 0.142833 0.288048 0.221509
372 4 0.12254 0.273746 0.22448
362 4 0.103304 0.274703 0.224259
756 4 0.27759 0.307372 0.184552
612 4 0.281705 0.324659 0.192773
610 2 0.271025 0.321416 0.215146
307 2 0.317184 0.277703 0.231878
308 4 0.334438 0.283897 0.214875
611 4 0.260344 0.318173 0.23752
301 2 0.316119 0.331252 0.167117
264 4 0.0199192 0.415056 0.211933
299 4 0.148189 0.365626 0.245242
734 4 0.166829 0.360103 0.243374
303 4 0.311857 0.345868 0.186951
729 4 0.312786 0.360434 0.200859
727 2 0.315846 0.382024 0.213093
728 4 0.318907 0.403615 0.225327
644 4 0.42306 0.378613 0.244227
595 2 0.472134 0.401899 0.184252
597 4 0.452529 0.404831 0.199491
643 2 0.441323 0.388826 0.230541
645 4 0.459587 0.39904 0.216856
262 2 0.999676 0.420955 0.225372
1465 2 0.0205783 0.488076 0.176661
1756 2 0.114403 0.477939 0.246894
231 4 0.462999 0.464117 0.208536
229 2 0.452891 0.48682 0.205787
234 4 0.998221 0.0288208 0.306711
232 2 0.0218514 0.0260355 0.299027
233 4 0.0454815 0.0232503 0.291344
1404 4 0.0600169 0.0126253 0.293875
1402 2 0.071171 0.00666929 0.272305
316 2 0.0732696 0.0482355 0.313694
317 4 0.0628107 0.0289492 0.301701
428 4 0.0641944 0.0111429 0.312171
318 4 0.0837284 0.0675219 0.325686
23 3 0.323284 0.0558768 0.271324
21 1 0.329943 0.0679471 0.25266
22 3 0.352902 0.0693617 0.25252
699 4 0.363738 0.0693128 0.333449
351 4 0.432849 0.0701686 0.269664
479 4 0.456688 0.0337758 0.314905
478 2 0.443014 0.0427741 0.296005
2664 4 0.473823 0.0260819 0.313694
480 4 0.42934 0.0517723 0.277104
1428 4 0.456438 0.0157296 0.319182
258 4 0.449376 0.029049 0.331764
2662 2 0.498001 0.0265224 0.307338
397 2 0.0742844 0.101516 0.332807
398 4 0.0642275 0.12319 0.325442
692 4 0.213321 0.0961852 0.255837
723 4 0.226316 0.0988462 0.270309
721 2 0.233577 0.103205 0.293835
722 4 0.240838 0.107564 0.317361
24 3 0.321112 0.0893869 0.253527
28 3 0.327852 0.146319 0.259593
26 1 0.32606 0.167036 0.26989
403 2 0.256585 0.151259 0.325283
404 4 0.258763 0.127592 0.33305
632 4 0.386694 0.121031 0.256639
350 4 0.399638 0.106542 0.261019
349 2 0.416244 0.0883555 0.265341
631 2 0.366757 0.134964 0.262436
707 4 0.352937 0.154688 0.287925
633 4 0.346821 0.148896 0.268232
706 2 0.356827 0.153929 0.312613
333 4 0.494866 0.0903535 0.268131
331 2 0.489586 0.113291 0.259695
392 4 0.0915863 0.179627 0.269842
388 2 0.12199 0.22218 0.321189
389 4 0.128279 0.198991 0.314269
390 4 0.115701 0.24537 0.328109
545 4 0.186854 0.204435 0.288076
544 2 0.173518 0.207333 0.267126
402 4 0.18843 0.221716 0.299832
400 2 0.182494 0.244484 0.308293
472 2 0.23474 0.209627 0.333581
405 4 0.254408 0.174925 0.317516
473 4 0.251817 0.193856 0.324371
27 3 0.321062 0.182853 0.253953
30 3 0.309445 0.166563 0.285458
29 3 0.346195 0.172642 0.279967
717 4 0.41481 0.222019 0.325075
761 4 0.438877 0.177542 0.25723
419 4 0.446016 0.247149 0.332686
748 2 0.0964424 0.304466 0.253898
750 4 0.0962738 0.326007 0.266593
401 4 0.176559 0.267251 0.316754
676 2 0.185526 0.317439 0.306136
345 4 0.218 0.326805 0.293361
677 4 0.200389 0.320059 0.286201
343 2 0.23298 0.323902 0.273553
678 4 0.170664 0.314819 0.326072
344 4 0.24796 0.320998 0.253745
496 2 0.284138 0.287848 0.280683
497 4 0.272566 0.288089 0.302847
377 4 0.280692 0.269578 0.308985
498 4 0.29571 0.287608 0.25852
309 4 0.29993 0.27151 0.248881
376 2 0.2621 0.265415 0.325177
541 2 0.403862 0.313834 0.328848
420 4 0.410534 0.275067 0.311184
418 2 0.428275 0.261108 0.321935
542 4 0.412991 0.291874 0.321127
365 4 0.0266785 0.361344 0.286265
601 2 0.0568956 0.376046 0.310679
603 4 0.0437866 0.359913 0.296785
602 4 0.0700046 0.39218 0.324573
549 4 0.0748657 0.410652 0.330113
364 2 0.00242184 0.365089 0.291036
300 4 0.107014 0.341979 0.260929
298 2 0.127601 0.353802 0.253086
735 4 0.197763 0.330116 0.268761
733 2 0.182296 0.34511 0.256067
433 2 0.306777 0.378935 0.313142
435 4 0.290987 0.396937 0.305947
434 4 0.322568 0.360933 0.320337
447 4 0.406038 0.387228 0.246377
614 4 0.341139 0.367392 0.320867
613 2 0.357782 0.351659 0.330901
445 2 0.383414 0.392067 0.255858
446 4 0.360789 0.396906 0.26534
2690 4 0.00307848 0.463929 0.295833
2461 2 0.0101429 0.500819 0.316588
1757 4 0.120914 0.455466 0.255712
777 4 0.13608 0.469154 0.294841
775 2 0.131279 0.488672 0.309713
1435 2 0.249793 0.468001 0.327911
1436 4 0.249024 0.481621 0.306957
436 2 0.353888 0.475419 0.322351
437 4 0.370645 0.47781 0.303947
119 3 0.493834 0.455188 0.317081
118 3 0.496328 0.420184 0.331672
399 4 0.0843413 0.0798409 0.340172
732 4 0.0940182 0.0611237 0.339893
730 2 0.114025 0.065057 0.354364
731 4 0.134033 0.0689902 0.368835
606 4 0.148276 0.0801085 0.379974
1701 4 0.305816 0.997262 0.378854
1699 2 0.300526 0.0127434 0.359946
1700 4 0.295235 0.0282248 0.341038
697 2 0.385896 0.065867 0.344509
425 4 0.336721 0.0248013 0.408395
698 4 0.408054 0.0624212 0.35557
426 4 0.378831 0.0240674 0.381434
424 2 0.357776 0.0244344 0.394914
726 4 0.412257 0.08106 0.400112
257 4 0.422322 0.0542483 0.365437
256 2 0.435849 0.0416487 0.3486
2586 4 0.0117417 0.133314 0.389106
2584 2 0.00887921 0.115357 0.371944
458 4 0.0206017 0.1477 0.401861
457 2 0.0421709 0.153123 0.413286
598 2 0.154837 0.1571 0.359043
600 4 0.151921 0.134095 0.349693
604 2 0.171911 0.0865314 0.374943
249 4 0.247741 0.11149 0.337356
605 4 0.195546 0.0929544 0.369912
248 4 0.21181 0.105918 0.371687
247 2 0.229776 0.108704 0.354522
683 4 0.260555 0.0965341 0.376778
682 2 0.276067 0.104364 0.394757
319 2 0.313665 0.14162 0.409926
684 4 0.29158 0.112194 0.412735
320 4 0.291498 0.130811 0.414046
708 4 0.360716 0.15317 0.3373
321 4 0.335831 0.15243 0.405806
725 4 0.406097 0.130006 0.408303
724 2 0.409177 0.105533 0.404207
599 4 0.157754 0.180106 0.368393
686 4 0.150899 0.179703 0.386548
685 2 0.141789 0.191692 0.40651
275 4 0.171984 0.19358 0.368671
474 4 0.217663 0.225398 0.342791
276 4 0.199204 0.230735 0.349194
274 2 0.185594 0.212157 0.358933
715 2 0.402929 0.212975 0.34513
466 2 0.388438 0.186469 0.400538
716 4 0.391049 0.20393 0.365186
467 4 0.397339 0.188848 0.377294
270 4 0.473845 0.204454 0.370824
452 4 0.456365 0.17749 0.38616
451 2 0.448138 0.179282 0.409704
268 2 0.461258 0.224169 0.361989
269 4 0.44867 0.243883 0.353153
305 4 0.491314 0.170449 0.420479
618 4 0.0777347 0.323904 0.407157
616 2 0.0919958 0.311269 0.390966
617 4 0.106257 0.298633 0.374776
374 4 0.125296 0.30484 0.376438
373 2 0.142867 0.305716 0.358671
375 4 0.160438 0.306592 0.340904
509 4 0.234 0.316124 0.381948
508 2 0.247394 0.326305 0.363452
378 4 0.243509 0.261252 0.34137
615 4 0.374426 0.335927 0.340934
347 4 0.0740065 0.3429 0.411825
346 2 0.0495667 0.34751 0.409251
348 4 0.0251269 0.35212 0.406678
510 4 0.260789 0.336486 0.344956
668 4 0.324394 0.388127 0.402501
543 4 0.394734 0.335794 0.33657
753 4 0.483448 0.410506 0.34319
561 4 0.481537 0.392404 0.402146
751 2 0.488804 0.398624 0.364528
752 4 0.49416 0.386742 0.385866
547 2 0.0879388 0.422083 0.348103
407 4 0.11127 0.448385 0.373876
548 4 0.101012 0.433514 0.366092
406 2 0.112762 0.456767 0.397386
408 4 0.114254 0.46515 0.420895
1544 4 0.207191 0.508284 0.406972
1556 4 0.223308 0.498163 0.412925
1437 4 0.250563 0.454381 0.348866
3 3 0.314534 0.467562 0.339602
5 3 0.307269 0.487715 0.370565
1 1 0.320258 0.471192 0.361793
4 3 0.317504 0.451643 0.373985
586 2 0.411989 0.446617 0.415265
438 4 0.337132 0.473028 0.340754
2 3 0.342339 0.477556 0.362833
588 4 0.405842 0.465129 0.399622
593 4 0.420016 0.478372 0.394513
592 2 0.427486 0.4906 0.374023
713 4 0.446498 0.493657 0.338975
714 4 0.486134 0.463175 0.338247
712 2 0.466316 0.478416 0.338611
117 3 0.495544 0.450189 0.354293
369 4 0.0513112 0.00555546 0.417833
367 2 0.0763035 0.00558393 0.418583
718 2 0.0254519 0.00925774 0.451408
720 4 0.00892018 0.00467994 0.469599
719 4 0.0419835 0.0138355 0.433216
368 4 0.101296 0.0056124 0.419333
441 4 0.320007 0.020593 0.418079
962 4 0.30708 0.0313879 0.429812
961 2 0.309988 0.0455515 0.450211
963 4 0.312895 0.0597152 0.47061
432 4 0.311984 0.0708198 0.486852
459 4 0.0637401 0.158545 0.424712
2878 2 0.497787 0.106003 0.428218
2880 4 0.487939 0.123229 0.443432
640 2 0.492558 0.126024 0.480044
515 4 0.432502 0.169607 0.447413
260 4 0.0723461 0.171884 0.438081
471 4 0.0152895 0.182468 0.498644
259 2 0.0924296 0.18638 0.434659
687 4 0.132679 0.203681 0.426471
261 4 0.112513 0.200876 0.431237
1035 4 0.122019 0.217373 0.433292
1033 2 0.121283 0.230174 0.454758
1034 4 0.120547 0.242975 0.476224
489 4 0.34232 0.227584 0.434381
487 2 0.336743 0.251131 0.428087
468 4 0.379537 0.184089 0.423783
514 2 0.409422 0.176425 0.454198
411 4 0.337726 0.211498 0.444956
516 4 0.386343 0.183244 0.460983
409 2 0.358731 0.197967 0.444011
410 4 0.379735 0.184437 0.443066
575 4 0.38948 0.188697 0.480282
453 4 0.439911 0.181074 0.433247
584 4 0.483336 0.244388 0.488886
583 2 0.490603 0.231636 0.468644
585 4 0.49787 0.218883 0.448401
2847 4 0.0226419 0.325539 0.466593
695 4 0.0458106 0.264526 0.491653
694 2 0.0702129 0.265434 0.486278
1258 2 0.126339 0.281929 0.487818
1259 4 0.138531 0.302367 0.495487
9 3 0.134378 0.319518 0.487124
696 4 0.0946151 0.266342 0.480903
1260 4 0.114146 0.261492 0.480149
6 1 0.12993 0.334357 0.469849
7 3 0.114732 0.324736 0.45551
488 4 0.331166 0.274678 0.421793
651 4 0.292079 0.25113 0.491584
266 4 0.387822 0.247093 0.45599
267 4 0.391706 0.286608 0.48639
265 2 0.389764 0.266851 0.47119
2845 2 0.0081022 0.345771 0.464479
326 4 0.0555366 0.362575 0.46131
325 2 0.0765301 0.349027 0.46037
327 4 0.0975236 0.335478 0.459429
711 4 0.140116 0.413653 0.446001
10 3 0.149098 0.338991 0.458458
709 2 0.158252 0.396516 0.447607
8 3 0.120852 0.353938 0.478367
503 4 0.235439 0.379826 0.457721
504 4 0.19054 0.381728 0.435786
502 2 0.21299 0.380777 0.446753
710 4 0.176388 0.379379 0.449212
667 2 0.315869 0.404783 0.419087
773 4 0.297001 0.406364 0.493164
336 4 0.335624 0.378584 0.4176
335 4 0.379757 0.355222 0.414914
334 2 0.35769 0.366903 0.416257
238 2 0.408086 0.387282 0.420388
240 4 0.398513 0.364261 0.418497
239 4 0.417659 0.410303 0.42228
3307 2 0.495926 0.395631 0.483163
3309 4 0.488315 0.401 0.459959
559 2 0.49179 0.394369 0.424865
1381 2 0.00768416 0.498284 0.453434
1383 4 0.00217275 0.474432 0.448348
680 4 0.00802022 0.458303 0.438324
679 2 0.00360219 0.437291 0.425512
569 4 0.115567 0.481017 0.4314
382 2 0.122009 0.439113 0.448936
384 4 0.125238 0.416336 0.458731
383 4 0.118781 0.46189 0.43914
1555 2 0.242659 0.491321 0.427205
772 2 0.305831 0.418432 0.473124
1557 4 0.26201 0.484479 0.441485
636 4 0.276718 0.478347 0.42939
635 4 0.31335 0.448861 0.446402
669 4 0.307345 0.421438 0.435674
774 4 0.314661 0.4305 0.453085
634 2 0.295034 0.463604 0.437896
663 4 0.451907 0.478765 0.44507
587 4 0.418135 0.428104 0.430908
342 4 0.229407 0.0631112 0.517726
1032 4 0.237816 0.0837263 0.574443
340 2 0.219366 0.0410707 0.511515
2430 4 0.220186 0.00393639 0.510879
341 4 0.209326 0.0190302 0.505303
430 2 0.31713 0.0749969 0.510961
843 4 0.338832 0.0859918 0.543627
1217 4 0.404687 0.0738131 0.534656
1216 2 0.415269 0.0591376 0.517398
841 2 0.363448 0.0865646 0.539281
842 4 0.388064 0.0871374 0.534934
1218 4 0.42585 0.0444621 0.50014
1058 4 0.107651 0.104746 0.528486
1057 2 0.11742 0.115334 0.548922
1059 4 0.12719 0.125921 0.569358
1152 4 0.227575 0.0831581 0.514188
1150 2 0.227151 0.089389 0.538399
1151 4 0.226728 0.09562 0.56261
1181 4 0.214302 0.14389 0.552527
1180 2 0.236068 0.144851 0.540261
431 4 0.322276 0.079174 0.53507
1182 4 0.257835 0.145812 0.527994
900 4 0.271681 0.151619 0.513982
641 4 0.482654 0.129995 0.502657
469 2 0.000266758 0.16554 0.509271
1199 4 0.0281477 0.234639 0.57077
1198 2 0.00323125 0.236108 0.569289
878 4 0.0467882 0.236302 0.576901
1244 4 0.0635095 0.24654 0.569384
1272 4 0.0851155 0.19241 0.588093
798 4 0.219382 0.243887 0.576008
857 4 0.21163 0.239123 0.516399
898 2 0.288812 0.169786 0.515276
650 4 0.266791 0.220683 0.522148
899 4 0.305942 0.187953 0.516569
649 2 0.279435 0.235907 0.506866
576 4 0.387646 0.186043 0.530185
574 2 0.388563 0.18737 0.505233
872 4 0.385955 0.246551 0.562887
983 4 0.0369143 0.309096 0.577863
1245 4 0.0378993 0.289488 0.569955
982 2 0.028879 0.332773 0.577693
1243 2 0.0507044 0.268014 0.569669
796 2 0.242788 0.252669 0.575546
858 4 0.18395 0.277642 0.532236
856 2 0.19779 0.258382 0.524317
947 4 0.208287 0.258091 0.580476
797 4 0.266194 0.261451 0.575084
804 4 0.266894 0.33242 0.540971
1237 2 0.322389 0.326317 0.573484
1238 4 0.314274 0.304105 0.581604
792 4 0.295805 0.307032 0.587219
871 2 0.386636 0.271462 0.560847
873 4 0.387318 0.296373 0.558807
813 4 0.388797 0.312167 0.546576
906 4 0.478651 0.2976 0.542739
953 4 0.463311 0.310964 0.546174
904 2 0.493401 0.282646 0.556303
952 2 0.446775 0.321144 0.561926
2456 4 0.502224 0.253336 0.495627
984 4 0.0208436 0.356449 0.577522
3354 4 0.00581664 0.355863 0.563401
993 4 0.0911582 0.374616 0.583625
1190 4 0.226285 0.35881 0.567742
803 4 0.246035 0.364345 0.57332
802 2 0.256464 0.348383 0.557145
930 4 0.318025 0.365291 0.563845
1239 4 0.330505 0.348529 0.565364
811 2 0.390363 0.33712 0.546917
812 4 0.391928 0.362072 0.547257
927 4 0.400907 0.379515 0.550217
929 4 0.356103 0.392098 0.545618
928 2 0.337064 0.378694 0.554731
881 4 0.348577 0.396248 0.520863
926 4 0.440855 0.403866 0.567878
925 2 0.420881 0.391691 0.559048
538 2 0.0810935 0.459006 0.566215
539 4 0.0646472 0.44708 0.580791
540 4 0.0975398 0.470932 0.551638
1160 4 0.125608 0.473048 0.538347
1159 2 0.138739 0.466249 0.558509
1161 4 0.151871 0.45945 0.578671
2244 4 0.104967 0.477239 0.533865
891 4 0.316843 0.421804 0.585122
882 4 0.363943 0.441674 0.506685
880 2 0.35626 0.418961 0.513774
1000 2 0.445075 0.443766 0.577532
1002 4 0.449391 0.421554 0.566894
2114 4 0.999717 0.015356 0.604469
823 2 0.151752 0.0332936 0.644576
825 4 0.143106 0.0564196 0.640623
824 4 0.160398 0.0101677 0.648528
1283 4 0.124796 0.0620052 0.646521
1030 2 0.256518 0.0830533 0.591025
1031 4 0.275219 0.0823804 0.607607
951 4 0.288144 0.0696078 0.600055
949 2 0.296913 0.0463246 0.602537
950 4 0.305683 0.0230414 0.60502
2283 4 0.386959 0.00969444 0.64999
809 4 0.491665 0.0528189 0.606109
808 2 0.480448 0.0578356 0.627885
810 4 0.469231 0.0628523 0.649661
45 3 0.461026 0.0832428 0.648868
3008 4 0.498293 0.0712899 0.599872
938 4 0.0758527 0.126614 0.612999
1082 4 0.0773874 0.0870898 0.659541
1126 2 0.0259935 0.107632 0.59583
1083 4 0.0660081 0.109552 0.616336
1081 2 0.0716977 0.098321 0.637939
1127 4 0.0497265 0.108089 0.603686
1128 4 0.00226052 0.107174 0.587974
937 2 0.0953347 0.129208 0.597542
939 4 0.114817 0.131803 0.582086
1155 4 0.13193 0.12926 0.588938
1153 2 0.148305 0.138978 0.605143
1154 4 0.16468 0.148696 0.621348
3425 4 0.470254 0.0944834 0.665683
3424 2 0.484814 0.114743 0.664032
877 2 0.0567106 0.21545 0.58649
879 4 0.0666331 0.194599 0.596079
1271 4 0.132223 0.175832 0.590687
1270 2 0.108669 0.184121 0.58939
1221 4 0.163479 0.165039 0.633332
1212 4 0.208119 0.192811 0.661546
1219 2 0.181592 0.18143 0.638661
1220 4 0.199706 0.197821 0.64399
1210 2 0.23307 0.19228 0.663073
888 4 0.27151 0.17799 0.656693
886 2 0.29542 0.172541 0.661568
1211 4 0.258021 0.191749 0.6646
1193 4 0.377262 0.204243 0.651362
1192 2 0.356009 0.192939 0.658124
1136 4 0.155188 0.287317 0.604816
1135 2 0.145563 0.310384 0.604151
948 4 0.170932 0.288983 0.59276
946 2 0.18961 0.273537 0.586618
791 4 0.282076 0.258948 0.586889
790 2 0.28894 0.28299 0.587054
807 4 0.291842 0.318404 0.66472
3123 4 0.493279 0.253501 0.662298
954 4 0.430239 0.331323 0.577677
1039 2 0.0670128 0.394264 0.610199
1041 4 0.0514993 0.396794 0.629644
3264 4 0.0373039 0.385957 0.637369
3262 2 0.0367227 0.364775 0.650642
3240 4 0.0194385 0.392933 0.640596
1040 4 0.0825263 0.391734 0.590754
3263 4 0.0361415 0.343593 0.663915
3238 2 0.00633441 0.413667 0.63574
897 4 0.141501 0.35112 0.60672
1137 4 0.135937 0.333451 0.603486
991 2 0.106654 0.359852 0.596551
992 4 0.122149 0.345087 0.609477
895 2 0.163332 0.363219 0.608198
1189 2 0.215859 0.367101 0.588902
1172 4 0.210774 0.395601 0.609419
1191 4 0.205434 0.375391 0.610063
896 4 0.185163 0.375319 0.609676
805 2 0.308758 0.335578 0.658082
806 4 0.325674 0.352753 0.651444
1206 4 0.391957 0.411998 0.642252
1188 4 0.1447 0.469978 0.595123
1186 2 0.161469 0.456073 0.607396
1171 2 0.203888 0.418932 0.615201
1173 4 0.197002 0.442263 0.620983
1187 4 0.178239 0.442167 0.619668
1139 4 0.246801 0.448414 0.646179
889 2 0.327534 0.444026 0.589252
1953 4 0.396539 0.476296 0.589975
1230 4 0.338551 0.437909 0.656896
890 4 0.338226 0.466248 0.593381
1951 2 0.371829 0.479292 0.587603
1204 2 0.39299 0.43649 0.647174
1952 4 0.347119 0.482287 0.585232
1205 4 0.394024 0.460983 0.652096
1001 4 0.440759 0.465978 0.588171
1911 4 0.43354 0.482621 0.591555
1269 4 0.444456 0.488784 0.60497
1267 2 0.450514 0.495252 0.628351
945 4 0.0672676 0.0160413 0.696272
943 2 0.0679153 0.0407767 0.692678
944 4 0.0685631 0.0655122 0.689084
1076 4 0.0780445 0.0778284 0.676773
1282 2 0.128653 0.0799808 0.663467
1147 2 0.238849 0.0524033 0.738005
1148 4 0.243957 0.0679818 0.719126
1226 4 0.236482 0.0750849 0.702242
1092 4 0.340439 0.999757 0.692446
1004 4 0.370852 0.0770405 0.722758
42 3 0.464764 0.0521494 0.669169
41 1 0.456165 0.0734827 0.668862
43 3 0.433168 0.0723425 0.671733
1163 4 0.473485 0.0646819 0.686166
1162 2 0.491507 0.0579065 0.702117
864 4 0.0574672 0.111419 0.725608
1075 2 0.0708081 0.0962872 0.692007
1077 4 0.0635717 0.114746 0.707241
1107 4 0.0746137 0.118807 0.721628
851 4 0.0747482 0.130853 0.705736
850 2 0.0811664 0.151472 0.693133
862 2 0.0412124 0.100239 0.74097
1105 2 0.0899918 0.126542 0.739763
1284 4 0.132509 0.0979564 0.680414
909 4 0.151113 0.117088 0.746134
1257 4 0.250356 0.0852205 0.750671
907 2 0.17275 0.118506 0.733684
908 4 0.194387 0.119924 0.721233
1227 4 0.214187 0.116197 0.719946
1225 2 0.225335 0.0956411 0.711094
829 2 0.324666 0.144876 0.700708
830 4 0.317589 0.162906 0.684896
1003 2 0.361104 0.0996986 0.718663
1005 4 0.351356 0.122357 0.714568
831 4 0.331742 0.126845 0.71652
44 3 0.465711 0.0856673 0.686148
852 4 0.0875846 0.172091 0.680531
1178 4 0.00283481 0.239271 0.708673
1072 2 0.10541 0.227415 0.727346
1074 4 0.106832 0.245621 0.710267
887 4 0.319331 0.167092 0.666444
1194 4 0.334757 0.181635 0.664885
1144 2 0.491758 0.17833 0.726243
1025 4 0.430323 0.183302 0.680952
1262 4 0.467546 0.21222 0.722784
1142 4 0.462119 0.18503 0.740516
1024 2 0.44425 0.188894 0.700951
1026 4 0.458177 0.194486 0.72095
1261 2 0.470162 0.231037 0.73904
1145 4 0.47298 0.194644 0.72878
1177 2 0.0160024 0.254413 0.693755
1179 4 0.0291699 0.269554 0.678837
1209 4 0.117463 0.304097 0.694953
1207 2 0.10685 0.283141 0.703518
1208 4 0.0962361 0.262185 0.712083
821 4 0.137437 0.304179 0.696988
820 2 0.158786 0.314452 0.688999
822 4 0.180136 0.324725 0.681009
1063 2 0.217127 0.305738 0.691529
1064 4 0.200821 0.320582 0.679742
1065 4 0.233433 0.290894 0.703317
1263 4 0.472777 0.249854 0.755296
892 2 0.0173965 0.358761 0.746351
894 4 0.0335244 0.364786 0.728219
1280 4 0.0533692 0.358094 0.72278
1279 2 0.0578264 0.380204 0.711988
816 4 0.0578834 0.349748 0.739364
814 2 0.0810216 0.344457 0.747226
1281 4 0.0622836 0.402314 0.701196
942 4 0.115514 0.354805 0.74986
941 4 0.163732 0.366249 0.743173
940 2 0.139623 0.360527 0.746517
1028 4 0.236249 0.396543 0.738347
1066 2 0.200906 0.380799 0.74237
1068 4 0.225256 0.379805 0.736776
1027 2 0.24158 0.416925 0.724881
1983 4 0.0598335 0.421308 0.711453
1981 2 0.0516381 0.441265 0.724092
1982 4 0.0434427 0.461222 0.736731
2172 4 0.131227 0.500336 0.687769
1140 4 0.245483 0.429173 0.692317
2016 4 0.169454 0.486894 0.730235
1138 2 0.246142 0.438793 0.669248
1029 4 0.24691 0.437308 0.711416
1987 2 0.323931 0.471772 0.731233
1989 4 0.326365 0.471571 0.706349
1988 4 0.321496 0.471972 0.756117
1228 2 0.341126 0.452701 0.67689
1229 4 0.343701 0.467493 0.696884
2991 4 0.0368374 0.0466512 0.799591
2989 2 0.0263881 0.0644778 0.785513
2990 4 0.0159388 0.0823044 0.771434
3083 4 0.00659722 0.0845792 0.753711
2048 4 0.155277 0.0129924 0.76595
2049 4 0.116154 0.0400374 0.7814
1202 4 0.118525 0.0541896 0.767251
2047 2 0.135715 0.0265149 0.773675
1201 2 0.116071 0.0778843 0.774849
1149 4 0.233742 0.0368247 0.756883
817 2 0.324394 0.038951 0.823953
819 4 0.314483 0.0588425 0.835411
1085 4 0.308388 0.0751221 0.827593
818 4 0.334305 0.0190595 0.812496
974 4 0.352785 0.0146224 0.806833
973 2 0.373073 0.00613447 0.818729
1048 2 0.342973 0.999232 0.768331
1050 4 0.353805 0.0126505 0.786436
1113 4 0.41321 0.0498345 0.791036
1111 2 0.435276 0.0583501 0.782929
845 4 0.47747 0.0702457 0.780052
1112 4 0.457343 0.0668657 0.774821
863 4 0.0249575 0.0890591 0.756331
833 4 0.0100257 0.0992317 0.765644
832 2 0.0100923 0.116934 0.783302
834 4 0.0101588 0.134636 0.80096
1125 4 0.0169329 0.149635 0.811136
1123 2 0.0308507 0.154162 0.831408
1106 4 0.10537 0.134277 0.757898
1203 4 0.113618 0.101579 0.782446
911 4 0.0962264 0.115762 0.814445
34 3 0.103157 0.1188 0.770839
31 1 0.108961 0.126034 0.792109
35 3 0.0910453 0.13591 0.802116
32 3 0.115557 0.107876 0.804596
33 3 0.126594 0.141061 0.790828
1255 2 0.251422 0.0978533 0.772222
1256 4 0.252489 0.110486 0.793773
840 4 0.244619 0.0991339 0.807412
838 2 0.237263 0.106183 0.830246
1084 2 0.309287 0.0897988 0.80737
1086 4 0.310187 0.104476 0.787148
47 3 0.410099 0.16238 0.814786
1023 4 0.407547 0.155076 0.832399
846 4 0.486486 0.117658 0.766955
844 2 0.481978 0.0939518 0.773503
1073 4 0.103988 0.209209 0.744426
1130 4 0.138052 0.235871 0.788317
1129 2 0.159106 0.227522 0.777724
1131 4 0.180159 0.219173 0.767131
1277 4 0.18895 0.23508 0.775976
1276 2 0.210796 0.247162 0.777376
978 4 0.251121 0.206657 0.758124
977 4 0.295082 0.219594 0.778144
918 4 0.30451 0.237561 0.78245
976 2 0.273101 0.213126 0.768134
1298 4 0.313902 0.221132 0.779979
1297 2 0.330545 0.205802 0.790616
48 3 0.408522 0.174104 0.779111
1299 4 0.347189 0.190472 0.801253
1042 2 0.386861 0.232147 0.791523
1043 4 0.401994 0.212501 0.794722