ITEM: TIMESTEP
300000
ITEM: NUMBER OF ATOMS
4590
ITEM: BOX BOUNDS pp pp pp
-9.9985700000000008e+00 9.9985700000000008e+00
-9.9985700000000008e+00 9.9985700000000008e+00
-9.9985700000000008e+00 9.9985700000000008e+00
ITEM: ATOMS id type xs ys zs
463 2 0.0332598 0.0631711 0.0139804
464 4 0.0388503 0.0389319 0.016507
1667 4 0.069371 0.0411632 0.0647486
701 4 0.0804552 0.0668834 0.0751541
700 2 0.0994489 0.0768685 0.0879882
534 4 0.214457 0.0604219 0.00767727
490 2 0.271833 0.0690806 0.0648765
492 4 0.258164 0.0726749 0.0442512
296 4 0.36697 0.0677258 0.0432814
295 2 0.355063 0.0556959 0.0616844
297 4 0.343155 0.043666 0.0800874
745 2 0.475712 0.0780051 0.0328212
747 4 0.466204 0.0656378 0.0132808
2975 4 0.475868 0.049141 0.0187747
2974 2 0.482154 0.0262505 0.0109204
2976 4 0.48844 0.00336005 0.00306598
465 4 0.0276692 0.0874104 0.0114537
589 2 0.0140605 0.10892 0.0597045
590 4 0.998744 0.119716 0.0431509
3233 4 0.00141112 0.141468 0.00656431
591 4 0.0293772 0.0981241 0.0762582
422 4 0.131607 0.115002 0.00400833
421 2 0.10977 0.126802 0.000993109
423 4 0.087933 0.138602 0.997978
565 2 0.208846 0.120938 0.0463462
566 4 0.183914 0.120341 0.0481387
567 4 0.233778 0.121536 0.0445536
358 2 0.274611 0.13713 0.0377509
359 4 0.282024 0.143462 0.0147262
360 4 0.267199 0.130798 0.0607756
557 4 0.366435 0.0821699 0.0294433
556 2 0.382888 0.100797 0.0321897
558 4 0.39934 0.119423 0.0349361
746 4 0.485221 0.0903724 0.0523615
553 2 0.0544529 0.224012 0.0215901
555 4 0.0449508 0.205593 0.00760354
554 4 0.063955 0.242431 0.0355766
571 2 0.30468 0.249039 0.0500308
666 4 0.322874 0.188305 0.00122306
572 4 0.32565 0.239581 0.0402336
354 4 0.262632 0.221023 0.0874665
324 4 0.403251 0.225924 0.050026
322 2 0.412377 0.240398 0.0682583
664 2 0.347324 0.188592 0.00644492
665 4 0.371775 0.188879 0.0116668
771 4 0.430855 0.174483 0.05443
770 4 0.478082 0.175312 0.070852
769 2 0.454469 0.174898 0.062641
292 2 0.133769 0.318997 0.0188137
293 4 0.149598 0.302134 0.0283138
507 4 0.161908 0.297048 0.0421801
483 4 0.225324 0.282877 0.0585181
505 2 0.183759 0.290478 0.0524052
506 4 0.20561 0.283908 0.0626302
481 2 0.248604 0.290865 0.0541084
573 4 0.283709 0.258496 0.0598279
357 4 0.263775 0.263384 0.0174341
482 4 0.271883 0.298852 0.0496988
957 4 0.338299 0.330132 0.0167339
1071 4 0.383069 0.270348 0.0436972
1069 2 0.395961 0.277296 0.0234315
956 4 0.387345 0.328534 0.00711001
955 2 0.362822 0.329333 0.0119219
741 4 0.366125 0.322087 0.0893134
1070 4 0.408852 0.284245 0.00316568
671 4 0.448273 0.312559 0.0674854
280 2 0.447605 0.3164 0.0246954
281 4 0.448384 0.307709 0.0481271
323 4 0.421503 0.254872 0.0864905
282 4 0.446825 0.32509 0.00126368
330 4 0.012108 0.392013 0.0150592
328 2 0.0234171 0.414157 0.0124315
550 2 0.0721659 0.420568 0.0501389
294 4 0.11794 0.335861 0.00931349
455 4 0.107194 0.412992 0.0702997
552 4 0.0966462 0.419428 0.0550982
287 4 0.157302 0.384106 0.0414364
288 4 0.200708 0.364313 0.0264398
286 2 0.179005 0.37421 0.0339381
252 4 0.290022 0.388228 0.0515752
250 2 0.28163 0.401604 0.0321883
251 4 0.273238 0.414979 0.0128014
551 4 0.0476857 0.421708 0.0451796
329 4 0.0347261 0.436302 0.00980376
241 2 0.168311 0.491924 0.0750957
242 4 0.159772 0.486611 0.0522037
245 4 0.232181 0.448571 0.0424154
244 2 0.252744 0.448218 0.0281954
246 4 0.273307 0.447865 0.0139753
272 4 0.288658 0.461777 0.0129795
271 2 0.29784 0.484548 0.0177067
626 4 0.260976 0.425601 0.0723244
227 4 0.485325 0.465694 0.0724791
226 2 0.50168 0.478581 0.0586372
563 4 0.45443 0.494434 0.0287695
1666 2 0.0667489 0.0301463 0.0870406
1668 4 0.0641269 0.0191294 0.109333
19 3 0.0499277 0.0351092 0.155446
702 4 0.118443 0.0868537 0.100822
450 4 0.159647 0.0611526 0.127539
1504 2 0.245878 0.998276 0.145839
693 4 0.218384 0.0691147 0.152041
448 2 0.171542 0.0815481 0.135767
1505 4 0.225505 0.0103465 0.153865
691 2 0.233549 0.0659477 0.171667
491 4 0.285503 0.0654862 0.0855019
652 2 0.305692 0.0227874 0.144512
654 4 0.294388 0.0153872 0.165551
653 4 0.316996 0.0301877 0.123472
758 4 0.400804 0.0714859 0.156642
1761 4 0.446623 0.00642131 0.14262
1759 2 0.46616 0.0124089 0.15703
237 4 0.174018 0.158078 0.158155
449 4 0.183438 0.101944 0.143994
235 2 0.179359 0.13748 0.145026
236 4 0.1847 0.116882 0.131897
582 4 0.304609 0.110036 0.141085
580 2 0.282987 0.118865 0.150013
312 4 0.407461 0.102085 0.142975
629 4 0.43952 0.159737 0.130765
310 2 0.429019 0.0993264 0.155338
337 2 0.0818739 0.244608 0.145849
476 4 0.133855 0.173935 0.109598
475 2 0.117475 0.173484 0.128484
477 4 0.101095 0.173033 0.14737
338 4 0.0916086 0.231627 0.164873
737 4 0.179241 0.188672 0.113411
736 2 0.202799 0.187755 0.105084
738 4 0.226358 0.186837 0.0967568
461 4 0.306229 0.231902 0.0884416
284 4 0.278725 0.234703 0.163202
352 2 0.267752 0.23442 0.107948
460 2 0.326896 0.218452 0.0925839
283 2 0.284121 0.210822 0.158129
353 4 0.272871 0.247817 0.12843
278 4 0.2718 0.248359 0.149813
285 4 0.289518 0.18694 0.153057
255 4 0.356283 0.192619 0.0820036
462 4 0.347562 0.205002 0.0967261
254 4 0.401251 0.180233 0.100037
253 2 0.378767 0.186426 0.0910203
630 4 0.414931 0.195633 0.106116
628 2 0.427226 0.177685 0.11844
339 4 0.0721392 0.257588 0.126824
535 2 0.18696 0.328209 0.153897
536 4 0.204262 0.318386 0.138754
277 2 0.254705 0.256233 0.166272
754 2 0.272214 0.288353 0.122083
755 4 0.27276 0.263773 0.11753
756 4 0.271669 0.312932 0.126636
612 4 0.272288 0.323853 0.144077
610 2 0.264298 0.324778 0.167751
622 2 0.376635 0.262312 0.125711
624 4 0.388274 0.257386 0.147285
623 4 0.364995 0.267238 0.104137
670 2 0.436657 0.325906 0.0851511
517 2 0.500413 0.259395 0.0973934
518 4 0.4793 0.24846 0.105129
528 4 0.471064 0.28342 0.160489
672 4 0.42504 0.339253 0.102817
526 2 0.491047 0.269637 0.16648
621 4 0.0280038 0.356849 0.0791757
619 2 0.0205595 0.368064 0.100247
620 4 0.0131152 0.379279 0.121317
647 4 0.0626434 0.344394 0.156314
454 2 0.110824 0.391537 0.0826165
646 2 0.084887 0.349888 0.166325
456 4 0.114455 0.370083 0.0949334
648 4 0.107131 0.355383 0.176336
609 4 0.289186 0.381875 0.0714081
607 2 0.298046 0.40054 0.0854905
387 4 0.327028 0.394977 0.14606
739 2 0.362627 0.345282 0.0979678
740 4 0.359129 0.368478 0.106622
15 3 0.385588 0.364029 0.122934
385 2 0.347246 0.384916 0.135327
386 4 0.367463 0.374855 0.124593
11 1 0.405398 0.360981 0.133746
13 3 0.403922 0.369127 0.155423
12 3 0.410205 0.338501 0.134561
14 3 0.422407 0.37188 0.12233
495 4 0.441443 0.376718 0.133069
493 2 0.44318 0.401369 0.136877
315 4 0.0327465 0.430499 0.0891174
313 2 0.0154056 0.44609 0.09814
625 2 0.246637 0.443914 0.0815022
627 4 0.232298 0.462226 0.09068
524 4 0.308635 0.495491 0.100334
608 4 0.306907 0.419204 0.0995728
637 2 0.256595 0.500719 0.143389
523 2 0.329938 0.487398 0.110623
638 4 0.270561 0.488739 0.160319
525 4 0.351241 0.479304 0.120912
658 2 0.374654 0.448994 0.157743
659 4 0.352081 0.44463 0.147915
660 4 0.397227 0.453359 0.16757
494 4 0.444916 0.42602 0.140685
20 3 0.0666497 0.0612387 0.176783
2480 4 0.0171943 0.0510393 0.176698
16 1 0.0484117 0.0477369 0.174853
17 3 0.0294499 0.0607186 0.173816
18 3 0.0469271 0.0337507 0.193308
1422 4 0.0109356 0.0330358 0.185426
1420 2 0.014117 0.0084124 0.188384
673 2 0.131273 0.0466217 0.242656
674 4 0.146681 0.0613174 0.229548
689 4 0.202477 0.0106626 0.211652
688 2 0.197539 0.0113659 0.236153
692 4 0.248714 0.0627808 0.191293
21 1 0.367118 0.0469261 0.220292
23 3 0.363324 0.0270213 0.231597
24 3 0.353644 0.0636825 0.229015
25 3 0.362762 0.0442127 0.198104
759 4 0.383305 0.0543907 0.200257
22 3 0.389156 0.0529362 0.223007
757 2 0.392055 0.0629383 0.17845
1760 4 0.485697 0.0183964 0.17144
742 2 0.466 0.0606468 0.227395
744 4 0.47277 0.0366672 0.225314
379 2 0.996773 0.163236 0.176891
579 4 0.0902316 0.0789338 0.235524
381 4 0.0188032 0.160916 0.188486
511 2 0.0353003 0.164605 0.228375
512 4 0.0214802 0.163 0.2076
513 4 0.0491204 0.16621 0.24915
577 2 0.107669 0.091859 0.223112
578 4 0.125107 0.104784 0.210701
723 4 0.195138 0.0986052 0.222109
721 2 0.196061 0.102558 0.24678
581 4 0.261365 0.127695 0.15894
30 3 0.30919 0.131064 0.239039
26 1 0.298775 0.112371 0.246834
28 3 0.280554 0.107278 0.233402
333 4 0.41911 0.14865 0.238739
743 4 0.45923 0.0846263 0.229476
311 4 0.450576 0.0965679 0.167702
331 2 0.443097 0.154903 0.242015
395 4 0.0134338 0.240834 0.207121
394 2 0.0212506 0.245646 0.230379
363 4 0.0836743 0.241465 0.180943
371 4 0.170598 0.236236 0.219402
545 4 0.171243 0.205225 0.257554
764 4 0.36587 0.230095 0.206631
763 2 0.375086 0.212099 0.191921
765 4 0.384301 0.194103 0.17721
520 2 0.475564 0.218503 0.227522
521 4 0.452772 0.216487 0.21744
522 4 0.498357 0.220519 0.237603
332 4 0.467083 0.161156 0.24529
537 4 0.169658 0.338032 0.16904
748 2 0.0977234 0.288709 0.243419
370 2 0.147667 0.245619 0.216039
361 2 0.0971147 0.255953 0.19626
362 4 0.110555 0.270441 0.211578
372 4 0.124736 0.255003 0.212677
300 4 0.109808 0.339047 0.237249
749 4 0.108519 0.287176 0.220918
279 4 0.237609 0.264107 0.182732
345 4 0.233044 0.301691 0.241024
343 2 0.251983 0.28584 0.237118
344 4 0.270921 0.269989 0.233212
307 2 0.313345 0.286203 0.222653
309 4 0.311079 0.311092 0.221911
308 4 0.31561 0.261313 0.223396
263 4 0.0445962 0.416455 0.244221
417 4 0.150463 0.412309 0.173931
611 4 0.256307 0.325702 0.191426
303 4 0.303613 0.361006 0.177796
301 2 0.314742 0.383175 0.180937
302 4 0.32587 0.405344 0.184078
729 4 0.340781 0.372747 0.23424
595 2 0.489718 0.389255 0.16392
597 4 0.467197 0.378666 0.166341
643 2 0.44518 0.365639 0.203361
644 4 0.436005 0.358046 0.225346
645 4 0.454355 0.373231 0.181375
447 4 0.442302 0.365871 0.24359
262 2 0.0264155 0.426872 0.230577
264 4 0.00823493 0.437288 0.216934
415 2 0.164754 0.419099 0.193292
290 4 0.238258 0.441201 0.213232
416 4 0.179044 0.42589 0.212653
291 4 0.195845 0.41489 0.210143
289 2 0.217051 0.428046 0.211687
768 4 0.229362 0.457997 0.204057
766 2 0.247796 0.468052 0.190483
767 4 0.266231 0.478108 0.17691
1574 4 0.309757 0.480107 0.216601
229 2 0.396183 0.495475 0.247576
231 4 0.37634 0.480331 0.249031
232 2 0.0223704 0.0593095 0.286983
233 4 0.0437576 0.0515041 0.276646
1402 2 0.078492 0.0298159 0.260803
234 4 0.000983284 0.0671149 0.297319
1404 4 0.0580811 0.0370526 0.273301
675 4 0.115865 0.0319261 0.255764
1403 4 0.0989029 0.0225792 0.248304
690 4 0.192602 0.0120691 0.260654
248 4 0.234825 0.0769568 0.305712
1699 2 0.251618 0.0315685 0.32355
1700 4 0.275012 0.0400692 0.321181
478 2 0.474392 0.0452508 0.32152
480 4 0.474318 0.0574994 0.299723
351 4 0.459875 0.0523748 0.287336
349 2 0.445998 0.0716039 0.279408
530 4 0.0067544 0.137824 0.28248
731 4 0.140283 0.0796354 0.313169
730 2 0.129215 0.0959142 0.328586
722 4 0.196984 0.106511 0.271452
249 4 0.205688 0.113285 0.28749
247 2 0.220257 0.0951208 0.296601
403 2 0.21942 0.157584 0.292795
404 4 0.21197 0.134003 0.289105
27 3 0.313525 0.0947258 0.246362
29 3 0.291799 0.115733 0.268707
632 4 0.348722 0.116222 0.264582
631 2 0.359048 0.1241 0.285947
633 4 0.369374 0.131977 0.307313
350 4 0.432121 0.0908329 0.271481
393 4 0.079004 0.213426 0.260296
546 4 0.160433 0.17906 0.298775
392 4 0.121528 0.192694 0.276499
391 2 0.100266 0.20306 0.268398
544 2 0.165838 0.192142 0.278165
405 4 0.22687 0.181165 0.296485
706 2 0.335124 0.172176 0.324661
707 4 0.351159 0.171378 0.305493
420 4 0.403415 0.225909 0.309418
762 4 0.475325 0.172066 0.260946
418 2 0.420287 0.219612 0.326764
761 4 0.497214 0.193366 0.300542
760 2 0.48627 0.182716 0.280744
750 4 0.0869283 0.290242 0.265919
396 4 0.0290674 0.250458 0.253636
444 4 0.00177167 0.258205 0.312919
443 4 0.017376 0.261993 0.26556
442 2 0.00957381 0.260099 0.289239
366 4 0.00945614 0.340095 0.279388
400 2 0.190035 0.274814 0.283831
402 4 0.209073 0.274514 0.300038
401 4 0.170998 0.275113 0.267624
496 2 0.309517 0.298596 0.299414
497 4 0.323545 0.294174 0.319633
498 4 0.295488 0.303017 0.279194
543 4 0.39306 0.310367 0.311357
541 2 0.41696 0.303312 0.313411
542 4 0.440859 0.296258 0.315464
364 2 0.0171887 0.352724 0.299535
365 4 0.0249212 0.365353 0.319682
602 4 0.0609884 0.403676 0.298722
601 2 0.067049 0.379455 0.297392
603 4 0.0731096 0.355233 0.296062
298 2 0.128157 0.346515 0.252504
299 4 0.146506 0.353982 0.26776
734 4 0.159696 0.369579 0.263386
733 2 0.167334 0.370432 0.287179
677 4 0.178011 0.360837 0.327551
735 4 0.174971 0.371284 0.310973
727 2 0.348301 0.378505 0.25738
434 4 0.335799 0.363883 0.338507
728 4 0.355821 0.384263 0.280521
445 2 0.462711 0.372396 0.256478
446 4 0.483119 0.37892 0.269365
1757 4 0.0534636 0.482511 0.264631
549 4 0.0603377 0.416053 0.314296
777 4 0.100737 0.463262 0.288896
775 2 0.0899359 0.474142 0.308648
776 4 0.0791346 0.485022 0.328399
414 4 0.180656 0.483882 0.261709
412 2 0.180939 0.473312 0.284367
413 4 0.181221 0.462742 0.307025
436 2 0.313671 0.449083 0.27704
437 4 0.317178 0.447059 0.252367
438 4 0.310164 0.451108 0.301714
594 4 0.389474 0.464697 0.331842
119 3 0.488235 0.44059 0.314016
713 4 0.440263 0.476411 0.292111
712 2 0.460256 0.461552 0.29427
714 4 0.48025 0.446693 0.296428
316 2 0.0330637 0.0790716 0.352311
317 4 0.0317135 0.0589134 0.367042
428 4 0.0685888 0.034414 0.381176
429 4 0.113956 0.0330178 0.360186
427 2 0.0912724 0.0337159 0.370681
606 4 0.164002 0.0579015 0.332647
1701 4 0.228223 0.0230679 0.325919
604 2 0.187377 0.0628225 0.340036
605 4 0.210751 0.0677436 0.347425
440 4 0.290741 0.990224 0.411779
683 4 0.293178 0.0623501 0.372524
682 2 0.292422 0.0824943 0.387316
699 4 0.3464 0.014868 0.333382
257 4 0.397324 0.0527988 0.341196
698 4 0.377202 0.0525449 0.344888
697 2 0.361801 0.0337065 0.339135
256 2 0.420018 0.0628416 0.344243
479 4 0.474467 0.0330022 0.343318
426 4 0.416791 0.0371426 0.406009
398 4 0.0620973 0.145153 0.34146
318 4 0.0344138 0.0992298 0.33758
397 2 0.0802553 0.127965 0.341585
732 4 0.118148 0.112193 0.344003
399 4 0.0984133 0.110776 0.34171
600 4 0.191661 0.136058 0.340083
598 2 0.184363 0.152868 0.357092
686 4 0.180208 0.137384 0.422086
708 4 0.319088 0.172974 0.343829
684 4 0.291666 0.102638 0.402109
320 4 0.276289 0.10699 0.415579
258 4 0.442712 0.0728845 0.347291
451 2 0.478703 0.144849 0.387755
453 4 0.45377 0.146297 0.388937
514 2 0.424548 0.166659 0.408752
515 4 0.442847 0.162053 0.392348
2654 4 0.0118437 0.21816 0.349023
389 4 0.108639 0.247183 0.374375
599 4 0.177065 0.169679 0.374102
474 4 0.23792 0.216018 0.380875
274 2 0.198735 0.234739 0.382425
276 4 0.219883 0.222298 0.377614
275 4 0.177586 0.247179 0.387237
472 2 0.251594 0.19693 0.372282
473 4 0.265269 0.177843 0.36369
488 4 0.271403 0.200829 0.401718
487 2 0.273416 0.220025 0.417612
489 4 0.275429 0.239221 0.433507
715 2 0.37536 0.211277 0.356555
716 4 0.373108 0.196879 0.376872
717 4 0.377612 0.225676 0.336238
467 4 0.370534 0.175957 0.405964
419 4 0.437159 0.213315 0.344109
618 4 0.0491516 0.328768 0.367455
347 4 0.0394854 0.310297 0.369278
346 2 0.0359589 0.299475 0.39154
390 4 0.103765 0.273276 0.331995
388 2 0.106202 0.26023 0.353185
375 4 0.158689 0.33825 0.38498
373 2 0.179585 0.327084 0.392968
510 4 0.228199 0.312893 0.321012
374 4 0.200482 0.315917 0.400957
376 2 0.285748 0.293922 0.361172
377 4 0.301472 0.278717 0.349058
378 4 0.270025 0.309127 0.373286
615 4 0.384105 0.314419 0.330202
266 4 0.34091 0.285777 0.416471
269 4 0.489649 0.268112 0.402436
268 2 0.465451 0.261939 0.40367
270 4 0.441253 0.255766 0.404904
616 2 0.0680044 0.340794 0.356269
678 4 0.151743 0.347244 0.367874
407 4 0.0888512 0.418252 0.377352
617 4 0.0868572 0.35282 0.345083
548 4 0.0765752 0.423709 0.36097
508 2 0.228668 0.33036 0.338897
676 2 0.164877 0.35404 0.347712
509 4 0.229138 0.347826 0.356782
502 2 0.245686 0.419416 0.406751
433 2 0.315249 0.376513 0.331922
435 4 0.294699 0.389143 0.325338
503 4 0.26714 0.423499 0.394577
613 2 0.365867 0.331504 0.330991
614 4 0.347628 0.34859 0.331781
336 4 0.345015 0.365039 0.388455
561 4 0.461533 0.40133 0.412708
752 4 0.457562 0.405508 0.393556
559 2 0.484794 0.395266 0.405828
2463 4 0.00738388 0.469493 0.352488
408 4 0.06308 0.41682 0.420183
406 2 0.0759656 0.417536 0.398768
547 2 0.0684565 0.419881 0.337633
499 2 0.0976013 0.482353 0.377074
500 4 0.103611 0.467997 0.357504
568 2 0.161249 0.490509 0.41789
5 3 0.298645 0.485534 0.357039
1 1 0.319333 0.480178 0.36491
2 3 0.332932 0.498691 0.363688
4 3 0.317868 0.473395 0.387051
3 3 0.328561 0.463228 0.352027
592 2 0.402948 0.484139 0.339943
751 2 0.446767 0.419123 0.375577
753 4 0.435972 0.432739 0.357598
2237 4 0.0503303 0.0185158 0.491852
718 2 0.0547688 0.0552049 0.486966
720 4 0.0613844 0.0316449 0.481834
719 4 0.0481532 0.078765 0.492098
367 2 0.120271 0.0280215 0.440807
369 4 0.136749 0.0411498 0.454272
368 4 0.103793 0.0148933 0.427342
341 4 0.204975 0.0341402 0.493615
2430 4 0.206679 0.0185563 0.506139
1181 4 0.259028 0.0625344 0.475012
441 4 0.274827 0.0304508 0.436863
439 2 0.282784 0.0103373 0.424321
962 4 0.279672 0.0169204 0.488303
424 2 0.395373 0.0324069 0.41801
425 4 0.373955 0.0276712 0.430011
2878 2 0.496701 0.0910123 0.460062
457 2 0.0112558 0.163389 0.427933
458 4 0.0238101 0.142013 0.424669
471 4 0.0174999 0.1633 0.494033
685 2 0.163823 0.153814 0.431401
687 4 0.147437 0.170243 0.440716
1182 4 0.250505 0.111446 0.480989
726 4 0.321891 0.0972534 0.451883
1180 2 0.254766 0.0869902 0.478001
321 4 0.276384 0.155974 0.425643
319 2 0.276337 0.131482 0.420611
724 2 0.346376 0.0988827 0.447089
725 4 0.370862 0.100512 0.442296
574 2 0.40705 0.160933 0.460902
516 4 0.406248 0.171264 0.425156
576 4 0.39804 0.147651 0.480075
642 4 0.467477 0.110309 0.473358
2880 4 0.488051 0.111402 0.471664
640 2 0.463569 0.126946 0.491609
459 4 0.998702 0.184764 0.431198
469 2 0.0306068 0.183453 0.487158
470 4 0.0437137 0.203605 0.480284
260 4 0.0958497 0.196867 0.422105
261 4 0.134048 0.179862 0.449535
259 2 0.114949 0.188364 0.43582
1035 4 0.122015 0.182612 0.465934
1033 2 0.125132 0.178974 0.490474
695 4 0.103186 0.231548 0.47059
694 2 0.109337 0.253138 0.4816
411 4 0.300792 0.222609 0.471906
409 2 0.318242 0.208114 0.46139
410 4 0.335692 0.193618 0.450875
468 4 0.350955 0.18077 0.451727
575 4 0.416061 0.174214 0.44173
466 2 0.360744 0.178364 0.428845
304 2 0.486243 0.204627 0.433079
305 4 0.462004 0.20213 0.438683
348 4 0.0324324 0.288653 0.413803
326 4 0.0801309 0.321762 0.462635
696 4 0.115488 0.274728 0.49261
10 3 0.157425 0.32103 0.484489
1260 4 0.135568 0.280052 0.487611
651 4 0.243985 0.284844 0.467745
649 2 0.257322 0.302992 0.456885
650 4 0.27066 0.32114 0.446026
267 4 0.363818 0.275992 0.459833
265 2 0.352364 0.280884 0.438152
583 2 0.472781 0.281757 0.469516
584 4 0.495863 0.274324 0.463424
585 4 0.449698 0.289191 0.475608
681 4 0.0263361 0.412062 0.444679
327 4 0.122307 0.347811 0.456055
325 2 0.101219 0.334786 0.459345
6 1 0.14916 0.341806 0.488809
7 3 0.137358 0.349222 0.47051
8 3 0.166586 0.35655 0.492974
711 4 0.162503 0.387569 0.454574
504 4 0.224232 0.415333 0.418926
709 2 0.187189 0.387511 0.450605
710 4 0.211876 0.387452 0.446636
772 2 0.260151 0.407656 0.491446
334 2 0.34803 0.366286 0.413245
238 2 0.379371 0.377583 0.460741
240 4 0.369673 0.375113 0.437827
335 4 0.351044 0.367534 0.438035
239 4 0.389069 0.380054 0.483654
680 4 0.047824 0.454382 0.42893
1381 2 0.0338176 0.49245 0.43676
1383 4 0.0467689 0.474754 0.424748
679 2 0.03708 0.433222 0.436805
383 4 0.0727205 0.431134 0.450428
539 4 0.0828661 0.463246 0.487515
384 4 0.111333 0.414469 0.477485
569 4 0.153197 0.467171 0.421855
382 2 0.0920269 0.422801 0.463956
538 2 0.0990445 0.478816 0.498515
634 2 0.250639 0.446963 0.453421
636 4 0.248175 0.454926 0.429848
774 4 0.267851 0.424702 0.474853
1401 4 0.336481 0.490912 0.455174
669 4 0.286129 0.432034 0.466063
667 2 0.303961 0.434983 0.448786
668 4 0.321793 0.437932 0.431509
635 4 0.253102 0.439001 0.476995
588 4 0.393872 0.43393 0.429333
661 2 0.459153 0.454587 0.495631
587 4 0.441309 0.423868 0.441546
586 2 0.41759 0.428899 0.43544
663 4 0.44294 0.44213 0.481239
1332 4 0.481258 0.497978 0.507529
1126 2 0.0283376 0.0525292 0.552586
1127 4 0.0265081 0.0371762 0.532936
1128 4 0.0301672 0.0678823 0.572236
1031 4 0.212333 0.0691462 0.572434
342 4 0.19247 0.0810478 0.505616
1030 2 0.225425 0.0870004 0.560815
340 2 0.198722 0.057594 0.499615
961 2 0.286344 0.0404966 0.493285
963 4 0.293016 0.0640729 0.498267
432 4 0.302971 0.0665371 0.515353
430 2 0.32667 0.0742386 0.517417
951 4 0.268883 0.00935642 0.579122
1217 4 0.396236 0.0385127 0.551824
1216 2 0.402204 0.032009 0.575217
841 2 0.384464 0.0672768 0.534146
842 4 0.40222 0.0497981 0.536244
1062 4 0.499394 0.0022998 0.542101
938 4 0.091228 0.1344 0.567317
937 2 0.103711 0.116649 0.554897
939 4 0.116195 0.0988985 0.542477
1152 4 0.186498 0.0953453 0.517993
1032 4 0.238517 0.104855 0.549195
1151 4 0.189326 0.138646 0.542847
1150 2 0.187912 0.116996 0.53042
899 4 0.331828 0.142731 0.540011
898 2 0.335656 0.166248 0.532431
843 4 0.366709 0.0847555 0.532048
431 4 0.350368 0.0819401 0.519481
641 4 0.459661 0.143584 0.50986
877 2 0.0577525 0.218297 0.575543
878 4 0.0333151 0.21304 0.574944
1199 4 0.0201469 0.200011 0.566396
879 4 0.0821898 0.223554 0.576142
1034 4 0.128249 0.175336 0.515015
856 2 0.220047 0.227519 0.534362
858 4 0.211139 0.207311 0.546086
857 4 0.228955 0.247727 0.522639
900 4 0.339484 0.189766 0.52485
872 4 0.404733 0.250203 0.522429
906 4 0.443663 0.245971 0.580949
983 4 0.0638463 0.318833 0.567784
982 2 0.0438182 0.3281 0.579539
1244 4 0.0643021 0.265576 0.588966
1258 2 0.147393 0.282099 0.509546
1259 4 0.159219 0.284145 0.531481
813 4 0.328563 0.305973 0.545139
811 2 0.337064 0.314658 0.523287
871 2 0.385184 0.265789 0.522748
873 4 0.365635 0.281375 0.523068
812 4 0.345565 0.323342 0.501435
9 3 0.134912 0.341012 0.507106
1136 4 0.097697 0.348624 0.575097
1189 2 0.221783 0.367428 0.573267
773 4 0.252451 0.390611 0.508039
1190 4 0.226382 0.354393 0.552432
803 4 0.242339 0.361148 0.544094
802 2 0.263875 0.354877 0.533045
804 4 0.285411 0.348605 0.521997
928 2 0.359956 0.372326 0.572725
929 4 0.367324 0.384289 0.552042
925 2 0.455785 0.370702 0.542393
927 4 0.462643 0.36786 0.566269
926 4 0.448927 0.373544 0.518517
540 4 0.115223 0.494386 0.509516
1161 4 0.178686 0.471211 0.544111
1159 2 0.175344 0.461536 0.566923
1171 2 0.231805 0.437871 0.559355
1173 4 0.2239 0.458535 0.547705
1160 4 0.172002 0.45186 0.589735
1172 4 0.23971 0.417208 0.571004
882 4 0.334395 0.444659 0.518311
880 2 0.3493 0.463254 0.510744
881 4 0.364204 0.48185 0.503178
1952 4 0.355478 0.472026 0.578908
1002 4 0.403923 0.447703 0.580166
1951 2 0.348938 0.496131 0.580071
1000 2 0.427704 0.44335 0.573785
1001 4 0.451484 0.438996 0.567405
662 4 0.475365 0.467045 0.510024
1185 4 0.988955 0.0320478 0.632428
1058 4 0.148031 0.0648359 0.581463
1057 2 0.141511 0.0881341 0.587776
825 4 0.138443 0.0250834 0.66698
823 2 0.150988 0.0070394 0.655054
949 2 0.282159 0.0125888 0.600063
950 4 0.295434 0.0158212 0.621003
1218 4 0.408173 0.0255053 0.598611
2283 4 0.407003 0.000584878 0.654616
809 4 0.460205 0.0772452 0.615018
808 2 0.461185 0.0812435 0.639681
1083 4 0.0312111 0.0968796 0.604391
1082 4 0.0501312 0.0810395 0.647886
1081 2 0.0406711 0.0889596 0.626138
1059 4 0.134991 0.111432 0.594089
1153 2 0.15837 0.142144 0.593601
1155 4 0.148336 0.122993 0.606161
909 4 0.146088 0.159294 0.662426
1154 4 0.168403 0.161294 0.58104
1284 4 0.178484 0.0803766 0.64081
1283 4 0.196868 0.112097 0.606802
1282 2 0.187676 0.096237 0.623806
810 4 0.462165 0.0852419 0.664343
1272 4 0.0923724 0.211172 0.588391
1270 2 0.116847 0.216165 0.5895
1271 4 0.141322 0.221158 0.590608
1221 4 0.187376 0.171141 0.586528
797 4 0.239585 0.23282 0.586595
1210 2 0.236526 0.171632 0.652399
1212 4 0.222406 0.168931 0.631941
1219 2 0.203051 0.179039 0.604334
1220 4 0.218726 0.186938 0.622141
796 2 0.230537 0.243363 0.607384
798 4 0.22149 0.253906 0.628172
791 4 0.292629 0.236485 0.601004
1193 4 0.352221 0.222329 0.651801
1192 2 0.33803 0.207343 0.665916
904 2 0.466274 0.241182 0.590488
1024 2 0.442796 0.199995 0.670729
1025 4 0.424739 0.203071 0.65371
905 4 0.488884 0.236392 0.600028
1243 2 0.0468755 0.269405 0.606482
1245 4 0.0294489 0.273234 0.623999
984 4 0.0237901 0.337366 0.591295
947 4 0.205683 0.256412 0.616549
946 2 0.187872 0.273677 0.619688
948 4 0.17006 0.290942 0.622828
792 4 0.302562 0.283853 0.588422
790 2 0.297596 0.260169 0.594713
1238 4 0.302557 0.301568 0.596279
1237 2 0.320793 0.312774 0.609204
1239 4 0.339029 0.323981 0.622129
1064 4 0.258072 0.287345 0.663913
954 4 0.427309 0.274889 0.596227
952 2 0.438975 0.296396 0.591076
953 4 0.450642 0.317903 0.585925
1040 4 0.0678067 0.39902 0.623603
1039 2 0.0428238 0.400006 0.623355
1041 4 0.017841 0.400993 0.623106
3264 4 0.0157729 0.388622 0.638015
1137 4 0.132977 0.369466 0.603761
897 4 0.151564 0.374333 0.59645
1135 2 0.115337 0.359045 0.589429
991 2 0.107377 0.41089 0.626334
993 4 0.0850198 0.401112 0.631788
992 4 0.129733 0.420668 0.620881
1191 4 0.217184 0.380463 0.594103
896 4 0.199747 0.387535 0.59864
895 2 0.175656 0.380934 0.597545
806 4 0.327769 0.34851 0.661483
930 4 0.352588 0.360362 0.593407
1204 2 0.407635 0.392601 0.643411
1206 4 0.391488 0.410668 0.649576
1205 4 0.423783 0.374534 0.637246
2172 4 0.0968965 0.498931 0.651825
1187 4 0.206353 0.467343 0.591668
1186 2 0.212243 0.486239 0.606947
889 2 0.32188 0.465205 0.621573
891 4 0.30754 0.485543 0.619142
890 4 0.33622 0.444867 0.624004
1269 4 0.447703 0.456727 0.645473
1267 2 0.464398 0.463448 0.662831
2991 4 0.00440669 0.0593649 0.718162
944 4 0.0526515 0.066531 0.679275
943 2 0.0487029 0.0444543 0.690329
945 4 0.0447542 0.0223776 0.701384
1076 4 0.0505439 0.0828412 0.667579
1147 2 0.204006 0.0658315 0.721491
1149 4 0.204363 0.0434265 0.732585
1005 4 0.322179 0.0792261 0.669622
1048 2 0.317271 0.00356376 0.7442
1003 2 0.346772 0.0835495 0.670912
1163 4 0.466618 0.0400446 0.669089
45 3 0.448261 0.073476 0.671652
1162 2 0.488706 0.0443954 0.679968
42 3 0.4165 0.0696478 0.690874
2320 2 0.487451 0.999065 0.733879
2322 4 0.487594 0.0194365 0.748375
862 2 0.0470604 0.122843 0.737097
864 4 0.0501354 0.125195 0.712395
1075 2 0.0512161 0.104594 0.679889
1077 4 0.0518884 0.126347 0.692199
907 2 0.146816 0.152255 0.686408
908 4 0.147544 0.145217 0.710389
1227 4 0.162277 0.132566 0.710804
1148 4 0.203648 0.0882366 0.710398
1225 2 0.177702 0.114494 0.718592
1226 4 0.193128 0.0964225 0.726379
829 2 0.330348 0.16023 0.725249
831 4 0.33831 0.146663 0.744683
1004 4 0.371365 0.0878729 0.672202
43 3 0.428198 0.103955 0.680934
41 1 0.435069 0.0828438 0.687679
1142 4 0.438406 0.152484 0.725351
44 3 0.446748 0.0843273 0.707675
3425 4 0.495257 0.164355 0.685166
1215 4 0.00866037 0.224274 0.725799
851 4 0.064989 0.182098 0.7177
852 4 0.0259672 0.204185 0.69556
850 2 0.0454781 0.193142 0.70663
1107 4 0.0642175 0.1691 0.732306
1178 4 0.019113 0.24016 0.720422
1213 2 0.0156921 0.214426 0.747679
1207 2 0.122231 0.242485 0.677988
1208 4 0.115681 0.225873 0.695489
1130 4 0.164258 0.186659 0.758813
1129 2 0.181868 0.202602 0.751011
1131 4 0.199479 0.218546 0.74321
1211 4 0.250646 0.174332 0.672856
830 4 0.322385 0.173798 0.705814
886 2 0.289241 0.184784 0.681985
888 4 0.266543 0.187044 0.671745
887 4 0.311939 0.182524 0.692225
976 2 0.29527 0.190731 0.755692
978 4 0.281278 0.170018 0.756334
1194 4 0.323839 0.192358 0.68003
1143 4 0.399727 0.183361 0.732517
1262 4 0.418856 0.247207 0.739118
1141 2 0.419067 0.167922 0.728934
1026 4 0.460854 0.19692 0.687747
1261 2 0.438452 0.231733 0.737803
1263 4 0.458048 0.216259 0.736488
1177 2 0.0342899 0.259854 0.717781
1179 4 0.0494669 0.279548 0.71514
1209 4 0.128781 0.259098 0.660487
821 4 0.160149 0.275291 0.697299
820 2 0.171364 0.279246 0.719293
1065 4 0.228251 0.264031 0.696591
1063 2 0.243161 0.275688 0.680252
822 4 0.18258 0.283202 0.741287
807 4 0.327746 0.328455 0.707292
3123 4 0.475432 0.266232 0.668637
892 2 0.0502948 0.36994 0.702698
893 4 0.0369897 0.348813 0.701364
894 4 0.0635999 0.391068 0.704032
3274 2 0.998864 0.39715 0.736853
940 2 0.132779 0.384874 0.742043
941 4 0.156342 0.386843 0.733914
942 4 0.109216 0.382905 0.750172
1067 4 0.173729 0.385143 0.742764
1028 4 0.211103 0.400609 0.685371
1066 2 0.187927 0.390358 0.722854
1068 4 0.202125 0.395574 0.702945
1027 2 0.235396 0.395845 0.681855
1029 4 0.259688 0.391081 0.67834
805 2 0.327757 0.338483 0.684388
1019 4 0.383639 0.363307 0.747235
1981 2 0.0267658 0.478986 0.732778
1281 4 0.0413113 0.446896 0.725327
1280 4 0.069091 0.411452 0.703585
1279 2 0.0552011 0.429174 0.714456
1983 4 0.0229495 0.455829 0.724153
1176 4 0.210575 0.507307 0.73025
1174 2 0.224791 0.505312 0.709778
1175 4 0.239008 0.503316 0.689306
1988 4 0.317306 0.486433 0.751889
1139 4 0.259657 0.426496 0.739649
1138 2 0.283636 0.428008 0.732728
1140 4 0.307615 0.429521 0.725807
1987 2 0.331374 0.490228 0.73157
1228 2 0.360494 0.458561 0.694545
1229 4 0.348735 0.474771 0.709517
1230 4 0.372253 0.442352 0.679573
1100 4 0.406252 0.444912 0.698852
1989 4 0.345442 0.494024 0.711251
1268 4 0.481093 0.47017 0.680188
1099 2 0.428861 0.442367 0.709221
1101 4 0.45147 0.439822 0.719591
1250 4 0.478932 0.505659 0.749394
1294 2 0.999808 0.0218552 0.809788
911 4 0.0678063 0.0734675 0.813243
1296 4 0.00511512 0.0244806 0.834081
1295 4 0.994502 0.0192297 0.785496
1203 4 0.132128 0.0791132 0.780145
1201 2 0.123667 0.0601838 0.766171
1202 4 0.115205 0.0412545 0.752198
2049 4 0.113797 0.0239559 0.764503
1255 2 0.276778 0.0712794 0.785707
1256 4 0.287085 0.0785136 0.807307
1257 4 0.26647 0.0640451 0.764106
975 4 0.369777 0.0227799 0.832411
1113 4 0.406681 0.0224059 0.78449
1050 4 0.328952 0.0218515 0.756622
1112 4 0.439522 0.0590631 0.793348
846 4 0.49332 0.064445 0.757159
844 2 0.477381 0.0618776 0.776251
1111 2 0.423102 0.0407345 0.788919
845 4 0.461441 0.0593101 0.795344
863 4 0.0439855 0.120491 0.761799
832 2 0.00301651 0.114643 0.779867
833 4 0.0251232 0.115496 0.768216
34 3 0.116664 0.132284 0.83023
31 1 0.124209 0.154124 0.82811
33 3 0.132308 0.15766 0.806655
35 3 0.107244 0.168667 0.832507
839 4 0.231766 0.121703 0.834823
838 2 0.25006 0.138283 0.838769
1084 2 0.344199 0.129998 0.805146
1085 4 0.353448 0.121995 0.826953
1086 4 0.33495 0.138002 0.783338
819 4 0.363438 0.103938 0.82935
3268 2 0.504902 0.140662 0.760427
3270 4 0.501449 0.164185 0.752684
1214 4 0.0227238 0.204578 0.76956