ITEM: TIMESTEP
1760000
ITEM: NUMBER OF ATOMS
4590
ITEM: BOX BOUNDS pp pp pp
-9.9985700000000008e+00 9.9985700000000008e+00
-9.9985700000000008e+00 9.9985700000000008e+00
-9.9985700000000008e+00 9.9985700000000008e+00
ITEM: ATOMS id type xs ys zs
1666 2 0.0487281 0.0583572 0.0662474
1668 4 0.0400901 0.0543729 0.043124
1474 2 0.303128 0.00982881 0.0853176
2974 2 0.471102 0.0288726 0.0175323
745 2 0.454888 0.0804822 0.00641198
2976 4 0.472923 0.00862968 0.0320955
2467 2 0.47634 0.00351836 0.067388
566 4 0.19036 0.149434 0.0448921
2264 4 0.259484 0.156765 0.0123032
297 4 0.325085 0.120742 0.0342314
295 2 0.343998 0.111378 0.0208228
556 2 0.403708 0.110995 0.00737297
557 4 0.378803 0.112623 0.00585728
296 4 0.36291 0.102013 0.00741426
558 4 0.428612 0.109368 0.00888865
746 4 0.439344 0.0953125 0.0192026
565 2 0.208275 0.159116 0.0303841
567 4 0.226191 0.168797 0.0158762
1133 4 0.231417 0.18552 0.0051044
360 4 0.329605 0.18343 0.0145274
769 2 0.415306 0.167291 0.0091989
358 2 0.352723 0.17713 0.0216714
770 4 0.393446 0.168661 0.0212598
359 4 0.375841 0.17083 0.0288153
664 2 0.396605 0.19783 0.0530697
665 4 0.389872 0.181256 0.0356011
666 4 0.403338 0.214404 0.0705384
323 4 0.415898 0.230477 0.0694347
623 4 0.399497 0.230756 0.0798425
555 4 0.0479986 0.275888 0.0219975
553 2 0.054721 0.275515 0.997917
287 4 0.16023 0.304059 0.0286908
292 2 0.130489 0.278077 0.0278012
507 4 0.15875 0.298406 0.0463057
293 4 0.153488 0.287731 0.0295382
294 4 0.10749 0.268423 0.0260642
286 2 0.157252 0.327315 0.0200047
505 2 0.174029 0.298939 0.0660909
481 2 0.231341 0.302173 0.0760172
483 4 0.206423 0.303593 0.0775188
573 4 0.260365 0.285614 0.0626953
482 4 0.256259 0.300753 0.0745156
571 2 0.273356 0.277719 0.0428442
572 4 0.286348 0.269824 0.0229931
357 4 0.287789 0.266264 0.00273472
1069 2 0.393638 0.292531 0.0324199
957 4 0.367328 0.314535 0.0255718
1071 4 0.369112 0.295935 0.0289433
955 2 0.347184 0.310878 0.0112176
741 4 0.362836 0.331694 0.0368497
322 2 0.420811 0.252635 0.0589436
324 4 0.425724 0.274793 0.0484524
1070 4 0.418163 0.289128 0.0358965
671 4 0.448523 0.326042 0.0605485
280 2 0.445452 0.29914 0.0362852
281 4 0.459868 0.310941 0.0529607
282 4 0.431035 0.287338 0.0196097
454 2 0.163721 0.371752 0.0590527
455 4 0.145075 0.35535 0.0561467
552 4 0.125233 0.361908 0.0584227
550 2 0.106107 0.34718 0.0649359
551 4 0.0869799 0.332451 0.0714491
288 4 0.154273 0.350572 0.0113187
456 4 0.182368 0.388154 0.0619587
1290 4 0.276172 0.404544 0.0182378
739 2 0.369631 0.334005 0.0608011
495 4 0.390693 0.364448 0.071346
493 2 0.384824 0.388701 0.0729278
494 4 0.378954 0.412955 0.0745096
670 2 0.429505 0.331995 0.0756503
245 4 0.238819 0.489266 0.0495643
626 4 0.227326 0.481584 0.0632848
625 2 0.210119 0.471732 0.0785171
244 2 0.249204 0.470925 0.036112
246 4 0.259588 0.452585 0.0226597
1778 4 0.218011 0.499523 0.0214241
251 4 0.266351 0.418903 0.0280592
250 2 0.269121 0.420602 0.0528506
252 4 0.271892 0.422301 0.0776421
272 4 0.271627 0.435932 0.0177041
1672 2 0.403134 0.448571 0.0666341
853 2 0.405057 0.443894 0.00821024
1674 4 0.412742 0.45503 0.0444724
854 4 0.420118 0.454685 0.0250006
563 4 0.477058 0.441132 0.0472816
562 2 0.452433 0.443025 0.0433838
564 4 0.427807 0.444918 0.039486
228 4 0.495371 0.43247 0.0445868
1667 4 0.0573661 0.0623414 0.0893707
701 4 0.0778518 0.0690518 0.0910754
18 3 0.0700612 0.0370803 0.15133
1475 4 0.308065 0.0341813 0.088105
492 4 0.303925 0.0439021 0.105301
490 2 0.287016 0.0613705 0.0994624
491 4 0.270106 0.078839 0.0936236
485 4 0.382037 0.00438257 0.108957
2723 4 0.441946 0.0635874 0.142004
2722 2 0.461841 0.0484439 0.14181
2724 4 0.481736 0.0333004 0.141617
1760 4 0.498578 0.022505 0.143211
1759 2 0.501787 0.0187281 0.118703
2744 4 0.486919 0.0258505 0.157962
2469 4 0.483922 0.013481 0.0890317
700 2 0.0788783 0.0939393 0.0932509
702 4 0.0799048 0.118827 0.0954264
475 2 0.0809087 0.133076 0.137152
476 4 0.0772025 0.122124 0.114983
737 4 0.240512 0.154756 0.11718
237 4 0.237673 0.148706 0.158759
582 4 0.255438 0.138767 0.154031
628 2 0.368664 0.141548 0.152345
312 4 0.377554 0.104402 0.15117
629 4 0.375682 0.120167 0.163245
630 4 0.361647 0.162928 0.141445
339 4 0.0904833 0.234727 0.147641
736 2 0.248961 0.177302 0.110439
738 4 0.257411 0.199849 0.103699
461 4 0.311583 0.243811 0.101255
460 2 0.3341 0.237666 0.110221
354 4 0.292649 0.244733 0.107463
352 2 0.283729 0.245009 0.13082
353 4 0.274808 0.245284 0.154176
254 4 0.376768 0.174441 0.145181
462 4 0.356617 0.23152 0.119186
255 4 0.366626 0.221328 0.131056
253 2 0.371697 0.197884 0.138119
765 4 0.363843 0.238459 0.137741
624 4 0.373737 0.237498 0.122171
622 2 0.386617 0.234127 0.101006
763 2 0.353562 0.247343 0.158731
337 2 0.0733094 0.248709 0.159248
506 4 0.189308 0.299472 0.085876
537 4 0.188007 0.310199 0.102545
535 2 0.202599 0.313447 0.122588
536 4 0.217191 0.316695 0.14263
755 4 0.259365 0.256816 0.158506
387 4 0.321367 0.314002 0.119631
301 2 0.325397 0.302047 0.159788
302 4 0.330383 0.303989 0.135364
385 2 0.341349 0.322188 0.107027
15 3 0.372189 0.330789 0.111396
518 4 0.493153 0.277459 0.0991771
528 4 0.478822 0.270745 0.111792
526 2 0.461062 0.282992 0.0991513
527 4 0.443303 0.29524 0.0865108
315 4 0.0133879 0.389189 0.114891
647 4 0.0616182 0.346679 0.151014
417 4 0.140558 0.395601 0.164938
415 2 0.160223 0.400596 0.150325
291 4 0.199013 0.409462 0.133199
289 2 0.222994 0.416101 0.135654
14 3 0.391896 0.351377 0.0867907
386 4 0.361332 0.330374 0.0944221
12 3 0.409492 0.330345 0.112495
740 4 0.376426 0.336315 0.0847524
672 4 0.410488 0.337948 0.090752
11 1 0.390952 0.343379 0.108552
13 3 0.39093 0.361113 0.123515
595 2 0.491004 0.412737 0.120908
597 4 0.483103 0.393533 0.134835
645 4 0.474614 0.392282 0.152046
104 3 0.515234 0.361211 0.145791
102 3 0.49406 0.338492 0.124621
1791 4 0.060231 0.491335 0.131074
1466 4 0.0448619 0.478336 0.137313
1465 2 0.0287476 0.468037 0.153421
627 4 0.192911 0.461881 0.0937494
290 4 0.246975 0.422741 0.138109
416 4 0.179887 0.405591 0.135712
637 2 0.235735 0.501074 0.130022
609 4 0.288491 0.426405 0.0889453
607 2 0.308624 0.423994 0.103575
608 4 0.328757 0.421583 0.118205
768 4 0.26724 0.42273 0.134017
767 4 0.267598 0.472696 0.132025
766 2 0.267419 0.447713 0.133021
638 4 0.256986 0.488493 0.133939
1673 4 0.393526 0.442111 0.0887959
659 4 0.347268 0.428455 0.120334
660 4 0.379338 0.430624 0.0820259
658 2 0.363303 0.429539 0.10118
1559 4 0.353431 0.487677 0.103634
596 4 0.498905 0.431941 0.106981
380 4 0.0104409 0.0828168 0.21087
16 1 0.0651249 0.0506831 0.169468
19 3 0.0615736 0.0724642 0.1623
17 3 0.0459513 0.0429555 0.179558
2480 4 0.0331363 0.0364561 0.192015
1422 4 0.0211798 0.0227181 0.197946
2479 2 0.0152847 0.0530381 0.197631
20 3 0.0822438 0.0501357 0.184478
1403 4 0.0983116 0.00134861 0.254409
578 4 0.0978481 0.052304 0.172448
674 4 0.138903 0.031394 0.206602
673 2 0.123512 0.0194403 0.222267
689 4 0.153517 0.0182463 0.200016
577 2 0.118508 0.0656672 0.176892
579 4 0.139169 0.0790304 0.181337
675 4 0.108121 0.00748657 0.237932
652 2 0.283903 0.000112871 0.198585
653 4 0.304973 0.00122367 0.212002
25 3 0.325948 0.0467914 0.239609
311 4 0.386196 0.0753088 0.190915
758 4 0.377125 0.0602935 0.20156
759 4 0.342291 0.0647344 0.237164
757 2 0.359708 0.062514 0.219362
2743 2 0.50203 0.0274413 0.177819
511 2 0.04658 0.152813 0.220638
513 4 0.0702963 0.157029 0.227342
381 4 0.0188169 0.131555 0.203446
512 4 0.0228637 0.148597 0.213933
379 2 0.0146289 0.107186 0.207158
477 4 0.0846149 0.144028 0.159322
450 4 0.138815 0.0977435 0.171636
448 2 0.160233 0.11039 0.174186
449 4 0.181651 0.123036 0.176736
691 2 0.238601 0.104605 0.241307
693 4 0.220991 0.0988758 0.224508
236 4 0.197524 0.131721 0.18326
235 2 0.217599 0.140213 0.17101
581 4 0.292119 0.117566 0.180596
580 2 0.273779 0.128166 0.167313
26 1 0.32653 0.161701 0.248101
30 3 0.304378 0.157293 0.245183
28 3 0.339293 0.145383 0.237651
310 2 0.381875 0.0898552 0.171043
333 4 0.497514 0.0854065 0.241175
521 4 0.481646 0.144239 0.222088
332 4 0.474703 0.126873 0.225022
762 4 0.466156 0.141826 0.233373
760 2 0.443234 0.140068 0.243204
331 2 0.486109 0.10614 0.233099
520 2 0.501868 0.154592 0.211644
394 2 0.0156013 0.229258 0.233164
395 4 0.0308481 0.209744 0.229714
393 4 0.0656331 0.16341 0.245337
279 4 0.25085 0.197034 0.188062
277 2 0.257103 0.219426 0.17886
27 3 0.331484 0.182131 0.238763
278 4 0.263356 0.241818 0.169657
284 4 0.282093 0.243241 0.172768
396 4 0.000354504 0.248773 0.236614
338 4 0.0561354 0.262692 0.170855
363 4 0.0672467 0.26992 0.185347
361 2 0.0762524 0.288423 0.19955
749 4 0.0762177 0.32331 0.210727
443 4 0.997765 0.268987 0.237644
648 4 0.0764254 0.339388 0.198219
370 2 0.126356 0.310001 0.221017
372 4 0.104768 0.299962 0.213378
362 4 0.085258 0.306926 0.213752
371 4 0.147944 0.32004 0.228656
734 4 0.154123 0.326378 0.247661
756 4 0.241233 0.294127 0.186432
610 2 0.245656 0.287606 0.227012
285 4 0.324776 0.264326 0.188077
283 2 0.303434 0.253783 0.180423
754 2 0.250299 0.275471 0.172469
612 4 0.251695 0.294488 0.203745
307 2 0.325714 0.293111 0.214139
308 4 0.327795 0.284004 0.190946
303 4 0.320411 0.300104 0.184212
729 4 0.317926 0.319503 0.190153
309 4 0.323633 0.302219 0.237332
764 4 0.343281 0.256226 0.179721
748 2 0.0809348 0.339222 0.229428
264 4 0.00680132 0.401951 0.248569
646 2 0.0690218 0.343034 0.174617
299 4 0.148403 0.341276 0.260292
727 2 0.313376 0.34254 0.198741
728 4 0.308826 0.365578 0.20733
446 4 0.440481 0.366843 0.248414
445 2 0.442164 0.379449 0.226886
447 4 0.443847 0.392055 0.205359
644 4 0.454607 0.406386 0.195652
643 2 0.46461 0.399334 0.173849
1467 4 0.0126333 0.457739 0.169528
229 2 0.459004 0.48659 0.23658
230 4 0.458173 0.505879 0.220692
1568 4 0.472146 0.504199 0.186964
232 2 0.0261653 0.030107 0.299704
233 4 0.0508491 0.0299008 0.295724
1404 4 0.0698554 0.0225192 0.289662
1402 2 0.0840835 0.0119339 0.272035
316 2 0.0778896 0.0564993 0.306501
317 4 0.068206 0.0339194 0.301858
428 4 0.0755679 0.0187553 0.309956
427 2 0.0667399 0.00504039 0.328907
318 4 0.0875733 0.0790791 0.311144
732 4 0.10261 0.0736695 0.324414
21 1 0.323168 0.0630849 0.255276
23 3 0.32298 0.0537104 0.2765
24 3 0.303295 0.0744355 0.251453
22 3 0.340632 0.077992 0.253885
351 4 0.411529 0.0563515 0.270869
349 2 0.394703 0.0733616 0.263608
479 4 0.450548 0.0215914 0.296801
478 2 0.43639 0.0318156 0.278908
2664 4 0.46918 0.0239043 0.292426
480 4 0.422231 0.0420398 0.261014
1428 4 0.460517 0.0161109 0.309457
258 4 0.445744 0.0248271 0.317168
2662 2 0.491749 0.0341589 0.289158
397 2 0.0745567 0.105837 0.333826
399 4 0.0918081 0.0893385 0.326385
721 2 0.248082 0.117686 0.299346
722 4 0.249423 0.121193 0.324066
723 4 0.246742 0.114179 0.274626
692 4 0.256212 0.110335 0.258106
632 4 0.368586 0.103419 0.269334
350 4 0.377877 0.0903716 0.256346
631 2 0.355036 0.12389 0.264589
707 4 0.344044 0.152307 0.278737
633 4 0.341485 0.144361 0.259844
761 4 0.420312 0.13831 0.253036
391 2 0.0735072 0.181881 0.260237
392 4 0.0813814 0.200352 0.275136
546 4 0.12245 0.191301 0.265885
544 2 0.145079 0.200607 0.271035
545 4 0.167707 0.209913 0.276184
402 4 0.181472 0.22185 0.283366
400 2 0.182481 0.246679 0.286134
474 4 0.191971 0.211824 0.329386
29 3 0.331549 0.162388 0.270745
706 2 0.352468 0.166964 0.29716
708 4 0.360892 0.18162 0.315583
717 4 0.446918 0.187173 0.339427
442 2 0.00338062 0.280642 0.25904
444 4 0.00899671 0.292297 0.280436
378 4 0.252062 0.261368 0.320895
611 4 0.239617 0.280724 0.25028
401 4 0.183489 0.271509 0.288902
676 2 0.181418 0.301641 0.312044
345 4 0.19589 0.284884 0.282521
677 4 0.181446 0.290517 0.289651
343 2 0.21958 0.287607 0.274999
735 4 0.18749 0.297187 0.270796
733 2 0.170807 0.311782 0.259228
344 4 0.243269 0.29033 0.267477
678 4 0.181389 0.312765 0.334437
376 2 0.273464 0.270665 0.311912
496 2 0.311682 0.286403 0.272022
497 4 0.308674 0.269152 0.289869
377 4 0.294866 0.279961 0.302929
498 4 0.31469 0.303655 0.254175
541 2 0.396462 0.30745 0.314412
542 4 0.392643 0.283844 0.307107
543 4 0.400281 0.331056 0.321716
420 4 0.408131 0.274003 0.314588
418 2 0.420381 0.259184 0.330572
2537 4 0.497854 0.327895 0.32337
365 4 0.0352545 0.373767 0.294635
601 2 0.0515943 0.37814 0.333813
603 4 0.0468987 0.372086 0.310012
364 2 0.0121021 0.365129 0.290823
750 4 0.0856519 0.355134 0.24813
298 2 0.12549 0.351106 0.25841
300 4 0.102577 0.360935 0.256529
433 2 0.312036 0.389924 0.29358
435 4 0.301669 0.40693 0.278463
434 4 0.322403 0.372918 0.308696
614 4 0.339497 0.362091 0.310427
615 4 0.38212 0.336549 0.316041
613 2 0.360808 0.34932 0.313234
1757 4 0.10442 0.441017 0.280506
1756 2 0.107365 0.461893 0.267065
1758 4 0.110309 0.48277 0.253624
412 2 0.230022 0.451643 0.266539
1436 4 0.222339 0.43622 0.309243
413 4 0.225282 0.440232 0.288276
414 4 0.234762 0.463054 0.244802
1435 2 0.24162 0.436013 0.325162
3 3 0.298998 0.464104 0.324388
1803 4 0.376438 0.48012 0.279851
437 4 0.364251 0.47135 0.325033
436 2 0.340548 0.467441 0.331966
231 4 0.459836 0.467302 0.252469
119 3 0.499152 0.452128 0.316246
712 2 0.459567 0.464254 0.328498
713 4 0.436232 0.472129 0.324182
714 4 0.482902 0.456379 0.332815
1782 4 0.137981 0.000391851 0.382555
1781 4 0.0989062 0.000724668 0.413761
730 2 0.121078 0.0639513 0.338186
1780 2 0.118443 0.00055826 0.398158
731 4 0.139546 0.054233 0.351957
606 4 0.157922 0.0604308 0.356176
604 2 0.179695 0.0704877 0.363247
1701 4 0.323977 0.0274799 0.388559
441 4 0.319338 0.0181858 0.40171
1699 2 0.328973 0.0342016 0.365
425 4 0.332363 0.0301447 0.407883
1700 4 0.333968 0.0409234 0.341441
699 4 0.353738 0.0441111 0.346938
697 2 0.378454 0.0465652 0.34406
698 4 0.40317 0.0490193 0.341182
257 4 0.420254 0.0515101 0.350917
256 2 0.432999 0.0381686 0.334042
2879 4 0.50462 0.0682798 0.400319
2584 2 0.0180985 0.110022 0.349826
398 4 0.0573054 0.122335 0.341267
2586 4 0.0410515 0.119436 0.352942
458 4 0.0411643 0.138407 0.360538
457 2 0.0415516 0.145138 0.384616
459 4 0.0419389 0.151869 0.408693
600 4 0.141922 0.119351 0.391704
598 2 0.139008 0.142933 0.38392
605 4 0.201467 0.0805445 0.370317
248 4 0.20541 0.0866276 0.351755
249 4 0.236775 0.123978 0.340713
247 2 0.221093 0.105303 0.346234
683 4 0.237754 0.0846015 0.397319
403 2 0.244744 0.159123 0.344011
404 4 0.250627 0.136311 0.335632
682 2 0.257597 0.0997479 0.395899
319 2 0.312054 0.139712 0.393767
684 4 0.27744 0.114894 0.394478
321 4 0.329217 0.157148 0.388613
320 4 0.29489 0.122275 0.398922
725 4 0.388548 0.111465 0.402739
2878 2 0.503731 0.090003 0.412667
599 4 0.136093 0.166514 0.376136
389 4 0.115139 0.235831 0.348454
686 4 0.132346 0.175099 0.39307
685 2 0.113988 0.187962 0.404148
275 4 0.147733 0.174095 0.361363
274 2 0.160068 0.191263 0.348011
687 4 0.0956313 0.200826 0.415226
472 2 0.21517 0.20661 0.337118
276 4 0.172403 0.208431 0.334659
405 4 0.23886 0.181934 0.352389
473 4 0.238369 0.201396 0.34485
466 2 0.401125 0.200933 0.401344
467 4 0.40754 0.193288 0.378418
716 4 0.412379 0.174172 0.373173
269 4 0.445696 0.237614 0.331753
715 2 0.429649 0.180673 0.3563
270 4 0.476244 0.213602 0.363231
452 4 0.469751 0.204295 0.380412
268 2 0.46097 0.225608 0.347492
451 2 0.464544 0.205147 0.404853
419 4 0.432631 0.244364 0.346556
388 2 0.11459 0.259254 0.357184
616 2 0.0806837 0.318543 0.373212
390 4 0.114041 0.282678 0.365915
617 4 0.0991665 0.307693 0.360333
374 4 0.116777 0.298795 0.352547
373 2 0.139858 0.306914 0.347397
375 4 0.16294 0.315032 0.342246
509 4 0.20874 0.316477 0.369177
508 2 0.227376 0.328896 0.358058
618 4 0.062201 0.329392 0.38609
347 4 0.0499899 0.342757 0.381012
549 4 0.064125 0.38863 0.375508
602 4 0.0562899 0.384195 0.357613
346 2 0.0371539 0.358611 0.39547
348 4 0.0243178 0.374466 0.409928
510 4 0.246012 0.341315 0.346939
668 4 0.319366 0.39026 0.398382
667 2 0.316178 0.407834 0.415879
336 4 0.328296 0.372506 0.402579
334 2 0.351495 0.363181 0.402404
335 4 0.374694 0.353856 0.402229
752 4 0.469751 0.406686 0.392922
561 4 0.478764 0.394057 0.405605
547 2 0.068366 0.413257 0.374641
548 4 0.0726069 0.437883 0.373774
407 4 0.0815781 0.45529 0.375914
406 2 0.0965817 0.464241 0.393801
499 2 0.0875903 0.500859 0.350733
501 4 0.0964335 0.485102 0.368016
408 4 0.111585 0.473192 0.411688
1556 4 0.238413 0.505024 0.424268
1544 4 0.225623 0.49525 0.413118
1555 2 0.259224 0.495013 0.414685
5 3 0.280357 0.480849 0.352491
1557 4 0.280035 0.485001 0.405102
1 1 0.291714 0.462097 0.346327
438 4 0.316845 0.463531 0.338899
1437 4 0.2609 0.435807 0.34108
4 3 0.278018 0.443488 0.348455
2 3 0.310007 0.459472 0.360025
636 4 0.295941 0.485532 0.416074
593 4 0.4061 0.463825 0.385032
592 2 0.415438 0.469798 0.36262
588 4 0.415747 0.447127 0.389741
1742 4 0.427099 0.489281 0.326207
586 2 0.426594 0.428245 0.40203
753 4 0.49314 0.430924 0.35596
117 3 0.489909 0.451952 0.352676
751 2 0.481445 0.418805 0.374441
594 4 0.424776 0.47577 0.340208
367 2 0.0761107 0.0228678 0.426386
369 4 0.0523581 0.030662 0.425889
719 4 0.045152 0.0200946 0.441228
718 2 0.0222329 0.0243683 0.450263
368 4 0.0998632 0.0150737 0.426884
962 4 0.315353 0.0266417 0.418414
961 2 0.301839 0.0419568 0.432836
963 4 0.288325 0.0572718 0.447258
432 4 0.295751 0.0730714 0.45786
430 2 0.307127 0.0855397 0.476307
424 2 0.355753 0.0265273 0.415944
426 4 0.379144 0.0229099 0.424004
726 4 0.411133 0.0754281 0.429044
1218 4 0.398792 0.0625574 0.47597
1216 2 0.388185 0.0646725 0.498513
260 4 0.042262 0.16613 0.422494
431 4 0.318504 0.0980079 0.494755
724 2 0.399841 0.0934465 0.415891
642 4 0.491502 0.118513 0.437443
640 2 0.47042 0.131717 0.439961
641 4 0.449337 0.144922 0.44248
2880 4 0.502842 0.111726 0.425016
259 2 0.0599799 0.183743 0.423519
261 4 0.0776979 0.201355 0.424544
696 4 0.0936462 0.246283 0.472006
1035 4 0.0868953 0.217257 0.42066
1033 2 0.0962968 0.231656 0.438811
694 2 0.0898637 0.233062 0.492889
488 4 0.308172 0.242511 0.430345
487 2 0.331219 0.247343 0.43875
489 4 0.354266 0.252176 0.447156
468 4 0.39471 0.208577 0.42427
411 4 0.365113 0.240728 0.459963
516 4 0.403816 0.194962 0.458467
409 2 0.380662 0.222993 0.451665
410 4 0.396212 0.205258 0.443368
575 4 0.39843 0.192116 0.477405
266 4 0.364701 0.240652 0.481543
574 2 0.399179 0.174309 0.494941
514 2 0.427712 0.195866 0.451165
515 4 0.451609 0.196771 0.443864
453 4 0.459338 0.205999 0.429293
2847 4 0.999969 0.302411 0.448216
1034 4 0.105698 0.246056 0.456962
1258 2 0.108819 0.28596 0.468899
1259 4 0.117162 0.309303 0.472163
9 3 0.136401 0.313414 0.4813
1260 4 0.100476 0.262616 0.465635
10 3 0.148949 0.331855 0.450966
584 4 0.501026 0.249984 0.49288
326 4 0.0605396 0.336915 0.478271
325 2 0.0847109 0.342033 0.48211
6 1 0.140605 0.334261 0.47202
7 3 0.120895 0.346082 0.471052
327 4 0.108882 0.34715 0.485949
709 2 0.147661 0.403928 0.467547
8 3 0.155701 0.345917 0.485235
711 4 0.12675 0.407949 0.454442
503 4 0.225477 0.369644 0.472974
502 2 0.20456 0.380285 0.481601
710 4 0.168572 0.399906 0.480652
504 4 0.183642 0.390926 0.490227
240 4 0.385286 0.365056 0.416376
238 2 0.405962 0.379058 0.415113
882 4 0.371896 0.376 0.466871
880 2 0.371179 0.374943 0.491842
560 4 0.505166 0.387855 0.447619
587 4 0.43744 0.409363 0.414319
239 4 0.426639 0.39306 0.413849
559 2 0.491965 0.390956 0.426612
3307 2 0.492297 0.390654 0.481966
1381 2 0.00175816 0.481365 0.468443
1383 4 0.993574 0.457754 0.469275
384 4 0.107114 0.415199 0.449652
569 4 0.125529 0.474318 0.424505
382 2 0.111252 0.436758 0.437683
568 2 0.145893 0.488292 0.428404
383 4 0.115391 0.458318 0.425715
1543 2 0.204981 0.501577 0.425732
772 2 0.331487 0.438544 0.470744
634 2 0.306856 0.464462 0.423955
774 4 0.318169 0.436715 0.449662
669 4 0.312991 0.425408 0.433377
635 4 0.317771 0.443393 0.431836
773 4 0.344804 0.440373 0.491827
662 4 0.474144 0.5045 0.48127
663 4 0.482081 0.469714 0.446232
661 2 0.478113 0.487107 0.463751
342 4 0.198348 0.0753242 0.5213
340 2 0.190722 0.0517816 0.517727
1152 4 0.211288 0.0888979 0.527851
341 4 0.183096 0.0282389 0.514155
2430 4 0.175862 0.0128916 0.524195
1030 2 0.271307 0.0629775 0.573832
1217 4 0.377578 0.0667875 0.521057
842 4 0.362294 0.0752571 0.529088
3007 2 0.481831 0.0424141 0.577263
3009 4 0.495869 0.0517432 0.558794
470 4 0.016477 0.153462 0.51289
1058 4 0.0875701 0.120616 0.522926
1057 2 0.101175 0.11859 0.543806
1059 4 0.11478 0.116563 0.564686
1155 4 0.120061 0.126585 0.580322
1150 2 0.231534 0.0893174 0.542517
1151 4 0.25178 0.0897368 0.557184
1180 2 0.208372 0.144775 0.53793
1181 4 0.20177 0.12575 0.552751
1182 4 0.214975 0.1638 0.52311
1032 4 0.27003 0.0811186 0.556672
843 4 0.319385 0.0962653 0.514316
841 2 0.34084 0.0857612 0.521702
576 4 0.399927 0.156501 0.512477
1198 2 0.000404186 0.217289 0.56803
469 2 0.00566172 0.174101 0.521958
695 4 0.0860813 0.219841 0.513771
900 4 0.221571 0.181539 0.527806
898 2 0.245469 0.188127 0.52454
798 4 0.226312 0.248377 0.568248
650 4 0.279055 0.2084 0.535766
899 4 0.269367 0.194716 0.521274
649 2 0.28983 0.228303 0.525139
651 4 0.300605 0.248206 0.514511
265 2 0.363065 0.244647 0.506171
857 4 0.213986 0.254178 0.540277
947 4 0.213423 0.260709 0.559329
856 2 0.230427 0.249016 0.52216
946 2 0.18977 0.263168 0.567056
948 4 0.166118 0.265627 0.574782
796 2 0.247305 0.260229 0.574883
858 4 0.246868 0.243854 0.504043
872 4 0.355062 0.278235 0.578264
871 2 0.370758 0.296738 0.584303
873 4 0.386453 0.315241 0.590342
267 4 0.361428 0.248641 0.530799
2457 4 0.499079 0.308568 0.524233
2455 2 0.500596 0.284875 0.51639
803 4 0.27306 0.363648 0.564071
804 4 0.276871 0.396343 0.526425
802 2 0.274966 0.379995 0.545248
1190 4 0.26231 0.354105 0.577916
930 4 0.331314 0.369217 0.570136
928 2 0.343613 0.375392 0.54926
929 4 0.355911 0.381568 0.528385
881 4 0.370463 0.373886 0.516813
1011 4 0.477473 0.368765 0.516199
1009 2 0.491233 0.348155 0.519522
927 4 0.427714 0.363224 0.591744
925 2 0.44043 0.381212 0.579915
3308 4 0.489515 0.380334 0.50457
926 4 0.453146 0.3992 0.568087
1002 4 0.449155 0.409918 0.583865
540 4 0.104658 0.473003 0.58096
1160 4 0.111189 0.490911 0.574445
1159 2 0.135448 0.490539 0.580487
2244 4 0.0976688 0.481299 0.565904
1910 4 0.407023 0.4927 0.558972
890 4 0.33416 0.502701 0.563686
1909 2 0.425109 0.481153 0.571806
1000 2 0.453339 0.434409 0.581064
1911 4 0.443196 0.469606 0.584641
1081 2 0.060629 0.0787095 0.645342
1083 4 0.0608852 0.0917052 0.623982
1127 4 0.0417343 0.0923683 0.624889
823 2 0.155128 0.0122417 0.654257
825 4 0.141282 0.0330574 0.654671
824 4 0.168974 0.991426 0.653843
1031 4 0.272584 0.0448364 0.590991
951 4 0.28479 0.0279918 0.595053
949 2 0.299541 0.00877161 0.601232
3008 4 0.467793 0.0330849 0.595731
809 4 0.479171 0.0366516 0.611338
808 2 0.470933 0.0494091 0.631202
810 4 0.462695 0.0621665 0.651066
45 3 0.460458 0.0849256 0.652263
1126 2 0.0197685 0.0938521 0.613036
938 4 0.0791682 0.0891524 0.614651
1128 4 0.997803 0.0953359 0.601184
939 4 0.104206 0.115269 0.580129
1271 4 0.103178 0.134418 0.586077
937 2 0.0916873 0.102211 0.59739
1153 2 0.142997 0.129026 0.589974
1270 2 0.0950662 0.157389 0.591708
1154 4 0.165933 0.131467 0.599625
1221 4 0.17175 0.124045 0.616327
1219 2 0.193284 0.135422 0.621988
1220 4 0.214818 0.146799 0.627648
1192 2 0.356834 0.165395 0.658723
1193 4 0.380173 0.158949 0.652483
3424 2 0.484719 0.116968 0.666224
1199 4 0.0165803 0.210685 0.585915
1244 4 0.0378104 0.240206 0.585498
878 4 0.0311006 0.222581 0.591209
877 2 0.0508021 0.207552 0.594546
879 4 0.0705035 0.192522 0.597883
1272 4 0.0869548 0.180361 0.597338
1210 2 0.242621 0.176076 0.634194
1212 4 0.220789 0.166426 0.626749
1211 4 0.264453 0.185726 0.641638
886 2 0.293497 0.18238 0.662832
888 4 0.273093 0.195654 0.657118
982 2 0.0325014 0.321246 0.586374
1243 2 0.0467452 0.26355 0.584853
983 4 0.0522555 0.306026 0.584553
1245 4 0.05568 0.286894 0.584209
984 4 0.0127472 0.336465 0.588195
1137 4 0.163867 0.324807 0.61035
1135 2 0.165731 0.303012 0.598238
1136 4 0.167594 0.281217 0.586126
822 4 0.181868 0.292251 0.652369
1064 4 0.197386 0.304008 0.658708
797 4 0.268298 0.27208 0.581517
792 4 0.298281 0.320762 0.596689
791 4 0.273245 0.277676 0.600869
790 2 0.285763 0.299219 0.598779
805 2 0.263936 0.322356 0.647555
813 4 0.38262 0.329064 0.603722
906 4 0.50622 0.314487 0.591898
953 4 0.494939 0.303069 0.604294
952 2 0.484006 0.280654 0.602504
954 4 0.473074 0.258238 0.600715
1041 4 0.0492429 0.392625 0.636582
3264 4 0.0325746 0.386772 0.645247
3262 2 0.0312269 0.371171 0.66474
3240 4 0.0159616 0.397968 0.647017
1039 2 0.0695687 0.381567 0.627108
1040 4 0.0898946 0.370508 0.617634
993 4 0.10724 0.360703 0.618032
991 2 0.129508 0.349478 0.616214
992 4 0.151777 0.338253 0.614397
897 4 0.168204 0.341692 0.622556
1189 2 0.241885 0.364152 0.588264
896 4 0.204003 0.373264 0.607643
895 2 0.186104 0.357478 0.615099
1172 4 0.224838 0.393965 0.597899
1191 4 0.22146 0.374199 0.598611
1171 2 0.216184 0.417406 0.598798
1239 4 0.330451 0.372773 0.589944
1238 4 0.294722 0.338061 0.58556
806 4 0.287079 0.324167 0.638267
1237 2 0.312586 0.355417 0.587752
811 2 0.405399 0.336828 0.596939
1204 2 0.402817 0.384881 0.620728
1205 4 0.385946 0.391999 0.637753
1206 4 0.419689 0.377763 0.603702
812 4 0.428178 0.344593 0.590157
539 4 0.0740918 0.433475 0.578972
3238 2 0.00123908 0.416777 0.639625
538 2 0.0893749 0.453239 0.579966
1161 4 0.159708 0.490166 0.586529
2154 4 0.213809 0.495687 0.584373
2152 2 0.236494 0.503398 0.577225
1188 4 0.173952 0.490657 0.599747
1186 2 0.180625 0.466575 0.598894
1173 4 0.20753 0.440847 0.599698
1187 4 0.187297 0.442493 0.598041
889 2 0.336837 0.493151 0.586639
891 4 0.339514 0.483601 0.609591
1001 4 0.457522 0.458901 0.578262
1269 4 0.462324 0.471607 0.591829
1267 2 0.466415 0.490851 0.60726
945 4 0.0371574 0.997798 0.686283
1082 4 0.0603728 0.0657138 0.666701
943 2 0.0521316 0.0177101 0.688399
944 4 0.0671058 0.0376218 0.690515
1076 4 0.060456 0.0540233 0.68375
1075 2 0.0622621 0.0722383 0.700783
1283 4 0.139682 0.0481096 0.669544
1282 2 0.140873 0.0634954 0.689218
1284 4 0.142063 0.0788812 0.708891
1148 4 0.25872 0.0820337 0.696858
1147 2 0.268657 0.0591534 0.698571
1149 4 0.278593 0.036273 0.700284
1092 4 0.315026 0.00758512 0.684773
1004 4 0.352811 0.0804344 0.739529
42 3 0.456763 0.0537966 0.672517
41 1 0.452417 0.0763736 0.671778
43 3 0.429477 0.0796402 0.672996
1163 4 0.470285 0.0648518 0.68762
1162 2 0.484642 0.0534401 0.704615
44 3 0.462845 0.0866133 0.689801
864 4 0.0527336 0.101056 0.730805
1077 4 0.0640682 0.0904533 0.717817
1107 4 0.0717757 0.100265 0.7316
851 4 0.0811228 0.0991567 0.713951
862 2 0.0321694 0.0986275 0.744819
850 2 0.09487 0.11511 0.700472
852 4 0.108617 0.131064 0.686993
1105 2 0.0862809 0.0922975 0.750343
909 4 0.148465 0.0968203 0.706164
907 2 0.166864 0.113743 0.706678
1226 4 0.239225 0.0896699 0.693494
908 4 0.185263 0.130666 0.707193
1227 4 0.201821 0.120366 0.706118
1225 2 0.220523 0.105018 0.699806
887 4 0.3139 0.169105 0.668546
829 2 0.321075 0.146693 0.705374
830 4 0.315965 0.154687 0.682241
1194 4 0.333495 0.17184 0.664963
831 4 0.326185 0.138698 0.728508
1005 4 0.331764 0.12108 0.719387
1003 2 0.342288 0.100757 0.729458
3425 4 0.470074 0.0970801 0.670119
1177 2 0.00984137 0.23936 0.707401
1073 4 0.0779422 0.211182 0.752267
1072 2 0.0939731 0.230304 0.750679
1074 4 0.110004 0.249426 0.749091
978 4 0.270898 0.186997 0.745691
1142 4 0.459433 0.17148 0.740691
1144 2 0.49223 0.171202 0.72883
1025 4 0.42615 0.172952 0.682682
1262 4 0.460747 0.199073 0.725702
1024 2 0.441354 0.175957 0.702303
1026 4 0.456558 0.178963 0.721924
1261 2 0.456832 0.223759 0.726349
1145 4 0.47047 0.183391 0.730596
1263 4 0.452916 0.248446 0.726996
1179 4 0.0260721 0.252672 0.693817
1209 4 0.152907 0.261838 0.707917
1207 2 0.139741 0.26044 0.729128
821 4 0.157304 0.272977 0.691431
820 2 0.169586 0.282614 0.6719
807 4 0.240793 0.320545 0.656844
1063 2 0.202122 0.327329 0.666383
1019 4 0.356098 0.323307 0.70634
3123 4 0.487382 0.26483 0.67604
3263 4 0.0298792 0.35557 0.684233
1280 4 0.0526099 0.363934 0.742096
1279 2 0.0508833 0.387644 0.734345
1281 4 0.0491567 0.411353 0.726595
894 4 0.0397588 0.353641 0.732175
892 2 0.020255 0.344041 0.744529
1065 4 0.206859 0.350649 0.674058
1028 4 0.220153 0.379357 0.709966
1066 2 0.192843 0.363548 0.72974
1068 4 0.209684 0.361455 0.711378
1027 2 0.228363 0.402881 0.712066
1018 2 0.376778 0.336824 0.702489
1020 4 0.397458 0.350341 0.698639
1983 4 0.0565539 0.428244 0.730913
1981 2 0.0615773 0.450304 0.741557
1982 4 0.0666007 0.472364 0.752201
1029 4 0.236572 0.426405 0.714165
1175 4 0.199715 0.452299 0.733348
1174 2 0.195969 0.475593 0.725071
1176 4 0.192222 0.498888 0.716793
1138 2 0.264442 0.446273 0.68574
1140 4 0.248589 0.431747 0.698502
1139 4 0.280295 0.460798 0.672977
1987 2 0.293798 0.463475 0.738714
1229 4 0.320904 0.455494 0.705622
1989 4 0.312556 0.460261 0.722498
2028 4 0.284009 0.481096 0.670142
1230 4 0.362672 0.434228 0.68819
1228 2 0.341788 0.444861 0.696906
2991 4 0.0115594 0.0403516 0.784238
2989 2 0.00647786 0.0644579 0.779967
2049 4 0.107886 0.0121864 0.782473
1202 4 0.109268 0.0313489 0.789972
2047 2 0.127351 0.00243006 0.770179
1201 2 0.114625 0.0557131 0.791666
1203 4 0.119982 0.0800773 0.79336
1257 4 0.225132 0.0697245 0.776051
1255 2 0.233762 0.0830347 0.795379
817 2 0.326674 0.0433344 0.822127
1085 4 0.309432 0.0775779 0.828691
818 4 0.335546 0.0249467 0.807693
974 4 0.338365 0.00546165 0.804257
1113 4 0.428542 0.0569445 0.754944
1111 2 0.452632 0.0611197 0.76018
845 4 0.492625 0.0636875 0.777776
1112 4 0.476722 0.0652949 0.765416
2322 4 0.49892 0.0450803 0.780419
2990 4 0.00139634 0.0885642 0.775695
863 4 0.0116052 0.0961988 0.758833
1125 4 0.012933 0.147956 0.818907
1123 2 0.0363494 0.144788 0.827081
1124 4 0.0597659 0.14162 0.835255
834 4 0.997812 0.139074 0.808367
1106 4 0.100786 0.0843302 0.769086
911 4 0.112385 0.105145 0.821531
34 3 0.114596 0.0975569 0.778361
31 1 0.123473 0.106158 0.797998
35 3 0.109442 0.121878 0.806637
32 3 0.125937 0.089043 0.813168
33 3 0.144281 0.115548 0.793838
1256 4 0.242392 0.0963449 0.814706
840 4 0.234812 0.115172 0.818024
1084 2 0.294814 0.0872285 0.81085
1086 4 0.280195 0.0968792 0.793008
1023 4 0.401763 0.155873 0.831723
1131 4 0.174725 0.244382 0.793675
977 4 0.290242 0.224449 0.772596
918 4 0.284665 0.231293 0.789414
976 2 0.28057 0.205723 0.759144
1298 4 0.294419 0.214257 0.788986