ITEM: TIMESTEP
1650000
ITEM: NUMBER OF ATOMS
4590
ITEM: BOX BOUNDS pp pp pp
-9.9985700000000008e+00 9.9985700000000008e+00
-9.9985700000000008e+00 9.9985700000000008e+00
-9.9985700000000008e+00 9.9985700000000008e+00
ITEM: ATOMS id type xs ys zs
1666 2 0.0571995 0.058534 0.0647829
1668 4 0.0423064 0.0388359 0.0687022
1667 4 0.0720926 0.078232 0.0608635
747 4 0.461552 0.0666289 0.0155276
2974 2 0.470809 0.0269648 0.0256178
2975 4 0.464164 0.0473087 0.0126894
986 4 0.459733 0.0591197 0.997824
566 4 0.199928 0.146749 0.0426026
2264 4 0.270529 0.157396 0.00512522
297 4 0.325049 0.107541 0.0339421
295 2 0.345664 0.112009 0.0205169
296 4 0.366279 0.116477 0.00709174
556 2 0.399166 0.113528 0.00236319
769 2 0.405313 0.164619 0.0250132
557 4 0.376792 0.115525 0.991382
745 2 0.445748 0.0844437 0.0231461
771 4 0.42378 0.153349 0.0124767
558 4 0.421541 0.111532 0.0133439
746 4 0.429944 0.102258 0.0307647
565 2 0.20827 0.167379 0.0312017
567 4 0.216612 0.188009 0.0198008
1133 4 0.213713 0.193357 0.999862
360 4 0.320122 0.176528 0.0497597
358 2 0.345039 0.176495 0.0476845
770 4 0.386847 0.175888 0.0375496
359 4 0.369957 0.176462 0.0456093
664 2 0.392403 0.209299 0.0604955
665 4 0.379841 0.191973 0.0475661
666 4 0.404964 0.226626 0.0734248
323 4 0.408883 0.244763 0.0692957
555 4 0.0649792 0.292048 0.0342117
553 2 0.0663082 0.278767 0.0130688
287 4 0.15411 0.312389 0.0406622
292 2 0.137579 0.275693 0.0271544
507 4 0.155482 0.301754 0.0563161
293 4 0.144734 0.294447 0.0420627
294 4 0.130423 0.256939 0.0122461
505 2 0.175882 0.29946 0.0705906
481 2 0.229217 0.301139 0.0649955
483 4 0.204273 0.300916 0.0667162
506 4 0.196282 0.297165 0.0848652
573 4 0.272469 0.29078 0.0623113
482 4 0.25416 0.301362 0.0632747
571 2 0.273402 0.277698 0.0410239
572 4 0.274336 0.264615 0.0197364
357 4 0.278149 0.275281 0.0025754
322 2 0.410425 0.261643 0.0509152
1069 2 0.393487 0.298916 0.015674
324 4 0.411967 0.278524 0.0325347
1070 4 0.416789 0.289886 0.0164726
957 4 0.359166 0.322505 0.0225129
1071 4 0.370184 0.307947 0.0148754
955 2 0.34205 0.318123 0.00482014
671 4 0.451104 0.31777 0.0567131
280 2 0.448296 0.296597 0.0263714
281 4 0.460306 0.314795 0.0386102
282 4 0.436286 0.278399 0.0141327
670 2 0.43308 0.327027 0.071362
518 4 0.492566 0.279966 0.0868641
286 2 0.158952 0.334215 0.0294673
454 2 0.153785 0.393697 0.06622
455 4 0.145736 0.371264 0.0586588
552 4 0.136121 0.354292 0.0568094
550 2 0.116914 0.349128 0.0719628
288 4 0.163795 0.356042 0.0182724
456 4 0.161834 0.416129 0.0737812
250 2 0.275312 0.413096 0.0425503
251 4 0.280384 0.399306 0.0223192
1290 4 0.291711 0.381475 0.02327
741 4 0.360169 0.337076 0.0356261
739 2 0.368145 0.337007 0.0593231
740 4 0.376122 0.336937 0.0830201
495 4 0.396162 0.368508 0.0872691
493 2 0.387016 0.39102 0.0813734
14 3 0.394021 0.348499 0.0829789
494 4 0.37787 0.413532 0.0754777
330 4 0.00977817 0.423624 0.0261538
245 4 0.211074 0.466127 0.0271833
626 4 0.207686 0.464992 0.0479755
625 2 0.190928 0.458924 0.0655122
244 2 0.233855 0.456576 0.0233136
627 4 0.174171 0.452856 0.083049
252 4 0.27024 0.426885 0.0627814
246 4 0.256636 0.447025 0.0194439
609 4 0.281033 0.422731 0.0781331
272 4 0.268036 0.430637 0.0131325
1672 2 0.393868 0.443848 0.0649432
1673 4 0.370504 0.442415 0.0737334
853 2 0.405603 0.445737 0.999949
854 4 0.418618 0.445612 0.021298
1674 4 0.417232 0.445281 0.056153
563 4 0.478088 0.44044 0.0380069
228 4 0.494606 0.441194 0.0276495
562 2 0.453394 0.444352 0.0383228
564 4 0.4287 0.448264 0.0386387
18 3 0.0627427 0.0395596 0.143644
16 1 0.0570808 0.0513274 0.162823
19 3 0.0500046 0.0726995 0.157205
1506 4 0.247877 0.00830583 0.165977
1475 4 0.295793 0.0229309 0.0949943
492 4 0.287096 0.0374332 0.105869
490 2 0.288289 0.0619062 0.110851
491 4 0.289482 0.0863793 0.115834
485 4 0.388234 0.0125885 0.110699
2723 4 0.421796 0.042524 0.134491
2722 2 0.445363 0.039132 0.142125
2724 4 0.46893 0.03574 0.149759
1760 4 0.485974 0.0326212 0.141695
1759 2 0.491456 0.0264418 0.118096
2744 4 0.48394 0.0323229 0.160862
1761 4 0.496939 0.0202623 0.0944961
700 2 0.0763205 0.101101 0.0993289
702 4 0.0770354 0.115098 0.120035
476 4 0.0761346 0.127589 0.135526
701 4 0.0756056 0.0871032 0.0786229
475 2 0.0937719 0.140205 0.147974
581 4 0.300948 0.10909 0.163279
580 2 0.27892 0.117005 0.172069
628 2 0.366768 0.130999 0.153507
312 4 0.372525 0.089551 0.153117
629 4 0.378863 0.109131 0.154331
630 4 0.354673 0.152866 0.152683
339 4 0.0939793 0.241391 0.138924
337 2 0.0776309 0.246904 0.157022
738 4 0.247918 0.215474 0.0943548
736 2 0.24875 0.194913 0.108558
737 4 0.249582 0.174352 0.122761
461 4 0.305202 0.238148 0.108402
460 2 0.328503 0.236323 0.117285
354 4 0.28591 0.243065 0.112412
254 4 0.358805 0.173027 0.14976
462 4 0.351803 0.234499 0.126169
255 4 0.361019 0.220342 0.133727
253 2 0.359912 0.196684 0.141743
765 4 0.363071 0.236165 0.143572
624 4 0.370035 0.238131 0.126489
622 2 0.383963 0.239844 0.105794
623 4 0.397891 0.241557 0.0851002
763 2 0.354046 0.247325 0.164046
551 4 0.0977077 0.343964 0.0871161
537 4 0.195127 0.314087 0.0954498
535 2 0.204016 0.329622 0.11291
536 4 0.212904 0.345156 0.13037
352 2 0.277831 0.247346 0.135684
353 4 0.269752 0.251626 0.158956
755 4 0.267828 0.2705 0.16156
387 4 0.329199 0.304675 0.118952
301 2 0.32678 0.306422 0.162075
278 4 0.262289 0.254866 0.173977
302 4 0.332483 0.301762 0.138181
385 2 0.346416 0.317147 0.105792
15 3 0.376445 0.327277 0.108637
386 4 0.363634 0.329619 0.0926317
12 3 0.413737 0.328672 0.108094
672 4 0.415055 0.336285 0.0860109
528 4 0.478278 0.278358 0.103213
526 2 0.455058 0.272751 0.0958238
527 4 0.431839 0.267144 0.0884346
315 4 0.0011096 0.375712 0.12521
647 4 0.0732665 0.345869 0.164349
417 4 0.141884 0.404483 0.124214
415 2 0.163074 0.412857 0.134511
291 4 0.200366 0.413337 0.13516
289 2 0.224084 0.41462 0.14297
416 4 0.184264 0.421231 0.144808
290 4 0.247802 0.415903 0.15078
11 1 0.394422 0.340734 0.104841
13 3 0.394176 0.358628 0.119609
595 2 0.485928 0.413045 0.127939
597 4 0.474731 0.39825 0.1447
645 4 0.471416 0.380423 0.152583
104 3 0.490809 0.342605 0.126935
1791 4 0.0654474 0.487207 0.130379
1466 4 0.0490464 0.47771 0.138149
1465 2 0.0298425 0.471806 0.153033
1440 4 0.159599 0.495818 0.11268
637 2 0.234791 0.496394 0.140819
607 2 0.298754 0.427772 0.0950373
608 4 0.316474 0.432814 0.111941
768 4 0.260603 0.42859 0.14635
767 4 0.272093 0.474584 0.130438
766 2 0.266348 0.451587 0.138394
638 4 0.25644 0.484087 0.138578
659 4 0.336071 0.435813 0.116962
660 4 0.376887 0.428803 0.0889319
658 2 0.356479 0.432308 0.102947
525 4 0.404573 0.494027 0.138348
596 4 0.497126 0.427839 0.111178
17 3 0.0398908 0.0403621 0.173473
2480 4 0.0243401 0.0296106 0.183702
1422 4 0.0220491 0.0146099 0.19449
2479 2 0.0126985 0.0446788 0.199907
20 3 0.0750245 0.052506 0.176798
2481 4 0.00105694 0.0597471 0.216112
578 4 0.0932266 0.0507485 0.166356
674 4 0.144231 0.0264229 0.212501
673 2 0.129847 0.0150466 0.229497
689 4 0.15593 0.0096884 0.208248
577 2 0.107814 0.0685159 0.17619
579 4 0.122402 0.0862833 0.186024
654 4 0.256321 0.00572317 0.183508
652 2 0.275293 0.00794949 0.199642
653 4 0.294265 0.0101758 0.215775
311 4 0.370001 0.0500727 0.183708
758 4 0.365184 0.0608293 0.200297
759 4 0.342469 0.056113 0.244598
757 2 0.353826 0.0584711 0.222447
310 2 0.371263 0.0698118 0.168412
511 2 0.0379478 0.135451 0.224029
513 4 0.0589234 0.139001 0.237166
381 4 0.00808555 0.123662 0.194827
512 4 0.0169721 0.131901 0.210891
379 2 0.0014168 0.100347 0.200918
393 4 0.061771 0.150388 0.254182
477 4 0.111409 0.15282 0.160421
450 4 0.1391 0.0958802 0.179738
448 2 0.158272 0.111491 0.183465
449 4 0.177445 0.127103 0.187191
237 4 0.239848 0.123864 0.169057
691 2 0.235363 0.110748 0.24638
693 4 0.212798 0.110126 0.235627
236 4 0.194395 0.136467 0.185668
235 2 0.217121 0.130165 0.177363
582 4 0.256891 0.12492 0.180859
26 1 0.316914 0.165108 0.247178
28 3 0.321567 0.142381 0.246681
521 4 0.485349 0.143492 0.219911
332 4 0.487898 0.127186 0.228359
762 4 0.480858 0.145491 0.237916
760 2 0.459514 0.14878 0.250518
391 2 0.0750882 0.171098 0.249833
394 2 0.0177733 0.23696 0.228655
395 4 0.0373863 0.229822 0.214887
392 4 0.0884053 0.191808 0.245484
277 2 0.243854 0.238231 0.176914
279 4 0.22542 0.221595 0.17985
27 3 0.317331 0.173256 0.22567
338 4 0.0612825 0.252417 0.175119
363 4 0.0666585 0.266326 0.189476
361 2 0.0804173 0.283131 0.201865
749 4 0.0790823 0.304604 0.228232
748 2 0.0845893 0.326295 0.239383
370 2 0.13295 0.301141 0.22498
372 4 0.111763 0.293386 0.214203
362 4 0.0941761 0.299935 0.214254
371 4 0.154137 0.308896 0.235758
734 4 0.15985 0.325012 0.243938
285 4 0.326546 0.256775 0.190493
284 4 0.280042 0.246695 0.175116
283 2 0.303294 0.251735 0.182804
754 2 0.264993 0.291281 0.175172
756 4 0.262157 0.312063 0.188783
612 4 0.258288 0.310018 0.208344
610 2 0.264308 0.304706 0.232024
307 2 0.325234 0.30022 0.22394
308 4 0.333687 0.3019 0.200469
303 4 0.321076 0.311082 0.18597
729 4 0.306658 0.324773 0.189647
309 4 0.316781 0.29854 0.247412
764 4 0.34502 0.258485 0.18452
264 4 0.00646397 0.385469 0.251016
646 2 0.0825378 0.347075 0.187539
648 4 0.0918091 0.348282 0.210728
727 2 0.310057 0.349053 0.194554
728 4 0.313457 0.373334 0.19946
445 2 0.429985 0.37156 0.219875
447 4 0.443316 0.375203 0.199037
644 4 0.461288 0.385555 0.201285
643 2 0.466352 0.382989 0.176934
1467 4 0.0106386 0.465903 0.167918
1757 4 0.0793193 0.448141 0.237028
1756 2 0.0940867 0.467129 0.243852
1758 4 0.108854 0.486117 0.250676
231 4 0.472906 0.471297 0.241397
229 2 0.461785 0.483874 0.222868
232 2 0.0269235 0.0292843 0.290516
233 4 0.0509452 0.0336295 0.285107
1404 4 0.0672716 0.0245577 0.287619
1402 2 0.0828161 0.0138675 0.27121
316 2 0.0730191 0.057024 0.30615
317 4 0.0635037 0.034712 0.300083
428 4 0.0683458 0.014285 0.303027
318 4 0.0825345 0.0793359 0.312218
427 2 0.0620975 0.997077 0.320057
732 4 0.0967144 0.0777545 0.325327
675 4 0.115463 0.00367042 0.246493
1403 4 0.0983606 0.00317736 0.254801
25 3 0.324059 0.0430303 0.249475
24 3 0.313946 0.0676435 0.276113
21 1 0.33087 0.0537961 0.268352
23 3 0.336554 0.0383193 0.284679
22 3 0.349342 0.0666232 0.263513
351 4 0.410554 0.0622303 0.271708
349 2 0.391558 0.0779496 0.275861
479 4 0.451838 0.0328749 0.298351
478 2 0.43836 0.042831 0.279792
2664 4 0.472241 0.0365164 0.305094
480 4 0.424883 0.0527872 0.261234
1428 4 0.459667 0.0235536 0.309842
258 4 0.44247 0.028742 0.316268
2662 2 0.495176 0.0417847 0.296644
399 4 0.0866697 0.0940828 0.325287
721 2 0.250417 0.11442 0.299875
722 4 0.242322 0.119067 0.323071
692 4 0.257928 0.111369 0.257132
723 4 0.258513 0.109773 0.276679
632 4 0.361604 0.109727 0.279525
350 4 0.372562 0.0936689 0.280014
631 2 0.349607 0.129361 0.269738
707 4 0.342404 0.162093 0.271891
633 4 0.337611 0.148994 0.259951
761 4 0.43817 0.152068 0.26312
546 4 0.125941 0.188021 0.2625
544 2 0.142574 0.204721 0.270845
545 4 0.159207 0.221421 0.27919
402 4 0.174524 0.233855 0.273399
378 4 0.23997 0.249185 0.316287
30 3 0.29627 0.16862 0.256131
29 3 0.332974 0.176209 0.259717
706 2 0.346768 0.178812 0.289964
708 4 0.351133 0.19553 0.308037
269 4 0.463291 0.245226 0.332234
442 2 0.00888602 0.27875 0.267017
444 4 0.0120023 0.297941 0.282738
443 4 0.00576974 0.259559 0.251295
400 2 0.188501 0.254335 0.276622
401 4 0.202478 0.274815 0.279844
676 2 0.186357 0.296939 0.314355
345 4 0.206079 0.293339 0.28061
677 4 0.194578 0.2893 0.292012
343 2 0.229742 0.292956 0.272542
735 4 0.190906 0.303733 0.276853
733 2 0.175378 0.314372 0.260395
344 4 0.253405 0.292573 0.264473
611 4 0.270328 0.299393 0.255703
376 2 0.261595 0.25952 0.309167
496 2 0.313853 0.282247 0.279038
497 4 0.300923 0.265447 0.292296
377 4 0.283221 0.269855 0.302047
498 4 0.326782 0.299047 0.26578
541 2 0.392126 0.304948 0.316602
2537 4 0.502312 0.331064 0.322527
420 4 0.403176 0.277704 0.33357
365 4 0.0418711 0.376367 0.289383
601 2 0.0528576 0.371944 0.326726
603 4 0.051921 0.365924 0.302476
364 2 0.0170345 0.373856 0.287964
549 4 0.0621452 0.396464 0.347181
750 4 0.0900963 0.347986 0.250534
299 4 0.156506 0.342556 0.254176
298 2 0.132022 0.347107 0.256408
300 4 0.107537 0.351659 0.258641
433 2 0.307373 0.382373 0.302162
435 4 0.291046 0.386602 0.283703
434 4 0.3237 0.378145 0.320621
446 4 0.416654 0.367917 0.240712
543 4 0.390966 0.329923 0.316274
614 4 0.343552 0.378479 0.320581
615 4 0.375096 0.340549 0.312396
613 2 0.359324 0.359514 0.316488
412 2 0.235834 0.482319 0.288132
1436 4 0.221288 0.458225 0.323091
413 4 0.225165 0.467101 0.304857
414 4 0.246503 0.497538 0.271406
5 3 0.29173 0.482452 0.327031
3 3 0.310412 0.449837 0.324811
1803 4 0.371034 0.484571 0.271376
1801 2 0.354551 0.491867 0.288704
119 3 0.492838 0.453226 0.316733
1742 4 0.416827 0.488426 0.332463
714 4 0.480193 0.462203 0.334507
712 2 0.456726 0.47072 0.335912
367 2 0.0693711 0.0325439 0.409142
369 4 0.0498864 0.0220287 0.420759
1781 4 0.101639 0.028335 0.400798
368 4 0.0888558 0.043059 0.397525
730 2 0.117105 0.079318 0.339713
1780 2 0.119062 0.0111007 0.39584
731 4 0.137496 0.0808814 0.354099
606 4 0.15333 0.0832379 0.366606
604 2 0.177103 0.0756671 0.368255
605 4 0.200875 0.0680963 0.369904
248 4 0.218275 0.0783359 0.370821
1701 4 0.324486 0.0325927 0.400627
1699 2 0.327857 0.0399191 0.37696
441 4 0.312219 0.0210546 0.409099
439 2 0.30426 0.997373 0.410104
1700 4 0.331227 0.0472456 0.353292
699 4 0.346122 0.0471852 0.340734
697 2 0.370642 0.0422946 0.34076
698 4 0.395163 0.0374039 0.340787
257 4 0.41035 0.0445456 0.351186
425 4 0.329282 0.0222133 0.417303
2879 4 0.492114 0.0739061 0.399223
256 2 0.42641 0.0366438 0.333727
2584 2 0.0108155 0.10937 0.346114
397 2 0.0662901 0.104617 0.335231
398 4 0.0459105 0.115151 0.345175
2586 4 0.0296145 0.121682 0.357078
458 4 0.0333329 0.135594 0.371669
457 2 0.0384738 0.142072 0.395265
459 4 0.0436147 0.148551 0.418861
600 4 0.154153 0.124384 0.366707
598 2 0.145607 0.147845 0.368039
249 4 0.242933 0.104969 0.336421
404 4 0.246424 0.1241 0.34111
247 2 0.230604 0.0916523 0.353621
683 4 0.231595 0.105343 0.406323
403 2 0.243097 0.145475 0.353649
682 2 0.253691 0.112783 0.39729
319 2 0.296853 0.148091 0.393231
684 4 0.275787 0.120224 0.388257
321 4 0.302058 0.167928 0.407534
320 4 0.291648 0.128254 0.378928
725 4 0.415552 0.109295 0.410498
724 2 0.416493 0.0843103 0.41078
2878 2 0.494625 0.0942076 0.4136
390 4 0.0834287 0.243902 0.351253
599 4 0.137061 0.171305 0.36937
389 4 0.129386 0.2382 0.370124
686 4 0.137244 0.182386 0.385162
685 2 0.120494 0.192628 0.400645
275 4 0.142536 0.18278 0.354448
388 2 0.106407 0.241051 0.360689
687 4 0.103744 0.20287 0.416127
274 2 0.161095 0.198623 0.348991
472 2 0.217884 0.198898 0.35015
474 4 0.198754 0.213909 0.344327
276 4 0.179653 0.214465 0.343535
405 4 0.239769 0.16685 0.366187
473 4 0.237014 0.183888 0.355972
715 2 0.411036 0.190545 0.35605
466 2 0.386566 0.203876 0.403191
716 4 0.403911 0.200422 0.377887
467 4 0.384517 0.20584 0.37835
717 4 0.418162 0.180667 0.334214
270 4 0.484284 0.221861 0.371146
452 4 0.476053 0.214183 0.387588
268 2 0.473788 0.233543 0.35169
451 2 0.46083 0.213497 0.407411
419 4 0.445843 0.252436 0.340032
2801 4 0.999813 0.270929 0.389924
2800 2 0.996713 0.289566 0.406301
618 4 0.0636183 0.322877 0.384134
616 2 0.0828354 0.314068 0.370782
617 4 0.102053 0.305259 0.35743
374 4 0.112142 0.288704 0.348617
373 2 0.135759 0.29385 0.342218
375 4 0.159376 0.298997 0.33582
678 4 0.178135 0.304577 0.336699
509 4 0.210629 0.349611 0.364684
508 2 0.228147 0.332158 0.360983
510 4 0.245665 0.314705 0.357281
488 4 0.33012 0.264277 0.406058
542 4 0.393285 0.279974 0.316929
418 2 0.42451 0.26507 0.336801
347 4 0.0480855 0.333364 0.381461
602 4 0.0537942 0.377963 0.350977
346 2 0.0388409 0.351299 0.396228
348 4 0.0295963 0.369233 0.410995
668 4 0.32165 0.393265 0.401327
336 4 0.334727 0.376303 0.399836
334 2 0.359156 0.374551 0.404867
335 4 0.383586 0.372798 0.409898
240 4 0.396696 0.361087 0.41903
752 4 0.478444 0.410706 0.39714
561 4 0.468327 0.397968 0.409753
547 2 0.0710508 0.418308 0.355469
548 4 0.0799563 0.440153 0.363757
407 4 0.0881016 0.452939 0.375928
406 2 0.103232 0.45616 0.395572
408 4 0.118362 0.459381 0.415216
1435 2 0.242351 0.447002 0.330546
1 1 0.295732 0.462604 0.337457
438 4 0.320141 0.452992 0.343749
1437 4 0.263413 0.435778 0.338001
4 3 0.275813 0.451095 0.340487
2 3 0.305201 0.466627 0.358031
636 4 0.295484 0.487837 0.40747
437 4 0.364427 0.431661 0.35294
436 2 0.342284 0.442327 0.348345
593 4 0.405947 0.457407 0.387753
588 4 0.424873 0.449327 0.389145
592 2 0.411667 0.463564 0.364204
586 2 0.429528 0.427867 0.401103
713 4 0.43326 0.479237 0.337317
753 4 0.495928 0.437249 0.358534
117 3 0.491508 0.458789 0.35388
751 2 0.487186 0.423978 0.377837
594 4 0.417387 0.469722 0.340655
719 4 0.0374829 0.0294463 0.435431
718 2 0.0182037 0.0225174 0.449765
962 4 0.312664 0.0265738 0.427293
961 2 0.301968 0.0459811 0.438874
963 4 0.291272 0.0653884 0.450456
424 2 0.353862 0.0239814 0.421532
426 4 0.378441 0.0257495 0.42576
726 4 0.417434 0.0593261 0.411062
1218 4 0.423536 0.0467311 0.489829
432 4 0.303539 0.0770335 0.461225
430 2 0.311157 0.085192 0.483598
431 4 0.318775 0.0933505 0.505972
2880 4 0.497136 0.114509 0.427978
642 4 0.496171 0.11641 0.447266
640 2 0.478874 0.13135 0.457404
641 4 0.461577 0.14629 0.467541
260 4 0.0467137 0.167772 0.423093
259 2 0.0659485 0.183405 0.419807
261 4 0.0851834 0.199039 0.416522
1035 4 0.0941707 0.21202 0.429788
1033 2 0.0894635 0.230736 0.445685
489 4 0.355033 0.248503 0.446447
468 4 0.388616 0.201912 0.428033
411 4 0.351959 0.234224 0.459179
516 4 0.398088 0.196213 0.459824
409 2 0.368003 0.216028 0.453123
410 4 0.384046 0.197831 0.447067
575 4 0.401722 0.178882 0.467304
266 4 0.352829 0.238412 0.479825
574 2 0.396503 0.172195 0.490825
585 4 0.498703 0.225975 0.456607
514 2 0.421246 0.196985 0.450428
515 4 0.444405 0.197757 0.441032
453 4 0.445607 0.212812 0.427235
2802 4 0.993613 0.308203 0.422679
2847 4 0.99839 0.306051 0.441874
1034 4 0.0847563 0.249452 0.461583
1258 2 0.102652 0.286902 0.471869
1259 4 0.11409 0.30908 0.470306
9 3 0.128163 0.32026 0.463742
1260 4 0.0912134 0.264723 0.473432
696 4 0.0999126 0.258106 0.490316
858 4 0.227118 0.273565 0.495297
487 2 0.342577 0.25639 0.426253
326 4 0.0575361 0.351684 0.469164
325 2 0.0797117 0.348653 0.458018
10 3 0.146608 0.337409 0.435753
6 1 0.136259 0.340504 0.455803
7 3 0.118616 0.355008 0.453063
327 4 0.101887 0.345622 0.446872
709 2 0.161187 0.407695 0.482555
8 3 0.151158 0.349616 0.471079
503 4 0.225629 0.361183 0.468459
502 2 0.213397 0.377239 0.483215
710 4 0.183961 0.402953 0.491721
667 2 0.320641 0.411599 0.418299
238 2 0.412397 0.379667 0.424813
882 4 0.386825 0.375565 0.486087
3309 4 0.490508 0.399162 0.460372
559 2 0.486195 0.398604 0.427232
3307 2 0.482355 0.393298 0.48327
239 4 0.428097 0.398248 0.430596
1381 2 0.0138393 0.489699 0.474173
1383 4 0.0122654 0.466714 0.464459
680 4 0.005422 0.455369 0.448697
570 4 0.163534 0.4968 0.448605
711 4 0.138412 0.412436 0.473389
384 4 0.121627 0.417649 0.463563
569 4 0.131675 0.464653 0.427338
382 2 0.117258 0.436694 0.447962
568 2 0.147605 0.480726 0.437971
383 4 0.112889 0.455739 0.432361
1543 2 0.204621 0.494076 0.438945
1544 4 0.225744 0.492586 0.42565
634 2 0.302452 0.465986 0.417427
774 4 0.313366 0.442349 0.447687
773 4 0.30144 0.43165 0.495058
669 4 0.319632 0.429933 0.43527
635 4 0.309421 0.444135 0.427385
772 2 0.307403 0.436999 0.471373
587 4 0.434184 0.406408 0.413061
661 2 0.477034 0.480529 0.452185
663 4 0.468396 0.465021 0.434577
342 4 0.212544 0.0644335 0.527163
340 2 0.201984 0.0441178 0.517116
1152 4 0.212316 0.0812356 0.53661
341 4 0.191424 0.0238022 0.507069
2430 4 0.179611 0.00826217 0.506902
2428 2 0.160104 0.00187017 0.521177
1217 4 0.388868 0.0671362 0.519535
842 4 0.384179 0.0866252 0.517054
1216 2 0.406202 0.0569337 0.504682
3007 2 0.491406 0.0349689 0.577623
3009 4 0.493245 0.0482847 0.55654
1058 4 0.0857758 0.111306 0.535615
1057 2 0.0996089 0.110337 0.556421
1059 4 0.113442 0.109369 0.577227
1155 4 0.119925 0.126691 0.581837
1150 2 0.223127 0.0885998 0.557919
1151 4 0.233938 0.095964 0.579228
1180 2 0.213651 0.148591 0.549006
1181 4 0.201581 0.129132 0.559048
1182 4 0.225722 0.16805 0.538964
1032 4 0.252965 0.092649 0.580468
843 4 0.336268 0.100328 0.512871
841 2 0.360224 0.0934766 0.514963
576 4 0.391285 0.165507 0.514346
470 4 0.0205418 0.168677 0.513917
1199 4 0.0287027 0.219545 0.570703
1198 2 0.00570072 0.22566 0.563042
469 2 0.0120375 0.189991 0.523844
471 4 0.0035331 0.211305 0.533772
695 4 0.0652463 0.234034 0.517139
694 2 0.0825794 0.24607 0.503728
1272 4 0.0895418 0.17874 0.580012
900 4 0.246229 0.168286 0.542341
947 4 0.218931 0.251704 0.560193
898 2 0.263588 0.186096 0.539769
650 4 0.298582 0.214702 0.538583
899 4 0.280948 0.203906 0.537196
649 2 0.293801 0.229158 0.51875
982 2 0.01304 0.328696 0.568722
1244 4 0.0502001 0.247468 0.576446
1243 2 0.0411518 0.270519 0.579902
983 4 0.0212527 0.305331 0.572158
1245 4 0.0321035 0.29357 0.583358
798 4 0.234511 0.246307 0.569363
856 2 0.223555 0.263729 0.518007
857 4 0.219992 0.253893 0.540717
946 2 0.201495 0.260302 0.575917
948 4 0.18406 0.2689 0.591641
796 2 0.257801 0.252891 0.57564
651 4 0.289019 0.243614 0.498918
797 4 0.281091 0.259475 0.581917
791 4 0.296115 0.259882 0.596186
872 4 0.356931 0.275256 0.562021
871 2 0.366243 0.297728 0.567805
873 4 0.375555 0.320201 0.57359
267 4 0.346435 0.281069 0.505129
811 2 0.41105 0.330465 0.577768
813 4 0.389841 0.321711 0.587705
265 2 0.349632 0.259741 0.492477
1010 4 0.501831 0.331223 0.526695
906 4 0.495791 0.319861 0.580355
2457 4 0.491566 0.315224 0.519211
953 4 0.477421 0.31473 0.584521
984 4 0.0048272 0.35206 0.565285
3354 4 0.993204 0.366151 0.575256
504 4 0.201164 0.393295 0.497971
1190 4 0.260706 0.363654 0.570314
803 4 0.255979 0.365178 0.550684
804 4 0.287593 0.389639 0.520636
802 2 0.271786 0.377409 0.53566
930 4 0.322317 0.371913 0.561215
928 2 0.336666 0.388364 0.549022
929 4 0.351015 0.404814 0.536829
881 4 0.35712 0.399351 0.518531
880 2 0.371973 0.387458 0.502309
812 4 0.432259 0.339219 0.567832
1011 4 0.470891 0.367087 0.510659
1009 2 0.486361 0.349155 0.518677
927 4 0.426793 0.356989 0.565639
925 2 0.432732 0.380333 0.558931
3308 4 0.474201 0.387433 0.506168
926 4 0.438672 0.403676 0.552224
538 2 0.100228 0.448254 0.564838
540 4 0.110202 0.469515 0.57342
1160 4 0.114733 0.486113 0.564872
1159 2 0.138114 0.486731 0.573711
539 4 0.0902544 0.426993 0.556256
2244 4 0.0963054 0.479967 0.563242
2154 4 0.224775 0.496696 0.585734
1951 2 0.380728 0.500596 0.557318
1952 4 0.357913 0.49261 0.550927
890 4 0.354708 0.481387 0.566579
889 2 0.340888 0.46952 0.583706
1002 4 0.444554 0.415781 0.568262
1909 2 0.433689 0.492192 0.582863
1082 4 0.0588378 0.0589078 0.662556
1081 2 0.0611193 0.0750646 0.643611
1083 4 0.0634007 0.0912214 0.624665
2114 4 0.00163212 0.00464377 0.610319
825 4 0.150767 0.0348246 0.659533
823 2 0.166702 0.0175717 0.650955
1031 4 0.280315 0.0540879 0.596769
1030 2 0.26664 0.0733685 0.588618
951 4 0.284931 0.033392 0.599755
949 2 0.295121 0.011356 0.593775
3008 4 0.489567 0.0216531 0.598705
809 4 0.488563 0.0378374 0.611257
808 2 0.476329 0.0479221 0.630591
810 4 0.464095 0.0580068 0.649925
45 3 0.455956 0.0789465 0.649077
1126 2 0.0251701 0.0923963 0.605335
1127 4 0.049657 0.0890626 0.609138
938 4 0.0806418 0.0982473 0.628757
1271 4 0.115195 0.13862 0.595278
939 4 0.11427 0.116929 0.596806
937 2 0.097456 0.107588 0.612782
1153 2 0.144427 0.12468 0.586398
1270 2 0.102368 0.15868 0.587645
1221 4 0.17706 0.123965 0.607795
1154 4 0.168929 0.12267 0.590959
1219 2 0.186064 0.144645 0.618586
1210 2 0.238013 0.160004 0.6309
1220 4 0.195068 0.165325 0.629376
886 2 0.29642 0.164996 0.648529
1211 4 0.261479 0.15179 0.628241
888 4 0.275392 0.162875 0.635168
1194 4 0.329435 0.157599 0.650464
1192 2 0.348422 0.149949 0.636106
1193 4 0.367408 0.142299 0.621748
3426 4 0.490713 0.133431 0.653813
3424 2 0.478366 0.112434 0.659457
878 4 0.045061 0.227938 0.575935
877 2 0.0578285 0.206683 0.579163
879 4 0.070596 0.185429 0.582392
1212 4 0.214547 0.168217 0.633559
887 4 0.317447 0.167116 0.66189
1137 4 0.15671 0.325714 0.617408
1135 2 0.162699 0.303605 0.607383
1136 4 0.168687 0.281496 0.597359
1064 4 0.175125 0.310028 0.668823
1063 2 0.188014 0.330609 0.662865
792 4 0.315138 0.305062 0.586306
790 2 0.305627 0.282472 0.591246
1238 4 0.308376 0.321738 0.578608
806 4 0.297536 0.326504 0.661077
952 2 0.46253 0.298427 0.596254
954 4 0.44764 0.282125 0.607988
3123 4 0.484687 0.254896 0.656509
1041 4 0.0596556 0.397487 0.638893
3264 4 0.0406614 0.39868 0.645707
3262 2 0.0328524 0.380846 0.661396
3240 4 0.0290644 0.415711 0.641608
1039 2 0.0809703 0.391849 0.6271
1040 4 0.102285 0.386212 0.615306
993 4 0.118862 0.379108 0.62445
991 2 0.137334 0.362387 0.622367
992 4 0.155806 0.345665 0.620285
1189 2 0.243095 0.368935 0.587259
897 4 0.171042 0.336819 0.612393
896 4 0.207969 0.368376 0.600509
895 2 0.189505 0.352597 0.606451
1172 4 0.224807 0.392526 0.613114
1191 4 0.225483 0.374216 0.604205
1171 2 0.218417 0.416694 0.613612
1239 4 0.318299 0.370696 0.58092
1237 2 0.313338 0.346217 0.579764
1206 4 0.395084 0.392206 0.619135
1204 2 0.41294 0.409381 0.6225
3238 2 0.00727074 0.424847 0.633438
1161 4 0.161495 0.487349 0.58255
1188 4 0.162715 0.474196 0.597023
1186 2 0.177467 0.456917 0.607463
1173 4 0.212027 0.440862 0.61411
1187 4 0.192218 0.439637 0.617902
891 4 0.327067 0.457653 0.600833
1205 4 0.430797 0.426556 0.625865
1911 4 0.443804 0.476358 0.59936
1000 2 0.446132 0.436822 0.581677
1001 4 0.44771 0.457863 0.595091
1269 4 0.45714 0.465595 0.608812
1267 2 0.46458 0.483466 0.624639
943 2 0.0416222 0.0234162 0.686953
944 4 0.0413819 0.0482012 0.690243
1076 4 0.0497622 0.0632024 0.680493
945 4 0.0418625 0.998631 0.683663
1283 4 0.146512 0.0497855 0.672929
1282 2 0.143814 0.073162 0.681381
1148 4 0.243909 0.0722813 0.685755
1090 2 0.326663 0.998153 0.723119
1147 2 0.25995 0.053283 0.688383
1149 4 0.275992 0.0342848 0.691012
1092 4 0.329036 0.0170849 0.706959
1004 4 0.360488 0.084098 0.730436
42 3 0.46003 0.0490873 0.671094
41 1 0.452019 0.0706177 0.669904
43 3 0.429209 0.0703792 0.674154
1163 4 0.469875 0.062203 0.687055
1162 2 0.48915 0.0570097 0.702112
44 3 0.462902 0.0835592 0.685794
1075 2 0.0521991 0.0812365 0.69764
864 4 0.0488396 0.0952186 0.730346
1077 4 0.0546359 0.0992706 0.714787
1107 4 0.0690798 0.0984393 0.72729
851 4 0.0720338 0.10913 0.711297
862 2 0.0309674 0.0967712 0.747763
850 2 0.0834036 0.125124 0.695801
852 4 0.0947734 0.141118 0.680306
1284 4 0.141116 0.0965384 0.689833
1105 2 0.0880337 0.0960506 0.743421
909 4 0.152771 0.106599 0.702126
1226 4 0.245437 0.0924065 0.687337
907 2 0.175175 0.108179 0.713115
908 4 0.197579 0.10976 0.724103
1227 4 0.213721 0.117621 0.716646
1225 2 0.229579 0.105014 0.701991
830 4 0.314247 0.174407 0.681219
829 2 0.321843 0.158427 0.698886
831 4 0.329439 0.142447 0.716553
1003 2 0.346489 0.103284 0.722619
1005 4 0.33249 0.12247 0.714802
3425 4 0.46602 0.0914364 0.665101
1179 4 0.0326343 0.236087 0.685393
1177 2 0.0108666 0.235683 0.697688
1073 4 0.0587436 0.221243 0.735687
1072 2 0.0824004 0.227551 0.74076
1074 4 0.106057 0.23386 0.745833
978 4 0.293626 0.198205 0.736716
1142 4 0.444531 0.192718 0.731731
1144 2 0.482901 0.177708 0.731588
1025 4 0.435331 0.179477 0.668635
1262 4 0.46607 0.205762 0.709654
1024 2 0.444484 0.186264 0.690891
1026 4 0.453637 0.193051 0.713147
1261 2 0.466983 0.229801 0.716471
1145 4 0.46308 0.192242 0.726997
1209 4 0.138013 0.269575 0.716856
1207 2 0.129689 0.255793 0.735986
821 4 0.148641 0.266392 0.700198
820 2 0.154287 0.282369 0.681812
822 4 0.159933 0.298345 0.663425
805 2 0.280503 0.314861 0.675201
807 4 0.26347 0.303218 0.689325
1263 4 0.467897 0.25384 0.723288
3263 4 0.0250434 0.363013 0.677086
1280 4 0.052772 0.360162 0.745516
1279 2 0.0486339 0.382401 0.734863
816 4 0.0691226 0.364701 0.755693
1281 4 0.0444958 0.40464 0.724209
1065 4 0.200903 0.35119 0.656908
1028 4 0.234006 0.368462 0.712
1066 2 0.202432 0.355103 0.728698
1068 4 0.219355 0.354854 0.710293
1027 2 0.238551 0.388415 0.697633
1029 4 0.243097 0.408368 0.683267
1067 4 0.185509 0.355353 0.747103
1018 2 0.387213 0.357113 0.724848
1020 4 0.38922 0.380684 0.716753
1019 4 0.385206 0.333541 0.732943
1983 4 0.0502947 0.423313 0.718218
1981 2 0.0556155 0.44014 0.73593
1982 4 0.0609363 0.456968 0.753641
2016 4 0.162964 0.505022 0.722457
1138 2 0.262701 0.448054 0.68248
1140 4 0.250354 0.427074 0.688186
1175 4 0.19961 0.457279 0.700485
1174 2 0.187487 0.474232 0.714298
1176 4 0.175364 0.491185 0.728111
1139 4 0.275049 0.469034 0.676774
1987 2 0.30396 0.469854 0.728317
1229 4 0.319267 0.451638 0.705091
1989 4 0.320168 0.471216 0.709327
1228 2 0.331212 0.445523 0.683993
1988 4 0.287751 0.468492 0.747306
1230 4 0.343156 0.439408 0.662895
2989 2 0.00711561 0.0646012 0.784737
2990 4 0.00141305 0.0853104 0.771939
2049 4 0.126835 0.0187498 0.776018
1202 4 0.110957 0.0293021 0.786478
2047 2 0.140108 0.00530496 0.75964
1201 2 0.113169 0.0538293 0.790803
1203 4 0.115381 0.0783565 0.795127
1257 4 0.216899 0.0763891 0.775646
817 2 0.332087 0.0417011 0.818066
819 4 0.32653 0.0638679 0.828211
818 4 0.337644 0.0195344 0.80792
974 4 0.343549 0.00153181 0.814263
844 2 0.499922 0.0770291 0.799623
1113 4 0.430949 0.0365228 0.763263
1111 2 0.452184 0.0470107 0.77128
845 4 0.490482 0.0568267 0.788313
1112 4 0.473418 0.0574986 0.779296
863 4 0.0130951 0.0983238 0.76518
833 4 0.996696 0.104448 0.771599
832 2 0.99904 0.118278 0.792297
834 4 0.0013837 0.132108 0.812995
1125 4 0.0164264 0.131867 0.825377
1123 2 0.0381571 0.144186 0.824291
1106 4 0.106988 0.0936619 0.759552
911 4 0.11121 0.105236 0.821563
34 3 0.106877 0.0940048 0.779265
31 1 0.117074 0.105565 0.796607
35 3 0.10202 0.119407 0.806629
32 3 0.124894 0.0904195 0.812055
33 3 0.134967 0.117893 0.788467
840 4 0.235148 0.112454 0.823293
1255 2 0.229355 0.092188 0.790492
1256 4 0.241811 0.107987 0.805339
1085 4 0.316475 0.0803714 0.828152
1084 2 0.298294 0.0875155 0.812545
1086 4 0.280113 0.0946596 0.796938
47 3 0.407139 0.163916 0.813233
48 3 0.403597 0.162167 0.775856
1023 4 0.398135 0.152842 0.827666
1208 4 0.121365 0.242011 0.755116
1277 4 0.189608 0.24873 0.802925