ITEM: TIMESTEP
2220000
ITEM: NUMBER OF ATOMS
4590
ITEM: BOX BOUNDS pp pp pp
-9.9985700000000008e+00 9.9985700000000008e+00
-9.9985700000000008e+00 9.9985700000000008e+00
-9.9985700000000008e+00 9.9985700000000008e+00
ITEM: ATOMS id type xs ys zs
1666 2 0.0181705 0.0762328 0.05901
1668 4 0.00307037 0.0569079 0.0638797
2974 2 0.467851 0.0177305 0.00669424
2976 4 0.479289 0.999538 0.0194771
745 2 0.445712 0.0753048 0.0090848
747 4 0.449332 0.0510094 0.00441535
1667 4 0.0332706 0.0955577 0.0541403
701 4 0.0409038 0.103926 0.0709055
700 2 0.0584158 0.119897 0.0788721
566 4 0.178836 0.15276 0.0286283
565 2 0.20061 0.160298 0.0189189
297 4 0.315027 0.107608 0.0170675
295 2 0.338341 0.107169 0.00804534
558 4 0.42426 0.0993908 0.00609186
746 4 0.442091 0.0996002 0.0137542
555 4 0.0469457 0.236807 0.0160343
567 4 0.222383 0.167837 0.00920955
573 4 0.251264 0.257812 0.0497537
770 4 0.397953 0.192815 0.0117219
359 4 0.380215 0.19527 0.0198448
358 2 0.360635 0.194846 0.00430125
664 2 0.392676 0.219842 0.0437091
665 4 0.397175 0.200225 0.0288719
666 4 0.388178 0.239458 0.0585463
623 4 0.392532 0.246198 0.0779236
769 2 0.419685 0.18428 0.00277348
2807 4 0.00859896 0.268823 0.0748399
2835 4 0.998924 0.254859 0.0831599
292 2 0.12734 0.280116 0.0513068
507 4 0.160203 0.303696 0.0641975
293 4 0.147447 0.294911 0.0527117
294 4 0.107233 0.26532 0.0499019
287 4 0.163706 0.301098 0.0449251
286 2 0.170958 0.302379 0.0210306
505 2 0.176944 0.295392 0.0808108
481 2 0.23065 0.274977 0.0767351
482 4 0.251974 0.270865 0.0643417
288 4 0.17821 0.303659 0.997136
571 2 0.267994 0.269892 0.0356348
572 4 0.284725 0.281971 0.021516
357 4 0.299208 0.272033 0.0133891
355 2 0.30869 0.291336 0.000633895
323 4 0.394127 0.256457 0.0618111
1069 2 0.40267 0.325538 0.0240972
322 2 0.4047 0.274438 0.0480243
955 2 0.34591 0.332053 0.00979355
324 4 0.415274 0.292419 0.0342375
1070 4 0.42195 0.309617 0.0240363
280 2 0.447032 0.311598 0.0521813
281 4 0.452528 0.309038 0.0764386
282 4 0.441535 0.314159 0.027924
550 2 0.117041 0.335023 0.0782088
455 4 0.133102 0.358332 0.0432602
552 4 0.127395 0.345006 0.0577561
454 2 0.152931 0.357313 0.0280634
456 4 0.17276 0.356294 0.0128667
1290 4 0.277321 0.394633 0.0267291
250 2 0.273047 0.413132 0.0594817
1288 2 0.276186 0.379255 0.00704583
1071 4 0.383391 0.341459 0.0241581
741 4 0.372121 0.345288 0.0407993
739 2 0.374239 0.345292 0.065713
957 4 0.364681 0.33787 0.0252539
1788 4 0.0733808 0.491282 0.015905
1786 2 0.0953475 0.501717 0.0217157
626 4 0.230192 0.496004 0.0728044
625 2 0.206212 0.500259 0.0671458
245 4 0.23625 0.476724 0.0725761
244 2 0.246397 0.461156 0.0558479
251 4 0.267813 0.410583 0.0351651
246 4 0.256544 0.445587 0.0391197
272 4 0.259906 0.428751 0.0287224
271 2 0.275179 0.435024 0.00994619
1672 2 0.40719 0.444265 0.0660544
853 2 0.397535 0.43762 0.00769335
1674 4 0.417739 0.447105 0.0435635
854 4 0.412592 0.445958 0.0258297
563 4 0.475727 0.46551 0.0460965
562 2 0.451806 0.462145 0.0396459
564 4 0.427884 0.458781 0.0331953
228 4 0.492947 0.454543 0.0436584
18 3 0.0757792 0.00444258 0.165437
19 3 0.0732575 0.0411743 0.156011
491 4 0.256023 0.0686008 0.068536
1474 2 0.283232 0.00736764 0.0917338
1475 4 0.278513 0.0292428 0.102887
492 4 0.281982 0.0497272 0.106885
490 2 0.269002 0.059164 0.0877103
581 4 0.287012 0.080514 0.140533
486 4 0.391832 0.0351375 0.0918619
484 2 0.409601 0.0348336 0.10945
485 4 0.42737 0.0345297 0.127038
2722 2 0.483334 0.0557277 0.138579
2724 4 0.486181 0.0308947 0.139209
1759 2 0.495133 0.00579975 0.117555
2744 4 0.496793 0.0199376 0.150864
2723 4 0.480487 0.0805607 0.137949
702 4 0.0759278 0.135867 0.0868387
476 4 0.0804493 0.142057 0.104001
475 2 0.0901455 0.159834 0.118668
477 4 0.0998418 0.177612 0.133335
737 4 0.207791 0.1548 0.0893442
237 4 0.239722 0.104188 0.155234
582 4 0.254334 0.117242 0.149692
580 2 0.270673 0.0988781 0.145112
628 2 0.377781 0.153127 0.160285
2833 2 0.00768175 0.235536 0.0963916
2625 4 0.00327076 0.202726 0.115718
2834 4 0.01644 0.216212 0.109623
738 4 0.223815 0.198779 0.106944
736 2 0.215803 0.176789 0.098144
460 2 0.316781 0.242636 0.102989
461 4 0.294704 0.243867 0.0913148
354 4 0.280416 0.25024 0.106292
352 2 0.271051 0.251583 0.129437
630 4 0.372271 0.176727 0.154132
254 4 0.360048 0.181407 0.138873
462 4 0.338858 0.241405 0.114663
255 4 0.347475 0.227357 0.123667
253 2 0.353761 0.204382 0.13127
765 4 0.351516 0.243995 0.130962
624 4 0.357015 0.24362 0.113032
622 2 0.374773 0.244909 0.0954778
339 4 0.0362146 0.243657 0.129102
337 2 0.0405055 0.249533 0.153023
657 4 0.00162424 0.269779 0.0941352
551 4 0.106688 0.325039 0.0986616
483 4 0.209327 0.279088 0.0891285
506 4 0.193684 0.287089 0.0974241
537 4 0.200894 0.299864 0.110777
535 2 0.191941 0.294093 0.133398
536 4 0.182988 0.288321 0.156019
353 4 0.261687 0.252927 0.152582
387 4 0.317577 0.313029 0.105507
301 2 0.316361 0.305394 0.149347
302 4 0.314099 0.312271 0.125414
763 2 0.33982 0.25488 0.150195
385 2 0.33904 0.32484 0.100505
671 4 0.447299 0.315394 0.0950373
527 4 0.46225 0.304339 0.09184
670 2 0.426399 0.327462 0.101576
526 2 0.486185 0.303726 0.0990446
647 4 0.0606822 0.345909 0.16495
289 2 0.237259 0.394468 0.156552
416 4 0.200991 0.386531 0.160555
252 4 0.27828 0.41568 0.0837983
290 4 0.256081 0.403312 0.14267
609 4 0.27759 0.414904 0.104135
493 2 0.398833 0.396768 0.0939696
495 4 0.403167 0.372357 0.0972102
386 4 0.360503 0.336651 0.0955023
12 3 0.396502 0.332155 0.127785
15 3 0.362724 0.341517 0.114967
740 4 0.376357 0.345296 0.0906267
672 4 0.4055 0.33953 0.108115
14 3 0.393515 0.35641 0.0992288
11 1 0.383778 0.349195 0.119016
13 3 0.383041 0.366637 0.134302
1791 4 0.04736 0.484927 0.139087
1466 4 0.0609087 0.469886 0.14176
1465 2 0.0592873 0.454312 0.122267
1467 4 0.0576658 0.438737 0.102774
638 4 0.245705 0.480356 0.11591
766 2 0.247222 0.446525 0.135918
637 2 0.229263 0.498896 0.119242
768 4 0.249477 0.421785 0.138748
607 2 0.301071 0.421169 0.110016
767 4 0.244966 0.471265 0.133089
608 4 0.324551 0.427434 0.115897
494 4 0.394498 0.421179 0.0907291
660 4 0.379464 0.433037 0.0897821
1673 4 0.396642 0.441425 0.0885453
659 4 0.333389 0.443056 0.106439
658 2 0.356426 0.438046 0.0981104
1559 4 0.363058 0.491098 0.122606
524 4 0.381172 0.493913 0.131464
523 2 0.394573 0.473258 0.127106
525 4 0.407973 0.452604 0.122748
595 2 0.452758 0.408941 0.156411
596 4 0.452531 0.422605 0.135472
16 1 0.0695187 0.0255526 0.172756
17 3 0.0470829 0.0253139 0.177829
2480 4 0.0315591 0.0277493 0.188875
2481 4 0.000802687 0.0671588 0.187591
2479 2 0.0161809 0.047454 0.188233
20 3 0.081362 0.0311462 0.191387
380 4 0.000784526 0.083584 0.198974
578 4 0.0859319 0.0466268 0.175041
577 2 0.0996569 0.0675245 0.175341
689 4 0.183282 0.00496703 0.225901
1506 4 0.256212 0.00594977 0.173292
652 2 0.290938 0.0192956 0.176771
653 4 0.315472 0.0178677 0.172165
25 3 0.319061 0.044424 0.241651
654 4 0.266404 0.0207236 0.181377
758 4 0.356694 0.0711423 0.189679
759 4 0.334608 0.0589599 0.232859
757 2 0.345651 0.0650511 0.211269
311 4 0.374579 0.0640679 0.183019
379 2 0.0124416 0.105102 0.204098
511 2 0.0441053 0.151823 0.199845
512 4 0.0281067 0.134414 0.19171
381 4 0.0240987 0.12662 0.209222
513 4 0.0601039 0.169231 0.20798
393 4 0.0801092 0.164473 0.207616
579 4 0.113382 0.0884221 0.175642
448 2 0.152856 0.10111 0.176711
450 4 0.128017 0.101108 0.173854
449 4 0.177696 0.101112 0.179568
235 2 0.218808 0.100852 0.168526
236 4 0.197895 0.0975166 0.181818
28 3 0.336668 0.150751 0.229437
26 1 0.32587 0.160479 0.247525
312 4 0.388394 0.110579 0.170913
629 4 0.38329 0.129527 0.166438
310 2 0.381486 0.0873235 0.176966
521 4 0.49558 0.127452 0.217987
332 4 0.485713 0.113263 0.226974
762 4 0.476605 0.130136 0.220605
760 2 0.454125 0.132311 0.231334
761 4 0.431645 0.134487 0.242062
394 2 0.0162002 0.247634 0.225512
391 2 0.0918255 0.186286 0.204134
392 4 0.103542 0.208098 0.200652
279 4 0.233634 0.203906 0.175966
277 2 0.243771 0.226509 0.172572
278 4 0.253908 0.249112 0.169179
284 4 0.271048 0.255496 0.171238
27 3 0.326586 0.183352 0.245191
395 4 0.0329377 0.257237 0.209612
338 4 0.0447963 0.255409 0.176945
363 4 0.0445986 0.261236 0.195112
361 2 0.0560674 0.281192 0.20488
749 4 0.0595722 0.316018 0.223714
648 4 0.0677138 0.317275 0.205341
362 4 0.0675363 0.301148 0.214647
748 2 0.0670984 0.332048 0.241366
370 2 0.109124 0.309734 0.215168
372 4 0.0848755 0.306711 0.20987
371 4 0.133372 0.312757 0.220466
734 4 0.139638 0.324126 0.233927
733 2 0.159156 0.313165 0.245065
755 4 0.244028 0.261103 0.15878
754 2 0.245112 0.283041 0.170726
756 4 0.246196 0.30498 0.182671
611 4 0.244673 0.33155 0.239829
610 2 0.247668 0.327265 0.215378
612 4 0.250663 0.322981 0.190927
283 2 0.294159 0.260701 0.179236
285 4 0.31727 0.265907 0.187233
308 4 0.327362 0.280727 0.181176
303 4 0.318623 0.298518 0.17328
729 4 0.322095 0.315312 0.183753
764 4 0.328125 0.265766 0.169428
307 2 0.337918 0.286937 0.202975
309 4 0.348473 0.293148 0.224774
498 4 0.339327 0.281037 0.237456
646 2 0.064198 0.331592 0.185145
417 4 0.158599 0.405666 0.178924
299 4 0.139983 0.339245 0.249166
291 4 0.218437 0.385624 0.170434
415 2 0.179795 0.396098 0.169739
727 2 0.31749 0.335505 0.19776
728 4 0.312885 0.355699 0.211766
446 4 0.380238 0.371317 0.248766
445 2 0.403497 0.371003 0.239596
447 4 0.426756 0.370689 0.230425
644 4 0.447275 0.372413 0.230013
643 2 0.449312 0.38953 0.211901
597 4 0.452985 0.395277 0.17735
414 4 0.207257 0.477922 0.21342
412 2 0.221994 0.472493 0.232875
645 4 0.451349 0.406646 0.193788
229 2 0.444279 0.47807 0.22769
231 4 0.45676 0.459126 0.238203
230 4 0.431798 0.497014 0.217177
427 2 0.0802348 0.0145873 0.325263
2755 2 0.0119856 0.0578169 0.328574
234 4 0.0172685 0.034686 0.289938
232 2 0.0416624 0.0313839 0.285555
233 4 0.0660564 0.0280818 0.281172
1404 4 0.0822489 0.0150489 0.28374
317 4 0.0832422 0.0336981 0.286974
428 4 0.0863383 0.0218843 0.30214
2756 4 0.016507 0.0461689 0.306916
2478 4 0.00641606 0.0501761 0.291203
316 2 0.0909368 0.0571221 0.291132
318 4 0.0986313 0.0805461 0.29529
730 2 0.139864 0.0812356 0.308915
731 4 0.161954 0.0786224 0.320334
732 4 0.117774 0.0838488 0.297496
606 4 0.15999 0.0635348 0.33412
693 4 0.237574 0.0535305 0.263054
691 2 0.252163 0.0680845 0.277213
24 3 0.311306 0.068956 0.269141
21 1 0.327944 0.0565591 0.258754
22 3 0.343816 0.0709539 0.250386
23 3 0.338024 0.0423886 0.274116
349 2 0.383588 0.068337 0.2516
351 4 0.405088 0.0578711 0.258907
350 4 0.362088 0.0788029 0.244293
480 4 0.423678 0.0492352 0.259509
479 4 0.453025 0.0297894 0.295023
478 2 0.438351 0.0395123 0.277266
2664 4 0.472757 0.0296669 0.289726
1428 4 0.463035 0.0168531 0.30018
258 4 0.455682 0.0275721 0.314092
2662 2 0.49481 0.0407713 0.285784
256 2 0.439367 0.0339844 0.331921
397 2 0.0905043 0.0991031 0.329034
399 4 0.10569 0.0909685 0.310912
721 2 0.266472 0.106634 0.313506
692 4 0.266753 0.0826385 0.291373
30 3 0.304143 0.153683 0.248178
723 4 0.276212 0.100131 0.291415
29 3 0.336597 0.154612 0.267246
632 4 0.368027 0.0945877 0.254521
631 2 0.35969 0.117513 0.260008
707 4 0.352984 0.148842 0.276985
633 4 0.351353 0.140438 0.265495
706 2 0.355004 0.158971 0.299756
443 4 0.00331128 0.237672 0.261085
442 2 0.0155131 0.24615 0.281195
444 4 0.027715 0.254629 0.301305
546 4 0.139217 0.195864 0.26362
544 2 0.160057 0.203269 0.275285
545 4 0.180896 0.210673 0.28695
402 4 0.191239 0.228689 0.287694
473 4 0.22101 0.191508 0.32626
405 4 0.22624 0.170417 0.325684
708 4 0.357024 0.169099 0.322527
344 4 0.230213 0.318411 0.242989
343 2 0.211768 0.304045 0.251854
400 2 0.188212 0.252071 0.279372
401 4 0.185185 0.275454 0.271049
676 2 0.17841 0.306394 0.296072
345 4 0.193323 0.289679 0.260719
677 4 0.179842 0.294757 0.273988
735 4 0.178675 0.302205 0.256204
678 4 0.176978 0.318031 0.318156
510 4 0.194799 0.328588 0.319927
375 4 0.165209 0.306591 0.327873
378 4 0.264218 0.258556 0.31523
376 2 0.28513 0.269251 0.306656
496 2 0.327889 0.280781 0.259689
497 4 0.316451 0.280526 0.281921
377 4 0.306042 0.279946 0.298082
541 2 0.363482 0.299844 0.29886
542 4 0.377476 0.281779 0.309009
420 4 0.391261 0.281584 0.323603
543 4 0.349489 0.31791 0.288711
365 4 0.0112886 0.399003 0.30931
601 2 0.0502414 0.405661 0.325748
603 4 0.0258263 0.401842 0.32194
750 4 0.0746247 0.348078 0.259018
298 2 0.116928 0.34439 0.257361
300 4 0.0938726 0.349535 0.265556
508 2 0.210811 0.347411 0.316125
509 4 0.226823 0.366235 0.312324
433 2 0.303117 0.389212 0.324714
434 4 0.327186 0.39115 0.318227
615 4 0.349954 0.338185 0.29043
614 4 0.337418 0.375873 0.320814
613 2 0.343686 0.357029 0.305622
1757 4 0.0287613 0.445388 0.268899
1756 2 0.0493205 0.456511 0.260023
264 4 0.0196105 0.431123 0.259962
776 4 0.0753624 0.493133 0.323362
775 2 0.0700205 0.49364 0.298941
1758 4 0.0698796 0.467633 0.251147
1775 4 0.0748996 0.483703 0.260359
1436 4 0.234392 0.449487 0.260885
413 4 0.236731 0.467063 0.252331
1435 2 0.249395 0.44767 0.280805
1437 4 0.264398 0.445853 0.300724
4 3 0.262792 0.4482 0.320431
436 2 0.329288 0.454782 0.332238
3 3 0.292192 0.472059 0.323714
438 4 0.304453 0.455271 0.335093
1803 4 0.36952 0.496255 0.281231
1801 2 0.36865 0.480143 0.300332
437 4 0.354124 0.454294 0.329383
1802 4 0.367779 0.464032 0.319433
712 2 0.469174 0.486395 0.328401
714 4 0.490187 0.472871 0.329271
713 4 0.448162 0.499919 0.327531
2757 4 0.00746412 0.0694648 0.350232
2585 4 0.0255773 0.0770089 0.353658
429 4 0.0741313 0.00729039 0.348387
1780 2 0.121943 0.00143488 0.404486
1781 4 0.105257 0.0184677 0.412011
604 2 0.180532 0.0628305 0.348357
605 4 0.201075 0.0621261 0.362594
248 4 0.215486 0.0758988 0.364903
441 4 0.32476 0.00295095 0.395877
962 4 0.325249 0.0111401 0.413053
1701 4 0.333276 0.0140715 0.383432
425 4 0.340271 0.00725999 0.401403
699 4 0.364519 0.0489558 0.351794
698 4 0.412013 0.0486653 0.336145
1699 2 0.339149 0.0328998 0.368064
1700 4 0.345021 0.0517281 0.352696
697 2 0.388266 0.0488105 0.343969
725 4 0.391439 0.0680801 0.389833
424 2 0.363771 0.00712209 0.409942
257 4 0.423053 0.0403968 0.349751
398 4 0.0753187 0.107238 0.347156
2584 2 0.0441928 0.0932608 0.357468
2586 4 0.0628083 0.109513 0.361278
458 4 0.050762 0.11988 0.373203
457 2 0.0417781 0.141052 0.383012
459 4 0.0327941 0.162223 0.392822
600 4 0.111478 0.144591 0.350889
249 4 0.242911 0.114379 0.348536
247 2 0.229199 0.0951389 0.356719
404 4 0.249044 0.129355 0.342849
403 2 0.237642 0.149886 0.334266
722 4 0.256731 0.113138 0.335597
683 4 0.250853 0.123977 0.362773
682 2 0.274315 0.129116 0.369724
684 4 0.297776 0.134255 0.376675
320 4 0.316757 0.137257 0.368425
724 2 0.390736 0.0883918 0.404397
319 2 0.340775 0.144011 0.370065
321 4 0.364793 0.150764 0.371705
726 4 0.390033 0.108703 0.418961
717 4 0.412097 0.15451 0.348861
261 4 0.0688295 0.209311 0.408422
260 4 0.0289032 0.180423 0.399932
259 2 0.0488664 0.194867 0.404177
598 2 0.118276 0.167895 0.35688
599 4 0.125074 0.1912 0.362871
389 4 0.126055 0.222272 0.376037
686 4 0.119854 0.204556 0.377116
685 2 0.102905 0.204059 0.395492
275 4 0.136046 0.203666 0.372443
274 2 0.160127 0.201211 0.366179
388 2 0.126517 0.247023 0.372525
474 4 0.201084 0.20629 0.369678
472 2 0.211047 0.198899 0.347969
276 4 0.184209 0.198756 0.359915
715 2 0.399655 0.169056 0.364949
716 4 0.387214 0.183601 0.381037
467 4 0.379295 0.186111 0.401594
269 4 0.400701 0.223429 0.353314
270 4 0.447878 0.21111 0.364417
452 4 0.458613 0.199731 0.376444
268 2 0.424289 0.21727 0.358866
451 2 0.464629 0.203028 0.400489
346 2 0.0531127 0.322442 0.381277
348 4 0.0291866 0.318996 0.374886
347 4 0.0770389 0.325889 0.387668
618 4 0.0908219 0.313023 0.384181
616 2 0.101016 0.294193 0.371271
390 4 0.12698 0.271775 0.369014
617 4 0.111211 0.275363 0.35836
374 4 0.129814 0.281927 0.353163
373 2 0.147512 0.294259 0.340518
418 2 0.39873 0.262606 0.338068
419 4 0.406198 0.243628 0.352533
602 4 0.0746564 0.40948 0.329556
549 4 0.0869007 0.416792 0.345076
435 4 0.279048 0.387273 0.331202
334 2 0.336073 0.368111 0.41201
238 2 0.391867 0.37352 0.400746
239 4 0.407761 0.392727 0.398834
587 4 0.402871 0.41136 0.392947
335 4 0.357357 0.355128 0.410105
240 4 0.375974 0.354313 0.402658
752 4 0.479615 0.394766 0.369495
561 4 0.478569 0.37713 0.379008
751 2 0.489163 0.414574 0.357593
559 2 0.484819 0.380745 0.402946
548 4 0.0840468 0.440014 0.389273
407 4 0.0775279 0.458895 0.391646
500 4 0.0907745 0.493164 0.336251
499 2 0.0867712 0.484945 0.359523
501 4 0.0827679 0.476726 0.382796
547 2 0.0854737 0.428403 0.367174
406 2 0.0888884 0.461351 0.413784
1 1 0.277267 0.458587 0.335296
5 3 0.265439 0.471114 0.35019
2 3 0.289087 0.442457 0.346665
586 2 0.395523 0.432845 0.382478
593 4 0.40598 0.464893 0.370375
588 4 0.388175 0.454329 0.372009
592 2 0.419839 0.479193 0.355255
753 4 0.49871 0.434383 0.345691
117 3 0.491638 0.455742 0.346896
594 4 0.433697 0.493493 0.340134
2237 4 0.997659 0.00751351 0.467968
720 4 0.0105394 0.0168861 0.457135
367 2 0.0821968 0.0333932 0.446874
369 4 0.0653152 0.0406981 0.46381
719 4 0.0549362 0.0284596 0.477027
718 2 0.0327378 0.0226729 0.467081
368 4 0.0990783 0.0260883 0.429938
341 4 0.186649 0.0117235 0.502411
961 2 0.315837 0.0266698 0.430241
963 4 0.306424 0.0421996 0.447428
432 4 0.309504 0.0624376 0.44954
430 2 0.314997 0.0685531 0.473154
431 4 0.320489 0.0746685 0.496768
426 4 0.387271 0.0069842 0.418481
640 2 0.482432 0.0928776 0.436472
641 4 0.464735 0.0955597 0.45393
1035 4 0.0753927 0.218527 0.423482
1033 2 0.0742371 0.233952 0.443127
1034 4 0.0730815 0.249376 0.462772
687 4 0.0859565 0.203562 0.413868
487 2 0.323627 0.242815 0.456747
466 2 0.388233 0.189858 0.424643
468 4 0.39717 0.193604 0.447692
411 4 0.359732 0.232001 0.478731
409 2 0.378891 0.217618 0.471573
410 4 0.398051 0.203236 0.464415
266 4 0.346341 0.241439 0.488655
489 4 0.341083 0.233132 0.471804
575 4 0.413209 0.200543 0.475679
516 4 0.413018 0.201958 0.456168
574 2 0.423064 0.194845 0.497941
514 2 0.434981 0.20891 0.446447
515 4 0.456943 0.215862 0.436726
453 4 0.470644 0.206324 0.424533
696 4 0.0817597 0.246198 0.480624
1260 4 0.0791637 0.264277 0.473787
1258 2 0.0966578 0.281947 0.471162
1259 4 0.114152 0.299617 0.468536
9 3 0.135227 0.296518 0.455111
7 3 0.118354 0.312774 0.484499
6 1 0.134263 0.315692 0.468143
8 3 0.154811 0.319441 0.47825
327 4 0.109522 0.322854 0.4651
10 3 0.128569 0.333576 0.455245
488 4 0.30617 0.252498 0.44169
651 4 0.250395 0.257995 0.499405
1009 2 0.469409 0.301572 0.493949
1011 4 0.462608 0.321002 0.479757
2457 4 0.475292 0.263035 0.498722
2455 2 0.495498 0.24892 0.494517
326 4 0.0661176 0.346514 0.457551
325 2 0.0878199 0.334684 0.461326
709 2 0.151013 0.402167 0.487454
711 4 0.132417 0.40166 0.470748
384 4 0.130145 0.415122 0.456384
503 4 0.211638 0.352519 0.502818
710 4 0.169609 0.402673 0.504161
668 4 0.305182 0.397908 0.40849
336 4 0.31479 0.381094 0.413915
560 4 0.49107 0.38436 0.426885
3309 4 0.486125 0.373976 0.441777
3307 2 0.477881 0.356644 0.457803
3308 4 0.469637 0.339311 0.473828
1381 2 0.0186477 0.484984 0.455779
1383 4 0.00815862 0.464993 0.445031
680 4 0.0143181 0.449011 0.457359
382 2 0.121238 0.438363 0.453998
408 4 0.100249 0.463806 0.435922
568 2 0.136227 0.48879 0.437748
383 4 0.112331 0.461604 0.451613
569 4 0.114091 0.477347 0.439805
1556 4 0.237526 0.498814 0.413288
1557 4 0.285364 0.486419 0.420939
634 2 0.313651 0.476167 0.425036
1555 2 0.261445 0.492616 0.417113
635 4 0.325614 0.454212 0.425282
669 4 0.317492 0.438908 0.434339
636 4 0.301688 0.498121 0.424791
667 2 0.311337 0.418408 0.421414
772 2 0.352432 0.444054 0.456388
773 4 0.372106 0.438133 0.470637
774 4 0.332758 0.449976 0.442138
663 4 0.496559 0.492189 0.43094
1152 4 0.20222 0.0626228 0.542985
342 4 0.201941 0.0544967 0.523324
340 2 0.194295 0.0331101 0.512867
1150 2 0.218942 0.0803904 0.548449
949 2 0.295464 0.0330049 0.568708
951 4 0.292201 0.0577579 0.570057
1031 4 0.29695 0.0766798 0.566774
950 4 0.298727 0.00825186 0.567359
1217 4 0.396215 0.0505214 0.511451
842 4 0.383951 0.0655659 0.515899
841 2 0.360232 0.0647626 0.508029
843 4 0.336512 0.0639592 0.500158
1216 2 0.41774 0.063083 0.509437
1218 4 0.439266 0.0756446 0.507424
1270 2 0.0721445 0.145242 0.576878
1271 4 0.0852613 0.125109 0.569963
1058 4 0.0820173 0.130334 0.503094
1057 2 0.0860393 0.126101 0.527406
1059 4 0.0900613 0.121868 0.551718
1155 4 0.103942 0.121014 0.564296
939 4 0.090497 0.107653 0.5666
1153 2 0.127082 0.129719 0.568028
1221 4 0.166889 0.148611 0.573623
937 2 0.087512 0.0898041 0.583854
1154 4 0.150222 0.138424 0.57176
1151 4 0.235664 0.098158 0.553914
1180 2 0.221908 0.137022 0.556889
1181 4 0.225466 0.113216 0.563658
1182 4 0.218351 0.160827 0.55012
1032 4 0.253275 0.100817 0.563523
1030 2 0.275113 0.0887482 0.565148
1198 2 0.00998098 0.233038 0.559515
1199 4 0.0297591 0.232587 0.574805
878 4 0.046545 0.231724 0.583739
1244 4 0.0628377 0.243294 0.57906
695 4 0.091052 0.217268 0.520341
694 2 0.0864058 0.231733 0.500482
900 4 0.216367 0.179519 0.545563
898 2 0.237664 0.186182 0.534284
899 4 0.258961 0.192846 0.523005
650 4 0.259483 0.213212 0.519719
649 2 0.254939 0.235603 0.509562
576 4 0.432919 0.189147 0.520203
982 2 0.010896 0.300212 0.574102
983 4 0.0337318 0.292654 0.580927
856 2 0.206439 0.272476 0.530447
857 4 0.186748 0.275058 0.545639
798 4 0.209224 0.274462 0.57269
947 4 0.191518 0.269506 0.563214
946 2 0.173073 0.280344 0.576157
858 4 0.226129 0.269894 0.515256
267 4 0.364864 0.284514 0.506041
265 2 0.355602 0.262976 0.497348
1010 4 0.476211 0.282143 0.508141
502 2 0.19894 0.373685 0.498825
504 4 0.186242 0.394851 0.494832
803 4 0.268347 0.35961 0.576408
804 4 0.272497 0.381408 0.531594
802 2 0.270422 0.370509 0.554001
928 2 0.341323 0.390781 0.570389
929 4 0.362886 0.394663 0.558342
881 4 0.358831 0.37548 0.551764
880 2 0.378725 0.364811 0.541013
882 4 0.398619 0.354141 0.530262
926 4 0.430471 0.403356 0.580425
539 4 0.101151 0.43283 0.552149
540 4 0.0954507 0.476377 0.576063
2244 4 0.0998684 0.493147 0.568287
538 2 0.0983008 0.454604 0.564106
1160 4 0.113984 0.486233 0.579052
2154 4 0.234399 0.489829 0.553768
1953 4 0.41772 0.499564 0.543446
1909 2 0.442813 0.487915 0.573793
1081 2 0.0770119 0.0652517 0.644225
938 4 0.0845271 0.0719552 0.601107
1083 4 0.0746435 0.0682369 0.619513
1126 2 0.0341405 0.0813047 0.604917
1082 4 0.0793803 0.0622666 0.668937
1127 4 0.0550247 0.0725525 0.61552
824 4 0.199594 0.00489062 0.665202
3007 2 0.497237 0.0690974 0.582071
3008 4 0.493581 0.0530239 0.600871
809 4 0.482699 0.0380996 0.60945
808 2 0.472767 0.0486828 0.62981
810 4 0.462836 0.0592659 0.650171
45 3 0.456541 0.0812507 0.648972
1128 4 0.0132563 0.0900569 0.594314
1272 4 0.0590277 0.165374 0.583792
1219 2 0.171549 0.158272 0.596209
1192 2 0.324282 0.149441 0.649394
886 2 0.266469 0.165303 0.658933
1193 4 0.344133 0.149393 0.634191
3424 2 0.486959 0.108997 0.664377
3425 4 0.46968 0.0909559 0.66544
877 2 0.0549643 0.208181 0.583787
879 4 0.0633836 0.184637 0.583835
1220 4 0.17621 0.167933 0.618795
1212 4 0.183648 0.172887 0.636844
1210 2 0.207832 0.171592 0.643059
1211 4 0.232016 0.170298 0.649275
888 4 0.248377 0.180899 0.651541
1245 4 0.0371207 0.282524 0.596389
1243 2 0.0499792 0.262909 0.587724
948 4 0.154629 0.291182 0.589101
1136 4 0.15437 0.300685 0.605704
1135 2 0.156408 0.324974 0.611278
822 4 0.14956 0.317423 0.65037
820 2 0.151548 0.293126 0.655926
1064 4 0.151396 0.329531 0.665814
796 2 0.22807 0.278258 0.588678
797 4 0.246915 0.282053 0.604667
791 4 0.263384 0.290577 0.606541
790 2 0.281197 0.305936 0.598055
792 4 0.299009 0.321294 0.589568
872 4 0.33322 0.2763 0.59224
871 2 0.352932 0.28962 0.599935
813 4 0.385384 0.31862 0.609384
873 4 0.372643 0.30294 0.607631
954 4 0.488288 0.260709 0.596984
3123 4 0.483384 0.260409 0.654118
1041 4 0.0541441 0.383759 0.628448
3264 4 0.0467919 0.371272 0.64324
3240 4 0.0366876 0.385405 0.63579
3238 2 0.018594 0.397659 0.647941
1039 2 0.0737395 0.380657 0.613231
3262 2 0.0540791 0.351438 0.656608
1137 4 0.158446 0.349262 0.616853
1040 4 0.0933349 0.377554 0.598013
993 4 0.107682 0.38868 0.606383
991 2 0.129401 0.376296 0.606681
992 4 0.15112 0.363911 0.606978
897 4 0.169272 0.361012 0.603747
1189 2 0.243786 0.369884 0.604077
896 4 0.208583 0.38312 0.625347
895 2 0.188928 0.372066 0.614547
1172 4 0.228509 0.398417 0.604387
1191 4 0.223208 0.381364 0.612442
1238 4 0.299513 0.334436 0.603906
1190 4 0.264363 0.358404 0.595713
1239 4 0.327677 0.375094 0.596527
1237 2 0.313595 0.354765 0.600216
930 4 0.31976 0.386899 0.582437
806 4 0.25038 0.357235 0.66815
811 2 0.388426 0.342023 0.601125
1204 2 0.370686 0.39231 0.635863
1205 4 0.368449 0.402579 0.65855
1206 4 0.372922 0.382041 0.613175
927 4 0.389003 0.383246 0.599833
812 4 0.391468 0.365427 0.592867
925 2 0.409737 0.393301 0.590129
1002 4 0.440574 0.412621 0.595199
1159 2 0.135224 0.485263 0.592208
1161 4 0.156464 0.484292 0.605365
1188 4 0.170866 0.472686 0.616402
1171 2 0.228714 0.422341 0.61165
1186 2 0.194751 0.466449 0.612432
1173 4 0.228919 0.446266 0.618913
1187 4 0.218637 0.460212 0.608462
2172 4 0.168719 0.477706 0.662459
1911 4 0.460358 0.475737 0.586796
1001 4 0.449251 0.461862 0.596054
1000 2 0.444913 0.437241 0.595626
1269 4 0.462009 0.472548 0.605895
1267 2 0.460234 0.487462 0.625885
943 2 0.0518109 0.0325091 0.689462
944 4 0.0683723 0.049541 0.69726
1076 4 0.0810075 0.0614804 0.687871
1075 2 0.0760269 0.078517 0.705482
945 4 0.0352494 0.0154771 0.681664
825 4 0.16807 0.0414489 0.678258
1149 4 0.216018 0.0513672 0.698287
1283 4 0.161273 0.0543767 0.692851
823 2 0.183832 0.0231697 0.67173
1147 2 0.235075 0.0669451 0.693889
1148 4 0.254132 0.0825231 0.68949
1092 4 0.31277 0.012247 0.677461
41 1 0.452552 0.0726715 0.669688
43 3 0.429968 0.0743588 0.674741
42 3 0.458602 0.0504803 0.669992
1163 4 0.470025 0.0622022 0.685062
1162 2 0.485186 0.049373 0.700252
2321 4 0.495153 0.0382715 0.735449
4581 4 0.502646 0.0188537 0.739241
864 4 0.0662252 0.0881214 0.739743
1077 4 0.0710463 0.0955536 0.723092
851 4 0.0731995 0.113665 0.72705
850 2 0.0705905 0.134232 0.713072
852 4 0.0679814 0.154798 0.699093
1107 4 0.0826094 0.098894 0.738017
1282 2 0.162707 0.0789544 0.697217
1284 4 0.164141 0.103532 0.701582
909 4 0.171687 0.121729 0.693136
907 2 0.190301 0.134541 0.682433
908 4 0.208916 0.147352 0.67173
1227 4 0.227652 0.138247 0.673195
1225 2 0.243143 0.119082 0.677428
1194 4 0.304432 0.149488 0.664597
887 4 0.284561 0.149708 0.666325
1226 4 0.258634 0.0999171 0.681661
829 2 0.306797 0.131079 0.699058
1005 4 0.335851 0.109032 0.717588
830 4 0.295575 0.141346 0.679212
831 4 0.318018 0.120812 0.718903
1003 2 0.33765 0.0908769 0.734685
44 3 0.465088 0.0840825 0.685531
1113 4 0.451415 0.113525 0.729453
1111 2 0.457874 0.0985352 0.748394
1025 4 0.425233 0.166514 0.676292
1072 2 0.0986028 0.252914 0.74852
1130 4 0.140131 0.243204 0.736593
1208 4 0.130747 0.246509 0.720802
1074 4 0.119388 0.247454 0.735739
976 2 0.320619 0.215664 0.731231
977 4 0.30159 0.222654 0.745868
978 4 0.339648 0.208674 0.716594
1024 2 0.438967 0.17657 0.694606
1142 4 0.448542 0.184597 0.732064
1144 2 0.488517 0.178256 0.726984
1262 4 0.465993 0.198553 0.706885
1026 4 0.452702 0.186626 0.712921
1261 2 0.470096 0.222154 0.69972
1145 4 0.466507 0.190036 0.725564
1263 4 0.474199 0.245755 0.692555
1141 2 0.434675 0.178685 0.752011
1177 2 0.0230412 0.260638 0.726209
1179 4 0.0438104 0.271928 0.718063
3263 4 0.0613664 0.331604 0.669975
821 4 0.153536 0.268829 0.661482
1209 4 0.151651 0.267731 0.680635
1207 2 0.141199 0.25712 0.700719
1019 4 0.377465 0.282055 0.709312
1018 2 0.364205 0.300678 0.699187
1020 4 0.350944 0.319301 0.689062
892 2 0.0194202 0.347124 0.732491
1279 2 0.0537734 0.393809 0.739766
894 4 0.0419116 0.356021 0.738828
1280 4 0.054207 0.369345 0.734617
816 4 0.0630134 0.353603 0.739691
814 2 0.0856925 0.343086 0.739219
815 4 0.108372 0.332569 0.738747
1063 2 0.170449 0.343948 0.673184
1065 4 0.189501 0.358366 0.680555
807 4 0.201282 0.347851 0.669547
1028 4 0.226021 0.392403 0.715729
1066 2 0.194477 0.376458 0.741802
1068 4 0.211061 0.388968 0.727887
1027 2 0.232129 0.40609 0.695715
805 2 0.225831 0.352543 0.668849
1281 4 0.0533398 0.418273 0.744915
1983 4 0.0587232 0.432318 0.731853
2016 4 0.149684 0.492397 0.726061
1176 4 0.168907 0.487594 0.717451
1981 2 0.0752187 0.444972 0.745743
1140 4 0.249825 0.435049 0.669384
1175 4 0.216443 0.479442 0.730664
1174 2 0.192675 0.483518 0.724058
1029 4 0.238237 0.419776 0.675701
1138 2 0.268046 0.449498 0.678571
1139 4 0.286267 0.463947 0.687757
1987 2 0.276318 0.457933 0.732105
1229 4 0.296375 0.467102 0.703997
1989 4 0.285537 0.477004 0.718819
2028 4 0.285512 0.479624 0.699971
1228 2 0.320531 0.461611 0.7006
1988 4 0.267098 0.438863 0.745391
2026 2 0.282801 0.503966 0.694938
1230 4 0.344686 0.456121 0.697203
1099 2 0.442225 0.492863 0.678198
1100 4 0.437291 0.475597 0.695597
2989 2 0.0246498 0.0459328 0.793444
2990 4 0.0226255 0.0683616 0.78258
2991 4 0.0266741 0.023504 0.804308
863 4 0.0253501 0.078044 0.766732
3083 4 0.008839 0.078758 0.77128
2047 2 0.124093 0.999633 0.78181
2049 4 0.104941 0.014992 0.786551
1202 4 0.106112 0.0351519 0.790285
1201 2 0.120029 0.0559181 0.789767
1203 4 0.133946 0.0766843 0.789249
817 2 0.331575 0.0481785 0.805153
819 4 0.333872 0.0721993 0.811703
1050 4 0.338076 0.0111447 0.768903
1004 4 0.339449 0.0727218 0.751783
973 2 0.361431 0.999824 0.79712
818 4 0.329279 0.0241577 0.798603
974 4 0.341674 0.0121063 0.787956
2322 4 0.487055 0.055783 0.781585
845 4 0.471969 0.0687152 0.776676
1112 4 0.464333 0.083545 0.767335
844 2 0.472234 0.0791999 0.799374
2320 2 0.491104 0.0470273 0.758517
862 2 0.0457876 0.0830827 0.753238
833 4 0.019551 0.0870471 0.784373
832 2 0.0170956 0.106752 0.799567
834 4 0.0146402 0.126458 0.814761
1125 4 0.0177415 0.126008 0.833669
1105 2 0.0977034 0.0999735 0.757921
1106 4 0.112797 0.101053 0.777825
911 4 0.140166 0.0992667 0.817353
34 3 0.131022 0.0957684 0.774781
31 1 0.146199 0.0996349 0.791901
35 3 0.140252 0.118318 0.803486
32 3 0.146129 0.0815567 0.806125
33 3 0.167532 0.102206 0.783144
1256 4 0.230845 0.128849 0.806189
840 4 0.216079 0.122805 0.820663
1255 2 0.248171 0.116433 0.793119
1085 4 0.325016 0.0886992 0.804679
1257 4 0.265498 0.104018 0.780048
1084 2 0.305325 0.0974057 0.791966
1086 4 0.285633 0.106112 0.779253
960 4 0.33878 0.0897013 0.817914