ITEM: TIMESTEP
2330000
ITEM: NUMBER OF ATOMS
4590
ITEM: BOX BOUNDS pp pp pp
-9.9985700000000008e+00 9.9985700000000008e+00
-9.9985700000000008e+00 9.9985700000000008e+00
-9.9985700000000008e+00 9.9985700000000008e+00
ITEM: ATOMS id type xs ys zs
1666 2 0.0211373 0.0699001 0.0780692
1667 4 0.0390509 0.0777274 0.0624803
2974 2 0.463201 0.0133085 0.0116091
745 2 0.439869 0.0722999 0.0183071
747 4 0.443693 0.0483419 0.0122602
2975 4 0.446579 0.0309681 0.0055228
701 4 0.0383024 0.0947833 0.0717148
700 2 0.0453112 0.118421 0.075876
566 4 0.183939 0.14859 0.0367495
565 2 0.197525 0.155386 0.01689
2264 4 0.226248 0.151541 0.000742527
297 4 0.325521 0.113814 0.0238462
295 2 0.342818 0.11042 0.00611279
556 2 0.400278 0.10649 0.00325565
558 4 0.423046 0.100069 0.0113537
746 4 0.436045 0.0962579 0.0243541
555 4 0.0290761 0.227081 0.999931
770 4 0.395768 0.189471 0.0202377
359 4 0.377747 0.195216 0.0199863
664 2 0.388135 0.21514 0.055014
665 4 0.3868 0.198272 0.0366051
666 4 0.389469 0.232007 0.0734229
623 4 0.397446 0.243494 0.0866508
323 4 0.395769 0.250233 0.0685682
358 2 0.355741 0.196061 0.00814412
769 2 0.413606 0.17563 0.00949449
292 2 0.132981 0.2965 0.04801
507 4 0.162483 0.314717 0.0610164
293 4 0.14934 0.315296 0.0500745
294 4 0.116621 0.277704 0.0459455
287 4 0.168233 0.316006 0.0429388
552 4 0.150851 0.328471 0.0660997
455 4 0.159483 0.331552 0.0497482
286 2 0.182907 0.307047 0.0247846
505 2 0.179742 0.309147 0.0782292
481 2 0.221644 0.274305 0.0703365
482 4 0.236502 0.25904 0.0572434
288 4 0.197582 0.298088 0.00663051
483 4 0.206787 0.289569 0.0834295
573 4 0.256559 0.261639 0.0580916
571 2 0.269798 0.262042 0.0368846
572 4 0.283037 0.262446 0.0156776
956 4 0.330347 0.312573 0.00516432
1069 2 0.405421 0.314748 0.0318046
322 2 0.40986 0.267301 0.0569369
955 2 0.348593 0.318659 0.0211399
957 4 0.366839 0.324745 0.0371154
1071 4 0.385095 0.329226 0.0302534
324 4 0.423951 0.28437 0.0453057
1070 4 0.425748 0.30027 0.0333559
280 2 0.451253 0.305888 0.0589845
281 4 0.456566 0.311421 0.0827822
282 4 0.44594 0.300354 0.0351868
454 2 0.163044 0.354748 0.0411192
550 2 0.133975 0.336007 0.0829402
456 4 0.166606 0.377943 0.0324901
1290 4 0.279007 0.387168 0.0360875
250 2 0.276497 0.403678 0.0628799
1288 2 0.281109 0.378394 0.0127686
251 4 0.268689 0.406159 0.0392567
741 4 0.378887 0.336351 0.0467488
739 2 0.376925 0.340042 0.0714006
1788 4 0.0740985 0.488019 0.037646
1786 2 0.0963518 0.498962 0.0344492
1787 4 0.118605 0.509905 0.0312525
626 4 0.219813 0.479014 0.0762233
625 2 0.197153 0.487649 0.0701272
245 4 0.224706 0.460498 0.0698869
244 2 0.242352 0.448068 0.0572651
246 4 0.259998 0.435639 0.0446434
272 4 0.274775 0.423888 0.0359696
271 2 0.283416 0.435567 0.0156198
1672 2 0.399279 0.438942 0.0687607
853 2 0.395797 0.433918 0.00805021
1674 4 0.406489 0.443594 0.0452757
854 4 0.410843 0.438214 0.027552
564 4 0.415754 0.455373 0.0327312
563 4 0.457838 0.477782 0.0176508
562 2 0.436796 0.466578 0.025191
228 4 0.4718 0.46855 0.0287378
226 2 0.495919 0.464077 0.0335767
1668 4 0.00322376 0.0620728 0.0936582
19 3 0.0689217 0.0464025 0.154986
18 3 0.0644663 0.00884763 0.158753
491 4 0.277549 0.0736569 0.0801429
490 2 0.270717 0.0507259 0.0874009
1475 4 0.258702 0.0161237 0.110194
492 4 0.263886 0.0277949 0.094659
581 4 0.291684 0.0714062 0.147682
654 4 0.259958 0.0247712 0.166519
486 4 0.39617 0.0259677 0.0931915
484 2 0.415276 0.0233052 0.109099
485 4 0.434382 0.0206427 0.125007
2722 2 0.489289 0.0696098 0.146181
2724 4 0.492452 0.0450612 0.142641
1759 2 0.491599 0.00856738 0.1177
2744 4 0.489331 0.0283439 0.152284
1760 4 0.487397 0.0279513 0.132924
702 4 0.05232 0.142059 0.0800372
476 4 0.0564446 0.143756 0.0991786
475 2 0.0706015 0.154694 0.116646
477 4 0.0847583 0.165632 0.134114
450 4 0.129506 0.0959425 0.165993
237 4 0.238927 0.0800803 0.159397
737 4 0.228527 0.154666 0.106382
582 4 0.249322 0.0967981 0.155518
580 2 0.270503 0.0841022 0.1516
628 2 0.382592 0.139438 0.154619
630 4 0.374865 0.161821 0.146587
312 4 0.400212 0.099097 0.161217
629 4 0.39032 0.117056 0.162651
2723 4 0.486125 0.0941583 0.149722
339 4 0.0546601 0.241072 0.143319
2834 4 0.997995 0.218376 0.110073
738 4 0.242967 0.202533 0.107322
736 2 0.235747 0.1786 0.106852
460 2 0.320489 0.233918 0.110108
461 4 0.297019 0.233957 0.101486
354 4 0.281866 0.24221 0.112915
352 2 0.274612 0.246131 0.136519
254 4 0.370323 0.181675 0.14388
462 4 0.343959 0.233879 0.11873
255 4 0.35217 0.227238 0.134123
253 2 0.361246 0.204457 0.139002
765 4 0.350381 0.245845 0.135686
624 4 0.360648 0.242108 0.120484
622 2 0.379047 0.242801 0.103567
337 2 0.0452037 0.251689 0.163887
506 4 0.197001 0.303577 0.0954421
537 4 0.197821 0.308562 0.113659
535 2 0.192513 0.309411 0.138077
536 4 0.187205 0.310261 0.162496
755 4 0.248926 0.260222 0.162762
353 4 0.267358 0.250052 0.160124
301 2 0.316038 0.310041 0.14887
302 4 0.312601 0.322967 0.127744
387 4 0.307673 0.331592 0.10873
763 2 0.339962 0.261958 0.151717
12 3 0.391595 0.330153 0.135161
671 4 0.448016 0.321428 0.0991173
527 4 0.465682 0.314279 0.0991407
670 2 0.425555 0.328529 0.107499
526 2 0.490602 0.314139 0.0971052
647 4 0.0676347 0.340398 0.15606
551 4 0.1171 0.343543 0.0997807
289 2 0.225485 0.394889 0.148246
291 4 0.209977 0.383279 0.164054
290 4 0.240992 0.4065 0.132438
252 4 0.284305 0.401197 0.0865031
609 4 0.281808 0.39811 0.106756
385 2 0.331626 0.337369 0.104478
493 2 0.390155 0.393695 0.100575
495 4 0.396207 0.369663 0.103896
386 4 0.355578 0.343147 0.100225
15 3 0.358239 0.339263 0.121115
740 4 0.374963 0.343732 0.0960524
672 4 0.403094 0.33563 0.115881
14 3 0.389629 0.350619 0.103698
11 1 0.379622 0.346462 0.124216
13 3 0.37969 0.36575 0.137115
1791 4 0.0377644 0.49874 0.126368
1466 4 0.0517503 0.48817 0.117739
1465 2 0.0615044 0.465702 0.112716
1467 4 0.0712585 0.443234 0.107694
637 2 0.219925 0.495893 0.122611
638 4 0.243495 0.489117 0.127482
766 2 0.246182 0.44905 0.140615
768 4 0.246055 0.424047 0.140772
767 4 0.24631 0.474053 0.140459
607 2 0.298047 0.414533 0.116333
608 4 0.314287 0.430957 0.12591
659 4 0.325955 0.433931 0.109916
494 4 0.384103 0.417727 0.0972538
660 4 0.375059 0.43655 0.100823
1673 4 0.392069 0.43429 0.0922457
658 2 0.350507 0.435241 0.10537
1559 4 0.37936 0.498948 0.141095
524 4 0.392156 0.484459 0.138326
523 2 0.391474 0.467326 0.120127
525 4 0.390792 0.450193 0.101929
595 2 0.468584 0.426127 0.167428
596 4 0.483987 0.43446 0.149582
16 1 0.0617641 0.0294375 0.169105
17 3 0.0394521 0.0325511 0.173756
2480 4 0.0307082 0.0250591 0.189331
2479 2 0.0141673 0.0430451 0.19463
20 3 0.0736245 0.02998 0.188539
1422 4 0.0192369 0.00845992 0.189924
2481 4 0.997627 0.0610312 0.19993
578 4 0.0819032 0.0481706 0.175279
577 2 0.101931 0.0631363 0.174982
579 4 0.121959 0.0781021 0.174685
689 4 0.182614 0.00705 0.225762
674 4 0.169474 0.0138668 0.239244
1506 4 0.258411 0.00486204 0.172986
652 2 0.275421 0.0299459 0.185474
653 4 0.290884 0.0351206 0.204429
25 3 0.332182 0.045517 0.246011
758 4 0.348491 0.0771153 0.194651
759 4 0.351874 0.0629796 0.2425
757 2 0.350183 0.0700475 0.218576
311 4 0.365471 0.0711522 0.183863
350 4 0.369323 0.0689407 0.247947
2743 2 0.50198 0.0213277 0.172679
480 4 0.428206 0.0448778 0.245133
379 2 0.0129125 0.0986156 0.186141
511 2 0.0575353 0.147532 0.198383
512 4 0.0368498 0.136826 0.18929
381 4 0.0231642 0.121063 0.182119
448 2 0.153235 0.0982726 0.173522
235 2 0.215961 0.084994 0.167976
236 4 0.192995 0.0899077 0.176555
449 4 0.176964 0.100603 0.181052
28 3 0.319721 0.135217 0.224725
26 1 0.326171 0.146948 0.243677
310 2 0.382841 0.0851246 0.17254
521 4 0.482535 0.128473 0.21831
332 4 0.489094 0.118968 0.232983
762 4 0.479514 0.137148 0.2348
760 2 0.455781 0.131411 0.240183
761 4 0.432047 0.125674 0.245567
520 2 0.499431 0.14482 0.209795
331 2 0.499784 0.0977566 0.240793
513 4 0.0782207 0.158237 0.207476
393 4 0.0929455 0.16963 0.203754
391 2 0.103001 0.188666 0.191038
392 4 0.113057 0.207702 0.178323
279 4 0.239566 0.210438 0.201013
277 2 0.248789 0.229464 0.187667
278 4 0.258013 0.24849 0.174321
27 3 0.335984 0.16672 0.237203
394 2 0.0179265 0.254748 0.236023
395 4 0.0308613 0.267409 0.218772
338 4 0.0357474 0.262306 0.184455
363 4 0.0417496 0.266257 0.202546
361 2 0.0534699 0.28766 0.207996
749 4 0.0540688 0.326731 0.214415
648 4 0.0682875 0.321757 0.202459
362 4 0.0651903 0.309064 0.213446
372 4 0.0831914 0.309344 0.207623
370 2 0.106074 0.31134 0.2175
371 4 0.128958 0.313335 0.227378
734 4 0.134848 0.324849 0.240928
754 2 0.239335 0.282794 0.16763
756 4 0.229745 0.305366 0.172498
611 4 0.230606 0.325699 0.230527
610 2 0.23493 0.322964 0.206053
612 4 0.239254 0.320228 0.181578
344 4 0.234925 0.317511 0.248244
284 4 0.273877 0.256975 0.179098
283 2 0.294059 0.271736 0.179243
285 4 0.31424 0.286497 0.179388
308 4 0.330451 0.288623 0.182487
303 4 0.319475 0.297115 0.169995
729 4 0.314774 0.303338 0.186965
727 2 0.304974 0.321247 0.201402
764 4 0.329543 0.278071 0.167748
307 2 0.340801 0.281084 0.203963
309 4 0.351151 0.273544 0.225439
498 4 0.341066 0.278917 0.241478
748 2 0.0627708 0.339889 0.233814
646 2 0.0679611 0.331078 0.179259
417 4 0.161011 0.408643 0.178095
416 4 0.200824 0.378591 0.181633
415 2 0.180917 0.393617 0.179864
728 4 0.295175 0.339156 0.215839
446 4 0.388392 0.361893 0.24827
445 2 0.408064 0.362521 0.23285
447 4 0.427736 0.363148 0.21743
644 4 0.447488 0.369556 0.220186
643 2 0.453616 0.392245 0.211653
645 4 0.459744 0.414934 0.203119
597 4 0.45318 0.417794 0.185274
1758 4 0.0701789 0.481012 0.249332
414 4 0.219917 0.476405 0.212341
412 2 0.226164 0.464457 0.233397
229 2 0.459966 0.481139 0.237444
231 4 0.466989 0.45724 0.235286
2755 2 0.0107824 0.0744178 0.312312
234 4 0.0190139 0.0423865 0.289939
232 2 0.0427941 0.0348433 0.291607
233 4 0.0665743 0.0273 0.293275
2756 4 0.0160848 0.061531 0.291552
2478 4 0.012473 0.0516518 0.27464
1404 4 0.0828812 0.018354 0.296383
317 4 0.0841054 0.0367467 0.297297
428 4 0.0937125 0.0258938 0.311097
316 2 0.0901832 0.0602276 0.30337
1402 2 0.0961965 0.00665074 0.27875
318 4 0.0962609 0.0837084 0.309444
731 4 0.158178 0.0810634 0.321771
606 4 0.164512 0.0618433 0.324093
693 4 0.266762 0.0419028 0.25824
691 2 0.270354 0.0651192 0.266799
24 3 0.328118 0.062356 0.279441
21 1 0.342555 0.0505264 0.265657
23 3 0.349375 0.0310182 0.276208
22 3 0.361049 0.0635147 0.261363
349 2 0.393608 0.063949 0.251193
351 4 0.417892 0.0589573 0.254439
479 4 0.457691 0.0271115 0.281407
478 2 0.442948 0.0359946 0.26327
2664 4 0.474118 0.0166579 0.279762
1428 4 0.456159 0.0112332 0.287636
258 4 0.450737 0.0253919 0.299
2662 2 0.494398 0.0302285 0.285214
256 2 0.437531 0.0331025 0.318783
397 2 0.0727215 0.107511 0.331076
2757 4 0.00548002 0.0873046 0.333073
730 2 0.134797 0.0892056 0.318277
732 4 0.111415 0.0973478 0.314784
399 4 0.0930962 0.0999058 0.318738
721 2 0.262147 0.108689 0.310769
692 4 0.273947 0.0883357 0.275359
30 3 0.307962 0.151483 0.256581
723 4 0.269655 0.104095 0.287366
722 4 0.254638 0.113283 0.334172
29 3 0.34158 0.134546 0.255808
632 4 0.368457 0.0827642 0.258208
631 2 0.357254 0.103609 0.26628
707 4 0.349595 0.141508 0.270758
633 4 0.34605 0.124454 0.274352
706 2 0.358577 0.154513 0.290132
708 4 0.367559 0.167517 0.309507
396 4 0.0049917 0.242088 0.253274
443 4 0.0105961 0.240944 0.27389
546 4 0.145251 0.185406 0.276754
544 2 0.164608 0.199656 0.269866
545 4 0.183965 0.213905 0.262979
402 4 0.185274 0.233533 0.258078
419 4 0.402728 0.231596 0.329131
442 2 0.0117781 0.252921 0.295807
444 4 0.0129601 0.264897 0.317724
733 2 0.1551 0.313522 0.250242
375 4 0.164758 0.306433 0.334842
343 2 0.213459 0.305441 0.252567
400 2 0.192358 0.256752 0.264065
401 4 0.199441 0.279972 0.270053
676 2 0.182147 0.300591 0.297983
345 4 0.191993 0.29337 0.256891
677 4 0.185552 0.291982 0.274757
735 4 0.175352 0.302196 0.259556
678 4 0.178742 0.3092 0.32121
510 4 0.184413 0.328053 0.325022
378 4 0.269756 0.258222 0.319025
376 2 0.280918 0.274093 0.303255
496 2 0.320848 0.281927 0.255877
497 4 0.30063 0.284937 0.270277
377 4 0.292079 0.289964 0.287485
541 2 0.362186 0.298828 0.301504
542 4 0.3811 0.284956 0.310165
420 4 0.39571 0.274382 0.304214
543 4 0.343271 0.3127 0.292843
615 4 0.346078 0.331509 0.285777
418 2 0.399219 0.252989 0.316672
364 2 0.0128723 0.370031 0.302241
365 4 0.0330752 0.384099 0.297869
601 2 0.0429805 0.412091 0.329074
603 4 0.0379012 0.402286 0.30664
750 4 0.0714728 0.353046 0.253213
299 4 0.131925 0.334579 0.259973
298 2 0.107954 0.340358 0.264116
300 4 0.0839827 0.346136 0.268259
508 2 0.192503 0.350654 0.318029
509 4 0.200593 0.373256 0.311035
433 2 0.30915 0.383516 0.333583
434 4 0.332855 0.387045 0.326454
614 4 0.334949 0.371899 0.313082
613 2 0.340514 0.351704 0.29943
1757 4 0.0395157 0.442168 0.256522
1756 2 0.0548473 0.46159 0.252927
264 4 0.0187831 0.444901 0.255178
776 4 0.0605616 0.488545 0.321055
775 2 0.0682906 0.494915 0.298145
1775 4 0.0779911 0.498196 0.255888
413 4 0.232412 0.452508 0.254454
1436 4 0.237389 0.450347 0.274499
1435 2 0.248683 0.441235 0.294861
1437 4 0.259977 0.432123 0.315223
4 3 0.269701 0.44174 0.330912
3 3 0.301693 0.457751 0.318083
1 1 0.285963 0.457742 0.335141
1801 2 0.37841 0.483242 0.317375
1802 4 0.364104 0.46518 0.327084
119 3 0.497082 0.468796 0.324749
429 4 0.0943719 0.00333118 0.35572
427 2 0.0940422 0.0146125 0.333409
1781 4 0.100195 0.0053686 0.413583
604 2 0.185075 0.0714167 0.334615
605 4 0.205638 0.08099 0.345136
441 4 0.322948 0.00327248 0.402197
1701 4 0.326761 0.00542774 0.384194
425 4 0.339294 7.50712e-05 0.401078
699 4 0.359563 0.0403008 0.351142
698 4 0.408629 0.0311814 0.347965
1699 2 0.333054 0.0228566 0.367407
1700 4 0.339347 0.0402855 0.35062
697 2 0.384096 0.0357411 0.349553
962 4 0.331818 0.0163171 0.411499
257 4 0.424326 0.0408131 0.338565
2585 4 0.99884 0.097326 0.349899
398 4 0.0523469 0.115117 0.343413
2584 2 0.019226 0.111703 0.351603
2586 4 0.0396116 0.12608 0.353308
458 4 0.0484265 0.13118 0.370118
457 2 0.0408595 0.141876 0.391414
600 4 0.114274 0.140593 0.360598
598 2 0.120276 0.163902 0.36737
248 4 0.216183 0.0818349 0.361548
247 2 0.234171 0.0986097 0.357049
403 2 0.248782 0.150399 0.342188
249 4 0.252158 0.115385 0.352551
404 4 0.26073 0.128793 0.346136
683 4 0.268505 0.117571 0.361507
682 2 0.286022 0.12826 0.375792
684 4 0.303539 0.138949 0.390078
320 4 0.321159 0.147493 0.385452
319 2 0.333107 0.154224 0.364545
724 2 0.393576 0.0852196 0.393327
717 4 0.40487 0.154919 0.340019
726 4 0.382267 0.0953508 0.373461
321 4 0.345055 0.160955 0.343638
599 4 0.126277 0.187211 0.374143
389 4 0.127982 0.221334 0.378921
686 4 0.125619 0.202384 0.386237
685 2 0.11063 0.202997 0.406241
275 4 0.136153 0.205137 0.372956
274 2 0.158979 0.20529 0.362751
388 2 0.124879 0.245901 0.375456
473 4 0.231498 0.190231 0.343886
405 4 0.236834 0.172005 0.33824
474 4 0.190742 0.219022 0.340609
472 2 0.21112 0.204626 0.342248
276 4 0.181805 0.205442 0.352546
715 2 0.396631 0.166969 0.360319
716 4 0.388391 0.179018 0.38062
467 4 0.383655 0.183793 0.39906
269 4 0.40782 0.214854 0.33793
270 4 0.438353 0.221966 0.376889
452 4 0.458106 0.217718 0.374724
268 2 0.423087 0.21841 0.357409
451 2 0.46298 0.217812 0.399248
347 4 0.0785734 0.332797 0.392805
618 4 0.0863624 0.315954 0.399872
616 2 0.0976288 0.300058 0.384202
390 4 0.121776 0.270468 0.371991
617 4 0.108895 0.284161 0.368532
374 4 0.128198 0.285093 0.361463
373 2 0.146478 0.295763 0.348153
346 2 0.0545007 0.337905 0.388379
348 4 0.030428 0.343014 0.383953
435 4 0.285446 0.379987 0.340712
334 2 0.32702 0.363983 0.409921
238 2 0.370402 0.388773 0.384776
239 4 0.387731 0.40326 0.374052
587 4 0.402756 0.414875 0.379393
335 4 0.347302 0.355349 0.398118
240 4 0.353073 0.374285 0.3955
2537 4 0.496773 0.346062 0.33715
752 4 0.467625 0.39592 0.376434
561 4 0.472532 0.378075 0.385668
559 2 0.487175 0.373447 0.4054
751 2 0.476793 0.416273 0.365168
602 4 0.0480597 0.421896 0.351507
549 4 0.0619871 0.414427 0.362903
500 4 0.0566154 0.486768 0.34017
499 2 0.0686848 0.483579 0.361834
501 4 0.0807543 0.480391 0.383498
547 2 0.0791386 0.430911 0.370602
548 4 0.0962901 0.447395 0.378302
407 4 0.0885267 0.462621 0.38862
406 2 0.100936 0.47022 0.408953
1544 4 0.23065 0.498575 0.415425
438 4 0.311168 0.453626 0.336563
5 3 0.276356 0.478318 0.336862
2 3 0.296475 0.452608 0.354947
1557 4 0.288573 0.503983 0.409809
436 2 0.336049 0.451331 0.337496
437 4 0.360929 0.449035 0.338428
586 2 0.406127 0.439631 0.378407
593 4 0.396361 0.477788 0.372367
588 4 0.409498 0.464386 0.377421
592 2 0.413106 0.492958 0.36166
116 1 0.499363 0.457176 0.344703
712 2 0.465798 0.493835 0.34295
714 4 0.483166 0.475957 0.340972
753 4 0.48596 0.436625 0.353902
117 3 0.479618 0.458574 0.356421
1772 4 0.00638734 0.998227 0.450121
720 4 0.0125128 0.0153672 0.452173
369 4 0.0807146 0.0240224 0.469209
719 4 0.0592922 0.0230651 0.468083
718 2 0.0359025 0.0192162 0.460128
367 2 0.0939764 0.0213014 0.448187
368 4 0.107238 0.0185803 0.427166
961 2 0.325794 0.0380589 0.422278
963 4 0.319771 0.0598007 0.433058
432 4 0.306134 0.0626569 0.448456
430 2 0.313696 0.0661593 0.47203
431 4 0.321257 0.0696617 0.495604
725 4 0.404885 0.0750884 0.413192
843 4 0.339756 0.0788714 0.493361
1218 4 0.433847 0.0577907 0.491303
459 4 0.0332924 0.152572 0.41271
640 2 0.487389 0.0978016 0.442093
641 4 0.467059 0.0933482 0.455951
261 4 0.0757132 0.201639 0.42362
260 4 0.036178 0.171154 0.420725
259 2 0.0559456 0.186397 0.422173
687 4 0.0956417 0.20361 0.426245
1035 4 0.0841167 0.218041 0.430054
1033 2 0.0840256 0.233439 0.449753
696 4 0.0905454 0.240488 0.48496
488 4 0.32495 0.231143 0.41859
487 2 0.336925 0.231169 0.440539
466 2 0.392149 0.190689 0.421544
468 4 0.400642 0.197584 0.444027
411 4 0.356823 0.219886 0.475361
409 2 0.379815 0.213467 0.467924
410 4 0.402808 0.207049 0.460486
266 4 0.35896 0.240548 0.475489
489 4 0.348899 0.231194 0.462489
575 4 0.416078 0.198765 0.472833
516 4 0.418217 0.203127 0.454055
574 2 0.42167 0.192369 0.496349
514 2 0.440028 0.213749 0.448003
515 4 0.461839 0.224371 0.441952
453 4 0.467854 0.217906 0.423772
2847 4 0.00966867 0.314707 0.438809
2802 4 0.0106019 0.294742 0.43635
325 2 0.0781379 0.332689 0.473715
1034 4 0.0839345 0.248837 0.469453
1260 4 0.0915591 0.261063 0.481923
1258 2 0.10312 0.283037 0.47898
1259 4 0.114682 0.305011 0.476036
9 3 0.132909 0.306472 0.458776
7 3 0.118028 0.320109 0.490482
6 1 0.129307 0.325714 0.471233
327 4 0.102419 0.32678 0.472897
265 2 0.361405 0.258372 0.492852
2457 4 0.467857 0.270832 0.492115
2455 2 0.486614 0.255048 0.497037
326 4 0.0538564 0.338598 0.474533
8 3 0.149619 0.335351 0.476976
10 3 0.116803 0.340502 0.459248
709 2 0.150161 0.416728 0.490299
504 4 0.188929 0.405879 0.493895
336 4 0.306739 0.372616 0.421724
668 4 0.309367 0.391651 0.423547
667 2 0.316148 0.414014 0.432439
1011 4 0.48428 0.332855 0.492574
560 4 0.501818 0.36882 0.425132
3309 4 0.500311 0.365196 0.443012
3307 2 0.490023 0.348403 0.458419
3308 4 0.479736 0.331611 0.473825
1381 2 0.0105166 0.491322 0.453892
1383 4 0.00366475 0.467816 0.448824
711 4 0.126931 0.417571 0.481088
569 4 0.131554 0.473857 0.42641
384 4 0.115129 0.432698 0.478462
382 2 0.117349 0.447656 0.45855
408 4 0.113345 0.477819 0.429287
568 2 0.149675 0.488861 0.434876
383 4 0.119569 0.462614 0.438637
635 4 0.328128 0.456186 0.440878
634 2 0.314517 0.47441 0.430494
669 4 0.32293 0.436378 0.441331
636 4 0.300905 0.492634 0.420111
773 4 0.372781 0.445449 0.484705
772 2 0.356415 0.443994 0.465858
774 4 0.340048 0.442538 0.447012
663 4 0.481534 0.481435 0.455677
1152 4 0.202302 0.0618817 0.536865
342 4 0.192772 0.0492375 0.524646
340 2 0.181012 0.0284898 0.517134
341 4 0.169253 0.0077422 0.509623
951 4 0.301292 0.0666078 0.574577
1031 4 0.295205 0.084982 0.567565
1217 4 0.39629 0.0617745 0.524081
842 4 0.376771 0.0577625 0.519535
841 2 0.358263 0.0683169 0.506448
1216 2 0.415068 0.0597826 0.507692
1270 2 0.0727438 0.14948 0.581411
1271 4 0.0854599 0.130764 0.570772
1058 4 0.0932954 0.128282 0.506199
1057 2 0.0938926 0.124774 0.530948
1059 4 0.0944899 0.121265 0.555697
1155 4 0.104061 0.127256 0.570903
939 4 0.0903492 0.112527 0.572283
1153 2 0.128148 0.133935 0.570266
1154 4 0.152235 0.140614 0.569629
1150 2 0.218179 0.078358 0.546947
1151 4 0.234056 0.0948342 0.557028
1180 2 0.229622 0.126333 0.571027
1181 4 0.224079 0.102115 0.57384
1182 4 0.235166 0.150551 0.568213
1032 4 0.247548 0.0825625 0.552607
1030 2 0.271376 0.0837723 0.560086
1198 2 0.0135532 0.233183 0.555981
1199 4 0.0293434 0.22639 0.574138
878 4 0.0491566 0.226773 0.572867
695 4 0.0630483 0.236476 0.526536
694 2 0.0767968 0.238482 0.505748
877 2 0.0592494 0.206526 0.583514
900 4 0.221008 0.165187 0.566499
898 2 0.230242 0.181435 0.549888
899 4 0.239476 0.197684 0.533278
650 4 0.246282 0.200165 0.514196
649 2 0.242493 0.224873 0.513621
576 4 0.427262 0.185973 0.519864
856 2 0.212709 0.267896 0.540341
857 4 0.192358 0.278617 0.550144
798 4 0.206076 0.274097 0.586021
947 4 0.198493 0.282071 0.567088
946 2 0.178138 0.292025 0.577659
858 4 0.23306 0.257176 0.530539
651 4 0.238704 0.249581 0.513047
267 4 0.363849 0.276197 0.510216
1010 4 0.4631 0.288481 0.501686
1009 2 0.47369 0.310668 0.49713
502 2 0.195874 0.384328 0.504502
503 4 0.202819 0.362777 0.515108
710 4 0.173391 0.415886 0.49951
803 4 0.271725 0.357159 0.572577
804 4 0.269279 0.363756 0.523067
802 2 0.270502 0.360458 0.547822
882 4 0.367843 0.341361 0.510198
928 2 0.35014 0.393889 0.571676
929 4 0.369961 0.393352 0.556445
881 4 0.371776 0.381439 0.539846
880 2 0.369809 0.3614 0.525022
539 4 0.108386 0.437892 0.54169
540 4 0.107948 0.473028 0.577271
2244 4 0.110276 0.487229 0.565629
538 2 0.108167 0.45546 0.559481
1160 4 0.127025 0.480543 0.571764
1953 4 0.417429 0.495543 0.55317
1909 2 0.448512 0.484021 0.563619
1911 4 0.462018 0.473604 0.581901
1910 4 0.435005 0.494438 0.545337
1081 2 0.0767407 0.0698292 0.64409
1083 4 0.0750898 0.0714034 0.619191
1126 2 0.034483 0.0773487 0.604
1127 4 0.0589361 0.0771024 0.609212
1128 4 0.0100299 0.0775949 0.598788
3477 4 0.000702726 0.0724679 0.614944
938 4 0.0872421 0.0735896 0.603507
824 4 0.200568 0.00552798 0.665006
949 2 0.297586 0.0479714 0.590829
950 4 0.293879 0.029335 0.607081
3007 2 0.49545 0.0569555 0.583927
3008 4 0.485673 0.0485749 0.60536
809 4 0.475573 0.032701 0.611711
808 2 0.469362 0.0451097 0.63251
810 4 0.463151 0.0575184 0.65331
45 3 0.459309 0.0796999 0.653819
1221 4 0.15661 0.141828 0.588069
937 2 0.0887956 0.0930581 0.587895
1219 2 0.177557 0.15258 0.596484
1211 4 0.22787 0.163452 0.665888
1192 2 0.336843 0.149376 0.650792
1194 4 0.316237 0.154928 0.66382
1193 4 0.35745 0.143824 0.637765
3424 2 0.488291 0.107799 0.662433
1272 4 0.0600277 0.168196 0.59205
1244 4 0.056985 0.244488 0.579921
879 4 0.0693422 0.186278 0.594161
1220 4 0.198503 0.163331 0.6049
888 4 0.248021 0.167803 0.669574
1212 4 0.212695 0.170213 0.618721
1210 2 0.220283 0.166832 0.642304
982 2 0.00354663 0.295719 0.584858
983 4 0.0200616 0.281753 0.597404
1245 4 0.0362992 0.278824 0.609817
1243 2 0.0466421 0.261656 0.594869
948 4 0.157782 0.301979 0.588231
1135 2 0.153632 0.330339 0.616639
822 4 0.160338 0.325782 0.658993
820 2 0.153053 0.302734 0.665388
1136 4 0.148758 0.309533 0.603656
796 2 0.229677 0.271915 0.593982
797 4 0.253279 0.269734 0.601943
791 4 0.264182 0.286724 0.606979
790 2 0.271456 0.309774 0.60058
872 4 0.335287 0.276662 0.595892
871 2 0.352437 0.294288 0.600405
813 4 0.39052 0.31404 0.606185
873 4 0.369586 0.311915 0.604918
954 4 0.472578 0.265876 0.585514
3123 4 0.494815 0.249654 0.650341
952 2 0.491949 0.278964 0.594381
1041 4 0.046226 0.373304 0.62622
3264 4 0.0461359 0.372119 0.645809
3240 4 0.0362077 0.386103 0.636024
3238 2 0.0145912 0.39733 0.641668
1039 2 0.0682336 0.371915 0.614434
3262 2 0.0445328 0.350578 0.658401
1064 4 0.159404 0.342921 0.645933
1137 4 0.158506 0.351144 0.629622
1040 4 0.0902412 0.370526 0.602648
993 4 0.103941 0.3863 0.604785
991 2 0.125307 0.375357 0.611781
992 4 0.146672 0.364414 0.618777
897 4 0.165354 0.364318 0.61766
1189 2 0.247595 0.360205 0.597415
896 4 0.211588 0.379993 0.606826
895 2 0.188471 0.372155 0.612243
1172 4 0.226802 0.392426 0.601798
1191 4 0.229752 0.375051 0.60671
1063 2 0.174415 0.353573 0.662855
792 4 0.278731 0.332824 0.59418
1238 4 0.283562 0.35032 0.585951
1190 4 0.265437 0.345358 0.588119
1239 4 0.322684 0.379276 0.597427
1237 2 0.303123 0.364798 0.591689
930 4 0.330318 0.394426 0.586908
811 2 0.388576 0.338931 0.604823
1204 2 0.38431 0.379753 0.64298
1205 4 0.377422 0.384311 0.66658
1206 4 0.391199 0.375195 0.61938
927 4 0.38556 0.382636 0.602647
812 4 0.386632 0.363822 0.60346
925 2 0.402857 0.398638 0.594283
926 4 0.420154 0.414639 0.58592
1002 4 0.440438 0.415191 0.586031
1159 2 0.144181 0.484794 0.58945
1161 4 0.161336 0.489045 0.607137
1188 4 0.172093 0.472646 0.608887
1171 2 0.228308 0.417279 0.599511
1186 2 0.191099 0.456925 0.604788
1173 4 0.229813 0.442132 0.597223
1187 4 0.210105 0.441204 0.60069
1001 4 0.461356 0.459407 0.596428
1000 2 0.450897 0.437299 0.59123
1269 4 0.461978 0.478408 0.600713
1267 2 0.461802 0.488627 0.623532
1101 4 0.454365 0.504546 0.662983
1082 4 0.0783917 0.068255 0.66899
943 2 0.046784 0.0259927 0.679496
1076 4 0.0694957 0.0560525 0.683072
1075 2 0.073198 0.0734185 0.700676
945 4 0.0432767 0.00125612 0.678508
944 4 0.0502914 0.0507293 0.680485
1283 4 0.193668 0.062136 0.700363
825 4 0.204383 0.0461647 0.6939
823 2 0.202475 0.0258463 0.679453
1147 2 0.25303 0.0660898 0.69498
1149 4 0.25679 0.0453478 0.708426
1048 2 0.331635 0.00138316 0.747766
1004 4 0.356184 0.0737598 0.742563
41 1 0.455357 0.0705659 0.674303
43 3 0.432895 0.0726933 0.679721
42 3 0.460805 0.0482224 0.673815
1163 4 0.471983 0.0584933 0.690908
1162 2 0.483604 0.0438813 0.70754
44 3 0.468404 0.0811193 0.690328
1164 4 0.495226 0.0292694 0.724171
864 4 0.0697256 0.097288 0.73663
1077 4 0.0769003 0.0907846 0.71828
851 4 0.0789305 0.109067 0.708514
850 2 0.0695583 0.129758 0.698062
852 4 0.060186 0.150448 0.68761
862 2 0.0513623 0.0904419 0.752158
1107 4 0.0831369 0.106437 0.726835
1105 2 0.103986 0.103779 0.740379
1148 4 0.24927 0.0868318 0.681533
1282 2 0.188931 0.0862186 0.705136
1284 4 0.184195 0.110301 0.709908
909 4 0.177426 0.127959 0.702755
907 2 0.19584 0.14008 0.690956
908 4 0.214254 0.1522 0.679157
1227 4 0.224146 0.134362 0.675535
1225 2 0.236866 0.113851 0.669001
1226 4 0.249585 0.0933407 0.662466
886 2 0.271849 0.160256 0.668908
887 4 0.295677 0.15271 0.668243
829 2 0.309686 0.121776 0.690201
1005 4 0.31923 0.0995168 0.720844
830 4 0.309294 0.143097 0.677146
831 4 0.310078 0.100454 0.703255
1003 2 0.337707 0.0866383 0.731703
3425 4 0.472705 0.0893026 0.668767
1113 4 0.49272 0.101185 0.728639
1111 2 0.482717 0.0867717 0.746454
1130 4 0.137866 0.237314 0.742574
1208 4 0.128818 0.240624 0.724911
1074 4 0.118389 0.236759 0.741
1072 2 0.0982168 0.250776 0.745667
976 2 0.328125 0.22496 0.739118
977 4 0.308646 0.225322 0.754789
918 4 0.297971 0.240511 0.750367
978 4 0.347604 0.224598 0.723446
1025 4 0.42679 0.173425 0.672212
1024 2 0.435623 0.1856 0.692185
1142 4 0.443302 0.185439 0.725906
1144 2 0.484597 0.181321 0.717934
1262 4 0.460348 0.207425 0.714908
1026 4 0.444456 0.197776 0.712158
1261 2 0.464883 0.231214 0.708689
1145 4 0.461306 0.189666 0.721549
1141 2 0.430256 0.183307 0.747129
3263 4 0.0429297 0.329036 0.670994
1177 2 0.0107701 0.259016 0.722563
1179 4 0.0336423 0.267154 0.716579
1207 2 0.1363 0.251945 0.70391
821 4 0.145768 0.279686 0.671783
1209 4 0.143782 0.263266 0.682909
1019 4 0.381572 0.273958 0.711765
1018 2 0.377593 0.295813 0.700287
1020 4 0.373614 0.317667 0.688809
1263 4 0.469418 0.255003 0.70247
892 2 0.0237603 0.356914 0.736606
1279 2 0.0537542 0.408417 0.74201
894 4 0.0390579 0.375492 0.743391
1280 4 0.053207 0.384378 0.735152
816 4 0.0585643 0.370854 0.747178
893 4 0.0084627 0.338336 0.729822
1065 4 0.189427 0.364224 0.679778
807 4 0.208787 0.362933 0.680541
1028 4 0.210343 0.389084 0.70726
1066 2 0.19261 0.372575 0.742918
1068 4 0.201231 0.378261 0.720146
1027 2 0.224674 0.407868 0.699076
805 2 0.229767 0.353546 0.690384
806 4 0.250748 0.344159 0.700226
1281 4 0.0543014 0.432455 0.748868
2016 4 0.145757 0.494286 0.723973
1176 4 0.163132 0.486456 0.727818
2172 4 0.172893 0.491482 0.68529
1140 4 0.230431 0.442173 0.680961
1175 4 0.20455 0.464902 0.745726
1174 2 0.183841 0.475679 0.736772
1029 4 0.239004 0.426652 0.690891
1138 2 0.250573 0.456774 0.683471
1139 4 0.270715 0.471374 0.685981
1987 2 0.282279 0.452824 0.732282
1229 4 0.286831 0.470924 0.696675
1989 4 0.281887 0.471091 0.715212
2028 4 0.276831 0.484365 0.700181
1228 2 0.308945 0.469246 0.685129
1230 4 0.331059 0.467569 0.673582
1988 4 0.282671 0.434558 0.749351
1099 2 0.45013 0.497449 0.686582
1100 4 0.445895 0.490353 0.71018
2989 2 0.0273485 0.0558776 0.788222
2990 4 0.0198957 0.0785904 0.78089
2991 4 0.0348012 0.0331648 0.795555
863 4 0.032999 0.0835958 0.767685
2049 4 0.110469 0.0179928 0.792122
1202 4 0.102257 0.0369788 0.7873
1201 2 0.116212 0.0577057 0.78638
1203 4 0.130166 0.0784326 0.785461
32 3 0.143317 0.0822406 0.803062
819 4 0.322851 0.070366 0.806151
817 2 0.329939 0.0469257 0.801103
1050 4 0.339732 0.0188 0.763774
973 2 0.364925 0.0039287 0.794838
818 4 0.337028 0.0234854 0.796054
974 4 0.349853 0.0187078 0.781436
2322 4 0.483429 0.0498448 0.781697
845 4 0.473273 0.0671273 0.783721
1112 4 0.472715 0.072358 0.764269
844 2 0.476316 0.0716222 0.808129
2320 2 0.490998 0.0366665 0.761842
846 4 0.479359 0.0761172 0.832536
3083 4 0.0139335 0.0885345 0.765459
833 4 0.0252816 0.097342 0.778625
832 2 0.0301404 0.111811 0.79843
834 4 0.0349991 0.126281 0.818234
1125 4 0.0407372 0.146321 0.82152
1106 4 0.124835 0.101121 0.753922
911 4 0.134984 0.10077 0.81247
34 3 0.131829 0.0946142 0.769483
31 1 0.144718 0.0996615 0.788106
35 3 0.136989 0.11867 0.797985
33 3 0.166897 0.102433 0.781874
1256 4 0.22135 0.116727 0.805623
840 4 0.216432 0.123189 0.824058
1255 2 0.240426 0.101703 0.799661
1085 4 0.324173 0.0883972 0.797386
1257 4 0.259502 0.0866785 0.793698
1084 2 0.299958 0.0929112 0.793093
1086 4 0.275742 0.0974252 0.788799
960 4 0.328357 0.0856354 0.816128
47 3 0.412675 0.165407 0.808052
1023 4 0.419194 0.155043 0.824166
1129 2 0.159763 0.242981 0.753233
1131 4 0.181659 0.248647 0.763891