ITEM: TIMESTEP
2930000
ITEM: NUMBER OF ATOMS
4590
ITEM: BOX BOUNDS pp pp pp
-9.9985700000000008e+00 9.9985700000000008e+00
-9.9985700000000008e+00 9.9985700000000008e+00
-9.9985700000000008e+00 9.9985700000000008e+00
ITEM: ATOMS id type xs ys zs
1667 4 0.00226782 0.064038 0.0477648
701 4 0.0176956 0.0761645 0.0526618
2974 2 0.459501 0.00868544 0.0312132
745 2 0.442124 0.0609678 0.0189299
747 4 0.437142 0.0369553 0.0238041
2467 2 0.497099 0.0106256 0.0750553
986 4 0.426147 0.0259106 0.0133825
2975 4 0.444027 0.0196843 0.0149422
700 2 0.0315333 0.0958325 0.0595079
702 4 0.045371 0.1155 0.066354
566 4 0.204847 0.161316 0.0355213
565 2 0.220894 0.165302 0.0167663
297 4 0.332251 0.125385 0.014566
295 2 0.351654 0.120092 0.99971
746 4 0.447106 0.0849803 0.0140556
558 4 0.427253 0.0900987 0.0109254
771 4 0.418507 0.136032 0.999574
769 2 0.407872 0.155525 0.011067
555 4 0.072682 0.239702 0.0137161
770 4 0.397238 0.175018 0.02256
359 4 0.385951 0.189477 0.0186051
664 2 0.40283 0.210291 0.0484134
665 4 0.399736 0.190572 0.0333544
666 4 0.405925 0.23001 0.0634723
323 4 0.409843 0.244851 0.0738034
358 2 0.366903 0.191217 0.00250125
623 4 0.390477 0.23902 0.0705003
292 2 0.166217 0.326213 0.0370053
294 4 0.152499 0.321675 0.0165994
293 4 0.179935 0.330752 0.0574111
507 4 0.187042 0.325193 0.0717889
287 4 0.200477 0.330769 0.0594109
286 2 0.2218 0.32608 0.0472252
288 4 0.243124 0.32139 0.0350395
505 2 0.189788 0.302451 0.0818111
481 2 0.227927 0.264857 0.0748244
482 4 0.243552 0.254097 0.0585378
573 4 0.263638 0.254031 0.0586232
571 2 0.27971 0.253765 0.0394715
572 4 0.295782 0.2535 0.0203198
357 4 0.293628 0.268781 0.00734679
956 4 0.337842 0.316522 0.00704617
1069 2 0.409423 0.310091 0.0365956
955 2 0.356012 0.326325 0.0211503
1071 4 0.389752 0.325515 0.0371787
957 4 0.374182 0.336129 0.0352544
322 2 0.421079 0.261 0.0583714
324 4 0.432314 0.27715 0.0429395
1070 4 0.429094 0.294666 0.0360125
280 2 0.459783 0.304191 0.0577326
282 4 0.447617 0.288545 0.0424891
281 4 0.47195 0.319836 0.0729762
671 4 0.460583 0.333237 0.0835067
456 4 0.193676 0.393461 0.0553683
552 4 0.174589 0.339042 0.0757539
454 2 0.19082 0.368943 0.059354
455 4 0.187963 0.344425 0.0633398
1290 4 0.266984 0.401743 0.0404382
250 2 0.257599 0.412429 0.0708732
1288 2 0.276032 0.38064 0.030541
1289 4 0.285079 0.359536 0.0206438
251 4 0.253594 0.416688 0.0465628
741 4 0.387183 0.34017 0.0493879
739 2 0.390702 0.344171 0.073817
328 2 0.00445503 0.406362 0.0218829
329 4 0.0236918 0.391479 0.0276796
1788 4 0.082569 0.46426 0.0823802
1786 2 0.0932363 0.479605 0.0657694
627 4 0.145181 0.493338 0.0555515
1690 2 0.105006 0.505539 0.0111606
626 4 0.18698 0.466518 0.0614111
625 2 0.166081 0.479928 0.0584813
245 4 0.203592 0.461431 0.0716741
244 2 0.225747 0.457192 0.060887
246 4 0.247902 0.452952 0.0501
272 4 0.254756 0.435704 0.0420023
271 2 0.266476 0.436078 0.0199186
1672 2 0.403025 0.434229 0.075781
853 2 0.387489 0.443988 0.0179195
1674 4 0.408764 0.438714 0.0518617
854 4 0.403269 0.44954 0.036503
855 4 0.371709 0.438437 0.999336
564 4 0.422651 0.445662 0.0404292
563 4 0.463378 0.474444 0.0367286
562 2 0.443015 0.460053 0.0385789
228 4 0.483704 0.467466 0.0379025
226 2 0.497535 0.487979 0.0342819
19 3 0.0562203 0.0327782 0.155809
16 1 0.0589221 0.0120873 0.165957
578 4 0.0763979 0.031036 0.168522
577 2 0.0932544 0.0492739 0.171424
579 4 0.110111 0.0675117 0.174325
20 3 0.0794097 0.0108911 0.17583
580 2 0.250196 0.0581963 0.152264
582 4 0.238499 0.0788895 0.144509
491 4 0.25151 0.0636384 0.0914491
581 4 0.261893 0.037503 0.16002
490 2 0.27144 0.0526928 0.0810488
1475 4 0.303184 0.0266336 0.0771279
492 4 0.29137 0.0417473 0.0706485
1474 2 0.298217 0.00214096 0.0763438
1760 4 0.491517 0.0341452 0.153527
486 4 0.43694 0.00940388 0.111513
1759 2 0.490091 0.029814 0.128942
2469 4 0.504142 0.0271925 0.0924079
476 4 0.0648543 0.118656 0.0737235
475 2 0.0776747 0.137602 0.0838163
513 4 0.0611483 0.157318 0.162646
477 4 0.0904952 0.156548 0.093909
237 4 0.23367 0.0965535 0.152888
235 2 0.209991 0.0979959 0.160787
738 4 0.211612 0.169114 0.0863602
628 2 0.370462 0.168227 0.161366
629 4 0.358027 0.147581 0.154711
312 4 0.349112 0.130348 0.158538
2723 4 0.457915 0.0906985 0.166268
393 4 0.0459727 0.169695 0.171662
2759 4 0.997558 0.182082 0.120898
2624 4 0.000125512 0.191408 0.103521
737 4 0.248425 0.201232 0.0970344
736 2 0.230018 0.185173 0.0916973
755 4 0.250488 0.246134 0.164494
460 2 0.326566 0.229031 0.114082
461 4 0.305762 0.215999 0.109333
354 4 0.28797 0.213653 0.119651
352 2 0.277333 0.226317 0.138404
353 4 0.266696 0.238981 0.157157
630 4 0.382897 0.188873 0.168021
462 4 0.34737 0.242063 0.11883
255 4 0.361632 0.237007 0.130113
253 2 0.374613 0.219749 0.142718
622 2 0.377471 0.242849 0.0915091
624 4 0.364465 0.246677 0.112518
254 4 0.387593 0.202492 0.155322
536 4 0.187088 0.260133 0.159114
483 4 0.212303 0.275618 0.0911109
506 4 0.192535 0.279709 0.0918334
537 4 0.185916 0.275267 0.111466
535 2 0.186502 0.2677 0.13529
754 2 0.231509 0.262303 0.166378
756 4 0.21253 0.278472 0.168263
301 2 0.319903 0.317605 0.13982
303 4 0.319886 0.301042 0.158551
764 4 0.331826 0.286262 0.156844
284 4 0.279575 0.252808 0.165896
302 4 0.31992 0.334167 0.121089
765 4 0.359519 0.255595 0.128677
763 2 0.345673 0.270929 0.142761
12 3 0.410164 0.321916 0.1206
527 4 0.474099 0.322286 0.0916008
526 2 0.495321 0.33435 0.0861958
647 4 0.0613104 0.371613 0.164113
550 2 0.154443 0.342729 0.0900978
551 4 0.134298 0.346415 0.104442
289 2 0.202088 0.403242 0.169419
252 4 0.261604 0.408169 0.0951835
609 4 0.277139 0.420851 0.0994657
387 4 0.32597 0.350212 0.110957
385 2 0.350755 0.352475 0.108562
493 2 0.390403 0.387292 0.105662
495 4 0.38982 0.362488 0.108761
386 4 0.375541 0.354738 0.106166
15 3 0.377691 0.339286 0.114548
740 4 0.394221 0.348173 0.0982462
14 3 0.409791 0.358963 0.114272
11 1 0.398298 0.341322 0.124026
13 3 0.396194 0.344897 0.146855
494 4 0.390986 0.412096 0.102562
672 4 0.416565 0.340581 0.106073
670 2 0.438574 0.336909 0.0947901
595 2 0.485188 0.406936 0.163352
1791 4 0.052707 0.488774 0.133098
1465 2 0.074441 0.459033 0.112965
1466 4 0.0618745 0.470093 0.131537
1467 4 0.0870076 0.447974 0.0943921
290 4 0.216306 0.421937 0.160845
638 4 0.218945 0.486245 0.152555
767 4 0.221747 0.477253 0.169511
766 2 0.227647 0.454115 0.162093
768 4 0.233546 0.430977 0.154675
607 2 0.300138 0.427025 0.10709
608 4 0.323136 0.433199 0.114714
659 4 0.331479 0.432568 0.0978079
1316 4 0.29096 0.503244 0.144265
660 4 0.380225 0.42794 0.107963
1673 4 0.397286 0.429744 0.0997003
658 2 0.355852 0.430254 0.102885
524 4 0.396724 0.485823 0.138157
523 2 0.393109 0.465394 0.124201
525 4 0.389495 0.444965 0.110245
1559 4 0.393681 0.503342 0.146689
17 3 0.0426256 0.00947959 0.181981
2480 4 0.034445 0.00561882 0.19951
2479 2 0.0213373 0.0267863 0.201814
380 4 0.0171243 0.0674162 0.207667
2481 4 0.00822963 0.0479537 0.204117
379 2 0.0248486 0.0863333 0.193257
674 4 0.137299 0.0106387 0.222258
673 2 0.118152 0.000453041 0.234701
450 4 0.126452 0.0692113 0.186511
689 4 0.156482 0.0078629 0.212238
1504 2 0.234599 0.00300185 0.189115
1506 4 0.253765 0.0187213 0.192392
654 4 0.261212 0.0349166 0.181238
652 2 0.281495 0.0347552 0.195858
653 4 0.301777 0.0345937 0.210479
758 4 0.347836 0.0698621 0.189017
759 4 0.36161 0.0651386 0.236857
757 2 0.354723 0.0675004 0.212937
350 4 0.373827 0.0569323 0.247797
349 2 0.398802 0.0557412 0.248007
25 3 0.343853 0.0237466 0.239953
2722 2 0.47214 0.0701562 0.165339
2724 4 0.486364 0.049614 0.16441
742 2 0.50902 0.0617722 0.242878
480 4 0.442185 0.0540608 0.243254
2744 4 0.503888 0.0415843 0.167676
351 4 0.423776 0.05455 0.248217
511 2 0.0535174 0.133539 0.16387
512 4 0.0458865 0.10976 0.165093
381 4 0.0325729 0.10525 0.178847
448 2 0.147393 0.0795152 0.17754
449 4 0.168334 0.089819 0.168569
236 4 0.186312 0.0994383 0.168687
30 3 0.345695 0.13106 0.227337
310 2 0.352089 0.109047 0.171288
26 1 0.34922 0.143869 0.245835
311 4 0.355066 0.0877454 0.184038
521 4 0.463308 0.145391 0.227469
762 4 0.44704 0.13973 0.235503
760 2 0.422139 0.140809 0.233514
332 4 0.460319 0.126256 0.232701
331 2 0.472986 0.105887 0.23976
520 2 0.484098 0.156402 0.219001
391 2 0.0609104 0.188185 0.179419
392 4 0.0758482 0.206674 0.187176
339 4 0.0762647 0.21299 0.206225
337 2 0.0639333 0.234739 0.206545
396 4 0.998976 0.24363 0.232727
279 4 0.265951 0.212651 0.215721
277 2 0.266809 0.226487 0.194912
278 4 0.267668 0.240323 0.174103
761 4 0.397238 0.141888 0.231525
28 3 0.357317 0.164704 0.239611
394 2 0.013851 0.262302 0.225292
395 4 0.0287258 0.280974 0.217858
338 4 0.0516018 0.256487 0.206864
363 4 0.0445724 0.275436 0.206894
361 2 0.0551995 0.298052 0.207769
362 4 0.0658266 0.320668 0.208644
372 4 0.0831315 0.330023 0.200817
370 2 0.107429 0.33402 0.205157
371 4 0.131726 0.338016 0.209498
612 4 0.226257 0.293767 0.171015
611 4 0.229219 0.326246 0.208924
610 2 0.227738 0.310007 0.18997
344 4 0.230354 0.32258 0.228537
343 2 0.209448 0.317216 0.24116
735 4 0.177316 0.324633 0.24418
285 4 0.314811 0.28819 0.168592
283 2 0.297193 0.270499 0.167244
729 4 0.317055 0.306071 0.176716
727 2 0.30304 0.322064 0.189868
308 4 0.33001 0.292977 0.174591
498 4 0.350527 0.286539 0.234967
307 2 0.34138 0.285899 0.195706
309 4 0.352749 0.278821 0.21682
648 4 0.0659477 0.33785 0.200709
749 4 0.0543574 0.335328 0.216129
748 2 0.0636545 0.343961 0.237675
646 2 0.0636291 0.354732 0.182411
734 4 0.138486 0.348997 0.224197
733 2 0.157901 0.336815 0.234189
417 4 0.144985 0.364707 0.214836
299 4 0.135325 0.354487 0.243468
415 2 0.156115 0.377649 0.196565
291 4 0.18787 0.384547 0.177994
416 4 0.167246 0.390591 0.178295
728 4 0.289026 0.338058 0.203021
445 2 0.390442 0.382269 0.244856
447 4 0.404142 0.398977 0.232272
644 4 0.415883 0.406527 0.216874
643 2 0.429343 0.404633 0.195888
645 4 0.442803 0.402739 0.174902
597 4 0.461881 0.400025 0.169196
264 4 0.0159164 0.432646 0.254821
412 2 0.241991 0.464704 0.226911
413 4 0.240443 0.440575 0.233281
414 4 0.24354 0.488833 0.220541
1574 4 0.310606 0.488122 0.20867
229 2 0.465177 0.482541 0.216723
231 4 0.486417 0.470142 0.212214
234 4 0.00915737 0.056727 0.291553
232 2 0.028813 0.0414203 0.293684
233 4 0.0484687 0.0261135 0.295814
317 4 0.0633239 0.0278773 0.309231
1404 4 0.0656944 0.0174581 0.296005
316 2 0.0760334 0.0459007 0.321013
1402 2 0.0767867 0.00269812 0.279144
428 4 0.0651659 0.00774126 0.312415
2755 2 0.997234 0.0848773 0.313939
318 4 0.0887429 0.0639241 0.332794
732 4 0.0995708 0.0769275 0.324462
693 4 0.315968 0.0627035 0.268087
691 2 0.303813 0.0777595 0.283922
24 3 0.323842 0.0448131 0.263899
22 3 0.35965 0.053343 0.256306
632 4 0.357649 0.0715745 0.253524
21 1 0.344776 0.0360221 0.259113
23 3 0.351989 0.0227164 0.276701
257 4 0.409062 0.0659922 0.331512
743 4 0.497543 0.0758373 0.260072
479 4 0.456666 0.0415846 0.289464
478 2 0.449426 0.0478227 0.266359
2664 4 0.468722 0.0275546 0.298724
1428 4 0.449942 0.0272637 0.295693
258 4 0.440175 0.045406 0.298212
2662 2 0.491849 0.0361459 0.302784
256 2 0.424618 0.0556991 0.314862
1426 2 0.44765 0.00260502 0.299139
730 2 0.12447 0.0787813 0.325789
731 4 0.14937 0.0806351 0.327115
403 2 0.237621 0.157051 0.331141
692 4 0.291658 0.0928155 0.299758
721 2 0.267467 0.114511 0.306809
723 4 0.279183 0.102168 0.288491
722 4 0.255751 0.126854 0.325128
29 3 0.364354 0.133385 0.259958
631 2 0.360187 0.0945493 0.263058
707 4 0.371581 0.131186 0.277272
633 4 0.362725 0.117524 0.272592
706 2 0.369593 0.145093 0.297955
708 4 0.367605 0.159 0.318639
333 4 0.485652 0.0855174 0.246819
444 4 0.0204746 0.213557 0.287301
442 2 0.00914651 0.22785 0.270196
443 4 0.997818 0.242142 0.253092
544 2 0.131716 0.234568 0.255188
546 4 0.107351 0.228969 0.2548
545 4 0.156082 0.240166 0.255576
405 4 0.222406 0.174568 0.321821
27 3 0.329315 0.146663 0.257021
269 4 0.406789 0.228007 0.334572
419 4 0.409694 0.249155 0.332845
402 4 0.15917 0.259416 0.256556
375 4 0.156954 0.3173 0.310938
373 2 0.140887 0.30725 0.327248
400 2 0.168816 0.281754 0.262312
401 4 0.178462 0.304093 0.268068
676 2 0.171103 0.329732 0.286568
345 4 0.188542 0.311852 0.253784
677 4 0.178004 0.323941 0.263244
378 4 0.291859 0.287545 0.313681
376 2 0.311285 0.300003 0.304057
377 4 0.330711 0.312461 0.294434
615 4 0.336673 0.331911 0.295852
497 4 0.340948 0.303215 0.281129
496 2 0.345737 0.294877 0.258048
541 2 0.366156 0.315491 0.310806
542 4 0.385039 0.314327 0.327153
420 4 0.397636 0.297459 0.328147
543 4 0.347272 0.316655 0.294458
418 2 0.403665 0.273307 0.330496
750 4 0.0729516 0.352594 0.25922
364 2 0.0196914 0.392032 0.297556
365 4 0.044486 0.388931 0.296668
603 4 0.0455661 0.382542 0.3153
300 4 0.091563 0.360563 0.266891
298 2 0.113444 0.357525 0.255179
678 4 0.164202 0.335522 0.309892
510 4 0.182293 0.341369 0.317952
434 4 0.324547 0.383249 0.315988
433 2 0.310451 0.403872 0.314917
614 4 0.314385 0.376403 0.300794
613 2 0.325529 0.354157 0.298323
446 4 0.376743 0.365561 0.25744
1757 4 0.0308353 0.432638 0.268103
1756 2 0.0478381 0.449863 0.27438
1758 4 0.0648409 0.467087 0.280657
1775 4 0.0750518 0.482222 0.289482
777 4 0.066124 0.495003 0.300313
775 2 0.0545621 0.484365 0.319764
776 4 0.0430001 0.473728 0.339216
1776 4 0.119107 0.466322 0.27196
1774 2 0.0970794 0.474272 0.280721
1436 4 0.237564 0.435742 0.253104
1435 2 0.245974 0.435127 0.276643
1437 4 0.254383 0.434513 0.300182
4 3 0.252047 0.415395 0.314046
3 3 0.269387 0.448707 0.308215
1 1 0.265304 0.431852 0.32363
436 2 0.3088 0.456916 0.305002
438 4 0.289394 0.442559 0.311519
2 3 0.285362 0.422513 0.329925
435 4 0.296355 0.424496 0.313846
437 4 0.328206 0.471272 0.298485
1801 2 0.353801 0.489294 0.314519
1802 4 0.335493 0.4911 0.297586
1803 4 0.37211 0.487487 0.331451
119 3 0.494241 0.457537 0.32301
606 4 0.157876 0.0906717 0.341874
399 4 0.0960533 0.0803388 0.342461
604 2 0.178137 0.0877434 0.35623
605 4 0.198398 0.084815 0.370586
699 4 0.363897 0.0625697 0.377428
1699 2 0.358292 0.0200346 0.384386
1700 4 0.360379 0.0436154 0.376338
697 2 0.380368 0.0703469 0.360299
1701 4 0.356206 0.996454 0.392434
698 4 0.396839 0.0781241 0.34317
2757 4 0.999967 0.102026 0.331929
2585 4 0.0075072 0.11927 0.340008
397 2 0.075127 0.0928457 0.348015
398 4 0.0542006 0.105353 0.353568
2584 2 0.0291457 0.120245 0.352498
2586 4 0.0507842 0.12122 0.364988
458 4 0.0492877 0.138888 0.372952
457 2 0.0488202 0.152612 0.393847
248 4 0.216679 0.0901057 0.363866
247 2 0.232974 0.10557 0.352889
249 4 0.249269 0.121035 0.341912
404 4 0.252836 0.139534 0.340461
683 4 0.258715 0.128467 0.356668
682 2 0.28289 0.134569 0.358535
684 4 0.307066 0.140671 0.360402
320 4 0.309269 0.147892 0.34261
321 4 0.357025 0.160849 0.335383
319 2 0.333147 0.15437 0.338997
726 4 0.398001 0.132164 0.40089
717 4 0.361654 0.148909 0.350681
715 2 0.377093 0.147585 0.370304
716 4 0.392533 0.146261 0.389926
467 4 0.398671 0.148054 0.41106
642 4 0.498652 0.100312 0.391122
641 4 0.452149 0.110226 0.375631
640 2 0.4754 0.105269 0.383377
600 4 0.107942 0.182388 0.333821
598 2 0.114493 0.19783 0.352363
599 4 0.121045 0.213272 0.370905
389 4 0.13792 0.240261 0.378118
686 4 0.125406 0.227186 0.38362
685 2 0.110361 0.2245 0.40341
275 4 0.138599 0.222135 0.37079
274 2 0.161075 0.215362 0.379401
473 4 0.215938 0.188335 0.333568
474 4 0.196294 0.209819 0.374228
472 2 0.206116 0.199077 0.353898
276 4 0.183551 0.208589 0.388011
268 2 0.428456 0.217631 0.341503
270 4 0.450124 0.207255 0.348433
452 4 0.455111 0.218882 0.363111
451 2 0.46704 0.213952 0.384526
453 4 0.478969 0.209022 0.40594
347 4 0.0625554 0.31622 0.39821
346 2 0.0409924 0.305733 0.405298
618 4 0.0814784 0.312827 0.393883
388 2 0.130936 0.260694 0.365511
616 2 0.098344 0.305765 0.376828
390 4 0.123953 0.281126 0.352905
617 4 0.11521 0.298703 0.359774
374 4 0.12482 0.297199 0.343559
2537 4 0.508815 0.332664 0.333268
601 2 0.058928 0.382487 0.336433
602 4 0.07229 0.382432 0.357567
549 4 0.0907275 0.386311 0.364191
547 2 0.0962296 0.404982 0.379885
508 2 0.197081 0.353562 0.334009
509 4 0.211869 0.365755 0.350066
335 4 0.332453 0.378119 0.404971
240 4 0.327395 0.386189 0.387537
238 2 0.343771 0.392826 0.369847
239 4 0.360148 0.399463 0.352157
587 4 0.369882 0.41616 0.358577
752 4 0.469347 0.391345 0.384123
561 4 0.479127 0.38974 0.402325
559 2 0.492947 0.377393 0.41911
751 2 0.479915 0.409522 0.370592
500 4 0.0511583 0.455264 0.340444
499 2 0.0634996 0.450839 0.361735
501 4 0.0758409 0.446415 0.383026
548 4 0.101732 0.423653 0.395579
407 4 0.0928095 0.441224 0.388751
406 2 0.106713 0.450409 0.407393
1545 4 0.178631 0.503737 0.410816
1544 4 0.202507 0.49492 0.36777
1556 4 0.221327 0.491471 0.375675
1543 2 0.190569 0.499329 0.389293
1555 2 0.243648 0.488785 0.386618
5 3 0.254944 0.440459 0.341994
636 4 0.277526 0.49361 0.411395
1557 4 0.265968 0.486099 0.397561
586 2 0.373557 0.440732 0.355768
593 4 0.387178 0.480486 0.344196
588 4 0.377233 0.465304 0.35296
592 2 0.411419 0.48661 0.344448
594 4 0.43566 0.492734 0.3447
712 2 0.469458 0.485062 0.34161
714 4 0.487305 0.467623 0.340013
753 4 0.490483 0.427699 0.357062
117 3 0.487308 0.452108 0.359549
367 2 0.0846547 0.0153887 0.444089
719 4 0.0573597 0.00949648 0.466017
718 2 0.0327083 0.0119154 0.462605
369 4 0.0723386 0.0230748 0.464446
720 4 0.00805697 0.0143343 0.459194
368 4 0.0969708 0.00770257 0.423731
2430 4 0.161626 0.00666986 0.492783
341 4 0.176818 0.019003 0.489645
963 4 0.309623 0.0307466 0.443555
432 4 0.30587 0.0468231 0.456165
430 2 0.322012 0.0573416 0.472102
961 2 0.320116 0.0126473 0.429863
431 4 0.338155 0.0678601 0.488038
962 4 0.330609 0.994548 0.41617
1217 4 0.404802 0.0277833 0.498671
842 4 0.387746 0.0262967 0.510004
841 2 0.367156 0.0377007 0.501567
1216 2 0.424709 0.0429012 0.498099
1218 4 0.444617 0.0580192 0.497527
459 4 0.0483528 0.166336 0.414742
724 2 0.390078 0.114775 0.417015
725 4 0.382156 0.0973852 0.43314
260 4 0.0502313 0.181457 0.425997
259 2 0.069003 0.196912 0.431824
261 4 0.0877746 0.212366 0.437652
687 4 0.0953168 0.221815 0.4232
1035 4 0.0900309 0.231964 0.439074
466 2 0.403512 0.168242 0.424994
468 4 0.408353 0.188431 0.438928
409 2 0.395938 0.226305 0.447846
410 4 0.405894 0.203415 0.449297
411 4 0.385982 0.249195 0.446394
515 4 0.468931 0.210434 0.424029
575 4 0.419074 0.20792 0.463099
516 4 0.423439 0.20575 0.444259
574 2 0.422959 0.192314 0.482244
514 2 0.446185 0.208092 0.434144
576 4 0.426845 0.176708 0.501389
2802 4 0.997829 0.292912 0.408271
348 4 0.0194294 0.295246 0.412386
1034 4 0.0968265 0.262877 0.47779
1033 2 0.0934287 0.247421 0.458432
696 4 0.0914657 0.276542 0.49174
1260 4 0.108687 0.276453 0.483303
1258 2 0.114692 0.299314 0.475149
1259 4 0.120697 0.322175 0.466996
9 3 0.143857 0.321972 0.433596
7 3 0.137383 0.329181 0.469911
489 4 0.383128 0.267517 0.445608
488 4 0.341151 0.275568 0.419649
487 2 0.362139 0.271543 0.432628
266 4 0.392852 0.263389 0.460904
265 2 0.404368 0.279165 0.476514
267 4 0.415885 0.29494 0.492125
3308 4 0.484382 0.317972 0.463702
1011 4 0.464939 0.31052 0.466936
1009 2 0.461768 0.298253 0.488492
326 4 0.0784993 0.359604 0.485189
6 1 0.141229 0.338788 0.449367
327 4 0.119086 0.340819 0.462816
325 2 0.0987927 0.350212 0.474002
10 3 0.1235 0.351955 0.443805
709 2 0.134673 0.387973 0.491897
711 4 0.130559 0.407682 0.477071
8 3 0.160536 0.351602 0.450575
334 2 0.325199 0.381353 0.42868
336 4 0.317946 0.384588 0.452389
668 4 0.307927 0.396252 0.464074
882 4 0.333882 0.3593 0.495214
1382 4 0.0183629 0.488816 0.494711
1383 4 0.999251 0.448876 0.471467
1381 2 0.00880721 0.468846 0.483089
568 2 0.153361 0.486318 0.430731
383 4 0.128733 0.455739 0.443
384 4 0.130525 0.426581 0.483587
382 2 0.129629 0.44116 0.463294
408 4 0.120616 0.459593 0.426035
569 4 0.132418 0.472744 0.432257
570 4 0.174304 0.499892 0.429204
667 2 0.302746 0.419985 0.458152
774 4 0.314652 0.453785 0.447218
635 4 0.297716 0.46004 0.442477
634 2 0.287621 0.476825 0.426936
669 4 0.297565 0.443718 0.452229
772 2 0.338153 0.461854 0.450013
773 4 0.361653 0.469922 0.452809
663 4 0.4681 0.491274 0.458768
1152 4 0.198448 0.050399 0.536319
342 4 0.207971 0.0391575 0.523171
340 2 0.192395 0.0290802 0.506408
1032 4 0.225274 0.0643056 0.585481
1150 2 0.209953 0.0636013 0.554166
1151 4 0.221459 0.0768036 0.572012
843 4 0.346566 0.0491047 0.493129
1270 2 0.076918 0.152793 0.553553
1058 4 0.117734 0.10532 0.507853
1271 4 0.0864066 0.131276 0.562046
1057 2 0.108811 0.116254 0.528493
1059 4 0.0998879 0.127188 0.549132
1155 4 0.106833 0.132101 0.56618
939 4 0.0941098 0.11787 0.566982
1153 2 0.12939 0.138541 0.574833
1180 2 0.236748 0.102839 0.586565
1181 4 0.238191 0.0779008 0.585485
1182 4 0.235306 0.127778 0.587645
1199 4 0.0179147 0.214879 0.575176
879 4 0.0752367 0.193071 0.549461
1198 2 0.997801 0.219687 0.561123
877 2 0.0564495 0.204682 0.561184
1272 4 0.0674293 0.174311 0.54506
651 4 0.221471 0.228468 0.522277
858 4 0.204429 0.23793 0.519375
898 2 0.240918 0.15962 0.571296
649 2 0.233441 0.2098 0.533827
650 4 0.245411 0.191132 0.545377
899 4 0.25005 0.172945 0.552211
695 4 0.080308 0.282892 0.540071
982 2 0.0144638 0.283767 0.584165
694 2 0.0858869 0.279717 0.515906
946 2 0.170899 0.284146 0.573753
856 2 0.192867 0.254974 0.533554
857 4 0.181306 0.272017 0.547733
947 4 0.189292 0.268372 0.567587
798 4 0.204308 0.269984 0.578347
796 2 0.229148 0.269862 0.5755
503 4 0.187522 0.335477 0.491167
791 4 0.256385 0.28923 0.567539
790 2 0.260716 0.313797 0.569242
2455 2 0.479496 0.254948 0.520506
2457 4 0.46203 0.272472 0.524117
1010 4 0.458597 0.285985 0.510047
710 4 0.138786 0.368264 0.506723
502 2 0.171836 0.350743 0.503252
504 4 0.156149 0.366009 0.515338
1189 2 0.241045 0.370435 0.576568
803 4 0.269345 0.364277 0.555593
804 4 0.277925 0.366037 0.506359
802 2 0.273635 0.365157 0.530976
1190 4 0.260662 0.356977 0.568871
1238 4 0.276624 0.354637 0.573057
792 4 0.265047 0.338363 0.570946
1237 2 0.297375 0.363685 0.583674
930 4 0.332616 0.383773 0.586066
929 4 0.361576 0.372264 0.546956
881 4 0.361962 0.38197 0.529831
880 2 0.347922 0.370635 0.512523
928 2 0.347096 0.378019 0.566511
2244 4 0.114895 0.492499 0.579938
1160 4 0.129482 0.479819 0.579619
1081 2 0.0739432 0.0691427 0.641416
1082 4 0.0756235 0.0555077 0.662307
1083 4 0.0722629 0.0827776 0.620524
1283 4 0.158149 0.0746946 0.66817
1030 2 0.239565 0.0490987 0.599253
825 4 0.171049 0.0630611 0.659431
1031 4 0.253856 0.0338917 0.613026
824 4 0.189006 0.0168439 0.665929
823 2 0.180027 0.0399525 0.66268
951 4 0.246291 0.0324215 0.632115
949 2 0.264555 0.0154982 0.634399
3008 4 0.487985 0.0118859 0.586618
809 4 0.483305 0.0219149 0.604116
808 2 0.473558 0.0354797 0.622722
810 4 0.463811 0.0490444 0.641328
45 3 0.458161 0.0712801 0.637818
41 1 0.455304 0.0652328 0.659588
1127 4 0.0534054 0.0880139 0.62638
1126 2 0.0332415 0.0927546 0.612376
1128 4 0.0130776 0.0974953 0.598371
938 4 0.0763871 0.0863487 0.601522
937 2 0.0852484 0.102109 0.584252
1154 4 0.151948 0.144981 0.583486
900 4 0.231787 0.146295 0.590381
1221 4 0.170558 0.14172 0.589454
1219 2 0.19499 0.138259 0.59349
1211 4 0.240554 0.135244 0.656059
1210 2 0.235786 0.141959 0.632451
1220 4 0.219421 0.134799 0.597527
1212 4 0.231019 0.148675 0.608842
908 4 0.226189 0.137025 0.671304
1227 4 0.239715 0.12369 0.668727
1192 2 0.324954 0.158334 0.64796
1193 4 0.337973 0.150099 0.628266
3424 2 0.492739 0.0977367 0.645771
3425 4 0.47296 0.0839529 0.652402
878 4 0.0376623 0.216292 0.572907
1244 4 0.0490083 0.22064 0.587301
1243 2 0.0383619 0.238463 0.601235
3123 4 0.491329 0.229482 0.629501
983 4 0.0262501 0.273062 0.603444
1245 4 0.0277156 0.256286 0.615169
3263 4 0.0682429 0.324593 0.621266
948 4 0.152505 0.29992 0.579919
820 2 0.152121 0.325194 0.664171
797 4 0.253989 0.269739 0.572653
1135 2 0.163914 0.330728 0.611071
1136 4 0.158948 0.315082 0.592209
822 4 0.163489 0.342361 0.649985
872 4 0.369206 0.279045 0.595445
871 2 0.362965 0.29864 0.609667
873 4 0.356723 0.318236 0.623888
954 4 0.456486 0.293185 0.599007
952 2 0.467422 0.31567 0.5988
3262 2 0.0627244 0.348968 0.620494
1041 4 0.064977 0.389104 0.6269
3264 4 0.057206 0.373343 0.619722
3240 4 0.0545736 0.392188 0.611252
3238 2 0.0298374 0.395824 0.610969
3239 4 0.00510121 0.39946 0.610687
1039 2 0.0886168 0.39622 0.630862
1040 4 0.112257 0.403337 0.634824
993 4 0.126186 0.392584 0.646094
991 2 0.14353 0.375028 0.642073
992 4 0.160873 0.357472 0.638053
1137 4 0.168879 0.346373 0.629932
1064 4 0.17519 0.355896 0.644614
897 4 0.176174 0.363821 0.626829
896 4 0.205873 0.389468 0.595829
895 2 0.191023 0.376644 0.611329
1172 4 0.213976 0.401502 0.583377
1191 4 0.221429 0.383894 0.584264
1239 4 0.318126 0.372733 0.594291
813 4 0.37316 0.325627 0.631839
811 2 0.384681 0.34601 0.640611
1206 4 0.389396 0.380956 0.658711
927 4 0.397558 0.384146 0.64095
812 4 0.396203 0.366394 0.649383
925 2 0.402113 0.400579 0.622663
926 4 0.406669 0.417011 0.604376
953 4 0.478358 0.338154 0.598594
906 4 0.478211 0.357047 0.607619
540 4 0.111518 0.474359 0.583281
539 4 0.0848607 0.432241 0.587302
538 2 0.0981896 0.4533 0.585291
1159 2 0.151074 0.484721 0.591236
1171 2 0.222057 0.424125 0.590308
1186 2 0.205505 0.483638 0.602763
1173 4 0.230138 0.446749 0.59724
1187 4 0.222373 0.465302 0.60065
1188 4 0.188637 0.501973 0.604877
1161 4 0.172665 0.489623 0.602854
1002 4 0.410715 0.437133 0.6061
1911 4 0.44724 0.490535 0.614111
1001 4 0.445342 0.47178 0.616164
1000 2 0.428028 0.454457 0.611132
1269 4 0.463457 0.481323 0.616527
1267 2 0.476679 0.48648 0.637112
1268 4 0.4899 0.491638 0.657698
943 2 0.0445994 0.0163338 0.673564
944 4 0.0639617 0.031993 0.675816
1076 4 0.0759131 0.0470633 0.679918
1075 2 0.0700046 0.0636741 0.697648
945 4 0.0252371 0.000674698 0.671312
864 4 0.0622422 0.0729632 0.73323
862 2 0.0441475 0.072646 0.750483
1107 4 0.0768126 0.084814 0.725581
1105 2 0.0971612 0.0871725 0.739918
1149 4 0.264473 0.0373218 0.718522
1147 2 0.259532 0.0570991 0.704043
1148 4 0.254591 0.0768764 0.689565
1004 4 0.347902 0.0794821 0.746691
1092 4 0.32811 0.00733105 0.687245
42 3 0.460665 0.0429977 0.662041
43 3 0.433175 0.0683469 0.665832
1163 4 0.472256 0.0558232 0.676488
1162 2 0.487846 0.045239 0.692924
44 3 0.469227 0.0778512 0.673202
1077 4 0.064096 0.0802849 0.715378
851 4 0.0732083 0.0975912 0.711321
850 2 0.0689401 0.121897 0.707298
852 4 0.0646719 0.146203 0.703276
1282 2 0.163456 0.097248 0.67757
1284 4 0.168763 0.119801 0.68697
909 4 0.176768 0.137277 0.67893
907 2 0.201479 0.137151 0.675117
1225 2 0.246497 0.0996313 0.669331
888 4 0.255949 0.135727 0.667926
1194 4 0.311935 0.16657 0.667654
886 2 0.275016 0.15123 0.672538
1226 4 0.253278 0.0755727 0.669934
829 2 0.325047 0.15356 0.702757
830 4 0.310562 0.166032 0.686637
1005 4 0.348206 0.125855 0.727979
1003 2 0.348054 0.102669 0.737335
831 4 0.339531 0.141089 0.718876
3270 4 0.492692 0.160709 0.722626
1113 4 0.488547 0.116367 0.757011
1178 4 0.0121749 0.246893 0.73213
1215 4 0.00255629 0.232347 0.739207
887 4 0.294084 0.166733 0.67715
977 4 0.302125 0.225315 0.724722
976 2 0.327033 0.227196 0.723621
1298 4 0.295827 0.221704 0.742689
918 4 0.290262 0.238416 0.734108
1297 2 0.28834 0.199045 0.750148
978 4 0.351942 0.229078 0.72252
1025 4 0.39071 0.185428 0.689604
1020 4 0.373428 0.229569 0.725432
1018 2 0.377891 0.241741 0.746812
1024 2 0.409545 0.194389 0.703393
1142 4 0.436481 0.201124 0.73469
1144 2 0.468026 0.190615 0.715784
1262 4 0.434717 0.217874 0.723386
1026 4 0.428379 0.203351 0.717181
1261 2 0.440366 0.24089 0.715416
1145 4 0.447792 0.204851 0.719406
1146 4 0.488259 0.176378 0.712162
1177 2 0.0247959 0.263829 0.718749
1179 4 0.0374168 0.280765 0.705367
1208 4 0.153151 0.274659 0.729397
1074 4 0.144151 0.259072 0.736001
1207 2 0.155 0.289776 0.709566
821 4 0.140753 0.308027 0.678357
1209 4 0.156848 0.304892 0.689735
1072 2 0.121547 0.248385 0.736151
1130 4 0.162287 0.260899 0.741811
1073 4 0.0989427 0.237698 0.736302
1263 4 0.446015 0.263906 0.707445
3114 4 0.504459 0.323073 0.672142
892 2 0.0326741 0.368478 0.727957
1279 2 0.0690345 0.418802 0.724967
1280 4 0.0682216 0.393867 0.723296
816 4 0.0688002 0.373696 0.727732
894 4 0.0525106 0.383669 0.727001
893 4 0.0128376 0.353287 0.728913
814 2 0.0907271 0.36241 0.731859
815 4 0.112654 0.351125 0.735985
942 4 0.123438 0.35166 0.753394
940 2 0.146511 0.360295 0.749119
805 2 0.235743 0.340715 0.70053
1063 2 0.191989 0.361189 0.662362
1065 4 0.208787 0.366482 0.680109
807 4 0.217025 0.355724 0.69349
1028 4 0.208197 0.383633 0.687399
1066 2 0.194268 0.373392 0.721173
1068 4 0.202336 0.367654 0.698214
1027 2 0.218386 0.405339 0.680313
1067 4 0.1862 0.379131 0.744133
806 4 0.254461 0.325707 0.707571
1204 2 0.374556 0.394257 0.673812
1205 4 0.359715 0.407558 0.688912
1281 4 0.0698474 0.443736 0.726638
1983 4 0.0788831 0.450645 0.744128
1981 2 0.0988261 0.465701 0.743242
1029 4 0.228576 0.427045 0.673228
1176 4 0.169524 0.477082 0.722812
1175 4 0.206355 0.491659 0.692288
1174 2 0.187939 0.484371 0.70755
2016 4 0.170099 0.486949 0.741953
1140 4 0.244583 0.439932 0.672174
2026 2 0.288564 0.502297 0.697707
1138 2 0.262894 0.456427 0.676394
1139 4 0.281205 0.472922 0.680615
1987 2 0.293103 0.450048 0.722403
1229 4 0.298586 0.466127 0.684416
1989 4 0.303099 0.461148 0.702352
2028 4 0.294451 0.478061 0.695936
1228 2 0.322005 0.461964 0.676707
1988 4 0.283107 0.438948 0.742454
1230 4 0.345424 0.457802 0.668999
1101 4 0.48078 0.487701 0.675772
1099 2 0.475247 0.479027 0.698561
1100 4 0.469715 0.470354 0.72135
2168 4 0.484579 0.505178 0.668815
2989 2 0.0150373 0.0335179 0.782442
2990 4 0.0192954 0.057626 0.777358
2991 4 0.0107792 0.00940981 0.787526
863 4 0.0260528 0.0723289 0.767736
833 4 0.0172873 0.0746337 0.784409
3083 4 0.00726664 0.0716074 0.768747
1106 4 0.11751 0.0895309 0.754256
2049 4 0.103261 0.00983969 0.792182
1202 4 0.114028 0.0252847 0.782792
1201 2 0.121724 0.0490716 0.783158
1203 4 0.12942 0.0728585 0.783524
1085 4 0.317269 0.0814775 0.812637
960 4 0.323845 0.0694362 0.826335
1084 2 0.296777 0.0847363 0.798685
819 4 0.331542 0.0681841 0.809017
817 2 0.343908 0.0484284 0.799963
818 4 0.356273 0.0286727 0.790908
974 4 0.361178 0.0100486 0.795425
844 2 0.494784 0.0661072 0.81642
845 4 0.495929 0.0596034 0.792304
2322 4 0.497006 0.0526642 0.7748
2320 2 0.500068 0.0424953 0.752164
832 2 0.0155341 0.0909502 0.803273
834 4 0.013781 0.107267 0.822138