ITEM: TIMESTEP
450000
ITEM: NUMBER OF ATOMS
4590
ITEM: BOX BOUNDS pp pp pp
-9.9985700000000008e+00 9.9985700000000008e+00
-9.9985700000000008e+00 9.9985700000000008e+00
-9.9985700000000008e+00 9.9985700000000008e+00
ITEM: ATOMS id type xs ys zs
463 2 0.0413208 0.0697718 0.0155487
464 4 0.0614896 0.0610561 0.00361421
465 4 0.021152 0.0784876 0.0274831
591 4 0.0346827 0.0856743 0.0816434
534 4 0.218239 0.0323568 0.998518
490 2 0.279606 0.0790783 0.0708872
1475 4 0.270068 0.00622071 0.0819163
296 4 0.370692 0.0796043 0.0471253
295 2 0.353125 0.0622377 0.0509922
297 4 0.335557 0.0448712 0.0548591
987 4 0.417307 0.0378838 0.00749063
747 4 0.468695 0.0581024 0.0105121
2974 2 0.482641 0.0273447 0.0163422
2976 4 0.483195 0.00843885 0.0326958
2467 2 0.498536 0.0236018 0.0697689
2468 4 0.482973 0.0175269 0.0511661
745 2 0.462688 0.0787148 0.0233271
589 2 0.0107866 0.0906261 0.0870873
422 4 0.118929 0.13797 0.0259818
421 2 0.122389 0.130916 0.00224489
565 2 0.213293 0.1458 0.0709231
566 4 0.19187 0.154645 0.0615411
567 4 0.234715 0.136954 0.0803051
492 4 0.26708 0.0807241 0.0493099
358 2 0.301933 0.132044 0.0406803
359 4 0.292097 0.151531 0.0528739
360 4 0.311769 0.112557 0.0284868
557 4 0.379077 0.0881797 0.0307786
556 2 0.388791 0.108059 0.0424253
558 4 0.398504 0.127938 0.054072
665 4 0.356732 0.151021 0.022005
746 4 0.456681 0.0993272 0.0361422
771 4 0.420885 0.161606 0.0623322
554 4 0.0740965 0.240012 0.0408913
2625 4 0.0046518 0.198202 0.0942217
664 2 0.350859 0.174324 0.0151017
322 2 0.408949 0.254526 0.06641
666 4 0.344986 0.197627 0.00819839
769 2 0.437953 0.179529 0.0658886
324 4 0.430734 0.242988 0.0622328
770 4 0.455022 0.197451 0.069445
553 2 0.0570872 0.25564 0.0313189
555 4 0.0400778 0.271268 0.0217465
292 2 0.127329 0.301073 0.01368
293 4 0.141329 0.291063 0.0318174
507 4 0.160242 0.287386 0.0313012
483 4 0.208324 0.305445 0.0689429
505 2 0.175127 0.292613 0.0506999
506 4 0.190011 0.297839 0.0700986
481 2 0.232959 0.301175 0.0686748
573 4 0.257758 0.279174 0.0601662
572 4 0.26556 0.249285 0.0208409
357 4 0.266495 0.259906 0.00427423
571 2 0.261659 0.264229 0.0405036
482 4 0.257594 0.296905 0.0684067
1071 4 0.38398 0.273272 0.0148968
1069 2 0.401261 0.287866 0.0255525
1070 4 0.418542 0.302461 0.0362083
741 4 0.364828 0.331456 0.0730905
671 4 0.461212 0.327357 0.0685495
280 2 0.444897 0.320326 0.0332836
281 4 0.447173 0.317966 0.0580712
282 4 0.44262 0.322687 0.00849597
551 4 0.0538823 0.423596 0.0514739
328 2 0.014789 0.413152 0.00359353
288 4 0.160312 0.345693 0.0327413
287 4 0.193874 0.382764 0.0326098
286 2 0.177093 0.364228 0.0326756
252 4 0.288906 0.408836 0.0443167
250 2 0.297598 0.388816 0.0321167
251 4 0.306289 0.368796 0.0199168
957 4 0.350496 0.347538 0.996201
955 2 0.374319 0.346689 0.00374466
956 4 0.398142 0.34584 0.0112885
550 2 0.0778621 0.428761 0.0563184
329 4 0.0312565 0.431963 0.00399086
552 4 0.101842 0.433926 0.0611628
455 4 0.115171 0.421347 0.0722555
242 4 0.161406 0.478795 0.0425105
245 4 0.229656 0.453813 0.0459499
626 4 0.21332 0.427942 0.0825515
241 2 0.168745 0.488365 0.0644135
609 4 0.297009 0.410727 0.0619939
607 2 0.292238 0.419301 0.0849917
244 2 0.247544 0.455125 0.0285292
246 4 0.265432 0.456438 0.0111085
273 4 0.313544 0.49433 0.00297358
226 2 0.47978 0.462407 0.0688232
563 4 0.463024 0.495476 0.0537652
228 4 0.474166 0.478957 0.050941
1666 2 0.08102 0.0417506 0.0989656
1668 4 0.0634947 0.024063 0.101244
19 3 0.0644463 0.0390824 0.155226
20 3 0.0584953 0.0761002 0.158679
701 4 0.086088 0.0735418 0.0907372
1667 4 0.0985453 0.0594383 0.0966876
450 4 0.150149 0.0473758 0.133732
448 2 0.165046 0.067457 0.133738
652 2 0.306642 0.0162249 0.144086
653 4 0.330719 0.0229435 0.143497
491 4 0.292131 0.0774325 0.0924645
654 4 0.282565 0.00950638 0.144675
1761 4 0.457749 0.998318 0.120166
1759 2 0.469968 0.0147157 0.134553
1760 4 0.482186 0.0311134 0.148941
2724 4 0.492283 0.0475316 0.146768
2722 2 0.499626 0.0677415 0.134008
310 2 0.421783 0.0810546 0.155705
2744 4 0.48895 0.0410625 0.16476
700 2 0.0947944 0.0936372 0.102802
702 4 0.103501 0.113733 0.114866
476 4 0.123388 0.155363 0.144616
475 2 0.112199 0.156737 0.166934
477 4 0.10101 0.158112 0.189253
237 4 0.181209 0.144187 0.15336
449 4 0.179943 0.0875382 0.133745
235 2 0.186831 0.123168 0.141039
236 4 0.192453 0.10215 0.128719
582 4 0.311641 0.0995241 0.150947
580 2 0.289666 0.110927 0.154448
312 4 0.415518 0.0874612 0.132362
629 4 0.410113 0.141767 0.141868
628 2 0.413956 0.163799 0.130688
2723 4 0.506969 0.0879513 0.121248
337 2 0.0728119 0.232162 0.133015
339 4 0.0669564 0.239347 0.109793
338 4 0.0786675 0.224977 0.156237
737 4 0.173546 0.187374 0.107945
736 2 0.19852 0.186897 0.10684
738 4 0.223495 0.186421 0.105736
277 2 0.237455 0.233377 0.156192
461 4 0.298846 0.227992 0.0957169
460 2 0.323424 0.228625 0.0911627
354 4 0.278555 0.227763 0.0890171
352 2 0.272582 0.235656 0.111978
284 4 0.279255 0.23418 0.147392
353 4 0.266609 0.243549 0.134939
278 4 0.261255 0.238367 0.150374
283 2 0.292099 0.218606 0.162146
255 4 0.361746 0.215956 0.0943765
462 4 0.348001 0.229259 0.0866086
254 4 0.397193 0.188683 0.116747
253 2 0.37947 0.202319 0.105562
765 4 0.389087 0.230827 0.15131
630 4 0.417799 0.185832 0.119509
518 4 0.477228 0.229485 0.113045
536 4 0.215408 0.313896 0.135493
754 2 0.269317 0.280024 0.148871
755 4 0.258509 0.257785 0.145152
756 4 0.280125 0.302262 0.15259
612 4 0.287832 0.319209 0.160578
323 4 0.387164 0.266064 0.0705872
624 4 0.401973 0.250334 0.135481
622 2 0.386672 0.269953 0.132997
623 4 0.371372 0.289572 0.130512
670 2 0.456016 0.327255 0.0930071
672 4 0.450821 0.327153 0.117465
528 4 0.46881 0.256432 0.151862
621 4 0.0393639 0.36195 0.106388
619 2 0.016024 0.36846 0.112556
620 4 0.992684 0.37497 0.118724
647 4 0.0568213 0.355982 0.159404
454 2 0.124543 0.40021 0.0817722
456 4 0.133915 0.379073 0.091289
535 2 0.200001 0.327632 0.149604
537 4 0.184594 0.341368 0.163715
302 4 0.308238 0.385587 0.154882
387 4 0.31416 0.392282 0.137391
739 2 0.358086 0.352999 0.083843
740 4 0.351344 0.374543 0.0945955
15 3 0.369239 0.377031 0.125202
385 2 0.33511 0.387511 0.124603
386 4 0.356059 0.382739 0.111814
11 1 0.388648 0.37076 0.135331
13 3 0.392624 0.384193 0.153828
12 3 0.386857 0.348899 0.142264
14 3 0.406298 0.372461 0.120365
495 4 0.421244 0.385436 0.123975
493 2 0.425522 0.409764 0.127857
596 4 0.491628 0.402833 0.154272
315 4 0.0269573 0.467584 0.0961604
313 2 0.0217523 0.461428 0.119829
314 4 0.0165473 0.455271 0.143497
625 2 0.229226 0.446728 0.0869389
627 4 0.245132 0.465514 0.0913264
608 4 0.287466 0.427875 0.10799
638 4 0.248272 0.482022 0.159152
523 2 0.339982 0.490892 0.111677
525 4 0.347698 0.467887 0.117711
658 2 0.372239 0.4605 0.159296
659 4 0.378245 0.444906 0.140696
227 4 0.485395 0.445858 0.0867054
494 4 0.4298 0.434091 0.131739
17 3 0.0382372 0.0520835 0.178821
2480 4 0.0220362 0.0432768 0.17944
16 1 0.0590018 0.0562587 0.169846
18 3 0.0745463 0.0572481 0.187045
1422 4 0.0135875 0.0249619 0.184819
1420 2 0.0206511 0.00501976 0.198145
2479 2 0.00139728 0.0552197 0.186962
673 2 0.122455 0.0396207 0.247993
674 4 0.129476 0.0512996 0.227029
689 4 0.167997 0.0232011 0.213126
688 2 0.177374 0.0275058 0.235901
692 4 0.22028 0.0807699 0.221944
21 1 0.360879 0.0319328 0.225861
23 3 0.369381 0.0268468 0.246843
24 3 0.337776 0.0297819 0.225941
25 3 0.369922 0.0180474 0.210238
759 4 0.378148 0.039344 0.207199
22 3 0.366305 0.053686 0.220712
757 2 0.398176 0.0489591 0.195726
758 4 0.418203 0.0585742 0.184254
742 2 0.459219 0.0651738 0.219454
744 4 0.453969 0.0409286 0.216327
311 4 0.428048 0.0746481 0.179048
379 2 0.00383354 0.158753 0.166889
381 4 0.014192 0.157897 0.18963
577 2 0.0932627 0.102026 0.229377
578 4 0.0829701 0.0888092 0.210815
579 4 0.103555 0.115244 0.247939
693 4 0.20453 0.095609 0.176861
691 2 0.212405 0.0881894 0.199403
723 4 0.226731 0.080551 0.24089
581 4 0.267691 0.122329 0.15795
30 3 0.295406 0.155828 0.247869
28 3 0.298679 0.119018 0.24066
27 3 0.328881 0.141376 0.239902
333 4 0.417492 0.137818 0.251477
743 4 0.46447 0.089419 0.222581
363 4 0.0790816 0.229955 0.176231
511 2 0.0287094 0.173081 0.215988
512 4 0.00952071 0.174358 0.200009
394 2 0.0154805 0.250954 0.22505
513 4 0.0478982 0.171804 0.231968
395 4 0.0178359 0.25871 0.201397
396 4 0.013125 0.243198 0.248703
361 2 0.0902838 0.246035 0.191758
279 4 0.213655 0.228387 0.162009
285 4 0.304943 0.203032 0.176899
764 4 0.354437 0.224216 0.186754
763 2 0.371762 0.227522 0.169032
520 2 0.475607 0.210263 0.211378
521 4 0.455573 0.199544 0.200941
522 4 0.495641 0.220981 0.221815
527 4 0.493476 0.252955 0.195224
371 4 0.159094 0.252443 0.226042
370 2 0.139184 0.257109 0.211655
372 4 0.119273 0.261776 0.197269
748 2 0.0982633 0.28998 0.238476
362 4 0.101486 0.262116 0.207286
749 4 0.10492 0.278481 0.217295
345 4 0.236803 0.327156 0.245513
343 2 0.251186 0.306888 0.242768
344 4 0.265569 0.286621 0.240022
307 2 0.313842 0.282169 0.24616
308 4 0.306437 0.268411 0.226639
610 2 0.276357 0.331117 0.179331
526 2 0.481143 0.254694 0.173543
646 2 0.079777 0.359088 0.168815
262 2 0.027921 0.411618 0.233442
648 4 0.102733 0.362195 0.178226
300 4 0.101927 0.332984 0.239113
298 2 0.1177 0.351951 0.243195
417 4 0.143466 0.38715 0.189858
415 2 0.161447 0.404268 0.192825
299 4 0.133473 0.370917 0.247277
416 4 0.179429 0.421387 0.195793
291 4 0.196461 0.410668 0.198317
611 4 0.264882 0.343026 0.198085
303 4 0.313819 0.377316 0.203884
301 2 0.311028 0.381451 0.179383
729 4 0.322002 0.391585 0.214961
727 2 0.333564 0.376539 0.231243
595 2 0.47589 0.389289 0.168203
597 4 0.460153 0.375746 0.182135
643 2 0.433704 0.369157 0.212313
644 4 0.418718 0.375173 0.231402
645 4 0.448691 0.363142 0.193223
447 4 0.425231 0.371862 0.249228
264 4 0.0100968 0.412937 0.215957
290 4 0.241528 0.43017 0.207769
289 2 0.218995 0.420419 0.203043
767 4 0.249017 0.489608 0.177883
768 4 0.252484 0.447496 0.204627
766 2 0.25075 0.468552 0.191255
660 4 0.366232 0.476094 0.177895
110 3 0.504147 0.422548 0.199499
1568 4 0.479998 0.497777 0.210408
1567 2 0.486608 0.505004 0.187402
232 2 0.0211713 0.040402 0.291439
233 4 0.0323985 0.0199995 0.282336
1402 2 0.0769643 0.0201914 0.282928
1404 4 0.052057 0.0203949 0.285112
675 4 0.115434 0.0279417 0.268957
1403 4 0.101872 0.019988 0.280745
1464 4 0.106862 0.000757652 0.287542
690 4 0.186751 0.0318104 0.258677
1701 4 0.231121 0.0266317 0.32567
1699 2 0.253444 0.0336113 0.316829
1700 4 0.275767 0.0405909 0.307989
478 2 0.492714 0.0481468 0.300375
480 4 0.47842 0.0574262 0.282079
351 4 0.469873 0.0665455 0.267143
731 4 0.117994 0.0904307 0.300751
730 2 0.103155 0.104111 0.315511
392 4 0.112489 0.158066 0.280185
721 2 0.218806 0.0902687 0.262522
722 4 0.210881 0.0999863 0.284154
249 4 0.206303 0.119281 0.291246
247 2 0.199859 0.114551 0.314937
403 2 0.218728 0.153427 0.271244
404 4 0.203231 0.135297 0.278749
600 4 0.176391 0.143451 0.343112
26 1 0.30875 0.13754 0.25035
29 3 0.312629 0.133567 0.27288
632 4 0.387896 0.112302 0.281356
631 2 0.370589 0.129555 0.286646
633 4 0.353282 0.146808 0.291935
706 2 0.341518 0.166012 0.319601
349 2 0.4504 0.078139 0.277706
350 4 0.430926 0.0897324 0.288268
331 2 0.438166 0.149765 0.258895
332 4 0.45884 0.161712 0.266314
762 4 0.476709 0.168266 0.261401
531 4 0.00546336 0.176198 0.258601
443 4 0.0132974 0.231056 0.264302
393 4 0.0771443 0.188098 0.261487
546 4 0.157011 0.16733 0.267675
391 2 0.0948164 0.173082 0.270836
544 2 0.166111 0.185899 0.28173
545 4 0.175211 0.204468 0.295786
405 4 0.234225 0.171557 0.263739
707 4 0.345193 0.164992 0.29489
420 4 0.412249 0.251779 0.31676
418 2 0.426789 0.231941 0.321257
761 4 0.491124 0.207727 0.288525
760 2 0.483916 0.187997 0.274963
419 4 0.441329 0.212103 0.325755
750 4 0.0916064 0.301478 0.259658
390 4 0.114883 0.266248 0.324746
400 2 0.19368 0.282452 0.288782
402 4 0.212969 0.285649 0.304366
401 4 0.17439 0.279255 0.273197
309 4 0.321246 0.295928 0.265681
496 2 0.309595 0.307882 0.299979
497 4 0.297361 0.305399 0.321643
498 4 0.32183 0.310365 0.278315
543 4 0.397592 0.296169 0.318776
615 4 0.386177 0.311571 0.316119
613 2 0.365458 0.325483 0.314589
614 4 0.344739 0.339396 0.313059
541 2 0.42131 0.290067 0.313735
542 4 0.445027 0.283966 0.308693
263 4 0.0457453 0.410298 0.250927
366 4 0.00147689 0.350988 0.28467
364 2 0.0258471 0.349033 0.28991
365 4 0.0502172 0.347079 0.295149
602 4 0.0765159 0.410241 0.298913
601 2 0.0657881 0.388058 0.294671
603 4 0.0550604 0.365874 0.290428
734 4 0.151322 0.361706 0.249032
733 2 0.163379 0.364284 0.270784
510 4 0.231344 0.333561 0.315566
677 4 0.186689 0.36283 0.30827
735 4 0.175437 0.366862 0.292536
433 2 0.321839 0.375031 0.321585
435 4 0.305123 0.393148 0.325772
434 4 0.338554 0.356913 0.317399
728 4 0.345125 0.361492 0.247525
445 2 0.443782 0.369557 0.265832
446 4 0.462334 0.367252 0.282436
1757 4 0.072073 0.472814 0.265624
549 4 0.0767999 0.409843 0.319091
777 4 0.0764245 0.463128 0.308571
775 2 0.0845508 0.482806 0.321684
414 4 0.190748 0.490771 0.301565
412 2 0.20004 0.472743 0.316188
413 4 0.209332 0.454715 0.330811
436 2 0.321357 0.453882 0.298003
437 4 0.3121 0.439106 0.280081
438 4 0.330613 0.468657 0.315924
119 3 0.495798 0.437281 0.326136
713 4 0.435812 0.469029 0.310414
712 2 0.456563 0.45677 0.317071
714 4 0.477313 0.444511 0.323729
316 2 0.0483172 0.0722198 0.34373
317 4 0.0266026 0.0601772 0.340792
318 4 0.0700319 0.0842624 0.346667
428 4 0.0718027 0.0138425 0.360251
1781 4 0.104065 0.00814885 0.402056
606 4 0.133269 0.0920118 0.360055
429 4 0.106027 0.0497446 0.353892
427 2 0.0889149 0.0317936 0.357072
604 2 0.156517 0.0833412 0.356969
605 4 0.179765 0.0746706 0.353883
683 4 0.30509 0.0503346 0.38095
682 2 0.292024 0.0709713 0.386296
699 4 0.346644 0.0605806 0.345888
257 4 0.408016 0.0495234 0.340947
698 4 0.393209 0.0555166 0.328375
697 2 0.369927 0.0580486 0.337132
256 2 0.432271 0.0551987 0.343106
258 4 0.456526 0.0608741 0.345266
398 4 0.0462471 0.118031 0.365954
397 2 0.0663746 0.125907 0.353383
732 4 0.0883171 0.11779 0.330272
399 4 0.0865021 0.133784 0.340813
248 4 0.193415 0.109822 0.338629
598 2 0.174121 0.146412 0.367836
599 4 0.17185 0.149373 0.392559
684 4 0.278958 0.091608 0.391642
320 4 0.279174 0.109346 0.402025
319 2 0.26537 0.118745 0.420634
708 4 0.337843 0.167033 0.344312
2879 4 0.493457 0.0821758 0.41005
452 4 0.485205 0.121252 0.406001
451 2 0.461716 0.129821 0.405986
453 4 0.438227 0.138391 0.40597
515 4 0.426298 0.155288 0.408474
260 4 0.0714778 0.202362 0.400742
459 4 0.0315734 0.180388 0.402008
389 4 0.0970152 0.23917 0.362802
388 2 0.105949 0.252709 0.343774
474 4 0.232257 0.222544 0.381171
276 4 0.217638 0.235301 0.383227
472 2 0.225634 0.200579 0.37123
473 4 0.219011 0.178613 0.361289
715 2 0.366128 0.21908 0.365861
716 4 0.363969 0.205036 0.386436
717 4 0.368286 0.233123 0.345287
467 4 0.379488 0.202072 0.398255
270 4 0.474644 0.228868 0.422102
347 4 0.0537456 0.326911 0.383676
346 2 0.044918 0.30943 0.399222
274 2 0.214516 0.258615 0.374747
275 4 0.211393 0.281928 0.366267
373 2 0.187004 0.334365 0.38403
374 4 0.187765 0.32392 0.406735
376 2 0.289144 0.282797 0.354015
377 4 0.300139 0.28704 0.331963
378 4 0.278149 0.278553 0.376067
269 4 0.50852 0.254586 0.395802
268 2 0.491582 0.241727 0.408952
618 4 0.0467002 0.324391 0.365071
616 2 0.067941 0.331886 0.354216
617 4 0.0891818 0.339381 0.34336
508 2 0.236521 0.339318 0.339341
375 4 0.186243 0.344811 0.361326
678 4 0.167826 0.343821 0.350502
676 2 0.177257 0.353326 0.329386
509 4 0.241698 0.345075 0.363115
502 2 0.243627 0.397383 0.41455
503 4 0.268507 0.398729 0.41246
336 4 0.341109 0.369251 0.384821
334 2 0.356287 0.366674 0.404522
335 4 0.371466 0.364097 0.424224
561 4 0.481729 0.399291 0.38146
752 4 0.476453 0.415945 0.373641
751 2 0.451684 0.417056 0.376866
753 4 0.426914 0.418168 0.380092
407 4 0.0631402 0.42596 0.377831
406 2 0.0718545 0.42574 0.401266
547 2 0.0783162 0.4189 0.342347
548 4 0.0798326 0.427958 0.365603
570 4 0.161188 0.489443 0.39691
776 4 0.0926771 0.502483 0.334796
568 2 0.153445 0.480234 0.418828
1555 2 0.244482 0.496749 0.418563
2 3 0.323268 0.505449 0.346894
5 3 0.302702 0.47691 0.359362
1 1 0.323722 0.483417 0.353493
4 3 0.338018 0.481318 0.371649
1557 4 0.252795 0.481475 0.436529
3 3 0.331384 0.470455 0.335839
594 4 0.387896 0.473681 0.375727
592 2 0.397614 0.494723 0.366348
2237 4 0.0278423 0.0290412 0.492454
718 2 0.0543032 0.0573063 0.478707
720 4 0.0451859 0.0345303 0.483535
2236 2 0.0224529 0.0059061 0.500258
719 4 0.0634205 0.0800824 0.47388
367 2 0.110301 0.0257458 0.441088
369 4 0.112449 0.0412021 0.460624
368 4 0.108152 0.0102896 0.421551
2430 4 0.202998 0.0223556 0.502583
341 4 0.218244 0.0357241 0.502243
441 4 0.287284 0.0381045 0.428495
439 2 0.288169 0.0153217 0.418231
962 4 0.291234 0.0338508 0.446942
961 2 0.292644 0.0457354 0.468896
963 4 0.294055 0.05762 0.490849
426 4 0.398731 0.00409958 0.41272
424 2 0.390322 0.020993 0.429124
425 4 0.381914 0.0378864 0.445528
725 4 0.384849 0.0758644 0.431754
2586 4 0.00674606 0.125428 0.4356
458 4 0.00896692 0.142561 0.425647
457 2 0.0202701 0.161474 0.413827
471 4 0.0403187 0.160237 0.472595
686 4 0.176601 0.169088 0.425981
1181 4 0.283341 0.0994804 0.469275
1182 4 0.268495 0.143115 0.488675
1180 2 0.275918 0.121298 0.478975
321 4 0.251566 0.128144 0.439242
726 4 0.339285 0.0862333 0.449562
724 2 0.362067 0.0810488 0.440658
576 4 0.400858 0.174373 0.501707
2878 2 0.491211 0.0822414 0.434953
642 4 0.497223 0.0836121 0.47729
2880 4 0.488966 0.082307 0.459855
640 2 0.483265 0.0972366 0.492934
469 2 0.0280943 0.181798 0.475891
470 4 0.0158699 0.203359 0.479187
695 4 0.0791853 0.246323 0.469527
685 2 0.152486 0.1744 0.429908
687 4 0.128371 0.179711 0.433836
261 4 0.10953 0.18726 0.429459
259 2 0.090504 0.194811 0.4151
1035 4 0.108887 0.201363 0.445721
1033 2 0.116869 0.200561 0.469403
1034 4 0.12485 0.199759 0.493084
857 4 0.207442 0.240161 0.496453
488 4 0.25409 0.234269 0.42875
487 2 0.276558 0.23371 0.439708
489 4 0.299026 0.233151 0.450665
411 4 0.305313 0.22458 0.468034
409 2 0.323596 0.208721 0.461759
466 2 0.365258 0.195486 0.417731
574 2 0.402685 0.186571 0.479957
410 4 0.34188 0.192862 0.455483
468 4 0.351028 0.188899 0.437206
575 4 0.404511 0.198769 0.458207
516 4 0.408793 0.186915 0.443028
514 2 0.417545 0.171102 0.425751
304 2 0.494458 0.186341 0.42743
305 4 0.481699 0.185856 0.448928
348 4 0.0360904 0.291949 0.414768
694 2 0.0980249 0.261551 0.475722
696 4 0.116864 0.276778 0.481917
9 3 0.159031 0.309851 0.485463
327 4 0.129281 0.328702 0.468377
1260 4 0.135138 0.278027 0.489639
651 4 0.236725 0.270898 0.481576
649 2 0.25864 0.282682 0.479122
650 4 0.280556 0.294466 0.476667
266 4 0.341447 0.288484 0.446239
267 4 0.384731 0.26829 0.461049
265 2 0.363089 0.278387 0.453644
812 4 0.349389 0.347565 0.488731
583 2 0.46823 0.270574 0.468109
584 4 0.486669 0.263159 0.483281
585 4 0.449791 0.277989 0.452937
2845 2 0.00559004 0.331315 0.477391
2846 4 0.0251491 0.343803 0.486701
681 4 0.0171061 0.403229 0.437431
326 4 0.0986562 0.34594 0.432801
325 2 0.113969 0.337321 0.450589
384 4 0.0883377 0.41709 0.482103
6 1 0.160194 0.333018 0.486051
7 3 0.140359 0.341659 0.478237
10 3 0.177262 0.340279 0.472837
711 4 0.169833 0.375141 0.45925
504 4 0.218748 0.396037 0.41664
709 2 0.186474 0.386303 0.444295
710 4 0.203116 0.397465 0.42934
772 2 0.272423 0.417887 0.489371
804 4 0.273741 0.359973 0.491464
238 2 0.394566 0.375406 0.452279
240 4 0.388787 0.360041 0.433418
239 4 0.400345 0.390771 0.471139
587 4 0.412202 0.428709 0.423224
3309 4 0.484543 0.383748 0.483683
3307 2 0.501379 0.375096 0.500019
680 4 0.0306356 0.451315 0.439744
1381 2 0.00752492 0.485553 0.441473
1383 4 0.0238512 0.468912 0.432433
679 2 0.0238709 0.427272 0.438588
539 4 0.0601569 0.472797 0.491094
569 4 0.145702 0.471025 0.440747
383 4 0.0942767 0.434393 0.435562
382 2 0.0913072 0.425741 0.458832
408 4 0.0805689 0.425519 0.424701
634 2 0.249511 0.451817 0.453127
636 4 0.237253 0.47128 0.443324
668 4 0.326473 0.413569 0.421756
635 4 0.261769 0.432354 0.46293
774 4 0.28075 0.426204 0.46731
669 4 0.287483 0.41384 0.453069
667 2 0.306978 0.413704 0.437413
880 2 0.334235 0.47475 0.487735
882 4 0.33522 0.450356 0.493132
1401 4 0.356891 0.495513 0.411709
588 4 0.396573 0.43908 0.46958
586 2 0.404387 0.433895 0.446402
1126 2 0.0173391 0.0524737 0.561344
1127 4 0.0377118 0.0382736 0.55843
1128 4 0.996966 0.0666738 0.564258
1058 4 0.140523 0.0669309 0.572893
1031 4 0.22035 0.0796562 0.56402
340 2 0.202185 0.0545672 0.505739
432 4 0.309386 0.0490689 0.500085
430 2 0.326429 0.0615113 0.513497
951 4 0.268926 0.0304844 0.587821
1217 4 0.410338 0.0387576 0.525062
1216 2 0.413835 0.0255281 0.545989
841 2 0.380392 0.0601573 0.515865
842 4 0.398227 0.0437461 0.509721
843 4 0.362557 0.0765686 0.52201
431 4 0.343473 0.0739537 0.526909
3008 4 0.486716 0.0737864 0.557744
938 4 0.0748778 0.131705 0.558413
937 2 0.0985437 0.139767 0.558761
939 4 0.122209 0.147828 0.559108
1059 4 0.135526 0.116677 0.571872
1057 2 0.138024 0.0918041 0.572382
1153 2 0.155578 0.144885 0.576267
1155 4 0.134042 0.135542 0.56766
342 4 0.186126 0.0734104 0.509235
1030 2 0.241227 0.0929697 0.567497
1152 4 0.179324 0.0923668 0.513178
1151 4 0.183807 0.131244 0.54431
1150 2 0.181565 0.111805 0.528744
899 4 0.31218 0.146409 0.557437
1032 4 0.262104 0.106283 0.570973
641 4 0.469308 0.110861 0.508578
3159 4 0.487887 0.157855 0.549104
877 2 0.0521949 0.211613 0.574401
878 4 0.0306301 0.203906 0.584438
1199 4 0.0168193 0.216282 0.576925
879 4 0.0737596 0.219321 0.564365
1272 4 0.0934925 0.22401 0.564848
1270 2 0.111187 0.23022 0.581387
856 2 0.222882 0.235462 0.51555
858 4 0.238322 0.230764 0.534648
898 2 0.3114 0.170662 0.551406
900 4 0.31062 0.194915 0.545374
1258 2 0.145274 0.284833 0.511459
1259 4 0.15541 0.29164 0.533279
813 4 0.345698 0.315013 0.526513
872 4 0.376966 0.266019 0.546873
811 2 0.347544 0.331289 0.507622
871 2 0.368786 0.289281 0.542733
873 4 0.360605 0.312543 0.538593
983 4 0.0373435 0.324747 0.544067
982 2 0.0316796 0.336058 0.565634
8 3 0.163445 0.340235 0.507862
1189 2 0.231622 0.379436 0.566225
1191 4 0.209711 0.387932 0.574765
1190 4 0.253532 0.370941 0.557684
803 4 0.26313 0.363679 0.540192
802 2 0.268435 0.361826 0.515828
928 2 0.327925 0.383575 0.566045
773 4 0.264095 0.409569 0.511431
929 4 0.334106 0.399766 0.548022
925 2 0.427653 0.377986 0.54154
927 4 0.438385 0.388116 0.561724
926 4 0.41692 0.367856 0.521357
1161 4 0.179508 0.471851 0.556883
1159 2 0.157829 0.468907 0.568989
540 4 0.096588 0.493477 0.518404
538 2 0.0783724 0.483137 0.504749
1171 2 0.236629 0.433104 0.579827
1172 4 0.243215 0.413769 0.565407
1951 2 0.359596 0.492861 0.582886
1911 4 0.448438 0.48292 0.547588
1332 4 0.484681 0.479794 0.496145
663 4 0.43323 0.451392 0.504778
1002 4 0.421535 0.450997 0.568539
662 4 0.471599 0.474848 0.482906
661 2 0.452414 0.46312 0.493842
823 2 0.146769 0.00876777 0.634474
825 4 0.136364 0.0314812 0.635478
1284 4 0.203493 0.0780775 0.652082
949 2 0.28192 0.0349422 0.608714
950 4 0.294913 0.0393999 0.629606
809 4 0.455811 0.0710975 0.607311
1082 4 0.0588512 0.0993218 0.664468
1083 4 0.040719 0.0891219 0.618994
1081 2 0.0497851 0.0942219 0.641731
1283 4 0.174138 0.112252 0.630378
1282 2 0.188816 0.0951648 0.64123
808 2 0.456624 0.0859652 0.627398
810 4 0.457438 0.100833 0.647484
45 3 0.455865 0.103005 0.667682
852 4 0.0495758 0.186668 0.6585
1271 4 0.128881 0.23643 0.597925
1209 4 0.124077 0.251615 0.659419
1154 4 0.177114 0.154228 0.584875
1221 4 0.176269 0.172795 0.592895
1210 2 0.245091 0.174202 0.646344
1212 4 0.227599 0.178047 0.628897
1219 2 0.193063 0.181057 0.609475
1220 4 0.209857 0.189318 0.626054
791 4 0.28623 0.243443 0.596337
1193 4 0.365738 0.206255 0.65508
1025 4 0.445219 0.194446 0.657584
1244 4 0.0485601 0.249354 0.60152
1243 2 0.0469863 0.274154 0.604289
1245 4 0.0454126 0.298953 0.607058
1136 4 0.11563 0.329155 0.603065
948 4 0.156498 0.285775 0.619628
797 4 0.246894 0.254528 0.583175
796 2 0.22228 0.256333 0.587188
798 4 0.197667 0.258139 0.591201
947 4 0.191486 0.251809 0.608542
946 2 0.173992 0.268792 0.614085
792 4 0.295743 0.292353 0.600585
790 2 0.290986 0.267898 0.598461
1238 4 0.314546 0.299762 0.600064
1237 2 0.316569 0.323874 0.593765
805 2 0.327965 0.301684 0.659286
806 4 0.338795 0.311621 0.639058
954 4 0.418682 0.318755 0.597738
904 2 0.489367 0.251517 0.607124
906 4 0.464521 0.249798 0.604917
952 2 0.433971 0.299058 0.595878
953 4 0.449259 0.279361 0.594017
984 4 0.0260158 0.347369 0.587202
3263 4 0.0116247 0.343799 0.633718
1040 4 0.0838609 0.397635 0.620827
1039 2 0.0592746 0.396162 0.616523
1041 4 0.0346883 0.394688 0.61222
3264 4 0.0166082 0.388912 0.612724
3262 2 0.0141164 0.366356 0.623221
993 4 0.0951965 0.413709 0.619164
1137 4 0.15393 0.35984 0.61267
897 4 0.153397 0.378171 0.606073
1135 2 0.13478 0.344497 0.607868
991 2 0.115996 0.402198 0.611413
992 4 0.136795 0.390688 0.603662
896 4 0.200157 0.374651 0.5887
895 2 0.176777 0.376411 0.597386
1029 4 0.240965 0.374299 0.667426
1239 4 0.318593 0.347986 0.587465
930 4 0.321743 0.367384 0.584068
1204 2 0.403382 0.398157 0.637981
1206 4 0.379549 0.402757 0.631981
1205 4 0.427215 0.393557 0.643982
1160 4 0.13615 0.465964 0.581094
1173 4 0.230042 0.452439 0.594247
1187 4 0.21599 0.467281 0.596345
1186 2 0.212371 0.492016 0.596838
889 2 0.313561 0.477832 0.616979
891 4 0.292261 0.469738 0.627273
1952 4 0.335552 0.486686 0.585872
890 4 0.334861 0.485926 0.606685
1230 4 0.375991 0.452828 0.654154
1001 4 0.456441 0.464082 0.601872
1000 2 0.438988 0.45754 0.585205
1269 4 0.458895 0.45983 0.644089
1267 2 0.464552 0.482193 0.653734
1268 4 0.470209 0.504557 0.66338
944 4 0.0468866 0.0820776 0.68679
943 2 0.045158 0.0606891 0.699625
945 4 0.0434294 0.0393007 0.712459
1147 2 0.21332 0.0601068 0.731408
1149 4 0.213921 0.0442363 0.75072
1148 4 0.212719 0.0759773 0.712097
1004 4 0.361588 0.0601013 0.6776
1003 2 0.35122 0.0753204 0.694513
1005 4 0.340853 0.0905396 0.711427
1163 4 0.465658 0.0542713 0.689269
1162 2 0.486501 0.0421125 0.682718
42 3 0.454611 0.0678215 0.680071
2320 2 0.483496 0.0181213 0.740886
2321 4 0.499644 0.00112236 0.732201
1076 4 0.0599049 0.0981742 0.684116
862 2 0.0291923 0.124908 0.74496
864 4 0.0376292 0.140267 0.727125
1075 2 0.0521718 0.118961 0.695661
1077 4 0.0444387 0.139747 0.707207
1107 4 0.0459792 0.154847 0.717865
908 4 0.190422 0.144106 0.703435
907 2 0.175425 0.15306 0.685544
1227 4 0.205599 0.141768 0.716944
1225 2 0.204652 0.11686 0.718914
1226 4 0.203705 0.0919517 0.720883
829 2 0.334225 0.161706 0.724113
831 4 0.348378 0.16011 0.744663
43 3 0.43164 0.0935947 0.694927
41 1 0.452781 0.0899489 0.686086
44 3 0.468962 0.0947575 0.702006
3425 4 0.474268 0.108284 0.685322
3424 2 0.496258 0.120009 0.687357
851 4 0.0489918 0.154952 0.697158
850 2 0.0492838 0.17081 0.677829
1213 2 0.999905 0.209302 0.753955
1105 2 0.0628445 0.16765 0.731163
1177 2 0.0158552 0.240961 0.709757
909 4 0.160428 0.162015 0.667653
1130 4 0.179978 0.176854 0.74394
830 4 0.320072 0.163303 0.703563
1211 4 0.262583 0.170356 0.663792
886 2 0.293863 0.181124 0.676337
888 4 0.273972 0.187395 0.662546
887 4 0.313754 0.174854 0.690129
1194 4 0.330782 0.181355 0.680747
976 2 0.28804 0.202379 0.736869
978 4 0.269403 0.186652 0.731347
977 4 0.306677 0.218106 0.742391
1298 4 0.321554 0.225014 0.751973
1192 2 0.34826 0.193805 0.667914
1262 4 0.421193 0.234024 0.723237
1142 4 0.44981 0.190463 0.710297
1024 2 0.442278 0.201026 0.681526
1141 2 0.446172 0.182069 0.733567
1026 4 0.439336 0.207607 0.705468
1261 2 0.444835 0.237038 0.730795
1263 4 0.468478 0.240052 0.738352
1179 4 0.0293835 0.256658 0.695765
1207 2 0.104364 0.262472 0.670314
1208 4 0.0846509 0.273328 0.681209
820 2 0.167987 0.292854 0.707213
822 4 0.182742 0.273479 0.70155
821 4 0.153231 0.312229 0.712875
1065 4 0.243498 0.259746 0.694768
1063 2 0.255497 0.278746 0.683806
1064 4 0.267496 0.297747 0.672845
807 4 0.317136 0.291748 0.679513
1008 4 0.397144 0.299296 0.739892
3123 4 0.486136 0.261572 0.689411
892 2 0.0329691 0.360108 0.705193
893 4 0.0112495 0.349811 0.712079
894 4 0.0546886 0.370405 0.698308
1280 4 0.0590425 0.389052 0.703702
1279 2 0.0528882 0.412532 0.709702
940 2 0.13143 0.394151 0.737502
941 4 0.156226 0.395059 0.734416
815 4 0.0957764 0.379146 0.730475
942 4 0.106634 0.393243 0.740588
1067 4 0.175627 0.395896 0.739667
1028 4 0.192184 0.382838 0.674367
1066 2 0.184994 0.391417 0.716922
1068 4 0.194361 0.386937 0.694176
1027 2 0.216575 0.378568 0.670897
1019 4 0.364454 0.354949 0.751733
1981 2 0.0511231 0.462725 0.734518
1281 4 0.0467339 0.436011 0.715702
1983 4 0.0641475 0.44722 0.719851
1982 4 0.0380986 0.478231 0.749185
1139 4 0.278877 0.431889 0.720409
1138 2 0.284171 0.426737 0.696521
1140 4 0.289465 0.421586 0.672634
1987 2 0.329418 0.467107 0.729332
1228 2 0.363387 0.462077 0.673667
1229 4 0.350783 0.471326 0.693181
1989 4 0.338293 0.475243 0.707417
1100 4 0.412737 0.446594 0.675783
1099 2 0.424336 0.453802 0.696727
1101 4 0.435936 0.46101 0.717672
1201 2 0.122131 0.071009 0.764103
1202 4 0.107456 0.0509269 0.766657
2049 4 0.116648 0.0363084 0.777165
2047 2 0.122835 0.012296 0.780375
1050 4 0.335569 0.0136669 0.757778
1257 4 0.244858 0.0995554 0.79945
2322 4 0.467347 0.0351203 0.749571
1113 4 0.419353 0.0448528 0.810726
1112 4 0.450162 0.0729122 0.783081
844 2 0.480616 0.0785044 0.772033
1111 2 0.434758 0.0588825 0.796904
846 4 0.499811 0.0678409 0.760073
911 4 0.0763653 0.104392 0.812611
863 4 0.0207554 0.109549 0.762795
832 2 0.0109626 0.103763 0.793795
833 4 0.0279082 0.0962283 0.777024
910 2 0.0721335 0.100271 0.836907
1203 4 0.136806 0.0910912 0.761549
34 3 0.127277 0.137214 0.80731
31 1 0.111143 0.148893 0.819214
35 3 0.090382 0.141494 0.81348
1256 4 0.292797 0.0966625 0.785516
1255 2 0.268828 0.098109 0.792483
1086 4 0.330371 0.151955 0.796679
1084 2 0.335877 0.137032 0.81597
819 4 0.356054 0.11339 0.827855
845 4 0.461421 0.0891679 0.783993
1106 4 0.0797098 0.180454 0.74446
1214 4 0.0123768 0.20202 0.774366
33 3 0.112948 0.171605 0.814817
1073 4 0.138059 0.225482 0.748964
1072 2 0.122701 0.244622 0.753758
1129 2 0.188706 0.199384 0.750371
1131 4 0.197435 0.221915 0.756802
1277 4 0.198871 0.241018 0.762786
918 4 0.302645 0.233362 0.753274
1299 4 0.355704 0.208804 0.784711