ITEM: TIMESTEP
810000
ITEM: NUMBER OF ATOMS
4590
ITEM: BOX BOUNDS pp pp pp
-9.9985700000000008e+00 9.9985700000000008e+00
-9.9985700000000008e+00 9.9985700000000008e+00
-9.9985700000000008e+00 9.9985700000000008e+00
ITEM: ATOMS id type xs ys zs
1666 2 0.0844407 0.0647738 0.0856582
1668 4 0.0894682 0.057834 0.062169
1475 4 0.294105 0.0277011 0.0625063
492 4 0.290699 0.0417411 0.0772693
1474 2 0.302208 0.00487722 0.0562931
1607 4 0.393817 0.00464725 0.00588998
747 4 0.446383 0.0535546 0.0147462
2974 2 0.470192 0.0211183 0.0314881
2976 4 0.484701 0.00218296 0.0389796
2975 4 0.455683 0.0400536 0.0239966
986 4 0.443541 0.0363636 0.00781854
745 2 0.434651 0.073025 0.0251602
566 4 0.169888 0.173371 0.0691504
567 4 0.209562 0.150787 0.0487397
565 2 0.189725 0.162079 0.0589451
297 4 0.317911 0.0888459 0.0503086
358 2 0.336399 0.147462 0.0717908
360 4 0.32733 0.164622 0.0560284
295 2 0.342854 0.0904953 0.0508689
296 4 0.367797 0.0921447 0.0514293
557 4 0.373677 0.111779 0.0486135
556 2 0.393532 0.106701 0.0342897
558 4 0.413387 0.101622 0.0199658
769 2 0.412939 0.16153 0.0668069
770 4 0.388795 0.155964 0.0634456
746 4 0.422919 0.0924953 0.0355742
554 4 0.0734049 0.239826 0.0226343
664 2 0.354734 0.206607 0.0189812
665 4 0.36329 0.187401 0.0325126
666 4 0.346178 0.225813 0.00544988
771 4 0.437082 0.167095 0.0701683
323 4 0.417983 0.23627 0.0612167
553 2 0.0740881 0.261159 0.0356567
555 4 0.0747714 0.282493 0.0486791
656 4 0.00809548 0.303259 0.0748291
293 4 0.152692 0.289865 0.0279021
507 4 0.165768 0.301432 0.0400604
287 4 0.155458 0.313324 0.0509549
292 2 0.149595 0.276973 0.0067032
505 2 0.175754 0.284427 0.0554323
483 4 0.205309 0.262924 0.0661022
506 4 0.185739 0.267422 0.0708042
481 2 0.230132 0.265411 0.0644299
573 4 0.264102 0.25787 0.0484277
482 4 0.254956 0.267897 0.0627576
572 4 0.304715 0.268484 0.0212487
571 2 0.284408 0.263177 0.0348382
357 4 0.300972 0.270269 0.00181759
957 4 0.32074 0.312848 0.0053585
1069 2 0.393344 0.291099 0.0114298
1070 4 0.417366 0.284302 0.0128089
1071 4 0.369322 0.297897 0.0100506
322 2 0.417779 0.250706 0.0408023
324 4 0.417575 0.265142 0.0203878
671 4 0.447134 0.310861 0.0846202
280 2 0.4354 0.303725 0.043099
281 4 0.443178 0.307928 0.0664877
282 4 0.427623 0.299522 0.0197104
551 4 0.0753808 0.396183 0.0714041
550 2 0.0984624 0.386775 0.0733773
552 4 0.121544 0.377366 0.0753506
288 4 0.161855 0.361952 0.0412013
286 2 0.158656 0.337638 0.0460781
250 2 0.300956 0.406863 0.0358413
251 4 0.296766 0.385612 0.023351
741 4 0.372065 0.338741 0.0560771
739 2 0.355426 0.341906 0.0744709
245 4 0.22524 0.444002 0.0669735
626 4 0.207743 0.452907 0.0694856
244 2 0.232765 0.453565 0.0451308
246 4 0.240291 0.463127 0.023288
272 4 0.25562 0.468643 0.0123535
252 4 0.305146 0.428115 0.0483315
609 4 0.30652 0.439036 0.0668143
563 4 0.472857 0.475656 0.0370018
228 4 0.471015 0.459464 0.0491809
226 2 0.465373 0.445101 0.0688545
562 2 0.456005 0.494097 0.0380663
19 3 0.0400618 0.0674408 0.143042
1667 4 0.0794132 0.0717136 0.109147
18 3 0.0718032 0.0504053 0.155153
16 1 0.0531884 0.06268 0.161574
20 3 0.0597346 0.0820324 0.171637
1539 4 0.164245 0.00197568 0.138261
448 2 0.179601 0.0727005 0.161371
450 4 0.188894 0.0499195 0.165825
490 2 0.27983 0.0571039 0.0937318
652 2 0.285619 0.0326027 0.158833
653 4 0.299721 0.0504944 0.148526
491 4 0.26896 0.0724666 0.110194
654 4 0.271518 0.014711 0.169139
311 4 0.388103 0.0618294 0.15548
2722 2 0.47491 0.048981 0.126731
2723 4 0.464089 0.0655947 0.111497
2724 4 0.48573 0.0323672 0.141966
1760 4 0.498712 0.0207389 0.149926
2744 4 0.499866 0.03969 0.152152
701 4 0.0725054 0.084917 0.122812
700 2 0.0742168 0.107566 0.133265
702 4 0.0759282 0.130215 0.143718
380 4 0.0184731 0.122057 0.15634
476 4 0.0889109 0.143933 0.149433
475 2 0.106082 0.160782 0.156248
449 4 0.170308 0.0954816 0.156917
237 4 0.202211 0.15068 0.170298
235 2 0.19215 0.130325 0.159827
236 4 0.182089 0.10997 0.149357
582 4 0.24579 0.110767 0.161748
359 4 0.345468 0.130301 0.0875532
581 4 0.29089 0.132066 0.158136
580 2 0.26834 0.121417 0.159942
310 2 0.400194 0.0834773 0.152262
628 2 0.41098 0.140482 0.125114
630 4 0.40515 0.160908 0.111924
629 4 0.41681 0.120056 0.138303
312 4 0.412285 0.105125 0.149045
339 4 0.0626875 0.255411 0.131289
2625 4 0.0219336 0.185439 0.122431
337 2 0.0768744 0.247314 0.150219
477 4 0.123252 0.177631 0.163064
737 4 0.206379 0.158253 0.125293
736 2 0.189064 0.175607 0.120372
738 4 0.171749 0.19296 0.11545
461 4 0.307943 0.236551 0.0899557
460 2 0.32893 0.224232 0.0842167
354 4 0.292081 0.240147 0.100733
278 4 0.270503 0.241016 0.164088
352 2 0.285093 0.240456 0.124738
353 4 0.278106 0.240766 0.148744
277 2 0.255336 0.221823 0.169259
254 4 0.385914 0.168844 0.111891
462 4 0.349918 0.211912 0.0784777
255 4 0.351787 0.201257 0.0949936
253 2 0.368851 0.18505 0.103442
765 4 0.384296 0.247474 0.149454
763 2 0.36475 0.239912 0.163091
518 4 0.484497 0.234431 0.107757
528 4 0.475477 0.24729 0.121787
536 4 0.20207 0.303429 0.111333
535 2 0.198887 0.32706 0.118859
612 4 0.244021 0.318474 0.159778
756 4 0.257432 0.304142 0.156871
754 2 0.261091 0.279579 0.153963
755 4 0.26475 0.255016 0.151055
624 4 0.393327 0.246564 0.131294
622 2 0.381228 0.254727 0.110992
623 4 0.369129 0.262889 0.0906896
672 4 0.408632 0.336131 0.104108
670 2 0.427883 0.323496 0.0943639
526 2 0.469288 0.258604 0.143208
527 4 0.463098 0.269917 0.16463
455 4 0.137904 0.38708 0.0835023
454 2 0.157193 0.396116 0.0965963
456 4 0.176482 0.405152 0.10969
537 4 0.195705 0.350691 0.126384
302 4 0.313522 0.355801 0.163026
387 4 0.312068 0.349819 0.14493
385 2 0.328273 0.354073 0.12637
740 4 0.338788 0.34507 0.0928647
15 3 0.364461 0.363762 0.113508
386 4 0.344479 0.358327 0.107811
11 1 0.385842 0.360408 0.120596
13 3 0.387036 0.36294 0.14363
14 3 0.400083 0.375505 0.110219
495 4 0.410764 0.384494 0.0962293
12 3 0.392379 0.339045 0.115114
493 2 0.414029 0.407859 0.104512
625 2 0.189674 0.450835 0.0866434
627 4 0.171604 0.448764 0.103801
637 2 0.237892 0.504981 0.159688
607 2 0.322368 0.442105 0.0859087
608 4 0.338217 0.445174 0.105003
658 2 0.368494 0.454917 0.122703
659 4 0.349397 0.460976 0.107744
660 4 0.387591 0.448859 0.137662
525 4 0.356373 0.502142 0.084331
494 4 0.417294 0.431224 0.112795
227 4 0.459731 0.430738 0.0885281
17 3 0.0408266 0.0502151 0.176438
2480 4 0.021493 0.0440747 0.182356
1422 4 0.0173724 0.0234528 0.178679
673 2 0.119229 0.0213966 0.225558
674 4 0.127298 0.0302778 0.203622
693 4 0.225105 0.0844847 0.211742
691 2 0.232475 0.0754457 0.233859
689 4 0.169565 0.0102155 0.220673
24 3 0.322033 0.0572827 0.249095
21 1 0.341259 0.0512905 0.237569
25 3 0.335718 0.0416666 0.217686
759 4 0.352471 0.0574551 0.214177
22 3 0.353755 0.0701946 0.233614
757 2 0.363652 0.0616621 0.192212
758 4 0.374833 0.065869 0.170247
742 2 0.487026 0.0723006 0.223111
578 4 0.0725659 0.0953896 0.220767
379 2 0.0163425 0.135422 0.177364
381 4 0.0142119 0.148787 0.198389
512 4 0.0269217 0.160669 0.206861
511 2 0.0415012 0.159045 0.227109
513 4 0.0560807 0.157421 0.247357
577 2 0.0962035 0.0962899 0.228869
579 4 0.119841 0.0971903 0.23697
632 4 0.374168 0.125527 0.241137
743 4 0.471801 0.0849729 0.238368
333 4 0.448496 0.131668 0.231361
331 2 0.463124 0.149954 0.240125
338 4 0.0910614 0.239217 0.169149
363 4 0.0832384 0.232392 0.185631
361 2 0.0920483 0.246553 0.20426
279 4 0.240169 0.202629 0.174431
546 4 0.167892 0.181776 0.247889
284 4 0.287865 0.233409 0.165176
283 2 0.309625 0.229075 0.176704
285 4 0.331385 0.22474 0.188232
27 3 0.323123 0.173019 0.242418
764 4 0.345205 0.232351 0.176728
520 2 0.494897 0.185128 0.212794
521 4 0.478914 0.179 0.231019
332 4 0.477752 0.168241 0.248889
394 2 0.0136443 0.257593 0.228912
395 4 0.030827 0.25975 0.210877
750 4 0.0804659 0.318968 0.256006
748 2 0.0858869 0.296821 0.245742
371 4 0.15123 0.304063 0.217006
370 2 0.135887 0.284886 0.2217
372 4 0.120545 0.265709 0.226395
362 4 0.100858 0.260714 0.222889
749 4 0.0913079 0.274675 0.235479
343 2 0.246203 0.312049 0.240605
344 4 0.261479 0.316555 0.221331
610 2 0.248737 0.324578 0.183562
307 2 0.326967 0.287612 0.239273
308 4 0.336601 0.277536 0.218516
648 4 0.0776171 0.35024 0.162388
647 4 0.0943627 0.364623 0.207259
646 2 0.0859899 0.357431 0.184823
299 4 0.142937 0.346836 0.247783
415 2 0.210971 0.400641 0.172185
291 4 0.245019 0.390755 0.195343
416 4 0.231217 0.38761 0.178926
417 4 0.190724 0.413673 0.165444
289 2 0.258533 0.411771 0.196258
611 4 0.253452 0.330683 0.207346
303 4 0.290965 0.374727 0.203445
301 2 0.302243 0.365264 0.183236
729 4 0.308095 0.376576 0.215194
727 2 0.317711 0.37344 0.23806
447 4 0.41489 0.379539 0.256441
644 4 0.429236 0.371841 0.243868
595 2 0.459299 0.401955 0.180235
597 4 0.452435 0.381041 0.192095
643 2 0.430916 0.3749 0.21911
645 4 0.432595 0.377959 0.194351
1757 4 0.0707291 0.482026 0.248259
264 4 0.0278406 0.436213 0.240416
262 2 0.00873512 0.423958 0.229929
1466 4 0.0580092 0.497985 0.175499
767 4 0.277347 0.489537 0.177901
638 4 0.260069 0.498569 0.169294
290 4 0.272048 0.432788 0.197172
768 4 0.273235 0.439706 0.178689
766 2 0.275291 0.464621 0.178295
596 4 0.466163 0.422869 0.168375
231 4 0.419514 0.476679 0.221351
232 2 0.0173948 0.029589 0.297955
233 4 0.0385123 0.0278505 0.284681
1402 2 0.0761829 0.0275162 0.268244
1404 4 0.0537271 0.0367081 0.27428
675 4 0.11116 0.0125153 0.247494
1403 4 0.0986387 0.0183244 0.262209
1464 4 0.105493 0.00548974 0.276633
692 4 0.239846 0.0664067 0.255975
723 4 0.229485 0.0805834 0.266835
1700 4 0.281825 0.0493149 0.349348
23 3 0.353836 0.0365094 0.250286
697 2 0.371841 0.0670104 0.340243
478 2 0.482681 0.0720896 0.297938
480 4 0.464814 0.083553 0.31115
393 4 0.0546955 0.167394 0.265193
398 4 0.0528988 0.139135 0.305166
397 2 0.0593919 0.122302 0.322477
721 2 0.228557 0.0869061 0.291008
722 4 0.227628 0.0932289 0.315181
249 4 0.225879 0.112718 0.322209
404 4 0.236922 0.127316 0.327278
28 3 0.306103 0.140297 0.249646
403 2 0.255489 0.142431 0.320066
405 4 0.274056 0.157545 0.312853
26 1 0.310284 0.161637 0.25774
29 3 0.321894 0.160371 0.27779
699 4 0.364166 0.0853854 0.325122
707 4 0.337532 0.149211 0.285407
633 4 0.341109 0.131377 0.278199
631 2 0.357639 0.128452 0.259668
706 2 0.342982 0.158166 0.308107
350 4 0.405665 0.0853253 0.299188
351 4 0.453614 0.098665 0.304057
349 2 0.42964 0.0919952 0.301623
444 4 0.00982498 0.232796 0.304308
391 2 0.0765121 0.178534 0.270204
442 2 0.00578211 0.235204 0.279751
443 4 0.00173924 0.237612 0.255194
389 4 0.0661957 0.237164 0.328833
392 4 0.0983287 0.189674 0.275215
388 2 0.0873383 0.246955 0.319761
545 4 0.17128 0.222772 0.276325
544 2 0.169586 0.202274 0.262107
30 3 0.290653 0.172764 0.260817
708 4 0.348432 0.167122 0.330807
717 4 0.375666 0.228025 0.333662
762 4 0.479654 0.182932 0.263351
761 4 0.470711 0.172305 0.31139
760 2 0.475182 0.177619 0.287371
390 4 0.108481 0.256746 0.310689
345 4 0.230926 0.307543 0.25988
401 4 0.183183 0.268988 0.316852
400 2 0.194341 0.258909 0.296875
402 4 0.205499 0.24883 0.276897
496 2 0.308292 0.322644 0.294239
497 4 0.297216 0.335479 0.312618
377 4 0.281332 0.327206 0.323673
498 4 0.319367 0.30981 0.275859
309 4 0.317332 0.297688 0.260029
615 4 0.37149 0.327806 0.31731
541 2 0.385345 0.293559 0.327804
543 4 0.367536 0.310901 0.325108
542 4 0.403154 0.276217 0.3305
364 2 0.00744506 0.372255 0.292315
365 4 0.0261061 0.387525 0.285698
601 2 0.0559055 0.400736 0.290186
603 4 0.0392053 0.395188 0.272424
602 4 0.0726056 0.406285 0.307948
549 4 0.0862099 0.406516 0.321355
300 4 0.0951927 0.332853 0.252852
298 2 0.119065 0.339844 0.250317
676 2 0.202109 0.334798 0.319736
677 4 0.202473 0.352666 0.302249
734 4 0.16191 0.348237 0.252929
733 2 0.181964 0.348858 0.267849
735 4 0.202018 0.349478 0.28277
728 4 0.327327 0.370304 0.260927
433 2 0.311201 0.383414 0.33234
435 4 0.286766 0.380066 0.33645
434 4 0.335636 0.386761 0.32823
613 2 0.35937 0.349169 0.321992
614 4 0.347251 0.370532 0.326675
445 2 0.406281 0.359435 0.268561
446 4 0.397672 0.339331 0.280682
2463 4 0.0234872 0.482355 0.309811
2690 4 0.00838894 0.470481 0.30173
777 4 0.0855368 0.464415 0.302476
775 2 0.0995413 0.476095 0.319582
412 2 0.216717 0.490174 0.332865
436 2 0.330502 0.465227 0.326093
1803 4 0.350544 0.485595 0.271263
437 4 0.33772 0.455305 0.304307
714 4 0.468375 0.454919 0.334069
427 2 0.066675 0.00709895 0.338948
428 4 0.0490942 0.0248587 0.33812
316 2 0.0498478 0.0636151 0.345073
317 4 0.0411468 0.0406028 0.349534
1781 4 0.112972 0.99861 0.389326
368 4 0.100466 0.00482115 0.405
605 4 0.179469 0.0851287 0.360691
1699 2 0.283642 0.0247465 0.345074
683 4 0.291343 0.0664147 0.385362
698 4 0.379516 0.0486354 0.355363
257 4 0.392032 0.0361526 0.345132
256 2 0.416643 0.0341024 0.341227
258 4 0.441255 0.0320522 0.337322
1428 4 0.447549 0.0127274 0.341712
2879 4 0.485543 0.0782662 0.410318
2584 2 0.00242082 0.127509 0.380109
732 4 0.0710829 0.0933153 0.35394
399 4 0.0658849 0.10547 0.339788
2586 4 0.0220297 0.134948 0.393723
318 4 0.0585488 0.0866274 0.340611
457 2 0.0332507 0.158489 0.417992
458 4 0.0169792 0.153214 0.399755
606 4 0.136141 0.105528 0.346293
604 2 0.157805 0.0953281 0.353492
731 4 0.119332 0.105672 0.358421
730 2 0.0952072 0.0994938 0.35618
598 2 0.143308 0.150145 0.368944
600 4 0.141055 0.143205 0.392859
599 4 0.145561 0.157086 0.345029
248 4 0.195664 0.0966339 0.358665
247 2 0.210772 0.104676 0.340437
473 4 0.228251 0.161262 0.372778
682 2 0.291258 0.0874851 0.398824
684 4 0.291174 0.108556 0.412285
452 4 0.467829 0.135196 0.411807
451 2 0.44544 0.145749 0.415347
686 4 0.151541 0.173955 0.410795
474 4 0.202257 0.203957 0.374267
276 4 0.208237 0.221446 0.367977
472 2 0.215254 0.18261 0.373523
274 2 0.18743 0.235118 0.37028
715 2 0.394235 0.215186 0.34441
716 4 0.412805 0.202347 0.355157
467 4 0.408638 0.199994 0.374696
466 2 0.396025 0.202266 0.396165
269 4 0.496165 0.219383 0.397094
268 2 0.473678 0.228472 0.391021
270 4 0.451191 0.237561 0.384947
347 4 0.0713265 0.306006 0.366721
346 2 0.0473759 0.30597 0.3739
618 4 0.0894132 0.300996 0.370461
348 4 0.0234253 0.305933 0.38108
616 2 0.113151 0.299764 0.362704
617 4 0.136889 0.298531 0.354947
678 4 0.201745 0.31693 0.337222
275 4 0.166622 0.24879 0.372583
375 4 0.195983 0.315409 0.356601
373 2 0.191266 0.307666 0.379903
374 4 0.18655 0.299923 0.403205
376 2 0.275399 0.305635 0.334837
378 4 0.269465 0.284063 0.346001
420 4 0.413339 0.279293 0.347947
418 2 0.436606 0.271827 0.342647
419 4 0.459873 0.264361 0.337347
510 4 0.207532 0.370533 0.35952
508 2 0.230653 0.362258 0.364225
509 4 0.253773 0.353984 0.36893
561 4 0.467118 0.398386 0.396591
751 2 0.451935 0.408847 0.366211
753 4 0.448063 0.403386 0.34212
559 2 0.485595 0.388989 0.410571
547 2 0.0771044 0.415033 0.343028
548 4 0.0679988 0.42355 0.364701
407 4 0.0759421 0.431654 0.381887
406 2 0.0803164 0.440307 0.404934
1545 4 0.156713 0.50253 0.396407
500 4 0.105094 0.484363 0.354735
570 4 0.145025 0.489986 0.40953
776 4 0.113546 0.487776 0.336689
1555 2 0.238467 0.488438 0.406378
1556 4 0.21517 0.492557 0.398287
414 4 0.201002 0.471865 0.339422
438 4 0.323284 0.475149 0.347879
3 3 0.303567 0.467591 0.357192
1 1 0.311693 0.485572 0.369402
4 3 0.314187 0.479545 0.39167
1557 4 0.261764 0.484319 0.414468
2 3 0.332234 0.491602 0.360984
1742 4 0.419813 0.486447 0.349314
594 4 0.412394 0.467711 0.351729
592 2 0.405601 0.465878 0.375722
593 4 0.398808 0.464045 0.399715
118 3 0.487605 0.423253 0.345888
712 2 0.443458 0.456995 0.333899
752 4 0.455807 0.414308 0.390301
713 4 0.418542 0.459071 0.333728
119 3 0.483008 0.460978 0.346157
116 1 0.493848 0.443084 0.356191
117 3 0.487762 0.442185 0.378357
718 2 0.0555712 0.0292203 0.469366
720 4 0.0337004 0.0261798 0.481096
2237 4 0.0191656 0.0185375 0.493862
719 4 0.077442 0.0322608 0.457635
369 4 0.0899645 0.0366187 0.44214
367 2 0.0952153 0.0207199 0.42357
340 2 0.216405 0.049035 0.492578
341 4 0.216557 0.0254279 0.48434
2430 4 0.225983 0.00998672 0.494623
342 4 0.216253 0.072642 0.500815
441 4 0.318549 0.0232301 0.417408
962 4 0.315682 0.0254679 0.438146
961 2 0.309181 0.0269198 0.462246
963 4 0.30268 0.0283717 0.486346
432 4 0.295706 0.0380272 0.502844
426 4 0.389164 0.0252687 0.417803
424 2 0.364198 0.0261359 0.418882
425 4 0.339233 0.0270032 0.419961
725 4 0.398596 0.0479472 0.448496
724 2 0.410769 0.0697352 0.45001
459 4 0.0495222 0.163764 0.43623
1152 4 0.21774 0.0923058 0.501152
1181 4 0.269452 0.118283 0.484767
320 4 0.292207 0.118357 0.430113
321 4 0.289763 0.168288 0.428827
319 2 0.290985 0.143323 0.42947
726 4 0.422941 0.0915231 0.451524
514 2 0.40244 0.164338 0.452806
516 4 0.383272 0.163768 0.468851
453 4 0.423051 0.156302 0.418887
2878 2 0.47918 0.0890038 0.431984
2880 4 0.472816 0.0997414 0.453649
640 2 0.48411 0.126189 0.482891
515 4 0.421607 0.164908 0.436761
642 4 0.485557 0.11242 0.46207
260 4 0.0555248 0.183885 0.431188
259 2 0.0790433 0.187616 0.438813
685 2 0.135002 0.177301 0.429246
687 4 0.118463 0.180647 0.447698
261 4 0.102562 0.191346 0.446438
1035 4 0.111485 0.193075 0.463233
1033 2 0.116892 0.202565 0.485724
489 4 0.327376 0.229942 0.435375
468 4 0.383413 0.204537 0.417635
411 4 0.335997 0.213131 0.441771
409 2 0.36019 0.207309 0.439324
410 4 0.384383 0.201487 0.436878
575 4 0.387595 0.178758 0.481086
305 4 0.506357 0.187941 0.447053
695 4 0.0673748 0.244248 0.454415
694 2 0.0873686 0.255912 0.46387
696 4 0.107363 0.267575 0.473324
1258 2 0.131983 0.295878 0.491699
1260 4 0.123937 0.2775 0.476776
9 3 0.140394 0.3329 0.500762
651 4 0.238112 0.27676 0.484059
487 2 0.312396 0.249221 0.440772
488 4 0.297416 0.268499 0.446168
266 4 0.359515 0.255431 0.426783
267 4 0.373454 0.27739 0.469493
265 2 0.366484 0.266411 0.448138
583 2 0.467405 0.264449 0.482954
585 4 0.442771 0.261117 0.480257
584 4 0.492038 0.267781 0.485652
681 4 8.42529e-05 0.405056 0.421745
326 4 0.0786619 0.366858 0.469018
6 1 0.152377 0.350681 0.491895
327 4 0.126319 0.353954 0.476957
325 2 0.10249 0.360406 0.472988
7 3 0.137665 0.367335 0.485948
711 4 0.16261 0.370006 0.442741
502 2 0.247812 0.389363 0.437362
10 3 0.163864 0.343879 0.473444
504 4 0.223999 0.394523 0.431749
709 2 0.184973 0.381187 0.442814
710 4 0.207337 0.392369 0.442888
772 2 0.277745 0.414227 0.492143
669 4 0.288617 0.40969 0.464247
503 4 0.271625 0.384203 0.442974
336 4 0.325765 0.384028 0.432404
668 4 0.312975 0.396548 0.422597
667 2 0.300796 0.403119 0.443422
587 4 0.39969 0.411606 0.431318
882 4 0.352349 0.402875 0.475237
335 4 0.366161 0.355611 0.424573
334 2 0.345963 0.369819 0.428489
238 2 0.398548 0.382999 0.435819
240 4 0.380866 0.365321 0.435889
239 4 0.416231 0.400677 0.435748
560 4 0.504073 0.379593 0.424552
3307 2 0.494496 0.379838 0.48401
3309 4 0.47073 0.387608 0.483933
679 2 0.0122476 0.424844 0.431001
680 4 0.0244109 0.444632 0.440257
1383 4 0.0241029 0.463845 0.43605
1381 2 0.0244534 0.487073 0.445297
384 4 0.0824407 0.424491 0.48098
408 4 0.0846906 0.448961 0.427981
568 2 0.131032 0.473711 0.422355
382 2 0.0911504 0.437195 0.461283
383 4 0.0998601 0.449898 0.441587
569 4 0.117039 0.457436 0.43518
880 2 0.334543 0.413656 0.489089
636 4 0.275059 0.472576 0.425618
774 4 0.283726 0.426923 0.47145
635 4 0.284612 0.446252 0.467048
634 2 0.279835 0.459414 0.446333
588 4 0.392806 0.45928 0.417885
586 2 0.396248 0.435443 0.424602
661 2 0.451786 0.484797 0.458525
663 4 0.440068 0.463507 0.452639
430 2 0.303115 0.0533071 0.521196
431 4 0.310525 0.068587 0.539549
1031 4 0.267388 0.0707559 0.576394
843 4 0.330093 0.0743038 0.538723
841 2 0.354744 0.0701302 0.538472
842 4 0.379396 0.0659565 0.538221
1217 4 0.386847 0.0517424 0.524349
1216 2 0.411005 0.052217 0.53078
1218 4 0.435162 0.0526916 0.537211
3007 2 0.497137 0.0532009 0.567226
3008 4 0.476214 0.0591707 0.579545
1128 4 0.00976232 0.101241 0.583171
470 4 0.0274253 0.159747 0.526572
938 4 0.069171 0.158382 0.571769
937 2 0.0937608 0.154016 0.570561
1059 4 0.127444 0.122191 0.580081
939 4 0.118351 0.149651 0.569353
1057 2 0.11326 0.101933 0.583766
1155 4 0.136144 0.138737 0.571639
1151 4 0.20958 0.130538 0.532336
1150 2 0.21366 0.111422 0.516744
1032 4 0.239334 0.110876 0.586594
1030 2 0.253361 0.0908159 0.581494
1182 4 0.270581 0.142816 0.528329
1180 2 0.270017 0.13055 0.506548
641 4 0.482663 0.139957 0.503711
469 2 0.0271042 0.184701 0.525034
878 4 0.0376296 0.224284 0.577986
471 4 0.0267832 0.209655 0.523496
1244 4 0.0344884 0.2431 0.57513
1199 4 0.019204 0.216269 0.578346
877 2 0.0579396 0.211115 0.584253
1034 4 0.1223 0.212056 0.508216
1271 4 0.14399 0.215025 0.573641
858 4 0.175258 0.239093 0.540532
856 2 0.189679 0.251627 0.524404
900 4 0.269578 0.16213 0.533273
898 2 0.285486 0.176914 0.545666
899 4 0.301393 0.191697 0.558059
650 4 0.263892 0.249866 0.517419
576 4 0.386427 0.190884 0.529586
574 2 0.387011 0.184821 0.505336
983 4 0.0202943 0.310188 0.549088
1245 4 0.0622393 0.280957 0.557884
1243 2 0.0483638 0.262028 0.566507
982 2 0.0201583 0.333194 0.55888
1259 4 0.140029 0.314256 0.506621
857 4 0.2041 0.264162 0.508277
798 4 0.194639 0.259246 0.578096
947 4 0.176355 0.267855 0.57909
649 2 0.251002 0.263313 0.500739
872 4 0.361286 0.279978 0.559267
871 2 0.365146 0.304491 0.556203
873 4 0.369006 0.329005 0.553139
906 4 0.464946 0.272383 0.580642
953 4 0.44665 0.279077 0.581462
904 2 0.488551 0.269171 0.573049
984 4 0.0200222 0.3562 0.568673
3354 4 0.00850606 0.367401 0.580003
1189 2 0.213671 0.375104 0.582093
1190 4 0.229932 0.364804 0.566135
8 3 0.16711 0.359006 0.507771
803 4 0.236937 0.352649 0.549843
802 2 0.257264 0.362873 0.539478
804 4 0.277592 0.373098 0.529113
929 4 0.324437 0.39099 0.554603
773 4 0.271764 0.401531 0.512837
813 4 0.366995 0.343042 0.540214
928 2 0.330338 0.374671 0.572604
811 2 0.377645 0.365388 0.536691
812 4 0.388294 0.387734 0.533169
927 4 0.406669 0.394268 0.539544
926 4 0.447332 0.385571 0.567322
925 2 0.427 0.389919 0.553433
539 4 0.0763195 0.456969 0.506586
538 2 0.0926674 0.471447 0.518764
540 4 0.109015 0.485926 0.530942
1188 4 0.181025 0.489468 0.587333
881 4 0.316737 0.424438 0.502942
1002 4 0.404747 0.43322 0.550298
1000 2 0.42585 0.446586 0.549202
1001 4 0.446953 0.459951 0.548107
945 4 0.0234257 0.038506 0.673649
1083 4 0.0690632 0.0889011 0.618893
2115 4 0.997644 0.0232637 0.603723
823 2 0.124886 0.0197902 0.62553
825 4 0.10592 0.0336788 0.617011
1058 4 0.0990759 0.0816738 0.587451
824 4 0.143852 0.00590158 0.634049
951 4 0.279761 0.0563259 0.574582
949 2 0.296728 0.0495613 0.591657
950 4 0.313695 0.0427968 0.608731
2283 4 0.416889 0.00367015 0.602807
809 4 0.472723 0.0655692 0.597836
808 2 0.465799 0.0746262 0.620089
42 3 0.449651 0.070305 0.657743
1126 2 0.031926 0.0980695 0.594301
1081 2 0.0615906 0.0893028 0.64275
1127 4 0.0540898 0.0948976 0.605432
1082 4 0.054118 0.0897045 0.666608
1153 2 0.150567 0.151463 0.587614
1154 4 0.164989 0.16419 0.60359
1221 4 0.184809 0.161564 0.607056
810 4 0.458875 0.0836833 0.642343
45 3 0.46012 0.105067 0.649088
41 1 0.451599 0.091851 0.665562
879 4 0.0782495 0.197947 0.59052
1272 4 0.0974543 0.208147 0.590607
1270 2 0.120722 0.211586 0.582124
1212 4 0.216655 0.217773 0.634757
1219 2 0.197712 0.181251 0.615488
1220 4 0.210614 0.200939 0.623919
1210 2 0.234259 0.205814 0.647883
1211 4 0.251863 0.193855 0.661008
1194 4 0.315147 0.169673 0.656282
1193 4 0.363265 0.183148 0.654344
1192 2 0.339206 0.17641 0.655313
3159 4 0.488945 0.175094 0.585386
1136 4 0.12458 0.297249 0.5875
948 4 0.128008 0.279013 0.585321
946 2 0.152181 0.273434 0.582205
1135 2 0.130273 0.321218 0.591771
796 2 0.214417 0.264237 0.592557
797 4 0.234194 0.269227 0.607018
791 4 0.253631 0.268716 0.611633
792 4 0.295913 0.288 0.593164
790 2 0.274772 0.278358 0.602399
1238 4 0.309897 0.30213 0.59337
1237 2 0.326388 0.320924 0.593467
954 4 0.404521 0.294028 0.603874
806 4 0.358772 0.314533 0.667889
952 2 0.425586 0.286552 0.592668
3123 4 0.499827 0.25404 0.649541
1039 2 0.0710089 0.4076 0.634444
1041 4 0.046857 0.414008 0.635345
3264 4 0.029508 0.40488 0.635533
3262 2 0.025014 0.383452 0.647609
3263 4 0.02052 0.362024 0.659685
1040 4 0.0951608 0.401193 0.633543
993 4 0.0886911 0.382496 0.626385
1137 4 0.135967 0.345188 0.596041
897 4 0.13782 0.364749 0.590531
991 2 0.105592 0.370303 0.612569
992 4 0.122492 0.358111 0.598752
895 2 0.158344 0.378263 0.595151
1172 4 0.20971 0.400416 0.600759
1191 4 0.197409 0.385404 0.598051
896 4 0.178867 0.391777 0.59977
1029 4 0.229692 0.394146 0.663703
1239 4 0.342879 0.339718 0.593563
930 4 0.336238 0.358351 0.590605
1204 2 0.411075 0.411896 0.656576
1206 4 0.433976 0.401879 0.655971
3240 4 0.0136539 0.407669 0.623257
4250 4 7.41885e-05 0.493661 0.60169
1160 4 0.115051 0.476903 0.596036
1159 2 0.139902 0.479527 0.596878
1161 4 0.164754 0.482152 0.59772
1171 2 0.212321 0.423262 0.610578
1173 4 0.214933 0.446108 0.620398
1187 4 0.210314 0.465356 0.619913
1186 2 0.195669 0.477412 0.603623
1952 4 0.331998 0.478939 0.592622
889 2 0.302361 0.472567 0.619588
891 4 0.290197 0.473946 0.64139
890 4 0.314525 0.471188 0.597787
1205 4 0.388173 0.421912 0.657181
1951 2 0.349553 0.49473 0.584399
1230 4 0.355757 0.462526 0.639549
1268 4 0.462961 0.489408 0.655427
1269 4 0.429862 0.454143 0.642719
1267 2 0.446412 0.471775 0.649073
943 2 0.0437298 0.0516026 0.680083
944 4 0.0640338 0.0646991 0.686518
1076 4 0.0681851 0.0831361 0.681179
1147 2 0.213381 0.0637408 0.731898
1149 4 0.207417 0.0396484 0.72887
1148 4 0.219345 0.0878332 0.734926
1004 4 0.377154 0.0655792 0.693457
1163 4 0.461883 0.071232 0.676407
1162 2 0.470597 0.0515564 0.689139
2320 2 0.484296 0.0222216 0.741459
2321 4 0.487445 0.0233465 0.71668
1164 4 0.479311 0.0318809 0.701872
4581 4 0.494251 0.00665788 0.713353
3402 4 0.498472 0.0254226 0.703852
864 4 0.0627568 0.118846 0.734432
1075 2 0.0654924 0.101937 0.697441
1077 4 0.0627997 0.120737 0.713704
1107 4 0.0760157 0.128281 0.724868
851 4 0.0657534 0.140766 0.715335
850 2 0.0515579 0.156585 0.702167
862 2 0.0458734 0.112158 0.751619
1283 4 0.157975 0.106559 0.681556
1105 2 0.0997381 0.135823 0.722513
1282 2 0.13799 0.104835 0.696482
1284 4 0.118004 0.10311 0.711408
909 4 0.155793 0.173601 0.68281
1106 4 0.123461 0.143364 0.720157
908 4 0.196034 0.146686 0.695336
907 2 0.175913 0.160144 0.689073
1227 4 0.212274 0.148807 0.708642
1225 2 0.212764 0.124495 0.714462
1226 4 0.213255 0.100183 0.720281
829 2 0.325137 0.145049 0.70994
830 4 0.315339 0.152861 0.688304
1003 2 0.370803 0.0893558 0.697875
1005 4 0.364452 0.113132 0.702293
831 4 0.334936 0.137237 0.731577
3424 2 0.493686 0.118461 0.665283
3425 4 0.472837 0.104768 0.667012
43 3 0.430594 0.099502 0.67178
44 3 0.465805 0.0919175 0.683908
852 4 0.0373624 0.172405 0.688999
1073 4 0.114085 0.217875 0.740188
1072 2 0.115295 0.242738 0.737834
888 4 0.263468 0.186939 0.675663
886 2 0.285097 0.174465 0.674325
887 4 0.306726 0.161992 0.672988
1146 4 0.500671 0.168499 0.737236
1025 4 0.438755 0.184659 0.672469
1262 4 0.432927 0.214956 0.727034
1142 4 0.450603 0.181534 0.723788
1024 2 0.438554 0.191064 0.696637
1141 2 0.447332 0.17175 0.746564
1026 4 0.438354 0.197469 0.720806
1261 2 0.446776 0.230861 0.740465
1263 4 0.460626 0.246767 0.753896
893 4 0.010918 0.332648 0.732667
1074 4 0.116505 0.267601 0.735479
1209 4 0.139836 0.291493 0.696074
1207 2 0.116464 0.285319 0.702463
1208 4 0.0930925 0.279145 0.708852
821 4 0.147567 0.298219 0.678719
820 2 0.171005 0.295372 0.68695
822 4 0.194443 0.292526 0.695182
1063 2 0.244498 0.305868 0.704987
1064 4 0.235266 0.309378 0.682017
1065 4 0.25373 0.302357 0.727957
916 2 0.309642 0.263965 0.745006
917 4 0.316375 0.285018 0.733319
807 4 0.316647 0.287591 0.66728
805 2 0.33771 0.301062 0.667585
892 2 0.0205243 0.355709 0.731624
894 4 0.0301306 0.37877 0.730582
1280 4 0.0483134 0.384069 0.725344
1279 2 0.0419212 0.406903 0.717412
816 4 0.0684708 0.390556 0.725054
814 2 0.0867094 0.374042 0.729507
942 4 0.11925 0.365494 0.744182
815 4 0.104948 0.357529 0.73396
1140 4 0.234542 0.413207 0.66403
1028 4 0.204688 0.368864 0.698865
1066 2 0.197509 0.378117 0.737969
1068 4 0.212336 0.37256 0.718618
1027 2 0.21719 0.381505 0.681284
1019 4 0.379008 0.378953 0.735072
1018 2 0.390071 0.399177 0.744756
1981 2 0.0705226 0.455753 0.717035
1281 4 0.035529 0.429738 0.709481
1983 4 0.0495406 0.442187 0.716089
1982 4 0.0915046 0.469319 0.717981
2016 4 0.184121 0.494168 0.745871
1138 2 0.250416 0.428966 0.675206
1139 4 0.266289 0.444724 0.686381
1988 4 0.311956 0.454311 0.74981
1987 2 0.31768 0.459231 0.725973
1989 4 0.323404 0.46415 0.702135
1020 4 0.401135 0.4194 0.75444
1229 4 0.336452 0.464615 0.685632
1228 2 0.346104 0.46357 0.66259
1100 4 0.412026 0.478094 0.714984
2168 4 0.458212 0.497249 0.671988
1101 4 0.449015 0.501458 0.690762
1099 2 0.430521 0.489776 0.702873
2991 4 0.0109277 0.0382626 0.756378
2989 2 0.00795443 0.0630117 0.758333
1202 4 0.127594 0.0422671 0.748334
2049 4 0.130951 0.0237523 0.755671
1203 4 0.0988496 0.0587448 0.78579
1201 2 0.113222 0.0505059 0.767062
1257 4 0.231361 0.0751321 0.772172
817 2 0.321913 0.0423259 0.804154
819 4 0.304809 0.0602815 0.80735
1085 4 0.294559 0.0738778 0.814465
1050 4 0.333443 0.00594126 0.775181
960 4 0.300935 0.0815783 0.831626
818 4 0.339018 0.0243702 0.800959
974 4 0.347319 0.0159681 0.78563
973 2 0.370313 0.00871085 0.792249
1113 4 0.423812 0.080254 0.772335
2322 4 0.481147 0.0210968 0.766238
844 2 0.497243 0.0761895 0.786913
863 4 0.0289899 0.10547 0.768806
833 4 0.0103747 0.101602 0.774137
832 2 0.00810234 0.110668 0.797328
2990 4 0.00498119 0.0877607 0.760288
834 4 0.00582995 0.119733 0.820519
911 4 0.115536 0.115685 0.82472
34 3 0.126725 0.119995 0.781442
31 1 0.12466 0.128746 0.802832
35 3 0.102921 0.127793 0.809552
32 3 0.137594 0.116317 0.817233
33 3 0.132088 0.150727 0.80315
1255 2 0.24361 0.0824683 0.792699
840 4 0.259243 0.107992 0.820338
1256 4 0.255858 0.0898045 0.813225
1084 2 0.299303 0.0948274 0.801667
1086 4 0.304047 0.115777 0.788869
1022 4 0.367477 0.160224 0.828429
845 4 0.479227 0.0813278 0.803472
1111 2 0.442877 0.0854235 0.787665
1112 4 0.461941 0.0905931 0.802995
1143 4 0.444061 0.161967 0.76934
1214 4 0.997238 0.202565 0.758472
1130 4 0.157599 0.20555 0.792151
978 4 0.239648 0.223142 0.762039
1129 2 0.180514 0.214953 0.788734
1131 4 0.203429 0.224357 0.785317
1277 4 0.206049 0.244001 0.780445
976 2 0.264187 0.227716 0.76349