ITEM: TIMESTEP
1840000
ITEM: NUMBER OF ATOMS
4590
ITEM: BOX BOUNDS pp pp pp
-9.9985700000000008e+00 9.9985700000000008e+00
-9.9985700000000008e+00 9.9985700000000008e+00
-9.9985700000000008e+00 9.9985700000000008e+00
ITEM: ATOMS id type xs ys zs
1666 2 0.0502847 0.068284 0.0606014
1668 4 0.0449608 0.0712164 0.0363478
1474 2 0.303027 0.0128091 0.0742386
2974 2 0.470844 0.030006 0.00833909
2976 4 0.479935 0.0105771 0.0211861
566 4 0.17728 0.163569 0.030868
2264 4 0.242191 0.160869 0.0171802
297 4 0.32624 0.115852 0.029578
295 2 0.343964 0.106454 0.0146549
556 2 0.397373 0.11165 0.00894782
296 4 0.361689 0.0970569 0.999732
557 4 0.372585 0.112138 0.00570758
558 4 0.422161 0.111162 0.0121881
746 4 0.438973 0.107803 0.001843
565 2 0.200606 0.165142 0.0220035
567 4 0.223933 0.166714 0.013139
1133 4 0.222845 0.181101 0.000695273
360 4 0.325905 0.172069 0.00454228
769 2 0.403136 0.173709 0.00853057
770 4 0.385577 0.169196 0.0257496
359 4 0.367725 0.168143 0.0316789
358 2 0.346815 0.170106 0.0181106
664 2 0.387552 0.199345 0.0552643
665 4 0.38045 0.182409 0.0382962
666 4 0.394653 0.216281 0.0722325
323 4 0.403915 0.231272 0.0640895
623 4 0.399677 0.231658 0.0835423
555 4 0.0591058 0.27445 0.0152347
287 4 0.156372 0.315456 0.0401856
292 2 0.124826 0.291435 0.0264227
507 4 0.15775 0.301692 0.0528409
293 4 0.144978 0.299392 0.0389032
294 4 0.104674 0.283479 0.0139421
286 2 0.167143 0.326933 0.0207576
551 4 0.0995153 0.333636 0.0564965
505 2 0.174192 0.302202 0.0716713
481 2 0.227251 0.288608 0.0805061
482 4 0.246963 0.28308 0.066151
573 4 0.26133 0.297076 0.0667521
571 2 0.268732 0.287025 0.0450871
572 4 0.276133 0.276974 0.0234221
357 4 0.28134 0.278893 0.00365154
322 2 0.410789 0.250492 0.0496495
1069 2 0.395267 0.292778 0.0185452
957 4 0.364137 0.32045 0.0261263
1071 4 0.373711 0.305437 0.0180144
955 2 0.346497 0.318811 0.00848204
1070 4 0.416822 0.280119 0.019076
324 4 0.417662 0.269712 0.0352094
671 4 0.448497 0.321176 0.0697057
280 2 0.446213 0.303033 0.0382942
281 4 0.46044 0.313727 0.0558561
282 4 0.431986 0.292339 0.0207323
670 2 0.427855 0.326076 0.082937
455 4 0.142222 0.38807 0.0590511
552 4 0.133206 0.369464 0.0655492
550 2 0.116361 0.35155 0.0610228
454 2 0.167061 0.388134 0.0561854
288 4 0.177915 0.338409 0.00132967
456 4 0.1919 0.388198 0.0533198
1290 4 0.26595 0.406109 0.0178171
252 4 0.278653 0.406427 0.0729757
1288 2 0.274748 0.388541 0.00235228
609 4 0.296136 0.414177 0.0786847
741 4 0.361536 0.333369 0.0407847
739 2 0.367699 0.333309 0.0650168
495 4 0.38487 0.360672 0.0852613
330 4 0.00915222 0.429951 0.00906152
245 4 0.245566 0.486975 0.0624661
626 4 0.2259 0.482138 0.0606051
625 2 0.206107 0.469994 0.0698774
244 2 0.256506 0.474001 0.0441043
246 4 0.267447 0.461027 0.0257425
251 4 0.271839 0.423823 0.0265897
250 2 0.275246 0.415125 0.0497827
272 4 0.265341 0.442829 0.0224409
1560 4 0.317931 0.498416 0.077294
1672 2 0.411777 0.442112 0.0751555
853 2 0.406392 0.432273 0.0150805
854 4 0.41549 0.443982 0.0352126
1674 4 0.423391 0.447785 0.0537518
563 4 0.481727 0.44955 0.0481966
562 2 0.457312 0.450498 0.042889
564 4 0.432897 0.451446 0.0375814
228 4 0.486224 0.441379 0.0300548
1667 4 0.0556086 0.0653517 0.0848549
18 3 0.0707563 0.0404743 0.152806
1475 4 0.308092 0.0322935 0.0890672
492 4 0.303232 0.0341253 0.10905
490 2 0.293258 0.0570537 0.109097
491 4 0.283285 0.0799821 0.109144
485 4 0.387731 0.000471132 0.11863
2469 4 0.49435 0.00930782 0.0823597
2723 4 0.448526 0.06624 0.140625
2722 2 0.469933 0.0543434 0.145663
2724 4 0.49134 0.0424469 0.150702
1760 4 0.492181 0.0282403 0.135953
2744 4 0.498769 0.0258611 0.153797
701 4 0.0556512 0.0853741 0.0877266
700 2 0.0640835 0.107072 0.0968529
702 4 0.0725157 0.128769 0.105979
476 4 0.0821974 0.146119 0.0994635
475 2 0.0924761 0.147251 0.122229
477 4 0.102755 0.148383 0.144994
237 4 0.233563 0.123316 0.157382
582 4 0.247698 0.112589 0.148306
449 4 0.174668 0.117019 0.157824
235 2 0.20958 0.126999 0.16342
580 2 0.265643 0.124557 0.160953
628 2 0.363804 0.141582 0.151318
312 4 0.384908 0.110994 0.157235
629 4 0.375815 0.126248 0.166994
630 4 0.351793 0.156916 0.135641
310 2 0.382348 0.0883084 0.167431
339 4 0.0722183 0.234774 0.12924
337 2 0.0664392 0.243593 0.151912
736 2 0.239094 0.181765 0.116226
738 4 0.239179 0.184225 0.0913443
737 4 0.239008 0.179306 0.141109
461 4 0.302814 0.232988 0.0965201
460 2 0.325489 0.232552 0.107048
354 4 0.285827 0.236827 0.104845
352 2 0.275316 0.243321 0.126583
353 4 0.264805 0.249815 0.148321
278 4 0.259167 0.242309 0.165029
254 4 0.348906 0.173256 0.147009
462 4 0.348164 0.232116 0.117575
255 4 0.356036 0.21962 0.129682
253 2 0.352471 0.196438 0.138346
765 4 0.356215 0.236844 0.136592
624 4 0.366803 0.233031 0.1212
622 2 0.38324 0.232345 0.102371
763 2 0.346429 0.248906 0.156186
483 4 0.20754 0.294137 0.0948613
506 4 0.190634 0.302712 0.0905018
537 4 0.177838 0.315111 0.10037
535 2 0.181948 0.327766 0.121539
755 4 0.246538 0.251485 0.152255
754 2 0.237307 0.272149 0.162884
387 4 0.310067 0.314251 0.115418
301 2 0.312733 0.312041 0.160851
302 4 0.30871 0.317761 0.136845
284 4 0.273955 0.254431 0.165355
385 2 0.332443 0.32134 0.106802
15 3 0.366932 0.321471 0.113028
386 4 0.354819 0.328429 0.0981861
12 3 0.403861 0.321119 0.118411
672 4 0.407213 0.330976 0.0961682
528 4 0.483088 0.271032 0.0965974
526 2 0.466951 0.289204 0.0907189
527 4 0.450814 0.307376 0.0848404
315 4 0.018905 0.397221 0.107952
647 4 0.0587194 0.356251 0.160297
417 4 0.146031 0.403888 0.146604
415 2 0.168648 0.394985 0.140738
536 4 0.186058 0.34042 0.142709
291 4 0.205281 0.394558 0.123929
289 2 0.227383 0.404306 0.130383
416 4 0.191265 0.386083 0.134872
493 2 0.386342 0.385598 0.0839494
494 4 0.387814 0.410524 0.0826375
14 3 0.388961 0.344744 0.0932614
740 4 0.373862 0.333249 0.0892488
11 1 0.385664 0.334402 0.113769
13 3 0.383594 0.350388 0.13046
595 2 0.485175 0.409277 0.123795
597 4 0.493607 0.401708 0.146084
645 4 0.477809 0.398121 0.160777
596 4 0.476744 0.416846 0.101506
104 3 0.49852 0.364383 0.140898
1791 4 0.0633834 0.491094 0.121711
1466 4 0.0603793 0.47783 0.136802
1465 2 0.0442954 0.476196 0.155876
627 4 0.186315 0.45785 0.0791497
290 4 0.249485 0.414055 0.136837
638 4 0.241336 0.483278 0.127638
607 2 0.31085 0.426194 0.0949411
608 4 0.325564 0.438211 0.111197
768 4 0.250103 0.428199 0.122004
767 4 0.259032 0.477333 0.119389
766 2 0.254568 0.452766 0.120697
1673 4 0.400163 0.436439 0.0965592
659 4 0.345006 0.439218 0.116116
660 4 0.38401 0.429263 0.0864471
658 2 0.364508 0.43424 0.101282
1559 4 0.357175 0.485147 0.105304
1558 2 0.337553 0.491781 0.0912988
524 4 0.371931 0.497627 0.100738
16 1 0.0682195 0.0509147 0.173372
19 3 0.0661049 0.0738316 0.170415
17 3 0.0491535 0.0429285 0.183465
2480 4 0.039431 0.0329901 0.190772
1422 4 0.0335951 0.0149131 0.198421
2479 2 0.0219565 0.0482304 0.200129
380 4 0.00472202 0.0805733 0.219678
20 3 0.086176 0.0464158 0.186638
578 4 0.0975116 0.0622459 0.182542
674 4 0.144554 0.0193892 0.211164
673 2 0.131003 0.0105778 0.23024
689 4 0.147221 0.00436489 0.197783
577 2 0.122174 0.0655678 0.184977
579 4 0.146836 0.0688897 0.187413
1504 2 0.231927 0.999353 0.180821
652 2 0.2914 0.0178259 0.198941
654 4 0.276234 0.00675962 0.182427
1506 4 0.255434 0.00781581 0.179851
653 4 0.306565 0.0288922 0.215455
25 3 0.333824 0.0425058 0.23661
311 4 0.379789 0.0656223 0.177628
758 4 0.371494 0.0510679 0.187548
759 4 0.351446 0.0566237 0.233023
757 2 0.36147 0.0538458 0.210285
511 2 0.0451667 0.154386 0.211059
513 4 0.0684202 0.163274 0.213395
381 4 0.0160574 0.12671 0.204069
512 4 0.0219132 0.145498 0.208722
379 2 0.0103897 0.103642 0.211874
393 4 0.0837016 0.15354 0.220143
450 4 0.145027 0.0889407 0.186698
448 2 0.159847 0.10298 0.172261
391 2 0.0898724 0.162574 0.242626
691 2 0.228248 0.101223 0.246505
693 4 0.209307 0.0995463 0.230269
236 4 0.185598 0.130682 0.169458
581 4 0.283587 0.136524 0.173599
26 1 0.32049 0.15954 0.243336
30 3 0.297778 0.160395 0.244775
28 3 0.327049 0.139624 0.233398
521 4 0.484407 0.139462 0.216287
332 4 0.476899 0.124966 0.225586
762 4 0.470113 0.143935 0.228234
760 2 0.450124 0.153721 0.239631
331 2 0.490562 0.10528 0.232724
394 2 0.0229645 0.231126 0.23209
395 4 0.0450491 0.220898 0.226361
396 4 0.000879805 0.241354 0.23782
279 4 0.247965 0.197426 0.184023
277 2 0.253566 0.219868 0.174526
27 3 0.327932 0.177083 0.230452
338 4 0.06066 0.252412 0.174583
363 4 0.0614148 0.270547 0.183165
361 2 0.0727205 0.288868 0.195881
749 4 0.0682588 0.318421 0.21648
648 4 0.0601839 0.329583 0.202574
362 4 0.0840263 0.30719 0.208597
370 2 0.121064 0.302395 0.222706
372 4 0.0988401 0.296093 0.213137
371 4 0.143288 0.308696 0.232275
734 4 0.148098 0.319408 0.247945
756 4 0.228077 0.292813 0.173513
610 2 0.24096 0.297694 0.214965
612 4 0.229692 0.297971 0.192646
611 4 0.252228 0.297417 0.237284
285 4 0.319545 0.267998 0.18079
283 2 0.29675 0.261214 0.173073
307 2 0.32801 0.289092 0.209746
308 4 0.321989 0.286144 0.185658
303 4 0.316757 0.306321 0.184856
729 4 0.305108 0.314721 0.201872
498 4 0.323445 0.296905 0.249987
309 4 0.33403 0.292041 0.233834
764 4 0.336642 0.260968 0.17578
748 2 0.0762618 0.33449 0.233884
646 2 0.0594517 0.342917 0.181436
727 2 0.298123 0.337602 0.209141
728 4 0.291137 0.360483 0.21641
446 4 0.425692 0.356631 0.233722
445 2 0.431478 0.377917 0.221949
447 4 0.437264 0.399204 0.210176
644 4 0.44895 0.411046 0.199517
643 2 0.46338 0.404583 0.180147
1467 4 0.0282115 0.474562 0.17495
414 4 0.229937 0.466796 0.243236
229 2 0.460113 0.495852 0.238995
234 4 0.00664732 0.0431731 0.287448
232 2 0.0302021 0.0348001 0.286956
233 4 0.053757 0.0264271 0.286464
1404 4 0.071901 0.0176088 0.283518
316 2 0.0804799 0.0502495 0.303438
317 4 0.0696875 0.0288688 0.296257
428 4 0.0756769 0.0121738 0.303495
427 2 0.0609135 0.00120014 0.32043
1402 2 0.0865493 0.00468467 0.267911
318 4 0.0912722 0.0716302 0.310619
732 4 0.106402 0.0790862 0.319362
24 3 0.31627 0.0717201 0.252612
21 1 0.334436 0.0573402 0.253879
23 3 0.334139 0.0459659 0.274102
22 3 0.3538 0.069689 0.252577
349 2 0.394084 0.0694357 0.260591
351 4 0.414854 0.055516 0.260738
479 4 0.461707 0.0286168 0.295285
478 2 0.448513 0.0381456 0.276303
2664 4 0.480704 0.0210569 0.296433
480 4 0.435318 0.0476745 0.257322
1428 4 0.466498 0.0180538 0.307901
258 4 0.455408 0.0354196 0.311946
256 2 0.43956 0.0380092 0.331111
399 4 0.0898211 0.0855167 0.325983
721 2 0.23497 0.12401 0.296419
722 4 0.228445 0.127883 0.320244
723 4 0.241495 0.120137 0.272595
692 4 0.24719 0.102899 0.26274
29 3 0.329836 0.161285 0.264502
632 4 0.367616 0.102672 0.262929
350 4 0.373314 0.0833554 0.260444
631 2 0.352407 0.12206 0.258689
707 4 0.34092 0.148735 0.271868
633 4 0.337199 0.141448 0.254449
706 2 0.340063 0.162427 0.292772
761 4 0.430136 0.163506 0.251028
392 4 0.0960432 0.171607 0.265109
546 4 0.129181 0.175579 0.280405
544 2 0.145731 0.193806 0.276036
545 4 0.16228 0.212033 0.271667
402 4 0.178838 0.220857 0.278752
400 2 0.182888 0.24516 0.283012
474 4 0.180445 0.213242 0.322643
276 4 0.167957 0.198486 0.328009
378 4 0.258845 0.251381 0.31807
708 4 0.339206 0.176119 0.313676
419 4 0.431088 0.232956 0.331066
401 4 0.186937 0.269463 0.287272
676 2 0.183963 0.301777 0.309073
345 4 0.199364 0.281594 0.27798
677 4 0.187864 0.287957 0.288604
343 2 0.219731 0.290479 0.266517
735 4 0.184692 0.294709 0.27143
733 2 0.166395 0.307059 0.259687
344 4 0.240099 0.299363 0.255054
678 4 0.180062 0.315597 0.329542
376 2 0.274747 0.263145 0.302775
496 2 0.315742 0.280895 0.26758
497 4 0.308039 0.264885 0.285173
377 4 0.290648 0.274909 0.287481
541 2 0.38944 0.298353 0.321152
542 4 0.405272 0.279073 0.322826
543 4 0.373608 0.317633 0.319477
420 4 0.415824 0.273945 0.306824
418 2 0.423456 0.253451 0.318945
264 4 0.998214 0.393901 0.255378
365 4 0.0293368 0.365559 0.295343
601 2 0.0487069 0.386148 0.326398
603 4 0.0449235 0.371199 0.306716
364 2 0.00494734 0.362685 0.300041
299 4 0.151374 0.337477 0.256175
750 4 0.0842648 0.350559 0.251288
298 2 0.128019 0.346169 0.254141
300 4 0.104663 0.35486 0.252106
433 2 0.303061 0.385815 0.314762
435 4 0.281095 0.393053 0.305262
434 4 0.325028 0.378578 0.324262
614 4 0.339183 0.373746 0.337858
615 4 0.370839 0.337583 0.324042
613 2 0.355011 0.355665 0.33095
2461 2 0.00177749 0.493303 0.316506
1757 4 0.0728326 0.430483 0.269696
776 4 0.0739045 0.500784 0.320545
1775 4 0.108023 0.491495 0.262928
1756 2 0.0867335 0.45115 0.267495
1758 4 0.100634 0.471816 0.265294
777 4 0.0948946 0.499558 0.275173
775 2 0.0843995 0.500171 0.297859
412 2 0.223832 0.461329 0.266858
1436 4 0.21427 0.444086 0.30607
413 4 0.217727 0.455862 0.29048
1435 2 0.233906 0.442628 0.321482
3 3 0.297858 0.460005 0.320983
1801 2 0.361132 0.49749 0.292957
437 4 0.356016 0.478362 0.330286
1802 4 0.353875 0.493054 0.31647
231 4 0.472026 0.481218 0.2554
712 2 0.460989 0.464165 0.33031
713 4 0.436506 0.466186 0.325655
1742 4 0.428659 0.484993 0.325671
730 2 0.125154 0.0716354 0.334128
1780 2 0.121695 0.00882603 0.405822
731 4 0.143906 0.0641845 0.348894
606 4 0.163877 0.0603127 0.354256
604 2 0.186551 0.0694781 0.349053
605 4 0.209225 0.0786435 0.343849
1701 4 0.327891 0.0312362 0.39012
441 4 0.322455 0.0166726 0.40351
425 4 0.332329 0.0323741 0.408421
683 4 0.26977 0.0745354 0.374062
698 4 0.409349 0.0503918 0.340209
1699 2 0.341606 0.0340263 0.369401
1700 4 0.355322 0.0368163 0.348682
699 4 0.359471 0.0539714 0.340336
697 2 0.38441 0.0521816 0.340272
257 4 0.423712 0.0405987 0.350277
2879 4 0.492635 0.072088 0.403728
2489 4 0.00403821 0.107234 0.394183
397 2 0.0721094 0.101266 0.333948
2584 2 0.0185824 0.103095 0.351059
398 4 0.0543978 0.117015 0.341914
2586 4 0.0412353 0.112438 0.356032
458 4 0.0404535 0.123988 0.370926
457 2 0.0401947 0.141318 0.388948
459 4 0.039936 0.158649 0.406969
600 4 0.138027 0.131069 0.406631
598 2 0.138126 0.153805 0.396229
248 4 0.224356 0.0841201 0.356233
249 4 0.227635 0.13187 0.341745
247 2 0.225995 0.107995 0.348989
403 2 0.235437 0.165601 0.338057
404 4 0.23649 0.142331 0.328969
682 2 0.275027 0.0930726 0.389997
319 2 0.317425 0.135771 0.393464
684 4 0.280283 0.11161 0.405932
320 4 0.299004 0.121318 0.402237
321 4 0.335845 0.150224 0.384691
725 4 0.398855 0.105355 0.403375
2878 2 0.494327 0.0952543 0.412982
717 4 0.451068 0.158897 0.347082
260 4 0.040121 0.179228 0.402872
259 2 0.0589791 0.194503 0.408892
261 4 0.0778372 0.209777 0.414912
599 4 0.138225 0.176542 0.385826
389 4 0.120133 0.242893 0.365624
686 4 0.133664 0.196413 0.391394
685 2 0.115222 0.205047 0.405903
275 4 0.141715 0.181705 0.36713
274 2 0.154836 0.190095 0.347569
687 4 0.0967796 0.213681 0.420412
472 2 0.202832 0.209551 0.333148
405 4 0.234384 0.188871 0.347144
473 4 0.225219 0.205861 0.343654
466 2 0.406643 0.193591 0.405198
467 4 0.410344 0.191347 0.380572
716 4 0.410007 0.181622 0.364353
269 4 0.449609 0.234477 0.338861
715 2 0.430537 0.170259 0.355717
270 4 0.48349 0.217853 0.37167
452 4 0.472994 0.206649 0.385094
268 2 0.466549 0.226165 0.355266
451 2 0.468857 0.203737 0.409581
616 2 0.0850135 0.316112 0.362309
618 4 0.0680659 0.328486 0.375904
388 2 0.116927 0.265737 0.355979
390 4 0.113721 0.288581 0.346334
617 4 0.101961 0.303738 0.348713
374 4 0.120766 0.306818 0.350495
373 2 0.145295 0.311111 0.34824
375 4 0.169824 0.315404 0.345986
509 4 0.208747 0.321684 0.357888
347 4 0.0658123 0.346466 0.382376
549 4 0.0505072 0.407395 0.36501
602 4 0.0524904 0.401098 0.34608
346 2 0.0521654 0.355664 0.4012
510 4 0.244485 0.348944 0.33597
508 2 0.226616 0.335314 0.346929
668 4 0.315851 0.387139 0.401304
336 4 0.322041 0.368291 0.397924
667 2 0.31603 0.406568 0.417042
334 2 0.344989 0.35907 0.401605
335 4 0.367937 0.349849 0.405286
240 4 0.387041 0.342537 0.410999
238 2 0.406163 0.358647 0.411103
2537 4 0.499451 0.341355 0.346171
752 4 0.472238 0.415243 0.396022
561 4 0.475466 0.399445 0.408641
587 4 0.422225 0.394567 0.410911
239 4 0.425284 0.374756 0.411207
547 2 0.0639296 0.425611 0.37565
548 4 0.0773521 0.443827 0.386289
500 4 0.0760231 0.494125 0.340851
407 4 0.0881289 0.458701 0.378373
406 2 0.0945653 0.464952 0.401711
1556 4 0.24367 0.493523 0.407932
1544 4 0.223925 0.488176 0.41016
636 4 0.305976 0.485544 0.408259
1555 2 0.267845 0.493824 0.401557
5 3 0.267079 0.47603 0.335597
1557 4 0.292021 0.494125 0.395182
1 1 0.283312 0.460435 0.339056
438 4 0.308694 0.464046 0.337796
1437 4 0.253541 0.441171 0.336893
4 3 0.273701 0.43952 0.341989
2 3 0.295154 0.465901 0.358005
436 2 0.332355 0.471204 0.334041
593 4 0.404742 0.456221 0.38244
592 2 0.415152 0.464684 0.36134
588 4 0.411128 0.440357 0.394153
714 4 0.485472 0.462145 0.334966
586 2 0.416676 0.417462 0.402532
753 4 0.499192 0.438655 0.361007
117 3 0.493589 0.460643 0.35602
751 2 0.485715 0.426949 0.378514
594 4 0.425562 0.473147 0.340241
367 2 0.0746673 0.0263322 0.441766
369 4 0.0496735 0.0259512 0.442353
719 4 0.0370072 0.0355345 0.429686
718 2 0.0161146 0.0257713 0.439348
1781 4 0.107592 0.0223208 0.421449
368 4 0.0996611 0.0267132 0.441179
962 4 0.315469 0.0265729 0.418157
961 2 0.30141 0.0372018 0.435892
963 4 0.287352 0.0478308 0.453628
432 4 0.296316 0.0654764 0.458716
430 2 0.305581 0.0782866 0.478086
424 2 0.353923 0.0284436 0.420397
426 4 0.375517 0.0245132 0.432373
726 4 0.411532 0.078776 0.443792
431 4 0.314847 0.0910969 0.497457
724 2 0.405194 0.0920655 0.423584
2880 4 0.49602 0.118421 0.422236
642 4 0.49664 0.122354 0.441115
640 2 0.475112 0.127867 0.452575
641 4 0.453584 0.13338 0.464035
696 4 0.0954417 0.245622 0.482165
1035 4 0.0823807 0.224682 0.425762
1033 2 0.0932636 0.235169 0.445681
1034 4 0.104146 0.245656 0.4656
488 4 0.302877 0.240971 0.446779
487 2 0.32683 0.240131 0.453899
468 4 0.402941 0.195835 0.429825
411 4 0.36982 0.242829 0.459835
516 4 0.411611 0.198325 0.464186
409 2 0.386238 0.224923 0.453917
410 4 0.402656 0.207018 0.448
575 4 0.411312 0.186194 0.479392
266 4 0.359544 0.243463 0.477066
489 4 0.350784 0.23929 0.461019
265 2 0.359342 0.234387 0.500363
583 2 0.499688 0.235176 0.465403
514 2 0.434608 0.193009 0.455935
515 4 0.457604 0.187692 0.447684
453 4 0.464719 0.200825 0.434067
584 4 0.495908 0.249239 0.485728
2802 4 0.00257893 0.303104 0.427408
1258 2 0.114765 0.284492 0.480276
1259 4 0.125606 0.306982 0.481637
9 3 0.147608 0.310498 0.483287
1260 4 0.103924 0.262002 0.478914
6 1 0.136126 0.330412 0.480119
7 3 0.114162 0.325635 0.475229
348 4 0.0385184 0.364862 0.420023
326 4 0.0541676 0.353367 0.484212
325 2 0.0779952 0.347528 0.479382
384 4 0.115568 0.412193 0.455805
10 3 0.145314 0.34201 0.462807
327 4 0.101823 0.34169 0.474551
709 2 0.153692 0.407012 0.47284
711 4 0.128902 0.408692 0.470049
503 4 0.197123 0.348988 0.49
502 2 0.197039 0.373719 0.486321
710 4 0.178483 0.405332 0.475632
504 4 0.196955 0.39845 0.482643
882 4 0.367139 0.3502 0.494673
559 2 0.492572 0.396867 0.426694
3307 2 0.491821 0.376828 0.479174
3308 4 0.474929 0.368933 0.495832
570 4 0.162628 0.491896 0.438213
408 4 0.101002 0.471203 0.425049
382 2 0.113876 0.434959 0.445605
569 4 0.119666 0.470708 0.42386
383 4 0.112185 0.457724 0.435405
568 2 0.141147 0.481302 0.431036
1545 4 0.181608 0.49396 0.436171
1543 2 0.202766 0.491068 0.423166
634 2 0.313907 0.464645 0.419461
669 4 0.316209 0.425997 0.43278
635 4 0.321839 0.443746 0.430663
772 2 0.340373 0.436474 0.46474
773 4 0.346561 0.439577 0.488767
774 4 0.334184 0.433371 0.440714
663 4 0.497118 0.490542 0.44403
342 4 0.204324 0.0621848 0.512247
340 2 0.188732 0.0426576 0.511372
341 4 0.17314 0.0231304 0.510497
2430 4 0.16494 0.00755829 0.520349
1152 4 0.225085 0.0614896 0.512848
1150 2 0.229496 0.0764766 0.532371
1030 2 0.260486 0.0680582 0.578933
1217 4 0.375719 0.056681 0.50975
842 4 0.374634 0.0737047 0.520079
1216 2 0.398962 0.0480023 0.506647
841 2 0.350938 0.0810164 0.516882
3007 2 0.487091 0.0451601 0.581574
1218 4 0.422204 0.0393236 0.503543
470 4 0.00377046 0.156095 0.513309
1058 4 0.0829852 0.116973 0.521556
1057 2 0.0946008 0.114963 0.543607
1059 4 0.106216 0.112954 0.565657
1155 4 0.108546 0.12989 0.572448
1271 4 0.0960925 0.141052 0.581321
1153 2 0.131901 0.126705 0.580788
1151 4 0.233907 0.0914636 0.551893
1032 4 0.247639 0.0835812 0.564128
1180 2 0.219511 0.129722 0.538457
1181 4 0.22349 0.106927 0.54793
1182 4 0.215532 0.152517 0.528985
843 4 0.327242 0.0883281 0.513685
576 4 0.397578 0.165852 0.522961
1198 2 0.00260126 0.225812 0.564499
695 4 0.0604574 0.225895 0.511958
1199 4 0.0203014 0.223276 0.581976
694 2 0.0779496 0.235759 0.497062
900 4 0.23253 0.163041 0.533611
856 2 0.233807 0.246867 0.524628
857 4 0.215886 0.240825 0.540984
898 2 0.249965 0.179981 0.527758
650 4 0.284225 0.206668 0.528391
899 4 0.267399 0.196921 0.521905
649 2 0.296377 0.226722 0.519711
651 4 0.30853 0.246776 0.511031
267 4 0.359141 0.225311 0.523661
574 2 0.404445 0.176023 0.501176
1245 4 0.0404904 0.284383 0.582263
798 4 0.222273 0.255958 0.569256
947 4 0.208582 0.254406 0.55409
946 2 0.188922 0.265791 0.564532
948 4 0.169262 0.277177 0.574974
796 2 0.244194 0.263566 0.578572
1136 4 0.169554 0.29652 0.571526
858 4 0.251728 0.252909 0.508272
872 4 0.349122 0.293791 0.562897
871 2 0.364634 0.301522 0.58092
813 4 0.386306 0.322401 0.586614
2457 4 0.498589 0.303644 0.516271
1010 4 0.479064 0.305963 0.52042
2455 2 0.500697 0.279764 0.509165
8 3 0.136896 0.343166 0.499488
803 4 0.267787 0.36495 0.572211
804 4 0.286519 0.378032 0.527729
802 2 0.277153 0.371491 0.54997
930 4 0.323672 0.400844 0.576269
928 2 0.3436 0.398638 0.561331
929 4 0.363529 0.396432 0.546392
881 4 0.36073 0.387484 0.527377
880 2 0.363934 0.368842 0.511025
1011 4 0.473302 0.354652 0.510572
1009 2 0.476183 0.330307 0.515496
926 4 0.45415 0.405399 0.578282
1002 4 0.471961 0.41404 0.579657
540 4 0.0842524 0.473704 0.578298
2244 4 0.0924594 0.489783 0.569336
2154 4 0.214464 0.505209 0.565473
1910 4 0.415039 0.484892 0.556132
889 2 0.333297 0.495779 0.582676
1953 4 0.408528 0.498985 0.543772
1952 4 0.360126 0.490444 0.552995
1951 2 0.384327 0.494714 0.548384
890 4 0.354694 0.49896 0.570137
1909 2 0.433698 0.475814 0.570082
1081 2 0.0645093 0.0759726 0.641101
1082 4 0.0722373 0.0656653 0.66253
2114 4 0.00419943 0.0105347 0.606297
825 4 0.154105 0.0290347 0.656494
1283 4 0.139856 0.0441421 0.654616
823 2 0.176867 0.018779 0.655114
824 4 0.199629 0.00852333 0.653734
1031 4 0.273332 0.0525352 0.593738
951 4 0.274656 0.0321219 0.59186
949 2 0.29549 0.018301 0.5922
950 4 0.316323 0.00448002 0.59254
3008 4 0.47241 0.0351594 0.59917
809 4 0.472305 0.0457399 0.616011
808 2 0.465751 0.0572497 0.637218
810 4 0.459198 0.0687595 0.658425
1083 4 0.0567812 0.08628 0.619672
1127 4 0.0408277 0.0982507 0.618879
1126 2 0.0173973 0.101124 0.610636
938 4 0.076201 0.0884149 0.614063
939 4 0.0938048 0.120965 0.580428
937 2 0.0850029 0.10469 0.597246
1270 2 0.0922583 0.162253 0.59401
1154 4 0.155257 0.12352 0.589128
1221 4 0.171147 0.131891 0.59821
1219 2 0.191978 0.143229 0.606126
1220 4 0.21281 0.154567 0.614042
1212 4 0.230852 0.16398 0.619928
1194 4 0.325448 0.157216 0.656843
887 4 0.30979 0.163076 0.669879
1192 2 0.342286 0.142077 0.646238
1193 4 0.359124 0.126938 0.635633
45 3 0.458522 0.0942857 0.659183
3424 2 0.493478 0.114798 0.666888
1244 4 0.0463693 0.235575 0.591423
878 4 0.039217 0.219657 0.580614
877 2 0.0548143 0.202875 0.590628
879 4 0.0704117 0.186094 0.600641
1272 4 0.088424 0.183453 0.606699
1210 2 0.245406 0.177225 0.635353
1211 4 0.25996 0.190469 0.650778
886 2 0.292869 0.180904 0.665292
888 4 0.275949 0.198732 0.660705
954 4 0.500954 0.249267 0.587112
982 2 0.0192593 0.308481 0.594574
983 4 0.0330455 0.288612 0.600924
1243 2 0.0434298 0.259979 0.586843
1137 4 0.162168 0.332593 0.605363
1135 2 0.165861 0.314556 0.588444
822 4 0.159185 0.317209 0.645295
820 2 0.156306 0.300522 0.663691
1064 4 0.177077 0.323599 0.65038
797 4 0.266114 0.271173 0.587887
792 4 0.299649 0.319998 0.608335
791 4 0.285171 0.274795 0.592591
790 2 0.29241 0.297397 0.600463
806 4 0.280185 0.329529 0.659203
873 4 0.380145 0.309252 0.598942
1041 4 0.0580328 0.377062 0.641412
3264 4 0.0392011 0.377208 0.64713
3262 2 0.0440951 0.361871 0.666261
3240 4 0.0359774 0.397108 0.648863
1039 2 0.080425 0.38344 0.632297
3238 2 0.0183318 0.414111 0.643891
1040 4 0.102817 0.389819 0.623182
993 4 0.113458 0.374194 0.63083
991 2 0.132314 0.361921 0.61992
992 4 0.151169 0.349649 0.60901
1063 2 0.195258 0.340166 0.65487
897 4 0.169978 0.34953 0.609901
1189 2 0.244536 0.372661 0.595281
896 4 0.209073 0.379138 0.60012
895 2 0.189525 0.364334 0.60501
1172 4 0.233911 0.403868 0.609848
1191 4 0.225666 0.388099 0.600827
1065 4 0.21344 0.356733 0.659361
1190 4 0.263407 0.357223 0.589735
1239 4 0.322045 0.381424 0.58629
1238 4 0.30199 0.340934 0.607716
1237 2 0.312018 0.361179 0.597003
811 2 0.404595 0.338013 0.593467
1204 2 0.389305 0.38592 0.615786
1205 4 0.373831 0.395047 0.633176
1206 4 0.40478 0.376794 0.598395
925 2 0.437968 0.38782 0.585651
927 4 0.421786 0.370241 0.593019
812 4 0.422884 0.353625 0.60032
539 4 0.0777251 0.4258 0.591075
538 2 0.0809887 0.449752 0.584686
3239 4 0.000686289 0.431114 0.638919
1160 4 0.103414 0.477431 0.579664
1159 2 0.127879 0.482244 0.58152
1161 4 0.152345 0.487058 0.583376
1171 2 0.218029 0.423022 0.612317
1188 4 0.167431 0.487587 0.597002
1186 2 0.176381 0.468195 0.610002
1173 4 0.202148 0.442175 0.614786
1187 4 0.185331 0.448803 0.623003
891 4 0.3119 0.492599 0.595214
1000 2 0.471407 0.43849 0.58486
1911 4 0.452358 0.466735 0.584031
1001 4 0.470854 0.46294 0.590063
1269 4 0.456854 0.466468 0.602889
1267 2 0.46407 0.483256 0.619956
945 4 0.0430445 0.00359573 0.667115
943 2 0.0439197 0.0275859 0.674106
944 4 0.0447948 0.0515761 0.681098
1076 4 0.0587905 0.0650365 0.677931
1075 2 0.0638642 0.0784989 0.698381
1282 2 0.141384 0.0614079 0.672636
1284 4 0.142911 0.0786737 0.690657
1147 2 0.261088 0.0601816 0.685973
1149 4 0.262658 0.0354887 0.682371
1092 4 0.302813 0.00687108 0.69244
1004 4 0.332014 0.0750022 0.739051
42 3 0.45249 0.0619722 0.676857
1163 4 0.469265 0.0673481 0.690647
1162 2 0.485864 0.0523084 0.701758
1113 4 0.438617 0.0618386 0.736413
864 4 0.0650676 0.0943293 0.737319
1077 4 0.0689379 0.0919613 0.718831
1107 4 0.0837904 0.0967193 0.730521
851 4 0.0798432 0.107754 0.714656
862 2 0.0416346 0.0932485 0.745974
850 2 0.0872385 0.127662 0.701458
852 4 0.0946337 0.14757 0.688261
1105 2 0.103527 0.0932922 0.745484
909 4 0.15426 0.092605 0.698358
907 2 0.175265 0.10547 0.702657
908 4 0.196269 0.118336 0.706955
1227 4 0.207351 0.12243 0.690632
1225 2 0.230373 0.11287 0.692572
1226 4 0.253395 0.103309 0.694513
1148 4 0.259518 0.0848745 0.689576
829 2 0.32084 0.148198 0.708692
831 4 0.328707 0.133128 0.727028
1005 4 0.321285 0.11811 0.716087
1003 2 0.326649 0.0965559 0.727569
830 4 0.312974 0.163267 0.690355
41 1 0.453297 0.084838 0.679235
43 3 0.432544 0.0923743 0.68637
44 3 0.469499 0.0901763 0.694964
3425 4 0.474077 0.101052 0.674623
1025 4 0.42409 0.152435 0.68427
1024 2 0.439017 0.163013 0.701313
1177 2 0.00411824 0.241418 0.719647
1073 4 0.0655534 0.244134 0.737362
1072 2 0.0903879 0.243221 0.740117
1074 4 0.115222 0.242308 0.742872
1208 4 0.132432 0.251796 0.738132
1130 4 0.1452 0.241002 0.749617
978 4 0.30381 0.201771 0.726579
976 2 0.29516 0.205247 0.74978
1142 4 0.450933 0.173473 0.737586
1144 2 0.490075 0.167056 0.734263
1262 4 0.466328 0.190686 0.717156
1026 4 0.453944 0.17359 0.718357
1261 2 0.46156 0.215214 0.718053
1145 4 0.467264 0.175713 0.728795
1263 4 0.456791 0.239742 0.71895
1179 4 0.0191718 0.260626 0.714205
1209 4 0.147438 0.280158 0.699777
1207 2 0.139935 0.265977 0.718955
821 4 0.153427 0.283835 0.682088
807 4 0.235725 0.337641 0.680608
805 2 0.257955 0.333585 0.669906
1019 4 0.366784 0.309834 0.703932
1018 2 0.381068 0.326269 0.69164
3123 4 0.483152 0.268569 0.671301
3263 4 0.048989 0.346534 0.685393
1279 2 0.0426969 0.389527 0.74929
1281 4 0.0468702 0.4124 0.740093
894 4 0.0296349 0.360509 0.74
892 2 0.0113883 0.344811 0.746768
1028 4 0.222811 0.377486 0.702861
1066 2 0.197381 0.36892 0.738296
1068 4 0.210195 0.372054 0.717055
1027 2 0.233375 0.399907 0.699565
1020 4 0.395351 0.342703 0.679348
1983 4 0.059952 0.42599 0.734875
1981 2 0.066906 0.447319 0.745917
2172 4 0.142025 0.494225 0.682105
2016 4 0.16113 0.493127 0.715415
1029 4 0.243938 0.422329 0.69627
1175 4 0.200216 0.443177 0.737386
1174 2 0.190207 0.462993 0.725884
1176 4 0.180197 0.48281 0.714382
1140 4 0.245864 0.429622 0.676845
1138 2 0.265698 0.443725 0.682579
1139 4 0.285532 0.457829 0.688314
1987 2 0.287834 0.457887 0.737438
1229 4 0.302406 0.457144 0.697268
1989 4 0.299406 0.461336 0.715543
2028 4 0.294101 0.472021 0.699121
1228 2 0.320001 0.448039 0.682014
2026 2 0.299048 0.496385 0.696458
1230 4 0.337596 0.438933 0.666761
2991 4 0.00100778 0.0431448 0.793983
2989 2 0.00278932 0.0630989 0.779022
2049 4 0.106669 0.0261692 0.776186
1202 4 0.10127 0.0333463 0.795647
2047 2 0.122685 0.0102035 0.765521
1201 2 0.108615 0.0572428 0.796075
1203 4 0.11596 0.0811393 0.796502
817 2 0.322797 0.0409781 0.822405
1085 4 0.306123 0.0782397 0.830817
818 4 0.332136 0.0206053 0.811318
819 4 0.313458 0.0613509 0.833491
974 4 0.341463 0.00245888 0.807278
1111 2 0.456634 0.0668248 0.753018
845 4 0.489104 0.0600085 0.779429
1112 4 0.474651 0.071811 0.769623
833 4 0.00875096 0.103501 0.766913
832 2 0.0139084 0.119061 0.785792
2990 4 0.00457086 0.0830531 0.764061
863 4 0.0182017 0.0921677 0.754629
1125 4 0.0324133 0.147439 0.812458
834 4 0.0190657 0.134622 0.804672
1106 4 0.123264 0.0898651 0.760447
911 4 0.117487 0.105209 0.820388
34 3 0.115369 0.0957131 0.777641
31 1 0.127588 0.104516 0.795293
35 3 0.117494 0.123385 0.803084
32 3 0.128558 0.0889201 0.812174
33 3 0.14918 0.109387 0.788331
1255 2 0.247804 0.0960011 0.784849
1256 4 0.229028 0.0983789 0.801188
840 4 0.237182 0.106875 0.816787
838 2 0.235218 0.127706 0.830476
1257 4 0.266581 0.0936233 0.76851
1084 2 0.300595 0.0948103 0.812927
1086 4 0.295067 0.111381 0.795037
1023 4 0.392187 0.16378 0.822519
1052 4 0.407079 0.15202 0.830236
1021 2 0.374791 0.147605 0.830323
844 2 0.49648 0.0826951 0.786918
1129 2 0.160556 0.238912 0.769239
1131 4 0.175913 0.236822 0.78886
1277 4 0.196596 0.241955 0.789891
977 4 0.28651 0.208724 0.77298
918 4 0.283004 0.229197 0.770231
1298 4 0.29373 0.222169 0.784433
1297 2 0.295484 0.20778 0.804806