ITEM: TIMESTEP
2140000
ITEM: NUMBER OF ATOMS
4590
ITEM: BOX BOUNDS pp pp pp
-9.9985700000000008e+00 9.9985700000000008e+00
-9.9985700000000008e+00 9.9985700000000008e+00
-9.9985700000000008e+00 9.9985700000000008e+00
ITEM: ATOMS id type xs ys zs
1666 2 0.0261837 0.0738764 0.0680494
1668 4 0.0219004 0.0537944 0.0537825
1474 2 0.285472 0.00923776 0.0828206
1475 4 0.280884 0.0335143 0.086665
2974 2 0.471055 0.0283866 0.00816514
2976 4 0.478288 0.0103724 0.0239244
745 2 0.444647 0.0820084 0.00791872
486 4 0.415877 0.0260442 0.0866718
2975 4 0.463823 0.0464008 0.992406
1667 4 0.0304671 0.0939584 0.0823163
701 4 0.0336076 0.111343 0.0725199
566 4 0.188798 0.152894 0.04356
565 2 0.197085 0.158392 0.0206192
297 4 0.319298 0.0922654 0.0185525
491 4 0.246506 0.0810448 0.0787115
295 2 0.337402 0.102832 0.00492215
556 2 0.396526 0.110273 0.00475661
558 4 0.419549 0.114923 0.0133288
746 4 0.432049 0.100481 0.0191107
770 4 0.398688 0.194113 0.00941448
359 4 0.384089 0.190576 0.0206548
358 2 0.360548 0.191359 0.0122649
664 2 0.400188 0.211485 0.0483355
665 4 0.400256 0.194878 0.0296431
666 4 0.400119 0.228091 0.067028
323 4 0.397978 0.247 0.0657044
623 4 0.387936 0.238895 0.0797683
769 2 0.420854 0.184708 0.00267824
555 4 0.0329578 0.253604 0.00360473
2808 4 0.984013 0.278692 0.025604
2806 2 0.994352 0.278522 0.0483691
287 4 0.166429 0.294328 0.0450731
292 2 0.127965 0.276739 0.0334183
507 4 0.151939 0.289015 0.0596185
293 4 0.150393 0.28462 0.0411655
294 4 0.105536 0.268858 0.0256711
551 4 0.105474 0.31209 0.0833728
550 2 0.117023 0.329481 0.0696121
286 2 0.175978 0.305007 0.0245801
505 2 0.169728 0.289632 0.0771789
481 2 0.223042 0.272644 0.0755717
482 4 0.242899 0.26458 0.0626941
483 4 0.203184 0.280708 0.0884493
573 4 0.251935 0.262913 0.0445816
571 2 0.275712 0.263902 0.036911
572 4 0.29949 0.264891 0.0292404
357 4 0.307252 0.27095 0.0106949
355 2 0.315637 0.28998 0.996811
1069 2 0.399655 0.312489 0.0200012
1071 4 0.381407 0.329507 0.0183965
322 2 0.401938 0.26559 0.0494598
955 2 0.349284 0.333158 0.00877829
324 4 0.405899 0.284181 0.0332152
1070 4 0.417903 0.295472 0.021606
671 4 0.451296 0.318797 0.0791937
280 2 0.447239 0.296891 0.0454563
281 4 0.455402 0.302303 0.0684619
282 4 0.439075 0.29148 0.0224508
455 4 0.14679 0.346799 0.0487763
552 4 0.128571 0.346872 0.0558514
454 2 0.16081 0.364581 0.0381733
456 4 0.17483 0.382362 0.0275703
1290 4 0.259275 0.396488 0.0175557
252 4 0.285489 0.39935 0.0722404
250 2 0.272856 0.404741 0.0513471
251 4 0.260223 0.410132 0.0304538
1288 2 0.269983 0.378963 0.00329364
741 4 0.375448 0.334084 0.0364179
739 2 0.374514 0.337049 0.0612274
957 4 0.367951 0.343517 0.0217944
493 2 0.39077 0.396151 0.0838675
495 4 0.389746 0.371732 0.0891416
1788 4 0.072078 0.494718 0.0367759
1786 2 0.0954261 0.503471 0.0349219
626 4 0.220329 0.485801 0.0737079
625 2 0.197724 0.494788 0.0679252
245 4 0.231086 0.482889 0.0562865
244 2 0.246548 0.464198 0.0502237
627 4 0.175119 0.503775 0.0621425
246 4 0.262009 0.445507 0.044161
272 4 0.264976 0.431694 0.0316848
271 2 0.26881 0.433029 0.00701301
494 4 0.391794 0.420571 0.0785935
1672 2 0.405387 0.447804 0.0579046
660 4 0.377252 0.434056 0.084549
1673 4 0.394543 0.439695 0.0789247
853 2 0.403023 0.43787 0.00453839
854 4 0.419235 0.442673 0.022958
1674 4 0.416231 0.455913 0.0368845
563 4 0.480957 0.45052 0.0350604
562 2 0.456233 0.453169 0.0324335
564 4 0.43151 0.455817 0.0298065
228 4 0.494176 0.462468 0.0414739
18 3 0.0637308 0.0123229 0.160059
19 3 0.0602776 0.0501399 0.161595
578 4 0.0819049 0.0504968 0.172233
492 4 0.275313 0.0463538 0.100332
490 2 0.260909 0.0636993 0.0895215
1506 4 0.252623 0.012773 0.160688
484 2 0.408246 0.0267102 0.110473
2722 2 0.487228 0.0672367 0.148433
2724 4 0.487494 0.0422747 0.14985
1761 4 0.489091 0.993116 0.107552
1759 2 0.484808 0.00932601 0.126101
1760 4 0.480526 0.025536 0.144651
2744 4 0.486825 0.0284061 0.163025
700 2 0.0518057 0.118944 0.0878897
702 4 0.0700037 0.126545 0.103259
476 4 0.0850874 0.126829 0.116044
475 2 0.0939659 0.148532 0.124723
477 4 0.102844 0.170235 0.133402
237 4 0.240351 0.112081 0.165452
582 4 0.256435 0.100909 0.167275
580 2 0.270324 0.0965518 0.146946
581 4 0.284213 0.0921948 0.126616
628 2 0.378139 0.140058 0.164932
630 4 0.370063 0.162332 0.156941
2723 4 0.486963 0.0921986 0.147015
339 4 0.0421618 0.251174 0.14129
337 2 0.0518854 0.249745 0.164281
738 4 0.196394 0.216847 0.0901889
737 4 0.233404 0.183556 0.0949596
736 2 0.214899 0.200202 0.0925742
460 2 0.320109 0.236787 0.106999
352 2 0.269139 0.249813 0.123353
353 4 0.259137 0.253091 0.146033
461 4 0.299108 0.241796 0.0943875
354 4 0.279141 0.246535 0.100673
278 4 0.251912 0.244239 0.158208
254 4 0.355711 0.173787 0.147816
462 4 0.34111 0.231779 0.11961
255 4 0.353267 0.21914 0.126892
253 2 0.354489 0.196464 0.137354
765 4 0.349598 0.237243 0.135613
624 4 0.361708 0.235377 0.1222
622 2 0.374822 0.237136 0.100984
506 4 0.187516 0.290249 0.0947394
755 4 0.239382 0.256007 0.151122
537 4 0.176685 0.291172 0.111788
535 2 0.190712 0.289849 0.132443
754 2 0.241546 0.278441 0.161948
536 4 0.20474 0.288527 0.153099
756 4 0.24371 0.300875 0.172775
387 4 0.319498 0.308559 0.109183
301 2 0.327303 0.299332 0.151692
284 4 0.266203 0.252721 0.166731
302 4 0.327113 0.302882 0.126943
763 2 0.340733 0.247841 0.156452
385 2 0.339706 0.321384 0.101948
527 4 0.460775 0.303788 0.086461
670 2 0.430146 0.32823 0.0886217
526 2 0.483483 0.304871 0.096871
647 4 0.0780856 0.346894 0.162973
415 2 0.175557 0.39923 0.171085
291 4 0.209432 0.378405 0.153904
289 2 0.227197 0.393553 0.144952
416 4 0.192264 0.388385 0.155971
609 4 0.293833 0.397524 0.0915703
290 4 0.244962 0.4087 0.135999
386 4 0.359914 0.334209 0.0947136
15 3 0.369368 0.332158 0.112339
740 4 0.37358 0.340015 0.0860369
12 3 0.405737 0.335281 0.120117
672 4 0.408997 0.337664 0.0980497
14 3 0.392036 0.350778 0.0887353
11 1 0.387491 0.34588 0.110956
13 3 0.383504 0.365472 0.122731
595 2 0.4559 0.413109 0.144812
596 4 0.442278 0.426852 0.128976
102 3 0.494166 0.351959 0.120253
1791 4 0.0528256 0.493771 0.158014
1466 4 0.0625986 0.478508 0.149709
1465 2 0.0555273 0.458552 0.136407
1467 4 0.048456 0.438596 0.123106
638 4 0.239017 0.479131 0.128961
767 4 0.235412 0.46462 0.141071
607 2 0.308863 0.414695 0.10179
766 2 0.248274 0.443205 0.139991
768 4 0.261136 0.421791 0.13891
608 4 0.323892 0.431866 0.112009
659 4 0.340632 0.441945 0.117677
658 2 0.358942 0.438001 0.101113
1559 4 0.357751 0.494945 0.0847859
1558 2 0.337221 0.49579 0.0990326
524 4 0.367903 0.496113 0.102355
523 2 0.388812 0.484366 0.109426
525 4 0.40972 0.472619 0.116498
16 1 0.0633626 0.0308175 0.174067
17 3 0.0458568 0.0286193 0.188827
2480 4 0.0330719 0.0204879 0.190565
1422 4 0.0226052 0.00327952 0.189131
2479 2 0.0127385 0.0349129 0.192476
577 2 0.0997287 0.0678827 0.169949
20 3 0.0828834 0.0321265 0.185723
674 4 0.170634 0.994571 0.236117
673 2 0.147632 0.990522 0.245045
1504 2 0.233569 0.99955 0.170032
688 2 0.188636 0.00112126 0.209897
689 4 0.177453 0.0124103 0.229202
652 2 0.2882 0.0140188 0.17256
653 4 0.31252 0.0185269 0.168901
25 3 0.322502 0.0467636 0.24293
654 4 0.26388 0.00951078 0.176219
758 4 0.356678 0.0625046 0.188253
759 4 0.339974 0.0590149 0.235258
757 2 0.348326 0.0607598 0.211755
311 4 0.365026 0.0681873 0.170851
22 3 0.349574 0.0706435 0.252403
2743 2 0.50076 0.02501 0.183505
511 2 0.0471526 0.133356 0.206132
512 4 0.0285291 0.118633 0.213979
381 4 0.0119707 0.114011 0.205728
513 4 0.0657762 0.148079 0.198285
393 4 0.0631029 0.159445 0.213545
448 2 0.159179 0.0925199 0.182079
450 4 0.137448 0.0902968 0.169914
579 4 0.117553 0.0852687 0.167665
449 4 0.180911 0.094743 0.194244
235 2 0.220623 0.10215 0.177173
236 4 0.200895 0.0922188 0.188894
693 4 0.247545 0.0824271 0.243436
28 3 0.327803 0.160973 0.229649
312 4 0.399631 0.103539 0.178163
629 4 0.386215 0.117784 0.172922
310 2 0.382328 0.0858631 0.174507
521 4 0.490876 0.139584 0.217938
332 4 0.477882 0.129099 0.23036
762 4 0.473215 0.145375 0.221374
760 2 0.453438 0.154753 0.23346
331 2 0.489547 0.107233 0.233669
391 2 0.0843279 0.17245 0.211192
392 4 0.105553 0.185455 0.208839
279 4 0.233517 0.20433 0.182073
277 2 0.242715 0.224285 0.17014
394 2 0.0169814 0.248019 0.220431
395 4 0.035181 0.250183 0.203423
338 4 0.0616091 0.248316 0.187272
363 4 0.053179 0.258411 0.203272
361 2 0.0618275 0.281178 0.208933
749 4 0.0573556 0.320039 0.217806
648 4 0.0707638 0.31962 0.204243
362 4 0.070476 0.303945 0.214593
748 2 0.0660127 0.332161 0.237888
646 2 0.0744247 0.333257 0.183608
370 2 0.111478 0.304888 0.21853
372 4 0.0882353 0.307563 0.20971
371 4 0.134721 0.302213 0.227349
734 4 0.137022 0.318201 0.239364
733 2 0.157478 0.306709 0.248005
610 2 0.244568 0.319615 0.206209
612 4 0.256449 0.311835 0.18563
344 4 0.230826 0.308302 0.232434
283 2 0.289865 0.257159 0.173482
611 4 0.232686 0.327394 0.226787
285 4 0.313527 0.261597 0.180233
307 2 0.333883 0.276851 0.204303
308 4 0.326468 0.276694 0.180425
303 4 0.327493 0.295782 0.176442
729 4 0.326187 0.315643 0.178532
309 4 0.341298 0.277007 0.228181
764 4 0.331867 0.258438 0.177292
264 4 0.0124526 0.409234 0.255938
417 4 0.15885 0.410076 0.186199
727 2 0.318379 0.334444 0.19305
728 4 0.310571 0.353245 0.207567
446 4 0.377579 0.371516 0.238409
445 2 0.400298 0.380692 0.233428
645 4 0.46592 0.407185 0.178637
447 4 0.423018 0.389868 0.228448
644 4 0.44101 0.389348 0.218159
643 2 0.453465 0.398267 0.198398
414 4 0.200023 0.457969 0.220883
412 2 0.209941 0.467521 0.241753
597 4 0.469522 0.399367 0.160648
229 2 0.447512 0.47061 0.222975
231 4 0.453672 0.44654 0.220171
427 2 0.0636683 0.00631953 0.322947
2755 2 0.00349901 0.0587016 0.322071
234 4 0.0181432 0.047851 0.289471
232 2 0.0419748 0.0422292 0.284409
233 4 0.0658065 0.0366073 0.279346
1404 4 0.0785398 0.0216491 0.285528
317 4 0.0743097 0.0370631 0.295888
428 4 0.0702136 0.0207547 0.303609
2756 4 0.0052403 0.0430962 0.302613
2478 4 0.000241092 0.052527 0.285313
316 2 0.0905248 0.0529733 0.306333
1402 2 0.0939473 0.00510883 0.274841
318 4 0.10674 0.0688835 0.316779
730 2 0.136882 0.0747129 0.324694
731 4 0.157848 0.0648139 0.334056
24 3 0.315239 0.0746576 0.267155
21 1 0.331043 0.0592815 0.25993
23 3 0.337319 0.045513 0.277521
349 2 0.385494 0.0699557 0.256951
351 4 0.407958 0.0592968 0.254315
350 4 0.36303 0.0806147 0.259587
480 4 0.422617 0.045985 0.253533
479 4 0.452804 0.0292475 0.289717
478 2 0.43771 0.0376162 0.271625
2664 4 0.468815 0.019316 0.2908
1428 4 0.449876 0.0158196 0.299238
258 4 0.439739 0.03017 0.306147
2662 2 0.490176 0.031595 0.295058
256 2 0.433439 0.044848 0.325384
397 2 0.0830057 0.104391 0.324606
398 4 0.0684008 0.121328 0.335786
399 4 0.0976106 0.0874529 0.313426
732 4 0.115917 0.0846119 0.315332
722 4 0.248889 0.129008 0.332483
26 1 0.322353 0.160842 0.252203
691 2 0.255885 0.0888484 0.266117
721 2 0.258525 0.121673 0.310608
692 4 0.264225 0.0952698 0.288797
30 3 0.304179 0.147579 0.255729
723 4 0.26816 0.114337 0.288733
29 3 0.340339 0.1531 0.264653
632 4 0.367927 0.0992718 0.255797
631 2 0.360515 0.121074 0.265539
707 4 0.354143 0.157641 0.278676
633 4 0.353103 0.142876 0.27528
442 2 0.00580998 0.239158 0.279736
444 4 0.00852501 0.231327 0.303326
546 4 0.138274 0.192096 0.303663
544 2 0.15546 0.203426 0.289469
545 4 0.172645 0.214756 0.275275
402 4 0.187372 0.223569 0.265653
400 2 0.190428 0.248141 0.269124
378 4 0.249114 0.259278 0.309019
27 3 0.317446 0.182328 0.258793
706 2 0.355412 0.177209 0.294189
708 4 0.356681 0.196777 0.309703
761 4 0.43366 0.164131 0.245547
299 4 0.138056 0.33544 0.249885
401 4 0.193483 0.272714 0.272595
676 2 0.18569 0.297236 0.298715
345 4 0.194843 0.286892 0.259775
677 4 0.187212 0.29161 0.2744
343 2 0.212834 0.297597 0.246105
735 4 0.177934 0.295216 0.256646
678 4 0.184169 0.302862 0.32303
498 4 0.333863 0.284661 0.245965
376 2 0.273512 0.264045 0.30633
496 2 0.321074 0.281199 0.267169
497 4 0.308285 0.277736 0.288374
377 4 0.297909 0.268812 0.303642
418 2 0.394269 0.260669 0.325737
541 2 0.373609 0.303884 0.289175
542 4 0.386463 0.283128 0.294572
420 4 0.382809 0.265826 0.304121
365 4 0.014955 0.386409 0.30343
601 2 0.0519816 0.401132 0.322706
603 4 0.029731 0.396981 0.312083
750 4 0.0746698 0.344283 0.25797
602 4 0.0742322 0.405284 0.33333
364 2 0.992575 0.375321 0.304606
298 2 0.115425 0.344433 0.255554
300 4 0.0927947 0.353427 0.261224
510 4 0.200402 0.334322 0.301418
508 2 0.213056 0.343207 0.321068
509 4 0.225711 0.352091 0.340718
433 2 0.311392 0.389074 0.319337
435 4 0.288126 0.395031 0.31238
434 4 0.334657 0.383117 0.326294
543 4 0.360754 0.32464 0.283777
615 4 0.349594 0.329982 0.29957
614 4 0.351424 0.371185 0.327849
613 2 0.350509 0.350583 0.313709
2537 4 0.511851 0.331136 0.305913
776 4 0.0745097 0.484741 0.312463
775 2 0.0658377 0.490983 0.289858
1758 4 0.0626537 0.469283 0.252297
1757 4 0.0260114 0.435462 0.248528
1756 2 0.0443326 0.452373 0.250412
1775 4 0.0692985 0.488415 0.253543
1436 4 0.238196 0.466619 0.26392
413 4 0.219858 0.477072 0.262624
1435 2 0.248846 0.453263 0.282179
1437 4 0.259495 0.439907 0.300437
4 3 0.264762 0.449932 0.316573
436 2 0.329194 0.470184 0.325065
3 3 0.287228 0.479757 0.323661
438 4 0.30506 0.465403 0.329526
437 4 0.353327 0.474966 0.320603
1802 4 0.370398 0.483018 0.316086
118 3 0.503299 0.429048 0.318395
119 3 0.49572 0.465671 0.311634
606 4 0.163909 0.0493187 0.344628
1781 4 0.119655 0.0150606 0.41494
368 4 0.0992972 0.0111649 0.421577
604 2 0.18011 0.0644146 0.356239
605 4 0.196311 0.0795104 0.36785
441 4 0.323776 0.00858024 0.402145
425 4 0.339388 0.0140687 0.406346
1701 4 0.336276 0.0169742 0.387644
962 4 0.323155 0.0184119 0.418203
699 4 0.359897 0.0598112 0.337289
698 4 0.408983 0.0685723 0.341091
1699 2 0.344646 0.0323138 0.36976
1700 4 0.353016 0.0476533 0.351876
697 2 0.38444 0.0641918 0.33919
725 4 0.394355 0.0748324 0.387372
724 2 0.402787 0.0899822 0.405388
257 4 0.427139 0.059526 0.34462
2585 4 0.0079381 0.0931569 0.339091
2584 2 0.030412 0.103674 0.342171
2586 4 0.0528859 0.114191 0.345252
458 4 0.050528 0.128464 0.358543
457 2 0.0451755 0.142504 0.378529
459 4 0.0398229 0.156544 0.398514
600 4 0.121032 0.138366 0.36771
598 2 0.1262 0.162579 0.371202
248 4 0.215008 0.0869083 0.363042
249 4 0.248246 0.122403 0.351376
247 2 0.231627 0.104655 0.357209
404 4 0.242995 0.1384 0.348615
403 2 0.233977 0.161498 0.345403
683 4 0.251977 0.137214 0.365506
682 2 0.274605 0.13285 0.375208
684 4 0.297233 0.128486 0.384909
320 4 0.31498 0.13773 0.389061
319 2 0.339051 0.139053 0.382427
321 4 0.363123 0.140377 0.375794
717 4 0.421827 0.17656 0.343069
261 4 0.0644403 0.211589 0.416143
260 4 0.0335361 0.172784 0.40983
259 2 0.0489882 0.192187 0.412987
599 4 0.131367 0.186793 0.374694
389 4 0.124196 0.221456 0.375491
686 4 0.11989 0.203271 0.380638
685 2 0.102429 0.204512 0.398492
275 4 0.135221 0.204888 0.373228
274 2 0.158015 0.207256 0.363226
388 2 0.121576 0.245836 0.370599
474 4 0.188555 0.220374 0.339186
472 2 0.211721 0.211036 0.340335
473 4 0.234887 0.201697 0.341483
276 4 0.180808 0.209624 0.353225
405 4 0.224959 0.184597 0.342192
715 2 0.406036 0.173535 0.362217
716 4 0.390245 0.17051 0.381366
419 4 0.405729 0.255512 0.347353
467 4 0.389017 0.187435 0.392014
269 4 0.410084 0.238807 0.357827
270 4 0.450005 0.210453 0.367979
452 4 0.461373 0.194361 0.373569
268 2 0.430045 0.22463 0.362903
451 2 0.462562 0.198542 0.398192
618 4 0.0803662 0.320444 0.371445
347 4 0.065726 0.333474 0.374817
346 2 0.0459427 0.320559 0.383003
348 4 0.0261593 0.307644 0.391188
616 2 0.0994051 0.304649 0.367806
390 4 0.118956 0.270216 0.365707
617 4 0.118444 0.288855 0.364166
374 4 0.131975 0.2816 0.353862
373 2 0.155002 0.28726 0.345932
375 4 0.178029 0.29292 0.338002
549 4 0.0876548 0.40635 0.347754
334 2 0.334187 0.359019 0.410542
668 4 0.318981 0.391854 0.411891
336 4 0.313028 0.372295 0.409439
335 4 0.355346 0.345743 0.411645
240 4 0.369076 0.35997 0.415147
238 2 0.388135 0.375641 0.411106
239 4 0.407195 0.391312 0.407065
587 4 0.395571 0.403585 0.394963
752 4 0.4678 0.400856 0.369229
561 4 0.467816 0.392095 0.386615
751 2 0.480714 0.416064 0.354159
559 2 0.478396 0.390985 0.409243
499 2 0.0830452 0.480096 0.353294
501 4 0.0820763 0.471428 0.376727
547 2 0.0883487 0.422477 0.366848
548 4 0.0890426 0.438604 0.385943
407 4 0.0771338 0.454394 0.385895
500 4 0.0840141 0.488763 0.329861
406 2 0.0912741 0.461195 0.405362
5 3 0.268098 0.463309 0.35161
1 1 0.279091 0.459689 0.331997
2 3 0.296784 0.445472 0.33574
586 2 0.397414 0.428277 0.391484
593 4 0.409867 0.469827 0.393095
592 2 0.418741 0.482511 0.373459
588 4 0.399257 0.452969 0.388005
1742 4 0.435554 0.508509 0.342456
713 4 0.442233 0.489881 0.342331
712 2 0.464059 0.478801 0.337225
714 4 0.485884 0.467721 0.332118
753 4 0.493627 0.431273 0.339088
117 3 0.494846 0.452249 0.346731
594 4 0.427615 0.495194 0.353823
720 4 0.00421586 0.0101568 0.460058
367 2 0.0819094 0.0255529 0.43234
369 4 0.0645217 0.039941 0.443102
719 4 0.0456493 0.0366716 0.45106
718 2 0.0249326 0.0234142 0.455559
2430 4 0.173785 0.00904676 0.500249
341 4 0.176321 0.0255274 0.489767
961 2 0.313 0.0382391 0.429557
963 4 0.302845 0.0580663 0.440912
432 4 0.300104 0.0577297 0.460224
430 2 0.313582 0.0651004 0.479953
431 4 0.327059 0.0724711 0.499681
424 2 0.359952 0.0113527 0.420307
426 4 0.380516 0.00863665 0.434268
843 4 0.342397 0.066959 0.510014
726 4 0.411218 0.105132 0.423404
640 2 0.486627 0.099411 0.447187
641 4 0.464261 0.0988845 0.458352
687 4 0.0849688 0.205753 0.416346
1035 4 0.0757434 0.212761 0.430846
1033 2 0.076949 0.223232 0.45352
1034 4 0.0781546 0.233703 0.476193
696 4 0.0918535 0.234954 0.48998
1260 4 0.0939762 0.245896 0.474657
487 2 0.325344 0.245757 0.452381
466 2 0.395649 0.196386 0.414398
468 4 0.40228 0.205337 0.436783
411 4 0.355469 0.230728 0.467973
409 2 0.376465 0.218824 0.461444
410 4 0.397462 0.20692 0.454915
266 4 0.360045 0.248914 0.476631
489 4 0.342564 0.244641 0.470475
574 2 0.413843 0.190148 0.492067
575 4 0.409932 0.202053 0.47043
516 4 0.414328 0.206866 0.452182
514 2 0.438641 0.209348 0.446901
515 4 0.462954 0.211829 0.441619
453 4 0.463752 0.202724 0.422815
2802 4 0.00293613 0.291848 0.435303
1258 2 0.104595 0.268333 0.471661
1259 4 0.115213 0.290771 0.468666
9 3 0.135047 0.295989 0.454973
7 3 0.11768 0.30345 0.48746
6 1 0.130667 0.312442 0.470737
8 3 0.150546 0.32007 0.479959
327 4 0.10515 0.313289 0.474109
858 4 0.222232 0.24744 0.505178
488 4 0.308124 0.246872 0.434286
1009 2 0.468762 0.302687 0.497049
326 4 0.0574687 0.328117 0.476814
325 2 0.0813095 0.320703 0.475461
10 3 0.119471 0.32973 0.46102
709 2 0.151974 0.409085 0.482298
503 4 0.223148 0.371031 0.485893
502 2 0.199509 0.376912 0.491528
710 4 0.173823 0.401787 0.492023
667 2 0.325776 0.41189 0.425218
560 4 0.488975 0.389875 0.431871
1011 4 0.468069 0.326185 0.488532
3309 4 0.478808 0.382025 0.446556
3307 2 0.475106 0.360996 0.459565
3308 4 0.471403 0.339966 0.472573
679 2 0.998921 0.433412 0.43634
1381 2 0.030537 0.484499 0.458869
1383 4 0.0256519 0.468957 0.439902
680 4 0.0144675 0.452659 0.439946
711 4 0.130126 0.416383 0.472574
384 4 0.114834 0.425128 0.463112
382 2 0.111184 0.447917 0.453493
408 4 0.105414 0.467997 0.424829
568 2 0.143581 0.486076 0.433102
383 4 0.107534 0.470706 0.443874
569 4 0.123451 0.471254 0.432573
1545 4 0.182813 0.505102 0.432322
1556 4 0.241537 0.494243 0.42967
1543 2 0.204994 0.496914 0.42419
1544 4 0.227175 0.488726 0.416057
635 4 0.321503 0.446687 0.444989
1557 4 0.290422 0.500182 0.420967
634 2 0.309012 0.463923 0.431871
1555 2 0.265979 0.497213 0.425319
669 4 0.332571 0.431925 0.438544
636 4 0.296522 0.481158 0.418752
772 2 0.363557 0.436076 0.456903
773 4 0.386272 0.427819 0.463309
774 4 0.340842 0.444334 0.450498
663 4 0.477706 0.486647 0.430232
1152 4 0.201856 0.0627764 0.533018
342 4 0.199172 0.0432146 0.53058
340 2 0.187747 0.034371 0.510173
1030 2 0.26361 0.0875936 0.560608
949 2 0.282721 0.0348738 0.554188
951 4 0.285234 0.058197 0.562842
1031 4 0.283556 0.0768332 0.57117
950 4 0.280208 0.0115507 0.545534
1217 4 0.399971 0.0719844 0.501631
842 4 0.391708 0.0643949 0.517919
841 2 0.367053 0.0656769 0.513966
1216 2 0.42147 0.0634483 0.511125
1218 4 0.442968 0.0549122 0.520619
1270 2 0.0608872 0.148292 0.574884
1271 4 0.0775291 0.130742 0.56854
1272 4 0.0442454 0.165841 0.581229
1058 4 0.0776053 0.124463 0.506756
1057 2 0.0817365 0.122088 0.531302
1059 4 0.0858678 0.119712 0.555847
1155 4 0.0970512 0.130078 0.566268
939 4 0.0898575 0.11949 0.577029
1153 2 0.117544 0.138146 0.578106
1150 2 0.213309 0.0832268 0.541723
1151 4 0.224762 0.103677 0.550429
1180 2 0.217301 0.135753 0.558233
1181 4 0.209175 0.112116 0.558882
1182 4 0.225427 0.15939 0.557585
1032 4 0.243664 0.098354 0.550046
900 4 0.219061 0.170889 0.542513
1198 2 0.00594714 0.229111 0.558875
1199 4 0.0252901 0.221376 0.572703
1244 4 0.0552522 0.237652 0.588517
878 4 0.0439589 0.228183 0.576754
877 2 0.0503597 0.204309 0.58053
879 4 0.0567605 0.180435 0.584306
695 4 0.0967743 0.208261 0.53198
694 2 0.0943139 0.221607 0.51098
898 2 0.23345 0.188736 0.532533
650 4 0.257694 0.222612 0.52563
899 4 0.24784 0.206583 0.522552
649 2 0.277007 0.234207 0.514779
651 4 0.29632 0.245801 0.503928
576 4 0.417754 0.178242 0.513704
1243 2 0.0563406 0.262557 0.586583
982 2 0.0162422 0.301368 0.573435
1245 4 0.0574291 0.287462 0.58465
983 4 0.0401839 0.297062 0.579216
948 4 0.152874 0.288042 0.570807
856 2 0.208947 0.266094 0.515212
857 4 0.195661 0.284749 0.525246
798 4 0.211541 0.294643 0.556108
947 4 0.195572 0.290478 0.54489
946 2 0.174223 0.28926 0.557849
796 2 0.229012 0.287569 0.572537
267 4 0.354918 0.260217 0.525073
265 2 0.357481 0.254566 0.500852
2457 4 0.489569 0.278324 0.504562
1010 4 0.469455 0.279189 0.505566
504 4 0.175869 0.382793 0.497164
803 4 0.268716 0.373953 0.569732
804 4 0.2911 0.377116 0.525126
802 2 0.279908 0.375534 0.547429
1190 4 0.265541 0.359716 0.584009
928 2 0.337896 0.38844 0.567245
929 4 0.348515 0.384932 0.544882
881 4 0.351397 0.379063 0.526456
880 2 0.369062 0.36139 0.527343
882 4 0.386728 0.343717 0.528229
926 4 0.423035 0.410242 0.583922
539 4 0.0790199 0.444329 0.556829
540 4 0.101677 0.479801 0.583831
2244 4 0.0989076 0.498255 0.580709
538 2 0.0903482 0.462065 0.57033
1160 4 0.116525 0.494363 0.586335
2154 4 0.245351 0.488491 0.531473
1953 4 0.409657 0.485641 0.559297
1951 2 0.385517 0.491294 0.562533
1909 2 0.447183 0.481401 0.569282
1910 4 0.428202 0.493095 0.557962
1911 4 0.466164 0.469707 0.580603
1081 2 0.0788517 0.0718246 0.636271
938 4 0.0761097 0.0740451 0.592728
1083 4 0.0720125 0.0721427 0.612224
1127 4 0.0567509 0.0866071 0.611024
3007 2 0.499221 0.0617914 0.584748
3008 4 0.491315 0.050608 0.605667
809 4 0.479955 0.0395115 0.617099
808 2 0.470679 0.0567977 0.632602
810 4 0.461403 0.0740839 0.648104
42 3 0.454923 0.0682497 0.668253
1128 4 0.0103751 0.0846356 0.59242
1126 2 0.033563 0.0856213 0.601722
937 2 0.0829836 0.0967677 0.584878
1154 4 0.138036 0.146214 0.589944
1221 4 0.154616 0.136501 0.584292
1219 2 0.170873 0.148792 0.598776
1220 4 0.187131 0.161083 0.613261
1212 4 0.202112 0.158891 0.626533
1210 2 0.219856 0.172131 0.638153
1211 4 0.237599 0.185371 0.649774
1192 2 0.323624 0.138911 0.643651
886 2 0.273868 0.164025 0.663016
1194 4 0.31293 0.149601 0.663565
887 4 0.292986 0.149177 0.669277
1193 4 0.334317 0.128221 0.623737
45 3 0.460597 0.0974043 0.645655
3424 2 0.497451 0.117938 0.659066
3425 4 0.476598 0.104331 0.661342
41 1 0.454263 0.0911859 0.666627
3123 4 0.475531 0.270797 0.649294
1136 4 0.157154 0.298488 0.588177
1135 2 0.151919 0.321071 0.597546
822 4 0.151179 0.314865 0.645695
1064 4 0.155252 0.333478 0.652221
820 2 0.151315 0.292969 0.657766
821 4 0.151451 0.271073 0.669838
797 4 0.246483 0.280496 0.588965
791 4 0.262839 0.280146 0.599316
790 2 0.281004 0.297282 0.600572
792 4 0.299169 0.314418 0.601829
872 4 0.332855 0.287513 0.598021
1238 4 0.301074 0.33068 0.614709
871 2 0.357434 0.291152 0.600813
813 4 0.39655 0.308252 0.601231
873 4 0.382013 0.294792 0.603605
1041 4 0.0518228 0.375088 0.64164
3264 4 0.0451745 0.368709 0.659787
3240 4 0.0342497 0.378311 0.647543
3238 2 0.0145921 0.393541 0.644932
1039 2 0.0674915 0.385131 0.624943
1137 4 0.146685 0.343654 0.606916
1040 4 0.0831603 0.395173 0.608245
993 4 0.100916 0.387789 0.612738
991 2 0.12228 0.37488 0.611282
992 4 0.143644 0.361971 0.609826
897 4 0.16183 0.357604 0.611555
1063 2 0.173578 0.342938 0.666356
1189 2 0.24567 0.36961 0.595517
896 4 0.210633 0.368249 0.613928
895 2 0.186231 0.362927 0.612741
1172 4 0.21915 0.397547 0.611515
1191 4 0.225799 0.379504 0.607026
1239 4 0.323376 0.37129 0.595888
1237 2 0.312225 0.350985 0.605299
930 4 0.327278 0.391949 0.589608
811 2 0.401839 0.33203 0.595589
1204 2 0.373359 0.389004 0.631111
1205 4 0.362335 0.401584 0.649696
1206 4 0.384383 0.376424 0.612526
927 4 0.396669 0.369989 0.597534
812 4 0.407128 0.355807 0.589946
925 2 0.409852 0.390116 0.590728
1002 4 0.438103 0.410317 0.596455
1159 2 0.139006 0.489345 0.59606
1161 4 0.161488 0.484327 0.605786
1188 4 0.162143 0.482921 0.625947
1171 2 0.215184 0.421732 0.616467
1186 2 0.184878 0.473868 0.620815
1173 4 0.211219 0.445917 0.62142
1187 4 0.207613 0.464815 0.615682
1140 4 0.248344 0.429742 0.658984
1001 4 0.463476 0.45282 0.589358
1000 2 0.450789 0.431568 0.592906
1269 4 0.459489 0.467845 0.599695
1267 2 0.462481 0.481188 0.620628
1082 4 0.0856908 0.0715064 0.660319
945 4 0.0489833 0.00124728 0.690757
943 2 0.0606529 0.0224386 0.684438
944 4 0.0723224 0.0436299 0.678119
1076 4 0.0816177 0.0634306 0.678952
1075 2 0.0793401 0.079005 0.698379
825 4 0.166932 0.041433 0.663614
1282 2 0.173866 0.0802777 0.686899
1149 4 0.216194 0.0519845 0.684342
1283 4 0.171828 0.0599555 0.672475
823 2 0.176708 0.0185212 0.665769
1147 2 0.232774 0.0703527 0.680753
1092 4 0.312439 0.00673543 0.676516
1004 4 0.346267 0.0753929 0.751564
4579 2 0.495557 0.00314642 0.726096
1163 4 0.469893 0.0776225 0.681898
1162 2 0.48437 0.0647009 0.697666
1164 4 0.498847 0.0517793 0.713433
2321 4 0.500132 0.045363 0.731696
864 4 0.0651875 0.0931718 0.732743
1077 4 0.0770626 0.0945794 0.717807
851 4 0.0777236 0.113128 0.713174
850 2 0.0651789 0.134745 0.712465
852 4 0.0526341 0.156363 0.711756
1107 4 0.0816067 0.105936 0.732475
862 2 0.046503 0.0858984 0.747682
1284 4 0.175903 0.1006 0.701322
909 4 0.170631 0.120248 0.702335
907 2 0.191899 0.132401 0.69732
908 4 0.213166 0.144554 0.692304
1227 4 0.230254 0.1396 0.700811
1225 2 0.245622 0.122044 0.691823
1148 4 0.249355 0.0887208 0.677164
1003 2 0.3379 0.0944632 0.737726
1226 4 0.260991 0.104488 0.682835
829 2 0.308225 0.129459 0.700893
1005 4 0.329532 0.113533 0.723888
830 4 0.306446 0.138566 0.677675
831 4 0.310005 0.120352 0.724111
43 3 0.432605 0.0983827 0.670816
3270 4 0.503653 0.147776 0.725491
44 3 0.468788 0.100238 0.682295
1113 4 0.449671 0.102371 0.727921
1146 4 0.498108 0.164105 0.737178
1111 2 0.448476 0.0871242 0.747702
1073 4 0.0711927 0.244427 0.738342
1177 2 0.0246916 0.254173 0.71269
1072 2 0.0957437 0.247113 0.734442
1130 4 0.13758 0.24992 0.737755
1074 4 0.120295 0.249799 0.730542
1208 4 0.132175 0.242417 0.718303
888 4 0.25475 0.178874 0.656755
978 4 0.321056 0.202748 0.710873
976 2 0.306961 0.206488 0.731183
1025 4 0.41905 0.16364 0.681001
1024 2 0.43356 0.174027 0.698516
1142 4 0.436252 0.182945 0.732555
1144 2 0.476441 0.176233 0.734245
1262 4 0.455799 0.202958 0.71885
1026 4 0.44807 0.184414 0.71603
1261 2 0.455675 0.226587 0.710675
1145 4 0.454774 0.188362 0.731311
1263 4 0.455551 0.250215 0.702499
1179 4 0.0480544 0.26221 0.716532
893 4 0.00147645 0.321292 0.713005
3263 4 0.0473943 0.325093 0.684147
1209 4 0.161333 0.266322 0.685453
1207 2 0.146754 0.25437 0.701878
806 4 0.253544 0.336609 0.666023
1019 4 0.368333 0.303346 0.725548
1018 2 0.36585 0.310175 0.701623
1020 4 0.363367 0.317004 0.677699
892 2 0.0214276 0.332162 0.723444
3262 2 0.0462844 0.346901 0.671967
1279 2 0.0493254 0.381896 0.735066
894 4 0.0413787 0.343032 0.733883
1280 4 0.0540072 0.357426 0.732953
816 4 0.0611551 0.340228 0.737343
1281 4 0.0446435 0.406366 0.737179
814 2 0.0841017 0.338937 0.747191
1065 4 0.191905 0.352398 0.680492
807 4 0.203848 0.341056 0.669379
1028 4 0.223514 0.388329 0.707849
1066 2 0.199312 0.372108 0.736218
1068 4 0.219335 0.373369 0.721296
1027 2 0.235184 0.403166 0.691452
805 2 0.228696 0.338832 0.667701
1067 4 0.179289 0.370848 0.75114
1983 4 0.0575429 0.420507 0.739292
1981 2 0.0762328 0.435695 0.746016
2172 4 0.164164 0.48397 0.677704
1982 4 0.0949227 0.450883 0.752739
2016 4 0.149052 0.485109 0.734499
1176 4 0.160255 0.472985 0.723482
1029 4 0.246853 0.418004 0.675056
1175 4 0.205737 0.481552 0.704542
1174 2 0.182996 0.477269 0.714012
1138 2 0.263955 0.448219 0.665317
2026 2 0.286969 0.503566 0.686706
1139 4 0.279565 0.466695 0.671649
1987 2 0.271291 0.460891 0.721907
1229 4 0.294274 0.46397 0.685633
1989 4 0.28122 0.469988 0.700839
2028 4 0.285609 0.478652 0.685081
1228 2 0.316987 0.455836 0.679064
1230 4 0.339699 0.447702 0.672496
1099 2 0.444812 0.492976 0.674128
1100 4 0.442365 0.485991 0.698011
2989 2 0.0134023 0.0478775 0.783277
2990 4 0.0186201 0.071751 0.777985
2991 4 0.00818454 0.024004 0.78857
2049 4 0.110792 0.0229867 0.786103
1202 4 0.119922 0.0403333 0.784681
2047 2 0.117501 0.998916 0.785245
1201 2 0.127126 0.0639297 0.788743
1203 4 0.134329 0.0875261 0.792805
817 2 0.332238 0.0573278 0.804939
819 4 0.327857 0.0786051 0.817319
1050 4 0.326668 0.0143677 0.773511
973 2 0.360929 0.00709619 0.795306
818 4 0.33662 0.0360504 0.792559
974 4 0.344166 0.0203097 0.782284
2322 4 0.47979 0.0545078 0.776455
845 4 0.462713 0.0651906 0.776829
1112 4 0.447281 0.0718775 0.767483
844 2 0.466062 0.0710748 0.800899
2320 2 0.489961 0.0499354 0.754076
846 4 0.469411 0.076959 0.824968
863 4 0.0278186 0.0786249 0.762621
833 4 0.0219636 0.0905616 0.777826
832 2 0.0237375 0.105908 0.797486
834 4 0.0255114 0.121255 0.817146
3083 4 0.00992159 0.0847072 0.764391
1125 4 0.0295309 0.139139 0.825286
1105 2 0.0994695 0.103552 0.749808
1106 4 0.117332 0.101168 0.76714
911 4 0.135132 0.10284 0.826142
34 3 0.129742 0.107059 0.782398
31 1 0.142119 0.110653 0.801693
35 3 0.130145 0.123305 0.816363
32 3 0.146895 0.0903312 0.811357
33 3 0.16204 0.121333 0.796451