ITEM: TIMESTEP
2020000
ITEM: NUMBER OF ATOMS
4590
ITEM: BOX BOUNDS pp pp pp
-9.9985700000000008e+00 9.9985700000000008e+00
-9.9985700000000008e+00 9.9985700000000008e+00
-9.9985700000000008e+00 9.9985700000000008e+00
ITEM: ATOMS id type xs ys zs
1666 2 0.0388443 0.0675432 0.055151
1668 4 0.0341339 0.0563709 0.0332838
1667 4 0.0435547 0.0787154 0.0770181
1474 2 0.297926 0.00714932 0.0759647
1475 4 0.280408 0.0249271 0.0744741
2974 2 0.467061 0.0276182 0.0107681
2976 4 0.471705 0.00526368 0.020961
745 2 0.450401 0.0820675 0.011037
701 4 0.0535258 0.0967551 0.08219
2264 4 0.224694 0.153696 0.00684145
2263 2 0.236844 0.133419 0.998692
566 4 0.170798 0.163584 0.0292499
297 4 0.326253 0.101509 0.0196975
295 2 0.34755 0.108162 0.00841308
556 2 0.404308 0.114273 0.00293554
558 4 0.423934 0.107875 0.0170447
746 4 0.437364 0.0956173 0.0275177
555 4 0.0567607 0.252464 0.0165022
565 2 0.191979 0.166936 0.0163919
567 4 0.213159 0.170288 0.00353393
360 4 0.336134 0.178509 0.00341431
770 4 0.400205 0.176361 0.0197632
359 4 0.382645 0.183951 0.0209607
358 2 0.35939 0.18123 0.0121875
664 2 0.401103 0.204838 0.0519942
665 4 0.396976 0.186486 0.0355216
666 4 0.405229 0.22319 0.0684668
323 4 0.413577 0.241489 0.0710759
623 4 0.398017 0.235352 0.0812749
769 2 0.422776 0.176387 0.00900652
2808 4 0.00631683 0.27165 0.0178413
287 4 0.16287 0.3227 0.0361565
292 2 0.131294 0.294879 0.0264583
507 4 0.158179 0.307571 0.0479388
293 4 0.152544 0.307723 0.0294019
294 4 0.110044 0.282035 0.0235147
551 4 0.100858 0.321184 0.0853611
286 2 0.171573 0.328385 0.0134161
505 2 0.172028 0.306892 0.068746
481 2 0.226947 0.293913 0.0802192
482 4 0.249198 0.288169 0.0703668
573 4 0.256898 0.282615 0.052842
571 2 0.273945 0.278487 0.035022
572 4 0.290991 0.274359 0.017202
357 4 0.296975 0.273586 0.998582
1069 2 0.398936 0.303286 0.0219402
957 4 0.371016 0.336171 0.0191178
1071 4 0.379932 0.3195 0.0229962
741 4 0.375564 0.331727 0.0375331
322 2 0.412359 0.259989 0.0542993
324 4 0.411141 0.278488 0.0375226
1070 4 0.417941 0.287072 0.0208842
671 4 0.451677 0.320082 0.077642
280 2 0.448784 0.301413 0.0432502
281 4 0.460619 0.30959 0.0637013
282 4 0.436949 0.293236 0.0227992
455 4 0.140585 0.357937 0.065781
552 4 0.12188 0.354342 0.054388
550 2 0.111369 0.337763 0.0698746
454 2 0.157133 0.370136 0.0515498
456 4 0.173682 0.382334 0.0373187
1290 4 0.276915 0.401379 0.0145118
252 4 0.280152 0.399248 0.0742325
250 2 0.275233 0.407378 0.0511048
739 2 0.37699 0.335055 0.0622732
493 2 0.386687 0.389136 0.0705309
495 4 0.39456 0.366635 0.0780765
494 4 0.378815 0.411636 0.0629852
1788 4 0.0826578 0.492358 0.0155086
626 4 0.229022 0.48377 0.0667833
625 2 0.20691 0.491516 0.0755145
627 4 0.184799 0.499263 0.0842457
251 4 0.270314 0.415507 0.0279771
245 4 0.248905 0.485298 0.0691578
244 2 0.258425 0.46555 0.0571334
246 4 0.267945 0.445803 0.0451091
272 4 0.274503 0.434864 0.0290545
271 2 0.280925 0.441009 0.00568376
1672 2 0.404936 0.44156 0.0617498
853 2 0.40398 0.439155 0.00407122
660 4 0.373231 0.425128 0.0783299
1673 4 0.391021 0.433329 0.0808235
854 4 0.417315 0.443881 0.0246873
1674 4 0.418851 0.44979 0.0426761
563 4 0.482565 0.460414 0.0297476
562 2 0.458881 0.452433 0.0304735
564 4 0.435196 0.444452 0.0311995
228 4 0.494736 0.475326 0.0376125
18 3 0.0675158 0.0338398 0.145642
16 1 0.0705753 0.0438731 0.16634
19 3 0.0695968 0.0669548 0.164176
492 4 0.28056 0.0396703 0.0879107
490 2 0.278959 0.0646183 0.0883736
1506 4 0.255711 0.00505204 0.164094
486 4 0.416493 0.0182574 0.0956238
2723 4 0.444676 0.0762879 0.157744
2722 2 0.464912 0.0616352 0.156752
2724 4 0.485148 0.0469826 0.155761
1761 4 0.485739 0.00843785 0.100313
1759 2 0.490069 0.0214408 0.121226
1760 4 0.494398 0.0344437 0.142139
2744 4 0.490506 0.0293331 0.1602
700 2 0.0645394 0.114134 0.0963972
702 4 0.075553 0.131513 0.110604
476 4 0.0942875 0.130617 0.117006
475 2 0.114217 0.142405 0.126442
477 4 0.134146 0.154193 0.135879
491 4 0.277358 0.0895663 0.0888365
582 4 0.251255 0.127754 0.158947
580 2 0.268293 0.123253 0.141209
581 4 0.285332 0.118752 0.123472
628 2 0.374568 0.146084 0.151856
312 4 0.373935 0.114153 0.159383
629 4 0.38716 0.127762 0.163298
630 4 0.361975 0.164405 0.140414
339 4 0.0737161 0.220821 0.148863
337 2 0.0707522 0.233783 0.170037
738 4 0.226055 0.209675 0.089734
737 4 0.243018 0.171159 0.116743
736 2 0.234537 0.190417 0.103239
460 2 0.32607 0.232133 0.106784
352 2 0.274965 0.243692 0.121094
353 4 0.264158 0.246744 0.143433
461 4 0.304093 0.230567 0.0949642
354 4 0.285773 0.240639 0.0987538
278 4 0.257139 0.24254 0.158373
254 4 0.373465 0.178648 0.148261
462 4 0.348048 0.233699 0.118604
255 4 0.352697 0.22109 0.131886
253 2 0.363081 0.199869 0.140073
765 4 0.358572 0.238867 0.135894
624 4 0.366422 0.232007 0.119892
622 2 0.38222 0.23368 0.100584
506 4 0.185876 0.306214 0.0895532
755 4 0.245889 0.254517 0.147789
483 4 0.204696 0.299656 0.0900716
537 4 0.181988 0.318616 0.104841
535 2 0.183689 0.318954 0.129784
754 2 0.241217 0.274289 0.162363
536 4 0.18539 0.319292 0.154728
387 4 0.327202 0.30078 0.108107
301 2 0.325129 0.30421 0.151611
302 4 0.329195 0.302914 0.126975
284 4 0.275207 0.2482 0.160653
763 2 0.345269 0.251065 0.153198
385 2 0.34669 0.314394 0.100357
386 4 0.366178 0.328007 0.0926072
527 4 0.456499 0.301095 0.080615
670 2 0.431182 0.329567 0.0883737
528 4 0.493356 0.285928 0.110819
526 2 0.474928 0.293512 0.0957169
647 4 0.0667663 0.343258 0.163314
417 4 0.168406 0.405229 0.163495
415 2 0.187318 0.391756 0.154221
291 4 0.213549 0.393869 0.132853
289 2 0.237468 0.40115 0.13257
416 4 0.206229 0.378283 0.144947
609 4 0.274764 0.408841 0.0918385
290 4 0.261386 0.40843 0.132287
607 2 0.296756 0.416169 0.10121
15 3 0.369221 0.334555 0.111753
740 4 0.378417 0.338382 0.0870133
12 3 0.405248 0.335877 0.121406
672 4 0.410687 0.339052 0.0991054
14 3 0.393883 0.352479 0.0896588
11 1 0.387992 0.347448 0.111531
13 3 0.384299 0.367016 0.123441
595 2 0.476713 0.40226 0.148626
596 4 0.463543 0.397462 0.12792
102 3 0.477632 0.342746 0.130868
101 1 0.499661 0.34118 0.137305
1791 4 0.0554604 0.489883 0.150895
1466 4 0.0374799 0.480257 0.146679
1465 2 0.0432744 0.455938 0.14709
1467 4 0.0490689 0.431618 0.147501
638 4 0.253778 0.490796 0.138707
767 4 0.264747 0.47681 0.128575
766 2 0.260739 0.452168 0.129953
768 4 0.256731 0.427526 0.131331
608 4 0.318749 0.423496 0.110581
659 4 0.33793 0.42655 0.113721
658 2 0.355581 0.425839 0.0960253
1559 4 0.35749 0.49233 0.0977654
1558 2 0.3345 0.502075 0.0964694
524 4 0.371807 0.478444 0.102589
523 2 0.390059 0.487277 0.117218
525 4 0.408311 0.49611 0.131848
17 3 0.0537828 0.0370119 0.180485
2480 4 0.0364851 0.0280438 0.180672
1422 4 0.03038 0.0124114 0.191428
2479 2 0.0189675 0.0436188 0.189374
380 4 0.995178 0.0767127 0.207727
675 4 0.120237 0.998007 0.241066
20 3 0.0907 0.0377318 0.175053
450 4 0.149845 0.074489 0.186094
578 4 0.102122 0.0514619 0.166351
674 4 0.163874 0.0199239 0.23029
673 2 0.142056 0.00896537 0.235678
577 2 0.12074 0.0679901 0.168675
688 2 0.186485 0.00577054 0.199686
689 4 0.174118 0.0228055 0.213178
693 4 0.25888 0.079564 0.238768
652 2 0.285195 0.00446847 0.183858
653 4 0.301777 0.0178641 0.196927
25 3 0.320372 0.0497024 0.234266
758 4 0.372252 0.066167 0.193712
759 4 0.34231 0.0581831 0.232961
757 2 0.357281 0.0621751 0.213337
311 4 0.386162 0.0816519 0.195368
511 2 0.0399151 0.149921 0.191699
512 4 0.0178598 0.138402 0.189241
381 4 0.00314478 0.124095 0.193866
379 2 0.999161 0.100404 0.200796
579 4 0.139357 0.0845183 0.170998
448 2 0.17442 0.0789418 0.187292
237 4 0.241584 0.134202 0.175315
449 4 0.198994 0.0833946 0.18849
235 2 0.228852 0.114029 0.182807
236 4 0.216119 0.0938563 0.190299
26 1 0.323668 0.158012 0.251264
28 3 0.323974 0.149234 0.229787
310 2 0.380048 0.0979024 0.177376
521 4 0.494517 0.146752 0.232941
332 4 0.484106 0.128803 0.236135
762 4 0.483945 0.143348 0.248494
760 2 0.460489 0.151651 0.250954
331 2 0.495835 0.106726 0.236549
513 4 0.0619703 0.161441 0.194158
393 4 0.0803569 0.168996 0.195236
391 2 0.084798 0.176996 0.218505
392 4 0.0892391 0.184997 0.241774
279 4 0.247741 0.200748 0.184177
277 2 0.25244 0.221644 0.171275
27 3 0.318379 0.180368 0.250085
394 2 0.0140636 0.251483 0.21597
395 4 0.0338443 0.256662 0.20158
338 4 0.0677883 0.246746 0.191212
363 4 0.0544107 0.257203 0.198352
361 2 0.0648273 0.279106 0.204426
749 4 0.0669494 0.315269 0.220181
648 4 0.0801405 0.318277 0.204518
362 4 0.0752439 0.30101 0.2105
748 2 0.0757735 0.326752 0.240563
370 2 0.116627 0.304643 0.209307
372 4 0.0931339 0.305627 0.200804
371 4 0.140119 0.30366 0.217811
734 4 0.150148 0.303533 0.23707
756 4 0.236546 0.294061 0.176938
610 2 0.236646 0.312265 0.21122
612 4 0.225726 0.30504 0.189919
611 4 0.247566 0.319489 0.232521
285 4 0.31627 0.272334 0.175887
283 2 0.295739 0.260267 0.16827
307 2 0.330693 0.288646 0.209615
308 4 0.324289 0.287206 0.185488
303 4 0.321064 0.305506 0.176248
729 4 0.308021 0.31834 0.185143
727 2 0.292294 0.333883 0.196815
309 4 0.337097 0.290087 0.233742
764 4 0.331967 0.263263 0.170503
646 2 0.0734534 0.330768 0.183916
728 4 0.276567 0.349426 0.208487
446 4 0.392619 0.397814 0.243036
445 2 0.41444 0.389353 0.234236
645 4 0.489187 0.399678 0.187714
447 4 0.436261 0.380891 0.225436
644 4 0.448923 0.392817 0.216566
643 2 0.469055 0.396247 0.20214
597 4 0.489882 0.407058 0.169332
1774 2 0.078955 0.498401 0.235092
414 4 0.230881 0.472146 0.222668
412 2 0.231414 0.477647 0.247053
229 2 0.457603 0.484321 0.23472
230 4 0.441935 0.485829 0.215292
2755 2 0.999764 0.0700795 0.314377
234 4 0.0166774 0.0411641 0.281761
232 2 0.0401575 0.0330813 0.284683
233 4 0.0636375 0.0249986 0.287605
1404 4 0.0805646 0.0163617 0.292952
317 4 0.0765814 0.0340192 0.299623
428 4 0.0789879 0.018344 0.31203
2756 4 0.00986783 0.056238 0.296169
2478 4 0.003877 0.0543234 0.278735
316 2 0.0890357 0.0521024 0.311584
1402 2 0.0933542 0.00704355 0.273592
318 4 0.10149 0.0701855 0.323545
24 3 0.313922 0.0781041 0.258129
21 1 0.326233 0.0588117 0.2543
23 3 0.322499 0.0435186 0.271346
22 3 0.34859 0.06421 0.253918
349 2 0.385952 0.0660133 0.262231
351 4 0.40777 0.0556963 0.268767
350 4 0.364134 0.0763304 0.255694
479 4 0.452469 0.0332098 0.291505
478 2 0.435899 0.0388195 0.273641
2664 4 0.471045 0.0307393 0.286094
480 4 0.419328 0.0444293 0.255777
1428 4 0.461702 0.0231523 0.301583
258 4 0.452954 0.0387465 0.310203
2662 2 0.484761 0.0478216 0.298146
256 2 0.438716 0.0473917 0.328851
399 4 0.0909687 0.0856313 0.324506
732 4 0.109954 0.0887857 0.324895
691 2 0.263975 0.0891747 0.261281
721 2 0.254744 0.123084 0.31101
692 4 0.26907 0.0987855 0.283794
30 3 0.308019 0.147254 0.263834
723 4 0.264823 0.117473 0.288826
29 3 0.344591 0.15576 0.26104
632 4 0.359893 0.0953539 0.261019
631 2 0.357111 0.11934 0.267509
707 4 0.341746 0.14969 0.279591
633 4 0.354329 0.143325 0.273999
706 2 0.352467 0.164418 0.296717
761 4 0.437033 0.159954 0.253413
546 4 0.166924 0.176505 0.296468
544 2 0.170749 0.199054 0.286364
545 4 0.174573 0.221603 0.276259
402 4 0.192887 0.226122 0.271335
708 4 0.363189 0.179146 0.313843
418 2 0.398579 0.243885 0.328568
442 2 0.00693053 0.257958 0.269896
444 4 0.00911971 0.267995 0.292691
299 4 0.148004 0.319248 0.249697
298 2 0.126622 0.330043 0.25687
344 4 0.239735 0.305306 0.245705
400 2 0.199037 0.249377 0.278161
733 2 0.168622 0.294577 0.251341
401 4 0.205187 0.272631 0.284988
676 2 0.184876 0.294806 0.307908
345 4 0.203282 0.288378 0.27546
677 4 0.188927 0.287981 0.284197
343 2 0.221508 0.296842 0.260582
735 4 0.187096 0.285621 0.265613
678 4 0.180824 0.301631 0.331618
378 4 0.24677 0.268937 0.30698
498 4 0.330762 0.285199 0.252793
376 2 0.271741 0.268764 0.308253
496 2 0.317561 0.27594 0.271903
497 4 0.304359 0.266682 0.291012
377 4 0.296712 0.268592 0.309526
541 2 0.383318 0.302432 0.300457
542 4 0.396778 0.282431 0.307087
543 4 0.369857 0.322433 0.293827
420 4 0.395942 0.26214 0.311686
615 4 0.357867 0.335108 0.303068
2537 4 0.483425 0.335152 0.342626
264 4 0.995203 0.378526 0.262103
365 4 0.0178933 0.368134 0.305145
601 2 0.0406102 0.39303 0.325506
603 4 0.0225882 0.386905 0.309293
750 4 0.0845976 0.338235 0.260946
300 4 0.10524 0.340839 0.264044
510 4 0.217498 0.338025 0.317426
433 2 0.307718 0.389949 0.315564
435 4 0.283495 0.391511 0.309566
434 4 0.331942 0.388387 0.321561
614 4 0.350776 0.382732 0.316574
613 2 0.354321 0.35892 0.309821
775 2 0.0732741 0.500088 0.296327
500 4 0.0744858 0.491937 0.326337
777 4 0.0680691 0.490098 0.274004
1757 4 0.0561167 0.434296 0.269118
1756 2 0.0525612 0.457666 0.260971
1775 4 0.0675834 0.488042 0.254804
1758 4 0.0490057 0.481036 0.252825
1436 4 0.227665 0.472134 0.287745
413 4 0.231947 0.483148 0.271438
1435 2 0.24316 0.458672 0.302022
3 3 0.286193 0.472885 0.321325
1437 4 0.258655 0.44521 0.316299
4 3 0.272132 0.43899 0.331217
437 4 0.350893 0.488595 0.327699
231 4 0.473271 0.482813 0.254147
119 3 0.497031 0.466619 0.319644
1742 4 0.42736 0.48296 0.329579
606 4 0.160467 0.065161 0.349623
1780 2 0.120921 0.999574 0.397064
1781 4 0.118684 0.0174957 0.414356
368 4 0.0989919 0.0199145 0.412536
604 2 0.184279 0.0674494 0.356899
605 4 0.208091 0.0697378 0.364175
248 4 0.226223 0.0724972 0.354301
441 4 0.323194 0.0126187 0.399104
1701 4 0.333902 0.0202991 0.38492
962 4 0.318708 0.026189 0.411161
699 4 0.359775 0.0386033 0.333879
425 4 0.3377 0.0187539 0.404538
698 4 0.406698 0.0548966 0.339663
1699 2 0.336725 0.0290779 0.361679
1700 4 0.339547 0.0378567 0.338438
697 2 0.383237 0.04675 0.336771
725 4 0.398773 0.0630495 0.401742
257 4 0.424479 0.0560368 0.347498
397 2 0.0737012 0.100899 0.334197
2584 2 0.0208708 0.109597 0.346879
398 4 0.0564337 0.116166 0.343888
2586 4 0.041779 0.118642 0.357185
458 4 0.0362736 0.131642 0.371038
457 2 0.0288226 0.144526 0.391129
459 4 0.0213716 0.15741 0.41122
730 2 0.132856 0.0870171 0.334773
731 4 0.155757 0.0852484 0.344651
600 4 0.1446 0.142706 0.389371
598 2 0.139669 0.166592 0.383868
722 4 0.244664 0.128694 0.333193
249 4 0.237089 0.121036 0.349139
247 2 0.231656 0.0967665 0.35172
404 4 0.234587 0.137735 0.349427
683 4 0.243832 0.127352 0.365133
403 2 0.229133 0.160931 0.34185
682 2 0.262998 0.135694 0.378853
319 2 0.323851 0.157388 0.378897
684 4 0.282164 0.144037 0.392573
320 4 0.300323 0.151924 0.385359
321 4 0.347379 0.162852 0.372435
716 4 0.407231 0.168818 0.382732
715 2 0.414739 0.16596 0.359054
717 4 0.422247 0.163103 0.335376
261 4 0.0678085 0.205419 0.417981
599 4 0.134738 0.190479 0.378364
389 4 0.127442 0.223468 0.372099
686 4 0.122249 0.206688 0.381628
685 2 0.10459 0.204464 0.399189
275 4 0.135107 0.20601 0.367692
274 2 0.156751 0.209338 0.355622
388 2 0.12156 0.247762 0.371487
474 4 0.1858 0.229642 0.338406
276 4 0.178394 0.212665 0.343552
472 2 0.206997 0.216407 0.33759
405 4 0.223679 0.184126 0.334273
473 4 0.228195 0.203172 0.336774
419 4 0.401216 0.22563 0.345449
467 4 0.400228 0.184475 0.3913
269 4 0.410312 0.220654 0.362652
270 4 0.455803 0.226905 0.382457
452 4 0.470649 0.215979 0.386008
268 2 0.433057 0.223779 0.372555
451 2 0.472604 0.207919 0.409596
618 4 0.07074 0.313288 0.391737
347 4 0.0713753 0.33208 0.394442
616 2 0.0911762 0.301662 0.383229
390 4 0.115677 0.272056 0.370874
617 4 0.111612 0.290036 0.374721
374 4 0.130068 0.285098 0.369889
373 2 0.149566 0.295822 0.358487
375 4 0.169064 0.306545 0.347085
602 4 0.0586322 0.399154 0.34172
549 4 0.0764001 0.403263 0.346923
346 2 0.0483778 0.341547 0.391858
348 4 0.0253804 0.351014 0.389274
509 4 0.235075 0.346285 0.363508
508 2 0.226286 0.342155 0.340467
334 2 0.329225 0.361655 0.410657
335 4 0.347114 0.349478 0.398133
240 4 0.367395 0.350096 0.40262
238 2 0.385708 0.366546 0.407002
239 4 0.404021 0.382996 0.411385
587 4 0.396676 0.400185 0.416474
752 4 0.473219 0.39534 0.374731
561 4 0.48509 0.398186 0.390606
751 2 0.483684 0.413806 0.361516
559 2 0.491752 0.39649 0.414646
499 2 0.0768195 0.481786 0.349067
501 4 0.0791532 0.471634 0.371798
547 2 0.0854319 0.424909 0.355585
548 4 0.0944637 0.446556 0.364248
407 4 0.0894557 0.457365 0.380775
406 2 0.099514 0.464508 0.402524
436 2 0.328351 0.47798 0.329787
1555 2 0.264083 0.494906 0.415771
5 3 0.269698 0.468203 0.354846
1 1 0.282577 0.458217 0.338937
438 4 0.305809 0.467364 0.331874
2 3 0.302871 0.452479 0.348122
586 2 0.405095 0.417662 0.400699
593 4 0.403818 0.452573 0.381256
592 2 0.412348 0.468906 0.364355
588 4 0.413514 0.435139 0.384924
713 4 0.440907 0.486722 0.342467
712 2 0.463077 0.475359 0.34033
714 4 0.485247 0.463997 0.338192
753 4 0.494149 0.432273 0.3483
117 3 0.494893 0.451996 0.354202
594 4 0.420877 0.485239 0.347453
367 2 0.0778641 0.023392 0.425448
369 4 0.0567363 0.0268694 0.438359
719 4 0.0403905 0.02705 0.449208
718 2 0.0172653 0.0216584 0.457039
961 2 0.304134 0.0361405 0.428874
963 4 0.28956 0.046092 0.446587
432 4 0.301323 0.061058 0.45367
430 2 0.317104 0.0718131 0.46981
424 2 0.357127 0.0223228 0.419869
426 4 0.376554 0.0258917 0.435199
724 2 0.40974 0.0800207 0.416469
431 4 0.332884 0.0825682 0.485949
843 4 0.351169 0.0802886 0.493449
1218 4 0.44655 0.0476243 0.49606
726 4 0.420707 0.0969919 0.431196
640 2 0.483614 0.0984737 0.452075
641 4 0.468073 0.0993213 0.471644
260 4 0.0277125 0.175546 0.418779
687 4 0.086932 0.202239 0.416751
259 2 0.0477605 0.190482 0.41838
1035 4 0.0792305 0.21737 0.427661
696 4 0.0851048 0.247365 0.485066
1033 2 0.0872964 0.228283 0.448662
1034 4 0.0953623 0.239196 0.469663
488 4 0.319908 0.247249 0.428411
466 2 0.404523 0.189878 0.415332
487 2 0.334034 0.244191 0.448814
468 4 0.408818 0.195281 0.439364
411 4 0.366338 0.238784 0.465037
409 2 0.386244 0.224717 0.459463
410 4 0.40615 0.21065 0.45389
266 4 0.360088 0.246781 0.482846
489 4 0.34816 0.241133 0.469217
574 2 0.402095 0.185184 0.491309
575 4 0.404863 0.199259 0.47083
516 4 0.416422 0.197788 0.456248
514 2 0.441176 0.200508 0.454003
515 4 0.465929 0.203229 0.451759
453 4 0.47456 0.199859 0.433184
2847 4 0.00930776 0.312127 0.450365
2802 4 0.0101009 0.298573 0.43539
1258 2 0.108031 0.278782 0.475181
1259 4 0.121433 0.299738 0.477716
9 3 0.143708 0.299228 0.473614
1260 4 0.0946302 0.257825 0.472646
7 3 0.115373 0.321372 0.484543
6 1 0.137773 0.32092 0.479331
8 3 0.149924 0.327838 0.497848
1009 2 0.472664 0.32232 0.497103
326 4 0.054788 0.341422 0.482998
325 2 0.0790093 0.337131 0.478515
327 4 0.103231 0.33284 0.474033
10 3 0.141679 0.334921 0.461799
709 2 0.155545 0.411149 0.487802
503 4 0.217561 0.34873 0.47718
502 2 0.200709 0.367026 0.479721
710 4 0.172804 0.394917 0.49579
504 4 0.183858 0.385322 0.482262
668 4 0.301216 0.391456 0.423333
336 4 0.311335 0.373832 0.423181
667 2 0.313528 0.412912 0.426965
1011 4 0.459919 0.336979 0.481359
560 4 0.498414 0.394794 0.438686
3309 4 0.48358 0.384971 0.445829
3307 2 0.479193 0.36779 0.463457
3308 4 0.474805 0.350609 0.481084
1381 2 0.0287801 0.479738 0.464768
1383 4 0.0238378 0.45524 0.465536
679 2 0.998924 0.429636 0.44454
680 4 0.0185539 0.438871 0.456971
711 4 0.138285 0.427382 0.479815
384 4 0.117773 0.430352 0.476336
382 2 0.118339 0.446942 0.457638
408 4 0.109572 0.471652 0.424272
568 2 0.140396 0.492123 0.433902
383 4 0.118905 0.463532 0.438939
569 4 0.11776 0.482809 0.439002
1557 4 0.287873 0.489002 0.42071
635 4 0.330106 0.450202 0.442925
636 4 0.304093 0.49172 0.432913
669 4 0.325841 0.434369 0.430596
634 2 0.317099 0.470961 0.437919
772 2 0.365389 0.436966 0.450049
773 4 0.388229 0.438006 0.460172
774 4 0.34255 0.435926 0.439926
2430 4 0.148294 0.0319766 0.50747
2428 2 0.138881 0.0101069 0.515105
1152 4 0.219986 0.0623783 0.523541
1150 2 0.228443 0.077809 0.541305
342 4 0.205485 0.0610905 0.509527
340 2 0.182469 0.0530469 0.503983
341 4 0.159453 0.0450033 0.498439
1030 2 0.266934 0.070857 0.577899
949 2 0.288677 0.0204128 0.558063
951 4 0.286631 0.0392837 0.574338
1217 4 0.403568 0.0658206 0.514009
842 4 0.387913 0.0531232 0.513763
841 2 0.369541 0.0667059 0.503606
3009 4 0.492164 0.0630817 0.562903
1216 2 0.425059 0.0567224 0.505034
1058 4 0.101924 0.122089 0.512758
1057 2 0.0958019 0.119544 0.536866
1059 4 0.0896803 0.117 0.560975
1155 4 0.102133 0.122872 0.573675
1271 4 0.0884107 0.135439 0.572926
939 4 0.0830279 0.118334 0.578328
1151 4 0.2369 0.0932398 0.559069
1180 2 0.220813 0.13296 0.545576
1181 4 0.223661 0.108857 0.551585
1182 4 0.217966 0.157063 0.539566
1032 4 0.246236 0.0835649 0.571959
1198 2 0.00537821 0.234502 0.557016
1199 4 0.0287837 0.230878 0.565031
1244 4 0.0560244 0.241462 0.581205
878 4 0.042184 0.22754 0.57883
877 2 0.056445 0.207449 0.583092
695 4 0.0883151 0.219482 0.526454
694 2 0.08671 0.233423 0.50576
900 4 0.230623 0.166027 0.551744
898 2 0.248627 0.179829 0.541231
650 4 0.272019 0.204048 0.515177
899 4 0.266631 0.193631 0.530717
649 2 0.2852 0.221012 0.527971
651 4 0.29838 0.237975 0.540765
576 4 0.399326 0.17111 0.511789
267 4 0.36539 0.238849 0.531935
265 2 0.362739 0.242815 0.507391
1243 2 0.044134 0.262783 0.586611
948 4 0.156387 0.278036 0.577705
1136 4 0.148056 0.295383 0.582653
856 2 0.206298 0.264942 0.516337
857 4 0.193853 0.274102 0.535994
798 4 0.212766 0.277842 0.569419
947 4 0.20089 0.272009 0.555708
946 2 0.178638 0.275022 0.566706
858 4 0.218743 0.255782 0.49668
2457 4 0.482754 0.288346 0.516535
1010 4 0.485409 0.307661 0.512846
803 4 0.270648 0.373022 0.565787
804 4 0.288327 0.380719 0.519647
802 2 0.279488 0.376871 0.542717
1190 4 0.258052 0.362471 0.578465
928 2 0.341638 0.396314 0.570177
929 4 0.354382 0.395557 0.548678
881 4 0.351393 0.388842 0.529659
880 2 0.363299 0.367924 0.522886
882 4 0.375205 0.347007 0.516114
539 4 0.0635044 0.439619 0.568167
540 4 0.106409 0.464683 0.5738
2244 4 0.100917 0.482613 0.570092
1160 4 0.115663 0.481377 0.582294
538 2 0.0849565 0.452151 0.570984
2154 4 0.223447 0.491712 0.5344
1909 2 0.438087 0.494693 0.561626
1911 4 0.456214 0.482064 0.573336
1001 4 0.455058 0.464247 0.585395
1081 2 0.0693998 0.0848347 0.646777
1082 4 0.0787263 0.0808573 0.669633
938 4 0.0620901 0.0818948 0.60543
1083 4 0.0600732 0.088812 0.623922
1128 4 0.000785229 0.0822498 0.599655
1031 4 0.287632 0.0581492 0.583838
3007 2 0.484947 0.0473071 0.58091
3008 4 0.47773 0.0315324 0.598917
809 4 0.473546 0.0372557 0.616737
808 2 0.468304 0.0538313 0.634708
810 4 0.463063 0.070407 0.652679
1127 4 0.0414328 0.0952281 0.625733
1126 2 0.021109 0.088739 0.612694
1270 2 0.0726837 0.153633 0.579771
937 2 0.072559 0.100114 0.591879
1154 4 0.144551 0.121273 0.60011
1153 2 0.123342 0.122073 0.586892
1221 4 0.158528 0.134709 0.598581
1219 2 0.180729 0.137663 0.609698
1220 4 0.20293 0.140617 0.620814
1212 4 0.205265 0.155538 0.634395
1192 2 0.317468 0.12458 0.652095
1193 4 0.331965 0.116149 0.633549
886 2 0.273556 0.162464 0.663041
45 3 0.462964 0.0943988 0.65124
879 4 0.0707061 0.187358 0.587354
1272 4 0.0569566 0.171826 0.586616
1210 2 0.223657 0.169877 0.643411
1211 4 0.242049 0.184216 0.652427
888 4 0.262237 0.182555 0.653375
1245 4 0.0322436 0.284103 0.592018
983 4 0.0300117 0.302169 0.5865
982 2 0.00627427 0.309441 0.583528
1135 2 0.154986 0.3151 0.59638
822 4 0.146812 0.305957 0.635485
1064 4 0.155261 0.321775 0.642596
820 2 0.146789 0.284478 0.648285
821 4 0.146766 0.262999 0.661085
796 2 0.234442 0.275197 0.581598
797 4 0.256118 0.272551 0.593777
791 4 0.268254 0.287625 0.588275
790 2 0.277099 0.310976 0.586975
872 4 0.338725 0.293104 0.592491
871 2 0.362987 0.298224 0.595708
813 4 0.396159 0.318975 0.590112
873 4 0.387248 0.303345 0.598925
3123 4 0.477346 0.263793 0.64977
3121 2 0.499134 0.27133 0.659448
1041 4 0.0546219 0.386124 0.635043
3264 4 0.0547326 0.377811 0.65434
3240 4 0.0420664 0.392517 0.661185
3238 2 0.0213917 0.406334 0.658571
1039 2 0.0774666 0.38644 0.624884
1137 4 0.161915 0.334816 0.610106
1040 4 0.100311 0.386755 0.614725
993 4 0.105695 0.36872 0.606866
991 2 0.129123 0.360244 0.608974
992 4 0.152551 0.351767 0.611082
897 4 0.171688 0.349302 0.616966
1063 2 0.169196 0.339009 0.654171
1189 2 0.240237 0.376152 0.589447
896 4 0.202631 0.385023 0.600616
895 2 0.18716 0.367162 0.608791
1172 4 0.220644 0.404957 0.614282
1191 4 0.222421 0.389833 0.600429
792 4 0.285944 0.334327 0.585676
1238 4 0.3033 0.332269 0.596226
1239 4 0.31975 0.379484 0.595322
1237 2 0.311525 0.355876 0.595774
930 4 0.328895 0.397071 0.591676
811 2 0.403101 0.340312 0.601145
1204 2 0.376666 0.379382 0.630232
1205 4 0.365243 0.368471 0.649614
1206 4 0.388088 0.390293 0.610851
927 4 0.404783 0.380598 0.611853
812 4 0.410043 0.361648 0.612178
1002 4 0.453167 0.414692 0.591831
926 4 0.438401 0.403573 0.582824
925 2 0.421592 0.392085 0.597338
3239 4 0.000717022 0.420151 0.655957
1159 2 0.137097 0.481683 0.595165
1161 4 0.158531 0.481989 0.608037
2172 4 0.12675 0.486019 0.658421
1188 4 0.172887 0.495567 0.603161
1171 2 0.221259 0.429815 0.616898
1186 2 0.193268 0.481138 0.604421
1173 4 0.221875 0.454674 0.619514
1187 4 0.213649 0.466709 0.605681
1140 4 0.246403 0.426723 0.658437
1000 2 0.454113 0.43947 0.588613
1099 2 0.437195 0.493926 0.660759
1269 4 0.469531 0.476253 0.585148
1267 2 0.467503 0.487496 0.607389
1268 4 0.465476 0.498738 0.62963
945 4 0.0588299 0.00418623 0.694551
943 2 0.0672343 0.0277306 0.694093
944 4 0.0756386 0.0512749 0.693636
1076 4 0.0773401 0.0678866 0.683748
1075 2 0.0708751 0.0832119 0.702417
825 4 0.167488 0.0425711 0.676361
1283 4 0.149957 0.0500234 0.683746
1282 2 0.151409 0.0718695 0.695822
823 2 0.172011 0.0192165 0.668661
1147 2 0.241627 0.0689384 0.666138
1149 4 0.244354 0.0442527 0.663246
1092 4 0.310479 0.0226356 0.695324
1004 4 0.324188 0.0577045 0.743103
1003 2 0.329061 0.0806773 0.734519
42 3 0.456964 0.0643207 0.672505
1163 4 0.469736 0.0746441 0.688377
1162 2 0.484296 0.0619461 0.704249
1164 4 0.498857 0.049248 0.720121
864 4 0.0658598 0.0919636 0.73977
1077 4 0.06441 0.0985372 0.721085
851 4 0.0740718 0.116332 0.718609
850 2 0.0679187 0.140165 0.714213
852 4 0.0617657 0.163997 0.709818
1107 4 0.0792123 0.103053 0.731382
1284 4 0.152862 0.0937156 0.707897
1148 4 0.238901 0.093624 0.66903
909 4 0.170743 0.101051 0.711161
907 2 0.189365 0.117018 0.706321
908 4 0.207987 0.132986 0.701481
1227 4 0.225229 0.140028 0.692676
1225 2 0.240125 0.122321 0.683202
1194 4 0.302971 0.133011 0.67064
887 4 0.284875 0.142373 0.672706
1226 4 0.255021 0.104614 0.673728
829 2 0.308267 0.128362 0.707594
1005 4 0.333933 0.10365 0.725934
830 4 0.295553 0.137099 0.687916
831 4 0.320981 0.119626 0.727271
3424 2 0.495873 0.116396 0.665355
3425 4 0.475389 0.10251 0.668931
41 1 0.455373 0.0872462 0.671485
43 3 0.433154 0.0933522 0.674216
44 3 0.468254 0.0964221 0.688464
1113 4 0.442111 0.116049 0.737088
1146 4 0.493834 0.150905 0.733322
1073 4 0.0743761 0.227488 0.74617
1072 2 0.0956072 0.239165 0.740001
1130 4 0.133964 0.241618 0.735189
1074 4 0.116838 0.250842 0.733831
1208 4 0.12563 0.244068 0.717505
978 4 0.306812 0.191619 0.725512
976 2 0.294079 0.201355 0.744702
1025 4 0.407374 0.182538 0.684622
1024 2 0.426018 0.18405 0.701215
1142 4 0.441 0.181499 0.736493
1144 2 0.476186 0.168395 0.730532
1262 4 0.45765 0.200424 0.715076
1026 4 0.444662 0.185561 0.717807
1261 2 0.457615 0.225111 0.719046
1145 4 0.458537 0.185886 0.727742
1177 2 0.0156422 0.252368 0.712128
1179 4 0.0341967 0.268776 0.715544
892 2 0.0144664 0.331704 0.722274
1209 4 0.151326 0.263401 0.679208
1207 2 0.138478 0.253735 0.698357
1019 4 0.341263 0.309312 0.709406
1018 2 0.355979 0.318925 0.691624
1020 4 0.370695 0.328538 0.673841
1263 4 0.457581 0.249797 0.723015
3262 2 0.0498954 0.361024 0.672228
3263 4 0.0450581 0.344237 0.690116
1279 2 0.0388503 0.380392 0.739329
894 4 0.0301824 0.351148 0.722558
1280 4 0.0461605 0.359422 0.727839
816 4 0.0637024 0.360032 0.740529
1983 4 0.0451801 0.411935 0.741442
1065 4 0.18313 0.356243 0.665747
807 4 0.202848 0.351085 0.670624
1028 4 0.210544 0.390699 0.696339
1066 2 0.192177 0.374038 0.733867
1068 4 0.200882 0.383934 0.712619
1027 2 0.228946 0.400114 0.68227
805 2 0.227061 0.344847 0.670664
1029 4 0.247347 0.409529 0.668202
806 4 0.251274 0.338609 0.670704
1981 2 0.057387 0.433708 0.742883
1982 4 0.0695938 0.455482 0.744325
2016 4 0.163203 0.482794 0.740912
1176 4 0.163799 0.477176 0.721657
1175 4 0.190942 0.441265 0.699877
1174 2 0.17737 0.459221 0.710767
1138 2 0.260854 0.444641 0.6682
1139 4 0.275305 0.462558 0.677962
1987 2 0.276868 0.458416 0.726976
1229 4 0.290047 0.461663 0.689884
1989 4 0.286268 0.469052 0.706391
2028 4 0.284503 0.477815 0.688725
1228 2 0.312232 0.450381 0.687488
1230 4 0.334417 0.439099 0.685092
1100 4 0.420258 0.484648 0.676641
2989 2 0.00960095 0.0516072 0.772734
2990 4 0.0120593 0.0764449 0.774226
2049 4 0.122369 0.0226238 0.777512
1202 4 0.117981 0.0427499 0.776985
2047 2 0.128225 0.00128269 0.765874
1201 2 0.123097 0.0652577 0.786598
817 2 0.323771 0.0532972 0.813068
819 4 0.327156 0.0741542 0.826437
818 4 0.320386 0.0324403 0.7997
1050 4 0.325706 0.00442438 0.781646
974 4 0.329962 0.0147084 0.797768
973 2 0.34851 0.0016142 0.808241
2322 4 0.469315 0.0513353 0.775164
845 4 0.471887 0.0709247 0.781181
1112 4 0.459312 0.0829041 0.770348
844 2 0.468312 0.0802795 0.804091
2320 2 0.484059 0.0448376 0.756043
846 4 0.464737 0.0896344 0.827001
862 2 0.0448836 0.0901826 0.753261
863 4 0.0239074 0.0884016 0.766752
833 4 0.0101689 0.0978934 0.774776
832 2 0.0161407 0.112007 0.794532
1125 4 0.0363283 0.126447 0.82776
834 4 0.0221124 0.126121 0.814289
3083 4 0.00406547 0.0871931 0.761078
1105 2 0.0975924 0.105866 0.748099
1203 4 0.128213 0.0877654 0.796211
1106 4 0.115973 0.108679 0.764815
911 4 0.131947 0.105866 0.826069
34 3 0.12582 0.108486 0.782491
31 1 0.139153 0.111482 0.801243
35 3 0.128989 0.125736 0.815809
32 3 0.14226 0.0911219 0.811489
33 3 0.159826 0.119964 0.794991
1255 2 0.24531 0.107943 0.79854
1256 4 0.225647 0.105494 0.81379
840 4 0.234507 0.110301 0.83102
1085 4 0.315535 0.0877233 0.817934
1257 4 0.264973 0.110391 0.78329
1084 2 0.298505 0.101452 0.805824
1086 4 0.281474 0.115182 0.793714
1023 4 0.401429 0.151113 0.825655
48 3 0.401094 0.166371 0.782322
1111 2 0.450711 0.0994764 0.753718
1129 2 0.14958 0.245429 0.754341
1277 4 0.182749 0.240571 0.77488
977 4 0.281346 0.211091 0.763892
918 4 0.2755 0.23053 0.766184
1298 4 0.279966 0.219161 0.780713
1297 2 0.279651 0.206679 0.802376
1299 4 0.279335 0.194198 0.82404
47 3 0.406532 0.170224 0.819311
46 1 0.399454 0.180998 0.800259