ITEM: TIMESTEP
430000
ITEM: NUMBER OF ATOMS
4590
ITEM: BOX BOUNDS pp pp pp
-9.9985700000000008e+00 9.9985700000000008e+00
-9.9985700000000008e+00 9.9985700000000008e+00
-9.9985700000000008e+00 9.9985700000000008e+00
ITEM: ATOMS id type xs ys zs
463 2 0.0474248 0.0670995 0.0219362
464 4 0.068044 0.0586231 0.0106146
465 4 0.0268057 0.0755759 0.0332578
591 4 0.0302162 0.0814716 0.0773872
534 4 0.219657 0.037799 0.00144974
490 2 0.278576 0.0770946 0.0703608
1475 4 0.270254 0.00836854 0.0815165
296 4 0.379799 0.079632 0.0467044
295 2 0.360611 0.0656934 0.0546257
297 4 0.341424 0.0517549 0.0625471
987 4 0.425881 0.0395474 0.0151467
747 4 0.466704 0.0629606 0.00584542
2974 2 0.475121 0.0264813 0.0156568
2976 4 0.48391 0.00881644 0.0310155
2467 2 0.488563 0.0261514 0.0710144
2468 4 0.480568 0.014953 0.0501375
745 2 0.468557 0.082286 0.0216021
589 2 0.00793113 0.0905181 0.0842219
422 4 0.120502 0.138985 0.024095
421 2 0.113565 0.128569 0.00244857
565 2 0.208565 0.140178 0.0674196
566 4 0.187803 0.131762 0.0563161
567 4 0.229327 0.148595 0.0785232
492 4 0.265739 0.086025 0.050851
358 2 0.29519 0.133944 0.0465241
359 4 0.284974 0.155522 0.0539574
360 4 0.305405 0.112367 0.0390908
557 4 0.38198 0.0907267 0.0309796
556 2 0.393292 0.111004 0.0402549
558 4 0.404604 0.131282 0.0495301
665 4 0.355517 0.151416 0.0227554
746 4 0.47041 0.101611 0.0373588
771 4 0.417228 0.158771 0.0546995
554 4 0.0751741 0.250327 0.0477669
2625 4 0.00744668 0.192631 0.0914082
664 2 0.349255 0.173267 0.0123392
322 2 0.417553 0.248313 0.0731451
666 4 0.342994 0.195118 0.00192302
769 2 0.438261 0.17154 0.0591438
324 4 0.431016 0.230348 0.0621366
770 4 0.459294 0.184308 0.0635881
553 2 0.0513614 0.251819 0.0402897
555 4 0.0275487 0.25331 0.0328124
292 2 0.127758 0.301037 0.0184906
293 4 0.146711 0.301174 0.0347985
507 4 0.164572 0.292922 0.0344312
483 4 0.207487 0.293096 0.069815
505 2 0.177192 0.292834 0.056016
506 4 0.189812 0.292745 0.0776009
481 2 0.231425 0.298788 0.0653671
573 4 0.256508 0.266589 0.0633923
572 4 0.275951 0.262915 0.0174665
357 4 0.261989 0.265556 0.00451895
571 2 0.266229 0.264752 0.0404294
482 4 0.255362 0.30448 0.0609193
1071 4 0.382631 0.277201 0.0165742
1069 2 0.399898 0.294958 0.0200015
1070 4 0.417165 0.312714 0.0234288
741 4 0.374414 0.330503 0.0821428
671 4 0.460592 0.327662 0.0641154
280 2 0.448993 0.319868 0.0288771
281 4 0.444613 0.32086 0.0534742
282 4 0.453372 0.318877 0.00427997
551 4 0.053549 0.414469 0.0482684
328 2 0.0172076 0.413839 0.00853287
288 4 0.16639 0.343319 0.0303407
287 4 0.184938 0.388691 0.0402429
286 2 0.175664 0.366005 0.0352918
252 4 0.289503 0.408879 0.0401852
250 2 0.2962 0.388197 0.0278331
251 4 0.302897 0.367514 0.015481
957 4 0.347069 0.338016 0.999544
955 2 0.371778 0.3409 0.00205267
956 4 0.396488 0.343785 0.00456136
550 2 0.0758489 0.423938 0.0544527
329 4 0.0391658 0.425698 0.00698475
552 4 0.0981488 0.433406 0.060637
455 4 0.101403 0.416206 0.0696708
242 4 0.166827 0.476843 0.0518021
245 4 0.249182 0.449866 0.0464856
626 4 0.2203 0.421448 0.0759885
241 2 0.170276 0.488412 0.0736979
609 4 0.288789 0.420113 0.0560828
607 2 0.287102 0.42082 0.0810194
244 2 0.256755 0.452622 0.0228164
246 4 0.264328 0.455378 0.999147
273 4 0.31473 0.495744 0.00428474
226 2 0.481091 0.45991 0.0660981
563 4 0.45842 0.485929 0.0497187
228 4 0.475451 0.474731 0.0467659
1666 2 0.0837564 0.0385379 0.099572
1668 4 0.0710276 0.0175697 0.104419
19 3 0.0638736 0.0445739 0.150289
20 3 0.0506312 0.0776385 0.162497
701 4 0.0902739 0.0773147 0.0889283
1667 4 0.0964852 0.059506 0.094725
450 4 0.164383 0.0475952 0.143273
448 2 0.173821 0.0686605 0.133663
652 2 0.307444 0.0208551 0.149931
653 4 0.329484 0.0305708 0.143222
491 4 0.291413 0.0681643 0.0898705
654 4 0.285404 0.0111394 0.15664
1761 4 0.451087 0.00389966 0.12935
1759 2 0.471582 0.0154391 0.137833
1760 4 0.492078 0.0269785 0.146316
2724 4 0.491779 0.0453022 0.150826
2722 2 0.494562 0.0666055 0.138035
310 2 0.422663 0.084885 0.15608
2744 4 0.493193 0.0336229 0.165675
700 2 0.0926227 0.0982252 0.102434
702 4 0.0949716 0.119136 0.115941
476 4 0.141205 0.156426 0.139088
475 2 0.121813 0.157337 0.154846
477 4 0.102421 0.158248 0.170604
237 4 0.189073 0.146838 0.152095
449 4 0.18326 0.0897257 0.124053
235 2 0.193141 0.123485 0.144142
236 4 0.197209 0.100132 0.136189
582 4 0.297257 0.0959834 0.133698
580 2 0.286852 0.109519 0.151966
312 4 0.41745 0.0952857 0.133948
629 4 0.408161 0.143609 0.131456
628 2 0.41478 0.166562 0.124072
2723 4 0.497345 0.0879088 0.125244
337 2 0.0751755 0.23504 0.139157
339 4 0.0737749 0.23611 0.114215
338 4 0.0765762 0.233969 0.164098
737 4 0.174892 0.198094 0.112473
736 2 0.196761 0.187174 0.107214
738 4 0.218631 0.176255 0.101954
277 2 0.241804 0.244192 0.161089
461 4 0.30337 0.224094 0.0922598
460 2 0.327964 0.226514 0.0884565
354 4 0.283769 0.227784 0.0903641
352 2 0.276459 0.236586 0.112596
284 4 0.278354 0.234007 0.147209
353 4 0.26915 0.245387 0.134829
278 4 0.264501 0.247585 0.151164
283 2 0.293023 0.221567 0.163186
255 4 0.362495 0.220939 0.0986334
462 4 0.352558 0.228934 0.0846531
254 4 0.402365 0.191801 0.106509
253 2 0.38243 0.20637 0.102571
765 4 0.390263 0.23017 0.16567
630 4 0.4214 0.189515 0.116687
518 4 0.479627 0.225699 0.105904
536 4 0.215417 0.316851 0.143419
754 2 0.272102 0.286705 0.143822
755 4 0.263644 0.263483 0.140029
756 4 0.280559 0.309927 0.147615
612 4 0.288968 0.32198 0.161625
323 4 0.40409 0.266278 0.0841535
624 4 0.394607 0.253611 0.141546
622 2 0.381984 0.274729 0.137088
623 4 0.369362 0.295847 0.132629
670 2 0.453628 0.322792 0.0876303
672 4 0.446663 0.317921 0.111145
528 4 0.46729 0.26654 0.150073
621 4 0.0352411 0.344757 0.0975176
619 2 0.0172046 0.358418 0.10816
620 4 0.999168 0.372078 0.118803
647 4 0.052261 0.357569 0.151724
454 2 0.11351 0.401176 0.0855671
456 4 0.125618 0.386146 0.101464
535 2 0.203663 0.336857 0.152736
537 4 0.191909 0.356862 0.162052
302 4 0.304637 0.386195 0.154336
387 4 0.314435 0.400081 0.141385
739 2 0.36481 0.351794 0.0910673
740 4 0.355206 0.373085 0.0999917
15 3 0.370599 0.370628 0.129217
385 2 0.334029 0.388564 0.130965
386 4 0.353624 0.377046 0.120544
11 1 0.391527 0.369395 0.138113
13 3 0.392686 0.382199 0.157429
12 3 0.396232 0.347508 0.143405
14 3 0.407145 0.376904 0.122682
495 4 0.425246 0.386541 0.120157
493 2 0.427573 0.409741 0.129186
596 4 0.498617 0.401224 0.170165
315 4 0.0355607 0.454159 0.0949089
313 2 0.02326 0.45462 0.116673
314 4 0.0109594 0.455081 0.138436
625 2 0.229272 0.442384 0.0863014
627 4 0.238244 0.46332 0.0966143
608 4 0.285415 0.421527 0.105956
638 4 0.257988 0.487145 0.158181
523 2 0.338666 0.49401 0.116503
525 4 0.345278 0.471747 0.125767
658 2 0.375143 0.455061 0.15661
659 4 0.365468 0.439808 0.139321
227 4 0.486731 0.44509 0.0854303
494 4 0.429899 0.432941 0.138215
17 3 0.0402106 0.046066 0.179452
2480 4 0.0238845 0.044014 0.182223
16 1 0.0575398 0.0569033 0.168898
18 3 0.0753593 0.0586991 0.18365
1422 4 0.00874946 0.0311458 0.188484
1420 2 0.0150469 0.00937489 0.199046
2479 2 0.00487346 0.0601989 0.180877
673 2 0.119709 0.0338262 0.239543
674 4 0.132866 0.0439029 0.220821
689 4 0.190515 0.0279772 0.210521
688 2 0.187741 0.024864 0.235174
692 4 0.223669 0.0862698 0.220948
21 1 0.366539 0.0322598 0.230455
23 3 0.370665 0.0224168 0.251058
24 3 0.343674 0.0344125 0.227142
25 3 0.375642 0.0196193 0.213842
759 4 0.38402 0.0408089 0.213027
22 3 0.376098 0.0531809 0.230161
757 2 0.399581 0.0492743 0.195381
758 4 0.415143 0.0577398 0.177736
742 2 0.464599 0.0594965 0.219208
744 4 0.465756 0.0366935 0.229399
311 4 0.427876 0.0744843 0.178212
379 2 0.0037889 0.155656 0.174805
381 4 0.0147544 0.159072 0.197015
577 2 0.0920295 0.0970743 0.226325
578 4 0.0782156 0.0891797 0.207037
579 4 0.105843 0.104969 0.245613
693 4 0.20868 0.0926523 0.173668
691 2 0.216174 0.089461 0.197308
723 4 0.233331 0.0940941 0.236545
581 4 0.276448 0.123054 0.170234
30 3 0.293942 0.155165 0.247807
28 3 0.285716 0.118432 0.247024
27 3 0.31851 0.13094 0.233579
333 4 0.412497 0.132652 0.256184
743 4 0.463443 0.0822995 0.209016
363 4 0.0723434 0.232827 0.183934
511 2 0.0269734 0.176381 0.221071
512 4 0.00961906 0.177312 0.203095
394 2 0.019914 0.245719 0.224207
513 4 0.0443278 0.17545 0.239047
395 4 0.0123967 0.249393 0.200645
396 4 0.0274312 0.242044 0.247769
361 2 0.0861828 0.247358 0.19885
279 4 0.219107 0.240799 0.171014
285 4 0.307692 0.209128 0.179163
764 4 0.348157 0.211448 0.185094
763 2 0.36921 0.220809 0.175382
520 2 0.474633 0.208795 0.20978
521 4 0.454301 0.194785 0.205843
522 4 0.494965 0.222806 0.213717
527 4 0.499323 0.248319 0.183876
371 4 0.162857 0.260282 0.222883
370 2 0.139482 0.256457 0.214873
372 4 0.116107 0.252632 0.206863
748 2 0.0974172 0.294536 0.241336
362 4 0.100022 0.26189 0.213766
749 4 0.100845 0.280061 0.221239
345 4 0.241817 0.325706 0.246705
343 2 0.252368 0.303698 0.241272
344 4 0.262918 0.28169 0.23584
307 2 0.312862 0.287568 0.249728
308 4 0.306229 0.272185 0.231166
610 2 0.277571 0.332246 0.181371
526 2 0.483306 0.25743 0.166974
646 2 0.0721266 0.355973 0.166823
262 2 0.0338466 0.410213 0.233809
648 4 0.0919922 0.354377 0.181923
300 4 0.10294 0.33533 0.247367
298 2 0.118962 0.354525 0.247489
417 4 0.137121 0.392806 0.185031
415 2 0.158683 0.40033 0.195213
299 4 0.134984 0.37372 0.247612
416 4 0.180244 0.407853 0.205395
291 4 0.198875 0.412437 0.210302
611 4 0.266174 0.342512 0.201117
303 4 0.314211 0.380325 0.203066
301 2 0.309424 0.38326 0.178701
729 4 0.326234 0.388709 0.215809
727 2 0.33693 0.373686 0.232694
595 2 0.478101 0.388154 0.175946
597 4 0.457584 0.375083 0.181727
643 2 0.430868 0.374691 0.205685
644 4 0.422415 0.368084 0.228269
645 4 0.439321 0.381299 0.1831
447 4 0.426889 0.363802 0.247704
264 4 0.0201493 0.422884 0.217165
290 4 0.24676 0.426762 0.211882
289 2 0.222818 0.419599 0.211092
767 4 0.253155 0.48444 0.177777
768 4 0.250257 0.446415 0.210125
766 2 0.251706 0.465428 0.193951
660 4 0.384818 0.470314 0.173899
110 3 0.503782 0.429633 0.201963
1568 4 0.487426 0.491386 0.213346
1567 2 0.487705 0.501224 0.190361
232 2 0.0184415 0.0315018 0.292106
233 4 0.0356383 0.0152219 0.28408
1402 2 0.0776315 0.0188186 0.276896
1404 4 0.0527668 0.0212744 0.277844
675 4 0.106551 0.0237494 0.258265
1403 4 0.102496 0.0163628 0.275949
1464 4 0.11817 0.00809379 0.287613
690 4 0.184967 0.0217508 0.259828
1701 4 0.225539 0.0294924 0.314252
1699 2 0.249316 0.0371417 0.315402
1700 4 0.273093 0.0447911 0.316552
478 2 0.490133 0.0414473 0.306662
480 4 0.477019 0.0535097 0.289121
351 4 0.466637 0.0680834 0.279539
731 4 0.109115 0.0849116 0.303372
730 2 0.102442 0.0986412 0.323175
392 4 0.113083 0.16474 0.269176
721 2 0.223209 0.0982457 0.259028
722 4 0.213087 0.102397 0.281511
249 4 0.209117 0.118004 0.291307
247 2 0.212861 0.114757 0.315814
403 2 0.216575 0.156164 0.277962
404 4 0.210018 0.138938 0.294857
600 4 0.181564 0.149588 0.334589
26 1 0.302536 0.134171 0.249813
29 3 0.312401 0.131613 0.270658
632 4 0.389014 0.110095 0.286
631 2 0.370833 0.127011 0.283088
633 4 0.352652 0.143927 0.280177
706 2 0.335637 0.165685 0.317913
349 2 0.44669 0.0829223 0.282198
350 4 0.426742 0.0977613 0.284857
331 2 0.432405 0.147157 0.260482
332 4 0.452313 0.161661 0.26478
762 4 0.471385 0.161902 0.269351
531 4 0.0105915 0.164556 0.251725
443 4 0.0105759 0.234114 0.257623
393 4 0.0815929 0.201483 0.256566
546 4 0.16252 0.170892 0.261937
391 2 0.0973381 0.183112 0.262871
544 2 0.167676 0.185836 0.28131
545 4 0.172831 0.200779 0.300682
405 4 0.223133 0.17339 0.261066
707 4 0.333097 0.173652 0.29435
420 4 0.407983 0.238568 0.324301
418 2 0.430364 0.227752 0.321603
761 4 0.496125 0.204107 0.279711
760 2 0.483755 0.183005 0.274531
419 4 0.452745 0.216936 0.318904
750 4 0.0939889 0.309011 0.261433
390 4 0.10991 0.264424 0.317295
400 2 0.191334 0.287327 0.290255
402 4 0.210285 0.285303 0.306439
401 4 0.172383 0.28935 0.27407
309 4 0.319495 0.302951 0.26829
496 2 0.306822 0.305608 0.302449
497 4 0.298605 0.294026 0.323028
498 4 0.315038 0.317191 0.28187
543 4 0.401545 0.301783 0.318329
615 4 0.382691 0.31308 0.315345
613 2 0.359786 0.321387 0.320959
614 4 0.336881 0.329694 0.326573
541 2 0.426076 0.298796 0.314526
542 4 0.450608 0.29581 0.310722
263 4 0.0475438 0.397542 0.250452
366 4 0.000689358 0.364101 0.294182
364 2 0.0230847 0.353464 0.297422
365 4 0.04548 0.342828 0.300662
602 4 0.0692185 0.406422 0.306203
601 2 0.0721402 0.381799 0.30299
603 4 0.075062 0.357175 0.299777
734 4 0.15217 0.373612 0.256679
733 2 0.162341 0.366951 0.278528
510 4 0.242307 0.326836 0.312679
677 4 0.1912 0.365103 0.308414
735 4 0.172512 0.36029 0.300376
433 2 0.315128 0.368208 0.327605
435 4 0.301963 0.389402 0.329238
434 4 0.328293 0.347014 0.325971
728 4 0.347626 0.358664 0.249579
445 2 0.44314 0.363649 0.266706
446 4 0.459391 0.363497 0.285708
1757 4 0.0655134 0.48225 0.266384
549 4 0.0748989 0.419556 0.319149
777 4 0.0840715 0.469854 0.295734
775 2 0.0874377 0.48302 0.316722
414 4 0.178655 0.488849 0.298845
412 2 0.190309 0.470074 0.310544
413 4 0.201963 0.451299 0.322242
436 2 0.327504 0.454368 0.29905
437 4 0.320069 0.438939 0.280834
438 4 0.334938 0.469798 0.317267
119 3 0.498133 0.43505 0.321677
713 4 0.438208 0.46695 0.32386
712 2 0.45995 0.454812 0.321594
714 4 0.481692 0.442675 0.319328
316 2 0.0480385 0.0707912 0.340401
317 4 0.028646 0.0581229 0.349815
318 4 0.067431 0.0834595 0.330987
428 4 0.0721539 0.0310702 0.361192
1781 4 0.106057 0.00574663 0.405938
606 4 0.141819 0.0776003 0.360565
429 4 0.115547 0.0517944 0.347471
427 2 0.0938504 0.0414323 0.354331
604 2 0.166462 0.0813977 0.362429
605 4 0.191105 0.0851951 0.364293
683 4 0.304432 0.0487999 0.378768
682 2 0.295213 0.0694085 0.389513
699 4 0.35008 0.0597108 0.336529
257 4 0.41526 0.0457673 0.340498
698 4 0.400047 0.0588083 0.338339
697 2 0.375064 0.0592595 0.337434
256 2 0.436394 0.0591142 0.339873
258 4 0.457528 0.0724611 0.339249
398 4 0.0413686 0.124558 0.35353
397 2 0.0660393 0.128091 0.351518
732 4 0.095769 0.112371 0.342978
399 4 0.09071 0.131625 0.349506
248 4 0.216605 0.11151 0.340322
598 2 0.183259 0.147231 0.359423
599 4 0.184953 0.144873 0.384258
684 4 0.285994 0.0900171 0.400259
320 4 0.295214 0.10725 0.395195
319 2 0.279481 0.119563 0.410231
708 4 0.338178 0.157718 0.341477
2879 4 0.483148 0.090233 0.414612
452 4 0.485552 0.121486 0.407121
451 2 0.463536 0.132785 0.403548
453 4 0.441519 0.144085 0.399975
515 4 0.426822 0.154138 0.407082
260 4 0.0789032 0.193915 0.404194
459 4 0.0279207 0.180096 0.411901
389 4 0.0997399 0.233379 0.355156
388 2 0.104825 0.248901 0.336225
474 4 0.234019 0.224498 0.373275
276 4 0.220166 0.234025 0.384656
472 2 0.237699 0.200217 0.368576
473 4 0.241378 0.175936 0.363878
715 2 0.375654 0.21714 0.369035
716 4 0.37012 0.199105 0.385445
717 4 0.381189 0.235175 0.352625
467 4 0.382606 0.194103 0.400619
270 4 0.463645 0.232772 0.407171
347 4 0.0528756 0.326332 0.393657
346 2 0.0446821 0.30726 0.407598
274 2 0.216722 0.256914 0.375202
275 4 0.213278 0.279804 0.365748
373 2 0.184729 0.333184 0.390503
374 4 0.188763 0.322464 0.412729
376 2 0.296202 0.279663 0.358052
377 4 0.309808 0.288428 0.338993
378 4 0.282596 0.270898 0.377111
269 4 0.500887 0.265346 0.399918
268 2 0.482266 0.249059 0.403544
618 4 0.0497201 0.334296 0.37566
616 2 0.0689492 0.333891 0.359684
617 4 0.0881782 0.333486 0.343707
508 2 0.242347 0.337535 0.335278
375 4 0.180695 0.343904 0.368277
678 4 0.172403 0.353604 0.353305
676 2 0.181802 0.359354 0.330859
509 4 0.242387 0.348235 0.357876
502 2 0.241192 0.405608 0.410858
503 4 0.264497 0.412225 0.404672
336 4 0.332896 0.366882 0.385654
334 2 0.352566 0.369535 0.40086
335 4 0.372235 0.372188 0.416067
561 4 0.482248 0.400143 0.380174
752 4 0.471805 0.413876 0.370023
751 2 0.449783 0.411252 0.38157
753 4 0.427761 0.408628 0.393116
407 4 0.0709348 0.416198 0.377391
406 2 0.0774246 0.422392 0.400729
547 2 0.0791057 0.424231 0.343349
548 4 0.0833125 0.428906 0.367549
570 4 0.165113 0.493075 0.398401
776 4 0.0908038 0.496187 0.337709
568 2 0.152666 0.478741 0.414673
1555 2 0.24491 0.493621 0.412431
2 3 0.322272 0.497155 0.351599
5 3 0.304498 0.464501 0.354865
1 1 0.324939 0.474542 0.354863
4 3 0.335454 0.471096 0.375259
1557 4 0.248966 0.469634 0.418207
3 3 0.33797 0.465968 0.337685
594 4 0.394715 0.462537 0.357956
592 2 0.397168 0.48674 0.36373
2237 4 0.0298654 0.0190306 0.479364
718 2 0.051684 0.0553645 0.487492
720 4 0.0455547 0.0316317 0.482556
2236 2 0.0221128 0.00472426 0.498349
719 4 0.0578134 0.0790974 0.492428
367 2 0.116373 0.0229643 0.44322
369 4 0.116394 0.0294458 0.467369
368 4 0.116352 0.0164827 0.419071
2430 4 0.210223 0.0204162 0.506017
341 4 0.207189 0.0397981 0.500918
441 4 0.276868 0.0350588 0.435935
439 2 0.286698 0.0136405 0.427579
962 4 0.283246 0.0324595 0.454547
961 2 0.28734 0.0450273 0.475771
963 4 0.291434 0.0575951 0.496995
426 4 0.397745 0.00530708 0.416565
424 2 0.390542 0.025826 0.428905
425 4 0.383339 0.0463448 0.441245
725 4 0.382182 0.0825984 0.450035
2586 4 0.00452772 0.118041 0.427508
458 4 0.00413605 0.136979 0.420614
457 2 0.0160284 0.158538 0.416258
471 4 0.0371948 0.158048 0.47237
686 4 0.17652 0.159943 0.421482
1181 4 0.281868 0.105367 0.484547
1182 4 0.266677 0.150699 0.469883
1180 2 0.274273 0.128033 0.477215
321 4 0.263749 0.131876 0.425266
726 4 0.333761 0.088503 0.439023
724 2 0.357971 0.0855507 0.444529
576 4 0.391711 0.158529 0.496486
2878 2 0.490411 0.0874406 0.438374
642 4 0.489995 0.096556 0.47517
2880 4 0.497673 0.0846481 0.462136
640 2 0.476062 0.101021 0.495446
469 2 0.0360084 0.182998 0.47349
470 4 0.034822 0.207949 0.474611
695 4 0.0849096 0.239158 0.467187
685 2 0.154366 0.168378 0.429433
687 4 0.132213 0.176814 0.437385
261 4 0.115564 0.187511 0.437596
259 2 0.0972336 0.190713 0.420895
1035 4 0.123146 0.202226 0.450284
1033 2 0.12865 0.193743 0.473152
1034 4 0.134153 0.18526 0.496019
857 4 0.209691 0.230963 0.495333
488 4 0.261229 0.216822 0.429025
487 2 0.278596 0.225541 0.44476
489 4 0.295962 0.23426 0.460494
411 4 0.310876 0.221791 0.46924
409 2 0.325384 0.203302 0.460705
466 2 0.370082 0.189064 0.421665
574 2 0.400316 0.17488 0.47964
410 4 0.339892 0.184813 0.452169
468 4 0.357558 0.184025 0.442711
575 4 0.40892 0.191231 0.462794
516 4 0.415975 0.183923 0.445759
514 2 0.421398 0.16903 0.426421
304 2 0.49022 0.192901 0.421942
305 4 0.482504 0.199991 0.444645
348 4 0.0364887 0.288189 0.421538
694 2 0.1012 0.257344 0.472577
696 4 0.11749 0.275531 0.477967
9 3 0.15192 0.309626 0.484787
327 4 0.124999 0.330941 0.467938
1260 4 0.131586 0.277306 0.492031
651 4 0.240112 0.283559 0.490982
649 2 0.259245 0.292229 0.47742
650 4 0.278378 0.3009 0.463858
266 4 0.340808 0.289116 0.444892
267 4 0.386506 0.277957 0.461859
265 2 0.363657 0.283536 0.453375
812 4 0.336004 0.336261 0.484769
583 2 0.465229 0.269726 0.462008
584 4 0.485556 0.263886 0.475346
585 4 0.444903 0.275566 0.44867
2845 2 0.000636845 0.33366 0.481674
2846 4 0.0196663 0.349571 0.478527
681 4 0.0186576 0.401653 0.438446
326 4 0.10368 0.349894 0.426865
325 2 0.11434 0.340418 0.447401
384 4 0.101876 0.405412 0.475798
6 1 0.155717 0.332516 0.484897
7 3 0.136138 0.343328 0.479519
10 3 0.171677 0.33782 0.469542
711 4 0.167382 0.375552 0.455005
504 4 0.217887 0.398992 0.417043
709 2 0.185691 0.387036 0.442432
710 4 0.204 0.39852 0.429859
772 2 0.265846 0.415406 0.486952
804 4 0.272216 0.354577 0.494126
238 2 0.388379 0.369785 0.4525
240 4 0.384409 0.363695 0.428577
239 4 0.39235 0.375876 0.476424
587 4 0.421006 0.416607 0.422567
3309 4 0.484651 0.394662 0.489833
3307 2 0.500112 0.37636 0.496988
680 4 0.0294143 0.450437 0.436187
1381 2 0.0123428 0.481906 0.442168
1383 4 0.0120078 0.458961 0.432239
679 2 0.0240359 0.426045 0.437317
539 4 0.0698459 0.459829 0.497901
569 4 0.140219 0.464407 0.430945
383 4 0.0885406 0.439404 0.441631
382 2 0.0952085 0.422408 0.458715
408 4 0.0839144 0.428587 0.424068
634 2 0.247424 0.455504 0.453165
636 4 0.242272 0.47344 0.436524
668 4 0.321097 0.428433 0.423605
635 4 0.252577 0.437567 0.469806
774 4 0.269986 0.426815 0.465092
669 4 0.280015 0.420014 0.450846
667 2 0.300556 0.424223 0.437226
880 2 0.338811 0.483583 0.487021
882 4 0.34036 0.459389 0.493136
1401 4 0.361588 0.490275 0.419584
588 4 0.398948 0.437303 0.462389
586 2 0.409977 0.426955 0.442478
1126 2 0.0202148 0.0522847 0.558422
1127 4 0.0383185 0.040628 0.545711
1128 4 0.0021112 0.0639415 0.571132
1058 4 0.140418 0.0604321 0.580397
1031 4 0.226112 0.0819019 0.551262
340 2 0.195923 0.0621063 0.501691
432 4 0.301488 0.0474958 0.511029
430 2 0.321503 0.0602556 0.518887
951 4 0.267655 0.0389759 0.582416
1217 4 0.402724 0.0451206 0.539835
1216 2 0.407794 0.024411 0.552896
841 2 0.382679 0.063446 0.524089
842 4 0.403929 0.0508115 0.520349
843 4 0.361429 0.0760805 0.527828
431 4 0.341519 0.0730154 0.526744
3008 4 0.496325 0.0749439 0.56171
938 4 0.075781 0.129607 0.559721
937 2 0.100466 0.133113 0.561607
939 4 0.12515 0.136618 0.563492
1059 4 0.133806 0.109733 0.575261
1057 2 0.137112 0.0850828 0.577829
1153 2 0.155059 0.147205 0.58266
1155 4 0.137846 0.129762 0.577697
342 4 0.184656 0.0844145 0.502464
1030 2 0.23877 0.0960326 0.56755
1152 4 0.184502 0.0923897 0.521239
1151 4 0.192632 0.133981 0.547787
1150 2 0.188567 0.113185 0.534513
899 4 0.313831 0.14284 0.5458
1032 4 0.251427 0.110163 0.583837
641 4 0.462129 0.105486 0.515722
3159 4 0.488592 0.15352 0.54036
877 2 0.0528051 0.209693 0.576897
878 4 0.0306925 0.202107 0.585766
1199 4 0.0204362 0.212094 0.571159
879 4 0.0749177 0.21728 0.568028
1272 4 0.0940673 0.227006 0.566683
1270 2 0.111307 0.236451 0.582135
856 2 0.219811 0.225861 0.517621
858 4 0.229931 0.220758 0.539908
898 2 0.316345 0.167649 0.543967
900 4 0.318859 0.192458 0.542133
1258 2 0.137483 0.289063 0.513295
1259 4 0.143381 0.300821 0.534559
813 4 0.346348 0.324377 0.53223
872 4 0.383416 0.267849 0.540586
811 2 0.341176 0.330319 0.5085
871 2 0.369423 0.288564 0.540053
873 4 0.355429 0.309278 0.53952
983 4 0.0322255 0.333384 0.536186
982 2 0.0282412 0.335291 0.560797
8 3 0.162485 0.339321 0.506023
1189 2 0.227599 0.376786 0.56955
1191 4 0.206794 0.385373 0.580438
1190 4 0.248405 0.368199 0.558661
803 4 0.255254 0.36934 0.538792
802 2 0.263735 0.361958 0.516459
928 2 0.326739 0.378722 0.569788
773 4 0.261706 0.403997 0.508813
929 4 0.332087 0.390293 0.548278
925 2 0.432315 0.373466 0.536687
927 4 0.443231 0.385644 0.555601
926 4 0.421399 0.361288 0.517774
1161 4 0.170833 0.467862 0.549299
1159 2 0.15798 0.470444 0.57059
540 4 0.0928917 0.501964 0.511836
538 2 0.0813688 0.480896 0.504868
1171 2 0.229331 0.435269 0.579419
1172 4 0.242211 0.414774 0.573155
1951 2 0.355385 0.492038 0.58342
1911 4 0.448299 0.483107 0.53769
1332 4 0.482064 0.483063 0.505921
663 4 0.431311 0.443475 0.509103
1002 4 0.422424 0.457221 0.574746
662 4 0.462358 0.481658 0.500223
661 2 0.446835 0.462567 0.504663
823 2 0.146539 0.00440197 0.636152
825 4 0.132445 0.0250252 0.637256
1284 4 0.212487 0.0741959 0.648471
949 2 0.281066 0.0382753 0.603507
950 4 0.294477 0.0375747 0.624598
809 4 0.454568 0.0699635 0.610309
1082 4 0.0602254 0.0904484 0.655304
1083 4 0.0236714 0.0976508 0.621948
1081 2 0.0419484 0.0940496 0.638626
1283 4 0.173263 0.104192 0.640569
1282 2 0.192875 0.089194 0.64452
808 2 0.456682 0.0873067 0.628195
810 4 0.458796 0.10465 0.646082
45 3 0.448227 0.0995362 0.662253
852 4 0.0555563 0.184646 0.658442
1271 4 0.128546 0.245896 0.597587
1209 4 0.129278 0.246603 0.662674
1154 4 0.172272 0.164648 0.587623
1221 4 0.189398 0.175177 0.588489
1210 2 0.247176 0.174856 0.647974
1212 4 0.230575 0.174085 0.629292
1219 2 0.202899 0.182229 0.608317
1220 4 0.2164 0.189282 0.628145
791 4 0.287931 0.243891 0.592911
1193 4 0.368475 0.199023 0.659628
1025 4 0.44623 0.204087 0.660478
1244 4 0.0614279 0.247994 0.594857
1243 2 0.0466129 0.267786 0.598594
1245 4 0.0317978 0.287579 0.602331
1136 4 0.106715 0.329762 0.607336
948 4 0.149299 0.286194 0.60853
797 4 0.242987 0.263844 0.588276
796 2 0.219251 0.256945 0.592037
798 4 0.195514 0.250046 0.595798
947 4 0.188062 0.255151 0.614399
946 2 0.16868 0.270673 0.611464
792 4 0.292635 0.292921 0.584271
790 2 0.290283 0.268406 0.588591
1238 4 0.302899 0.30034 0.601502
1237 2 0.308077 0.324485 0.597579
805 2 0.334173 0.304613 0.664563
806 4 0.348877 0.302061 0.644501
954 4 0.405674 0.309469 0.599505
904 2 0.486426 0.256646 0.600673
906 4 0.465439 0.251204 0.588217
952 2 0.429388 0.302149 0.596467
953 4 0.453102 0.294829 0.593429
984 4 0.024257 0.337198 0.585407
3263 4 0.0118265 0.341354 0.632664
1040 4 0.08014 0.394226 0.608939
1039 2 0.0558227 0.394266 0.614756
1041 4 0.0315054 0.394306 0.620574
3264 4 0.0123432 0.390985 0.626564
3262 2 0.0120849 0.36617 0.629614
993 4 0.0947331 0.406461 0.602122
1137 4 0.146179 0.360449 0.608586
897 4 0.155564 0.377163 0.612353
1135 2 0.126447 0.345105 0.607961
991 2 0.117751 0.398844 0.608233
992 4 0.140769 0.391227 0.614345
896 4 0.202126 0.371321 0.595074
895 2 0.178845 0.374242 0.603714
1029 4 0.23721 0.366735 0.660372
1239 4 0.313256 0.34863 0.593656
930 4 0.321391 0.367151 0.591298
1204 2 0.403969 0.386937 0.636381
1206 4 0.387984 0.393844 0.618438
1205 4 0.419954 0.380031 0.654324
1160 4 0.145127 0.473025 0.591881
1173 4 0.21645 0.455763 0.585683
1187 4 0.21251 0.471589 0.596867
1186 2 0.219382 0.495434 0.599933
889 2 0.320771 0.475215 0.625184
891 4 0.301106 0.476108 0.6406
1952 4 0.339284 0.474247 0.590449
890 4 0.340437 0.474322 0.609768
1230 4 0.365633 0.444216 0.657373
1001 4 0.465724 0.456396 0.599749
1000 2 0.444074 0.456809 0.587248
1269 4 0.451049 0.456505 0.643971
1267 2 0.466981 0.47264 0.654507
1268 4 0.482913 0.488775 0.665044
944 4 0.0551353 0.0771134 0.681641
943 2 0.0521265 0.0573577 0.696669
945 4 0.0491177 0.0376021 0.711697
1147 2 0.212625 0.0604891 0.736587
1149 4 0.221676 0.0450624 0.754059
1148 4 0.203573 0.0759158 0.719115
1004 4 0.371251 0.0562593 0.675399
1003 2 0.361789 0.0686333 0.694957
1005 4 0.352327 0.0810073 0.714516
1163 4 0.46185 0.0525433 0.683101
1162 2 0.48685 0.0529048 0.683164
42 3 0.454217 0.0703019 0.684667
2320 2 0.481046 0.0171672 0.746212
2321 4 0.498277 0.00179573 0.736621
1076 4 0.0610619 0.0952793 0.67442
862 2 0.0283452 0.118555 0.738658
864 4 0.0358639 0.134992 0.721382
1075 2 0.0542145 0.114315 0.689115
1077 4 0.0473672 0.133351 0.703809
1107 4 0.0439534 0.15637 0.721968
908 4 0.183853 0.146198 0.700062
907 2 0.166786 0.159048 0.68707
1227 4 0.183274 0.133203 0.716227
1225 2 0.194919 0.112229 0.723276
1226 4 0.206564 0.0912557 0.730325
829 2 0.329208 0.165187 0.722323
831 4 0.347679 0.163949 0.739129
43 3 0.425262 0.0932914 0.69143
41 1 0.447138 0.0921707 0.683775
44 3 0.460921 0.105072 0.697265
3425 4 0.477725 0.109674 0.687139
3424 2 0.501464 0.117504 0.687715
851 4 0.0516047 0.167912 0.705401
850 2 0.0535805 0.176279 0.681921
1213 2 0.00434433 0.213978 0.744962
1105 2 0.0573015 0.168274 0.73944
1177 2 0.0168233 0.236448 0.696689
909 4 0.149719 0.171898 0.674078
1130 4 0.178684 0.187601 0.746146
830 4 0.310737 0.166426 0.705516
1211 4 0.263776 0.175627 0.666655
886 2 0.295072 0.179487 0.67725
888 4 0.2758 0.192199 0.667649
887 4 0.314345 0.166775 0.68685
1194 4 0.328198 0.173907 0.675364
976 2 0.285224 0.202746 0.744279
978 4 0.265901 0.187148 0.741361
977 4 0.304546 0.218344 0.747197
1298 4 0.321584 0.227791 0.749553
1192 2 0.348337 0.186465 0.667496
1262 4 0.416425 0.251014 0.735253
1142 4 0.440721 0.199255 0.716353
1024 2 0.441605 0.210109 0.684301
1141 2 0.440265 0.18487 0.736799
1026 4 0.436981 0.21613 0.708124
1261 2 0.440745 0.24537 0.736624
1263 4 0.465065 0.239727 0.737994
1179 4 0.0312436 0.255669 0.689777
1207 2 0.110698 0.255514 0.676836
1208 4 0.092118 0.264425 0.690997
820 2 0.170793 0.294182 0.704818
822 4 0.175227 0.269906 0.700795
821 4 0.16636 0.318459 0.708841
1065 4 0.242338 0.2672 0.704548
1063 2 0.251415 0.283661 0.688062
1064 4 0.260492 0.300123 0.671575
807 4 0.31947 0.307164 0.684625
1008 4 0.389701 0.30507 0.736769
3123 4 0.477709 0.262125 0.690484
892 2 0.0280785 0.368003 0.710207
893 4 0.0114041 0.353874 0.722353
894 4 0.0447529 0.382132 0.698061
1280 4 0.0625824 0.391073 0.6958
1279 2 0.0617907 0.414094 0.705526
940 2 0.132368 0.38385 0.736976
941 4 0.156572 0.378785 0.733276
815 4 0.101428 0.370301 0.743528
942 4 0.108164 0.388914 0.740677
1067 4 0.173529 0.387998 0.738421
1028 4 0.19432 0.387257 0.675866
1066 2 0.186091 0.389672 0.716868
1068 4 0.198653 0.391347 0.695314
1027 2 0.215765 0.376996 0.668119
1019 4 0.372137 0.355702 0.74976
1981 2 0.0496183 0.467584 0.73331
1281 4 0.0609989 0.437115 0.715251
1983 4 0.0676751 0.451983 0.725844
1982 4 0.0315615 0.483185 0.740776
1139 4 0.279921 0.447597 0.71704
1138 2 0.284477 0.436841 0.694933
1140 4 0.289033 0.426084 0.672826
1987 2 0.329235 0.475299 0.728187
1228 2 0.359844 0.459208 0.676528
1229 4 0.354056 0.4742 0.695682
1989 4 0.339342 0.48086 0.706004
1100 4 0.402972 0.450248 0.67635
1099 2 0.420369 0.449039 0.694268
1101 4 0.437766 0.447831 0.712186
1201 2 0.123529 0.0683677 0.760548
1202 4 0.118994 0.0437913 0.759762
2049 4 0.125036 0.0245772 0.76452
2047 2 0.124451 0.00268453 0.776584
1050 4 0.326008 0.0173939 0.756376
1257 4 0.251345 0.0840833 0.798909
2322 4 0.463815 0.0325387 0.755803
1113 4 0.4224 0.0485429 0.821602
1112 4 0.44579 0.0733881 0.785046
844 2 0.480399 0.0757128 0.777958
1111 2 0.434095 0.0609655 0.803324
846 4 0.49956 0.0684965 0.763607
911 4 0.0702062 0.0851336 0.806658
863 4 0.0208266 0.102117 0.755934
832 2 0.0155656 0.0983996 0.789589
833 4 0.0318233 0.0938269 0.771151
910 2 0.0758501 0.0895349 0.830615
1203 4 0.128064 0.092944 0.761334
34 3 0.129293 0.143328 0.812957
31 1 0.11487 0.156355 0.825632
35 3 0.0948001 0.145822 0.827846
1256 4 0.292474 0.109145 0.785453
1255 2 0.271909 0.0966139 0.792181
1086 4 0.336703 0.143771 0.793168
1084 2 0.338777 0.134646 0.816355
819 4 0.35165 0.10935 0.832484
845 4 0.461238 0.082929 0.79231
1106 4 0.0706495 0.180179 0.756913
1214 4 0.0143549 0.209913 0.76751
33 3 0.111892 0.177019 0.815506
1073 4 0.126962 0.218492 0.757473
1072 2 0.1206 0.24086 0.766658
1129 2 0.190107 0.20813 0.754705
1131 4 0.20153 0.228659 0.763264
1277 4 0.1864 0.241736 0.76803
918 4 0.305586 0.23669 0.754985
1299 4 0.35689 0.205339 0.776941
1297 2 0.339237 0.216565 0.763247