ITEM: TIMESTEP
400000
ITEM: NUMBER OF ATOMS
4590
ITEM: BOX BOUNDS pp pp pp
-9.9985700000000008e+00 9.9985700000000008e+00
-9.9985700000000008e+00 9.9985700000000008e+00
-9.9985700000000008e+00 9.9985700000000008e+00
ITEM: ATOMS id type xs ys zs
463 2 0.0357859 0.0736249 0.0218674
464 4 0.0591668 0.0761892 0.0133859
465 4 0.0124049 0.0710607 0.0303488
591 4 0.0301286 0.0863261 0.0824575
534 4 0.216027 0.0502212 0.999619
490 2 0.273644 0.080093 0.0692884
492 4 0.272905 0.0786389 0.0443381
1475 4 0.269776 0.00611734 0.0672144
296 4 0.383556 0.0776339 0.0442319
295 2 0.366299 0.0604705 0.0499574
297 4 0.349042 0.0433071 0.055683
987 4 0.420538 0.0310683 0.0160753
747 4 0.480141 0.0587702 0.0135508
2975 4 0.466185 0.0448688 0.00827711
2974 2 0.473991 0.0259726 0.0226707
2976 4 0.481797 0.00707649 0.0370642
2467 2 0.498203 0.0297834 0.0715159
2468 4 0.489273 0.0124394 0.0558757
745 2 0.482546 0.0800356 0.0264805
589 2 0.0053598 0.0889764 0.080299
422 4 0.122364 0.138312 0.0163915
421 2 0.1111 0.125424 0.998165
565 2 0.217907 0.140178 0.0624763
566 4 0.20121 0.121576 0.0618902
567 4 0.234605 0.15878 0.0630624
358 2 0.279464 0.137751 0.0416833
359 4 0.270229 0.160892 0.0395869
360 4 0.288698 0.11461 0.0437797
557 4 0.372491 0.0901627 0.0346043
556 2 0.387468 0.109498 0.0398006
558 4 0.402445 0.128834 0.0449968
746 4 0.484951 0.101301 0.0394101
771 4 0.42505 0.155275 0.0420703
553 2 0.0554107 0.241452 0.0412347
555 4 0.0307199 0.241873 0.0451545
461 4 0.306203 0.225523 0.0837404
460 2 0.330331 0.219892 0.080378
664 2 0.348314 0.183597 0.00729371
665 4 0.365564 0.173549 0.0223482
769 2 0.442992 0.167602 0.054371
324 4 0.429888 0.234402 0.0667223
770 4 0.460934 0.179929 0.0666717
554 4 0.0801015 0.241031 0.0373149
292 2 0.132017 0.314851 0.0232321
293 4 0.151492 0.311361 0.0385198
507 4 0.163208 0.295898 0.0349451
294 4 0.112541 0.318341 0.00794439
483 4 0.214271 0.284892 0.0786063
505 2 0.179151 0.290676 0.0534848
506 4 0.195095 0.285454 0.0720244
481 2 0.234326 0.298308 0.0720497
573 4 0.259376 0.250094 0.063908
572 4 0.285372 0.259275 0.0221876
357 4 0.268984 0.262016 0.00892424
571 2 0.272374 0.254685 0.0430478
482 4 0.25438 0.311725 0.0654931
322 2 0.418331 0.255899 0.0721497
957 4 0.35095 0.322949 0.00388145
1071 4 0.376579 0.269904 0.0291683
1069 2 0.396469 0.282306 0.0204635
323 4 0.406773 0.277397 0.077577
671 4 0.449416 0.321356 0.0642119
280 2 0.457157 0.319799 0.0231297
281 4 0.446553 0.314521 0.0451496
1070 4 0.416359 0.294707 0.0117587
551 4 0.0543256 0.409276 0.0474355
287 4 0.175154 0.389125 0.0323597
288 4 0.173877 0.341482 0.017217
286 2 0.174515 0.365303 0.0247883
252 4 0.285788 0.400584 0.040567
250 2 0.287556 0.394147 0.0164709
609 4 0.284907 0.405991 0.0610935
607 2 0.292211 0.412387 0.0841352
955 2 0.373347 0.334062 0.00403285
741 4 0.36049 0.33924 0.0709972
956 4 0.395745 0.345176 0.00418424
328 2 0.0141175 0.421019 0.0100271
550 2 0.0758223 0.420837 0.05286
329 4 0.0249124 0.440007 0.0221961
552 4 0.097319 0.432397 0.0582844
455 4 0.103344 0.419932 0.0725765
1788 4 0.0813498 0.492382 0.0569097
242 4 0.172358 0.487159 0.0467365
245 4 0.238122 0.446903 0.0389232
244 2 0.255026 0.450033 0.0207674
246 4 0.27193 0.453163 0.00261156
271 2 0.294015 0.489136 0.00405758
226 2 0.483307 0.472701 0.0736054
563 4 0.45061 0.486562 0.0583956
228 4 0.481507 0.492637 0.0586216
1666 2 0.0774158 0.038736 0.0909066
1668 4 0.0643646 0.0175614 0.0934527
19 3 0.0574459 0.0351397 0.151473
20 3 0.0560162 0.0701144 0.165343
701 4 0.0865955 0.0786839 0.088883
1667 4 0.090467 0.0599106 0.0883605
450 4 0.157974 0.0639372 0.135177
448 2 0.17673 0.0793129 0.129094
1505 4 0.227296 0.99739 0.142634
652 2 0.313067 0.0197319 0.145495
653 4 0.328221 0.0240391 0.126079
1761 4 0.454976 0.0043513 0.126514
1759 2 0.468629 0.0209819 0.13925
1760 4 0.482282 0.0376125 0.151985
2724 4 0.496688 0.0483572 0.159539
2722 2 0.497288 0.067657 0.143654
700 2 0.0983355 0.0958658 0.102744
702 4 0.110075 0.113048 0.116606
476 4 0.140591 0.146142 0.131382
475 2 0.124576 0.159172 0.145486
237 4 0.187803 0.149083 0.151415
449 4 0.195485 0.0946886 0.12301
235 2 0.196016 0.130513 0.136824
236 4 0.204229 0.111943 0.122233
491 4 0.274383 0.081547 0.0942387
582 4 0.304288 0.0970979 0.134245
580 2 0.293531 0.107721 0.154161
312 4 0.415414 0.0937517 0.139951
629 4 0.412496 0.143023 0.139375
310 2 0.42685 0.0802592 0.157625
628 2 0.415648 0.161792 0.123159
337 2 0.0816859 0.245921 0.136747
339 4 0.0756107 0.255219 0.114346
477 4 0.108561 0.172202 0.15959
338 4 0.087761 0.236622 0.159148
737 4 0.176909 0.187248 0.11747
736 2 0.201846 0.188713 0.118571
738 4 0.226782 0.190178 0.119673
277 2 0.240856 0.246189 0.163597
354 4 0.265211 0.228303 0.0918951
352 2 0.268593 0.235607 0.115568
284 4 0.281038 0.233442 0.152624
353 4 0.271975 0.24291 0.139241
278 4 0.263942 0.245278 0.154037
283 2 0.290902 0.213817 0.164571
255 4 0.362179 0.217722 0.0952194
462 4 0.35446 0.214262 0.0770156
254 4 0.4029 0.189066 0.0998383
253 2 0.382539 0.203394 0.0975288
624 4 0.395818 0.246634 0.141925
630 4 0.4188 0.180561 0.106942
518 4 0.483641 0.235444 0.103351
536 4 0.21247 0.319774 0.143279
754 2 0.267707 0.28572 0.137719
755 4 0.265199 0.261136 0.141533
756 4 0.270214 0.310303 0.133904
612 4 0.265937 0.320333 0.151091
622 2 0.383353 0.267891 0.13769
623 4 0.370888 0.289148 0.133455
670 2 0.454166 0.319781 0.0887097
672 4 0.458915 0.318206 0.113207
526 2 0.487615 0.26174 0.166491
621 4 0.0443866 0.340227 0.0903675
619 2 0.0274203 0.357441 0.0967701
620 4 0.0104541 0.374655 0.103173
647 4 0.0541592 0.360869 0.153649
646 2 0.0745892 0.353891 0.166262
454 2 0.114612 0.403202 0.087351
456 4 0.125881 0.386471 0.102126
535 2 0.199138 0.3372 0.15527
537 4 0.185807 0.354627 0.16726
302 4 0.315712 0.387877 0.159378
387 4 0.323969 0.398784 0.145467
608 4 0.299515 0.418783 0.107177
739 2 0.361311 0.359218 0.0860097
740 4 0.362132 0.379197 0.101022
15 3 0.374601 0.361654 0.121318
385 2 0.343996 0.388702 0.134403
386 4 0.364024 0.37862 0.123339
11 1 0.393329 0.361646 0.134276
13 3 0.387587 0.365096 0.156492
12 3 0.40384 0.341272 0.132389
14 3 0.407874 0.378275 0.12718
495 4 0.424231 0.384049 0.140273
493 2 0.427366 0.408556 0.136434
315 4 0.045436 0.440553 0.100656
313 2 0.0268362 0.450716 0.113921
314 4 0.00823647 0.460878 0.127185
626 4 0.232304 0.423119 0.0886067
625 2 0.238784 0.447215 0.0902144
627 4 0.245263 0.47131 0.0918221
638 4 0.250626 0.490385 0.167687
523 2 0.336232 0.497994 0.102167
525 4 0.355607 0.48456 0.110493
658 2 0.383336 0.453027 0.159105
659 4 0.372225 0.437343 0.143113
227 4 0.485106 0.452766 0.0885892
494 4 0.430501 0.433064 0.132596
17 3 0.0328479 0.0439716 0.178484
2480 4 0.0153128 0.0470476 0.187217
16 1 0.0540283 0.0480148 0.170472
18 3 0.0694572 0.0422623 0.18682
1422 4 0.00249786 0.0326173 0.179219
1420 2 0.0150252 0.0122859 0.186627
673 2 0.120146 0.0412849 0.248139
674 4 0.134901 0.0475148 0.228939
693 4 0.213862 0.0806427 0.177235
691 2 0.220354 0.0817625 0.201355
689 4 0.205827 0.0345908 0.217685
688 2 0.199413 0.0271954 0.240693
692 4 0.226846 0.0828823 0.225475
654 4 0.297913 0.0154246 0.164912
21 1 0.369724 0.0293226 0.228468
23 3 0.373909 0.0133168 0.244737
24 3 0.346997 0.0339059 0.227526
25 3 0.376999 0.0218939 0.208206
759 4 0.387605 0.0411804 0.212733
22 3 0.38098 0.0486196 0.23395
757 2 0.404528 0.0492193 0.196175
758 4 0.421451 0.0572582 0.179617
742 2 0.463233 0.0691318 0.216443
744 4 0.46512 0.0475998 0.203874
311 4 0.438286 0.0667667 0.175298
1748 4 0.441866 0.9983 0.235386
2744 4 0.492561 0.0321052 0.168778
379 2 0.00246951 0.158778 0.175342
577 2 0.100965 0.0994757 0.227753
578 4 0.0895955 0.104097 0.205968
723 4 0.213888 0.0983647 0.226015
721 2 0.211705 0.106329 0.249616
581 4 0.282774 0.118344 0.174076
30 3 0.305135 0.148047 0.23032
26 1 0.304566 0.129656 0.243739
28 3 0.282731 0.12529 0.250266
27 3 0.312611 0.111525 0.23209
333 4 0.40858 0.152997 0.24423
743 4 0.461345 0.0906637 0.229013
363 4 0.0839062 0.245124 0.177662
381 4 0.0191149 0.170413 0.189928
511 2 0.0296922 0.181021 0.224328
512 4 0.0180037 0.186046 0.202803
394 2 0.0198963 0.242272 0.227662
513 4 0.0413808 0.175997 0.245852
371 4 0.170697 0.243372 0.21751
279 4 0.217771 0.2471 0.173158
285 4 0.300766 0.194192 0.176519
764 4 0.353052 0.225667 0.177076
763 2 0.376991 0.218514 0.178023
765 4 0.400931 0.211361 0.178971
520 2 0.472594 0.2107 0.212698
521 4 0.449173 0.201991 0.211804
522 4 0.496015 0.219409 0.213592
395 4 0.0164458 0.250823 0.20442
370 2 0.147449 0.252186 0.214857
372 4 0.124202 0.260999 0.212203
748 2 0.100013 0.296962 0.247434
361 2 0.0959355 0.259068 0.194575
362 4 0.107965 0.273012 0.211487
749 4 0.109834 0.283664 0.228675
648 4 0.0950193 0.346912 0.178875
300 4 0.102509 0.334292 0.236444
345 4 0.233642 0.304406 0.243614
343 2 0.254137 0.29081 0.239108
344 4 0.274632 0.277215 0.234602
307 2 0.307373 0.278453 0.247907
308 4 0.316951 0.270808 0.226113
528 4 0.464245 0.26843 0.172345
262 2 0.0400938 0.407803 0.241509
264 4 0.0201741 0.416694 0.229289
298 2 0.12428 0.34626 0.23926
417 4 0.146655 0.399628 0.184667
415 2 0.165898 0.40637 0.199138
299 4 0.146052 0.358229 0.242076
416 4 0.185141 0.413112 0.21361
291 4 0.202336 0.401286 0.215856
610 2 0.262415 0.332293 0.172764
611 4 0.258893 0.344253 0.194438
303 4 0.324026 0.369132 0.204988
301 2 0.319869 0.378504 0.182183
729 4 0.318259 0.384332 0.216337
727 2 0.333757 0.382226 0.235845
596 4 0.502081 0.398437 0.170408
595 2 0.48081 0.388006 0.178403
597 4 0.459539 0.377574 0.186397
643 2 0.434835 0.377433 0.215279
644 4 0.423661 0.366452 0.234766
645 4 0.446009 0.388414 0.195792
1756 2 0.073167 0.493716 0.238501
1757 4 0.0539843 0.482195 0.249657
290 4 0.24205 0.43082 0.208698
289 2 0.222193 0.416053 0.212277
767 4 0.244665 0.478883 0.18365
768 4 0.260782 0.438935 0.20905
766 2 0.252723 0.458909 0.19635
660 4 0.394446 0.46871 0.175098
1568 4 0.48787 0.481793 0.202343
1567 2 0.492437 0.492638 0.180282
232 2 0.0202268 0.0357343 0.287334
233 4 0.0314899 0.0167902 0.275525
1402 2 0.0742045 0.0213619 0.279301
234 4 0.00896378 0.0546783 0.299143
1404 4 0.049258 0.0226371 0.280408
675 4 0.105391 0.035055 0.26734
1403 4 0.099151 0.0200866 0.278194
1464 4 0.112928 0.00532891 0.28146
606 4 0.157566 0.0791544 0.332328
690 4 0.192998 0.0198 0.2637
1701 4 0.228073 0.0181965 0.315038
1699 2 0.246149 0.034617 0.320405
1700 4 0.264225 0.0510374 0.325772
479 4 0.486982 0.0258128 0.32884
478 2 0.482275 0.0399152 0.308737
480 4 0.477568 0.0540176 0.288634
351 4 0.466324 0.067778 0.278905
349 2 0.445421 0.0800791 0.284979
579 4 0.112335 0.0948546 0.249537
731 4 0.122846 0.084612 0.306747
730 2 0.115101 0.0993655 0.325389
546 4 0.160677 0.165334 0.261104
248 4 0.23264 0.0967727 0.326691
722 4 0.209522 0.114292 0.273217
249 4 0.217495 0.123952 0.287542
247 2 0.225067 0.110362 0.307116
403 2 0.216534 0.162694 0.279639
404 4 0.218918 0.143301 0.29524
29 3 0.317887 0.133075 0.262428
632 4 0.382157 0.104933 0.288313
631 2 0.367825 0.125391 0.287191
633 4 0.353492 0.145848 0.286068
350 4 0.424517 0.0923803 0.291053
331 2 0.431954 0.15553 0.25274
332 4 0.455328 0.158062 0.26125
762 4 0.471292 0.156271 0.273607
442 2 0.000850426 0.24178 0.288866
396 4 0.0233468 0.233721 0.250903
531 4 0.0148984 0.152221 0.259601
443 4 0.0114121 0.238187 0.266489
393 4 0.0880689 0.189043 0.254613
392 4 0.131568 0.187696 0.279245
391 2 0.109818 0.188369 0.266929
544 2 0.165043 0.184344 0.276748
545 4 0.16941 0.203355 0.292391
405 4 0.214149 0.182088 0.264039
707 4 0.32802 0.167409 0.294217
706 2 0.334207 0.166968 0.318439
420 4 0.410121 0.234625 0.323477
418 2 0.433544 0.226225 0.325923
761 4 0.496357 0.195997 0.290762
760 2 0.483825 0.176134 0.282185
419 4 0.456967 0.217825 0.328369
750 4 0.090191 0.310261 0.266192
390 4 0.106406 0.259917 0.31604
400 2 0.189693 0.294113 0.293987
402 4 0.209376 0.293658 0.3094
401 4 0.170011 0.294569 0.278573
510 4 0.238333 0.332109 0.300808
309 4 0.297795 0.286099 0.269702
496 2 0.314224 0.297771 0.309144
497 4 0.303752 0.290734 0.330731
498 4 0.324696 0.304807 0.287557
543 4 0.397528 0.304671 0.318252
615 4 0.384113 0.318262 0.313531
613 2 0.3623 0.328121 0.320754
541 2 0.421366 0.297358 0.316389
542 4 0.445203 0.290045 0.314527
263 4 0.0600136 0.398911 0.25373
366 4 0.00117536 0.366434 0.285369
364 2 0.0205629 0.352929 0.29355
365 4 0.0399504 0.339424 0.301731
602 4 0.062265 0.402414 0.310801
601 2 0.0701064 0.38337 0.296622
603 4 0.0779478 0.364326 0.282444
549 4 0.0720889 0.418625 0.317386
734 4 0.149955 0.35885 0.261646
508 2 0.237753 0.337615 0.325191
733 2 0.166873 0.362386 0.279715
677 4 0.179919 0.373545 0.316525
735 4 0.18379 0.365921 0.297783
433 2 0.321159 0.374583 0.322614
435 4 0.305499 0.393877 0.32538
434 4 0.33682 0.355288 0.319849
728 4 0.349255 0.380121 0.255353
614 4 0.340487 0.337979 0.327978
447 4 0.432095 0.360922 0.251278
445 2 0.451445 0.362802 0.267002
446 4 0.470795 0.364682 0.282726
777 4 0.0836923 0.481306 0.296788
775 2 0.0915728 0.484387 0.320316
414 4 0.189764 0.488246 0.293133
412 2 0.196478 0.465379 0.300695
413 4 0.203192 0.442512 0.308257
436 2 0.325966 0.459683 0.299745
437 4 0.318304 0.441003 0.284996
438 4 0.333628 0.478362 0.314494
3 3 0.322084 0.478882 0.329914
1742 4 0.472669 0.498441 0.302704
2861 4 0.490807 0.468056 0.270114
713 4 0.442283 0.469054 0.315401
712 2 0.461781 0.453428 0.316312
714 4 0.481279 0.437802 0.317222
316 2 0.0410628 0.0717569 0.345518
317 4 0.0217927 0.0567122 0.350762
318 4 0.0603329 0.0868016 0.340274
428 4 0.0832404 0.0415932 0.384891
429 4 0.111259 0.0372733 0.343697
427 2 0.0972497 0.0394332 0.364294
604 2 0.175558 0.0722554 0.348261
605 4 0.193551 0.0653563 0.364194
683 4 0.301876 0.0525379 0.375267
682 2 0.299994 0.0680191 0.394811
699 4 0.350689 0.0657026 0.346905
257 4 0.413494 0.0432489 0.34754
698 4 0.398741 0.0537489 0.353891
697 2 0.374715 0.0597258 0.350398
426 4 0.39792 0.0100422 0.41567
256 2 0.435059 0.0553634 0.343885
258 4 0.456624 0.0674779 0.34023
398 4 0.0431402 0.113015 0.342434
397 2 0.067173 0.119335 0.345204
732 4 0.107356 0.114119 0.344031
399 4 0.0912058 0.125654 0.347973
600 4 0.19056 0.150038 0.347605
598 2 0.180064 0.140177 0.368045
599 4 0.169567 0.130316 0.388484
684 4 0.298113 0.0835004 0.414355
320 4 0.294415 0.103477 0.405617
452 4 0.494084 0.126515 0.402946
451 2 0.470426 0.134547 0.40196
453 4 0.446768 0.142579 0.400974
514 2 0.421529 0.164029 0.410001
515 4 0.433009 0.154154 0.390105
260 4 0.0819892 0.185874 0.405269
389 4 0.113534 0.231558 0.356607
388 2 0.10997 0.245737 0.336324
474 4 0.237962 0.216935 0.373341
274 2 0.215491 0.252135 0.368923
276 4 0.226707 0.232289 0.379196
472 2 0.24048 0.192184 0.370848
473 4 0.242999 0.167432 0.368355
708 4 0.340394 0.166527 0.342661
715 2 0.370536 0.211236 0.372568
716 4 0.365523 0.197101 0.392574
717 4 0.375549 0.225372 0.352562
467 4 0.375491 0.181412 0.400603
270 4 0.473675 0.243551 0.417264
347 4 0.0335435 0.328789 0.386748
346 2 0.0378715 0.308941 0.401325
348 4 0.0421995 0.289092 0.415902
275 4 0.204276 0.271981 0.35865
373 2 0.188182 0.331981 0.397802
374 4 0.198959 0.315818 0.413544
376 2 0.302731 0.271372 0.359727
377 4 0.306901 0.271638 0.335075
378 4 0.298561 0.271106 0.384379
269 4 0.498164 0.280209 0.393659
268 2 0.48592 0.26188 0.405461
618 4 0.048897 0.339712 0.378021
616 2 0.0650348 0.342493 0.359126
617 4 0.0811726 0.345275 0.340232
407 4 0.0750016 0.41347 0.378459
406 2 0.0793335 0.419658 0.402294
375 4 0.177405 0.348143 0.38206
678 4 0.181664 0.350149 0.360687
676 2 0.180792 0.361847 0.338606
509 4 0.237173 0.34312 0.349574
503 4 0.261657 0.421437 0.411888
336 4 0.343742 0.364537 0.385304
334 2 0.350338 0.369689 0.408865
2925 4 0.496206 0.340647 0.344788
561 4 0.480587 0.390887 0.389152
752 4 0.470198 0.394852 0.37148
559 2 0.502105 0.391594 0.401867
751 2 0.450944 0.410729 0.373027
547 2 0.0705945 0.423055 0.341948
548 4 0.0691 0.427486 0.366511
776 4 0.0994534 0.487467 0.343844
499 2 0.0997017 0.503431 0.370461
500 4 0.0893523 0.48292 0.360593
568 2 0.164152 0.489088 0.41222
569 4 0.152019 0.468081 0.418279
1555 2 0.253211 0.49367 0.412602
5 3 0.304375 0.495233 0.358839
1 1 0.323879 0.485642 0.352039
4 3 0.328859 0.467418 0.365511
594 4 0.400459 0.459107 0.360001
592 2 0.404435 0.483308 0.364866
753 4 0.431689 0.426605 0.374574
2237 4 0.0381289 0.0166527 0.478595
718 2 0.0468415 0.0591411 0.486378
720 4 0.0423167 0.0345552 0.486867
2236 2 0.0247025 0.00308981 0.49475
367 2 0.123527 0.0291293 0.443762
369 4 0.136063 0.043723 0.459732
368 4 0.110992 0.0145357 0.427791
441 4 0.270429 0.0269257 0.440225
439 2 0.278905 0.00570537 0.430074
962 4 0.283793 0.0257248 0.455233
961 2 0.292161 0.0420599 0.472213
726 4 0.323984 0.0809452 0.443345
963 4 0.30053 0.0583951 0.489192
424 2 0.394656 0.028975 0.431673
425 4 0.391393 0.0479079 0.447675
3489 4 0.504904 0.0411969 0.484467
458 4 0.00820374 0.126226 0.418245
457 2 0.0135304 0.150655 0.418456
471 4 0.0260167 0.154361 0.476059
719 4 0.0513662 0.083727 0.485889
686 4 0.170412 0.162675 0.422067
1181 4 0.27311 0.092923 0.490518
1182 4 0.271165 0.136944 0.466874
1180 2 0.272137 0.114934 0.478696
321 4 0.282003 0.141092 0.436142
319 2 0.288209 0.122285 0.42088
724 2 0.348509 0.0843941 0.439905
725 4 0.373033 0.0878431 0.436465
576 4 0.391419 0.152924 0.48659
2878 2 0.494751 0.0875149 0.445589
642 4 0.489906 0.089732 0.487081
2880 4 0.484701 0.0853359 0.46838
459 4 0.018857 0.175084 0.418668
469 2 0.0296354 0.177885 0.468396
470 4 0.0332541 0.201408 0.460733
685 2 0.152346 0.177833 0.430374
687 4 0.13428 0.192992 0.438682
261 4 0.116046 0.202799 0.437741
259 2 0.0990177 0.194336 0.421505
1035 4 0.113463 0.203937 0.45679
1033 2 0.114961 0.195246 0.480186
695 4 0.0933026 0.244397 0.452502
1034 4 0.11646 0.186555 0.503583
488 4 0.259489 0.225658 0.431761
487 2 0.276232 0.239427 0.444223
489 4 0.292974 0.253195 0.456686
411 4 0.312756 0.219714 0.471746
409 2 0.330675 0.202696 0.467944
466 2 0.367261 0.184801 0.423968
574 2 0.398086 0.167088 0.467094
410 4 0.348595 0.185679 0.464142
468 4 0.35903 0.18819 0.447334
575 4 0.404753 0.181251 0.447597
516 4 0.410048 0.173903 0.429898
304 2 0.487517 0.191354 0.419645
305 4 0.465639 0.200534 0.427535
2845 2 0.00964905 0.330764 0.472359
326 4 0.0894803 0.320974 0.43474
694 2 0.10326 0.256167 0.472186
696 4 0.113218 0.267938 0.491871
325 2 0.109142 0.328759 0.448081
9 3 0.153506 0.318713 0.489549
10 3 0.177334 0.330505 0.462888
651 4 0.25215 0.300002 0.48801
649 2 0.261563 0.307184 0.465987
650 4 0.270977 0.314366 0.443965
266 4 0.323648 0.282382 0.437448
267 4 0.370479 0.277226 0.454212
265 2 0.347064 0.279804 0.44583
583 2 0.461751 0.262538 0.465142
584 4 0.483877 0.261376 0.476731
585 4 0.439626 0.2637 0.453554
2846 4 0.0173403 0.349228 0.457356
681 4 0.018652 0.401357 0.442647
384 4 0.0777782 0.407597 0.490487
327 4 0.128803 0.336544 0.461423
6 1 0.161496 0.337099 0.477865
7 3 0.144015 0.346909 0.46658
8 3 0.170512 0.352561 0.492631
502 2 0.238586 0.415258 0.419286
711 4 0.164161 0.37538 0.449803
504 4 0.215516 0.409078 0.426684
709 2 0.186688 0.385063 0.44491
710 4 0.209215 0.394746 0.440018
772 2 0.263253 0.409055 0.48922
812 4 0.335128 0.338942 0.498415
238 2 0.380015 0.378531 0.456251
240 4 0.376933 0.372468 0.43219
335 4 0.356935 0.37484 0.432426
239 4 0.383096 0.384593 0.480312
587 4 0.42244 0.410994 0.423735
3309 4 0.488582 0.388066 0.490233
680 4 0.0332605 0.449124 0.440284
1381 2 0.0247635 0.484159 0.444833
1383 4 0.020892 0.46254 0.432883
679 2 0.0259562 0.42524 0.441466
383 4 0.0837961 0.430103 0.446238
382 2 0.0807871 0.41885 0.468363
539 4 0.0780258 0.464848 0.501183
408 4 0.0836654 0.425847 0.42613
538 2 0.0905491 0.4852 0.493824
634 2 0.242997 0.458251 0.455029
636 4 0.235452 0.476889 0.440166
635 4 0.250541 0.439613 0.469892
1557 4 0.253851 0.475929 0.430209
774 4 0.260179 0.422624 0.468445
669 4 0.275115 0.421427 0.455588
667 2 0.295779 0.426565 0.442481
668 4 0.316443 0.431702 0.429374
586 2 0.407654 0.424127 0.439034
588 4 0.392869 0.43726 0.454334
1401 4 0.358632 0.481984 0.432175
882 4 0.349029 0.458333 0.497996
880 2 0.354542 0.480909 0.48877
661 2 0.450223 0.45659 0.500172
662 4 0.458022 0.480284 0.498454
1126 2 0.0283105 0.0496941 0.550651
1127 4 0.0354278 0.0399273 0.528762
1128 4 0.0211932 0.059461 0.57254
2430 4 0.198977 0.0186447 0.50129
1031 4 0.2186 0.0702436 0.568461
341 4 0.201663 0.0376444 0.505626
340 2 0.195957 0.0613781 0.511042
342 4 0.190252 0.0851119 0.516458
432 4 0.305217 0.05548 0.508111
430 2 0.321316 0.0707215 0.519674
1217 4 0.396799 0.0495233 0.549828
1216 2 0.402175 0.0298191 0.564251
841 2 0.375419 0.0683345 0.528918
842 4 0.393768 0.0514216 0.530478
1218 4 0.407551 0.0101148 0.578674
1062 4 0.498376 0.0255588 0.548859
3008 4 0.499307 0.0796237 0.5637
938 4 0.0735694 0.152265 0.557982
937 2 0.0974946 0.145186 0.559613
939 4 0.12142 0.138108 0.561244
1059 4 0.148052 0.109039 0.58363
1030 2 0.232362 0.0892827 0.577023
1152 4 0.192592 0.0935145 0.534769
1151 4 0.190734 0.143487 0.534663
1150 2 0.191663 0.118501 0.534716
899 4 0.330515 0.150944 0.543436
843 4 0.357069 0.0852473 0.527358
431 4 0.337415 0.0859629 0.531238
641 4 0.461635 0.112489 0.521484
3159 4 0.49726 0.148843 0.551625
640 2 0.475771 0.101111 0.504282
877 2 0.0596553 0.214054 0.578038
878 4 0.0356331 0.211784 0.584592
1199 4 0.0170494 0.203368 0.581621
879 4 0.0836775 0.216325 0.571484
1272 4 0.0952253 0.232599 0.572188
856 2 0.219511 0.229475 0.527854
858 4 0.226707 0.234688 0.551226
857 4 0.212314 0.224263 0.504483
898 2 0.328756 0.17553 0.539242
900 4 0.326997 0.200117 0.535049
983 4 0.0385456 0.313046 0.535512
982 2 0.0336646 0.320862 0.558756
984 4 0.0287835 0.328678 0.581999
1258 2 0.135234 0.294572 0.518665
1259 4 0.146618 0.313016 0.53113
1260 4 0.12385 0.276128 0.5062
791 4 0.285888 0.255383 0.584324
813 4 0.343652 0.306251 0.535285
872 4 0.390226 0.260391 0.523818
811 2 0.33939 0.322596 0.51685
871 2 0.37277 0.275864 0.532821
873 4 0.355314 0.291337 0.541825
1189 2 0.223883 0.376356 0.571769
1190 4 0.232768 0.376134 0.548398
803 4 0.24315 0.370475 0.531307
802 2 0.263588 0.361202 0.520286
804 4 0.284027 0.351929 0.509265
928 2 0.32929 0.368228 0.568934
929 4 0.324854 0.375549 0.545441
773 4 0.266328 0.395485 0.509995
925 2 0.444316 0.369542 0.538429
927 4 0.45074 0.384024 0.557772
926 4 0.437892 0.35506 0.519085
1161 4 0.156134 0.470712 0.554357
1159 2 0.156086 0.477781 0.578341
1171 2 0.229751 0.438768 0.571059
1173 4 0.222204 0.457587 0.585691
1172 4 0.237298 0.419949 0.556428
1187 4 0.218127 0.477181 0.586728
1911 4 0.454458 0.487443 0.541758
1001 4 0.458035 0.442713 0.578974
1332 4 0.475407 0.489844 0.503865
663 4 0.442424 0.432897 0.501891
1058 4 0.155327 0.0634744 0.602909
823 2 0.146029 0.00683387 0.637772
825 4 0.137618 0.0303486 0.636554
1284 4 0.206336 0.0732315 0.637578
951 4 0.264233 0.0316385 0.587899
949 2 0.285156 0.0312731 0.601584
950 4 0.306079 0.0309078 0.615269
809 4 0.446459 0.0794507 0.608526
1082 4 0.0438544 0.0972529 0.658409
1083 4 0.0324026 0.108619 0.611076
1081 2 0.0381285 0.102936 0.634743
1057 2 0.15169 0.0862565 0.59327
1153 2 0.15398 0.147319 0.590488
1155 4 0.140871 0.126038 0.591147
1032 4 0.246123 0.108322 0.585586
1283 4 0.171329 0.108864 0.639935
1282 2 0.188832 0.0910477 0.638757
808 2 0.454429 0.0873436 0.630873
810 4 0.4624 0.0952366 0.653219
45 3 0.444587 0.0947658 0.661506
1270 2 0.115965 0.23418 0.586064
1271 4 0.136705 0.235761 0.59994
1154 4 0.167089 0.1686 0.589829
1221 4 0.180956 0.182808 0.587525
1210 2 0.234997 0.174902 0.646988
1212 4 0.219246 0.177542 0.62775
1219 2 0.193144 0.187258 0.608899
1220 4 0.205332 0.191708 0.630272
797 4 0.252539 0.245036 0.596418
1193 4 0.362675 0.194729 0.65705
904 2 0.491115 0.244708 0.59943
1025 4 0.433169 0.212779 0.65936
1244 4 0.0599321 0.26619 0.599587
1243 2 0.0398104 0.279951 0.605148
1245 4 0.0196888 0.293712 0.61071
1136 4 0.0980316 0.336523 0.592991
948 4 0.149208 0.277326 0.616567
796 2 0.228964 0.253059 0.598663
798 4 0.205389 0.261081 0.600908
947 4 0.194392 0.255902 0.616271
946 2 0.1718 0.266614 0.616419
792 4 0.28755 0.304402 0.594078
790 2 0.286719 0.279892 0.589201
1238 4 0.306774 0.304744 0.601505
1237 2 0.312723 0.328937 0.603618
806 4 0.330789 0.319693 0.649536
954 4 0.411718 0.298967 0.616689
906 4 0.471863 0.258279 0.591041
952 2 0.433024 0.301187 0.603792
953 4 0.454329 0.303407 0.590895
3263 4 0.00275761 0.356834 0.646136
1040 4 0.0769377 0.40548 0.616497
1039 2 0.0529588 0.402255 0.610189
1041 4 0.02898 0.39903 0.603881
3264 4 0.0124476 0.388102 0.608332
3262 2 0.00760261 0.372468 0.627234
993 4 0.0933139 0.412607 0.604894
1137 4 0.14314 0.352635 0.607355
897 4 0.149176 0.370886 0.606702
1135 2 0.120586 0.344579 0.600173
991 2 0.114395 0.399522 0.607989
992 4 0.135475 0.386437 0.611084
1191 4 0.214998 0.376579 0.59514
896 4 0.198902 0.36669 0.603475
895 2 0.174039 0.368788 0.605088
1029 4 0.240868 0.370051 0.661919
1239 4 0.318673 0.35313 0.605732
930 4 0.333727 0.360906 0.592426
1204 2 0.401825 0.383394 0.635997
1206 4 0.382143 0.393307 0.624184
1205 4 0.421506 0.373482 0.64781
1160 4 0.156038 0.48485 0.602324
1186 2 0.219471 0.498087 0.600378
889 2 0.318227 0.474493 0.627325
891 4 0.293697 0.472201 0.631592
1951 2 0.353684 0.493807 0.586556
1952 4 0.344977 0.476945 0.602837
1002 4 0.409009 0.449522 0.586103
890 4 0.342757 0.476785 0.623058
1230 4 0.377076 0.451733 0.660108
1000 2 0.433522 0.446118 0.582539
1269 4 0.443988 0.458333 0.641223
1267 2 0.45336 0.478062 0.653393
1268 4 0.462733 0.497791 0.665564
944 4 0.0566259 0.0713739 0.681599
943 2 0.0512199 0.0525228 0.69711
945 4 0.045814 0.0336717 0.71262
1147 2 0.209422 0.0606625 0.731884
1149 4 0.230046 0.0467262 0.734246
1148 4 0.188797 0.0745988 0.729521
1004 4 0.373244 0.0546399 0.666954
1003 2 0.356509 0.0669065 0.680906
1005 4 0.339773 0.0791731 0.694857
1163 4 0.462136 0.0350735 0.681671
1162 2 0.485954 0.0422587 0.679175
42 3 0.444584 0.0701345 0.689545
2320 2 0.487514 0.0225326 0.7422
2322 4 0.469639 0.0391181 0.74773
1076 4 0.0569442 0.0889641 0.672488
862 2 0.036233 0.118283 0.73819
864 4 0.0366342 0.125107 0.714139
1075 2 0.0560137 0.108218 0.688413
1077 4 0.0550833 0.127472 0.704338
1107 4 0.0429226 0.167206 0.727049
908 4 0.167238 0.139976 0.696379
907 2 0.158126 0.161069 0.686517
1227 4 0.182171 0.134808 0.70997
1225 2 0.189081 0.113508 0.721095
1226 4 0.19599 0.0922093 0.73222
829 2 0.326538 0.158783 0.725194
830 4 0.309381 0.164135 0.707811
831 4 0.343695 0.153431 0.742577
43 3 0.429724 0.104259 0.694772
41 1 0.446547 0.0923905 0.684071
44 3 0.467311 0.100032 0.691062
3425 4 0.483597 0.110167 0.68803
852 4 0.0409527 0.204839 0.669216
851 4 0.0474315 0.177461 0.710558
850 2 0.0441921 0.19115 0.689887
1178 4 0.012981 0.229202 0.719383
1213 2 0.000800842 0.212216 0.743724
1105 2 0.0561271 0.174029 0.747155
1177 2 0.0193629 0.249635 0.706462
909 4 0.149013 0.182161 0.676655
1207 2 0.116487 0.249261 0.680372
1208 4 0.0916362 0.249752 0.683086
1130 4 0.180668 0.183831 0.742248
1211 4 0.250749 0.172262 0.666226
886 2 0.284317 0.180666 0.679973
888 4 0.262377 0.188431 0.670835
887 4 0.306256 0.1729 0.689112
1194 4 0.325594 0.175996 0.684885
976 2 0.282886 0.20086 0.735847
978 4 0.268633 0.182208 0.727238
977 4 0.297139 0.219513 0.744457
1192 2 0.344134 0.185363 0.670968
1142 4 0.449069 0.190236 0.716572
1024 2 0.437218 0.209752 0.683848
1141 2 0.438306 0.180742 0.737046
1026 4 0.441266 0.206726 0.708335
1261 2 0.436157 0.243188 0.740278
1263 4 0.459277 0.236468 0.733534
1179 4 0.0257447 0.270067 0.69354
1209 4 0.141338 0.24877 0.677657
821 4 0.170331 0.325499 0.712543
820 2 0.172615 0.300734 0.709958
1065 4 0.233414 0.265952 0.693927
822 4 0.174898 0.27597 0.707373
1063 2 0.252109 0.279548 0.684397
1064 4 0.270805 0.293143 0.674867
807 4 0.324691 0.309498 0.698112
805 2 0.32774 0.314595 0.673824
1262 4 0.413037 0.249908 0.747022
1008 4 0.372676 0.298105 0.741134
3123 4 0.477442 0.279354 0.68544
892 2 0.0359192 0.369059 0.70185
893 4 0.0167958 0.356345 0.711741
894 4 0.0550425 0.381773 0.691959
1280 4 0.0622666 0.39997 0.686893
940 2 0.13643 0.381167 0.739036
941 4 0.158829 0.375029 0.729774
815 4 0.096352 0.384106 0.739554
1067 4 0.177244 0.374355 0.738493
1028 4 0.19821 0.390926 0.67758
1066 2 0.189222 0.38386 0.71871
1068 4 0.2012 0.393366 0.698928
1027 2 0.219539 0.380488 0.66975
1019 4 0.371237 0.360644 0.750128
1981 2 0.0496189 0.469309 0.728922
1281 4 0.0768985 0.435212 0.719214
1279 2 0.0695825 0.417591 0.703053
1983 4 0.0639838 0.448924 0.727106
1982 4 0.0352541 0.489693 0.730737
1139 4 0.29055 0.440115 0.736759
1138 2 0.290924 0.432374 0.712987
1140 4 0.291298 0.424633 0.689215
1987 2 0.32801 0.475524 0.731258
1988 4 0.312167 0.473276 0.75047
1228 2 0.360429 0.459792 0.676934
1229 4 0.343782 0.467851 0.69376
1989 4 0.343854 0.477772 0.712046
1100 4 0.423469 0.454005 0.676853
1099 2 0.4341 0.449271 0.698983
1101 4 0.444731 0.444537 0.721113
2168 4 0.481748 0.494643 0.670365
1201 2 0.126631 0.0646669 0.762432
1202 4 0.124203 0.0398091 0.76126
2049 4 0.134083 0.03018 0.77541
2047 2 0.13115 0.00542045 0.777291
1050 4 0.331492 0.00472707 0.76411
1113 4 0.409825 0.0497006 0.807339
1112 4 0.451751 0.0693472 0.788445
844 2 0.489756 0.0698192 0.77047
1111 2 0.430788 0.0595239 0.797892
845 4 0.470731 0.0731859 0.78634
911 4 0.0676472 0.0947836 0.802249
863 4 0.0358318 0.111459 0.762241
832 2 0.0127513 0.101177 0.784446
833 4 0.0300937 0.0941072 0.76788
910 2 0.0709646 0.0980915 0.82681
1203 4 0.129059 0.0895248 0.763603
34 3 0.113466 0.131985 0.813213
31 1 0.11817 0.152502 0.822975
1256 4 0.30418 0.101036 0.784807
1255 2 0.281043 0.0922121 0.788273
1257 4 0.257906 0.0833885 0.791738
1086 4 0.339929 0.132586 0.785466
1084 2 0.341012 0.128171 0.810053
1085 4 0.342095 0.123755 0.834639
819 4 0.35043 0.105782 0.832867
1106 4 0.0693316 0.180852 0.767262
1214 4 0.00593173 0.203878 0.766731
33 3 0.128204 0.166541 0.807463
1073 4 0.121661 0.213876 0.755262
1072 2 0.116962 0.232296 0.771504
1074 4 0.112263 0.250715 0.787747
1129 2 0.192301 0.204695 0.749633
1131 4 0.203934 0.225559 0.757018
1277 4 0.19331 0.241843 0.766198
1298 4 0.314919 0.223999 0.750124
918 4 0.301952 0.237078 0.755047
1299 4 0.355719 0.213623 0.777115