ITEM: TIMESTEP
3030000
ITEM: NUMBER OF ATOMS
4590
ITEM: BOX BOUNDS pp pp pp
-9.9985700000000008e+00 9.9985700000000008e+00
-9.9985700000000008e+00 9.9985700000000008e+00
-9.9985700000000008e+00 9.9985700000000008e+00
ITEM: ATOMS id type xs ys zs
1667 4 0.999442 0.0677635 0.0488656
701 4 0.0125534 0.0710788 0.0628235
490 2 0.286478 0.0562122 0.0796642
492 4 0.298929 0.0347436 0.0766235
2974 2 0.459191 0.0112931 0.0280053
745 2 0.435188 0.0644222 0.018337
747 4 0.442997 0.0418445 0.0109586
2467 2 0.497067 0.00505851 0.0680565
986 4 0.427427 0.0321742 0.00628883
2975 4 0.439705 0.0229588 0.0175465
700 2 0.034957 0.0820579 0.0644724
702 4 0.0573606 0.0930369 0.0661213
476 4 0.0730016 0.103207 0.060315
475 2 0.0797965 0.126325 0.0669905
477 4 0.0865915 0.149443 0.0736659
566 4 0.215973 0.134298 0.0272727
565 2 0.227019 0.14802 0.009528
769 2 0.409856 0.161495 0.027623
556 2 0.392699 0.0992365 0.0109115
558 4 0.414958 0.101353 0.0221023
746 4 0.427379 0.087 0.0257154
771 4 0.424763 0.142882 0.0351404
737 4 0.227556 0.204382 0.0677088
573 4 0.264046 0.248382 0.062252
770 4 0.394949 0.180108 0.0201056
359 4 0.376443 0.185534 0.0274776
664 2 0.398201 0.211209 0.0493691
665 4 0.392807 0.191347 0.0351711
666 4 0.403596 0.231071 0.0635672
323 4 0.401332 0.247311 0.0536931
358 2 0.362791 0.186281 0.00654362
623 4 0.389952 0.242443 0.0705659
555 4 0.0834945 0.254241 0.00379636
292 2 0.155994 0.328006 0.0327421
294 4 0.13929 0.325098 0.0143655
293 4 0.172698 0.330915 0.0511187
507 4 0.182275 0.323446 0.0632631
287 4 0.193402 0.330423 0.0494306
286 2 0.211964 0.326022 0.0332668
288 4 0.230526 0.321622 0.017103
481 2 0.222546 0.253671 0.0713357
505 2 0.185948 0.300543 0.0725959
483 4 0.199219 0.26256 0.0727514
506 4 0.189621 0.277639 0.0819288
482 4 0.245873 0.244781 0.0699199
571 2 0.277664 0.25994 0.0447554
572 4 0.291281 0.271499 0.0272587
357 4 0.306547 0.275148 0.0147488
355 2 0.321638 0.292415 0.00478409
956 4 0.340472 0.323115 0.00798035
1069 2 0.411619 0.320323 0.0301099
955 2 0.358687 0.334567 0.0207179
1071 4 0.394541 0.338516 0.0317062
322 2 0.415923 0.264525 0.0429251
324 4 0.430514 0.281739 0.0321571
1070 4 0.428696 0.302129 0.0285136
280 2 0.456683 0.302724 0.0530091
282 4 0.44514 0.293338 0.0329134
281 4 0.468226 0.31211 0.0731048
671 4 0.46146 0.327487 0.0835405
527 4 0.47895 0.319711 0.086701
329 4 0.0198918 0.386392 0.0371275
456 4 0.187907 0.392902 0.056753
552 4 0.171129 0.336294 0.0710743
454 2 0.185153 0.368059 0.057389
455 4 0.182398 0.343215 0.058025
1290 4 0.26486 0.403445 0.0363414
250 2 0.266027 0.417978 0.0745253
1288 2 0.277809 0.383813 0.0278524
1289 4 0.290759 0.364181 0.0193634
251 4 0.256864 0.414624 0.0515043
903 4 0.290844 0.361458 0.999506
957 4 0.376902 0.346019 0.0334555
741 4 0.388421 0.345709 0.0485778
739 2 0.39182 0.349038 0.0731245
1787 4 0.0986859 0.495876 0.0492916
1786 2 0.0904568 0.478597 0.0653816
627 4 0.163477 0.519438 0.0346747
1690 2 0.119635 0.501815 0.0120386
626 4 0.186161 0.480473 0.0563039
625 2 0.174819 0.499955 0.0454893
245 4 0.200612 0.466197 0.0619458
244 2 0.22314 0.456535 0.057015
246 4 0.245668 0.446872 0.0520842
272 4 0.255309 0.432232 0.0431772
271 2 0.261994 0.435477 0.0193034
1672 2 0.408377 0.437184 0.0728003
853 2 0.397797 0.433807 0.0192047
854 4 0.417464 0.432612 0.0345986
855 4 0.378131 0.435002 0.00381074
37 3 0.359521 0.422903 0.00680187
1674 4 0.42069 0.441112 0.0513958
564 4 0.429098 0.448144 0.0342148
563 4 0.474202 0.469343 0.0383436
562 2 0.45165 0.458743 0.0362792
228 4 0.482085 0.475426 0.0202342
226 2 0.488602 0.497695 0.0109172
19 3 0.06391 0.0325633 0.151904
16 1 0.0638919 0.0127639 0.164003
582 4 0.233799 0.0711086 0.144525
580 2 0.249727 0.0635666 0.162261
491 4 0.274027 0.0776807 0.0827049
1475 4 0.303843 0.019197 0.0902467
1760 4 0.48391 0.0466746 0.143977
486 4 0.428487 0.0037171 0.108434
1759 2 0.48629 0.0300983 0.12541
2724 4 0.477435 0.0621601 0.15349
1761 4 0.48867 0.013522 0.106843
2744 4 0.496873 0.0568246 0.153577
237 4 0.221845 0.0793061 0.160319
235 2 0.201754 0.0875333 0.172723
628 2 0.372687 0.154637 0.166697
2722 2 0.463067 0.0822853 0.157192
2723 4 0.448698 0.10241 0.160894
738 4 0.207938 0.182438 0.108136
736 2 0.217747 0.19341 0.0879223
755 4 0.250313 0.238889 0.162031
460 2 0.326453 0.221114 0.112367
461 4 0.303859 0.210916 0.109098
354 4 0.287141 0.211338 0.119713
352 2 0.277735 0.225905 0.137727
353 4 0.268329 0.240472 0.155741
284 4 0.276911 0.252535 0.169502
630 4 0.381231 0.176436 0.157922
462 4 0.349047 0.231313 0.115635
255 4 0.361846 0.229258 0.129464
253 2 0.374828 0.208905 0.135977
622 2 0.376553 0.241403 0.09165
624 4 0.363153 0.240363 0.112734
254 4 0.387809 0.188552 0.14249
765 4 0.35437 0.246482 0.128249
550 2 0.152958 0.337553 0.0882034
551 4 0.134787 0.338812 0.105333
536 4 0.188636 0.247615 0.143087
537 4 0.182823 0.272035 0.0998373
535 2 0.185729 0.259825 0.121462
754 2 0.235653 0.259117 0.163087
756 4 0.220993 0.279344 0.164142
301 2 0.323557 0.313293 0.133716
303 4 0.320695 0.299437 0.154331
285 4 0.313673 0.285411 0.161229
283 2 0.295292 0.268973 0.165365
764 4 0.331058 0.281459 0.155338
763 2 0.342714 0.263971 0.141794
12 3 0.412673 0.327881 0.119318
647 4 0.0480124 0.361896 0.153344
302 4 0.326419 0.32715 0.113101
387 4 0.328087 0.347263 0.11008
385 2 0.352247 0.353173 0.107522
493 2 0.389322 0.393472 0.102844
495 4 0.392282 0.368869 0.106177
386 4 0.376407 0.359083 0.104965
15 3 0.380545 0.346769 0.117325
740 4 0.39522 0.352366 0.0976712
14 3 0.413108 0.364444 0.110618
11 1 0.402492 0.348131 0.123252
13 3 0.404297 0.353173 0.145829
494 4 0.386361 0.418075 0.0995106
526 2 0.500525 0.332071 0.0840699
672 4 0.41913 0.345798 0.10287
670 2 0.440295 0.336643 0.0932052
1788 4 0.0822276 0.461318 0.0814716
1791 4 0.0604854 0.495772 0.147067
1465 2 0.0782869 0.46861 0.119342
1466 4 0.0723084 0.482758 0.139072
1467 4 0.0842653 0.454462 0.0996121
638 4 0.215577 0.486971 0.15672
767 4 0.221204 0.468496 0.156564
637 2 0.199753 0.494678 0.13896
252 4 0.275191 0.421331 0.0975463
609 4 0.273065 0.437774 0.10788
607 2 0.296401 0.439647 0.11666
608 4 0.319737 0.441519 0.12544
659 4 0.32963 0.437295 0.107799
1316 4 0.296363 0.498476 0.144645
660 4 0.377396 0.435855 0.0930667
1673 4 0.396065 0.433256 0.0942048
658 2 0.353513 0.436575 0.100433
524 4 0.399377 0.486737 0.133034
523 2 0.393196 0.46856 0.117015
525 4 0.387015 0.450384 0.100997
578 4 0.079021 0.0338102 0.169898
20 3 0.0793771 0.013827 0.180668
17 3 0.0430398 0.00970061 0.173221
2480 4 0.034272 0.00395474 0.19208
2479 2 0.0238857 0.0231774 0.204237
380 4 0.0221523 0.0529934 0.20183
2481 4 0.0134994 0.0424 0.216394
577 2 0.0938032 0.0538367 0.172266
579 4 0.108585 0.0738632 0.174633
674 4 0.146493 0.00646408 0.226097
673 2 0.125898 0.00120552 0.239263
450 4 0.126286 0.0706265 0.1845
448 2 0.148029 0.0804412 0.177012
1504 2 0.238077 0.00736698 0.19055
449 4 0.169772 0.090256 0.169524
581 4 0.265656 0.0560246 0.179997
1506 4 0.256148 0.0242995 0.193999
654 4 0.269813 0.0393905 0.193246
652 2 0.28889 0.03638 0.209126
653 4 0.307968 0.0333696 0.225006
758 4 0.341802 0.0707251 0.1863
759 4 0.359243 0.0646077 0.232767
757 2 0.350523 0.0676664 0.209533
350 4 0.371881 0.0551506 0.241749
349 2 0.396765 0.0528288 0.24097
22 3 0.357575 0.0526453 0.249947
311 4 0.340101 0.0752822 0.166722
480 4 0.43878 0.0391174 0.238076
351 4 0.421648 0.050507 0.24019
513 4 0.0477254 0.158555 0.17826
379 2 0.0248857 0.0768977 0.195026
511 2 0.0340203 0.137645 0.177887
512 4 0.0203152 0.116736 0.177514
381 4 0.0276191 0.100802 0.188222
236 4 0.181663 0.0957605 0.185126
30 3 0.334156 0.129532 0.226672
312 4 0.353932 0.123093 0.161869
629 4 0.364142 0.132839 0.175471
310 2 0.347016 0.0991875 0.164295
26 1 0.341989 0.141766 0.244211
28 3 0.352815 0.16075 0.236414
521 4 0.466345 0.146154 0.230483
762 4 0.450904 0.14565 0.240707
760 2 0.426747 0.148374 0.246555
332 4 0.455848 0.12842 0.236246
331 2 0.468541 0.106945 0.237943
520 2 0.485126 0.155181 0.216663
393 4 0.0504406 0.175695 0.1679
391 2 0.0663727 0.194182 0.173338
392 4 0.0823047 0.212669 0.178777
339 4 0.0810456 0.232005 0.182223
337 2 0.0703096 0.247285 0.19885
396 4 0.00777543 0.252742 0.253179
544 2 0.126473 0.246544 0.249564
546 4 0.103611 0.239553 0.242238
279 4 0.273646 0.224593 0.22044
277 2 0.270739 0.230056 0.196214
278 4 0.267833 0.235519 0.171988
394 2 0.0199793 0.2658 0.235694
395 4 0.0321831 0.278857 0.218208
338 4 0.0595736 0.262564 0.215476
363 4 0.0501401 0.27964 0.208513
361 2 0.0570729 0.303646 0.207615
362 4 0.0640056 0.327652 0.206717
372 4 0.0816234 0.32798 0.199774
733 2 0.14982 0.329067 0.241215
612 4 0.235513 0.290827 0.173548
611 4 0.234759 0.326353 0.208734
610 2 0.235136 0.30859 0.191141
344 4 0.222213 0.320191 0.223624
343 2 0.203907 0.314778 0.239772
729 4 0.308442 0.303282 0.16862
727 2 0.295441 0.320982 0.180573
308 4 0.325088 0.290969 0.170862
728 4 0.282441 0.338681 0.192527
498 4 0.339296 0.294854 0.226643
307 2 0.338871 0.288656 0.191595
309 4 0.352653 0.286343 0.212328
749 4 0.0540196 0.344249 0.213324
648 4 0.0647147 0.339181 0.194645
748 2 0.0632341 0.359199 0.231122
646 2 0.0563636 0.350539 0.173995
370 2 0.10519 0.334108 0.205454
371 4 0.128756 0.340236 0.211133
734 4 0.132203 0.342668 0.229823
417 4 0.137173 0.356386 0.221239
299 4 0.134701 0.361579 0.238837
415 2 0.150269 0.37005 0.2049
416 4 0.163366 0.383715 0.188562
298 2 0.113085 0.372083 0.245737
290 4 0.229972 0.402623 0.181718
289 2 0.206085 0.395275 0.18249
291 4 0.182198 0.387927 0.183263
445 2 0.392076 0.382618 0.239012
447 4 0.409929 0.398882 0.232535
595 2 0.488593 0.392552 0.168479
644 4 0.423669 0.411391 0.226011
643 2 0.438928 0.401175 0.209042
645 4 0.454188 0.390959 0.192073
597 4 0.466156 0.385731 0.177153
766 2 0.223095 0.446453 0.168213
768 4 0.224985 0.424409 0.179862
412 2 0.243412 0.458798 0.21939
413 4 0.22801 0.445993 0.234357
414 4 0.258813 0.471603 0.204423
1574 4 0.299748 0.495601 0.222629
229 2 0.470149 0.491782 0.218828
231 4 0.491688 0.479101 0.219481
427 2 0.0555283 0.999879 0.320839
234 4 0.0060766 0.0550696 0.297124
232 2 0.0284955 0.0442611 0.294727
233 4 0.0509144 0.0334526 0.29233
317 4 0.0683881 0.0298368 0.299246
1404 4 0.0638827 0.0209316 0.285495
316 2 0.0818066 0.0466027 0.312054
1402 2 0.0760973 0.0104606 0.266355
428 4 0.0690374 0.0120846 0.303701
318 4 0.095225 0.0633685 0.324861
693 4 0.324338 0.0609155 0.280591
691 2 0.30872 0.0789472 0.288082
24 3 0.323052 0.050938 0.26471
25 3 0.340473 0.019627 0.253143
632 4 0.358365 0.0692321 0.250003
21 1 0.343426 0.0399779 0.262929
23 3 0.352875 0.037354 0.283958
257 4 0.42108 0.0624157 0.342605
743 4 0.491474 0.0711816 0.247873
479 4 0.452844 0.0336436 0.285752
478 2 0.445812 0.0363805 0.261914
2664 4 0.470361 0.0276634 0.291665
1428 4 0.452593 0.0276749 0.301785
258 4 0.442204 0.0432555 0.301528
2662 2 0.493132 0.0379887 0.29175
256 2 0.431642 0.0528356 0.322066
1426 2 0.450842 0.00381702 0.309059
2755 2 0.995229 0.0939193 0.314795
2757 4 0.988339 0.114231 0.327645
403 2 0.232645 0.167473 0.327893
404 4 0.243382 0.145443 0.332853
692 4 0.293102 0.0969789 0.295573
721 2 0.263513 0.111197 0.312493
723 4 0.2742 0.0952852 0.296437
722 4 0.252825 0.127108 0.328548
27 3 0.324316 0.148196 0.257457
761 4 0.402591 0.151099 0.252403
29 3 0.356602 0.128961 0.256896
631 2 0.360443 0.0920315 0.260056
707 4 0.359881 0.128015 0.275705
633 4 0.362522 0.114831 0.270108
706 2 0.355628 0.139191 0.297663
708 4 0.351374 0.150368 0.319622
333 4 0.481233 0.0854692 0.23964
443 4 0.00553813 0.245949 0.272474
405 4 0.221908 0.189502 0.322932
402 4 0.164707 0.247457 0.268527
545 4 0.149334 0.253534 0.256889
735 4 0.167438 0.315465 0.252608
400 2 0.174581 0.270427 0.268215
401 4 0.184455 0.293396 0.267904
676 2 0.173493 0.319484 0.292633
345 4 0.185602 0.309365 0.255921
677 4 0.173105 0.30885 0.270006
678 4 0.173882 0.330118 0.315259
378 4 0.295676 0.285214 0.320165
376 2 0.314052 0.293353 0.30529
377 4 0.332428 0.301492 0.290416
615 4 0.336271 0.32 0.292319
497 4 0.340309 0.290375 0.276439
496 2 0.339803 0.292615 0.251541
541 2 0.369333 0.304275 0.299334
542 4 0.390146 0.303946 0.313186
543 4 0.34852 0.304605 0.285482
418 2 0.406688 0.271122 0.328148
420 4 0.406076 0.295263 0.321664
750 4 0.0724486 0.374148 0.248921
364 2 0.00392258 0.391388 0.291917
365 4 0.0288965 0.390301 0.291365
603 4 0.0344478 0.389533 0.311367
601 2 0.0504738 0.383861 0.329701
375 4 0.155335 0.327946 0.323924
300 4 0.0914698 0.382587 0.252636
510 4 0.177485 0.351153 0.311817
508 2 0.19956 0.356148 0.322443
434 4 0.324955 0.3832 0.313383
433 2 0.311812 0.404352 0.311146
614 4 0.325938 0.368454 0.29911
613 2 0.331104 0.344227 0.295714
446 4 0.374224 0.366354 0.245488
264 4 0.0110806 0.448517 0.25763
1757 4 0.0211371 0.43134 0.256348
1756 2 0.0414516 0.440578 0.267625
1758 4 0.0617661 0.449815 0.278902
1775 4 0.0761329 0.464746 0.279215
777 4 0.0680117 0.481746 0.288094
775 2 0.0689212 0.483528 0.313018
1776 4 0.116559 0.44348 0.258862
1774 2 0.0963459 0.454113 0.269038
1436 4 0.227933 0.443977 0.253819
1435 2 0.240678 0.44244 0.275276
4 3 0.251334 0.420385 0.306606
1437 4 0.253423 0.440902 0.296732
3 3 0.268834 0.454067 0.308523
1 1 0.265733 0.433636 0.319075
436 2 0.309688 0.459447 0.307146
438 4 0.290429 0.444078 0.311392
2 3 0.28605 0.422983 0.320771
435 4 0.298669 0.425505 0.30891
437 4 0.328948 0.474817 0.3029
1801 2 0.364083 0.479289 0.317503
1802 4 0.346629 0.485439 0.300689
119 3 0.495713 0.45477 0.324532
1781 4 0.112001 0.00985817 0.417189
732 4 0.0991288 0.0668046 0.344316
730 2 0.123968 0.0640039 0.344919
731 4 0.148807 0.0612031 0.345522
399 4 0.0917435 0.0803697 0.333396
699 4 0.386293 0.0450481 0.38438
1699 2 0.362411 0.0171548 0.390268
1700 4 0.366248 0.0413014 0.385034
697 2 0.393828 0.0535118 0.362092
698 4 0.401363 0.0619754 0.339803
2585 4 0.000818751 0.126623 0.337178
397 2 0.0784235 0.0990793 0.343281
398 4 0.0651035 0.117789 0.353165
2584 2 0.0234335 0.124833 0.347693
2586 4 0.0460482 0.123044 0.358207
458 4 0.0417421 0.138334 0.372091
457 2 0.0460774 0.155995 0.389251
459 4 0.0504126 0.173656 0.406411
606 4 0.153799 0.0798883 0.353196
605 4 0.1976 0.0876482 0.376042
604 2 0.1757 0.0837683 0.364619
248 4 0.212582 0.0930236 0.363572
247 2 0.225559 0.111003 0.352018
249 4 0.238536 0.128982 0.340463
683 4 0.257905 0.138448 0.342312
682 2 0.277952 0.146235 0.355065
684 4 0.298 0.154021 0.367819
319 2 0.333012 0.159738 0.345438
321 4 0.356843 0.158761 0.337933
726 4 0.405455 0.141346 0.403401
717 4 0.374121 0.153334 0.345646
715 2 0.382025 0.15115 0.369266
716 4 0.389929 0.148965 0.392887
467 4 0.397177 0.156962 0.409008
724 2 0.419226 0.121184 0.408789
725 4 0.432998 0.101023 0.414177
642 4 0.500922 0.103504 0.390702
641 4 0.456171 0.106333 0.368564
640 2 0.478547 0.104918 0.379633
600 4 0.0932366 0.19405 0.34033
598 2 0.111301 0.2025 0.355411
599 4 0.129366 0.21095 0.370492
389 4 0.130579 0.242555 0.378954
686 4 0.125616 0.22607 0.386028
685 2 0.111946 0.225134 0.406944
275 4 0.140356 0.225441 0.374449
274 2 0.165039 0.222112 0.37665
473 4 0.220731 0.210825 0.32438
474 4 0.205502 0.224808 0.369913
472 2 0.213117 0.217816 0.347147
276 4 0.189722 0.218783 0.378851
320 4 0.309182 0.160715 0.352943
419 4 0.407301 0.246982 0.334633
269 4 0.422484 0.234003 0.332974
268 2 0.440432 0.225174 0.347977
270 4 0.45838 0.216345 0.36298
452 4 0.472801 0.229767 0.369065
451 2 0.476611 0.222943 0.392816
453 4 0.480421 0.216119 0.416567
347 4 0.0534566 0.313782 0.38836
346 2 0.0362933 0.300233 0.400486
618 4 0.0641 0.318826 0.372935
373 2 0.138527 0.316642 0.338583
388 2 0.127783 0.265032 0.368364
616 2 0.0871656 0.309754 0.369642
390 4 0.124987 0.287509 0.357773
617 4 0.110231 0.300681 0.366348
374 4 0.121719 0.305338 0.353243
2537 4 0.487393 0.291952 0.317834
602 4 0.0664999 0.378188 0.348036
549 4 0.0739172 0.384208 0.365381
547 2 0.0852553 0.404183 0.375262
509 4 0.221635 0.361144 0.333069
240 4 0.327922 0.384396 0.391162
335 4 0.342526 0.383386 0.405551
238 2 0.33613 0.390817 0.368433
239 4 0.344339 0.397238 0.345705
587 4 0.352648 0.414555 0.351884
752 4 0.462755 0.393523 0.387784
561 4 0.47317 0.376925 0.393302
751 2 0.476174 0.409044 0.373494
559 2 0.491761 0.36582 0.405802
776 4 0.0698307 0.48531 0.337941
500 4 0.0666859 0.465481 0.342469
499 2 0.0711671 0.459388 0.366302
501 4 0.0756483 0.453296 0.390134
548 4 0.0965934 0.424158 0.385143
407 4 0.0922689 0.44154 0.392681
406 2 0.108052 0.450245 0.41001
1555 2 0.241153 0.488594 0.388786
5 3 0.257201 0.436882 0.339939
636 4 0.253594 0.47093 0.412976
1557 4 0.26292 0.481763 0.399019
1803 4 0.381537 0.473139 0.334317
586 2 0.372636 0.429568 0.351388
593 4 0.393414 0.46529 0.347848
588 4 0.392625 0.444581 0.350892
592 2 0.41214 0.481284 0.343528
594 4 0.430867 0.497279 0.339209
712 2 0.469145 0.479602 0.339861
714 4 0.487425 0.462623 0.341518
753 4 0.489594 0.424564 0.359204
117 3 0.489199 0.44621 0.360545
719 4 0.0477067 0.99789 0.460187
718 2 0.023055 0.00123814 0.457684
369 4 0.0654017 0.00270288 0.467893
720 4 0.998403 0.00458605 0.455181
367 2 0.0828324 0.0034921 0.449985
341 4 0.195514 0.00865324 0.487314
963 4 0.302022 0.03647 0.429578
432 4 0.313458 0.0347385 0.446094
430 2 0.321045 0.0482418 0.465723
961 2 0.316431 0.0179501 0.420942
431 4 0.328631 0.0617452 0.485352
843 4 0.348683 0.0627743 0.482204
841 2 0.372602 0.0614406 0.489364
1216 2 0.427088 0.0591835 0.487384
1218 4 0.441393 0.0476948 0.470398
576 4 0.414903 0.167394 0.499122
260 4 0.0432841 0.187557 0.419953
259 2 0.0616715 0.204086 0.423679
261 4 0.0800589 0.220615 0.427405
687 4 0.0982769 0.224199 0.427859
1035 4 0.0900983 0.231586 0.442937
1033 2 0.0959571 0.2517 0.456586
466 2 0.409128 0.176262 0.419489
409 2 0.401407 0.227436 0.442485
410 4 0.415674 0.206948 0.443844
411 4 0.387139 0.247924 0.441125
468 4 0.42108 0.195562 0.42997
515 4 0.479297 0.203543 0.432795
575 4 0.417392 0.200687 0.461892
516 4 0.431293 0.200791 0.446535
574 2 0.416147 0.184041 0.480507
514 2 0.455295 0.202167 0.439665
2802 4 0.0050273 0.290561 0.425664
348 4 0.0191301 0.286685 0.412612
1034 4 0.101816 0.271814 0.470234
696 4 0.104598 0.273517 0.488718
1260 4 0.119749 0.276491 0.476917
1258 2 0.121494 0.300832 0.471475
1259 4 0.123239 0.325174 0.466032
9 3 0.15193 0.324403 0.43395
7 3 0.138422 0.334758 0.467461
488 4 0.345634 0.285351 0.404412
489 4 0.371391 0.25816 0.437547
487 2 0.358513 0.271756 0.420979
266 4 0.387956 0.26684 0.444599
265 2 0.389309 0.276141 0.467769
267 4 0.390661 0.285441 0.490939
3308 4 0.48147 0.333353 0.476091
1011 4 0.473723 0.314798 0.474855
1009 2 0.467398 0.295694 0.489694
1010 4 0.461074 0.27659 0.504534
326 4 0.0730777 0.355484 0.476239
6 1 0.143542 0.342169 0.446295
327 4 0.117273 0.342652 0.456673
325 2 0.0951752 0.349068 0.466456
10 3 0.124689 0.350277 0.436422
709 2 0.141754 0.405365 0.491827
8 3 0.159492 0.358947 0.447875
503 4 0.180914 0.338579 0.490547
334 2 0.323647 0.387691 0.421369
336 4 0.304768 0.391996 0.437188
668 4 0.301666 0.400291 0.454971
882 4 0.330248 0.381146 0.476859
3307 2 0.492108 0.34455 0.456428
1381 2 0.999259 0.479072 0.48473
1383 4 0.989767 0.465465 0.466024
384 4 0.142147 0.433529 0.476606
383 4 0.123456 0.467033 0.44453
711 4 0.130452 0.416918 0.472748
408 4 0.123836 0.45895 0.427339
382 2 0.132801 0.450281 0.460568
569 4 0.140222 0.466742 0.432497
568 2 0.146403 0.489187 0.423378
667 2 0.300526 0.425253 0.454075
774 4 0.310825 0.464349 0.448717
635 4 0.289391 0.464883 0.447367
634 2 0.271492 0.467906 0.430171
669 4 0.299385 0.450214 0.453179
773 4 0.360511 0.465999 0.443311
772 2 0.335668 0.465174 0.446014
663 4 0.443657 0.49585 0.452723
1058 4 0.111028 0.0765566 0.524968
1152 4 0.230111 0.0521179 0.511513
342 4 0.218979 0.0378984 0.520402
340 2 0.207247 0.0232758 0.503858
1150 2 0.23106 0.0620607 0.534435
1151 4 0.232009 0.0720035 0.557357
1181 4 0.244105 0.0759071 0.57088
1032 4 0.23782 0.056687 0.566415
2430 4 0.183013 0.999709 0.49978
842 4 0.396522 0.0601068 0.496524
1217 4 0.412782 0.0706722 0.50437
3007 2 0.48673 0.0375253 0.570599
1270 2 0.091453 0.151822 0.551076
1271 4 0.0977203 0.128487 0.557509
1057 2 0.109845 0.0950681 0.541734
1059 4 0.108662 0.11358 0.5585
1155 4 0.114788 0.12715 0.56986
939 4 0.0967788 0.123224 0.573372
1153 2 0.139205 0.12991 0.574481
1154 4 0.163622 0.13267 0.579102
1180 2 0.240331 0.0993975 0.578571
898 2 0.250521 0.15755 0.568456
1182 4 0.236557 0.122888 0.586261
1221 4 0.175505 0.14784 0.583675
1199 4 0.0251738 0.230166 0.575586
879 4 0.0719471 0.190311 0.550516
877 2 0.0555153 0.202597 0.564806
1272 4 0.0851857 0.175157 0.544644
878 4 0.0390836 0.214883 0.579097
1198 2 0.00332752 0.228962 0.563484
651 4 0.217553 0.215009 0.529202
858 4 0.199508 0.223407 0.525621
649 2 0.238012 0.200986 0.532359
650 4 0.258471 0.186963 0.535516
899 4 0.25622 0.176037 0.552616
695 4 0.0783086 0.26512 0.53042
982 2 0.00878644 0.279479 0.582899
694 2 0.0914534 0.269318 0.509569
946 2 0.181114 0.293662 0.567907
856 2 0.193601 0.246971 0.531536
857 4 0.187693 0.270536 0.537451
947 4 0.196634 0.28152 0.552517
798 4 0.208124 0.273296 0.565459
796 2 0.230191 0.276024 0.576893
790 2 0.266992 0.316588 0.587283
872 4 0.353441 0.30891 0.581893
2455 2 0.490663 0.254626 0.518409
2457 4 0.473106 0.272277 0.520729
3353 4 0.00620157 0.329537 0.529218
936 4 0.00547862 0.344859 0.518683
710 4 0.153056 0.393813 0.510905
504 4 0.156387 0.374325 0.515474
502 2 0.16865 0.356452 0.50301
1189 2 0.242446 0.364872 0.573285
1191 4 0.220121 0.374265 0.57949
803 4 0.275328 0.354961 0.551245
804 4 0.270098 0.344563 0.502611
802 2 0.272713 0.349762 0.526928
1190 4 0.264772 0.355479 0.567079
1238 4 0.279064 0.346486 0.570102
792 4 0.264938 0.340943 0.582009
1237 2 0.29933 0.359931 0.575906
929 4 0.358427 0.372869 0.53698
881 4 0.349385 0.364969 0.520135
880 2 0.339817 0.373058 0.498497
928 2 0.34699 0.378976 0.55836
930 4 0.335554 0.385082 0.57974
1382 4 0.00875086 0.492679 0.503436
1081 2 0.0751418 0.0770819 0.646504
4337 4 0.0221807 0.00532645 0.658064
944 4 0.0723356 0.0322499 0.678746
825 4 0.148421 0.0609441 0.662527
1082 4 0.082631 0.0633903 0.666039
1030 2 0.242831 0.0415373 0.585665
1031 4 0.247842 0.0263876 0.604914
824 4 0.174535 0.018526 0.666941
823 2 0.161478 0.039735 0.664734
2133 4 0.177046 2.36294e-05 0.666608
951 4 0.267625 0.0280897 0.610921
949 2 0.275822 0.00450863 0.612303
3008 4 0.483459 0.0286213 0.593733
809 4 0.47459 0.0127812 0.604449
808 2 0.470743 0.0292614 0.622855
810 4 0.466896 0.0457417 0.641261
45 3 0.467351 0.0691461 0.640803
41 1 0.45953 0.0622155 0.661038
42 3 0.461843 0.0393849 0.662639
43 3 0.437068 0.0676445 0.663126
3425 4 0.478666 0.0824355 0.66028
1083 4 0.0676525 0.0907735 0.626968
1127 4 0.0605165 0.0898166 0.609337
1126 2 0.0364684 0.0940722 0.603974
1128 4 0.0124203 0.0983277 0.598612
938 4 0.0784059 0.0966645 0.611552
937 2 0.0875924 0.109944 0.592462
900 4 0.244822 0.139062 0.584296
1219 2 0.19986 0.142289 0.584785
1211 4 0.245034 0.13937 0.64941
1210 2 0.240162 0.139784 0.624889
1220 4 0.224214 0.136738 0.585896
1212 4 0.23529 0.140198 0.600368
1227 4 0.24957 0.127906 0.660701
888 4 0.263978 0.140419 0.654612
886 2 0.287017 0.148422 0.660119
1225 2 0.254408 0.10628 0.672282
887 4 0.310057 0.156424 0.665626
3424 2 0.4984 0.0977643 0.661158
1244 4 0.0422091 0.212714 0.59955
1243 2 0.0375584 0.236202 0.606752
1194 4 0.326917 0.163131 0.659408
1192 2 0.339372 0.173634 0.640441
1193 4 0.351826 0.184138 0.621475
3123 4 0.476657 0.252081 0.635341
983 4 0.0269152 0.271222 0.59801
1245 4 0.0329078 0.25969 0.613953
3263 4 0.0545716 0.334233 0.609729
948 4 0.165593 0.305805 0.583297
1135 2 0.167594 0.320624 0.618221
1136 4 0.162072 0.301601 0.602963
791 4 0.269045 0.292233 0.592556
797 4 0.252259 0.278753 0.588328
871 2 0.370056 0.309407 0.600571
873 4 0.386672 0.309903 0.619248
813 4 0.393742 0.326668 0.628278
954 4 0.451559 0.284396 0.596947
952 2 0.459443 0.308087 0.595622
953 4 0.467326 0.331779 0.594297
3262 2 0.0530716 0.35848 0.615647
1041 4 0.0669261 0.393849 0.621005
3264 4 0.0515717 0.382726 0.621565
3240 4 0.0489086 0.40006 0.614138
3238 2 0.0248763 0.406571 0.616425
3239 4 0.000843932 0.413083 0.618712
822 4 0.169187 0.33818 0.65223
1039 2 0.09131 0.397707 0.62497
1040 4 0.115694 0.401565 0.628935
993 4 0.128871 0.385861 0.634637
991 2 0.148217 0.370216 0.637115
992 4 0.167563 0.354571 0.639593
1137 4 0.173117 0.339647 0.633479
1064 4 0.182239 0.351387 0.647866
897 4 0.185287 0.353438 0.629104
896 4 0.214268 0.377678 0.596343
895 2 0.199778 0.365558 0.612724
1172 4 0.21491 0.392425 0.582562
1063 2 0.197526 0.358637 0.666275
1239 4 0.319596 0.373377 0.58171
811 2 0.402032 0.348594 0.63698
1206 4 0.40366 0.382439 0.661268
927 4 0.409859 0.38852 0.644283
812 4 0.410322 0.37052 0.645681
925 2 0.420132 0.40555 0.629129
906 4 0.474077 0.35061 0.59882
904 2 0.498319 0.356652 0.599829
540 4 0.117913 0.477237 0.601012
539 4 0.0833622 0.441206 0.598064
2244 4 0.128524 0.486027 0.585912
1160 4 0.135429 0.471283 0.595913
538 2 0.100638 0.459221 0.599538
1159 2 0.157893 0.47923 0.603489
1171 2 0.222709 0.413944 0.592625
1186 2 0.214859 0.472202 0.597414
1173 4 0.230509 0.435464 0.602689
1187 4 0.231427 0.453977 0.593115
1188 4 0.198291 0.490428 0.601714
1161 4 0.180356 0.487177 0.611066
926 4 0.430404 0.42258 0.613975
1002 4 0.415418 0.436296 0.615604
1911 4 0.450033 0.493043 0.603318
1001 4 0.445522 0.475904 0.610537
1000 2 0.43047 0.4561 0.613071
1269 4 0.453868 0.490805 0.621971
1267 2 0.462875 0.492008 0.645265
1268 4 0.471881 0.493211 0.668559
943 2 0.0556201 0.0151134 0.671527
1076 4 0.0805678 0.0504126 0.681075
1075 2 0.0777157 0.0656891 0.700663
945 4 0.0389046 0.997977 0.664308
864 4 0.066545 0.072372 0.734743
1077 4 0.0748637 0.0809656 0.720251
1283 4 0.152046 0.0805236 0.66573
1148 4 0.249238 0.0680697 0.677468
2254 2 0.176449 0.994354 0.705323
2256 4 0.174821 0.007469 0.684098
1149 4 0.249794 0.0274767 0.706668
1147 2 0.249516 0.0477732 0.692068
2255 4 0.178076 0.981238 0.726549
1226 4 0.259246 0.0846542 0.683862
1004 4 0.345782 0.0772084 0.72599
1092 4 0.337705 0.0150199 0.696841
1163 4 0.472967 0.0494362 0.680437
1162 2 0.488092 0.0425002 0.6991
44 3 0.471711 0.0722023 0.678076
1107 4 0.0785771 0.0894743 0.733414
851 4 0.0711195 0.0986576 0.715725
850 2 0.0757179 0.118273 0.700917
852 4 0.0803162 0.137888 0.686109
1105 2 0.102042 0.0909343 0.741925
1282 2 0.158186 0.104178 0.671018
908 4 0.230031 0.136467 0.659389
1284 4 0.164326 0.127832 0.676307
909 4 0.184142 0.130671 0.678398
907 2 0.207086 0.133569 0.668893
829 2 0.342183 0.152162 0.694286
830 4 0.32474 0.159609 0.677994
1005 4 0.355611 0.125698 0.718721
1003 2 0.350697 0.101453 0.722355
831 4 0.359626 0.144716 0.710579
3268 2 0.495435 0.146257 0.739095
1215 4 0.99102 0.234259 0.731919
1213 2 0.997556 0.210172 0.733419
1214 4 0.00409107 0.186084 0.734919
1073 4 0.0865514 0.247923 0.722655
977 4 0.312294 0.232584 0.738477
918 4 0.294796 0.231952 0.74534
1297 2 0.285059 0.197945 0.743352
1299 4 0.26684 0.180824 0.743684
976 2 0.336497 0.236253 0.733384
978 4 0.3607 0.239922 0.72829
1025 4 0.388845 0.200871 0.691473
1020 4 0.37634 0.235276 0.741858
1024 2 0.406786 0.200598 0.708887
3270 4 0.501808 0.166626 0.726069
1142 4 0.435301 0.203087 0.741622
1144 2 0.464005 0.189393 0.721006
1262 4 0.43653 0.218057 0.730358
1026 4 0.424727 0.200325 0.7263
1261 2 0.439076 0.242197 0.724362
1145 4 0.442785 0.202577 0.72205
1146 4 0.485225 0.176209 0.719962
1178 4 0.0027924 0.249432 0.735891
1177 2 0.0196726 0.265703 0.727202
1179 4 0.0365528 0.281974 0.718513
820 2 0.156066 0.327617 0.670707
1072 2 0.111427 0.248544 0.725104
1208 4 0.139045 0.265992 0.718239
1074 4 0.136303 0.249165 0.727552
1207 2 0.145653 0.282923 0.701067
821 4 0.142945 0.317053 0.689185
1209 4 0.152261 0.299854 0.683896
1130 4 0.15056 0.260173 0.733659
815 4 0.111207 0.331679 0.72917
806 4 0.254225 0.323273 0.700183
1263 4 0.441622 0.266337 0.718366
892 2 0.0348268 0.360172 0.724162
1279 2 0.0745419 0.400578 0.733647
1280 4 0.065206 0.377552 0.736444
816 4 0.0737459 0.364656 0.726029
894 4 0.0580315 0.35764 0.733123
893 4 0.0116221 0.362705 0.7152
814 2 0.0924766 0.348168 0.7276
942 4 0.127446 0.341569 0.726322
940 2 0.147725 0.353145 0.735265
805 2 0.233772 0.337619 0.699147
1065 4 0.212814 0.365887 0.684684
807 4 0.21332 0.351965 0.69811
1028 4 0.220038 0.382757 0.687991
1066 2 0.197945 0.375545 0.720567
1068 4 0.215339 0.371453 0.703078
1027 2 0.227989 0.402804 0.67534
1067 4 0.18055 0.379637 0.738056
941 4 0.168003 0.364721 0.744207
1204 2 0.386245 0.388833 0.678032
1205 4 0.36883 0.395226 0.694796
1983 4 0.101086 0.433122 0.731841
1281 4 0.0838778 0.423604 0.730851
1981 2 0.104079 0.452025 0.747932
1029 4 0.235941 0.422852 0.662689
1176 4 0.187938 0.476363 0.74528
1175 4 0.193976 0.493278 0.698609
1174 2 0.190957 0.484821 0.721945
2016 4 0.172895 0.485899 0.754004
1140 4 0.255332 0.423049 0.66783
1138 2 0.265292 0.445439 0.672797
1139 4 0.275252 0.467828 0.677765
1987 2 0.292197 0.451818 0.726369
1229 4 0.295086 0.46269 0.682659
1989 4 0.292609 0.462234 0.703642
2028 4 0.286421 0.475034 0.690934
1228 2 0.318374 0.456524 0.675963
1230 4 0.341662 0.450359 0.669267
1101 4 0.477853 0.492099 0.688309
1099 2 0.491831 0.47745 0.702978
862 2 0.0466375 0.0730632 0.749856
2989 2 0.0169296 0.034365 0.774651
2990 4 0.0189779 0.0592705 0.773815
2991 4 0.0148813 0.00945949 0.775487
863 4 0.02673 0.0737545 0.764968
833 4 0.0210181 0.0738541 0.785293
3083 4 0.0103541 0.0777917 0.772702
2049 4 0.113657 0.00964094 0.81154
1202 4 0.122217 0.0273696 0.805364
1201 2 0.126338 0.0507207 0.797432
1203 4 0.13046 0.0740718 0.789499
32 3 0.141878 0.0864181 0.802443
1085 4 0.315432 0.0748275 0.816074
819 4 0.325023 0.0588897 0.817669
1084 2 0.299927 0.0881266 0.801655
973 2 0.378117 0.00134566 0.815405
1050 4 0.361698 0.0103205 0.782775
817 2 0.336951 0.0402409 0.806045
818 4 0.34888 0.021592 0.794421
974 4 0.366788 0.0169423 0.799481
844 2 0.495404 0.0584634 0.822507
845 4 0.497537 0.0612654 0.797752
2322 4 0.497 0.0586181 0.778981
1112 4 0.487586 0.0740644 0.785867
832 2 0.0257882 0.0913438 0.802513
834 4 0.0305583 0.108833 0.819733
1125 4 0.0209314 0.125564 0.822535
1106 4 0.125507 0.0923943 0.750437