ITEM: TIMESTEP
1700000
ITEM: NUMBER OF ATOMS
4590
ITEM: BOX BOUNDS pp pp pp
-9.9985700000000008e+00 9.9985700000000008e+00
-9.9985700000000008e+00 9.9985700000000008e+00
-9.9985700000000008e+00 9.9985700000000008e+00
ITEM: ATOMS id type xs ys zs
1666 2 0.0483102 0.0691631 0.0646383
1668 4 0.0245043 0.0722579 0.057647
1667 4 0.0721161 0.0660684 0.0716297
747 4 0.466684 0.0615128 0.00343344
2974 2 0.476894 0.0258621 0.0220727
2975 4 0.476973 0.0460312 0.00729495
745 2 0.454007 0.081785 0.0107488
2976 4 0.476815 0.0056931 0.0368505
701 4 0.0769641 0.0727742 0.0905621
566 4 0.192703 0.152798 0.0378761
565 2 0.206461 0.171971 0.0296133
2264 4 0.257603 0.160555 0.00881191
297 4 0.337329 0.12338 0.0420391
295 2 0.347417 0.111739 0.0223438
296 4 0.357504 0.100097 0.00264845
556 2 0.399722 0.101342 0.00670873
769 2 0.406809 0.154075 0.0188928
771 4 0.423358 0.140215 0.00627419
558 4 0.42419 0.0966178 0.00874723
746 4 0.441331 0.102057 0.0180641
567 4 0.220219 0.191145 0.0213506
360 4 0.325706 0.170983 0.0296502
358 2 0.349841 0.174758 0.034986
770 4 0.390261 0.167935 0.0315113
359 4 0.373975 0.178533 0.0403217
664 2 0.394672 0.204486 0.0542798
665 4 0.391974 0.182274 0.0431209
666 4 0.39737 0.226699 0.0654388
323 4 0.40667 0.242797 0.071712
555 4 0.05779 0.291919 0.0295759
553 2 0.060449 0.284118 0.00596971
287 4 0.143973 0.316914 0.039869
292 2 0.127555 0.283091 0.0196345
507 4 0.154279 0.301976 0.046963
293 4 0.140405 0.299683 0.0332269
294 4 0.114705 0.266499 0.00604223
505 2 0.170457 0.299009 0.0657949
481 2 0.225649 0.298618 0.0677243
483 4 0.200824 0.29791 0.0706178
573 4 0.268433 0.29307 0.0609042
482 4 0.250475 0.299326 0.0648309
571 2 0.278856 0.286445 0.0391634
572 4 0.289279 0.279821 0.0174226
357 4 0.291865 0.269864 0.998348
322 2 0.413822 0.259965 0.0549999
1069 2 0.398118 0.29519 0.017142
957 4 0.364906 0.31631 0.0274859
1071 4 0.375051 0.30437 0.01417
955 2 0.349008 0.31425 0.00829777
741 4 0.359013 0.332801 0.0350479
324 4 0.420973 0.277133 0.0382877
1070 4 0.421185 0.286011 0.020114
671 4 0.449059 0.329579 0.0531205
280 2 0.450936 0.303848 0.0289619
281 4 0.463094 0.316531 0.0467526
282 4 0.438779 0.291165 0.0111712
670 2 0.430491 0.335934 0.0686123
286 2 0.153341 0.335127 0.0255262
454 2 0.161863 0.381969 0.0576088
455 4 0.149273 0.362214 0.04887
552 4 0.131385 0.357597 0.0571722
550 2 0.109139 0.357672 0.0685852
288 4 0.162708 0.35334 0.0111834
456 4 0.174454 0.401725 0.0663477
551 4 0.0868919 0.357746 0.0799982
250 2 0.275917 0.416933 0.0500539
251 4 0.275517 0.401512 0.0303764
1290 4 0.289663 0.391934 0.0189739
1288 2 0.288478 0.378597 0.997858
739 2 0.368053 0.334988 0.0582576
740 4 0.377092 0.337175 0.0814673
495 4 0.389514 0.367896 0.0705195
493 2 0.38421 0.392225 0.0727821
14 3 0.393361 0.351999 0.0816402
494 4 0.378906 0.416555 0.0750446
245 4 0.238042 0.488449 0.0412124
626 4 0.222665 0.481442 0.0538793
625 2 0.203974 0.478077 0.0701434
244 2 0.245526 0.46684 0.0311012
627 4 0.185284 0.474713 0.0864075
252 4 0.276317 0.432355 0.0697313
246 4 0.253009 0.445231 0.0209901
609 4 0.286127 0.423018 0.0838746
272 4 0.270492 0.435984 0.0144963
1672 2 0.401148 0.454802 0.0641165
1673 4 0.390585 0.44781 0.085674
853 2 0.411179 0.441791 0.00636068
854 4 0.417225 0.446256 0.0302077
1674 4 0.411711 0.461793 0.0425591
563 4 0.473608 0.43196 0.0471609
562 2 0.451558 0.443454 0.0445318
564 4 0.429509 0.454947 0.0419027
18 3 0.0602945 0.0481605 0.143463
1506 4 0.251989 0.997713 0.159995
1475 4 0.295363 0.0236776 0.0980935
492 4 0.278286 0.032219 0.101847
490 2 0.281583 0.0561915 0.108142
485 4 0.382497 0.00916866 0.101728
2723 4 0.432142 0.0564491 0.134165
2722 2 0.45326 0.04459 0.140377
2724 4 0.474377 0.0327308 0.146589
1760 4 0.490522 0.0221779 0.144664
1759 2 0.497171 0.0196666 0.120692
2744 4 0.484613 0.0292237 0.162645
2469 4 0.498831 0.998175 0.0918804
700 2 0.0797132 0.0929756 0.105037
702 4 0.0824623 0.113177 0.119512
476 4 0.0868342 0.132383 0.12341
475 2 0.0868762 0.134717 0.148305
737 4 0.242408 0.159918 0.111425
491 4 0.284879 0.080164 0.114438
581 4 0.297691 0.108135 0.167356
628 2 0.361465 0.134897 0.148644
312 4 0.363759 0.0956056 0.148898
629 4 0.355336 0.111626 0.141855
630 4 0.367594 0.158167 0.155433
339 4 0.0729783 0.233781 0.1381
738 4 0.238062 0.209371 0.105406
736 2 0.240235 0.184644 0.108416
461 4 0.29947 0.234417 0.106133
460 2 0.323362 0.234501 0.113504
354 4 0.281369 0.236743 0.11453
352 2 0.274831 0.24509 0.137174
254 4 0.370777 0.175873 0.142582
462 4 0.347255 0.234586 0.120874
255 4 0.356848 0.222405 0.130686
253 2 0.363812 0.199139 0.136634
765 4 0.35965 0.236984 0.138249
624 4 0.36348 0.238314 0.119852
622 2 0.37561 0.238775 0.0979928
623 4 0.38774 0.239235 0.0761335
763 2 0.350775 0.24847 0.158609
337 2 0.0750036 0.244984 0.160362
506 4 0.186635 0.296042 0.0846269
537 4 0.189833 0.303442 0.104331
535 2 0.196823 0.322084 0.119457
353 4 0.268293 0.253438 0.159818
755 4 0.254574 0.265413 0.163448
387 4 0.332818 0.300919 0.118529
301 2 0.329605 0.302068 0.164237
302 4 0.332401 0.301887 0.139391
385 2 0.349565 0.313844 0.105201
15 3 0.374778 0.333985 0.108987
386 4 0.366312 0.326769 0.0918723
12 3 0.411984 0.331665 0.107182
518 4 0.499262 0.265789 0.0905896
528 4 0.482747 0.272239 0.0992208
526 2 0.458789 0.274871 0.0925701
527 4 0.43483 0.277502 0.0859193
315 4 0.00256353 0.375744 0.140458
647 4 0.0852457 0.352599 0.161202
417 4 0.139847 0.394951 0.142856
536 4 0.203814 0.340726 0.134583
415 2 0.161092 0.408071 0.141558
291 4 0.19998 0.414827 0.129803
289 2 0.223719 0.413761 0.137581
416 4 0.182337 0.421191 0.140259
672 4 0.411922 0.342289 0.0841042
11 1 0.393819 0.345386 0.103877
13 3 0.395853 0.363966 0.117626
595 2 0.477511 0.413839 0.124777
597 4 0.472918 0.390706 0.13308
645 4 0.461862 0.38716 0.149534
104 3 0.497006 0.356705 0.13215
1791 4 0.054697 0.482159 0.134331
1466 4 0.0562598 0.476017 0.15375
1465 2 0.0377798 0.461468 0.162233
1467 4 0.0192997 0.446918 0.170717
290 4 0.247458 0.412695 0.14536
637 2 0.238647 0.502589 0.130021
607 2 0.307219 0.427992 0.0963474
608 4 0.328311 0.432965 0.10882
768 4 0.25947 0.428162 0.146673
767 4 0.269282 0.476637 0.139286
766 2 0.264376 0.452399 0.142979
638 4 0.26155 0.494901 0.136464
659 4 0.344041 0.440551 0.119308
660 4 0.381969 0.430141 0.0884237
658 2 0.363005 0.435346 0.103866
525 4 0.403858 0.497048 0.148196
1559 4 0.360473 0.503429 0.109014
596 4 0.482105 0.436972 0.116473
16 1 0.0604327 0.0490708 0.166649
19 3 0.0566025 0.070828 0.173745
17 3 0.0436608 0.0355547 0.174721
2480 4 0.0246394 0.0309594 0.180463
1422 4 0.0195403 0.0105232 0.18497
2479 2 0.0117444 0.0460707 0.195647
20 3 0.0804695 0.0417196 0.174594
2481 4 0.998849 0.061182 0.210831
578 4 0.0979527 0.050604 0.171896
674 4 0.143134 0.0218059 0.210853
673 2 0.125619 0.0105119 0.224667
689 4 0.157059 0.00870427 0.205892
577 2 0.119989 0.0618969 0.175371
579 4 0.142024 0.0731898 0.178845
675 4 0.108103 0.999218 0.23848
654 4 0.267694 0.00176631 0.172448
652 2 0.282755 0.00106984 0.192394
653 4 0.297816 0.000373374 0.212341
25 3 0.319793 0.0507574 0.251704
311 4 0.369496 0.0722999 0.192769
758 4 0.366426 0.0533461 0.203388
759 4 0.34251 0.0527819 0.247302
757 2 0.354468 0.053064 0.225345
310 2 0.366628 0.0839527 0.170833
2743 2 0.502885 0.0303414 0.179676
511 2 0.0503586 0.137787 0.226192
513 4 0.0704985 0.142492 0.240243
381 4 0.0197507 0.124596 0.197261
512 4 0.0302187 0.133082 0.212141
379 2 0.0137718 0.101741 0.20545
393 4 0.059502 0.158646 0.247302
477 4 0.0869181 0.137052 0.173199
450 4 0.147717 0.0903033 0.169986
448 2 0.162042 0.108817 0.178773
449 4 0.176367 0.127332 0.187559
237 4 0.23997 0.127232 0.174719
691 2 0.23695 0.0990083 0.24603
693 4 0.220296 0.0936706 0.22816
236 4 0.193069 0.138755 0.187689
235 2 0.216519 0.132994 0.181204
580 2 0.277003 0.122177 0.167421
582 4 0.256315 0.13622 0.167487
28 3 0.331252 0.146306 0.240338
521 4 0.47868 0.146215 0.214672
332 4 0.48413 0.129748 0.222633
762 4 0.465241 0.137865 0.225203
760 2 0.450668 0.149554 0.241822
331 2 0.490325 0.10892 0.235002
394 2 0.029787 0.237865 0.229742
395 4 0.0530929 0.232428 0.2225
277 2 0.248648 0.229062 0.1821
279 4 0.238748 0.2068 0.18772
26 1 0.323948 0.168304 0.241411
27 3 0.327846 0.178432 0.221128
338 4 0.0770289 0.256186 0.182623
363 4 0.0647057 0.267195 0.193672
361 2 0.0802026 0.282723 0.205668
749 4 0.0813213 0.310866 0.218421
443 4 0.00816314 0.260455 0.24711
748 2 0.0852217 0.328274 0.235941
370 2 0.130574 0.302326 0.223793
372 4 0.113174 0.2896 0.211125
362 4 0.0956994 0.298251 0.217664
371 4 0.147974 0.315051 0.236461
734 4 0.161676 0.32888 0.244161
278 4 0.258548 0.251324 0.17648
285 4 0.324707 0.265636 0.189783
284 4 0.278109 0.254512 0.175444
283 2 0.301408 0.260074 0.182614
754 2 0.250808 0.284606 0.179025
756 4 0.247042 0.303798 0.194602
612 4 0.260948 0.307167 0.207434
610 2 0.254474 0.306289 0.231569
307 2 0.32555 0.290324 0.219682
308 4 0.324956 0.285017 0.195255
303 4 0.32681 0.30225 0.189083
729 4 0.323905 0.321396 0.192992
309 4 0.326144 0.295631 0.244109
611 4 0.248 0.305412 0.255704
764 4 0.341901 0.259955 0.178968
646 2 0.0840163 0.340075 0.182808
648 4 0.082787 0.327551 0.204414
727 2 0.320468 0.346101 0.194723
728 4 0.31703 0.370807 0.196454
446 4 0.43009 0.366783 0.24448
445 2 0.435874 0.381502 0.225113
447 4 0.441658 0.396221 0.205746
644 4 0.459066 0.400733 0.197583
643 2 0.460464 0.393946 0.173559
1757 4 0.106687 0.444418 0.25143
1756 2 0.104716 0.469294 0.253013
231 4 0.462041 0.464328 0.243715
229 2 0.458055 0.481924 0.226404
230 4 0.45407 0.499519 0.209092
232 2 0.0191443 0.0340417 0.29242
233 4 0.0431415 0.035053 0.285471
1404 4 0.0566536 0.020238 0.280679
1402 2 0.0731562 0.011061 0.264289
316 2 0.0707878 0.0516756 0.303855
317 4 0.0602095 0.0327715 0.291368
428 4 0.0603695 0.0185323 0.302614
318 4 0.081366 0.0705797 0.316341
234 4 0.995147 0.0330304 0.299369
732 4 0.0897681 0.0809899 0.330654
1403 4 0.0896588 0.00188395 0.247899
24 3 0.321436 0.0837542 0.269765
21 1 0.329201 0.0618957 0.2692
23 3 0.324063 0.0511471 0.289111
22 3 0.352054 0.0621873 0.266588
351 4 0.40991 0.0619682 0.271405
349 2 0.392451 0.0794234 0.275363
479 4 0.457276 0.0345907 0.302838
478 2 0.440791 0.041022 0.285172
2664 4 0.476819 0.0328679 0.299133
480 4 0.424307 0.0474533 0.267506
1428 4 0.466292 0.0228002 0.311244
258 4 0.454031 0.0355876 0.321435
2662 2 0.498391 0.0354719 0.286761
399 4 0.086387 0.0898467 0.314506
721 2 0.246333 0.115874 0.306904
722 4 0.241355 0.118629 0.331252
692 4 0.253605 0.104346 0.263899
723 4 0.251312 0.11312 0.282556
632 4 0.362598 0.102842 0.264603
350 4 0.374991 0.0968786 0.279321
631 2 0.353768 0.12566 0.25945
707 4 0.344451 0.163424 0.266233
633 4 0.344937 0.148477 0.254297
761 4 0.436095 0.161242 0.25844
391 2 0.0651841 0.176951 0.263359
392 4 0.0708662 0.195256 0.279416
546 4 0.129008 0.19131 0.274643
544 2 0.151695 0.198304 0.266797
545 4 0.174382 0.205298 0.258951
402 4 0.174434 0.224474 0.263948
30 3 0.30163 0.168871 0.245911
29 3 0.335636 0.179738 0.257874
706 2 0.348447 0.170304 0.289937
708 4 0.352444 0.177185 0.31364
269 4 0.460376 0.236075 0.333585
717 4 0.446175 0.179805 0.327116
442 2 0.01199 0.280566 0.261465
444 4 0.0158168 0.300678 0.275821
378 4 0.243706 0.25046 0.313101
400 2 0.181985 0.24702 0.271684
401 4 0.189535 0.269566 0.27942
676 2 0.176926 0.291305 0.312934
345 4 0.197055 0.286538 0.277323
677 4 0.186734 0.286206 0.290507
343 2 0.221626 0.287837 0.27288
735 4 0.188229 0.303195 0.277865
733 2 0.174953 0.316037 0.261013
344 4 0.246197 0.289135 0.268437
376 2 0.265995 0.260849 0.308577
496 2 0.313434 0.286647 0.28579
497 4 0.306304 0.277776 0.308053
377 4 0.288284 0.271237 0.304054
498 4 0.320564 0.295519 0.263527
541 2 0.39791 0.307792 0.320425
420 4 0.411738 0.279837 0.332809
543 4 0.3943 0.332185 0.324565
542 4 0.401521 0.283399 0.316284
264 4 0.0127396 0.39871 0.243809
365 4 0.0331497 0.370964 0.292864
601 2 0.0582171 0.374197 0.323197
603 4 0.0511411 0.365449 0.300869
364 2 0.00828046 0.369028 0.291145
750 4 0.0891222 0.345682 0.25346
299 4 0.154274 0.342363 0.258461
298 2 0.13042 0.348326 0.253922
300 4 0.106566 0.354288 0.249383
433 2 0.311422 0.381076 0.295483
435 4 0.288691 0.383138 0.285276
434 4 0.334154 0.379014 0.305691
614 4 0.341602 0.36502 0.31635
615 4 0.382221 0.336631 0.309656
613 2 0.361912 0.350825 0.313003
1758 4 0.102745 0.494169 0.254596
412 2 0.234575 0.465844 0.278505
1436 4 0.223611 0.468188 0.315344
413 4 0.226565 0.455802 0.299957
414 4 0.242585 0.475885 0.257053
1435 2 0.237093 0.455917 0.332457
5 3 0.282658 0.476628 0.340498
3 3 0.304171 0.448446 0.327824
1803 4 0.37875 0.486059 0.27862
1801 2 0.362033 0.500004 0.290919
119 3 0.502463 0.450978 0.31602
1742 4 0.432194 0.488382 0.333431
712 2 0.460092 0.463615 0.326666
713 4 0.436341 0.471277 0.325141
367 2 0.071306 0.0311076 0.423686
1781 4 0.0949333 0.0237413 0.406423
368 4 0.0961956 0.0333121 0.422775
730 2 0.108756 0.0694342 0.342104
1780 2 0.113063 0.0093006 0.397044
731 4 0.127744 0.0578785 0.353554
606 4 0.146031 0.0688012 0.354819
604 2 0.168821 0.0705626 0.364954
605 4 0.19161 0.0723239 0.375089
248 4 0.197782 0.0874559 0.364242
1701 4 0.333871 0.0380891 0.398576
1699 2 0.335557 0.0396963 0.373681
441 4 0.321979 0.0224716 0.409159
425 4 0.333866 0.0343266 0.416464
1700 4 0.337243 0.0413035 0.348786
699 4 0.352665 0.0391549 0.336488
697 2 0.377661 0.0385733 0.336702
698 4 0.402657 0.0379917 0.336915
257 4 0.414878 0.0429302 0.351664
724 2 0.412445 0.0828168 0.427146
2879 4 0.502031 0.0735918 0.399428
256 2 0.434454 0.0392589 0.33655
2584 2 0.013278 0.103894 0.342838
397 2 0.0685076 0.103347 0.325608
398 4 0.0506281 0.116847 0.33671
2586 4 0.0335422 0.118231 0.345838
458 4 0.0372501 0.133689 0.358436
457 2 0.0448769 0.142454 0.380576
459 4 0.0525037 0.151218 0.402716
260 4 0.0473541 0.168194 0.41405
600 4 0.15415 0.123339 0.365728
598 2 0.143623 0.145777 0.369032
249 4 0.230782 0.121194 0.347704
247 2 0.214282 0.104325 0.355973
683 4 0.239596 0.104647 0.405437
403 2 0.248473 0.150949 0.357427
404 4 0.248157 0.128586 0.346247
682 2 0.262333 0.110063 0.396558
319 2 0.303704 0.145406 0.392925
684 4 0.285071 0.11548 0.387678
321 4 0.32061 0.157426 0.406884
320 4 0.286797 0.133386 0.378966
725 4 0.416539 0.105789 0.418163
2878 2 0.501887 0.0928093 0.415423
599 4 0.133096 0.168214 0.372337
389 4 0.128747 0.226456 0.360488
686 4 0.133405 0.175641 0.391053
685 2 0.118473 0.188601 0.406358
275 4 0.146081 0.18154 0.363514
388 2 0.11565 0.247752 0.360906
687 4 0.103542 0.201562 0.421663
274 2 0.160515 0.194046 0.347375
472 2 0.2149 0.194389 0.346829
474 4 0.196 0.205243 0.334577
276 4 0.174948 0.206552 0.331236
405 4 0.248789 0.173312 0.368606
473 4 0.233801 0.183534 0.359081
715 2 0.430316 0.189826 0.343646
466 2 0.392721 0.204645 0.400002
716 4 0.414458 0.199848 0.360177
467 4 0.401927 0.203891 0.376768
270 4 0.485852 0.222376 0.374377
452 4 0.481134 0.206937 0.387875
268 2 0.473114 0.229225 0.353981
451 2 0.465632 0.210605 0.407147
419 4 0.451186 0.251013 0.343474
618 4 0.0656565 0.328716 0.374076
616 2 0.0854649 0.315922 0.365763
347 4 0.0529375 0.341023 0.383718
390 4 0.102554 0.269047 0.361323
617 4 0.105273 0.303128 0.35745
374 4 0.11294 0.284078 0.352387
373 2 0.132707 0.297185 0.344472
375 4 0.152474 0.310291 0.336556
678 4 0.167118 0.296405 0.335362
510 4 0.253058 0.324231 0.349572
488 4 0.32892 0.270392 0.418362
418 2 0.431462 0.265425 0.338141
549 4 0.0657993 0.392533 0.363018
602 4 0.0652931 0.382946 0.345526
346 2 0.0404185 0.359697 0.39466
348 4 0.0278994 0.378371 0.405603
547 2 0.0781403 0.414231 0.364452
509 4 0.205145 0.333255 0.360688
508 2 0.229101 0.328743 0.35513
668 4 0.328392 0.394718 0.410488
667 2 0.315509 0.413115 0.421477
336 4 0.336247 0.38875 0.392455
334 2 0.356916 0.377181 0.400462
335 4 0.377586 0.365612 0.408468
240 4 0.396297 0.359738 0.415262
587 4 0.435271 0.408819 0.407248
752 4 0.473012 0.400935 0.388003
561 4 0.479579 0.403476 0.406631
548 4 0.0904812 0.43593 0.365885
407 4 0.103473 0.448057 0.3738
406 2 0.106146 0.458717 0.396259
1557 4 0.281756 0.498176 0.403103
1 1 0.289646 0.455336 0.344556
438 4 0.316363 0.452506 0.346706
1437 4 0.250576 0.443647 0.34957
4 3 0.271378 0.441064 0.34556
2 3 0.300695 0.454702 0.364721
636 4 0.29982 0.488488 0.405514
437 4 0.365556 0.444445 0.342734
436 2 0.34096 0.448475 0.34472
593 4 0.396645 0.457376 0.378795
592 2 0.409471 0.464709 0.358623
714 4 0.483844 0.455952 0.328192
588 4 0.409895 0.448233 0.389832
586 2 0.422583 0.428526 0.39854
753 4 0.495843 0.43258 0.356729
117 3 0.490005 0.454832 0.35127
751 2 0.484428 0.416757 0.372366
594 4 0.422297 0.472042 0.338452
720 4 0.993014 0.0240318 0.454604
369 4 0.0464165 0.0289032 0.424597
719 4 0.0401759 0.0158017 0.440156
718 2 0.016595 0.0199167 0.44738
962 4 0.318149 0.0326131 0.427264
961 2 0.304743 0.0478703 0.441847
963 4 0.291336 0.0631275 0.45643
432 4 0.306107 0.0757217 0.460897
424 2 0.356482 0.0328273 0.42702
426 4 0.379099 0.0313281 0.437576
726 4 0.408351 0.0598445 0.436129
1218 4 0.412471 0.0575625 0.476552
430 2 0.3103 0.0888864 0.481736
2880 4 0.501742 0.112027 0.431418
642 4 0.492002 0.120611 0.445776
640 2 0.479914 0.136551 0.460775
641 4 0.467826 0.152492 0.475774
259 2 0.065942 0.184134 0.419108
261 4 0.0845299 0.200074 0.424166
1035 4 0.0946699 0.216996 0.428288
1033 2 0.0921057 0.233603 0.446803
1034 4 0.0895415 0.250209 0.465319
651 4 0.307634 0.234974 0.497518
489 4 0.345874 0.241345 0.455369
468 4 0.383514 0.205398 0.423237
411 4 0.356664 0.228522 0.46756
516 4 0.404679 0.192927 0.450488
409 2 0.372923 0.21455 0.454692
410 4 0.389182 0.200577 0.441823
575 4 0.398809 0.187759 0.47041
266 4 0.35436 0.241163 0.483429
574 2 0.399543 0.168133 0.485885
514 2 0.428794 0.197497 0.445717
515 4 0.452909 0.202067 0.440946
453 4 0.45013 0.214273 0.426419
2847 4 0.992812 0.304564 0.443554
1258 2 0.107467 0.284423 0.470554
1259 4 0.127021 0.299996 0.469993
9 3 0.129407 0.319381 0.471849
1260 4 0.0879132 0.26885 0.471116
696 4 0.0815204 0.253454 0.482313
10 3 0.145824 0.328467 0.439206
858 4 0.231255 0.270086 0.497437
487 2 0.337397 0.255868 0.436865
265 2 0.352292 0.256506 0.503062
584 4 0.497104 0.262496 0.488957
326 4 0.0603318 0.330301 0.48088
325 2 0.0818508 0.34055 0.473325
6 1 0.136506 0.336788 0.458247
7 3 0.118353 0.3498 0.45274
327 4 0.10337 0.350798 0.46577
709 2 0.158971 0.406678 0.477471
8 3 0.151965 0.349882 0.469559
711 4 0.134549 0.412024 0.477077
384 4 0.125495 0.420683 0.460766
503 4 0.219018 0.357808 0.464061
502 2 0.207206 0.374984 0.477868
710 4 0.183393 0.401332 0.477865
504 4 0.195393 0.39216 0.491675
238 2 0.414639 0.376562 0.417655
882 4 0.388282 0.377339 0.48647
3309 4 0.490669 0.407697 0.465217
559 2 0.490343 0.401684 0.429128
3307 2 0.488074 0.401375 0.489269
239 4 0.43298 0.393386 0.420049
1381 2 0.00581276 0.479393 0.465088
1383 4 0.0012112 0.454817 0.46496
680 4 0.0111116 0.450507 0.447536
408 4 0.108819 0.469377 0.418718
570 4 0.168284 0.500525 0.439416
569 4 0.126391 0.477156 0.425288
382 2 0.123069 0.440122 0.445229
568 2 0.147338 0.488841 0.432352
383 4 0.120643 0.459561 0.429691
1545 4 0.186762 0.493962 0.444091
1543 2 0.203617 0.487959 0.426625
1544 4 0.220473 0.481956 0.409159
772 2 0.316632 0.445159 0.468608
635 4 0.311217 0.448209 0.432872
669 4 0.302626 0.431513 0.432466
773 4 0.315625 0.454674 0.491709
774 4 0.31764 0.435644 0.445508
634 2 0.305519 0.468348 0.419193
662 4 0.478029 0.491788 0.482106
663 4 0.48235 0.473219 0.435876
661 2 0.480189 0.482503 0.458991
2428 2 0.153293 0.00884453 0.523433
342 4 0.197293 0.0728578 0.516565
340 2 0.190942 0.0487333 0.514876
1152 4 0.208517 0.0766396 0.533661
341 4 0.184591 0.0246088 0.513187
2430 4 0.167491 0.0293997 0.524477
1032 4 0.257029 0.0735129 0.566029
1217 4 0.390817 0.0688793 0.520184
842 4 0.371867 0.0734296 0.525496
1216 2 0.401644 0.0632209 0.498368
3007 2 0.487584 0.035362 0.572896
3009 4 0.498756 0.0476599 0.554211
470 4 0.0231498 0.162591 0.523113
1058 4 0.0930896 0.110182 0.524219
1057 2 0.105408 0.111906 0.545909
1059 4 0.117726 0.11363 0.5676
1155 4 0.116144 0.128475 0.57888
1150 2 0.224053 0.0770059 0.553249
1151 4 0.239589 0.0773723 0.572836
1180 2 0.215972 0.139561 0.551256
1181 4 0.206029 0.118455 0.560247
843 4 0.335329 0.0984221 0.502237
431 4 0.314494 0.102051 0.502576
841 2 0.353598 0.0859259 0.513866
576 4 0.400278 0.148507 0.501359
1199 4 0.0190486 0.21827 0.581633
1198 2 0.999028 0.223404 0.567561
469 2 0.00897484 0.182261 0.529224
471 4 0.9948 0.20193 0.535334
695 4 0.0980943 0.229435 0.522922
1244 4 0.044324 0.239534 0.576909
878 4 0.0360564 0.225849 0.589035
877 2 0.052406 0.207278 0.58543
694 2 0.0898074 0.241444 0.502618
1182 4 0.225915 0.160667 0.542265
900 4 0.241284 0.166216 0.529486
857 4 0.217094 0.259668 0.544252
898 2 0.256663 0.18449 0.536884
650 4 0.282392 0.217233 0.536873
899 4 0.272041 0.202765 0.544282
649 2 0.295013 0.226103 0.517196
982 2 0.0191676 0.320911 0.572559
1243 2 0.0455 0.264457 0.57854
983 4 0.038007 0.304796 0.569309
947 4 0.216813 0.255891 0.562919
798 4 0.226383 0.253035 0.581019
856 2 0.224174 0.264877 0.520845
946 2 0.19354 0.262508 0.569223
948 4 0.170266 0.269126 0.575527
796 2 0.250197 0.260459 0.5793
797 4 0.274011 0.267883 0.577581
792 4 0.300679 0.319496 0.583569
872 4 0.35931 0.269388 0.573163
871 2 0.367528 0.292966 0.574472
873 4 0.375746 0.316544 0.575782
267 4 0.350223 0.27185 0.522696
984 4 0.000328202 0.337026 0.575808
1190 4 0.265999 0.354228 0.585249
803 4 0.271105 0.360833 0.566279
804 4 0.282249 0.386975 0.525132
802 2 0.276677 0.373904 0.545706
930 4 0.327565 0.362284 0.559744
1239 4 0.328012 0.372858 0.578427
811 2 0.400191 0.338386 0.585266
928 2 0.330652 0.380507 0.542904
929 4 0.333738 0.39873 0.526064
881 4 0.352551 0.398836 0.514071
880 2 0.370417 0.388087 0.50027
812 4 0.424991 0.341512 0.585899
1011 4 0.482252 0.375764 0.510616
1009 2 0.48802 0.352205 0.51669
927 4 0.425505 0.359946 0.575827
925 2 0.434725 0.379271 0.562915
3308 4 0.48548 0.395054 0.513321
926 4 0.443945 0.398597 0.550004
539 4 0.0908906 0.420936 0.568441
538 2 0.095428 0.445518 0.567892
540 4 0.0999655 0.470101 0.567342
1160 4 0.112272 0.48469 0.564159
1159 2 0.132394 0.484925 0.578999
2244 4 0.0931725 0.488181 0.562729
2154 4 0.227639 0.476295 0.575285
1952 4 0.359327 0.496748 0.544358
890 4 0.355354 0.491488 0.563018
889 2 0.344939 0.484795 0.584742
1002 4 0.446385 0.415642 0.559688
1909 2 0.430465 0.488599 0.578925
1000 2 0.449005 0.435804 0.574242
1081 2 0.0674889 0.0738772 0.64598
825 4 0.140842 0.024836 0.672484
823 2 0.158496 0.0129462 0.659362
824 4 0.176149 0.00105643 0.646241
1031 4 0.272706 0.0445438 0.603656
1030 2 0.264868 0.0590284 0.584843
951 4 0.287676 0.0313698 0.606012
949 2 0.300223 0.010971 0.598826
3008 4 0.476412 0.0230642 0.591581
809 4 0.479294 0.0383645 0.602724
808 2 0.470728 0.04766 0.624297
810 4 0.462162 0.0569554 0.64587
45 3 0.45579 0.0780106 0.646672
1083 4 0.0656601 0.078405 0.621458
1126 2 0.024576 0.0913586 0.610697
1127 4 0.0462598 0.0851747 0.621502
938 4 0.079712 0.0933863 0.618333
1128 4 0.00289211 0.0975425 0.599892
1271 4 0.0964254 0.135259 0.582025
939 4 0.101801 0.116975 0.58017
937 2 0.0907565 0.105181 0.599252
1153 2 0.139769 0.126041 0.586695
1270 2 0.0914672 0.159342 0.586565
1221 4 0.181435 0.118569 0.603548
1154 4 0.163395 0.123608 0.59451
1219 2 0.191301 0.138426 0.615104
1210 2 0.240716 0.174824 0.631946
1220 4 0.201167 0.158283 0.62666
1211 4 0.265006 0.17973 0.628608
887 4 0.32347 0.169151 0.665645
1194 4 0.330504 0.1532 0.655289
1192 2 0.349629 0.140666 0.645174
1193 4 0.368754 0.128133 0.635058
3426 4 0.496075 0.127812 0.654478
3424 2 0.481432 0.108072 0.659073
879 4 0.0687557 0.188707 0.581826
1272 4 0.0865089 0.183425 0.591104
1212 4 0.216427 0.169918 0.635283
886 2 0.304049 0.174394 0.650794
888 4 0.284629 0.179636 0.635943
1245 4 0.046676 0.289379 0.58017
1137 4 0.163572 0.33035 0.60657
1135 2 0.166629 0.307637 0.596573
1136 4 0.169686 0.284924 0.586575
822 4 0.180954 0.294183 0.663171
1064 4 0.190576 0.310031 0.669126
1063 2 0.194907 0.334648 0.669781
791 4 0.279041 0.275711 0.594308
790 2 0.28986 0.297604 0.588938
1238 4 0.308304 0.331325 0.598106
806 4 0.29801 0.316487 0.647275
813 4 0.375392 0.33526 0.584634
906 4 0.491055 0.314393 0.58294
953 4 0.4825 0.312172 0.600722
952 2 0.479075 0.287661 0.597164
954 4 0.47565 0.26315 0.593606
3123 4 0.487992 0.277748 0.672955
1041 4 0.051541 0.399124 0.635566
3264 4 0.0327881 0.398899 0.64413
3262 2 0.0279651 0.380371 0.660211
3240 4 0.01592 0.407763 0.643073
1039 2 0.0745057 0.390014 0.631718
1040 4 0.0974703 0.380903 0.62787
993 4 0.10638 0.364525 0.621323
991 2 0.127267 0.353113 0.613663
992 4 0.148154 0.3417 0.606004
1189 2 0.243501 0.364352 0.589318
897 4 0.16416 0.347191 0.616174
896 4 0.207577 0.371206 0.609933
895 2 0.185869 0.359198 0.613053
1172 4 0.225558 0.394013 0.59515
1191 4 0.221004 0.374476 0.593387
1065 4 0.199237 0.359265 0.670437
1237 2 0.318158 0.352091 0.588267
1206 4 0.389483 0.372106 0.603951
1204 2 0.401443 0.391907 0.613439
3238 2 0.995939 0.421798 0.637691
1161 4 0.152516 0.48516 0.593839
1188 4 0.155144 0.469266 0.605507
1171 2 0.221908 0.417372 0.603286
1186 2 0.178072 0.459318 0.604786
1173 4 0.218259 0.440731 0.611423
1187 4 0.201001 0.449371 0.604065
891 4 0.334525 0.478103 0.606466
1230 4 0.362796 0.448545 0.667853
1205 4 0.413403 0.411709 0.622927
1911 4 0.448313 0.474798 0.589702
1001 4 0.451625 0.455966 0.588796
1269 4 0.458927 0.467951 0.603517
1267 2 0.467744 0.486038 0.618359
1268 4 0.47656 0.504126 0.633202
1082 4 0.0693177 0.0693494 0.670502
943 2 0.0497395 0.021919 0.686855
944 4 0.0579371 0.0454543 0.688871
1076 4 0.05937 0.0649702 0.6875
1075 2 0.0613895 0.0841575 0.703404
1283 4 0.146092 0.0428011 0.67905
1282 2 0.147031 0.0670069 0.685245
1148 4 0.253429 0.0804849 0.688087
1147 2 0.258453 0.0560121 0.687073
1149 4 0.263477 0.0315394 0.68606
1092 4 0.332759 0.0138245 0.698958
1004 4 0.356844 0.0815459 0.730006
42 3 0.458221 0.0471978 0.667589
41 1 0.450525 0.0688629 0.666852
43 3 0.427501 0.0687462 0.669727
1163 4 0.468979 0.0612163 0.684069
1162 2 0.488329 0.053347 0.697811
44 3 0.460575 0.0809776 0.6839
864 4 0.0528379 0.105341 0.734556
1077 4 0.063409 0.103345 0.719308
1107 4 0.0720548 0.110767 0.734639
851 4 0.0727356 0.119255 0.715175
862 2 0.0330901 0.100408 0.749078
850 2 0.0837089 0.132346 0.696916
852 4 0.0946821 0.145438 0.678657
1284 4 0.147971 0.0912128 0.691439
1105 2 0.0870763 0.0971329 0.749256
909 4 0.145619 0.111307 0.695137
907 2 0.162634 0.112763 0.713401
1226 4 0.237582 0.0925766 0.694723
908 4 0.179648 0.114218 0.731665
1227 4 0.19589 0.105728 0.719003
1225 2 0.216736 0.0991522 0.706863
830 4 0.319272 0.168381 0.684841
829 2 0.320274 0.153805 0.705132
831 4 0.321276 0.139229 0.725423
1005 4 0.336372 0.127067 0.733073
1003 2 0.346608 0.104307 0.73154
3425 4 0.46679 0.0883323 0.663668
1179 4 0.016522 0.256416 0.68839
1177 2 0.00339805 0.238511 0.699895
1073 4 0.0724634 0.211712 0.754063
1072 2 0.0924334 0.226002 0.749353
1074 4 0.112403 0.240292 0.744644
1208 4 0.130202 0.242661 0.749222
978 4 0.265029 0.206198 0.736895
1142 4 0.44929 0.177405 0.732059
1144 2 0.486618 0.172557 0.728318
1025 4 0.432148 0.176746 0.669327
1262 4 0.465848 0.201927 0.716541
1024 2 0.441966 0.181589 0.691807
1026 4 0.451785 0.186431 0.714286
1261 2 0.465568 0.224741 0.726768
1145 4 0.465469 0.18534 0.724511
1209 4 0.14337 0.267916 0.708119
1207 2 0.136786 0.255289 0.728671
821 4 0.147403 0.265941 0.687201
820 2 0.164178 0.280062 0.675186
805 2 0.278309 0.320032 0.662257
807 4 0.258607 0.323577 0.677239
1263 4 0.465288 0.247556 0.736994
3263 4 0.023142 0.361842 0.676293
1280 4 0.0443607 0.359611 0.745414
1279 2 0.0472209 0.38317 0.737542
1281 4 0.0500811 0.406729 0.72967
894 4 0.0293549 0.347259 0.738659
892 2 0.00844389 0.344912 0.752164
941 4 0.162494 0.344226 0.757805
1028 4 0.223516 0.375569 0.715395
1066 2 0.199217 0.351327 0.732499
1068 4 0.219498 0.355836 0.718587
1027 2 0.230063 0.397974 0.706431
1029 4 0.236611 0.420378 0.697466
1018 2 0.384461 0.348677 0.719736
1020 4 0.386068 0.367291 0.70312
1019 4 0.382854 0.330063 0.736353
1983 4 0.0551023 0.425611 0.730947
1981 2 0.065321 0.446797 0.739427
1175 4 0.203995 0.455078 0.715497
1174 2 0.19285 0.477146 0.719237
1176 4 0.181705 0.499214 0.722977
1138 2 0.262794 0.449132 0.686326
1140 4 0.249185 0.428294 0.68393
1139 4 0.276404 0.46997 0.688722
1987 2 0.303876 0.473913 0.731813
1229 4 0.325096 0.463486 0.697114
1989 4 0.314447 0.475309 0.709197
1228 2 0.343946 0.456016 0.682484
1988 4 0.293305 0.472516 0.754428
2028 4 0.285159 0.480917 0.672956
2991 4 0.0112919 0.0405846 0.797453
2989 2 0.0103258 0.0639626 0.788638
2990 4 0.0093597 0.0873407 0.779822
2049 4 0.121038 0.0164907 0.784644
1202 4 0.107246 0.0297746 0.790068
2047 2 0.13421 0.00202499 0.769075
1201 2 0.111143 0.0544723 0.790176
1203 4 0.115041 0.07917 0.790284
1257 4 0.225512 0.0777351 0.778363
817 2 0.329375 0.0461362 0.817967
819 4 0.320513 0.0679389 0.82641
1085 4 0.304338 0.0788117 0.827559
818 4 0.338237 0.0243335 0.809524
974 4 0.343401 0.005788 0.803245
844 2 0.4934 0.0922026 0.78728
1113 4 0.427429 0.0505085 0.752553
1111 2 0.448214 0.0605335 0.76218
845 4 0.488459 0.0706598 0.775589
1112 4 0.468998 0.0705586 0.771807
863 4 0.0133422 0.0954755 0.763599
1125 4 0.0202024 0.138681 0.816194
1123 2 0.0435666 0.138771 0.825099
1124 4 0.0669309 0.138862 0.834003
1106 4 0.102098 0.0834993 0.763873
911 4 0.111229 0.102833 0.817525
34 3 0.115651 0.0941728 0.77276
31 1 0.122084 0.104585 0.792473
35 3 0.106462 0.119989 0.798582
32 3 0.123936 0.0887026 0.80901
33 3 0.142678 0.114892 0.789632
840 4 0.254647 0.111901 0.82398
1255 2 0.231788 0.0886396 0.79997
1256 4 0.238065 0.0995441 0.821577
1084 2 0.297632 0.0914072 0.807027
1086 4 0.290926 0.104003 0.786495
47 3 0.400273 0.167194 0.813328
48 3 0.401576 0.173251 0.776257
1023 4 0.400992 0.158383 0.830759
846 4 0.498342 0.113745 0.79897
1130 4 0.132243 0.237611 0.766892
1129 2 0.153444 0.234037 0.779655
1277 4 0.186932 0.247215 0.792535
1131 4 0.174646 0.230463 0.792417
977 4 0.293273 0.214156 0.777388
918 4 0.286395 0.232177 0.785206
976 2 0.279151 0.210177 0.757142