ITEM: TIMESTEP
2100000
ITEM: NUMBER OF ATOMS
4590
ITEM: BOX BOUNDS pp pp pp
-9.9985700000000008e+00 9.9985700000000008e+00
-9.9985700000000008e+00 9.9985700000000008e+00
-9.9985700000000008e+00 9.9985700000000008e+00
ITEM: ATOMS id type xs ys zs
1666 2 0.0304673 0.0751119 0.0572691
1668 4 0.0327166 0.0537539 0.0444646
1474 2 0.279549 0.0111364 0.0728538
1475 4 0.274014 0.0353647 0.0755988
2974 2 0.467028 0.0265531 0.0125857
2976 4 0.477642 0.00744245 0.0247232
745 2 0.446084 0.0831137 0.00647381
486 4 0.428039 0.00763934 0.0773322
2975 4 0.456415 0.0456638 0.000448218
1667 4 0.0282179 0.0964699 0.0700736
701 4 0.0472663 0.102548 0.0671523
566 4 0.184324 0.166905 0.0399565
565 2 0.197368 0.164911 0.0187185
297 4 0.324869 0.0997846 0.0278097
491 4 0.268977 0.0895176 0.0747916
295 2 0.340091 0.110304 0.0109921
556 2 0.394577 0.113645 0.00933123
558 4 0.415294 0.110693 0.0230155
746 4 0.431835 0.101838 0.0149326
770 4 0.402056 0.191041 0.0187107
359 4 0.386702 0.184588 0.0275947
358 2 0.367626 0.191395 0.0129325
664 2 0.40215 0.207381 0.0529056
665 4 0.402524 0.187088 0.0383031
666 4 0.401776 0.227674 0.0675082
323 4 0.402089 0.246919 0.0704287
623 4 0.394564 0.235164 0.0831242
769 2 0.421306 0.178677 0.00862272
555 4 0.0405985 0.250809 0.00364062
2808 4 0.00468267 0.280645 0.018502
2806 2 0.00226217 0.282831 0.0432919
287 4 0.155101 0.301825 0.0322253
292 2 0.127288 0.277855 0.0338284
507 4 0.151984 0.298649 0.0516102
293 4 0.150743 0.285932 0.0369642
294 4 0.103834 0.269779 0.0306927
551 4 0.0888442 0.320125 0.0714795
550 2 0.109241 0.331877 0.0630504
286 2 0.169946 0.312766 0.0153402
505 2 0.169961 0.295988 0.0687835
481 2 0.221891 0.280193 0.0621066
482 4 0.238718 0.27035 0.0464495
483 4 0.205064 0.290037 0.0777636
573 4 0.257273 0.266026 0.0512394
571 2 0.27305 0.268774 0.0320375
572 4 0.288827 0.271522 0.0128356
357 4 0.308312 0.269426 0.0164577
355 2 0.318336 0.287271 0.00209536
1069 2 0.395916 0.312209 0.0248516
1071 4 0.377146 0.328509 0.0275271
322 2 0.407045 0.263514 0.0523947
955 2 0.348901 0.332427 0.00674481
324 4 0.412 0.28011 0.0343608
1070 4 0.414686 0.295908 0.0221762
671 4 0.451804 0.318988 0.0794531
280 2 0.447067 0.302387 0.0446833
281 4 0.460001 0.30884 0.0650858
282 4 0.434134 0.295935 0.0242807
455 4 0.148675 0.349524 0.0557775
552 4 0.129637 0.34363 0.0546213
454 2 0.16014 0.370379 0.048107
456 4 0.171604 0.391233 0.0404364
1290 4 0.270948 0.394777 0.0245354
252 4 0.282213 0.397277 0.0760018
250 2 0.276405 0.405246 0.0530246
251 4 0.270597 0.413214 0.0300475
1288 2 0.275821 0.377555 0.00707623
741 4 0.365204 0.3387 0.037383
739 2 0.369796 0.342139 0.0617193
957 4 0.36972 0.341891 0.0168541
493 2 0.389927 0.392312 0.0736595
495 4 0.394061 0.367653 0.0735193
1788 4 0.0863473 0.476574 0.0330948
1786 2 0.0996584 0.497626 0.030903
626 4 0.219181 0.474532 0.062676
625 2 0.197946 0.485393 0.0701775
245 4 0.236464 0.484267 0.0637237
244 2 0.248819 0.464829 0.053991
627 4 0.17671 0.496254 0.077679
246 4 0.261173 0.445392 0.0442583
272 4 0.262803 0.431508 0.0289491
271 2 0.271319 0.434917 0.00568911
494 4 0.385792 0.416971 0.0737996
1672 2 0.404048 0.444408 0.0546179
660 4 0.373648 0.430374 0.0766642
1673 4 0.390689 0.437496 0.0745915
853 2 0.407356 0.439299 0.000197162
854 4 0.424382 0.446018 0.0172307
1674 4 0.417407 0.451319 0.0346444
563 4 0.483824 0.458139 0.0275975
562 2 0.458843 0.458493 0.0286076
564 4 0.433862 0.458846 0.0296176
228 4 0.492399 0.45225 0.0461329
18 3 0.0618613 0.0202892 0.149585
19 3 0.0657231 0.0572873 0.157373
578 4 0.0873571 0.0536162 0.165934
492 4 0.2712 0.0431086 0.0932842
490 2 0.270089 0.0663131 0.0840379
1506 4 0.253828 0.0148957 0.155247
484 2 0.416377 0.00176548 0.0986551
2722 2 0.484745 0.0643252 0.152279
2724 4 0.488903 0.0397012 0.151036
1761 4 0.486464 0.999775 0.10272
1759 2 0.486754 0.0103012 0.125399
1760 4 0.487044 0.0208271 0.148077
2744 4 0.493894 0.0294291 0.165598
700 2 0.0531462 0.114358 0.0883918
702 4 0.059026 0.126169 0.109631
476 4 0.0780379 0.123856 0.116279
475 2 0.0989325 0.135856 0.122958
477 4 0.119827 0.147856 0.129636
237 4 0.232812 0.113547 0.15706
582 4 0.252519 0.122683 0.157953
580 2 0.266244 0.102853 0.151353
581 4 0.279969 0.0830232 0.144752
628 2 0.375691 0.146399 0.159856
630 4 0.369479 0.160823 0.1404
2723 4 0.480587 0.0889492 0.153523
339 4 0.0478571 0.232255 0.144158
337 2 0.0547445 0.241839 0.166201
738 4 0.206191 0.220664 0.091688
737 4 0.22945 0.177155 0.0998518
736 2 0.217821 0.198909 0.0957699
460 2 0.321004 0.232825 0.109249
352 2 0.2691 0.242642 0.122633
353 4 0.258072 0.248633 0.144258
461 4 0.298899 0.231301 0.0976637
354 4 0.280127 0.23665 0.101007
278 4 0.252821 0.243709 0.159322
254 4 0.367759 0.177229 0.152199
462 4 0.343109 0.234349 0.120835
255 4 0.353842 0.220111 0.130563
253 2 0.360801 0.19867 0.141381
765 4 0.352219 0.237823 0.137291
624 4 0.362443 0.234703 0.121449
622 2 0.378503 0.234933 0.102287
506 4 0.187938 0.293327 0.0859568
755 4 0.240326 0.255568 0.150595
537 4 0.18024 0.304092 0.100999
535 2 0.186038 0.303494 0.125314
754 2 0.241464 0.279373 0.158158
536 4 0.191836 0.302896 0.149628
756 4 0.242602 0.303178 0.16572
387 4 0.325754 0.30556 0.111642
301 2 0.325061 0.30238 0.152735
284 4 0.268956 0.253006 0.161795
302 4 0.332929 0.308511 0.129807
763 2 0.341921 0.250899 0.155949
385 2 0.344127 0.320205 0.103088
527 4 0.466425 0.306565 0.0835202
670 2 0.431101 0.329843 0.0883266
526 2 0.488559 0.307022 0.0951407
647 4 0.0717808 0.343057 0.165478
415 2 0.175348 0.405749 0.161376
291 4 0.211569 0.385331 0.143343
289 2 0.233332 0.396913 0.139169
416 4 0.195292 0.397458 0.14878
609 4 0.291308 0.398053 0.0937181
290 4 0.255094 0.408495 0.134994
386 4 0.362499 0.334849 0.0945343
15 3 0.368505 0.341309 0.112412
740 4 0.374389 0.345579 0.0860557
12 3 0.404785 0.335914 0.119307
672 4 0.410398 0.340698 0.0972
14 3 0.394245 0.353178 0.0876288
11 1 0.389323 0.350252 0.110115
13 3 0.390459 0.370612 0.121187
595 2 0.472495 0.415911 0.144395
596 4 0.461064 0.41372 0.122266
102 3 0.488971 0.345008 0.131949
1791 4 0.0587155 0.498189 0.152516
1466 4 0.063544 0.483795 0.138264
1465 2 0.0541258 0.460981 0.142262
1467 4 0.0447075 0.438166 0.146259
638 4 0.241225 0.491423 0.129542
767 4 0.24374 0.471204 0.132591
607 2 0.305673 0.417987 0.0983522
766 2 0.252923 0.448167 0.129407
768 4 0.262106 0.42513 0.126222
608 4 0.320038 0.43792 0.102986
659 4 0.335481 0.450484 0.101955
658 2 0.354565 0.440429 0.0893095
1559 4 0.363921 0.489285 0.0971618
1558 2 0.341711 0.498057 0.104577
524 4 0.383126 0.485464 0.0933904
523 2 0.398848 0.485307 0.112832
525 4 0.41457 0.48515 0.132274
16 1 0.0659843 0.0358644 0.166283
17 3 0.0494708 0.0342348 0.182214
2480 4 0.0371864 0.0242714 0.188904
1422 4 0.0262951 0.00641127 0.187626
2479 2 0.0181995 0.040497 0.19009
577 2 0.105933 0.0702908 0.167372
20 3 0.0861786 0.0317195 0.175961
674 4 0.159744 0.0135459 0.22292
673 2 0.138281 0.00591726 0.23323
1504 2 0.234926 0.00338732 0.166884
688 2 0.191048 0.00283068 0.208672
689 4 0.179685 0.0166573 0.226133
652 2 0.289123 0.010686 0.181961
653 4 0.31009 0.00583997 0.194693
25 3 0.321195 0.0471841 0.238619
654 4 0.268156 0.015532 0.16923
758 4 0.364061 0.0520449 0.187319
759 4 0.342593 0.0521773 0.232484
757 2 0.353327 0.0521111 0.209901
311 4 0.373093 0.0705448 0.189559
22 3 0.352648 0.0644466 0.248895
2743 2 0.499362 0.0263779 0.189805
511 2 0.0456301 0.136759 0.193837
512 4 0.0223722 0.129189 0.188647
381 4 0.00278599 0.122849 0.188746
513 4 0.068888 0.144329 0.199028
393 4 0.0656356 0.162953 0.201055
448 2 0.160321 0.0899208 0.180009
450 4 0.135645 0.0918381 0.183555
579 4 0.124509 0.0869653 0.168809
449 4 0.184998 0.0880035 0.176463
235 2 0.216422 0.103562 0.173087
236 4 0.200032 0.0935774 0.189113
693 4 0.260476 0.0839278 0.241464
28 3 0.323063 0.152552 0.229411
312 4 0.388374 0.114249 0.170662
629 4 0.381903 0.131975 0.179312
310 2 0.380733 0.0923971 0.18011
521 4 0.481574 0.149235 0.224397
332 4 0.484056 0.130334 0.225991
762 4 0.468869 0.139469 0.235176
760 2 0.453307 0.156818 0.244232
331 2 0.492812 0.108565 0.234628
391 2 0.0871996 0.172703 0.209125
392 4 0.108764 0.182452 0.217195
279 4 0.228426 0.205662 0.180723
277 2 0.240624 0.224686 0.170022
394 2 0.0118699 0.258837 0.216555
395 4 0.0342156 0.259175 0.205342
338 4 0.061632 0.251423 0.188244
363 4 0.0546124 0.258582 0.205076
361 2 0.0631049 0.281536 0.210189
749 4 0.0587261 0.315612 0.223284
648 4 0.0744629 0.3226 0.211031
362 4 0.0715975 0.304491 0.215302
748 2 0.0671054 0.327396 0.243682
646 2 0.0731219 0.332829 0.188254
370 2 0.112718 0.303841 0.216238
372 4 0.088972 0.306588 0.208905
371 4 0.136463 0.301094 0.223571
734 4 0.142427 0.312893 0.236746
733 2 0.1631 0.304897 0.248316
610 2 0.245033 0.312942 0.209321
612 4 0.240667 0.305459 0.185866
344 4 0.239256 0.310737 0.247619
283 2 0.291343 0.258334 0.171575
611 4 0.249399 0.320424 0.232775
285 4 0.313729 0.263663 0.181354
307 2 0.321423 0.284197 0.211248
308 4 0.323341 0.279085 0.186848
303 4 0.317192 0.296249 0.175662
729 4 0.310679 0.313222 0.180706
309 4 0.319505 0.289308 0.235649
764 4 0.331622 0.263975 0.174607
264 4 0.00290297 0.388759 0.242745
417 4 0.155404 0.41404 0.173973
727 2 0.309799 0.335408 0.192204
728 4 0.30892 0.357593 0.203703
446 4 0.391659 0.383742 0.233806
445 2 0.415737 0.390472 0.233505
645 4 0.476432 0.412204 0.183971
447 4 0.439816 0.397203 0.233203
644 4 0.437793 0.405885 0.215081
643 2 0.457113 0.409044 0.199526
414 4 0.222309 0.462347 0.221472
412 2 0.221435 0.467489 0.245926
597 4 0.483926 0.418102 0.166525
229 2 0.44717 0.481299 0.22364
231 4 0.458166 0.458876 0.224844
427 2 0.0723607 0.00114874 0.327099
2755 2 0.000915477 0.0646834 0.318349
234 4 0.0161581 0.0372554 0.288545
232 2 0.0411491 0.0378098 0.287981
233 4 0.0661402 0.0383642 0.287417
1404 4 0.0794847 0.0243266 0.289047
317 4 0.0765397 0.035006 0.304461
428 4 0.0788937 0.0164579 0.308441
2756 4 0.00847812 0.0504438 0.299239
2478 4 0.999397 0.0504767 0.282997
316 2 0.0917969 0.0537066 0.310995
1402 2 0.0898074 0.0111498 0.270473
318 4 0.107054 0.0724072 0.317528
730 2 0.137517 0.0814308 0.322517
731 4 0.159627 0.0728268 0.33041
24 3 0.319397 0.0792573 0.258259
21 1 0.331061 0.0594525 0.255075
23 3 0.331537 0.0472778 0.274822
349 2 0.38646 0.0603025 0.259159
351 4 0.407774 0.0472294 0.259065
350 4 0.365147 0.0733757 0.259253
480 4 0.422136 0.0374694 0.250971
479 4 0.452631 0.0271503 0.289237
478 2 0.437384 0.0323099 0.270104
2664 4 0.470777 0.0240024 0.29354
1428 4 0.455154 0.013887 0.299783
258 4 0.443268 0.0282473 0.306477
2662 2 0.490424 0.0378134 0.300497
256 2 0.431813 0.0430924 0.323018
397 2 0.0787414 0.105114 0.327108
398 4 0.0603416 0.121341 0.331937
399 4 0.0971413 0.0888874 0.322278
732 4 0.115407 0.0900349 0.314624
722 4 0.241146 0.129371 0.330949
26 1 0.315959 0.155711 0.251273
691 2 0.259713 0.0902731 0.265637
721 2 0.255302 0.121359 0.31196
692 4 0.25895 0.0966183 0.28981
30 3 0.296423 0.144546 0.254786
723 4 0.269458 0.113347 0.29297
29 3 0.332172 0.148138 0.266044
632 4 0.362159 0.0927179 0.260525
631 2 0.354975 0.115803 0.2669
707 4 0.344349 0.152606 0.281228
633 4 0.347791 0.138888 0.273275
442 2 0.00245121 0.240528 0.265905
444 4 0.00619274 0.233351 0.289562
546 4 0.139733 0.179809 0.285967
544 2 0.154929 0.199325 0.282308
545 4 0.170125 0.218841 0.278649
402 4 0.186936 0.219584 0.267902
400 2 0.191531 0.243984 0.270854
378 4 0.249281 0.246298 0.300155
27 3 0.312583 0.178187 0.254821
706 2 0.346814 0.174935 0.292207
708 4 0.349278 0.197263 0.303186
761 4 0.437745 0.174166 0.253289
299 4 0.14001 0.325485 0.254153
401 4 0.196127 0.268384 0.273805
676 2 0.185256 0.290028 0.29949
345 4 0.199126 0.287169 0.265919
677 4 0.185414 0.283613 0.275324
343 2 0.219191 0.298953 0.256769
735 4 0.183773 0.296902 0.259886
678 4 0.185098 0.296442 0.323656
498 4 0.323268 0.29143 0.255044
376 2 0.273227 0.253431 0.301089
496 2 0.317979 0.282383 0.277746
497 4 0.31269 0.273337 0.300448
377 4 0.297173 0.260564 0.302023
418 2 0.398638 0.259523 0.329285
541 2 0.378723 0.313549 0.294697
542 4 0.388337 0.291317 0.300902
420 4 0.390464 0.274448 0.310966
365 4 0.0235148 0.381097 0.300994
601 2 0.0465835 0.402351 0.322773
603 4 0.0233953 0.396718 0.315306
750 4 0.0754847 0.339181 0.264081
602 4 0.0697717 0.407984 0.33024
364 2 0.00147565 0.371787 0.30826
298 2 0.117884 0.334986 0.26089
300 4 0.0957586 0.344486 0.267626
510 4 0.19439 0.346616 0.298892
508 2 0.213011 0.34767 0.315545
509 4 0.231632 0.348723 0.332198
433 2 0.299627 0.389013 0.325756
435 4 0.275319 0.391598 0.331009
434 4 0.323935 0.386429 0.320502
543 4 0.36911 0.335781 0.288492
615 4 0.358135 0.339282 0.305346
614 4 0.343271 0.386366 0.313278
613 2 0.350703 0.362824 0.309312
2537 4 0.49572 0.343054 0.32499
776 4 0.0760808 0.490332 0.317272
775 2 0.0679419 0.497706 0.294809
1758 4 0.0639336 0.47355 0.260538
1757 4 0.0319338 0.436555 0.250138
1756 2 0.0479337 0.455052 0.255338
1775 4 0.0665435 0.493024 0.257191
1436 4 0.230487 0.455368 0.2748
413 4 0.220561 0.472631 0.270379
1435 2 0.25073 0.450454 0.288629
1437 4 0.270973 0.44554 0.302459
4 3 0.263576 0.450297 0.32091
436 2 0.3287 0.466734 0.326709
3 3 0.286949 0.478792 0.330188
438 4 0.304269 0.463845 0.331174
437 4 0.353132 0.469623 0.322243
1802 4 0.360317 0.483329 0.30902
118 3 0.49816 0.433797 0.325612
119 3 0.490109 0.47033 0.318909
606 4 0.164761 0.0636632 0.34713
1781 4 0.120991 0.0153002 0.410759
368 4 0.0995879 0.0153413 0.411798
604 2 0.187132 0.0652521 0.358183
605 4 0.209504 0.0668409 0.369236
441 4 0.322785 0.0058578 0.399198
425 4 0.332325 0.0192308 0.40365
1701 4 0.32962 0.0181811 0.384505
962 4 0.314365 0.020594 0.410372
699 4 0.352498 0.0558535 0.337916
698 4 0.402029 0.061339 0.342066
1699 2 0.334221 0.0362649 0.367863
1700 4 0.338823 0.0543487 0.35122
697 2 0.377264 0.0585962 0.339991
725 4 0.409762 0.0543735 0.394191
724 2 0.40492 0.0740677 0.408815
257 4 0.420358 0.0579375 0.339558
2585 4 0.00177345 0.0975472 0.340597
2584 2 0.0241008 0.108336 0.343802
2586 4 0.0464281 0.119125 0.347006
458 4 0.0533843 0.125903 0.364459
457 2 0.0459663 0.144919 0.3789
459 4 0.0385484 0.163935 0.393341
600 4 0.11839 0.137722 0.368833
598 2 0.120926 0.161987 0.374308
248 4 0.215763 0.0833997 0.360821
249 4 0.242265 0.124309 0.349652
247 2 0.229014 0.103855 0.355236
404 4 0.237662 0.140428 0.347138
403 2 0.236951 0.165421 0.347021
683 4 0.255338 0.135444 0.357776
682 2 0.276578 0.132155 0.370552
684 4 0.297818 0.128866 0.383328
320 4 0.311905 0.143505 0.38432
319 2 0.336828 0.145208 0.383264
321 4 0.361752 0.146911 0.382209
717 4 0.428592 0.160604 0.340744
261 4 0.0651153 0.207736 0.415009
260 4 0.0275061 0.176153 0.405588
259 2 0.0463107 0.191944 0.410299
599 4 0.123461 0.186251 0.379784
389 4 0.126775 0.222029 0.379413
686 4 0.118566 0.20551 0.384868
685 2 0.100434 0.203185 0.401927
275 4 0.132524 0.202271 0.375472
274 2 0.155391 0.204727 0.365663
388 2 0.124141 0.246885 0.380065
474 4 0.180122 0.22207 0.341238
472 2 0.202893 0.212239 0.338077
473 4 0.225664 0.202407 0.334915
276 4 0.178259 0.207183 0.355853
405 4 0.23624 0.190414 0.346903
715 2 0.411815 0.169174 0.357184
716 4 0.395038 0.177744 0.373624
419 4 0.406813 0.244598 0.347604
467 4 0.394232 0.184641 0.393525
269 4 0.404029 0.231872 0.362845
270 4 0.450981 0.216635 0.370851
452 4 0.466313 0.205853 0.378862
268 2 0.427505 0.224254 0.366848
451 2 0.465447 0.203264 0.403716
618 4 0.081386 0.315714 0.376351
347 4 0.0717765 0.331417 0.384899
346 2 0.0469311 0.329413 0.386867
348 4 0.0220858 0.327409 0.388834
616 2 0.103026 0.30328 0.377862
390 4 0.121507 0.271741 0.380717
617 4 0.124667 0.290847 0.379374
374 4 0.132782 0.277906 0.366161
373 2 0.150068 0.286447 0.350242
375 4 0.167354 0.294989 0.334323
549 4 0.080835 0.403287 0.345987
334 2 0.325467 0.362293 0.405363
668 4 0.309369 0.392153 0.417072
336 4 0.303896 0.373659 0.410904
335 4 0.347038 0.350928 0.399823
240 4 0.3621 0.358938 0.410906
238 2 0.382209 0.37252 0.404882
239 4 0.402319 0.386103 0.398858
587 4 0.405455 0.39872 0.382786
752 4 0.473484 0.394614 0.371638
561 4 0.471663 0.395389 0.392839
751 2 0.482245 0.414704 0.359605
559 2 0.48154 0.392407 0.415615
499 2 0.0767643 0.4815 0.350936
501 4 0.0672859 0.466523 0.368572
547 2 0.0771732 0.419533 0.364638
548 4 0.0735113 0.435778 0.383289
407 4 0.0680268 0.455237 0.38578
500 4 0.0862426 0.496478 0.3333
406 2 0.0862774 0.45839 0.402577
5 3 0.269024 0.45941 0.357033
1 1 0.278888 0.457987 0.336556
2 3 0.296481 0.443206 0.337631
586 2 0.406585 0.423437 0.386382
593 4 0.40397 0.466824 0.396301
592 2 0.411102 0.479951 0.376251
588 4 0.407715 0.448155 0.389979
1742 4 0.419937 0.496364 0.337236
713 4 0.431769 0.483243 0.346909
712 2 0.455374 0.475875 0.34321
714 4 0.478979 0.468507 0.33951
753 4 0.491007 0.434794 0.347571
117 3 0.491036 0.457227 0.354124
594 4 0.418235 0.493079 0.356202
720 4 0.00564021 0.0162554 0.45876
367 2 0.0811075 0.0237936 0.426366
369 4 0.0626271 0.0322458 0.440934
719 4 0.0467673 0.0421557 0.446993
718 2 0.0262038 0.0292056 0.452876
2430 4 0.162618 0.0204971 0.494458
341 4 0.172626 0.0359352 0.48642
961 2 0.303904 0.038131 0.424801
963 4 0.293443 0.0556681 0.43923
432 4 0.308241 0.0626079 0.45104
430 2 0.320218 0.0613752 0.472954
431 4 0.332196 0.0601424 0.494868
424 2 0.353215 0.0191454 0.417391
426 4 0.374105 0.01906 0.431131
843 4 0.34334 0.0775615 0.495738
726 4 0.400078 0.0937618 0.423439
640 2 0.48444 0.0945634 0.454727
641 4 0.467803 0.0864558 0.47154
687 4 0.0823024 0.200859 0.418986
1035 4 0.0680936 0.205294 0.433604
1033 2 0.0779795 0.222672 0.448618
1034 4 0.0878654 0.240051 0.463633
696 4 0.0844034 0.237637 0.482768
1260 4 0.0990532 0.24939 0.476703
487 2 0.325078 0.248391 0.447441
466 2 0.399711 0.191611 0.416905
468 4 0.405189 0.19858 0.440284
411 4 0.363356 0.240987 0.464869
409 2 0.382388 0.225619 0.459694
410 4 0.401421 0.210252 0.45452
266 4 0.350444 0.245963 0.480256
489 4 0.344497 0.243351 0.462364
574 2 0.403101 0.189247 0.493186
575 4 0.406185 0.204445 0.473573
516 4 0.416477 0.199806 0.45812
514 2 0.439937 0.205413 0.451534
515 4 0.463397 0.21102 0.444948
453 4 0.464581 0.200676 0.428571
2802 4 0.00746155 0.286773 0.442611
1258 2 0.110213 0.271646 0.474404
1259 4 0.121373 0.293903 0.472105
9 3 0.1415 0.301244 0.460536
7 3 0.114994 0.309578 0.485847
6 1 0.132295 0.318224 0.473394
8 3 0.148325 0.326839 0.487789
327 4 0.10779 0.328007 0.474072
858 4 0.23143 0.251949 0.495096
488 4 0.30566 0.253432 0.432517
1009 2 0.474237 0.310852 0.496405
326 4 0.0604409 0.343824 0.477002
325 2 0.0841154 0.335916 0.475537
10 3 0.1243 0.334731 0.459893
709 2 0.14836 0.406537 0.485562
503 4 0.209313 0.359599 0.476191
502 2 0.196518 0.374222 0.491927
710 4 0.166708 0.396305 0.49912
667 2 0.320478 0.413977 0.422119
560 4 0.491417 0.389425 0.43839
1011 4 0.471428 0.334215 0.487952
3309 4 0.47952 0.3911 0.454765
3307 2 0.479875 0.368093 0.46455
3308 4 0.48023 0.345087 0.474335
679 2 0.00228332 0.430907 0.439126
1381 2 0.0267082 0.482257 0.464711
1383 4 0.0273372 0.463118 0.448634
680 4 0.0222211 0.444656 0.44534
711 4 0.130011 0.416769 0.472004
384 4 0.111592 0.419155 0.463557
382 2 0.109108 0.440517 0.450802
408 4 0.104528 0.461543 0.419375
568 2 0.138623 0.487259 0.429628
383 4 0.106624 0.461878 0.438047
569 4 0.119182 0.472104 0.42544
1545 4 0.176028 0.499323 0.431876
1556 4 0.242501 0.483574 0.42869
1543 2 0.200924 0.497088 0.432454
1544 4 0.225821 0.494853 0.433032
635 4 0.329652 0.450514 0.439646
1557 4 0.291407 0.48881 0.419664
634 2 0.319784 0.472377 0.432589
1555 2 0.266954 0.486192 0.424177
669 4 0.331588 0.435801 0.427167
636 4 0.309917 0.49424 0.425531
772 2 0.363213 0.435817 0.456387
773 4 0.379346 0.430901 0.474845
774 4 0.34708 0.440733 0.437928
663 4 0.496358 0.489035 0.437713
1152 4 0.209748 0.0697745 0.516441
342 4 0.205651 0.0513654 0.520654
340 2 0.189139 0.0436503 0.503537
1030 2 0.261623 0.08085 0.567756
949 2 0.2841 0.0256188 0.549766
951 4 0.287448 0.0476406 0.561124
1031 4 0.278278 0.0624284 0.570664
950 4 0.280752 0.00359697 0.538408
1217 4 0.404565 0.0676719 0.516228
842 4 0.390435 0.0806255 0.512273
841 2 0.366888 0.0790935 0.504005
1216 2 0.428462 0.0618951 0.520786
1218 4 0.452358 0.0561183 0.525344
1270 2 0.0647111 0.146629 0.575492
1271 4 0.0777205 0.12628 0.569024
1272 4 0.0517017 0.166979 0.581961
1058 4 0.102276 0.118976 0.506205
1057 2 0.0959952 0.120343 0.530368
1059 4 0.0897147 0.12171 0.554531
1155 4 0.0969061 0.124132 0.572159
939 4 0.0850142 0.108612 0.567894
1153 2 0.118136 0.136142 0.577657
1150 2 0.219113 0.0848341 0.534068
1151 4 0.228477 0.0998938 0.551694
1180 2 0.2124 0.133347 0.557324
1181 4 0.21963 0.11122 0.56645
1182 4 0.20517 0.155475 0.548197
1032 4 0.244969 0.0992716 0.564848
900 4 0.214879 0.168276 0.536609
1198 2 0.00809107 0.232986 0.561477
1199 4 0.0285794 0.227409 0.57468
1244 4 0.0547901 0.248467 0.570189
878 4 0.047034 0.232636 0.578385
877 2 0.0541905 0.20873 0.579961
879 4 0.0613469 0.184824 0.581537
695 4 0.0884987 0.20897 0.523537
694 2 0.0864511 0.223303 0.503152
898 2 0.233326 0.184216 0.531058
650 4 0.262019 0.217651 0.526675
899 4 0.251773 0.200156 0.525507
649 2 0.279501 0.232704 0.517033
651 4 0.296982 0.247758 0.507392
576 4 0.400017 0.17405 0.5128
1243 2 0.0532912 0.272544 0.576763
982 2 0.0193996 0.316242 0.573241
1245 4 0.0517923 0.296621 0.583337
983 4 0.0436317 0.310195 0.572046
948 4 0.152261 0.28092 0.574293
856 2 0.217285 0.263713 0.512028
857 4 0.203139 0.275478 0.52896
798 4 0.20518 0.288523 0.554658
947 4 0.189837 0.285283 0.541586
946 2 0.171049 0.283101 0.55794
796 2 0.223525 0.290728 0.571503
267 4 0.36031 0.262491 0.52641
265 2 0.355377 0.254227 0.503333
2457 4 0.496884 0.284712 0.505614
1010 4 0.477046 0.287488 0.504857
504 4 0.183722 0.388844 0.507663
803 4 0.263795 0.387906 0.566936
804 4 0.294914 0.372236 0.531064
802 2 0.279355 0.380071 0.549
1190 4 0.25746 0.370261 0.57675
928 2 0.342861 0.394183 0.567588
929 4 0.361205 0.398492 0.551152
881 4 0.360222 0.394317 0.52989
880 2 0.372962 0.373642 0.52394
882 4 0.385703 0.352967 0.517991
926 4 0.432896 0.395221 0.579927
539 4 0.0760724 0.442635 0.576419
540 4 0.102296 0.484471 0.568496
2244 4 0.0973934 0.499844 0.579431
538 2 0.089184 0.463553 0.572458
1160 4 0.112644 0.487499 0.583684
2154 4 0.226829 0.491629 0.542128
1953 4 0.402082 0.493552 0.551285
1951 2 0.379403 0.498604 0.56052
1909 2 0.434943 0.482471 0.561035
1910 4 0.420126 0.492051 0.54332
1911 4 0.449761 0.472891 0.57875
1081 2 0.0712455 0.0773158 0.644385
938 4 0.0740849 0.0770789 0.605135
1083 4 0.0618128 0.078458 0.621257
1127 4 0.0435417 0.0806352 0.626389
3007 2 0.499579 0.0526003 0.584719
3008 4 0.491338 0.038546 0.603687
809 4 0.476336 0.0338656 0.616189
808 2 0.468485 0.052737 0.63059
810 4 0.460633 0.0716084 0.644992
42 3 0.454292 0.06527 0.666411
1128 4 0.00199417 0.0853111 0.598954
1126 2 0.0227679 0.0829731 0.612672
937 2 0.0795496 0.0928456 0.586515
1154 4 0.139366 0.148151 0.583154
1221 4 0.159292 0.147284 0.584854
1219 2 0.170933 0.155828 0.605267
1220 4 0.182573 0.164372 0.62568
1212 4 0.202549 0.163924 0.630954
1210 2 0.225175 0.164323 0.641588
1211 4 0.247801 0.164723 0.652222
1192 2 0.325062 0.133116 0.637975
886 2 0.275308 0.159824 0.662661
1194 4 0.310259 0.130975 0.658012
887 4 0.294967 0.144898 0.658671
1193 4 0.339864 0.135256 0.617938
45 3 0.459381 0.0944693 0.64373
3424 2 0.496763 0.114541 0.658107
3425 4 0.476034 0.100693 0.660036
41 1 0.453575 0.0882086 0.664843
3123 4 0.483201 0.247821 0.648297
1136 4 0.154134 0.293319 0.59065
1135 2 0.151243 0.317085 0.597859
822 4 0.15442 0.308219 0.634721
1064 4 0.158512 0.323522 0.648418
820 2 0.147417 0.289909 0.65024
821 4 0.140413 0.271598 0.66576
797 4 0.24187 0.292933 0.588348
791 4 0.259442 0.288954 0.599496
790 2 0.275693 0.30795 0.599982
792 4 0.291944 0.326946 0.600468
872 4 0.328084 0.287382 0.607262
1238 4 0.310545 0.327839 0.607375
871 2 0.35048 0.298489 0.607759
813 4 0.392017 0.309283 0.60639
873 4 0.372876 0.309595 0.608257
1041 4 0.0613865 0.367094 0.652325
3264 4 0.0442366 0.367603 0.663422
3240 4 0.0308441 0.381249 0.656938
3238 2 0.0150321 0.400444 0.654353
1039 2 0.0725397 0.376289 0.631923
1137 4 0.148352 0.340852 0.605068
1040 4 0.0836928 0.385484 0.611522
993 4 0.104577 0.38391 0.61025
991 2 0.124979 0.36977 0.613245
992 4 0.145382 0.35563 0.616241
897 4 0.163194 0.349152 0.616555
1063 2 0.172082 0.338184 0.663453
1189 2 0.238463 0.377116 0.59149
896 4 0.209336 0.367769 0.611554
895 2 0.186265 0.358461 0.614055
1172 4 0.227919 0.400293 0.611228
1191 4 0.219465 0.38397 0.606231
1239 4 0.321938 0.375776 0.598834
1237 2 0.316242 0.351807 0.603104
930 4 0.324518 0.389874 0.584023
811 2 0.394945 0.334057 0.604702
1204 2 0.372409 0.388472 0.633794
1205 4 0.369487 0.402735 0.654122
1206 4 0.375331 0.374209 0.613466
927 4 0.393762 0.378407 0.60613
812 4 0.397874 0.358831 0.603013
925 2 0.413329 0.386814 0.593029
1002 4 0.439821 0.412027 0.590054
1159 2 0.134437 0.489914 0.5957
1161 4 0.156231 0.492329 0.607716
1188 4 0.1733 0.483291 0.608887
1171 2 0.219916 0.423666 0.615078
1186 2 0.194696 0.473947 0.617837
1173 4 0.211913 0.447039 0.618928
1187 4 0.216092 0.464604 0.626788
1140 4 0.244628 0.435928 0.66553
1001 4 0.457561 0.45878 0.589736
1000 2 0.448691 0.435404 0.589895
1269 4 0.463425 0.477127 0.592827
1267 2 0.46108 0.489412 0.614478
1082 4 0.0806782 0.0761735 0.667513
945 4 0.0631498 0.999922 0.684164
943 2 0.0676114 0.0244248 0.681959
944 4 0.0720729 0.048928 0.679753
1076 4 0.0834416 0.0649363 0.683651
1075 2 0.0781114 0.0815771 0.701535
825 4 0.161249 0.0389892 0.675091
1282 2 0.165728 0.0815083 0.682882
1149 4 0.221553 0.0527019 0.666357
1283 4 0.170555 0.0570284 0.681266
823 2 0.169774 0.0161822 0.669404
1147 2 0.239838 0.0689856 0.671425
1092 4 0.304776 0.00292026 0.679022
1004 4 0.341931 0.0692646 0.741091
4579 2 0.498396 0.0012449 0.72652
1163 4 0.468919 0.0758683 0.682625
1162 2 0.48373 0.0641686 0.699024
1164 4 0.498541 0.0524689 0.715423
2321 4 0.497731 0.0438736 0.73416
864 4 0.063165 0.093258 0.735336
1077 4 0.0727812 0.0982178 0.71942
851 4 0.0797162 0.11763 0.721251
850 2 0.0633206 0.136188 0.717791
852 4 0.0469249 0.154746 0.71433
1107 4 0.0793371 0.105332 0.735796
862 2 0.04206 0.0897908 0.748287
1284 4 0.160901 0.105988 0.684499
909 4 0.166804 0.119813 0.69713
907 2 0.18943 0.129661 0.701163
908 4 0.212056 0.139509 0.705195
1227 4 0.228732 0.139469 0.695699
1225 2 0.244673 0.120566 0.691992
1148 4 0.258123 0.0852694 0.676493
1003 2 0.331554 0.0865288 0.726277
1226 4 0.260615 0.101664 0.688285
829 2 0.317405 0.130573 0.693636
1005 4 0.321177 0.103793 0.711464
830 4 0.304744 0.138942 0.673766
831 4 0.330067 0.122205 0.713507
43 3 0.432023 0.0953817 0.669584
3270 4 0.498391 0.14097 0.729849
44 3 0.46848 0.0972433 0.68016
1113 4 0.454944 0.104434 0.722288
1146 4 0.498082 0.158982 0.720936
1111 2 0.455122 0.0922339 0.744113
1073 4 0.0750631 0.229844 0.728581
1177 2 0.0156114 0.248883 0.723916
1072 2 0.0987459 0.234947 0.734767
1130 4 0.137794 0.236564 0.734976
1074 4 0.122429 0.240051 0.740952
1208 4 0.129343 0.247176 0.722219
888 4 0.25565 0.174751 0.666651
978 4 0.310395 0.181328 0.715631
976 2 0.300214 0.194874 0.734016
1025 4 0.415965 0.168846 0.676317
1024 2 0.42733 0.176637 0.697181
1142 4 0.440142 0.16896 0.730752
1144 2 0.475704 0.169837 0.723506
1262 4 0.449677 0.200024 0.722165
1026 4 0.438695 0.184429 0.718045
1261 2 0.452359 0.223311 0.713462
1145 4 0.453327 0.180692 0.726076
1263 4 0.455041 0.246597 0.70476
1179 4 0.0404773 0.251464 0.724371
893 4 0.0116782 0.312522 0.717902
3263 4 0.0416077 0.319107 0.675333
1209 4 0.150675 0.268644 0.68241
1207 2 0.140009 0.25791 0.702315
806 4 0.24999 0.330014 0.690934
1019 4 0.360802 0.311947 0.717696
1018 2 0.351925 0.317413 0.69497
1020 4 0.343048 0.322879 0.672243
892 2 0.023008 0.334176 0.723189
3262 2 0.0429221 0.343355 0.669378
1279 2 0.0431688 0.38986 0.727947
894 4 0.0343377 0.355829 0.728476
1280 4 0.050286 0.366593 0.722187
816 4 0.0628705 0.355387 0.731872
1281 4 0.0360516 0.413127 0.733707
814 2 0.0810204 0.352258 0.748782
1065 4 0.185653 0.352846 0.678488
807 4 0.20477 0.345611 0.676352
1028 4 0.225403 0.381856 0.703292
1066 2 0.197667 0.366008 0.732501
1068 4 0.215929 0.373848 0.717329
1027 2 0.232287 0.403454 0.692741
805 2 0.22738 0.337812 0.683643
1067 4 0.179404 0.358167 0.747673
1983 4 0.0528811 0.42279 0.736128
1981 2 0.0702837 0.439744 0.742034
2172 4 0.138985 0.485289 0.673702
1982 4 0.0876863 0.456698 0.747941
2016 4 0.150051 0.476189 0.743913
1176 4 0.162549 0.466848 0.732111
1029 4 0.239172 0.425051 0.68219
1175 4 0.19376 0.453655 0.695334
1174 2 0.178155 0.460251 0.713722
1138 2 0.266057 0.448222 0.669386
2026 2 0.281613 0.4989 0.685971
1139 4 0.287485 0.460516 0.673241
1987 2 0.275777 0.459171 0.728569
1229 4 0.295051 0.464028 0.689918
1989 4 0.283986 0.462073 0.705131
2028 4 0.281648 0.474023 0.688487
1228 2 0.319781 0.460876 0.688002
1230 4 0.344511 0.457725 0.686086
1099 2 0.438957 0.492522 0.67027
1100 4 0.428676 0.479269 0.688812
2989 2 0.0103694 0.0536672 0.78225
2990 4 0.00955656 0.0775977 0.77505
2991 4 0.0111822 0.0297366 0.789451
2049 4 0.114677 0.0250303 0.791136
1202 4 0.108708 0.0422953 0.779776
2047 2 0.119952 0.00164695 0.784025
1201 2 0.122676 0.0621214 0.785858
1203 4 0.136644 0.0819476 0.79194
817 2 0.330722 0.0553467 0.810694
819 4 0.329349 0.078022 0.82114
1050 4 0.326561 0.0148242 0.773824
973 2 0.356834 0.00432636 0.803018
818 4 0.332094 0.0326714 0.800248
974 4 0.337531 0.014592 0.790886
2322 4 0.480052 0.0577942 0.778818
845 4 0.464836 0.0706952 0.779554
1112 4 0.4553 0.080034 0.765937
844 2 0.471254 0.0698124 0.803704
2320 2 0.488892 0.0508339 0.756489
846 4 0.477671 0.0689295 0.827854
863 4 0.020955 0.0863236 0.761238
833 4 0.0197784 0.0928471 0.779024
832 2 0.0247742 0.110147 0.796371
834 4 0.0297699 0.127447 0.813719
3083 4 0.0042334 0.0931783 0.765652
1125 4 0.035933 0.139086 0.828713
1105 2 0.0963298 0.10245 0.75391
1106 4 0.113323 0.099568 0.772024
911 4 0.138404 0.100713 0.827208
34 3 0.130333 0.1023 0.783064
31 1 0.144392 0.105969 0.801155
35 3 0.134391 0.120002 0.816046
32 3 0.148699 0.085843 0.811428
33 3 0.164436 0.115121 0.793883