ITEM: TIMESTEP
550000
ITEM: NUMBER OF ATOMS
4590
ITEM: BOX BOUNDS pp pp pp
-9.9985700000000008e+00 9.9985700000000008e+00
-9.9985700000000008e+00 9.9985700000000008e+00
-9.9985700000000008e+00 9.9985700000000008e+00
ITEM: ATOMS id type xs ys zs
463 2 0.0428246 0.0805364 0.0164636
464 4 0.0672961 0.0790247 0.0115607
465 4 0.0183531 0.082048 0.0213665
591 4 0.99849 0.0607773 0.0706343
1475 4 0.265523 0.00481856 0.0640639
492 4 0.278614 0.0704704 0.068709
297 4 0.323049 0.0575401 0.0408922
295 2 0.338564 0.0769291 0.0379733
486 4 0.359287 0.00353341 0.053217
985 2 0.401918 0.0428018 0.000354057
987 4 0.414525 0.0295072 0.0173687
747 4 0.476242 0.0637221 0.0177372
2974 2 0.48378 0.025956 0.0209538
2976 4 0.494648 0.00637039 0.0320649
2468 4 0.497502 0.997835 0.0512418
1607 4 0.418149 0.0113844 0.0232054
2975 4 0.472911 0.0455417 0.00984282
422 4 0.108403 0.128834 0.0185302
421 2 0.11133 0.150897 0.00713548
565 2 0.198634 0.152716 0.0612539
566 4 0.176232 0.142137 0.0646351
567 4 0.221036 0.163294 0.0578727
358 2 0.299691 0.143248 0.063676
359 4 0.284699 0.144504 0.0836471
360 4 0.314683 0.141991 0.043705
296 4 0.354079 0.096318 0.0350544
557 4 0.369028 0.107914 0.0303909
556 2 0.384377 0.109871 0.0500315
558 4 0.399726 0.111827 0.0696721
745 2 0.463932 0.0852882 0.0148128
746 4 0.451622 0.106854 0.0118884
771 4 0.451805 0.1606 0.0608686
554 4 0.0689503 0.22326 0.0326104
553 2 0.0565712 0.244335 0.0378795
666 4 0.31757 0.186618 0.0172206
665 4 0.355488 0.19254 0.0492811
664 2 0.336529 0.189579 0.0332508
323 4 0.413723 0.252766 0.0789387
769 2 0.43755 0.181088 0.05938
324 4 0.446305 0.232577 0.0468208
770 4 0.423296 0.201577 0.0578915
322 2 0.430014 0.242671 0.0628798
555 4 0.0441921 0.265411 0.0431485
836 4 0.0968244 0.263767 0.0156272
292 2 0.135128 0.302141 0.00388375
293 4 0.136278 0.299276 0.028696
507 4 0.151567 0.294585 0.0407043
483 4 0.21157 0.298665 0.0737824
505 2 0.174967 0.293562 0.0494566
506 4 0.198366 0.292539 0.0582089
481 2 0.235034 0.290442 0.0711326
573 4 0.270197 0.26705 0.0604546
572 4 0.279385 0.251747 0.0137416
357 4 0.285482 0.266349 0.00285729
571 2 0.274791 0.259398 0.0370981
482 4 0.258497 0.282219 0.0684828
1071 4 0.378926 0.271317 0.0125568
1069 2 0.394698 0.29049 0.00958992
1070 4 0.410469 0.309664 0.00662302
741 4 0.345312 0.333557 0.0537608
671 4 0.44597 0.320694 0.0739129
280 2 0.439261 0.322404 0.0348595
281 4 0.453438 0.321287 0.0554248
282 4 0.425083 0.323521 0.0142942
550 2 0.0717883 0.412305 0.0697523
288 4 0.15347 0.339972 0.0097252
552 4 0.0938179 0.403504 0.0776526
287 4 0.20204 0.350217 0.015783
286 2 0.177755 0.345094 0.0127541
252 4 0.286087 0.395571 0.0402297
250 2 0.305687 0.390407 0.0255878
251 4 0.325286 0.385244 0.010946
609 4 0.282968 0.407904 0.0554814
607 2 0.296576 0.411196 0.076198
739 2 0.349916 0.350142 0.0718964
551 4 0.0497587 0.421106 0.061852
328 2 0.0171538 0.431146 0.0108786
329 4 0.030512 0.449944 0.020542
455 4 0.105742 0.418213 0.0823662
245 4 0.213591 0.460647 0.0401771
626 4 0.226516 0.456691 0.0550689
244 2 0.229582 0.453956 0.0221581
625 2 0.216025 0.449083 0.076452
246 4 0.245574 0.447265 0.00413921
272 4 0.262366 0.449811 0.0139279
271 2 0.282793 0.461436 0.00539688
563 4 0.47089 0.478186 0.0699152
228 4 0.485465 0.4687 0.079804
562 2 0.452279 0.49374 0.0638387
1666 2 0.0670207 0.0547225 0.0912925
1668 4 0.050073 0.0412934 0.0787381
19 3 0.0501832 0.0437181 0.149751
20 3 0.0571018 0.072276 0.173293
1667 4 0.0839684 0.0681516 0.103847
450 4 0.161516 0.0416662 0.131448
448 2 0.174731 0.0628827 0.130818
490 2 0.291228 0.0700285 0.0902931
652 2 0.303817 0.00698799 0.150535
491 4 0.303842 0.0695867 0.111877
653 4 0.322425 0.0216937 0.158451
2722 2 0.490252 0.0563486 0.150647
1759 2 0.476811 0.000237117 0.128363
1760 4 0.491203 0.013446 0.14397
2724 4 0.494155 0.031657 0.150126
2723 4 0.486349 0.0810402 0.151168
2744 4 0.497822 0.0175723 0.162443
380 4 0.00796281 0.141073 0.14605
701 4 0.0864056 0.0880921 0.109305
700 2 0.098968 0.109495 0.112354
702 4 0.11153 0.130897 0.115404
476 4 0.110359 0.144858 0.129788
475 2 0.110939 0.152344 0.153638
237 4 0.195494 0.147181 0.137936
449 4 0.187947 0.0840993 0.130188
235 2 0.186904 0.123721 0.136929
236 4 0.178315 0.100261 0.135922
582 4 0.302556 0.0967469 0.163839
580 2 0.281854 0.109097 0.17048
310 2 0.411613 0.0847709 0.157142
629 4 0.41451 0.117472 0.131854
628 2 0.412104 0.141945 0.12733
312 4 0.411729 0.0978516 0.135833
630 4 0.409699 0.166418 0.122806
337 2 0.0648525 0.233976 0.150118
338 4 0.0838489 0.227452 0.16501
737 4 0.193149 0.190166 0.134154
736 2 0.207554 0.199575 0.116012
738 4 0.22196 0.208985 0.0978709
461 4 0.306864 0.225461 0.10255
460 2 0.328456 0.217485 0.0927876
354 4 0.289334 0.231457 0.0933399
352 2 0.280977 0.235351 0.116582
284 4 0.279768 0.229229 0.154407
353 4 0.272621 0.239245 0.139824
278 4 0.26396 0.241859 0.154363
255 4 0.354803 0.197872 0.0982823
462 4 0.350049 0.209508 0.083025
254 4 0.389636 0.16737 0.117177
253 2 0.372219 0.182621 0.10773
765 4 0.39569 0.219638 0.141257
624 4 0.398668 0.23172 0.124862
763 2 0.381077 0.220756 0.161516
518 4 0.485655 0.219166 0.107076
656 4 0.00754706 0.263115 0.0858078
339 4 0.0458562 0.2405 0.135227
536 4 0.207139 0.308455 0.131427
535 2 0.198987 0.329115 0.142909
754 2 0.269177 0.279527 0.152801
755 4 0.264466 0.257273 0.142423
756 4 0.273889 0.301782 0.16318
612 4 0.262682 0.317649 0.165444
622 2 0.388289 0.251503 0.113633
623 4 0.377909 0.271286 0.102404
670 2 0.438005 0.309788 0.0949555
672 4 0.43004 0.298882 0.115998
528 4 0.4857 0.271048 0.142098
526 2 0.481667 0.266371 0.166327
621 4 0.0072484 0.370968 0.137045
619 2 0.0060798 0.361355 0.113993
620 4 0.0049112 0.351742 0.0909409
454 2 0.12202 0.399671 0.086416
456 4 0.138299 0.38113 0.0904658
537 4 0.190834 0.349776 0.154392
302 4 0.308264 0.389416 0.145648
387 4 0.319568 0.375399 0.135626
385 2 0.340672 0.37304 0.122425
740 4 0.354521 0.366728 0.0900321
15 3 0.378915 0.360864 0.112072
386 4 0.361775 0.370681 0.109224
11 1 0.396718 0.367974 0.124367
13 3 0.390615 0.370072 0.146655
12 3 0.413703 0.352548 0.122728
14 3 0.404292 0.38836 0.116276
495 4 0.419576 0.401998 0.114427
596 4 0.489081 0.375256 0.155057
315 4 0.00346194 0.472127 0.102798
313 2 0.000376187 0.465115 0.126599
314 4 0.99729 0.458102 0.150399
637 2 0.247107 0.498398 0.143349
627 4 0.205534 0.441475 0.097835
608 4 0.310183 0.414487 0.0969146
638 4 0.262888 0.48534 0.157688
523 2 0.327277 0.488638 0.103675
525 4 0.333415 0.473792 0.122834
658 2 0.376673 0.440155 0.142008
659 4 0.390439 0.448125 0.122716
660 4 0.362908 0.432184 0.161299
226 2 0.49506 0.45601 0.0990938
227 4 0.504655 0.443321 0.118384
493 2 0.432186 0.418484 0.128369
494 4 0.444797 0.434969 0.142311
16 1 0.0540544 0.0497552 0.171818
17 3 0.0358214 0.0437312 0.184484
2480 4 0.0161909 0.03973 0.186272
18 3 0.0727822 0.0386864 0.17989
1422 4 0.00698932 0.026928 0.196247
1420 2 0.0173327 0.00427123 0.194041
578 4 0.0672792 0.060303 0.218134
673 2 0.113451 0.032632 0.241861
674 4 0.131223 0.0438086 0.228282
689 4 0.164767 0.0324454 0.225212
577 2 0.0854748 0.077105 0.221568
688 2 0.175928 0.0191529 0.243209
692 4 0.212065 0.0617092 0.240813
723 4 0.20886 0.0780949 0.250995
691 2 0.223556 0.0725644 0.22144
24 3 0.32552 0.0354919 0.239783
21 1 0.34823 0.0310307 0.238114
25 3 0.353123 0.023327 0.217249
759 4 0.365659 0.0435932 0.221009
22 3 0.359927 0.0504623 0.241953
757 2 0.380614 0.0528478 0.203236
758 4 0.39557 0.0621023 0.185464
311 4 0.411497 0.0716903 0.17845
742 2 0.469969 0.0567572 0.207394
744 4 0.478157 0.0383376 0.222188
743 4 0.461781 0.0751769 0.1926
379 2 0.00514852 0.145734 0.170454
381 4 0.00233423 0.150394 0.194857
511 2 0.0293019 0.161527 0.221109
512 4 0.0129362 0.145243 0.211508
477 4 0.111518 0.15983 0.177487
579 4 0.10367 0.093907 0.225002
693 4 0.235046 0.0834196 0.202067
581 4 0.261153 0.121448 0.177121
28 3 0.304876 0.142757 0.229136
26 1 0.309001 0.156063 0.247692
27 3 0.331711 0.159063 0.249791
331 2 0.450508 0.152704 0.238243
333 4 0.436233 0.142472 0.220447
513 4 0.0456676 0.17781 0.230711
394 2 0.0181977 0.246212 0.226395
396 4 0.00938467 0.234828 0.246838
363 4 0.0945376 0.227541 0.182009
361 2 0.0984805 0.24758 0.196434
277 2 0.244248 0.231642 0.165861
279 4 0.224535 0.221424 0.177359
283 2 0.301138 0.227188 0.167226
285 4 0.322508 0.225148 0.180046
30 3 0.298964 0.176341 0.245098
764 4 0.366464 0.221875 0.181774
520 2 0.486099 0.206789 0.202917
521 4 0.464282 0.201239 0.192035
395 4 0.0270107 0.257596 0.205952
371 4 0.16428 0.285392 0.223479
370 2 0.143104 0.273773 0.21702
372 4 0.121927 0.262153 0.21056
748 2 0.0973989 0.299365 0.226945
362 4 0.102423 0.267619 0.210859
749 4 0.0974153 0.274397 0.228285
750 4 0.0973825 0.324333 0.225605
343 2 0.242546 0.304349 0.245574
307 2 0.317421 0.284706 0.241821
308 4 0.311454 0.269771 0.222676
610 2 0.273305 0.332471 0.18255
527 4 0.477633 0.261694 0.190556
647 4 0.069987 0.359062 0.187033
646 2 0.0908411 0.346685 0.180945
648 4 0.111695 0.334307 0.174856
300 4 0.102156 0.369531 0.244804
417 4 0.158845 0.398027 0.175491
415 2 0.181852 0.403658 0.1835
291 4 0.222445 0.399348 0.192945
416 4 0.204859 0.40929 0.191509
289 2 0.237245 0.414224 0.20654
345 4 0.243287 0.32882 0.240495
611 4 0.283928 0.347293 0.199657
303 4 0.315082 0.393456 0.195023
301 2 0.311673 0.391436 0.170336
729 4 0.306907 0.398208 0.212329
727 2 0.314184 0.392246 0.235495
595 2 0.468613 0.383642 0.166716
597 4 0.448146 0.392029 0.178375
643 2 0.427654 0.375848 0.208134
644 4 0.423706 0.368191 0.231607
645 4 0.431601 0.383504 0.184662
447 4 0.423792 0.359812 0.250154
110 3 0.494014 0.414754 0.194431
262 2 0.018065 0.42227 0.23846
263 4 0.0428183 0.424595 0.241114
1756 2 0.0848509 0.495406 0.240956
290 4 0.252045 0.429101 0.220136
768 4 0.256413 0.443549 0.206576
766 2 0.257248 0.463497 0.191524
767 4 0.258084 0.483445 0.176472
229 2 0.406698 0.490996 0.245849
232 2 0.0152474 0.0483424 0.295621
233 4 0.0306109 0.0333301 0.282824
1402 2 0.0732929 0.0199713 0.277862
1404 4 0.0497867 0.0277249 0.2814
234 4 0.999884 0.0633547 0.308418
675 4 0.0956779 0.0214554 0.255441
1403 4 0.0967992 0.0122176 0.274324
429 4 0.115875 0.00733966 0.314731
1464 4 0.109796 0.999548 0.268304
690 4 0.187089 0.0058603 0.261207
1701 4 0.227606 0.024281 0.319879
1699 2 0.249902 0.0322976 0.31189
721 2 0.216578 0.0784813 0.274775
722 4 0.224296 0.0788677 0.298554
1700 4 0.272197 0.0403142 0.3039
23 3 0.3544 0.0152958 0.254012
478 2 0.469818 0.0364661 0.291486
480 4 0.456596 0.0499231 0.275077
351 4 0.46129 0.0690006 0.279801
479 4 0.483041 0.0230092 0.307895
349 2 0.441581 0.0839524 0.283434
531 4 0.00575791 0.157289 0.274695
732 4 0.0811352 0.0998396 0.331551
391 2 0.0730067 0.162146 0.257155
392 4 0.0947428 0.158684 0.269018
249 4 0.222937 0.0981515 0.305405
247 2 0.2116 0.0987634 0.327682
403 2 0.235052 0.137411 0.296674
404 4 0.222942 0.117012 0.304575
405 4 0.247162 0.15781 0.288773
29 3 0.301007 0.145663 0.266832
633 4 0.340661 0.132558 0.297181
632 4 0.374407 0.114674 0.264899
631 2 0.357534 0.123616 0.28104
706 2 0.350704 0.152661 0.328568
707 4 0.350331 0.132567 0.313693
332 4 0.464782 0.162937 0.256039
350 4 0.421873 0.0989041 0.287067
393 4 0.0512706 0.165607 0.245292
442 2 0.00340828 0.24257 0.286432
443 4 0.0154884 0.242797 0.264542
546 4 0.144706 0.188662 0.267293
544 2 0.165108 0.180153 0.278977
545 4 0.185511 0.171643 0.290661
717 4 0.393983 0.200393 0.325342
762 4 0.477555 0.178508 0.261634
418 2 0.433106 0.234895 0.329202
761 4 0.48438 0.224311 0.280509
760 2 0.480967 0.201409 0.271071
390 4 0.091125 0.264173 0.304637
388 2 0.0942817 0.254702 0.327561
344 4 0.241805 0.279878 0.250652
400 2 0.190722 0.293606 0.301408
402 4 0.208504 0.311185 0.301481
401 4 0.172941 0.276028 0.301335
309 4 0.323388 0.29964 0.260966
496 2 0.308546 0.319701 0.298586
497 4 0.299464 0.327742 0.32045
498 4 0.317627 0.31166 0.276721
377 4 0.292699 0.310332 0.325308
543 4 0.375147 0.303362 0.320711
615 4 0.380935 0.315452 0.305526
541 2 0.392694 0.285571 0.321601
542 4 0.410241 0.267781 0.322491
420 4 0.423934 0.253971 0.315892
364 2 0.0172754 0.358984 0.284777
365 4 0.042138 0.358246 0.28223
601 2 0.0712154 0.386547 0.289574
603 4 0.0595644 0.367201 0.278843
2493 4 0.0101236 0.337595 0.328199
298 2 0.122591 0.375057 0.25811
299 4 0.143026 0.380582 0.271417
602 4 0.0828664 0.405894 0.300304
734 4 0.163462 0.385278 0.270382
733 2 0.171115 0.366323 0.28478
677 4 0.166385 0.342581 0.312874
735 4 0.178767 0.347368 0.299179
676 2 0.182498 0.340763 0.331907
433 2 0.318132 0.375253 0.32438
728 4 0.321462 0.386283 0.258661
435 4 0.295029 0.384504 0.326796
613 2 0.366712 0.335998 0.306388
434 4 0.341235 0.366002 0.321964
614 4 0.352488 0.356544 0.307249
118 3 0.495282 0.407495 0.325696
445 2 0.444673 0.370583 0.258705
446 4 0.465555 0.381355 0.267256
1757 4 0.0625136 0.491314 0.251419
549 4 0.0879807 0.422395 0.313182
777 4 0.0898654 0.463556 0.299852
775 2 0.089444 0.484046 0.314174
414 4 0.233217 0.47761 0.305367
412 2 0.209339 0.470486 0.307441
413 4 0.185462 0.463362 0.309515
1803 4 0.325192 0.498267 0.282736
436 2 0.336066 0.465592 0.303299
437 4 0.344517 0.457704 0.281128
438 4 0.327615 0.473479 0.32547
231 4 0.392727 0.471478 0.252854
116 1 0.493965 0.430266 0.329954
119 3 0.482335 0.440855 0.312895
713 4 0.417146 0.457689 0.311138
712 2 0.441026 0.452317 0.316245
714 4 0.464906 0.446945 0.321351
316 2 0.0578177 0.0654634 0.343073
317 4 0.0447013 0.0460217 0.351743
428 4 0.0846932 0.0334959 0.343787
1781 4 0.109001 0.0131709 0.409868
606 4 0.13578 0.0832044 0.353144
427 2 0.100284 0.0204178 0.329259
683 4 0.310553 0.068772 0.361642
682 2 0.300624 0.0843215 0.378518
698 4 0.396586 0.0674918 0.354539
699 4 0.346613 0.0656674 0.354639
257 4 0.416838 0.0624186 0.354915
697 2 0.371599 0.0665796 0.354589
426 4 0.394066 0.0210485 0.40196
256 2 0.437045 0.0483377 0.359227
258 4 0.457251 0.0342569 0.363539
2879 4 0.493545 0.0716395 0.407507
2586 4 0.0106295 0.11425 0.392033
318 4 0.0709342 0.0849052 0.334404
398 4 0.0568167 0.14805 0.372341
397 2 0.0635541 0.13003 0.35637
399 4 0.0702914 0.112011 0.340399
457 2 0.0306939 0.146818 0.409798
458 4 0.0122181 0.133226 0.399842
459 4 0.0491697 0.160409 0.419753
731 4 0.13001 0.1005 0.34211
730 2 0.105573 0.10017 0.336831
604 2 0.160446 0.0865732 0.355469
599 4 0.148356 0.163514 0.376414
600 4 0.168258 0.132993 0.342164
598 2 0.158307 0.148253 0.359289
605 4 0.185113 0.0899421 0.357794
248 4 0.200262 0.0993754 0.349959
684 4 0.290695 0.0998709 0.395395
452 4 0.482785 0.120697 0.396669
451 2 0.462865 0.132401 0.406228
453 4 0.442946 0.144106 0.415787
260 4 0.0562135 0.179772 0.41654
474 4 0.206292 0.222357 0.384366
276 4 0.20093 0.236034 0.399129
472 2 0.220547 0.20189 0.382618
473 4 0.234802 0.181422 0.380869
708 4 0.351077 0.172755 0.343444
715 2 0.386433 0.206435 0.3484
716 4 0.378883 0.212477 0.371458
467 4 0.376375 0.199346 0.385421
466 2 0.371578 0.202811 0.409714
306 4 0.492735 0.169362 0.408027
419 4 0.442279 0.215818 0.342512
268 2 0.48361 0.239822 0.411484
270 4 0.464274 0.233191 0.397084
347 4 0.0485442 0.306287 0.373444
346 2 0.0480877 0.302335 0.398129
618 4 0.0618359 0.314399 0.361605
389 4 0.0974385 0.24523 0.350485
616 2 0.0816713 0.328402 0.355634
274 2 0.197044 0.256246 0.384931
275 4 0.193157 0.276458 0.370734
375 4 0.181655 0.34076 0.363627
376 2 0.288322 0.29174 0.341443
378 4 0.283945 0.273147 0.357578
617 4 0.101507 0.342405 0.349662
510 4 0.225594 0.346739 0.331374
374 4 0.189475 0.344523 0.412876
373 2 0.185565 0.342642 0.388251
678 4 0.19861 0.338945 0.350941
508 2 0.238454 0.347623 0.352798
509 4 0.251315 0.348507 0.374223
503 4 0.264498 0.393337 0.425693
336 4 0.338179 0.384681 0.398129
334 2 0.3523 0.370925 0.413509
559 2 0.489568 0.399951 0.401825
561 4 0.478425 0.399804 0.379442
752 4 0.461825 0.409826 0.373261
547 2 0.0777352 0.42108 0.335952
548 4 0.0674898 0.419766 0.358722
407 4 0.0673905 0.434972 0.372431
406 2 0.0812454 0.437738 0.39306
500 4 0.079414 0.504071 0.346015
499 2 0.0890943 0.498086 0.368278
501 4 0.0987747 0.4921 0.390542
570 4 0.166054 0.494887 0.400767
1436 4 0.259466 0.49251 0.333354
3 3 0.314515 0.470991 0.340046
5 3 0.296384 0.477798 0.372336
1 1 0.312383 0.485465 0.358057
4 3 0.33267 0.487331 0.369163
594 4 0.398695 0.476999 0.379662
592 2 0.389073 0.494631 0.364772
117 3 0.482701 0.43349 0.34975
751 2 0.4469 0.429689 0.370455
753 4 0.431974 0.449552 0.367649
2237 4 0.0365143 0.0224205 0.489511
718 2 0.0629823 0.0559683 0.481262
720 4 0.0536207 0.0330441 0.484729
719 4 0.0723439 0.0788924 0.477794
369 4 0.0718285 0.0418654 0.450028
2236 2 0.027109 0.00151339 0.499491
368 4 0.108104 0.0143357 0.429366
367 2 0.0899661 0.0281005 0.439697
341 4 0.218522 0.0364879 0.496075
2430 4 0.209253 0.0212899 0.505916
439 2 0.302292 0.00607342 0.420581
441 4 0.308722 0.0288695 0.428592
962 4 0.305471 0.0210263 0.446453
961 2 0.308585 0.0382281 0.46433
963 4 0.311699 0.05543 0.482206
432 4 0.29807 0.0553439 0.496055
424 2 0.379992 0.0369027 0.415217
425 4 0.365917 0.052757 0.428473
725 4 0.391764 0.0498754 0.460521
724 2 0.376482 0.0692634 0.464486
726 4 0.361199 0.0886515 0.468451
321 4 0.252798 0.122862 0.429281
320 4 0.291328 0.0942744 0.41518
319 2 0.272063 0.108568 0.422231
1181 4 0.263883 0.108279 0.496385
1182 4 0.281631 0.15484 0.492167
1180 2 0.272757 0.13156 0.494276
515 4 0.434652 0.161815 0.421035
2878 2 0.497357 0.0819217 0.429978
2880 4 0.501169 0.092204 0.452448
640 2 0.492267 0.105455 0.483528
641 4 0.478556 0.102993 0.504292
471 4 0.0151572 0.177603 0.487216
259 2 0.0786205 0.183581 0.426961
685 2 0.140991 0.184956 0.428402
687 4 0.118217 0.194874 0.431256
261 4 0.101027 0.18739 0.437382
1035 4 0.0913821 0.188509 0.45495
1033 2 0.107414 0.197739 0.471772
1034 4 0.123447 0.206968 0.488593
686 4 0.163766 0.175039 0.425549
695 4 0.0887659 0.234558 0.468863
856 2 0.222564 0.230798 0.499802
487 2 0.295466 0.243048 0.429288
489 4 0.313608 0.234386 0.444154
411 4 0.310239 0.217343 0.452692
409 2 0.334027 0.209646 0.452346
574 2 0.392444 0.178227 0.48915
410 4 0.357814 0.20195 0.452
468 4 0.366782 0.206276 0.434008
575 4 0.403462 0.186695 0.468364
516 4 0.414807 0.193704 0.45405
514 2 0.42473 0.17776 0.437542
304 2 0.487121 0.183804 0.42765
305 4 0.481506 0.198247 0.447273
348 4 0.0476312 0.298383 0.422814
694 2 0.0929168 0.257256 0.478493
696 4 0.0970676 0.279955 0.488123
9 3 0.158366 0.319764 0.471259
1260 4 0.113571 0.287512 0.497592
651 4 0.24233 0.291553 0.473286
857 4 0.213751 0.249236 0.485395
488 4 0.277324 0.251711 0.414422
649 2 0.263122 0.277734 0.47192
650 4 0.283915 0.263914 0.470554
266 4 0.364655 0.297723 0.467422
267 4 0.384528 0.256292 0.447693
265 2 0.374592 0.277007 0.457558
583 2 0.474276 0.282072 0.473463
585 4 0.455018 0.292787 0.461651
584 4 0.493533 0.271358 0.485275
2846 4 0.00243641 0.368041 0.483811
681 4 0.00484635 0.396319 0.434743
326 4 0.0857931 0.345415 0.442709
6 1 0.151935 0.338711 0.483008
327 4 0.131303 0.359632 0.45779
325 2 0.108548 0.352524 0.450249
7 3 0.13311 0.347534 0.473163
10 3 0.168623 0.354201 0.482506
711 4 0.170817 0.378347 0.454335
502 2 0.241844 0.400601 0.433386
504 4 0.219189 0.407865 0.441079
709 2 0.18546 0.395516 0.443566
710 4 0.200104 0.412684 0.432796
668 4 0.318529 0.387131 0.447908
667 2 0.301063 0.404984 0.449081
804 4 0.271606 0.354762 0.50083
335 4 0.36642 0.357169 0.42889
812 4 0.360436 0.361732 0.49229
238 2 0.397923 0.378114 0.449989
240 4 0.379946 0.361489 0.444927
239 4 0.4159 0.394738 0.455052
560 4 0.500712 0.400099 0.424208
680 4 0.0114138 0.445463 0.428233
1383 4 0.0084148 0.463782 0.435559
679 2 0.00813006 0.420891 0.431488
1381 2 0.00403287 0.485918 0.446327
568 2 0.153047 0.493415 0.42207
384 4 0.115257 0.415626 0.465249
569 4 0.14004 0.491942 0.443374
383 4 0.0874674 0.440483 0.431923
382 2 0.101362 0.428055 0.448586
408 4 0.0951003 0.440504 0.413689
636 4 0.246422 0.490781 0.445782
772 2 0.270088 0.428298 0.489869
635 4 0.258687 0.446554 0.46564
774 4 0.272473 0.434532 0.465772
669 4 0.283598 0.422838 0.450254
634 2 0.252555 0.468667 0.455711
1401 4 0.361234 0.501154 0.420074
587 4 0.414879 0.439193 0.424556
880 2 0.356951 0.451635 0.485541
588 4 0.38759 0.460398 0.4607
881 4 0.362689 0.473659 0.495895
586 2 0.401234 0.449795 0.442628
882 4 0.351213 0.429611 0.475187
663 4 0.455277 0.449634 0.476841
662 4 0.475935 0.494772 0.482889
661 2 0.465606 0.472203 0.479865
1126 2 0.018959 0.0641986 0.575455
1127 4 0.0430541 0.064986 0.568824
1058 4 0.129555 0.0730244 0.579812
1031 4 0.219123 0.0667123 0.569615
340 2 0.21754 0.0600204 0.504467
342 4 0.216557 0.083553 0.51286
2428 2 0.213811 0.996785 0.507892
430 2 0.312874 0.0562841 0.516183
431 4 0.327678 0.0572243 0.536311
1217 4 0.403159 0.0537014 0.528749
1216 2 0.414359 0.0361282 0.542566
841 2 0.369541 0.0643264 0.52124
842 4 0.392933 0.0635757 0.512443
843 4 0.346148 0.0650771 0.530038
1218 4 0.42556 0.0185551 0.556383
938 4 0.0848733 0.142779 0.548121
937 2 0.106004 0.147764 0.560525
939 4 0.127134 0.152749 0.572928
1059 4 0.134796 0.121288 0.567816
1057 2 0.132175 0.097156 0.573814
1155 4 0.138102 0.137332 0.580188
1030 2 0.222948 0.0914195 0.569933
1152 4 0.205683 0.0996488 0.516679
1151 4 0.163767 0.126796 0.5193
1150 2 0.184725 0.113222 0.51799
1032 4 0.226774 0.116127 0.570251
3159 4 0.493056 0.155707 0.562623
877 2 0.0530782 0.221178 0.584023
1199 4 0.00950054 0.212114 0.582032
879 4 0.0766533 0.22927 0.582045
470 4 0.0422799 0.202899 0.52076
469 2 0.0287186 0.190251 0.503988
1272 4 0.0902187 0.221268 0.567984
1270 2 0.112307 0.23234 0.571818
1271 4 0.134395 0.243412 0.575653
858 4 0.231377 0.212359 0.514208
898 2 0.315202 0.190495 0.563806
900 4 0.294598 0.204528 0.565737
899 4 0.335806 0.176462 0.561876
576 4 0.381426 0.169758 0.509937
3065 4 0.500608 0.243155 0.508362
983 4 0.0323617 0.312791 0.53293
982 2 0.0214998 0.326644 0.550687
1245 4 0.0525912 0.294805 0.576349
1258 2 0.133711 0.281047 0.510924
1259 4 0.153851 0.274581 0.524256
872 4 0.361657 0.275705 0.551365
871 2 0.358243 0.299703 0.545231
873 4 0.354829 0.323701 0.539098
984 4 0.0106379 0.340496 0.568443
8 3 0.146989 0.333112 0.504976
1189 2 0.232427 0.375056 0.566461
1191 4 0.210602 0.385765 0.572307
1172 4 0.235023 0.410901 0.567707
1190 4 0.254251 0.364347 0.560615
803 4 0.260474 0.376087 0.544671
802 2 0.26604 0.365424 0.522751
1239 4 0.319087 0.348603 0.578507
813 4 0.350793 0.343414 0.537812
928 2 0.345688 0.37258 0.56559
811 2 0.355614 0.352573 0.515051
929 4 0.355261 0.388786 0.54913
926 4 0.420553 0.340518 0.528173
925 2 0.427986 0.363485 0.534688
927 4 0.435419 0.386452 0.541204
3307 2 0.496755 0.363267 0.508674
3309 4 0.482456 0.37981 0.5208
539 4 0.0816743 0.449685 0.502786
2244 4 0.120401 0.490921 0.515665
538 2 0.0909246 0.472173 0.508609
1159 2 0.142963 0.471986 0.576391
540 4 0.100175 0.494661 0.514433
1161 4 0.154615 0.492952 0.583451
1160 4 0.131311 0.45102 0.569332
1171 2 0.227377 0.434323 0.571964
773 4 0.267704 0.422063 0.513965
1953 4 0.357606 0.490273 0.563719
1002 4 0.415934 0.430248 0.568303
1911 4 0.458549 0.482542 0.556261
1000 2 0.437769 0.436427 0.557803
1001 4 0.459603 0.442606 0.547303
1083 4 0.0394878 0.070404 0.617352
1081 2 0.047428 0.0805715 0.63877
825 4 0.125412 0.0113949 0.657601
951 4 0.258174 0.026015 0.595189
949 2 0.278216 0.0365849 0.605761
950 4 0.298259 0.0471548 0.616332
2283 4 0.404415 0.00914641 0.655819
3008 4 0.486588 0.0673672 0.594618
809 4 0.473992 0.077178 0.604568
808 2 0.466708 0.0804054 0.628269
810 4 0.459425 0.0836328 0.651969
1082 4 0.0553682 0.090739 0.660189
1153 2 0.152423 0.1536 0.592656
1283 4 0.181048 0.123814 0.643092
1282 2 0.185333 0.104591 0.658496
909 4 0.161761 0.160784 0.665268
45 3 0.454655 0.10504 0.662095
878 4 0.0295032 0.213086 0.586001
1221 4 0.181694 0.182387 0.597468
1154 4 0.166744 0.169868 0.605123
1210 2 0.244139 0.178977 0.646791
1212 4 0.231108 0.186898 0.626976
1219 2 0.204494 0.190052 0.604292
1220 4 0.227295 0.197717 0.611116
797 4 0.244943 0.252082 0.600962
796 2 0.221849 0.248595 0.592036
1194 4 0.329095 0.182638 0.669779
1193 4 0.372637 0.204458 0.658435
1192 2 0.350866 0.193548 0.664107
1025 4 0.425155 0.217858 0.664347
1244 4 0.0497912 0.273124 0.621325
1243 2 0.0511912 0.283964 0.598837
1209 4 0.125343 0.257751 0.653121
1136 4 0.132457 0.318649 0.611611
948 4 0.146954 0.279953 0.61551
946 2 0.16581 0.268787 0.60347
798 4 0.198755 0.245108 0.58311
947 4 0.184666 0.257622 0.591431
791 4 0.262465 0.259639 0.594475
792 4 0.292647 0.299064 0.588523
790 2 0.277556 0.279351 0.591499
1238 4 0.301614 0.309241 0.603924
1237 2 0.31035 0.328922 0.591216
805 2 0.335015 0.294279 0.64257
807 4 0.31469 0.279821 0.644313
954 4 0.409978 0.304832 0.59958
806 4 0.35534 0.308737 0.640828
953 4 0.452227 0.279323 0.591513
904 2 0.479933 0.265635 0.604238
906 4 0.463743 0.284373 0.607695
952 2 0.431103 0.292077 0.595547
3263 4 0.0117606 0.339078 0.616097
1039 2 0.0646173 0.399198 0.620332
1041 4 0.0423522 0.391826 0.611666
3264 4 0.0232485 0.387739 0.615154
3262 2 0.0175045 0.363409 0.615626
3240 4 0.0178976 0.407043 0.622306
1040 4 0.0868825 0.40657 0.628998
993 4 0.100393 0.417627 0.619769
1137 4 0.137907 0.368269 0.61458
897 4 0.149457 0.377641 0.602634
1135 2 0.135182 0.343459 0.613096
991 2 0.120133 0.402297 0.619064
992 4 0.139872 0.386966 0.61836
896 4 0.196102 0.379206 0.584675
895 2 0.172779 0.378423 0.593654
930 4 0.336115 0.356375 0.582049
1204 2 0.392058 0.394678 0.64595
1206 4 0.376302 0.381442 0.631746
1205 4 0.407813 0.407914 0.660154
1173 4 0.219731 0.457745 0.576221
1187 4 0.211701 0.464629 0.592555
1186 2 0.19367 0.481499 0.59649
1188 4 0.175639 0.498368 0.600426
889 2 0.297437 0.478713 0.622794
891 4 0.279415 0.476022 0.639915
890 4 0.31546 0.481403 0.605672
1951 2 0.34493 0.481211 0.583273
1952 4 0.332254 0.472149 0.602828
1230 4 0.382921 0.463379 0.649419
1269 4 0.467661 0.467951 0.635451
1267 2 0.467732 0.482083 0.656078
943 2 0.0519859 0.0572091 0.695105
945 4 0.0564624 0.0330559 0.69977
2991 4 0.996949 0.0410376 0.735281
1203 4 0.134075 0.0745163 0.73597
1201 2 0.120746 0.0556257 0.745491
1147 2 0.225649 0.0510912 0.723541
1149 4 0.239028 0.0300007 0.724706
1148 4 0.212269 0.0721818 0.722376
1004 4 0.376472 0.066217 0.707329
1163 4 0.466066 0.0691364 0.683101
1162 2 0.482661 0.0518997 0.690357
42 3 0.453196 0.0678791 0.665234
2320 2 0.478803 0.0291252 0.745088
2322 4 0.45659 0.0341199 0.755424
2321 4 0.501016 0.0241305 0.734753
1164 4 0.499257 0.034663 0.697614
944 4 0.0475095 0.0813623 0.69044
1076 4 0.0486805 0.0972699 0.678416
862 2 0.0242916 0.126462 0.743711
864 4 0.0413568 0.136991 0.728775
1075 2 0.0460626 0.116541 0.694131
1077 4 0.0434448 0.135812 0.709846
1107 4 0.0569391 0.146127 0.718606
851 4 0.0478824 0.153409 0.702806
1105 2 0.0716315 0.155029 0.736773
1284 4 0.189618 0.0853673 0.6739
908 4 0.177722 0.152081 0.711853
907 2 0.169741 0.156433 0.68856
1227 4 0.192314 0.136901 0.714233
1225 2 0.203265 0.114958 0.719104
1226 4 0.214217 0.0930141 0.723974
1003 2 0.372768 0.0877573 0.695185
829 2 0.340461 0.152093 0.7098
830 4 0.334054 0.155825 0.685921
1005 4 0.369064 0.109298 0.683041
831 4 0.346869 0.148362 0.733679
43 3 0.427787 0.0890588 0.683079
41 1 0.44992 0.0878192 0.676226
44 3 0.463979 0.0886165 0.694668
3425 4 0.468564 0.106311 0.680432
3424 2 0.489667 0.119561 0.678359
852 4 0.0643436 0.187654 0.670293
850 2 0.056113 0.170531 0.68655
1177 2 0.034869 0.221451 0.702306
1178 4 0.0179635 0.213709 0.719023
1179 4 0.0517745 0.229192 0.68559
1215 4 0.00246158 0.215446 0.730374
1073 4 0.14158 0.222768 0.751549
1072 2 0.131098 0.245378 0.749532
1130 4 0.18178 0.173557 0.756928
1211 4 0.257169 0.171055 0.666606
888 4 0.277539 0.168999 0.670893
886 2 0.302319 0.165732 0.670241
887 4 0.3271 0.162464 0.669589
976 2 0.278348 0.205401 0.737395
978 4 0.257288 0.197249 0.726663
977 4 0.299409 0.213553 0.748128
918 4 0.296343 0.233317 0.745516
1262 4 0.431912 0.236458 0.722916
1142 4 0.442452 0.180433 0.713412
1024 2 0.428471 0.207845 0.687017
1141 2 0.443995 0.172179 0.736963
1026 4 0.431787 0.197833 0.709688
1261 2 0.456147 0.238907 0.728559
1263 4 0.480382 0.241356 0.734203
3123 4 0.48952 0.244116 0.69043
1207 2 0.119786 0.267791 0.675336
1208 4 0.11423 0.277831 0.697551
1074 4 0.120616 0.267989 0.747515
821 4 0.171855 0.318642 0.696252
820 2 0.171847 0.294532 0.689628
822 4 0.171839 0.270422 0.683004
1065 4 0.233988 0.318152 0.701465
1064 4 0.276725 0.29992 0.682974
1063 2 0.255357 0.309036 0.69222
916 2 0.291371 0.257682 0.748126
892 2 0.0304767 0.361652 0.694224
893 4 0.0128789 0.348971 0.681788
894 4 0.0480746 0.374334 0.706661
1280 4 0.0583023 0.383714 0.721608
1279 2 0.0567801 0.407547 0.714202
814 2 0.0778689 0.370755 0.750761
816 4 0.0579823 0.367761 0.735903
1028 4 0.211865 0.380791 0.697156
1066 2 0.188086 0.383665 0.733372
1068 4 0.204333 0.379981 0.714727
1027 2 0.233856 0.389635 0.689194
1029 4 0.255846 0.398478 0.681232
1140 4 0.272552 0.395025 0.67121
1138 2 0.283644 0.414654 0.682019
1019 4 0.355596 0.374883 0.73515
1981 2 0.0626178 0.459592 0.728481
1281 4 0.0552579 0.43138 0.706796
1983 4 0.0708921 0.439367 0.716329
1982 4 0.0543435 0.479817 0.740632
2016 4 0.193051 0.494912 0.739001
1139 4 0.294737 0.434283 0.692827
1987 2 0.33429 0.460554 0.72914
1988 4 0.31796 0.465985 0.747279
1228 2 0.372003 0.46165 0.671846
1229 4 0.361085 0.459921 0.694273
1989 4 0.35062 0.455123 0.711002
1268 4 0.467802 0.496214 0.676705
1100 4 0.421249 0.431712 0.686268
1099 2 0.424378 0.453017 0.698975
1101 4 0.427508 0.474322 0.711683
1202 4 0.107416 0.0367351 0.755011
2049 4 0.106178 0.0241874 0.770839
2047 2 0.118097 0.00397601 0.779476
819 4 0.334451 0.0868095 0.813477
817 2 0.338495 0.0632537 0.820822
818 4 0.342539 0.0396978 0.828167
1113 4 0.429921 0.070247 0.81775
1112 4 0.447001 0.0811537 0.772033
1111 2 0.438461 0.0757004 0.794892
911 4 0.0797821 0.137608 0.823027
863 4 0.0072263 0.115933 0.758648
832 2 0.997729 0.106454 0.797815
833 4 0.012147 0.113221 0.77854
34 3 0.129944 0.165454 0.814085
31 1 0.109586 0.159111 0.804934
35 3 0.112998 0.144735 0.787604
32 3 0.0970958 0.148608 0.821146
1106 4 0.0863239 0.163932 0.754941
1257 4 0.247706 0.0865401 0.795697
1256 4 0.29581 0.0997773 0.792303