ITEM: TIMESTEP
3140000
ITEM: NUMBER OF ATOMS
4590
ITEM: BOX BOUNDS pp pp pp
-9.9985700000000008e+00 9.9985700000000008e+00
-9.9985700000000008e+00 9.9985700000000008e+00
-9.9985700000000008e+00 9.9985700000000008e+00
ITEM: ATOMS id type xs ys zs
1667 4 0.00996851 0.0571846 0.0583357
701 4 0.0293201 0.0609674 0.0619056
700 2 0.0503327 0.0744667 0.063095
490 2 0.279475 0.0587346 0.0614588
492 4 0.27897 0.0350981 0.0533202
1475 4 0.285623 0.0237407 0.0680734
2974 2 0.459051 0.0162525 0.0238089
745 2 0.421465 0.0658058 0.026036
747 4 0.436595 0.0512365 0.0124715
2975 4 0.444774 0.0318458 0.0104599
2468 4 0.49095 0.00144083 0.047966
986 4 0.430861 0.0382003 0.000625132
702 4 0.0713454 0.0879661 0.0642844
476 4 0.0717204 0.108516 0.0597406
475 2 0.0764067 0.132075 0.0666829
477 4 0.081093 0.155634 0.0736252
566 4 0.194907 0.135713 0.0167553
565 2 0.214879 0.146105 0.00587885
491 4 0.279981 0.0823711 0.0695974
769 2 0.397675 0.150698 0.0257857
556 2 0.380685 0.0973211 0.00811481
558 4 0.392878 0.0890903 0.0283331
771 4 0.396753 0.126805 0.0184732
746 4 0.406335 0.0803751 0.0396005
737 4 0.235812 0.195793 0.0430768
736 2 0.214209 0.202312 0.0538462
738 4 0.192605 0.20883 0.0646156
573 4 0.268946 0.25804 0.0532276
770 4 0.398598 0.17459 0.0330982
359 4 0.401292 0.191074 0.0229066
664 2 0.403422 0.208877 0.0603728
665 4 0.399136 0.191477 0.0429354
666 4 0.407707 0.226276 0.0778102
323 4 0.409261 0.241988 0.0662226
358 2 0.390196 0.202227 0.00347343
3338 4 0.0203005 0.24727 0.00429672
292 2 0.150853 0.327907 0.0358976
294 4 0.131205 0.322828 0.0212914
482 4 0.250099 0.255737 0.0560104
293 4 0.170501 0.332986 0.0505038
507 4 0.181269 0.323494 0.0572488
287 4 0.185376 0.329556 0.0399497
286 2 0.200997 0.329562 0.0204265
288 4 0.216618 0.329569 0.000903194
481 2 0.226118 0.2584 0.062566
505 2 0.190919 0.302093 0.0658542
483 4 0.202136 0.261063 0.0691217
506 4 0.200569 0.280692 0.0744595
571 2 0.279248 0.261205 0.0306658
572 4 0.289549 0.264371 0.00810401
357 4 0.31057 0.270133 0.00588952
355 2 0.321104 0.292806 0.0055404
623 4 0.393017 0.239664 0.0763248
956 4 0.335711 0.334709 0.0111637
1069 2 0.405754 0.314455 0.034883
322 2 0.415536 0.264282 0.0567996
324 4 0.42181 0.286576 0.0473767
1070 4 0.423558 0.297218 0.0315538
280 2 0.454754 0.301712 0.0552433
282 4 0.439492 0.288503 0.040486
281 4 0.470017 0.31492 0.0700005
671 4 0.461272 0.328621 0.0808664
329 4 0.00357303 0.39263 0.071905
552 4 0.16867 0.331198 0.0691324
456 4 0.205327 0.385655 0.0670449
454 2 0.193878 0.363932 0.0623329
455 4 0.18243 0.342208 0.0576208
1290 4 0.266627 0.405488 0.0429062
1288 2 0.281893 0.391876 0.0285245
1289 4 0.297159 0.378263 0.0141429
251 4 0.260179 0.423695 0.0453929
903 4 0.294461 0.367411 0.997098
955 2 0.355445 0.340221 0.0254941
1071 4 0.387951 0.331693 0.0382121
957 4 0.375179 0.345733 0.0398245
741 4 0.387224 0.344207 0.0543422
739 2 0.393107 0.347934 0.0783562
1787 4 0.0973594 0.496991 0.0573235
1786 2 0.0929366 0.477542 0.0724021
1690 2 0.113565 0.500712 0.0179199
626 4 0.188503 0.475687 0.0567618
625 2 0.176176 0.496516 0.0504902
245 4 0.190943 0.456976 0.050694
244 2 0.215124 0.452841 0.0458634
246 4 0.239306 0.448706 0.0410329
250 2 0.269388 0.430738 0.0675462
272 4 0.250099 0.434218 0.032551
271 2 0.258974 0.442465 0.0106788
1672 2 0.410852 0.435468 0.0774231
853 2 0.396492 0.437118 0.0195273
854 4 0.414535 0.440419 0.0365197
855 4 0.378449 0.433817 0.00253488
37 3 0.36047 0.42241 0.00453151
1674 4 0.42009 0.43828 0.0543594
564 4 0.429876 0.451074 0.0432429
563 4 0.472808 0.462943 0.0205109
562 2 0.451342 0.457008 0.0318769
228 4 0.486312 0.477283 0.0193232
19 3 0.0695421 0.0213008 0.164238
16 1 0.0705185 0.999336 0.171655
582 4 0.241906 0.083266 0.152782
580 2 0.256065 0.0657245 0.163598
1760 4 0.497958 0.0647139 0.135834
486 4 0.431657 0.00169497 0.122726
1759 2 0.50422 0.0445918 0.122377
2724 4 0.485318 0.0750393 0.144839
2744 4 0.503646 0.0681762 0.153349
237 4 0.227771 0.0893214 0.165588
312 4 0.366864 0.123023 0.155663
628 2 0.381959 0.164208 0.163241
629 4 0.375332 0.141036 0.156583
310 2 0.360265 0.101496 0.166536
2722 2 0.475348 0.0971805 0.150802
2723 4 0.465379 0.119322 0.156764
391 2 0.0483511 0.199999 0.158476
392 4 0.0563071 0.22298 0.152666
536 4 0.175854 0.253413 0.122193
460 2 0.323877 0.220767 0.117266
461 4 0.302895 0.207368 0.114941
354 4 0.288967 0.207028 0.129986
352 2 0.275391 0.220985 0.145672
353 4 0.261814 0.234942 0.161359
630 4 0.388587 0.18738 0.169898
462 4 0.344859 0.234166 0.119591
255 4 0.359294 0.235341 0.130777
253 2 0.37354 0.219636 0.144029
622 2 0.375804 0.242165 0.0942869
624 4 0.358591 0.244666 0.112249
765 4 0.350944 0.252216 0.127401
537 4 0.208018 0.279213 0.0938991
535 2 0.191936 0.266313 0.108046
754 2 0.236151 0.256195 0.163201
756 4 0.228653 0.279627 0.15874
301 2 0.319104 0.317935 0.14725
303 4 0.314724 0.297319 0.160702
764 4 0.327703 0.283676 0.158559
763 2 0.339323 0.267946 0.14298
12 3 0.416475 0.326497 0.123833
527 4 0.476184 0.317624 0.0882246
647 4 0.0471241 0.359936 0.148034
315 4 0.000364687 0.401955 0.120051
550 2 0.155007 0.338166 0.088879
551 4 0.141343 0.345134 0.108626
302 4 0.323483 0.338552 0.133799
387 4 0.331101 0.351755 0.119528
385 2 0.355431 0.354742 0.114594
493 2 0.393612 0.392509 0.108756
495 4 0.395499 0.36772 0.111431
386 4 0.37976 0.35773 0.10966
15 3 0.383918 0.344503 0.120875
740 4 0.398991 0.351662 0.10237
14 3 0.416187 0.363159 0.115556
11 1 0.405588 0.346406 0.127614
13 3 0.406432 0.351226 0.150296
672 4 0.422368 0.344414 0.108029
670 2 0.44182 0.336518 0.0944476
1788 4 0.0885139 0.458094 0.0874806
1791 4 0.0552465 0.499837 0.126717
1465 2 0.0677658 0.46784 0.121779
1466 4 0.0546768 0.482212 0.137506
1467 4 0.0808549 0.453469 0.106053
638 4 0.2015 0.473574 0.159161
637 2 0.185329 0.484695 0.143668
639 4 0.169158 0.495816 0.128176
252 4 0.278596 0.437782 0.0896995
609 4 0.275804 0.424519 0.104282
607 2 0.299261 0.426412 0.112731
608 4 0.322717 0.428305 0.121179
659 4 0.333084 0.434662 0.104858
494 4 0.391725 0.417297 0.106081
660 4 0.38296 0.43602 0.101493
1673 4 0.401614 0.432656 0.100487
658 2 0.358022 0.435341 0.103176
524 4 0.40007 0.495071 0.128926
523 2 0.39693 0.47234 0.118995
525 4 0.393789 0.44961 0.109064
2480 4 0.0328855 0.00303485 0.189219
2479 2 0.0276497 0.0256809 0.198434
380 4 0.0274391 0.0604599 0.222472
2481 4 0.0224139 0.0483269 0.207649
379 2 0.028136 0.0840038 0.214083
578 4 0.0854747 0.0208269 0.180761
20 3 0.0878337 0.996819 0.186232
577 2 0.0970124 0.0424411 0.185749
579 4 0.10855 0.0640553 0.190738
674 4 0.15842 0.0114184 0.239063
450 4 0.125815 0.0743617 0.189672
448 2 0.149324 0.0791978 0.182662
673 2 0.134761 0.00672448 0.245652
1504 2 0.235702 0.00259342 0.190547
235 2 0.206492 0.0820379 0.176512
236 4 0.185213 0.0747545 0.187437
689 4 0.17108 0.00640291 0.223915
581 4 0.270224 0.0481829 0.174415
1506 4 0.252624 0.0205311 0.186414
654 4 0.267139 0.034232 0.189527
652 2 0.268676 0.0419169 0.21327
653 4 0.270214 0.0496018 0.237014
758 4 0.337577 0.0721531 0.186365
759 4 0.358996 0.0591419 0.229639
757 2 0.348286 0.0656475 0.208002
350 4 0.372142 0.0605811 0.237414
349 2 0.395545 0.0518506 0.236301
22 3 0.355139 0.0535631 0.245146
311 4 0.353666 0.0799691 0.177409
632 4 0.36109 0.0672006 0.248422
480 4 0.429149 0.0532753 0.247123
351 4 0.418949 0.0431202 0.235189
743 4 0.495449 0.0783513 0.249005
2743 2 0.504479 0.0545387 0.174289
513 4 0.0460002 0.160475 0.174725
511 2 0.0343548 0.139843 0.182719
512 4 0.0227095 0.119211 0.190713
381 4 0.0288329 0.107548 0.205694
449 4 0.172833 0.0840339 0.175653
30 3 0.331327 0.13172 0.234556
26 1 0.34492 0.146376 0.245469
28 3 0.359528 0.156325 0.230434
761 4 0.397138 0.132699 0.227831
521 4 0.461485 0.145979 0.214962
762 4 0.443787 0.139642 0.211205
760 2 0.420463 0.136171 0.219518
332 4 0.459733 0.126989 0.216212
331 2 0.47096 0.109629 0.230275
520 2 0.4795 0.162149 0.208702
333 4 0.482186 0.0922684 0.244338
2483 4 0.00207862 0.238277 0.226711
393 4 0.0403951 0.177018 0.164286
337 2 0.0645671 0.244969 0.188207
396 4 0.0128333 0.251286 0.239012
339 4 0.0596526 0.226075 0.172585
546 4 0.0926223 0.244002 0.222362
544 2 0.114625 0.244623 0.234223
755 4 0.243649 0.232763 0.167662
279 4 0.275673 0.214781 0.220346
277 2 0.268037 0.225935 0.199312
278 4 0.2604 0.23709 0.178278
254 4 0.387785 0.203932 0.157282
394 2 0.0265919 0.267221 0.225524
395 4 0.0403506 0.283157 0.212036
338 4 0.0694816 0.263863 0.203828
363 4 0.0580961 0.280738 0.20496
361 2 0.062586 0.305308 0.203801
362 4 0.0670759 0.329878 0.202642
372 4 0.0845346 0.331793 0.193498
733 2 0.146218 0.331592 0.245325
545 4 0.136627 0.245244 0.246084
612 4 0.214724 0.286254 0.172137
611 4 0.218166 0.30384 0.218823
610 2 0.216445 0.295047 0.19548
344 4 0.217436 0.3138 0.236293
343 2 0.195921 0.309201 0.248173
284 4 0.273428 0.248637 0.169746
285 4 0.30853 0.284247 0.169039
283 2 0.290979 0.266442 0.169392
729 4 0.305822 0.301405 0.177252
727 2 0.293056 0.315171 0.193766
308 4 0.323252 0.289462 0.175712
728 4 0.28029 0.328936 0.21028
498 4 0.348844 0.284946 0.230564
307 2 0.338319 0.283091 0.194621
309 4 0.353387 0.276721 0.21353
749 4 0.0533465 0.344031 0.203553
648 4 0.0672336 0.340948 0.189697
748 2 0.0592413 0.359061 0.222645
646 2 0.0571788 0.350442 0.168866
750 4 0.0651361 0.374092 0.241737
370 2 0.10637 0.339548 0.202892
371 4 0.128206 0.347304 0.212287
734 4 0.134016 0.348851 0.231968
417 4 0.132933 0.362759 0.222177
299 4 0.132353 0.367851 0.240338
415 2 0.147447 0.373802 0.205072
298 2 0.108093 0.371485 0.245181
300 4 0.0838336 0.375118 0.250024
416 4 0.161961 0.384845 0.187968
290 4 0.209884 0.416335 0.176928
289 2 0.195332 0.397248 0.183939
291 4 0.180781 0.378161 0.190949
445 2 0.380353 0.374372 0.238402
447 4 0.402779 0.385147 0.23592
446 4 0.357928 0.363597 0.240883
596 4 0.498642 0.399154 0.158354
595 2 0.487306 0.390834 0.179028
644 4 0.413886 0.384777 0.219573
643 2 0.43882 0.385157 0.217743
645 4 0.463753 0.385536 0.215912
597 4 0.475969 0.382515 0.199703
264 4 0.0107898 0.438527 0.263226
767 4 0.221423 0.471548 0.162575
766 2 0.224893 0.447204 0.167103
768 4 0.228363 0.42286 0.171632
412 2 0.236993 0.483266 0.23149
414 4 0.238713 0.490097 0.2075
1574 4 0.286026 0.500679 0.210747
2756 4 0.00159085 0.0667223 0.29912
234 4 0.00353777 0.0477607 0.298341
232 2 0.0265602 0.0381306 0.296789
233 4 0.0495826 0.0285006 0.295237
317 4 0.0616871 0.0285419 0.311162
1404 4 0.0619318 0.0147693 0.297317
1402 2 0.0778862 0.00811811 0.27925
428 4 0.0632266 0.00915724 0.315302
316 2 0.0749397 0.0435308 0.326158
318 4 0.0881923 0.0585197 0.341154
693 4 0.315276 0.0577845 0.270702
691 2 0.304341 0.077133 0.282158
24 3 0.327475 0.0424995 0.268057
25 3 0.345815 0.0174604 0.246742
21 1 0.347965 0.0365884 0.258913
23 3 0.363583 0.0335159 0.275796
479 4 0.457255 0.0429488 0.287174
478 2 0.443202 0.048112 0.267149
2664 4 0.47124 0.0302367 0.286266
1428 4 0.452469 0.0307233 0.297262
258 4 0.444832 0.0464043 0.303887
2662 2 0.493244 0.0403648 0.292467
256 2 0.435896 0.0603206 0.32264
1426 2 0.44548 0.00793264 0.304806
403 2 0.230091 0.158379 0.319872
404 4 0.242341 0.138088 0.327834
692 4 0.293406 0.0964815 0.293614
721 2 0.264186 0.10894 0.306801
723 4 0.273987 0.0943644 0.289006
722 4 0.254385 0.123516 0.324596
27 3 0.332082 0.162737 0.255299
29 3 0.356878 0.135293 0.261979
631 2 0.357784 0.0909589 0.255479
707 4 0.35948 0.121421 0.27459
633 4 0.354478 0.114717 0.262535
706 2 0.360657 0.129662 0.298168
708 4 0.361834 0.137903 0.321745
444 4 0.0278743 0.220149 0.299944
442 2 0.0218555 0.231275 0.278377
443 4 0.0158367 0.242402 0.256809
600 4 0.0998488 0.213152 0.333721
405 4 0.217841 0.17867 0.31191
473 4 0.215666 0.197037 0.320459
418 2 0.406606 0.252575 0.313051
419 4 0.418966 0.231612 0.318793
269 4 0.418301 0.220363 0.33439
402 4 0.145118 0.251882 0.263073
735 4 0.15842 0.314333 0.258683
375 4 0.153772 0.329036 0.332267
400 2 0.151213 0.275842 0.266805
676 2 0.162375 0.326638 0.295882
677 4 0.169721 0.312875 0.276342
401 4 0.157308 0.299803 0.270537
345 4 0.174406 0.304601 0.260053
378 4 0.281023 0.280805 0.297637
376 2 0.303857 0.290969 0.296929
377 4 0.32669 0.301133 0.296221
615 4 0.338341 0.316133 0.301274
497 4 0.331869 0.297168 0.275987
496 2 0.340357 0.291057 0.253275
541 2 0.360307 0.288266 0.304264
542 4 0.377529 0.275719 0.317347
543 4 0.343085 0.300814 0.291182
420 4 0.394245 0.273537 0.30731
2537 4 0.471935 0.301717 0.319467
364 2 0.00300715 0.38672 0.28811
365 4 0.0274854 0.38284 0.284802
603 4 0.032081 0.397109 0.299549
601 2 0.0452828 0.399442 0.320655
678 4 0.155029 0.340401 0.315421
510 4 0.166311 0.357264 0.318254
508 2 0.187951 0.369683 0.319885
509 4 0.209591 0.382102 0.321516
434 4 0.323438 0.375243 0.32424
433 2 0.311269 0.397078 0.323667
613 2 0.331147 0.335251 0.315693
614 4 0.323952 0.354369 0.330112
1757 4 0.0259386 0.450226 0.268282
1756 2 0.050519 0.454646 0.267079
1758 4 0.0750995 0.459066 0.265875
1775 4 0.0814521 0.476605 0.277264
775 2 0.0641395 0.483571 0.314169
776 4 0.0498419 0.48278 0.334666
777 4 0.0784371 0.484362 0.293672
1776 4 0.12712 0.456736 0.281781
1774 2 0.104286 0.46667 0.279523
413 4 0.235273 0.476434 0.255481
1436 4 0.250782 0.465976 0.259514
1435 2 0.256484 0.454734 0.281107
4 3 0.25446 0.424178 0.308734
1437 4 0.262185 0.443491 0.302701
3 3 0.275433 0.452411 0.323136
1 1 0.266315 0.431483 0.327294
436 2 0.3123 0.454536 0.322735
438 4 0.293878 0.438184 0.32703
2 3 0.283377 0.416647 0.331532
435 4 0.299101 0.418914 0.323093
437 4 0.330722 0.470887 0.31844
1801 2 0.361348 0.483275 0.317987
1802 4 0.337074 0.488929 0.319983
1803 4 0.385622 0.47762 0.315992
119 3 0.490646 0.457354 0.325711
732 4 0.101137 0.0732612 0.334683
730 2 0.123423 0.0691152 0.345233
731 4 0.145709 0.0649692 0.355784
606 4 0.164342 0.0725086 0.352617
604 2 0.183927 0.0807295 0.365808
257 4 0.42696 0.0742368 0.341393
699 4 0.379022 0.0518137 0.369321
1699 2 0.367157 0.0141942 0.375151
1700 4 0.378374 0.0327818 0.362747
697 2 0.39539 0.0679225 0.359434
698 4 0.411759 0.0840313 0.349547
397 2 0.0702121 0.0941431 0.353
398 4 0.053586 0.11167 0.359447
2584 2 0.0232047 0.124454 0.349614
2586 4 0.0452318 0.129049 0.360517
458 4 0.050148 0.136672 0.377363
457 2 0.0444496 0.153263 0.39518
399 4 0.0868382 0.0766163 0.346553
605 4 0.203513 0.0889504 0.379
248 4 0.216668 0.103792 0.378346
247 2 0.229402 0.111956 0.358437
249 4 0.242137 0.12012 0.338528
683 4 0.254568 0.133735 0.341993
682 2 0.275267 0.146351 0.348124
684 4 0.295965 0.158968 0.354254
319 2 0.328423 0.159316 0.339183
320 4 0.306815 0.171323 0.342936
321 4 0.350032 0.147309 0.335431
726 4 0.407342 0.142779 0.396702
717 4 0.358441 0.145851 0.354532
715 2 0.373551 0.146287 0.374448
716 4 0.388662 0.146723 0.394364
467 4 0.40047 0.16028 0.402918
724 2 0.424135 0.12634 0.405242
725 4 0.440929 0.109902 0.413783
642 4 0.49823 0.111418 0.381975
641 4 0.450327 0.121573 0.371831
640 2 0.474279 0.116495 0.376903
459 4 0.0387512 0.169854 0.412997
598 2 0.115987 0.214695 0.352757
599 4 0.132124 0.216239 0.371793
389 4 0.134105 0.242962 0.382978
686 4 0.127013 0.226321 0.386297
685 2 0.116794 0.223724 0.408969
275 4 0.144101 0.225291 0.384575
274 2 0.167167 0.219719 0.376696
474 4 0.205457 0.225729 0.360124
472 2 0.210562 0.211383 0.340291
276 4 0.190233 0.214146 0.368817
268 2 0.440626 0.2156 0.344592
270 4 0.462951 0.210837 0.354795
452 4 0.477945 0.202972 0.365384
451 2 0.480025 0.202782 0.3903
453 4 0.482105 0.202591 0.415216
347 4 0.0537861 0.303885 0.383961
346 2 0.0359694 0.307106 0.401206
618 4 0.06352 0.308299 0.3647
348 4 0.0181528 0.310327 0.41845
2802 4 0.00472301 0.296881 0.412592
373 2 0.142448 0.313176 0.347933
388 2 0.124347 0.264377 0.374531
616 2 0.0883049 0.30607 0.362267
390 4 0.114589 0.285792 0.366084
617 4 0.11309 0.303841 0.359834
374 4 0.131125 0.297316 0.363599
488 4 0.367048 0.285703 0.400846
602 4 0.0584846 0.401776 0.341761
549 4 0.0703735 0.393923 0.35613
547 2 0.0763882 0.405771 0.377311
240 4 0.333114 0.392157 0.392634
335 4 0.337531 0.382127 0.410105
238 2 0.354052 0.392172 0.378967
239 4 0.374989 0.392186 0.365299
587 4 0.376481 0.409717 0.356654
752 4 0.470464 0.387971 0.380636
561 4 0.472972 0.368103 0.384962
751 2 0.481277 0.407004 0.368553
559 2 0.482182 0.367179 0.408189
500 4 0.0435203 0.467534 0.342332
499 2 0.0557159 0.457018 0.36146
501 4 0.0679115 0.446502 0.380587
407 4 0.0816619 0.436121 0.390996
548 4 0.0824029 0.417619 0.398492
406 2 0.0941579 0.451473 0.406272
568 2 0.140773 0.491972 0.422873
1555 2 0.240281 0.482589 0.386628
1557 4 0.25007 0.461964 0.396825
5 3 0.252554 0.432463 0.345414
586 2 0.380698 0.432749 0.347884
593 4 0.390999 0.473187 0.334334
588 4 0.384916 0.455781 0.339114
592 2 0.411369 0.484342 0.343597
713 4 0.45204 0.500952 0.356224
594 4 0.431739 0.495497 0.35286
712 2 0.468565 0.48321 0.350115
714 4 0.48509 0.465468 0.344006
753 4 0.492089 0.426038 0.356469
117 3 0.490251 0.448352 0.3622
367 2 0.0767349 0.0102948 0.44098
720 4 0.999177 0.00605167 0.458052
718 2 0.0220549 0.99719 0.453228
1781 4 0.116845 0.00701087 0.429326
368 4 0.101085 0.0156509 0.439093
341 4 0.20688 0.00984497 0.502644
342 4 0.22032 0.0579743 0.504555
340 2 0.2136 0.0339096 0.5036
963 4 0.308215 0.0379126 0.434611
432 4 0.3158 0.0539128 0.445505
430 2 0.326816 0.0640063 0.465554
961 2 0.321328 0.021047 0.421619
431 4 0.337832 0.0740997 0.485603
1216 2 0.428185 0.0531487 0.507391
1218 4 0.452193 0.0566394 0.50134
260 4 0.0580164 0.176519 0.417375
259 2 0.0740945 0.1936 0.426029
261 4 0.0901725 0.210681 0.434684
687 4 0.106574 0.221126 0.43164
1035 4 0.0959609 0.223745 0.447737
1033 2 0.104028 0.244247 0.45956
466 2 0.409516 0.178025 0.418033
409 2 0.407987 0.227793 0.44677
411 4 0.396462 0.2499 0.444866
468 4 0.418563 0.19577 0.433147
410 4 0.419512 0.205686 0.448674
574 2 0.415488 0.188226 0.486618
515 4 0.479705 0.197084 0.43475
575 4 0.426245 0.199174 0.466879
516 4 0.431924 0.19413 0.449206
514 2 0.455815 0.195607 0.441978
1034 4 0.112094 0.264749 0.471383
696 4 0.107527 0.272557 0.488317
1260 4 0.124158 0.278037 0.478103
1258 2 0.128972 0.301943 0.472583
1259 4 0.133786 0.32585 0.467062
9 3 0.152515 0.325676 0.421954
503 4 0.143962 0.327956 0.480558
487 2 0.37695 0.275968 0.42164
489 4 0.386852 0.266234 0.442433
266 4 0.391509 0.258216 0.460448
265 2 0.39646 0.274408 0.478846
267 4 0.401412 0.290599 0.497244
3308 4 0.48619 0.321223 0.480515
1011 4 0.468222 0.318764 0.473863
1009 2 0.460543 0.298624 0.486534
326 4 0.0837688 0.360765 0.468228
7 3 0.148938 0.329316 0.459192
6 1 0.151055 0.340882 0.439421
327 4 0.129031 0.343038 0.456489
325 2 0.1064 0.351902 0.462358
10 3 0.132849 0.354264 0.436573
709 2 0.140981 0.404283 0.495837
8 3 0.170312 0.353797 0.44031
502 2 0.151413 0.347744 0.493904
334 2 0.321351 0.382835 0.429156
336 4 0.305172 0.383543 0.448206
668 4 0.29704 0.392856 0.463182
882 4 0.314304 0.382643 0.465224
880 2 0.329087 0.377683 0.484769
560 4 0.491392 0.366255 0.431416
3307 2 0.4916 0.336657 0.461602
1383 4 0.993831 0.459986 0.46582
1381 2 0.997584 0.484691 0.466705
384 4 0.134743 0.445275 0.480287
383 4 0.112912 0.463803 0.439289
711 4 0.134773 0.42504 0.483355
408 4 0.106654 0.466825 0.421547
382 2 0.123828 0.454539 0.459788
569 4 0.12083 0.479014 0.430589
772 2 0.317352 0.468004 0.465356
667 2 0.294977 0.417739 0.464496
634 2 0.277796 0.453907 0.426999
774 4 0.295559 0.46066 0.455543
636 4 0.266848 0.463123 0.406496
669 4 0.292915 0.442623 0.465809
635 4 0.288744 0.444691 0.447502
773 4 0.339145 0.475348 0.475169
1058 4 0.101154 0.0785476 0.519775
1152 4 0.236246 0.0568662 0.516386
1150 2 0.245866 0.0621618 0.538849
1151 4 0.255486 0.0674573 0.561312
1181 4 0.243781 0.0760434 0.573785
1032 4 0.244025 0.05741 0.576147
842 4 0.389197 0.0628499 0.517758
1217 4 0.404177 0.049658 0.513442
841 2 0.365098 0.0656839 0.511727
843 4 0.340999 0.0685179 0.505696
3007 2 0.493165 0.0400785 0.576085
3009 4 0.49239 0.0512442 0.553727
1270 2 0.0897336 0.150104 0.555724
1271 4 0.103347 0.129921 0.561426
1057 2 0.101164 0.0952491 0.538383
1059 4 0.101174 0.111951 0.55699
1155 4 0.117945 0.118956 0.564965
939 4 0.101989 0.116302 0.575607
1153 2 0.141299 0.125624 0.570908
1154 4 0.164653 0.132292 0.57685
1180 2 0.239565 0.100208 0.578631
898 2 0.250968 0.157459 0.561567
900 4 0.243588 0.140662 0.578555
1221 4 0.177524 0.139555 0.562411
1219 2 0.200963 0.139584 0.571115
1199 4 0.0280263 0.221878 0.563101
879 4 0.0766828 0.189312 0.547474
877 2 0.0614515 0.204436 0.560298
1272 4 0.0761205 0.170287 0.550022
878 4 0.0462203 0.21956 0.573123
1198 2 0.00528328 0.224396 0.553022
695 4 0.0942232 0.269162 0.536403
651 4 0.20924 0.223414 0.543768
858 4 0.202221 0.228747 0.525986
649 2 0.225663 0.204626 0.542203
650 4 0.242087 0.185838 0.540638
856 2 0.194606 0.251987 0.531191
899 4 0.258348 0.174256 0.54458
576 4 0.404731 0.177279 0.506356
2455 2 0.486714 0.255122 0.513064
982 2 0.0148952 0.280286 0.578203
984 4 0.000629969 0.287477 0.558968
694 2 0.100875 0.270859 0.51236
946 2 0.174175 0.287577 0.568346
857 4 0.18699 0.275227 0.536396
947 4 0.193188 0.278751 0.554716
798 4 0.212756 0.280208 0.553382
796 2 0.234253 0.285399 0.565048
804 4 0.270444 0.332137 0.512097
797 4 0.25575 0.29059 0.576715
872 4 0.381872 0.316205 0.568984
2457 4 0.464867 0.267059 0.510734
1010 4 0.452863 0.278483 0.499205
936 4 0.992069 0.352855 0.514294
3263 4 0.0500288 0.343689 0.581386
710 4 0.147189 0.383526 0.508318
504 4 0.158864 0.367531 0.50725
1189 2 0.23695 0.37252 0.574209
1191 4 0.218453 0.388968 0.577748
803 4 0.264264 0.358947 0.553856
802 2 0.267354 0.345542 0.532976
1190 4 0.255447 0.356073 0.570671
1238 4 0.27074 0.363398 0.572875
1237 2 0.2935 0.373745 0.573218
1239 4 0.316259 0.384092 0.57356
930 4 0.332517 0.384271 0.562145
929 4 0.355087 0.381835 0.517587
881 4 0.343871 0.372723 0.504315
928 2 0.343802 0.383053 0.539866
2244 4 0.112703 0.485246 0.584046
1160 4 0.12909 0.476183 0.585356
1081 2 0.0737819 0.067149 0.641403
4337 4 0.0241669 0.00998979 0.656537
1082 4 0.0752666 0.052056 0.661282
1083 4 0.0722972 0.0822419 0.621524
825 4 0.148404 0.0606485 0.662253
823 2 0.163138 0.0421967 0.670476
1283 4 0.149657 0.0815397 0.661463
1030 2 0.245992 0.0404301 0.594395
1031 4 0.247959 0.0234501 0.612643
2133 4 0.188523 0.00873901 0.672019
951 4 0.267637 0.0237907 0.609779
949 2 0.285681 0.00756081 0.615796
950 4 0.303725 0.991331 0.621812
3008 4 0.49394 0.0289128 0.598444
809 4 0.482485 0.0228224 0.613122
808 2 0.474157 0.0403464 0.628894
810 4 0.465829 0.0578704 0.644665
45 3 0.465928 0.0808243 0.643258
41 1 0.457738 0.0750828 0.663718
1127 4 0.0562681 0.0921545 0.61744
1126 2 0.0338864 0.0958749 0.606933
1128 4 0.0115047 0.0995954 0.596426
938 4 0.0738377 0.100314 0.613719
937 2 0.0879134 0.108308 0.594663
1182 4 0.23535 0.124372 0.583478
1211 4 0.24955 0.14208 0.643411
1210 2 0.242206 0.141556 0.619516
1220 4 0.224403 0.139613 0.579819
1212 4 0.234861 0.141032 0.595621
1227 4 0.25635 0.128757 0.650658
908 4 0.237625 0.136997 0.656668
1282 2 0.164676 0.101503 0.660431
1284 4 0.179696 0.121466 0.6594
907 2 0.213981 0.134367 0.664361
888 4 0.265248 0.147932 0.652362
886 2 0.287338 0.154262 0.662218
1194 4 0.322535 0.170229 0.661615
887 4 0.309427 0.160592 0.672074
3425 4 0.477699 0.0909096 0.660032
3424 2 0.498924 0.102203 0.653165
1244 4 0.0553521 0.220197 0.589945
1243 2 0.0488723 0.242219 0.599856
1192 2 0.330653 0.181022 0.640573
1193 4 0.33877 0.191815 0.61953
3123 4 0.497461 0.223148 0.622561
983 4 0.0291605 0.273096 0.597438
1245 4 0.0423925 0.264241 0.609766
948 4 0.155162 0.296403 0.581976
1135 2 0.166146 0.324616 0.613569
1136 4 0.162646 0.305806 0.597472
790 2 0.266738 0.322707 0.587966
791 4 0.264024 0.298372 0.593027
871 2 0.386421 0.325085 0.59191
873 4 0.39097 0.333965 0.614837
813 4 0.390017 0.320744 0.630617
954 4 0.462485 0.276522 0.59512
952 2 0.466061 0.300616 0.600765
3262 2 0.0577836 0.363789 0.594076
1041 4 0.0681474 0.393994 0.622573
3264 4 0.0655384 0.383889 0.606765
3240 4 0.0543433 0.399104 0.607604
3238 2 0.0322157 0.408585 0.614361
3239 4 0.010088 0.418065 0.621119
1039 2 0.0909956 0.395661 0.632591
1040 4 0.113844 0.397327 0.642609
993 4 0.127097 0.383913 0.63813
991 2 0.148093 0.370335 0.638207
822 4 0.164475 0.341194 0.649351
992 4 0.169089 0.356757 0.638285
1137 4 0.169645 0.343427 0.629665
1064 4 0.181253 0.348267 0.644137
897 4 0.182668 0.356803 0.625129
896 4 0.209945 0.385379 0.594468
895 2 0.196307 0.371091 0.609798
1172 4 0.224224 0.39754 0.596284
1171 2 0.230072 0.421422 0.600825
1063 2 0.197729 0.357319 0.660622
792 4 0.269451 0.347042 0.582905
811 2 0.389976 0.341584 0.644432
927 4 0.400132 0.378649 0.656803
812 4 0.389936 0.362425 0.658246
925 2 0.414119 0.394903 0.643945
953 4 0.469637 0.32471 0.606411
906 4 0.483315 0.339812 0.608375
904 2 0.500962 0.355996 0.601176
926 4 0.428106 0.411157 0.631086
540 4 0.111513 0.472696 0.597166
539 4 0.0938547 0.426511 0.589691
538 2 0.102684 0.449603 0.593428
1159 2 0.153324 0.476265 0.591512
1186 2 0.203536 0.472447 0.612442
1173 4 0.235921 0.445304 0.605366
1187 4 0.220252 0.454339 0.616668
1188 4 0.18682 0.490555 0.608216
1161 4 0.177558 0.476347 0.597669
1228 2 0.306729 0.468811 0.669055
1230 4 0.316824 0.465959 0.646358
1002 4 0.433911 0.43079 0.628359
1911 4 0.445734 0.490745 0.611669
1001 4 0.453561 0.476217 0.621217
1000 2 0.443736 0.453503 0.624788
1269 4 0.450813 0.492163 0.631294
1267 2 0.461378 0.497878 0.653223
944 4 0.0705329 0.0278092 0.681199
943 2 0.0497325 0.0146635 0.676759
1076 4 0.0700384 0.0479426 0.679181
1075 2 0.0718582 0.0646109 0.697729
824 4 0.177872 0.0237449 0.6787
2256 4 0.17548 0.00657798 0.6873
1149 4 0.237373 0.0330428 0.692971
1147 2 0.2465 0.0510677 0.678241
1148 4 0.255626 0.0690926 0.663511
1226 4 0.27128 0.0826209 0.662874
1092 4 0.323821 0.00153568 0.684809
1004 4 0.363526 0.0778587 0.726819
42 3 0.460086 0.0523983 0.666726
43 3 0.435223 0.0805347 0.665047
1163 4 0.473318 0.0633515 0.682534
1162 2 0.484597 0.0517377 0.701589
44 3 0.469557 0.0861193 0.680358
4581 4 0.500418 0.0175611 0.742789
2321 4 0.495572 0.0360564 0.739658
864 4 0.0633839 0.0839274 0.733784
1077 4 0.073678 0.0812792 0.716278
851 4 0.0717916 0.10037 0.709269
850 2 0.0601152 0.119978 0.699054
852 4 0.0484388 0.139587 0.688839
1107 4 0.0772558 0.0945504 0.726342
1105 2 0.0990411 0.0944088 0.738612
1106 4 0.120826 0.0942672 0.750882
909 4 0.190336 0.131737 0.672054
1225 2 0.263815 0.105689 0.656766
830 4 0.32513 0.151207 0.667172
829 2 0.34227 0.137557 0.679217
1005 4 0.346468 0.11959 0.705182
1003 2 0.354997 0.0987245 0.716
831 4 0.35941 0.123906 0.691261
3268 2 0.488879 0.154385 0.742038
977 4 0.312288 0.235289 0.731653
918 4 0.300319 0.236496 0.747141
1297 2 0.27871 0.20726 0.73903
1299 4 0.257722 0.193847 0.741217
1298 4 0.299697 0.220674 0.736842
976 2 0.33729 0.235268 0.73143
978 4 0.362293 0.235246 0.731206
1025 4 0.389002 0.203204 0.694756
1024 2 0.409254 0.207776 0.708689
1020 4 0.377651 0.246741 0.735881
3270 4 0.491584 0.176056 0.729863
1142 4 0.432432 0.206434 0.741438
1144 2 0.470516 0.203492 0.726097
1262 4 0.434661 0.22487 0.737214
1026 4 0.429506 0.212348 0.722623
1261 2 0.43939 0.247853 0.728576
1145 4 0.447631 0.212705 0.730167
1146 4 0.4934 0.194278 0.722026
1178 4 0.000199526 0.250762 0.722213
1073 4 0.0771522 0.268848 0.720181
1177 2 0.0207805 0.264337 0.71805
1179 4 0.0413615 0.277912 0.713886
820 2 0.154346 0.327221 0.667443
1072 2 0.101124 0.265298 0.726339
1208 4 0.14207 0.270222 0.726391
1074 4 0.125097 0.261749 0.732496
1207 2 0.149636 0.289916 0.712973
821 4 0.144217 0.313248 0.685535
1209 4 0.157203 0.309611 0.699554
1130 4 0.142059 0.258622 0.741699
815 4 0.112967 0.332704 0.704364
806 4 0.247781 0.313296 0.6991
1263 4 0.444118 0.270836 0.719938
892 2 0.0420761 0.366062 0.711573
1280 4 0.0731301 0.380346 0.720536
816 4 0.0737809 0.36197 0.714788
894 4 0.0608769 0.367483 0.727995
893 4 0.0232752 0.364641 0.695151
942 4 0.128167 0.33807 0.716685
1279 2 0.0840962 0.397188 0.735411
814 2 0.0933739 0.347337 0.709576
940 2 0.144486 0.354691 0.725773
941 4 0.160806 0.371312 0.734862
1080 4 0.168833 0.381485 0.748375
805 2 0.23461 0.334208 0.695305
1065 4 0.214206 0.366371 0.677107
807 4 0.221439 0.355119 0.69151
1028 4 0.216148 0.386127 0.684701
1066 2 0.194316 0.375976 0.712768
1068 4 0.211514 0.37127 0.695239
1027 2 0.223891 0.40945 0.680091
1067 4 0.177119 0.380682 0.730297
1206 4 0.388819 0.375949 0.672449
1204 2 0.369066 0.387078 0.682992
1205 4 0.349313 0.398207 0.693534
1029 4 0.231634 0.432774 0.67548
1176 4 0.184979 0.473974 0.755619
1174 2 0.186584 0.482088 0.732023
1140 4 0.247275 0.428728 0.688288
1175 4 0.188188 0.490203 0.708427
2172 4 0.185621 0.494708 0.689336
2026 2 0.285295 0.504193 0.70461
1138 2 0.261386 0.449241 0.690586
1139 4 0.275496 0.469754 0.692884
1987 2 0.304768 0.453045 0.730975
1229 4 0.296635 0.471662 0.691751
1989 4 0.300812 0.467865 0.71123
2028 4 0.287878 0.479353 0.703383
1988 4 0.308724 0.438225 0.750721
1101 4 0.473798 0.500924 0.694349
1099 2 0.48741 0.483193 0.705553
1100 4 0.501021 0.465462 0.716756
862 2 0.0446119 0.0851905 0.750252
2989 2 0.0173521 0.0435881 0.773789
2990 4 0.018293 0.0685731 0.773588
2991 4 0.0164112 0.018603 0.77399
863 4 0.0258399 0.0864535 0.76672
3083 4 0.00782707 0.0811453 0.763689
2049 4 0.0968505 0.0140577 0.773078
1202 4 0.106093 0.0302766 0.779786
1201 2 0.117022 0.0525283 0.783041
1203 4 0.127951 0.07478 0.786296
1085 4 0.317028 0.0604028 0.802005
960 4 0.317152 0.0646381 0.820339
819 4 0.333914 0.0653747 0.809523
1050 4 0.355988 0.0133804 0.779721
817 2 0.346522 0.047111 0.798006
818 4 0.359131 0.0288473 0.786489
974 4 0.366728 0.0124624 0.795455
2320 2 0.490855 0.049694 0.760077
844 2 0.496227 0.0670952 0.822334
845 4 0.487734 0.0671138 0.798817
2322 4 0.486137 0.0633316 0.780496
1112 4 0.476933 0.0784821 0.787018
833 4 0.0122278 0.0858678 0.779416
832 2 0.0150729 0.10624 0.793631
834 4 0.017918 0.126612 0.807846
1125 4 0.0308002 0.129728 0.824044
34 3 0.124212 0.0891877 0.768142
32 3 0.142733 0.0849774 0.800575
911 4 0.129002 0.100101 0.812894
31 1 0.133743 0.100409 0.786076
35 3 0.11786 0.112567 0.796964
33 3 0.150665 0.114402 0.778576
910 2 0.126506 0.0957587 0.837391