ITEM: TIMESTEP
760000
ITEM: NUMBER OF ATOMS
4590
ITEM: BOX BOUNDS pp pp pp
-9.9985700000000008e+00 9.9985700000000008e+00
-9.9985700000000008e+00 9.9985700000000008e+00
-9.9985700000000008e+00 9.9985700000000008e+00
ITEM: ATOMS id type xs ys zs
1668 4 0.0950855 0.0470155 0.0662158
1475 4 0.285582 0.0216239 0.0661653
492 4 0.276841 0.0352271 0.0801667
297 4 0.318092 0.0855035 0.0566609
987 4 0.405473 0.0102642 0.988582
486 4 0.356935 0.999074 0.100202
985 2 0.417207 0.0306064 0.997165
747 4 0.446818 0.0521304 0.0132565
2974 2 0.468767 0.0234194 0.0350462
2976 4 0.486395 0.00744626 0.0427469
2468 4 0.49247 0.0071846 0.061438
2975 4 0.451139 0.0393925 0.0273455
986 4 0.428942 0.0509487 0.00574888
745 2 0.439259 0.0751989 0.0192471
463 2 0.0632238 0.0846581 0.994446
465 4 0.0487578 0.10505 0.994724
567 4 0.198817 0.150403 0.0458445
566 4 0.163744 0.166437 0.0776807
565 2 0.18128 0.15842 0.0617626
295 2 0.341562 0.0908363 0.0634339
358 2 0.316953 0.141144 0.0685929
359 4 0.317263 0.129452 0.090692
360 4 0.316644 0.152836 0.0464937
296 4 0.365033 0.0961691 0.070207
557 4 0.372064 0.0966593 0.0519548
556 2 0.393049 0.102099 0.0394966
558 4 0.414034 0.107538 0.0270383
769 2 0.411958 0.156788 0.0632909
746 4 0.4317 0.0982674 0.0252377
771 4 0.434273 0.147285 0.0693665
554 4 0.0697707 0.235377 0.00567636
553 2 0.0751345 0.257057 0.0169199
666 4 0.341529 0.205024 0.999423
664 2 0.34655 0.210715 0.0232471
665 4 0.351572 0.216406 0.0470709
770 4 0.389642 0.16629 0.0572153
323 4 0.42398 0.241261 0.0649192
322 2 0.424464 0.255223 0.0441828
555 4 0.0804982 0.278736 0.0281634
293 4 0.160982 0.296218 0.0204556
507 4 0.160966 0.303571 0.0395733
287 4 0.152418 0.321853 0.041166
292 2 0.152643 0.297496 0.996918
505 2 0.176319 0.29359 0.0565981
483 4 0.212162 0.284311 0.0744946
506 4 0.191672 0.283609 0.0736228
481 2 0.234795 0.273799 0.0729439
573 4 0.272366 0.270555 0.0599416
482 4 0.257428 0.263287 0.0713932
572 4 0.304947 0.273246 0.0221009
571 2 0.288657 0.2719 0.0410213
357 4 0.305014 0.281754 0.0043201
1069 2 0.388378 0.285611 0.0118306
1070 4 0.412952 0.28179 0.0144191
1071 4 0.363804 0.289431 0.0092421
324 4 0.424947 0.269186 0.0234465
671 4 0.446463 0.327489 0.0749239
280 2 0.433549 0.309217 0.0365009
281 4 0.446187 0.318336 0.0560524
282 4 0.42091 0.300097 0.0169493
330 4 0.0140073 0.414417 0.0103061
551 4 0.0670758 0.39666 0.0735839
550 2 0.091794 0.394154 0.0763959
552 4 0.116512 0.391648 0.079208
288 4 0.17674 0.363699 0.0285961
286 2 0.164579 0.342776 0.034881
456 4 0.17837 0.402216 0.0891917
250 2 0.309772 0.41238 0.0349412
252 4 0.305747 0.42171 0.0577871
251 4 0.313797 0.40305 0.0120953
957 4 0.333269 0.320653 0.00319225
741 4 0.357555 0.327908 0.0518459
739 2 0.350597 0.334737 0.0748703
245 4 0.221754 0.436417 0.0621311
626 4 0.205373 0.440568 0.0717333
244 2 0.22893 0.446697 0.0404976
246 4 0.236106 0.456977 0.0188641
625 2 0.195496 0.453447 0.0907531
609 4 0.29873 0.434088 0.0716362
607 2 0.320834 0.435277 0.0832631
525 4 0.358567 0.509191 0.0835902
563 4 0.459737 0.482946 0.0493696
228 4 0.467814 0.4739 0.0651695
226 2 0.467273 0.45186 0.0769637
19 3 0.0390621 0.0792743 0.143468
1666 2 0.083612 0.0601012 0.0841686
1667 4 0.0721386 0.073187 0.102121
701 4 0.0799016 0.0889402 0.110508
448 2 0.167429 0.0699661 0.151264
450 4 0.175421 0.0479419 0.159996
490 2 0.269816 0.0572978 0.0895854
652 2 0.292954 0.0236859 0.157896
653 4 0.314579 0.0361077 0.159686
491 4 0.262791 0.0793686 0.099004
311 4 0.395057 0.0693501 0.164632
310 2 0.403753 0.0870092 0.149214
2722 2 0.473281 0.0459197 0.130661
2723 4 0.46602 0.0621625 0.113093
2724 4 0.480541 0.0296769 0.148229
1760 4 0.493711 0.0152588 0.148989
2744 4 0.48801 0.0252583 0.165743
380 4 0.987726 0.142826 0.157551
700 2 0.0904084 0.111566 0.112205
702 4 0.100915 0.134191 0.113902
476 4 0.100534 0.134057 0.133455
475 2 0.11095 0.145957 0.152822
237 4 0.181604 0.154187 0.164197
449 4 0.159438 0.0919903 0.142532
235 2 0.175345 0.131854 0.154857
236 4 0.169086 0.10952 0.145518
581 4 0.285214 0.130036 0.148384
628 2 0.400852 0.138792 0.118852
630 4 0.388512 0.160488 0.120332
629 4 0.413192 0.117096 0.117372
312 4 0.412449 0.104668 0.133796
339 4 0.0720521 0.239822 0.116177
2625 4 0.01916 0.18807 0.119045
337 2 0.079259 0.237877 0.14004
338 4 0.086466 0.235931 0.163903
737 4 0.193478 0.160633 0.124768
736 2 0.191241 0.185223 0.120829
738 4 0.189005 0.209813 0.11689
277 2 0.245713 0.22495 0.166895
461 4 0.300273 0.226686 0.095604
460 2 0.32309 0.217527 0.0910607
354 4 0.295413 0.245035 0.101315
284 4 0.28338 0.239181 0.164359
278 4 0.264377 0.239947 0.159689
462 4 0.345908 0.208369 0.0865174
254 4 0.371661 0.157472 0.109956
255 4 0.349182 0.201902 0.105333
253 2 0.360422 0.179687 0.107645
765 4 0.382235 0.252574 0.150621
624 4 0.388536 0.247835 0.131755
763 2 0.362638 0.242431 0.162379
656 4 0.995706 0.305204 0.0790708
536 4 0.190005 0.307571 0.10948
535 2 0.198029 0.33125 0.109808
756 4 0.2502 0.305445 0.155641
352 2 0.285341 0.244293 0.124188
353 4 0.275269 0.243551 0.147061
754 2 0.255891 0.281181 0.153628
755 4 0.261582 0.256917 0.151615
622 2 0.385649 0.253618 0.107602
623 4 0.382761 0.259401 0.0834481
518 4 0.487501 0.246038 0.121131
528 4 0.468665 0.243123 0.12686
670 2 0.424772 0.329537 0.0871917
526 2 0.460936 0.255494 0.147167
621 4 0.978641 0.351898 0.0987655
619 2 0.991172 0.350331 0.0771854
455 4 0.133068 0.381317 0.0857805
454 2 0.155719 0.391766 0.0874861
537 4 0.206053 0.354929 0.110135
302 4 0.31937 0.374593 0.157873
387 4 0.315687 0.360692 0.141927
385 2 0.335173 0.355615 0.127104
740 4 0.343639 0.341566 0.0978947
15 3 0.366546 0.366916 0.109105
386 4 0.354658 0.350537 0.112281
11 1 0.388877 0.365814 0.113435
13 3 0.392372 0.358645 0.135225
14 3 0.398588 0.386653 0.110299
495 4 0.40139 0.396638 0.0930926
12 3 0.39866 0.350804 0.0990083
672 4 0.403082 0.331586 0.0994595
627 4 0.185618 0.466326 0.109773
638 4 0.260841 0.502976 0.165165
767 4 0.274427 0.488347 0.163884
608 4 0.342938 0.436466 0.09489
658 2 0.362204 0.444746 0.119584
659 4 0.346004 0.454483 0.103215
660 4 0.378403 0.435009 0.135953
493 2 0.415433 0.416225 0.0997538
596 4 0.472634 0.420323 0.155698
494 4 0.429475 0.435811 0.106415
227 4 0.466731 0.429819 0.088758
16 1 0.046469 0.070146 0.163474
17 3 0.0313068 0.0543379 0.1705
2480 4 0.01988 0.0428801 0.183097
18 3 0.0670678 0.0599252 0.160371
1422 4 0.013241 0.0264597 0.17521
1420 2 0.022141 0.00327026 0.172344
673 2 0.118926 0.0180019 0.233684
674 4 0.12812 0.0170651 0.210451
693 4 0.235637 0.0691832 0.206901
688 2 0.189271 0.999409 0.225557
654 4 0.271328 0.0112641 0.156107
1506 4 0.253871 0.00363777 0.162387
24 3 0.327695 0.0489058 0.238065
21 1 0.349538 0.0459535 0.230815
25 3 0.349684 0.0398278 0.208881
759 4 0.360975 0.0579158 0.2083
22 3 0.360917 0.065801 0.233214
757 2 0.368998 0.0684112 0.187071
758 4 0.37702 0.0789066 0.165842
23 3 0.360014 0.0297028 0.243643
742 2 0.487996 0.0797252 0.22607
20 3 0.0481848 0.0864439 0.179288
578 4 0.0724628 0.0977169 0.230385
379 2 0.00130203 0.142889 0.178548
381 4 0.0148784 0.142952 0.199544
512 4 0.0307644 0.154252 0.205221
511 2 0.0445929 0.161881 0.224606
477 4 0.121365 0.157857 0.17219
577 2 0.0968918 0.0924024 0.230784
579 4 0.121321 0.0870879 0.231183
691 2 0.240144 0.0770428 0.230206
582 4 0.271844 0.102586 0.187988
580 2 0.278529 0.116311 0.168186
743 4 0.473965 0.0911021 0.243358
513 4 0.0584214 0.169509 0.243991
363 4 0.0823305 0.227258 0.181539
393 4 0.0545643 0.168188 0.262814
279 4 0.227049 0.209952 0.174101
283 2 0.305296 0.234345 0.17538
285 4 0.327213 0.22951 0.186401
764 4 0.343041 0.232287 0.174137
520 2 0.488552 0.187335 0.215662
521 4 0.468214 0.177422 0.226307
394 2 0.0072777 0.267771 0.225513
395 4 0.0061423 0.289373 0.212973
648 4 0.0863332 0.338678 0.169274
361 2 0.0942895 0.242433 0.197409
371 4 0.157533 0.301908 0.21577
370 2 0.139606 0.284785 0.219027
372 4 0.121679 0.267662 0.222283
748 2 0.0836275 0.291286 0.227989
362 4 0.106248 0.257609 0.213279
749 4 0.0914593 0.269728 0.218035
343 2 0.236387 0.306672 0.235525
345 4 0.218425 0.302701 0.25246
612 4 0.244837 0.31792 0.170668
344 4 0.254348 0.310642 0.21859
308 4 0.337027 0.294133 0.214827
307 2 0.337016 0.292389 0.23977
527 4 0.453207 0.267866 0.167474
647 4 0.0912033 0.376487 0.201638
646 2 0.0887682 0.357582 0.185456
263 4 0.000583711 0.402104 0.242241
415 2 0.204153 0.396721 0.174032
291 4 0.233682 0.401592 0.194746
416 4 0.228831 0.393937 0.17694
610 2 0.258107 0.32906 0.188697
289 2 0.254238 0.414577 0.188917
611 4 0.271377 0.340199 0.206725
303 4 0.28838 0.373255 0.197097
301 2 0.303875 0.373924 0.177485
729 4 0.300644 0.382059 0.209566
727 2 0.304199 0.374133 0.233013
644 4 0.416197 0.372557 0.23754
447 4 0.420198 0.3868 0.252302
595 2 0.462818 0.407362 0.174694
597 4 0.453001 0.394401 0.19369
643 2 0.427756 0.37571 0.215594
645 4 0.439315 0.378863 0.193648
264 4 0.0311606 0.441627 0.244179
262 2 0.0158721 0.421865 0.24321
417 4 0.179476 0.399505 0.171125
290 4 0.274795 0.427562 0.183088
768 4 0.279889 0.445916 0.189779
766 2 0.277158 0.467131 0.176831
231 4 0.416547 0.476042 0.230568
232 2 0.019598 0.0331228 0.296291
233 4 0.0382327 0.0254076 0.281512
1402 2 0.0821749 0.024778 0.280026
1404 4 0.0580911 0.0298059 0.284483
675 4 0.109733 0.0189387 0.256917
1403 4 0.106259 0.0197501 0.275568
1464 4 0.113521 0.00945587 0.290724
689 4 0.172227 0.0167012 0.23153
723 4 0.227214 0.0889645 0.262574
1700 4 0.279438 0.0618496 0.337708
699 4 0.348312 0.0754226 0.32272
697 2 0.364563 0.0623988 0.336558
698 4 0.380813 0.049375 0.350395
478 2 0.48768 0.0580537 0.291447
480 4 0.46749 0.0639497 0.304967
351 4 0.448606 0.0717417 0.303862
398 4 0.0363891 0.147765 0.318205
692 4 0.24465 0.0849024 0.25351
721 2 0.227273 0.100335 0.284843
722 4 0.227332 0.111705 0.307112
249 4 0.225446 0.111938 0.32714
403 2 0.247244 0.139617 0.318216
404 4 0.23399 0.127731 0.335773
405 4 0.260498 0.151502 0.30066
27 3 0.320439 0.174395 0.243548
28 3 0.302053 0.141977 0.248413
26 1 0.309711 0.161153 0.258998
29 3 0.324737 0.155491 0.275747
707 4 0.340668 0.145235 0.283136
30 3 0.292174 0.172668 0.267858
632 4 0.379553 0.118157 0.243765
633 4 0.353957 0.1367 0.282517
631 2 0.366755 0.127428 0.263141
706 2 0.344244 0.161816 0.301507
333 4 0.445943 0.127292 0.240882
331 2 0.457762 0.14926 0.242586
349 2 0.429857 0.0866169 0.311099
350 4 0.411108 0.101492 0.318335
444 4 0.0302263 0.239652 0.304267
389 4 0.0740143 0.242862 0.342598
391 2 0.0788437 0.171565 0.267742
392 4 0.103123 0.174943 0.272669
546 4 0.144687 0.204709 0.26086
544 2 0.165192 0.202561 0.275006
390 4 0.118297 0.242701 0.319367
388 2 0.0961559 0.242781 0.330983
545 4 0.185697 0.200413 0.289152
708 4 0.347821 0.178396 0.319877
717 4 0.380339 0.215192 0.322677
332 4 0.469581 0.171228 0.24429
762 4 0.483751 0.174592 0.259251
761 4 0.478246 0.185896 0.307651
760 2 0.480999 0.180244 0.283451
750 4 0.0757957 0.312845 0.237943
442 2 0.0222179 0.238773 0.280597
443 4 0.0142095 0.237895 0.256927
401 4 0.165003 0.280756 0.30853
400 2 0.177819 0.266426 0.292544
402 4 0.190636 0.252096 0.276558
676 2 0.199639 0.327339 0.317123
678 4 0.196189 0.315723 0.338994
496 2 0.315733 0.318443 0.2906
497 4 0.299384 0.330042 0.305545
377 4 0.295149 0.321436 0.323733
498 4 0.332082 0.306844 0.275654
309 4 0.337004 0.290646 0.264713
615 4 0.371882 0.316377 0.318743
541 2 0.391325 0.27596 0.328891
543 4 0.378477 0.295703 0.320504
364 2 0.0197458 0.3693 0.293502
365 4 0.0300118 0.389291 0.282541
601 2 0.0715195 0.387526 0.294874
603 4 0.0495855 0.382065 0.284185
366 4 0.00947978 0.349309 0.304463
602 4 0.0934535 0.392987 0.305563
549 4 0.0865112 0.40521 0.320291
300 4 0.107503 0.33353 0.267891
298 2 0.130201 0.341731 0.261354
299 4 0.152899 0.349931 0.254817
677 4 0.20309 0.338955 0.295252
734 4 0.170619 0.359599 0.254592
733 2 0.190073 0.357685 0.270182
735 4 0.209528 0.355771 0.285773
728 4 0.307754 0.366207 0.256459
433 2 0.308885 0.371882 0.321864
435 4 0.285332 0.36964 0.329951
434 4 0.332439 0.374124 0.313776
613 2 0.358408 0.337439 0.318939
614 4 0.344934 0.3585 0.319136
445 2 0.412521 0.370465 0.269606
446 4 0.404843 0.354131 0.286909
2463 4 0.0190704 0.476567 0.309429
777 4 0.0704214 0.460054 0.308578
2690 4 0.00981221 0.474429 0.291802
2461 2 0.0143332 0.495923 0.324531
775 2 0.0820602 0.473267 0.326331
412 2 0.216831 0.487287 0.326975
413 4 0.228834 0.492239 0.305608
436 2 0.334364 0.458814 0.316275
1436 4 0.246109 0.500312 0.310355
1803 4 0.35225 0.481566 0.262062
437 4 0.341289 0.464217 0.292865
713 4 0.419278 0.460203 0.335331
2862 4 0.500894 0.465709 0.332739
119 3 0.480509 0.455 0.332363
712 2 0.442767 0.454278 0.32914
714 4 0.466257 0.448352 0.322949
427 2 0.071217 0.0147371 0.334661
428 4 0.0659393 0.0390985 0.3327
316 2 0.0567074 0.0699638 0.341701
317 4 0.0486597 0.0464636 0.338846
1781 4 0.110394 0.0121092 0.393045
368 4 0.115038 0.0145274 0.412873
606 4 0.134272 0.0825364 0.343805
605 4 0.182802 0.0893406 0.353768
248 4 0.201816 0.0838042 0.361064
604 2 0.158537 0.0859385 0.348786
1701 4 0.264588 0.0141661 0.340253
1699 2 0.272013 0.0380078 0.33898
683 4 0.301861 0.0573913 0.386347
257 4 0.394411 0.0386153 0.341629
256 2 0.419094 0.0351296 0.343584
258 4 0.443776 0.031644 0.345538
1428 4 0.455904 0.0152832 0.342623
2879 4 0.479613 0.076957 0.410443
2642 4 0.497593 0.0726766 0.403297
732 4 0.074226 0.111959 0.348822
399 4 0.0565254 0.109814 0.343797
2586 4 0.00421732 0.14114 0.385759
318 4 0.0647551 0.0934641 0.344556
397 2 0.0464572 0.128789 0.331001
457 2 0.0323952 0.161392 0.414705
458 4 0.0151706 0.151948 0.399236
731 4 0.12182 0.0981082 0.34221
730 2 0.0980229 0.105033 0.345516
598 2 0.139686 0.142752 0.363497
600 4 0.131595 0.129373 0.383009
247 2 0.213631 0.097871 0.344102
682 2 0.301756 0.080061 0.396895
684 4 0.30165 0.102731 0.407443
452 4 0.468944 0.133781 0.397627
451 2 0.449315 0.142765 0.410244
599 4 0.147776 0.156132 0.343985
686 4 0.154193 0.187878 0.411575
474 4 0.204195 0.207029 0.383392
276 4 0.196669 0.225123 0.37863
472 2 0.223317 0.191231 0.380236
274 2 0.187853 0.248393 0.376181
473 4 0.242438 0.175433 0.37708
715 2 0.397732 0.21161 0.340279
716 4 0.415125 0.208029 0.357881
467 4 0.414367 0.206606 0.378198
466 2 0.401434 0.196919 0.397279
268 2 0.479009 0.231457 0.393903
270 4 0.455533 0.222932 0.392728
347 4 0.0609764 0.282554 0.378882
346 2 0.0370825 0.289895 0.379492
618 4 0.0682099 0.302009 0.376093
348 4 0.0131886 0.297236 0.380101
616 2 0.0891278 0.299894 0.36256
617 4 0.110046 0.29778 0.349027
275 4 0.179037 0.271662 0.373732
375 4 0.192915 0.300992 0.351914
373 2 0.182698 0.308465 0.373476
374 4 0.172481 0.315938 0.395039
376 2 0.280314 0.307575 0.338326
378 4 0.265478 0.293713 0.35292
488 4 0.299882 0.255424 0.415869
542 4 0.404172 0.256217 0.337278
420 4 0.417709 0.256106 0.351424
269 4 0.502485 0.239982 0.395078
418 2 0.442118 0.260644 0.348465
419 4 0.466528 0.265182 0.345506
510 4 0.211943 0.357268 0.352267
508 2 0.235221 0.365029 0.357073
509 4 0.258498 0.37279 0.36188
503 4 0.26615 0.379655 0.418508
502 2 0.244863 0.392586 0.420711
559 2 0.485948 0.39294 0.424335
561 4 0.468058 0.397844 0.40757
751 2 0.452439 0.409335 0.370531
753 4 0.442656 0.407312 0.34761
547 2 0.0793278 0.419696 0.339363
548 4 0.0721444 0.434182 0.358435
407 4 0.0709902 0.437549 0.377118
500 4 0.105855 0.503953 0.346081
406 2 0.0813471 0.436206 0.399836
570 4 0.156039 0.494081 0.420457
776 4 0.0936991 0.486479 0.344083
408 4 0.091704 0.434863 0.422554
1555 2 0.232424 0.486466 0.412223
1556 4 0.208784 0.490641 0.405231
414 4 0.204827 0.482336 0.348343
1544 4 0.205994 0.504867 0.391112
438 4 0.327438 0.453411 0.339685
3 3 0.312562 0.463436 0.349192
5 3 0.297854 0.486993 0.374616
1 1 0.317213 0.478116 0.366548
1557 4 0.256065 0.482292 0.419215
2 3 0.330575 0.49506 0.358578
4 3 0.328501 0.467009 0.383508
594 4 0.416422 0.478047 0.34512
592 2 0.411569 0.473573 0.369237
593 4 0.406716 0.4691 0.393354
752 4 0.462221 0.411359 0.393453
118 3 0.498842 0.42318 0.342151
116 1 0.494293 0.445115 0.348196
117 3 0.483499 0.445144 0.36851
718 2 0.0620344 0.030026 0.465596
720 4 0.0464655 0.0183425 0.48129
2237 4 0.0419161 0.0159861 0.500786
719 4 0.0776032 0.0417095 0.449903
369 4 0.0869665 0.0501561 0.433927
367 2 0.101002 0.0323418 0.4234
340 2 0.209518 0.0611971 0.492413
341 4 0.205974 0.0364466 0.492234
2430 4 0.218613 0.0259298 0.481476
441 4 0.309664 0.0158693 0.415291
962 4 0.305046 0.0196067 0.434577
961 2 0.305031 0.0256849 0.45883
963 4 0.305016 0.031763 0.483084
432 4 0.297202 0.0475925 0.493563
426 4 0.382568 0.0235229 0.414559
424 2 0.362787 0.0332733 0.426342
425 4 0.343006 0.0430236 0.438124
725 4 0.416325 0.0501183 0.45954
724 2 0.409751 0.0734767 0.465569
1181 4 0.255491 0.139173 0.471954
320 4 0.297227 0.103434 0.426864
321 4 0.274012 0.147412 0.432133
319 2 0.285619 0.125423 0.429499
1180 2 0.259299 0.138635 0.49666
726 4 0.403177 0.096835 0.471598
453 4 0.429686 0.151748 0.42286
2878 2 0.479335 0.0926848 0.429879
2880 4 0.479056 0.108413 0.449314
640 2 0.487037 0.130956 0.479024
515 4 0.413076 0.159638 0.433022
514 2 0.410394 0.161582 0.457805
641 4 0.481581 0.142167 0.500697
642 4 0.492494 0.119746 0.457351
260 4 0.0449711 0.184918 0.445408
459 4 0.0496199 0.170835 0.430175
259 2 0.0697305 0.187762 0.443392
685 2 0.134699 0.189718 0.427124
687 4 0.115204 0.191558 0.442672
261 4 0.0944899 0.190606 0.441377
1035 4 0.103772 0.192013 0.457542
1033 2 0.110469 0.202274 0.479337
1034 4 0.117167 0.212536 0.501132
489 4 0.321164 0.226381 0.450572
411 4 0.333474 0.212115 0.444109
487 2 0.310523 0.240902 0.433221
409 2 0.354157 0.206898 0.431065
410 4 0.374841 0.201681 0.41802
468 4 0.388501 0.187232 0.41636
575 4 0.393293 0.166466 0.497085
516 4 0.407711 0.163526 0.482588
695 4 0.0616004 0.267075 0.462861
694 2 0.0860651 0.267349 0.468017
696 4 0.11053 0.267623 0.473173
1258 2 0.138987 0.294749 0.491018
1260 4 0.127056 0.278513 0.476213
651 4 0.240369 0.274368 0.484251
649 2 0.252124 0.263955 0.503708
266 4 0.352391 0.269922 0.429953
267 4 0.391347 0.264186 0.46078
265 2 0.371869 0.267054 0.445367
583 2 0.467528 0.272967 0.482879
585 4 0.443451 0.268307 0.478003
2456 4 0.503627 0.267002 0.498221
681 4 0.00187132 0.40133 0.420768
2847 4 0.990373 0.34047 0.466191
326 4 0.0924451 0.343827 0.453791
6 1 0.159859 0.345895 0.492894
327 4 0.12949 0.368607 0.47647
325 2 0.110968 0.356217 0.465131
7 3 0.144458 0.362543 0.489048
10 3 0.1754 0.346063 0.476247
711 4 0.170145 0.365308 0.430456
504 4 0.223576 0.405516 0.422915
709 2 0.192554 0.376399 0.430283
710 4 0.214962 0.38749 0.430109
336 4 0.31675 0.372727 0.429481
668 4 0.310289 0.392489 0.4298
667 2 0.300162 0.408531 0.446088
335 4 0.366366 0.373497 0.423287
334 2 0.341558 0.373112 0.426384
238 2 0.39819 0.383475 0.436589
240 4 0.378319 0.368616 0.439678
239 4 0.418061 0.398334 0.433499
3309 4 0.467821 0.387016 0.497888
679 2 0.0114586 0.421988 0.431088
680 4 0.0210459 0.442646 0.441408
1383 4 0.0110209 0.46096 0.441802
1381 2 0.0167182 0.484476 0.448105
384 4 0.100287 0.418647 0.471229
568 2 0.139055 0.475969 0.423402
382 2 0.104068 0.431303 0.449999
383 4 0.107849 0.443959 0.428769
569 4 0.122071 0.457856 0.426347
669 4 0.290035 0.424573 0.462376
636 4 0.271586 0.469476 0.415654
772 2 0.274784 0.430737 0.495311
635 4 0.285643 0.453791 0.46101
774 4 0.286176 0.440672 0.475393
634 2 0.278614 0.461633 0.438332
588 4 0.397503 0.461604 0.44388
882 4 0.343226 0.416289 0.468724
880 2 0.340277 0.422449 0.492776
586 2 0.402818 0.438754 0.435231
661 2 0.45204 0.480093 0.46524
663 4 0.445741 0.456231 0.461227
587 4 0.408133 0.415904 0.426583
430 2 0.309198 0.0611059 0.510844
431 4 0.321194 0.0746194 0.528126
951 4 0.267065 0.0500101 0.583869
1031 4 0.26213 0.0686103 0.578149
841 2 0.358554 0.0759348 0.538713
842 4 0.382729 0.0702402 0.535827
843 4 0.334379 0.0816293 0.541599
1217 4 0.387717 0.0622516 0.518009
1216 2 0.408425 0.050354 0.525413
1218 4 0.429133 0.0384564 0.532816
3007 2 0.491228 0.0583264 0.574489
1128 4 0.00312583 0.0847318 0.577135
937 2 0.099855 0.160351 0.553502
1059 4 0.142802 0.119908 0.567116
1151 4 0.181093 0.12635 0.515854
939 4 0.121731 0.148749 0.556966
1057 2 0.131232 0.100058 0.57698
1155 4 0.138194 0.138303 0.56135
342 4 0.213062 0.0859476 0.492592
1030 2 0.248489 0.0884506 0.571407
1152 4 0.222073 0.100704 0.50306
1150 2 0.201583 0.113527 0.509457
1032 4 0.234848 0.108291 0.564664
1182 4 0.263106 0.138096 0.521367
877 2 0.0534749 0.214745 0.579914
879 4 0.0718524 0.20291 0.592054
470 4 0.0407747 0.165287 0.540566
469 2 0.0303002 0.177919 0.521701
878 4 0.0350975 0.22658 0.567774
471 4 0.0198256 0.190552 0.502836
938 4 0.0779785 0.171953 0.550038
858 4 0.191558 0.228174 0.539009
856 2 0.202245 0.244293 0.523161
898 2 0.295539 0.177449 0.552491
900 4 0.29298 0.168719 0.529201
576 4 0.364349 0.199142 0.521482
574 2 0.378821 0.182804 0.509283
3159 4 0.493905 0.178468 0.567118
3157 2 0.51168 0.194216 0.559294
906 4 0.460102 0.265256 0.575175
983 4 0.0248523 0.317072 0.532826
1245 4 0.0472816 0.290715 0.554897
1243 2 0.0459523 0.265886 0.557526
982 2 0.0237364 0.331275 0.553373
1244 4 0.0446229 0.241056 0.560154
9 3 0.148878 0.325458 0.493268
1259 4 0.150919 0.310986 0.505823
798 4 0.194765 0.270338 0.593588
857 4 0.212932 0.260412 0.507314
650 4 0.263878 0.253543 0.523166
872 4 0.370744 0.287922 0.558729
871 2 0.367236 0.311419 0.550934
873 4 0.363729 0.334916 0.543139
3065 4 0.495636 0.252994 0.509921
953 4 0.446483 0.258744 0.561171
904 2 0.485031 0.263483 0.574428
952 2 0.427987 0.272605 0.570708
905 4 0.509961 0.26171 0.573681
584 4 0.491604 0.277628 0.487755
984 4 0.0226204 0.345478 0.573921
3354 4 0.00625496 0.358236 0.572378
3352 2 0.99912 0.380421 0.563316
1189 2 0.222253 0.376493 0.580557
1190 4 0.235688 0.364842 0.562981
8 3 0.170122 0.349749 0.513345
803 4 0.235804 0.35339 0.546564
802 2 0.255944 0.363519 0.53575
804 4 0.276085 0.373649 0.524936
1239 4 0.319825 0.341854 0.585925
813 4 0.353751 0.34546 0.528935
928 2 0.342612 0.375673 0.577537
811 2 0.372609 0.361876 0.528701
929 4 0.348785 0.398616 0.569747
812 4 0.391467 0.378293 0.528468
927 4 0.409893 0.385705 0.529162
926 4 0.426054 0.382974 0.576407
925 2 0.417974 0.38434 0.552784
539 4 0.0753242 0.465146 0.520966
538 2 0.0932376 0.482544 0.522226
540 4 0.111151 0.499943 0.523486
1160 4 0.123946 0.462878 0.590025
773 4 0.263393 0.420803 0.515229
881 4 0.337328 0.428609 0.516829
1002 4 0.401935 0.445844 0.564564
1000 2 0.421284 0.457481 0.553821
1001 4 0.440632 0.469117 0.543078
823 2 0.123621 0.00825634 0.629705
1058 4 0.119663 0.0802087 0.586844
825 4 0.106075 0.0259622 0.627753
949 2 0.288489 0.0463406 0.596228
950 4 0.309912 0.0426712 0.608588
2283 4 0.398184 0.0117479 0.62467
3008 4 0.466993 0.0591574 0.580584
809 4 0.45986 0.072473 0.591903
808 2 0.45823 0.0804228 0.615553
2281 2 0.415215 0.995729 0.63353
42 3 0.449871 0.0774638 0.659028
1083 4 0.0568346 0.098882 0.613406
1126 2 0.0257367 0.0893429 0.586761
1081 2 0.0594483 0.0951817 0.637995
1127 4 0.0483475 0.0939539 0.596387
1082 4 0.0620619 0.0914814 0.662585
1153 2 0.15213 0.149539 0.578806
1283 4 0.155157 0.0867709 0.661327
1154 4 0.166066 0.160775 0.596262
1221 4 0.180575 0.156577 0.610074
810 4 0.4566 0.0883725 0.639203
45 3 0.461914 0.110149 0.645628
3424 2 0.499202 0.122271 0.665235
3425 4 0.476701 0.111519 0.663428
1199 4 0.0168397 0.216413 0.567966
1272 4 0.0897063 0.211946 0.585751
1270 2 0.112428 0.221637 0.589625
1271 4 0.135149 0.231329 0.593498
1212 4 0.22327 0.198258 0.623168
1219 2 0.200616 0.168466 0.619139
1220 4 0.220658 0.180356 0.628204
1210 2 0.239812 0.199178 0.641895
899 4 0.298098 0.18618 0.575781
1211 4 0.256353 0.200098 0.660622
1193 4 0.363237 0.177459 0.651818
1192 2 0.341296 0.181003 0.663272
1136 4 0.123087 0.303099 0.592026
948 4 0.140267 0.294632 0.59296
946 2 0.159616 0.279383 0.588685
1135 2 0.13251 0.325455 0.598078
796 2 0.218411 0.277129 0.598053
947 4 0.178965 0.264135 0.58441
797 4 0.242057 0.283921 0.602518
791 4 0.255038 0.284775 0.617644
792 4 0.299351 0.283991 0.594482
790 2 0.277194 0.284383 0.606063
1238 4 0.317325 0.293738 0.599317
1237 2 0.318575 0.317796 0.592621
805 2 0.338642 0.317594 0.673459
954 4 0.409491 0.286466 0.580244
806 4 0.346139 0.336304 0.658663
3123 4 0.502278 0.253417 0.643901
1039 2 0.0677928 0.404919 0.639818
1041 4 0.0429417 0.40636 0.642168
3264 4 0.0268404 0.395784 0.63899
3262 2 0.0224511 0.372101 0.6457
3263 4 0.0180617 0.348418 0.652411
3240 4 0.0139663 0.410234 0.636426
1040 4 0.092644 0.403477 0.637468
993 4 0.0945156 0.383608 0.636418
1137 4 0.141932 0.347811 0.604129
897 4 0.143654 0.36413 0.594196
991 2 0.111709 0.373182 0.621556
992 4 0.128903 0.362756 0.606695
1172 4 0.216173 0.406085 0.594967
1191 4 0.208817 0.388144 0.598133
896 4 0.190671 0.381147 0.593448
895 2 0.167162 0.372639 0.593822
1029 4 0.233862 0.401316 0.664388
930 4 0.336439 0.35273 0.585328
1204 2 0.41 0.403595 0.648549
1205 4 0.386051 0.397302 0.652021
1206 4 0.433948 0.409887 0.645078
1159 2 0.146034 0.474383 0.587813
1161 4 0.168123 0.485889 0.585601
1171 2 0.215302 0.430355 0.600913
1173 4 0.21443 0.454626 0.60686
1187 4 0.217256 0.47225 0.598334
1186 2 0.198731 0.487469 0.591237
1140 4 0.246327 0.418068 0.667484
1952 4 0.319915 0.483454 0.594534
889 2 0.304868 0.473637 0.626702
891 4 0.305348 0.474479 0.651687
890 4 0.304388 0.472796 0.601717
1230 4 0.359183 0.467009 0.648729
1269 4 0.437606 0.453948 0.654235
1267 2 0.448359 0.476521 0.654274
943 2 0.0433887 0.0452353 0.668965
945 4 0.0266296 0.0287436 0.66046
944 4 0.0601478 0.061727 0.67747
2989 2 0.0074139 0.0631821 0.750807
1147 2 0.221592 0.0623934 0.727436
1149 4 0.228968 0.0422601 0.714574
1148 4 0.214216 0.0825268 0.740297
1004 4 0.397648 0.0619369 0.689841
1163 4 0.462784 0.0782475 0.678957
1162 2 0.47495 0.0608428 0.692157
2320 2 0.483785 0.0321163 0.739082
2321 4 0.490359 0.0257857 0.715803
1164 4 0.487116 0.0434381 0.705357
4581 4 0.49338 0.01135 0.703694
1076 4 0.055101 0.0812551 0.678856
862 2 0.0443524 0.111465 0.751563
864 4 0.0599713 0.112059 0.732047
1075 2 0.0566977 0.0991705 0.696225
1077 4 0.0582943 0.117086 0.713593
1107 4 0.0686058 0.128948 0.724012
851 4 0.0582202 0.135466 0.708587
1105 2 0.0885244 0.140741 0.733464
850 2 0.0504559 0.154781 0.694736
1282 2 0.142093 0.0949039 0.681033
1284 4 0.129028 0.103037 0.70074
908 4 0.199017 0.157227 0.701072
907 2 0.174014 0.157083 0.700838
1227 4 0.203283 0.137999 0.704108
1225 2 0.207296 0.115422 0.714077
1226 4 0.211308 0.0928457 0.724046
829 2 0.325503 0.149412 0.70666
830 4 0.31458 0.155155 0.684913
1003 2 0.391515 0.0861041 0.687969
1005 4 0.385382 0.110271 0.686097
831 4 0.336426 0.143669 0.728406
43 3 0.433512 0.109358 0.670333
41 1 0.453599 0.0996064 0.664023
44 3 0.468854 0.100897 0.68146
852 4 0.0426916 0.174096 0.680886
1073 4 0.124107 0.21772 0.73067
1072 2 0.122045 0.242507 0.733224
1074 4 0.119983 0.267294 0.735779
909 4 0.149012 0.156939 0.700605
978 4 0.242565 0.222907 0.761987
1194 4 0.319354 0.184547 0.674726
888 4 0.263147 0.183928 0.668072
886 2 0.285744 0.178763 0.677446
887 4 0.308341 0.173598 0.686821
1025 4 0.433187 0.182999 0.671927
1262 4 0.44758 0.212747 0.734013
1142 4 0.447433 0.181574 0.721864
1024 2 0.439434 0.192759 0.694083
1141 2 0.445715 0.177656 0.746499
1026 4 0.445682 0.202519 0.716239
1261 2 0.462779 0.231975 0.738954
1145 4 0.506664 0.199908 0.72181
1209 4 0.140571 0.29253 0.684244
1207 2 0.11719 0.285941 0.690168
1208 4 0.0938088 0.279353 0.696091
821 4 0.152467 0.30714 0.690789
820 2 0.174994 0.300472 0.682233
822 4 0.197522 0.293803 0.673677
1063 2 0.242595 0.310905 0.706459
1064 4 0.256027 0.310216 0.685381
1065 4 0.229163 0.311593 0.727537
916 2 0.309321 0.2633 0.743187
917 4 0.319473 0.28162 0.729532
807 4 0.331144 0.298885 0.688255
1263 4 0.477979 0.251204 0.743896
892 2 0.0267685 0.357022 0.707603
893 4 0.0180313 0.33392 0.703714
894 4 0.0355058 0.380124 0.711493
1280 4 0.0539949 0.386397 0.715223
1279 2 0.0471835 0.410403 0.713643
816 4 0.0671348 0.380736 0.728017
814 2 0.0858504 0.369988 0.740641
1028 4 0.211289 0.376935 0.701761
1066 2 0.187177 0.374159 0.7317
1068 4 0.195067 0.367711 0.708867
1027 2 0.222575 0.389125 0.683075
1019 4 0.371871 0.373236 0.732952
1981 2 0.0659161 0.461636 0.735756
1281 4 0.040372 0.434409 0.712063
1983 4 0.0525243 0.44733 0.720226
1176 4 0.200306 0.497609 0.726755
2016 4 0.181532 0.494116 0.733319
1138 2 0.261528 0.42941 0.683777
1139 4 0.276729 0.440753 0.70007
1988 4 0.321871 0.458113 0.747958
1987 2 0.32506 0.460081 0.723236
1989 4 0.328249 0.46205 0.698515
1228 2 0.346591 0.473345 0.66938
1229 4 0.333999 0.479681 0.690032
1100 4 0.401065 0.50442 0.707728
1099 2 0.423455 0.504208 0.696601
1101 4 0.445846 0.503996 0.685475
2991 4 0.00956323 0.0397659 0.742308
1202 4 0.114528 0.028332 0.749744
2049 4 0.130147 0.0158268 0.751745
1203 4 0.0939078 0.0634461 0.77877
1201 2 0.104218 0.0458891 0.764257
1257 4 0.23367 0.065176 0.783381
1255 2 0.249228 0.0772839 0.79876
817 2 0.327509 0.0445551 0.800764
819 4 0.312427 0.0635741 0.806764
818 4 0.342591 0.025536 0.794765
1050 4 0.338254 0.999555 0.767186
974 4 0.341492 0.00933414 0.785669
1113 4 0.419707 0.0702349 0.783132
2322 4 0.477212 0.038447 0.76236
844 2 0.494161 0.083369 0.790118
845 4 0.471388 0.0893445 0.798536
1111 2 0.438227 0.0863221 0.787968
834 4 0.00215086 0.132345 0.810532
863 4 0.0287336 0.11087 0.771079
833 4 0.0105123 0.1011 0.772393
832 2 0.00633158 0.116722 0.791463
911 4 0.113728 0.117215 0.824761
34 3 0.122757 0.125751 0.783997
31 1 0.119897 0.13308 0.805826
35 3 0.0987303 0.128475 0.812857
32 3 0.134929 0.12214 0.819373
1106 4 0.108443 0.152535 0.742916
1085 4 0.302617 0.0804217 0.808369
840 4 0.267271 0.100861 0.831047
1256 4 0.264786 0.0893918 0.81414
1084 2 0.298013 0.103535 0.800016
1086 4 0.29341 0.126648 0.791664
960 4 0.298546 0.0854051 0.827498
1112 4 0.456747 0.102409 0.792804
47 3 0.423951 0.177123 0.813936
1214 4 0.0138101 0.217611 0.768208
1213 2 0.0038495 0.217373 0.745275
33 3 0.123875 0.155904 0.807105
1130 4 0.155954 0.208861 0.794864
1129 2 0.177131 0.216429 0.783935
1131 4 0.198309 0.223996 0.773007
1277 4 0.208664 0.241243 0.77623
976 2 0.267474 0.225061 0.762305