ITEM: TIMESTEP
460000
ITEM: NUMBER OF ATOMS
4590
ITEM: BOX BOUNDS pp pp pp
-9.9985700000000008e+00 9.9985700000000008e+00
-9.9985700000000008e+00 9.9985700000000008e+00
-9.9985700000000008e+00 9.9985700000000008e+00
ITEM: ATOMS id type xs ys zs
463 2 0.0408956 0.0691855 0.0205095
464 4 0.0588336 0.0669042 0.00324095
465 4 0.0229576 0.0714669 0.037778
591 4 0.0283253 0.0752542 0.089221
534 4 0.214603 0.0308256 0.00722495
490 2 0.276379 0.0779393 0.0792777
1475 4 0.270225 0.012121 0.0686246
296 4 0.367016 0.0811804 0.0502146
295 2 0.350502 0.0624722 0.0517861
297 4 0.333988 0.043764 0.0533576
987 4 0.416459 0.0445543 0.00701891
747 4 0.477162 0.064825 0.00973327
2974 2 0.48463 0.0282507 0.0178557
2976 4 0.490163 0.0109013 0.0349894
2467 2 0.503408 0.0226796 0.0691671
2468 4 0.485503 0.0162347 0.0529478
745 2 0.462996 0.0805728 0.0230184
589 2 0.00968888 0.0919231 0.0893045
422 4 0.101499 0.141395 0.0247694
421 2 0.113821 0.132701 0.00482547
565 2 0.209143 0.150546 0.0695771
566 4 0.18818 0.154452 0.0565213
567 4 0.230107 0.14664 0.0826329
492 4 0.264559 0.0767906 0.0572744
358 2 0.30354 0.133674 0.0413228
359 4 0.289512 0.148557 0.055707
360 4 0.317568 0.118792 0.0269386
557 4 0.374829 0.0917328 0.034723
556 2 0.387687 0.110926 0.0442878
558 4 0.400545 0.130118 0.0538525
665 4 0.360217 0.156575 0.0269424
746 4 0.448829 0.0963207 0.0363036
771 4 0.423243 0.155011 0.0557279
554 4 0.0629411 0.235189 0.0410346
2625 4 0.00955836 0.192881 0.10738
664 2 0.347939 0.178048 0.0232888
322 2 0.408536 0.254464 0.0637557
666 4 0.335661 0.19952 0.0196352
769 2 0.434487 0.177068 0.0592267
324 4 0.42967 0.241882 0.0592585
770 4 0.445732 0.199124 0.0627255
553 2 0.053908 0.256482 0.0315374
555 4 0.0448749 0.277775 0.0220403
292 2 0.13467 0.300627 0.0104345
293 4 0.149569 0.287228 0.0253895
507 4 0.162413 0.275428 0.0332044
483 4 0.205827 0.307415 0.0721662
505 2 0.175918 0.285904 0.0514537
506 4 0.189423 0.296381 0.0697031
481 2 0.229581 0.299627 0.0716191
573 4 0.258803 0.277398 0.0603183
572 4 0.269324 0.250363 0.0195863
357 4 0.265846 0.259071 0.00208786
571 2 0.264063 0.263881 0.0399523
482 4 0.253334 0.291838 0.0710721
1071 4 0.377863 0.28214 0.0135243
1069 2 0.398365 0.292015 0.0238842
1070 4 0.418867 0.30189 0.0342442
741 4 0.359327 0.332659 0.0715341
671 4 0.45097 0.319639 0.0722401
280 2 0.442754 0.32573 0.0341582
281 4 0.437937 0.320062 0.0580296
282 4 0.447571 0.331399 0.0102869
551 4 0.0561504 0.432409 0.0507013
328 2 0.0148812 0.421528 0.00352549
288 4 0.159813 0.349568 0.0248327
287 4 0.194498 0.384698 0.0328021
286 2 0.177155 0.367133 0.0288174
252 4 0.286907 0.4086 0.0425313
250 2 0.303137 0.392317 0.032702
251 4 0.319367 0.376033 0.0228727
957 4 0.346935 0.348379 0.997536
955 2 0.371543 0.348256 0.00196755
956 4 0.39615 0.348133 0.00639937
550 2 0.0800704 0.428252 0.0566795
329 4 0.0276764 0.441816 0.0105858
552 4 0.10399 0.424095 0.0626577
455 4 0.120667 0.415143 0.0712949
242 4 0.154128 0.479217 0.0466002
245 4 0.237046 0.443583 0.0464577
626 4 0.203802 0.430744 0.083535
241 2 0.166883 0.488812 0.0658469
609 4 0.294748 0.405083 0.0611093
607 2 0.291795 0.413534 0.0844551
244 2 0.249958 0.45265 0.0270601
246 4 0.262869 0.461716 0.00766254
273 4 0.313902 0.494594 0.999054
226 2 0.484291 0.464283 0.0699695
563 4 0.463699 0.498238 0.0568003
228 4 0.476631 0.482472 0.0546183
1666 2 0.0799974 0.0419338 0.097373
1668 4 0.0627883 0.0238452 0.0987256
19 3 0.0594644 0.0346936 0.152357
20 3 0.0638609 0.0717791 0.157151
701 4 0.0904982 0.077727 0.0905826
1667 4 0.0972065 0.0600224 0.0960204
450 4 0.157283 0.0439689 0.132375
448 2 0.166164 0.0673415 0.132186
652 2 0.31211 0.0157675 0.144903
653 4 0.336847 0.0164688 0.148482
491 4 0.288199 0.0790881 0.101281
654 4 0.287374 0.0150662 0.141325
1761 4 0.463028 0.99665 0.115674
1759 2 0.470172 0.0110836 0.1348
1760 4 0.477316 0.0255176 0.153926
2724 4 0.488975 0.0412035 0.145852
2722 2 0.500399 0.0609854 0.135686
310 2 0.424187 0.0794514 0.15455
2744 4 0.489619 0.0361253 0.164116
700 2 0.0985844 0.0988506 0.10124
702 4 0.106671 0.119974 0.111898
476 4 0.125209 0.164162 0.150671
475 2 0.114185 0.1565 0.171764
477 4 0.10316 0.148837 0.192857
237 4 0.182021 0.146155 0.154705
449 4 0.175044 0.0907141 0.131997
235 2 0.186546 0.124523 0.143012
236 4 0.19107 0.102891 0.131318
582 4 0.312729 0.0991745 0.150138
580 2 0.2913 0.107838 0.159674
312 4 0.419874 0.0825153 0.130113
629 4 0.411787 0.140707 0.138005
628 2 0.415485 0.162387 0.12611
2723 4 0.511823 0.0807673 0.12552
337 2 0.0758376 0.232784 0.131403
339 4 0.0716049 0.243044 0.108998
338 4 0.0800703 0.222524 0.153808
737 4 0.171467 0.186909 0.116428
736 2 0.195481 0.188278 0.1096
738 4 0.219496 0.189648 0.102773
277 2 0.234374 0.237967 0.156179
461 4 0.293138 0.222991 0.0966104
460 2 0.317856 0.219228 0.0967584
354 4 0.273853 0.228091 0.0888864
352 2 0.268084 0.234956 0.112227
284 4 0.272953 0.232883 0.148594
353 4 0.262315 0.241821 0.135567
278 4 0.257553 0.246031 0.151393
283 2 0.2897 0.219587 0.161552
255 4 0.359951 0.207666 0.0909568
462 4 0.342575 0.215464 0.0969064
254 4 0.403472 0.195997 0.112648
253 2 0.381712 0.201831 0.101802
765 4 0.38802 0.229016 0.15228
630 4 0.419184 0.184067 0.114214
518 4 0.479352 0.227535 0.111679
536 4 0.214779 0.316263 0.138243
754 2 0.266485 0.286009 0.147212
755 4 0.263785 0.261569 0.142675
756 4 0.269184 0.310449 0.151749
612 4 0.284602 0.322675 0.158144
323 4 0.387402 0.267046 0.068253
624 4 0.39562 0.24393 0.140665
622 2 0.38765 0.266771 0.134343
623 4 0.37968 0.289611 0.128021
670 2 0.449145 0.327317 0.0959655
672 4 0.447319 0.334995 0.119691
528 4 0.465262 0.258403 0.151383
621 4 0.0426155 0.364647 0.106052
619 2 0.0188742 0.370108 0.111683
620 4 0.995133 0.375569 0.117314
647 4 0.0530506 0.358057 0.156708
454 2 0.128355 0.395943 0.0853452
456 4 0.136043 0.376742 0.0993955
535 2 0.198423 0.327758 0.153261
537 4 0.182068 0.339253 0.168278
302 4 0.302747 0.385799 0.151396
387 4 0.314421 0.393893 0.13737
739 2 0.355684 0.354843 0.0824778
740 4 0.352042 0.377027 0.0934215
15 3 0.370602 0.367038 0.121145
385 2 0.334558 0.385594 0.125089
386 4 0.354695 0.377294 0.112808
11 1 0.387239 0.371286 0.136106
13 3 0.382786 0.390995 0.147514
12 3 0.388391 0.354019 0.151261
14 3 0.40758 0.372946 0.125066
495 4 0.412241 0.39254 0.121747
493 2 0.421204 0.414569 0.129466
596 4 0.490778 0.409536 0.150472
315 4 0.0284285 0.462245 0.0964649
313 2 0.0216213 0.459943 0.120414
314 4 0.0148142 0.457641 0.144362
625 2 0.226078 0.4421 0.0834351
627 4 0.248354 0.453455 0.0833351
608 4 0.288841 0.421986 0.107801
638 4 0.244419 0.48543 0.159864
523 2 0.340398 0.488349 0.106471
525 4 0.34598 0.466551 0.117372
658 2 0.376903 0.463097 0.156018
659 4 0.38663 0.456877 0.13384
227 4 0.491951 0.446094 0.0853207
494 4 0.430167 0.436597 0.137186
17 3 0.0340383 0.0546012 0.171588
2480 4 0.0207988 0.0468264 0.179963
16 1 0.0564572 0.0525547 0.16686
18 3 0.0679755 0.048727 0.186636
1422 4 0.015175 0.0279349 0.184722
1420 2 0.0199695 0.00664427 0.196925
2479 2 0.000220708 0.0592101 0.186917
673 2 0.118618 0.0441331 0.247449
674 4 0.128039 0.0554339 0.227233
689 4 0.161829 0.0216875 0.216268
688 2 0.175336 0.0218208 0.237309
692 4 0.227972 0.0779575 0.221487
21 1 0.365472 0.0288005 0.228161
23 3 0.370729 0.0149627 0.24603
24 3 0.34292 0.0342312 0.228715
25 3 0.370478 0.0183887 0.208535
759 4 0.382462 0.0382074 0.210199
22 3 0.37782 0.0481353 0.229845
757 2 0.39921 0.0496023 0.195541
758 4 0.415958 0.0609972 0.180884
742 2 0.458103 0.0585141 0.215459
744 4 0.463255 0.0346157 0.220703
311 4 0.4285 0.0763875 0.178988
379 2 0.00753847 0.157665 0.169815
381 4 0.0142519 0.15312 0.193467
577 2 0.0909288 0.102211 0.233293
578 4 0.074877 0.0934262 0.216253
579 4 0.106981 0.110996 0.250332
693 4 0.214045 0.0941154 0.176258
691 2 0.221008 0.0860364 0.198872
723 4 0.228743 0.0798144 0.240836
581 4 0.269871 0.116502 0.169209
30 3 0.297775 0.157314 0.249741
28 3 0.303826 0.120737 0.243173
27 3 0.332714 0.144375 0.247574
333 4 0.414945 0.146558 0.247146
743 4 0.452951 0.0824125 0.210214
363 4 0.0859963 0.229284 0.171635
511 2 0.030563 0.168906 0.219687
512 4 0.0123093 0.172211 0.202922
394 2 0.010339 0.250182 0.224985
513 4 0.0488166 0.165602 0.236452
395 4 0.0143466 0.254588 0.200701
396 4 0.00633138 0.245776 0.249269
361 2 0.0940926 0.247688 0.186499
279 4 0.211196 0.229903 0.160965
285 4 0.306447 0.20629 0.174511
764 4 0.355664 0.224988 0.190195
763 2 0.371842 0.227002 0.171237
520 2 0.481376 0.208794 0.207542
521 4 0.462337 0.193237 0.202996
522 4 0.500415 0.224352 0.212087
527 4 0.487368 0.256775 0.196209
371 4 0.160082 0.262804 0.230697
370 2 0.141302 0.264457 0.214273
372 4 0.122521 0.26611 0.197849
748 2 0.102239 0.292884 0.237095
362 4 0.102189 0.266092 0.201362
749 4 0.100143 0.275692 0.219061
345 4 0.241056 0.321925 0.250772
343 2 0.251976 0.301531 0.241283
344 4 0.262895 0.281138 0.231795
307 2 0.321229 0.279027 0.245986
308 4 0.318237 0.263155 0.226899
610 2 0.275993 0.331204 0.180015
526 2 0.476315 0.257589 0.173796
646 2 0.0763655 0.36017 0.16549
262 2 0.025387 0.416056 0.235566
648 4 0.0996803 0.362284 0.174273
300 4 0.0955214 0.33737 0.238094
298 2 0.113773 0.354038 0.241867
417 4 0.149091 0.382163 0.186228
415 2 0.165062 0.401094 0.189648
299 4 0.132025 0.370705 0.24564
416 4 0.181033 0.420026 0.193067
291 4 0.200429 0.416352 0.196668
611 4 0.267384 0.339733 0.201885
303 4 0.312965 0.388483 0.200274
301 2 0.307856 0.387141 0.175835
729 4 0.321083 0.394799 0.21729
727 2 0.333416 0.381124 0.234204
595 2 0.476938 0.394068 0.164414
597 4 0.463098 0.378599 0.178355
643 2 0.437595 0.370464 0.210005
644 4 0.423948 0.373313 0.230761
645 4 0.451243 0.367616 0.189249
447 4 0.427004 0.378134 0.250828
264 4 0.00476364 0.421998 0.222738
290 4 0.246176 0.430353 0.211222
289 2 0.223302 0.423353 0.203945
767 4 0.251008 0.490711 0.177509
768 4 0.245557 0.450335 0.206505
766 2 0.248282 0.470523 0.192007
660 4 0.367176 0.469316 0.178197
110 3 0.501571 0.42418 0.200462
1568 4 0.488581 0.498087 0.209821
1567 2 0.490446 0.503172 0.185411
232 2 0.0172584 0.0399911 0.28846
233 4 0.0340783 0.0250655 0.277529
1402 2 0.0765652 0.0218243 0.285158
1404 4 0.0517201 0.0192976 0.286389
675 4 0.109197 0.0328323 0.267666
1403 4 0.10141 0.0243511 0.283927
1464 4 0.103579 0.00369794 0.284566
690 4 0.188842 0.0219542 0.258351
1701 4 0.23199 0.0408983 0.321101
1699 2 0.256429 0.0393858 0.316039
1700 4 0.280868 0.0378733 0.310977
478 2 0.491076 0.0491275 0.299751
480 4 0.483514 0.0599991 0.278542
351 4 0.472435 0.0739625 0.268052
731 4 0.121353 0.0920557 0.304287
730 2 0.102793 0.103319 0.316691
392 4 0.110363 0.15219 0.273979
721 2 0.221877 0.0900912 0.262572
722 4 0.215012 0.100368 0.284308
249 4 0.207559 0.116113 0.293285
247 2 0.199214 0.111261 0.31635
403 2 0.222158 0.149085 0.277226
404 4 0.204591 0.131665 0.280848
600 4 0.180471 0.144512 0.337812
26 1 0.311288 0.139597 0.254445
29 3 0.311453 0.135615 0.277304
632 4 0.386984 0.116891 0.275317
631 2 0.371988 0.134576 0.284672
633 4 0.356991 0.152261 0.294028
706 2 0.341061 0.164734 0.324813
349 2 0.450336 0.0803687 0.277837
350 4 0.428236 0.0867749 0.287623
331 2 0.439139 0.150862 0.251757
332 4 0.463334 0.155166 0.256368
762 4 0.473606 0.171508 0.252875
531 4 0.00526335 0.164207 0.251425
443 4 0.0175023 0.239894 0.264228
393 4 0.0807316 0.190575 0.261759
546 4 0.15859 0.167697 0.267139
391 2 0.0955474 0.171383 0.267869
544 2 0.170571 0.184323 0.281465
545 4 0.182551 0.200949 0.29579
405 4 0.239726 0.166504 0.273604
707 4 0.343269 0.166652 0.299981
420 4 0.410615 0.248348 0.322481
418 2 0.42638 0.230236 0.329454
761 4 0.484855 0.211869 0.280173
760 2 0.479231 0.191689 0.266524
419 4 0.442145 0.212125 0.336427
750 4 0.104335 0.310076 0.255129
390 4 0.111041 0.264926 0.31703
400 2 0.191913 0.281625 0.295109
402 4 0.212142 0.284682 0.309484
401 4 0.171685 0.278567 0.280735
309 4 0.324221 0.294899 0.265074
496 2 0.309352 0.308258 0.304258
497 4 0.29664 0.313319 0.325187
498 4 0.322063 0.303198 0.28333
543 4 0.392001 0.303421 0.315014
615 4 0.391096 0.322941 0.313003
613 2 0.367957 0.332066 0.310446
614 4 0.344819 0.341191 0.307889
541 2 0.415734 0.29571 0.313454
542 4 0.439468 0.287998 0.311894
263 4 0.0460103 0.410114 0.248394
366 4 0.00154785 0.350248 0.281685
364 2 0.0258824 0.349576 0.287391
365 4 0.050217 0.348904 0.293096
602 4 0.0708362 0.41239 0.297717
601 2 0.0677801 0.387773 0.294587
603 4 0.064724 0.363155 0.291457
734 4 0.146883 0.357591 0.251506
733 2 0.164325 0.362566 0.268717
510 4 0.225239 0.328733 0.318717
677 4 0.182109 0.363492 0.306273
735 4 0.181766 0.36754 0.285928
433 2 0.31906 0.371851 0.32494
435 4 0.299394 0.384337 0.334025
434 4 0.338726 0.359366 0.315854
728 4 0.345749 0.367449 0.251118
445 2 0.446781 0.371737 0.264726
446 4 0.466557 0.36534 0.278623
1757 4 0.0751387 0.475286 0.268111
549 4 0.0776025 0.413603 0.318163
777 4 0.0771823 0.45682 0.315659
775 2 0.0839536 0.47729 0.328321
414 4 0.186529 0.486405 0.297505
412 2 0.198987 0.470181 0.311884
413 4 0.211446 0.453958 0.326263
436 2 0.320646 0.456047 0.294524
437 4 0.312266 0.44036 0.27695
438 4 0.329027 0.471734 0.312099
119 3 0.496637 0.436817 0.321831
713 4 0.439918 0.476228 0.306628
712 2 0.459229 0.460906 0.310806
714 4 0.478541 0.445583 0.314984
316 2 0.0503789 0.0731289 0.343091
317 4 0.0340488 0.054351 0.340662
318 4 0.0667089 0.0919067 0.34552
428 4 0.0710264 0.00853805 0.361105
1781 4 0.10894 0.00649989 0.407775
606 4 0.13234 0.0828102 0.360952
429 4 0.105774 0.0443795 0.358157
427 2 0.0884003 0.0264588 0.359631
604 2 0.156169 0.0862404 0.3542
605 4 0.179998 0.0896706 0.347448
683 4 0.307885 0.0477471 0.381627
682 2 0.297894 0.0695423 0.38872
699 4 0.351856 0.0632232 0.352354
257 4 0.408753 0.0530221 0.339832
698 4 0.393039 0.0473244 0.328862
697 2 0.372448 0.0552738 0.340608
256 2 0.433632 0.0546588 0.337957
258 4 0.458511 0.0562954 0.336082
398 4 0.0467816 0.120895 0.368321
397 2 0.0655276 0.127417 0.353115
732 4 0.0842325 0.114582 0.329094
399 4 0.0842736 0.13394 0.337909
248 4 0.190869 0.10641 0.339415
598 2 0.169204 0.149515 0.359566
599 4 0.157937 0.154518 0.381319
684 4 0.287902 0.0913375 0.395813
320 4 0.286692 0.1018 0.412218
319 2 0.269142 0.116485 0.422294
708 4 0.338854 0.162816 0.349645
2879 4 0.493416 0.0853069 0.410382
452 4 0.486319 0.115858 0.410521
451 2 0.465451 0.129626 0.410871
453 4 0.444582 0.143394 0.411221
515 4 0.430052 0.15707 0.413269
260 4 0.0751844 0.201577 0.398589
459 4 0.0360346 0.181445 0.40301
389 4 0.0908858 0.244594 0.358032
388 2 0.100964 0.25476 0.337531
474 4 0.229194 0.224838 0.379912
276 4 0.21932 0.239252 0.389759
472 2 0.220935 0.202532 0.372203
473 4 0.212677 0.180227 0.364493
715 2 0.373135 0.213462 0.361239
716 4 0.363262 0.209374 0.383844
717 4 0.383009 0.217549 0.338634
467 4 0.375251 0.208935 0.400492
270 4 0.474829 0.226685 0.42234
347 4 0.0530393 0.320808 0.376056
346 2 0.0427498 0.311413 0.396817
274 2 0.209815 0.259987 0.379518
275 4 0.20031 0.280723 0.369278
373 2 0.182465 0.338303 0.38689
374 4 0.184583 0.32679 0.408984
376 2 0.295962 0.285782 0.356837
377 4 0.302209 0.294911 0.334414
378 4 0.289714 0.276652 0.37926
269 4 0.503963 0.256781 0.395024
268 2 0.489396 0.241733 0.408682
618 4 0.0525394 0.33686 0.363155
616 2 0.0721666 0.333152 0.348115
617 4 0.0917938 0.329444 0.333075
508 2 0.229282 0.338608 0.341329
375 4 0.180348 0.349815 0.364795
678 4 0.1658 0.345852 0.350131
676 2 0.173954 0.354672 0.328202
509 4 0.233325 0.348484 0.363941
502 2 0.237946 0.397103 0.422796
503 4 0.262113 0.402766 0.419782
336 4 0.337186 0.366918 0.388881
334 2 0.354344 0.364237 0.40687
335 4 0.371501 0.361556 0.42486
561 4 0.483269 0.400743 0.379977
752 4 0.473452 0.417791 0.379833
751 2 0.44894 0.420128 0.384178
753 4 0.424428 0.422465 0.388524
407 4 0.061289 0.429624 0.381782
406 2 0.0742375 0.426788 0.402982
547 2 0.0758626 0.418678 0.342584
548 4 0.0741228 0.423752 0.367005
570 4 0.147898 0.480397 0.391067
776 4 0.090725 0.497759 0.340983
568 2 0.147752 0.47917 0.41604
1555 2 0.239254 0.494672 0.418346
2 3 0.311821 0.501484 0.344454
5 3 0.302821 0.470036 0.362424
1 1 0.319048 0.480442 0.350299
4 3 0.338379 0.482404 0.362983
1557 4 0.246343 0.478981 0.436477
3 3 0.323448 0.468384 0.330968
594 4 0.382778 0.471633 0.36793
592 2 0.393293 0.493867 0.363425
2237 4 0.0354732 0.0288115 0.489258
718 2 0.0552245 0.057639 0.473132
720 4 0.0532279 0.0345457 0.482507
2236 2 0.0239399 0.00862027 0.498449
719 4 0.057221 0.0807323 0.463757
367 2 0.113582 0.0331563 0.440979
369 4 0.115049 0.0420216 0.464312
368 4 0.112115 0.0242911 0.417646
2430 4 0.200541 0.0220261 0.49766
341 4 0.218041 0.0310444 0.497845
441 4 0.288259 0.0339899 0.426332
439 2 0.287403 0.0117637 0.414911
962 4 0.289906 0.0306683 0.44723
961 2 0.294927 0.0418014 0.469047
963 4 0.299948 0.0529344 0.490865
426 4 0.401058 0.00321381 0.418056
424 2 0.387405 0.021375 0.428493
425 4 0.373752 0.0395362 0.438931
725 4 0.387791 0.0813627 0.43117
2586 4 0.00451531 0.12697 0.427573
458 4 0.0149328 0.143959 0.428509
457 2 0.0254837 0.162702 0.415759
471 4 0.0355671 0.161612 0.471287
686 4 0.175394 0.179985 0.426917
1181 4 0.291629 0.102819 0.470851
1182 4 0.264341 0.141666 0.486567
1180 2 0.277985 0.122243 0.478709
321 4 0.251593 0.13117 0.43237
726 4 0.339261 0.0817531 0.443227
724 2 0.363526 0.0815579 0.437199
576 4 0.406013 0.173369 0.499396
2878 2 0.490552 0.0867629 0.435178
642 4 0.500904 0.0896848 0.475221
2880 4 0.487687 0.0882189 0.459974
640 2 0.484366 0.102362 0.48904
469 2 0.0252086 0.181487 0.482372
470 4 0.0148501 0.201362 0.493456
695 4 0.078387 0.246465 0.474227
685 2 0.150594 0.177584 0.429
687 4 0.125793 0.175182 0.431083
261 4 0.112623 0.190485 0.429831
259 2 0.093904 0.196031 0.41421
1035 4 0.113185 0.206114 0.442853
1033 2 0.114983 0.204506 0.46774
1034 4 0.116781 0.202898 0.492627
857 4 0.219901 0.239983 0.496087
488 4 0.263253 0.244808 0.422876
487 2 0.280135 0.23946 0.440529
489 4 0.297016 0.234113 0.458181
411 4 0.309836 0.223376 0.470995
409 2 0.330029 0.211569 0.462163
466 2 0.364795 0.197987 0.420391
574 2 0.401054 0.18485 0.477745
410 4 0.350222 0.199762 0.453331
468 4 0.35434 0.187039 0.440291
575 4 0.396095 0.196332 0.456095
516 4 0.39874 0.185957 0.439457
514 2 0.414396 0.171513 0.426363
304 2 0.494501 0.177515 0.428135
305 4 0.479412 0.180238 0.447886
348 4 0.0324604 0.302017 0.417578
694 2 0.0984994 0.259927 0.480507
696 4 0.118612 0.27339 0.486788
9 3 0.154708 0.312714 0.480875
327 4 0.121005 0.342655 0.47999
1260 4 0.138072 0.275513 0.490176
651 4 0.236539 0.270687 0.482111
649 2 0.259507 0.277574 0.475025
650 4 0.282475 0.284461 0.467938
266 4 0.340808 0.282364 0.455604
267 4 0.390328 0.275526 0.456932
265 2 0.365568 0.278945 0.456268
812 4 0.342936 0.343662 0.48848
583 2 0.471763 0.270259 0.465607
584 4 0.488447 0.262117 0.482356
585 4 0.455078 0.278401 0.448858
2845 2 0.00214521 0.331717 0.477628
2846 4 0.0247528 0.34231 0.478995
681 4 0.0189706 0.406075 0.440137
326 4 0.102275 0.345055 0.433685
325 2 0.11164 0.343855 0.456837
384 4 0.0931335 0.424189 0.484702
6 1 0.157915 0.334347 0.488628
7 3 0.140664 0.347576 0.481109
10 3 0.177647 0.342571 0.480774
711 4 0.165462 0.379428 0.462944
504 4 0.213779 0.39144 0.425809
709 2 0.182788 0.390971 0.449097
710 4 0.200115 0.402513 0.43525
772 2 0.273651 0.416685 0.485799
804 4 0.266749 0.359496 0.494065
238 2 0.394853 0.375792 0.455478
240 4 0.382064 0.358909 0.442189
239 4 0.407642 0.392675 0.468767
587 4 0.421637 0.427773 0.425862
3309 4 0.47612 0.380042 0.496233
3307 2 0.499149 0.374821 0.504454
680 4 0.019758 0.455918 0.436171
1381 2 0.0035833 0.486234 0.441212
1383 4 0.0181449 0.472982 0.4258
679 2 0.0193643 0.430996 0.438154
539 4 0.0530438 0.483723 0.491535
569 4 0.147607 0.477942 0.441013
383 4 0.0891423 0.438811 0.437047
382 2 0.0911379 0.4315 0.460874
408 4 0.087186 0.423952 0.424183
634 2 0.249323 0.454604 0.454076
636 4 0.231582 0.470923 0.447435
668 4 0.330791 0.41797 0.427976
635 4 0.267065 0.438284 0.460717
774 4 0.279297 0.423666 0.462463
669 4 0.289475 0.407414 0.454096
667 2 0.310133 0.412692 0.441036
880 2 0.33655 0.469811 0.490728
882 4 0.326349 0.451539 0.504413
1401 4 0.358187 0.493701 0.415484
588 4 0.393528 0.441113 0.465011
586 2 0.407582 0.434443 0.445436
1126 2 0.0167619 0.054763 0.567698
1127 4 0.0391469 0.0468123 0.559895
1128 4 0.994377 0.0627138 0.5755
1058 4 0.149763 0.0668659 0.571051
1031 4 0.220631 0.0777749 0.568486
340 2 0.206501 0.0519832 0.505165
432 4 0.306591 0.0530411 0.509982
430 2 0.327901 0.0595362 0.521334
951 4 0.269577 0.027176 0.584364
1217 4 0.40417 0.0350296 0.528009
1216 2 0.41497 0.0244329 0.547915
841 2 0.382752 0.0573407 0.514449
842 4 0.40191 0.0418131 0.510322
843 4 0.363594 0.0728683 0.518577
431 4 0.349211 0.0660312 0.532685
3008 4 0.486805 0.075931 0.561381
938 4 0.0683404 0.137348 0.562852
937 2 0.093007 0.141168 0.561387
939 4 0.117674 0.144988 0.559922
1059 4 0.133851 0.114247 0.572659
1057 2 0.141807 0.0905564 0.571855
1153 2 0.151082 0.144733 0.572891
1155 4 0.132362 0.130705 0.564063
342 4 0.194962 0.072922 0.512485
1030 2 0.243172 0.0881914 0.571416
1152 4 0.182305 0.0861975 0.521165
1151 4 0.182243 0.134885 0.532575
1150 2 0.182274 0.110541 0.52687
899 4 0.311637 0.152509 0.558217
1032 4 0.265713 0.098608 0.574345
641 4 0.467829 0.11504 0.50286
3159 4 0.490094 0.158711 0.55111
877 2 0.0507878 0.212961 0.576315
878 4 0.0265015 0.20952 0.581164
1199 4 0.017563 0.223268 0.569855
879 4 0.0750741 0.216401 0.571465
1272 4 0.0943087 0.221572 0.567504
1270 2 0.113893 0.23032 0.580353
856 2 0.227708 0.234001 0.519075
858 4 0.235516 0.228019 0.542062
898 2 0.305656 0.176018 0.552153
900 4 0.299675 0.199526 0.546089
1258 2 0.146244 0.279672 0.513437
1259 4 0.154416 0.283832 0.536699
813 4 0.349257 0.318002 0.530934
872 4 0.384738 0.275207 0.542868
811 2 0.346097 0.330832 0.509707
871 2 0.366981 0.292625 0.545415
873 4 0.349225 0.310043 0.547962
983 4 0.0464685 0.331738 0.542544
982 2 0.0352894 0.336086 0.564483
8 3 0.157939 0.334524 0.511831
1189 2 0.228171 0.382536 0.564519
1191 4 0.208534 0.39149 0.577145
1190 4 0.247807 0.373583 0.551893
803 4 0.26063 0.361597 0.543652
802 2 0.26369 0.360546 0.518858
928 2 0.328434 0.383244 0.563691
773 4 0.268004 0.409705 0.509135
929 4 0.333018 0.400404 0.546094
925 2 0.427118 0.379095 0.543109
927 4 0.443615 0.380599 0.561837
926 4 0.410621 0.377591 0.52438
1161 4 0.18374 0.471077 0.562312
1159 2 0.159995 0.469479 0.569979
540 4 0.0923861 0.497866 0.518974
538 2 0.0727149 0.490794 0.505254
1171 2 0.24286 0.436394 0.575269
1172 4 0.254304 0.417483 0.563583
1951 2 0.353841 0.498119 0.576747
1911 4 0.450513 0.481027 0.546986
1332 4 0.479378 0.483906 0.494973
663 4 0.434184 0.454372 0.511161
1002 4 0.422774 0.449861 0.558744
662 4 0.472498 0.469618 0.482871
661 2 0.453341 0.461995 0.497016
823 2 0.143226 0.00808514 0.63665
825 4 0.133387 0.0309891 0.638594
1284 4 0.193729 0.0882985 0.656531
949 2 0.279028 0.0364686 0.605565
950 4 0.28848 0.0457613 0.626767
809 4 0.463103 0.0780174 0.607889
1082 4 0.0550852 0.101372 0.66369
1083 4 0.0391571 0.09322 0.616994
1081 2 0.0471211 0.0972961 0.640342
1283 4 0.176398 0.11363 0.617051
1282 2 0.185063 0.100964 0.636791
808 2 0.457633 0.0888542 0.629748
810 4 0.452163 0.099691 0.651608
45 3 0.459463 0.104827 0.670362
852 4 0.0453461 0.186932 0.659973
1271 4 0.133478 0.239068 0.593201
1209 4 0.115879 0.244688 0.666638
1154 4 0.169802 0.158762 0.581719
1221 4 0.171517 0.174144 0.594835
1210 2 0.24538 0.178681 0.643454
1212 4 0.226987 0.18197 0.626839
1219 2 0.191042 0.182126 0.60826
1220 4 0.210566 0.190108 0.621685
791 4 0.281794 0.247051 0.604938
1193 4 0.365768 0.204928 0.660301
1025 4 0.446078 0.197377 0.655021
1244 4 0.0543584 0.252476 0.602865
1243 2 0.0466038 0.275747 0.607714
1245 4 0.0388492 0.299017 0.612563
1136 4 0.116754 0.328481 0.607551
948 4 0.151935 0.286875 0.618706
797 4 0.250403 0.258101 0.581071
796 2 0.22656 0.256263 0.588374
798 4 0.202718 0.254426 0.595677
947 4 0.186705 0.253322 0.605825
946 2 0.16932 0.270098 0.612265
792 4 0.2991 0.293537 0.598599
790 2 0.290447 0.270294 0.601769
1238 4 0.315677 0.299748 0.607134
1237 2 0.318558 0.322882 0.598096
805 2 0.333129 0.302049 0.657395
806 4 0.339974 0.317311 0.63881
954 4 0.421216 0.322378 0.599257
904 2 0.488649 0.25647 0.604407
906 4 0.465026 0.264373 0.602241
952 2 0.431175 0.300671 0.591854
953 4 0.441135 0.278965 0.584451
984 4 0.0241103 0.340434 0.586421
3263 4 0.010948 0.342735 0.635116
1040 4 0.0799212 0.407116 0.62295
1039 2 0.0584688 0.397063 0.614956
1041 4 0.0370164 0.38701 0.606962
3264 4 0.018489 0.387497 0.614135
3262 2 0.0147185 0.365116 0.624625
993 4 0.0951694 0.407335 0.611807
1137 4 0.150434 0.364802 0.61442
897 4 0.155882 0.380534 0.603445
1135 2 0.133594 0.346642 0.610986
991 2 0.118954 0.400738 0.607814
992 4 0.142739 0.394141 0.603821
896 4 0.202848 0.374823 0.58725
895 2 0.179365 0.377678 0.595348
1029 4 0.244039 0.38216 0.665283
1239 4 0.32144 0.346016 0.589059
930 4 0.32385 0.366083 0.581289
1204 2 0.400671 0.393973 0.640671
1206 4 0.377201 0.386893 0.635748
1205 4 0.42414 0.401052 0.645595
1160 4 0.136249 0.467882 0.577645
1173 4 0.231416 0.455306 0.586955
1187 4 0.221632 0.472774 0.585037
1186 2 0.212487 0.494151 0.594233
889 2 0.317203 0.475206 0.614689
891 4 0.300497 0.468123 0.631891
1952 4 0.330898 0.488345 0.578547
890 4 0.33391 0.48229 0.597488
1230 4 0.370329 0.447017 0.659745
1001 4 0.449199 0.470997 0.595564
1000 2 0.435987 0.460429 0.577154
1269 4 0.46461 0.459163 0.641687
1267 2 0.464568 0.481573 0.652776
1268 4 0.464525 0.503984 0.663864
944 4 0.0411426 0.0798988 0.68357
943 2 0.0431305 0.0571356 0.693722
945 4 0.0451183 0.0343723 0.703874
1147 2 0.216454 0.0561595 0.722224
1149 4 0.222791 0.0372813 0.737344
1148 4 0.210117 0.0750378 0.707103
1004 4 0.370472 0.0657847 0.680564
1003 2 0.353894 0.0778745 0.694853
1005 4 0.337316 0.0899643 0.709142
1163 4 0.459605 0.0526346 0.690108
1162 2 0.481091 0.0437996 0.680865
42 3 0.454952 0.0691333 0.680289
2320 2 0.488905 0.0236635 0.742474
2321 4 0.507845 0.00736365 0.741599
1076 4 0.0550127 0.0928641 0.682675
862 2 0.0304463 0.125066 0.744381
864 4 0.0388319 0.13563 0.723327
1075 2 0.0511529 0.114734 0.694164
1077 4 0.0472931 0.136604 0.705652
1107 4 0.0479975 0.151723 0.717367
908 4 0.188558 0.135802 0.70401
907 2 0.17536 0.149428 0.687722
1227 4 0.206502 0.138047 0.713818
1225 2 0.203889 0.113379 0.716951
1226 4 0.201276 0.0887102 0.720083
829 2 0.330981 0.162258 0.722985
831 4 0.348829 0.157394 0.739806
43 3 0.427915 0.0941083 0.687897
41 1 0.450845 0.0909686 0.686248
44 3 0.46091 0.0951748 0.706727
3425 4 0.471181 0.106701 0.69057
3424 2 0.491854 0.12071 0.691827
851 4 0.0456509 0.153963 0.697572
850 2 0.0454985 0.170447 0.678773
1213 2 0.999055 0.202396 0.750504
1105 2 0.0630447 0.166666 0.730614
1177 2 0.0155382 0.236414 0.708019
909 4 0.162161 0.163054 0.671434
1130 4 0.186399 0.181455 0.745091
830 4 0.313133 0.167122 0.706163
1211 4 0.263774 0.175392 0.660068
886 2 0.293643 0.183884 0.675204
888 4 0.273731 0.19211 0.662515
887 4 0.313556 0.175659 0.687894
1194 4 0.333469 0.173869 0.682501
976 2 0.285578 0.202913 0.73114
978 4 0.268044 0.188342 0.720872
977 4 0.303111 0.217484 0.741408
1298 4 0.318599 0.221905 0.751089
1192 2 0.349619 0.189398 0.671401
1262 4 0.416373 0.235498 0.725626
1142 4 0.444531 0.183551 0.709837
1024 2 0.445975 0.200224 0.679862
1141 2 0.444506 0.181115 0.734722
1026 4 0.445872 0.203071 0.704703
1261 2 0.440812 0.239086 0.729505
1263 4 0.465251 0.242674 0.733383
1179 4 0.0202557 0.256289 0.6936
1207 2 0.101001 0.263617 0.673384
1208 4 0.0861225 0.282546 0.68013
820 2 0.170071 0.288546 0.702888
822 4 0.183752 0.268546 0.69672
821 4 0.156391 0.308545 0.709056
1065 4 0.238806 0.26233 0.695773
1063 2 0.256556 0.278731 0.68936
1064 4 0.274306 0.295133 0.682948
807 4 0.326283 0.286788 0.67598
1008 4 0.389022 0.300405 0.741199
3123 4 0.482943 0.260284 0.692487
892 2 0.0306018 0.35973 0.703491
893 4 0.00845575 0.351414 0.711589
894 4 0.0527479 0.368046 0.695393
1280 4 0.0609856 0.386478 0.692906
1279 2 0.0554464 0.408997 0.702252
940 2 0.129487 0.396347 0.735639
941 4 0.153896 0.395211 0.740939
815 4 0.101281 0.381479 0.742994
942 4 0.105079 0.397482 0.730338
1067 4 0.173354 0.395265 0.736395
1028 4 0.195514 0.38639 0.676602
1066 2 0.186767 0.389871 0.715994
1068 4 0.200179 0.384477 0.695594
1027 2 0.219776 0.384275 0.670942
1019 4 0.360035 0.364323 0.746234
1981 2 0.0517455 0.4604 0.734397
1281 4 0.0499071 0.431517 0.711599
1983 4 0.0636352 0.441628 0.722933
1982 4 0.0398558 0.479172 0.745861
1139 4 0.278555 0.444 0.711827
1138 2 0.280655 0.431042 0.690547
1140 4 0.282756 0.418083 0.669266
1987 2 0.32895 0.458753 0.728356
1228 2 0.361104 0.4601 0.678951
1229 4 0.351878 0.473184 0.698157
1989 4 0.339745 0.459435 0.705813
1100 4 0.414869 0.442981 0.682349
1099 2 0.427524 0.451592 0.70212
1101 4 0.440178 0.460203 0.721891
1201 2 0.12613 0.0726312 0.764471
1202 4 0.115838 0.0504387 0.769641
2049 4 0.110601 0.0329599 0.776724
2047 2 0.12174 0.0118194 0.784085
1050 4 0.33493 0.000733998 0.763734
1257 4 0.246999 0.096044 0.80227
2322 4 0.469964 0.0399634 0.74335
1113 4 0.416252 0.0464209 0.81844
1112 4 0.443204 0.0728005 0.785601
844 2 0.475514 0.0757877 0.772313
1111 2 0.429728 0.0596107 0.802021
846 4 0.493021 0.0657923 0.757522
911 4 0.0742992 0.100664 0.806135
863 4 0.0220606 0.114501 0.765434
832 2 0.00886508 0.104981 0.79835
833 4 0.0262889 0.101341 0.78079
910 2 0.0722262 0.0977059 0.830876
1203 4 0.136423 0.0948238 0.759302
34 3 0.127776 0.137424 0.806604
31 1 0.111152 0.148793 0.818127
35 3 0.0911179 0.138384 0.815143
1256 4 0.295067 0.10244 0.790052
1255 2 0.271033 0.099242 0.796161
1086 4 0.324173 0.148394 0.795195
1084 2 0.335502 0.135556 0.813415
819 4 0.352685 0.10246 0.827741
845 4 0.458007 0.0857832 0.787104
1106 4 0.0780919 0.181608 0.743861
1214 4 0.00673641 0.193265 0.772476
33 3 0.109882 0.170712 0.81062
1073 4 0.141094 0.231053 0.745335
1072 2 0.124088 0.248507 0.750933
1129 2 0.191358 0.205194 0.751179
1131 4 0.196317 0.228933 0.757267
1277 4 0.202281 0.239773 0.773747
918 4 0.302104 0.233746 0.75113
1299 4 0.353479 0.212219 0.785588