ITEM: TIMESTEP
2170000
ITEM: NUMBER OF ATOMS
4590
ITEM: BOX BOUNDS pp pp pp
-9.9985700000000008e+00 9.9985700000000008e+00
-9.9985700000000008e+00 9.9985700000000008e+00
-9.9985700000000008e+00 9.9985700000000008e+00
ITEM: ATOMS id type xs ys zs
1666 2 0.0282056 0.072823 0.0636287
1668 4 0.0323475 0.0484826 0.0675749
491 4 0.251095 0.0756877 0.0792018
2974 2 0.46772 0.0225527 0.011646
2976 4 0.471753 0.00278375 0.0264146
745 2 0.447008 0.0815963 0.0116617
1667 4 0.0240638 0.0971633 0.0596825
701 4 0.0316067 0.105906 0.0764361
566 4 0.184263 0.154171 0.0424504
565 2 0.192308 0.158062 0.0190983
297 4 0.322421 0.0910135 0.0195648
295 2 0.339865 0.103973 0.00719835
556 2 0.399153 0.112034 0.00421714
558 4 0.422055 0.109132 0.0138221
746 4 0.438838 0.101939 0.023686
555 4 0.0313038 0.249185 0.00440553
770 4 0.397986 0.195784 0.00447055
359 4 0.385231 0.187815 0.0163448
358 2 0.363778 0.192702 0.00446757
664 2 0.394502 0.218013 0.0429332
665 4 0.391721 0.203259 0.022939
666 4 0.397284 0.232767 0.0629273
623 4 0.391823 0.240649 0.0791151
769 2 0.420557 0.185165 0.00274422
2807 4 0.999732 0.272226 0.073588
292 2 0.125432 0.272025 0.0482829
507 4 0.160781 0.29296 0.055517
293 4 0.142188 0.290478 0.0502568
294 4 0.108676 0.253572 0.0463091
551 4 0.104281 0.311325 0.0895922
550 2 0.113314 0.326263 0.0716909
287 4 0.154555 0.298401 0.0382899
286 2 0.169459 0.307462 0.0203748
505 2 0.17579 0.286846 0.0745571
481 2 0.230578 0.266059 0.0825275
482 4 0.25057 0.252908 0.0752758
288 4 0.184363 0.316523 0.00245979
573 4 0.253997 0.256969 0.0571398
571 2 0.274291 0.263252 0.0439531
572 4 0.294584 0.269535 0.0307664
357 4 0.30185 0.27237 0.0118845
323 4 0.397489 0.25178 0.0630494
1069 2 0.404896 0.318538 0.021352
1071 4 0.386348 0.335216 0.0196247
322 2 0.405231 0.270479 0.0483665
955 2 0.353317 0.334365 0.00179967
324 4 0.412973 0.289178 0.0336837
1070 4 0.423444 0.30186 0.0230792
671 4 0.45139 0.324652 0.0854808
280 2 0.449821 0.304064 0.0510497
281 4 0.456759 0.310099 0.0743014
282 4 0.442884 0.298029 0.0277981
455 4 0.135934 0.349979 0.0402905
552 4 0.122346 0.3412 0.0537895
454 2 0.158042 0.359463 0.0334736
456 4 0.18015 0.368947 0.0266568
1290 4 0.258507 0.395484 0.0205374
252 4 0.282005 0.401198 0.0759653
250 2 0.2707 0.406182 0.0542275
251 4 0.259395 0.411166 0.0324897
1288 2 0.267375 0.383874 0.000246285
741 4 0.376903 0.345617 0.0335043
739 2 0.3744 0.345937 0.0583802
957 4 0.37102 0.346669 0.0144641
493 2 0.388891 0.393291 0.0872941
495 4 0.394965 0.36904 0.0876891
1788 4 0.0733024 0.490176 0.0365574
626 4 0.221309 0.497384 0.0662752
625 2 0.196307 0.497451 0.0665847
245 4 0.233211 0.481737 0.0616827
244 2 0.245322 0.464542 0.048161
246 4 0.257433 0.447347 0.0346393
272 4 0.26271 0.429668 0.0253468
271 2 0.266346 0.441235 0.00348026
494 4 0.382816 0.417542 0.0868991
1672 2 0.402568 0.442943 0.0548472
853 2 0.400013 0.438188 0.000227204
1674 4 0.412305 0.455725 0.0356899
854 4 0.415167 0.450123 0.0161357
563 4 0.477139 0.456337 0.0391395
562 2 0.452981 0.456977 0.0327249
564 4 0.428822 0.457617 0.0263103
228 4 0.488659 0.449587 0.0535494
18 3 0.0674919 0.00835288 0.160565
19 3 0.0665528 0.0462993 0.158667
1474 2 0.283705 0.00641086 0.0908776
1475 4 0.277617 0.0287518 0.100311
492 4 0.285057 0.0471217 0.102251
490 2 0.268076 0.0614047 0.0907265
1506 4 0.257166 0.00481552 0.173218
486 4 0.412015 0.0301636 0.0761877
484 2 0.409734 0.0330207 0.100922
485 4 0.407453 0.0358778 0.125657
2722 2 0.483792 0.062939 0.146922
2724 4 0.488361 0.0386089 0.143408
1759 2 0.48627 0.00371256 0.124187
1760 4 0.487763 0.0196319 0.14341
2744 4 0.500916 0.0268934 0.155158
700 2 0.0512292 0.117732 0.0864504
702 4 0.0708517 0.129558 0.0964647
476 4 0.0886092 0.132391 0.107377
475 2 0.0956059 0.152334 0.120738
582 4 0.258803 0.118557 0.166018
580 2 0.26778 0.104341 0.147512
581 4 0.276757 0.090124 0.129006
628 2 0.379831 0.14142 0.15791
630 4 0.369851 0.160637 0.145409
2723 4 0.479223 0.0872691 0.150436
339 4 0.0445814 0.255928 0.130341
2833 2 0.0122184 0.240256 0.0888639
2625 4 0.00786042 0.205678 0.110747
2834 4 0.0108004 0.215564 0.092537
477 4 0.102603 0.172277 0.134098
738 4 0.211842 0.202551 0.103425
737 4 0.215096 0.154503 0.089953
736 2 0.213469 0.178527 0.0966889
460 2 0.322469 0.240248 0.109067
461 4 0.300554 0.245041 0.0980228
354 4 0.280755 0.251269 0.0993794
278 4 0.253488 0.247229 0.159979
254 4 0.361278 0.177007 0.139142
462 4 0.344383 0.235455 0.12011
255 4 0.355324 0.226147 0.13203
253 2 0.358301 0.201577 0.135586
765 4 0.353329 0.24484 0.135621
624 4 0.363482 0.23973 0.120305
622 2 0.377653 0.240189 0.0997103
763 2 0.343816 0.254483 0.156638
337 2 0.0458753 0.251537 0.154922
2835 4 0.0136364 0.264948 0.0851909
483 4 0.210587 0.279209 0.0897791
506 4 0.190799 0.280732 0.0935973
755 4 0.244036 0.262076 0.151347
537 4 0.1853 0.298583 0.102151
535 2 0.19088 0.298223 0.126521
754 2 0.242164 0.282061 0.166255
536 4 0.196459 0.297863 0.150892
352 2 0.271247 0.253698 0.122377
353 4 0.261739 0.256127 0.145374
387 4 0.314914 0.312863 0.107789
301 2 0.316702 0.305619 0.149533
284 4 0.272618 0.25363 0.160976
302 4 0.309109 0.315004 0.127636
385 2 0.337139 0.322047 0.10094
386 4 0.359363 0.33123 0.0940913
12 3 0.401543 0.335489 0.123227
527 4 0.457503 0.306521 0.0930145
670 2 0.42945 0.3326 0.0944589
526 2 0.481846 0.307404 0.0986531
647 4 0.0620842 0.341108 0.167033
291 4 0.210431 0.382402 0.162619
289 2 0.22544 0.396787 0.148727
416 4 0.193697 0.387369 0.152181
290 4 0.240448 0.411172 0.134835
609 4 0.282317 0.404824 0.0960967
607 2 0.304951 0.41419 0.101112
15 3 0.365637 0.334008 0.113152
740 4 0.371897 0.346256 0.0832561
672 4 0.407509 0.340549 0.103437
14 3 0.390932 0.349674 0.0900781
11 1 0.384642 0.34652 0.112189
13 3 0.381137 0.367043 0.122432
595 2 0.447829 0.420182 0.14713
102 3 0.498153 0.354311 0.12349
1791 4 0.0541558 0.49442 0.158653
1466 4 0.0532085 0.474384 0.155915
1465 2 0.0505998 0.461165 0.134852
1467 4 0.0479911 0.447946 0.11379
638 4 0.226276 0.477739 0.134646
767 4 0.240039 0.475016 0.147641
766 2 0.245519 0.450783 0.144825
637 2 0.217587 0.499853 0.126859
768 4 0.251 0.426551 0.142009
608 4 0.327585 0.423557 0.106127
1560 4 0.312963 0.502432 0.12155
660 4 0.378045 0.435557 0.0845941
1673 4 0.392831 0.430161 0.0740045
659 4 0.338123 0.439689 0.114425
658 2 0.358084 0.437623 0.0995095
1559 4 0.361708 0.497042 0.111773
1558 2 0.337335 0.499737 0.116662
524 4 0.377053 0.485741 0.116039
523 2 0.397733 0.47226 0.120015
525 4 0.418413 0.45878 0.123991
596 4 0.438648 0.425006 0.124379
16 1 0.0649253 0.0279311 0.172752
17 3 0.0441216 0.0279072 0.182568
2480 4 0.0279137 0.0199911 0.190687
1422 4 0.0301916 0.99923 0.188525
2479 2 0.0118419 0.0382241 0.184819
20 3 0.0808697 0.0291368 0.188968
380 4 0.00787762 0.069475 0.187266
578 4 0.0829207 0.0472403 0.174586
577 2 0.0991737 0.0660968 0.17225
579 4 0.115427 0.0849532 0.169915
674 4 0.16929 0.993427 0.240347
689 4 0.181828 0.00537906 0.229931
652 2 0.285202 0.0190411 0.179462
653 4 0.303351 0.0325968 0.168878
25 3 0.321663 0.0431164 0.247792
654 4 0.267053 0.00548545 0.190046
758 4 0.352592 0.0626086 0.189843
759 4 0.340162 0.0553282 0.237731
757 2 0.346377 0.0589684 0.213787
311 4 0.369057 0.0684009 0.180631
333 4 0.508175 0.0812005 0.234796
379 2 0.00823812 0.0912414 0.199565
511 2 0.0378763 0.143487 0.207153
512 4 0.0191747 0.127278 0.203589
381 4 0.00859862 0.113008 0.211864
513 4 0.0565779 0.159696 0.210717
393 4 0.0705459 0.169616 0.222113
448 2 0.155218 0.0934543 0.182817
450 4 0.130252 0.0931841 0.181488
237 4 0.240034 0.121837 0.170549
449 4 0.180185 0.0937245 0.184146
235 2 0.218694 0.109123 0.173401
236 4 0.197355 0.0964082 0.176252
693 4 0.246255 0.0668808 0.248518
28 3 0.323495 0.158051 0.224724
312 4 0.400473 0.107247 0.17845
629 4 0.389812 0.122203 0.170411
310 2 0.384765 0.0878239 0.17954
521 4 0.495906 0.134306 0.222788
332 4 0.490371 0.127364 0.242052
762 4 0.478449 0.132843 0.228234
760 2 0.456831 0.143862 0.234273
331 2 0.499273 0.104282 0.238424
761 4 0.435214 0.15488 0.240312
396 4 0.99831 0.242757 0.236892
394 2 0.0177129 0.247448 0.221835
391 2 0.0855658 0.184843 0.209162
392 4 0.100586 0.20007 0.196212
279 4 0.236566 0.202695 0.17518
277 2 0.245027 0.224962 0.167579
395 4 0.0371159 0.252139 0.206779
338 4 0.0471693 0.247146 0.179503
363 4 0.0537197 0.257291 0.195833
361 2 0.0629176 0.27786 0.206672
749 4 0.0591857 0.311876 0.224527
648 4 0.0714868 0.316052 0.209276
362 4 0.0721155 0.29843 0.21751
748 2 0.0656584 0.329193 0.241362
646 2 0.0667855 0.32858 0.188154
370 2 0.110669 0.308316 0.216158
372 4 0.08765 0.304152 0.207328
371 4 0.133687 0.312481 0.224989
734 4 0.132329 0.321473 0.243236
733 2 0.153295 0.310313 0.251051
756 4 0.240292 0.302046 0.181164
610 2 0.248658 0.317122 0.207384
344 4 0.230277 0.311763 0.237724
611 4 0.239061 0.326804 0.228344
343 2 0.210711 0.301492 0.249423
612 4 0.258255 0.307439 0.186424
283 2 0.294526 0.257808 0.172278
285 4 0.316435 0.261985 0.18358
307 2 0.334783 0.284 0.204916
308 4 0.325791 0.280624 0.18183
303 4 0.324294 0.296234 0.171429
729 4 0.324508 0.311832 0.185897
764 4 0.334303 0.264125 0.177655
727 2 0.322107 0.334972 0.19506
309 4 0.343774 0.287376 0.228001
498 4 0.340025 0.277134 0.24469
417 4 0.151142 0.393338 0.177758
299 4 0.13815 0.33961 0.249135
415 2 0.17242 0.390354 0.16497
728 4 0.319706 0.358112 0.204223
446 4 0.380502 0.393189 0.240117
445 2 0.404416 0.385911 0.239548
645 4 0.454497 0.404963 0.187433
447 4 0.42833 0.378632 0.238979
644 4 0.443022 0.373801 0.224822
643 2 0.44876 0.389382 0.206127
597 4 0.457011 0.415358 0.169881
1757 4 0.0345374 0.431002 0.243886
1756 2 0.048318 0.450534 0.251219
414 4 0.197443 0.462844 0.218377
412 2 0.216785 0.466839 0.23371
229 2 0.446533 0.474364 0.221672
231 4 0.448878 0.451931 0.210882
230 4 0.444187 0.496797 0.232463
427 2 0.0668215 0.00912089 0.328752
2755 2 0.00482018 0.0599821 0.322469
234 4 0.0168741 0.0381721 0.289646
232 2 0.0411496 0.0340859 0.285267
233 4 0.0654251 0.0299997 0.280887
1404 4 0.0778288 0.0180507 0.28896
317 4 0.0779044 0.0353274 0.296331
428 4 0.0751786 0.0215742 0.308746
2756 4 0.0058808 0.0507978 0.299237
2478 4 0.0142735 0.0552518 0.281263
316 2 0.090588 0.0567679 0.298478
1402 2 0.0913794 0.00197208 0.275431
318 4 0.103271 0.0782085 0.300625
730 2 0.138108 0.072941 0.319978
731 4 0.15733 0.0597351 0.328995
24 3 0.313251 0.0676411 0.275094
21 1 0.330137 0.0552629 0.265092
22 3 0.34618 0.0696756 0.257089
23 3 0.339878 0.041105 0.280683
349 2 0.383765 0.0704202 0.258906
351 4 0.405814 0.0594302 0.254636
350 4 0.361716 0.0814101 0.263177
480 4 0.423747 0.0515064 0.257144
479 4 0.452512 0.0266565 0.289637
478 2 0.438129 0.0390814 0.27339
2664 4 0.472818 0.0266117 0.294568
1428 4 0.458816 0.0161591 0.301639
258 4 0.444443 0.0265642 0.308539
2662 2 0.494072 0.0392905 0.291006
256 2 0.432725 0.0388881 0.326869
397 2 0.088222 0.108279 0.32585
399 4 0.102153 0.0950012 0.309887
732 4 0.118886 0.086147 0.310961
26 1 0.318445 0.158382 0.247369
691 2 0.252783 0.0780395 0.26992
721 2 0.268134 0.109882 0.313518
692 4 0.259312 0.0891981 0.291322
30 3 0.305896 0.14017 0.252799
723 4 0.276814 0.101164 0.29175
29 3 0.338008 0.158523 0.259846
632 4 0.364202 0.101311 0.262976
631 2 0.359547 0.125872 0.263449
707 4 0.35551 0.165791 0.266277
633 4 0.354892 0.150434 0.263922
442 2 0.0107987 0.242896 0.277529
444 4 0.0105956 0.239415 0.302288
546 4 0.140279 0.186516 0.289667
544 2 0.161877 0.194665 0.28006
545 4 0.183475 0.202813 0.270453
402 4 0.185952 0.223527 0.272983
400 2 0.188868 0.248325 0.271648
27 3 0.306504 0.177479 0.252046
706 2 0.350759 0.173254 0.289662
708 4 0.346007 0.180718 0.313048
401 4 0.191784 0.273122 0.270313
676 2 0.18205 0.295756 0.298605
345 4 0.191145 0.291222 0.261122
677 4 0.181075 0.288398 0.274728
735 4 0.174261 0.299154 0.258866
678 4 0.183026 0.303114 0.322481
510 4 0.191034 0.321011 0.321641
375 4 0.179599 0.300712 0.34204
378 4 0.264523 0.255429 0.32619
376 2 0.282286 0.267779 0.313656
496 2 0.327778 0.278602 0.266439
497 4 0.31553 0.28007 0.288188
377 4 0.30005 0.280129 0.301121
418 2 0.394897 0.263394 0.332969
541 2 0.371348 0.299791 0.294182
542 4 0.388189 0.28197 0.299079
420 4 0.388957 0.264957 0.308732
543 4 0.354507 0.317611 0.289285
365 4 0.0102788 0.404375 0.301995
601 2 0.0443999 0.408353 0.327677
603 4 0.026463 0.397868 0.313766
750 4 0.0721311 0.34651 0.258196
298 2 0.114689 0.346665 0.254134
300 4 0.0912282 0.35372 0.259133
508 2 0.206356 0.340766 0.322
433 2 0.313394 0.384979 0.329448
435 4 0.290648 0.394237 0.324748
615 4 0.365686 0.333866 0.296355
614 4 0.331591 0.361712 0.320078
613 2 0.348638 0.347789 0.308217
264 4 0.0163779 0.421578 0.250585
776 4 0.0709775 0.479056 0.320954
775 2 0.0682462 0.488316 0.29789
1758 4 0.0620985 0.470066 0.258552
1775 4 0.064919 0.490449 0.25631
777 4 0.0655148 0.497576 0.274825
500 4 0.0850787 0.491757 0.329248
1436 4 0.24579 0.457183 0.260849
413 4 0.236127 0.470834 0.249043
1435 2 0.257294 0.449187 0.281559
1437 4 0.268799 0.441192 0.302268
4 3 0.263577 0.447109 0.320202
436 2 0.325952 0.469087 0.322752
3 3 0.284635 0.478747 0.320445
438 4 0.301844 0.465917 0.328574
1 1 0.276176 0.46145 0.333394
1803 4 0.374465 0.485379 0.269116
1801 2 0.367749 0.487855 0.293074
437 4 0.350061 0.472258 0.316929
1802 4 0.361033 0.490331 0.317031
119 3 0.494982 0.466815 0.314174
712 2 0.461084 0.480261 0.334113
714 4 0.482368 0.467302 0.332058
2757 4 0.00375956 0.0691665 0.3457
1781 4 0.106525 0.0203289 0.406791
606 4 0.175407 0.0516853 0.337051
604 2 0.186432 0.0661697 0.354193
605 4 0.197457 0.080654 0.371334
441 4 0.325537 0.0125983 0.400652
1701 4 0.336917 0.0252422 0.392624
425 4 0.337214 0.017846 0.412003
699 4 0.356379 0.0599409 0.339333
698 4 0.405937 0.0642281 0.344467
1699 2 0.344235 0.0341901 0.370452
1700 4 0.351552 0.0431379 0.348281
697 2 0.381158 0.0620845 0.3419
725 4 0.407523 0.0646153 0.386608
724 2 0.404638 0.0805419 0.405666
257 4 0.421007 0.0512121 0.3452
398 4 0.074291 0.121557 0.341812
2585 4 0.0209625 0.0801206 0.342398
2584 2 0.0374899 0.0987281 0.344803
2586 4 0.0540173 0.117336 0.347209
458 4 0.0539468 0.126547 0.365693
457 2 0.0443982 0.145234 0.379288
459 4 0.0348496 0.16392 0.392882
600 4 0.10845 0.138308 0.355821
598 2 0.113725 0.161939 0.362061
248 4 0.213571 0.0836846 0.359445
249 4 0.246693 0.120194 0.351032
247 2 0.230132 0.101939 0.355238
404 4 0.248977 0.13382 0.341012
403 2 0.234966 0.154286 0.33784
722 4 0.259455 0.1186 0.335286
683 4 0.252344 0.135888 0.35978
682 2 0.27666 0.133458 0.365071
684 4 0.300976 0.131028 0.370363
320 4 0.315493 0.143533 0.378642
319 2 0.338816 0.134646 0.377148
321 4 0.36214 0.12576 0.375654
261 4 0.0644754 0.208964 0.417259
260 4 0.0391875 0.166012 0.413218
259 2 0.0518315 0.187488 0.415238
599 4 0.119 0.18557 0.368301
389 4 0.122877 0.220297 0.366771
686 4 0.11717 0.205796 0.375739
685 2 0.0989074 0.204645 0.392777
275 4 0.130182 0.20027 0.366824
274 2 0.152477 0.199668 0.355522
388 2 0.122618 0.245055 0.363279
687 4 0.0806445 0.203495 0.409816
474 4 0.185465 0.214989 0.349432
472 2 0.207141 0.203519 0.344555
473 4 0.228816 0.192049 0.339679
276 4 0.174773 0.199067 0.344221
405 4 0.220956 0.174751 0.334669
715 2 0.403702 0.171499 0.370906
716 4 0.38595 0.188236 0.376377
467 4 0.382852 0.188324 0.396943
269 4 0.413739 0.245562 0.352601
717 4 0.421455 0.154763 0.365435
270 4 0.450549 0.211767 0.354493
452 4 0.450057 0.206383 0.373522
268 2 0.432144 0.228664 0.353547
451 2 0.458225 0.207037 0.397145
346 2 0.0522028 0.323707 0.382419
348 4 0.0323933 0.316177 0.395687
618 4 0.0915699 0.330205 0.36335
616 2 0.105804 0.309674 0.364378
390 4 0.12236 0.269812 0.359788
617 4 0.120038 0.289143 0.365406
374 4 0.134126 0.283523 0.353761
373 2 0.156862 0.292118 0.347901
419 4 0.400837 0.261831 0.357207
602 4 0.0623367 0.418838 0.341588
347 4 0.0720123 0.331237 0.36915
549 4 0.0807612 0.41251 0.345509
509 4 0.221678 0.360522 0.322359
668 4 0.305263 0.392568 0.41903
336 4 0.314793 0.375814 0.41817
434 4 0.33614 0.37572 0.334148
334 2 0.334959 0.362003 0.412901
238 2 0.391023 0.367834 0.405012
239 4 0.406809 0.386458 0.399616
587 4 0.404753 0.404875 0.406196
752 4 0.469102 0.395944 0.369862
561 4 0.471233 0.394564 0.38972
751 2 0.479916 0.413169 0.355319
559 2 0.480652 0.389141 0.412237
548 4 0.0829426 0.441327 0.38632
407 4 0.0806159 0.461622 0.390203
499 2 0.0798673 0.482099 0.351714
501 4 0.0746558 0.472441 0.374181
547 2 0.0818519 0.426919 0.365915
406 2 0.0996236 0.462113 0.40644
1544 4 0.210366 0.494902 0.403816
5 3 0.263305 0.469888 0.350181
2 3 0.293734 0.449694 0.342486
586 2 0.401129 0.427577 0.396365
593 4 0.413759 0.461148 0.390246
588 4 0.397505 0.45028 0.386534
592 2 0.422335 0.475995 0.372047
713 4 0.4398 0.49322 0.336169
753 4 0.49073 0.430395 0.340776
117 3 0.490389 0.452432 0.348593
594 4 0.43091 0.490842 0.353848
720 4 0.00760409 0.0108923 0.46361
367 2 0.0795828 0.0271602 0.43757
369 4 0.0682907 0.0403263 0.455578
719 4 0.0545359 0.027579 0.459174
718 2 0.03107 0.0192356 0.461392
368 4 0.0908748 0.0139941 0.419561
2430 4 0.176444 0.00496192 0.486618
341 4 0.18457 0.0131351 0.502674
962 4 0.3171 0.0204817 0.415681
961 2 0.309756 0.038256 0.43166
963 4 0.302413 0.0560302 0.447639
432 4 0.322759 0.0585543 0.450861
430 2 0.325614 0.0703575 0.472718
431 4 0.328469 0.0821607 0.494574
424 2 0.360856 0.0178453 0.420141
426 4 0.384499 0.0178446 0.428279
843 4 0.342633 0.0703095 0.50278
726 4 0.401754 0.0964685 0.424723
640 2 0.482802 0.105285 0.447381
641 4 0.463344 0.110472 0.462201
1035 4 0.077413 0.206752 0.430701
1033 2 0.0777129 0.2224 0.450201
1034 4 0.0780127 0.238048 0.4697
696 4 0.0807442 0.243387 0.487891
487 2 0.327531 0.249059 0.461339
488 4 0.309597 0.248974 0.443917
466 2 0.390845 0.193656 0.420027
468 4 0.398838 0.198989 0.443111
411 4 0.356067 0.234822 0.472709
409 2 0.375771 0.220753 0.466465
410 4 0.395475 0.206684 0.460221
266 4 0.362847 0.242782 0.488261
489 4 0.345466 0.249145 0.47876
574 2 0.413477 0.193951 0.496754
575 4 0.407893 0.200929 0.473402
516 4 0.411449 0.208182 0.454334
514 2 0.43522 0.207061 0.44666
515 4 0.45899 0.20594 0.438986
453 4 0.466393 0.207691 0.420768
1260 4 0.0873222 0.254984 0.473269
1258 2 0.102499 0.274854 0.473172
1259 4 0.117676 0.294725 0.473076
9 3 0.136864 0.289769 0.460978
7 3 0.122497 0.310216 0.489052
6 1 0.136904 0.310636 0.471124
8 3 0.158226 0.315694 0.478753
327 4 0.112544 0.318009 0.472356
325 2 0.0893952 0.327084 0.474997
10 3 0.129987 0.326492 0.456312
1009 2 0.479225 0.306885 0.499069
1011 4 0.471097 0.329624 0.492583
326 4 0.0662466 0.336158 0.477638
709 2 0.151852 0.401724 0.489219
711 4 0.131059 0.40913 0.477473
503 4 0.224469 0.36335 0.486613
502 2 0.20157 0.369496 0.494553
710 4 0.172645 0.394318 0.500966
504 4 0.178672 0.375643 0.502494
667 2 0.316951 0.412862 0.427791
335 4 0.355125 0.348192 0.407632
240 4 0.375237 0.34921 0.410409
560 4 0.490071 0.383718 0.434755
3309 4 0.47676 0.378861 0.447176
3307 2 0.478498 0.36063 0.4642
3308 4 0.480236 0.3424 0.481224
1381 2 0.0223429 0.480876 0.462372
1383 4 0.0162095 0.461073 0.448395
680 4 0.0199944 0.44185 0.447062
384 4 0.11404 0.420173 0.473622
382 2 0.111601 0.436544 0.454881
408 4 0.118631 0.462605 0.422677
568 2 0.141553 0.484132 0.438688
383 4 0.109161 0.452915 0.43614
569 4 0.123148 0.467298 0.440428
1556 4 0.229276 0.497172 0.41033
1543 2 0.192971 0.504397 0.419061
636 4 0.293086 0.487733 0.421582
669 4 0.328638 0.433156 0.436551
1555 2 0.252419 0.496599 0.419779
634 2 0.308695 0.469571 0.428769
635 4 0.324304 0.451408 0.435955
1557 4 0.275561 0.496026 0.429228
774 4 0.333779 0.441741 0.452515
773 4 0.378279 0.425283 0.468314
772 2 0.356029 0.433512 0.460415
663 4 0.49307 0.493257 0.428634
1152 4 0.20345 0.063562 0.527841
342 4 0.208557 0.0447065 0.533147
340 2 0.196563 0.0289208 0.517911
949 2 0.281793 0.0328074 0.55468
951 4 0.277248 0.056507 0.561227
1031 4 0.285177 0.074428 0.56145
950 4 0.286337 0.00910783 0.548134
1217 4 0.395482 0.063509 0.503846
842 4 0.386982 0.0578829 0.522258
841 2 0.364807 0.0640962 0.512519
1216 2 0.420477 0.0633746 0.504479
1218 4 0.445472 0.0632402 0.505113
3007 2 0.499969 0.0672065 0.58638
1270 2 0.0651524 0.144659 0.585199
1271 4 0.076087 0.123865 0.576643
1058 4 0.0777841 0.121034 0.512427
1057 2 0.0809605 0.11837 0.537085
1059 4 0.084137 0.115706 0.561742
1155 4 0.0963824 0.126338 0.571857
939 4 0.0909497 0.112366 0.579933
1153 2 0.118184 0.137504 0.576876
1221 4 0.158928 0.147401 0.577926
1150 2 0.213381 0.0836552 0.538924
1151 4 0.223312 0.103748 0.550006
1180 2 0.221288 0.134492 0.560788
1181 4 0.211061 0.111889 0.563905
1182 4 0.231515 0.157094 0.55767
1032 4 0.242484 0.0988559 0.552431
900 4 0.221677 0.163171 0.542322
1030 2 0.26383 0.086642 0.55694
1198 2 0.00811075 0.232914 0.555318
1199 4 0.0299477 0.230818 0.567315
878 4 0.0507257 0.230228 0.573709
877 2 0.0523951 0.205712 0.578331
695 4 0.0931513 0.210005 0.522997
694 2 0.0869478 0.226696 0.505444
898 2 0.232608 0.182446 0.530738
899 4 0.243538 0.201721 0.519155
650 4 0.252545 0.210508 0.534584
649 2 0.268424 0.224102 0.520865
651 4 0.284303 0.237696 0.507145
576 4 0.419062 0.186974 0.520106
982 2 0.0149858 0.304636 0.566372
1245 4 0.0477531 0.291163 0.588068
983 4 0.0382851 0.302704 0.575237
948 4 0.151563 0.289006 0.579693
856 2 0.206758 0.274258 0.521499
857 4 0.194446 0.289581 0.536951
798 4 0.209357 0.293949 0.5675
947 4 0.195374 0.285328 0.555864
946 2 0.173468 0.287167 0.567779
796 2 0.227149 0.294564 0.585057
858 4 0.21907 0.258934 0.506046
267 4 0.357685 0.270447 0.529598
265 2 0.360266 0.256615 0.50893
2457 4 0.491266 0.279096 0.48714
1010 4 0.487353 0.284146 0.505554
803 4 0.267906 0.364841 0.570109
804 4 0.280645 0.380919 0.524503
802 2 0.274276 0.37288 0.547306
928 2 0.336315 0.391458 0.564695
929 4 0.34826 0.394818 0.542988
881 4 0.358258 0.381282 0.531446
880 2 0.375013 0.362989 0.534582
882 4 0.391767 0.344696 0.537719
926 4 0.424863 0.408007 0.583441
539 4 0.0802286 0.436307 0.553453
540 4 0.097166 0.475793 0.579041
2244 4 0.101382 0.493773 0.574066
538 2 0.0886973 0.45605 0.566247
1160 4 0.116622 0.482785 0.577614
2154 4 0.240106 0.475802 0.555238
2152 2 0.251843 0.49553 0.565149
1953 4 0.409527 0.490618 0.546088
1951 2 0.392225 0.497644 0.562715
1909 2 0.444377 0.47965 0.566466
1910 4 0.429561 0.491381 0.550094
1911 4 0.459194 0.46792 0.582838
1081 2 0.0833736 0.0732426 0.645674
938 4 0.0807828 0.0702436 0.604893
1083 4 0.0748344 0.0797986 0.623106
1128 4 0.0110626 0.0816512 0.598018
1126 2 0.0333186 0.0792907 0.609167
1082 4 0.0919128 0.0666865 0.668241
825 4 0.172249 0.0475393 0.670924
3008 4 0.488838 0.049487 0.600065
809 4 0.480985 0.0394239 0.615359
808 2 0.471592 0.0549491 0.632562
810 4 0.4622 0.0704743 0.649764
1272 4 0.0542178 0.165454 0.593755
1127 4 0.0555745 0.0769302 0.620315
937 2 0.0858663 0.091305 0.592413
1154 4 0.139985 0.14867 0.581896
1219 2 0.172261 0.147551 0.599077
1220 4 0.185594 0.147702 0.620228
1192 2 0.324058 0.141074 0.644145
1194 4 0.302958 0.138904 0.657384
1193 4 0.345158 0.143244 0.630906
45 3 0.461665 0.0939138 0.648067
3424 2 0.495944 0.116745 0.666986
3425 4 0.475429 0.102689 0.66439
41 1 0.454011 0.0880991 0.668713
43 3 0.43248 0.0961996 0.671746
1244 4 0.051999 0.2414 0.590585
879 4 0.0540645 0.181196 0.582952
1212 4 0.189751 0.166411 0.62641
1210 2 0.211702 0.172424 0.636762
1211 4 0.233653 0.178438 0.647113
888 4 0.246997 0.17044 0.660414
1243 2 0.049876 0.266282 0.589326
1136 4 0.156604 0.303148 0.592585
1135 2 0.154529 0.325034 0.604496
822 4 0.148162 0.317221 0.643049
820 2 0.149415 0.29515 0.654731
821 4 0.150669 0.273078 0.666412
797 4 0.244941 0.295179 0.602614
791 4 0.261496 0.282627 0.597679
790 2 0.280106 0.29923 0.599461
792 4 0.298715 0.315834 0.601243
872 4 0.336678 0.285038 0.597289
1238 4 0.312889 0.330815 0.603272
871 2 0.360708 0.289953 0.602145
813 4 0.389588 0.3138 0.604221
873 4 0.384738 0.294868 0.607002
811 2 0.393289 0.337494 0.597147
3123 4 0.480493 0.268162 0.648445
953 4 0.498622 0.304365 0.592624
952 2 0.502034 0.279674 0.594598
1041 4 0.0463712 0.381791 0.637872
3264 4 0.0451016 0.368519 0.651592
3240 4 0.0389484 0.385469 0.65677
3238 2 0.0161811 0.395753 0.655737
1039 2 0.0642443 0.382014 0.620389
1064 4 0.157161 0.328937 0.656616
1137 4 0.152453 0.346919 0.616407
1040 4 0.0821173 0.382236 0.602905
993 4 0.101861 0.37968 0.606404
991 2 0.125832 0.373152 0.609221
992 4 0.149804 0.366624 0.612038
897 4 0.166873 0.358472 0.610847
1189 2 0.245261 0.369456 0.59917
896 4 0.215466 0.368773 0.616625
895 2 0.191169 0.363623 0.613736
1172 4 0.22727 0.40212 0.616947
1191 4 0.228328 0.382736 0.611902
1190 4 0.262193 0.356176 0.586438
1239 4 0.31962 0.380328 0.605233
1237 2 0.316255 0.355572 0.604252
930 4 0.324371 0.388099 0.586403
806 4 0.25543 0.353392 0.669009
1204 2 0.369607 0.397224 0.62841
1205 4 0.351888 0.409854 0.640726
1206 4 0.387326 0.384594 0.616093
927 4 0.400557 0.371301 0.60716
812 4 0.39699 0.361189 0.590074
925 2 0.41271 0.389654 0.5953
1002 4 0.438489 0.411384 0.598125
1159 2 0.139689 0.485278 0.586933
1161 4 0.162756 0.487771 0.596253
1188 4 0.162891 0.477571 0.613719
1171 2 0.216714 0.424786 0.61704
1186 2 0.186728 0.470919 0.610152
1173 4 0.206158 0.447452 0.617133
1187 4 0.210565 0.464267 0.606585
1140 4 0.250714 0.434382 0.665652
890 4 0.356433 0.50629 0.572781
1001 4 0.465616 0.45307 0.592922
1000 2 0.452053 0.432227 0.595523
1269 4 0.45653 0.469683 0.60112
1267 2 0.454826 0.483862 0.621644
1268 4 0.453121 0.498042 0.642167
943 2 0.0590561 0.0218544 0.684044
944 4 0.067972 0.045168 0.685514
1076 4 0.0756123 0.0632502 0.681243
1075 2 0.0761409 0.0797584 0.700015
1282 2 0.169598 0.0824247 0.68998
1149 4 0.228906 0.0388618 0.689541
1283 4 0.174954 0.0580908 0.687894
823 2 0.180077 0.0238384 0.669449
1147 2 0.237768 0.0614784 0.683613
1092 4 0.31097 0.00841447 0.679514
42 3 0.453646 0.0651664 0.670477
4579 2 0.500964 0.00218129 0.727359
1163 4 0.468896 0.0743524 0.686161
1162 2 0.483853 0.0615887 0.701607
1164 4 0.498809 0.0488249 0.717053
2321 4 0.497332 0.0380091 0.732739
4581 4 0.51013 0.025086 0.731426
864 4 0.0656487 0.0861688 0.730465
1077 4 0.0766695 0.0962666 0.718787
851 4 0.07944 0.112543 0.726912
850 2 0.0664281 0.131856 0.717808
852 4 0.0534163 0.151168 0.708704
862 2 0.0473981 0.0839547 0.747412
1107 4 0.082862 0.0946791 0.736776
1105 2 0.101649 0.100172 0.752334
1284 4 0.164242 0.106759 0.692065
909 4 0.164186 0.125978 0.687611
907 2 0.185573 0.136716 0.694856
908 4 0.206959 0.147454 0.7021
1227 4 0.223983 0.140218 0.694149
1225 2 0.23868 0.120408 0.690054
1148 4 0.24663 0.084095 0.677685
886 2 0.270597 0.162432 0.662436
887 4 0.294197 0.154423 0.664459
1226 4 0.253376 0.100598 0.685959
829 2 0.306658 0.129208 0.697036
1005 4 0.323532 0.111991 0.731369
830 4 0.305142 0.143514 0.676585
831 4 0.308175 0.114903 0.717486
1003 2 0.33873 0.0952181 0.741994
44 3 0.468071 0.0966568 0.685069
1113 4 0.449573 0.114581 0.732525
1146 4 0.503684 0.159899 0.734674
1111 2 0.45375 0.0960747 0.748811
1073 4 0.0810174 0.26163 0.75297
1072 2 0.101792 0.252166 0.74277
1130 4 0.136233 0.244309 0.745816
1208 4 0.136257 0.254828 0.728289
978 4 0.325562 0.210019 0.722843
976 2 0.307088 0.217146 0.738111
977 4 0.288615 0.224274 0.753379
1025 4 0.415033 0.175657 0.681842
1024 2 0.431799 0.180007 0.699874
1142 4 0.447609 0.177228 0.736439
1144 2 0.483292 0.174194 0.73244
1262 4 0.459324 0.201319 0.715956
1026 4 0.448565 0.184356 0.717906
1261 2 0.461608 0.225802 0.711425
1145 4 0.4629 0.188488 0.730206
1177 2 0.0181538 0.254207 0.720265
1179 4 0.0410627 0.262313 0.726152
893 4 0.994503 0.342416 0.728524
3263 4 0.0475674 0.326593 0.678737
1074 4 0.122567 0.242702 0.732571
1209 4 0.154881 0.261062 0.6823
1207 2 0.145569 0.257945 0.705295
1019 4 0.384031 0.295448 0.718594
1018 2 0.366237 0.302367 0.702449
1020 4 0.348442 0.309287 0.686304
1263 4 0.463892 0.250285 0.706894
892 2 0.0194522 0.343056 0.730036
3262 2 0.0463345 0.347556 0.665164
1279 2 0.0542303 0.386487 0.73714
894 4 0.0444018 0.343696 0.731548
1280 4 0.0496813 0.361991 0.735032
816 4 0.0628755 0.347273 0.735529
1281 4 0.0587794 0.410982 0.739248
814 2 0.0854712 0.33864 0.74186
1063 2 0.176889 0.341296 0.665739
1065 4 0.196618 0.353655 0.674862
807 4 0.206856 0.343197 0.662901
1028 4 0.218533 0.388396 0.705589
1066 2 0.194248 0.382737 0.738992
1068 4 0.210098 0.394144 0.723377
1027 2 0.23137 0.404412 0.69131
805 2 0.231143 0.348294 0.665955
2172 4 0.163809 0.480683 0.669396
2016 4 0.153901 0.498598 0.727552
1176 4 0.165603 0.485744 0.719696
1175 4 0.214903 0.493319 0.723285
1174 2 0.190253 0.489532 0.721491
1029 4 0.244206 0.420429 0.677032
1138 2 0.268192 0.451677 0.670187
1139 4 0.28567 0.468972 0.674722
1987 2 0.276894 0.461606 0.724416
1229 4 0.296102 0.471476 0.690217
1989 4 0.290764 0.474373 0.707989
2028 4 0.282034 0.481126 0.691167
1228 2 0.318245 0.459971 0.688637
1988 4 0.263025 0.448839 0.740842
1230 4 0.340388 0.448467 0.687056
1099 2 0.446867 0.493199 0.6815
1100 4 0.449675 0.483894 0.704538
2989 2 0.0164952 0.0523536 0.782545
2990 4 0.0124784 0.0719298 0.767518
2991 4 0.020512 0.0327775 0.797573
2049 4 0.104937 0.0198702 0.777962
1202 4 0.11453 0.0364267 0.782733
1201 2 0.12421 0.058906 0.787846
1203 4 0.133891 0.0813853 0.79296
817 2 0.329927 0.0506247 0.810011
819 4 0.324406 0.0741833 0.816311
1050 4 0.333879 0.00899708 0.772507
1004 4 0.353927 0.078445 0.752618
973 2 0.362019 0.00752291 0.800298
818 4 0.335447 0.0270661 0.80371
974 4 0.341185 0.0152234 0.788815
2322 4 0.490124 0.065235 0.774061
845 4 0.470946 0.0684725 0.776021
1112 4 0.457927 0.0775682 0.765098
844 2 0.473078 0.0810677 0.797515
2320 2 0.493728 0.051622 0.7534
863 4 0.0291474 0.0817407 0.764359
833 4 0.017105 0.0877384 0.778678
832 2 0.0171091 0.104715 0.797035
834 4 0.0171133 0.121691 0.815392
3083 4 0.0122055 0.0905456 0.760151
1106 4 0.120436 0.105665 0.767893
911 4 0.133964 0.0992702 0.828512
34 3 0.133914 0.102732 0.783348
31 1 0.143272 0.104669 0.804492
35 3 0.130325 0.118139 0.817516
32 3 0.144464 0.0837742 0.814039
33 3 0.164702 0.113422 0.802899
1256 4 0.22447 0.119208 0.805853
840 4 0.213352 0.125864 0.820238
1255 2 0.246362 0.118039 0.79383
1085 4 0.318455 0.092169 0.806789