ITEM: TIMESTEP
3080000
ITEM: NUMBER OF ATOMS
4590
ITEM: BOX BOUNDS pp pp pp
-9.9985700000000008e+00 9.9985700000000008e+00
-9.9985700000000008e+00 9.9985700000000008e+00
-9.9985700000000008e+00 9.9985700000000008e+00
ITEM: ATOMS id type xs ys zs
1667 4 0.00985943 0.0575689 0.0607472
701 4 0.0292173 0.0614263 0.061189
700 2 0.0496113 0.0756936 0.0587998
490 2 0.284537 0.0657846 0.0700469
492 4 0.283664 0.0410012 0.0732408
2974 2 0.463713 0.0126393 0.0248497
745 2 0.434638 0.0660345 0.0245317
747 4 0.440061 0.0418352 0.0213431
2975 4 0.445523 0.0255128 0.0135118
2976 4 0.481904 0.999766 0.0361877
702 4 0.0700053 0.0899609 0.0564107
476 4 0.0588896 0.105166 0.0541973
475 2 0.072884 0.124946 0.0603687
477 4 0.0868784 0.144726 0.06654
566 4 0.196898 0.150566 0.0118756
565 2 0.219397 0.158503 0.00439429
491 4 0.285411 0.0905679 0.0668529
769 2 0.404795 0.152293 0.0323698
556 2 0.390168 0.0912431 0.00749813
558 4 0.412465 0.0917564 0.0188011
771 4 0.419904 0.132496 0.0301346
557 4 0.367871 0.0907298 0.996195
746 4 0.429215 0.0902338 0.0277203
737 4 0.232697 0.198775 0.0648211
482 4 0.242564 0.248794 0.0524042
736 2 0.208919 0.199807 0.0724866
770 4 0.389686 0.172089 0.034605
359 4 0.3833 0.18925 0.0283688
664 2 0.393724 0.208387 0.0579961
665 4 0.395948 0.187622 0.0442472
666 4 0.3915 0.229153 0.071745
323 4 0.399785 0.241227 0.0593665
358 2 0.373132 0.195725 0.00646314
623 4 0.39126 0.247952 0.0761996
2808 4 0.00941331 0.272543 0.0055917
3338 4 0.999297 0.259618 0.995819
292 2 0.147183 0.328145 0.0397616
294 4 0.126209 0.325461 0.026417
552 4 0.165942 0.334928 0.0725304
293 4 0.168157 0.330829 0.0531061
507 4 0.177291 0.3213 0.0620012
287 4 0.185461 0.32995 0.0451217
286 2 0.200991 0.322904 0.0268364
288 4 0.216521 0.315858 0.00855104
481 2 0.222423 0.25767 0.0642681
505 2 0.184056 0.300531 0.0741679
573 4 0.260206 0.253537 0.0436334
571 2 0.282641 0.257741 0.0334273
572 4 0.305077 0.261945 0.0232211
357 4 0.315919 0.270504 0.00799038
355 2 0.323537 0.293671 0.00247275
956 4 0.332542 0.333502 0.00755242
1069 2 0.400949 0.311061 0.0373492
322 2 0.413268 0.260183 0.0501978
324 4 0.426751 0.279139 0.0410291
1070 4 0.42027 0.295545 0.0340119
280 2 0.454356 0.304313 0.0528413
282 4 0.440758 0.290907 0.0366994
281 4 0.467953 0.317719 0.0689832
671 4 0.460919 0.332744 0.0813047
329 4 0.996904 0.379203 0.046979
456 4 0.195917 0.387185 0.055836
454 2 0.187492 0.363728 0.0578262
455 4 0.179067 0.340271 0.0598165
1290 4 0.273094 0.396959 0.0449994
1288 2 0.285426 0.381898 0.0293071
1289 4 0.297758 0.366836 0.0136147
251 4 0.258771 0.411127 0.0485257
955 2 0.349417 0.335986 0.0258347
1071 4 0.381629 0.326578 0.0406864
957 4 0.366292 0.33847 0.044117
741 4 0.382626 0.342007 0.0531633
739 2 0.388938 0.346488 0.0769385
1788 4 0.0852763 0.462611 0.0759644
1787 4 0.0953354 0.503928 0.0496516
1786 2 0.0903059 0.48327 0.062808
626 4 0.191564 0.480262 0.0544739
625 2 0.176664 0.499984 0.0507092
245 4 0.203931 0.468725 0.0658574
244 2 0.220598 0.453541 0.0550479
246 4 0.237265 0.438358 0.0442384
250 2 0.264468 0.423167 0.0696862
272 4 0.253605 0.427961 0.037628
271 2 0.26451 0.431475 0.0154037
1672 2 0.407487 0.431761 0.070866
853 2 0.395477 0.440459 0.0188914
854 4 0.414629 0.441336 0.0349425
855 4 0.376326 0.439583 0.00284027
37 3 0.360733 0.425666 0.00477493
1674 4 0.422104 0.433387 0.0506458
564 4 0.43191 0.448007 0.0397582
563 4 0.478106 0.46418 0.0295042
562 2 0.455008 0.456093 0.0346312
228 4 0.476443 0.484155 0.0256424
226 2 0.478816 0.502795 0.00914741
19 3 0.0606078 0.0258119 0.155955
582 4 0.231426 0.0681195 0.152675
1474 2 0.282536 0.999492 0.0831439
580 2 0.251519 0.0574576 0.163056
1475 4 0.285833 0.0242765 0.0829345
1760 4 0.489219 0.0538955 0.137567
486 4 0.421807 0.00473995 0.111404
1759 2 0.490845 0.0348438 0.121455
2724 4 0.476731 0.0620774 0.149947
1761 4 0.49247 0.0157921 0.105344
2744 4 0.495528 0.0571234 0.155119
237 4 0.225854 0.0874201 0.155903
312 4 0.35438 0.124529 0.15704
2722 2 0.468816 0.0857191 0.151846
2723 4 0.460901 0.109361 0.153744
738 4 0.185142 0.200838 0.080152
755 4 0.246162 0.239136 0.16483
536 4 0.177681 0.252136 0.141558
460 2 0.322657 0.220016 0.112845
461 4 0.301427 0.20681 0.112617
354 4 0.287535 0.21207 0.126166
352 2 0.275814 0.227404 0.142062
353 4 0.264093 0.242738 0.157957
630 4 0.382961 0.184477 0.163023
462 4 0.343888 0.233222 0.113073
255 4 0.356921 0.229463 0.126401
253 2 0.368409 0.217284 0.144971
622 2 0.375211 0.246305 0.0953018
624 4 0.359162 0.244658 0.114404
254 4 0.379898 0.205104 0.163542
765 4 0.347442 0.245752 0.129516
483 4 0.202283 0.266546 0.076132
506 4 0.190821 0.279761 0.0863346
537 4 0.197777 0.280916 0.10594
535 2 0.187729 0.266526 0.123749
754 2 0.234079 0.260471 0.159932
756 4 0.221995 0.281805 0.155033
284 4 0.269183 0.259072 0.169051
301 2 0.323561 0.317785 0.144827
303 4 0.317159 0.300491 0.161711
285 4 0.309953 0.288022 0.168399
283 2 0.289568 0.273547 0.168725
764 4 0.326603 0.282058 0.156871
763 2 0.337022 0.263905 0.143193
12 3 0.412527 0.324667 0.120966
527 4 0.476924 0.323034 0.0850233
647 4 0.0687118 0.342241 0.144732
315 4 0.005946 0.400313 0.132227
550 2 0.153361 0.341645 0.0930677
551 4 0.14078 0.348363 0.113605
302 4 0.329963 0.33508 0.127942
387 4 0.327777 0.35459 0.120287
385 2 0.351905 0.355863 0.113854
493 2 0.39039 0.390851 0.106321
495 4 0.391809 0.366147 0.109912
386 4 0.376033 0.357136 0.107421
15 3 0.37999 0.342454 0.116736
740 4 0.39525 0.350969 0.100714
14 3 0.412308 0.361486 0.11342
11 1 0.401277 0.344401 0.124593
13 3 0.400938 0.348764 0.14738
672 4 0.418481 0.34338 0.105525
670 2 0.4397 0.338062 0.0934149
596 4 0.498766 0.415925 0.166411
595 2 0.482852 0.398784 0.17525
1791 4 0.0543127 0.491668 0.13756
1465 2 0.077953 0.470852 0.117342
1466 4 0.0689781 0.478158 0.139506
1467 4 0.0869279 0.463546 0.0951777
638 4 0.202059 0.480241 0.156735
767 4 0.21845 0.476422 0.166449
637 2 0.194612 0.491226 0.135545
252 4 0.270165 0.435207 0.0908468
609 4 0.27996 0.446076 0.105581
607 2 0.302225 0.437385 0.112921
608 4 0.324491 0.428693 0.120261
659 4 0.332206 0.437801 0.103561
494 4 0.38897 0.415554 0.102731
660 4 0.382091 0.435004 0.105643
1673 4 0.392869 0.430135 0.0910862
658 2 0.357149 0.436403 0.104602
524 4 0.397139 0.49434 0.116307
523 2 0.397388 0.470361 0.109229
525 4 0.397637 0.446381 0.10215
16 1 0.0603083 0.00623073 0.168401
578 4 0.0775888 0.0275694 0.171743
20 3 0.0764383 0.0069834 0.18446
17 3 0.0397182 0.00411205 0.178436
2480 4 0.0301137 0.999173 0.194069
2479 2 0.0242529 0.0188304 0.208366
380 4 0.0230977 0.0496281 0.208366
2481 4 0.0183921 0.0384881 0.222663
379 2 0.027236 0.0724236 0.198963
577 2 0.0953183 0.043995 0.178149
579 4 0.113048 0.0604207 0.184556
674 4 0.159968 0.00549983 0.240353
450 4 0.123852 0.0785649 0.186244
448 2 0.14868 0.0813327 0.185213
1504 2 0.243981 0.999872 0.18664
581 4 0.271612 0.0467957 0.173437
1506 4 0.263043 0.0128154 0.176929
654 4 0.26905 0.0302604 0.185516
652 2 0.278968 0.0382636 0.207028
653 4 0.288886 0.0462668 0.22854
758 4 0.339856 0.0669123 0.18246
759 4 0.362545 0.062906 0.226843
757 2 0.351201 0.0649091 0.204651
350 4 0.371553 0.0562512 0.241892
349 2 0.396494 0.0560312 0.240145
22 3 0.35657 0.0563647 0.246227
311 4 0.355643 0.0763455 0.170361
25 3 0.339354 0.0236561 0.241062
632 4 0.35657 0.072149 0.238623
480 4 0.440606 0.0509717 0.239618
351 4 0.421436 0.0558112 0.238398
742 2 0.506698 0.0602507 0.231758
743 4 0.49293 0.073902 0.247547
2743 2 0.500907 0.0501318 0.178515
513 4 0.0389315 0.157547 0.181211
511 2 0.0304982 0.134019 0.180503
512 4 0.0220649 0.110492 0.179795
381 4 0.0313744 0.0952192 0.18956
235 2 0.207656 0.0917257 0.1725
449 4 0.173509 0.0841004 0.184182
236 4 0.189458 0.0960312 0.189098
30 3 0.322137 0.131059 0.233118
628 2 0.375025 0.160793 0.164131
629 4 0.367088 0.137108 0.165238
310 2 0.355012 0.100437 0.1637
26 1 0.337279 0.144766 0.243194
28 3 0.353022 0.151906 0.227716
761 4 0.40113 0.148167 0.247336
521 4 0.461917 0.147594 0.218502
762 4 0.448638 0.145852 0.231898
760 2 0.424884 0.14701 0.239617
332 4 0.464507 0.136281 0.235886
331 2 0.474948 0.114596 0.24266
520 2 0.480321 0.160025 0.207016
333 4 0.48539 0.0929107 0.249435
2483 4 0.00352851 0.232618 0.223224
393 4 0.0418414 0.174223 0.170207
391 2 0.0609852 0.189911 0.166659
337 2 0.075998 0.240527 0.188712
396 4 0.0117365 0.239185 0.239951
392 4 0.080129 0.205599 0.163111
339 4 0.0845556 0.221645 0.174733
546 4 0.101601 0.23101 0.241642
279 4 0.271098 0.216655 0.216073
277 2 0.265964 0.229763 0.195409
278 4 0.260831 0.242871 0.174745
394 2 0.0288688 0.255841 0.232586
395 4 0.0460012 0.272497 0.225222
338 4 0.0674405 0.259409 0.202692
363 4 0.0539796 0.273678 0.206623
361 2 0.0613338 0.297532 0.205172
362 4 0.068688 0.321385 0.20372
372 4 0.086219 0.326842 0.199293
612 4 0.222852 0.287931 0.174135
611 4 0.223727 0.315752 0.21568
610 2 0.223289 0.301841 0.194907
344 4 0.225655 0.324564 0.233418
343 2 0.204174 0.318066 0.244442
729 4 0.30955 0.303883 0.178297
727 2 0.297647 0.320373 0.192842
308 4 0.325661 0.289396 0.174137
498 4 0.350095 0.279972 0.230785
307 2 0.34122 0.285629 0.193344
309 4 0.356779 0.281862 0.212551
749 4 0.0560541 0.335577 0.210389
648 4 0.0668116 0.335025 0.19418
748 2 0.0598365 0.351858 0.228984
646 2 0.0677617 0.338633 0.169456
750 4 0.0636189 0.36814 0.24758
733 2 0.149855 0.335641 0.241889
370 2 0.106805 0.339353 0.20599
371 4 0.127392 0.351865 0.212687
734 4 0.134375 0.352823 0.232385
417 4 0.136467 0.365987 0.222231
299 4 0.131407 0.367396 0.243603
415 2 0.154301 0.378023 0.209492
416 4 0.172135 0.390058 0.196753
298 2 0.107198 0.37031 0.249136
290 4 0.225348 0.414572 0.184946
289 2 0.206656 0.398009 0.186165
291 4 0.187965 0.381446 0.187384
728 4 0.285744 0.336864 0.207387
445 2 0.395411 0.369732 0.232305
447 4 0.401831 0.393684 0.229101
446 4 0.38899 0.34578 0.235509
644 4 0.422233 0.39919 0.227687
643 2 0.44306 0.391899 0.215929
645 4 0.463888 0.384608 0.204171
597 4 0.466938 0.381643 0.18409
766 2 0.216803 0.451573 0.168681
768 4 0.215156 0.426724 0.170914
412 2 0.239049 0.478435 0.230336
413 4 0.222277 0.464777 0.24288
414 4 0.25582 0.492093 0.217792
229 2 0.481843 0.500558 0.229487
231 4 0.49977 0.483138 0.228924
2756 4 0.99873 0.0724669 0.307194
427 2 0.0551913 0.00507332 0.331603
234 4 0.00960928 0.059662 0.298307
232 2 0.0302934 0.0457591 0.296293
233 4 0.0509775 0.0318562 0.294279
317 4 0.0655296 0.034627 0.305931
1404 4 0.0688206 0.0206523 0.296458
1402 2 0.0838854 0.00615835 0.282741
428 4 0.0695854 0.017283 0.315205
316 2 0.0802449 0.0500102 0.319046
318 4 0.0949602 0.0653935 0.33216
693 4 0.322117 0.0628216 0.273509
691 2 0.311624 0.0835489 0.282754
24 3 0.320523 0.0525517 0.256164
21 1 0.341012 0.041747 0.254796
23 3 0.347859 0.0350432 0.275929
257 4 0.421429 0.0780359 0.33444
479 4 0.451387 0.0459202 0.288188
478 2 0.445997 0.0484459 0.263903
2664 4 0.469124 0.0402302 0.288783
1428 4 0.451928 0.0296352 0.292123
258 4 0.442038 0.0439503 0.304205
2662 2 0.491562 0.0408771 0.299798
256 2 0.431733 0.0609931 0.319323
1426 2 0.446564 0.00786062 0.303181
692 4 0.301131 0.104276 0.291999
721 2 0.269345 0.111695 0.306356
723 4 0.283565 0.0947199 0.294745
722 4 0.255124 0.12867 0.317966
27 3 0.326371 0.163136 0.251721
29 3 0.347782 0.133541 0.260574
631 2 0.356502 0.0935666 0.251524
707 4 0.356919 0.123296 0.277321
633 4 0.356434 0.114984 0.264426
706 2 0.356271 0.134358 0.299735
708 4 0.355623 0.14542 0.322149
444 4 0.00195982 0.219624 0.299472
442 2 0.0119098 0.225768 0.277371
443 4 0.0218597 0.231911 0.255271
544 2 0.123118 0.241312 0.249129
545 4 0.144636 0.251614 0.256615
405 4 0.22321 0.180913 0.321551
473 4 0.214064 0.199712 0.322079
402 4 0.153752 0.252931 0.273743
735 4 0.165335 0.318459 0.251393
375 4 0.154278 0.327261 0.326076
400 2 0.166361 0.273982 0.268944
401 4 0.17897 0.295034 0.264146
676 2 0.168584 0.323884 0.292001
345 4 0.182694 0.311569 0.255467
677 4 0.170327 0.312537 0.269788
378 4 0.292418 0.278129 0.320221
376 2 0.307982 0.290611 0.305149
377 4 0.323545 0.303093 0.290078
615 4 0.334311 0.319359 0.29252
497 4 0.333516 0.291889 0.276435
496 2 0.341806 0.28593 0.25361
541 2 0.363055 0.298618 0.301355
542 4 0.385482 0.295306 0.311902
543 4 0.340629 0.301929 0.290807
418 2 0.393603 0.253467 0.322155
420 4 0.387323 0.275845 0.312937
2537 4 0.48848 0.28769 0.303394
364 2 0.00719744 0.381822 0.292963
365 4 0.0312921 0.375722 0.295685
603 4 0.0366653 0.376597 0.31485
300 4 0.0829888 0.373224 0.254668
678 4 0.166841 0.335231 0.314213
510 4 0.170654 0.352304 0.323758
508 2 0.191457 0.361027 0.334544
434 4 0.333219 0.383453 0.31359
433 2 0.318492 0.40365 0.312966
614 4 0.330551 0.368341 0.301869
613 2 0.332431 0.34385 0.297194
264 4 0.0122462 0.446739 0.261498
1757 4 0.0249252 0.433334 0.254784
1756 2 0.0479107 0.439173 0.262706
1758 4 0.0708961 0.445011 0.270628
1775 4 0.0790598 0.461016 0.279058
777 4 0.076545 0.476899 0.289366
775 2 0.068942 0.485192 0.311695
1776 4 0.124741 0.445063 0.26643
1774 2 0.1019 0.45304 0.272744
1436 4 0.233949 0.455999 0.257364
1435 2 0.246233 0.447444 0.277391
4 3 0.254962 0.417066 0.300926
1437 4 0.258517 0.43889 0.297419
3 3 0.269577 0.448811 0.315863
1 1 0.267802 0.425791 0.318172
436 2 0.308397 0.458299 0.315469
438 4 0.291453 0.439979 0.317039
2 3 0.288853 0.416571 0.317168
435 4 0.303766 0.423847 0.312343
437 4 0.32534 0.47662 0.313898
1801 2 0.363904 0.484898 0.32124
1802 4 0.341969 0.486243 0.309314
1803 4 0.385839 0.483553 0.333166
119 3 0.501873 0.451815 0.32061
1781 4 0.105785 0.00378599 0.41212
732 4 0.102715 0.0716927 0.349215
730 2 0.125351 0.0628025 0.355024
731 4 0.147987 0.0539124 0.360833
399 4 0.0894817 0.0822145 0.339621
606 4 0.160863 0.0706973 0.362307
604 2 0.183492 0.0786688 0.369348
962 4 0.326453 0.00371239 0.41075
699 4 0.377051 0.0542407 0.382503
1699 2 0.367242 0.0182487 0.386092
1700 4 0.381175 0.0363694 0.375958
697 2 0.393729 0.0635571 0.366372
698 4 0.410407 0.0728736 0.350241
2585 4 0.99788 0.119435 0.352873
397 2 0.0736735 0.0990665 0.349176
398 4 0.0578653 0.115918 0.35873
2584 2 0.0215419 0.123645 0.35977
2586 4 0.0452038 0.127856 0.366666
458 4 0.0432155 0.144452 0.378314
457 2 0.0446082 0.165292 0.392059
403 2 0.235866 0.160061 0.327045
404 4 0.248522 0.139208 0.332539
605 4 0.206121 0.0866403 0.376389
248 4 0.22233 0.0923902 0.365392
247 2 0.235668 0.106348 0.349503
249 4 0.249005 0.120306 0.333614
683 4 0.265072 0.130635 0.336073
682 2 0.282606 0.142567 0.349316
684 4 0.300139 0.154499 0.362559
319 2 0.335653 0.161685 0.353413
321 4 0.355918 0.155156 0.340303
726 4 0.407718 0.145505 0.410196
717 4 0.36395 0.145488 0.357525
715 2 0.381402 0.145186 0.375429
716 4 0.398853 0.144883 0.393332
467 4 0.394254 0.160008 0.404041
724 2 0.425494 0.127927 0.409761
725 4 0.443271 0.11035 0.409326
642 4 0.493873 0.107469 0.38946
641 4 0.450914 0.124298 0.370172
640 2 0.472393 0.115884 0.379816
459 4 0.0460009 0.186133 0.405803
600 4 0.0998039 0.199965 0.338522
598 2 0.116255 0.20834 0.355386
599 4 0.132706 0.216715 0.37225
389 4 0.137898 0.246803 0.38851
686 4 0.128937 0.228103 0.386568
685 2 0.117651 0.223095 0.408311
275 4 0.144075 0.233491 0.376193
274 2 0.167209 0.224023 0.375627
474 4 0.207262 0.220661 0.366974
472 2 0.210663 0.210186 0.344526
276 4 0.190344 0.214554 0.37506
320 4 0.315387 0.168214 0.366522
419 4 0.399883 0.231089 0.331373
269 4 0.41762 0.220833 0.333004
268 2 0.440495 0.219722 0.343039
270 4 0.463369 0.218612 0.353074
452 4 0.478512 0.224466 0.364697
451 2 0.481509 0.213382 0.386909
453 4 0.484505 0.202298 0.40912
347 4 0.0604275 0.308368 0.383719
346 2 0.0381651 0.303376 0.393948
618 4 0.07188 0.319771 0.373188
348 4 0.0159026 0.298383 0.404177
373 2 0.14456 0.31024 0.3416
388 2 0.128306 0.265495 0.374953
616 2 0.0950846 0.3114 0.369106
390 4 0.118713 0.284186 0.361395
617 4 0.118289 0.30303 0.365023
374 4 0.134842 0.293218 0.357124
488 4 0.348544 0.287093 0.40215
487 2 0.365541 0.276066 0.416802
601 2 0.0461402 0.389282 0.334202
602 4 0.0556151 0.401966 0.353555
549 4 0.0709293 0.391884 0.364229
547 2 0.0788682 0.411439 0.377636
509 4 0.21226 0.36975 0.345329
240 4 0.317748 0.389367 0.39175
335 4 0.325772 0.377727 0.405414
238 2 0.334225 0.390379 0.372971
239 4 0.350701 0.39139 0.354191
587 4 0.355308 0.41003 0.34738
752 4 0.475625 0.392037 0.387552
561 4 0.470789 0.372403 0.389302
751 2 0.485904 0.408349 0.371632
559 2 0.485911 0.367037 0.408477
776 4 0.0613391 0.493486 0.334024
500 4 0.0604934 0.475642 0.343736
499 2 0.0617898 0.464187 0.365923
501 4 0.0630862 0.452731 0.38811
407 4 0.0744521 0.443693 0.401385
548 4 0.0868071 0.430994 0.391043
406 2 0.095188 0.450869 0.413373
1555 2 0.229373 0.488798 0.39374
1557 4 0.242996 0.473809 0.408401
5 3 0.258334 0.420702 0.33825
586 2 0.369764 0.43043 0.347214
593 4 0.392742 0.467696 0.342654
588 4 0.38422 0.450831 0.347049
592 2 0.415442 0.478132 0.343637
713 4 0.45305 0.491936 0.332557
594 4 0.438142 0.488568 0.34462
712 2 0.472504 0.476432 0.33507
714 4 0.491959 0.460927 0.337584
753 4 0.496184 0.42466 0.355712
117 3 0.496108 0.447907 0.357544
718 2 0.0195192 0.998007 0.451795
368 4 0.0968687 0.00441286 0.43111
341 4 0.198159 0.000290739 0.497014
963 4 0.294834 0.0366537 0.431141
432 4 0.300796 0.0419252 0.450434
430 2 0.317736 0.0533523 0.464844
961 2 0.310644 0.020183 0.420946
431 4 0.334676 0.0647793 0.479254
843 4 0.340045 0.0674858 0.498402
1216 2 0.418972 0.0519281 0.502428
1218 4 0.437274 0.0421992 0.488443
576 4 0.408378 0.170017 0.491724
260 4 0.0571112 0.180278 0.420836
259 2 0.0745603 0.194821 0.431287
261 4 0.0920094 0.209364 0.441738
687 4 0.106366 0.218087 0.430053
1035 4 0.104339 0.221889 0.448595
1033 2 0.107324 0.239695 0.465893
466 2 0.401837 0.175555 0.422096
409 2 0.402862 0.228755 0.441585
410 4 0.417547 0.208615 0.443572
411 4 0.388178 0.248895 0.439598
468 4 0.40942 0.191101 0.440151
574 2 0.418193 0.186121 0.475308
515 4 0.475404 0.205761 0.426247
575 4 0.428009 0.202225 0.458892
516 4 0.428555 0.19581 0.440629
514 2 0.451979 0.200786 0.433438
2802 4 0.99976 0.293833 0.415319
1034 4 0.110309 0.257502 0.48319
696 4 0.102452 0.270596 0.495299
1260 4 0.105652 0.27537 0.477358
1258 2 0.114533 0.297376 0.469482
1259 4 0.123415 0.319382 0.461606
9 3 0.147607 0.322526 0.429021
7 3 0.137996 0.327529 0.465011
503 4 0.149652 0.334402 0.480718
489 4 0.382538 0.265039 0.431455
266 4 0.385889 0.263378 0.451889
265 2 0.387568 0.276578 0.473057
267 4 0.389247 0.289779 0.494226
3308 4 0.488329 0.323653 0.47484
1011 4 0.469035 0.319246 0.476402
1009 2 0.469742 0.298978 0.491026
326 4 0.0745174 0.354813 0.473711
6 1 0.143069 0.338362 0.445362
327 4 0.119204 0.339229 0.457557
325 2 0.0968607 0.347021 0.465634
10 3 0.125323 0.351167 0.439058
709 2 0.14354 0.404627 0.490766
8 3 0.161692 0.351774 0.448783
502 2 0.150195 0.351496 0.498958
334 2 0.318412 0.385198 0.428112
336 4 0.311053 0.392669 0.45081
668 4 0.307886 0.396738 0.470008
882 4 0.320486 0.392673 0.485494
880 2 0.336304 0.378671 0.49887
3307 2 0.498951 0.335306 0.455435
1382 4 0.0256336 0.494299 0.478566
384 4 0.134576 0.440516 0.485409
383 4 0.111347 0.456831 0.444239
711 4 0.141463 0.424657 0.475945
408 4 0.115924 0.458045 0.425361
382 2 0.122961 0.448673 0.464824
569 4 0.121571 0.472473 0.43641
568 2 0.138175 0.48738 0.425129
669 4 0.296054 0.444507 0.46113
636 4 0.262335 0.479834 0.414193
634 2 0.274234 0.469546 0.433629
635 4 0.286133 0.459257 0.453064
774 4 0.304173 0.462324 0.461889
667 2 0.30197 0.420622 0.465569
772 2 0.327108 0.469688 0.455187
773 4 0.350043 0.477053 0.448484
1058 4 0.107257 0.0741988 0.523505
1152 4 0.239994 0.0523005 0.512226
342 4 0.223614 0.0407507 0.511703
340 2 0.210886 0.0205207 0.504359
1150 2 0.239864 0.060126 0.535973
1151 4 0.239734 0.0679515 0.559721
1181 4 0.239932 0.0773428 0.576204
1032 4 0.227755 0.0605374 0.572527
2430 4 0.178085 0.00191361 0.503041
842 4 0.386996 0.0516304 0.505111
1217 4 0.400671 0.0616569 0.516413
841 2 0.363521 0.0595581 0.501757
3007 2 0.489737 0.0391841 0.576993
1061 4 0.493414 0.0359818 0.539162
3009 4 0.487493 0.0490939 0.554147
3077 4 0.00152835 0.0882892 0.579727
1270 2 0.0878211 0.150148 0.551707
1271 4 0.0984106 0.128793 0.559259
1057 2 0.105629 0.092569 0.540389
1059 4 0.104001 0.110939 0.557273
1155 4 0.118089 0.1238 0.560809
939 4 0.105254 0.119731 0.575021
1153 2 0.140527 0.126884 0.571401
1180 2 0.240716 0.102052 0.57995
898 2 0.250416 0.16116 0.566636
1182 4 0.241501 0.12676 0.583697
900 4 0.243556 0.145365 0.584764
1199 4 0.0285461 0.222367 0.569875
879 4 0.0714118 0.189507 0.541758
877 2 0.0595077 0.202818 0.559259
1272 4 0.0772315 0.171502 0.544156
878 4 0.0476036 0.21613 0.57676
1198 2 0.00836669 0.223391 0.555146
651 4 0.201538 0.217009 0.537056
858 4 0.190717 0.227441 0.52418
649 2 0.221417 0.202852 0.542491
650 4 0.241297 0.188694 0.547926
856 2 0.185151 0.248635 0.536221
899 4 0.257277 0.176955 0.548508
982 2 0.0112486 0.277601 0.581763
3353 4 0.997049 0.328242 0.523156
695 4 0.0871312 0.251397 0.538858
694 2 0.0947914 0.260997 0.517078
946 2 0.1815 0.292048 0.57105
857 4 0.179585 0.26983 0.548262
947 4 0.194531 0.273791 0.560001
798 4 0.210539 0.263861 0.567928
796 2 0.231299 0.274233 0.577233
2455 2 0.487724 0.249552 0.522208
2457 4 0.46748 0.26416 0.520811
1010 4 0.470449 0.278709 0.50565
936 4 0.0094705 0.340315 0.512369
710 4 0.145616 0.384597 0.505587
504 4 0.150738 0.36859 0.517197
1189 2 0.23683 0.372651 0.573304
1191 4 0.218297 0.388619 0.578473
803 4 0.265658 0.352777 0.550545
804 4 0.257697 0.330438 0.506519
802 2 0.261678 0.341608 0.528532
1190 4 0.255363 0.356683 0.568134
1238 4 0.272053 0.360583 0.566518
792 4 0.26863 0.348169 0.58094
1237 2 0.295132 0.36905 0.571082
1239 4 0.318212 0.377517 0.575645
929 4 0.358858 0.364442 0.530751
881 4 0.352121 0.364669 0.512247
928 2 0.347813 0.37392 0.551082
930 4 0.336767 0.383398 0.571413
1081 2 0.0761287 0.0705499 0.641666
4337 4 0.0112504 0.99935 0.6669
825 4 0.164407 0.0610787 0.658127
1082 4 0.0759649 0.0577408 0.663138
1030 2 0.23568 0.0457396 0.591058
1031 4 0.243604 0.0309418 0.609589
2133 4 0.189502 0.00858749 0.669438
1148 4 0.252834 0.0650752 0.66602
951 4 0.263623 0.0274816 0.608698
949 2 0.277151 0.00742294 0.615007
3008 4 0.49198 0.0292744 0.599839
809 4 0.490029 0.0162542 0.616063
808 2 0.47824 0.0328765 0.63055
810 4 0.46645 0.0494987 0.645038
45 3 0.465245 0.0719473 0.641097
41 1 0.456655 0.0682441 0.661861
3425 4 0.475659 0.0834468 0.656861
1083 4 0.0762925 0.0833591 0.620193
1127 4 0.0594422 0.0890159 0.61068
1126 2 0.0358052 0.0903704 0.60264
1128 4 0.0121683 0.0917248 0.5946
938 4 0.0758414 0.0988124 0.609634
1154 4 0.162965 0.129967 0.581993
937 2 0.0905477 0.109271 0.592328
1221 4 0.176812 0.142626 0.575565
1219 2 0.201073 0.139294 0.580615
1211 4 0.2462 0.130005 0.648942
1210 2 0.241267 0.134234 0.624797
1220 4 0.225333 0.135961 0.585665
1212 4 0.236335 0.138463 0.600652
1227 4 0.252456 0.126991 0.664594
908 4 0.23379 0.131147 0.665391
888 4 0.25927 0.143296 0.65672
886 2 0.28161 0.152013 0.663798
3424 2 0.495653 0.0982579 0.6544
1244 4 0.0490048 0.214533 0.595762
1243 2 0.0474761 0.239071 0.600314
1194 4 0.319147 0.169696 0.664876
1192 2 0.328336 0.177702 0.643044
1193 4 0.337525 0.185708 0.621212
983 4 0.0297782 0.266006 0.593904
1245 4 0.0459473 0.263609 0.604867
948 4 0.16847 0.310305 0.582098
1135 2 0.173541 0.323114 0.616758
1136 4 0.17312 0.303881 0.600787
790 2 0.267095 0.323681 0.585753
791 4 0.265559 0.299193 0.590565
797 4 0.25206 0.284606 0.586539
872 4 0.363526 0.302143 0.579727
871 2 0.37179 0.305999 0.603009
873 4 0.380053 0.309854 0.626291
813 4 0.395853 0.322421 0.623134
3123 4 0.481931 0.254509 0.622981
954 4 0.447273 0.292515 0.604071
952 2 0.456009 0.315494 0.608637
3121 2 0.502905 0.260232 0.635331
3263 4 0.0560216 0.336024 0.598814
3262 2 0.0577756 0.358884 0.608789
1041 4 0.0697039 0.39661 0.626011
3264 4 0.0595296 0.381744 0.618765
3240 4 0.0505045 0.399454 0.623223
3238 2 0.0260769 0.404376 0.621161
3239 4 0.00164937 0.409297 0.619099
822 4 0.16068 0.341144 0.646229
1039 2 0.0939156 0.397142 0.632231
1040 4 0.118127 0.397674 0.638451
993 4 0.124032 0.383032 0.626467
991 2 0.144713 0.369798 0.631194
992 4 0.165394 0.356565 0.635921
1137 4 0.173962 0.342348 0.63273
1064 4 0.177521 0.353514 0.647465
897 4 0.1829 0.361077 0.630716
896 4 0.21224 0.3823 0.596227
895 2 0.19757 0.371689 0.613471
1172 4 0.2284 0.392725 0.594075
811 2 0.39879 0.342836 0.637269
1206 4 0.394643 0.374007 0.664853
927 4 0.400527 0.381625 0.647059
812 4 0.401727 0.363251 0.651403
925 2 0.413628 0.399314 0.635199
953 4 0.464745 0.338472 0.613202
906 4 0.47708 0.35179 0.603026
904 2 0.497726 0.362937 0.594385
540 4 0.119821 0.473858 0.601355
539 4 0.0890278 0.438226 0.584538
2244 4 0.118695 0.492711 0.59612
1160 4 0.135374 0.481516 0.592739
538 2 0.104424 0.456042 0.592947
1159 2 0.159724 0.482874 0.598253
1171 2 0.227913 0.41581 0.60367
1186 2 0.216983 0.475274 0.609877
1173 4 0.227426 0.438894 0.613265
1187 4 0.23391 0.456901 0.608853
1188 4 0.200056 0.493648 0.610901
1161 4 0.184074 0.484231 0.603767
1002 4 0.421622 0.432994 0.614069
926 4 0.426729 0.417003 0.62334
1911 4 0.450102 0.493506 0.612772
1001 4 0.445189 0.476009 0.623816
1000 2 0.433405 0.454502 0.618943
1269 4 0.46301 0.481808 0.619947
1267 2 0.469277 0.489601 0.642864
944 4 0.0678168 0.0319142 0.673542
943 2 0.0465614 0.0190268 0.676244
1076 4 0.0728155 0.0501527 0.681293
1075 2 0.0722117 0.0688303 0.697905
945 4 0.025306 0.00613945 0.678947
864 4 0.0633915 0.0908403 0.730945
1077 4 0.0716079 0.0875078 0.714517
862 2 0.0463627 0.0820774 0.74702
823 2 0.167489 0.0368205 0.663344
1283 4 0.155499 0.0793921 0.658841
824 4 0.170571 0.0125622 0.668561
2256 4 0.179128 0.00793463 0.685872
1149 4 0.248511 0.0205711 0.688412
1147 2 0.250672 0.0428232 0.677216
1226 4 0.25595 0.0794187 0.679608
1092 4 0.325311 0.00801163 0.694203
42 3 0.459149 0.0460177 0.667239
43 3 0.434066 0.0735411 0.662144
1163 4 0.470616 0.0597156 0.682018
1162 2 0.482411 0.0479685 0.700674
44 3 0.467996 0.0810693 0.677523
851 4 0.0838427 0.102698 0.709759
850 2 0.0760189 0.124897 0.701323
852 4 0.0681951 0.147096 0.692888
1107 4 0.0841683 0.0913922 0.724809
1105 2 0.104667 0.0926585 0.73907
1282 2 0.162449 0.103364 0.660334
1284 4 0.169398 0.127336 0.661827
909 4 0.184352 0.129232 0.672666
907 2 0.209071 0.13019 0.669029
1225 2 0.254203 0.103205 0.672101
887 4 0.30395 0.160731 0.670875
830 4 0.323671 0.15895 0.678921
1004 4 0.345973 0.0755387 0.724625
829 2 0.341303 0.143915 0.688315
1005 4 0.361007 0.122452 0.716033
1003 2 0.35349 0.0989954 0.720329
831 4 0.358935 0.128881 0.69771
3268 2 0.496514 0.149743 0.737963
3270 4 0.49543 0.171495 0.725681
1178 4 0.999615 0.247977 0.719514
977 4 0.313579 0.229856 0.736273
918 4 0.295298 0.236903 0.74064
1297 2 0.284821 0.197785 0.742081
1299 4 0.270419 0.177408 0.743671
1298 4 0.299223 0.218162 0.740492
976 2 0.337405 0.237239 0.734546
978 4 0.361231 0.244621 0.732819
1025 4 0.384744 0.197671 0.694431
1024 2 0.403895 0.202253 0.70984
1142 4 0.434765 0.203472 0.739628
1144 2 0.46473 0.194809 0.718599
1262 4 0.433366 0.219682 0.72961
1026 4 0.423046 0.206836 0.725248
1261 2 0.43911 0.243709 0.725752
1145 4 0.441154 0.202233 0.722373
1146 4 0.488305 0.187385 0.714825
1073 4 0.0786965 0.262138 0.735196
1177 2 0.0186293 0.264121 0.721257
1179 4 0.0376432 0.280264 0.723
820 2 0.150945 0.328013 0.66515
1072 2 0.103263 0.263042 0.730628
1208 4 0.146098 0.267869 0.719184
1074 4 0.127829 0.263947 0.72606
1207 2 0.145241 0.281768 0.698417
821 4 0.14121 0.314883 0.684071
1209 4 0.144384 0.295667 0.67765
1130 4 0.142939 0.263729 0.737469
815 4 0.115009 0.332678 0.730497
942 4 0.134106 0.330599 0.736026
1129 2 0.162762 0.267213 0.752303
806 4 0.261972 0.32771 0.696604
1020 4 0.374068 0.257014 0.742484
1263 4 0.444854 0.267736 0.721894
892 2 0.0402793 0.363241 0.712954
1280 4 0.0762068 0.37421 0.735225
816 4 0.0749806 0.360692 0.719837
894 4 0.0604692 0.371648 0.725073
893 4 0.0200893 0.354834 0.700835
1279 2 0.0809451 0.397561 0.742806
814 2 0.094995 0.346685 0.725167
940 2 0.151615 0.348016 0.739938
941 4 0.169123 0.365432 0.743849
1080 4 0.173034 0.383199 0.752965
1063 2 0.193281 0.360107 0.665723
805 2 0.242153 0.342884 0.695148
1065 4 0.209041 0.3667 0.68398
807 4 0.222333 0.358058 0.693693
1028 4 0.20756 0.385236 0.685093
1066 2 0.198868 0.373141 0.723243
1068 4 0.211165 0.373893 0.701486
1027 2 0.220199 0.405764 0.678457
1067 4 0.186571 0.37239 0.745001
1204 2 0.37875 0.386813 0.679296
1205 4 0.362857 0.399619 0.693739
1983 4 0.0963397 0.438561 0.746845
1029 4 0.232838 0.426292 0.671821
1176 4 0.180108 0.483621 0.746357
1174 2 0.189739 0.488369 0.723777
1140 4 0.247958 0.433447 0.683241
1138 2 0.261167 0.454615 0.68486
1139 4 0.274375 0.475783 0.686478
1987 2 0.299768 0.454543 0.727803
1229 4 0.293693 0.477339 0.689764
1989 4 0.29713 0.469022 0.707589
2028 4 0.283259 0.481853 0.702363
1228 2 0.30795 0.474869 0.669372
1230 4 0.322207 0.472399 0.648981
1268 4 0.475544 0.497394 0.66578
1101 4 0.473507 0.48761 0.683512
1099 2 0.486136 0.472794 0.699203
2989 2 0.0127342 0.0400793 0.784331
2990 4 0.0176339 0.0614004 0.772224
2991 4 0.00783455 0.0187583 0.796438
863 4 0.0293339 0.0733144 0.763095
833 4 0.0220152 0.080369 0.779233
3083 4 0.00943793 0.077184 0.765415
2049 4 0.0983547 0.0146173 0.790684
1202 4 0.109632 0.0307503 0.789372
1201 2 0.118801 0.0540106 0.789126
1203 4 0.127971 0.0772709 0.78888
34 3 0.120477 0.0914945 0.771952
1085 4 0.313554 0.0606173 0.807639
819 4 0.334828 0.0622919 0.808276
1084 2 0.305947 0.0812995 0.795825
960 4 0.323823 0.0628422 0.822915
1050 4 0.357497 0.00910034 0.785166
817 2 0.349609 0.0437872 0.800259
818 4 0.364391 0.0252825 0.792242
974 4 0.365571 0.0068929 0.802052
2320 2 0.496402 0.0500349 0.757458
844 2 0.496046 0.0682782 0.819184
845 4 0.491226 0.0636702 0.795086
2322 4 0.489935 0.0658435 0.775718
1112 4 0.490805 0.0818283 0.788331
832 2 0.0249477 0.099483 0.795083
834 4 0.0278801 0.118597 0.810933
1125 4 0.040075 0.126799 0.825785
32 3 0.143593 0.0863774 0.801143
1106 4 0.125166 0.0939248 0.753331
911 4 0.132684 0.100904 0.812695
31 1 0.136272 0.101653 0.78558
35 3 0.126967 0.119443 0.796332
33 3 0.154369 0.108668 0.772865