ITEM: TIMESTEP
2600000
ITEM: NUMBER OF ATOMS
4590
ITEM: BOX BOUNDS pp pp pp
-9.9985700000000008e+00 9.9985700000000008e+00
-9.9985700000000008e+00 9.9985700000000008e+00
-9.9985700000000008e+00 9.9985700000000008e+00
ITEM: ATOMS id type xs ys zs
1666 2 5.6385e-05 0.0654403 0.0704913
491 4 0.305927 0.0525803 0.0771404
2974 2 0.462472 0.0138338 0.0255444
745 2 0.437411 0.069249 0.0114927
747 4 0.438035 0.0444292 0.00853126
2975 4 0.446278 0.0318949 0.0194847
986 4 0.436897 0.0238273 0.0048816
2467 2 0.497413 0.00275154 0.0664414
1667 4 0.0205412 0.0797291 0.069315
701 4 0.0176512 0.100181 0.0712544
700 2 0.0369454 0.115587 0.0752002
702 4 0.0562395 0.130993 0.079146
566 4 0.233148 0.155685 0.0580344
565 2 0.228892 0.157479 0.0334611
567 4 0.224636 0.159273 0.00888783
2264 4 0.242263 0.154215 0.00315362
297 4 0.33514 0.142974 0.0103684
295 2 0.353189 0.127245 0.00315429
556 2 0.406897 0.113131 0.00281904
558 4 0.426495 0.110534 0.0181265
746 4 0.436787 0.0940687 0.0144541
573 4 0.246482 0.243001 0.047517
482 4 0.250948 0.251012 0.0645737
360 4 0.332999 0.204365 0.0153724
571 2 0.262862 0.247914 0.0292761
770 4 0.392679 0.180883 0.0240318
359 4 0.373883 0.177789 0.026461
664 2 0.393066 0.206467 0.0522531
665 4 0.386863 0.184765 0.0414955
666 4 0.399268 0.228169 0.0630107
323 4 0.405639 0.247336 0.0652138
358 2 0.353441 0.191077 0.0209167
769 2 0.40596 0.174106 0.00396042
623 4 0.393296 0.239114 0.0768166
292 2 0.152874 0.31267 0.0474959
294 4 0.131698 0.303455 0.0379113
293 4 0.174049 0.321885 0.0570806
507 4 0.1868 0.322728 0.0664882
287 4 0.191435 0.328702 0.049372
286 2 0.204932 0.322482 0.0292641
505 2 0.200115 0.306881 0.0805152
481 2 0.232004 0.261301 0.0772417
288 4 0.218429 0.316262 0.00915615
552 4 0.172976 0.333944 0.073302
572 4 0.279242 0.252828 0.0110352
357 4 0.296269 0.263399 0.00579564
355 2 0.308847 0.284994 0.00497426
956 4 0.328716 0.320935 0.016979
356 4 0.321424 0.306588 0.00415288
1069 2 0.404992 0.316555 0.0332493
955 2 0.349316 0.324254 0.0307562
957 4 0.369916 0.327573 0.0445334
1071 4 0.386345 0.333187 0.034153
322 2 0.417439 0.265456 0.0526588
324 4 0.429239 0.283575 0.0401039
1070 4 0.42364 0.299922 0.0323456
280 2 0.45718 0.307887 0.052661
282 4 0.443425 0.29495 0.0362714
281 4 0.470935 0.320824 0.0690506
527 4 0.481187 0.333282 0.0796637
454 2 0.174281 0.362785 0.050194
456 4 0.167719 0.385983 0.0435618
455 4 0.180843 0.339587 0.0568261
1290 4 0.267539 0.384145 0.0337609
250 2 0.269144 0.400692 0.0620243
1288 2 0.276738 0.374292 0.012702
251 4 0.266078 0.40446 0.0374971
741 4 0.384108 0.338091 0.052438
739 2 0.389134 0.345673 0.075728
671 4 0.462186 0.332062 0.0836767
1788 4 0.0918259 0.456582 0.0520176
1786 2 0.0970998 0.480506 0.0470194
1787 4 0.102374 0.504431 0.0420213
626 4 0.198627 0.470393 0.0591876
625 2 0.17953 0.485436 0.0533394
245 4 0.207804 0.454508 0.0619009
244 2 0.225091 0.441821 0.0490402
246 4 0.242377 0.429134 0.0361794
272 4 0.261768 0.422966 0.0361461
271 2 0.272494 0.434232 0.0165704
1672 2 0.398989 0.441899 0.0716711
853 2 0.394531 0.449385 0.0144302
1674 4 0.408031 0.449065 0.0494883
854 4 0.411709 0.453943 0.0320181
564 4 0.426011 0.446849 0.042478
563 4 0.47575 0.451863 0.0437519
562 2 0.45088 0.449356 0.043115
228 4 0.493219 0.457457 0.0524509
226 2 0.496871 0.482029 0.0552877
19 3 0.0497884 0.0388414 0.15496
18 3 0.0662937 0.0054892 0.147239
16 1 0.0622699 0.0213412 0.163698
578 4 0.069835 0.0474232 0.163186
582 4 0.223439 0.0784627 0.152244
580 2 0.240993 0.0611964 0.15659
490 2 0.295785 0.0439203 0.0982907
1475 4 0.284263 0.0154739 0.116774
492 4 0.285644 0.0352603 0.119441
581 4 0.258548 0.04393 0.160935
484 2 0.41042 0.018539 0.0900337
485 4 0.40475 0.0424873 0.0944508
2722 2 0.472503 0.0724386 0.143493
2724 4 0.479562 0.04847 0.144419
1760 4 0.487115 0.032021 0.134832
2744 4 0.494386 0.0386638 0.151094
476 4 0.069353 0.122263 0.0922447
475 2 0.0717782 0.134368 0.113988
477 4 0.0742033 0.146473 0.135731
449 4 0.160125 0.10321 0.167438
237 4 0.225213 0.0975667 0.143023
235 2 0.202853 0.0998485 0.153976
236 4 0.180492 0.10213 0.16493
628 2 0.383031 0.152867 0.156506
629 4 0.390881 0.130303 0.149126
312 4 0.391857 0.113195 0.159414
2723 4 0.465444 0.0964072 0.142567
339 4 0.0253759 0.227009 0.164367
738 4 0.238695 0.210583 0.0946934
737 4 0.225816 0.176838 0.129279
736 2 0.232255 0.19371 0.111986
755 4 0.246151 0.247416 0.163164
460 2 0.323617 0.221624 0.118384
461 4 0.300715 0.213164 0.112987
354 4 0.284994 0.215409 0.125372
352 2 0.274693 0.231387 0.141613
353 4 0.264391 0.247365 0.157853
630 4 0.375181 0.17543 0.163885
254 4 0.381842 0.190369 0.153539
462 4 0.346519 0.230083 0.12378
255 4 0.364033 0.231999 0.132313
253 2 0.372937 0.211184 0.142926
765 4 0.352681 0.247566 0.129609
624 4 0.359652 0.239046 0.113814
622 2 0.376474 0.23908 0.0953155
483 4 0.213061 0.27159 0.0899097
506 4 0.21343 0.291033 0.0945421
537 4 0.204544 0.292458 0.112884
535 2 0.189544 0.28991 0.132725
536 4 0.174544 0.287362 0.152566
754 2 0.24158 0.27199 0.162545
756 4 0.237009 0.296565 0.161926
301 2 0.321947 0.314293 0.136824
302 4 0.321677 0.330599 0.117871
303 4 0.322216 0.297988 0.155778
285 4 0.316573 0.28771 0.168214
764 4 0.335065 0.284075 0.158891
763 2 0.343873 0.26582 0.14425
12 3 0.415828 0.333378 0.122773
647 4 0.0345988 0.351122 0.164396
550 2 0.159909 0.337398 0.094338
551 4 0.146842 0.340851 0.115374
289 2 0.217824 0.398998 0.147634
290 4 0.237426 0.409239 0.135969
291 4 0.198223 0.388757 0.159299
252 4 0.27221 0.396924 0.0865514
387 4 0.326707 0.350264 0.114726
609 4 0.291048 0.391169 0.0887693
607 2 0.304039 0.406293 0.103858
385 2 0.3511 0.354398 0.111116
493 2 0.386159 0.393208 0.101417
495 4 0.389036 0.368919 0.106608
386 4 0.375494 0.358533 0.107506
15 3 0.381049 0.346024 0.117936
740 4 0.39416 0.353256 0.0990179
14 3 0.410351 0.368081 0.109419
11 1 0.402225 0.351893 0.12392
13 3 0.402355 0.359961 0.145675
494 4 0.383283 0.417497 0.096226
672 4 0.417541 0.345813 0.101523
670 2 0.439863 0.338938 0.0925996
1791 4 0.0648968 0.498364 0.0965159
1465 2 0.0764324 0.465123 0.0988539
1466 4 0.0574163 0.479981 0.0923112
1467 4 0.0954485 0.450265 0.105397
638 4 0.225657 0.47713 0.139002
766 2 0.246561 0.451188 0.137864
768 4 0.247615 0.426263 0.136184
767 4 0.245508 0.476112 0.139544
637 2 0.211758 0.492265 0.124757
608 4 0.31703 0.421418 0.118946
659 4 0.325975 0.437412 0.111353
660 4 0.375023 0.434761 0.10197
1673 4 0.389948 0.434732 0.0938539
658 2 0.350499 0.436087 0.106661
524 4 0.402229 0.480267 0.142444
523 2 0.397366 0.462591 0.125442
525 4 0.392504 0.444914 0.10844
1559 4 0.387875 0.487686 0.154004
1422 4 0.0237109 0.998703 0.194386
17 3 0.0503647 0.0115028 0.180746
2480 4 0.0330782 0.0166948 0.190985
2479 2 0.0225473 0.0378238 0.199222
20 3 0.0820052 0.0292091 0.1719
380 4 0.0170325 0.0772022 0.199438
2481 4 0.0120163 0.0589529 0.207459
577 2 0.0834386 0.0682595 0.165629
689 4 0.154985 0.017516 0.211769
674 4 0.13438 0.0198392 0.210595
673 2 0.118611 0.0086204 0.226427
1504 2 0.226563 0.00211032 0.189995
1506 4 0.246628 0.0155205 0.183458
654 4 0.259993 0.0268899 0.172893
652 2 0.283131 0.0188177 0.177856
653 4 0.30627 0.0107455 0.182818
693 4 0.268693 0.0564006 0.247295
758 4 0.337207 0.0850244 0.188194
759 4 0.34761 0.067258 0.233767
757 2 0.342408 0.0761412 0.21098
350 4 0.36147 0.071289 0.245155
349 2 0.386401 0.0694067 0.244895
351 4 0.411333 0.0675244 0.244634
480 4 0.42891 0.0590415 0.246516
379 2 0.0274231 0.0967064 0.187742
511 2 0.0685364 0.143144 0.192022
512 4 0.049003 0.130287 0.183171
381 4 0.0378138 0.116211 0.176046
579 4 0.0970422 0.0890958 0.168072
513 4 0.0880698 0.156 0.200872
450 4 0.114584 0.0853104 0.177751
448 2 0.137354 0.0942604 0.172595
28 3 0.324395 0.147462 0.226727
26 1 0.320549 0.156415 0.247785
311 4 0.357326 0.0917 0.188504
310 2 0.374592 0.102448 0.173959
521 4 0.470291 0.136944 0.220789
762 4 0.459532 0.126435 0.232731
760 2 0.436207 0.130735 0.240647
332 4 0.469983 0.118217 0.216595
520 2 0.486864 0.153419 0.211895
331 2 0.483488 0.097483 0.220187
393 4 0.0809635 0.175195 0.198852
391 2 0.0861493 0.199121 0.193768
392 4 0.0913351 0.223047 0.188684
27 3 0.328244 0.178089 0.24817
279 4 0.26934 0.219307 0.21712
277 2 0.265878 0.231967 0.195838
278 4 0.262417 0.244628 0.174556
337 2 0.0319037 0.248591 0.175174
394 2 0.0136049 0.255845 0.234196
395 4 0.0291726 0.257918 0.21474
338 4 0.0384314 0.270172 0.185982
363 4 0.0447436 0.268356 0.205716
361 2 0.0535445 0.291664 0.207829
648 4 0.0606609 0.329662 0.201287
362 4 0.0623455 0.314972 0.209943
372 4 0.0783135 0.321232 0.200103
370 2 0.0995057 0.323655 0.21315
371 4 0.120698 0.326077 0.226196
611 4 0.237451 0.328961 0.221861
610 2 0.240026 0.318458 0.199317
612 4 0.242601 0.307954 0.176774
344 4 0.221797 0.317761 0.225393
343 2 0.207004 0.315859 0.245461
284 4 0.276305 0.258066 0.16884
283 2 0.296439 0.272888 0.168527
729 4 0.318875 0.307363 0.172327
727 2 0.306087 0.324167 0.185716
308 4 0.333861 0.295156 0.171832
307 2 0.344455 0.287145 0.193016
309 4 0.355048 0.279134 0.214201
498 4 0.34135 0.290666 0.22478
749 4 0.0481218 0.326782 0.215573
748 2 0.0534352 0.340906 0.235509
646 2 0.0476298 0.340392 0.182841
734 4 0.130632 0.33836 0.240036
417 4 0.165294 0.394342 0.213317
416 4 0.189322 0.376582 0.173218
415 2 0.177308 0.385462 0.193268
728 4 0.293298 0.34097 0.199106
445 2 0.413712 0.375487 0.230885
446 4 0.391842 0.377851 0.242772
447 4 0.435582 0.373122 0.218998
644 4 0.443911 0.391244 0.219941
643 2 0.450877 0.407349 0.202128
262 2 0.998583 0.438962 0.244725
412 2 0.239508 0.469806 0.225749
413 4 0.224037 0.462794 0.244097
414 4 0.254979 0.476818 0.2074
1573 2 0.300183 0.498825 0.230538
1574 4 0.319502 0.492465 0.245081
595 2 0.481478 0.435788 0.165583
645 4 0.457844 0.423453 0.184315
597 4 0.463684 0.418224 0.165749
229 2 0.469792 0.478674 0.228277
231 4 0.483367 0.457887 0.231242
234 4 0.00898351 0.0435902 0.292711
232 2 0.0334697 0.0385346 0.292927
233 4 0.0579559 0.0334791 0.293144
2756 4 0.0124142 0.0635366 0.293599
317 4 0.0722719 0.0385355 0.304561
1404 4 0.0727788 0.0210181 0.294362
1402 2 0.0799011 0.0129137 0.271806
428 4 0.0811597 0.0235432 0.311697
316 2 0.0825816 0.0610146 0.308246
318 4 0.0928912 0.0834936 0.311932
732 4 0.106288 0.0829185 0.325128
427 2 0.0922342 0.0123971 0.331147
1403 4 0.0870234 0.00480938 0.24925
25 3 0.31938 0.0427389 0.256456
691 2 0.275589 0.0651375 0.269685
24 3 0.330345 0.0643906 0.285242
692 4 0.282485 0.0738744 0.292074
21 1 0.337358 0.0520437 0.26689
23 3 0.352053 0.0354185 0.273675
22 3 0.348224 0.0660413 0.252222
479 4 0.446365 0.0227528 0.276167
478 2 0.437638 0.0408972 0.261341
2664 4 0.463851 0.0149694 0.274725
1428 4 0.449257 0.0109954 0.288128
258 4 0.446496 0.0280235 0.295915
2662 2 0.486572 0.0214247 0.282926
256 2 0.440464 0.0410447 0.31639
2755 2 0.00906058 0.0862394 0.303525
2585 4 0.00377304 0.125588 0.325063
2757 4 0.00570701 0.108942 0.31345
399 4 0.087807 0.0885239 0.330348
606 4 0.166525 0.0843425 0.337509
405 4 0.223296 0.165853 0.317227
403 2 0.241892 0.152874 0.327757
721 2 0.271571 0.106757 0.316924
723 4 0.28427 0.0915921 0.301629
722 4 0.258872 0.121922 0.332218
29 3 0.331952 0.14412 0.263823
30 3 0.298231 0.156296 0.252321
761 4 0.412883 0.135035 0.248563
632 4 0.352599 0.0835172 0.256392
631 2 0.350504 0.10787 0.261657
707 4 0.349083 0.1477 0.271293
633 4 0.348408 0.132223 0.266922
706 2 0.352197 0.150043 0.295991
708 4 0.35531 0.152387 0.320689
544 2 0.146108 0.222884 0.25944
545 4 0.167753 0.233922 0.25354
546 4 0.124463 0.211846 0.265341
473 4 0.211582 0.178681 0.323385
269 4 0.402418 0.233788 0.324995
268 2 0.42319 0.222614 0.333293
443 4 0.00479764 0.258843 0.271495
733 2 0.152646 0.330338 0.248764
402 4 0.163887 0.253883 0.254016
375 4 0.16477 0.311132 0.331942
678 4 0.176392 0.324652 0.323564
400 2 0.172626 0.275448 0.263167
401 4 0.181364 0.297013 0.272319
676 2 0.177324 0.319966 0.299021
345 4 0.192211 0.313958 0.26553
677 4 0.178255 0.31528 0.274479
735 4 0.174661 0.322316 0.257493
378 4 0.29953 0.280587 0.310389
376 2 0.315154 0.296307 0.298814
497 4 0.330475 0.3006 0.272568
377 4 0.330777 0.312028 0.287239
496 2 0.335913 0.295633 0.248674
541 2 0.370255 0.306212 0.288295
542 4 0.393881 0.302445 0.295561
420 4 0.391386 0.292762 0.314113
543 4 0.346629 0.309979 0.281028
418 2 0.398925 0.271587 0.325064
615 4 0.343514 0.323573 0.295577
364 2 0.00456352 0.381686 0.296609
365 4 0.0291363 0.38434 0.292825
601 2 0.0522278 0.37996 0.329067
603 4 0.0437239 0.377926 0.305642
750 4 0.0587485 0.35503 0.255445
300 4 0.0762904 0.356674 0.265626
299 4 0.124637 0.346767 0.257554
298 2 0.100464 0.351721 0.26159
508 2 0.190372 0.363847 0.339075
510 4 0.187512 0.340227 0.331386
434 4 0.320954 0.383242 0.309764
433 2 0.30879 0.40415 0.316094
614 4 0.335636 0.370658 0.310466
613 2 0.339575 0.347115 0.303022
264 4 0.0224483 0.435241 0.25119
1757 4 0.038813 0.442867 0.260253
1756 2 0.055888 0.460478 0.2651
1758 4 0.0729629 0.478089 0.269947
775 2 0.0661813 0.49532 0.314038
1775 4 0.0800959 0.495431 0.274875
1436 4 0.210333 0.453382 0.257322
1435 2 0.224817 0.449968 0.277415
1437 4 0.239301 0.446554 0.297508
4 3 0.256392 0.439836 0.304215
3 3 0.271355 0.473921 0.311879
1 1 0.269063 0.452064 0.319325
436 2 0.314808 0.47379 0.310459
438 4 0.292564 0.462986 0.314154
435 4 0.296625 0.425058 0.322424
2 3 0.289936 0.442535 0.320952
1802 4 0.348342 0.497967 0.317198
437 4 0.337052 0.484594 0.306765
119 3 0.4871 0.469121 0.326888
1781 4 0.117639 0.00702176 0.412567
441 4 0.341885 0.00634431 0.411258
699 4 0.380585 0.0555295 0.362915
1699 2 0.365192 0.0362132 0.393565
1700 4 0.373044 0.0580746 0.384313
697 2 0.403359 0.0624575 0.355267
1701 4 0.35734 0.0143517 0.402817
698 4 0.426134 0.0693856 0.347618
257 4 0.434432 0.054066 0.336865
397 2 0.07205 0.102353 0.343974
398 4 0.0562931 0.116181 0.3576
2584 2 0.0225663 0.126847 0.341507
2586 4 0.0413595 0.128106 0.357951
458 4 0.0423322 0.138786 0.375804
457 2 0.0398227 0.146563 0.399434
730 2 0.128666 0.0885495 0.334757
731 4 0.151044 0.0941804 0.344385
600 4 0.0929689 0.165529 0.33562
604 2 0.188233 0.0894988 0.348795
605 4 0.20994 0.0946552 0.360082
248 4 0.225608 0.0908709 0.372827
247 2 0.240573 0.107579 0.361779
249 4 0.255538 0.124286 0.35073
404 4 0.260489 0.139894 0.338287
683 4 0.26024 0.141717 0.356933
682 2 0.284885 0.140136 0.36085
684 4 0.309529 0.138555 0.364767
320 4 0.322557 0.125986 0.358421
321 4 0.359708 0.154162 0.340348
319 2 0.341132 0.140074 0.349385
726 4 0.394894 0.140813 0.402334
467 4 0.392388 0.156054 0.414431
717 4 0.368964 0.162269 0.355608
715 2 0.383222 0.160424 0.376065
716 4 0.397481 0.158579 0.396521
640 2 0.479085 0.104813 0.415152
641 4 0.4561 0.114644 0.415612
598 2 0.101841 0.183135 0.350998
599 4 0.110714 0.200741 0.366376
389 4 0.12759 0.227919 0.379467
686 4 0.115233 0.211893 0.38135
685 2 0.099398 0.210747 0.400666
275 4 0.127333 0.21139 0.369287
274 2 0.150103 0.202477 0.37451
474 4 0.181544 0.184519 0.362936
472 2 0.196563 0.1816 0.343161
276 4 0.172873 0.193565 0.379732
270 4 0.443961 0.21144 0.341592
452 4 0.446465 0.202129 0.359933
451 2 0.446748 0.209459 0.383837
453 4 0.44703 0.216788 0.40774
347 4 0.056383 0.323793 0.389104
346 2 0.0348936 0.317881 0.400437
348 4 0.0134043 0.311969 0.41177
618 4 0.0714272 0.310981 0.385561
388 2 0.123201 0.250285 0.369187
616 2 0.0888059 0.299037 0.372126
390 4 0.118812 0.272651 0.358906
617 4 0.106185 0.287092 0.358692
374 4 0.123367 0.289428 0.349702
373 2 0.144068 0.30028 0.340822
419 4 0.406465 0.250412 0.336016
549 4 0.060056 0.402442 0.352819
602 4 0.0607317 0.381994 0.352492
547 2 0.078027 0.416434 0.363137
509 4 0.193231 0.387466 0.346764
334 2 0.313496 0.373265 0.403422
238 2 0.361967 0.379776 0.370551
239 4 0.37985 0.396422 0.365231
335 4 0.330532 0.361377 0.389506
240 4 0.344085 0.36313 0.375871
752 4 0.477239 0.403214 0.395099
561 4 0.472624 0.384891 0.396553
559 2 0.488462 0.375663 0.413558
776 4 0.058423 0.487441 0.336464
500 4 0.077643 0.486014 0.342158
499 2 0.0802656 0.471396 0.362273
501 4 0.0828882 0.456779 0.382388
548 4 0.0959979 0.430426 0.373454
407 4 0.0884626 0.438157 0.389588
406 2 0.102536 0.444372 0.409298
1544 4 0.21411 0.481032 0.387628
1556 4 0.230487 0.474746 0.378598
1543 2 0.198465 0.487579 0.406001
636 4 0.285067 0.494419 0.404383
5 3 0.259096 0.451836 0.339801
1555 2 0.252713 0.475324 0.390036
1557 4 0.27494 0.475901 0.401474
587 4 0.384352 0.417165 0.364764
586 2 0.38528 0.441669 0.359877
593 4 0.390023 0.480034 0.370243
588 4 0.386208 0.466173 0.35499
592 2 0.406213 0.49332 0.356584
751 2 0.481657 0.419664 0.376795
712 2 0.460586 0.492245 0.344736
714 4 0.480005 0.476495 0.344876
753 4 0.486076 0.436114 0.358491
117 3 0.483019 0.459486 0.362988
116 1 0.496618 0.457458 0.344546
369 4 0.0657646 0.00495326 0.449684
367 2 0.0866592 0.0117384 0.437744
368 4 0.107554 0.0185235 0.425804
961 2 0.330417 0.0325263 0.439969
963 4 0.321861 0.0538884 0.449748
432 4 0.323389 0.0585276 0.469466
430 2 0.331681 0.0519953 0.492133
425 4 0.355622 0.00759769 0.421123
962 4 0.338973 0.0111643 0.430189
1216 2 0.42007 0.0509826 0.491569
1218 4 0.423236 0.069493 0.475061
260 4 0.0513082 0.163609 0.4349
459 4 0.0373132 0.15434 0.423065
725 4 0.380084 0.101952 0.430105
724 2 0.387489 0.121383 0.416219
259 2 0.0702754 0.179849 0.433608
1035 4 0.0828922 0.212269 0.440421
1033 2 0.0873714 0.233072 0.453549
261 4 0.0892425 0.19609 0.432316
687 4 0.0835628 0.209601 0.419983
488 4 0.330051 0.249324 0.435797
466 2 0.402721 0.171087 0.431531
468 4 0.413055 0.18612 0.448631
411 4 0.380995 0.241348 0.470729
409 2 0.395623 0.222124 0.464272
410 4 0.41025 0.202901 0.457816
575 4 0.424915 0.205172 0.471196
516 4 0.426357 0.20091 0.452275
574 2 0.438119 0.204007 0.492397
514 2 0.442929 0.212662 0.4377
515 4 0.459501 0.224415 0.423124
2455 2 0.493822 0.243115 0.496397
696 4 0.0949337 0.266328 0.480838
1034 4 0.0918505 0.253875 0.466676
1260 4 0.101755 0.269575 0.462088
1258 2 0.113104 0.291803 0.460587
1259 4 0.124454 0.314032 0.459085
9 3 0.142685 0.319061 0.442882
7 3 0.124207 0.325893 0.474891
487 2 0.35246 0.252281 0.446486
489 4 0.37487 0.255238 0.457175
266 4 0.385426 0.25984 0.472413
265 2 0.377757 0.280614 0.484024
267 4 0.370088 0.301388 0.495635
1011 4 0.476586 0.325995 0.492713
2457 4 0.4741 0.257305 0.502302
1010 4 0.472317 0.277445 0.503909
1009 2 0.474451 0.30172 0.498311
326 4 0.0636665 0.347596 0.473242
6 1 0.136283 0.335574 0.457873
327 4 0.110006 0.334515 0.459741
325 2 0.0868362 0.341055 0.466492
8 3 0.155059 0.345809 0.466879
10 3 0.123311 0.351038 0.447326
336 4 0.296461 0.385154 0.417337
668 4 0.29065 0.403521 0.422079
882 4 0.376225 0.382913 0.49235
3308 4 0.48581 0.341733 0.48511
3309 4 0.494712 0.372097 0.446386
3307 2 0.490261 0.356915 0.465748
1383 4 0.00967191 0.463159 0.469327
1381 2 0.0174874 0.486522 0.473599
384 4 0.118171 0.428918 0.490025
408 4 0.116609 0.450588 0.429008
569 4 0.129402 0.463801 0.43391
383 4 0.120502 0.456872 0.448626
568 2 0.152899 0.47225 0.435211
711 4 0.13681 0.428398 0.49981
382 2 0.119337 0.442895 0.469325
570 4 0.176396 0.480699 0.436513
1545 4 0.182821 0.494125 0.424375
634 2 0.29632 0.480204 0.421602
774 4 0.325892 0.456925 0.436537
635 4 0.307574 0.46599 0.438821
669 4 0.309513 0.44739 0.436926
667 2 0.300081 0.425456 0.429503
772 2 0.339203 0.460207 0.457447
773 4 0.352514 0.46349 0.478357
663 4 0.458134 0.497348 0.453755
341 4 0.16585 0.0100727 0.507839
1152 4 0.183249 0.0630964 0.529511
342 4 0.179985 0.0580282 0.508922
340 2 0.172918 0.0340504 0.508381
1150 2 0.203641 0.0770663 0.533279
1031 4 0.267356 0.0552477 0.574584
1030 2 0.253012 0.0719313 0.562707
431 4 0.339973 0.0454629 0.514799
842 4 0.402302 0.0259242 0.521918
841 2 0.377801 0.0305821 0.523701
843 4 0.353299 0.03524 0.525485
1217 4 0.416905 0.0324723 0.508077
1058 4 0.106376 0.0957049 0.507933
1272 4 0.0900913 0.162218 0.584942
1270 2 0.103031 0.143101 0.575334
1271 4 0.11597 0.123985 0.565727
1057 2 0.11479 0.103014 0.530315
1059 4 0.123205 0.110323 0.552697
1155 4 0.133849 0.118857 0.565213
939 4 0.117397 0.10574 0.569585
1153 2 0.1571 0.127998 0.566228
1032 4 0.238668 0.088615 0.550829
1154 4 0.18035 0.137139 0.567243
1151 4 0.224032 0.0910362 0.537047
1180 2 0.228185 0.122342 0.551713
1181 4 0.210957 0.105185 0.54588
1182 4 0.245413 0.139499 0.557545
900 4 0.241819 0.147818 0.575231
1221 4 0.189636 0.151652 0.577959
1199 4 0.0265048 0.21067 0.570405
879 4 0.0769176 0.176053 0.583844
1198 2 0.00518483 0.21869 0.560095
898 2 0.246558 0.172027 0.571147
651 4 0.233075 0.228263 0.512913
858 4 0.222533 0.24553 0.518376
649 2 0.239378 0.211689 0.530541
650 4 0.245681 0.195115 0.548169
899 4 0.251296 0.196235 0.567063
576 4 0.451323 0.202842 0.513598
695 4 0.0825572 0.272364 0.528912
984 4 0.999623 0.305482 0.580605
694 2 0.0887454 0.269346 0.504875
948 4 0.157456 0.290881 0.580423
856 2 0.211641 0.262743 0.532876
857 4 0.200749 0.279956 0.547377
947 4 0.200162 0.270336 0.564459
946 2 0.178809 0.280608 0.572441
798 4 0.209543 0.260087 0.578156
502 2 0.204759 0.38512 0.526465
503 4 0.21954 0.366144 0.519637
504 4 0.189977 0.404095 0.533292
803 4 0.268096 0.360453 0.562188
804 4 0.266493 0.367241 0.51267
802 2 0.267295 0.363847 0.537429
1190 4 0.255742 0.353746 0.574947
929 4 0.362355 0.393233 0.559308
881 4 0.363152 0.383612 0.540613
880 2 0.369688 0.383263 0.516481
928 2 0.345241 0.380552 0.572402
540 4 0.116811 0.484093 0.577837
709 2 0.158616 0.420603 0.50924
710 4 0.180422 0.412807 0.518669
1909 2 0.44313 0.496179 0.570453
1081 2 0.0779386 0.0723491 0.635148
1083 4 0.0796247 0.0789508 0.611091
1126 2 0.0348727 0.0848477 0.603866
1127 4 0.0595808 0.0826831 0.607028
1082 4 0.0762524 0.0657473 0.659206
943 2 0.0310375 0.0276387 0.663071
944 4 0.0454839 0.0474436 0.658147
938 4 0.0951385 0.0724615 0.599549
824 4 0.182218 0.00792311 0.662385
823 2 0.185655 0.0326759 0.663199
951 4 0.278177 0.0508368 0.590617
949 2 0.287215 0.0362563 0.608808
950 4 0.296253 0.0216757 0.626998
3008 4 0.500163 0.0233976 0.590022
809 4 0.486829 0.0351544 0.598704
808 2 0.478732 0.045224 0.62011
810 4 0.470634 0.0552936 0.641516
45 3 0.464547 0.0761669 0.64091
41 1 0.458759 0.0686222 0.661603
43 3 0.43606 0.0718734 0.665153
42 3 0.463361 0.0461291 0.663028
2283 4 0.419856 0.00170465 0.597569
1128 4 0.0101647 0.0870124 0.600703
937 2 0.106268 0.0891008 0.584567
1219 2 0.202498 0.152277 0.599391
1211 4 0.240768 0.145917 0.664732
1210 2 0.236408 0.155326 0.64198
1220 4 0.215359 0.152901 0.620824
1194 4 0.326284 0.158183 0.666428
888 4 0.259838 0.145562 0.665787
1192 2 0.333808 0.158676 0.642588
1193 4 0.341332 0.159169 0.618749
3424 2 0.498384 0.0975489 0.654081
3425 4 0.477707 0.0837679 0.656858
878 4 0.0398955 0.209668 0.583473
877 2 0.0584065 0.19286 0.583658
1244 4 0.0500451 0.226163 0.589495
1243 2 0.0476431 0.247491 0.602321
1212 4 0.232048 0.164736 0.619229
3123 4 0.489174 0.237178 0.654308
983 4 0.0344818 0.284122 0.609403
1245 4 0.0452411 0.26882 0.615147
982 2 0.0170525 0.294802 0.595004
3262 2 0.05382 0.323109 0.648484
3263 4 0.0612313 0.300499 0.656169
1135 2 0.162173 0.316498 0.616727
822 4 0.163996 0.327117 0.653645
1136 4 0.155877 0.301363 0.597847
796 2 0.230306 0.271411 0.586272
1137 4 0.16847 0.331634 0.635607
797 4 0.251068 0.282734 0.594388
791 4 0.266026 0.29326 0.601429
790 2 0.265531 0.316725 0.592807
872 4 0.34129 0.275692 0.599962
871 2 0.344739 0.299576 0.606505
813 4 0.36765 0.32831 0.612606
873 4 0.348188 0.323461 0.613048
953 4 0.485646 0.314641 0.624912
954 4 0.46391 0.2794 0.596871
952 2 0.474778 0.29702 0.610891
906 4 0.499976 0.326021 0.63368
3239 4 0.00857538 0.403829 0.638375
1041 4 0.058316 0.360422 0.642009
3264 4 0.0464086 0.345718 0.640799
3240 4 0.0402715 0.36515 0.638377
3238 2 0.0244234 0.38449 0.638376
1039 2 0.0806772 0.371565 0.641015
1040 4 0.103038 0.382708 0.64002
993 4 0.118735 0.371686 0.64639
991 2 0.139199 0.357342 0.645589
992 4 0.159664 0.342998 0.644788
1064 4 0.176151 0.343162 0.648658
897 4 0.172888 0.349505 0.630691
1189 2 0.235449 0.366229 0.582534
896 4 0.200382 0.379532 0.601653
895 2 0.186635 0.364519 0.616172
1172 4 0.206907 0.396719 0.599246
1191 4 0.215156 0.378712 0.59012
1238 4 0.27558 0.355391 0.579091
792 4 0.265037 0.340189 0.584184
1239 4 0.316643 0.374223 0.600536
1237 2 0.296111 0.364807 0.589814
930 4 0.328126 0.36787 0.585496
811 2 0.375502 0.348457 0.625161
1204 2 0.384057 0.395598 0.668118
1206 4 0.377628 0.383602 0.647143
927 4 0.388872 0.384647 0.630175
812 4 0.383354 0.368605 0.637716
925 2 0.396892 0.399195 0.611488
539 4 0.11405 0.435195 0.587941
538 2 0.115431 0.459644 0.582889
1171 2 0.207763 0.421304 0.603719
1186 2 0.204263 0.482781 0.604673
1173 4 0.20862 0.44589 0.608193
1187 4 0.218228 0.462625 0.60956
926 4 0.404912 0.413744 0.592801
1911 4 0.456577 0.480189 0.584188
1002 4 0.420906 0.425949 0.594183
1001 4 0.449584 0.466874 0.596051
1000 2 0.435245 0.446412 0.595117
1269 4 0.46058 0.480079 0.604122
1267 2 0.460959 0.483148 0.628934
1101 4 0.451353 0.485243 0.669846
1268 4 0.461338 0.486217 0.653745
1076 4 0.0604898 0.0560851 0.667825
1075 2 0.0622565 0.0707331 0.688011
945 4 0.0165912 0.00783382 0.667996
864 4 0.0562841 0.0747857 0.723968
1077 4 0.0640233 0.0853811 0.708198
862 2 0.0402049 0.0739339 0.743097
1283 4 0.175639 0.0619931 0.678051
825 4 0.189092 0.0574288 0.664014
1149 4 0.251269 0.0755948 0.741957
1147 2 0.252407 0.0747552 0.716993
1003 2 0.325861 0.0748452 0.726932
1004 4 0.318069 0.0640458 0.748095
1148 4 0.253545 0.0739157 0.692029
1005 4 0.333652 0.0856446 0.70577
1226 4 0.259867 0.0828476 0.675478
1163 4 0.473723 0.0580537 0.680411
1162 2 0.487837 0.0490813 0.698998
44 3 0.470997 0.0798253 0.677824
851 4 0.071304 0.103283 0.710585
850 2 0.0628176 0.125573 0.70308
852 4 0.0543313 0.147863 0.695576
1107 4 0.0691228 0.0885979 0.724237
1105 2 0.0914311 0.0880608 0.735517
1106 4 0.113739 0.0875237 0.746796
1227 4 0.246423 0.130687 0.669881
1282 2 0.178252 0.0849974 0.687493
1284 4 0.180865 0.108002 0.696935
909 4 0.186856 0.126197 0.701392
907 2 0.208156 0.132061 0.689683
908 4 0.229456 0.137926 0.677975
886 2 0.284093 0.150681 0.669053
887 4 0.308348 0.155799 0.672318
1225 2 0.253145 0.106767 0.67268
829 2 0.330849 0.122232 0.688198
830 4 0.319971 0.142546 0.678492
831 4 0.341727 0.101919 0.697904
1130 4 0.150804 0.23678 0.742002
1208 4 0.141013 0.248091 0.730262
1074 4 0.133926 0.247921 0.747548
977 4 0.307477 0.225414 0.739603
1298 4 0.293171 0.215288 0.748486
976 2 0.328619 0.234991 0.730303
978 4 0.349761 0.244567 0.721003
1025 4 0.404904 0.181791 0.684209
3270 4 0.503143 0.170994 0.716162
1146 4 0.497762 0.18596 0.705142
1024 2 0.420586 0.191005 0.701366
1142 4 0.443163 0.19822 0.735926
1144 2 0.475381 0.194968 0.711707
1262 4 0.439804 0.217413 0.711651
1026 4 0.436268 0.200218 0.718523
1261 2 0.436126 0.239515 0.72275
1145 4 0.452999 0.203976 0.718272
1177 2 0.0138472 0.266598 0.727411
1179 4 0.0331151 0.281722 0.73243
820 2 0.156721 0.310507 0.67086
1207 2 0.137157 0.264366 0.711677
821 4 0.149447 0.293898 0.688076
1209 4 0.133302 0.280642 0.693091
805 2 0.219957 0.329876 0.709183
806 4 0.23286 0.312067 0.721079
1018 2 0.377737 0.262012 0.73326
1020 4 0.365413 0.254579 0.712813
1263 4 0.432448 0.261616 0.73385
893 4 0.00705321 0.335903 0.731573
892 2 0.0260959 0.351688 0.727918
1279 2 0.0559147 0.396755 0.744219
1280 4 0.0511826 0.372285 0.742211
816 4 0.0585786 0.356256 0.733754
814 2 0.0819513 0.347784 0.731084
894 4 0.0451386 0.367474 0.724262
815 4 0.105324 0.339313 0.728414
942 4 0.119252 0.346843 0.73985
940 2 0.136606 0.363574 0.746488
1063 2 0.189805 0.352716 0.667298
1065 4 0.203459 0.36227 0.685938
807 4 0.207054 0.347686 0.697286
1028 4 0.211479 0.37727 0.694601
1066 2 0.185044 0.370007 0.724121
1068 4 0.199807 0.3654 0.704474
1027 2 0.224571 0.397722 0.688642
1067 4 0.170282 0.374614 0.743769
1205 4 0.390487 0.407593 0.689093
1281 4 0.0606468 0.421224 0.746226
1983 4 0.0662398 0.438885 0.739518
1176 4 0.174025 0.484222 0.730963
1140 4 0.244294 0.42979 0.669041
1175 4 0.197516 0.478684 0.687166
1174 2 0.18577 0.481453 0.709064
1029 4 0.237663 0.418174 0.682683
2026 2 0.268723 0.501146 0.686557
1138 2 0.262402 0.445355 0.676457
1139 4 0.280511 0.460921 0.683872
1987 2 0.282171 0.464974 0.733775
1229 4 0.294232 0.471081 0.693997
1989 4 0.284709 0.473255 0.71032
2028 4 0.279201 0.478973 0.691428
1228 2 0.315426 0.459597 0.687355
1230 4 0.33662 0.448112 0.680714
1099 2 0.435241 0.469081 0.680062
1100 4 0.419129 0.452919 0.690278
2989 2 0.0200264 0.0458765 0.79113
2990 4 0.022879 0.0669775 0.778024
2991 4 0.0171737 0.0247755 0.804237
3083 4 0.00675132 0.0678712 0.765604
863 4 0.0241257 0.0730821 0.762226
2049 4 0.111489 0.0208357 0.758137
1202 4 0.112909 0.027505 0.777143
1201 2 0.122604 0.050546 0.777696
1203 4 0.132299 0.0735869 0.778249
32 3 0.146491 0.0812467 0.7939
1085 4 0.32348 0.0734392 0.807263
1084 2 0.299476 0.0771326 0.80132
960 4 0.336839 0.0800974 0.821425
819 4 0.34221 0.0703488 0.806591
817 2 0.348562 0.0466562 0.801744
818 4 0.354914 0.0229637 0.796897
974 4 0.356289 0.00465291 0.790494
2322 4 0.49444 0.0513063 0.782006
845 4 0.499282 0.0700217 0.789592
844 2 0.491573 0.0744329 0.812965
2320 2 0.496167 0.0414721 0.759083
833 4 0.0128932 0.0829144 0.775596
832 2 0.018235 0.101355 0.791614
834 4 0.0235767 0.119796 0.807632
1125 4 0.03183 0.132522 0.819181
911 4 0.135489 0.0962517 0.80397
34 3 0.127285 0.0891701 0.762579
31 1 0.141052 0.09796 0.77906
35 3 0.130209 0.114622 0.790171
33 3 0.160552 0.106178 0.76954
910 2 0.12987 0.0954996 0.828323
1256 4 0.222279 0.120154 0.809426
840 4 0.210414 0.134754 0.816622
1255 2 0.238925 0.102231 0.804242
1257 4 0.255571 0.0843089 0.799059
1086 4 0.275471 0.0808259 0.795377
48 3 0.405898 0.164401 0.780923
1072 2 0.111962 0.245552 0.75926
1073 4 0.0899989 0.243182 0.770972
1129 2 0.167564 0.242366 0.759697
1131 4 0.184323 0.247952 0.777392
918 4 0.298964 0.232589 0.755411
1297 2 0.280028 0.194654 0.75365
1299 4 0.266884 0.174019 0.758814
46 1 0.400875 0.179551 0.797765
1043 4 0.392491 0.206767 0.793242
49 3 0.378356 0.185091 0.796979
1042 2 0.386465 0.229802 0.785609
47 3 0.405436 0.169834 0.818111
50 3 0.413578 0.198303 0.795392