ITEM: TIMESTEP
1020000
ITEM: NUMBER OF ATOMS
4590
ITEM: BOX BOUNDS pp pp pp
-9.9985700000000008e+00 9.9985700000000008e+00
-9.9985700000000008e+00 9.9985700000000008e+00
-9.9985700000000008e+00 9.9985700000000008e+00
ITEM: ATOMS id type xs ys zs
1668 4 0.0489873 0.0572823 0.0860893
1475 4 0.278671 0.0230804 0.0655662
492 4 0.268202 0.0388999 0.0735096
1474 2 0.289115 0.000498032 0.0680421
297 4 0.317799 0.088965 0.0517205
1607 4 0.388388 0.0263079 0.994186
747 4 0.45924 0.059384 0.0180277
2974 2 0.469575 0.0209444 0.033995
2976 4 0.479931 0.00147364 0.0457775
2975 4 0.45922 0.0404153 0.0222125
986 4 0.443913 0.046925 0.0128659
745 2 0.445828 0.080411 0.0162543
985 2 0.425605 0.0333828 0.00254185
1247 4 0.00853204 0.109871 0.0108566
566 4 0.151221 0.148323 0.0503802
565 2 0.170365 0.162429 0.0426544
358 2 0.340864 0.160646 0.0583486
295 2 0.340303 0.0912468 0.0410662
296 4 0.362808 0.0935287 0.0304118
557 4 0.366551 0.0913499 0.00957158
556 2 0.390634 0.0979426 0.00826044
769 2 0.39622 0.151311 0.0397902
359 4 0.363544 0.1542 0.0500279
558 4 0.414717 0.104535 0.0069493
771 4 0.413254 0.134418 0.0327425
746 4 0.432415 0.101438 0.014481
567 4 0.18951 0.176535 0.0349286
360 4 0.318183 0.167092 0.0666694
770 4 0.379186 0.168203 0.0468379
664 2 0.381149 0.211484 0.039071
665 4 0.381342 0.186752 0.0427463
666 4 0.380957 0.236215 0.0353956
555 4 0.0662029 0.272541 0.0550871
553 2 0.0857449 0.267708 0.0402571
554 4 0.105287 0.262875 0.0254272
287 4 0.156228 0.306036 0.0493953
292 2 0.14678 0.279098 0.0173282
293 4 0.150654 0.29214 0.0383065
507 4 0.158554 0.289829 0.058261
286 2 0.151199 0.329688 0.0430333
505 2 0.181122 0.292248 0.0687494
506 4 0.20369 0.294668 0.0792378
481 2 0.232617 0.272802 0.0753507
482 4 0.252188 0.266711 0.0610307
573 4 0.258295 0.265594 0.043151
571 2 0.26246 0.261983 0.0187624
323 4 0.398725 0.26171 0.073699
322 2 0.397853 0.273674 0.0517608
1069 2 0.390192 0.305637 0.00280413
324 4 0.396982 0.285638 0.0298226
1070 4 0.407769 0.295753 0.0175868
739 2 0.357651 0.328484 0.067636
957 4 0.360202 0.328719 0.997882
955 2 0.339156 0.341874 0.99485
671 4 0.438912 0.309473 0.0651255
280 2 0.441799 0.301504 0.0347997
281 4 0.455452 0.304973 0.0554577
282 4 0.428146 0.298036 0.0141417
288 4 0.14617 0.353339 0.0366713
456 4 0.170759 0.346853 0.0893675
250 2 0.309284 0.39095 0.0376519
251 4 0.29882 0.38343 0.0162246
252 4 0.319749 0.39847 0.0590791
609 4 0.3157 0.415256 0.0702265
741 4 0.369463 0.331871 0.0458607
495 4 0.412427 0.377404 0.0933127
3347 4 0.494519 0.347078 0.998589
328 2 0.998201 0.427769 0.00342174
245 4 0.235277 0.444127 0.0526122
626 4 0.217306 0.454461 0.0552699
244 2 0.248116 0.462432 0.0414206
625 2 0.202588 0.445712 0.0734913
246 4 0.260954 0.480738 0.0302289
272 4 0.277989 0.479262 0.0212986
563 4 0.469351 0.47606 0.0483284
228 4 0.473487 0.474717 0.0673808
562 2 0.450224 0.479774 0.0326594
564 4 0.431096 0.483488 0.0169903
854 4 0.42604 0.467365 0.00630311
1666 2 0.0705017 0.0618989 0.0979635
19 3 0.0584055 0.0752291 0.153722
18 3 0.0708984 0.0393878 0.155657
16 1 0.0633312 0.0575632 0.167937
1667 4 0.0920161 0.0665155 0.109838
701 4 0.100889 0.0842325 0.115387
1539 4 0.165058 0.00149941 0.162434
490 2 0.260112 0.050549 0.0941016
491 4 0.252023 0.0621981 0.114694
310 2 0.388939 0.0863479 0.16794
2722 2 0.476022 0.0527825 0.153589
2723 4 0.453865 0.064175 0.155695
2724 4 0.49818 0.0413899 0.151484
476 4 0.0747399 0.134758 0.144553
702 4 0.0790155 0.114327 0.148803
700 2 0.089952 0.0992799 0.132095
449 4 0.213311 0.0907765 0.171086
582 4 0.275437 0.143349 0.147233
580 2 0.291487 0.132397 0.162969
581 4 0.307537 0.121445 0.178705
628 2 0.390725 0.13528 0.13067
630 4 0.386178 0.154083 0.114829
312 4 0.403613 0.0990449 0.152172
629 4 0.395272 0.116477 0.146512
2625 4 0.0153676 0.189062 0.105903
738 4 0.169792 0.22036 0.12057
737 4 0.207138 0.188364 0.129637
736 2 0.188465 0.204362 0.125104
277 2 0.233244 0.237928 0.161697
461 4 0.305664 0.224917 0.0920292
460 2 0.330249 0.224464 0.0965611
354 4 0.291351 0.231453 0.102755
278 4 0.257742 0.241538 0.158229
352 2 0.281278 0.235853 0.125214
353 4 0.271206 0.240253 0.147672
284 4 0.271522 0.234103 0.167897
462 4 0.354834 0.224011 0.101093
254 4 0.381689 0.172527 0.117216
255 4 0.372178 0.221125 0.110251
253 2 0.376933 0.196826 0.113733
765 4 0.370747 0.223358 0.142454
624 4 0.37297 0.233721 0.125518
622 2 0.380103 0.249731 0.107686
763 2 0.351103 0.223511 0.157923
646 2 0.0682712 0.31546 0.162925
648 4 0.0457618 0.310736 0.153118
339 4 0.0824595 0.266317 0.123021
337 2 0.0868067 0.260294 0.146896
483 4 0.213046 0.278893 0.0896707
536 4 0.21093 0.30698 0.144417
535 2 0.211395 0.327906 0.13074
754 2 0.267802 0.281829 0.153892
755 4 0.263174 0.257807 0.148727
756 4 0.272431 0.305852 0.159057
623 4 0.387236 0.265741 0.0898542
740 4 0.345838 0.325098 0.0894114
670 2 0.429512 0.323688 0.0834221
528 4 0.460129 0.264711 0.119563
518 4 0.473393 0.256793 0.105764
526 2 0.453092 0.282592 0.135561
527 4 0.446054 0.300472 0.151559
517 2 0.495771 0.259892 0.0950489
551 4 0.075114 0.365726 0.111668
552 4 0.113456 0.38212 0.0840672
550 2 0.0942852 0.373923 0.0978676
454 2 0.151521 0.36282 0.0897387
455 4 0.132283 0.378787 0.0901099
537 4 0.21186 0.348832 0.117063
415 2 0.190639 0.418374 0.162211
416 4 0.212482 0.40689 0.158188
302 4 0.317778 0.354023 0.147756
387 4 0.314331 0.337854 0.135948
385 2 0.333178 0.338386 0.119526
15 3 0.366441 0.349831 0.0946773
386 4 0.352025 0.338919 0.103104
11 1 0.384226 0.356705 0.10713
13 3 0.378114 0.358301 0.129457
14 3 0.391761 0.377278 0.09949
12 3 0.401243 0.341353 0.105157
493 2 0.412184 0.402278 0.0907806
672 4 0.420111 0.337902 0.101719
596 4 0.473104 0.400038 0.169129
1791 4 0.0584901 0.492971 0.149627
315 4 0.00231222 0.425615 0.148002
417 4 0.168797 0.429859 0.166234
637 2 0.252163 0.501736 0.158493
627 4 0.187871 0.436962 0.0917128
639 4 0.228008 0.507583 0.161238
607 2 0.323691 0.424142 0.0921887
767 4 0.291832 0.482619 0.157073
638 4 0.276318 0.495889 0.155748
766 2 0.289667 0.460493 0.168515
525 4 0.377013 0.479885 0.103891
608 4 0.331683 0.433029 0.114151
658 2 0.376122 0.437432 0.108193
659 4 0.352275 0.439638 0.115382
660 4 0.399968 0.435226 0.101005
494 4 0.411942 0.427152 0.0882485
226 2 0.48083 0.465717 0.0895227
227 4 0.488172 0.456716 0.111665
1420 2 0.0430393 0.00432432 0.169727
20 3 0.079186 0.0639029 0.183006
17 3 0.0441954 0.0514995 0.179171
2480 4 0.0298783 0.0377676 0.181339
1422 4 0.0351994 0.0195416 0.187952
2479 2 0.00578396 0.0443013 0.182736
674 4 0.156448 0.0136481 0.23828
688 2 0.192295 0.000243005 0.222976
448 2 0.206649 0.0736185 0.188009
1506 4 0.235263 0.0259358 0.177583
450 4 0.199987 0.0564605 0.204932
691 2 0.216998 0.0815913 0.241706
689 4 0.174918 0.0156235 0.232285
1504 2 0.22799 0.00225743 0.180991
652 2 0.278799 0.0245984 0.173453
653 4 0.302488 0.0179438 0.169011
654 4 0.25511 0.0312529 0.177894
25 3 0.320295 0.064948 0.234727
311 4 0.374265 0.0736509 0.183708
758 4 0.368247 0.0534585 0.188589
759 4 0.343078 0.0654995 0.23009
757 2 0.355663 0.059479 0.20934
578 4 0.0708093 0.126104 0.237026
379 2 0.0114187 0.116735 0.187716
381 4 0.0259313 0.130404 0.202807
512 4 0.029319 0.150267 0.202343
475 2 0.0813876 0.145913 0.16592
477 4 0.0880353 0.157067 0.187288
577 2 0.091548 0.11305 0.232057
579 4 0.112287 0.0999971 0.227088
236 4 0.216657 0.108825 0.163803
237 4 0.227163 0.15759 0.160286
235 2 0.22191 0.133207 0.162044
693 4 0.233238 0.0869341 0.22346
28 3 0.303706 0.138012 0.247251
521 4 0.490629 0.164429 0.240121
511 2 0.0396387 0.166567 0.218249
513 4 0.0499585 0.182867 0.234154
363 4 0.0817295 0.245407 0.18567
394 2 0.00748598 0.244978 0.217885
395 4 0.018731 0.25108 0.196403
393 4 0.0588868 0.200391 0.233928
279 4 0.208747 0.234318 0.165166
546 4 0.164199 0.171486 0.244774
283 2 0.295081 0.235274 0.176191
285 4 0.318639 0.236445 0.184485
27 3 0.304456 0.175393 0.243408
764 4 0.331459 0.223665 0.173392
520 2 0.501514 0.181595 0.22556
338 4 0.0911539 0.254271 0.17077
749 4 0.101478 0.276386 0.233931
647 4 0.0907807 0.320184 0.172733
748 2 0.096643 0.296676 0.247719
361 2 0.0965023 0.254872 0.203485
371 4 0.161684 0.298222 0.192574
370 2 0.142045 0.284266 0.199259
372 4 0.122406 0.270309 0.205944
362 4 0.111275 0.264336 0.2213
300 4 0.106441 0.327141 0.251647
344 4 0.257247 0.320474 0.239417
612 4 0.275472 0.320805 0.172657
610 2 0.268605 0.317735 0.196502
307 2 0.306502 0.305061 0.235969
308 4 0.307797 0.285529 0.220412
611 4 0.261737 0.314665 0.220347
264 4 0.0377727 0.431216 0.232783
303 4 0.315686 0.361768 0.197115
301 2 0.316732 0.357895 0.172436
729 4 0.330253 0.362274 0.210467
727 2 0.341028 0.369795 0.231739
644 4 0.400735 0.392909 0.24214
728 4 0.351803 0.377315 0.253012
595 2 0.459254 0.399565 0.189941
597 4 0.445403 0.399091 0.210752
643 2 0.42509 0.394302 0.23666
645 4 0.449446 0.395694 0.23118
262 2 0.012885 0.428958 0.23361
291 4 0.219301 0.420904 0.174034
289 2 0.243623 0.426654 0.174775
290 4 0.267945 0.432404 0.175516
768 4 0.287502 0.438366 0.179956
231 4 0.447253 0.463026 0.210821
229 2 0.435149 0.48448 0.206535
234 4 0.00782313 0.0417762 0.309921
232 2 0.0252488 0.0350664 0.293292
233 4 0.0426744 0.0283566 0.276664
1404 4 0.0587353 0.0314828 0.289238
1402 2 0.0783219 0.0189525 0.280044
673 2 0.137021 0.0119197 0.253926
675 4 0.117594 0.0101913 0.269572
1403 4 0.0979086 0.00642224 0.27085
692 4 0.200759 0.0762485 0.259952
723 4 0.209375 0.0873565 0.273565
23 3 0.32921 0.0560391 0.270207
22 3 0.354921 0.0710284 0.247253
21 1 0.332615 0.0710824 0.252872
743 4 0.487609 0.0765581 0.264984
479 4 0.474174 0.0532112 0.303338
478 2 0.453531 0.0673054 0.303986
2664 4 0.48666 0.0436988 0.315968
480 4 0.432889 0.0813996 0.304633
398 4 0.0492442 0.124714 0.345393
397 2 0.0648722 0.107785 0.335678
399 4 0.0805003 0.0908569 0.325964
721 2 0.217677 0.093116 0.296436
722 4 0.225979 0.0988754 0.319307
249 4 0.233197 0.112056 0.334269
24 3 0.326637 0.0924559 0.259642
29 3 0.330074 0.158651 0.265228
26 1 0.307995 0.158062 0.258114
30 3 0.294021 0.160384 0.275946
632 4 0.379903 0.0983792 0.252997
707 4 0.347183 0.154641 0.27467
633 4 0.356225 0.141366 0.262599
631 2 0.368064 0.119872 0.257798
706 2 0.351777 0.152008 0.299106
350 4 0.397748 0.0900059 0.25074
708 4 0.356371 0.149375 0.323543
333 4 0.471284 0.103842 0.26272
331 2 0.480258 0.126484 0.257065
332 4 0.489232 0.149126 0.25141
351 4 0.431869 0.0908974 0.287287
349 2 0.414809 0.0904516 0.269014
443 4 0.000136383 0.220881 0.247256
391 2 0.0672989 0.195122 0.256877
392 4 0.0757111 0.189852 0.279826
388 2 0.112321 0.223293 0.305195
390 4 0.114734 0.240619 0.28733
389 4 0.109908 0.205966 0.32306
545 4 0.175086 0.212208 0.27168
544 2 0.169643 0.191847 0.258227
400 2 0.169778 0.238757 0.299674
402 4 0.182667 0.222068 0.286236
717 4 0.392708 0.23043 0.332167
762 4 0.479377 0.166604 0.255024
761 4 0.462183 0.188494 0.296569
760 2 0.47078 0.177549 0.275797
750 4 0.0918078 0.316966 0.261507
401 4 0.156889 0.255445 0.313111
676 2 0.202754 0.323868 0.326591
735 4 0.200905 0.341415 0.285949
345 4 0.225227 0.309846 0.276328
677 4 0.199877 0.335339 0.304561
343 2 0.241237 0.31516 0.257872
496 2 0.2926 0.303681 0.288412
497 4 0.285309 0.295811 0.310997
377 4 0.292654 0.297255 0.330139
498 4 0.29989 0.311551 0.265826
309 4 0.305207 0.324592 0.251527
541 2 0.391099 0.30807 0.331643
543 4 0.383941 0.324967 0.314661
615 4 0.369266 0.329182 0.326935
365 4 0.0188304 0.377809 0.289729
601 2 0.045769 0.390689 0.301157
603 4 0.0362612 0.36932 0.292315
602 4 0.0552768 0.412057 0.309998
298 2 0.122204 0.341667 0.26452
299 4 0.137966 0.356193 0.277393
734 4 0.152094 0.342524 0.275136
733 2 0.176499 0.34197 0.280543
434 4 0.329153 0.382402 0.33133
614 4 0.335903 0.366042 0.321561
447 4 0.389849 0.398441 0.25757
613 2 0.352584 0.347612 0.324248
445 2 0.377105 0.38642 0.27541
446 4 0.36436 0.3744 0.293251
753 4 0.465542 0.39539 0.334179
549 4 0.068517 0.417439 0.321898
2463 4 0.00210733 0.464497 0.312799
2461 2 0.0151133 0.484056 0.321369
547 2 0.0789795 0.431318 0.339873
1757 4 0.0976142 0.46197 0.271206
777 4 0.106017 0.484435 0.297568
775 2 0.114709 0.482827 0.320957
1756 2 0.10713 0.482832 0.261235
1436 4 0.256133 0.501139 0.322512
1437 4 0.275829 0.455206 0.320794
1435 2 0.265981 0.478173 0.321653
436 2 0.335611 0.45875 0.318838
437 4 0.346677 0.44528 0.300913
118 3 0.48913 0.427991 0.323568
316 2 0.0633865 0.0522044 0.332987
317 4 0.0566821 0.0281203 0.333416
318 4 0.0700909 0.0762886 0.332558
428 4 0.0600183 0.00881729 0.328586
367 2 0.0816351 0.0249165 0.417255
1781 4 0.111774 0.00355491 0.41722
368 4 0.106137 0.0216262 0.413514
606 4 0.137496 0.0819341 0.375194
732 4 0.090257 0.0786435 0.336198
730 2 0.111673 0.0741892 0.348309
731 4 0.13309 0.0697349 0.36042
1700 4 0.307138 0.0260612 0.35128
1699 2 0.305347 0.0012591 0.353893
683 4 0.266598 0.0675278 0.390913
699 4 0.341637 0.0253519 0.344313
697 2 0.362592 0.0347194 0.354229
698 4 0.383547 0.0440869 0.364145
257 4 0.400681 0.035543 0.357135
426 4 0.380934 0.0196389 0.401891
258 4 0.435593 0.00526332 0.338031
1428 4 0.454623 0.00891492 0.334174
256 2 0.418137 0.0204032 0.347583
458 4 0.0224911 0.133476 0.403131
2586 4 0.0252209 0.123419 0.384709
2584 2 0.00784495 0.109496 0.373333
598 2 0.152689 0.142505 0.355522
600 4 0.148308 0.122687 0.370125
604 2 0.160845 0.0908781 0.375263
404 4 0.250062 0.12183 0.336051
605 4 0.184194 0.0998221 0.375332
248 4 0.200528 0.0916146 0.366137
247 2 0.216863 0.101835 0.350203
403 2 0.248037 0.146715 0.337405
682 2 0.281779 0.0825383 0.403929
320 4 0.304058 0.11446 0.410054
684 4 0.296959 0.0975487 0.416945
321 4 0.319689 0.161451 0.40311
319 2 0.311873 0.137956 0.406582
599 4 0.15707 0.162323 0.34092
686 4 0.144222 0.207844 0.401269
275 4 0.165568 0.238099 0.376728
474 4 0.220474 0.216065 0.353797
276 4 0.203192 0.223781 0.34706
472 2 0.239408 0.202494 0.344715
274 2 0.18438 0.23094 0.361894
405 4 0.246011 0.171599 0.33876
473 4 0.258342 0.188922 0.335632
715 2 0.400679 0.214651 0.34985
466 2 0.393153 0.196765 0.40663
716 4 0.408649 0.198872 0.367532
452 4 0.461292 0.167512 0.394497
467 4 0.400513 0.2062 0.384676
269 4 0.462774 0.232951 0.354107
268 2 0.47844 0.232058 0.373573
270 4 0.494106 0.231165 0.39304
346 2 0.0414536 0.326658 0.385189
347 4 0.0572046 0.312851 0.371534
618 4 0.0754486 0.315602 0.377294
616 2 0.0980194 0.305619 0.373283
617 4 0.12059 0.295637 0.369272
374 4 0.140632 0.298253 0.368055
678 4 0.20563 0.312397 0.348621
375 4 0.18867 0.305241 0.356046
373 2 0.164651 0.301747 0.36205
509 4 0.240884 0.337202 0.352401
376 2 0.280853 0.280105 0.343987
378 4 0.269051 0.262954 0.357835
542 4 0.398257 0.291172 0.348626
420 4 0.415509 0.280961 0.351357
419 4 0.450653 0.246151 0.344013
418 2 0.433081 0.263556 0.347685
348 4 0.0257025 0.340465 0.398844
510 4 0.240705 0.365249 0.393802
508 2 0.240794 0.351225 0.373101
433 2 0.304698 0.377267 0.330442
435 4 0.280244 0.372133 0.329554
561 4 0.4583 0.394634 0.40007
751 2 0.467863 0.393947 0.359033
752 4 0.470185 0.392504 0.383887
559 2 0.478658 0.397809 0.414235
681 4 0.0113527 0.422173 0.413992
500 4 0.11197 0.493357 0.354259
407 4 0.107217 0.441129 0.366683
548 4 0.089442 0.445196 0.357847
406 2 0.112758 0.442059 0.391047
776 4 0.123401 0.48122 0.344346
408 4 0.118299 0.44299 0.415411
1544 4 0.21418 0.496017 0.413403
1556 4 0.22399 0.479652 0.413039
5 3 0.292134 0.493367 0.35561
438 4 0.324545 0.47222 0.336762
3 3 0.31124 0.461166 0.351641
1 1 0.312708 0.483698 0.356986
4 3 0.321221 0.486215 0.378424
2 3 0.326916 0.493964 0.34209
1742 4 0.406873 0.49526 0.337255
594 4 0.406866 0.493168 0.35575
592 2 0.405922 0.48567 0.379584
588 4 0.40949 0.458855 0.400612
593 4 0.404979 0.478172 0.403419
713 4 0.420648 0.483663 0.343577
714 4 0.467053 0.465661 0.338755
712 2 0.44385 0.474662 0.341166
119 3 0.48616 0.464571 0.333442
116 1 0.496388 0.444331 0.338357
117 3 0.490638 0.438093 0.359739
718 2 0.0393518 0.00998242 0.449945
720 4 0.0199174 0.996597 0.458209
719 4 0.0587861 0.0233683 0.44168
369 4 0.057133 0.0282067 0.420997
441 4 0.316215 0.021596 0.423208
962 4 0.307036 0.0162661 0.441651
961 2 0.304686 0.0318338 0.461075
963 4 0.302336 0.0474015 0.480499
432 4 0.294641 0.0527571 0.498471
425 4 0.335352 0.0250276 0.421739
424 2 0.358143 0.0223332 0.411815
725 4 0.404631 0.0821037 0.439082
457 2 0.0335618 0.145864 0.421817
459 4 0.0446324 0.158252 0.440503
260 4 0.0614914 0.160876 0.431309
724 2 0.403771 0.106582 0.444109
726 4 0.402911 0.13106 0.449136
451 2 0.450849 0.157365 0.414823
453 4 0.440405 0.147217 0.435149
2878 2 0.497248 0.106276 0.428953
2880 4 0.489077 0.116833 0.450095
640 2 0.48689 0.136391 0.478903
515 4 0.429285 0.159682 0.446765
641 4 0.471832 0.143699 0.497478
259 2 0.0802896 0.177 0.434746
685 2 0.130625 0.196119 0.41867
687 4 0.117028 0.184393 0.436072
261 4 0.0990879 0.193124 0.438182
1035 4 0.111601 0.192352 0.452877
1033 2 0.109832 0.202421 0.475696
489 4 0.331147 0.231364 0.454217
468 4 0.385792 0.18733 0.428584
514 2 0.409729 0.174206 0.452404
411 4 0.333788 0.212752 0.46178
516 4 0.390173 0.18873 0.458043
409 2 0.354085 0.200784 0.453416
410 4 0.374382 0.188815 0.445051
575 4 0.390864 0.193668 0.477009
266 4 0.364956 0.238533 0.441064
574 2 0.385948 0.188497 0.500973
305 4 0.490171 0.162341 0.429316
2847 4 0.0103723 0.322754 0.488532
695 4 0.0480495 0.254155 0.485694
694 2 0.0717869 0.260157 0.490763
696 4 0.0955242 0.266159 0.495832
1258 2 0.118854 0.291515 0.484794
1260 4 0.104589 0.271719 0.479335
1259 4 0.13312 0.311311 0.490253
9 3 0.134897 0.331526 0.488658
487 2 0.319329 0.250739 0.443723
649 2 0.256985 0.247985 0.500989
651 4 0.266015 0.270879 0.505405
488 4 0.307511 0.270115 0.43323
267 4 0.382744 0.280895 0.460808
265 2 0.37385 0.259714 0.450936
583 2 0.473183 0.252414 0.469645
585 4 0.45271 0.247777 0.456061
584 4 0.493656 0.25705 0.48323
326 4 0.055939 0.357004 0.454438
325 2 0.0764536 0.359691 0.468477
384 4 0.109555 0.407817 0.47052
6 1 0.128881 0.353932 0.489095
327 4 0.0969681 0.362378 0.482517
7 3 0.107654 0.355764 0.497768
711 4 0.141654 0.402686 0.424963
10 3 0.129117 0.362454 0.467977
709 2 0.159159 0.388892 0.436297
8 3 0.143549 0.365811 0.502591
504 4 0.195713 0.380864 0.446067
502 2 0.214557 0.390256 0.432581
710 4 0.176664 0.375097 0.447631
503 4 0.233402 0.399648 0.419096
772 2 0.284255 0.408372 0.492472
669 4 0.298607 0.405997 0.456778
668 4 0.320522 0.379028 0.420818
667 2 0.309565 0.392512 0.438798
336 4 0.336276 0.366809 0.423677
880 2 0.347788 0.411726 0.485161
882 4 0.356199 0.408348 0.461858
335 4 0.384329 0.354722 0.430426
334 2 0.360303 0.360765 0.427051
238 2 0.411577 0.38726 0.430848
240 4 0.399946 0.36599 0.424726
560 4 0.499016 0.400985 0.4284
239 4 0.423208 0.408531 0.43697
1381 2 0.0320355 0.499724 0.447007
1383 4 0.0428972 0.478243 0.440243
680 4 0.0330436 0.462728 0.433626
679 2 0.0221981 0.44245 0.423809
569 4 0.117981 0.458352 0.427092
568 2 0.132832 0.478364 0.429127
570 4 0.147683 0.498376 0.431162
382 2 0.110473 0.425072 0.452448
383 4 0.111391 0.442327 0.434377
1555 2 0.242388 0.480516 0.429949
1543 2 0.190155 0.499936 0.419112
634 2 0.286702 0.460325 0.460145
635 4 0.294386 0.436903 0.464332
636 4 0.279019 0.483748 0.455957
1557 4 0.260785 0.48138 0.44686
774 4 0.29314 0.418805 0.471558
587 4 0.416391 0.426858 0.438418
586 2 0.412941 0.442856 0.419515
663 4 0.4629 0.45803 0.47022
661 2 0.462225 0.483023 0.469974
1058 4 0.130012 0.0771538 0.564887
342 4 0.212769 0.0706063 0.501352
340 2 0.219152 0.0468155 0.505646
2430 4 0.217681 0.00524489 0.51543
341 4 0.225534 0.0230247 0.50994
430 2 0.310316 0.0554187 0.517769
431 4 0.32599 0.0580802 0.537067
843 4 0.336125 0.0760655 0.543789
1031 4 0.292399 0.0777289 0.579711
1217 4 0.400937 0.0811375 0.543416
1216 2 0.407945 0.0589311 0.534309
841 2 0.35992 0.082131 0.5485
1218 4 0.414954 0.0367247 0.525202
3007 2 0.489378 0.0494456 0.567031
3008 4 0.470193 0.0575444 0.58087
470 4 0.0345317 0.147986 0.526184
1057 2 0.134093 0.100683 0.572295
939 4 0.114749 0.14086 0.580874
1155 4 0.135904 0.143838 0.582072
937 2 0.0898838 0.142058 0.578536
1151 4 0.187408 0.107304 0.554187
1150 2 0.195145 0.0925315 0.535557
1152 4 0.202883 0.0777589 0.516927
1180 2 0.248776 0.137008 0.519835
1181 4 0.225519 0.127844 0.519263
1182 4 0.272032 0.146172 0.520406
900 4 0.288885 0.153417 0.514522
898 2 0.301486 0.160391 0.534962
842 4 0.383715 0.0881965 0.55321
469 2 0.0278468 0.171106 0.519405
471 4 0.0211619 0.194226 0.512626
1199 4 0.022944 0.237016 0.570508
877 2 0.0585887 0.220801 0.577712
879 4 0.0740286 0.201355 0.580654
1034 4 0.108064 0.212489 0.498514
1272 4 0.0858203 0.185918 0.574951
650 4 0.247955 0.225091 0.496574
899 4 0.314086 0.167365 0.555401
576 4 0.381032 0.183327 0.524937
3157 2 0.506365 0.180016 0.566542
3159 4 0.493258 0.158958 0.569691
3065 4 0.510767 0.239058 0.505958
983 4 0.0279763 0.303769 0.554776
1245 4 0.037355 0.299446 0.572396
982 2 0.0252881 0.328377 0.558296
1136 4 0.145957 0.301675 0.569336
948 4 0.166145 0.298264 0.571777
858 4 0.176882 0.253037 0.536256
856 2 0.193266 0.266215 0.522725
798 4 0.204686 0.251144 0.575908
796 2 0.2291 0.256533 0.576246
946 2 0.17752 0.27743 0.579636
857 4 0.20965 0.279393 0.509193
1238 4 0.311995 0.30201 0.58765
1237 2 0.313897 0.325143 0.578354
797 4 0.253513 0.261921 0.576585
791 4 0.270145 0.25204 0.579033
872 4 0.38773 0.263503 0.564506
871 2 0.381775 0.287786 0.564288
873 4 0.375821 0.312069 0.56407
813 4 0.388819 0.326523 0.561021
906 4 0.468196 0.285582 0.551816
953 4 0.452512 0.288937 0.565458
904 2 0.491376 0.286706 0.561122
984 4 0.0225999 0.352985 0.561817
3354 4 0.0171601 0.369286 0.571164
3352 2 0.00105079 0.379412 0.554943
1190 4 0.233846 0.359705 0.563451
803 4 0.224089 0.372035 0.550811
802 2 0.23681 0.362979 0.531283
804 4 0.24953 0.353924 0.511755
930 4 0.326776 0.364702 0.564375
773 4 0.275371 0.397939 0.513386
1239 4 0.315798 0.348276 0.569058
811 2 0.392529 0.349571 0.552067
812 4 0.396238 0.37262 0.543113
927 4 0.411835 0.381033 0.553692
929 4 0.363861 0.395607 0.577427
928 2 0.345319 0.380155 0.570901
926 4 0.441636 0.419558 0.542358
925 2 0.426736 0.400295 0.548025
539 4 0.06192 0.452952 0.536533
538 2 0.0808021 0.466889 0.545159
540 4 0.0996842 0.480826 0.553785
1160 4 0.130781 0.503651 0.554268
1159 2 0.14259 0.481988 0.558327
1161 4 0.154398 0.460326 0.562387
881 4 0.339378 0.415103 0.508464
1951 2 0.365568 0.479755 0.583721
1953 4 0.380273 0.49748 0.573987
1002 4 0.464036 0.440312 0.579364
1000 2 0.450927 0.457841 0.567277
1001 4 0.437818 0.475369 0.55519
1911 4 0.457411 0.483656 0.554603
2114 4 0.0114211 0.0179514 0.590608
945 4 0.042382 0.0251696 0.658413
1083 4 0.0495929 0.0844346 0.613716
823 2 0.152524 0.0149011 0.631507
825 4 0.138469 0.0308514 0.618346
1032 4 0.244902 0.0736701 0.594821
951 4 0.304277 0.0623058 0.587225
949 2 0.310906 0.0403334 0.597147
950 4 0.317535 0.018361 0.607069
1030 2 0.268651 0.0756995 0.587266
2283 4 0.401616 0.0149138 0.61151
2281 2 0.413052 0.997677 0.625555
809 4 0.47772 0.0502138 0.597313
808 2 0.468764 0.0612702 0.617873
42 3 0.453817 0.0614624 0.657301
810 4 0.459808 0.0723266 0.638433
41 1 0.449273 0.0839034 0.659514
43 3 0.42642 0.0866768 0.662429
1082 4 0.0650104 0.0916461 0.660738
938 4 0.0650186 0.143256 0.576197
1126 2 0.0245732 0.0942049 0.58737
1081 2 0.0573017 0.0880404 0.637227
1127 4 0.0478131 0.0945053 0.59659
1059 4 0.138174 0.124213 0.579704
1153 2 0.152115 0.149551 0.600231
45 3 0.456092 0.0948263 0.64073
3425 4 0.467739 0.101699 0.65792
3424 2 0.484371 0.119928 0.653889
3426 4 0.501003 0.138157 0.649859
878 4 0.0431488 0.240247 0.574771
1179 4 0.0254762 0.237173 0.654421
1154 4 0.168326 0.155264 0.61839
1271 4 0.127086 0.209071 0.591129
1270 2 0.106453 0.197494 0.58304
1221 4 0.184372 0.162138 0.610432
1212 4 0.199973 0.194464 0.667725
1219 2 0.188524 0.176979 0.630122
1220 4 0.192676 0.19182 0.649811
888 4 0.258482 0.177782 0.66222
1193 4 0.367541 0.204958 0.660963
1192 2 0.344911 0.194701 0.663764
1243 2 0.0434455 0.276606 0.580546
1244 4 0.049536 0.253766 0.588696
1135 2 0.145373 0.322044 0.583825
947 4 0.188895 0.256597 0.587495
792 4 0.306099 0.284046 0.592586
790 2 0.288122 0.268043 0.585809
807 4 0.317212 0.305846 0.649133
805 2 0.323189 0.330071 0.650747
952 2 0.435889 0.299701 0.580722
954 4 0.419266 0.310464 0.595987
3123 4 0.49678 0.272394 0.654727
1039 2 0.0592662 0.394841 0.608814
1041 4 0.0382487 0.394803 0.622358
3264 4 0.0336724 0.379975 0.635857
3262 2 0.0376464 0.361226 0.651916
3240 4 0.0158769 0.38598 0.641636
1040 4 0.0802838 0.39488 0.59527
3263 4 0.0416205 0.342478 0.667974
897 4 0.152748 0.358885 0.603185
993 4 0.0902348 0.378479 0.596891
1137 4 0.144788 0.342413 0.598315
991 2 0.113443 0.369402 0.594846
992 4 0.136651 0.360325 0.592802
895 2 0.175358 0.368481 0.607863
1189 2 0.224963 0.36983 0.584516
1172 4 0.224364 0.39388 0.618658
1191 4 0.216079 0.379955 0.605582
896 4 0.197968 0.378077 0.612541
1171 2 0.216877 0.417397 0.622663
806 4 0.329166 0.354296 0.652362
1188 4 0.163355 0.453711 0.579653
1173 4 0.209389 0.440915 0.626667
1187 4 0.190713 0.444662 0.620523
1186 2 0.177034 0.449186 0.600088
889 2 0.31291 0.462375 0.593336
891 4 0.29054 0.451335 0.591641
890 4 0.335281 0.473415 0.595031
1230 4 0.331452 0.446484 0.637036
1952 4 0.350864 0.46203 0.593456
1204 2 0.402049 0.412338 0.655987
1206 4 0.422646 0.405249 0.643711
1269 4 0.435088 0.471835 0.627877
1267 2 0.451344 0.480525 0.644771
1268 4 0.4676 0.489215 0.661665
943 2 0.0497731 0.0440967 0.672984
944 4 0.0571641 0.0630239 0.687555
1076 4 0.0626181 0.0767989 0.675136
1283 4 0.130838 0.056943 0.701216
1147 2 0.217589 0.0516832 0.713309
1148 4 0.222847 0.0682111 0.695299
1149 4 0.212331 0.0351553 0.731319
1004 4 0.38202 0.0865854 0.695847
1163 4 0.466669 0.0686759 0.673955
1162 2 0.483429 0.0553035 0.686818
2320 2 0.493832 0.0351515 0.741537
2321 4 0.500809 0.0357759 0.717535
864 4 0.0494084 0.109106 0.723059
1075 2 0.0611022 0.0955148 0.691647
1077 4 0.0595863 0.114231 0.708157
1107 4 0.0610945 0.126158 0.722947
851 4 0.0545405 0.131976 0.704205
850 2 0.0522422 0.154256 0.693091
862 2 0.0337149 0.0987663 0.739551
1105 2 0.0825351 0.124126 0.735649
1282 2 0.134243 0.0808871 0.707561
1284 4 0.137649 0.104831 0.713906
1106 4 0.103976 0.122095 0.748351
909 4 0.15101 0.154767 0.691021
1226 4 0.215022 0.0863098 0.700467
908 4 0.196234 0.139556 0.705992
907 2 0.173622 0.147162 0.698507
1227 4 0.214484 0.134662 0.713215
1225 2 0.214753 0.110486 0.706841
829 2 0.320663 0.139242 0.686572
830 4 0.309314 0.156544 0.672536
1003 2 0.366844 0.105722 0.7012
1005 4 0.351668 0.124859 0.706552
831 4 0.332013 0.12194 0.700608
44 3 0.460666 0.0920764 0.678002
852 4 0.0499439 0.176535 0.681977
1214 4 0.00187937 0.201544 0.737503
1073 4 0.111328 0.211308 0.723635
1072 2 0.104283 0.235256 0.725053
1210 2 0.224913 0.193751 0.669356
1211 4 0.249853 0.193038 0.670988
1194 4 0.322281 0.184444 0.666565
887 4 0.306961 0.176612 0.67443
886 2 0.282722 0.177197 0.668325
1025 4 0.454429 0.179033 0.66443
1262 4 0.476951 0.208794 0.719166
1142 4 0.471647 0.178948 0.721104
1024 2 0.461677 0.186681 0.687105
1141 2 0.461041 0.170072 0.741934
1026 4 0.468924 0.194329 0.70978
1261 2 0.463565 0.229241 0.724448
1145 4 0.485156 0.190493 0.713515
1074 4 0.0972372 0.259205 0.726472
1209 4 0.132719 0.311448 0.704349
1207 2 0.121898 0.289406 0.709064
1208 4 0.111076 0.267364 0.713778
821 4 0.15079 0.317837 0.697834
820 2 0.172615 0.305661 0.698599
822 4 0.194441 0.293485 0.699364
1063 2 0.233598 0.302317 0.700019
1064 4 0.211359 0.297167 0.710221
1065 4 0.255837 0.307468 0.689817
1263 4 0.450178 0.249688 0.72973
892 2 0.018577 0.358499 0.731004
894 4 0.0312529 0.377548 0.720923
1280 4 0.0500635 0.375148 0.72432
1279 2 0.0537932 0.399522 0.720178
816 4 0.0665951 0.370734 0.732977
893 4 0.00590119 0.339449 0.741085
814 2 0.0879669 0.360929 0.74148
815 4 0.109339 0.351124 0.749983
942 4 0.129979 0.352352 0.753893
940 2 0.152601 0.361857 0.749085
1029 4 0.246876 0.405775 0.682805
1028 4 0.225388 0.375029 0.715875
1066 2 0.208872 0.376627 0.743911
1068 4 0.229825 0.367472 0.733795
1027 2 0.236132 0.390402 0.69934
1019 4 0.371124 0.385274 0.735664
1018 2 0.375587 0.409872 0.735198
1981 2 0.0747622 0.454838 0.713329
1281 4 0.0575229 0.423896 0.716036
1983 4 0.0569773 0.439656 0.704476
1982 4 0.0925471 0.47002 0.722182
1140 4 0.242449 0.425241 0.682752
1138 2 0.254588 0.446871 0.685906
1139 4 0.266727 0.468502 0.68906
1987 2 0.329347 0.467959 0.728875
1989 4 0.331069 0.458868 0.705646
1229 4 0.331942 0.452229 0.68671
1228 2 0.331697 0.449357 0.661873
1020 4 0.38005 0.434469 0.734731
1205 4 0.381452 0.419428 0.668262
2991 4 0.9991 0.0337531 0.778684
2989 2 0.0063429 0.0573442 0.774662
2990 4 0.0135858 0.0809354 0.77064
1202 4 0.126308 0.0567724 0.758594
2049 4 0.142425 0.0485063 0.751615
1201 2 0.123272 0.0795203 0.768518
2047 2 0.15109 0.0253138 0.755108
1257 4 0.231057 0.0562016 0.765923
1255 2 0.237848 0.0665332 0.787655
817 2 0.329844 0.0403817 0.811394
819 4 0.316238 0.0606813 0.816685
1085 4 0.307753 0.0770805 0.820129
960 4 0.307745 0.0654244 0.834733
818 4 0.343449 0.0200822 0.806103
1050 4 0.331515 0.0044757 0.779199
975 4 0.39349 0.991286 0.796814
974 4 0.346612 0.00791362 0.791646
973 2 0.370051 0.9996 0.79423
1113 4 0.421507 0.066864 0.788781
2322 4 0.486855 0.0345271 0.76554
1111 2 0.445031 0.0688285 0.797024
845 4 0.484259 0.0693453 0.794373
1112 4 0.468555 0.070793 0.805266
863 4 0.0180214 0.0884268 0.756043
833 4 0.0153272 0.10003 0.772012
832 2 0.0176866 0.109282 0.795121
834 4 0.020046 0.118534 0.81823
1125 4 0.0270779 0.135296 0.825824
1203 4 0.120235 0.102268 0.778443
911 4 0.110552 0.117215 0.809036
34 3 0.112164 0.118727 0.764266
31 1 0.117842 0.127746 0.784877
35 3 0.0992588 0.135997 0.795134
32 3 0.127004 0.111196 0.797966
33 3 0.133505 0.144637 0.782088
1256 4 0.24464 0.0768649 0.809388
840 4 0.25286 0.0944465 0.817473
1084 2 0.312032 0.0955493 0.803827
1086 4 0.316311 0.114018 0.787524
1143 4 0.450434 0.161197 0.762764
1130 4 0.124375 0.211866 0.783535
1129 2 0.149273 0.212285 0.785798
978 4 0.242054 0.222133 0.768011
1131 4 0.17417 0.212704 0.788061
1277 4 0.190777 0.224128 0.778775
1276 2 0.205604 0.243951 0.775252