ITEM: TIMESTEP
1240000
ITEM: NUMBER OF ATOMS
4590
ITEM: BOX BOUNDS pp pp pp
-9.9985700000000008e+00 9.9985700000000008e+00
-9.9985700000000008e+00 9.9985700000000008e+00
-9.9985700000000008e+00 9.9985700000000008e+00
ITEM: ATOMS id type xs ys zs
1668 4 0.100759 0.0402909 0.0706968
1666 2 0.0833555 0.0543751 0.0818294
297 4 0.354857 0.0561355 0.0621735
295 2 0.356433 0.0689426 0.0407568
747 4 0.462807 0.0577658 0.00700729
2974 2 0.472127 0.0235974 0.028898
2976 4 0.484096 0.00529 0.0410124
2975 4 0.460158 0.0419047 0.0167837
986 4 0.445687 0.0469399 0.00527369
2467 2 0.492514 0.99798 0.0818631
745 2 0.454184 0.0801649 0.0140149
2468 4 0.484465 0.996867 0.0582169
566 4 0.143617 0.163312 0.0484737
2264 4 0.285151 0.0949495 0.010755
358 2 0.344508 0.144205 0.0763586
296 4 0.358009 0.0817497 0.0193401
557 4 0.376663 0.0887026 0.0202104
556 2 0.400814 0.0951648 0.0198708
769 2 0.392656 0.146911 0.0469432
359 4 0.361408 0.156801 0.0629082
770 4 0.380113 0.161 0.0633551
827 4 0.364099 0.0947271 0.00659634
771 4 0.405199 0.132823 0.0305313
558 4 0.424966 0.101627 0.0195313
746 4 0.445561 0.102564 0.0210226
565 2 0.162235 0.175115 0.036674
567 4 0.180853 0.186918 0.0248743
664 2 0.38019 0.203407 0.0499347
665 4 0.380021 0.180432 0.0598003
666 4 0.380359 0.226381 0.0400691
555 4 0.0848749 0.289441 0.0467997
553 2 0.0840545 0.288836 0.0218169
286 2 0.148134 0.327357 0.032724
287 4 0.157533 0.305476 0.0251074
292 2 0.169085 0.272624 0.0108246
293 4 0.165223 0.288704 0.0295779
507 4 0.169182 0.302349 0.0422351
505 2 0.187198 0.296322 0.0584916
506 4 0.205214 0.290296 0.074748
481 2 0.239163 0.277426 0.0731762
573 4 0.246447 0.273473 0.0424045
482 4 0.25749 0.269911 0.0579171
571 2 0.254288 0.272347 0.0186889
322 2 0.391067 0.28227 0.0584225
1069 2 0.392933 0.309765 0.00990239
324 4 0.403375 0.291004 0.0384872
1070 4 0.412469 0.30052 0.0224761
957 4 0.358203 0.327825 0.00831606
739 2 0.360894 0.334102 0.0503165
741 4 0.367118 0.33074 0.0263343
671 4 0.459374 0.324353 0.0576152
280 2 0.443979 0.297093 0.0311315
281 4 0.461205 0.306958 0.0463338
282 4 0.426752 0.287228 0.0159291
288 4 0.138734 0.349239 0.0403407
454 2 0.15242 0.370023 0.0761869
455 4 0.129268 0.370715 0.085604
456 4 0.175572 0.369331 0.0667698
250 2 0.282534 0.399329 0.038042
251 4 0.279798 0.380904 0.0213623
740 4 0.354671 0.337463 0.0742986
495 4 0.383263 0.376123 0.0616222
493 2 0.380019 0.399475 0.0699501
14 3 0.380176 0.364356 0.0779203
670 2 0.443211 0.335255 0.0732693
3347 4 0.489106 0.331117 0.994432
245 4 0.243069 0.446137 0.058756
626 4 0.227653 0.446493 0.0697839
625 2 0.203215 0.451253 0.0720949
627 4 0.178778 0.456013 0.0744059
252 4 0.28527 0.417754 0.0547218
609 4 0.298247 0.417118 0.070208
244 2 0.252379 0.453689 0.0368136
246 4 0.261689 0.461241 0.0148713
607 2 0.313979 0.426049 0.0874686
563 4 0.471848 0.471088 0.0518211
228 4 0.484893 0.483058 0.0593616
562 2 0.451935 0.474053 0.0369929
564 4 0.432023 0.477018 0.0221648
854 4 0.419058 0.469731 0.00933692
1674 4 0.428229 0.495932 0.0256141
226 2 0.498756 0.471568 0.0767105
19 3 0.0479456 0.0752849 0.148693
18 3 0.0613484 0.0403146 0.142223
16 1 0.0564746 0.0560809 0.158535
1667 4 0.0659521 0.0684593 0.0929621
701 4 0.0795511 0.0795399 0.106768
1475 4 0.271033 0.011115 0.0801741
492 4 0.277294 0.0159084 0.0985195
491 4 0.277656 0.0547263 0.130043
490 2 0.277475 0.0353173 0.114281
654 4 0.264096 0.0302095 0.178986
486 4 0.379235 0.0334086 0.0922444
484 2 0.379971 0.0192916 0.112868
485 4 0.380706 0.00517459 0.133492
2469 4 0.500564 0.999094 0.105509
2723 4 0.451672 0.0527644 0.164514
1760 4 0.501291 0.0249905 0.158885
700 2 0.0866134 0.0997055 0.119755
476 4 0.0930763 0.126158 0.150882
702 4 0.0936757 0.119871 0.132741
360 4 0.327607 0.13161 0.089809
581 4 0.291436 0.108955 0.158464
580 2 0.270391 0.12132 0.163886
628 2 0.37662 0.137203 0.139057
630 4 0.372439 0.154744 0.121736
312 4 0.394878 0.108141 0.162773
629 4 0.380801 0.119662 0.156377
339 4 0.0800814 0.249596 0.123405
337 2 0.0787536 0.246074 0.148124
738 4 0.193618 0.239349 0.100497
737 4 0.214182 0.200386 0.124155
736 2 0.2039 0.219868 0.112326
277 2 0.245147 0.243042 0.164717
461 4 0.303212 0.231333 0.0925014
460 2 0.327084 0.226569 0.0982116
354 4 0.29335 0.246307 0.104656
352 2 0.286722 0.248277 0.128684
462 4 0.350956 0.221806 0.103922
254 4 0.382453 0.171146 0.115684
255 4 0.357792 0.214409 0.120248
253 2 0.370123 0.192778 0.117966
765 4 0.355011 0.228021 0.133446
624 4 0.362678 0.232905 0.116066
763 2 0.345334 0.230677 0.156348
648 4 0.0339993 0.308171 0.159709
483 4 0.220836 0.28494 0.0884353
537 4 0.199553 0.306115 0.0855707
536 4 0.201247 0.319326 0.133771
535 2 0.2004 0.31272 0.109671
353 4 0.280094 0.250247 0.152713
278 4 0.265341 0.2576 0.162378
755 4 0.276162 0.270376 0.153572
387 4 0.32589 0.314724 0.128795
302 4 0.314521 0.321947 0.143941
754 2 0.276888 0.287779 0.17151
622 2 0.372848 0.25393 0.10714
323 4 0.378759 0.273536 0.0783578
623 4 0.383018 0.274956 0.0982144
385 2 0.341331 0.321721 0.110416
386 4 0.356771 0.328719 0.0920366
15 3 0.372742 0.334465 0.0995755
528 4 0.471675 0.268194 0.111327
518 4 0.47903 0.271652 0.0921309
526 2 0.463123 0.274999 0.133815
527 4 0.454571 0.281803 0.156304
517 2 0.501892 0.263116 0.086684
551 4 0.0849114 0.366364 0.122211
552 4 0.11919 0.354972 0.0876291
550 2 0.102051 0.360668 0.10492
12 3 0.407365 0.339961 0.0867712
11 1 0.388311 0.350287 0.0944825
13 3 0.393591 0.362588 0.113435
672 4 0.427047 0.346158 0.0889234
104 3 0.489068 0.336969 0.124735
596 4 0.492307 0.401816 0.170449
1791 4 0.0300828 0.472598 0.134842
1466 4 0.0253213 0.481535 0.152045
1789 2 0.0445389 0.489182 0.122961
417 4 0.170662 0.466868 0.127947
291 4 0.220274 0.425142 0.136023
416 4 0.206295 0.435567 0.143797
415 2 0.188478 0.451218 0.135872
289 2 0.240845 0.429519 0.149547
638 4 0.260547 0.496349 0.166766
768 4 0.280056 0.441533 0.161577
290 4 0.261415 0.433896 0.16307
608 4 0.32971 0.43498 0.104729
767 4 0.278538 0.491398 0.158134
766 2 0.279297 0.466465 0.159855
494 4 0.376774 0.422827 0.0782781
525 4 0.373162 0.478756 0.127747
658 2 0.362882 0.435869 0.107779
659 4 0.341345 0.443615 0.117845
660 4 0.384419 0.428123 0.0977121
523 2 0.358793 0.495186 0.115549
17 3 0.0406607 0.0473815 0.172797
1420 2 0.0297756 0.00223996 0.180984
20 3 0.0752825 0.0611025 0.170354
2480 4 0.021457 0.0444067 0.172916
1422 4 0.0201566 0.0238264 0.172818
2479 2 0.00316419 0.058422 0.182618
675 4 0.0926387 0.00391358 0.238761
674 4 0.141437 0.0135441 0.233593
673 2 0.117038 0.00872886 0.236177
689 4 0.15519 0.0127074 0.248479
448 2 0.179436 0.066891 0.184468
1506 4 0.246733 0.0227432 0.16993
450 4 0.173337 0.0449878 0.194871
1504 2 0.230128 0.0127636 0.185736
688 2 0.176055 0.00188699 0.239951
1505 4 0.213523 0.00278393 0.201543
652 2 0.288442 0.0254374 0.182097
653 4 0.312788 0.0206653 0.185207
25 3 0.321831 0.0534207 0.23746
311 4 0.387375 0.0627565 0.182386
758 4 0.376925 0.0532708 0.197922
759 4 0.343083 0.0594253 0.23422
757 2 0.360004 0.056348 0.216071
310 2 0.391127 0.0854487 0.172579
2722 2 0.476257 0.0482335 0.164059
2724 4 0.500843 0.0437027 0.163605
512 4 0.00592885 0.146512 0.212803
511 2 0.0241375 0.163168 0.216828
475 2 0.10059 0.140074 0.170249
578 4 0.121396 0.0928581 0.241769
477 4 0.108103 0.15399 0.189616
577 2 0.124463 0.0861037 0.217891
579 4 0.127531 0.0793493 0.194013
449 4 0.185534 0.0887941 0.174064
237 4 0.230042 0.130427 0.16395
582 4 0.249347 0.133686 0.169308
691 2 0.219679 0.105252 0.228925
693 4 0.228074 0.111573 0.206237
236 4 0.188767 0.107155 0.179933
235 2 0.209405 0.118791 0.171942
762 4 0.473787 0.147308 0.233862
521 4 0.492499 0.140907 0.225183
332 4 0.485356 0.134705 0.241261
760 2 0.45712 0.162015 0.245311
513 4 0.0423462 0.179824 0.220852
393 4 0.0622768 0.178771 0.227866
394 2 0.0145648 0.235557 0.222674
391 2 0.0756603 0.172924 0.24816
338 4 0.0774259 0.242552 0.172843
395 4 0.0310944 0.242836 0.205383
279 4 0.224954 0.228484 0.167056
546 4 0.151734 0.204547 0.252513
284 4 0.275534 0.24406 0.171741
283 2 0.297555 0.235716 0.180144
285 4 0.319576 0.227371 0.188547
764 4 0.335656 0.233334 0.179249
646 2 0.0529681 0.312929 0.175289
647 4 0.0719369 0.317686 0.190868
363 4 0.0828669 0.244068 0.192072
749 4 0.0931161 0.278886 0.24211
361 2 0.0939431 0.257999 0.209634
371 4 0.163414 0.301859 0.219744
370 2 0.143069 0.289532 0.227444
372 4 0.122723 0.277206 0.235144
362 4 0.105019 0.27193 0.227196
756 4 0.277613 0.305183 0.189447
612 4 0.276054 0.324674 0.194821
610 2 0.267054 0.321345 0.21791
307 2 0.314919 0.281093 0.234577
308 4 0.33372 0.288349 0.219777
611 4 0.258053 0.318017 0.240999
301 2 0.313986 0.333098 0.166314
264 4 0.0221895 0.403181 0.218885
299 4 0.142626 0.363802 0.248852
734 4 0.163601 0.363033 0.249337
303 4 0.313452 0.34425 0.188687
729 4 0.312621 0.359345 0.202167
727 2 0.308466 0.381007 0.213942
728 4 0.304311 0.40267 0.225716
644 4 0.423398 0.376612 0.246916
595 2 0.470611 0.403555 0.182755
597 4 0.448915 0.405293 0.195062
643 2 0.437777 0.389201 0.230794
645 4 0.452157 0.40179 0.214672
262 2 0.0045329 0.414438 0.232549
1465 2 0.0249903 0.482162 0.177039
1756 2 0.11801 0.475892 0.249266
231 4 0.45389 0.463324 0.212573
229 2 0.451084 0.486688 0.204121
234 4 0.99836 0.0272602 0.31312
232 2 0.0219196 0.0281905 0.304797
233 4 0.0454789 0.0291208 0.296474
1404 4 0.0613281 0.0171001 0.295772
1402 2 0.070473 0.00928162 0.273853
316 2 0.0710366 0.0534912 0.31641
317 4 0.0607569 0.0339394 0.304695
428 4 0.0682664 0.0202299 0.315199
318 4 0.0813162 0.0730431 0.328125
23 3 0.325581 0.0584026 0.274592
21 1 0.327994 0.0681684 0.253683
22 3 0.350055 0.0739532 0.250679
699 4 0.365899 0.0618316 0.32439
351 4 0.44004 0.0747009 0.266532
479 4 0.456084 0.0359632 0.312141
478 2 0.445304 0.0465889 0.29224
2664 4 0.473628 0.0286827 0.310826
480 4 0.434524 0.0572147 0.272339
1428 4 0.459176 0.0200167 0.322226
258 4 0.453644 0.0375441 0.330928
2662 2 0.498175 0.0310252 0.306686
397 2 0.0773815 0.103332 0.33607
398 4 0.0625782 0.123005 0.33171
692 4 0.211284 0.0989298 0.251613
723 4 0.223976 0.104098 0.265199
721 2 0.233634 0.106628 0.288123
722 4 0.243292 0.109158 0.311047
24 3 0.314966 0.087322 0.252334
28 3 0.327502 0.147286 0.254789
26 1 0.3283 0.168314 0.264567
403 2 0.251275 0.155745 0.3288
404 4 0.251075 0.131773 0.335903
632 4 0.385591 0.118179 0.255552
350 4 0.400485 0.104535 0.259748
349 2 0.420263 0.089618 0.26314
631 2 0.366864 0.133868 0.260873
707 4 0.3506 0.155992 0.286234
633 4 0.348136 0.149556 0.266194
706 2 0.356409 0.155203 0.31054
333 4 0.49029 0.0913875 0.265755
331 2 0.487823 0.113046 0.253508
392 4 0.0890437 0.167077 0.268455
388 2 0.118868 0.224086 0.321372
389 4 0.122775 0.201149 0.312217
390 4 0.11496 0.247023 0.330526
545 4 0.189599 0.210125 0.284697
544 2 0.170666 0.207336 0.268605
402 4 0.180126 0.217809 0.299783
400 2 0.177301 0.240245 0.310452
472 2 0.232949 0.213509 0.334966
405 4 0.251475 0.179717 0.321696
473 4 0.25152 0.200024 0.325043
27 3 0.327905 0.184248 0.247981
30 3 0.310295 0.171231 0.278203
29 3 0.347914 0.170648 0.276744
717 4 0.42094 0.213562 0.325786
761 4 0.440452 0.176722 0.25676
419 4 0.448674 0.248414 0.32867
748 2 0.0962001 0.301103 0.253159
750 4 0.0992841 0.32332 0.264208
401 4 0.174476 0.262681 0.321121
676 2 0.186454 0.318086 0.306701
345 4 0.213757 0.331136 0.290535
677 4 0.199595 0.318972 0.285448
343 2 0.232791 0.325326 0.275396
678 4 0.173312 0.317201 0.327954
344 4 0.251824 0.319517 0.260258
496 2 0.281991 0.286811 0.27858
497 4 0.26884 0.281153 0.299079
377 4 0.277288 0.264587 0.306416
498 4 0.295142 0.292469 0.258081
309 4 0.296118 0.273838 0.249377
376 2 0.262328 0.261835 0.326261
541 2 0.40735 0.312078 0.327336
420 4 0.41005 0.277902 0.316867
418 2 0.429362 0.263158 0.322768
542 4 0.422573 0.29389 0.319421
365 4 0.0257892 0.365865 0.29142
601 2 0.0594209 0.376359 0.311216
603 4 0.0420735 0.360591 0.30252
602 4 0.0767684 0.392127 0.319912
549 4 0.0722284 0.406999 0.332219
364 2 0.000990676 0.368851 0.29028
300 4 0.102129 0.343096 0.269636
298 2 0.122377 0.353449 0.259244
735 4 0.193022 0.327547 0.268725
733 2 0.178312 0.34529 0.259031
433 2 0.305918 0.382487 0.311128
435 4 0.289323 0.396072 0.298273
434 4 0.322513 0.368903 0.323983
447 4 0.407772 0.389664 0.248677
614 4 0.342971 0.373056 0.321081
613 2 0.359008 0.356349 0.330507
445 2 0.383748 0.391529 0.25535
446 4 0.359724 0.393394 0.262023
2690 4 0.99488 0.464924 0.29896
2461 2 0.012066 0.499577 0.318765
1757 4 0.128073 0.455401 0.259467
777 4 0.134687 0.482111 0.284514
775 2 0.12646 0.497537 0.30239
1435 2 0.249791 0.463841 0.325401
1436 4 0.255252 0.474837 0.303619
436 2 0.352612 0.471279 0.325172
437 4 0.368735 0.468616 0.306247
119 3 0.492865 0.454911 0.316556
118 3 0.50044 0.420016 0.329571
399 4 0.0921849 0.0836591 0.34043
732 4 0.0934009 0.0637384 0.339867
730 2 0.11239 0.064156 0.356128
731 4 0.131379 0.0645735 0.372389
606 4 0.149641 0.0736806 0.376952
1701 4 0.311123 0.00670209 0.383085
1699 2 0.304169 0.0172024 0.361485
1700 4 0.297216 0.0277027 0.339885
697 2 0.383096 0.0605733 0.342497
425 4 0.330043 0.0199468 0.405824
698 4 0.400293 0.0593149 0.360603
426 4 0.374909 0.0248733 0.384296
424 2 0.352476 0.0224101 0.39506
726 4 0.422448 0.0770507 0.409308
257 4 0.419268 0.0546071 0.362989
256 2 0.436456 0.0460756 0.346958
2586 4 0.00961891 0.137691 0.389389
2584 2 0.0031067 0.117383 0.376338
458 4 0.0187583 0.150363 0.402698
457 2 0.0395626 0.152134 0.416454
598 2 0.152759 0.155047 0.365228
600 4 0.140363 0.136142 0.354545
604 2 0.172011 0.0826987 0.370361
249 4 0.24842 0.112577 0.330017
605 4 0.194381 0.0917169 0.36377
248 4 0.209349 0.10509 0.360317
247 2 0.228885 0.108833 0.345167
683 4 0.254879 0.0944166 0.377204
682 2 0.272972 0.105897 0.390088
319 2 0.314291 0.145512 0.409235
684 4 0.291065 0.117378 0.402973
320 4 0.294483 0.131704 0.415728
708 4 0.362218 0.154413 0.334847
321 4 0.334099 0.15932 0.402743
725 4 0.400105 0.121756 0.411027
724 2 0.411277 0.0994032 0.410168
599 4 0.165154 0.173953 0.375911
686 4 0.152573 0.175885 0.389962
685 2 0.138607 0.190015 0.405143
275 4 0.16865 0.193443 0.372381
474 4 0.214378 0.226994 0.344888
276 4 0.205846 0.225181 0.361898
274 2 0.187248 0.209312 0.36714
715 2 0.408244 0.211221 0.347199
466 2 0.38806 0.190459 0.398295
716 4 0.395549 0.208881 0.368612
467 4 0.394157 0.189444 0.374067
270 4 0.476744 0.210737 0.377075
452 4 0.457824 0.16999 0.390589
451 2 0.449591 0.175445 0.41356
268 2 0.463963 0.22661 0.362588
269 4 0.451182 0.242483 0.348101
305 4 0.50467 0.158792 0.428503
618 4 0.0814267 0.32813 0.403345
616 2 0.0949638 0.311953 0.389919
617 4 0.108501 0.295777 0.376494
374 4 0.125568 0.305964 0.375469
373 2 0.141409 0.307239 0.356166
375 4 0.15725 0.308515 0.336863
509 4 0.235493 0.319494 0.375119
508 2 0.251437 0.328884 0.358304
378 4 0.247369 0.259084 0.346106
615 4 0.375045 0.339642 0.339934
347 4 0.0724103 0.343839 0.411305
346 2 0.048143 0.344036 0.405286
348 4 0.0238758 0.344234 0.399266
510 4 0.267382 0.338275 0.341488
668 4 0.331694 0.389955 0.411035
543 4 0.392126 0.330265 0.33525
753 4 0.487041 0.413049 0.342907
561 4 0.485614 0.393879 0.402866
751 2 0.487036 0.399409 0.363863
752 4 0.487032 0.385769 0.384818
547 2 0.0857351 0.423612 0.345133
407 4 0.111482 0.449006 0.371247
548 4 0.0992419 0.440224 0.358046
406 2 0.117482 0.46007 0.392852
408 4 0.123482 0.471134 0.414457
1544 4 0.208135 0.514188 0.412972
1556 4 0.225447 0.505795 0.417969
1437 4 0.244331 0.452845 0.347183
3 3 0.315374 0.465391 0.341005
5 3 0.30116 0.490115 0.365589
1 1 0.317495 0.474614 0.362191
4 3 0.316058 0.457944 0.378268
586 2 0.409433 0.444793 0.417082
438 4 0.336489 0.473942 0.344097
2 3 0.338059 0.48479 0.363847
588 4 0.402349 0.462566 0.400984
593 4 0.410526 0.478262 0.392468
592 2 0.419934 0.489851 0.372409
713 4 0.446268 0.492273 0.346161
714 4 0.483076 0.459747 0.336782
712 2 0.464672 0.47601 0.341471
117 3 0.495089 0.448484 0.353521
369 4 0.0493291 0.00607462 0.412842
367 2 0.073933 0.00909965 0.41611
718 2 0.026862 0.0135443 0.447233
720 4 0.00742095 0.0142274 0.462942
719 4 0.046303 0.0128612 0.431525
368 4 0.0985368 0.0121247 0.419378
441 4 0.317026 0.0201136 0.419682
962 4 0.306744 0.028053 0.435437
961 2 0.311667 0.0432011 0.45471
963 4 0.316589 0.0583493 0.473984
432 4 0.3079 0.071931 0.48666
459 4 0.0603669 0.153904 0.43021
2878 2 0.498895 0.104903 0.425793
2880 4 0.486869 0.12115 0.44051
640 2 0.492658 0.128326 0.473448
515 4 0.432486 0.171865 0.453018
260 4 0.0685643 0.172495 0.43336
471 4 0.0104305 0.187131 0.502304
259 2 0.0878828 0.188101 0.430457
687 4 0.12464 0.204145 0.420324
261 4 0.107201 0.203707 0.427553
1035 4 0.118477 0.220134 0.429534
1033 2 0.120691 0.229826 0.452476
1034 4 0.122905 0.239518 0.475418
489 4 0.341108 0.226468 0.443472
487 2 0.34013 0.246536 0.428588
468 4 0.381962 0.191474 0.422522
514 2 0.409117 0.179914 0.456798
411 4 0.338118 0.211358 0.457571
516 4 0.385749 0.187963 0.460578
409 2 0.359221 0.200246 0.450062
410 4 0.380323 0.189134 0.442552
575 4 0.385766 0.183879 0.481532
453 4 0.441359 0.1809 0.43653
584 4 0.489297 0.241477 0.491371
583 2 0.493636 0.228299 0.47057
585 4 0.497974 0.215121 0.449769
2847 4 0.0272445 0.331742 0.464381
695 4 0.0490396 0.269286 0.493939
694 2 0.0722141 0.265878 0.485192
1258 2 0.126654 0.278867 0.484842
1259 4 0.137887 0.300063 0.491894
9 3 0.134867 0.317993 0.486908
696 4 0.0953885 0.26247 0.476445
1260 4 0.115422 0.25767 0.47779
6 1 0.130236 0.331432 0.468568
7 3 0.111337 0.323504 0.458123
488 4 0.339152 0.266603 0.413705
651 4 0.292558 0.248448 0.486407
266 4 0.381081 0.2507 0.44971
267 4 0.401895 0.2847 0.4799
265 2 0.391488 0.2677 0.464805
2845 2 0.00721079 0.346697 0.464774
326 4 0.0604639 0.368347 0.459165
325 2 0.0761703 0.348944 0.460579
327 4 0.0918766 0.32954 0.461993
711 4 0.136408 0.412056 0.452043
10 3 0.14768 0.330891 0.453936
709 2 0.157819 0.399327 0.44987
8 3 0.126388 0.35324 0.475498
503 4 0.238585 0.380492 0.451949
504 4 0.191934 0.379243 0.433981
502 2 0.215259 0.379868 0.442965
710 4 0.179231 0.386599 0.447698
667 2 0.319495 0.409309 0.421125
773 4 0.298358 0.40579 0.493046
336 4 0.335043 0.372116 0.420575
335 4 0.384765 0.366805 0.421013
334 2 0.359904 0.36946 0.420794
238 2 0.411104 0.385462 0.420573
240 4 0.403267 0.363701 0.411074
239 4 0.418941 0.407222 0.430072
3307 2 0.497769 0.396168 0.485186
3309 4 0.492437 0.404207 0.462118
559 2 0.495234 0.394186 0.425943
1381 2 0.00562005 0.499326 0.456474
1383 4 0.00267404 0.476725 0.446193
680 4 0.00577535 0.459832 0.435838
679 2 0.998617 0.439739 0.422791
569 4 0.115185 0.480052 0.430147
382 2 0.118707 0.440754 0.443914
384 4 0.119423 0.420577 0.458664
383 4 0.117991 0.460931 0.429164
1555 2 0.242779 0.491405 0.428816
772 2 0.304307 0.418818 0.472551
1557 4 0.260112 0.477014 0.439663
636 4 0.278683 0.478019 0.432694
635 4 0.31794 0.451291 0.448351
669 4 0.307296 0.428662 0.431215
774 4 0.310257 0.431846 0.452056
634 2 0.298311 0.464655 0.440523
663 4 0.46024 0.486782 0.436629
587 4 0.416516 0.427021 0.433179
342 4 0.224189 0.0603284 0.51953
1032 4 0.237936 0.0825295 0.570915
340 2 0.217906 0.037786 0.510725
2430 4 0.225017 0.00466175 0.511121
341 4 0.211623 0.0152436 0.501919
430 2 0.318484 0.0750047 0.509104
843 4 0.337238 0.0922116 0.544595
1217 4 0.405112 0.0821789 0.528159
1216 2 0.411274 0.0617788 0.515081
841 2 0.36167 0.088773 0.540541
842 4 0.386102 0.0853344 0.536487
1218 4 0.417436 0.0413786 0.502003
1058 4 0.116326 0.100234 0.526053
1057 2 0.118724 0.109717 0.549063
1059 4 0.121123 0.119201 0.572074
1152 4 0.224848 0.0799348 0.514904
1150 2 0.224723 0.0877837 0.538643
1151 4 0.224597 0.0956326 0.562382
1181 4 0.216228 0.14818 0.552231
1180 2 0.239551 0.145284 0.543696
431 4 0.329068 0.0780784 0.531547
1182 4 0.262874 0.142389 0.535162
900 4 0.267772 0.155514 0.520406
641 4 0.482867 0.129444 0.496427
469 2 0.997959 0.168332 0.513087
1199 4 0.029133 0.226138 0.570057
1198 2 0.00458126 0.230857 0.569702
878 4 0.0476248 0.23277 0.573199
1244 4 0.0583932 0.246338 0.561828
1272 4 0.0882713 0.191543 0.582826
798 4 0.216256 0.24764 0.583289
857 4 0.215732 0.241978 0.516924
898 2 0.287016 0.171411 0.518942
650 4 0.273298 0.225402 0.52639
899 4 0.306259 0.187309 0.517479
649 2 0.282928 0.236925 0.506399
576 4 0.384649 0.197388 0.529668
574 2 0.385207 0.190634 0.5056
872 4 0.391132 0.247712 0.555703
983 4 0.0393609 0.307183 0.585041
1245 4 0.0402824 0.291974 0.571319
982 2 0.0305119 0.329289 0.577412
1243 2 0.0493378 0.269156 0.566574
796 2 0.240519 0.252485 0.579682
858 4 0.188321 0.278352 0.53757
856 2 0.202026 0.260165 0.527247
947 4 0.211133 0.265877 0.576864
797 4 0.264782 0.257331 0.576075
804 4 0.273103 0.33681 0.546436
1237 2 0.323576 0.329314 0.575536
1238 4 0.321569 0.305608 0.58323
792 4 0.301694 0.305368 0.591327
871 2 0.391646 0.27247 0.559162
873 4 0.392159 0.297228 0.56262
813 4 0.390264 0.315479 0.554348
906 4 0.479657 0.302285 0.543652
953 4 0.468499 0.318542 0.541281
904 2 0.493609 0.28921 0.559763
952 2 0.446557 0.320963 0.553022
2456 4 0.503412 0.254218 0.498515
984 4 0.0216628 0.351395 0.569783
3354 4 0.00341906 0.357855 0.566516
993 4 0.0951328 0.375793 0.583195
1190 4 0.227654 0.361024 0.569335
803 4 0.245919 0.369891 0.57227
802 2 0.259511 0.353351 0.559353
930 4 0.319196 0.36627 0.553874
1239 4 0.325583 0.353019 0.567842
811 2 0.391473 0.340276 0.551374
812 4 0.392681 0.365073 0.5484
927 4 0.39898 0.379847 0.560246
929 4 0.356403 0.398698 0.545831
928 2 0.3378 0.382484 0.549853
881 4 0.354261 0.399104 0.525717
926 4 0.438838 0.406701 0.574064
925 2 0.418909 0.393274 0.567155
538 2 0.0778825 0.454875 0.564952
539 4 0.0623569 0.442219 0.579916
540 4 0.093408 0.467532 0.549987
1160 4 0.122565 0.466855 0.537072
1159 2 0.133995 0.464525 0.559188
1161 4 0.145424 0.462194 0.581304
2244 4 0.10459 0.476755 0.537111
891 4 0.307629 0.42584 0.582789
882 4 0.363335 0.435807 0.492987
880 2 0.358798 0.417456 0.509352
1000 2 0.446528 0.447429 0.581481
1002 4 0.447926 0.424333 0.572006
2114 4 0.000568225 0.0133778 0.608198
823 2 0.152854 0.0344657 0.64462
825 4 0.14257 0.05594 0.636987
824 4 0.163138 0.0129913 0.652254
1283 4 0.129534 0.0597977 0.652179
1030 2 0.25609 0.0840684 0.58804
1031 4 0.274243 0.0856073 0.605165
951 4 0.278716 0.0683902 0.596995
949 2 0.289785 0.0475847 0.60535
950 4 0.300853 0.0267792 0.613704
2283 4 0.389875 0.0193709 0.640671
809 4 0.493161 0.0545689 0.608349
808 2 0.481418 0.0605867 0.629587
810 4 0.469675 0.0666045 0.650826
45 3 0.457121 0.0843914 0.650775
3008 4 0.502637 0.0707035 0.601985
938 4 0.0744552 0.117078 0.616251
1082 4 0.0800833 0.0791119 0.659781
1126 2 0.0280279 0.105846 0.591463
1083 4 0.0632875 0.1018 0.618502
1081 2 0.0716854 0.0904557 0.639141
1127 4 0.0511224 0.103775 0.600819
1128 4 0.00493348 0.107917 0.582107
937 2 0.0938267 0.123772 0.601929
939 4 0.113198 0.130466 0.587607
1155 4 0.131646 0.129252 0.584126
1153 2 0.149097 0.135064 0.601063
1154 4 0.166548 0.140875 0.618001
3425 4 0.467799 0.0953331 0.665952
3424 2 0.484265 0.113871 0.662722
877 2 0.0604309 0.214374 0.58428
879 4 0.073237 0.195979 0.59536
1271 4 0.133146 0.172245 0.593531
1270 2 0.110709 0.181894 0.588179
1221 4 0.167675 0.159013 0.62793
1212 4 0.209825 0.189016 0.655692
1219 2 0.182052 0.177822 0.635973
1220 4 0.196429 0.196631 0.644016
1210 2 0.234543 0.189468 0.659434
888 4 0.272646 0.175977 0.66212
886 2 0.297089 0.170803 0.661154
1211 4 0.259261 0.18992 0.663175
1193 4 0.378422 0.198435 0.652576
1192 2 0.355015 0.190494 0.656354
1136 4 0.152002 0.284862 0.603518
1135 2 0.14649 0.309248 0.603214
948 4 0.169382 0.286169 0.595459
946 2 0.190257 0.276023 0.586161
791 4 0.281564 0.259943 0.585662
790 2 0.291629 0.282656 0.588495
807 4 0.28413 0.325156 0.666331
3123 4 0.489739 0.254479 0.653463
954 4 0.424615 0.323383 0.564763
1039 2 0.0696012 0.394475 0.605761
1041 4 0.0486401 0.396668 0.619215
3264 4 0.0389684 0.38731 0.63494
3262 2 0.0379501 0.366917 0.649372
3240 4 0.019339 0.392603 0.634944
1040 4 0.0905623 0.392282 0.592307
3263 4 0.0369319 0.346525 0.663805
3238 2 0.00456478 0.411996 0.640495
897 4 0.139603 0.352612 0.605221
1137 4 0.140978 0.333635 0.602909
991 2 0.109157 0.358479 0.594539
992 4 0.123182 0.341164 0.605884
895 2 0.160446 0.366208 0.607647
1189 2 0.21416 0.36995 0.588399
1172 4 0.206565 0.39567 0.600041
1191 4 0.200666 0.378876 0.607462
896 4 0.18129 0.379803 0.610073
805 2 0.305652 0.336812 0.661221
806 4 0.327174 0.348469 0.656112
1206 4 0.386804 0.40687 0.646562
1188 4 0.140914 0.462328 0.601244
1186 2 0.162045 0.452255 0.610031
1171 2 0.204342 0.416925 0.61302
1173 4 0.202119 0.43818 0.625999
1187 4 0.183175 0.442182 0.618818
1139 4 0.2396 0.452466 0.64549
889 2 0.32391 0.443332 0.590146
1953 4 0.392326 0.483461 0.583106
1230 4 0.339787 0.436932 0.664208
890 4 0.340191 0.460824 0.597504
1951 2 0.367752 0.481318 0.587198
1204 2 0.395638 0.430214 0.648049
1952 4 0.343179 0.479175 0.59129
1205 4 0.404473 0.453557 0.649537
1001 4 0.44513 0.470525 0.590957
1911 4 0.437189 0.487886 0.590204
1269 4 0.448708 0.485618 0.604922
1267 2 0.452598 0.497117 0.626781
945 4 0.0718384 0.0172812 0.684913
943 2 0.0685879 0.0417623 0.688823
944 4 0.0653375 0.0662433 0.692734
1076 4 0.0747574 0.0767798 0.678005
1282 2 0.124487 0.0768005 0.669804
1147 2 0.24271 0.0504013 0.732183
1148 4 0.244442 0.0664809 0.713114
1226 4 0.241681 0.0783182 0.697693
1092 4 0.338245 0.00447495 0.693161
1004 4 0.373761 0.0787593 0.724392
42 3 0.4641 0.0518732 0.667709
41 1 0.45456 0.0726647 0.670129
43 3 0.431998 0.0700584 0.674881
1163 4 0.47387 0.0631166 0.685544
1162 2 0.490246 0.0538997 0.702038
864 4 0.0619717 0.107727 0.728771
1075 2 0.0689402 0.0957645 0.693201
1077 4 0.063123 0.114749 0.708397
1107 4 0.0756803 0.117902 0.72145
851 4 0.0728353 0.131673 0.706904
850 2 0.0811998 0.150601 0.692869
862 2 0.0422566 0.100604 0.742401
1105 2 0.0924525 0.122922 0.739301
1284 4 0.11944 0.0938034 0.687428
909 4 0.150192 0.120638 0.741835
1257 4 0.252508 0.0798715 0.748428
907 2 0.171109 0.122302 0.728237
908 4 0.192025 0.123965 0.714638
1227 4 0.207026 0.11213 0.710204
1225 2 0.224354 0.0952243 0.703948
829 2 0.325923 0.14565 0.699106
830 4 0.318466 0.159178 0.679445
1003 2 0.360414 0.098854 0.717818
1005 4 0.347066 0.118949 0.711244
831 4 0.333381 0.132122 0.718767
44 3 0.465097 0.0837685 0.687567
852 4 0.0895644 0.169528 0.678835
1178 4 0.999891 0.240065 0.710152
1072 2 0.103076 0.230557 0.730054
1074 4 0.0988833 0.240926 0.707692
887 4 0.321532 0.165629 0.660187
1194 4 0.331609 0.182553 0.660131
1144 2 0.492366 0.174507 0.729209
1025 4 0.428898 0.186262 0.683357
1262 4 0.470528 0.207492 0.722171
1142 4 0.456576 0.183729 0.735073
1024 2 0.447237 0.187879 0.700276
1026 4 0.465576 0.189496 0.717195
1261 2 0.469972 0.227397 0.737292
1145 4 0.473835 0.19106 0.731997
1177 2 0.0142597 0.254226 0.69538
1179 4 0.0286281 0.268386 0.680608
1209 4 0.120063 0.303724 0.699269
1207 2 0.109055 0.282046 0.705106
1208 4 0.0980465 0.260368 0.710942
821 4 0.137473 0.307747 0.690895
820 2 0.160272 0.316514 0.685555
822 4 0.183071 0.325282 0.680215
1063 2 0.217574 0.302665 0.690852
1064 4 0.197454 0.310941 0.678527
1065 4 0.237693 0.294389 0.703177
1263 4 0.469416 0.247302 0.752414
892 2 0.0199497 0.358361 0.745265
894 4 0.0372503 0.358006 0.727216
1280 4 0.054034 0.356834 0.716271
1279 2 0.0624814 0.3801 0.712736
816 4 0.0638344 0.344188 0.729123
814 2 0.0843287 0.337637 0.741861
1281 4 0.0709288 0.403367 0.709202
942 4 0.11706 0.346591 0.747644
941 4 0.161843 0.368785 0.749282
940 2 0.139451 0.357688 0.748463
1028 4 0.232949 0.398568 0.733056
1066 2 0.202044 0.378828 0.7414
1068 4 0.226175 0.378158 0.734885
1027 2 0.241551 0.418891 0.721301
1983 4 0.0622574 0.422044 0.709373
1981 2 0.0503564 0.439577 0.722645
1982 4 0.0384554 0.45711 0.735917
2172 4 0.137154 0.514867 0.691659
1140 4 0.240801 0.435519 0.692523
2016 4 0.170526 0.49039 0.732591
1138 2 0.2402 0.443993 0.669006
1029 4 0.250152 0.439214 0.709547
1987 2 0.325993 0.471433 0.734778
1989 4 0.325158 0.470237 0.709817
1988 4 0.326829 0.47263 0.759739
1228 2 0.342232 0.450383 0.685143
1229 4 0.344678 0.463835 0.706077
2991 4 0.0240515 0.0427022 0.799386
2989 2 0.0234852 0.0637522 0.785904
2990 4 0.022919 0.0848022 0.772423
3083 4 0.00697278 0.0837179 0.759593
2048 4 0.153327 0.013952 0.765832
2049 4 0.115002 0.0389876 0.785959
1202 4 0.114882 0.0538237 0.773203
2047 2 0.134164 0.0264698 0.775896
1201 2 0.114334 0.0778475 0.780112
1149 4 0.240978 0.0343217 0.751252
817 2 0.324085 0.0402318 0.817401
819 4 0.313052 0.0608489 0.826255
1085 4 0.310527 0.0792514 0.829779
818 4 0.335118 0.0196147 0.808547
974 4 0.351729 0.0115168 0.801482
973 2 0.372586 0.00562314 0.813948
1048 2 0.343829 0.999217 0.765307
1050 4 0.350155 0.0172087 0.781477
1113 4 0.412326 0.0458463 0.781863
1111 2 0.435854 0.0542726 0.782649
845 4 0.475073 0.0720015 0.775871
1112 4 0.459382 0.0626988 0.783435
863 4 0.0225415 0.0934806 0.75603
833 4 0.00891748 0.0975673 0.771448
832 2 0.00817656 0.118749 0.784713
834 4 0.00743565 0.139931 0.797979
1125 4 0.0154132 0.147589 0.814304
1123 2 0.0330898 0.156397 0.829638
1106 4 0.109225 0.127942 0.757152
1203 4 0.113786 0.101871 0.78702
911 4 0.0964355 0.118724 0.81516
34 3 0.107487 0.115863 0.770964
31 1 0.110407 0.126059 0.791602
35 3 0.0915025 0.137335 0.797443
32 3 0.114739 0.109862 0.807352
33 3 0.128401 0.140684 0.790737
1255 2 0.249802 0.0920529 0.770095
1256 4 0.247096 0.104234 0.791762
840 4 0.235474 0.0974175 0.806559
838 2 0.233975 0.106287 0.829888
1084 2 0.311966 0.0932885 0.809137
1086 4 0.313404 0.107326 0.788496
47 3 0.407087 0.162382 0.812159
1023 4 0.40419 0.15675 0.830698
846 4 0.49155 0.119205 0.774836
844 2 0.483312 0.0956033 0.775353
1073 4 0.107269 0.220187 0.752416
1130 4 0.129626 0.232808 0.77793
1129 2 0.154223 0.22919 0.775274
1131 4 0.17882 0.225571 0.772618
1277 4 0.183673 0.245151 0.778263
1276 2 0.206539 0.254769 0.775129
978 4 0.246619 0.203998 0.760053
977 4 0.291492 0.216558 0.778202
918 4 0.301509 0.234397 0.777692
976 2 0.269055 0.210278 0.769128
1298 4 0.310449 0.21745 0.780589
1297 2 0.33042 0.206196 0.790573
48 3 0.405889 0.173528 0.776284
1299 4 0.350391 0.194942 0.800557
1042 2 0.384212 0.232345 0.788637