ITEM: TIMESTEP
3340000
ITEM: NUMBER OF ATOMS
4590
ITEM: BOX BOUNDS pp pp pp
-9.9985700000000008e+00 9.9985700000000008e+00
-9.9985700000000008e+00 9.9985700000000008e+00
-9.9985700000000008e+00 9.9985700000000008e+00
ITEM: ATOMS id type xs ys zs
701 4 0.0402527 0.0480638 0.0749488
700 2 0.050705 0.0696989 0.0680315
1667 4 0.0220634 0.0422568 0.0745943
996 4 0.0991274 0.0112084 0.000969798
490 2 0.27091 0.0639494 0.0817572
492 4 0.285887 0.0462421 0.0724126
1474 2 0.282793 0.00490838 0.0614167
1475 4 0.289557 0.0289639 0.0605501
2974 2 0.469588 0.0313292 0.0340628
745 2 0.422495 0.0784856 0.0285179
747 4 0.441999 0.0637858 0.0231618
2975 4 0.453883 0.049045 0.0260211
986 4 0.437887 0.0484393 0.012784
2976 4 0.485294 0.0136135 0.0421045
2468 4 0.494258 0.0021202 0.0503169
2467 2 0.499526 0.00432772 0.0746594
3836 4 0.499724 0.00220358 0.0324382
702 4 0.0611572 0.0913341 0.0611142
476 4 0.049796 0.102688 0.0740801
475 2 0.0633118 0.123569 0.0766238
477 4 0.0768276 0.144451 0.0791676
566 4 0.206704 0.139457 0.0351315
565 2 0.216087 0.145795 0.0128385
491 4 0.255933 0.0816568 0.0911018
746 4 0.402991 0.0931854 0.0338739
769 2 0.390384 0.149462 0.0281497
556 2 0.37483 0.0988344 0.0111255
558 4 0.390462 0.109089 0.0277286
771 4 0.382781 0.125836 0.0311763
737 4 0.240602 0.185829 0.0431461
736 2 0.216794 0.193189 0.0411073
738 4 0.192985 0.200549 0.0390684
573 4 0.276152 0.258357 0.0566568
770 4 0.397988 0.173089 0.0251231
359 4 0.397057 0.185645 0.0100535
664 2 0.392685 0.20964 0.0455018
665 4 0.392722 0.191867 0.0279152
666 4 0.392648 0.227414 0.0630885
623 4 0.384298 0.241256 0.0731484
2808 4 0.00200683 0.274242 0.00339559
3338 4 0.0172329 0.266324 0.993975
481 2 0.238762 0.280758 0.0635733
505 2 0.193278 0.316704 0.073275
483 4 0.218161 0.29132 0.0730171
506 4 0.203894 0.29776 0.0856683
537 4 0.188385 0.28577 0.0911804
482 4 0.259364 0.270196 0.0541295
571 2 0.294924 0.260368 0.0402627
572 4 0.313695 0.262378 0.0238687
357 4 0.30867 0.274364 0.00863302
355 2 0.319851 0.296518 0.0055746
323 4 0.400461 0.245287 0.061407
1069 2 0.40335 0.317106 0.0375423
322 2 0.412916 0.265006 0.0523951
956 4 0.334137 0.330869 0.0169741
324 4 0.425372 0.284725 0.0433831
1070 4 0.421824 0.300767 0.0334239
280 2 0.453381 0.307183 0.0597705
282 4 0.440506 0.295881 0.0415578
281 4 0.466255 0.318485 0.0779832
292 2 0.154412 0.341036 0.0365867
294 4 0.133154 0.336839 0.0241113
507 4 0.182662 0.335649 0.0608818
286 2 0.207796 0.333036 0.0231584
287 4 0.191619 0.339495 0.0410965
293 4 0.175671 0.345233 0.0490622
552 4 0.171802 0.348969 0.0692644
456 4 0.214985 0.388522 0.0729983
454 2 0.201028 0.369708 0.0642566
455 4 0.18707 0.350895 0.0555149
1290 4 0.266452 0.400455 0.0578026
1288 2 0.277343 0.386463 0.0401731
1289 4 0.288235 0.372472 0.0225437
251 4 0.25137 0.413396 0.0630797
903 4 0.287821 0.369743 0.00254944
901 2 0.306519 0.353173 0.00154642
1071 4 0.384877 0.333444 0.0416607
955 2 0.352536 0.338569 0.0320525
957 4 0.370935 0.34627 0.0471308
741 4 0.381275 0.337214 0.0606048
739 2 0.386953 0.343901 0.084019
1304 4 0.38259 0.372513 0.01269
1303 2 0.37809 0.394437 0.00154213
1788 4 0.0936115 0.468448 0.0865615
1786 2 0.108362 0.482148 0.0717322
625 2 0.161928 0.488998 0.0604797
1690 2 0.125095 0.495368 0.0186697
626 4 0.183651 0.476771 0.0585372
245 4 0.195388 0.46302 0.0508964
244 2 0.218285 0.452996 0.0502419
246 4 0.241182 0.442972 0.0495874
272 4 0.254558 0.428353 0.0477142
271 2 0.267495 0.438718 0.0289953
273 4 0.280431 0.449082 0.0102764
1672 2 0.41378 0.433819 0.0740779
853 2 0.404001 0.447032 0.0186476
855 4 0.387341 0.446209 2.15999e-05
37 3 0.370433 0.434024 0.00380326
854 4 0.420662 0.447855 0.0372735
1674 4 0.42588 0.437868 0.0525755
564 4 0.435693 0.454656 0.0457597
563 4 0.476089 0.474306 0.0237873
562 2 0.455891 0.464481 0.0347735
228 4 0.491966 0.483024 0.0120224
19 3 0.0642423 0.00656696 0.152019
578 4 0.0750673 0.0193548 0.16726
577 2 0.0883894 0.0401446 0.163326
579 4 0.101712 0.0609344 0.159391
450 4 0.117307 0.0625592 0.14695
448 2 0.14089 0.0703033 0.149958
582 4 0.227798 0.0717546 0.156659
449 4 0.164473 0.0780474 0.152967
486 4 0.434727 0.99647 0.103182
393 4 0.0454669 0.161521 0.179319
312 4 0.351739 0.131251 0.147662
628 2 0.372439 0.158212 0.16092
629 4 0.365799 0.134155 0.16245
310 2 0.344168 0.111746 0.161352
2722 2 0.499039 0.0868177 0.132572
2723 4 0.486853 0.106503 0.12313
391 2 0.0447937 0.185106 0.171045
392 4 0.0441204 0.208691 0.16277
339 4 0.0533656 0.226002 0.16128
2759 4 0.00833807 0.170411 0.129889
755 4 0.243058 0.24727 0.14499
460 2 0.32575 0.230316 0.114594
461 4 0.303359 0.221125 0.108319
354 4 0.284942 0.228107 0.108029
352 2 0.27284 0.240709 0.125914
353 4 0.260738 0.253312 0.143799
462 4 0.34814 0.239506 0.120868
255 4 0.359023 0.238234 0.135885
253 2 0.37272 0.218492 0.142802
622 2 0.373366 0.244435 0.0954096
624 4 0.362433 0.247613 0.117671
254 4 0.386417 0.198751 0.149719
630 4 0.379079 0.182269 0.15939
536 4 0.178409 0.270908 0.137874
535 2 0.183397 0.278339 0.114527
754 2 0.231747 0.268727 0.151058
756 4 0.220435 0.290184 0.157127
301 2 0.318367 0.321501 0.143904
303 4 0.317042 0.303589 0.161299
764 4 0.324682 0.286771 0.158182
284 4 0.270692 0.259993 0.158834
283 2 0.28975 0.275642 0.162969
765 4 0.354827 0.25611 0.132649
763 2 0.339755 0.27144 0.145415
12 3 0.409459 0.326183 0.133058
671 4 0.457196 0.328081 0.0912979
527 4 0.477629 0.329264 0.0889006
526 2 0.501575 0.33412 0.0835907
647 4 0.0662206 0.34652 0.145448
550 2 0.15738 0.354862 0.0888213
551 4 0.142959 0.360754 0.108378
302 4 0.319692 0.339413 0.126509
387 4 0.325049 0.358158 0.121216
385 2 0.349915 0.358015 0.118603
493 2 0.391116 0.390515 0.108773
495 4 0.389617 0.366684 0.11619
386 4 0.374781 0.357872 0.115989
15 3 0.377262 0.343621 0.125837
740 4 0.392631 0.350588 0.107433
14 3 0.409914 0.361532 0.120295
11 1 0.398476 0.346386 0.133645
13 3 0.397919 0.353988 0.15556
494 4 0.392615 0.414346 0.101357
672 4 0.415255 0.341834 0.114805
670 2 0.436225 0.334957 0.103051
596 4 0.496513 0.373803 0.15053
1465 2 0.0682973 0.467645 0.109735
1466 4 0.0444547 0.473748 0.114147
1467 4 0.0921399 0.461543 0.105323
1791 4 0.0488248 0.492724 0.115124
290 4 0.212725 0.422691 0.163904
766 2 0.213253 0.465743 0.159738
768 4 0.219247 0.441503 0.161037
250 2 0.259475 0.421715 0.0852221
252 4 0.26758 0.430033 0.107364
609 4 0.283564 0.43795 0.115041
607 2 0.307025 0.429307 0.114887
608 4 0.330487 0.420663 0.114733
1317 4 0.324878 0.507533 0.138711
659 4 0.336445 0.436576 0.103708
660 4 0.386278 0.434624 0.100022
1673 4 0.401679 0.42977 0.0955803
658 2 0.361361 0.4356 0.101865
524 4 0.408362 0.486613 0.134464
523 2 0.405691 0.466735 0.119534
525 4 0.403019 0.446856 0.104605
1559 4 0.391431 0.494016 0.141807
1558 2 0.366712 0.49704 0.14404
2479 2 0.0194222 0.0199172 0.202284
380 4 0.0185181 0.0580003 0.219327
2481 4 0.0128314 0.0398976 0.215794
379 2 0.0356837 0.0747456 0.212247
20 3 0.0708678 0.00961088 0.188958
580 2 0.240228 0.0570819 0.17264
1506 4 0.253979 0.0108739 0.211833
581 4 0.252657 0.0424091 0.188621
654 4 0.25338 0.0275035 0.202142
652 2 0.26244 0.038168 0.222863
653 4 0.2715 0.0488324 0.243584
758 4 0.337801 0.0753182 0.185507
759 4 0.368884 0.0678852 0.223968
757 2 0.353343 0.0716017 0.204738
350 4 0.375506 0.0543229 0.236386
349 2 0.399175 0.0516382 0.228789
22 3 0.365957 0.0526361 0.253148
632 4 0.369367 0.0687456 0.242947
25 3 0.346844 0.0253563 0.236314
480 4 0.438897 0.0487898 0.233139
351 4 0.422845 0.0489534 0.221192
513 4 0.0432726 0.146957 0.165299
511 2 0.0432909 0.126461 0.179619
512 4 0.0433092 0.105965 0.19394
381 4 0.0528492 0.0914909 0.205168
237 4 0.222172 0.0897244 0.148026
235 2 0.19844 0.0900103 0.155892
236 4 0.174708 0.0902962 0.163757
30 3 0.345182 0.157907 0.242966
311 4 0.336596 0.0922415 0.175042
26 1 0.361484 0.142671 0.238407
28 3 0.356451 0.131317 0.218807
761 4 0.412362 0.115547 0.201239
27 3 0.381542 0.153609 0.235725
333 4 0.489411 0.0776077 0.237208
521 4 0.464207 0.143196 0.228889
762 4 0.454676 0.127135 0.225239
760 2 0.433519 0.121341 0.213239
332 4 0.471349 0.124063 0.233156
331 2 0.48038 0.100835 0.235182
520 2 0.482495 0.159046 0.222601
337 2 0.0618124 0.245293 0.174759
396 4 0.012951 0.248202 0.248146
546 4 0.0885693 0.24903 0.229951
544 2 0.108476 0.249664 0.245068
279 4 0.26363 0.223268 0.204712
277 2 0.26081 0.233396 0.182026
278 4 0.25799 0.243524 0.15934
522 4 0.500782 0.174895 0.216313
394 2 0.0294365 0.256858 0.231459
395 4 0.0459219 0.265514 0.214771
338 4 0.0702592 0.264583 0.188239
363 4 0.0602818 0.272131 0.203633
361 2 0.0688463 0.295433 0.200663
362 4 0.0774108 0.318736 0.197693
545 4 0.128382 0.250297 0.260184
372 4 0.094651 0.329869 0.194501
612 4 0.233612 0.298862 0.168902
611 4 0.23039 0.319491 0.214342
610 2 0.232001 0.309177 0.191622
344 4 0.229564 0.307065 0.231218
343 2 0.207372 0.308307 0.24267
285 4 0.308807 0.291291 0.167105
729 4 0.309285 0.309274 0.179569
727 2 0.291334 0.321542 0.191914
308 4 0.321399 0.295168 0.177408
498 4 0.336387 0.293304 0.226519
307 2 0.33711 0.292745 0.196708
309 4 0.352821 0.290322 0.216007
749 4 0.0644037 0.330025 0.206658
648 4 0.0776436 0.336845 0.193162
748 2 0.0682798 0.345935 0.225553
646 2 0.0719321 0.341683 0.169305
750 4 0.0721559 0.361846 0.244448
733 2 0.153973 0.331287 0.24273
370 2 0.116349 0.338204 0.203716
371 4 0.138046 0.346539 0.212931
734 4 0.14125 0.350367 0.232768
417 4 0.143108 0.363074 0.221562
299 4 0.13381 0.369341 0.236928
415 2 0.156716 0.383121 0.215387
298 2 0.110258 0.372828 0.244564
416 4 0.170324 0.403167 0.209213
289 2 0.197737 0.409678 0.179109
291 4 0.182749 0.396665 0.194314
728 4 0.273382 0.33381 0.204259
445 2 0.385298 0.380816 0.224335
447 4 0.406917 0.388872 0.214698
446 4 0.363678 0.372761 0.233973
644 4 0.420371 0.372862 0.209593
595 2 0.489478 0.380097 0.173683
643 2 0.442388 0.383978 0.205486
645 4 0.464405 0.395094 0.201379
597 4 0.482443 0.38639 0.196837
767 4 0.207259 0.489982 0.15844
412 2 0.243409 0.490015 0.237228
414 4 0.230006 0.49597 0.216978
229 2 0.456402 0.484203 0.208665
231 4 0.472023 0.467581 0.218904
234 4 0.012922 0.0491588 0.291384
232 2 0.0353958 0.0388043 0.294975
233 4 0.0578695 0.0284498 0.298565
317 4 0.0661757 0.0223406 0.315483
1404 4 0.0650282 0.0105381 0.30068
1402 2 0.0801953 0.000212773 0.283694
428 4 0.0661955 0.00433427 0.319971
693 4 0.332318 0.0566426 0.281337
691 2 0.313688 0.0709131 0.289964
24 3 0.331375 0.0440489 0.265105
21 1 0.351036 0.035417 0.25631
23 3 0.360275 0.0201046 0.271094
257 4 0.43035 0.0725229 0.321815
479 4 0.458496 0.0359318 0.277312
478 2 0.448696 0.0423608 0.255225
2664 4 0.476623 0.0319925 0.273435
1428 4 0.462095 0.0209085 0.283352
258 4 0.452471 0.0366045 0.294959
2662 2 0.498526 0.0291833 0.285163
256 2 0.441411 0.0545637 0.308387
1426 2 0.450402 0.00315753 0.296519
403 2 0.226872 0.150112 0.319821
404 4 0.244377 0.133555 0.3265
405 4 0.209366 0.166668 0.313142
692 4 0.295057 0.0851836 0.298591
721 2 0.268538 0.105631 0.314729
723 4 0.275616 0.0848813 0.302707
722 4 0.26146 0.126381 0.326751
29 3 0.363423 0.127651 0.255987
631 2 0.369023 0.0904975 0.255272
707 4 0.358548 0.123292 0.274106
633 4 0.36868 0.112249 0.267598
706 2 0.359586 0.134502 0.296432
708 4 0.360623 0.145711 0.318758
444 4 0.997039 0.240879 0.307672
442 2 0.00798355 0.247373 0.286149
443 4 0.0189278 0.253866 0.264626
600 4 0.115918 0.220346 0.330977
473 4 0.199146 0.176075 0.328034
269 4 0.417745 0.223954 0.324883
419 4 0.399243 0.227526 0.328367
402 4 0.143716 0.255427 0.270653
375 4 0.177289 0.325278 0.336081
400 2 0.157521 0.275056 0.263631
735 4 0.166697 0.312207 0.252692
401 4 0.171326 0.294685 0.256609
676 2 0.17534 0.317763 0.292768
677 4 0.175057 0.307653 0.269902
345 4 0.18518 0.309549 0.254122
678 4 0.175624 0.327874 0.315635
378 4 0.269363 0.306922 0.300643
376 2 0.292958 0.31171 0.293894
377 4 0.316553 0.316498 0.287145
615 4 0.327311 0.325634 0.299507
497 4 0.32618 0.306846 0.273563
418 2 0.39064 0.249021 0.318926
496 2 0.331284 0.300075 0.250041
541 2 0.349559 0.297201 0.300733
542 4 0.372199 0.289317 0.307836
543 4 0.326918 0.305085 0.29363
420 4 0.382038 0.270517 0.309486
2537 4 0.507078 0.330576 0.33308
364 2 0.00061597 0.401574 0.291757
365 4 0.0169465 0.419902 0.287006
601 2 0.0453449 0.415431 0.320662
300 4 0.0867057 0.376315 0.2522
510 4 0.181176 0.347056 0.309579
508 2 0.197774 0.365253 0.313891
509 4 0.214371 0.383449 0.318204
434 4 0.323037 0.382155 0.314576
433 2 0.309922 0.403397 0.315965
613 2 0.327968 0.346578 0.313149
614 4 0.328625 0.367522 0.326791
2 3 0.280701 0.412848 0.318252
603 4 0.0318101 0.420333 0.300218
1757 4 0.0125931 0.429405 0.269517
1756 2 0.0315666 0.445474 0.272157
1758 4 0.05054 0.461543 0.274796
1775 4 0.0667241 0.464176 0.284729
775 2 0.0491268 0.479322 0.314803
777 4 0.04811 0.469043 0.292033
1776 4 0.114722 0.462266 0.270827
1774 2 0.0907232 0.463221 0.277778
413 4 0.256813 0.484061 0.257478
4 3 0.24909 0.424481 0.301575
1436 4 0.248555 0.486569 0.27576
1435 2 0.253339 0.466157 0.289386
1437 4 0.258123 0.445746 0.303011
3 3 0.268225 0.447692 0.324803
1 1 0.261829 0.425726 0.320929
436 2 0.30303 0.457722 0.31486
438 4 0.287078 0.438895 0.31889
435 4 0.296807 0.42464 0.317354
437 4 0.318982 0.47655 0.310831
1802 4 0.33563 0.477782 0.299693
1801 2 0.352965 0.482522 0.317077
1803 4 0.3703 0.487261 0.334461
593 4 0.372711 0.472043 0.347769
119 3 0.480559 0.459131 0.330658
316 2 0.07962 0.0398517 0.327221
318 4 0.0930642 0.0573629 0.33896
732 4 0.0958145 0.0747434 0.346461
730 2 0.119887 0.0698486 0.351123
731 4 0.14396 0.0649538 0.355785
399 4 0.0777444 0.0655237 0.346963
606 4 0.163915 0.0637725 0.353372
604 2 0.187297 0.0725611 0.354479
605 4 0.210679 0.0813498 0.355587
1701 4 0.371054 0.999129 0.390499
699 4 0.376402 0.0614853 0.364217
1699 2 0.376402 0.0211738 0.379983
1700 4 0.38175 0.0432186 0.369466
697 2 0.394999 0.0667232 0.348346
962 4 0.352719 0.010704 0.413623
425 4 0.369583 0.999629 0.410761
698 4 0.413596 0.0719612 0.332475
397 2 0.0656941 0.0856294 0.355665
398 4 0.0536437 0.105735 0.364367
2584 2 0.0160484 0.115028 0.360352
2586 4 0.0384403 0.115696 0.371458
458 4 0.0412446 0.124163 0.389097
457 2 0.0443063 0.14418 0.403764
249 4 0.246814 0.120374 0.339598
248 4 0.213977 0.0961828 0.368533
247 2 0.230395 0.108279 0.354066
683 4 0.258801 0.134356 0.343151
682 2 0.277032 0.151467 0.34334
684 4 0.295262 0.168578 0.343528
319 2 0.331592 0.165344 0.342985
321 4 0.352085 0.153161 0.335448
726 4 0.390302 0.137825 0.399393
717 4 0.366532 0.160057 0.346771
715 2 0.378279 0.158364 0.368779
716 4 0.390026 0.156671 0.390786
467 4 0.401297 0.151526 0.405314
642 4 0.500473 0.126206 0.384527
641 4 0.486876 0.140524 0.338583
640 2 0.493675 0.133365 0.361555
459 4 0.0473679 0.164197 0.418431
598 2 0.1266 0.217514 0.353406
599 4 0.137281 0.214682 0.375835
686 4 0.130603 0.229424 0.387209
685 2 0.114218 0.226101 0.405802
275 4 0.147431 0.226734 0.386641
389 4 0.141028 0.245319 0.383822
274 2 0.171914 0.222418 0.383966
474 4 0.202827 0.203289 0.369826
472 2 0.200986 0.189682 0.34893
276 4 0.196396 0.218101 0.38129
320 4 0.311099 0.177528 0.350521
268 2 0.43891 0.226336 0.33798
270 4 0.460075 0.228718 0.351078
452 4 0.471136 0.225379 0.367244
451 2 0.46645 0.219043 0.390973
453 4 0.461763 0.212708 0.414702
2802 4 0.994078 0.293959 0.405906
347 4 0.0570865 0.313419 0.389796
346 2 0.0327304 0.309172 0.393526
618 4 0.0742058 0.309696 0.378455
348 4 0.00837434 0.304925 0.397257
616 2 0.0983228 0.306283 0.372808
373 2 0.15853 0.314387 0.348517
388 2 0.137391 0.269968 0.381727
390 4 0.133754 0.294617 0.379633
617 4 0.12244 0.302869 0.36716
374 4 0.139771 0.303496 0.360953
488 4 0.393757 0.270905 0.390903
487 2 0.388938 0.260436 0.413092
602 4 0.0588797 0.410528 0.341106
549 4 0.0634321 0.39616 0.353545
547 2 0.0657613 0.412238 0.372551
5 3 0.249847 0.417884 0.338637
335 4 0.315097 0.365235 0.404524
240 4 0.320652 0.375468 0.388251
238 2 0.335848 0.39068 0.37549
239 4 0.351043 0.405892 0.362728
587 4 0.364342 0.410163 0.346547
752 4 0.459254 0.386523 0.379254
561 4 0.448524 0.371513 0.387662
751 2 0.469679 0.407507 0.370524
559 2 0.459036 0.364867 0.409353
776 4 0.0501435 0.489601 0.337573
500 4 0.0659048 0.477273 0.341421
499 2 0.0723879 0.467592 0.363544
501 4 0.0788711 0.457912 0.385667
407 4 0.0733953 0.444952 0.400481
548 4 0.0680905 0.428317 0.391557
406 2 0.0909768 0.455468 0.414815
568 2 0.144004 0.489389 0.42079
1555 2 0.232828 0.484127 0.396069
1557 4 0.251918 0.473986 0.408635
636 4 0.250084 0.486772 0.424982
588 4 0.376135 0.457437 0.335288
586 2 0.370239 0.4338 0.340917
592 2 0.394549 0.482522 0.353971
2862 4 0.493683 0.474557 0.342399
594 4 0.416387 0.493002 0.360172
116 1 0.489794 0.449688 0.349735
713 4 0.432844 0.497889 0.351991
712 2 0.452236 0.48221 0.350167
714 4 0.471627 0.466532 0.348344
753 4 0.480103 0.42849 0.361795
117 3 0.474179 0.450252 0.366618
718 2 0.021954 0.00923487 0.458174
369 4 0.0635947 0.0256529 0.46404
367 2 0.0831546 0.0145756 0.45309
719 4 0.0452359 0.0183344 0.458748
1781 4 0.120593 0.00672586 0.43434
368 4 0.102714 0.0034982 0.442141
342 4 0.226318 0.0448034 0.515713
340 2 0.215281 0.0248283 0.505498
341 4 0.204244 0.00485317 0.495282
963 4 0.320021 0.0445489 0.430536
432 4 0.31191 0.0563479 0.442962
430 2 0.318424 0.0557011 0.467093
961 2 0.33637 0.0276265 0.42208
431 4 0.324938 0.0550542 0.491225
1217 4 0.407123 0.0636902 0.50927
842 4 0.387599 0.0662057 0.514215
724 2 0.391592 0.115972 0.411474
725 4 0.392881 0.0941186 0.423555
2657 4 0.484574 0.120714 0.445537
260 4 0.044829 0.183061 0.425343
259 2 0.0605509 0.202427 0.423622
261 4 0.0762728 0.221793 0.421901
687 4 0.0978337 0.222779 0.424394
1035 4 0.0849545 0.232 0.434518
1033 2 0.0929275 0.246591 0.453191
409 2 0.39394 0.215102 0.447905
411 4 0.378323 0.234239 0.444022
466 2 0.409523 0.168851 0.421356
410 4 0.409556 0.195965 0.451789
266 4 0.387999 0.248352 0.454107
468 4 0.417749 0.186176 0.437398
574 2 0.416046 0.172177 0.48348
515 4 0.471664 0.206294 0.431524
575 4 0.417092 0.192122 0.468437
516 4 0.426548 0.196941 0.450961
514 2 0.449106 0.201617 0.441242
1034 4 0.100901 0.261182 0.471865
696 4 0.109711 0.272312 0.485487
1260 4 0.10914 0.277766 0.46746
1258 2 0.115341 0.301348 0.461926
1259 4 0.121543 0.32493 0.456392
9 3 0.158174 0.318518 0.417093
489 4 0.384118 0.249967 0.435281
265 2 0.386881 0.267762 0.469829
267 4 0.385762 0.287171 0.485552
3308 4 0.467506 0.327685 0.482757
1011 4 0.457844 0.319244 0.498879
1009 2 0.468946 0.29729 0.503349
1010 4 0.480049 0.275337 0.507818
326 4 0.0811008 0.370127 0.441166
503 4 0.136278 0.335842 0.458888
7 3 0.135852 0.334022 0.443054
6 1 0.150383 0.338561 0.425809
327 4 0.118227 0.337103 0.446802
325 2 0.0996641 0.353615 0.443984
10 3 0.139432 0.350319 0.40967
709 2 0.143203 0.402067 0.500203
502 2 0.14146 0.349133 0.479422
8 3 0.168124 0.351048 0.434039
334 2 0.311767 0.376414 0.42664
336 4 0.308436 0.387593 0.448756
668 4 0.29613 0.397459 0.459569
882 4 0.313065 0.395868 0.466849
880 2 0.330126 0.38883 0.483718
3309 4 0.482836 0.347324 0.439398
560 4 0.469547 0.35822 0.431044
3307 2 0.475171 0.337504 0.461078
680 4 0.995707 0.455202 0.452808
1381 2 0.00540464 0.490555 0.458125
1383 4 0.999254 0.472591 0.441857
711 4 0.131324 0.423421 0.494902
408 4 0.108558 0.465984 0.42915
383 4 0.123482 0.455339 0.434817
384 4 0.129734 0.424452 0.473645
569 4 0.125897 0.474453 0.429408
382 2 0.126608 0.439895 0.454231
773 4 0.320734 0.48212 0.497428
635 4 0.279941 0.466046 0.45933
669 4 0.28423 0.44603 0.459632
774 4 0.297288 0.45914 0.459706
772 2 0.309011 0.47063 0.478567
667 2 0.29018 0.421745 0.459601
634 2 0.265012 0.476409 0.442156
663 4 0.45587 0.479854 0.483189
1058 4 0.10255 0.0852658 0.523775
1152 4 0.239797 0.0597567 0.511977
1150 2 0.2426 0.0645113 0.536364
1151 4 0.245403 0.0692659 0.560751
1032 4 0.234302 0.0668188 0.57816
1181 4 0.234038 0.0824754 0.568082
841 2 0.363596 0.0654082 0.507257
843 4 0.339593 0.0646106 0.5003
1216 2 0.429068 0.0625336 0.521198
1218 4 0.451012 0.0613771 0.533126
1270 2 0.083267 0.151042 0.565448
1271 4 0.0935661 0.129874 0.573874
1057 2 0.102381 0.10083 0.543344
1059 4 0.102212 0.116393 0.562912
1155 4 0.110212 0.127739 0.576461
939 4 0.0987763 0.113143 0.582459
1153 2 0.135128 0.129548 0.577522
1154 4 0.160043 0.131357 0.578582
1180 2 0.232432 0.105997 0.57641
898 2 0.244381 0.159933 0.556576
900 4 0.234874 0.144443 0.573747
1221 4 0.170596 0.148165 0.576233
1219 2 0.195161 0.147183 0.580794
1220 4 0.219725 0.146201 0.585354
1182 4 0.230826 0.129518 0.584737
576 4 0.415001 0.152232 0.498523
1199 4 0.0277639 0.20377 0.55547
877 2 0.0637583 0.201571 0.554055
1272 4 0.0729678 0.172211 0.557022
878 4 0.043236 0.214694 0.559695
1198 2 0.0061248 0.211659 0.545739
879 4 0.0842805 0.188449 0.548415
651 4 0.21177 0.22507 0.523804
858 4 0.202365 0.241633 0.517773
649 2 0.230767 0.209537 0.528603
650 4 0.249764 0.194004 0.533402
856 2 0.190315 0.255072 0.535076
899 4 0.253889 0.175422 0.539404
984 4 0.998102 0.30803 0.573192
695 4 0.105337 0.249426 0.529735
694 2 0.107524 0.260869 0.507611
946 2 0.17242 0.288605 0.573807
857 4 0.178265 0.26851 0.552378
947 4 0.189669 0.271386 0.568226
798 4 0.205643 0.279587 0.575752
796 2 0.229163 0.286727 0.571168
797 4 0.252683 0.293867 0.566583
872 4 0.364682 0.313856 0.577725
2455 2 0.509528 0.258157 0.498172
2457 4 0.496471 0.279451 0.497054
954 4 0.497126 0.291754 0.561181
952 2 0.492746 0.307348 0.580229
3263 4 0.0408853 0.339607 0.570749
3262 2 0.0492489 0.358428 0.584926
710 4 0.155081 0.380714 0.505503
504 4 0.146643 0.362424 0.499957
1189 2 0.251227 0.370584 0.582379
1191 4 0.230114 0.381544 0.590077
804 4 0.282182 0.373347 0.507467
803 4 0.27866 0.36058 0.555689
802 2 0.280421 0.366963 0.531578
1190 4 0.272341 0.359623 0.57468
1238 4 0.288858 0.361051 0.572307
1237 2 0.313718 0.361963 0.574822
1239 4 0.338578 0.362875 0.577337
930 4 0.353258 0.36749 0.564008
929 4 0.357255 0.385844 0.517663
928 2 0.355257 0.376667 0.540836
881 4 0.347187 0.381793 0.500586
1081 2 0.0571734 0.0821021 0.64161
1082 4 0.0623962 0.0664878 0.660427
1126 2 0.0252381 0.088651 0.594891
1128 4 0.00533553 0.0782827 0.583865
1030 2 0.245845 0.0474864 0.589031
1031 4 0.257388 0.0281539 0.599903
2133 4 0.177449 0.0206657 0.666244
2131 2 0.183687 0.00718137 0.646133
951 4 0.271014 0.0154034 0.608244
949 2 0.295814 0.0146485 0.611333
950 4 0.320615 0.0138936 0.614423
1226 4 0.273044 0.0757226 0.648388
3008 4 0.500491 0.029944 0.599498
809 4 0.4857 0.0262419 0.613378
808 2 0.477251 0.043056 0.629843
810 4 0.468802 0.0598702 0.646307
45 3 0.469733 0.0796842 0.645521
1083 4 0.0519505 0.0977164 0.622793
1127 4 0.0451408 0.0990193 0.605916
938 4 0.0653724 0.0909126 0.612303
937 2 0.0820743 0.102028 0.597381
1210 2 0.241514 0.140763 0.618839
1212 4 0.235977 0.145055 0.594837
908 4 0.234126 0.123062 0.651611
907 2 0.212964 0.119835 0.664532
1211 4 0.247051 0.136472 0.642841
1227 4 0.252897 0.12149 0.64871
888 4 0.261731 0.138806 0.655052
886 2 0.284 0.148535 0.660938
887 4 0.306269 0.158264 0.666824
1225 2 0.262971 0.0986064 0.648549
3425 4 0.485079 0.0863741 0.661296
1244 4 0.0478058 0.221343 0.577415
1243 2 0.04889 0.245446 0.583977
1194 4 0.319511 0.173269 0.667712
1192 2 0.324807 0.186947 0.647462
1193 4 0.330103 0.200625 0.627213
3123 4 0.490022 0.215832 0.619269
982 2 0.0187583 0.297438 0.582482
983 4 0.0394147 0.286847 0.591773
1245 4 0.0499742 0.269548 0.59054
948 4 0.15517 0.305825 0.579388
1136 4 0.162936 0.306804 0.598463
1135 2 0.167169 0.325002 0.615079
790 2 0.274255 0.321817 0.581207
791 4 0.267042 0.29793 0.579599
871 2 0.383503 0.315207 0.59413
873 4 0.402324 0.316558 0.610535
813 4 0.400807 0.323249 0.630457
953 4 0.488366 0.322941 0.599277
3112 2 0.481548 0.274675 0.663931
1041 4 0.0679326 0.385889 0.612606
3264 4 0.0576125 0.377249 0.599103
3240 4 0.0485437 0.391072 0.608767
3238 2 0.030525 0.408406 0.608572
3239 4 0.0125062 0.42574 0.608376
1039 2 0.0898016 0.389015 0.624317
1040 4 0.111671 0.392141 0.636029
993 4 0.128867 0.389816 0.625302
991 2 0.147431 0.374013 0.630855
822 4 0.162215 0.344218 0.64804
992 4 0.165994 0.35821 0.636407
1137 4 0.171402 0.3432 0.631695
1064 4 0.180636 0.354297 0.643701
897 4 0.181509 0.36103 0.626064
896 4 0.210798 0.381349 0.590993
895 2 0.196153 0.371189 0.608529
1172 4 0.221506 0.398291 0.590003
1063 2 0.197613 0.359997 0.661151
792 4 0.281468 0.345703 0.582814
811 2 0.399813 0.34791 0.634463
927 4 0.395554 0.389091 0.646469
812 4 0.398818 0.37257 0.638469
925 2 0.412539 0.400615 0.63219
1206 4 0.380315 0.37724 0.64394
906 4 0.490659 0.339843 0.608705
926 4 0.429524 0.412139 0.617911
539 4 0.0783975 0.439838 0.588567
2244 4 0.113519 0.489113 0.6004
1160 4 0.129909 0.482742 0.608361
540 4 0.115316 0.470078 0.603507
538 2 0.096857 0.454958 0.596037
1159 2 0.152054 0.48649 0.619347
1171 2 0.224471 0.42164 0.598444
1186 2 0.210977 0.472006 0.630069
1173 4 0.227435 0.444988 0.606885
1187 4 0.230461 0.458712 0.621773
1188 4 0.191493 0.4853 0.638366
1161 4 0.174199 0.490239 0.630334
1029 4 0.243392 0.422348 0.66901
1002 4 0.428705 0.427108 0.630006
1911 4 0.431403 0.48829 0.622524
1001 4 0.434679 0.476284 0.636845
1000 2 0.431692 0.451696 0.633425
1269 4 0.447912 0.490157 0.635081
944 4 0.0479441 0.041372 0.664518
943 2 0.0385218 0.0199829 0.6734
1076 4 0.0612076 0.0526013 0.673865
1075 2 0.0616704 0.0651453 0.695489
864 4 0.0659183 0.0781705 0.735415
862 2 0.0435099 0.0776108 0.746494
1077 4 0.0621333 0.0776894 0.717114
825 4 0.143019 0.0634109 0.68186
823 2 0.163311 0.0489461 0.67982
1106 4 0.119059 0.0785565 0.750864
1148 4 0.256134 0.0700729 0.656512
2256 4 0.174634 0.0176731 0.684486
824 4 0.183604 0.0344813 0.67778
2254 2 0.16525 0.9987 0.697795
1147 2 0.252107 0.046886 0.664958
1149 4 0.248081 0.0236992 0.673404
1004 4 0.361211 0.0835595 0.74982
41 1 0.462002 0.0749987 0.666424
43 3 0.441214 0.0848175 0.669562
42 3 0.459899 0.0522147 0.668793
1163 4 0.470114 0.0615454 0.688262
1162 2 0.482333 0.0540951 0.708764
851 4 0.068804 0.0936986 0.708987
850 2 0.0687397 0.117956 0.702924
852 4 0.0686755 0.142213 0.69686
1107 4 0.0772529 0.0893127 0.725619
1283 4 0.151644 0.0811428 0.683972
1282 2 0.163122 0.103142 0.680896
1105 2 0.0981558 0.0839346 0.738241
1284 4 0.1746 0.125141 0.677819
909 4 0.191802 0.116609 0.677452
830 4 0.324962 0.15458 0.666572
829 2 0.335409 0.138231 0.682343
1005 4 0.340437 0.105522 0.709986
1003 2 0.350824 0.0945407 0.729903
831 4 0.345855 0.121881 0.698115
44 3 0.476953 0.082847 0.682338
3268 2 0.480896 0.13325 0.743192
3270 4 0.484941 0.146899 0.722637
1214 4 0.00693267 0.193399 0.738856
1073 4 0.0677363 0.253701 0.738654
1215 4 0.00460572 0.242972 0.732702
1213 2 0.0057692 0.218185 0.735779
977 4 0.314214 0.250824 0.744289
1297 2 0.290797 0.215279 0.735548
1298 4 0.302871 0.235653 0.743568
918 4 0.294622 0.251674 0.737211
1299 4 0.278724 0.194906 0.727527
1025 4 0.384803 0.19588 0.702437
1024 2 0.406405 0.198016 0.714846
976 2 0.338217 0.247844 0.737953
1020 4 0.378357 0.245616 0.744331
1142 4 0.430561 0.197713 0.745894
1144 2 0.459506 0.180597 0.725726
1262 4 0.434853 0.215136 0.737455
1026 4 0.428007 0.200151 0.727255
1145 4 0.445875 0.199266 0.735257
1146 4 0.473137 0.161927 0.716196
1261 2 0.44465 0.237903 0.740754
1178 4 0.0138816 0.260312 0.733897
1177 2 0.0373927 0.265178 0.740878
1179 4 0.0609037 0.270044 0.747858
1072 2 0.0925158 0.255536 0.735863
1208 4 0.127476 0.272315 0.724589
1074 4 0.117295 0.257371 0.733072
1207 2 0.128205 0.294347 0.712788
821 4 0.138393 0.327092 0.688536
1209 4 0.128934 0.316379 0.700988
1130 4 0.135405 0.259608 0.736777
815 4 0.117017 0.328358 0.709076
806 4 0.254686 0.313335 0.69402
978 4 0.36222 0.244864 0.731616
1263 4 0.454447 0.26067 0.744053
3114 4 0.460879 0.286197 0.672007
892 2 0.0398456 0.346499 0.717311
1280 4 0.0660671 0.36899 0.718244
816 4 0.0737298 0.353205 0.712169
894 4 0.0626534 0.350091 0.726907
893 4 0.0170379 0.342907 0.707716
820 2 0.150304 0.335655 0.668288
942 4 0.136522 0.333247 0.707196
1279 2 0.0743122 0.387556 0.732821
814 2 0.0953734 0.340782 0.710623
940 2 0.151248 0.349143 0.719672
1078 2 0.16693 0.406099 0.741245
941 4 0.165974 0.365038 0.732148
1080 4 0.171626 0.381645 0.738984
805 2 0.236921 0.33075 0.691514
1065 4 0.214589 0.365697 0.678601
807 4 0.219156 0.348166 0.689008
1028 4 0.228708 0.378038 0.686945
1066 2 0.202065 0.367341 0.71563
1068 4 0.218641 0.365254 0.697028
1027 2 0.23605 0.400193 0.677977
1067 4 0.185489 0.369429 0.734233
1204 2 0.362041 0.383034 0.659991
1205 4 0.343766 0.388828 0.676042
1079 4 0.162234 0.430554 0.743505
1174 2 0.182933 0.483558 0.730628
1175 4 0.186959 0.487745 0.706309
2172 4 0.192088 0.492628 0.687044
1140 4 0.2377 0.435282 0.683628
1228 2 0.3124 0.452138 0.687327
1138 2 0.257387 0.44824 0.691976
1139 4 0.277074 0.461198 0.700325
1987 2 0.310631 0.452177 0.742188
1229 4 0.29396 0.455276 0.70392
1989 4 0.306163 0.459571 0.718724
2028 4 0.293297 0.471212 0.709662
1230 4 0.330839 0.448999 0.670734
2026 2 0.284085 0.493979 0.704975
1099 2 0.493526 0.490307 0.706382
2989 2 0.0188726 0.0464012 0.789703
2990 4 0.0185103 0.0669863 0.775515
2991 4 0.0192348 0.0258162 0.803891
863 4 0.0211015 0.0770511 0.757572
3083 4 0.00436808 0.0749932 0.765753
833 4 0.0185344 0.0860619 0.77412
2049 4 0.0999114 0.00738807 0.778928
1202 4 0.104108 0.0253789 0.784415
1201 2 0.116127 0.0471919 0.7822
1203 4 0.128147 0.0690048 0.779984
32 3 0.146605 0.0764897 0.787434
1085 4 0.308178 0.0665804 0.802277
960 4 0.319796 0.0693978 0.818301
819 4 0.32319 0.0554243 0.805159
1050 4 0.345825 0.00523844 0.786892
817 2 0.340047 0.0386822 0.797368
818 4 0.356904 0.0219401 0.789576
974 4 0.356326 0.00866992 0.80282
2320 2 0.486547 0.0503392 0.769828
844 2 0.486045 0.0612954 0.831991
845 4 0.476654 0.0678579 0.809767
2322 4 0.480388 0.0587643 0.792549
1112 4 0.482732 0.0777484 0.795068
832 2 0.0207978 0.103862 0.791533
834 4 0.0230612 0.121662 0.808946
1125 4 0.038063 0.13338 0.813326
34 3 0.117172 0.0894473 0.76798
911 4 0.139287 0.0898857 0.803039
31 1 0.137382 0.0952332 0.777802
35 3 0.13398 0.111018 0.793862
33 3 0.151982 0.103346 0.761694
910 2 0.14277 0.0891335 0.827788
1256 4 0.221117 0.129309 0.818847