ITEM: TIMESTEP
3470000
ITEM: NUMBER OF ATOMS
4590
ITEM: BOX BOUNDS pp pp pp
-9.9985700000000008e+00 9.9985700000000008e+00
-9.9985700000000008e+00 9.9985700000000008e+00
-9.9985700000000008e+00 9.9985700000000008e+00
ITEM: ATOMS id type xs ys zs
701 4 0.0396814 0.0477536 0.0739673
700 2 0.0517115 0.0675362 0.0834066
1667 4 0.0199101 0.0455093 0.0686113
1666 2 0.995002 0.045825 0.0707723
702 4 0.0637416 0.0873189 0.092846
490 2 0.266832 0.0536193 0.0684624
492 4 0.275896 0.0332561 0.0571332
1475 4 0.294161 0.0225443 0.0571913
491 4 0.257767 0.0739826 0.0797916
745 2 0.423409 0.0832538 0.00793517
2974 2 0.467706 0.0331414 0.0208611
747 4 0.439868 0.064568 0.0101927
2975 4 0.451986 0.0497723 0.0107869
986 4 0.432749 0.0495069 0.00288718
2976 4 0.483426 0.0165106 0.0309353
2468 4 0.488789 0.00832357 0.0464079
3836 4 0.501055 0.0113147 0.0282262
1826 4 0.49095 0.996456 0.0320099
475 2 0.064883 0.121055 0.0641557
477 4 0.0603129 0.138311 0.0466486
476 4 0.0694531 0.103798 0.0816629
566 4 0.210244 0.172584 0.0351786
565 2 0.224455 0.163865 0.0165447
746 4 0.406949 0.10194 0.00567764
769 2 0.386881 0.141176 0.0180883
556 2 0.368035 0.0929509 0.997159
558 4 0.38822 0.0996443 0.01031
771 4 0.380823 0.117436 0.0131027
737 4 0.214457 0.19072 0.0289777
736 2 0.202128 0.206045 0.0444156
738 4 0.189799 0.22137 0.0598534
770 4 0.392939 0.164917 0.0230738
359 4 0.384644 0.177365 0.0107769
664 2 0.396956 0.202823 0.0435819
665 4 0.392091 0.184984 0.026751
666 4 0.401821 0.220662 0.0604129
623 4 0.389971 0.233074 0.0683542
323 4 0.403892 0.240771 0.0584915
555 4 0.0677275 0.26719 0.00235268
2808 4 0.0125349 0.266367 0.01889
481 2 0.233287 0.265213 0.0644315
505 2 0.191835 0.310431 0.0690442
483 4 0.212592 0.278899 0.067523
288 4 0.233268 0.331227 0.0113038
286 2 0.21701 0.337171 0.0293456
573 4 0.271498 0.258731 0.0545528
482 4 0.253983 0.251527 0.0613401
571 2 0.288945 0.270012 0.0406418
572 4 0.306392 0.281293 0.0267309
357 4 0.311573 0.283255 0.00797023
355 2 0.32346 0.304906 0.00408535
1069 2 0.411647 0.317043 0.0372999
322 2 0.416008 0.26143 0.0513095
324 4 0.428124 0.282089 0.0441274
1070 4 0.428035 0.298408 0.034238
280 2 0.456753 0.298863 0.0646926
282 4 0.444687 0.291286 0.0441457
292 2 0.164485 0.343643 0.0348786
294 4 0.146244 0.341028 0.0179789
507 4 0.19012 0.335009 0.0647825
287 4 0.200751 0.343116 0.0473874
293 4 0.182726 0.346257 0.0517784
552 4 0.176677 0.34908 0.0700673
456 4 0.221471 0.391671 0.074216
454 2 0.207979 0.371373 0.0686384
455 4 0.194487 0.351074 0.0630609
1290 4 0.267225 0.404304 0.0426579
1288 2 0.278259 0.387324 0.0279911
1289 4 0.289293 0.370344 0.0133244
903 4 0.300603 0.37928 0.998925
901 2 0.318679 0.362073 0.99738
956 4 0.339454 0.338386 0.0140752
1071 4 0.395259 0.335677 0.0403618
955 2 0.358761 0.339306 0.0299365
957 4 0.378067 0.340226 0.0457978
741 4 0.392368 0.347344 0.0563098
1304 4 0.378934 0.3705 0.0137458
1303 2 0.37111 0.393449 0.00764083
1305 4 0.363286 0.416399 0.00153586
1786 2 0.107374 0.489963 0.0709773
625 2 0.159218 0.476986 0.0648263
627 4 0.143251 0.495998 0.0677931
1788 4 0.0878635 0.477875 0.0808983
626 4 0.175186 0.457975 0.0618594
245 4 0.185532 0.446721 0.0507435
244 2 0.210133 0.443191 0.053487
246 4 0.234733 0.439661 0.0562304
251 4 0.253966 0.414624 0.0543182
272 4 0.249241 0.432265 0.0437646
271 2 0.26142 0.439352 0.0231099
273 4 0.273599 0.446439 0.00245516
250 2 0.264095 0.422233 0.0758749
1157 4 0.284819 0.439236 0.98839
1672 2 0.41083 0.4425 0.0836355
853 2 0.398389 0.45348 0.0300525
855 4 0.382235 0.447398 0.0119632
37 3 0.367333 0.433557 0.0173893
854 4 0.414544 0.459561 0.0481417
1674 4 0.422927 0.449025 0.0627484
564 4 0.433883 0.456603 0.0488831
563 4 0.476246 0.469928 0.0258924
562 2 0.455065 0.463266 0.0373877
228 4 0.474705 0.457673 0.00963003
19 3 0.0557094 0.00393964 0.157483
577 2 0.074744 0.0419951 0.160693
579 4 0.0838708 0.0628414 0.150334
450 4 0.0991049 0.0730517 0.158402
448 2 0.123943 0.0748175 0.156138
582 4 0.226211 0.0484328 0.160659
237 4 0.210639 0.0586607 0.170384
235 2 0.188984 0.0703588 0.165981
236 4 0.167329 0.0820569 0.161577
2759 4 0.00602798 0.180565 0.124105
393 4 0.0466803 0.166313 0.183402
449 4 0.148781 0.0765833 0.153875
628 2 0.376918 0.165307 0.164475
629 4 0.371342 0.140996 0.16623
2723 4 0.490249 0.10617 0.111436
2624 4 0.00183269 0.19297 0.109045
460 2 0.324956 0.228911 0.106863
461 4 0.301881 0.221842 0.100325
354 4 0.282668 0.219598 0.106812
352 2 0.271895 0.232825 0.125092
353 4 0.261122 0.246053 0.143372
278 4 0.256919 0.243454 0.161479
462 4 0.348031 0.23598 0.113401
255 4 0.365461 0.238688 0.123284
253 2 0.374937 0.223745 0.14095
622 2 0.375824 0.240306 0.0876603
254 4 0.384413 0.208803 0.158617
630 4 0.382494 0.189618 0.162719
624 4 0.361677 0.247539 0.106966
506 4 0.193549 0.285853 0.073306
537 4 0.186434 0.276793 0.0895148
755 4 0.24192 0.24519 0.150105
536 4 0.171319 0.265399 0.135801
535 2 0.178877 0.271096 0.112658
754 2 0.232729 0.267951 0.145346
756 4 0.223538 0.290712 0.140587
612 4 0.226585 0.303529 0.155231
301 2 0.320482 0.318857 0.137161
303 4 0.318353 0.300436 0.153934
764 4 0.329929 0.285742 0.153737
284 4 0.271795 0.254485 0.158617
283 2 0.290696 0.270848 0.159056
285 4 0.309597 0.287211 0.159494
765 4 0.351321 0.250658 0.125238
763 2 0.340625 0.2682 0.139487
12 3 0.407415 0.323923 0.12937
281 4 0.468819 0.30644 0.0852396
671 4 0.458729 0.323155 0.0928569
527 4 0.476057 0.318015 0.0984433
526 2 0.497607 0.327105 0.0896033
647 4 0.0671916 0.349568 0.146624
550 2 0.158604 0.350596 0.0872791
551 4 0.140531 0.352113 0.104491
302 4 0.322612 0.337278 0.120389
387 4 0.327068 0.357627 0.116239
739 2 0.393661 0.349256 0.0812066
385 2 0.351968 0.359102 0.11451
493 2 0.393884 0.393739 0.110662
495 4 0.393711 0.368754 0.111631
386 4 0.376868 0.360577 0.112781
15 3 0.378182 0.346382 0.123547
740 4 0.394955 0.351168 0.106103
14 3 0.413153 0.360051 0.120741
11 1 0.399284 0.345274 0.132041
13 3 0.39899 0.350413 0.154666
494 4 0.394057 0.418723 0.109692
672 4 0.416292 0.339983 0.113268
670 2 0.43751 0.331569 0.103062
1465 2 0.0632131 0.470517 0.103864
1466 4 0.0426183 0.478788 0.115381
1791 4 0.0528905 0.495778 0.118102
1467 4 0.0838079 0.462246 0.0923481
766 2 0.206198 0.451911 0.150612
768 4 0.203398 0.427934 0.144098
767 4 0.208998 0.475888 0.157126
290 4 0.209461 0.412377 0.157025
638 4 0.196287 0.493 0.158865
252 4 0.274223 0.429843 0.0974316
609 4 0.278615 0.446071 0.108844
607 2 0.302774 0.442816 0.114408
608 4 0.326932 0.439561 0.119972
659 4 0.332226 0.438925 0.100775
660 4 0.381749 0.434239 0.105892
1673 4 0.398733 0.435976 0.104523
658 2 0.356988 0.436582 0.103333
524 4 0.39432 0.489693 0.143229
523 2 0.392435 0.468593 0.129947
525 4 0.39055 0.447492 0.116665
578 4 0.0656173 0.0211489 0.171052
2479 2 0.00612578 0.0256554 0.201694
380 4 0.0194378 0.0538358 0.217145
2481 4 0.000882472 0.0477819 0.212091
20 3 0.0613768 0.0153244 0.192922
17 3 0.0282336 0.00132802 0.182996
580 2 0.246062 0.0411538 0.174005
1506 4 0.258402 0.00880853 0.20088
581 4 0.265913 0.0338748 0.187352
654 4 0.266156 0.0258729 0.204973
652 2 0.286413 0.031568 0.218478
653 4 0.30667 0.0372631 0.231983
24 3 0.318342 0.0429377 0.248339
758 4 0.337399 0.0724851 0.178316
759 4 0.366636 0.0634251 0.217861
757 2 0.352017 0.0679551 0.198088
350 4 0.372752 0.0518826 0.232608
349 2 0.395634 0.044101 0.226204
632 4 0.364412 0.0641893 0.237472
25 3 0.340989 0.0138333 0.240745
22 3 0.355108 0.0483261 0.242696
21 1 0.339481 0.033885 0.251436
743 4 0.500008 0.0536753 0.235575
480 4 0.436003 0.0444698 0.228378
351 4 0.418517 0.0363194 0.219799
478 2 0.446839 0.040857 0.25062
513 4 0.0422951 0.148001 0.17799
379 2 0.0243921 0.0776488 0.21135
511 2 0.0391491 0.132617 0.197448
512 4 0.0360031 0.117233 0.216905
381 4 0.0293464 0.101462 0.205556
312 4 0.350853 0.13815 0.167706
310 2 0.342389 0.114643 0.168691
30 3 0.35934 0.149529 0.228516
311 4 0.333925 0.0911367 0.169675
26 1 0.379305 0.141929 0.236409
28 3 0.39285 0.135426 0.218728
761 4 0.410763 0.123446 0.217192
27 3 0.389793 0.15881 0.247994
631 2 0.365103 0.0863356 0.249058
521 4 0.476075 0.13111 0.2228
762 4 0.458616 0.129479 0.230395
760 2 0.434689 0.126463 0.223793
332 4 0.470199 0.115418 0.234712
331 2 0.481224 0.0931406 0.231998
520 2 0.484298 0.154434 0.219115
391 2 0.0539398 0.188216 0.173772
392 4 0.0611994 0.210119 0.164142
339 4 0.0616033 0.230086 0.1696
337 2 0.0692366 0.245526 0.187725
279 4 0.245748 0.209234 0.196191
277 2 0.251334 0.226344 0.178835
394 2 0.0267704 0.268116 0.236443
395 4 0.0473938 0.269468 0.22237
338 4 0.0768698 0.260966 0.20585
363 4 0.0666372 0.272598 0.220079
361 2 0.0688907 0.296107 0.211868
362 4 0.0711443 0.319617 0.203657
546 4 0.0769915 0.257862 0.224123
544 2 0.0986283 0.254811 0.236277
545 4 0.120265 0.25176 0.248431
372 4 0.0904245 0.32892 0.199011
733 2 0.155952 0.330383 0.238809
611 4 0.219346 0.32087 0.201573
610 2 0.222965 0.312199 0.178402
344 4 0.227297 0.315117 0.219105
343 2 0.207837 0.309133 0.23362
735 4 0.170617 0.31359 0.250127
401 4 0.171545 0.294759 0.246806
729 4 0.305102 0.304018 0.166718
727 2 0.292297 0.318731 0.182362
308 4 0.322062 0.291464 0.169794
728 4 0.279491 0.333444 0.198006
496 2 0.34442 0.305055 0.245928
498 4 0.347854 0.295253 0.223183
307 2 0.332826 0.284891 0.191384
309 4 0.34359 0.278319 0.212974
749 4 0.061537 0.335469 0.210097
648 4 0.0729533 0.332721 0.193354
748 2 0.0677596 0.351635 0.228129
646 2 0.0700725 0.341145 0.169989
750 4 0.0739823 0.3678 0.24616
370 2 0.114158 0.335437 0.20342
371 4 0.137891 0.341954 0.207829
734 4 0.141287 0.347176 0.22749
417 4 0.136016 0.358832 0.216739
299 4 0.134473 0.360812 0.23874
415 2 0.152301 0.377416 0.212921
298 2 0.112592 0.366845 0.249228
416 4 0.168587 0.396 0.209102
289 2 0.195175 0.40208 0.174774
291 4 0.180888 0.391783 0.192524
445 2 0.391722 0.359922 0.224651
446 4 0.370643 0.363302 0.211635
447 4 0.412802 0.356542 0.237666
644 4 0.427604 0.363439 0.224821
595 2 0.4871 0.386404 0.167829
643 2 0.44481 0.376111 0.21184
645 4 0.462016 0.388784 0.198858
597 4 0.47112 0.397307 0.183671
412 2 0.238094 0.501851 0.245101
414 4 0.23831 0.518703 0.226632
229 2 0.441614 0.474933 0.22147
231 4 0.446023 0.452679 0.231981
234 4 0.0205238 0.0523394 0.28576
232 2 0.0409355 0.042355 0.296193
233 4 0.0613471 0.0323706 0.306626
317 4 0.0667889 0.0254053 0.324315
1404 4 0.0711061 0.0162703 0.310497
428 4 0.0691476 0.00657061 0.327418
2756 4 0.00423462 0.0577098 0.296384
2478 4 0.00467533 0.0594739 0.277909
1402 2 0.0820203 0.00677118 0.290105
1403 4 0.0929346 0.997272 0.269714
693 4 0.306229 0.0555364 0.256982
691 2 0.296593 0.0771004 0.265187
23 3 0.34367 0.0311136 0.274089
698 4 0.415869 0.0876768 0.331434
333 4 0.492249 0.0708636 0.229285
257 4 0.421545 0.0792823 0.313741
479 4 0.457674 0.0372443 0.272863
2664 4 0.474042 0.030867 0.280799
1428 4 0.456189 0.0291047 0.28785
258 4 0.449463 0.0479338 0.286565
2662 2 0.498588 0.0294778 0.285354
256 2 0.435504 0.0636081 0.300153
1426 2 0.446549 0.00871625 0.298646
2755 2 0.000757818 0.0735444 0.31542
403 2 0.232367 0.157317 0.320471
404 4 0.247023 0.137085 0.321503
692 4 0.286957 0.0986644 0.273392
721 2 0.274334 0.122614 0.296577
723 4 0.286747 0.119054 0.275166
722 4 0.261921 0.126173 0.317987
29 3 0.375848 0.124015 0.250746
707 4 0.375614 0.11742 0.268906
633 4 0.365794 0.108482 0.260645
706 2 0.368311 0.123961 0.291908
708 4 0.361009 0.130501 0.314909
321 4 0.359969 0.139143 0.333022
717 4 0.374199 0.153842 0.335515
600 4 0.0997577 0.196291 0.33974
405 4 0.217711 0.177548 0.319439
419 4 0.414573 0.246226 0.325423
269 4 0.41914 0.239601 0.343605
396 4 0.00614694 0.266765 0.250515
442 2 0.992782 0.259702 0.284372
443 4 0.0110778 0.257749 0.267442
402 4 0.138254 0.2581 0.253773
400 2 0.154899 0.276429 0.250289
676 2 0.183026 0.308728 0.287424
677 4 0.177792 0.302913 0.263676
345 4 0.188377 0.30315 0.248135
678 4 0.188259 0.314543 0.311172
375 4 0.170597 0.315081 0.317988
378 4 0.281642 0.310935 0.280871
376 2 0.305411 0.318688 0.280547
377 4 0.32918 0.326442 0.280222
497 4 0.340986 0.314856 0.268672
543 4 0.343326 0.319644 0.287113
418 2 0.392544 0.256286 0.319203
541 2 0.355663 0.302984 0.301093
542 4 0.368 0.286325 0.315073
420 4 0.370515 0.266345 0.312982
2537 4 0.490715 0.316696 0.336746
364 2 0.00968013 0.395268 0.286643
601 2 0.0510258 0.415337 0.317372
603 4 0.034801 0.42011 0.298956
365 4 0.0231729 0.415731 0.281701
300 4 0.0907102 0.372877 0.259715
510 4 0.198692 0.325991 0.32209
508 2 0.216072 0.343551 0.325931
509 4 0.233452 0.361111 0.329772
615 4 0.339741 0.336536 0.294719
434 4 0.316916 0.386634 0.325799
433 2 0.301008 0.405925 0.325876
613 2 0.334175 0.354256 0.311458
614 4 0.32861 0.371975 0.328198
2 3 0.270607 0.415588 0.315034
1757 4 0.0167545 0.423884 0.266131
1756 2 0.0287117 0.445472 0.270149
1758 4 0.0406688 0.467061 0.274168
1775 4 0.0591155 0.472458 0.273759
775 2 0.0434345 0.487195 0.311071
777 4 0.0492758 0.479547 0.287994
1776 4 0.106024 0.486227 0.263237
1774 2 0.0825698 0.479342 0.268498
413 4 0.237879 0.484998 0.263571
4 3 0.240643 0.427824 0.295926
1436 4 0.241212 0.494408 0.280269
1435 2 0.244648 0.47163 0.289991
1437 4 0.248083 0.448852 0.299714
3 3 0.25735 0.450103 0.32179
1 1 0.251487 0.428301 0.316434
436 2 0.292311 0.460676 0.324077
438 4 0.276684 0.441157 0.324139
435 4 0.2851 0.425215 0.325952
437 4 0.307937 0.480195 0.324015
1802 4 0.323772 0.474343 0.313856
1801 2 0.347949 0.479275 0.317898
1803 4 0.372126 0.484206 0.321939
316 2 0.0803782 0.0399668 0.339431
399 4 0.0881898 0.0731527 0.355879
318 4 0.0939676 0.0545283 0.354546
732 4 0.101258 0.0667427 0.368936
730 2 0.126205 0.0664812 0.370603
731 4 0.151151 0.0662196 0.37227
606 4 0.159257 0.0822777 0.362509
604 2 0.182361 0.090894 0.358368
425 4 0.366192 0.00543311 0.409584
1701 4 0.372396 0.00693652 0.391288
699 4 0.386046 0.0550378 0.354801
1699 2 0.375731 0.0298546 0.381864
1700 4 0.379065 0.0527728 0.372439
697 2 0.400958 0.0713573 0.343118
962 4 0.347306 0.00884108 0.413913
397 2 0.0713601 0.0884907 0.366208
398 4 0.0545305 0.103829 0.376537
2584 2 0.0191897 0.104277 0.361807
2586 4 0.0399059 0.115545 0.370117
458 4 0.0383303 0.132779 0.379871
457 2 0.0394189 0.151338 0.39659
605 4 0.205464 0.0995103 0.354227
249 4 0.248666 0.121283 0.332195
248 4 0.221798 0.0976592 0.367134
247 2 0.235232 0.109471 0.349664
683 4 0.26205 0.134537 0.334998
682 2 0.282102 0.147124 0.34304
684 4 0.302154 0.159711 0.351082
319 2 0.336082 0.141488 0.340027
726 4 0.401784 0.149006 0.394981
715 2 0.387242 0.155607 0.356774
716 4 0.400285 0.157371 0.378033
467 4 0.390684 0.166203 0.392151
724 2 0.40073 0.125478 0.403376
725 4 0.399676 0.101949 0.411771
641 4 0.479504 0.130057 0.356492
640 2 0.492327 0.124639 0.377263
459 4 0.0405076 0.169897 0.41331
598 2 0.112973 0.210187 0.355785
599 4 0.126187 0.224083 0.37183
686 4 0.123344 0.238535 0.384834
685 2 0.107565 0.237571 0.404206
275 4 0.139304 0.23316 0.382435
389 4 0.137957 0.252156 0.382269
274 2 0.159634 0.218635 0.383391
473 4 0.214473 0.185113 0.336924
474 4 0.190655 0.212338 0.371452
472 2 0.202564 0.198725 0.354188
276 4 0.179963 0.20411 0.384347
320 4 0.312194 0.143833 0.347032
466 2 0.402739 0.180535 0.408717
268 2 0.440931 0.229037 0.349829
270 4 0.462721 0.218473 0.356054
452 4 0.480153 0.223686 0.364841
451 2 0.480874 0.216067 0.388644
453 4 0.481594 0.208448 0.412448
2802 4 0.00268708 0.298106 0.402273
347 4 0.0683725 0.303388 0.386732
346 2 0.0443966 0.297573 0.390796
618 4 0.0751456 0.316976 0.374032
348 4 0.0204208 0.291758 0.394861
616 2 0.0993566 0.315115 0.379993
373 2 0.159209 0.307844 0.339038
388 2 0.137026 0.276955 0.379214
390 4 0.136094 0.301754 0.376159
617 4 0.123568 0.313253 0.385955
374 4 0.147821 0.300608 0.360089
9 3 0.125984 0.326132 0.400862
488 4 0.369817 0.260442 0.385624
487 2 0.372569 0.254141 0.409664
602 4 0.0672506 0.410564 0.335788
549 4 0.0843317 0.406977 0.34551
547 2 0.0872204 0.421237 0.365845
10 3 0.141275 0.357681 0.414592
335 4 0.306188 0.378546 0.41298
240 4 0.323468 0.387234 0.40448
238 2 0.339382 0.391804 0.385744
239 4 0.355295 0.396374 0.367008
752 4 0.448107 0.393366 0.377822
561 4 0.449023 0.380685 0.392323
751 2 0.461531 0.413969 0.373292
559 2 0.461486 0.367537 0.409557
500 4 0.0517013 0.486892 0.347666
499 2 0.0612431 0.473033 0.366161
501 4 0.0707849 0.459173 0.384655
407 4 0.0831228 0.449728 0.398769
548 4 0.0901091 0.435496 0.386179
406 2 0.0932468 0.453561 0.421308
1555 2 0.232645 0.497984 0.406274
5 3 0.237932 0.419707 0.332592
1557 4 0.247497 0.484445 0.42115
1544 4 0.198342 0.510717 0.386515
636 4 0.264757 0.487728 0.431324
587 4 0.36268 0.41449 0.365277
593 4 0.380988 0.471011 0.334369
588 4 0.365777 0.458203 0.341188
586 2 0.364228 0.436347 0.353232
592 2 0.39849 0.48558 0.344694
119 3 0.482229 0.471 0.342883
2862 4 0.494011 0.481439 0.35615
116 1 0.487444 0.457186 0.360782
712 2 0.45122 0.492222 0.36145
714 4 0.470181 0.475943 0.362256
753 4 0.474955 0.434571 0.368761
117 3 0.469285 0.456083 0.374861
118 3 0.492322 0.435825 0.353144
594 4 0.415992 0.500149 0.355019
718 2 0.0217147 0.00708577 0.457559
369 4 0.0633031 0.0165311 0.449985
367 2 0.0880493 0.0186223 0.447082
719 4 0.044754 0.00907624 0.448051
1781 4 0.109055 0.0028882 0.43475
368 4 0.112796 0.0207134 0.444178
963 4 0.323919 0.0489761 0.432432
432 4 0.322537 0.067464 0.440561
430 2 0.320445 0.0722485 0.465013
431 4 0.318353 0.077033 0.489465
961 2 0.335612 0.0289086 0.423173
841 2 0.359938 0.0780825 0.502943
843 4 0.336601 0.0726115 0.495825
2656 2 0.496011 0.134907 0.435099
3489 4 0.487886 0.133345 0.471965
2657 4 0.484229 0.144462 0.454975
576 4 0.412474 0.14242 0.47798
260 4 0.0461463 0.189527 0.413946
259 2 0.0642259 0.205237 0.421122
261 4 0.0823055 0.220947 0.428299
687 4 0.0917856 0.236607 0.423578
1035 4 0.0927824 0.231725 0.442108
1033 2 0.0923661 0.251392 0.457543
409 2 0.39426 0.220466 0.447408
411 4 0.378651 0.239347 0.452408
410 4 0.40987 0.201584 0.442407
468 4 0.414795 0.194866 0.425284
575 4 0.411376 0.186921 0.455194
574 2 0.411925 0.164671 0.466587
515 4 0.470106 0.208587 0.429445
516 4 0.424603 0.192929 0.443048
514 2 0.447355 0.200758 0.436247
2847 4 0.00651075 0.306196 0.420606
1034 4 0.0919499 0.271058 0.472978
696 4 0.103611 0.280161 0.48601
1260 4 0.107983 0.281265 0.466755
1258 2 0.11453 0.303797 0.458117
1259 4 0.121078 0.32633 0.44948
6 1 0.135848 0.336083 0.419358
8 3 0.154879 0.324305 0.425482
266 4 0.365685 0.252876 0.449521
489 4 0.375321 0.247839 0.433703
265 2 0.370551 0.264567 0.47108
267 4 0.375418 0.276258 0.49264
1010 4 0.4988 0.280245 0.510449
326 4 0.073188 0.373644 0.428688
503 4 0.122764 0.344588 0.454691
7 3 0.120917 0.335705 0.436853
327 4 0.108596 0.342467 0.445269
325 2 0.0908922 0.358055 0.436978
502 2 0.126941 0.355683 0.476705
334 2 0.301004 0.388216 0.435448
336 4 0.295819 0.397886 0.457915
668 4 0.293536 0.405497 0.475356
882 4 0.304581 0.3904 0.473903
880 2 0.327811 0.38761 0.482723
804 4 0.28912 0.391586 0.487659
881 4 0.35104 0.38482 0.491544
2508 4 0.483488 0.360752 0.441505
3308 4 0.463682 0.332711 0.48855
3309 4 0.464434 0.353138 0.442912
560 4 0.473948 0.354389 0.42679
3307 2 0.464058 0.342925 0.465731
1383 4 0.00746232 0.470812 0.449577
1381 2 0.999428 0.487256 0.466614
382 2 0.131827 0.444942 0.474726
569 4 0.120037 0.466502 0.441116
568 2 0.132327 0.487374 0.434912
408 4 0.103371 0.457393 0.443847
383 4 0.119029 0.458172 0.457804
384 4 0.144624 0.431712 0.491649
669 4 0.295578 0.455442 0.473916
774 4 0.313632 0.461112 0.471796
772 2 0.330459 0.479435 0.474308
667 2 0.294557 0.430469 0.474636
634 2 0.28296 0.476794 0.444524
635 4 0.301164 0.46586 0.457725
773 4 0.347285 0.497759 0.476819
663 4 0.459661 0.493492 0.470899
1128 4 0.00196659 0.0811732 0.591761
1152 4 0.248444 0.067587 0.517757
1150 2 0.250214 0.0736871 0.54194
342 4 0.231306 0.0579469 0.512732
2430 4 0.195141 0.00894192 0.508023
340 2 0.222138 0.0356056 0.506251
341 4 0.212971 0.0132642 0.499771
1151 4 0.251984 0.0797873 0.566123
1217 4 0.389892 0.0792701 0.530406
842 4 0.383274 0.0835535 0.510061
1216 2 0.412961 0.078631 0.520783
1218 4 0.43603 0.077992 0.51116
1058 4 0.0916382 0.0902325 0.516929
1270 2 0.0908146 0.148748 0.560814
1271 4 0.10095 0.126191 0.564512
1057 2 0.100434 0.100032 0.538184
1059 4 0.10923 0.109831 0.55944
1155 4 0.117856 0.119843 0.573483
1153 2 0.142856 0.120287 0.573316
1154 4 0.167855 0.12073 0.573149
1180 2 0.234379 0.109245 0.586298
898 2 0.239141 0.160826 0.563193
1181 4 0.237322 0.0855932 0.578742
1199 4 0.0321087 0.213556 0.548802
877 2 0.0594712 0.19582 0.549193
878 4 0.0500905 0.217382 0.557693
1198 2 0.00929356 0.223632 0.547037
879 4 0.0688518 0.174257 0.540693
1244 4 0.0545154 0.230082 0.57256
1272 4 0.0806793 0.171304 0.557117
651 4 0.2173 0.229148 0.528294
858 4 0.207389 0.242299 0.516224
649 2 0.222317 0.205787 0.53566
650 4 0.227334 0.182426 0.543026
856 2 0.193744 0.258323 0.529722
899 4 0.244244 0.173085 0.542007
1243 2 0.0452516 0.252787 0.577443
1245 4 0.0359879 0.275492 0.582326
695 4 0.120042 0.265117 0.53078
694 2 0.111826 0.272639 0.508395
946 2 0.165059 0.28623 0.577017
857 4 0.180099 0.274348 0.54322
947 4 0.184087 0.278492 0.562761
798 4 0.203846 0.273339 0.566784
796 2 0.224471 0.28745 0.567598
797 4 0.245096 0.301562 0.568412
790 2 0.263207 0.3267 0.554311
791 4 0.261125 0.302072 0.55809
872 4 0.360959 0.302777 0.581404
954 4 0.487025 0.289689 0.557288
952 2 0.480619 0.302792 0.577597
1011 4 0.471389 0.321771 0.505446
1009 2 0.485095 0.301008 0.507948
2457 4 0.497573 0.263467 0.50022
3263 4 0.0621259 0.344384 0.557818
3262 2 0.0582027 0.359927 0.577007
936 4 0.011269 0.348033 0.515553
709 2 0.145476 0.402248 0.511687
710 4 0.140375 0.377804 0.512965
504 4 0.131118 0.366777 0.49872
1189 2 0.239513 0.376326 0.556291
1191 4 0.21977 0.384883 0.569025
803 4 0.27205 0.375062 0.531662
802 2 0.280585 0.383324 0.509661
1190 4 0.259257 0.367768 0.543558
1238 4 0.275024 0.368983 0.549944
1237 2 0.297835 0.367882 0.560126
792 4 0.26529 0.351328 0.550532
1239 4 0.320645 0.366781 0.570307
930 4 0.33511 0.374612 0.558057
929 4 0.353439 0.383098 0.512311
928 2 0.344274 0.378855 0.535184
711 4 0.150577 0.426693 0.51041
1082 4 0.0572869 0.0510099 0.661692
1081 2 0.0582913 0.0652574 0.64117
1032 4 0.248857 0.0704464 0.582418
1030 2 0.25877 0.0490608 0.590759
1031 4 0.268682 0.0276753 0.599101
951 4 0.277222 0.0239795 0.617679
949 2 0.302039 0.0242559 0.620719
950 4 0.326856 0.0245324 0.623758
1226 4 0.255078 0.0793849 0.658725
1148 4 0.251742 0.0645383 0.644095
1147 2 0.253093 0.0454476 0.660186
809 4 0.486495 0.021759 0.613397
808 2 0.477223 0.0356656 0.631993
810 4 0.467951 0.0495721 0.650589
45 3 0.468441 0.0717871 0.647281
41 1 0.46206 0.0667376 0.668551
43 3 0.439753 0.0723162 0.67166
1126 2 0.0261363 0.0792364 0.597865
1083 4 0.0592957 0.079505 0.620647
1127 4 0.050306 0.0772996 0.603968
938 4 0.0649131 0.0902446 0.604281
937 2 0.0828589 0.101373 0.590891
939 4 0.100805 0.112501 0.577501
1283 4 0.157794 0.0877611 0.650946
900 4 0.234038 0.148567 0.584379
1221 4 0.168801 0.139325 0.581126
1219 2 0.192758 0.141899 0.587806
1220 4 0.216715 0.144473 0.594485
1182 4 0.231436 0.132897 0.593854
1210 2 0.237892 0.148927 0.626092
1212 4 0.231355 0.153115 0.602324
908 4 0.231956 0.136351 0.663283
1211 4 0.24443 0.144738 0.649859
1227 4 0.249078 0.129031 0.658801
888 4 0.262929 0.14454 0.653269
1225 2 0.252078 0.104208 0.658763
3425 4 0.481201 0.0826754 0.662057
1192 2 0.332123 0.189723 0.654027
1193 4 0.341924 0.208645 0.640946
3123 4 0.511334 0.196924 0.637425
3121 2 0.515783 0.219593 0.646991
982 2 0.0148769 0.30144 0.592243
983 4 0.0340888 0.286978 0.599093
948 4 0.146031 0.293969 0.591272
1136 4 0.156621 0.308528 0.599331
1135 2 0.163031 0.328757 0.612556
871 2 0.378009 0.308605 0.59874
873 4 0.395058 0.314433 0.616077
813 4 0.387363 0.32271 0.632991
953 4 0.474212 0.315894 0.597906
3112 2 0.498441 0.270716 0.674133
3114 4 0.477053 0.281902 0.680659
1041 4 0.0597916 0.389245 0.610723
3264 4 0.0542796 0.37547 0.596195
3240 4 0.0420901 0.385764 0.605611
3238 2 0.0197508 0.392171 0.614836
3239 4 0.997412 0.398578 0.62406
1039 2 0.0844043 0.39267 0.613491
1040 4 0.109017 0.396096 0.616259
993 4 0.129293 0.39636 0.619047
991 2 0.147496 0.380118 0.624526
822 4 0.160652 0.351526 0.643017
992 4 0.1657 0.363876 0.630006
1137 4 0.169441 0.348985 0.62578
1064 4 0.17892 0.357916 0.63856
897 4 0.179532 0.361947 0.617459
896 4 0.211009 0.384936 0.586131
895 2 0.195271 0.373441 0.601795
1172 4 0.214806 0.402088 0.576219
1063 2 0.198133 0.361891 0.654059
1171 2 0.225341 0.421928 0.5872
811 2 0.390428 0.345063 0.643767
927 4 0.392152 0.384803 0.64611
812 4 0.393493 0.367416 0.654543
925 2 0.408158 0.402389 0.638381
1206 4 0.37579 0.375967 0.651939
1204 2 0.361789 0.384968 0.670597
906 4 0.485187 0.331189 0.605112
926 4 0.424163 0.419974 0.630651
539 4 0.0683637 0.43948 0.596008
2244 4 0.119493 0.477255 0.585231
1160 4 0.127256 0.470796 0.602633
540 4 0.113464 0.46085 0.592848
538 2 0.0909139 0.450165 0.594428
1159 2 0.14892 0.476076 0.613947
1186 2 0.203437 0.460012 0.623088
1173 4 0.235877 0.441768 0.59818
1187 4 0.221229 0.447138 0.611135
1188 4 0.185645 0.472886 0.635041
1161 4 0.170583 0.481355 0.625261
1230 4 0.327729 0.43002 0.663005
1002 4 0.443673 0.425707 0.626583
1911 4 0.451104 0.485663 0.613172
1001 4 0.461352 0.472182 0.62127
1000 2 0.452513 0.448944 0.623926
1269 4 0.463098 0.493326 0.624732
945 4 0.00308926 0.00966563 0.676521
944 4 0.0324216 0.0501536 0.677549
943 2 0.0177554 0.0299096 0.677035
1076 4 0.0537337 0.0463454 0.680728
1075 2 0.062001 0.0589788 0.700659
864 4 0.0654724 0.0682304 0.738246
1077 4 0.0702684 0.0716122 0.720589
1107 4 0.0830577 0.0785842 0.732394
862 2 0.045404 0.0732237 0.7523
825 4 0.163701 0.0670501 0.655667
823 2 0.167179 0.0434338 0.663107
1105 2 0.104269 0.0787339 0.745632
2133 4 0.178411 0.00211434 0.663939
2256 4 0.180413 0.00821993 0.681754
824 4 0.170656 0.0198175 0.670548
1149 4 0.254443 0.0263568 0.676276
1092 4 0.333948 0.0156667 0.687577
42 3 0.464638 0.0441525 0.672075
1163 4 0.471729 0.0568954 0.691203
1162 2 0.483382 0.046007 0.71046
4581 4 0.508138 0.014216 0.750387
2321 4 0.495673 0.0303433 0.748752
44 3 0.475296 0.0782574 0.683733
1164 4 0.495035 0.0351187 0.729717
851 4 0.0732415 0.0901733 0.72054
850 2 0.0661076 0.11284 0.712762
852 4 0.0589737 0.135507 0.704984
1282 2 0.165593 0.108921 0.661746
907 2 0.209552 0.135676 0.674362
1284 4 0.173391 0.13008 0.672545
909 4 0.187147 0.135001 0.685441
886 2 0.28316 0.157219 0.660692
887 4 0.303391 0.169898 0.668116
830 4 0.312108 0.157181 0.6795
829 2 0.328957 0.15251 0.697375
1005 4 0.355849 0.141054 0.732204
1003 2 0.352614 0.119048 0.743625
831 4 0.345805 0.147838 0.715249
3268 2 0.495268 0.13441 0.735454
3270 4 0.497823 0.155338 0.722012
1214 4 0.0148523 0.193514 0.743665
1215 4 0.0101484 0.235882 0.71752
1213 2 0.0125004 0.214698 0.730592
1178 4 0.0234957 0.252594 0.715849
1194 4 0.322322 0.170801 0.667107
1297 2 0.289364 0.218551 0.733855
1298 4 0.310895 0.229211 0.740778
1299 4 0.267832 0.207891 0.726931
1025 4 0.388314 0.196686 0.706022
1024 2 0.40882 0.202091 0.719269
978 4 0.369742 0.258503 0.719628
1146 4 0.479205 0.160797 0.723901
1144 2 0.460872 0.177696 0.725776
1262 4 0.447103 0.21009 0.739562
1026 4 0.429325 0.207497 0.732516
1145 4 0.44254 0.194595 0.72765
1261 2 0.456091 0.232409 0.732761
1142 4 0.437252 0.194377 0.745777
1073 4 0.0722831 0.268326 0.749251
1177 2 0.0415906 0.266038 0.726666
1179 4 0.0596856 0.279482 0.737483
3038 4 0.00580222 0.253844 0.720385
1072 2 0.0965024 0.270973 0.74363
1208 4 0.132592 0.284135 0.72819
1074 4 0.120722 0.273619 0.738008
1207 2 0.132751 0.304043 0.713063
821 4 0.13709 0.335709 0.684192
1209 4 0.132911 0.323951 0.697936
1130 4 0.137822 0.266211 0.739541
805 2 0.235254 0.329884 0.685266
918 4 0.317647 0.243679 0.751614
977 4 0.324898 0.24133 0.733587
806 4 0.247795 0.309084 0.691203
1020 4 0.383169 0.258661 0.734382
976 2 0.34732 0.249916 0.726608
1263 4 0.465079 0.254728 0.72596
892 2 0.0395545 0.349963 0.720358
1280 4 0.0741741 0.371902 0.727776
816 4 0.0785468 0.361666 0.713026
894 4 0.0593144 0.365141 0.718275
893 4 0.0197945 0.334785 0.722441
1279 2 0.0784978 0.38926 0.745245
820 2 0.148871 0.343617 0.663604
815 4 0.118723 0.332301 0.708097
942 4 0.135914 0.341884 0.70348
814 2 0.0986347 0.346984 0.710561
940 2 0.15105 0.357451 0.715879
1078 2 0.172443 0.409839 0.749583
941 4 0.166186 0.373019 0.728278
1080 4 0.17471 0.388098 0.737443
1065 4 0.217347 0.365866 0.669558
807 4 0.222713 0.350684 0.679329
1028 4 0.21685 0.384359 0.675247
1066 2 0.201511 0.372708 0.707107
1068 4 0.217306 0.369006 0.688082
1027 2 0.226568 0.406988 0.670925
1067 4 0.185715 0.376411 0.726133
1205 4 0.347788 0.393969 0.689255
1281 4 0.0828215 0.406619 0.762714
1029 4 0.236285 0.429617 0.666603
1079 4 0.170177 0.431579 0.761724
1174 2 0.181033 0.477128 0.731191
1175 4 0.173958 0.482514 0.707821
1140 4 0.237608 0.442101 0.682345
1228 2 0.315464 0.445813 0.678017
1138 2 0.260574 0.45136 0.685808
1139 4 0.283541 0.46062 0.689271
1987 2 0.3201 0.460394 0.733217
1229 4 0.3032 0.461606 0.693028
1989 4 0.31111 0.464882 0.71032
2028 4 0.294048 0.470857 0.70225
2026 2 0.294712 0.494363 0.693755
1099 2 0.490701 0.485155 0.697572
1100 4 0.492019 0.464574 0.71171
2989 2 0.0161684 0.0496776 0.796573
2990 4 0.0245073 0.0685497 0.782449
2991 4 0.00782939 0.0308055 0.810697
863 4 0.0253356 0.078217 0.766353
3083 4 0.00796926 0.075112 0.773302
1106 4 0.12548 0.0788835 0.75887
2049 4 0.103098 0.998243 0.799812
1202 4 0.118135 0.0106625 0.802201
1201 2 0.123538 0.034451 0.796717
1203 4 0.128942 0.0582396 0.791232
32 3 0.147155 0.0653264 0.803034
1085 4 0.299258 0.0619259 0.795159
960 4 0.303303 0.0626893 0.814667
819 4 0.298467 0.0462897 0.806337
817 2 0.312472 0.0263278 0.800809
973 2 0.353178 0.99511 0.819415
818 4 0.326477 0.00636582 0.795282
974 4 0.346826 0.00977891 0.800189
2320 2 0.487386 0.0440382 0.76796
844 2 0.488375 0.0753424 0.819901
845 4 0.472962 0.0691218 0.801221
2322 4 0.479098 0.0577331 0.787168
1112 4 0.477005 0.0758873 0.782525
833 4 0.0186684 0.0871993 0.783137
832 2 0.0195759 0.10708 0.798274
834 4 0.0204835 0.126961 0.81341