ITEM: TIMESTEP
3280000
ITEM: NUMBER OF ATOMS
4590
ITEM: BOX BOUNDS pp pp pp
-9.9985700000000008e+00 9.9985700000000008e+00
-9.9985700000000008e+00 9.9985700000000008e+00
-9.9985700000000008e+00 9.9985700000000008e+00
ITEM: ATOMS id type xs ys zs
701 4 0.038809 0.051892 0.0634762
700 2 0.054949 0.0709442 0.0647765
490 2 0.260535 0.0666868 0.0733037
492 4 0.259602 0.0418855 0.0763378
491 4 0.261468 0.091488 0.0702696
1474 2 0.272994 0.00275239 0.0715215
2974 2 0.461761 0.0272383 0.0330159
745 2 0.419286 0.0778901 0.0256508
747 4 0.430006 0.0561689 0.0318514
2975 4 0.442178 0.0417012 0.0273127
986 4 0.425207 0.0434632 0.0174887
2976 4 0.481343 0.0127755 0.0387191
2468 4 0.49285 0.000568887 0.0504477
702 4 0.0710891 0.0899964 0.0660769
476 4 0.0552795 0.10479 0.0675738
475 2 0.0675401 0.123827 0.0569701
477 4 0.0798006 0.142864 0.0463665
566 4 0.188199 0.154202 0.0206975
565 2 0.206215 0.149219 0.00409146
746 4 0.408566 0.0996114 0.0194503
769 2 0.396665 0.151692 0.0320834
556 2 0.376415 0.103863 0.00584968
558 4 0.394568 0.112652 0.0206285
771 4 0.395246 0.126791 0.0338456
737 4 0.237422 0.181939 0.049181
736 2 0.216349 0.192264 0.0578125
738 4 0.195276 0.202589 0.0664441
770 4 0.398084 0.176593 0.0303212
359 4 0.405899 0.191124 0.0176941
664 2 0.394938 0.215444 0.0476308
665 4 0.395585 0.194905 0.0333858
666 4 0.394291 0.235982 0.0618759
323 4 0.399872 0.255238 0.0633452
623 4 0.38376 0.248695 0.0720566
2808 4 0.00124736 0.275101 0.00600997
292 2 0.145118 0.33561 0.0390738
294 4 0.12463 0.327532 0.0272339
555 4 0.0871544 0.25607 0.999203
507 4 0.176088 0.332517 0.0584895
286 2 0.196367 0.333403 0.0208107
481 2 0.234419 0.274181 0.063044
505 2 0.186749 0.312025 0.0680604
483 4 0.215512 0.289022 0.0699344
506 4 0.19741 0.291533 0.0776312
287 4 0.181688 0.336546 0.0408057
482 4 0.253326 0.259341 0.0561536
573 4 0.270341 0.248111 0.0553501
571 2 0.290399 0.259965 0.0462763
572 4 0.310457 0.271819 0.0372025
357 4 0.308167 0.281632 0.0190921
355 2 0.318604 0.302326 0.00971285
1069 2 0.410351 0.322995 0.034463
322 2 0.414433 0.271591 0.0512723
956 4 0.343006 0.332647 0.0102359
1071 4 0.393075 0.340576 0.0386609
324 4 0.428993 0.287944 0.0391994
1070 4 0.427626 0.305413 0.030265
280 2 0.455977 0.306294 0.05944
282 4 0.444169 0.299056 0.0386226
281 4 0.467785 0.313532 0.0802574
293 4 0.165605 0.343688 0.0509136
552 4 0.163768 0.342158 0.0702005
456 4 0.210529 0.387567 0.0649269
454 2 0.194909 0.368258 0.0620344
455 4 0.179289 0.348949 0.0591418
1290 4 0.26087 0.395775 0.0528181
1288 2 0.275219 0.386482 0.0345716
1289 4 0.289568 0.37719 0.0163252
251 4 0.25795 0.415123 0.054207
903 4 0.300063 0.381131 0.999021
955 2 0.359653 0.338615 0.0279125
957 4 0.376299 0.344582 0.0455891
741 4 0.386722 0.3349 0.0580589
739 2 0.388783 0.341629 0.0820517
1304 4 0.362085 0.364063 0.0109894
1787 4 0.107184 0.498828 0.0529734
1786 2 0.0924186 0.484984 0.0676533
626 4 0.186445 0.472917 0.0477498
625 2 0.168982 0.490389 0.0516148
245 4 0.205661 0.479866 0.0477262
244 2 0.220721 0.459916 0.0483555
246 4 0.235781 0.439967 0.0489847
250 2 0.259224 0.414986 0.0791777
272 4 0.255933 0.434657 0.0509941
271 2 0.270357 0.442399 0.0320945
273 4 0.28478 0.450142 0.0131949
1672 2 0.410625 0.439316 0.0782388
853 2 0.401002 0.444678 0.0224545
855 4 0.383618 0.440163 0.00505925
37 3 0.365086 0.426457 0.00698773
854 4 0.418386 0.449193 0.0398498
1674 4 0.422376 0.44958 0.0587002
564 4 0.431436 0.462285 0.0477134
563 4 0.470187 0.480619 0.0219657
562 2 0.450811 0.471452 0.0348396
228 4 0.474559 0.48909 0.00386738
1667 4 0.0199526 0.0545198 0.0680739
19 3 0.0542571 0.013843 0.157888
578 4 0.0768275 0.0170098 0.163238
577 2 0.0934037 0.0340123 0.155406
579 4 0.10998 0.0510147 0.147575
450 4 0.124741 0.0644599 0.146404
582 4 0.235708 0.0718045 0.158902
1475 4 0.273177 0.0277489 0.0709559
580 2 0.246432 0.0536644 0.17236
486 4 0.436691 0.00668891 0.106501
513 4 0.0555696 0.153467 0.173888
312 4 0.358388 0.124675 0.15166
628 2 0.371096 0.16794 0.146484
629 4 0.366542 0.143909 0.151677
310 2 0.348662 0.105092 0.163789
2722 2 0.491805 0.0902674 0.136515
2723 4 0.482478 0.112871 0.131294
391 2 0.0500506 0.183128 0.16083
392 4 0.0593498 0.206338 0.160846
393 4 0.0407515 0.159918 0.160814
755 4 0.242016 0.244643 0.162147
460 2 0.323711 0.228612 0.120777
461 4 0.302095 0.216993 0.115986
354 4 0.282325 0.223326 0.117724
352 2 0.271857 0.233573 0.137987
353 4 0.261388 0.24382 0.15825
462 4 0.345326 0.240231 0.125568
255 4 0.362562 0.240864 0.133338
253 2 0.374773 0.221486 0.143368
622 2 0.371755 0.247966 0.0939773
624 4 0.359749 0.247236 0.115898
254 4 0.386983 0.202108 0.153397
630 4 0.375649 0.191971 0.141291
536 4 0.186838 0.269893 0.13323
537 4 0.191834 0.271879 0.0835132
535 2 0.189336 0.270886 0.108372
754 2 0.227351 0.26473 0.159573
756 4 0.212686 0.284817 0.156999
612 4 0.221256 0.297315 0.171665
301 2 0.317509 0.322316 0.148384
303 4 0.317075 0.304095 0.1655
764 4 0.329704 0.29 0.16288
765 4 0.351208 0.255637 0.133598
763 2 0.340456 0.272818 0.148239
12 3 0.405869 0.327442 0.13229
671 4 0.457492 0.322886 0.0957678
527 4 0.475567 0.326753 0.0913452
647 4 0.0679332 0.341718 0.139877
550 2 0.153441 0.349156 0.09187
551 4 0.143114 0.356154 0.11354
290 4 0.208772 0.428463 0.166199
302 4 0.317944 0.340538 0.131267
387 4 0.323559 0.354074 0.11825
385 2 0.348184 0.356173 0.114456
493 2 0.388874 0.389998 0.104023
495 4 0.388798 0.366071 0.111281
386 4 0.372809 0.358273 0.110661
15 3 0.375097 0.346802 0.123854
740 4 0.390844 0.348358 0.106044
14 3 0.408978 0.360846 0.115343
11 1 0.396745 0.3485 0.130717
13 3 0.39767 0.358652 0.151561
526 2 0.499408 0.333264 0.0875559
672 4 0.413645 0.340442 0.112195
670 2 0.435569 0.331664 0.103982
1465 2 0.0588683 0.464148 0.105601
1466 4 0.0417624 0.475336 0.120002
1467 4 0.0759742 0.452961 0.0911991
1791 4 0.0385741 0.494065 0.114398
1788 4 0.077653 0.47114 0.0823333
767 4 0.217716 0.490297 0.163178
766 2 0.220145 0.465575 0.160325
768 4 0.222574 0.440854 0.157473
252 4 0.260499 0.414849 0.104148
609 4 0.275674 0.425947 0.11005
607 2 0.300117 0.423329 0.114614
608 4 0.324561 0.42071 0.119178
659 4 0.332319 0.434933 0.106696
494 4 0.38895 0.413925 0.0967647
660 4 0.38224 0.432196 0.10562
1673 4 0.398875 0.429053 0.0977774
658 2 0.35728 0.433564 0.106158
524 4 0.403422 0.473104 0.148934
523 2 0.401833 0.454594 0.132199
525 4 0.400245 0.436084 0.115465
1559 4 0.39719 0.493682 0.147011
20 3 0.082069 0.00440338 0.181447
17 3 0.0465619 0.998603 0.191372
2480 4 0.029286 0.000475446 0.202259
2479 2 0.0240422 0.0241191 0.208476
380 4 0.00894308 0.064233 0.221007
2481 4 0.0187983 0.0477628 0.214694
448 2 0.14697 0.0693117 0.156774
449 4 0.169198 0.0741634 0.167144
237 4 0.228063 0.0902676 0.162044
1504 2 0.241858 0.991365 0.198659
1506 4 0.257183 0.0103567 0.204101
581 4 0.257156 0.0355243 0.185818
654 4 0.256754 0.0301505 0.204073
652 2 0.269263 0.0414585 0.222535
653 4 0.281771 0.0527665 0.240997
758 4 0.350914 0.0707907 0.185462
759 4 0.370702 0.0693971 0.231366
757 2 0.360808 0.0700939 0.208414
350 4 0.38223 0.0550415 0.235366
349 2 0.40655 0.0537573 0.2297
22 3 0.369558 0.0531175 0.243021
632 4 0.375732 0.0716016 0.244971
25 3 0.351769 0.0209371 0.236628
480 4 0.446366 0.044937 0.233921
351 4 0.430869 0.0524731 0.224034
743 4 0.507981 0.0718859 0.249638
333 4 0.496967 0.0889246 0.251699
379 2 0.0202296 0.0852184 0.21343
511 2 0.0505595 0.130385 0.182092
512 4 0.0455494 0.107303 0.190295
381 4 0.031516 0.106204 0.205853
235 2 0.20406 0.0892957 0.168979
236 4 0.180057 0.0883239 0.175914
30 3 0.337956 0.154756 0.24203
311 4 0.338936 0.0855093 0.175917
26 1 0.358723 0.145969 0.24522
28 3 0.365022 0.133591 0.226632
761 4 0.415879 0.122579 0.215712
521 4 0.478293 0.141306 0.217888
762 4 0.460936 0.14192 0.225539
760 2 0.438407 0.132249 0.220625
332 4 0.472306 0.126682 0.230089
331 2 0.484636 0.107803 0.240894
520 2 0.487046 0.16301 0.209085
339 4 0.0640278 0.226334 0.156768
337 2 0.0610946 0.246025 0.171895
546 4 0.0850809 0.23991 0.232588
544 2 0.108726 0.246606 0.2372
279 4 0.255475 0.214804 0.210135
277 2 0.256095 0.231993 0.191987
278 4 0.256715 0.249182 0.17384
284 4 0.270402 0.260129 0.166498
522 4 0.495799 0.184714 0.200282
396 4 0.0135837 0.245605 0.246895
394 2 0.0285492 0.25699 0.230416
395 4 0.0435148 0.268376 0.213936
338 4 0.0581614 0.265717 0.187022
363 4 0.0617794 0.274745 0.204898
361 2 0.0670643 0.299126 0.20322
362 4 0.0723493 0.323507 0.201542
545 4 0.132371 0.253302 0.241812
372 4 0.0884654 0.326937 0.192429
611 4 0.219908 0.323156 0.214456
610 2 0.220582 0.310235 0.19306
344 4 0.225382 0.312312 0.229428
343 2 0.206819 0.310816 0.246112
285 4 0.310708 0.289347 0.171232
283 2 0.290555 0.274738 0.168865
729 4 0.311655 0.305831 0.183703
727 2 0.297053 0.32037 0.197866
308 4 0.324456 0.292556 0.180988
728 4 0.282452 0.334909 0.212029
498 4 0.346896 0.300448 0.23211
307 2 0.337391 0.287073 0.201671
309 4 0.350327 0.28159 0.222354
749 4 0.0595917 0.337005 0.206095
648 4 0.0717365 0.338225 0.189617
748 2 0.0637794 0.351469 0.226055
646 2 0.0698348 0.339971 0.164747
750 4 0.0679671 0.365934 0.246016
733 2 0.155445 0.333992 0.244934
370 2 0.109082 0.334924 0.204106
371 4 0.129698 0.342911 0.215782
734 4 0.139271 0.348822 0.232949
417 4 0.135693 0.360208 0.220754
299 4 0.133288 0.364801 0.241189
415 2 0.150975 0.376928 0.210168
298 2 0.109436 0.366537 0.248486
300 4 0.0855836 0.368274 0.255783
416 4 0.166257 0.393649 0.199583
289 2 0.194234 0.410263 0.175286
291 4 0.179696 0.392062 0.184372
445 2 0.390774 0.380967 0.233616
447 4 0.409176 0.397225 0.228902
446 4 0.372372 0.364709 0.238331
595 2 0.490796 0.389863 0.180219
644 4 0.422794 0.383897 0.22245
643 2 0.444219 0.391635 0.21214
645 4 0.465644 0.399373 0.201831
597 4 0.484917 0.39587 0.203767
412 2 0.236374 0.491569 0.240044
413 4 0.250236 0.494421 0.260656
229 2 0.474634 0.487134 0.210225
230 4 0.457466 0.505311 0.210097
2756 4 0.998997 0.0590585 0.307642
234 4 0.015391 0.0540251 0.295396
232 2 0.0342932 0.0379496 0.298473
233 4 0.0531954 0.0218742 0.301549
317 4 0.0673843 0.0219903 0.316442
1404 4 0.06837 0.0105153 0.301709
1402 2 0.0831807 0.00234221 0.283296
428 4 0.0696898 0.00264916 0.319136
316 2 0.0754042 0.0380942 0.333807
693 4 0.327889 0.0464719 0.274828
691 2 0.314083 0.06649 0.280649
24 3 0.344221 0.040633 0.267817
21 1 0.360711 0.0342625 0.252787
23 3 0.37763 0.0229391 0.26392
479 4 0.458411 0.0390255 0.282095
478 2 0.452388 0.0419813 0.258008
2664 4 0.473298 0.0310195 0.291629
1428 4 0.453679 0.0282426 0.29434
258 4 0.442025 0.0441723 0.291372
2662 2 0.498007 0.0326992 0.295066
256 2 0.427294 0.0574383 0.30661
1426 2 0.446001 0.00586949 0.302443
403 2 0.229513 0.152356 0.317993
404 4 0.247936 0.136979 0.325014
249 4 0.246692 0.125179 0.342116
692 4 0.300278 0.086508 0.286469
721 2 0.270204 0.107913 0.310572
723 4 0.28284 0.0948969 0.293365
722 4 0.257569 0.12093 0.327779
29 3 0.358801 0.132493 0.264108
631 2 0.370864 0.0935851 0.255843
707 4 0.369075 0.124071 0.281507
633 4 0.365996 0.115569 0.266716
706 2 0.3713 0.136555 0.303057
708 4 0.373526 0.149039 0.324606
444 4 0.00390926 0.213756 0.302832
442 2 0.0118214 0.226738 0.282982
405 4 0.21109 0.167734 0.310972
473 4 0.211959 0.185584 0.322761
27 3 0.373808 0.163073 0.248225
419 4 0.413264 0.244452 0.335488
443 4 0.0197335 0.239721 0.263131
402 4 0.143386 0.261222 0.258104
735 4 0.17162 0.319163 0.256919
375 4 0.164863 0.319058 0.32679
400 2 0.158652 0.28093 0.25618
401 4 0.173918 0.300639 0.254255
676 2 0.17326 0.320363 0.294865
677 4 0.171618 0.308685 0.272817
345 4 0.188256 0.309319 0.262796
678 4 0.174901 0.33204 0.316913
378 4 0.274759 0.302318 0.286285
376 2 0.299395 0.304428 0.29
377 4 0.324031 0.306537 0.293715
615 4 0.330341 0.320157 0.30829
497 4 0.339727 0.307694 0.281068
418 2 0.401866 0.258759 0.318441
496 2 0.343311 0.304071 0.256589
541 2 0.360453 0.293986 0.307936
542 4 0.381025 0.28207 0.315681
543 4 0.339882 0.305902 0.300191
420 4 0.390469 0.273065 0.301394
2537 4 0.484654 0.32253 0.331029
364 2 0.00234684 0.396226 0.292949
365 4 0.0172729 0.416208 0.291182
603 4 0.0345742 0.419827 0.301006
601 2 0.0474269 0.42014 0.322451
510 4 0.181596 0.349788 0.308406
508 2 0.19061 0.372194 0.314878
509 4 0.199624 0.3946 0.32135
434 4 0.32818 0.386359 0.302024
433 2 0.312682 0.403552 0.311481
613 2 0.333827 0.344916 0.30813
614 4 0.337312 0.369675 0.307969
264 4 0.00189905 0.428463 0.259777
1757 4 0.0117864 0.430729 0.278392
1756 2 0.0298273 0.448028 0.277717
1758 4 0.0478681 0.465327 0.277042
1775 4 0.0660302 0.46289 0.280633
775 2 0.0508739 0.4835 0.314946
777 4 0.0586 0.474683 0.292862
1776 4 0.113739 0.450318 0.272478
1774 2 0.0898847 0.456604 0.276555
5 3 0.252928 0.4162 0.34165
2 3 0.281747 0.409916 0.318784
4 3 0.248339 0.419409 0.304417
1436 4 0.247337 0.483363 0.278345
1435 2 0.251711 0.462382 0.291222
1437 4 0.256084 0.4414 0.304099
3 3 0.269028 0.444972 0.323467
1 1 0.262886 0.422632 0.322205
436 2 0.302416 0.45733 0.317628
438 4 0.288392 0.436823 0.32045
435 4 0.297185 0.420744 0.320938
437 4 0.31644 0.477836 0.314806
1802 4 0.327164 0.490117 0.302789
1801 2 0.348423 0.489563 0.315939
1803 4 0.369682 0.48901 0.329089
593 4 0.379547 0.471402 0.329078
588 4 0.383718 0.453609 0.33413
119 3 0.487324 0.457014 0.329439
318 4 0.0834241 0.0541981 0.351171
732 4 0.0998805 0.0599339 0.357749
730 2 0.124625 0.0635235 0.357684
731 4 0.149369 0.0671132 0.357619
399 4 0.0872706 0.0732835 0.360223
606 4 0.160669 0.0517515 0.354214
604 2 0.179777 0.0670535 0.359305
1701 4 0.36648 0.00194673 0.395498
699 4 0.378498 0.0498016 0.366576
1699 2 0.365636 0.0189857 0.377218
1700 4 0.364793 0.0360247 0.358939
697 2 0.39715 0.0610444 0.354294
257 4 0.412564 0.0707042 0.321848
397 2 0.0739848 0.0939887 0.36469
398 4 0.060699 0.114694 0.369158
2584 2 0.0169863 0.11078 0.35801
2586 4 0.0405532 0.116702 0.363902
458 4 0.0358149 0.133443 0.373428
457 2 0.0422124 0.148473 0.392359
605 4 0.198885 0.0823556 0.364397
248 4 0.215861 0.0933359 0.365272
247 2 0.231277 0.109257 0.353694
683 4 0.259809 0.138284 0.339325
682 2 0.280422 0.149672 0.347726
684 4 0.301035 0.16106 0.356128
319 2 0.33772 0.159166 0.340926
320 4 0.313954 0.166904 0.341621
698 4 0.415803 0.0722872 0.342012
321 4 0.361486 0.151428 0.340232
726 4 0.39362 0.136622 0.415512
717 4 0.367955 0.146749 0.358239
715 2 0.374349 0.147238 0.382406
716 4 0.380744 0.147726 0.406573
467 4 0.388958 0.153784 0.423673
724 2 0.398462 0.113011 0.422165
641 4 0.471626 0.127315 0.343347
640 2 0.489164 0.124645 0.360967
2850 4 0.982148 0.206785 0.358755
459 4 0.0486099 0.163502 0.41129
260 4 0.0507076 0.179541 0.422556
600 4 0.109981 0.221165 0.333592
598 2 0.121967 0.221184 0.355535
599 4 0.133953 0.221204 0.377479
686 4 0.130363 0.231082 0.394316
685 2 0.113606 0.224688 0.411737
275 4 0.145971 0.226288 0.390977
274 2 0.17003 0.221995 0.385697
474 4 0.201276 0.201706 0.368877
472 2 0.206618 0.193645 0.345819
276 4 0.19409 0.217702 0.380417
269 4 0.409972 0.224875 0.334269
268 2 0.432595 0.218586 0.342862
270 4 0.455218 0.212297 0.351455
452 4 0.445325 0.217756 0.368931
451 2 0.459211 0.220305 0.389567
453 4 0.473098 0.222853 0.410203
347 4 0.0507286 0.318265 0.364866
346 2 0.0333841 0.308864 0.380228
618 4 0.0684784 0.31281 0.362462
348 4 0.0160397 0.299464 0.395589
616 2 0.0924266 0.307066 0.366783
389 4 0.146499 0.244935 0.390146
373 2 0.149284 0.310723 0.344482
388 2 0.139586 0.268188 0.384089
390 4 0.132672 0.291441 0.378032
617 4 0.116375 0.301322 0.371103
374 4 0.133706 0.302387 0.362174
488 4 0.376346 0.250105 0.389187
487 2 0.379291 0.25223 0.413925
602 4 0.0602796 0.420454 0.343896
549 4 0.0546015 0.405286 0.35433
547 2 0.0573115 0.414672 0.377346
335 4 0.307301 0.379793 0.398314
240 4 0.32065 0.383122 0.383761
238 2 0.341258 0.387443 0.370276
239 4 0.361865 0.391764 0.356792
587 4 0.364547 0.409166 0.3467
752 4 0.464202 0.380036 0.373294
561 4 0.463923 0.363244 0.385825
751 2 0.474624 0.401514 0.36586
559 2 0.474927 0.359369 0.40794
776 4 0.0431478 0.492318 0.337031
500 4 0.055573 0.479977 0.347497
499 2 0.0633929 0.467379 0.367629
501 4 0.0712128 0.454781 0.387762
407 4 0.0740019 0.437821 0.398792
548 4 0.0600216 0.424059 0.400362
406 2 0.0914878 0.448803 0.412893
1555 2 0.23417 0.490233 0.393871
1557 4 0.250577 0.481744 0.410721
636 4 0.254219 0.463663 0.415739
586 2 0.374133 0.431388 0.340415
592 2 0.396995 0.482666 0.343002
594 4 0.414444 0.49393 0.356925
118 3 0.503382 0.425735 0.343867
116 1 0.4946 0.446622 0.348867
713 4 0.430637 0.487249 0.345622
712 2 0.452045 0.474375 0.346685
714 4 0.473454 0.461501 0.347748
753 4 0.485046 0.422992 0.358427
117 3 0.476675 0.443954 0.363035
369 4 0.0564695 0.021156 0.46092
367 2 0.0764406 0.0123835 0.448698
1781 4 0.114842 0.00724348 0.438514
368 4 0.0964118 0.00361099 0.436476
342 4 0.226287 0.0543367 0.495455
340 2 0.214877 0.0324721 0.491339
341 4 0.203468 0.0106075 0.487223
963 4 0.314912 0.0424683 0.439233
432 4 0.310776 0.0530714 0.454698
430 2 0.321843 0.0535381 0.477114
961 2 0.327955 0.0249768 0.427022
962 4 0.340998 0.00748522 0.414811
431 4 0.33291 0.0540047 0.499531
1217 4 0.416904 0.0594344 0.495567
725 4 0.403303 0.0894005 0.428818
259 2 0.0660198 0.197572 0.430655
261 4 0.081332 0.215603 0.438754
687 4 0.0968489 0.218294 0.429159
1035 4 0.0886497 0.232192 0.442958
1033 2 0.0956571 0.249907 0.459152
409 2 0.405605 0.220078 0.451516
411 4 0.389377 0.238769 0.447985
466 2 0.405198 0.169177 0.434829
468 4 0.421439 0.184571 0.445986
410 4 0.421834 0.201387 0.455048
574 2 0.423918 0.177206 0.486385
515 4 0.476426 0.208723 0.427059
575 4 0.4293 0.197109 0.47224
516 4 0.437099 0.193972 0.454198
514 2 0.456762 0.201347 0.440629
1034 4 0.102665 0.267622 0.475346
696 4 0.109948 0.279717 0.489702
1260 4 0.119417 0.277051 0.472731
1258 2 0.123525 0.301318 0.468329
1259 4 0.127633 0.325586 0.463927
9 3 0.160699 0.321389 0.427318
503 4 0.133014 0.337471 0.472639
7 3 0.137373 0.336771 0.452457
489 4 0.382236 0.254356 0.438663
266 4 0.386168 0.255598 0.45789
265 2 0.400363 0.269069 0.473454
267 4 0.414557 0.282539 0.489019
3308 4 0.473176 0.332757 0.481085
1011 4 0.462148 0.323073 0.494251
1009 2 0.46205 0.298101 0.495502
1010 4 0.461952 0.273129 0.496753
326 4 0.0776926 0.364511 0.454312
6 1 0.15271 0.341392 0.435946
327 4 0.122055 0.34296 0.462574
325 2 0.0998736 0.353736 0.458443
10 3 0.142608 0.353469 0.419492
709 2 0.137592 0.403628 0.499373
502 2 0.142868 0.350288 0.491713
8 3 0.170177 0.353593 0.445136
334 2 0.310419 0.382875 0.422931
336 4 0.313537 0.385956 0.447547
668 4 0.307354 0.400555 0.457549
882 4 0.32316 0.389457 0.463405
880 2 0.337795 0.389872 0.483674
881 4 0.352429 0.390288 0.503943
3309 4 0.499771 0.352187 0.443456
560 4 0.485931 0.355493 0.430055
3307 2 0.486474 0.342472 0.462271
680 4 0.00756792 0.44958 0.444707
1381 2 0.0061028 0.49005 0.461213
711 4 0.127344 0.425662 0.493485
408 4 0.108974 0.459784 0.426994
383 4 0.128608 0.462615 0.434433
384 4 0.127746 0.43558 0.476493
568 2 0.133578 0.494817 0.416449
569 4 0.119962 0.475031 0.4234
382 2 0.128177 0.449097 0.455463
667 2 0.300896 0.424694 0.458451
634 2 0.267855 0.46304 0.436688
772 2 0.313443 0.472942 0.487085
774 4 0.296964 0.463651 0.470735
669 4 0.294439 0.448832 0.459352
635 4 0.281491 0.462417 0.457636
773 4 0.329921 0.482232 0.503436
1152 4 0.23172 0.0543075 0.513855
1150 2 0.232163 0.0600348 0.53819
1151 4 0.232605 0.065762 0.562525
1032 4 0.235563 0.0702579 0.580916
1181 4 0.238655 0.0832831 0.566067
842 4 0.398191 0.0573986 0.497954
841 2 0.373746 0.0597914 0.502637
843 4 0.349302 0.0621842 0.50732
1216 2 0.435844 0.0668917 0.510087
1218 4 0.454785 0.074349 0.524607
1058 4 0.0827807 0.0921878 0.517304
1270 2 0.0854309 0.151491 0.565526
1271 4 0.0999229 0.13163 0.570079
1057 2 0.091733 0.104115 0.537374
1059 4 0.100685 0.116042 0.557443
1155 4 0.11426 0.119059 0.567413
939 4 0.0969903 0.11445 0.576202
1153 2 0.135575 0.132072 0.566178
1154 4 0.15689 0.145084 0.564943
1180 2 0.234433 0.106399 0.574612
898 2 0.247739 0.156934 0.558783
900 4 0.240304 0.14527 0.579612
1221 4 0.170762 0.145864 0.578681
1219 2 0.195763 0.145535 0.57861
1199 4 0.0369517 0.211165 0.554983
877 2 0.0656775 0.204887 0.562048
1272 4 0.0709389 0.171351 0.560973
878 4 0.0485284 0.222101 0.567942
1198 2 0.0126958 0.215849 0.551123
879 4 0.0828266 0.187672 0.556153
651 4 0.221467 0.225795 0.517967
858 4 0.20028 0.226759 0.518762
649 2 0.232494 0.205002 0.526407
650 4 0.24352 0.184208 0.534848
856 2 0.193182 0.244072 0.535346
899 4 0.255174 0.168597 0.537954
576 4 0.418536 0.157302 0.500529
984 4 0.00275929 0.309788 0.572054
695 4 0.111878 0.261263 0.53614
694 2 0.110913 0.27049 0.512921
948 4 0.167994 0.291729 0.593146
946 2 0.182459 0.28475 0.573983
857 4 0.186084 0.261386 0.551931
947 4 0.196924 0.277771 0.55482
798 4 0.215658 0.270628 0.555776
796 2 0.236621 0.281549 0.563927
797 4 0.257585 0.29247 0.572078
790 2 0.264903 0.327609 0.585248
871 2 0.387991 0.324941 0.586306
2455 2 0.493589 0.252049 0.510321
2457 4 0.470109 0.260628 0.509826
954 4 0.483243 0.285827 0.561731
3263 4 0.049355 0.358485 0.560882
710 4 0.147841 0.381595 0.505262
504 4 0.152721 0.363104 0.510787
1189 2 0.247551 0.379411 0.576708
1191 4 0.227254 0.393289 0.581244
804 4 0.273211 0.366822 0.502958
803 4 0.269164 0.365137 0.552772
802 2 0.271187 0.36598 0.527865
1190 4 0.267849 0.365532 0.572172
1238 4 0.282893 0.35971 0.566287
1237 2 0.307192 0.362251 0.571605
1239 4 0.331491 0.364793 0.576924
792 4 0.274127 0.350678 0.582433
872 4 0.375185 0.314735 0.567412
930 4 0.343265 0.371325 0.561685
929 4 0.356038 0.373672 0.513394
928 2 0.349652 0.372499 0.53754
663 4 0.461975 0.487725 0.494809
1081 2 0.0633626 0.0747587 0.638784
1082 4 0.0729732 0.0568597 0.653359
825 4 0.151292 0.0760397 0.681354
1030 2 0.241487 0.0525398 0.597534
1148 4 0.244768 0.0706998 0.669235
1031 4 0.247411 0.0348217 0.614152
951 4 0.26435 0.024704 0.618613
949 2 0.289311 0.0237044 0.61755
950 4 0.314272 0.0227048 0.616487
1226 4 0.255738 0.0762095 0.653376
1147 2 0.255622 0.0485171 0.673147
3008 4 0.496127 0.0473393 0.597882
809 4 0.489172 0.0345494 0.612015
808 2 0.482543 0.0491948 0.631166
810 4 0.475914 0.0638402 0.650316
45 3 0.472613 0.0845205 0.647442
41 1 0.465613 0.0785651 0.668279
43 3 0.444066 0.0863641 0.671922
1083 4 0.053752 0.0926576 0.624208
1127 4 0.050434 0.0976505 0.604687
1126 2 0.0275375 0.0892757 0.599138
1128 4 0.00464101 0.080901 0.593589
938 4 0.0682369 0.0935748 0.611389
937 2 0.0826136 0.104013 0.593796
1283 4 0.140946 0.0946192 0.678756
1220 4 0.220764 0.145206 0.57854
1182 4 0.230212 0.129515 0.583157
1210 2 0.235187 0.140882 0.617378
1212 4 0.227559 0.146383 0.594211
908 4 0.229397 0.129513 0.65489
907 2 0.205977 0.129672 0.663645
1211 4 0.242816 0.13538 0.640546
1227 4 0.24768 0.125563 0.653315
888 4 0.259037 0.142353 0.647297
886 2 0.279846 0.154675 0.653649
887 4 0.300655 0.166996 0.660002
1225 2 0.251709 0.100886 0.653345
3425 4 0.486068 0.0937579 0.662839
1244 4 0.0375373 0.22613 0.585394
1194 4 0.320038 0.172383 0.653702
1192 2 0.322036 0.19566 0.644795
1193 4 0.324033 0.218938 0.635888
3123 4 0.484455 0.215464 0.634942
3121 2 0.497457 0.23487 0.64386
1243 2 0.0413593 0.247922 0.597043
982 2 0.0200665 0.296839 0.584622
983 4 0.0373737 0.283889 0.59719
1245 4 0.0451813 0.269714 0.608691
820 2 0.15166 0.338029 0.665226
1136 4 0.175525 0.308728 0.602274
1135 2 0.173645 0.329553 0.615984
791 4 0.255679 0.30454 0.588062
873 4 0.400798 0.335146 0.605201
813 4 0.392978 0.328785 0.623346
952 2 0.485665 0.305401 0.577098
953 4 0.488087 0.324975 0.592466
3262 2 0.0524995 0.365536 0.584664
1041 4 0.0576933 0.382075 0.625236
3264 4 0.0556439 0.372587 0.608446
3240 4 0.0433496 0.386448 0.611894
3238 2 0.0243352 0.402107 0.616188
1039 2 0.082294 0.386544 0.625342
1040 4 0.106895 0.391013 0.625448
993 4 0.126762 0.389905 0.627614
991 2 0.147701 0.377049 0.632246
992 4 0.168639 0.364193 0.636879
822 4 0.163615 0.349054 0.646233
1137 4 0.171765 0.350378 0.629695
1064 4 0.183167 0.357871 0.642615
897 4 0.183624 0.366336 0.625078
896 4 0.212105 0.390699 0.591972
895 2 0.197864 0.378518 0.608525
1172 4 0.223799 0.403555 0.598988
1063 2 0.198781 0.361989 0.661704
811 2 0.394565 0.350631 0.635404
927 4 0.397845 0.388319 0.657976
812 4 0.396153 0.372477 0.647463
925 2 0.407036 0.404237 0.641026
1206 4 0.380468 0.383859 0.652273
906 4 0.478917 0.340782 0.600315
904 2 0.496994 0.35645 0.593038
3239 4 0.0053207 0.417766 0.620482
2244 4 0.116834 0.485848 0.593852
1160 4 0.126173 0.480346 0.609645
540 4 0.12002 0.466196 0.598088
539 4 0.0811035 0.439775 0.581113
538 2 0.100562 0.452985 0.589601
1159 2 0.150721 0.484926 0.610909
1171 2 0.232786 0.426464 0.603414
1186 2 0.210152 0.478415 0.601704
1173 4 0.241774 0.449372 0.607841
1187 4 0.23136 0.465845 0.605873
1188 4 0.188944 0.490986 0.597535
1161 4 0.175269 0.489506 0.612174
926 4 0.416227 0.420155 0.624075
1002 4 0.431673 0.428965 0.632888
1911 4 0.436158 0.495569 0.623025
1001 4 0.43583 0.478784 0.634104
1000 2 0.433751 0.453875 0.633496
4337 4 0.0232315 0.986088 0.669419
944 4 0.0590802 0.0330905 0.66684
943 2 0.04245 0.0161995 0.674797
1076 4 0.062927 0.0523894 0.671374
1075 2 0.0671587 0.0656549 0.692142
864 4 0.0605656 0.0705953 0.728515
862 2 0.0405365 0.0703574 0.74348
823 2 0.161393 0.0534048 0.678065
2256 4 0.166258 0.0129833 0.6784
2133 4 0.180369 0.0134802 0.666174
824 4 0.171494 0.0307699 0.674777
1149 4 0.266475 0.0263344 0.677059
1092 4 0.344513 0.000761709 0.688408
42 3 0.46561 0.0556265 0.670003
1163 4 0.477883 0.0639301 0.687379
1162 2 0.490692 0.0535177 0.706159
44 3 0.480002 0.0872861 0.684258
4581 4 0.498472 0.0208083 0.747301
2321 4 0.498368 0.0397158 0.743287
1077 4 0.0713905 0.0789204 0.71291
851 4 0.0655466 0.0980503 0.71368
850 2 0.0605777 0.122436 0.71127
852 4 0.0556088 0.146823 0.708861
1107 4 0.068974 0.0877572 0.729739
1282 2 0.152829 0.116276 0.674888
1105 2 0.0924212 0.08669 0.738357
1106 4 0.115868 0.0856229 0.746975
1284 4 0.164713 0.137932 0.671019
909 4 0.182557 0.129831 0.6724
830 4 0.316359 0.156524 0.663037
1004 4 0.354266 0.0777725 0.725191
829 2 0.331951 0.143639 0.677735
1005 4 0.357509 0.12496 0.708957
1003 2 0.355887 0.101366 0.717074
831 4 0.347543 0.130754 0.692434
3268 2 0.478146 0.136248 0.739719
3270 4 0.48531 0.15344 0.723038
1214 4 0.00453012 0.200109 0.731829
977 4 0.313729 0.248057 0.741194
1297 2 0.285965 0.216634 0.738251
1298 4 0.298516 0.236801 0.746056
1025 4 0.393422 0.178419 0.694084
1024 2 0.409502 0.188595 0.710303
1142 4 0.435299 0.201544 0.742849
1144 2 0.465573 0.186919 0.722825
1262 4 0.435178 0.215731 0.729908
1026 4 0.425581 0.198772 0.726523
1145 4 0.44462 0.200419 0.724806
1146 4 0.486525 0.173419 0.720844
1261 2 0.436883 0.239829 0.736354
1178 4 0.0201306 0.260684 0.737712
1073 4 0.0757748 0.253902 0.72371
1177 2 0.0433487 0.266127 0.730197
1179 4 0.0665669 0.27157 0.722682
1072 2 0.100157 0.257511 0.727909
1208 4 0.136766 0.277938 0.728493
1074 4 0.12454 0.261121 0.732108
1207 2 0.135503 0.29845 0.714251
821 4 0.139706 0.327003 0.684218
1209 4 0.134239 0.318962 0.700009
1130 4 0.137185 0.26799 0.744373
815 4 0.12079 0.329294 0.707893
918 4 0.295383 0.253351 0.737477
806 4 0.256525 0.314205 0.677355
976 2 0.337947 0.250971 0.735701
978 4 0.362166 0.253884 0.730208
1020 4 0.379979 0.24583 0.737767
1263 4 0.438589 0.263927 0.7428
892 2 0.0435145 0.362285 0.723281
1280 4 0.0866073 0.367107 0.729367
816 4 0.07853 0.350654 0.723972
894 4 0.066744 0.362729 0.732521
893 4 0.0202851 0.361841 0.714041
942 4 0.141719 0.333064 0.705093
1279 2 0.08949 0.389646 0.7398
814 2 0.0996602 0.339974 0.715933
940 2 0.153535 0.35011 0.719057
1078 2 0.164093 0.406256 0.731783
1281 4 0.0923726 0.412186 0.750233
941 4 0.165352 0.367156 0.73302
1080 4 0.174201 0.38341 0.730743
805 2 0.24142 0.333228 0.683283
1065 4 0.214396 0.366106 0.680794
807 4 0.226314 0.352251 0.68921
1028 4 0.219633 0.385105 0.686907
1066 2 0.204432 0.369354 0.714322
1068 4 0.22296 0.369505 0.697533
1027 2 0.228418 0.405346 0.675147
1067 4 0.185904 0.369203 0.731112
1204 2 0.360432 0.382106 0.667128
1205 4 0.340397 0.380352 0.681983
1079 4 0.153986 0.429102 0.732823
2170 2 0.160918 0.500395 0.670029
1029 4 0.237203 0.425587 0.663387
1174 2 0.185254 0.485341 0.726385
1175 4 0.176915 0.479086 0.703658
2172 4 0.176134 0.488884 0.686189
1176 4 0.193593 0.491596 0.749111
1140 4 0.24094 0.446215 0.666337
1228 2 0.314576 0.460796 0.687079
1138 2 0.258629 0.455519 0.681361
1139 4 0.276318 0.464823 0.696384
1987 2 0.303712 0.450285 0.740128
1229 4 0.295627 0.471 0.699807
1989 4 0.296965 0.460334 0.718249
2028 4 0.284336 0.472532 0.712011
1230 4 0.333525 0.450591 0.674352
1100 4 0.497187 0.470323 0.71738
1099 2 0.486966 0.489246 0.704627
2989 2 0.00925267 0.0414222 0.77825
2990 4 0.00721285 0.0653168 0.771174
2991 4 0.0112925 0.0175275 0.785326
863 4 0.0205074 0.0701195 0.758445
2049 4 0.101726 0.0169406 0.784511
1202 4 0.115878 0.0289988 0.775704
1201 2 0.121531 0.0533545 0.775876
1203 4 0.127184 0.0777101 0.776047
32 3 0.143 0.0831395 0.790691
1085 4 0.314068 0.0723605 0.813525
960 4 0.332101 0.0658627 0.81795
819 4 0.319893 0.0556036 0.806568
973 2 0.374721 0.990968 0.812457
1050 4 0.348391 0.999044 0.791802
817 2 0.334702 0.0372349 0.798294
818 4 0.34951 0.0188661 0.790019
974 4 0.362585 0.00958485 0.800998
2320 2 0.488496 0.0497421 0.763956
844 2 0.489595 0.0665266 0.821735
845 4 0.4737 0.0646579 0.802525
2322 4 0.478624 0.0597684 0.784625
1112 4 0.468385 0.0756471 0.786877
3083 4 0.00312512 0.0810262 0.7615
833 4 0.0178699 0.0829081 0.772479
832 2 0.0217568 0.0989392 0.791269
834 4 0.0256437 0.11497 0.81006
1125 4 0.0393542 0.127258 0.818031
34 3 0.120583 0.0963137 0.763551
911 4 0.136239 0.0997932 0.803924
31 1 0.138121 0.101562 0.777809
35 3 0.132186 0.118853 0.79139
33 3 0.156922 0.107279 0.76547
910 2 0.139782 0.0939495 0.827976
1256 4 0.22693 0.126925 0.823141
840 4 0.221216 0.13918 0.836737
1255 2 0.242932 0.111608 0.811543
1084 2 0.293679 0.080079 0.801281
1086 4 0.27329 0.0877975 0.789038
1257 4 0.258934 0.0962913 0.799945
3269 4 0.470982 0.119055 0.756401
1113 4 0.474522 0.123982 0.775618
1111 2 0.471453 0.0998148 0.781248
1299 4 0.273413 0.196466 0.730447