ITEM: TIMESTEP
3380000
ITEM: NUMBER OF ATOMS
4590
ITEM: BOX BOUNDS pp pp pp
-9.9985700000000008e+00 9.9985700000000008e+00
-9.9985700000000008e+00 9.9985700000000008e+00
-9.9985700000000008e+00 9.9985700000000008e+00
ITEM: ATOMS id type xs ys zs
701 4 0.047402 0.0418604 0.0717363
700 2 0.0546672 0.0657655 0.0727067
1667 4 0.0274701 0.0455439 0.072389
1666 2 0.00248864 0.0465902 0.0722894
490 2 0.276044 0.0623055 0.0681198
492 4 0.291971 0.0430567 0.0671114
1474 2 0.279756 0.00307393 0.0591325
1475 4 0.28996 0.0258702 0.0579573
2974 2 0.473196 0.0338941 0.0252318
745 2 0.424689 0.0744922 0.0233318
747 4 0.440124 0.0560484 0.0164943
2975 4 0.455757 0.0461085 0.0121218
986 4 0.437947 0.0437615 0.0023113
2976 4 0.490635 0.0216798 0.0383417
2468 4 0.49194 0.00759045 0.050764
702 4 0.0619325 0.0896705 0.0736772
475 2 0.063714 0.12151 0.0812871
477 4 0.0723636 0.143163 0.0722604
566 4 0.22186 0.143098 0.0356381
565 2 0.229354 0.151999 0.0135068
746 4 0.409254 0.0929361 0.0301693
769 2 0.392063 0.146715 0.024188
556 2 0.37728 0.0955165 0.00370575
558 4 0.395942 0.102549 0.0187866
771 4 0.39782 0.122641 0.0206534
737 4 0.226497 0.195661 0.0335901
736 2 0.201967 0.197584 0.0380332
738 4 0.177436 0.199506 0.0424762
770 4 0.386307 0.170789 0.0277225
359 4 0.382354 0.187683 0.0179014
664 2 0.389854 0.208013 0.0512865
665 4 0.386078 0.187786 0.0370813
666 4 0.393631 0.22824 0.0654917
623 4 0.394521 0.247923 0.0732405
323 4 0.401664 0.242629 0.0569404
555 4 0.0797616 0.269 0.000148777
481 2 0.231826 0.273678 0.0697655
505 2 0.192326 0.317019 0.070141
483 4 0.21611 0.290472 0.079571
288 4 0.224519 0.33016 0.00426442
573 4 0.266399 0.256266 0.053132
482 4 0.247543 0.256885 0.05996
571 2 0.288343 0.263056 0.0432552
572 4 0.310286 0.269846 0.0333783
357 4 0.304319 0.279958 0.0163222
355 2 0.318046 0.299666 0.00936887
356 4 0.331774 0.319373 0.00241554
1069 2 0.406309 0.321822 0.035643
322 2 0.411857 0.264434 0.050169
324 4 0.422049 0.286238 0.0433976
1070 4 0.421768 0.302421 0.0325127
280 2 0.451553 0.304247 0.0618117
282 4 0.437798 0.297964 0.0418992
281 4 0.465308 0.310531 0.0817242
292 2 0.156563 0.343994 0.0373002
294 4 0.136294 0.337832 0.0240204
507 4 0.187919 0.339476 0.0600695
286 2 0.210602 0.336511 0.0240424
287 4 0.196685 0.342862 0.0438203
293 4 0.176833 0.350156 0.0505799
552 4 0.176015 0.35333 0.0693757
456 4 0.210871 0.401869 0.0588547
454 2 0.200877 0.378959 0.058207
455 4 0.190884 0.356048 0.0575593
1290 4 0.268868 0.403057 0.0520805
1288 2 0.284857 0.391965 0.0363803
1289 4 0.300847 0.380874 0.02068
903 4 0.295619 0.374877 0.00254416
956 4 0.337181 0.33286 0.016042
1071 4 0.390849 0.341222 0.0387733
955 2 0.355781 0.339281 0.0314684
957 4 0.374381 0.345703 0.0468948
741 4 0.39032 0.345061 0.0582248
739 2 0.39274 0.347464 0.0829947
1304 4 0.373644 0.374049 0.0205843
1303 2 0.372891 0.395763 0.00821034
1786 2 0.107719 0.484456 0.0685995
625 2 0.16064 0.482073 0.0463816
1690 2 0.114038 0.497717 0.0146516
1787 4 0.124436 0.498108 0.055976
627 4 0.143455 0.498204 0.0547257
626 4 0.177826 0.465941 0.0380376
245 4 0.18442 0.44828 0.0450974
244 2 0.208124 0.44241 0.0504659
246 4 0.231828 0.436539 0.0558344
251 4 0.257075 0.418226 0.057155
272 4 0.250514 0.434615 0.0453302
271 2 0.266056 0.444012 0.0281452
273 4 0.281598 0.453409 0.0109602
250 2 0.260774 0.426193 0.0805649
1157 4 0.289825 0.436708 0.00557241
1672 2 0.41365 0.434346 0.0746536
853 2 0.403276 0.451922 0.022643
855 4 0.386448 0.448624 0.00444656
37 3 0.370009 0.435434 0.00890339
854 4 0.420105 0.455219 0.0408394
1674 4 0.425488 0.441554 0.0538432
564 4 0.439488 0.452257 0.0454669
563 4 0.471523 0.478104 0.0170699
562 2 0.455505 0.46518 0.0312684
228 4 0.488512 0.480211 0.00754328
19 3 0.0612482 0.00979135 0.157294
577 2 0.0897624 0.041369 0.163904
579 4 0.106211 0.0589186 0.157076
450 4 0.120271 0.0472662 0.1521
448 2 0.139474 0.0628573 0.15575
449 4 0.158678 0.0784484 0.159399
582 4 0.233738 0.055395 0.157017
237 4 0.223866 0.0687256 0.145514
235 2 0.201085 0.0722709 0.155191
491 4 0.260118 0.0815543 0.0691283
486 4 0.426165 0.987269 0.106946
2722 2 0.498489 0.0836433 0.128797
476 4 0.0550643 0.0998561 0.0903138
513 4 0.0278154 0.145937 0.159734
236 4 0.178305 0.0758163 0.164867
312 4 0.3595 0.135609 0.159681
628 2 0.379991 0.158878 0.142902
629 4 0.375884 0.134687 0.147713
2723 4 0.489379 0.103335 0.11637
2759 4 0.00844482 0.17024 0.114427
2624 4 0.011769 0.187405 0.103481
460 2 0.327429 0.226799 0.111134
461 4 0.304734 0.216762 0.108076
354 4 0.284751 0.213226 0.114925
352 2 0.273657 0.229363 0.130471
353 4 0.262563 0.2455 0.146018
278 4 0.253289 0.245709 0.162796
462 4 0.350125 0.236836 0.114191
255 4 0.364276 0.235249 0.125517
253 2 0.375311 0.216477 0.137805
622 2 0.378267 0.249259 0.0921933
254 4 0.386346 0.197704 0.150093
630 4 0.384098 0.183068 0.138092
506 4 0.196733 0.294562 0.0802126
537 4 0.187674 0.279819 0.090497
755 4 0.24481 0.251464 0.144704
536 4 0.187004 0.269754 0.139476
535 2 0.187339 0.274787 0.114987
754 2 0.233165 0.272486 0.151608
756 4 0.22152 0.293508 0.158511
301 2 0.323453 0.317508 0.140353
303 4 0.319769 0.300399 0.15821
764 4 0.328122 0.283248 0.155914
284 4 0.27086 0.255725 0.159455
283 2 0.290164 0.271571 0.160655
624 4 0.362013 0.250596 0.111146
765 4 0.354529 0.250904 0.128395
763 2 0.341325 0.267076 0.142155
12 3 0.408765 0.32417 0.129814
671 4 0.460281 0.324303 0.0965108
527 4 0.477134 0.323964 0.0883238
670 2 0.438619 0.332932 0.105537
647 4 0.0569297 0.357322 0.147572
550 2 0.16017 0.358298 0.0880683
551 4 0.144324 0.363265 0.106761
302 4 0.327136 0.334617 0.122495
387 4 0.327621 0.352884 0.117112
385 2 0.352418 0.355887 0.115999
493 2 0.392455 0.390664 0.112853
495 4 0.392692 0.366018 0.11706
386 4 0.377216 0.35889 0.114885
15 3 0.37842 0.345469 0.125521
740 4 0.395159 0.349868 0.107765
14 3 0.412654 0.360612 0.121473
11 1 0.399885 0.345131 0.133122
13 3 0.400326 0.349968 0.155812
494 4 0.392219 0.41531 0.108646
672 4 0.416957 0.341562 0.114563
526 2 0.499531 0.331828 0.0804691
1465 2 0.0635896 0.465646 0.0938079
1466 4 0.0444442 0.47834 0.103682
1791 4 0.0437536 0.496358 0.11379
1788 4 0.0910028 0.470804 0.0812231
1467 4 0.0827349 0.452953 0.0839335
766 2 0.211869 0.466101 0.16643
768 4 0.214415 0.442722 0.157935
767 4 0.209324 0.489479 0.174925
252 4 0.264472 0.434161 0.103975
609 4 0.281959 0.429156 0.112701
607 2 0.306731 0.432512 0.112219
608 4 0.331504 0.435867 0.111737
1317 4 0.330706 0.500817 0.129924
659 4 0.336414 0.438236 0.0936464
660 4 0.385446 0.430206 0.0993121
1673 4 0.401812 0.427137 0.0954641
658 2 0.36093 0.434221 0.0964793
524 4 0.403191 0.480925 0.136324
523 2 0.400107 0.462668 0.119521
525 4 0.397023 0.44441 0.102718
1559 4 0.387575 0.491567 0.144101
1558 2 0.365084 0.502333 0.142238
2480 4 0.0195464 0.99925 0.192393
578 4 0.0733134 0.0238194 0.170732
2479 2 0.0152436 0.0192698 0.206742
380 4 0.0197628 0.0560384 0.214266
2481 4 0.0109408 0.0392891 0.221091
379 2 0.0233311 0.0786117 0.204122
20 3 0.0711775 0.0174619 0.192793
674 4 0.154953 0.996933 0.228628
580 2 0.248898 0.0488965 0.175809
1506 4 0.247898 0.0178204 0.200726
581 4 0.264059 0.042398 0.1946
654 4 0.264358 0.0264743 0.207434
652 2 0.281979 0.0331892 0.223853
653 4 0.2996 0.0399041 0.240272
758 4 0.336658 0.0822967 0.191908
759 4 0.370458 0.0621738 0.222785
757 2 0.353558 0.0722352 0.207347
350 4 0.371941 0.0533443 0.240113
349 2 0.393867 0.0452674 0.231212
632 4 0.369192 0.0681729 0.241784
25 3 0.341881 0.0238958 0.231271
480 4 0.435547 0.0394308 0.224492
351 4 0.415792 0.0371906 0.222312
333 4 0.494422 0.0777475 0.253182
393 4 0.037048 0.162121 0.167574
511 2 0.0318829 0.131799 0.179951
512 4 0.0359504 0.117661 0.200169
381 4 0.0268995 0.101185 0.193979
310 2 0.351313 0.113283 0.167406
30 3 0.358958 0.159872 0.242852
311 4 0.343125 0.0909564 0.175131
26 1 0.375335 0.144087 0.241726
28 3 0.379249 0.138306 0.219597
761 4 0.416644 0.126967 0.198939
27 3 0.394712 0.152617 0.250722
521 4 0.473781 0.133439 0.220283
762 4 0.457318 0.128109 0.228008
760 2 0.436981 0.127538 0.213474
332 4 0.470436 0.115248 0.230398
331 2 0.482429 0.0964978 0.24179
520 2 0.488425 0.153647 0.21874
391 2 0.0446525 0.185882 0.169232
392 4 0.0522571 0.209644 0.170891
339 4 0.0669727 0.223085 0.173579
337 2 0.0712942 0.245546 0.183679
546 4 0.0831041 0.261951 0.22615
544 2 0.105903 0.266663 0.235272
279 4 0.242777 0.210555 0.196773
277 2 0.248033 0.228132 0.179784
396 4 0.0127768 0.260331 0.246131
394 2 0.0307441 0.265747 0.229607
395 4 0.0487114 0.271163 0.213084
338 4 0.0756157 0.268006 0.19378
363 4 0.0655427 0.279923 0.205535
361 2 0.071049 0.304155 0.202763
362 4 0.0765553 0.328386 0.199991
545 4 0.128701 0.271375 0.244393
372 4 0.0931474 0.329586 0.191648
733 2 0.153491 0.327697 0.239889
612 4 0.210115 0.304467 0.172048
611 4 0.22589 0.324318 0.21515
610 2 0.218003 0.314393 0.193599
344 4 0.22598 0.314439 0.231908
343 2 0.206017 0.311763 0.246724
285 4 0.309467 0.287417 0.161855
729 4 0.308367 0.303189 0.173995
727 2 0.293219 0.319225 0.185767
308 4 0.321931 0.288641 0.173577
728 4 0.278071 0.33526 0.197539
496 2 0.342799 0.306189 0.249561
498 4 0.345426 0.298526 0.225906
307 2 0.338959 0.289831 0.191847
309 4 0.355987 0.291021 0.210118
749 4 0.0620995 0.342664 0.203102
648 4 0.0766998 0.342833 0.191161
748 2 0.0692001 0.354785 0.223786
646 2 0.0668147 0.350077 0.169366
370 2 0.116071 0.336301 0.199036
371 4 0.138995 0.343017 0.206423
734 4 0.140406 0.343617 0.225729
417 4 0.143677 0.358708 0.218632
299 4 0.13981 0.360363 0.237466
415 2 0.153949 0.377207 0.205309
298 2 0.117087 0.366232 0.24609
416 4 0.16422 0.395705 0.191987
289 2 0.195493 0.415678 0.184623
291 4 0.183462 0.396059 0.194397
445 2 0.394149 0.371234 0.227048
447 4 0.417761 0.363736 0.223668
446 4 0.370536 0.378732 0.230428
644 4 0.436099 0.365552 0.232474
595 2 0.493718 0.395219 0.168191
643 2 0.449352 0.3766 0.214379
645 4 0.462606 0.387649 0.196283
597 4 0.473893 0.398856 0.182987
290 4 0.207524 0.435297 0.17485
412 2 0.234697 0.487482 0.246709
414 4 0.233982 0.499789 0.224956
229 2 0.450098 0.48245 0.219275
231 4 0.464004 0.462668 0.225636
230 4 0.436192 0.502232 0.212914
234 4 0.0163221 0.0493817 0.291748
232 2 0.0376741 0.0378933 0.297855
233 4 0.0590262 0.026405 0.303961
317 4 0.0697297 0.0179163 0.316543
1404 4 0.0633073 0.00828157 0.299481
428 4 0.0676242 0.999111 0.315766
316 2 0.0818573 0.036495 0.328073
2756 4 0.0129356 0.0632054 0.303995
2478 4 0.998407 0.0500668 0.298745
2755 2 0.00797301 0.0823803 0.319256
693 4 0.316906 0.0577141 0.26539
691 2 0.306856 0.0715082 0.283663
24 3 0.317464 0.0459741 0.249546
22 3 0.353469 0.0561642 0.246015
21 1 0.339325 0.0382345 0.248778
23 3 0.344628 0.0274912 0.26865
257 4 0.425165 0.0749765 0.31868
479 4 0.45669 0.0355658 0.269645
478 2 0.446119 0.0374983 0.247069
2664 4 0.472945 0.0288589 0.280148
1428 4 0.454653 0.0293253 0.285318
258 4 0.448657 0.0466182 0.284847
2662 2 0.495774 0.0362532 0.287171
256 2 0.436911 0.0607974 0.301763
1426 2 0.449239 0.00645038 0.293839
403 2 0.231158 0.154371 0.323085
404 4 0.245318 0.13459 0.328861
692 4 0.296806 0.0853024 0.301936
721 2 0.266626 0.103901 0.307193
723 4 0.278311 0.0882756 0.291558
722 4 0.25494 0.119527 0.322829
29 3 0.369077 0.125308 0.253832
631 2 0.367324 0.0898709 0.254067
707 4 0.354438 0.122876 0.269148
633 4 0.365455 0.111569 0.266351
706 2 0.35682 0.133027 0.291873
708 4 0.359203 0.143179 0.314599
321 4 0.36315 0.152066 0.330981
600 4 0.113455 0.204968 0.329048
402 4 0.14131 0.257161 0.252462
405 4 0.216998 0.174153 0.317309
473 4 0.204931 0.174889 0.333355
269 4 0.418635 0.223821 0.321382
444 4 0.996809 0.254108 0.308563
442 2 0.00834857 0.255185 0.286408
443 4 0.0198879 0.256261 0.264252
400 2 0.157361 0.276015 0.255936
735 4 0.166577 0.311777 0.254048
401 4 0.173413 0.294868 0.25941
676 2 0.177344 0.315453 0.295643
677 4 0.170188 0.309781 0.272366
345 4 0.186055 0.309087 0.26154
678 4 0.184501 0.321124 0.318919
378 4 0.277947 0.316503 0.28487
376 2 0.302463 0.321406 0.285151
377 4 0.32698 0.326308 0.285431
615 4 0.334615 0.333372 0.302659
497 4 0.340173 0.313851 0.273216
543 4 0.340382 0.318907 0.291372
418 2 0.387662 0.253907 0.324843
541 2 0.358042 0.305318 0.302712
542 4 0.375703 0.291729 0.314053
420 4 0.372417 0.273709 0.324026
750 4 0.0763006 0.366906 0.244471
364 2 0.999964 0.398521 0.289411
601 2 0.047271 0.414399 0.312641
603 4 0.0352853 0.421891 0.292016
300 4 0.0943631 0.372101 0.254714
510 4 0.190935 0.339386 0.321086
508 2 0.20271 0.361413 0.319919
509 4 0.214484 0.38344 0.318753
434 4 0.320667 0.384363 0.310662
433 2 0.304683 0.403314 0.313913
613 2 0.331756 0.354959 0.314948
614 4 0.328898 0.376546 0.327237
2 3 0.272326 0.414353 0.314293
365 4 0.0162503 0.417002 0.285127
1757 4 0.0127693 0.433234 0.272926
1756 2 0.0312154 0.449679 0.269124
1758 4 0.0496615 0.466125 0.265321
1775 4 0.0673479 0.468363 0.271347
775 2 0.0544366 0.482563 0.305822
777 4 0.0550922 0.468393 0.285231
776 4 0.0537811 0.496733 0.326412
1776 4 0.113542 0.449506 0.274708
1774 2 0.0904448 0.458934 0.273027
413 4 0.235412 0.475174 0.268462
4 3 0.237439 0.428101 0.311741
1436 4 0.238701 0.489842 0.282427
1435 2 0.244204 0.470358 0.297099
1437 4 0.249707 0.450875 0.311772
3 3 0.265213 0.448924 0.327213
1 1 0.256629 0.427505 0.324771
436 2 0.29805 0.458269 0.316767
438 4 0.281856 0.439248 0.317819
435 4 0.288699 0.422264 0.317163
437 4 0.314245 0.477291 0.315715
1802 4 0.331376 0.476348 0.305895
1801 2 0.35231 0.479293 0.319248
1803 4 0.373243 0.482238 0.332602
119 3 0.476822 0.455975 0.334949
399 4 0.0787016 0.0634592 0.349159
318 4 0.0939849 0.0550737 0.339603
732 4 0.097118 0.0684937 0.352767
730 2 0.12167 0.0649631 0.355916
731 4 0.146222 0.0614324 0.359065
606 4 0.150148 0.0636506 0.339975
604 2 0.173496 0.0718425 0.343573
1701 4 0.369433 0.0103474 0.395782
699 4 0.375153 0.0699836 0.363544
1699 2 0.373331 0.0324824 0.384826
1700 4 0.377229 0.0546174 0.373871
697 2 0.396477 0.069613 0.350494
962 4 0.342049 0.00588166 0.410438
698 4 0.417801 0.0692425 0.337443
397 2 0.0654793 0.0837689 0.355312
398 4 0.052257 0.104079 0.361466
2584 2 0.022831 0.113928 0.363428
2586 4 0.0446461 0.113821 0.375646
458 4 0.045641 0.121458 0.395792
457 2 0.0446626 0.144332 0.405843
2757 4 0.00301043 0.101555 0.334516
605 4 0.196844 0.0800344 0.347172
249 4 0.245217 0.119561 0.34071
248 4 0.211587 0.0871602 0.358597
247 2 0.228402 0.10336 0.349653
683 4 0.26235 0.127211 0.338476
682 2 0.280946 0.143438 0.342484
684 4 0.299541 0.159665 0.346493
319 2 0.340195 0.160291 0.336514
726 4 0.399857 0.13696 0.391622
717 4 0.376911 0.16188 0.342156
715 2 0.388051 0.158371 0.364264
716 4 0.399191 0.154863 0.386372
467 4 0.398162 0.152492 0.405124
724 2 0.40497 0.114244 0.400736
642 4 0.507022 0.120308 0.384929
641 4 0.490158 0.157341 0.355862
640 2 0.49859 0.138825 0.370396
598 2 0.124523 0.209838 0.350933
599 4 0.135591 0.214708 0.372818
686 4 0.130371 0.225212 0.389399
685 2 0.114495 0.223634 0.408651
275 4 0.145501 0.228128 0.381801
389 4 0.140227 0.243462 0.391658
274 2 0.170078 0.223566 0.38238
474 4 0.193259 0.200343 0.374787
472 2 0.199095 0.187616 0.354071
276 4 0.194655 0.219004 0.382958
320 4 0.31724 0.168517 0.342046
419 4 0.402907 0.234106 0.325661
268 2 0.440428 0.222741 0.333591
270 4 0.462222 0.221661 0.345799
452 4 0.470654 0.224187 0.363921
451 2 0.472378 0.222584 0.388814
453 4 0.474102 0.220982 0.413706
2802 4 0.99927 0.288261 0.410232
347 4 0.0610126 0.313299 0.392138
346 2 0.0379241 0.306665 0.399073
618 4 0.0706759 0.301713 0.378364
348 4 0.0148356 0.300031 0.406007
616 2 0.0955998 0.303492 0.377465
373 2 0.153042 0.307879 0.34889
388 2 0.138062 0.267879 0.386729
390 4 0.135898 0.292297 0.381799
617 4 0.120524 0.305272 0.376566
374 4 0.135442 0.301446 0.365444
375 4 0.170642 0.314312 0.332336
488 4 0.394625 0.262412 0.387358
487 2 0.38774 0.258468 0.411069
602 4 0.0592567 0.406908 0.333267
549 4 0.0533466 0.406778 0.351955
10 3 0.139851 0.353763 0.417003
335 4 0.316037 0.378702 0.406609
240 4 0.309413 0.387123 0.390103
238 2 0.330563 0.389822 0.377043
239 4 0.351713 0.392521 0.363982
587 4 0.363867 0.408545 0.356469
752 4 0.458499 0.384401 0.38824
561 4 0.441149 0.376919 0.395365
751 2 0.467702 0.404554 0.37665
559 2 0.455741 0.367382 0.413289
547 2 0.0642635 0.41675 0.372118
500 4 0.0654537 0.48808 0.340392
499 2 0.0671611 0.474685 0.361436
501 4 0.0688685 0.461289 0.382479
407 4 0.0736532 0.44678 0.395286
548 4 0.0751805 0.426722 0.392281
406 2 0.0913574 0.451266 0.412363
1556 4 0.22128 0.503745 0.38528
1555 2 0.236778 0.488086 0.397104
5 3 0.251872 0.418663 0.345212
1557 4 0.252276 0.472427 0.408927
593 4 0.379264 0.468816 0.343811
588 4 0.389222 0.450754 0.347739
586 2 0.376545 0.429649 0.352104
592 2 0.397064 0.484385 0.351931
2862 4 0.491798 0.470996 0.344792
116 1 0.487422 0.446532 0.353303
713 4 0.43398 0.498853 0.36034
712 2 0.451808 0.481748 0.356496
714 4 0.469636 0.464644 0.352653
753 4 0.476905 0.424707 0.365059
117 3 0.473377 0.447813 0.371475
118 3 0.492205 0.424224 0.349077
718 2 0.0174306 0.00857379 0.463678
369 4 0.0597004 0.02026 0.465204
367 2 0.079926 0.0152881 0.45137
719 4 0.0410511 0.0165507 0.46558
1781 4 0.118612 0.00432569 0.442533
368 4 0.100152 0.0103163 0.437536
340 2 0.214045 0.0370515 0.498388
341 4 0.200976 0.0158468 0.500563
963 4 0.31837 0.0411727 0.436792
432 4 0.31157 0.0580445 0.446858
430 2 0.320675 0.065542 0.468905
431 4 0.32978 0.0730396 0.490952
961 2 0.330209 0.0235272 0.423615
725 4 0.410083 0.0915294 0.40985
2656 2 0.496083 0.128983 0.424182
3489 4 0.49065 0.117455 0.464904
2657 4 0.485781 0.127493 0.446916
576 4 0.418173 0.144584 0.482434
459 4 0.0436842 0.167206 0.415893
260 4 0.0500595 0.185386 0.422186
259 2 0.065492 0.205039 0.421285
261 4 0.0809245 0.224691 0.420384
687 4 0.0986188 0.222055 0.427903
1035 4 0.0850603 0.235435 0.434862
1033 2 0.093158 0.250781 0.452865
409 2 0.394088 0.217755 0.448328
411 4 0.38082 0.238597 0.444484
466 2 0.406337 0.169043 0.421988
410 4 0.407356 0.196914 0.452173
468 4 0.414511 0.185595 0.438852
574 2 0.416268 0.168602 0.475747
515 4 0.469483 0.209807 0.430649
575 4 0.414364 0.192619 0.46906
516 4 0.426063 0.19665 0.451678
514 2 0.447773 0.203228 0.441164
1034 4 0.101256 0.266128 0.470867
696 4 0.111392 0.276093 0.483373
1260 4 0.118056 0.274526 0.465177
1258 2 0.119342 0.298671 0.45881
1259 4 0.120629 0.322816 0.452442
9 3 0.153446 0.318725 0.41928
266 4 0.367682 0.250831 0.449795
489 4 0.380854 0.254525 0.43478
265 2 0.376357 0.26571 0.46792
267 4 0.385032 0.28059 0.486046
2457 4 0.488883 0.26829 0.490751
326 4 0.0764964 0.362583 0.431078
503 4 0.128607 0.339256 0.461469
7 3 0.132207 0.332793 0.446915
6 1 0.148137 0.337949 0.431141
327 4 0.114037 0.338219 0.453389
325 2 0.0952666 0.350401 0.442234
709 2 0.1477 0.400689 0.499928
502 2 0.136066 0.348373 0.483524
710 4 0.149122 0.375727 0.499645
504 4 0.143525 0.357489 0.505579
8 3 0.167011 0.346072 0.441919
334 2 0.311739 0.381219 0.431112
336 4 0.307442 0.383737 0.455614
668 4 0.300892 0.402386 0.458107
882 4 0.316541 0.39632 0.468199
880 2 0.331239 0.388299 0.486767
2508 4 0.483447 0.354469 0.444256
3308 4 0.45415 0.334224 0.483898
3309 4 0.471498 0.340139 0.437371
560 4 0.470333 0.357845 0.431214
3307 2 0.462824 0.337182 0.460635
1381 2 0.00424884 0.497416 0.453068
568 2 0.138769 0.484524 0.422432
711 4 0.146279 0.42565 0.500212
408 4 0.109062 0.455751 0.42944
383 4 0.125041 0.44753 0.43887
384 4 0.135102 0.435603 0.486381
569 4 0.125552 0.464735 0.430105
382 2 0.130072 0.441566 0.462626
634 2 0.264867 0.47505 0.440893
667 2 0.293654 0.425905 0.462542
772 2 0.309663 0.474994 0.478439
774 4 0.285869 0.468339 0.474601
669 4 0.286416 0.449423 0.466977
636 4 0.254194 0.487622 0.4221
635 4 0.275539 0.462477 0.459687
773 4 0.333457 0.481649 0.482277
663 4 0.469809 0.483393 0.48843
1152 4 0.230583 0.0663191 0.513202
1150 2 0.240007 0.0707761 0.535929
1032 4 0.242197 0.0732362 0.577295
342 4 0.227114 0.0582562 0.496214
1151 4 0.249432 0.0752331 0.558656
841 2 0.363622 0.0685105 0.509566
843 4 0.33978 0.0758273 0.507783
1217 4 0.394154 0.0702566 0.528623
842 4 0.387465 0.0611936 0.51135
1216 2 0.418519 0.0704126 0.523011
1218 4 0.442884 0.0705686 0.517399
1058 4 0.0867369 0.0971187 0.523153
1270 2 0.0881605 0.153333 0.573546
1271 4 0.0972297 0.130276 0.576902
1057 2 0.0952602 0.106516 0.544699
1059 4 0.103784 0.115913 0.566245
1155 4 0.112219 0.124588 0.582663
939 4 0.0983191 0.111579 0.584065
1153 2 0.136607 0.12772 0.587199
1181 4 0.239125 0.088922 0.566788
1180 2 0.236013 0.110798 0.57849
898 2 0.245179 0.163985 0.568254
900 4 0.235139 0.151188 0.587243
1221 4 0.167122 0.147922 0.584155
1199 4 0.0340478 0.208489 0.547761
877 2 0.0639201 0.199488 0.553241
1272 4 0.0790913 0.176391 0.570189
878 4 0.0490316 0.219388 0.555978
1198 2 0.0101848 0.215625 0.545567
879 4 0.0788086 0.179588 0.550503
1244 4 0.0511761 0.221966 0.57581
1243 2 0.0461544 0.246255 0.578973
695 4 0.115594 0.256213 0.529066
651 4 0.211444 0.221882 0.5252
858 4 0.203594 0.239816 0.521526
649 2 0.230184 0.206071 0.530097
650 4 0.248925 0.19026 0.534994
899 4 0.255219 0.176783 0.549265
984 4 0.00449307 0.308645 0.56834
982 2 0.0202191 0.295746 0.582882
1245 4 0.0411328 0.270544 0.582135
694 2 0.113493 0.266153 0.50622
948 4 0.150709 0.295788 0.590032
856 2 0.190834 0.249275 0.540836
946 2 0.169635 0.280954 0.583181
857 4 0.178074 0.258734 0.560146
947 4 0.188561 0.26612 0.57633
798 4 0.206996 0.272358 0.577996
796 2 0.231165 0.278393 0.575852
797 4 0.255335 0.284427 0.573707
790 2 0.272919 0.31531 0.574393
791 4 0.272976 0.290847 0.569223
872 4 0.375188 0.304738 0.575835
954 4 0.485533 0.280624 0.563543
952 2 0.49011 0.299764 0.578967
1011 4 0.464416 0.323495 0.497514
1009 2 0.476666 0.302202 0.502177
1010 4 0.488916 0.28091 0.50684
3263 4 0.0424937 0.337333 0.571653
3262 2 0.0508109 0.35533 0.586888
936 4 0.00685512 0.353822 0.515678
1189 2 0.253747 0.36754 0.577857
804 4 0.2781 0.372643 0.504326
803 4 0.279713 0.360408 0.552786
802 2 0.278906 0.366525 0.528556
1190 4 0.272033 0.354429 0.566951
1238 4 0.287652 0.348849 0.568712
1237 2 0.31125 0.356214 0.572468
792 4 0.272863 0.339773 0.579564
1239 4 0.334847 0.363578 0.576223
930 4 0.344626 0.36851 0.55931
929 4 0.357286 0.39344 0.51785
928 2 0.350956 0.380975 0.53858
881 4 0.345938 0.380277 0.505335
539 4 0.0742095 0.439212 0.588401
1082 4 0.0525262 0.0719667 0.661137
1030 2 0.256286 0.0562682 0.589074
1031 4 0.270375 0.0393002 0.600854
951 4 0.275672 0.0219442 0.609609
949 2 0.299584 0.020919 0.602374
950 4 0.323496 0.0198939 0.595139
1226 4 0.275184 0.0820727 0.66807
1148 4 0.267799 0.0673221 0.658804
1147 2 0.262854 0.0428213 0.659471
3008 4 0.489014 0.0319699 0.594296
809 4 0.491385 0.0269701 0.614782
808 2 0.481617 0.0419417 0.632264
810 4 0.471849 0.0569133 0.649746
45 3 0.47069 0.0785021 0.645975
41 1 0.464765 0.0736795 0.667429
1081 2 0.0477011 0.083139 0.639295
1126 2 0.0196114 0.0835511 0.591254
1128 4 0.996652 0.0826428 0.581394
1083 4 0.042876 0.0943114 0.617453
1127 4 0.0425709 0.0844595 0.601114
938 4 0.0601338 0.0922489 0.609929
937 2 0.0792265 0.101914 0.596997
1154 4 0.160995 0.130851 0.591736
1283 4 0.142018 0.0922484 0.664334
1219 2 0.191913 0.144949 0.58548
1220 4 0.216704 0.141976 0.586806
1182 4 0.232901 0.132674 0.590193
1210 2 0.236367 0.145191 0.623034
1212 4 0.225693 0.149437 0.600826
908 4 0.234647 0.13157 0.655248
1211 4 0.24704 0.140944 0.645243
1227 4 0.253851 0.124411 0.65216
888 4 0.262106 0.143334 0.655685
886 2 0.28277 0.155144 0.663345
1225 2 0.264518 0.103242 0.660115
3425 4 0.48367 0.0884748 0.660762
43 3 0.443449 0.0817572 0.671762
887 4 0.303435 0.166954 0.671004
1194 4 0.316257 0.168687 0.656859
1192 2 0.319239 0.191709 0.647569
1193 4 0.32222 0.21473 0.63828
3123 4 0.47728 0.205516 0.635636
3121 2 0.49328 0.223091 0.643401
983 4 0.0359451 0.282847 0.597425
1136 4 0.161983 0.302717 0.604023
1135 2 0.167054 0.322758 0.618087
871 2 0.387579 0.305499 0.597539
873 4 0.39997 0.30626 0.619243
813 4 0.409077 0.320874 0.629253
953 4 0.494687 0.318903 0.594392
3112 2 0.485691 0.276045 0.663387
3114 4 0.468819 0.291797 0.673001
1041 4 0.0647156 0.387682 0.613423
3264 4 0.0591281 0.373328 0.602122
3240 4 0.0462546 0.387122 0.603157
3238 2 0.0261249 0.401765 0.605512
3239 4 0.00599521 0.416409 0.607868
1039 2 0.0894099 0.389818 0.61671
1040 4 0.114104 0.391955 0.619997
993 4 0.133224 0.391166 0.622283
991 2 0.150505 0.374416 0.629065
822 4 0.164014 0.344586 0.649431
992 4 0.167785 0.357666 0.635848
820 2 0.151851 0.335799 0.669432
1191 4 0.235462 0.380651 0.588762
1137 4 0.172124 0.342799 0.632152
1064 4 0.181039 0.354496 0.644248
897 4 0.185444 0.354539 0.624869
896 4 0.215551 0.373847 0.589919
895 2 0.200497 0.364193 0.607394
1172 4 0.221225 0.392115 0.592632
1063 2 0.198562 0.360232 0.661137
1171 2 0.221296 0.415414 0.601704
811 2 0.400763 0.343451 0.636058
927 4 0.389826 0.383552 0.648428
812 4 0.392448 0.366029 0.642864
925 2 0.407745 0.398511 0.639466
1206 4 0.374282 0.369435 0.647424
906 4 0.486957 0.332212 0.607284
926 4 0.425664 0.413471 0.630505
2244 4 0.111088 0.484374 0.597417
1160 4 0.127537 0.478555 0.607867
540 4 0.114218 0.46571 0.602468
538 2 0.0942138 0.452461 0.595434
1159 2 0.149882 0.478397 0.619088
1186 2 0.207076 0.464835 0.634526
1173 4 0.221368 0.438714 0.610776
1187 4 0.225 0.448366 0.628808
1188 4 0.189153 0.481305 0.640245
1161 4 0.172226 0.478239 0.630308
1029 4 0.239937 0.422838 0.674124
1002 4 0.440084 0.427908 0.63123
1911 4 0.433582 0.489173 0.613326
1001 4 0.448984 0.475234 0.617749
1000 2 0.444534 0.451571 0.624489
1269 4 0.447144 0.491609 0.626146
1267 2 0.459552 0.496807 0.647222
944 4 0.0526193 0.0371861 0.676501
943 2 0.0376814 0.0173865 0.679666
1076 4 0.0560162 0.0582966 0.67356
1075 2 0.0608934 0.0695673 0.69534
864 4 0.0633112 0.072102 0.733538
1077 4 0.0657707 0.0808379 0.71712
1107 4 0.0816299 0.0745357 0.725512
825 4 0.146837 0.0725264 0.669173
823 2 0.159117 0.0509302 0.672
1105 2 0.101577 0.074209 0.740585
2133 4 0.174224 0.0124333 0.665643
2256 4 0.167188 0.012732 0.683748
824 4 0.171397 0.029334 0.674826
1149 4 0.25791 0.0183206 0.660139
1092 4 0.333189 0.0102263 0.69473
42 3 0.464808 0.0508631 0.670355
1163 4 0.477459 0.0613862 0.6853
1162 2 0.48872 0.051276 0.705204
4581 4 0.500885 0.0180859 0.750078
2321 4 0.495161 0.0375725 0.742664
851 4 0.0788248 0.0939655 0.718812
850 2 0.0760338 0.118656 0.716025
852 4 0.0732428 0.143347 0.713239
1282 2 0.16053 0.108007 0.670175
907 2 0.215648 0.125602 0.670367
1284 4 0.179043 0.123766 0.676017
909 4 0.196648 0.119635 0.685486
830 4 0.318335 0.154228 0.671072
829 2 0.328883 0.140524 0.689132
1005 4 0.34498 0.113081 0.720246
1003 2 0.354099 0.0972679 0.737334
831 4 0.339431 0.126821 0.707191
44 3 0.479976 0.0831606 0.682165
3268 2 0.48531 0.134469 0.747874
3270 4 0.49152 0.153893 0.733406
1146 4 0.47367 0.15856 0.723373
1214 4 0.00927929 0.193627 0.741148
1215 4 0.0139603 0.240489 0.724332
1213 2 0.0116198 0.217058 0.73274
1297 2 0.288093 0.219721 0.727123
1298 4 0.303448 0.239231 0.730081
918 4 0.305409 0.255995 0.732897
1299 4 0.272737 0.200211 0.724164
1025 4 0.381038 0.190149 0.712726
1024 2 0.402894 0.194239 0.724162
1020 4 0.381798 0.245375 0.741621
1144 2 0.459468 0.178633 0.727909
1262 4 0.436691 0.213195 0.73576
1026 4 0.42475 0.198329 0.735598
1145 4 0.445266 0.198705 0.732444
1261 2 0.445111 0.235954 0.741785
1073 4 0.0735009 0.271364 0.749705
1178 4 0.0168883 0.25801 0.734208
1177 2 0.0404677 0.266297 0.733498
1179 4 0.0640471 0.274585 0.732788
1072 2 0.0962081 0.266909 0.740233
1208 4 0.135671 0.273624 0.721905
1074 4 0.118915 0.262453 0.730762
1207 2 0.132292 0.296509 0.712418
821 4 0.139689 0.327012 0.689433
1209 4 0.128912 0.319395 0.702931
1130 4 0.135661 0.265444 0.738589
815 4 0.118598 0.332606 0.715478
805 2 0.243275 0.332028 0.680747
977 4 0.321326 0.243206 0.7284
806 4 0.261529 0.315075 0.678608
976 2 0.345459 0.249737 0.728725
978 4 0.369593 0.256268 0.72905
1263 4 0.453531 0.258713 0.747811
892 2 0.035161 0.351519 0.712682
1280 4 0.0652009 0.371532 0.722887
816 4 0.0761372 0.358954 0.713584
894 4 0.0580589 0.360131 0.707516
893 4 0.012263 0.342906 0.717848
1279 2 0.0697853 0.391641 0.737023
1281 4 0.0743697 0.411749 0.751158
942 4 0.135733 0.334253 0.707725
814 2 0.0973674 0.34578 0.714531
940 2 0.151106 0.346569 0.723125
1078 2 0.174384 0.394625 0.75116
941 4 0.16648 0.358885 0.738525
1080 4 0.179021 0.370196 0.748533
1065 4 0.216084 0.365968 0.678025
807 4 0.225021 0.348981 0.682887
1028 4 0.219357 0.380309 0.690507
1066 2 0.202469 0.36043 0.71586
1068 4 0.218566 0.361643 0.696766
1027 2 0.229647 0.401573 0.682316
1067 4 0.186371 0.359216 0.734954
1204 2 0.360312 0.383363 0.662788
1205 4 0.346343 0.397291 0.678152
1982 4 0.0812255 0.462903 0.743994
1079 4 0.169748 0.419055 0.753786
1174 2 0.174304 0.482572 0.729808
1175 4 0.166752 0.488412 0.706699
2172 4 0.179631 0.500771 0.695501
1140 4 0.238853 0.433167 0.691064
1228 2 0.314438 0.447563 0.685459
1138 2 0.259918 0.446323 0.693951
1139 4 0.280984 0.459479 0.696839
1987 2 0.312928 0.459995 0.738984
1229 4 0.299636 0.46304 0.698366
1989 4 0.302425 0.465233 0.716906
2028 4 0.289688 0.474839 0.70533
1230 4 0.329239 0.432087 0.672553
2026 2 0.284008 0.498876 0.701436
1099 2 0.493511 0.484634 0.69346
862 2 0.0424512 0.0745232 0.747109
2989 2 0.0112503 0.052109 0.793249
2990 4 0.0191952 0.0707956 0.778659
2991 4 0.0033054 0.0334224 0.807839
863 4 0.0215912 0.0769444 0.76068
3083 4 0.00384294 0.0763671 0.766626
1106 4 0.121524 0.0738823 0.755657
2049 4 0.108562 0.0123661 0.786398
1202 4 0.0989812 0.0313771 0.78738
1201 2 0.116062 0.0496365 0.787469
1203 4 0.133143 0.0678959 0.787558
32 3 0.150873 0.0742887 0.797224
1085 4 0.30909 0.0666341 0.796206
960 4 0.317871 0.0641594 0.813014
819 4 0.32712 0.0576345 0.797561
1084 2 0.289819 0.082334 0.793504
1004 4 0.363217 0.0814551 0.754421
1050 4 0.352588 0.0030452 0.78389
817 2 0.342369 0.0396523 0.789237
818 4 0.357617 0.0216701 0.780912
974 4 0.359335 0.0142759 0.7976
2320 2 0.483478 0.0467501 0.762774
844 2 0.485851 0.0596633 0.825509
845 4 0.479925 0.0567362 0.801395
2322 4 0.471794 0.0559276 0.782885
1112 4 0.474299 0.0722699 0.792934