ITEM: TIMESTEP
1890000
ITEM: NUMBER OF ATOMS
4590
ITEM: BOX BOUNDS pp pp pp
-9.9985700000000008e+00 9.9985700000000008e+00
-9.9985700000000008e+00 9.9985700000000008e+00
-9.9985700000000008e+00 9.9985700000000008e+00
ITEM: ATOMS id type xs ys zs
1666 2 0.044277 0.0762338 0.0621423
1668 4 0.0342093 0.0798568 0.0395438
1474 2 0.299349 0.0122658 0.0792948
2974 2 0.467331 0.0286287 0.00795889
2976 4 0.475047 0.0103936 0.0232275
2469 4 0.496947 0.0174888 0.0822602
2468 4 0.471143 0.00586089 0.0410336
2467 2 0.484045 0.0116749 0.0616469
2264 4 0.227809 0.155145 0.0240459
2263 2 0.231706 0.139044 0.00531766
297 4 0.325225 0.112762 0.0240827
295 2 0.346978 0.110077 0.0120501
556 2 0.404267 0.118133 0.00918843
296 4 0.36873 0.107393 1.75469e-05
558 4 0.425135 0.114504 0.0224742
746 4 0.440028 0.10413 0.0151313
745 2 0.448713 0.0848137 0.00184115
566 4 0.165234 0.171032 0.0284676
565 2 0.189665 0.170267 0.0232001
567 4 0.214095 0.169501 0.0179327
1133 4 0.215409 0.184955 0.00458235
360 4 0.328161 0.17172 0.00734876
769 2 0.404062 0.178758 0.00558577
770 4 0.391688 0.175623 0.0270855
359 4 0.373215 0.178494 0.0279629
358 2 0.350688 0.175107 0.0176558
664 2 0.391029 0.193206 0.0574439
665 4 0.384432 0.172799 0.0445917
666 4 0.397626 0.213614 0.0702961
323 4 0.407825 0.228903 0.0644366
555 4 0.0578226 0.269076 0.0137225
287 4 0.167323 0.30559 0.0282709
292 2 0.131062 0.286792 0.0239152
507 4 0.160048 0.307283 0.0470933
293 4 0.151525 0.296498 0.0345094
294 4 0.110599 0.277086 0.013321
551 4 0.113586 0.319406 0.0629926
286 2 0.176622 0.313948 0.00661827
505 2 0.173413 0.305614 0.0681588
482 4 0.24761 0.278229 0.0790447
573 4 0.257297 0.286001 0.0645171
571 2 0.272058 0.281238 0.0449056
572 4 0.286819 0.276476 0.0252941
357 4 0.286189 0.269503 0.00600515
322 2 0.415561 0.249853 0.0531929
1069 2 0.400823 0.293793 0.015314
957 4 0.369499 0.312318 0.0171848
1071 4 0.380336 0.303142 0.00444875
955 2 0.348228 0.31509 0.0043382
741 4 0.369919 0.31391 0.0380459
739 2 0.3698 0.322918 0.06137
1070 4 0.42131 0.284444 0.0261792
324 4 0.423298 0.270803 0.0419491
671 4 0.449497 0.319574 0.0782413
280 2 0.44726 0.30256 0.0437523
281 4 0.457651 0.309016 0.0655591
282 4 0.43687 0.296104 0.0219455
527 4 0.458101 0.3002 0.081095
455 4 0.145084 0.373096 0.0664728
552 4 0.125518 0.36779 0.0671566
550 2 0.119552 0.343598 0.0650746
454 2 0.160273 0.38394 0.0498336
456 4 0.175463 0.394785 0.0331944
1290 4 0.270542 0.406159 0.0127826
252 4 0.267858 0.404719 0.0671259
609 4 0.282724 0.407785 0.0788995
250 2 0.270098 0.414591 0.0442634
493 2 0.381952 0.387456 0.0800466
494 4 0.380487 0.412305 0.0824008
626 4 0.232465 0.485191 0.0688761
625 2 0.212688 0.470287 0.0723248
627 4 0.192911 0.455382 0.0757736
245 4 0.249012 0.488525 0.059156
244 2 0.263017 0.47439 0.0440162
246 4 0.277022 0.460254 0.0288764
251 4 0.272338 0.424463 0.0214008
272 4 0.267847 0.442982 0.0226996
1672 2 0.410179 0.438137 0.0679987
853 2 0.411139 0.438432 0.0130461
854 4 0.42708 0.450137 0.0283448
1674 4 0.418324 0.442459 0.0447573
563 4 0.478889 0.464443 0.0401413
562 2 0.454284 0.461052 0.0430133
564 4 0.429678 0.457661 0.0458854
228 4 0.493384 0.453055 0.0299102
1667 4 0.0543448 0.0726107 0.0847408
18 3 0.0761262 0.0384831 0.153932
450 4 0.153353 0.0777764 0.165755
1475 4 0.288668 0.0342765 0.0844536
492 4 0.301053 0.0411761 0.0985523
490 2 0.283556 0.0528265 0.112091
491 4 0.266059 0.064477 0.12563
486 4 0.41789 0.999794 0.094365
2723 4 0.450929 0.0724567 0.152523
2722 2 0.462034 0.0507486 0.146991
2724 4 0.47314 0.0290404 0.141459
1760 4 0.491185 0.0321128 0.135941
2744 4 0.489912 0.0252793 0.153732
701 4 0.0629279 0.0896771 0.0886276
700 2 0.0692235 0.11345 0.0931424
702 4 0.075519 0.137223 0.0976572
476 4 0.0755857 0.154968 0.105559
475 2 0.0951426 0.154246 0.121122
477 4 0.114699 0.153524 0.136684
237 4 0.232006 0.146232 0.157577
582 4 0.244732 0.1318 0.155104
449 4 0.192168 0.109292 0.164772
448 2 0.172761 0.0935339 0.165263
580 2 0.269623 0.134147 0.155405
581 4 0.294514 0.136495 0.155706
628 2 0.364916 0.142055 0.137321
312 4 0.383183 0.102153 0.142364
629 4 0.370342 0.119147 0.145746
630 4 0.35949 0.164962 0.128895
310 2 0.383746 0.0840327 0.159584
339 4 0.0677568 0.227749 0.134112
337 2 0.0642459 0.237964 0.156661
736 2 0.238845 0.180066 0.118658
738 4 0.237402 0.186752 0.0946078
737 4 0.240287 0.17338 0.142708
755 4 0.252213 0.248718 0.154699
461 4 0.305826 0.239544 0.0986132
460 2 0.328748 0.237168 0.108313
354 4 0.285729 0.239873 0.105084
352 2 0.278358 0.241085 0.128945
353 4 0.270986 0.242298 0.152807
278 4 0.262874 0.240506 0.167608
623 4 0.395365 0.230991 0.0791201
254 4 0.343934 0.171781 0.139516
462 4 0.351671 0.234792 0.118013
255 4 0.354342 0.219552 0.12901
253 2 0.349138 0.195666 0.134263
765 4 0.358727 0.233795 0.137357
624 4 0.370004 0.231637 0.122214
622 2 0.382684 0.231314 0.100667
763 2 0.351398 0.247074 0.157235
481 2 0.225976 0.287222 0.0877787
483 4 0.204342 0.296214 0.0965128
506 4 0.186779 0.303945 0.0892242
537 4 0.182577 0.320713 0.0998201
535 2 0.177423 0.324225 0.124033
754 2 0.240663 0.270038 0.160801
387 4 0.312373 0.312923 0.116394
301 2 0.319813 0.310806 0.156611
302 4 0.323531 0.317672 0.132858
385 2 0.332556 0.320281 0.103601
15 3 0.36416 0.325845 0.107203
386 4 0.352739 0.327639 0.090807
670 2 0.427281 0.327258 0.0867613
528 4 0.484915 0.260969 0.0966736
526 2 0.471508 0.280585 0.0888843
518 4 0.503324 0.260884 0.085676
315 4 0.013239 0.37956 0.104571
647 4 0.0618777 0.352336 0.160112
417 4 0.156835 0.409126 0.161557
415 2 0.176811 0.398314 0.151104
536 4 0.172268 0.327736 0.148247
291 4 0.203183 0.395934 0.123235
289 2 0.226797 0.402768 0.127801
416 4 0.196787 0.387503 0.140652
290 4 0.250412 0.409601 0.132367
495 4 0.383417 0.362606 0.0776923
12 3 0.399882 0.328892 0.117572
672 4 0.405065 0.334942 0.0952812
14 3 0.387658 0.347501 0.087291
740 4 0.369681 0.331927 0.084694
11 1 0.381921 0.340039 0.1085
13 3 0.376653 0.358092 0.122092
595 2 0.485976 0.410401 0.141182
596 4 0.478254 0.413972 0.11767
102 3 0.489464 0.341614 0.138096
1791 4 0.0682073 0.483345 0.126155
1466 4 0.0564617 0.469715 0.134774
1465 2 0.0376215 0.466841 0.15096
768 4 0.242375 0.425418 0.140488
1560 4 0.324273 0.504043 0.0906643
638 4 0.257264 0.480489 0.122918
607 2 0.300265 0.422297 0.0892382
608 4 0.317807 0.436809 0.099577
767 4 0.257805 0.472983 0.140977
766 2 0.25009 0.449201 0.140733
1673 4 0.402034 0.433815 0.0912401
659 4 0.335719 0.444395 0.094835
660 4 0.383303 0.42915 0.092816
658 2 0.359511 0.436772 0.0938255
1559 4 0.368505 0.484162 0.102868
1558 2 0.346389 0.494103 0.0967663
524 4 0.381211 0.499532 0.106027
16 1 0.0689132 0.0484782 0.173591
19 3 0.0661259 0.071281 0.170324
17 3 0.0486975 0.0393032 0.179615
2480 4 0.0336662 0.0334063 0.18987
1422 4 0.0259233 0.0161045 0.192966
2479 2 0.016838 0.050825 0.196081
20 3 0.0840646 0.0448013 0.190191
578 4 0.0999914 0.0573627 0.188007
674 4 0.145964 0.0148662 0.218158
673 2 0.135396 0.00431833 0.238214
689 4 0.165308 0.00941841 0.216137
577 2 0.122387 0.0682199 0.185614
693 4 0.224146 0.0880044 0.232639
652 2 0.293284 0.00821935 0.199017
654 4 0.274938 0.999324 0.184543
653 4 0.31163 0.0171145 0.21349
25 3 0.33629 0.0426961 0.238863
311 4 0.384309 0.0659126 0.176804
758 4 0.379817 0.0555256 0.193243
759 4 0.352731 0.0573331 0.23524
757 2 0.366274 0.0564294 0.214242
511 2 0.0374234 0.148001 0.212468
513 4 0.0572222 0.159847 0.222104
512 4 0.0176246 0.136154 0.202832
393 4 0.0759799 0.163048 0.213759
579 4 0.144783 0.0790772 0.183221
391 2 0.0866277 0.171134 0.234887
235 2 0.214919 0.132832 0.169972
236 4 0.197832 0.119432 0.182368
26 1 0.328464 0.156912 0.246037
30 3 0.305825 0.15881 0.244451
28 3 0.335266 0.136262 0.237932
521 4 0.485999 0.147329 0.221825
332 4 0.47554 0.131554 0.222232
762 4 0.465538 0.147292 0.22487
760 2 0.451865 0.161418 0.24032
331 2 0.486707 0.111562 0.232271
333 4 0.497874 0.0915692 0.24231
394 2 0.0199407 0.226196 0.237154
395 4 0.0356652 0.22093 0.218441
396 4 0.00421616 0.231461 0.255868
338 4 0.060735 0.24818 0.179211
279 4 0.248942 0.199233 0.192168
277 2 0.255908 0.21987 0.179888
27 3 0.338352 0.173454 0.233477
363 4 0.0539116 0.265602 0.185666
361 2 0.064813 0.282133 0.200931
749 4 0.0659061 0.314841 0.217215
648 4 0.0659573 0.322889 0.200324
362 4 0.0757144 0.298665 0.216197
748 2 0.0746201 0.331373 0.233825
370 2 0.117543 0.299774 0.224096
372 4 0.0951171 0.290903 0.217495
371 4 0.139969 0.308645 0.230697
734 4 0.144354 0.318414 0.245997
756 4 0.229113 0.291358 0.166903
610 2 0.243405 0.297836 0.209661
612 4 0.237357 0.298904 0.185423
611 4 0.249453 0.296769 0.233899
284 4 0.278459 0.25009 0.170514
285 4 0.324498 0.266686 0.180797
283 2 0.301479 0.258388 0.175656
307 2 0.328491 0.289549 0.20923
308 4 0.32327 0.28577 0.185071
303 4 0.316095 0.303939 0.180364
729 4 0.309854 0.320305 0.191353
498 4 0.320669 0.281283 0.241845
309 4 0.333713 0.293327 0.233388
764 4 0.344069 0.260353 0.177113
646 2 0.0639175 0.337613 0.180218
299 4 0.143276 0.334343 0.260413
727 2 0.295919 0.338882 0.20062
728 4 0.281983 0.357459 0.209887
446 4 0.415028 0.359534 0.239751
645 4 0.493253 0.40815 0.184625
445 2 0.422295 0.377591 0.224057
447 4 0.429562 0.395648 0.208363
644 4 0.450066 0.395461 0.206409
643 2 0.47166 0.401806 0.195517
1467 4 0.0187813 0.463968 0.167145
229 2 0.457594 0.488841 0.230566
230 4 0.443348 0.49017 0.21006
234 4 0.015504 0.0421314 0.277489
232 2 0.0387626 0.0341557 0.282028
233 4 0.0620213 0.0261799 0.286567
1404 4 0.0691315 0.0113443 0.28726
316 2 0.0871495 0.0492449 0.306665
317 4 0.0771472 0.0281283 0.297765
428 4 0.0725055 0.0111608 0.303558
1403 4 0.1056 0.996781 0.256297
1402 2 0.0873657 0.00406281 0.271779
318 4 0.0971517 0.0703616 0.315566
732 4 0.112533 0.0813724 0.316046
730 2 0.135288 0.0715935 0.319478
731 4 0.158042 0.0618145 0.32291
24 3 0.319164 0.0663074 0.262672
21 1 0.339135 0.0558009 0.25727
23 3 0.346379 0.0428902 0.275137
22 3 0.354997 0.0718417 0.252772
349 2 0.392006 0.0765115 0.263327
351 4 0.415399 0.069265 0.26837
479 4 0.45017 0.0337431 0.301407
478 2 0.437241 0.0431387 0.282178
2664 4 0.469019 0.027261 0.29548
480 4 0.424312 0.0525343 0.262949
1428 4 0.456526 0.0189964 0.306968
258 4 0.452965 0.0317775 0.320945
2662 2 0.492149 0.0367017 0.294464
399 4 0.0967234 0.0899915 0.32246
691 2 0.235597 0.101975 0.249927
721 2 0.237346 0.136381 0.298396
722 4 0.230048 0.137933 0.32226
723 4 0.244644 0.13483 0.274531
692 4 0.247047 0.115946 0.267216
29 3 0.335081 0.159314 0.268147
632 4 0.363441 0.0957622 0.274134
350 4 0.368613 0.0837581 0.258284
631 2 0.353347 0.118019 0.268848
707 4 0.348305 0.149386 0.276924
633 4 0.343253 0.140275 0.263562
706 2 0.345876 0.163324 0.29754
443 4 0.0139706 0.241889 0.268223
392 4 0.0972754 0.17922 0.256016
546 4 0.150082 0.170088 0.291044
544 2 0.160395 0.190915 0.281819
545 4 0.170708 0.211741 0.272595
402 4 0.18483 0.225111 0.267753
400 2 0.189725 0.249553 0.26971
474 4 0.187801 0.220436 0.33506
708 4 0.343447 0.177262 0.318156
761 4 0.438193 0.175544 0.255771
733 2 0.165763 0.311062 0.256616
401 4 0.19462 0.273994 0.271666
676 2 0.1841 0.291843 0.30506
345 4 0.203141 0.291369 0.270031
677 4 0.189868 0.290713 0.280757
343 2 0.226486 0.290014 0.26118
735 4 0.187172 0.30371 0.267235
344 4 0.249831 0.28866 0.252328
678 4 0.178332 0.292973 0.329363
378 4 0.251655 0.261269 0.319191
376 2 0.272832 0.268524 0.308051
496 2 0.313335 0.272067 0.263901
497 4 0.306002 0.26285 0.285957
377 4 0.294008 0.275779 0.296911
541 2 0.397451 0.305542 0.322192
542 4 0.410775 0.28508 0.316812
543 4 0.384126 0.326005 0.327572
420 4 0.411943 0.270056 0.305072
418 2 0.41835 0.248386 0.315775
264 4 0.00596659 0.4011 0.264784
365 4 0.0212667 0.372326 0.300343
601 2 0.0444973 0.385247 0.323181
603 4 0.04097 0.370981 0.302952
750 4 0.0833342 0.347906 0.250436
298 2 0.120774 0.345243 0.260689
300 4 0.0982732 0.356142 0.260965
510 4 0.232491 0.346971 0.333938
433 2 0.308221 0.378195 0.320443
435 4 0.289198 0.373984 0.304772
434 4 0.327243 0.382406 0.336115
614 4 0.346997 0.380882 0.33551
613 2 0.357336 0.358915 0.329535
1757 4 0.0686826 0.431515 0.271894
1756 2 0.0791467 0.450981 0.260199
777 4 0.0814801 0.493021 0.275022
775 2 0.077666 0.499883 0.298761
1775 4 0.0882055 0.489533 0.256376
1758 4 0.0896108 0.470446 0.248504
414 4 0.23377 0.47571 0.244438
412 2 0.22386 0.460733 0.261835
1436 4 0.22091 0.446048 0.298145
413 4 0.213949 0.445757 0.279233
1435 2 0.237644 0.443364 0.316529
3 3 0.293716 0.469259 0.320816
1437 4 0.254377 0.44068 0.334913
1803 4 0.365967 0.493475 0.26652
1801 2 0.359431 0.484936 0.289093
1802 4 0.352894 0.476397 0.311666
231 4 0.47184 0.487512 0.251071
713 4 0.440942 0.478764 0.329478
1742 4 0.423042 0.484667 0.327163
1780 2 0.12242 0.00288167 0.404464
606 4 0.158556 0.0544368 0.342068
604 2 0.181712 0.0590317 0.350306
605 4 0.204868 0.0636265 0.358544
248 4 0.205245 0.0815528 0.348064
1701 4 0.327782 0.036806 0.394608
441 4 0.325337 0.0171141 0.399042
425 4 0.334956 0.0269196 0.409283
698 4 0.404881 0.0553822 0.356032
1699 2 0.334141 0.0417397 0.370935
1700 4 0.340499 0.0466735 0.347262
699 4 0.357922 0.0536987 0.338921
697 2 0.381402 0.0545404 0.347477
725 4 0.399024 0.0797934 0.408498
256 2 0.437979 0.0394917 0.339414
257 4 0.422994 0.0472059 0.357883
2585 4 0.00244462 0.0869712 0.345105
397 2 0.0780914 0.097029 0.337576
2584 2 0.0226112 0.0984237 0.35445
398 4 0.0594595 0.104066 0.352692
2586 4 0.0427777 0.109876 0.363795
458 4 0.0478501 0.122371 0.378566
457 2 0.0434077 0.139645 0.396088
459 4 0.0389653 0.15692 0.413611
600 4 0.137886 0.135 0.400288
598 2 0.137007 0.157651 0.389736
249 4 0.226437 0.123309 0.330513
247 2 0.215841 0.102431 0.339289
404 4 0.233101 0.14028 0.340953
683 4 0.254809 0.0975082 0.371199
682 2 0.268148 0.115166 0.382839
319 2 0.313621 0.14755 0.393932
684 4 0.281486 0.132823 0.394478
320 4 0.298588 0.130504 0.404354
717 4 0.429172 0.137272 0.346659
715 2 0.426597 0.156704 0.362181
599 4 0.136128 0.180302 0.379185
389 4 0.112361 0.2423 0.372131
686 4 0.129367 0.192671 0.393011
685 2 0.10816 0.2021 0.402313
275 4 0.152187 0.174857 0.369823
274 2 0.163487 0.190312 0.353741
687 4 0.0869533 0.21153 0.411615
276 4 0.174788 0.205766 0.337658
403 2 0.235118 0.164814 0.345336
472 2 0.211665 0.213361 0.33744
405 4 0.237134 0.189348 0.349718
473 4 0.235528 0.206287 0.339821
321 4 0.328654 0.164596 0.38351
466 2 0.407199 0.194106 0.409024
419 4 0.424756 0.226716 0.326479
467 4 0.417118 0.195365 0.386106
716 4 0.424022 0.176136 0.377704
269 4 0.433796 0.231578 0.34332
270 4 0.464714 0.221127 0.381208
452 4 0.472446 0.20415 0.389251
268 2 0.449255 0.226353 0.362264
451 2 0.473017 0.207644 0.414003
2801 4 0.999222 0.287963 0.380913
2800 2 0.000573024 0.295322 0.404771
618 4 0.0681215 0.330546 0.372841
616 2 0.0878627 0.316124 0.367601
388 2 0.115658 0.266998 0.374208
390 4 0.118954 0.291697 0.376284
617 4 0.107604 0.301701 0.362361
374 4 0.126662 0.303427 0.363577
373 2 0.146582 0.306119 0.348707
375 4 0.166502 0.30881 0.333837
509 4 0.219252 0.311497 0.366603
508 2 0.225872 0.329234 0.350271
347 4 0.0618735 0.345527 0.384828
549 4 0.05371 0.408274 0.360098
602 4 0.0480246 0.399514 0.343409
346 2 0.0459836 0.354861 0.401727
348 4 0.0300937 0.364195 0.418626
668 4 0.304468 0.382867 0.409461
336 4 0.318364 0.370522 0.401778
615 4 0.367675 0.336947 0.32356
334 2 0.340476 0.362001 0.393802
335 4 0.362588 0.353479 0.385825
240 4 0.379449 0.343943 0.39321
238 2 0.397899 0.357355 0.403451
587 4 0.412464 0.389862 0.411321
586 2 0.413446 0.413284 0.402623
752 4 0.475862 0.410528 0.392628
561 4 0.484893 0.397138 0.404792
239 4 0.41635 0.370767 0.413692
547 2 0.0685182 0.426743 0.368148
548 4 0.0833264 0.445212 0.376197
407 4 0.0836455 0.463734 0.383489
406 2 0.101922 0.460807 0.400299
408 4 0.120198 0.45788 0.41711
1556 4 0.237566 0.479875 0.403955
1544 4 0.224268 0.477166 0.417331
636 4 0.297424 0.482199 0.417699
1555 2 0.260938 0.487917 0.407726
5 3 0.266404 0.477698 0.345321
1557 4 0.284311 0.495958 0.411497
1 1 0.282878 0.462801 0.34029
438 4 0.309301 0.466073 0.33784
4 3 0.273842 0.441591 0.337666
2 3 0.298151 0.462301 0.357485
437 4 0.356715 0.480751 0.331743
436 2 0.333008 0.473412 0.334791
593 4 0.407622 0.4511 0.381664
592 2 0.417377 0.464287 0.362793
588 4 0.414428 0.436705 0.393925
712 2 0.464394 0.470955 0.333246
714 4 0.487846 0.463146 0.337013
753 4 0.503278 0.436966 0.360222
117 3 0.496367 0.458944 0.357221
751 2 0.48957 0.423747 0.376425
594 4 0.427132 0.477475 0.343922
367 2 0.0781038 0.0282652 0.426437
369 4 0.0536818 0.0257338 0.42171
719 4 0.0355537 0.0277346 0.429253
718 2 0.0129697 0.0243875 0.439448
1781 4 0.106098 0.0167808 0.417331
368 4 0.102526 0.0307966 0.431163
962 4 0.319035 0.0207959 0.417457
961 2 0.305933 0.0374747 0.430699
963 4 0.292832 0.0541535 0.443941
432 4 0.308524 0.0509293 0.455781
430 2 0.312064 0.0666904 0.474866
424 2 0.357604 0.0306462 0.419201
426 4 0.380252 0.0343728 0.42912
724 2 0.411186 0.0799251 0.430344
1216 2 0.401782 0.0471246 0.497487
1218 4 0.418654 0.0330688 0.485531
431 4 0.315603 0.0824515 0.493951
843 4 0.334243 0.0790492 0.498127
726 4 0.423348 0.0800568 0.45219
642 4 0.495401 0.117825 0.438752
640 2 0.479674 0.1198 0.458089
641 4 0.463946 0.121775 0.477426
260 4 0.0388687 0.175378 0.419815
259 2 0.0574025 0.191706 0.423695
261 4 0.0759362 0.208035 0.427575
1035 4 0.0869496 0.223048 0.426899
696 4 0.0981819 0.247806 0.481208
1033 2 0.0955573 0.238308 0.444738
488 4 0.308203 0.244008 0.443302
487 2 0.331389 0.243798 0.45266
468 4 0.397281 0.192848 0.431941
411 4 0.368704 0.230777 0.468042
409 2 0.386031 0.214777 0.459738
410 4 0.403358 0.198777 0.451435
266 4 0.360661 0.243729 0.480372
489 4 0.354574 0.243588 0.462018
265 2 0.358474 0.239333 0.504888
574 2 0.406818 0.181585 0.497765
516 4 0.416486 0.20512 0.462715
575 4 0.416137 0.19645 0.47995
514 2 0.441298 0.204356 0.45972
515 4 0.46611 0.203593 0.456725
453 4 0.473588 0.211139 0.438754
584 4 0.494317 0.244358 0.489475
2802 4 0.00192374 0.30268 0.428629
1034 4 0.104165 0.253567 0.462577
1258 2 0.119547 0.285238 0.479059
1259 4 0.129755 0.308056 0.479601
9 3 0.152648 0.312654 0.477791
1260 4 0.10934 0.262419 0.478517
7 3 0.118075 0.32707 0.480873
326 4 0.0564561 0.354669 0.476727
325 2 0.0789356 0.344158 0.479788
6 1 0.140259 0.332272 0.477717
10 3 0.142696 0.342926 0.457737
327 4 0.101415 0.333647 0.482848
709 2 0.152273 0.397698 0.475506
711 4 0.128322 0.404362 0.478167
8 3 0.147245 0.346118 0.494976
503 4 0.196422 0.331355 0.491909
502 2 0.191105 0.355716 0.490051
710 4 0.176225 0.391033 0.472844
504 4 0.185787 0.380077 0.488192
667 2 0.313686 0.404225 0.418628
3307 2 0.485191 0.36195 0.469166
3308 4 0.467793 0.348198 0.480715
1383 4 0.997799 0.473458 0.454764
1381 2 0.0105626 0.493585 0.462325
568 2 0.147167 0.487038 0.428328
383 4 0.118451 0.455884 0.436204
569 4 0.131581 0.46752 0.429469
382 2 0.117311 0.435606 0.450786
384 4 0.11617 0.415327 0.465369
1543 2 0.203481 0.490614 0.420832
774 4 0.32596 0.425704 0.446848
635 4 0.321251 0.442497 0.436588
669 4 0.322904 0.425584 0.427794
634 2 0.309338 0.462348 0.427144
773 4 0.355893 0.442727 0.48311
772 2 0.340927 0.434216 0.464979
661 2 0.481664 0.497747 0.459727
663 4 0.491364 0.480609 0.44432
2430 4 0.169787 0.0167765 0.513366
342 4 0.22463 0.0537986 0.508108
340 2 0.203867 0.0403013 0.504657
341 4 0.183104 0.026804 0.501206
1152 4 0.234371 0.0700367 0.501576
1150 2 0.233599 0.0801254 0.524441
1032 4 0.245311 0.0793895 0.558197
1030 2 0.254412 0.064889 0.576421
1217 4 0.38491 0.0611804 0.509443
842 4 0.371311 0.0602102 0.525908
841 2 0.352777 0.0696297 0.512018
1058 4 0.0869222 0.121301 0.516161
1057 2 0.0937443 0.11673 0.539777
1059 4 0.100566 0.112159 0.563394
1155 4 0.109316 0.127893 0.570856
1153 2 0.133863 0.129819 0.575206
1151 4 0.232826 0.0902141 0.547306
1180 2 0.23149 0.130594 0.545124
1181 4 0.236021 0.108103 0.555064
1182 4 0.22696 0.153085 0.535183
900 4 0.231381 0.160688 0.516174
576 4 0.397499 0.166719 0.515579
1198 2 0.00620645 0.219697 0.558724
695 4 0.0863412 0.223883 0.523495
1199 4 0.0278603 0.215943 0.570649
1244 4 0.0465365 0.242537 0.575879
878 4 0.0387677 0.225513 0.582074
694 2 0.0922616 0.235845 0.502351
898 2 0.247521 0.179458 0.512658
650 4 0.282968 0.202013 0.514626
899 4 0.263661 0.198228 0.509142
649 2 0.29285 0.224881 0.516764
651 4 0.302732 0.24775 0.518903
267 4 0.356287 0.234936 0.529405
1243 2 0.0405316 0.266114 0.581643
948 4 0.160188 0.277446 0.572008
856 2 0.218423 0.259789 0.522872
857 4 0.20261 0.259782 0.54224
798 4 0.21334 0.275053 0.576727
947 4 0.207476 0.265134 0.561377
946 2 0.183832 0.27129 0.566693
796 2 0.237531 0.281313 0.577604
1136 4 0.164306 0.294221 0.584536
858 4 0.234237 0.259795 0.503504
797 4 0.261723 0.287574 0.578481
872 4 0.35405 0.284393 0.575743
2457 4 0.500019 0.297698 0.523399
1010 4 0.484423 0.306815 0.53079
1009 2 0.479711 0.325865 0.515296
803 4 0.265303 0.357034 0.558895
804 4 0.284855 0.39455 0.53223
802 2 0.275079 0.375792 0.545562
930 4 0.323527 0.383599 0.584649
1190 4 0.255198 0.355261 0.575996
928 2 0.342327 0.38673 0.568465
929 4 0.361128 0.389862 0.552282
881 4 0.369183 0.377655 0.536667
880 2 0.363545 0.365772 0.515402
882 4 0.357906 0.35389 0.494137
1011 4 0.474998 0.344916 0.499803
540 4 0.0943336 0.474982 0.58369
2244 4 0.0956184 0.48673 0.56735
1160 4 0.110915 0.476695 0.574187
1159 2 0.134383 0.476561 0.582812
2154 4 0.222584 0.494067 0.562347
1953 4 0.411231 0.492134 0.540997
1951 2 0.389654 0.494808 0.553346
1910 4 0.425882 0.494556 0.554174
1909 2 0.443075 0.485381 0.569839
1081 2 0.0580826 0.0805728 0.640635
1082 4 0.0607878 0.0778093 0.665337
2114 4 0.00583913 0.00577627 0.613839
825 4 0.154007 0.0416852 0.67391
1283 4 0.133967 0.0478565 0.672597
823 2 0.17281 0.027349 0.66578
824 4 0.191614 0.0130128 0.657651
1031 4 0.263512 0.0503884 0.594644
951 4 0.273826 0.0323486 0.594706
949 2 0.292731 0.0171276 0.588697
3007 2 0.493682 0.0399603 0.588301
3008 4 0.483432 0.0312323 0.609371
809 4 0.464836 0.0386586 0.610012
808 2 0.461203 0.0529232 0.630224
810 4 0.45757 0.0671877 0.650435
1083 4 0.0553774 0.0833362 0.615932
1127 4 0.0378919 0.0936978 0.614631
1126 2 0.0166472 0.098883 0.602508
938 4 0.0729148 0.0840342 0.604598
1271 4 0.100888 0.139765 0.583811
939 4 0.092588 0.122082 0.57879
937 2 0.0827514 0.103058 0.591694
1270 2 0.0907591 0.159942 0.594555
1154 4 0.15841 0.131746 0.579555
1221 4 0.174906 0.127427 0.591044
1219 2 0.194816 0.134864 0.604214
1220 4 0.214726 0.142302 0.617384
1212 4 0.230726 0.152771 0.611919
1194 4 0.30293 0.143897 0.654089
1192 2 0.324448 0.134157 0.645886
1193 4 0.345966 0.124418 0.637682
45 3 0.459033 0.0913768 0.64971
3424 2 0.496629 0.10786 0.660833
3425 4 0.475204 0.0958218 0.665439
877 2 0.0570042 0.20888 0.586067
879 4 0.0752407 0.192247 0.590061
1272 4 0.0806307 0.18012 0.6053
1210 2 0.244618 0.169487 0.624279
1211 4 0.25851 0.186204 0.636638
886 2 0.286327 0.169906 0.66133
888 4 0.273077 0.187744 0.649867
1245 4 0.0345267 0.289692 0.587407
982 2 0.00997635 0.319168 0.593285
983 4 0.0298212 0.304903 0.598564
1135 2 0.166428 0.318311 0.590888
822 4 0.149584 0.319034 0.650346
1064 4 0.168623 0.323774 0.647183
792 4 0.300274 0.318234 0.595855
791 4 0.276683 0.275256 0.586002
790 2 0.288479 0.296745 0.590929
871 2 0.366631 0.300088 0.590596
813 4 0.385732 0.325655 0.589656
873 4 0.379211 0.315782 0.605448
953 4 0.500422 0.300918 0.594613
3123 4 0.4823 0.294108 0.664215
1041 4 0.0653025 0.37861 0.643196
3264 4 0.0494315 0.374942 0.658114
3240 4 0.0386599 0.389883 0.648878
3238 2 0.0218316 0.404859 0.638028
1137 4 0.168551 0.342401 0.59724
1039 2 0.0859403 0.388053 0.632704
1040 4 0.106578 0.397496 0.622212
993 4 0.121334 0.383735 0.621833
991 2 0.135949 0.36657 0.611018
992 4 0.150565 0.349406 0.600203
1063 2 0.179923 0.343863 0.656873
897 4 0.16704 0.360091 0.605324
1189 2 0.242387 0.371137 0.590454
896 4 0.215801 0.370527 0.609087
895 2 0.191421 0.365309 0.607206
1172 4 0.232637 0.405499 0.602798
1191 4 0.229576 0.387013 0.604911
1239 4 0.311622 0.383271 0.600841
1238 4 0.295634 0.336027 0.604467
1237 2 0.303628 0.359649 0.602654
811 2 0.404345 0.3423 0.590956
1204 2 0.385792 0.391056 0.606632
1205 4 0.365812 0.393664 0.621437
1206 4 0.405772 0.388448 0.591828
926 4 0.46019 0.395459 0.579604
1002 4 0.474709 0.409382 0.582779
925 2 0.439404 0.385777 0.589573
927 4 0.418618 0.376095 0.599542
812 4 0.422958 0.358945 0.592257
539 4 0.057394 0.444087 0.597169
538 2 0.0758638 0.459535 0.590429
3239 4 0.00500331 0.419834 0.627178
1161 4 0.157852 0.476426 0.591437
1171 2 0.21999 0.424328 0.613319
1188 4 0.172819 0.480501 0.603887
1186 2 0.183314 0.464951 0.620417
1173 4 0.207342 0.443158 0.623839
1187 4 0.193809 0.449401 0.636947
891 4 0.315871 0.501151 0.588652
1230 4 0.326502 0.440441 0.664594
1000 2 0.466976 0.433155 0.58326
1911 4 0.460269 0.476206 0.585504
1001 4 0.459244 0.456928 0.583741
1269 4 0.466641 0.463588 0.599956
1267 2 0.468595 0.481405 0.617389
1268 4 0.470549 0.499222 0.634822
945 4 0.044579 0.998159 0.674652
943 2 0.0501315 0.0225175 0.67565
944 4 0.0556839 0.0468763 0.676648
1076 4 0.066393 0.0624902 0.68045
1075 2 0.0715824 0.0782993 0.699113
1282 2 0.142018 0.0697926 0.681494
1149 4 0.238636 0.041827 0.669271
1147 2 0.248491 0.0613393 0.681409
1092 4 0.294439 0.00608872 0.689947
1004 4 0.317425 0.0762162 0.74393
1148 4 0.258346 0.0808515 0.693547
42 3 0.450829 0.0616756 0.670768
1163 4 0.46685 0.0675042 0.684386
1162 2 0.483857 0.0532337 0.695887
864 4 0.0624348 0.0930384 0.729556
1077 4 0.0767718 0.0941084 0.717777
1107 4 0.0793444 0.105088 0.732128
851 4 0.0773681 0.111822 0.711575
862 2 0.0408448 0.0907501 0.741958
1284 4 0.15007 0.0917286 0.690391
850 2 0.0834724 0.131365 0.697223
852 4 0.0895767 0.150909 0.682871
1105 2 0.094668 0.106702 0.751819
909 4 0.169562 0.0901754 0.695049
907 2 0.18521 0.109647 0.693963
908 4 0.200858 0.129118 0.692878
1227 4 0.220117 0.130133 0.686023
1225 2 0.239991 0.115058 0.687727
887 4 0.299577 0.152068 0.672794
1226 4 0.259866 0.0999825 0.68943
829 2 0.316625 0.14928 0.710415
1005 4 0.316335 0.124239 0.730025
1003 2 0.31688 0.100228 0.736978
830 4 0.305905 0.157714 0.68946
831 4 0.327345 0.140846 0.73137
41 1 0.453147 0.0845613 0.670628
43 3 0.432925 0.0941866 0.676693
44 3 0.469633 0.0905237 0.685829
1177 2 0.0106755 0.245554 0.722874
1073 4 0.0625063 0.239058 0.750881
1072 2 0.0869792 0.240411 0.745939
1074 4 0.111452 0.241763 0.740996
1208 4 0.130055 0.244055 0.736261
1130 4 0.14804 0.248221 0.743675
978 4 0.309566 0.204576 0.722905
976 2 0.299175 0.211315 0.744625
1025 4 0.418133 0.178463 0.678796
1024 2 0.433478 0.182526 0.698115
1142 4 0.444931 0.178002 0.736032
1144 2 0.482156 0.168171 0.731375
1262 4 0.461195 0.200453 0.720818
1026 4 0.448823 0.186589 0.717433
1261 2 0.462697 0.225065 0.716674
1145 4 0.46166 0.181966 0.727529
1263 4 0.464199 0.249678 0.712531
1179 4 0.0282836 0.263295 0.722244
892 2 0.00740182 0.333966 0.746125
820 2 0.146527 0.298321 0.664013
1209 4 0.145768 0.270883 0.697094
1207 2 0.137912 0.257469 0.716677
821 4 0.143469 0.277608 0.677681
1019 4 0.371516 0.31399 0.701165
3262 2 0.0571718 0.355999 0.672481
3263 4 0.0649121 0.337056 0.686849
1279 2 0.0409587 0.382095 0.741743
1281 4 0.0420972 0.405758 0.733747
1065 4 0.191224 0.363953 0.666563
807 4 0.229054 0.338913 0.68366
1028 4 0.22417 0.378019 0.712953
1066 2 0.193547 0.372086 0.737132
1068 4 0.206985 0.385951 0.721247
1027 2 0.23612 0.396346 0.70085
1029 4 0.24807 0.414674 0.688747
806 4 0.277894 0.347455 0.677149
805 2 0.253474 0.343184 0.680404
1018 2 0.385017 0.331598 0.689639
1020 4 0.398519 0.349205 0.678113
1983 4 0.0530913 0.418565 0.745323
2016 4 0.168483 0.493941 0.722908
1175 4 0.201767 0.434511 0.724411
1174 2 0.187278 0.454691 0.727241
1176 4 0.172789 0.474871 0.730072
1140 4 0.242085 0.431634 0.694586
1138 2 0.260695 0.448326 0.6941
1139 4 0.279304 0.465019 0.693615
1987 2 0.289345 0.458577 0.739154
1229 4 0.29803 0.464951 0.697599
1989 4 0.297532 0.468878 0.717893
2028 4 0.288664 0.477512 0.704532
1228 2 0.312266 0.452696 0.681096
2026 2 0.28711 0.499177 0.692147
2991 4 0.000856977 0.0411461 0.794876
2989 2 0.00357433 0.0614824 0.780585
2990 4 0.00629168 0.0818186 0.766294
2049 4 0.115976 0.017151 0.795098
1202 4 0.107722 0.0334055 0.805495
2047 2 0.125436 0.999501 0.780126
1201 2 0.11646 0.0566434 0.802524
1203 4 0.125198 0.0798813 0.799554
817 2 0.34046 0.049773 0.824547
1085 4 0.318587 0.0754428 0.821554
819 4 0.333091 0.0722698 0.832595
1257 4 0.260489 0.0877662 0.764141
818 4 0.347829 0.0272763 0.816499
974 4 0.348246 0.0102049 0.804877
2322 4 0.493854 0.0507824 0.770662
1113 4 0.416241 0.0700171 0.751273
1111 2 0.440928 0.0683374 0.754866
845 4 0.482928 0.0691935 0.769199
1112 4 0.465615 0.0666577 0.75846
844 2 0.490733 0.0812004 0.789695
833 4 0.0120842 0.101235 0.766321
832 2 0.0193232 0.114216 0.786428
863 4 0.0192548 0.0884617 0.75436
1125 4 0.0447187 0.133479 0.808774
834 4 0.0265622 0.127196 0.806535
1106 4 0.109992 0.108317 0.771511
911 4 0.124536 0.109019 0.817998
34 3 0.123615 0.0945892 0.777245
31 1 0.134448 0.106204 0.794161
35 3 0.122137 0.124379 0.800225
32 3 0.136902 0.0923108 0.81233
33 3 0.155459 0.112919 0.786961
1255 2 0.248278 0.0960655 0.78432
1256 4 0.236067 0.104365 0.8045
840 4 0.235927 0.107054 0.825283
1084 2 0.298737 0.087833 0.812743
1086 4 0.278888 0.100223 0.803931
1023 4 0.402605 0.154859 0.81717
1021 2 0.37902 0.146611 0.818107
1022 4 0.355434 0.138362 0.819044
846 4 0.498538 0.0932073 0.810191
1129 2 0.161044 0.245103 0.764802
1277 4 0.189653 0.244901 0.797301
977 4 0.288783 0.218055 0.766345
918 4 0.28413 0.236473 0.767182
1298 4 0.27146 0.222069 0.77319
1297 2 0.279611 0.217447 0.796372
1299 4 0.287763 0.212826 0.819553
47 3 0.408161 0.173893 0.818629
48 3 0.401292 0.176784 0.78179
46 1 0.406064 0.188679 0.801133
1043 4 0.409299 0.215602 0.801257
49 3 0.388787 0.203443 0.805818
3372 4 0.499052 0.229928 0.828159
1143 4 0.421294 0.187781 0.779002
1141 2 0.433112 0.182891 0.757517
50 3 0.425591 0.200122 0.7986
1307 4 0.48113 0.239069 0.825034
1131 4 0.174047 0.241986 0.785929
1276 2 0.205545 0.260382 0.808832
1278 4 0.221437 0.275863 0.820364