ITEM: TIMESTEP
1340000
ITEM: NUMBER OF ATOMS
4590
ITEM: BOX BOUNDS pp pp pp
-9.9985700000000008e+00 9.9985700000000008e+00
-9.9985700000000008e+00 9.9985700000000008e+00
-9.9985700000000008e+00 9.9985700000000008e+00
ITEM: ATOMS id type xs ys zs
1666 2 0.0737006 0.068342 0.0696352
1668 4 0.0580234 0.0600551 0.0520076
297 4 0.348391 0.0702112 0.056721
295 2 0.355909 0.081737 0.0358449
486 4 0.377977 0.00834471 0.0674293
747 4 0.464473 0.0604888 0.00827049
2974 2 0.464367 0.0290931 0.0345239
2976 4 0.47426 0.0129838 0.0508887
2975 4 0.454475 0.0452024 0.0181592
745 2 0.451375 0.0816923 0.0102792
296 4 0.363427 0.0932627 0.0149687
358 2 0.353824 0.165794 0.0714218
557 4 0.379325 0.0854984 0.00965057
556 2 0.400334 0.0990548 0.00974879
769 2 0.390479 0.14759 0.0369319
770 4 0.385418 0.170762 0.0448446
771 4 0.39554 0.124417 0.0290192
827 4 0.362368 0.0872434 0.99712
558 4 0.421343 0.112611 0.00984701
746 4 0.438278 0.102896 0.0122879
566 4 0.143404 0.179357 0.0409131
565 2 0.165792 0.174701 0.0308001
567 4 0.18818 0.170045 0.0206872
359 4 0.364842 0.171692 0.0497651
664 2 0.389111 0.205367 0.0500366
665 4 0.374521 0.186311 0.0430229
666 4 0.403701 0.224422 0.0570502
555 4 0.0908311 0.280121 0.0405882
553 2 0.0807418 0.271161 0.0195384
286 2 0.14093 0.33696 0.0306739
287 4 0.151885 0.314588 0.0328388
293 4 0.149353 0.297715 0.0402006
292 2 0.158369 0.284075 0.0212834
507 4 0.158424 0.309366 0.0520799
505 2 0.175962 0.305262 0.0694219
506 4 0.193501 0.301158 0.0867639
481 2 0.228583 0.287732 0.069449
483 4 0.210353 0.293379 0.0856027
573 4 0.249136 0.296577 0.040453
482 4 0.246814 0.282086 0.0532952
571 2 0.256353 0.283243 0.0205713
322 2 0.396442 0.279579 0.0587929
1069 2 0.386167 0.302247 0.00925783
324 4 0.398427 0.288235 0.0354198
1070 4 0.406151 0.288435 0.0151773
741 4 0.351737 0.320884 0.0344681
957 4 0.353018 0.325513 0.0153077
955 2 0.336012 0.323768 0.997062
1071 4 0.366183 0.31606 0.00333841
671 4 0.46571 0.313161 0.0581777
280 2 0.44595 0.294507 0.0294597
281 4 0.466572 0.300727 0.0421586
282 4 0.425329 0.288287 0.0167607
670 2 0.450579 0.32694 0.0725423
288 4 0.129976 0.359332 0.0285089
454 2 0.150404 0.370797 0.0783661
552 4 0.106911 0.366348 0.0760866
456 4 0.175244 0.36802 0.0790403
250 2 0.277035 0.404381 0.0305555
251 4 0.258235 0.392531 0.0190969
252 4 0.295836 0.416231 0.0420141
739 2 0.363823 0.327722 0.0552613
740 4 0.375909 0.33456 0.0760544
495 4 0.394449 0.367149 0.0638526
493 2 0.389609 0.39078 0.0704332
14 3 0.388319 0.353678 0.0742053
4210 2 0.0340528 0.501515 0.98444
245 4 0.23507 0.433869 0.0402561
626 4 0.227145 0.445735 0.053285
625 2 0.206747 0.45389 0.0652272
244 2 0.242356 0.450065 0.0226549
1778 4 0.231396 0.484986 0.0344697
609 4 0.293184 0.416994 0.061322
246 4 0.249642 0.46626 0.00505356
272 4 0.269373 0.462617 0.00576969
607 2 0.315064 0.424348 0.070932
494 4 0.384769 0.414412 0.0770137
1672 2 0.390024 0.500423 0.0328969
1673 4 0.36932 0.514222 0.0353655
563 4 0.469931 0.465046 0.0488305
228 4 0.486748 0.455819 0.0505092
562 2 0.446938 0.468061 0.0394798
564 4 0.423946 0.471076 0.0301292
854 4 0.418256 0.464145 0.0116726
1674 4 0.410728 0.486623 0.0304282
19 3 0.0558815 0.0777685 0.16387
18 3 0.0699698 0.0571932 0.135189
16 1 0.0654368 0.0574712 0.157944
1667 4 0.0893778 0.0766288 0.0872627
701 4 0.0962758 0.0709853 0.10507
17 3 0.0505965 0.0405727 0.162777
1475 4 0.273012 0.0116585 0.0820233
492 4 0.269533 0.0301814 0.0907804
491 4 0.291713 0.0500418 0.13096
490 2 0.280623 0.0401116 0.11087
484 2 0.382875 0.99728 0.0893096
2723 4 0.442696 0.0482012 0.143179
2722 2 0.465296 0.0413308 0.151379
2724 4 0.487895 0.0344604 0.159579
700 2 0.0965194 0.0896639 0.12169
476 4 0.101221 0.107384 0.157908
702 4 0.0967629 0.108342 0.13831
360 4 0.342807 0.159897 0.0930785
581 4 0.288756 0.121505 0.154642
580 2 0.267326 0.131802 0.162382
628 2 0.391951 0.139658 0.13625
630 4 0.394074 0.162662 0.126685
312 4 0.40101 0.110906 0.159873
629 4 0.389828 0.116654 0.145814
337 2 0.0809399 0.236582 0.158311
2625 4 2.35727e-05 0.18068 0.129682
339 4 0.074669 0.218434 0.142296
737 4 0.209949 0.207045 0.120549
736 2 0.213704 0.225686 0.104314
738 4 0.217458 0.244327 0.0880789
461 4 0.300892 0.228858 0.111103
460 2 0.325817 0.226883 0.11119
354 4 0.280161 0.234203 0.113818
352 2 0.276357 0.239653 0.137922
353 4 0.272554 0.245104 0.162026
462 4 0.350743 0.224908 0.111277
254 4 0.375497 0.167185 0.120063
255 4 0.363015 0.215417 0.124372
253 2 0.369256 0.191301 0.122218
765 4 0.366386 0.23004 0.138596
624 4 0.365413 0.233676 0.119954
763 2 0.354927 0.233495 0.160549
622 2 0.382781 0.243402 0.104823
648 4 0.0628561 0.328392 0.147683
537 4 0.182631 0.312416 0.0998152
536 4 0.205585 0.343715 0.131346
535 2 0.194108 0.328065 0.11558
755 4 0.269387 0.263316 0.165947
387 4 0.328245 0.322936 0.125514
302 4 0.340347 0.331066 0.139975
301 2 0.328282 0.329422 0.161813
323 4 0.394457 0.270922 0.0821661
623 4 0.400148 0.253127 0.089691
385 2 0.346883 0.325329 0.109019
15 3 0.382743 0.322419 0.0944389
386 4 0.365521 0.327722 0.0925246
528 4 0.470187 0.279851 0.105694
518 4 0.485674 0.268943 0.0967487
526 2 0.471028 0.267399 0.127361
527 4 0.471868 0.254947 0.149027
104 3 0.486706 0.346327 0.130543
551 4 0.0888188 0.356964 0.121752
455 4 0.125564 0.373574 0.0776919
550 2 0.0978649 0.361656 0.0989193
12 3 0.417188 0.336344 0.0909014
11 1 0.394888 0.341623 0.0929109
13 3 0.391903 0.354421 0.112034
672 4 0.435447 0.34072 0.086907
1791 4 0.0540764 0.471299 0.14119
1466 4 0.0432624 0.473314 0.15819
1789 2 0.0539927 0.492718 0.128291
417 4 0.163819 0.456621 0.128601
627 4 0.18635 0.462045 0.0771695
291 4 0.216883 0.417563 0.139505
416 4 0.204748 0.427917 0.127319
415 2 0.184283 0.442269 0.12796
289 2 0.237737 0.426182 0.150276
768 4 0.274199 0.447123 0.162431
290 4 0.258591 0.434801 0.161046
608 4 0.336944 0.431701 0.080542
767 4 0.274179 0.4971 0.160694
766 2 0.274189 0.472112 0.161563
525 4 0.386111 0.481768 0.134599
658 2 0.363092 0.43581 0.0922703
659 4 0.339208 0.440403 0.0980687
660 4 0.386977 0.431218 0.0864719
523 2 0.367755 0.498075 0.129872
524 4 0.349399 0.514381 0.125145
20 3 0.0846427 0.0541875 0.169734
2480 4 0.0341604 0.0370369 0.17552
1422 4 0.0283368 0.0191446 0.172025
2479 2 0.0165364 0.0519249 0.185159
675 4 0.0980171 0.0142825 0.239158
674 4 0.142168 0.0276904 0.21988
673 2 0.120092 0.0209864 0.229519
689 4 0.153667 0.0125194 0.227203
578 4 0.116225 0.0480477 0.208522
577 2 0.122362 0.0705056 0.199403
450 4 0.170431 0.0586413 0.186663
448 2 0.177493 0.0805981 0.177009
1506 4 0.244238 0.0306354 0.182366
1504 2 0.22824 0.0117699 0.186015
688 2 0.172849 0.998698 0.219067
654 4 0.259091 0.0221553 0.193168
652 2 0.281037 0.0292894 0.183541
653 4 0.302983 0.0364236 0.173915
24 3 0.312026 0.0733464 0.245887
25 3 0.33822 0.0476766 0.237369
311 4 0.386615 0.064896 0.173162
758 4 0.383719 0.054513 0.189677
759 4 0.350857 0.064636 0.225985
757 2 0.367288 0.0595745 0.207831
381 4 0.995015 0.133554 0.210498
512 4 0.00712358 0.144953 0.222686
511 2 0.0306713 0.152983 0.225177
475 2 0.10209 0.125945 0.174639
477 4 0.102958 0.144505 0.19137
579 4 0.1285 0.0929636 0.190285
449 4 0.184555 0.102555 0.167355
237 4 0.232363 0.135538 0.182069
691 2 0.22173 0.114082 0.23849
693 4 0.212783 0.120083 0.215927
236 4 0.186819 0.114969 0.183908
235 2 0.209591 0.125254 0.182988
582 4 0.245896 0.142099 0.170121
22 3 0.347001 0.0839496 0.237115
310 2 0.393812 0.0879009 0.166518
28 3 0.327777 0.140576 0.247112
762 4 0.485351 0.153645 0.252116
521 4 0.486562 0.160471 0.234284
332 4 0.486611 0.141339 0.235664
760 2 0.461923 0.161739 0.255405
333 4 0.491297 0.0930992 0.247981
331 2 0.488954 0.117219 0.241822
513 4 0.0542191 0.161013 0.227667
393 4 0.0585365 0.154738 0.245168
394 2 0.00828744 0.234442 0.225092
395 4 0.0251263 0.232626 0.206698
546 4 0.155235 0.20206 0.252485
277 2 0.240901 0.237921 0.180025
279 4 0.21831 0.227319 0.181577
284 4 0.281284 0.237646 0.176722
283 2 0.304422 0.232956 0.184955
285 4 0.327561 0.228265 0.193189
27 3 0.32823 0.177206 0.238704
278 4 0.263493 0.248523 0.178473
764 4 0.343469 0.23695 0.182503
338 4 0.0872108 0.254731 0.174326
646 2 0.0629673 0.327437 0.172668
363 4 0.0856294 0.274214 0.171217
749 4 0.0845122 0.294112 0.224566
361 2 0.0939097 0.283945 0.192709
370 2 0.144403 0.296853 0.219388
372 4 0.120805 0.290017 0.22403
362 4 0.10219 0.293677 0.214201
748 2 0.0895336 0.305462 0.246272
371 4 0.168002 0.303689 0.214746
754 2 0.273774 0.284992 0.177613
756 4 0.278162 0.306668 0.189278
612 4 0.2682 0.309744 0.206847
610 2 0.266529 0.313693 0.23148
307 2 0.315779 0.290482 0.219153
308 4 0.319345 0.294736 0.194773
611 4 0.264859 0.317641 0.256113
647 4 0.0630786 0.326482 0.197653
734 4 0.163319 0.361328 0.250938
303 4 0.316216 0.327777 0.183651
729 4 0.309048 0.345065 0.189662
727 2 0.304712 0.364952 0.204184
728 4 0.300377 0.384839 0.218706
447 4 0.409846 0.376885 0.237404
445 2 0.397702 0.39539 0.249036
596 4 0.505718 0.404367 0.157123
644 4 0.42854 0.386174 0.233998
595 2 0.488687 0.395086 0.172902
597 4 0.471657 0.385804 0.188682
643 2 0.441586 0.380717 0.213377
645 4 0.454632 0.37526 0.192757
264 4 0.0153 0.413913 0.214078
1465 2 0.0323875 0.480096 0.179658
1467 4 0.0215126 0.486879 0.201127
1758 4 0.0995029 0.4859 0.233727
1756 2 0.111479 0.464345 0.237868
1757 4 0.123454 0.44279 0.242008
1775 4 0.0804671 0.493117 0.235541
231 4 0.459935 0.478449 0.201608
229 2 0.450244 0.498264 0.189833
232 2 0.0221184 0.0427659 0.303129
233 4 0.0457234 0.0441399 0.294999
1404 4 0.0598159 0.030216 0.292224
1402 2 0.0747902 0.0217038 0.2741
316 2 0.0702442 0.0578523 0.322447
317 4 0.0586272 0.0404877 0.30871
428 4 0.0584614 0.0216488 0.31072
1403 4 0.0897646 0.0131916 0.255976
21 1 0.334474 0.0677101 0.247532
23 3 0.34074 0.0665633 0.269844
699 4 0.353589 0.0693928 0.332335
351 4 0.422891 0.0665122 0.269487
1426 2 0.461582 0.99599 0.327998
479 4 0.449556 0.0250201 0.309269
478 2 0.436381 0.0357882 0.290949
2664 4 0.467284 0.0277529 0.304164
480 4 0.423205 0.0465563 0.272629
1428 4 0.460078 0.0199887 0.321143
258 4 0.445622 0.0276065 0.330434
2662 2 0.489826 0.0319326 0.294185
391 2 0.081887 0.156868 0.253851
392 4 0.105237 0.158998 0.262535
692 4 0.230678 0.10808 0.261053
723 4 0.248204 0.10297 0.2678
721 2 0.24386 0.111941 0.290731
722 4 0.239517 0.120912 0.313663
403 2 0.259649 0.155735 0.33471
30 3 0.307503 0.165075 0.267272
26 1 0.32702 0.162021 0.25594
632 4 0.38189 0.106211 0.256977
350 4 0.400256 0.1063 0.249355
631 2 0.365836 0.125252 0.259197
707 4 0.358637 0.154864 0.275984
633 4 0.349783 0.144292 0.261417
706 2 0.361557 0.16072 0.300116
29 3 0.345042 0.165371 0.270167
708 4 0.364476 0.166576 0.324248
349 2 0.411574 0.0864059 0.259421
388 2 0.111193 0.238425 0.317672
389 4 0.108484 0.219093 0.302048
544 2 0.172052 0.204551 0.27082
545 4 0.18887 0.207042 0.289154
402 4 0.181545 0.224528 0.294722
400 2 0.189674 0.247418 0.300653
405 4 0.260556 0.180632 0.336829
473 4 0.261791 0.200339 0.337017
717 4 0.4166 0.17766 0.33348
761 4 0.438496 0.169834 0.258694
419 4 0.461616 0.248427 0.335952
390 4 0.113902 0.257757 0.333297
750 4 0.0945549 0.316812 0.267978
401 4 0.197802 0.270307 0.306584
676 2 0.181755 0.31539 0.313467
345 4 0.208969 0.326882 0.286215
677 4 0.192604 0.327166 0.294263
343 2 0.233032 0.32497 0.279694
344 4 0.257094 0.323057 0.273173
496 2 0.284713 0.28898 0.276524
497 4 0.265518 0.285511 0.292167
377 4 0.272201 0.282678 0.310483
498 4 0.303908 0.29245 0.260882
309 4 0.312213 0.286228 0.243532
420 4 0.426762 0.284286 0.335762
418 2 0.444189 0.266357 0.335857
365 4 0.034522 0.362337 0.287942
601 2 0.067656 0.371243 0.311214
603 4 0.0523762 0.358812 0.295813
602 4 0.0829359 0.383673 0.326615
364 2 0.0136951 0.368627 0.300265
299 4 0.143662 0.362413 0.253692
300 4 0.104403 0.33251 0.261771
298 2 0.124033 0.347462 0.257731
735 4 0.193926 0.329412 0.274289
733 2 0.178622 0.34537 0.262613
433 2 0.309846 0.375603 0.318778
435 4 0.286764 0.383385 0.32442
434 4 0.332928 0.36782 0.313136
614 4 0.335168 0.350119 0.320477
613 2 0.356577 0.338312 0.325712
446 4 0.385559 0.413894 0.260667
777 4 0.134976 0.483645 0.281052
775 2 0.128809 0.482865 0.305271
776 4 0.122642 0.482085 0.329489
1435 2 0.233194 0.457206 0.316164
1436 4 0.239962 0.466117 0.293804
1437 4 0.226426 0.448294 0.338524
413 4 0.246066 0.484529 0.286303
437 4 0.374066 0.474089 0.311095
1803 4 0.362977 0.503856 0.252591
119 3 0.493373 0.454271 0.316277
118 3 0.504402 0.42343 0.335554
318 4 0.0818611 0.0752169 0.336184
732 4 0.0961662 0.0773372 0.351485
730 2 0.117715 0.0665444 0.358145
731 4 0.139263 0.0557515 0.364805
606 4 0.148138 0.072084 0.356094
1701 4 0.318724 0.0121606 0.379869
1699 2 0.311256 0.0200568 0.357351
1700 4 0.303788 0.0279529 0.334833
425 4 0.327116 0.0185092 0.397669
441 4 0.310113 0.0166038 0.410271
697 2 0.37376 0.0562565 0.339099
698 4 0.393931 0.0431202 0.345863
426 4 0.377043 0.0204329 0.395584
424 2 0.35208 0.0194711 0.396627
257 4 0.409312 0.0454586 0.359821
726 4 0.436986 0.0707638 0.398746
256 2 0.427467 0.0365325 0.345128
399 4 0.0788403 0.0841126 0.352402
397 2 0.0714121 0.107779 0.355547
398 4 0.0639839 0.131446 0.358692
2586 4 0.0252005 0.14435 0.373597
458 4 0.0346066 0.159081 0.383017
457 2 0.048225 0.155349 0.403652
598 2 0.13644 0.158524 0.362452
600 4 0.119558 0.142622 0.353109
249 4 0.23966 0.129636 0.332039
604 2 0.171857 0.0799501 0.356922
605 4 0.195577 0.0878162 0.35775
248 4 0.214716 0.0933938 0.355809
247 2 0.227188 0.111515 0.343924
404 4 0.258743 0.130838 0.332591
683 4 0.247592 0.0960477 0.378824
682 2 0.264574 0.108248 0.392534
319 2 0.311686 0.137677 0.415108
684 4 0.281555 0.120447 0.406244
321 4 0.331799 0.150241 0.407184
725 4 0.405976 0.108547 0.409306
724 2 0.421481 0.0896554 0.404026
599 4 0.153322 0.174426 0.371796
686 4 0.148456 0.185821 0.3884
685 2 0.133101 0.190776 0.407501
275 4 0.167893 0.177631 0.35754
472 2 0.241319 0.206463 0.350001
474 4 0.220848 0.212588 0.362985
276 4 0.20604 0.209378 0.351405
274 2 0.186966 0.193504 0.354473
715 2 0.411604 0.189578 0.354885
466 2 0.383537 0.197521 0.401657
716 4 0.406608 0.201496 0.37629
467 4 0.386327 0.200804 0.377027
487 2 0.335674 0.250027 0.418059
270 4 0.468361 0.204752 0.375079
452 4 0.477755 0.210185 0.392648
451 2 0.466261 0.203024 0.413666
268 2 0.466614 0.216978 0.353339
269 4 0.464866 0.229205 0.331599
618 4 0.0659504 0.327271 0.384376
616 2 0.0864343 0.316674 0.374717
617 4 0.106918 0.306077 0.365058
374 4 0.121158 0.290922 0.363945
373 2 0.141134 0.302802 0.354728
375 4 0.161111 0.314683 0.345511
678 4 0.170905 0.303614 0.332671
509 4 0.254862 0.30381 0.381771
376 2 0.268981 0.269274 0.331343
378 4 0.265761 0.255871 0.352204
508 2 0.258803 0.318887 0.362217
615 4 0.377987 0.326505 0.330947
541 2 0.406955 0.312536 0.346713
543 4 0.3842 0.322535 0.349431
488 4 0.327934 0.263513 0.398479
542 4 0.429711 0.302537 0.343996
347 4 0.0486635 0.331497 0.393195
346 2 0.0395558 0.354725 0.391558
348 4 0.0304482 0.377953 0.389921
549 4 0.0859108 0.400473 0.339414
510 4 0.262745 0.333964 0.342664
668 4 0.331579 0.384105 0.40769
667 2 0.321794 0.401229 0.423058
336 4 0.341586 0.370618 0.397141
753 4 0.495923 0.433301 0.354766
751 2 0.495808 0.418658 0.375033
752 4 0.495694 0.404015 0.3953
547 2 0.0957054 0.422644 0.345554
407 4 0.109599 0.453525 0.369205
548 4 0.1055 0.444815 0.351695
406 2 0.118282 0.455915 0.392531
408 4 0.126965 0.458304 0.415856
1544 4 0.209858 0.501009 0.41176
3 3 0.317031 0.452356 0.333552
5 3 0.284514 0.470698 0.338438
1 1 0.305471 0.467525 0.346769
4 3 0.304219 0.45969 0.368573
438 4 0.328615 0.477349 0.331692
2 3 0.316765 0.487565 0.346704
436 2 0.351341 0.475719 0.321394
593 4 0.413973 0.468785 0.391633
586 2 0.414161 0.444973 0.423828
588 4 0.403838 0.46219 0.408923
592 2 0.421234 0.480984 0.37105
714 4 0.485796 0.463766 0.33498
712 2 0.464447 0.476624 0.336996
117 3 0.497752 0.455734 0.353577
594 4 0.428494 0.493182 0.350467
369 4 0.0489298 0.0188376 0.413975
718 2 0.0163698 0.0109012 0.4306
719 4 0.0291509 0.0146877 0.409446
962 4 0.303439 0.0214617 0.426419
961 2 0.312499 0.0350336 0.445364
963 4 0.321558 0.0486056 0.464309
432 4 0.317888 0.0564574 0.482902
459 4 0.0618433 0.151616 0.424286
320 4 0.291573 0.125113 0.423032
640 2 0.486345 0.124242 0.466057
641 4 0.468178 0.125419 0.483196
260 4 0.0682008 0.160779 0.440396
687 4 0.117747 0.195731 0.426602
259 2 0.0837543 0.180186 0.437822
261 4 0.0993077 0.199593 0.435248
1035 4 0.115375 0.208483 0.440611
1033 2 0.118128 0.224985 0.459193
1034 4 0.120881 0.241487 0.477775
489 4 0.343415 0.236541 0.437639
468 4 0.380746 0.194237 0.426286
514 2 0.412572 0.188842 0.446528
411 4 0.340019 0.225611 0.454029
516 4 0.389806 0.182979 0.455044
409 2 0.357069 0.207772 0.449997
410 4 0.374119 0.189934 0.445965
575 4 0.380754 0.179872 0.472952
266 4 0.400992 0.265433 0.476958
574 2 0.388239 0.17539 0.496383
515 4 0.435338 0.194704 0.438013
453 4 0.454766 0.195864 0.434685
583 2 0.486973 0.246967 0.475188
585 4 0.491781 0.232845 0.455122
694 2 0.0679934 0.254918 0.49064
695 4 0.0441805 0.250846 0.497086
1258 2 0.121407 0.282051 0.481014
1259 4 0.131141 0.304765 0.484821
9 3 0.136616 0.324761 0.48923
696 4 0.0918063 0.258991 0.484195
1260 4 0.111673 0.259336 0.477207
267 4 0.372923 0.306777 0.475093
265 2 0.386957 0.286105 0.476025
584 4 0.482165 0.261089 0.495254
2847 4 0.0186709 0.324958 0.470363
2845 2 0.000247569 0.341344 0.466207
326 4 0.0527074 0.364882 0.452437
325 2 0.0758239 0.36459 0.461962
711 4 0.136405 0.413733 0.460198
10 3 0.142468 0.345314 0.458231
6 1 0.134426 0.345727 0.479534
7 3 0.112146 0.351435 0.479112
327 4 0.0989403 0.364298 0.471486
709 2 0.155011 0.399924 0.469598
8 3 0.145971 0.361489 0.492051
503 4 0.220903 0.3593 0.440405
504 4 0.190548 0.38655 0.469331
502 2 0.205725 0.372925 0.454868
710 4 0.173616 0.386116 0.478998
882 4 0.373536 0.396965 0.480745
335 4 0.377515 0.351491 0.426192
334 2 0.359551 0.361054 0.411666
238 2 0.398583 0.390707 0.435339
240 4 0.384501 0.370378 0.431648
239 4 0.412665 0.411035 0.439029
3307 2 0.499506 0.402255 0.48601
3308 4 0.492272 0.38685 0.504328
1381 2 0.00673468 0.494224 0.466046
1383 4 0.997953 0.472925 0.456329
680 4 0.000967681 0.4559 0.445513
569 4 0.12259 0.469746 0.433513
382 2 0.115287 0.435277 0.444393
384 4 0.117018 0.416228 0.460496
568 2 0.135686 0.491029 0.434366
383 4 0.113557 0.454326 0.428289
1556 4 0.22324 0.488973 0.418317
1555 2 0.244744 0.488722 0.431072
1557 4 0.266249 0.488471 0.443827
636 4 0.280966 0.488013 0.429588
635 4 0.316428 0.452762 0.428907
669 4 0.312009 0.418353 0.438427
773 4 0.300337 0.429617 0.490572
774 4 0.314086 0.437419 0.443129
634 2 0.298697 0.470388 0.429247
772 2 0.307212 0.433518 0.46685
663 4 0.437115 0.470363 0.453704
661 2 0.454706 0.484689 0.464215
587 4 0.424485 0.427756 0.438733
342 4 0.209404 0.0690906 0.516853
340 2 0.215406 0.044909 0.514755
341 4 0.221409 0.0207275 0.512657
1032 4 0.229282 0.0889025 0.593637
1151 4 0.211578 0.0891966 0.581196
2430 4 0.207116 0.00995095 0.504339
430 2 0.326021 0.0672008 0.503964
431 4 0.334154 0.0779442 0.525026
1217 4 0.400725 0.0814163 0.522328
1216 2 0.413943 0.067169 0.506597
1218 4 0.427161 0.0529217 0.490866
3007 2 0.492539 0.0485421 0.56852
3009 4 0.503572 0.05506 0.547049
1128 4 0.00520749 0.100115 0.585072
1058 4 0.118943 0.118569 0.525031
1057 2 0.116502 0.11922 0.549906
1059 4 0.11406 0.119871 0.574782
1152 4 0.204586 0.0693737 0.535821
1150 2 0.208082 0.0792852 0.558508
1181 4 0.23347 0.141805 0.572437
1180 2 0.244536 0.1399 0.550097
843 4 0.344088 0.0954783 0.524876
1182 4 0.255602 0.137995 0.527757
900 4 0.267264 0.15321 0.522243
841 2 0.368344 0.0937775 0.530703
842 4 0.392599 0.0920767 0.53653
1199 4 0.0281825 0.210829 0.567028
1198 2 0.0044658 0.218693 0.566111
878 4 0.0393533 0.222082 0.578241
877 2 0.0595916 0.214506 0.590819
1244 4 0.0392215 0.241676 0.567255
1271 4 0.12097 0.166619 0.566827
1270 2 0.107038 0.18411 0.578015
857 4 0.2211 0.258383 0.523685
898 2 0.283379 0.172066 0.525403
650 4 0.289229 0.20375 0.541361
899 4 0.299493 0.190921 0.528562
649 2 0.29561 0.225985 0.531872
576 4 0.395725 0.170908 0.519815
1243 2 0.0393165 0.264423 0.577635
982 2 0.0278559 0.32352 0.564289
796 2 0.233669 0.249765 0.566307
858 4 0.173844 0.246477 0.512468
856 2 0.197472 0.25243 0.518076
947 4 0.194598 0.255944 0.568626
946 2 0.182001 0.271787 0.583306
798 4 0.209649 0.243827 0.562704
797 4 0.257688 0.255703 0.569911
792 4 0.311704 0.295867 0.584621
651 4 0.301991 0.248221 0.522382
872 4 0.386518 0.250764 0.5379
871 2 0.38579 0.273531 0.54821
873 4 0.385062 0.296299 0.558519
813 4 0.385417 0.315986 0.559531
906 4 0.489317 0.303954 0.55754
953 4 0.470442 0.306033 0.566596
952 2 0.454819 0.299588 0.585023
954 4 0.439196 0.293143 0.60345
1010 4 0.505689 0.321528 0.516024
984 4 0.0213833 0.344163 0.551754
1190 4 0.248949 0.356526 0.574015
803 4 0.259702 0.351547 0.557681
804 4 0.279574 0.340054 0.513254
1237 2 0.322563 0.333917 0.580854
802 2 0.269638 0.345801 0.535467
930 4 0.329795 0.368829 0.570442
1239 4 0.324731 0.357888 0.587627
811 2 0.398981 0.3369 0.557588
812 4 0.412546 0.357814 0.555645
927 4 0.429402 0.366212 0.56133
929 4 0.348358 0.406765 0.543665
928 2 0.339076 0.387797 0.557053
881 4 0.355807 0.397855 0.527496
880 2 0.364672 0.39741 0.50412
926 4 0.435417 0.41176 0.581078
925 2 0.43241 0.388986 0.571204
538 2 0.074657 0.453975 0.568806
539 4 0.0629885 0.432207 0.572702
540 4 0.0863255 0.475743 0.56491
1160 4 0.118881 0.486366 0.552902
1159 2 0.128338 0.467122 0.565763
1161 4 0.137796 0.447878 0.578624
2244 4 0.0999726 0.489385 0.558292
891 4 0.300682 0.434989 0.583546
889 2 0.323271 0.444859 0.587726
1953 4 0.395645 0.489678 0.563656
1951 2 0.373915 0.479702 0.570968
1000 2 0.442487 0.446537 0.581925
1002 4 0.444508 0.425027 0.56934
2114 4 0.00381778 0.00955743 0.611202
4338 4 0.0235538 0.00494992 0.616692
1082 4 0.0574247 0.0696142 0.658827
1083 4 0.0660106 0.0862953 0.612473
1081 2 0.0617177 0.0779547 0.63565
823 2 0.153612 0.0305977 0.653606
825 4 0.140081 0.0478196 0.665668
1283 4 0.133335 0.066145 0.670678
2133 4 0.181506 0.00153027 0.647899
824 4 0.167144 0.0133758 0.641544
1030 2 0.24932 0.0743366 0.59703
1031 4 0.269357 0.0597707 0.600424
951 4 0.279707 0.0512758 0.616306
949 2 0.302946 0.0423625 0.613916
950 4 0.326184 0.0334493 0.611527
2283 4 0.398498 0.0158247 0.631068
809 4 0.476044 0.0476729 0.607768
808 2 0.470469 0.0558064 0.630745
810 4 0.464895 0.0639398 0.653723
42 3 0.462833 0.0545465 0.673249
41 1 0.457708 0.076946 0.674318
3008 4 0.481505 0.0420242 0.58999
938 4 0.0736653 0.104458 0.61657
1126 2 0.0286849 0.0946393 0.591705
1127 4 0.0521623 0.0891634 0.598339
939 4 0.116442 0.111454 0.591631
937 2 0.0950536 0.107956 0.604101
1155 4 0.130675 0.123493 0.58734
1153 2 0.146845 0.142312 0.590428
1154 4 0.163016 0.161131 0.593516
1221 4 0.171153 0.159198 0.610157
887 4 0.322902 0.160164 0.67059
45 3 0.460786 0.0863333 0.653799
3425 4 0.47499 0.0964737 0.669769
3424 2 0.494218 0.112008 0.666007
879 4 0.07983 0.206931 0.603397
1272 4 0.0931062 0.2016 0.589203
1212 4 0.210034 0.183464 0.645115
1219 2 0.182121 0.175953 0.625129
1220 4 0.193089 0.192708 0.640101
1210 2 0.234421 0.179011 0.648372
888 4 0.274801 0.170879 0.662093
886 2 0.298851 0.165521 0.666341
1194 4 0.334639 0.16513 0.65385
1211 4 0.258809 0.174558 0.651628
1193 4 0.384302 0.169727 0.657476
1192 2 0.359471 0.167428 0.655663
1245 4 0.0394115 0.287169 0.588016
983 4 0.0343285 0.302877 0.576825
1136 4 0.165351 0.291327 0.617749
1135 2 0.156097 0.312218 0.607594
948 4 0.169403 0.287629 0.597986
1137 4 0.146843 0.333108 0.59744
1238 4 0.320395 0.309946 0.574082
791 4 0.272344 0.265153 0.581756
790 2 0.292024 0.28051 0.583188
807 4 0.291631 0.326108 0.674979
805 2 0.313089 0.322433 0.662682
806 4 0.334548 0.318757 0.650385
3123 4 0.493551 0.268491 0.638472
1039 2 0.0587498 0.375464 0.606648
1041 4 0.0425063 0.37572 0.625655
3264 4 0.0265714 0.38186 0.63743
3262 2 0.0303999 0.361507 0.65144
3240 4 0.0213819 0.400443 0.645464
993 4 0.0888954 0.359464 0.591526
1040 4 0.0749933 0.375209 0.587641
897 4 0.146621 0.353236 0.60187
991 2 0.112776 0.352314 0.589584
992 4 0.136657 0.345164 0.587643
895 2 0.168516 0.365309 0.602057
1189 2 0.228867 0.365161 0.586153
1172 4 0.216826 0.391265 0.605766
1191 4 0.208786 0.373796 0.598292
896 4 0.190411 0.377382 0.602244
1206 4 0.387907 0.401833 0.650084
3238 2 0.00523916 0.41824 0.65238
1188 4 0.147469 0.449515 0.596446
1171 2 0.20774 0.41343 0.612932
1186 2 0.17108 0.451722 0.604372
1173 4 0.198653 0.435594 0.620098
1187 4 0.194692 0.453929 0.612298
1139 4 0.242516 0.470987 0.648377
1230 4 0.354664 0.438483 0.655391
890 4 0.345861 0.454729 0.591906
1204 2 0.39504 0.425268 0.655094
1952 4 0.352185 0.469726 0.578281
1205 4 0.402173 0.448703 0.660105
1001 4 0.440467 0.468048 0.59451
1911 4 0.441261 0.481495 0.581343
1269 4 0.449939 0.485722 0.597597
1267 2 0.452973 0.490237 0.622001
945 4 0.0719933 0.0054253 0.680865
943 2 0.0618531 0.0280636 0.684005
944 4 0.0517128 0.050702 0.687145
1076 4 0.0573524 0.0674333 0.678642
1282 2 0.128436 0.0835465 0.687951
1147 2 0.234748 0.0364957 0.720769
1148 4 0.217373 0.0486376 0.707507
1226 4 0.223582 0.0658095 0.701755
1149 4 0.252123 0.0243537 0.73403
1092 4 0.34922 0.0104424 0.699525
1004 4 0.403483 0.0924578 0.709328
43 3 0.435563 0.0792704 0.680847
1163 4 0.47661 0.0656992 0.685918
1162 2 0.493173 0.0550705 0.701342
2320 2 0.501341 0.0352243 0.751538
864 4 0.0618036 0.0973467 0.733175
1075 2 0.0622662 0.083826 0.696871
1077 4 0.06718 0.100219 0.715101
1107 4 0.0807536 0.104153 0.727187
851 4 0.0806563 0.116694 0.713683
850 2 0.0811049 0.133629 0.695293
862 2 0.0398284 0.0953155 0.744929
852 4 0.0815535 0.150564 0.676903
1105 2 0.0921025 0.11379 0.747275
1284 4 0.123538 0.100948 0.705225
909 4 0.152431 0.120729 0.744212
907 2 0.174555 0.121601 0.732597
908 4 0.19668 0.122473 0.720981
1227 4 0.204812 0.112007 0.705529
1225 2 0.214197 0.0889081 0.703642
829 2 0.339544 0.134515 0.702823
830 4 0.333672 0.149893 0.684002
831 4 0.345417 0.119138 0.721644
1003 2 0.379276 0.0974983 0.713043
1005 4 0.35507 0.102539 0.716759
44 3 0.47165 0.0870984 0.689841
1178 4 0.0045118 0.241235 0.717641
1072 2 0.0911108 0.219295 0.723825
1074 4 0.090835 0.2432 0.716501
1073 4 0.0913867 0.19539 0.731149
1144 2 0.489961 0.170482 0.742308
1025 4 0.441978 0.17207 0.678498
1262 4 0.466423 0.1981 0.732228
1142 4 0.447954 0.170355 0.7347
1024 2 0.448754 0.178444 0.701707
1026 4 0.455529 0.184818 0.724915
1261 2 0.464474 0.222627 0.736681
1145 4 0.467153 0.178397 0.735804
1177 2 0.0179065 0.250987 0.698915
1179 4 0.0313012 0.260739 0.680189
1209 4 0.133735 0.289909 0.73213
1207 2 0.113351 0.275692 0.729382
1208 4 0.0929674 0.261474 0.726635
821 4 0.133956 0.299799 0.713597
820 2 0.149069 0.302679 0.693887
822 4 0.164181 0.305558 0.674177
1063 2 0.20921 0.313169 0.679017
1064 4 0.184319 0.313237 0.676643
1065 4 0.2341 0.313102 0.68139
3263 4 0.0342285 0.341154 0.665451
892 2 0.0238401 0.349225 0.739179
894 4 0.0433098 0.342503 0.725004
1280 4 0.054398 0.355829 0.715255
1279 2 0.0554608 0.379317 0.70675
816 4 0.0728618 0.347918 0.716759
1281 4 0.0565235 0.402806 0.698244
814 2 0.0918722 0.347206 0.732985
942 4 0.12076 0.341771 0.765872
815 4 0.110883 0.346493 0.749211
1028 4 0.236749 0.390662 0.736767
1066 2 0.199287 0.373467 0.743793
1068 4 0.222703 0.375584 0.735283
1027 2 0.238185 0.405579 0.716752
1018 2 0.393966 0.391851 0.75016
1019 4 0.372333 0.382673 0.741619
1983 4 0.0601848 0.407673 0.716973
1981 2 0.0621381 0.431256 0.725047
1982 4 0.0640913 0.454839 0.733122
1140 4 0.241018 0.433459 0.681395
2016 4 0.168637 0.494021 0.728915
1138 2 0.241767 0.452223 0.664886
1029 4 0.239622 0.420497 0.696737
1987 2 0.328591 0.48407 0.725157
1988 4 0.315813 0.497267 0.742119
1989 4 0.341369 0.470872 0.708194
1228 2 0.351732 0.456637 0.672332
1229 4 0.3488 0.474791 0.689273
2991 4 0.0239127 0.0402576 0.795538
2989 2 0.0171354 0.0612895 0.783838
2990 4 0.010358 0.0823214 0.772137
2048 4 0.145471 0.997963 0.759124
2049 4 0.134312 0.0393229 0.784923
1202 4 0.119705 0.0437946 0.772925
2047 2 0.139892 0.0186431 0.772024
1201 2 0.116016 0.066807 0.781981
1257 4 0.276811 0.0860639 0.770515
817 2 0.318476 0.0419867 0.825985
1085 4 0.315321 0.0776333 0.828381
818 4 0.330116 0.0220569 0.816367
1255 2 0.259283 0.0832687 0.788126
974 4 0.344456 0.0177738 0.804761
973 2 0.364417 0.00438379 0.811649
1050 4 0.33545 0.00437926 0.791677
1113 4 0.41255 0.0438173 0.782503
2322 4 0.492618 0.0405287 0.774363
1111 2 0.43663 0.0493677 0.778687
845 4 0.481207 0.0561187 0.772357
1112 4 0.460709 0.0549182 0.774871
3083 4 0.000182802 0.0884668 0.757443
863 4 0.0178533 0.0932842 0.756682
833 4 0.0103547 0.0991494 0.772547
832 2 0.00964854 0.11895 0.787799
834 4 0.0089424 0.138751 0.80305
1125 4 0.0133902 0.149009 0.820544
1123 2 0.0350808 0.160464 0.815698
1124 4 0.0567713 0.17192 0.810853
1106 4 0.103451 0.123428 0.767362
1203 4 0.112328 0.0898194 0.791036
911 4 0.0981713 0.109902 0.819106
34 3 0.106809 0.107909 0.7782
31 1 0.11398 0.115561 0.798898
35 3 0.0982875 0.129366 0.807943
32 3 0.117125 0.097518 0.812815
33 3 0.13411 0.126876 0.79662
1256 4 0.241755 0.0804735 0.805736
840 4 0.241464 0.0960268 0.819001
1084 2 0.315405 0.0970574 0.812637
1086 4 0.315488 0.116482 0.796893
47 3 0.397063 0.156563 0.809731
1023 4 0.395267 0.153913 0.829978
846 4 0.484897 0.105538 0.779054
844 2 0.483052 0.0808282 0.775706
1130 4 0.127361 0.225461 0.782153
1129 2 0.151726 0.228952 0.777755
1131 4 0.176091 0.232442 0.773356
1277 4 0.179388 0.248649 0.785516
978 4 0.263544 0.189755 0.753347
977 4 0.301969 0.214221 0.773978
918 4 0.296432 0.232481 0.775672
976 2 0.282757 0.201988 0.763663
1298 4 0.298823 0.222549 0.791973
1297 2 0.318677 0.219033 0.80676
48 3 0.394556 0.170763 0.775022
1299 4 0.33853 0.215516 0.821547
1042 2 0.388958 0.226954 0.794298
1043 4 0.399096 0.204608 0.789494
49 3 0.394539 0.193795 0.805254
46 1 0.403165 0.174207 0.796293
1263 4 0.462525 0.247154 0.741133
1143 4 0.418063 0.168738 0.774758
1141 2 0.433009 0.169547 0.754729
50 3 0.425888 0.175428 0.795375
1306 2 0.477761 0.251431 0.802298
1307 4 0.495438 0.233822 0.803916