ITEM: TIMESTEP
3240000
ITEM: NUMBER OF ATOMS
4590
ITEM: BOX BOUNDS pp pp pp
-9.9985700000000008e+00 9.9985700000000008e+00
-9.9985700000000008e+00 9.9985700000000008e+00
-9.9985700000000008e+00 9.9985700000000008e+00
ITEM: ATOMS id type xs ys zs
701 4 0.0383248 0.0548216 0.0780262
700 2 0.0536024 0.0713203 0.0670915
490 2 0.273052 0.0627427 0.0657454
492 4 0.264145 0.0398434 0.0703799
491 4 0.281958 0.0856419 0.0611108
1474 2 0.275416 0.00486525 0.0778997
2974 2 0.463508 0.0219453 0.0267067
745 2 0.426712 0.0736266 0.024664
747 4 0.433248 0.0502453 0.0186836
2975 4 0.44574 0.0355841 0.0155946
986 4 0.429036 0.03827 0.00457836
2976 4 0.481275 0.00830658 0.0378187
2468 4 0.494759 0.999851 0.0496974
702 4 0.06888 0.087819 0.0561568
476 4 0.0585881 0.10632 0.0577125
475 2 0.0689992 0.128663 0.0619047
477 4 0.0794103 0.151006 0.0660969
566 4 0.181877 0.148504 0.999795
565 2 0.206442 0.151981 0.996691
746 4 0.420175 0.0970079 0.0306444
769 2 0.401468 0.156363 0.0239902
556 2 0.384014 0.10335 0.0049709
558 4 0.40492 0.105634 0.0184945
771 4 0.39564 0.132364 0.0278966
737 4 0.232733 0.179246 0.0453574
736 2 0.212609 0.19234 0.0523374
738 4 0.192484 0.205435 0.0593175
770 4 0.407297 0.180362 0.0200839
359 4 0.394533 0.194677 0.0192712
664 2 0.401019 0.207697 0.0537514
665 4 0.400533 0.18918 0.0369569
666 4 0.401506 0.226215 0.070546
323 4 0.40276 0.242026 0.0599534
623 4 0.390713 0.24281 0.0748682
2808 4 0.00948834 0.282569 0.0102868
292 2 0.149087 0.332451 0.0414568
294 4 0.126816 0.330132 0.0303299
555 4 0.0969698 0.25289 0.998874
507 4 0.183077 0.32754 0.0605055
286 2 0.199498 0.331928 0.0212218
481 2 0.23398 0.269246 0.0649582
505 2 0.192509 0.305568 0.0678167
483 4 0.215026 0.285055 0.0609584
506 4 0.201941 0.283596 0.0751278
287 4 0.188197 0.336425 0.0430676
482 4 0.252934 0.253437 0.0689579
573 4 0.264924 0.25443 0.0523286
571 2 0.286367 0.266637 0.0482854
572 4 0.30781 0.278845 0.0442422
357 4 0.316797 0.272011 0.0268819
355 2 0.32289 0.292888 0.014544
1069 2 0.407667 0.316017 0.0364261
322 2 0.413973 0.262378 0.0507206
956 4 0.341098 0.322848 0.0137205
1071 4 0.389847 0.332737 0.0417204
324 4 0.425186 0.28273 0.0414878
1070 4 0.425488 0.299296 0.0311318
280 2 0.454874 0.303331 0.059115
282 4 0.441509 0.292499 0.0409708
281 4 0.46824 0.314163 0.0772592
293 4 0.171358 0.334771 0.0525837
552 4 0.173597 0.338547 0.0729513
456 4 0.21228 0.386236 0.0641224
454 2 0.197232 0.366493 0.0611273
455 4 0.182184 0.34675 0.0581323
1290 4 0.259698 0.397703 0.0502367
1288 2 0.275662 0.383978 0.0367479
1289 4 0.291626 0.370253 0.023259
251 4 0.253202 0.41511 0.0564017
903 4 0.295379 0.365858 0.00366623
955 2 0.358092 0.333706 0.0285021
957 4 0.375085 0.344564 0.0432836
741 4 0.387834 0.339113 0.059395
739 2 0.392371 0.343475 0.0835936
1304 4 0.363358 0.362221 0.00106593
1787 4 0.112341 0.489022 0.0519835
1786 2 0.0967011 0.480864 0.0697036
626 4 0.198384 0.494202 0.0432834
625 2 0.174471 0.498267 0.0493495
245 4 0.200128 0.4752 0.0493064
244 2 0.215382 0.455622 0.0462765
246 4 0.230635 0.436043 0.0432467
250 2 0.259363 0.415031 0.0806343
272 4 0.249355 0.43166 0.0460509
271 2 0.266188 0.44164 0.0304867
273 4 0.283021 0.45162 0.0149226
1672 2 0.409545 0.437916 0.0785917
853 2 0.402185 0.444228 0.0200707
855 4 0.384376 0.439302 0.0032252
37 3 0.363251 0.42945 0.00482969
854 4 0.419993 0.449153 0.0369163
1674 4 0.419741 0.444475 0.0567241
564 4 0.434293 0.453111 0.0493618
563 4 0.470272 0.473165 0.0210044
562 2 0.452283 0.463138 0.0351831
228 4 0.462803 0.489388 0.010965
1667 4 0.0276585 0.0713529 0.0812626
19 3 0.058439 0.0125516 0.149162
578 4 0.0805939 0.0165925 0.156943
577 2 0.0983284 0.0321619 0.148681
579 4 0.116063 0.0477313 0.140419
450 4 0.129562 0.0579485 0.149361
582 4 0.229889 0.0766609 0.151389
1475 4 0.279486 0.0295139 0.0789264
580 2 0.242147 0.0589777 0.164125
486 4 0.430357 0.994908 0.103598
513 4 0.048258 0.161034 0.168915
312 4 0.358569 0.132488 0.161157
628 2 0.374998 0.168141 0.153924
629 4 0.374997 0.143138 0.153724
310 2 0.352986 0.108407 0.164912
2722 2 0.483266 0.0914682 0.133418
2723 4 0.466638 0.109845 0.130106
391 2 0.0541666 0.187559 0.153869
392 4 0.0629115 0.210554 0.158331
393 4 0.0454218 0.164563 0.149407
755 4 0.245539 0.244119 0.163754
460 2 0.327656 0.228711 0.117581
461 4 0.307435 0.21437 0.11432
354 4 0.290413 0.210045 0.126548
352 2 0.277865 0.224067 0.143014
353 4 0.265317 0.238088 0.159479
462 4 0.347877 0.243052 0.120842
255 4 0.36301 0.240121 0.131934
253 2 0.376827 0.222489 0.143042
622 2 0.377323 0.247565 0.0954422
624 4 0.363934 0.252321 0.116016
254 4 0.390644 0.204858 0.15415
630 4 0.374999 0.193144 0.154124
536 4 0.166661 0.270181 0.128752
537 4 0.201596 0.278403 0.093929
535 2 0.184128 0.274292 0.111341
754 2 0.233174 0.265416 0.159427
756 4 0.22081 0.286714 0.155101
612 4 0.221648 0.288736 0.174438
301 2 0.316729 0.319991 0.142896
303 4 0.316071 0.301752 0.159986
764 4 0.329756 0.288127 0.161922
765 4 0.35652 0.257797 0.13252
763 2 0.343138 0.272962 0.147221
12 3 0.415183 0.325716 0.132399
671 4 0.461248 0.327305 0.089188
527 4 0.477695 0.319838 0.0945206
647 4 0.0538799 0.353245 0.147023
550 2 0.159213 0.343012 0.0929104
551 4 0.14483 0.347476 0.112869
290 4 0.210298 0.419072 0.164197
302 4 0.317387 0.33823 0.125805
387 4 0.328331 0.354507 0.12185
385 2 0.353043 0.354323 0.11805
493 2 0.393176 0.388753 0.110237
495 4 0.392768 0.364195 0.114915
386 4 0.377756 0.354138 0.11425
15 3 0.381937 0.341544 0.126312
740 4 0.396908 0.347836 0.107792
14 3 0.413461 0.360878 0.119232
11 1 0.403297 0.345394 0.133209
13 3 0.403272 0.353249 0.155043
526 2 0.498742 0.329487 0.0850806
672 4 0.419874 0.341507 0.113421
670 2 0.440561 0.334406 0.101305
1465 2 0.0549133 0.469045 0.102276
1466 4 0.033665 0.481503 0.106573
1467 4 0.0761617 0.456586 0.0979782
1791 4 0.0344662 0.501238 0.102601
1788 4 0.0810608 0.472706 0.0874237
767 4 0.215744 0.487361 0.155368
766 2 0.214694 0.463187 0.161668
768 4 0.213644 0.439013 0.167969
252 4 0.265523 0.414952 0.104867
609 4 0.282407 0.408665 0.113636
607 2 0.304702 0.419876 0.115206
608 4 0.326996 0.431087 0.116776
659 4 0.335486 0.44669 0.106908
494 4 0.393584 0.413312 0.105559
660 4 0.381953 0.428416 0.109669
1673 4 0.399349 0.431357 0.100459
658 2 0.358719 0.437553 0.108288
524 4 0.411348 0.485567 0.134675
523 2 0.402569 0.464366 0.124743
525 4 0.393789 0.443166 0.114811
1559 4 0.398345 0.501771 0.136043
20 3 0.0841927 0.00432167 0.175367
17 3 0.047915 0.0035172 0.184095
2480 4 0.0346462 0.999603 0.199113
2479 2 0.0339252 0.0231591 0.207467
380 4 0.0303895 0.0611077 0.2282
2481 4 0.0332043 0.0467147 0.215821
448 2 0.146014 0.0689792 0.16462
449 4 0.162465 0.0800099 0.17988
237 4 0.219359 0.0858206 0.165546
1504 2 0.233843 0.991812 0.196721
1506 4 0.240905 0.015777 0.197711
581 4 0.254405 0.0412945 0.176862
654 4 0.249644 0.0329712 0.194181
652 2 0.267619 0.0364281 0.211215
653 4 0.285594 0.0398851 0.228248
758 4 0.341927 0.0786492 0.187697
759 4 0.366899 0.0599674 0.226788
757 2 0.354413 0.0693083 0.207242
350 4 0.377566 0.0638894 0.237883
349 2 0.402148 0.0593284 0.238221
22 3 0.368048 0.0525338 0.245458
632 4 0.370704 0.0732732 0.251254
25 3 0.345071 0.0232371 0.248036
480 4 0.446725 0.0490705 0.239064
351 4 0.426729 0.0547675 0.238559
743 4 0.500872 0.0624793 0.245444
333 4 0.491272 0.079979 0.246516
379 2 0.0293738 0.0829353 0.216047
511 2 0.0420827 0.14174 0.18357
512 4 0.0359075 0.122445 0.198225
381 4 0.0283581 0.104763 0.203894
235 2 0.196284 0.091132 0.173578
236 4 0.173208 0.0964434 0.18161
30 3 0.333562 0.149106 0.248072
311 4 0.347402 0.0843254 0.168667
26 1 0.355974 0.14551 0.246214
28 3 0.361536 0.141487 0.22405
761 4 0.41272 0.133627 0.201402
521 4 0.473409 0.13548 0.218209
762 4 0.458661 0.123967 0.218631
760 2 0.43569 0.128797 0.210017
332 4 0.470905 0.123888 0.233949
331 2 0.481088 0.101933 0.240232
520 2 0.484816 0.156615 0.211254
339 4 0.075317 0.226343 0.162981
337 2 0.0704336 0.241986 0.181865
546 4 0.0858402 0.230558 0.245786
544 2 0.105604 0.245615 0.242988
279 4 0.251966 0.215816 0.214315
277 2 0.256532 0.23012 0.194322
278 4 0.261098 0.244423 0.174329
284 4 0.277631 0.252303 0.169797
522 4 0.496224 0.17775 0.2043
396 4 0.0186618 0.246012 0.233615
394 2 0.0319368 0.26235 0.220123
395 4 0.0452118 0.278688 0.206632
338 4 0.0655501 0.257629 0.20075
363 4 0.0639894 0.276864 0.204862
361 2 0.0694287 0.301227 0.203451
362 4 0.0748681 0.325591 0.202039
545 4 0.125369 0.260673 0.24019
372 4 0.0893476 0.329384 0.190041
611 4 0.209567 0.314702 0.215433
610 2 0.215607 0.301719 0.194936
344 4 0.219278 0.306531 0.230361
343 2 0.200432 0.308541 0.246669
285 4 0.312215 0.288422 0.169957
283 2 0.294923 0.270363 0.169877
729 4 0.304444 0.305251 0.174201
727 2 0.291821 0.319811 0.190134
308 4 0.323662 0.298706 0.177273
728 4 0.279197 0.33437 0.206066
498 4 0.348067 0.295432 0.234615
307 2 0.339244 0.296592 0.196712
309 4 0.354827 0.294479 0.216152
749 4 0.0613823 0.339956 0.20757
648 4 0.0724293 0.341667 0.191996
748 2 0.067172 0.354465 0.227093
646 2 0.0631546 0.347456 0.169509
750 4 0.0729618 0.368973 0.246616
733 2 0.150617 0.332455 0.244069
370 2 0.110221 0.338393 0.200449
371 4 0.131095 0.347401 0.210857
734 4 0.137493 0.349424 0.231225
417 4 0.138779 0.361544 0.219789
299 4 0.137769 0.370354 0.236555
415 2 0.156491 0.374039 0.207325
298 2 0.114263 0.371523 0.244997
300 4 0.0907571 0.372693 0.25344
416 4 0.174202 0.386534 0.19486
289 2 0.189599 0.406627 0.170666
291 4 0.168899 0.394182 0.177134
445 2 0.387288 0.379237 0.235533
447 4 0.409438 0.38363 0.224796
446 4 0.365139 0.374844 0.24627
595 2 0.489409 0.380568 0.171592
644 4 0.428132 0.385296 0.232579
643 2 0.445709 0.391938 0.216083
645 4 0.463285 0.398579 0.199587
597 4 0.472062 0.382811 0.189459
412 2 0.250023 0.49032 0.225564
413 4 0.252469 0.47887 0.247657
229 2 0.477948 0.498348 0.211154
230 4 0.45436 0.506642 0.211132
2756 4 0.999838 0.0646113 0.301314
234 4 0.0099219 0.0490503 0.296903
232 2 0.0321327 0.038531 0.301508
233 4 0.0543435 0.0280118 0.306113
317 4 0.066211 0.0203301 0.320223
1404 4 0.0656532 0.0126123 0.303265
1402 2 0.0803478 0.00560209 0.284289
428 4 0.0651944 0.000708057 0.317584
316 2 0.0794392 0.0382061 0.331653
693 4 0.329995 0.055961 0.281604
691 2 0.30824 0.0678611 0.278391
24 3 0.347011 0.0480579 0.276281
21 1 0.358947 0.0369782 0.259753
23 3 0.376108 0.0246238 0.269307
479 4 0.450615 0.0403321 0.288148
478 2 0.44867 0.0447013 0.263606
2664 4 0.466935 0.0348878 0.296854
1428 4 0.448483 0.0339309 0.303791
258 4 0.436824 0.0498056 0.297524
2662 2 0.491916 0.0340497 0.297507
256 2 0.428014 0.0660451 0.314371
1426 2 0.443597 0.00980975 0.308204
403 2 0.23149 0.152783 0.322577
404 4 0.244442 0.132102 0.32803
249 4 0.252491 0.116586 0.335097
692 4 0.286486 0.0797613 0.275179
721 2 0.271384 0.109993 0.304661
723 4 0.281953 0.0944593 0.288163
722 4 0.260816 0.125527 0.321159
29 3 0.362208 0.12743 0.259354
631 2 0.366281 0.0944666 0.263763
707 4 0.363394 0.130091 0.279173
633 4 0.361858 0.11566 0.276271
706 2 0.361052 0.135492 0.303473
708 4 0.35871 0.140894 0.327774
444 4 0.0227601 0.237677 0.300326
442 2 0.0225217 0.244784 0.276355
405 4 0.218538 0.173464 0.317124
473 4 0.212886 0.190576 0.329056
27 3 0.36727 0.1642 0.253441
419 4 0.421429 0.249776 0.319694
443 4 0.0222833 0.251891 0.252384
402 4 0.132049 0.261984 0.259233
735 4 0.163742 0.315486 0.256914
375 4 0.158137 0.315718 0.331965
400 2 0.150043 0.279344 0.259369
401 4 0.168037 0.296704 0.259505
676 2 0.164503 0.319487 0.297155
677 4 0.166475 0.307658 0.275216
345 4 0.181586 0.31055 0.262978
678 4 0.16253 0.331316 0.319095
378 4 0.2737 0.294246 0.286579
376 2 0.296467 0.303802 0.290524
377 4 0.319233 0.313357 0.294469
615 4 0.330759 0.32268 0.309495
497 4 0.334733 0.308081 0.281122
418 2 0.404086 0.267218 0.3152
496 2 0.3414 0.301756 0.257868
541 2 0.352649 0.296381 0.312196
542 4 0.371829 0.285866 0.324311
543 4 0.33347 0.306896 0.30008
420 4 0.386743 0.284659 0.310705
2537 4 0.480451 0.324257 0.328876
364 2 0.00541691 0.39826 0.290115
365 4 0.0225046 0.415788 0.285019
603 4 0.0360614 0.418659 0.300472
601 2 0.0497239 0.412188 0.320388
510 4 0.169502 0.347648 0.312159
508 2 0.18305 0.368645 0.313035
509 4 0.196598 0.389642 0.31391
434 4 0.326785 0.386989 0.305083
433 2 0.310853 0.405976 0.308375
613 2 0.334311 0.347242 0.306449
614 4 0.337863 0.371804 0.303402
264 4 0.999956 0.430727 0.26852
1757 4 0.0200829 0.425557 0.269031
1756 2 0.0339099 0.444533 0.27763
1758 4 0.0477369 0.463508 0.286228
1775 4 0.0653326 0.468771 0.2784
775 2 0.0533715 0.488004 0.311998
777 4 0.0546315 0.48085 0.288073
1776 4 0.109975 0.448812 0.288858
1774 2 0.0876539 0.458791 0.283629
5 3 0.243298 0.420679 0.330242
2 3 0.277845 0.414727 0.317436
4 3 0.250571 0.424518 0.2935
1436 4 0.240529 0.480267 0.263068
1435 2 0.24833 0.46464 0.28096
1437 4 0.25613 0.449013 0.298852
3 3 0.264175 0.449722 0.318482
1 1 0.258815 0.427417 0.314995
436 2 0.301902 0.460864 0.319548
438 4 0.284848 0.442583 0.319953
435 4 0.294921 0.424963 0.311668
437 4 0.318956 0.479144 0.319144
1802 4 0.327927 0.49462 0.326909
1801 2 0.351567 0.488158 0.321952
1803 4 0.375207 0.481696 0.316995
593 4 0.385655 0.467272 0.327155
588 4 0.3795 0.456472 0.342198
119 3 0.493373 0.458031 0.33105
318 4 0.0926675 0.0560822 0.343082
732 4 0.104306 0.0583156 0.357835
730 2 0.128691 0.0632654 0.355375
731 4 0.153076 0.0682152 0.352916
399 4 0.09015 0.0709383 0.357225
606 4 0.171435 0.0591696 0.357669
604 2 0.186158 0.0782728 0.364264
1701 4 0.359377 0.00407232 0.393197
699 4 0.377215 0.0529944 0.364079
1699 2 0.362997 0.0215527 0.37569
1700 4 0.366618 0.039033 0.358183
697 2 0.394067 0.0701593 0.357257
257 4 0.419203 0.0822847 0.331219
397 2 0.0724209 0.0874257 0.363472
398 4 0.0546917 0.103913 0.369719
2584 2 0.0201614 0.110688 0.357811
2586 4 0.0418108 0.118267 0.367763
458 4 0.0368978 0.131418 0.381892
457 2 0.034846 0.153539 0.393365
605 4 0.200881 0.097376 0.370859
248 4 0.217279 0.0905268 0.359218
247 2 0.234885 0.103556 0.347157
683 4 0.258894 0.1335 0.339734
682 2 0.277827 0.144467 0.351836
684 4 0.29676 0.155433 0.363937
319 2 0.331035 0.155154 0.344751
320 4 0.306343 0.158556 0.346731
698 4 0.41092 0.0873241 0.350434
321 4 0.355727 0.151752 0.34277
726 4 0.399808 0.135901 0.411117
717 4 0.357204 0.152474 0.363216
715 2 0.374135 0.150536 0.381513
716 4 0.391065 0.148599 0.39981
467 4 0.402221 0.155502 0.413212
724 2 0.400869 0.113635 0.422442
641 4 0.469563 0.141334 0.363259
640 2 0.486986 0.127903 0.375143
2850 4 0.992793 0.209933 0.366743
459 4 0.0327943 0.17566 0.404838
260 4 0.0503981 0.181826 0.412842
600 4 0.110909 0.226683 0.332485
598 2 0.122402 0.22535 0.35465
599 4 0.133894 0.224016 0.376816
686 4 0.128648 0.232648 0.392828
685 2 0.114065 0.225598 0.411876
275 4 0.145382 0.228977 0.393012
274 2 0.169705 0.225947 0.388072
474 4 0.192456 0.206827 0.371708
472 2 0.202671 0.198702 0.350382
276 4 0.194027 0.222917 0.383132
269 4 0.414215 0.237083 0.334015
268 2 0.428452 0.220427 0.346059
270 4 0.442688 0.20377 0.358103
452 4 0.459916 0.213071 0.362663
451 2 0.465172 0.216161 0.386911
453 4 0.470429 0.219251 0.41116
347 4 0.0569768 0.315368 0.376494
346 2 0.0344084 0.309437 0.385475
618 4 0.0635989 0.299313 0.366335
348 4 0.01184 0.303506 0.394457
616 2 0.0881035 0.295933 0.369979
389 4 0.139476 0.248349 0.394802
373 2 0.138286 0.310232 0.346142
388 2 0.135203 0.269703 0.382517
390 4 0.13093 0.291057 0.370232
617 4 0.112608 0.292553 0.373623
374 4 0.118434 0.304745 0.360319
488 4 0.390787 0.275886 0.395786
487 2 0.38797 0.264614 0.417926
602 4 0.0633864 0.405718 0.340304
549 4 0.0622043 0.394965 0.357406
547 2 0.0642547 0.40858 0.378278
335 4 0.312072 0.374723 0.403721
240 4 0.322786 0.373496 0.387098
238 2 0.337371 0.384386 0.369956
239 4 0.351957 0.395276 0.352813
587 4 0.363305 0.409161 0.342504
752 4 0.464554 0.381668 0.369281
561 4 0.460788 0.377317 0.388429
751 2 0.47658 0.402811 0.363491
559 2 0.472655 0.369961 0.40917
776 4 0.0521115 0.495157 0.335923
500 4 0.056287 0.484215 0.352092
499 2 0.0671807 0.465203 0.364134
501 4 0.0780744 0.44619 0.376176
407 4 0.079408 0.435796 0.394568
548 4 0.0663051 0.422194 0.39915
406 2 0.0911911 0.447591 0.413201
1555 2 0.231489 0.489976 0.392553
1557 4 0.247482 0.484963 0.411107
636 4 0.246095 0.466889 0.417639
586 2 0.371403 0.432816 0.342351
592 2 0.401324 0.480478 0.341484
594 4 0.416992 0.493683 0.355812
118 3 0.508783 0.426847 0.346362
116 1 0.49866 0.447228 0.350893
713 4 0.435199 0.488214 0.349578
712 2 0.456298 0.474846 0.34845
714 4 0.477398 0.461478 0.347323
753 4 0.488606 0.423954 0.3577
117 3 0.479279 0.443445 0.362693
369 4 0.0515995 0.0110486 0.465672
367 2 0.0725654 0.00922208 0.452171
1781 4 0.111136 0.0019634 0.446453
368 4 0.0935313 0.00739552 0.43867
342 4 0.23192 0.0509941 0.497397
340 2 0.222767 0.027886 0.494673
341 4 0.213614 0.00477794 0.491949
963 4 0.309739 0.0369354 0.441646
432 4 0.309669 0.0507628 0.454748
430 2 0.321903 0.0546142 0.476211
961 2 0.325963 0.0218971 0.429992
962 4 0.342187 0.0068589 0.418337
431 4 0.334137 0.0584657 0.497674
1217 4 0.417489 0.0604174 0.500352
725 4 0.40193 0.0913686 0.433768
259 2 0.0653821 0.200006 0.421219
261 4 0.0803661 0.218185 0.429596
687 4 0.099482 0.218548 0.430924
1035 4 0.0866594 0.234698 0.436122
1033 2 0.0937989 0.251179 0.453517
409 2 0.406496 0.221152 0.455476
411 4 0.39027 0.240164 0.454799
466 2 0.415391 0.172366 0.426147
468 4 0.428561 0.189231 0.439082
410 4 0.422721 0.20214 0.456152
574 2 0.422294 0.18159 0.490975
515 4 0.478027 0.21528 0.42959
575 4 0.433577 0.191235 0.470854
516 4 0.438191 0.196584 0.453346
514 2 0.458109 0.205932 0.441468
1034 4 0.100938 0.26766 0.470913
696 4 0.109341 0.264906 0.489049
1260 4 0.115028 0.278999 0.477015
1258 2 0.12157 0.302392 0.471085
1259 4 0.128113 0.325784 0.465155
9 3 0.158131 0.314566 0.426357
503 4 0.142692 0.328251 0.475403
7 3 0.14496 0.332498 0.45665
489 4 0.385153 0.253343 0.440067
266 4 0.392268 0.258667 0.456572
265 2 0.400316 0.272847 0.475529
267 4 0.408363 0.287026 0.494486
3308 4 0.46872 0.330714 0.474032
1011 4 0.462969 0.312088 0.475639
1009 2 0.45784 0.29089 0.487866
1010 4 0.45271 0.269692 0.500094
326 4 0.0797585 0.359506 0.45197
6 1 0.152354 0.335291 0.435047
327 4 0.124475 0.3373 0.454804
325 2 0.102117 0.348403 0.453387
10 3 0.135725 0.344588 0.42257
709 2 0.15009 0.405392 0.491962
502 2 0.150493 0.347116 0.489841
8 3 0.170883 0.349257 0.435208
334 2 0.309581 0.382129 0.427472
336 4 0.30709 0.389535 0.451224
668 4 0.305871 0.400815 0.466203
882 4 0.323985 0.396529 0.456996
880 2 0.339282 0.390752 0.475912
881 4 0.354579 0.384974 0.494827
3309 4 0.497736 0.356501 0.442507
560 4 0.484523 0.362604 0.429912
3307 2 0.483228 0.343608 0.45827
680 4 0.0089445 0.445015 0.446638
1381 2 0.00339058 0.484691 0.469091
711 4 0.140649 0.425135 0.479868
408 4 0.102974 0.459387 0.431835
383 4 0.109373 0.466836 0.448244
384 4 0.119726 0.426774 0.476326
568 2 0.124747 0.492451 0.421343
569 4 0.106968 0.477856 0.431146
382 2 0.11455 0.446805 0.462285
667 2 0.299861 0.424475 0.460793
634 2 0.267607 0.464124 0.43008
772 2 0.310833 0.477624 0.478145
774 4 0.297189 0.465886 0.46079
669 4 0.29385 0.448134 0.455382
635 4 0.289119 0.461359 0.44252
773 4 0.324478 0.489363 0.495501
1152 4 0.230687 0.0548759 0.518002
1150 2 0.229592 0.06032 0.542381
1151 4 0.228498 0.0657642 0.56676
1032 4 0.23968 0.056148 0.57886
1181 4 0.245678 0.0736572 0.575252
842 4 0.396879 0.0612926 0.49979
841 2 0.372896 0.0558963 0.504361
843 4 0.348913 0.0505 0.508932
1216 2 0.442352 0.0593 0.502745
1218 4 0.467216 0.0581825 0.505139
1058 4 0.0823453 0.0814851 0.523302
1270 2 0.0779032 0.151982 0.561621
1271 4 0.0915328 0.131294 0.565001
1057 2 0.0859656 0.0968683 0.542678
1059 4 0.089586 0.112251 0.562054
1155 4 0.105623 0.117665 0.564594
939 4 0.0937508 0.118107 0.579471
1153 2 0.129091 0.12625 0.563768
1154 4 0.15256 0.134836 0.562943
1180 2 0.23902 0.0967482 0.582155
898 2 0.246319 0.155043 0.567565
900 4 0.23605 0.13635 0.580615
1221 4 0.171039 0.130731 0.565166
1219 2 0.194139 0.130405 0.574728
1199 4 0.0380306 0.218385 0.560742
877 2 0.0629714 0.204501 0.572703
1272 4 0.0642736 0.17267 0.558241
878 4 0.0498755 0.225794 0.573246
1198 2 0.0146968 0.221896 0.552473
879 4 0.0760672 0.183209 0.57216
651 4 0.209879 0.212072 0.524973
858 4 0.194326 0.222597 0.517754
649 2 0.229777 0.20045 0.534678
650 4 0.249675 0.188828 0.544383
856 2 0.193525 0.244228 0.53027
899 4 0.256589 0.173735 0.554515
576 4 0.41101 0.171945 0.511095
984 4 0.0015477 0.312285 0.576009
695 4 0.112504 0.272863 0.538318
694 2 0.110922 0.268885 0.513683
948 4 0.169645 0.289051 0.588863
946 2 0.184307 0.286453 0.568778
857 4 0.192724 0.265858 0.542786
947 4 0.19897 0.283854 0.548692
798 4 0.218767 0.280909 0.548391
796 2 0.239732 0.285447 0.561239
797 4 0.260696 0.289985 0.574087
790 2 0.264575 0.327833 0.584435
871 2 0.396852 0.325807 0.577415
2455 2 0.484483 0.252779 0.51768
2457 4 0.466975 0.270281 0.51417
954 4 0.477392 0.285779 0.573937
3263 4 0.0473207 0.340767 0.571093
710 4 0.15953 0.385649 0.504056
504 4 0.158294 0.365981 0.504278
1189 2 0.244238 0.377058 0.573134
1191 4 0.224548 0.390283 0.581044
804 4 0.273585 0.351885 0.504157
803 4 0.275592 0.368785 0.551179
802 2 0.274588 0.360335 0.527668
1190 4 0.263928 0.363832 0.565224
1238 4 0.280122 0.364679 0.57073
1237 2 0.304451 0.36827 0.575242
1239 4 0.328781 0.371862 0.579755
792 4 0.268663 0.352186 0.580511
872 4 0.399566 0.324375 0.552601
930 4 0.338396 0.375544 0.561923
929 4 0.350361 0.377186 0.513397
928 2 0.344378 0.376365 0.53766
663 4 0.462743 0.486077 0.503608
1081 2 0.0563076 0.0707016 0.639364
1082 4 0.0618116 0.0552852 0.658264
825 4 0.160953 0.0715426 0.67494
1030 2 0.248542 0.0421579 0.597592
1148 4 0.251645 0.067283 0.664783
1031 4 0.257405 0.0281678 0.616325
951 4 0.268611 0.0120215 0.620312
949 2 0.292782 0.0109348 0.614008
950 4 0.316954 0.00984807 0.607704
1226 4 0.262449 0.0745126 0.649777
1147 2 0.263186 0.0465854 0.672758
3008 4 0.485313 0.0279086 0.589412
809 4 0.481303 0.024667 0.608155
808 2 0.478486 0.0417596 0.626185
810 4 0.475668 0.0588522 0.644215
45 3 0.47704 0.0822505 0.64298
41 1 0.466474 0.0764145 0.662292
43 3 0.444483 0.0838023 0.661829
1083 4 0.0508035 0.0861179 0.620464
1127 4 0.043245 0.104824 0.618716
1126 2 0.023876 0.0976196 0.604641
1128 4 0.00450698 0.0904151 0.590565
938 4 0.0612453 0.100419 0.613105
937 2 0.0774981 0.109263 0.596288
1283 4 0.148324 0.085046 0.665536
1220 4 0.21724 0.130078 0.58429
1182 4 0.232362 0.119839 0.589059
1210 2 0.233745 0.136876 0.620657
1212 4 0.226466 0.137363 0.596742
908 4 0.232045 0.125283 0.658224
907 2 0.209585 0.125606 0.669205
1211 4 0.241024 0.136389 0.644573
1227 4 0.250131 0.122978 0.649973
888 4 0.259677 0.140051 0.647223
886 2 0.281348 0.148563 0.656338
887 4 0.303019 0.157075 0.665453
1225 2 0.25629 0.0987455 0.649875
3425 4 0.486602 0.0934784 0.66076
1244 4 0.0556458 0.225371 0.594179
1194 4 0.314555 0.173823 0.66319
1192 2 0.322877 0.188638 0.644848
1193 4 0.331199 0.203454 0.626507
3123 4 0.479763 0.217239 0.636153
3121 2 0.497465 0.233289 0.643516
1243 2 0.0499722 0.248629 0.601393
982 2 0.0207017 0.299697 0.586001
983 4 0.0398557 0.28711 0.595994
1245 4 0.0442986 0.271887 0.608607
820 2 0.151102 0.33199 0.661335
1136 4 0.164653 0.307093 0.594932
1135 2 0.167185 0.326728 0.610205
791 4 0.260487 0.30348 0.588359
873 4 0.394138 0.327239 0.60223
813 4 0.401122 0.323752 0.620869
952 2 0.479744 0.305754 0.588791
953 4 0.482097 0.325729 0.603645
3262 2 0.0515479 0.359929 0.586589
1041 4 0.0568061 0.387879 0.620556
3264 4 0.055775 0.37909 0.602085
3240 4 0.0410058 0.387716 0.610097
3238 2 0.0215621 0.403139 0.613136
1039 2 0.0808255 0.387665 0.627499
1040 4 0.104845 0.38745 0.634442
993 4 0.124677 0.390628 0.633953
991 2 0.144945 0.376019 0.632992
992 4 0.165214 0.361409 0.632031
822 4 0.162958 0.344642 0.64332
1137 4 0.169717 0.346362 0.625477
1064 4 0.178559 0.355953 0.64102
897 4 0.182809 0.360607 0.622653
896 4 0.207007 0.387529 0.588152
895 2 0.194908 0.374068 0.605403
1172 4 0.217476 0.399558 0.598185
1063 2 0.196758 0.361429 0.657268
811 2 0.39707 0.346266 0.630961
927 4 0.402009 0.383632 0.648548
812 4 0.393019 0.368781 0.641052
925 2 0.410638 0.404692 0.638194
1206 4 0.38758 0.377348 0.65931
906 4 0.478745 0.344733 0.601036
904 2 0.498275 0.359624 0.596342
3239 4 0.00211843 0.418563 0.616175
2244 4 0.113862 0.485655 0.602872
1160 4 0.130982 0.47982 0.608688
540 4 0.116476 0.466755 0.60212
539 4 0.103778 0.423681 0.580118
538 2 0.110127 0.445218 0.591119
1159 2 0.154533 0.487776 0.606
1171 2 0.227331 0.420727 0.607125
1186 2 0.208669 0.474485 0.600938
1173 4 0.237187 0.441896 0.616066
1187 4 0.224489 0.458494 0.611855
1188 4 0.192849 0.490476 0.590021
1161 4 0.178085 0.495732 0.603312
926 4 0.419267 0.425752 0.62784
1002 4 0.433518 0.439719 0.634121
1911 4 0.424916 0.509246 0.626841
1001 4 0.426834 0.489155 0.630632
1000 2 0.430176 0.464437 0.632376
4337 4 0.0112196 0.996413 0.671478
944 4 0.0640259 0.0279149 0.680055
943 2 0.0446047 0.0123021 0.682112
1076 4 0.0616251 0.0471888 0.676195
1075 2 0.0639718 0.0639094 0.694636
864 4 0.0613098 0.0829571 0.732935
862 2 0.0411032 0.0753521 0.745546
823 2 0.162324 0.0467762 0.67809
2256 4 0.174788 0.00806121 0.690298
2133 4 0.177984 0.0132444 0.672083
824 4 0.163695 0.0220098 0.68124
1149 4 0.274728 0.0258878 0.680732
1092 4 0.347888 0.00552288 0.692289
42 3 0.46658 0.0535048 0.664362
1163 4 0.477649 0.0628544 0.682502
1162 2 0.489667 0.0556521 0.703211
44 3 0.477548 0.0856405 0.680476
4581 4 0.497311 0.0228277 0.738344
2321 4 0.500644 0.042839 0.74364
1077 4 0.0663186 0.08063 0.713078
851 4 0.0700152 0.098865 0.707545
850 2 0.0676795 0.123698 0.705798
852 4 0.0653437 0.148531 0.704052
1107 4 0.0757021 0.0922947 0.72466
1282 2 0.157823 0.106617 0.673881
1105 2 0.0988167 0.0894295 0.733753
1106 4 0.121931 0.0865644 0.742846
1284 4 0.167323 0.128188 0.682226
909 4 0.187124 0.12593 0.680186
830 4 0.321985 0.155856 0.665613
1004 4 0.353926 0.0819147 0.734568
829 2 0.333609 0.135446 0.674187
1005 4 0.353878 0.118334 0.7003
1003 2 0.353902 0.100124 0.717434
831 4 0.345233 0.115037 0.68276
3268 2 0.478157 0.144352 0.741562
3270 4 0.48016 0.167647 0.732703
1214 4 0.00691919 0.197888 0.717052
977 4 0.315909 0.240756 0.738907
1297 2 0.281 0.217739 0.748109
1298 4 0.295373 0.234796 0.73681
1025 4 0.393624 0.189664 0.693314
1024 2 0.413004 0.19783 0.706837
1142 4 0.437006 0.202831 0.738941
1144 2 0.470974 0.195211 0.724375
1262 4 0.43632 0.221383 0.730962
1026 4 0.432384 0.205997 0.720361
1145 4 0.45035 0.209142 0.726773
1146 4 0.491598 0.181279 0.721977
1261 2 0.436438 0.245234 0.738464
1178 4 0.00956095 0.260407 0.7259
1073 4 0.0806647 0.255829 0.743505
1177 2 0.0325393 0.270044 0.723824
1179 4 0.0555176 0.279681 0.721749
1072 2 0.103298 0.25706 0.73295
1208 4 0.136944 0.273155 0.719665
1074 4 0.125931 0.258291 0.722395
1207 2 0.138339 0.296383 0.710515
821 4 0.139246 0.319338 0.679351
1209 4 0.139734 0.319611 0.701366
1130 4 0.140382 0.258192 0.734354
815 4 0.117821 0.32196 0.726602
918 4 0.30109 0.25043 0.745225
806 4 0.265203 0.327581 0.688432
976 2 0.338837 0.24783 0.731878
978 4 0.361766 0.254905 0.72485
1020 4 0.378827 0.256675 0.735483
1263 4 0.436555 0.269085 0.745967
892 2 0.0411314 0.359532 0.72381
1280 4 0.0723725 0.365462 0.737204
816 4 0.0750311 0.346047 0.736065
894 4 0.0575524 0.353509 0.741677
893 4 0.0247103 0.365554 0.705942
942 4 0.13201 0.334756 0.718931
1279 2 0.0837107 0.386527 0.744477
814 2 0.0964261 0.334004 0.731333
940 2 0.147811 0.35385 0.722241
1078 2 0.159536 0.409587 0.731967
1281 4 0.0950489 0.407591 0.75175
941 4 0.163612 0.372943 0.725551
1080 4 0.170314 0.387853 0.73802
805 2 0.24612 0.343737 0.688429
1065 4 0.214957 0.366905 0.673516
807 4 0.227037 0.359893 0.688426
1028 4 0.216564 0.386287 0.675399
1066 2 0.198473 0.375749 0.709599
1068 4 0.214997 0.374312 0.690889
1027 2 0.230234 0.407194 0.674301
1067 4 0.181949 0.377186 0.728309
1204 2 0.368797 0.378329 0.675784
1205 4 0.350014 0.379311 0.692259
1079 4 0.148758 0.431321 0.725914
2170 2 0.171123 0.498618 0.672843
1029 4 0.243903 0.428101 0.673203
1174 2 0.18321 0.478939 0.729709
1175 4 0.182654 0.478608 0.704714
2172 4 0.184807 0.493369 0.6931
1176 4 0.183766 0.479271 0.754704
1140 4 0.245244 0.430727 0.692892
1228 2 0.313426 0.461347 0.682874
1138 2 0.260302 0.450618 0.694556
1139 4 0.27536 0.47051 0.696219
1987 2 0.304829 0.458717 0.740782
1229 4 0.294113 0.464571 0.698423
1989 4 0.29936 0.461149 0.716506
2028 4 0.288517 0.476243 0.709489
1230 4 0.332739 0.458124 0.667324
1100 4 0.493599 0.461895 0.712
1099 2 0.483976 0.48071 0.698637
2989 2 0.00288552 0.0447235 0.784371
2990 4 0.00960149 0.0660539 0.773186
2991 4 0.99617 0.0233932 0.795555
863 4 0.0208965 0.0677471 0.758157
2049 4 0.108722 0.0134938 0.793539
1202 4 0.114145 0.0251812 0.777376
1201 2 0.120622 0.0493112 0.776396
1203 4 0.1271 0.0734412 0.775416
32 3 0.141352 0.0811946 0.789775
1085 4 0.312216 0.0736731 0.811534
960 4 0.331683 0.0695368 0.817514
819 4 0.325568 0.0680298 0.79992
973 2 0.373361 0.99844 0.806688
1050 4 0.340531 0.0133331 0.783254
817 2 0.338803 0.0479334 0.793128
818 4 0.352039 0.0278369 0.786336
974 4 0.357146 0.00863222 0.790613
2320 2 0.491102 0.0542801 0.763721
844 2 0.489736 0.0684517 0.827012
845 4 0.486476 0.0674102 0.802244
2322 4 0.48156 0.0657212 0.783801
1112 4 0.476266 0.082134 0.792119
3083 4 0.00670245 0.0805633 0.758285
833 4 0.0190445 0.0823115 0.772839
832 2 0.0193855 0.102038 0.788198
834 4 0.0197266 0.121765 0.803558
1125 4 0.0273573 0.123051 0.82282
34 3 0.117816 0.0902944 0.76192
911 4 0.133368 0.0976874 0.803716
31 1 0.134418 0.0982831 0.776026
35 3 0.126265 0.115316 0.788756
33 3 0.152526 0.10569 0.76355
910 2 0.135835 0.097614 0.828598
1256 4 0.221175 0.124897 0.812798
840 4 0.235952 0.133616 0.824924
1255 2 0.238545 0.111724 0.800553
1084 2 0.294023 0.0871951 0.80098
1086 4 0.275831 0.100717 0.790427
1257 4 0.255915 0.0985517 0.788308
3269 4 0.476154 0.121057 0.750422
1113 4 0.469763 0.125941 0.768896
1111 2 0.473015 0.104038 0.780507
1299 4 0.266628 0.200682 0.759408
48 3 0.408345 0.16983 0.789269