ITEM: TIMESTEP
1860000
ITEM: NUMBER OF ATOMS
4590
ITEM: BOX BOUNDS pp pp pp
-9.9985700000000008e+00 9.9985700000000008e+00
-9.9985700000000008e+00 9.9985700000000008e+00
-9.9985700000000008e+00 9.9985700000000008e+00
ITEM: ATOMS id type xs ys zs
1666 2 0.0386184 0.0763172 0.0618631
1668 4 0.0276759 0.0672269 0.0413008
1474 2 0.298088 0.00977389 0.073658
2974 2 0.471253 0.0276549 0.00985074
2976 4 0.480895 0.00727402 0.0206595
566 4 0.174776 0.159027 0.03349
2264 4 0.240786 0.166744 0.0155519
297 4 0.316664 0.115449 0.0201718
295 2 0.339673 0.108617 0.0131674
556 2 0.400483 0.114724 0.0106014
296 4 0.362683 0.101785 0.00616298
557 4 0.37716 0.113658 0.00165181
558 4 0.423805 0.115791 0.019551
746 4 0.433542 0.105305 0.00479322
565 2 0.197649 0.161762 0.0237657
567 4 0.220521 0.164498 0.0140413
1133 4 0.218303 0.181604 0.00315872
360 4 0.325896 0.169512 0.00179735
769 2 0.400252 0.173799 0.00540455
770 4 0.382946 0.173251 0.0234429
359 4 0.365167 0.172436 0.0326192
358 2 0.345532 0.170974 0.0172083
664 2 0.388972 0.196313 0.0573146
665 4 0.380183 0.178521 0.0421033
666 4 0.39776 0.214105 0.0725259
323 4 0.394328 0.233102 0.0695628
623 4 0.398322 0.227467 0.0873793
555 4 0.063676 0.276377 0.0163408
287 4 0.162064 0.315365 0.0411798
292 2 0.132162 0.286282 0.0316252
507 4 0.15531 0.310765 0.0574889
293 4 0.148479 0.299343 0.0453488
294 4 0.115845 0.273221 0.0179017
286 2 0.172762 0.327517 0.022126
551 4 0.103227 0.326688 0.0512561
505 2 0.173593 0.30701 0.0741261
481 2 0.225782 0.28817 0.0878437
482 4 0.242277 0.276378 0.0732131
573 4 0.261094 0.27864 0.0660376
571 2 0.273229 0.280505 0.0442564
572 4 0.285365 0.282371 0.0224751
357 4 0.280959 0.275729 0.00383398
322 2 0.407437 0.24804 0.0543906
1069 2 0.400967 0.289724 0.0187691
957 4 0.371083 0.317782 0.0235109
1071 4 0.38041 0.303393 0.0148027
955 2 0.349888 0.317374 0.0102532
1070 4 0.421524 0.276055 0.0227354
324 4 0.420546 0.262978 0.0392185
671 4 0.446936 0.31635 0.0740888
280 2 0.450196 0.30074 0.0416782
281 4 0.460872 0.314743 0.0594302
282 4 0.43952 0.286738 0.0239263
670 2 0.425594 0.322907 0.0853441
455 4 0.14699 0.378407 0.0645302
552 4 0.131876 0.365922 0.0631146
550 2 0.117551 0.346305 0.0571854
454 2 0.167602 0.389035 0.055184
288 4 0.183461 0.339669 0.00307216
456 4 0.188215 0.399663 0.0458379
1290 4 0.262528 0.405073 0.0121652
252 4 0.275298 0.405152 0.068837
1288 2 0.275058 0.390595 0.996085
609 4 0.286997 0.404709 0.0844208
741 4 0.363123 0.323437 0.0410625
739 2 0.366079 0.328122 0.0654447
495 4 0.388959 0.359317 0.0802812
330 4 0.00320078 0.426065 0.996135
245 4 0.252777 0.487112 0.0560602
626 4 0.234514 0.479876 0.0600608
625 2 0.213961 0.469064 0.0693266
244 2 0.263163 0.468629 0.0428055
246 4 0.27355 0.450147 0.0295508
251 4 0.257656 0.420901 0.0247747
250 2 0.266477 0.413027 0.0468058
272 4 0.262824 0.438261 0.0167844
1560 4 0.318768 0.49507 0.0861249
1672 2 0.411548 0.442956 0.0688914
853 2 0.408174 0.43497 0.0118009
854 4 0.420557 0.447936 0.029228
1674 4 0.4239 0.447951 0.0477334
563 4 0.479964 0.452901 0.0461695
562 2 0.455916 0.457525 0.0411196
564 4 0.431868 0.462149 0.0360698
228 4 0.49306 0.439623 0.0379896
1667 4 0.0495608 0.0854075 0.0824254
18 3 0.0759097 0.0354897 0.155546
1475 4 0.291177 0.030428 0.0859394
492 4 0.304969 0.0370617 0.0986513
490 2 0.290451 0.0530402 0.111265
491 4 0.275933 0.0690187 0.123878
485 4 0.377551 0.987795 0.119726
2469 4 0.506041 0.0129875 0.0782888
2723 4 0.449369 0.071925 0.150225
2722 2 0.464318 0.0525358 0.145149
2724 4 0.479267 0.0331465 0.140073
1760 4 0.494715 0.0229591 0.134486
2744 4 0.491736 0.0249651 0.153252
701 4 0.065939 0.0814394 0.0915086
700 2 0.0742352 0.104113 0.098009
702 4 0.0825314 0.126787 0.104509
476 4 0.0774904 0.14522 0.105189
475 2 0.0973283 0.148354 0.120082
477 4 0.117166 0.151488 0.134976
237 4 0.231632 0.135836 0.148321
582 4 0.246988 0.1234 0.149333
449 4 0.18433 0.116137 0.15712
235 2 0.210104 0.131828 0.16039
580 2 0.266526 0.136132 0.158352
628 2 0.372391 0.14607 0.153977
312 4 0.379195 0.107568 0.152642
629 4 0.383281 0.125105 0.162166
630 4 0.361502 0.167035 0.145788
310 2 0.380492 0.085775 0.164831
339 4 0.0800389 0.232642 0.14164
337 2 0.066316 0.241676 0.160488
736 2 0.234558 0.179317 0.11703
738 4 0.245408 0.186527 0.0956888
737 4 0.223707 0.172108 0.138372
461 4 0.303843 0.232999 0.0969992
460 2 0.325895 0.233495 0.108774
354 4 0.284015 0.231127 0.107342
352 2 0.274418 0.239372 0.128908
353 4 0.264821 0.247618 0.150473
278 4 0.255083 0.237649 0.161993
254 4 0.348785 0.179593 0.15757
462 4 0.347947 0.233991 0.120548
255 4 0.355955 0.219769 0.128669
253 2 0.35237 0.199681 0.14312
765 4 0.354583 0.241665 0.135877
624 4 0.368362 0.232599 0.127088
622 2 0.383342 0.230033 0.107234
763 2 0.344784 0.252569 0.156132
483 4 0.209287 0.299961 0.102474
506 4 0.191876 0.303254 0.0907633
537 4 0.187314 0.320569 0.0974317
535 2 0.188384 0.327296 0.121489
755 4 0.247152 0.253116 0.148941
754 2 0.239689 0.274751 0.159009
387 4 0.310913 0.3142 0.118096
301 2 0.310419 0.312793 0.162125
302 4 0.309504 0.319945 0.138184
284 4 0.270748 0.2518 0.167556
385 2 0.332535 0.320846 0.107444
15 3 0.363409 0.326118 0.115296
386 4 0.354158 0.327492 0.0967923
12 3 0.400159 0.32236 0.120602
672 4 0.404251 0.329464 0.0965993
528 4 0.482817 0.265011 0.0942334
526 2 0.468949 0.285612 0.0913279
527 4 0.45508 0.306213 0.0884223
315 4 0.0102138 0.382187 0.106243
647 4 0.054748 0.362462 0.164478
417 4 0.149603 0.406701 0.142012
415 2 0.172336 0.396616 0.144597
536 4 0.189454 0.334023 0.145547
291 4 0.203784 0.392201 0.12975
289 2 0.226789 0.401721 0.13206
416 4 0.19507 0.386531 0.147181
493 2 0.389168 0.384292 0.0790939
494 4 0.389378 0.409266 0.0779065
14 3 0.387541 0.342877 0.0917498
740 4 0.369035 0.332807 0.0898269
11 1 0.383521 0.336689 0.113749
13 3 0.383677 0.355446 0.127408
595 2 0.484099 0.404086 0.127008
597 4 0.496676 0.403391 0.148606
645 4 0.487982 0.407067 0.166224
596 4 0.471521 0.40478 0.105409
104 3 0.499979 0.3621 0.148984
1791 4 0.0751035 0.48221 0.128537
1466 4 0.0563075 0.477872 0.133091
1465 2 0.0403215 0.478054 0.152315
627 4 0.193408 0.458252 0.0785925
290 4 0.249794 0.41124 0.13437
638 4 0.247345 0.481657 0.119273
607 2 0.305759 0.418614 0.0933564
608 4 0.32452 0.432519 0.102292
768 4 0.248512 0.427849 0.122127
767 4 0.255823 0.475283 0.136174
766 2 0.252168 0.451566 0.12915
1673 4 0.399196 0.43796 0.0900493
659 4 0.34095 0.443244 0.103431
660 4 0.383673 0.427911 0.0824473
658 2 0.362311 0.435577 0.092939
1559 4 0.361589 0.496746 0.111899
1558 2 0.340179 0.495908 0.0990122
524 4 0.380326 0.492757 0.105718
16 1 0.0710998 0.0462374 0.17554
19 3 0.0660305 0.0685232 0.171534
17 3 0.0528743 0.0360927 0.185239
2480 4 0.0342726 0.0319811 0.1882
1422 4 0.0297586 0.0136764 0.193313
2479 2 0.0188447 0.0492302 0.197667
380 4 0.994563 0.0836688 0.204736
20 3 0.0889124 0.0447354 0.18965
578 4 0.0981853 0.0620025 0.183949
674 4 0.146255 0.0137252 0.215258
673 2 0.132655 0.00781373 0.23539
689 4 0.15846 0.00667094 0.203883
577 2 0.121831 0.0701177 0.184407
579 4 0.145476 0.0782328 0.184865
1504 2 0.236376 0.992795 0.17941
652 2 0.295204 0.0186031 0.194384
654 4 0.279219 0.00811603 0.17827
1506 4 0.259632 0.0019767 0.179228
653 4 0.31119 0.0290901 0.210498
25 3 0.330886 0.0460685 0.241945
311 4 0.381789 0.0639824 0.17702
758 4 0.380987 0.0552113 0.194283
759 4 0.351564 0.0593433 0.234506
757 2 0.366275 0.0572773 0.214394
511 2 0.038269 0.152131 0.207044
513 4 0.0620109 0.15469 0.214457
381 4 0.00932594 0.131421 0.206305
512 4 0.0145271 0.149573 0.19963
379 2 0.00194453 0.107545 0.205521
393 4 0.0805789 0.160127 0.210205
450 4 0.145492 0.086567 0.16798
448 2 0.164911 0.101352 0.16255
391 2 0.0878574 0.162275 0.234029
691 2 0.228198 0.0997279 0.251492
693 4 0.212091 0.0864888 0.237691
236 4 0.188576 0.127819 0.17246
581 4 0.286063 0.148865 0.16737
26 1 0.32294 0.156305 0.244408
30 3 0.300545 0.160194 0.243009
28 3 0.32773 0.134852 0.236976
521 4 0.484808 0.143174 0.209902
332 4 0.479398 0.12738 0.219294
762 4 0.472118 0.145902 0.22389
760 2 0.451104 0.153655 0.235002
331 2 0.489312 0.106083 0.227856
394 2 0.0233247 0.228032 0.23688
395 4 0.0444614 0.223177 0.224436
396 4 0.00218797 0.232888 0.249324
279 4 0.259989 0.19458 0.186928
277 2 0.257536 0.216115 0.17446
27 3 0.3341 0.171433 0.23115
338 4 0.052593 0.250711 0.179336
363 4 0.0586177 0.269546 0.183056
361 2 0.0690806 0.287216 0.19732
749 4 0.0681564 0.318479 0.217225
648 4 0.0612129 0.327243 0.199386
362 4 0.0795435 0.304887 0.211584
370 2 0.120312 0.301695 0.22663
372 4 0.0974123 0.295368 0.218835
371 4 0.143212 0.308022 0.234424
734 4 0.15027 0.323091 0.244984
756 4 0.232225 0.296387 0.169077
610 2 0.239329 0.301523 0.211382
612 4 0.230299 0.303781 0.188175
611 4 0.248359 0.299265 0.234588
285 4 0.315352 0.269468 0.181663
283 2 0.29305 0.260634 0.174609
307 2 0.327902 0.292898 0.21111
308 4 0.319581 0.287404 0.188181
303 4 0.311334 0.305641 0.186067
729 4 0.305546 0.317763 0.200289
498 4 0.323209 0.295989 0.24933
309 4 0.336224 0.298392 0.234039
764 4 0.334985 0.263473 0.176387
748 2 0.0750462 0.334037 0.235547
646 2 0.0579805 0.344853 0.181932
727 2 0.296041 0.339286 0.20875
728 4 0.286537 0.360809 0.217212
446 4 0.424926 0.357063 0.227838
445 2 0.428685 0.376766 0.212911
447 4 0.432445 0.396469 0.197983
644 4 0.450102 0.406069 0.198857
643 2 0.469042 0.406568 0.182541
1467 4 0.0243355 0.478237 0.17154
414 4 0.214672 0.474343 0.246384
229 2 0.464159 0.487829 0.238274
234 4 0.00883155 0.0424271 0.280161
232 2 0.0335203 0.0384798 0.279911
233 4 0.0582091 0.0345324 0.27966
1404 4 0.0707548 0.0221408 0.286166
316 2 0.0821083 0.0527518 0.305606
317 4 0.0681934 0.0332534 0.298438
428 4 0.0733082 0.0150621 0.303606
427 2 0.0655622 0.999827 0.321856
1402 2 0.0856066 0.0100006 0.270128
318 4 0.0960232 0.0722501 0.312773
732 4 0.110112 0.0826024 0.319365
24 3 0.321898 0.0728016 0.26689
21 1 0.33891 0.0593834 0.258588
23 3 0.347725 0.0463226 0.275621
22 3 0.355556 0.0728409 0.250163
349 2 0.392416 0.0761084 0.258865
351 4 0.413639 0.0656572 0.266962
479 4 0.458846 0.0315364 0.294306
478 2 0.443374 0.0422542 0.277847
2664 4 0.47736 0.0313561 0.302255
480 4 0.427901 0.052972 0.261388
1428 4 0.462637 0.0213151 0.307345
258 4 0.447668 0.0332277 0.310704
256 2 0.437874 0.0413122 0.332242
399 4 0.0891397 0.0869335 0.322037
721 2 0.238729 0.129251 0.299119
722 4 0.227764 0.131092 0.321514
723 4 0.249695 0.127409 0.276724
692 4 0.244306 0.112967 0.265292
29 3 0.330066 0.158865 0.266342
632 4 0.364476 0.0963773 0.26701
350 4 0.371194 0.0865596 0.250768
631 2 0.350869 0.116895 0.262643
707 4 0.34368 0.149146 0.273739
633 4 0.337262 0.137412 0.258277
706 2 0.345641 0.162276 0.294928
761 4 0.43009 0.161407 0.246114
392 4 0.0951359 0.164423 0.257853
546 4 0.145705 0.170465 0.286218
544 2 0.151874 0.191945 0.275005
545 4 0.158042 0.213425 0.263793
402 4 0.171051 0.223933 0.273058
400 2 0.182748 0.245703 0.276853
474 4 0.185782 0.218821 0.33379
276 4 0.17477 0.20238 0.329361
378 4 0.258808 0.251665 0.314896
708 4 0.347601 0.175405 0.316116
419 4 0.424879 0.232031 0.327531
401 4 0.194444 0.267474 0.280648
676 2 0.18053 0.291451 0.30976
345 4 0.198126 0.284602 0.274275
677 4 0.186336 0.286354 0.28598
343 2 0.219262 0.292716 0.263663
735 4 0.184349 0.300269 0.273593
733 2 0.167309 0.31168 0.259289
344 4 0.240397 0.300831 0.253051
678 4 0.174725 0.296549 0.33354
376 2 0.276011 0.262806 0.300574
496 2 0.309987 0.278078 0.260714
497 4 0.296765 0.260168 0.272097
377 4 0.293214 0.273946 0.286252
541 2 0.393026 0.305066 0.318675
542 4 0.41322 0.290503 0.316374
543 4 0.372832 0.31963 0.320975
420 4 0.418297 0.275962 0.304565
418 2 0.421588 0.253996 0.316048
264 4 0.0026065 0.408499 0.264268
365 4 0.0272705 0.37039 0.288135
601 2 0.041599 0.38573 0.326093
603 4 0.0349082 0.371449 0.306691
364 2 0.00281559 0.368162 0.292843
299 4 0.146452 0.337719 0.257189
750 4 0.0819359 0.349594 0.253868
298 2 0.123306 0.347123 0.258182
300 4 0.10016 0.356527 0.259176
433 2 0.299637 0.379689 0.315898
435 4 0.276258 0.379545 0.307032
434 4 0.323015 0.379834 0.324765
614 4 0.339478 0.372721 0.334776
615 4 0.37218 0.334929 0.333033
613 2 0.355829 0.353825 0.333905
2461 2 0.9877 0.490631 0.313021
1757 4 0.0700542 0.437449 0.273554
776 4 0.0712059 0.508982 0.31706
1775 4 0.104937 0.491478 0.259921
1756 2 0.0826232 0.456107 0.262642
1758 4 0.0951921 0.474765 0.25173
777 4 0.0892152 0.496634 0.272072
775 2 0.0802106 0.502808 0.294566
412 2 0.219162 0.462145 0.267744
1436 4 0.216002 0.443877 0.30644
413 4 0.223653 0.449948 0.289103
1435 2 0.235963 0.439623 0.320884
3 3 0.293061 0.465631 0.318333
1801 2 0.366069 0.491095 0.294456
437 4 0.356999 0.480044 0.336613
1802 4 0.360292 0.487206 0.31847
231 4 0.481727 0.477721 0.252915
712 2 0.464384 0.465584 0.332445
713 4 0.439657 0.467392 0.329203
1742 4 0.431281 0.485888 0.326803
730 2 0.126651 0.0697732 0.333041
1780 2 0.123914 0.0141755 0.404625
731 4 0.14319 0.056944 0.346718
606 4 0.1586 0.0670975 0.351082
604 2 0.183056 0.0680929 0.345973
605 4 0.207511 0.0690883 0.340864
1701 4 0.327295 0.0331254 0.393613
441 4 0.318219 0.0191968 0.403473
425 4 0.33292 0.0286865 0.411917
683 4 0.258663 0.0878175 0.371093
698 4 0.41016 0.0517034 0.345715
1699 2 0.335147 0.0385024 0.370491
1700 4 0.342998 0.0438794 0.347369
699 4 0.360798 0.0475979 0.338837
697 2 0.385479 0.0496507 0.342276
257 4 0.428079 0.0493966 0.35378
2879 4 0.492791 0.0705873 0.401515
2489 4 0.000196328 0.108492 0.395356
397 2 0.0748581 0.100796 0.337171
2584 2 0.0215959 0.103831 0.351542
398 4 0.0605765 0.114658 0.352306
2586 4 0.0422299 0.114419 0.360886
458 4 0.0495533 0.12724 0.375453
457 2 0.0421028 0.144541 0.391895
459 4 0.0346523 0.161843 0.408337
600 4 0.138424 0.133418 0.408023
598 2 0.137868 0.153802 0.393554
248 4 0.224715 0.0760702 0.348207
249 4 0.225723 0.12552 0.34083
247 2 0.225219 0.100795 0.344519
403 2 0.234968 0.167393 0.339739
404 4 0.228785 0.143734 0.334527
682 2 0.272271 0.101538 0.38696
319 2 0.316888 0.142416 0.395339
684 4 0.285879 0.115259 0.402826
320 4 0.304505 0.121451 0.401025
321 4 0.329271 0.16338 0.389654
725 4 0.405461 0.095265 0.404401
2878 2 0.496431 0.0921372 0.413661
717 4 0.445292 0.145759 0.346585
260 4 0.041273 0.177355 0.420393
259 2 0.0611392 0.192485 0.419127
261 4 0.0810054 0.207615 0.41786
599 4 0.137313 0.174186 0.379084
389 4 0.111358 0.24345 0.365073
686 4 0.131156 0.187411 0.392523
685 2 0.113532 0.202175 0.40235
275 4 0.142139 0.184519 0.362781
274 2 0.158454 0.193449 0.346071
687 4 0.0959071 0.216939 0.412177
472 2 0.209416 0.21434 0.340612
405 4 0.241152 0.191053 0.34495
473 4 0.233049 0.209859 0.347434
466 2 0.408976 0.198588 0.40452
467 4 0.412176 0.196023 0.379855
716 4 0.420078 0.177959 0.375362
269 4 0.444524 0.23432 0.330321
715 2 0.432685 0.161859 0.360973
270 4 0.468584 0.228535 0.373777
452 4 0.469965 0.209139 0.381475
268 2 0.456554 0.231427 0.352049
451 2 0.465778 0.210013 0.40611
616 2 0.0870559 0.317827 0.364752
618 4 0.0679189 0.324973 0.379171
388 2 0.109747 0.267592 0.358765
390 4 0.108137 0.291733 0.352457
617 4 0.106193 0.310681 0.350334
374 4 0.122733 0.304625 0.358512
373 2 0.144155 0.310114 0.346843
375 4 0.165577 0.315603 0.335175
509 4 0.205 0.323587 0.364726
347 4 0.0684538 0.344717 0.384042
549 4 0.0545344 0.409325 0.361457
602 4 0.0482899 0.400012 0.345496
346 2 0.0514467 0.353431 0.400167
510 4 0.235487 0.347808 0.333348
508 2 0.220244 0.335697 0.349037
668 4 0.322492 0.383765 0.411536
336 4 0.320432 0.371093 0.39496
667 2 0.318868 0.406753 0.420678
334 2 0.342836 0.360501 0.391629
335 4 0.365239 0.34991 0.388299
240 4 0.376706 0.339998 0.402594
238 2 0.395662 0.356183 0.404558
2537 4 0.499915 0.34276 0.341323
752 4 0.480082 0.407559 0.392902
561 4 0.47529 0.39067 0.403254
587 4 0.419696 0.391102 0.403179
239 4 0.414619 0.372369 0.406522
547 2 0.0669237 0.426152 0.375188
548 4 0.0793131 0.442979 0.388919
500 4 0.0734735 0.509411 0.337658
407 4 0.0873953 0.459313 0.379956
406 2 0.101573 0.463848 0.400046
1556 4 0.240552 0.488946 0.400972
1544 4 0.22889 0.486641 0.417497
636 4 0.298124 0.480909 0.408845
1555 2 0.265036 0.493934 0.40187
5 3 0.266449 0.471543 0.344304
1557 4 0.289521 0.498922 0.402768
1 1 0.283755 0.458058 0.338194
438 4 0.30916 0.465572 0.334978
1437 4 0.255925 0.435369 0.335328
4 3 0.276271 0.436246 0.335625
2 3 0.299869 0.458508 0.354604
436 2 0.333079 0.472808 0.335795
593 4 0.402343 0.454144 0.379685
592 2 0.414658 0.464181 0.360377
588 4 0.403567 0.435445 0.386617
714 4 0.489111 0.463776 0.335687
586 2 0.411631 0.413273 0.394898
753 4 0.503502 0.437709 0.360603
117 3 0.49606 0.45949 0.356434
751 2 0.491792 0.422634 0.376752
594 4 0.426972 0.474218 0.34107
367 2 0.0776016 0.0282648 0.434525
369 4 0.0542879 0.0193428 0.433094
719 4 0.0363519 0.0258898 0.426366
718 2 0.015382 0.0228903 0.439649
1781 4 0.113545 0.0287359 0.422108
368 4 0.100915 0.0371867 0.435956
962 4 0.316828 0.0254951 0.422653
961 2 0.301248 0.0393027 0.436502
963 4 0.285668 0.0531104 0.450351
432 4 0.296527 0.0660739 0.459338
430 2 0.306539 0.0741093 0.480794
424 2 0.355582 0.0291081 0.422473
426 4 0.378245 0.0295297 0.433028
726 4 0.417765 0.0928404 0.45281
431 4 0.316551 0.0821447 0.50225
724 2 0.411613 0.0940527 0.428606
2880 4 0.500072 0.113687 0.425807
642 4 0.499258 0.109242 0.444019
640 2 0.480559 0.116597 0.4589
641 4 0.461861 0.123952 0.473781
696 4 0.0915507 0.24969 0.482191
1035 4 0.0831846 0.224538 0.426247
1033 2 0.090883 0.23908 0.445074
1034 4 0.0985815 0.253622 0.4639
488 4 0.307895 0.232141 0.446684
487 2 0.33018 0.241009 0.453748
468 4 0.405777 0.201153 0.429185
411 4 0.368714 0.239583 0.459841
516 4 0.412507 0.198594 0.459977
409 2 0.3885 0.225934 0.452956
410 4 0.408286 0.212286 0.446071
575 4 0.410867 0.184884 0.47417
266 4 0.361612 0.242286 0.477391
489 4 0.352465 0.249878 0.460812
265 2 0.360667 0.240816 0.502333
583 2 0.502692 0.233034 0.463092
514 2 0.436802 0.200912 0.45454
515 4 0.461097 0.20323 0.449103
453 4 0.461592 0.210887 0.430745
584 4 0.501917 0.249248 0.48211
2802 4 0.014055 0.301085 0.426706
1258 2 0.120925 0.275613 0.478693
1259 4 0.131248 0.298379 0.478139
9 3 0.152086 0.305842 0.483362
1260 4 0.110601 0.252846 0.479247
6 1 0.13808 0.324047 0.480076
7 3 0.116481 0.316485 0.477734
348 4 0.0344396 0.362146 0.416291
326 4 0.0593367 0.351147 0.479325
325 2 0.0825642 0.342106 0.477346
384 4 0.118025 0.419858 0.470578
10 3 0.144192 0.335249 0.461213
327 4 0.105792 0.333065 0.475366
709 2 0.154713 0.400438 0.475995
711 4 0.130039 0.403885 0.473876
503 4 0.197212 0.342196 0.492376
502 2 0.196584 0.367089 0.490119
710 4 0.179387 0.396992 0.478114
504 4 0.195955 0.391983 0.487862
882 4 0.358651 0.34653 0.493776
559 2 0.490773 0.391129 0.422881
3307 2 0.495119 0.375018 0.476759
3308 4 0.479652 0.373025 0.496303
570 4 0.165221 0.496483 0.435409
408 4 0.11575 0.468382 0.420136
382 2 0.116202 0.436864 0.452339
569 4 0.13089 0.460877 0.428037
383 4 0.114379 0.45387 0.4341
568 2 0.148056 0.47868 0.431723
1545 4 0.182105 0.50091 0.427905
1543 2 0.205498 0.493775 0.422701
634 2 0.312339 0.463272 0.419432
669 4 0.315244 0.429742 0.42982
635 4 0.326554 0.445636 0.430018
772 2 0.334235 0.437998 0.46765
773 4 0.33986 0.444316 0.491179
774 4 0.32861 0.43168 0.44412
663 4 0.486549 0.476945 0.447729
342 4 0.217254 0.0489313 0.524474
340 2 0.195317 0.0388131 0.518026
341 4 0.173381 0.0286949 0.511578
2430 4 0.162308 0.0128469 0.517521
1152 4 0.224528 0.0611515 0.510449
1150 2 0.230937 0.0767259 0.52893
1030 2 0.255016 0.0639672 0.577081
1217 4 0.386322 0.0630091 0.519327
842 4 0.369442 0.0688877 0.530014
1216 2 0.397833 0.046341 0.504669
841 2 0.352202 0.0766731 0.513663
3007 2 0.487777 0.0433243 0.575578
1218 4 0.409344 0.0296729 0.490011
470 4 0.00425542 0.157595 0.505897
1058 4 0.0836699 0.111288 0.520113
1057 2 0.0911552 0.115387 0.543615
1059 4 0.0986406 0.119485 0.567118
1155 4 0.112305 0.128745 0.576959
1271 4 0.104899 0.141325 0.58798
1153 2 0.137113 0.130245 0.579692
1151 4 0.237346 0.0923003 0.547411
1032 4 0.24212 0.0809477 0.564023
1180 2 0.22112 0.130402 0.540026
1181 4 0.225619 0.108988 0.552126
1182 4 0.216621 0.151815 0.527926
843 4 0.334963 0.0844586 0.497312
576 4 0.404112 0.160735 0.517436
1198 2 0.00482643 0.221232 0.559266
695 4 0.0709241 0.224278 0.52
1199 4 0.0238262 0.21519 0.574355
694 2 0.0812374 0.236984 0.501095
900 4 0.22859 0.165912 0.52017
856 2 0.226301 0.247452 0.528153
857 4 0.208734 0.246865 0.545937
898 2 0.249888 0.178512 0.523751
650 4 0.283922 0.200562 0.51739
899 4 0.271186 0.191112 0.527331
649 2 0.296179 0.222229 0.519732
651 4 0.308436 0.243896 0.522073
267 4 0.359723 0.239345 0.527275
574 2 0.40749 0.17281 0.495803
1245 4 0.0486845 0.286191 0.591034
798 4 0.215837 0.261314 0.576984
947 4 0.204214 0.24742 0.565171
946 2 0.18446 0.262461 0.568127
948 4 0.164707 0.277502 0.571084
796 2 0.240482 0.265439 0.577877
1136 4 0.164255 0.29642 0.579267
858 4 0.243867 0.248039 0.51037
872 4 0.349413 0.287389 0.569789
871 2 0.357403 0.304423 0.586257
813 4 0.378508 0.330005 0.590568
2457 4 0.493296 0.300525 0.510178
1010 4 0.478013 0.309634 0.520898
2455 2 0.500539 0.277067 0.505442
8 3 0.139111 0.338244 0.4984
803 4 0.269744 0.357557 0.561381
804 4 0.288108 0.392384 0.530551
802 2 0.278926 0.374971 0.545966
930 4 0.328233 0.385047 0.580392
928 2 0.347073 0.384303 0.563969
929 4 0.365913 0.38356 0.547547
881 4 0.360193 0.382422 0.528562
880 2 0.359422 0.364476 0.511169
1011 4 0.473995 0.357163 0.50588
1009 2 0.476004 0.333399 0.513389
926 4 0.462008 0.400061 0.587343
1002 4 0.479201 0.409798 0.584626
540 4 0.0913921 0.477635 0.58751
2244 4 0.0925276 0.487303 0.570957
2154 4 0.21434 0.503811 0.563889
1910 4 0.420131 0.480993 0.555326
889 2 0.331614 0.498619 0.575168
1953 4 0.409884 0.49783 0.54994
1952 4 0.364774 0.502078 0.571102
1951 2 0.387329 0.499954 0.560521
890 4 0.348821 0.513734 0.565135
1909 2 0.441056 0.476414 0.568223
1081 2 0.0602163 0.0807225 0.642576
1082 4 0.0671872 0.0767855 0.666263
2114 4 0.00663555 0.0104146 0.61274
825 4 0.158935 0.037091 0.658701
1283 4 0.140442 0.0429723 0.656742
823 2 0.178742 0.0218932 0.657336
824 4 0.19855 0.00669531 0.65597
1031 4 0.267913 0.0469866 0.59014
951 4 0.286125 0.0369905 0.593808
949 2 0.302758 0.0187312 0.589919
950 4 0.31939 0.00047182 0.586029
3008 4 0.474087 0.0353849 0.594936
809 4 0.478396 0.0422339 0.613153
808 2 0.470325 0.0565988 0.63196
810 4 0.462254 0.0709637 0.650766
1083 4 0.0532453 0.0846596 0.618889
1127 4 0.0416435 0.0973949 0.608031
1126 2 0.0172636 0.0996717 0.60297
938 4 0.0706755 0.0873396 0.611213
939 4 0.0976561 0.12154 0.586655
937 2 0.0841658 0.10444 0.598934
1270 2 0.090557 0.158321 0.599408
1154 4 0.161922 0.131744 0.582424
1221 4 0.180224 0.130299 0.587167
1219 2 0.195305 0.143215 0.602363
1220 4 0.210386 0.156132 0.617558
1212 4 0.227079 0.166318 0.614801
1194 4 0.310765 0.154434 0.660342
887 4 0.308009 0.163474 0.678001
1192 2 0.331475 0.143801 0.651219
1193 4 0.352185 0.133169 0.642096
45 3 0.46326 0.0942684 0.653271
3424 2 0.497897 0.111943 0.66679
1244 4 0.0431805 0.240428 0.571638
878 4 0.0380831 0.224736 0.584539
877 2 0.0529137 0.205227 0.589502
879 4 0.0677443 0.185718 0.594465
1272 4 0.0762151 0.175318 0.610837
1210 2 0.246277 0.173913 0.628905
1211 4 0.265475 0.181509 0.643009
886 2 0.289448 0.177531 0.668888
888 4 0.270886 0.191589 0.659774
954 4 0.518741 0.252654 0.584252
982 2 0.0207681 0.313589 0.589872
983 4 0.0383642 0.300098 0.601428
1243 2 0.0459325 0.263309 0.581336
1137 4 0.161562 0.336623 0.608883
1135 2 0.162909 0.316521 0.594075
822 4 0.155757 0.318708 0.651932
820 2 0.148024 0.299469 0.665905
1064 4 0.173702 0.324712 0.644409
797 4 0.265126 0.269565 0.578771
792 4 0.289688 0.321737 0.596766
791 4 0.282329 0.272683 0.590421
790 2 0.286009 0.29721 0.593593
806 4 0.281415 0.344791 0.657198
873 4 0.365394 0.321456 0.602725
1041 4 0.0655707 0.371902 0.649662
3264 4 0.0455967 0.373849 0.652566
3262 2 0.0472451 0.361799 0.674412
3240 4 0.0325408 0.386429 0.643221
1039 2 0.0839736 0.382455 0.636427
3238 2 0.0191436 0.407277 0.639899
1040 4 0.102376 0.393008 0.623193
993 4 0.115295 0.378541 0.629554
991 2 0.13217 0.364922 0.617106
992 4 0.149045 0.351302 0.604659
1063 2 0.184318 0.342602 0.658281
897 4 0.168552 0.35265 0.601919
1189 2 0.245428 0.374326 0.592899
896 4 0.210894 0.379255 0.602042
895 2 0.189723 0.365952 0.60198
1172 4 0.23747 0.40431 0.61103
1191 4 0.228014 0.385975 0.606545
1065 4 0.194934 0.360492 0.672153
1190 4 0.262842 0.362677 0.579252
1239 4 0.316864 0.380023 0.596925
1238 4 0.300457 0.333954 0.607371
1237 2 0.308661 0.356988 0.602148
811 2 0.40202 0.338506 0.590851
1204 2 0.393348 0.389503 0.614653
1205 4 0.373672 0.398196 0.627399
1206 4 0.413024 0.38081 0.601907
925 2 0.443098 0.38398 0.590343
927 4 0.424188 0.367899 0.593343
812 4 0.425532 0.347007 0.591134
539 4 0.0713052 0.432391 0.594593
538 2 0.0813486 0.455013 0.591051
3239 4 0.00574638 0.428125 0.636576
1160 4 0.107655 0.475149 0.577727
1159 2 0.131121 0.479311 0.585292
1161 4 0.154586 0.483472 0.592857
1171 2 0.221426 0.422247 0.617814
1188 4 0.171184 0.485922 0.60284
1186 2 0.182097 0.469745 0.618473
1173 4 0.205382 0.440185 0.624597
1187 4 0.19301 0.453568 0.634107
891 4 0.314407 0.483505 0.585201
1000 2 0.47751 0.434735 0.585305
1911 4 0.461982 0.471835 0.58112
1001 4 0.475819 0.459672 0.585985
1269 4 0.465734 0.470593 0.599205
1267 2 0.467519 0.486009 0.618809
945 4 0.0446496 0.00418336 0.678053
943 2 0.0468355 0.0282978 0.68429
944 4 0.0490214 0.0524122 0.690527
1076 4 0.0618212 0.0635111 0.678648
1075 2 0.0662851 0.080352 0.696582
1282 2 0.142404 0.0620045 0.672838
1284 4 0.144366 0.0810368 0.688935
1147 2 0.251701 0.0637399 0.684666
1149 4 0.249338 0.0411682 0.674173
1092 4 0.301322 0.00356759 0.690257
1004 4 0.319212 0.0769663 0.750973
42 3 0.454323 0.0621754 0.670095
1163 4 0.468392 0.0674672 0.687834
1162 2 0.484695 0.054667 0.701818
1113 4 0.422928 0.0720856 0.74729
864 4 0.0601157 0.0945022 0.73218
1077 4 0.0707491 0.0971928 0.714516
1107 4 0.0769079 0.103087 0.731589
851 4 0.0835934 0.112598 0.716549
862 2 0.0385159 0.0915779 0.744431
850 2 0.0865013 0.133327 0.702872
852 4 0.0894092 0.154055 0.689195
1105 2 0.0971772 0.0992395 0.745714
909 4 0.16293 0.0856147 0.686142
907 2 0.18018 0.102747 0.69198
908 4 0.197431 0.119879 0.697818
1227 4 0.215344 0.129026 0.693855
1225 2 0.236632 0.116352 0.690488
1226 4 0.257921 0.103678 0.687121
1148 4 0.254065 0.0863117 0.695159
829 2 0.31923 0.148847 0.705361
831 4 0.335692 0.132219 0.714176
1005 4 0.326158 0.116 0.720496
1003 2 0.322685 0.0964831 0.735735
830 4 0.302768 0.165475 0.696547
41 1 0.455383 0.0850242 0.672536
43 3 0.434099 0.0930811 0.677059
44 3 0.469654 0.0900336 0.690133
3425 4 0.477372 0.0981904 0.670629
1025 4 0.430061 0.164206 0.676853
1024 2 0.44065 0.169874 0.698783
1177 2 0.00852541 0.240789 0.719601
1073 4 0.0647438 0.240209 0.738409
1072 2 0.0896901 0.241817 0.738935
1074 4 0.114636 0.243424 0.73946
1208 4 0.133632 0.239938 0.735643
1130 4 0.143088 0.246085 0.751091
978 4 0.310481 0.19703 0.721359
976 2 0.300456 0.204681 0.742949
1142 4 0.453314 0.168241 0.737378
1144 2 0.48998 0.169454 0.733497
1262 4 0.456319 0.193918 0.719802
1026 4 0.45124 0.175543 0.720713
1261 2 0.458881 0.218454 0.715732
1145 4 0.467561 0.177105 0.725495
1263 4 0.461443 0.242991 0.711662
1179 4 0.0293923 0.252004 0.711603
1209 4 0.143559 0.27054 0.697359
1207 2 0.138595 0.255239 0.716501
821 4 0.140291 0.28023 0.679878
807 4 0.238916 0.338436 0.682775
805 2 0.260165 0.341613 0.669986
1019 4 0.36877 0.314491 0.709433
1018 2 0.377151 0.332857 0.69468
3123 4 0.480654 0.27549 0.666985
3263 4 0.0488935 0.349749 0.696259
1279 2 0.0446019 0.38879 0.751094
1281 4 0.0458781 0.412876 0.744505
894 4 0.0280665 0.354122 0.74986
892 2 0.0101799 0.336652 0.750079
1028 4 0.227017 0.37806 0.704543
1066 2 0.195279 0.368162 0.734399
1068 4 0.207639 0.374871 0.713725
1027 2 0.236712 0.397988 0.692965
1020 4 0.385532 0.351222 0.679927
1983 4 0.0484816 0.43154 0.739247
1981 2 0.0606316 0.451644 0.747814
2172 4 0.127008 0.49966 0.678362
2016 4 0.17314 0.493934 0.725602
1029 4 0.246408 0.417915 0.681386
1175 4 0.200494 0.44139 0.731148
1174 2 0.183749 0.458853 0.724835
1176 4 0.167005 0.476316 0.718522
1140 4 0.236662 0.436195 0.681582
1138 2 0.258287 0.44854 0.683851
1139 4 0.279911 0.460885 0.686121
1987 2 0.288787 0.455355 0.730808
1229 4 0.296303 0.453753 0.692849
1989 4 0.29989 0.462448 0.709557
2028 4 0.297635 0.470617 0.690617
1228 2 0.315108 0.445019 0.678876
2026 2 0.296448 0.495524 0.692458
1230 4 0.333913 0.436285 0.664902
2991 4 0.000955632 0.0444221 0.806126
2989 2 0.00590737 0.0620042 0.789052
2049 4 0.120602 0.0199922 0.794954
1202 4 0.106303 0.0331488 0.8034
2047 2 0.131821 0.011078 0.774463
1201 2 0.11437 0.0565454 0.799837
1203 4 0.122438 0.0799419 0.796273
817 2 0.324609 0.0408733 0.823861
1085 4 0.312795 0.0813295 0.833125
818 4 0.333712 0.0195833 0.814424
819 4 0.315507 0.0621634 0.833298
974 4 0.343248 0.00709879 0.803723
1111 2 0.446857 0.0661657 0.751479
845 4 0.484029 0.0649976 0.76973
1112 4 0.470785 0.0602459 0.755669
833 4 0.00806007 0.098158 0.772062
832 2 0.0169317 0.114864 0.788414
2990 4 0.0108591 0.0795864 0.771978
863 4 0.0169161 0.0886537 0.756681
1125 4 0.029852 0.147675 0.815487
834 4 0.0258033 0.13157 0.804766
1106 4 0.117447 0.095392 0.75984
911 4 0.119893 0.112983 0.81777
34 3 0.126527 0.0931794 0.777838
31 1 0.134072 0.105021 0.796311
35 3 0.122519 0.124549 0.798272
32 3 0.130709 0.0922999 0.815179
33 3 0.156754 0.109421 0.794175
1255 2 0.244079 0.0935191 0.783627
1256 4 0.227753 0.105698 0.798128
840 4 0.234194 0.107185 0.817056
838 2 0.236694 0.125848 0.833507
1257 4 0.260406 0.0813401 0.769125
1084 2 0.303358 0.0932158 0.813255
1086 4 0.29392 0.105102 0.793384
1023 4 0.394873 0.157201 0.816325
1052 4 0.409368 0.147377 0.827756
1021 2 0.373445 0.145389 0.821474
844 2 0.490406 0.0818114 0.787102
1129 2 0.159396 0.240007 0.769044
1131 4 0.175703 0.233928 0.786996
1277 4 0.191218 0.243998 0.794385
977 4 0.29043 0.212333 0.764539
918 4 0.28294 0.230945 0.767244
1298 4 0.284567 0.219145 0.781651
1297 2 0.286104 0.206918 0.803407