ITEM: TIMESTEP
2380000
ITEM: NUMBER OF ATOMS
4590
ITEM: BOX BOUNDS pp pp pp
-9.9985700000000008e+00 9.9985700000000008e+00
-9.9985700000000008e+00 9.9985700000000008e+00
-9.9985700000000008e+00 9.9985700000000008e+00
ITEM: ATOMS id type xs ys zs
2974 2 0.468243 0.014417 0.0114365
745 2 0.439028 0.0681733 0.0164281
747 4 0.443532 0.0437317 0.0191669
2975 4 0.450422 0.0312628 0.00655513
986 4 0.432654 0.0368862 0.00361324
1667 4 0.0325012 0.0888579 0.0705973
701 4 0.0269863 0.105165 0.0782945
700 2 0.037047 0.128054 0.0785187
566 4 0.193883 0.141826 0.0369092
565 2 0.210279 0.152593 0.0214037
297 4 0.334195 0.0991338 0.0373857
295 2 0.348144 0.103993 0.0172114
556 2 0.402497 0.113881 0.0075837
558 4 0.425526 0.111212 0.016951
746 4 0.434524 0.0926149 0.0136894
555 4 0.0274808 0.243384 0.999917
738 4 0.231902 0.202117 0.0720959
770 4 0.398201 0.191348 0.0209881
359 4 0.379754 0.192952 0.0226608
664 2 0.392875 0.212413 0.0525739
665 4 0.3917 0.191435 0.0390192
666 4 0.394051 0.23339 0.0661286
323 4 0.410428 0.241915 0.070286
358 2 0.357245 0.188714 0.0126331
769 2 0.410335 0.177852 0.00379016
360 4 0.334736 0.184475 0.00260538
292 2 0.137847 0.300693 0.0463449
507 4 0.170155 0.319042 0.0629021
293 4 0.156677 0.315802 0.0528502
294 4 0.119016 0.285585 0.0398396
552 4 0.152325 0.326417 0.0676178
455 4 0.163648 0.334675 0.054748
287 4 0.171983 0.321743 0.0434658
286 2 0.1869 0.31185 0.0260073
505 2 0.183375 0.305878 0.0795495
481 2 0.226004 0.267759 0.0746535
482 4 0.243745 0.25504 0.0624619
288 4 0.201817 0.301957 0.00854885
573 4 0.244955 0.255415 0.0410238
571 2 0.26443 0.252939 0.0255396
572 4 0.283906 0.250463 0.0100555
357 4 0.297433 0.263228 0.000511096
956 4 0.337723 0.313551 0.00232568
1069 2 0.410466 0.315207 0.0360736
322 2 0.418689 0.260324 0.0555205
955 2 0.354962 0.321563 0.0185685
957 4 0.3722 0.329575 0.0348114
1071 4 0.391834 0.331291 0.0316766
324 4 0.42695 0.278734 0.040755
1070 4 0.429098 0.299122 0.0404706
280 2 0.458348 0.301867 0.0616774
282 4 0.44951 0.297922 0.0386233
454 2 0.162672 0.3565 0.0425875
456 4 0.161695 0.378326 0.030427
1290 4 0.268408 0.391039 0.0321504
250 2 0.266611 0.405357 0.0689918
1288 2 0.27469 0.380572 0.0103292
251 4 0.262842 0.406165 0.0442869
741 4 0.383526 0.33897 0.0466337
739 2 0.381474 0.343406 0.071155
1788 4 0.0699142 0.481973 0.0497513
1786 2 0.0906589 0.495216 0.0453381
626 4 0.216536 0.484216 0.0753903
625 2 0.192458 0.488508 0.0701912
245 4 0.215891 0.465465 0.0677209
244 2 0.228616 0.447424 0.055982
246 4 0.24134 0.429383 0.044243
272 4 0.260145 0.425007 0.0377237
271 2 0.263474 0.434268 0.0147386
1672 2 0.397098 0.438533 0.0726154
853 2 0.391385 0.436291 0.0142654
1674 4 0.40273 0.447989 0.0501649
854 4 0.407002 0.440584 0.0333147
564 4 0.420413 0.446293 0.0481256
563 4 0.450458 0.4822 0.0305561
562 2 0.435436 0.464247 0.0393409
228 4 0.470146 0.487554 0.0321389
226 2 0.492295 0.478022 0.0387549
1666 2 0.0314173 0.0657747 0.0801456
1668 4 0.0303335 0.0426915 0.0896939
19 3 0.0530923 0.0483398 0.155314
18 3 0.065244 0.0124578 0.152276
491 4 0.290607 0.066303 0.0818158
490 2 0.274872 0.0479672 0.0882488
1475 4 0.255217 0.0138524 0.106926
492 4 0.259137 0.0296314 0.0946817
486 4 0.394722 0.00510035 0.111783
484 2 0.413233 0.0193868 0.120639
485 4 0.431744 0.0336732 0.129495
2722 2 0.483959 0.0639811 0.158326
2724 4 0.492729 0.0405934 0.157193
1759 2 0.491814 0.0250446 0.116148
1760 4 0.492511 0.0322281 0.140087
1761 4 0.491118 0.0178611 0.0922083
702 4 0.0471077 0.150943 0.078743
476 4 0.055092 0.156291 0.096581
475 2 0.0614645 0.162283 0.120005
737 4 0.242644 0.164031 0.10267
582 4 0.25049 0.0926527 0.165448
628 2 0.376424 0.141961 0.152412
630 4 0.370647 0.165981 0.156271
312 4 0.385917 0.0994851 0.154966
629 4 0.3822 0.117942 0.148553
2723 4 0.475189 0.0873688 0.159459
477 4 0.067837 0.168275 0.143428
339 4 0.0292635 0.232333 0.159683
736 2 0.237273 0.183074 0.0873831
460 2 0.323259 0.23202 0.115412
461 4 0.300383 0.227031 0.106638
354 4 0.284069 0.229841 0.117356
352 2 0.272624 0.236512 0.138561
353 4 0.261179 0.243182 0.159767
623 4 0.393703 0.242042 0.0831605
254 4 0.375133 0.185274 0.15375
462 4 0.346135 0.237009 0.124186
255 4 0.359382 0.228249 0.133606
253 2 0.367258 0.206762 0.143678
765 4 0.35279 0.248082 0.137367
624 4 0.364852 0.243288 0.123986
622 2 0.379278 0.242665 0.103573
483 4 0.208262 0.280478 0.086845
506 4 0.196594 0.292714 0.0961969
537 4 0.194588 0.29958 0.114412
535 2 0.19756 0.304912 0.138659
536 4 0.200532 0.310245 0.162906
755 4 0.247124 0.258878 0.161448
301 2 0.312961 0.310887 0.148154
302 4 0.309431 0.327692 0.12998
303 4 0.316491 0.294082 0.166328
764 4 0.331369 0.282404 0.166758
763 2 0.342079 0.265243 0.152063
12 3 0.402221 0.324583 0.127626
281 4 0.467187 0.305812 0.0847316
671 4 0.456934 0.317498 0.0978527
527 4 0.475357 0.312829 0.100117
670 2 0.434501 0.326282 0.104545
526 2 0.500187 0.31576 0.0999434
647 4 0.0581363 0.350501 0.155978
550 2 0.137486 0.336545 0.0850076
551 4 0.122647 0.346673 0.102397
289 2 0.232669 0.39569 0.15989
290 4 0.251752 0.41001 0.152411
387 4 0.312625 0.332545 0.110914
252 4 0.270379 0.404549 0.0936966
609 4 0.278948 0.39408 0.108547
607 2 0.300722 0.405941 0.11177
385 2 0.336335 0.339018 0.106319
493 2 0.382371 0.389044 0.0953495
495 4 0.383272 0.364068 0.0961019
386 4 0.360045 0.345491 0.101724
15 3 0.368308 0.333333 0.114734
740 4 0.379423 0.347842 0.0956762
672 4 0.412068 0.335067 0.111237
14 3 0.398003 0.354393 0.105127
11 1 0.388135 0.341872 0.121987
13 3 0.384668 0.355134 0.140708
1791 4 0.0450554 0.496572 0.143566
1466 4 0.0490409 0.478045 0.134439
1465 2 0.0663203 0.464682 0.122272
1467 4 0.0835997 0.451319 0.110105
638 4 0.240447 0.485644 0.121912
766 2 0.23961 0.450609 0.144221
768 4 0.245965 0.428345 0.15366
767 4 0.233254 0.472873 0.134782
608 4 0.322496 0.417801 0.114994
659 4 0.326337 0.434 0.10509
494 4 0.38147 0.41402 0.0945972
660 4 0.376271 0.431344 0.105673
1673 4 0.391465 0.429076 0.095066
658 2 0.351304 0.432672 0.105381
1559 4 0.381155 0.494161 0.138356
524 4 0.39478 0.479229 0.141603
523 2 0.393215 0.462442 0.123139
525 4 0.39165 0.445655 0.104675
595 2 0.469444 0.441552 0.159029
596 4 0.4763 0.445626 0.135331
16 1 0.0563258 0.0283485 0.166641
17 3 0.0360143 0.0208149 0.174376
2480 4 0.0182983 0.016846 0.183573
2479 2 0.00990279 0.037485 0.194919
20 3 0.0703391 0.0315994 0.184296
1422 4 0.0156645 0.998626 0.188061
2481 4 0.00150733 0.058124 0.206264
578 4 0.0695515 0.0497729 0.17164
380 4 0.00969702 0.0738266 0.196573
577 2 0.0858299 0.0682427 0.176006
689 4 0.16846 0.0155992 0.212528
674 4 0.155396 0.0181167 0.225846
673 2 0.140025 0.00565701 0.241132
1506 4 0.252045 0.0145954 0.180058
581 4 0.295319 0.0705417 0.163976
654 4 0.249394 0.0288495 0.195728
580 2 0.272904 0.0815972 0.164712
652 2 0.2734 0.0303401 0.202561
653 4 0.297405 0.0318308 0.209395
25 3 0.33603 0.044323 0.249097
758 4 0.356025 0.0754778 0.197289
759 4 0.350752 0.0616866 0.245067
757 2 0.353388 0.0685822 0.221178
311 4 0.374795 0.0705163 0.194181
379 2 0.024158 0.0935491 0.191369
511 2 0.0525525 0.147648 0.189389
512 4 0.0339234 0.133186 0.181083
381 4 0.0386191 0.113272 0.186165
513 4 0.0711816 0.162109 0.197696
450 4 0.11834 0.0979911 0.177675
579 4 0.102108 0.0867126 0.180371
448 2 0.143144 0.100763 0.176174
393 4 0.0908737 0.16183 0.200019
237 4 0.231174 0.0895729 0.171457
235 2 0.206363 0.0907559 0.168596
236 4 0.181551 0.0919389 0.165734
449 4 0.167948 0.103535 0.174673
28 3 0.311812 0.137145 0.226984
26 1 0.326441 0.150343 0.23924
30 3 0.315718 0.169025 0.246633
310 2 0.380356 0.0850007 0.174574
27 3 0.343987 0.15653 0.225713
521 4 0.496518 0.119569 0.207248
762 4 0.482104 0.119256 0.21984
760 2 0.462821 0.123528 0.235173
761 4 0.443539 0.1278 0.250506
337 2 0.0340421 0.239188 0.183249
391 2 0.102139 0.181597 0.189648
392 4 0.113404 0.201364 0.179278
279 4 0.257691 0.215819 0.212722
277 2 0.256893 0.232058 0.193726
278 4 0.256095 0.248297 0.17473
394 2 0.0120354 0.260256 0.230044
395 4 0.0293609 0.273092 0.217386
338 4 0.0388208 0.246043 0.206815
363 4 0.0431892 0.266288 0.207028
361 2 0.0515845 0.289524 0.203183
749 4 0.0527225 0.328792 0.210295
648 4 0.0682327 0.327726 0.199338
362 4 0.0599797 0.31276 0.199338
372 4 0.0788119 0.31053 0.198152
370 2 0.102557 0.310834 0.205978
371 4 0.126303 0.311139 0.213803
734 4 0.135139 0.31799 0.231238
754 2 0.24262 0.281728 0.170547
756 4 0.238116 0.304577 0.179646
611 4 0.246865 0.317457 0.24106
610 2 0.240165 0.318345 0.216987
612 4 0.233466 0.319233 0.192914
284 4 0.274727 0.251671 0.174381
283 2 0.294418 0.266949 0.176386
285 4 0.31411 0.282227 0.178392
308 4 0.327915 0.291231 0.183035
729 4 0.312295 0.302207 0.183194
727 2 0.298236 0.316635 0.198004
728 4 0.284177 0.331063 0.212815
307 2 0.339146 0.284172 0.204229
309 4 0.350378 0.277112 0.225424
498 4 0.338862 0.290791 0.239092
748 2 0.0613977 0.336551 0.232424
646 2 0.0631845 0.339113 0.177658
417 4 0.161848 0.407935 0.187772
291 4 0.213585 0.38137 0.167369
416 4 0.196084 0.373583 0.175583
415 2 0.178966 0.390759 0.181677
446 4 0.388203 0.36035 0.246315
445 2 0.409115 0.368325 0.235167
447 4 0.430027 0.376299 0.224019
644 4 0.44069 0.38569 0.209882
643 2 0.453144 0.406951 0.205637
1757 4 0.0330392 0.45294 0.235372
414 4 0.238795 0.473343 0.219269
412 2 0.230701 0.460886 0.239381
645 4 0.465599 0.428213 0.201391
597 4 0.462588 0.437479 0.182727
229 2 0.465423 0.477138 0.231548
231 4 0.47005 0.452572 0.231007
2755 2 0.00744504 0.0673653 0.317658
234 4 0.0244548 0.053128 0.284196
232 2 0.0484235 0.0460242 0.284666
233 4 0.0723921 0.0389205 0.285136
2756 4 0.00956052 0.0565185 0.29523
2478 4 0.00676605 0.0521816 0.276142
1404 4 0.0785681 0.0226063 0.296057
1403 4 0.108746 0.0020206 0.261906
317 4 0.0856558 0.0391326 0.299068
428 4 0.0847169 0.0232439 0.313391
316 2 0.0973896 0.0591601 0.308363
1402 2 0.0936569 0.0123135 0.278981
318 4 0.109123 0.0791875 0.317659
427 2 0.0930713 0.00954052 0.332564
606 4 0.16761 0.0835448 0.329322
693 4 0.268122 0.0472885 0.245011
691 2 0.264653 0.0685373 0.257724
24 3 0.325495 0.0623754 0.280415
350 4 0.370437 0.0663307 0.254255
21 1 0.342914 0.0515407 0.269571
23 3 0.350181 0.0335389 0.28228
22 3 0.360357 0.0663024 0.266929
349 2 0.395366 0.0671718 0.256003
480 4 0.433017 0.0539704 0.250988
351 4 0.420294 0.0680128 0.257751
479 4 0.454982 0.0299602 0.288958
478 2 0.443999 0.0419653 0.269973
2664 4 0.472534 0.0216807 0.293113
1428 4 0.454879 0.0174648 0.300644
258 4 0.445612 0.0348073 0.304575
2662 2 0.496721 0.0279766 0.292381
256 2 0.435554 0.0424713 0.326145
397 2 0.0774723 0.102482 0.334871
731 4 0.166218 0.102696 0.327803
730 2 0.141779 0.0995309 0.323574
732 4 0.11734 0.0963655 0.319344
399 4 0.0977288 0.0931917 0.323533
721 2 0.268296 0.105283 0.310098
692 4 0.261184 0.0897862 0.270438
723 4 0.272517 0.0956815 0.287401
722 4 0.264074 0.114885 0.332795
29 3 0.334744 0.138324 0.257269
632 4 0.365626 0.0835971 0.264665
631 2 0.355053 0.10608 0.267475
707 4 0.337392 0.140331 0.277757
633 4 0.344479 0.128563 0.270286
706 2 0.343308 0.159167 0.293099
443 4 0.998373 0.257739 0.260448
546 4 0.152416 0.196567 0.27211
544 2 0.172113 0.207657 0.261423
545 4 0.191809 0.218748 0.250735
402 4 0.188342 0.236834 0.258931
708 4 0.349224 0.178003 0.308441
419 4 0.405203 0.233319 0.318727
442 2 0.00210562 0.261939 0.284812
444 4 0.0058379 0.266139 0.309176
733 2 0.156195 0.31274 0.243658
299 4 0.130407 0.330909 0.244835
344 4 0.235473 0.31029 0.25576
343 2 0.211896 0.305437 0.262523
400 2 0.184702 0.260469 0.266231
401 4 0.181062 0.284104 0.273532
676 2 0.169771 0.307367 0.297325
345 4 0.188319 0.300583 0.269286
677 4 0.169613 0.300557 0.273267
735 4 0.177251 0.307489 0.256078
678 4 0.16993 0.314177 0.321383
510 4 0.181763 0.329002 0.325958
378 4 0.273672 0.26262 0.309247
376 2 0.290346 0.279586 0.301546
496 2 0.322589 0.287478 0.257783
497 4 0.306316 0.284165 0.276475
377 4 0.30702 0.296552 0.293844
541 2 0.374377 0.293751 0.285145
542 4 0.394776 0.280018 0.289666
420 4 0.413621 0.275368 0.293002
543 4 0.353977 0.307484 0.280624
615 4 0.340846 0.320871 0.288459
418 2 0.409412 0.254344 0.305865
364 2 0.0204278 0.372869 0.302293
365 4 0.0427493 0.383262 0.297946
601 2 0.0476791 0.413043 0.329523
603 4 0.0444116 0.401689 0.307487
750 4 0.0700729 0.34431 0.254554
298 2 0.109176 0.340419 0.254
300 4 0.0879456 0.349929 0.263165
508 2 0.187892 0.353139 0.323722
509 4 0.194022 0.377276 0.321486
434 4 0.31868 0.369695 0.330859
614 4 0.331219 0.356621 0.322074
613 2 0.336033 0.338746 0.305267
1758 4 0.066701 0.470475 0.267932
1756 2 0.0498701 0.461707 0.251652
264 4 0.0212338 0.449607 0.252161
776 4 0.0588328 0.489702 0.328253
775 2 0.0647025 0.494178 0.304364
1775 4 0.0776223 0.48669 0.266923
413 4 0.222606 0.448429 0.259492
1436 4 0.224335 0.429673 0.268544
1435 2 0.237202 0.432066 0.289849
1437 4 0.250069 0.43446 0.311154
4 3 0.269398 0.431369 0.317825
3 3 0.28548 0.465559 0.321923
1 1 0.277873 0.446679 0.333062
436 2 0.32734 0.457784 0.32931
1801 2 0.375854 0.490154 0.310168
1802 4 0.358149 0.481058 0.3253
437 4 0.351844 0.462243 0.327116
119 3 0.494293 0.469798 0.321655
604 2 0.185947 0.0754649 0.344277
605 4 0.204284 0.067385 0.359232
248 4 0.223903 0.0728547 0.361444
441 4 0.321571 0.00461496 0.405274
1701 4 0.334204 0.00953305 0.389823
699 4 0.358326 0.0524348 0.354446
698 4 0.406134 0.0457736 0.341378
1699 2 0.338629 0.0244731 0.370268
1700 4 0.343054 0.0394131 0.350713
697 2 0.38223 0.0491042 0.347912
725 4 0.402951 0.0775413 0.409271
257 4 0.425496 0.0501353 0.347716
2585 4 0.00240829 0.0972495 0.345456
398 4 0.0572159 0.111772 0.346209
2584 2 0.0241969 0.105461 0.354567
2586 4 0.0459855 0.113672 0.363678
458 4 0.0427059 0.122517 0.380153
457 2 0.0397415 0.136935 0.400365
600 4 0.121047 0.136597 0.368662
598 2 0.122676 0.161336 0.3719
247 2 0.239417 0.0917044 0.356041
403 2 0.250648 0.151508 0.340242
249 4 0.25493 0.110554 0.350638
404 4 0.258977 0.128432 0.34507
683 4 0.262881 0.123751 0.363039
682 2 0.284495 0.126536 0.375298
684 4 0.306108 0.129321 0.387556
320 4 0.316255 0.143116 0.378173
319 2 0.328776 0.15465 0.359859
724 2 0.390543 0.0964052 0.39853
717 4 0.406942 0.16848 0.347422
726 4 0.378135 0.115269 0.387789
321 4 0.341296 0.166184 0.341546
715 2 0.394452 0.167296 0.36905
716 4 0.381961 0.166113 0.390678
599 4 0.124305 0.186076 0.375138
389 4 0.118516 0.218976 0.372459
686 4 0.11856 0.203822 0.38395
685 2 0.104046 0.201262 0.404149
275 4 0.131894 0.203335 0.37319
274 2 0.156312 0.204912 0.368043
388 2 0.116502 0.243677 0.369144
473 4 0.225519 0.182493 0.343805
405 4 0.24232 0.174584 0.335415
474 4 0.186317 0.213519 0.344959
472 2 0.205918 0.198006 0.344382
276 4 0.180729 0.206488 0.362896
467 4 0.393331 0.166904 0.406768
269 4 0.406363 0.22184 0.33492
270 4 0.44754 0.227357 0.362755
452 4 0.465185 0.234816 0.371232
268 2 0.426952 0.224599 0.348838
451 2 0.462617 0.225492 0.394289
453 4 0.46005 0.216168 0.417347
347 4 0.0648893 0.317178 0.389283
618 4 0.0832758 0.323799 0.39287
346 2 0.0418848 0.325715 0.394088
375 4 0.151834 0.307874 0.326589
616 2 0.096694 0.304841 0.383611
390 4 0.114488 0.268378 0.36583
617 4 0.110112 0.285883 0.374352
374 4 0.119764 0.285669 0.35788
373 2 0.135799 0.296771 0.342235
348 4 0.0188803 0.334252 0.398894
549 4 0.0500056 0.413388 0.368755
433 2 0.301835 0.387355 0.336294
435 4 0.28499 0.405015 0.341728
334 2 0.319083 0.371299 0.411855
238 2 0.36983 0.385644 0.383634
239 4 0.385186 0.404927 0.379445
587 4 0.392153 0.418044 0.365769
335 4 0.33571 0.362859 0.395197
240 4 0.354475 0.366361 0.387823
752 4 0.470923 0.400097 0.380995
561 4 0.476259 0.382151 0.387042
559 2 0.491392 0.380337 0.406863
602 4 0.0509467 0.424397 0.351559
500 4 0.0710798 0.498697 0.339816
499 2 0.070752 0.481182 0.357657
547 2 0.0667285 0.427864 0.380414
501 4 0.0704243 0.463667 0.375499
548 4 0.0834514 0.442341 0.392074
407 4 0.0801249 0.461406 0.394695
406 2 0.100666 0.465794 0.408259
636 4 0.296224 0.487187 0.408123
438 4 0.302835 0.453324 0.331504
5 3 0.261734 0.452473 0.348049
2 3 0.295505 0.437043 0.344261
1557 4 0.282455 0.483206 0.394267
586 2 0.40246 0.440007 0.371818
593 4 0.402432 0.478085 0.377562
588 4 0.412767 0.46197 0.377867
751 2 0.478588 0.419981 0.367916
592 2 0.416713 0.492281 0.362739
712 2 0.465417 0.493785 0.335442
714 4 0.484105 0.477189 0.336163
753 4 0.486254 0.439865 0.354837
117 3 0.48254 0.461598 0.356401
1772 4 0.0020246 0.997751 0.452051
720 4 0.0151372 0.0103008 0.457007
369 4 0.0811183 0.0270501 0.471007
719 4 0.0628471 0.0241382 0.462752
718 2 0.0389921 0.0172195 0.459879
1781 4 0.118785 0.0150273 0.414822
367 2 0.0923101 0.0202206 0.449717
368 4 0.103502 0.0133912 0.428426
341 4 0.175621 0.0135309 0.50131
962 4 0.330019 0.0102133 0.422035
961 2 0.323339 0.0289425 0.437194
963 4 0.316659 0.0476717 0.452352
432 4 0.300686 0.0571333 0.459509
430 2 0.315821 0.0689814 0.475501
431 4 0.330955 0.0808295 0.491493
1216 2 0.410853 0.059443 0.489828
1218 4 0.427145 0.0568018 0.471046
459 4 0.0367771 0.151352 0.420577
640 2 0.484232 0.0945254 0.437309
641 4 0.462561 0.0977902 0.449347
260 4 0.0409549 0.170915 0.426905
259 2 0.0603371 0.184531 0.434912
1033 2 0.0836255 0.233505 0.44822
261 4 0.0797194 0.198147 0.442918
687 4 0.0895325 0.198701 0.424347
1035 4 0.0822376 0.213826 0.432857
488 4 0.320692 0.24848 0.415738
487 2 0.332059 0.241134 0.436762
466 2 0.399953 0.183884 0.423886
468 4 0.406576 0.200864 0.441003
411 4 0.358378 0.227451 0.467351
409 2 0.379745 0.215188 0.46308
410 4 0.401112 0.202925 0.45881
266 4 0.354163 0.245524 0.470983
489 4 0.343427 0.233789 0.457786
575 4 0.412045 0.207886 0.475601
516 4 0.417743 0.206719 0.457618
574 2 0.422899 0.200959 0.497034
514 2 0.437495 0.216868 0.446127
515 4 0.457246 0.227017 0.434636
696 4 0.0731387 0.253681 0.478329
2847 4 0.0186671 0.322458 0.442094
2802 4 0.0134387 0.311501 0.425899
325 2 0.0828256 0.331913 0.473686
1034 4 0.0850134 0.253183 0.463583
326 4 0.0595115 0.340919 0.474403
1260 4 0.0900495 0.261337 0.481555
1258 2 0.103238 0.282178 0.477445
1259 4 0.116426 0.303019 0.473335
9 3 0.134232 0.30398 0.456328
7 3 0.120347 0.315475 0.489308
6 1 0.132094 0.322094 0.470671
327 4 0.10614 0.322906 0.472968
8 3 0.153074 0.329496 0.477264
265 2 0.353274 0.254208 0.494414
2457 4 0.46481 0.270745 0.497347
1011 4 0.464405 0.334752 0.485642
3308 4 0.480949 0.335847 0.473966
1009 2 0.45945 0.311054 0.491891
2845 2 0.00306751 0.340366 0.449914
10 3 0.12082 0.338938 0.460288
336 4 0.302455 0.379738 0.428513
668 4 0.312949 0.397368 0.42697
3307 2 0.493121 0.349778 0.457145
1381 2 0.0130463 0.49129 0.461971
569 4 0.136397 0.470496 0.433857
383 4 0.126411 0.453642 0.430456
711 4 0.123256 0.41806 0.485058
568 2 0.154983 0.486838 0.437415
709 2 0.145594 0.417862 0.496289
384 4 0.122409 0.418208 0.465515
408 4 0.121208 0.470182 0.421822
382 2 0.12441 0.435925 0.447986
570 4 0.173569 0.50318 0.440974
669 4 0.324497 0.444771 0.437941
634 2 0.31378 0.474673 0.420786
635 4 0.331335 0.462159 0.43345
667 2 0.318723 0.42107 0.432455
774 4 0.340496 0.449573 0.446488
772 2 0.352011 0.450012 0.468677
773 4 0.363527 0.450452 0.490867
663 4 0.504045 0.486488 0.46357
1152 4 0.207417 0.0540516 0.53181
342 4 0.187248 0.0487315 0.534872
340 2 0.181435 0.0311312 0.518091
1150 2 0.220562 0.0710835 0.544549
1217 4 0.394561 0.0620841 0.50861
842 4 0.382151 0.0479646 0.516006
841 2 0.359826 0.0557421 0.507865
843 4 0.337501 0.0635196 0.499724
3007 2 0.491318 0.0551632 0.575943
1271 4 0.0930052 0.135338 0.574399
1058 4 0.0746451 0.138202 0.516609
1057 2 0.0865237 0.130989 0.537395
1059 4 0.0984023 0.123776 0.558181
1155 4 0.109989 0.130057 0.571415
939 4 0.0924769 0.116878 0.572826
1153 2 0.132279 0.140974 0.568392
1154 4 0.15457 0.151891 0.565368
1221 4 0.165982 0.146177 0.580289
1151 4 0.233708 0.0881153 0.557288
1180 2 0.22544 0.121954 0.56082
1181 4 0.22015 0.09862 0.568079
1182 4 0.230731 0.145289 0.553561
900 4 0.216414 0.157762 0.546294
1031 4 0.293397 0.077111 0.577997
1032 4 0.25263 0.0904214 0.552275
1030 2 0.273013 0.0837662 0.565136
1198 2 0.0133253 0.234141 0.557953
1199 4 0.0352238 0.235073 0.569985
878 4 0.0465832 0.229198 0.586277
695 4 0.0703768 0.232911 0.523735
694 2 0.0717577 0.243296 0.501032
898 2 0.235101 0.174318 0.547663
649 2 0.247539 0.221493 0.521965
651 4 0.236545 0.240355 0.509779
899 4 0.253788 0.190873 0.549031
650 4 0.258534 0.202631 0.534152
576 4 0.433753 0.194032 0.518468
2456 4 0.497162 0.235449 0.51178
856 2 0.213638 0.26337 0.536754
857 4 0.194089 0.275177 0.546933
947 4 0.202821 0.276537 0.566381
946 2 0.187007 0.292028 0.578004
858 4 0.233188 0.251563 0.526576
267 4 0.352385 0.262892 0.517844
1010 4 0.454495 0.287356 0.49814
2455 2 0.480986 0.253097 0.504563
502 2 0.197072 0.389612 0.516323
503 4 0.208015 0.370664 0.528423
710 4 0.167933 0.417665 0.507519
504 4 0.186128 0.408559 0.504223
803 4 0.271789 0.354183 0.567092
804 4 0.268369 0.346601 0.517782
802 2 0.270079 0.350392 0.542437
1190 4 0.264935 0.354947 0.585453
882 4 0.361678 0.351474 0.506932
928 2 0.351608 0.388656 0.582097
929 4 0.362797 0.39577 0.560898
881 4 0.366427 0.381793 0.546415
880 2 0.364052 0.366634 0.526673
1002 4 0.436154 0.415103 0.586774
539 4 0.115653 0.431206 0.546322
540 4 0.117558 0.480157 0.556368
2244 4 0.103371 0.488048 0.566358
538 2 0.116605 0.455681 0.551345
1160 4 0.123854 0.492614 0.568849
1159 2 0.147145 0.493999 0.577837
1953 4 0.408523 0.494427 0.537217
1909 2 0.43713 0.487119 0.569708
1910 4 0.422442 0.495889 0.551473
1081 2 0.0793465 0.0657407 0.640066
1083 4 0.0834219 0.0703368 0.615829
1126 2 0.0405104 0.0742235 0.603733
1127 4 0.0646226 0.0762784 0.610023
1128 4 0.0163982 0.0721686 0.597444
3477 4 0.00713454 0.0845848 0.609087
951 4 0.290951 0.0579971 0.577633
949 2 0.293169 0.0398626 0.594704
950 4 0.295387 0.0217281 0.611774
3008 4 0.47286 0.0431151 0.587746
809 4 0.474959 0.0394286 0.607404
808 2 0.467844 0.0502832 0.628776
810 4 0.460729 0.0611378 0.650147
45 3 0.458251 0.0832385 0.652658
1270 2 0.0823022 0.154771 0.58593
938 4 0.0905795 0.0730591 0.596847
937 2 0.0915282 0.0949685 0.584837
1219 2 0.186214 0.156164 0.591064
1211 4 0.231953 0.15547 0.664237
1220 4 0.206447 0.16615 0.601839
1212 4 0.216455 0.168216 0.618432
1210 2 0.224204 0.161843 0.641334
1225 2 0.241323 0.113616 0.667549
1226 4 0.246055 0.089151 0.665488
1194 4 0.315133 0.14931 0.667652
1192 2 0.334898 0.14286 0.653764
1193 4 0.354664 0.13641 0.639876
3424 2 0.489192 0.10619 0.669964
877 2 0.0608604 0.208683 0.585576
1272 4 0.0715993 0.174205 0.597461
1244 4 0.0590736 0.2435 0.594379
879 4 0.0751375 0.188168 0.584875
3123 4 0.498279 0.240223 0.643821
983 4 0.00960607 0.285505 0.608311
1245 4 0.0261988 0.276933 0.611762
1243 2 0.0426362 0.260216 0.60307
948 4 0.171192 0.307519 0.589627
1135 2 0.165289 0.323653 0.618503
822 4 0.152105 0.326078 0.656556
820 2 0.1489 0.302488 0.664198
1136 4 0.165897 0.301073 0.607782
798 4 0.217888 0.264154 0.572257
796 2 0.23654 0.269924 0.587878
797 4 0.255192 0.275693 0.603499
791 4 0.260638 0.292034 0.592801
790 2 0.265972 0.316399 0.594566
872 4 0.326064 0.282565 0.598877
871 2 0.345417 0.29788 0.602889
813 4 0.382777 0.31188 0.601984
873 4 0.364769 0.313196 0.6069
811 2 0.389447 0.335829 0.604649
954 4 0.474378 0.257388 0.605123
952 2 0.486451 0.279186 0.603059
1041 4 0.0508559 0.373136 0.633898
3264 4 0.0371684 0.361271 0.639894
3240 4 0.0360933 0.378536 0.647727
3238 2 0.0164686 0.392063 0.640172
1039 2 0.0748548 0.374771 0.627075
3262 2 0.0386426 0.340171 0.653228
1064 4 0.159595 0.343562 0.648833
1137 4 0.164681 0.346234 0.629224
1040 4 0.0988538 0.376406 0.620252
993 4 0.113255 0.385204 0.630964
991 2 0.133613 0.371014 0.634023
992 4 0.153971 0.356824 0.637082
897 4 0.168672 0.365868 0.62834
1189 2 0.244989 0.369266 0.590178
896 4 0.207884 0.385525 0.604325
895 2 0.188278 0.375696 0.616333
1172 4 0.222637 0.396743 0.609263
1191 4 0.225044 0.383584 0.594904
1063 2 0.175569 0.351947 0.666144
792 4 0.271306 0.340763 0.596331
1238 4 0.283102 0.349661 0.582265
1239 4 0.319683 0.379149 0.599383
1237 2 0.301392 0.364405 0.590824
930 4 0.340419 0.381541 0.603295
1204 2 0.390205 0.378208 0.645406
1206 4 0.39755 0.372704 0.622147
927 4 0.395284 0.377694 0.60298
812 4 0.396118 0.359779 0.607314
925 2 0.406354 0.399023 0.596074
926 4 0.417425 0.420352 0.589168
1161 4 0.170436 0.495383 0.586825
1188 4 0.169692 0.475021 0.587254
1171 2 0.225077 0.420187 0.60092
1186 2 0.189984 0.46258 0.594914
1173 4 0.227517 0.44363 0.592576
1187 4 0.210275 0.45014 0.602574
1911 4 0.451818 0.478349 0.587944
1001 4 0.457716 0.460124 0.58976
1000 2 0.446935 0.437614 0.588267
1269 4 0.460489 0.47151 0.604705
1267 2 0.463635 0.487166 0.623945
1082 4 0.0752711 0.0611446 0.664303
943 2 0.039079 0.0269598 0.676245
1076 4 0.0622034 0.055823 0.677459
1075 2 0.0687352 0.0727805 0.694633
945 4 0.0315337 0.00583317 0.687286
944 4 0.0466243 0.0480865 0.665203
1283 4 0.190373 0.0626215 0.6993
825 4 0.201475 0.0493732 0.691507
823 2 0.202201 0.0257876 0.683238
1147 2 0.244892 0.0614501 0.698852
1149 4 0.24417 0.0507041 0.721417
1148 4 0.245614 0.072196 0.676287
1003 2 0.338927 0.0745314 0.7371
2321 4 0.490751 0.0226674 0.737753
41 1 0.451831 0.0725125 0.671694
43 3 0.429171 0.0758521 0.675405
42 3 0.455743 0.0499634 0.669372
1163 4 0.465197 0.0579757 0.689001
1162 2 0.479418 0.0448459 0.70483
44 3 0.464066 0.0804275 0.689751
1164 4 0.49364 0.0317162 0.720658
4581 4 0.499512 0.0064717 0.737845
864 4 0.0654659 0.0912098 0.728538
1077 4 0.0752669 0.0897381 0.711808
851 4 0.0690657 0.108303 0.704592
850 2 0.0642337 0.130111 0.693357
852 4 0.0594018 0.151919 0.682122
862 2 0.0456825 0.0907117 0.74382
1107 4 0.0765905 0.104031 0.721047
1105 2 0.0985357 0.102131 0.732879
1106 4 0.120481 0.100231 0.74471
1282 2 0.193185 0.0873524 0.701677
1284 4 0.195998 0.112083 0.704055
909 4 0.190401 0.129743 0.711751
907 2 0.206213 0.140211 0.695455
908 4 0.222026 0.150678 0.679158
1227 4 0.236591 0.138081 0.66961
888 4 0.250585 0.153865 0.667877
886 2 0.275283 0.156074 0.671089
887 4 0.29998 0.158283 0.674302
829 2 0.310506 0.120226 0.696853
1005 4 0.327194 0.0935059 0.725808
830 4 0.307565 0.140007 0.681844
831 4 0.313447 0.100446 0.711862
3425 4 0.469152 0.0912396 0.670231
1113 4 0.493616 0.0978407 0.735813
1146 4 0.498817 0.166101 0.715546
1208 4 0.135868 0.245554 0.729298
1074 4 0.120712 0.251805 0.74175
976 2 0.335059 0.221595 0.736353
978 4 0.355296 0.219265 0.721854
1025 4 0.412959 0.169419 0.680354
1024 2 0.428022 0.180147 0.697183
1142 4 0.439783 0.19027 0.733835
1144 2 0.477608 0.178506 0.720181
1262 4 0.456869 0.206868 0.713818
1026 4 0.443084 0.190875 0.714012
1261 2 0.462366 0.23117 0.711735
1145 4 0.4564 0.190911 0.724815
3263 4 0.0401167 0.319071 0.666562
1177 2 0.00958276 0.244402 0.71548
1179 4 0.0326913 0.248964 0.707092
1130 4 0.134762 0.24065 0.74743
1072 2 0.0976411 0.256846 0.749967
1207 2 0.140503 0.253573 0.706073
821 4 0.145695 0.278897 0.67184
1209 4 0.145138 0.261593 0.682849
1019 4 0.390719 0.270513 0.73848
1018 2 0.390169 0.288992 0.721645
1020 4 0.38962 0.307471 0.70481
1263 4 0.467863 0.255473 0.709651
892 2 0.0298741 0.358386 0.727774
1279 2 0.059651 0.410428 0.740965
1280 4 0.0539625 0.386284 0.737819
816 4 0.0653288 0.372526 0.746518
893 4 0.0125907 0.347176 0.713604
814 2 0.0852852 0.357961 0.742673
815 4 0.105242 0.343395 0.738828
942 4 0.124727 0.347175 0.74641
1065 4 0.191544 0.360332 0.683456
807 4 0.208393 0.350681 0.683118
1028 4 0.219274 0.380173 0.717618
1066 2 0.194296 0.381773 0.7481
1068 4 0.20834 0.390255 0.729232
1027 2 0.221145 0.39942 0.701769
805 2 0.227643 0.337987 0.692788
806 4 0.246893 0.325294 0.702457
1205 4 0.382861 0.383712 0.668664
1281 4 0.0653395 0.434572 0.74411
1983 4 0.0587889 0.438163 0.763002
2016 4 0.153244 0.493412 0.731853
1176 4 0.168871 0.485672 0.723161
2172 4 0.160528 0.490579 0.677861
1140 4 0.23079 0.435896 0.679964
1175 4 0.212667 0.462746 0.730709
1174 2 0.190769 0.474209 0.726935
1029 4 0.223015 0.418668 0.68592
1138 2 0.251452 0.449874 0.681665
1139 4 0.272114 0.463851 0.683366
1987 2 0.279057 0.450573 0.731599
1229 4 0.287473 0.467872 0.694024
1989 4 0.28169 0.466285 0.712328
2028 4 0.273766 0.476646 0.698724
1228 2 0.308209 0.457606 0.684549
1230 4 0.328946 0.44734 0.675073
1099 2 0.45564 0.488716 0.682663
1100 4 0.445351 0.479375 0.703449
2989 2 0.0278188 0.0573349 0.785845
2990 4 0.0252679 0.0804616 0.776689
2991 4 0.0303697 0.0342081 0.795001
2049 4 0.118108 0.0142043 0.79439
1202 4 0.11049 0.0304431 0.78481
1201 2 0.120148 0.0534487 0.783184
1203 4 0.129806 0.0764544 0.781557
819 4 0.328778 0.066429 0.814061
817 2 0.332697 0.0419345 0.810924
1085 4 0.315997 0.0770826 0.803882
1004 4 0.350659 0.0555569 0.748392
1050 4 0.343913 0.0146667 0.773106
973 2 0.368597 0.999976 0.8005
818 4 0.336616 0.01744 0.807787
974 4 0.348377 0.012429 0.792674
2322 4 0.483993 0.0489622 0.779749
845 4 0.481816 0.0683783 0.785982
844 2 0.479873 0.0698105 0.810868
2320 2 0.487372 0.0358148 0.758751
846 4 0.47793 0.0712427 0.835755
863 4 0.0258991 0.0902136 0.759103
3083 4 0.00950409 0.0894092 0.769611
833 4 0.0260802 0.0992397 0.775426
832 2 0.0325713 0.116094 0.792717
834 4 0.0390625 0.132948 0.810008
1125 4 0.0342408 0.148651 0.821645
32 3 0.144012 0.0839252 0.79587
911 4 0.13084 0.0968607 0.806486
34 3 0.131143 0.09367 0.761928
31 1 0.14067 0.101607 0.78154
35 3 0.126755 0.116712 0.791381
33 3 0.161143 0.111518 0.776954
910 2 0.12283 0.0914193 0.829539
1256 4 0.231075 0.12833 0.811246
840 4 0.222133 0.118507 0.826196
1255 2 0.242327 0.110444 0.797881
1257 4 0.25358 0.0925575 0.784515
1084 2 0.293219 0.0865219 0.799731
1086 4 0.270441 0.0959611 0.79558
960 4 0.31594 0.0794411 0.822993
47 3 0.415486 0.163136 0.81645
1023 4 0.410781 0.156956 0.835381
48 3 0.399758 0.162929 0.782314
1111 2 0.483563 0.0910835 0.757686
1112 4 0.473511 0.0843263 0.77956
1129 2 0.157008 0.243972 0.758352
1131 4 0.179253 0.247295 0.769273
977 4 0.314822 0.223925 0.750852
918 4 0.300208 0.238228 0.750916
1298 4 0.296574 0.219873 0.753978
1297 2 0.294748 0.199974 0.769007
1299 4 0.292922 0.180074 0.784036
46 1 0.405043 0.176163 0.800626
1043 4 0.401319 0.201011 0.806422
49 3 0.385685 0.18506 0.80982