ITEM: TIMESTEP
770000
ITEM: NUMBER OF ATOMS
4590
ITEM: BOX BOUNDS pp pp pp
-9.9985700000000008e+00 9.9985700000000008e+00
-9.9985700000000008e+00 9.9985700000000008e+00
-9.9985700000000008e+00 9.9985700000000008e+00
ITEM: ATOMS id type xs ys zs
1668 4 0.0897183 0.0440729 0.0694444
1475 4 0.286916 0.0213301 0.0643801
492 4 0.274057 0.0332087 0.0771156
747 4 0.446316 0.0534913 0.0161658
2974 2 0.467951 0.0196535 0.0356523
2976 4 0.481498 0.00159658 0.0464045
2468 4 0.495551 0.00264998 0.0615052
2975 4 0.454404 0.0377104 0.0249002
986 4 0.428002 0.0476926 0.00878168
745 2 0.436105 0.0757507 0.0212079
566 4 0.156809 0.159488 0.0635881
567 4 0.203009 0.152139 0.0459166
565 2 0.179909 0.155813 0.0547524
297 4 0.318024 0.083688 0.0555067
358 2 0.322624 0.144623 0.0666634
360 4 0.333386 0.156705 0.0476005
295 2 0.340843 0.0898005 0.0636982
296 4 0.363662 0.0959131 0.0718897
557 4 0.372443 0.105374 0.0558747
556 2 0.391223 0.107431 0.0394961
558 4 0.410003 0.109488 0.0231174
769 2 0.417407 0.159053 0.0620664
770 4 0.399634 0.16697 0.0463621
746 4 0.425893 0.09801 0.0262501
771 4 0.435181 0.151137 0.0777708
554 4 0.0764443 0.23452 0.00216103
664 2 0.350078 0.203298 0.0182365
665 4 0.35617 0.20115 0.0423914
323 4 0.424763 0.241611 0.0635395
553 2 0.0779815 0.256162 0.0145878
555 4 0.0795187 0.277804 0.0270147
293 4 0.154963 0.303047 0.0220543
507 4 0.162784 0.305252 0.0407636
287 4 0.15874 0.323608 0.0466149
505 2 0.177214 0.293798 0.057668
483 4 0.211872 0.280869 0.0733084
506 4 0.191644 0.282344 0.0745724
481 2 0.234809 0.271366 0.0703504
573 4 0.271721 0.267659 0.0542558
482 4 0.257747 0.261864 0.0673925
572 4 0.311088 0.271515 0.0236599
571 2 0.291404 0.269587 0.0389579
357 4 0.310356 0.275141 0.00360463
957 4 0.330195 0.313649 0.00318034
1069 2 0.388755 0.284163 0.0123188
1070 4 0.413443 0.284679 0.0162471
1071 4 0.364067 0.283647 0.00839046
741 4 0.361566 0.328474 0.0535055
739 2 0.349751 0.336041 0.0742013
322 2 0.424217 0.256101 0.0431697
324 4 0.423671 0.270591 0.0228
671 4 0.447273 0.329051 0.0699201
280 2 0.438654 0.309779 0.0375762
281 4 0.454228 0.319313 0.054657
282 4 0.423081 0.300245 0.0204955
551 4 0.0661923 0.401198 0.0716077
620 4 0.00461136 0.345393 0.0526049
550 2 0.0892728 0.393079 0.0767594
552 4 0.112353 0.384959 0.081911
288 4 0.177237 0.365685 0.0269155
286 2 0.167988 0.344647 0.0367652
250 2 0.315674 0.40963 0.0374816
251 4 0.32557 0.398952 0.0171536
330 4 0.0173243 0.413998 0.0124492
245 4 0.221374 0.432021 0.0612724
626 4 0.215989 0.445678 0.0744468
244 2 0.23019 0.442832 0.0405226
246 4 0.239007 0.453644 0.0197727
272 4 0.240461 0.450463 0.000438938
252 4 0.305779 0.420309 0.0578096
609 4 0.301253 0.432151 0.0716042
563 4 0.460955 0.480906 0.0501248
228 4 0.464649 0.468998 0.0649558
226 2 0.470705 0.449556 0.0794652
19 3 0.0438524 0.0679167 0.144908
1666 2 0.0807884 0.0607338 0.0858105
1667 4 0.0718585 0.0773947 0.102177
18 3 0.0703849 0.0508105 0.166069
1539 4 0.156084 0.00158113 0.137088
448 2 0.167056 0.0748166 0.154144
450 4 0.173464 0.0507215 0.156027
490 2 0.269356 0.055369 0.0876986
652 2 0.292759 0.0197604 0.162818
653 4 0.310259 0.0357011 0.170871
491 4 0.264655 0.0775293 0.0982815
654 4 0.27526 0.00381968 0.154765
1506 4 0.259101 0.998605 0.16518
311 4 0.391198 0.0685691 0.161421
2722 2 0.474914 0.0442254 0.131986
2723 4 0.466475 0.05794 0.112858
2724 4 0.483354 0.0305108 0.151114
1760 4 0.488229 0.0126374 0.147179
2744 4 0.487315 0.0199958 0.166421
701 4 0.0893063 0.0854983 0.105361
700 2 0.0888342 0.109626 0.111903
702 4 0.0883622 0.133754 0.118446
476 4 0.0914022 0.139724 0.138215
475 2 0.107707 0.152255 0.152438
449 4 0.160649 0.0989118 0.152261
237 4 0.187983 0.155987 0.158618
235 2 0.180509 0.134061 0.149208
236 4 0.173036 0.112134 0.139798
737 4 0.20027 0.164498 0.122759
359 4 0.311862 0.132542 0.0857262
581 4 0.287029 0.130904 0.147155
310 2 0.401964 0.0854727 0.14647
628 2 0.403568 0.143859 0.118437
630 4 0.39598 0.167657 0.117312
629 4 0.411156 0.120062 0.119562
312 4 0.41273 0.102376 0.131519
254 4 0.378977 0.164471 0.108356
339 4 0.0675358 0.244239 0.123912
2625 4 0.014913 0.191168 0.115595
337 2 0.0791806 0.241308 0.145844
736 2 0.188248 0.185944 0.118203
738 4 0.176227 0.207389 0.113646
461 4 0.309226 0.237313 0.0917355
460 2 0.329324 0.222637 0.0893161
354 4 0.29383 0.244584 0.10285
284 4 0.284404 0.237769 0.166411
278 4 0.26526 0.241292 0.162569
352 2 0.284863 0.242111 0.126059
353 4 0.275896 0.239637 0.149268
462 4 0.349421 0.20796 0.0868967
255 4 0.34711 0.203006 0.107789
253 2 0.363043 0.183738 0.108073
765 4 0.379299 0.248988 0.146217
763 2 0.362193 0.240015 0.162093
518 4 0.488805 0.2452 0.117867
528 4 0.473747 0.239145 0.128354
536 4 0.193418 0.300767 0.113257
535 2 0.20157 0.324394 0.11254
756 4 0.246135 0.301265 0.159721
754 2 0.256662 0.279086 0.154984
755 4 0.267188 0.256906 0.150247
624 4 0.391001 0.252591 0.130839
622 2 0.380795 0.255885 0.108252
623 4 0.370589 0.259179 0.0856656
672 4 0.413743 0.329604 0.107016
670 2 0.430508 0.329327 0.0884681
526 2 0.465827 0.255699 0.145337
527 4 0.457906 0.272252 0.162321
455 4 0.132152 0.381278 0.0862887
454 2 0.156218 0.387875 0.0847109
456 4 0.180284 0.394471 0.083133
537 4 0.209721 0.34802 0.111823
302 4 0.315307 0.364632 0.15797
387 4 0.31732 0.348338 0.145445
385 2 0.333907 0.350606 0.126874
740 4 0.337935 0.343607 0.0948972
15 3 0.369024 0.357388 0.101048
386 4 0.350494 0.352875 0.108302
11 1 0.38896 0.362806 0.110631
13 3 0.387013 0.362361 0.133748
14 3 0.395626 0.383906 0.103648
495 4 0.407882 0.395685 0.0935113
12 3 0.404866 0.347478 0.104211
315 4 0.00940587 0.425795 0.11455
314 4 0.999633 0.430562 0.16336
313 2 0.00451934 0.428178 0.138955
625 2 0.201453 0.456225 0.0918437
627 4 0.186918 0.466772 0.109241
607 2 0.321528 0.436367 0.0856152
767 4 0.278206 0.486557 0.164951
608 4 0.341804 0.440583 0.0996261
658 2 0.361968 0.449222 0.118324
659 4 0.34681 0.459872 0.101532
660 4 0.377126 0.438571 0.135116
493 2 0.415911 0.418456 0.100009
596 4 0.476711 0.417275 0.156074
494 4 0.423939 0.441227 0.106507
227 4 0.476761 0.430115 0.0939746
16 1 0.0516835 0.0645395 0.166487
17 3 0.0352143 0.0542973 0.178857
2480 4 0.0236597 0.0442545 0.192228
1422 4 0.0245293 0.0247504 0.186768
1420 2 0.0270679 0.00115295 0.1789
673 2 0.1165 0.0189702 0.232206
674 4 0.124567 0.013817 0.209107
693 4 0.239534 0.072014 0.204397
691 2 0.241278 0.0732034 0.229312
689 4 0.171313 0.0152002 0.224468
24 3 0.323886 0.0518742 0.23623
21 1 0.34468 0.0473655 0.226974
25 3 0.342335 0.0414513 0.205107
759 4 0.35736 0.0595257 0.206767
22 3 0.357694 0.0662837 0.228353
757 2 0.367059 0.0711441 0.186865
758 4 0.376758 0.0827626 0.166962
23 3 0.355045 0.030258 0.238735
742 2 0.488589 0.0822324 0.224049
20 3 0.0569275 0.084524 0.176067
578 4 0.0715707 0.100193 0.227327
379 2 0.007827 0.13969 0.177743
381 4 0.0196171 0.134322 0.199129
512 4 0.0250428 0.152031 0.20789
511 2 0.0404368 0.16097 0.225448
477 4 0.124012 0.164786 0.166661
577 2 0.0957623 0.0943129 0.229645
579 4 0.119954 0.0884327 0.231962
582 4 0.271973 0.106347 0.188032
580 2 0.279501 0.118625 0.167593
28 3 0.297825 0.141387 0.256156
632 4 0.37744 0.117137 0.244486
743 4 0.475286 0.0987718 0.237265
333 4 0.441595 0.133425 0.232635
331 2 0.458133 0.151676 0.236946
396 4 0.00281724 0.24521 0.242279
513 4 0.0558309 0.16991 0.243006
338 4 0.0908254 0.238377 0.167775
363 4 0.0803183 0.230017 0.181826
361 2 0.0928651 0.243416 0.198803
277 2 0.251134 0.222307 0.170643
279 4 0.237008 0.203321 0.178717
283 2 0.30606 0.232402 0.177697
285 4 0.327716 0.227034 0.188984
27 3 0.317394 0.17145 0.244934
764 4 0.345087 0.231042 0.177968
520 2 0.4897 0.190093 0.212164
521 4 0.471447 0.178088 0.224326
332 4 0.474671 0.169926 0.241257
394 2 0.0054922 0.26215 0.224084
395 4 0.00816717 0.279091 0.20589
750 4 0.083374 0.306048 0.249951
371 4 0.160574 0.300434 0.219727
370 2 0.141056 0.284986 0.217362
372 4 0.121539 0.269538 0.214996
748 2 0.0859285 0.287756 0.233097
362 4 0.105412 0.256816 0.21578
749 4 0.0884831 0.269463 0.216244
343 2 0.239175 0.309455 0.238879
612 4 0.242142 0.317397 0.170086
344 4 0.250806 0.309079 0.216749
610 2 0.256448 0.32699 0.188211
308 4 0.330361 0.299264 0.215773
307 2 0.330762 0.29429 0.240273
648 4 0.0823034 0.350818 0.163361
647 4 0.0940966 0.367523 0.208996
646 2 0.0882 0.35917 0.186178
415 2 0.203877 0.39946 0.1758
291 4 0.238672 0.400162 0.197939
416 4 0.228225 0.395898 0.180233
417 4 0.179529 0.403023 0.171367
289 2 0.258968 0.413857 0.192866
611 4 0.270753 0.336583 0.206335
303 4 0.290142 0.373086 0.20035
301 2 0.302724 0.368859 0.17916
729 4 0.305212 0.380741 0.210331
727 2 0.308153 0.374652 0.234403
644 4 0.420583 0.36405 0.236341
595 2 0.461423 0.409901 0.174434
597 4 0.446135 0.402528 0.192793
643 2 0.429615 0.373854 0.215187
645 4 0.438648 0.383658 0.194034
1757 4 0.0618751 0.483353 0.236443
1756 2 0.0809532 0.498216 0.242789
1467 4 0.0161235 0.502427 0.193046
264 4 0.0284429 0.443837 0.246039
262 2 0.0134885 0.424046 0.242899
638 4 0.262806 0.498641 0.165503
290 4 0.279263 0.427551 0.187793
768 4 0.276177 0.446143 0.194333
766 2 0.277191 0.46635 0.179642
231 4 0.425434 0.479223 0.223899
232 2 0.0165043 0.0349387 0.297052
233 4 0.0383359 0.0301498 0.285843
1402 2 0.0784095 0.0278317 0.278031
1404 4 0.0569485 0.0392837 0.283815
675 4 0.108432 0.0241234 0.255304
1403 4 0.0998705 0.0163798 0.272247
1464 4 0.114968 0.00497595 0.279758
692 4 0.243021 0.0743927 0.254226
699 4 0.353934 0.0768583 0.320266
478 2 0.488534 0.0588765 0.29681
480 4 0.467028 0.0662657 0.307206
351 4 0.452202 0.0766903 0.30049
393 4 0.0600543 0.166361 0.260772
398 4 0.0384585 0.149307 0.327273
397 2 0.0498903 0.12823 0.33436
723 4 0.231305 0.0830472 0.266887
721 2 0.228536 0.0982921 0.286511
722 4 0.225767 0.113537 0.306135
249 4 0.229848 0.117755 0.326102
403 2 0.243921 0.148097 0.321647
404 4 0.230519 0.133498 0.336892
405 4 0.257324 0.162696 0.306402
26 1 0.308158 0.160936 0.26319
29 3 0.325034 0.155974 0.278322
707 4 0.336294 0.141817 0.288274
633 4 0.354568 0.134222 0.285544
631 2 0.366004 0.12568 0.265015
706 2 0.342815 0.156417 0.307496
350 4 0.40706 0.0922167 0.315385
349 2 0.429631 0.0844535 0.307938
444 4 0.0263828 0.247819 0.299498
391 2 0.0840106 0.172166 0.264965
442 2 0.0205758 0.239554 0.276626
443 4 0.0147687 0.231289 0.253753
392 4 0.107967 0.177971 0.269158
546 4 0.148674 0.200269 0.257169
544 2 0.162883 0.208001 0.276235
390 4 0.122668 0.247509 0.315266
388 2 0.100087 0.246805 0.325979
545 4 0.177091 0.215734 0.295301
30 3 0.292864 0.174761 0.272866
708 4 0.349336 0.171018 0.326718
717 4 0.377617 0.209583 0.326047
762 4 0.481531 0.175462 0.259964
761 4 0.475814 0.190344 0.307362
760 2 0.478673 0.182903 0.283663
300 4 0.108871 0.333523 0.268241
345 4 0.227544 0.309831 0.26101
401 4 0.169405 0.278787 0.308658
400 2 0.181907 0.266772 0.290644
402 4 0.194408 0.254756 0.272629
676 2 0.198973 0.326171 0.313312
496 2 0.310274 0.318044 0.291812
497 4 0.298668 0.332355 0.308714
377 4 0.287114 0.324637 0.322417
498 4 0.321879 0.303732 0.27491
309 4 0.331163 0.289315 0.264774
615 4 0.372261 0.321785 0.320505
541 2 0.387036 0.280365 0.327728
543 4 0.375104 0.302189 0.325166
542 4 0.398967 0.258542 0.33029
364 2 0.0180519 0.366922 0.294417
365 4 0.0309444 0.384928 0.282808
601 2 0.0689648 0.393478 0.292376
603 4 0.0491743 0.390169 0.277458
366 4 0.00515941 0.348917 0.306025
602 4 0.0887554 0.396787 0.307295
549 4 0.0960807 0.403214 0.324335
298 2 0.130896 0.340109 0.258408
299 4 0.152921 0.346696 0.248576
677 4 0.204489 0.342326 0.295042
734 4 0.172513 0.352662 0.250553
733 2 0.190077 0.355918 0.268049
735 4 0.20764 0.359174 0.285545
728 4 0.311094 0.368563 0.258475
433 2 0.307059 0.371877 0.32018
435 4 0.282514 0.368354 0.323394
434 4 0.331604 0.375399 0.316967
447 4 0.415347 0.377853 0.249104
613 2 0.360304 0.34369 0.318969
614 4 0.348347 0.365596 0.317433
445 2 0.407649 0.363851 0.268335
446 4 0.39995 0.349849 0.287567
2463 4 0.0206511 0.480791 0.309388
777 4 0.0769139 0.468106 0.301484
2690 4 0.00493022 0.480343 0.295356
2461 2 0.0109146 0.493572 0.328545
775 2 0.0890274 0.47824 0.320867
412 2 0.215884 0.481854 0.32517
413 4 0.231073 0.491599 0.307864
1437 4 0.297336 0.500778 0.313574
436 2 0.332111 0.464707 0.314899
1803 4 0.356161 0.490606 0.262001
437 4 0.341468 0.464725 0.291712
712 2 0.44048 0.45422 0.333634
714 4 0.464482 0.449458 0.328494
427 2 0.0719423 0.0125861 0.334565
428 4 0.0642018 0.0362379 0.336986
316 2 0.0544275 0.065727 0.342024
317 4 0.045662 0.0424515 0.339455
1781 4 0.1103 0.00961454 0.396361
368 4 0.117087 0.0155967 0.414134
1700 4 0.266658 0.0564731 0.339262
1701 4 0.26839 0.00662583 0.335661
1699 2 0.267524 0.0315495 0.337462
683 4 0.295604 0.0553694 0.388131
682 2 0.298761 0.0773616 0.399601
697 2 0.366453 0.0606808 0.334644
698 4 0.378973 0.0445033 0.349022
257 4 0.395043 0.0339554 0.342179
256 2 0.419946 0.034067 0.344409
258 4 0.44485 0.0341786 0.346639
1428 4 0.456037 0.0159355 0.34971
2879 4 0.482029 0.0702911 0.411164
2642 4 0.495613 0.0604986 0.400851
732 4 0.0733965 0.0996015 0.356276
399 4 0.0613222 0.107152 0.341448
2586 4 0.00918896 0.135639 0.379443
318 4 0.0631929 0.0890025 0.344592
457 2 0.0288753 0.155655 0.411861
458 4 0.0126859 0.144264 0.396586
606 4 0.131266 0.0849513 0.349538
604 2 0.156143 0.0872749 0.34858
731 4 0.121827 0.103049 0.344303
730 2 0.0976116 0.101325 0.35029
598 2 0.142859 0.138922 0.364259
600 4 0.132998 0.130087 0.385469
599 4 0.15272 0.147758 0.343049
605 4 0.18102 0.0895986 0.347622
248 4 0.199024 0.0904203 0.354446
247 2 0.214436 0.104088 0.340274
684 4 0.301918 0.0993539 0.411071
452 4 0.460875 0.125468 0.403208
451 2 0.442582 0.135908 0.416683
389 4 0.0775059 0.2461 0.336693
686 4 0.150345 0.184114 0.407517
474 4 0.209189 0.207923 0.380066
276 4 0.193683 0.220521 0.377609
472 2 0.223677 0.187559 0.38085
274 2 0.190997 0.24538 0.377687
473 4 0.238164 0.167196 0.381635
715 2 0.394759 0.208031 0.344184
716 4 0.4119 0.206478 0.362321
467 4 0.40728 0.213898 0.381278
466 2 0.397634 0.20167 0.400839
468 4 0.387988 0.189443 0.4204
268 2 0.470962 0.23256 0.386841
270 4 0.446427 0.228096 0.385034
347 4 0.063505 0.291805 0.373984
346 2 0.0400285 0.296464 0.381218
618 4 0.076196 0.30581 0.381792
348 4 0.0165519 0.301124 0.388452
616 2 0.0959644 0.305641 0.366483
617 4 0.115733 0.305473 0.351174
678 4 0.193456 0.310017 0.331581
275 4 0.188311 0.270239 0.377766
375 4 0.18692 0.310188 0.350995
373 2 0.184592 0.312566 0.375776
374 4 0.182264 0.314943 0.400557
376 2 0.277044 0.308609 0.338754
378 4 0.266974 0.292581 0.35509
420 4 0.409608 0.255714 0.347614
418 2 0.434265 0.259837 0.347161
419 4 0.458922 0.26396 0.346707
2928 4 0.00321436 0.377614 0.411364
510 4 0.210797 0.353613 0.362675
508 2 0.234109 0.362647 0.362335
509 4 0.257421 0.371681 0.361994
561 4 0.474465 0.397132 0.40396
751 2 0.456174 0.412539 0.367931
753 4 0.445542 0.414693 0.345404
752 4 0.466806 0.410385 0.390459
547 2 0.0844536 0.418768 0.340084
548 4 0.0728264 0.434322 0.355834
407 4 0.0732748 0.433478 0.375359
406 2 0.0848268 0.432251 0.3975
570 4 0.150478 0.4875 0.40937
776 4 0.101141 0.488375 0.340251
1555 2 0.232015 0.487234 0.409443
1556 4 0.209835 0.487004 0.397905
414 4 0.200694 0.472108 0.342477
438 4 0.322754 0.464689 0.338085
3 3 0.310268 0.46487 0.353383
5 3 0.299024 0.49501 0.372948
1 1 0.316893 0.48192 0.367659
2 3 0.332797 0.494728 0.357068
4 3 0.326125 0.472948 0.386964
1742 4 0.404564 0.488908 0.341142
594 4 0.415205 0.474877 0.350757
592 2 0.409169 0.470829 0.374681
593 4 0.403133 0.466781 0.398605
713 4 0.416478 0.458982 0.338774
2862 4 0.499133 0.469371 0.335783
119 3 0.480584 0.454621 0.334868
116 1 0.49753 0.44548 0.347816
117 3 0.489383 0.441425 0.368943
718 2 0.0620945 0.0298148 0.463258
720 4 0.0506913 0.0160735 0.48076
2237 4 0.044598 0.0214141 0.499596
719 4 0.0734977 0.043556 0.445756
369 4 0.0870999 0.050874 0.433029
367 2 0.102093 0.0332354 0.423581
2428 2 0.216626 0.00483823 0.49748
340 2 0.213616 0.0592345 0.490464
341 4 0.213773 0.0345118 0.486731
2430 4 0.229698 0.0236534 0.487465
441 4 0.316056 0.017434 0.420143
962 4 0.309677 0.0137356 0.438806
961 2 0.306603 0.0234452 0.461641
963 4 0.303528 0.0331548 0.484477
432 4 0.299268 0.05207 0.49007
426 4 0.388713 0.0328025 0.424316
424 2 0.364144 0.032613 0.428952
425 4 0.339575 0.0324235 0.433588
725 4 0.410855 0.0499428 0.467757
724 2 0.406615 0.0745775 0.467182
342 4 0.213459 0.0839573 0.494198
1152 4 0.226301 0.0967293 0.501187
1181 4 0.259589 0.135728 0.472885
320 4 0.298202 0.103904 0.430998
321 4 0.284491 0.151419 0.423578
319 2 0.291346 0.127662 0.427288
1180 2 0.262976 0.138218 0.497533
726 4 0.402375 0.0992122 0.466608
514 2 0.41273 0.165262 0.453846
453 4 0.424289 0.146347 0.430157
2878 2 0.478662 0.0867322 0.429699
2880 4 0.475295 0.103173 0.448234
640 2 0.484124 0.126245 0.474663
515 4 0.421731 0.166192 0.430538
641 4 0.476587 0.140131 0.494043
642 4 0.49166 0.11236 0.455284
260 4 0.0503188 0.18434 0.435757
459 4 0.0450646 0.167046 0.427136
259 2 0.0750698 0.186979 0.438125
685 2 0.134512 0.187651 0.426543
687 4 0.118678 0.191188 0.445568
261 4 0.0998208 0.189617 0.440492
1035 4 0.105705 0.193076 0.459222
1033 2 0.113592 0.201589 0.481369
489 4 0.318174 0.226349 0.450394
411 4 0.327772 0.21303 0.439438
487 2 0.310591 0.245259 0.435899
409 2 0.349741 0.207681 0.428764
410 4 0.37171 0.202332 0.41809
575 4 0.396941 0.176438 0.492864
516 4 0.403728 0.164332 0.477155
695 4 0.0649149 0.267188 0.467851
694 2 0.0897922 0.268925 0.466039
696 4 0.11467 0.270661 0.464227
1258 2 0.137812 0.299157 0.48894
1260 4 0.129422 0.28285 0.471943
9 3 0.14738 0.333866 0.49819
651 4 0.239607 0.274978 0.488287
488 4 0.303008 0.264169 0.421404
266 4 0.348204 0.267993 0.434544
267 4 0.389705 0.265567 0.462339
265 2 0.368955 0.26678 0.448441
583 2 0.46507 0.271376 0.484133
585 4 0.44122 0.271044 0.476634
584 4 0.48892 0.271708 0.491631
326 4 0.0973308 0.347484 0.452065
6 1 0.16073 0.352232 0.493405
327 4 0.129991 0.37286 0.480173
325 2 0.113661 0.360172 0.466119
7 3 0.147421 0.370944 0.492032
502 2 0.242597 0.387925 0.422337
10 3 0.17138 0.349127 0.473516
711 4 0.167497 0.368917 0.43018
504 4 0.218859 0.395152 0.419263
709 2 0.189503 0.380142 0.434047
710 4 0.211508 0.391367 0.437915
503 4 0.266335 0.380699 0.42541
336 4 0.31345 0.374959 0.42385
668 4 0.30026 0.39066 0.425008
667 2 0.296623 0.405337 0.444921
587 4 0.414574 0.415841 0.433911
882 4 0.342955 0.40901 0.46658
335 4 0.363184 0.371917 0.419608
334 2 0.338317 0.373438 0.421729
238 2 0.398229 0.381294 0.430449
240 4 0.378436 0.36612 0.432226
3307 2 0.490221 0.383772 0.493753
559 2 0.487121 0.39068 0.424537
239 4 0.418022 0.396468 0.428673
3309 4 0.465708 0.388689 0.494123
679 2 0.00863067 0.426697 0.427043
680 4 0.021107 0.444802 0.438949
1383 4 0.0177135 0.464018 0.432945
1381 2 0.0231368 0.48635 0.442795
408 4 0.0963788 0.431024 0.419641
384 4 0.0978066 0.416686 0.475386
568 2 0.133912 0.47233 0.420352
382 2 0.100721 0.430365 0.45466
383 4 0.103635 0.444044 0.433934
569 4 0.117345 0.45716 0.431333
1557 4 0.254196 0.487463 0.420982
634 2 0.277944 0.464362 0.440499
774 4 0.288699 0.437626 0.473966
635 4 0.282118 0.447582 0.45856
669 4 0.292985 0.420015 0.464833
636 4 0.273771 0.481142 0.422438
772 2 0.275472 0.429882 0.493721
586 2 0.40304 0.438024 0.433759
880 2 0.334663 0.419333 0.48779
588 4 0.391505 0.460208 0.433607
663 4 0.446557 0.460055 0.456482
661 2 0.452053 0.483452 0.463379
430 2 0.309905 0.0618496 0.510476
431 4 0.320542 0.0716292 0.530881
951 4 0.270698 0.0531121 0.580357
1031 4 0.255687 0.0660565 0.577575
841 2 0.358674 0.068994 0.533817
842 4 0.380649 0.0570749 0.53336
1217 4 0.38451 0.0557912 0.513861
1216 2 0.407785 0.0499355 0.52087
1218 4 0.431061 0.0440798 0.527879
3007 2 0.493298 0.0577459 0.573814
3008 4 0.469212 0.0606123 0.579882
1128 4 0.00973182 0.0895577 0.573144
470 4 0.0366545 0.161176 0.540182
937 2 0.100566 0.16027 0.556987
1059 4 0.13394 0.122917 0.566779
939 4 0.123475 0.155009 0.565512
1057 2 0.124577 0.100647 0.573225
1155 4 0.137993 0.141754 0.561912
1153 2 0.153257 0.15223 0.578718
1151 4 0.188772 0.126082 0.516378
1030 2 0.246175 0.0891634 0.578452
1150 2 0.207536 0.111406 0.508783
1032 4 0.236663 0.11227 0.579329
1182 4 0.266363 0.140709 0.52218
900 4 0.283596 0.174921 0.532597
843 4 0.336699 0.080913 0.534273
469 2 0.0328253 0.176673 0.520937
878 4 0.0354443 0.222269 0.56769
471 4 0.028996 0.192169 0.501692
938 4 0.0776566 0.165531 0.548462
1244 4 0.0372795 0.243142 0.559517
1199 4 0.0169722 0.220361 0.574575
1034 4 0.121478 0.210101 0.503517
858 4 0.192708 0.231948 0.546426
856 2 0.200379 0.243043 0.525373
898 2 0.292037 0.179822 0.555616
899 4 0.300479 0.184723 0.578636
576 4 0.367616 0.188176 0.531632
574 2 0.382279 0.182307 0.512248
3159 4 0.494253 0.175182 0.565075
983 4 0.0229035 0.321873 0.52732
1245 4 0.0502638 0.291273 0.555577
1243 2 0.0437716 0.267208 0.557547
982 2 0.0194354 0.331219 0.55025
1259 4 0.146202 0.315464 0.505936
857 4 0.20805 0.254139 0.50432
650 4 0.267256 0.252206 0.523181
649 2 0.253432 0.263592 0.505734
872 4 0.371791 0.28781 0.547535
871 2 0.367368 0.312413 0.546962
954 4 0.405393 0.287645 0.591326
906 4 0.462617 0.264404 0.574586
3065 4 0.499865 0.254913 0.513777
953 4 0.443118 0.265057 0.567508
904 2 0.487214 0.263604 0.570167
952 2 0.424255 0.276351 0.579417
984 4 0.0159674 0.340565 0.573181
3354 4 0.00602452 0.357206 0.568708
1189 2 0.220278 0.374605 0.578853
1190 4 0.236295 0.359829 0.566593
8 3 0.176302 0.355329 0.510326
803 4 0.235583 0.354165 0.548354
802 2 0.255728 0.360341 0.534891
804 4 0.275872 0.366517 0.521428
873 4 0.362945 0.337015 0.546389
813 4 0.354806 0.347475 0.530763
928 2 0.338536 0.380718 0.576499
811 2 0.371761 0.365764 0.53257
929 4 0.349068 0.399789 0.564229
812 4 0.388715 0.384052 0.534376
927 4 0.409193 0.385201 0.532247
926 4 0.437942 0.387774 0.573083
925 2 0.423568 0.386488 0.552665
539 4 0.0794783 0.460264 0.523676
538 2 0.0967419 0.47828 0.525278
540 4 0.114006 0.496296 0.52688
773 4 0.262245 0.422137 0.513475
881 4 0.326372 0.429656 0.509
1002 4 0.404813 0.446677 0.558785
1000 2 0.425733 0.452978 0.546628
1001 4 0.446654 0.459278 0.53447
945 4 0.0269874 0.0298848 0.660812
823 2 0.120775 0.00981547 0.628258
825 4 0.0984984 0.0205206 0.632042
949 2 0.28973 0.0466354 0.595224
950 4 0.308761 0.0401586 0.610091
2283 4 0.397045 0.0017993 0.61964
809 4 0.465975 0.0748725 0.594058
808 2 0.462595 0.0828488 0.617512
42 3 0.450843 0.0779394 0.657086
1083 4 0.0634171 0.10002 0.614911
1126 2 0.0305472 0.0910353 0.586918
1081 2 0.0601263 0.0914015 0.63815
1127 4 0.0513626 0.0925128 0.600691
1082 4 0.0568354 0.0827833 0.66139
1058 4 0.115214 0.0783772 0.57967
1154 4 0.168521 0.162706 0.595524
1221 4 0.185749 0.158175 0.605001
810 4 0.459215 0.0908251 0.640967
45 3 0.462246 0.111759 0.646172
3424 2 0.49634 0.125481 0.665387
3425 4 0.474794 0.112819 0.664584
41 1 0.453585 0.099847 0.663543
877 2 0.0544723 0.213286 0.581196
879 4 0.0735002 0.204302 0.594702
1179 4 0.0036086 0.209696 0.662705
1272 4 0.0932946 0.209396 0.594225
1270 2 0.117096 0.216024 0.590385
1271 4 0.140898 0.222652 0.586546
1212 4 0.224259 0.20323 0.628385
1219 2 0.201184 0.171567 0.619409
1220 4 0.216618 0.184959 0.633818
1210 2 0.242324 0.201345 0.645569
1211 4 0.260389 0.199461 0.662753
888 4 0.260186 0.178517 0.667522
1193 4 0.364805 0.179304 0.654512
1192 2 0.340555 0.181807 0.660069
1136 4 0.121255 0.297512 0.592731
948 4 0.136808 0.291631 0.581212
946 2 0.157386 0.277492 0.582571
1135 2 0.129105 0.320974 0.59635
798 4 0.196751 0.27149 0.585334
796 2 0.218173 0.274111 0.59796
947 4 0.177963 0.263353 0.58393
797 4 0.239595 0.276733 0.610585
791 4 0.253247 0.290715 0.616204
792 4 0.297306 0.285428 0.593148
790 2 0.275277 0.288072 0.604676
1238 4 0.307764 0.30049 0.601579
1237 2 0.31988 0.321168 0.594451
806 4 0.352713 0.324599 0.662379
3123 4 0.498369 0.24741 0.649044
1039 2 0.0675023 0.407603 0.634354
1041 4 0.0426262 0.40654 0.632068
3264 4 0.0249203 0.400747 0.639193
3262 2 0.0221835 0.377115 0.646887
3263 4 0.0194467 0.353483 0.654581
3240 4 0.00850989 0.410729 0.636339
1040 4 0.0923785 0.408666 0.63664
993 4 0.0947707 0.388298 0.631001
1137 4 0.136954 0.344436 0.599968
897 4 0.141674 0.362498 0.595044
991 2 0.109384 0.373871 0.616735
992 4 0.123996 0.359444 0.60247
1172 4 0.21617 0.406352 0.593624
1191 4 0.20426 0.389382 0.591112
896 4 0.189164 0.377739 0.591423
895 2 0.165419 0.370119 0.593234
1029 4 0.23735 0.403595 0.667418
1239 4 0.331996 0.341846 0.587323
930 4 0.328005 0.361646 0.588768
1140 4 0.251094 0.415957 0.662382
1204 2 0.407339 0.40618 0.646141
1205 4 0.383862 0.407745 0.654602
1206 4 0.430815 0.404615 0.63768
1160 4 0.120282 0.466726 0.594698
1159 2 0.142913 0.476046 0.589584
1161 4 0.165544 0.485367 0.58447
1171 2 0.217528 0.430536 0.599826
1173 4 0.218886 0.45472 0.606029
1187 4 0.221425 0.474934 0.603259
1186 2 0.201762 0.485559 0.592048
1952 4 0.319011 0.483464 0.593234
889 2 0.292748 0.477445 0.618479
891 4 0.285397 0.471596 0.641651
890 4 0.300098 0.483293 0.595307
1951 2 0.338917 0.498414 0.590907
1230 4 0.360239 0.464796 0.648965
1268 4 0.459552 0.493251 0.651239
1269 4 0.438439 0.447995 0.653859
1267 2 0.448996 0.470623 0.652549
943 2 0.0432157 0.0440895 0.673463
944 4 0.0594441 0.0582943 0.686114
1076 4 0.0567731 0.076599 0.680502
2991 4 0.0170011 0.0449078 0.743336
1283 4 0.154871 0.0849192 0.666837
1202 4 0.114823 0.0338882 0.750873
1147 2 0.220775 0.0591144 0.729538
1149 4 0.226014 0.0365918 0.720027
1004 4 0.389935 0.0601752 0.690945
1163 4 0.463683 0.0796599 0.675195
1162 2 0.472761 0.0604814 0.688423
2320 2 0.486115 0.0256915 0.736519
2321 4 0.48947 0.0268925 0.71177
1164 4 0.481838 0.041303 0.70165
4581 4 0.492936 0.0107074 0.702839
864 4 0.059753 0.110871 0.726183
1075 2 0.0620463 0.0963068 0.694958
1077 4 0.0673195 0.116015 0.709414
1107 4 0.0691763 0.1289 0.722906
851 4 0.0629165 0.134365 0.704413
850 2 0.04926 0.149972 0.690445
1105 2 0.0905697 0.141034 0.727407
1282 2 0.139438 0.0935055 0.684537
1284 4 0.124005 0.102092 0.702236
909 4 0.14415 0.165813 0.691559
1106 4 0.111963 0.153168 0.731909
1148 4 0.215536 0.081637 0.739049
908 4 0.190129 0.147951 0.699776
907 2 0.16714 0.156882 0.695667
1227 4 0.205897 0.138479 0.703727
1225 2 0.20538 0.117509 0.717335
1226 4 0.204862 0.0965389 0.730943
829 2 0.33114 0.150964 0.708136
830 4 0.322255 0.158509 0.686016
1003 2 0.38803 0.0844848 0.685414
1005 4 0.386124 0.108794 0.679884
831 4 0.340025 0.143419 0.730256
43 3 0.432931 0.10853 0.669578
44 3 0.46808 0.100573 0.681647
1146 4 0.49886 0.162271 0.748639
852 4 0.0356036 0.165579 0.676477
1177 2 0.999126 0.20502 0.686855
1213 2 0.00317741 0.211325 0.741526
1073 4 0.118439 0.220499 0.735947
1072 2 0.118542 0.245502 0.735861
1194 4 0.316306 0.18431 0.665625
886 2 0.284216 0.174865 0.673386
887 4 0.308247 0.171214 0.679249
1025 4 0.435927 0.184021 0.672989
1262 4 0.442004 0.217111 0.731651
1142 4 0.450109 0.183728 0.724188
1024 2 0.441468 0.193357 0.695513
1141 2 0.446341 0.176959 0.747962
1026 4 0.447008 0.202693 0.718037
1261 2 0.454711 0.237282 0.739193
1074 4 0.118646 0.270505 0.735776
1209 4 0.139237 0.301327 0.687523
1207 2 0.116794 0.292002 0.6934
1208 4 0.0943517 0.282676 0.699277
821 4 0.158315 0.304834 0.692184
820 2 0.178162 0.292912 0.682743
822 4 0.198009 0.28099 0.673302
1063 2 0.245104 0.310959 0.70702
1065 4 0.230976 0.315679 0.727101
1064 4 0.259233 0.306239 0.686938
916 2 0.310891 0.263778 0.746995
917 4 0.318857 0.285871 0.738415
807 4 0.327781 0.290596 0.689267
805 2 0.340247 0.307597 0.675823
1263 4 0.467417 0.257453 0.746734
892 2 0.0218166 0.354848 0.713429
893 4 0.00932197 0.336553 0.701837
894 4 0.0343112 0.373143 0.725021
1280 4 0.0467941 0.388656 0.722845
1279 2 0.0485627 0.412886 0.716932
816 4 0.0629323 0.379507 0.729885
814 2 0.0838036 0.368978 0.738756
1028 4 0.206911 0.374841 0.694757
1066 2 0.182933 0.377133 0.730985
1068 4 0.191208 0.372013 0.707952
1027 2 0.222131 0.389218 0.681087
1019 4 0.370724 0.378551 0.736428
1018 2 0.388104 0.395772 0.741583
1020 4 0.405484 0.412992 0.746739
1981 2 0.0675208 0.460112 0.738409
1281 4 0.0503312 0.437116 0.71102
1983 4 0.0489223 0.452373 0.723597
1176 4 0.195129 0.496287 0.72552
2016 4 0.178602 0.494398 0.736668
1138 2 0.255485 0.432467 0.680639
1139 4 0.259876 0.448977 0.698896
1988 4 0.3198 0.45256 0.744912
1987 2 0.32025 0.459575 0.720917
1989 4 0.320699 0.466591 0.696922
1229 4 0.332956 0.480331 0.687888
1228 2 0.346598 0.472564 0.668427
1100 4 0.402718 0.496339 0.703856
2989 2 0.00847397 0.0662051 0.753281
2049 4 0.127443 0.0185089 0.751588
1203 4 0.0988243 0.0706558 0.780755
1201 2 0.106824 0.052272 0.765814
1257 4 0.235049 0.0604294 0.78588
1255 2 0.246805 0.0782883 0.798843
817 2 0.326832 0.0465206 0.801722
819 4 0.31082 0.0623483 0.812598
1085 4 0.301525 0.0791829 0.811157
818 4 0.342844 0.030693 0.790846
1050 4 0.332963 0.00864348 0.761983
974 4 0.343412 0.0176102 0.776812
1113 4 0.422532 0.0715414 0.769977
2322 4 0.482761 0.0244904 0.761267
844 2 0.496291 0.0800746 0.790019
862 2 0.0455081 0.108907 0.746638
863 4 0.0312632 0.106944 0.767093
833 4 0.011723 0.103375 0.769017
832 2 0.00517574 0.114067 0.79065
2990 4 0.999947 0.0875023 0.763225
911 4 0.113292 0.12102 0.821975
34 3 0.127698 0.128628 0.77925
31 1 0.122821 0.134385 0.801193
35 3 0.100575 0.131607 0.805195
32 3 0.134819 0.120743 0.815303
33 3 0.128881 0.156435 0.80513
840 4 0.264404 0.108022 0.827019
1256 4 0.25856 0.0961471 0.811806
1084 2 0.299114 0.101807 0.800788
1086 4 0.296702 0.124431 0.79042
960 4 0.301145 0.0866896 0.830181
845 4 0.474125 0.0871584 0.799166
1111 2 0.438673 0.0823451 0.785722
1112 4 0.454815 0.0931487 0.801468
1214 4 0.0193597 0.20789 0.760274
1130 4 0.156057 0.211785 0.790344
978 4 0.244758 0.221544 0.753798
1129 2 0.177009 0.219741 0.779259
1131 4 0.197961 0.227697 0.768174
1277 4 0.209297 0.242555 0.777339
976 2 0.268253 0.226068 0.761058
977 4 0.291747 0.230592 0.768318
918 4 0.302924 0.241685 0.755575
1298 4 0.30942 0.225687 0.763711
1297 2 0.321388 0.209143 0.778142
1299 4 0.333355 0.192599 0.792572
1042 2 0.394876 0.231508 0.795035
1044 4 0.377072 0.246719 0.803801
1043 4 0.412679 0.216297 0.786269