ITEM: TIMESTEP
1850000
ITEM: NUMBER OF ATOMS
4590
ITEM: BOX BOUNDS pp pp pp
-9.9985700000000008e+00 9.9985700000000008e+00
-9.9985700000000008e+00 9.9985700000000008e+00
-9.9985700000000008e+00 9.9985700000000008e+00
ITEM: ATOMS id type xs ys zs
1666 2 0.0448978 0.0731775 0.0595919
1668 4 0.033916 0.0697715 0.0373888
1474 2 0.299457 0.0119976 0.074588
2974 2 0.467794 0.0285106 0.00727812
2976 4 0.475123 0.00747231 0.0186295
566 4 0.178627 0.162661 0.035613
2264 4 0.242143 0.165556 0.0122912
297 4 0.321706 0.117168 0.0244385
295 2 0.342901 0.107231 0.0156521
556 2 0.399242 0.108274 0.00878631
296 4 0.364096 0.0972938 0.00686571
557 4 0.374998 0.112769 0.00464074
558 4 0.423486 0.103779 0.0129319
746 4 0.439843 0.112171 0.00473849
565 2 0.201165 0.165391 0.0251358
567 4 0.223703 0.168121 0.0146587
1133 4 0.21772 0.180632 0.00141172
360 4 0.326495 0.165264 0.000951608
769 2 0.398382 0.174277 0.00749715
770 4 0.38169 0.175077 0.026096
359 4 0.364143 0.181758 0.0294346
358 2 0.345319 0.173511 0.0151931
664 2 0.383745 0.195969 0.0589461
665 4 0.373861 0.177661 0.0450782
666 4 0.393629 0.214276 0.0728139
323 4 0.399274 0.228701 0.0620316
623 4 0.398713 0.229735 0.0825089
555 4 0.0596131 0.27412 0.0182255
287 4 0.162849 0.315101 0.0380555
292 2 0.130057 0.290077 0.028168
507 4 0.15635 0.308194 0.0545514
293 4 0.151199 0.299893 0.0372153
294 4 0.108915 0.280262 0.0191206
286 2 0.171584 0.330023 0.0199936
551 4 0.0992098 0.324585 0.0548234
505 2 0.171367 0.303447 0.0739718
481 2 0.226171 0.286955 0.0855129
482 4 0.246318 0.275997 0.0755525
573 4 0.256998 0.290605 0.0690886
571 2 0.268217 0.284236 0.0476705
572 4 0.279436 0.277866 0.0262523
357 4 0.279965 0.277982 0.00639044
322 2 0.4103 0.246379 0.0482082
1069 2 0.397253 0.290019 0.017421
957 4 0.370791 0.315638 0.021068
1071 4 0.374483 0.299241 0.0127663
955 2 0.348937 0.316644 0.00896108
1070 4 0.420023 0.280798 0.0220757
324 4 0.421327 0.264057 0.0343847
671 4 0.4461 0.318261 0.0736049
280 2 0.446668 0.304923 0.0376981
281 4 0.455624 0.319757 0.0557238
282 4 0.437712 0.290089 0.0196724
670 2 0.42557 0.324581 0.0864006
455 4 0.141076 0.380245 0.0557029
552 4 0.128267 0.364666 0.0618845
550 2 0.113738 0.344626 0.0583539
454 2 0.164738 0.387674 0.0525261
288 4 0.180318 0.344945 0.00193172
456 4 0.1884 0.395103 0.0493494
1290 4 0.269775 0.403162 0.0166639
252 4 0.274663 0.408669 0.0713538
1288 2 0.277338 0.388628 0.997776
609 4 0.291811 0.413657 0.0790245
741 4 0.363573 0.324485 0.0382936
739 2 0.367034 0.328349 0.0627531
495 4 0.395892 0.361174 0.0834264
330 4 0.00472286 0.43124 0.00569621
245 4 0.246559 0.493469 0.0554053
626 4 0.226905 0.488468 0.0605583
625 2 0.209999 0.471556 0.067863
244 2 0.259501 0.476597 0.0422511
246 4 0.272443 0.459725 0.029097
251 4 0.265991 0.421063 0.0236893
250 2 0.270327 0.414866 0.0475215
272 4 0.268663 0.439816 0.0235491
1560 4 0.319317 0.500992 0.0775488
1672 2 0.41171 0.446237 0.0734148
853 2 0.408669 0.435247 0.0177081
854 4 0.422142 0.438729 0.0384815
1674 4 0.423824 0.451206 0.0521136
563 4 0.486439 0.454445 0.0461428
562 2 0.461666 0.454227 0.0427635
564 4 0.436893 0.45401 0.0393843
228 4 0.49195 0.439722 0.0342618
1667 4 0.0558797 0.0765835 0.081795
18 3 0.0814011 0.0363243 0.159354
1475 4 0.296038 0.0330878 0.0875761
492 4 0.308835 0.036987 0.10272
490 2 0.292807 0.0553043 0.108443
491 4 0.276779 0.0736215 0.114167
485 4 0.38577 0.993544 0.118262
2469 4 0.493906 0.0110566 0.0803979
2723 4 0.44599 0.0714761 0.149478
2722 2 0.463557 0.0539614 0.146347
2724 4 0.481125 0.0364468 0.143216
1760 4 0.498483 0.03114 0.13486
2744 4 0.493092 0.0239798 0.151873
701 4 0.0564274 0.0795115 0.101749
700 2 0.0691989 0.101005 0.10207
702 4 0.0819704 0.122498 0.102391
476 4 0.0785281 0.143793 0.104529
475 2 0.096119 0.147818 0.121837
477 4 0.11371 0.151843 0.139144
237 4 0.230319 0.133315 0.14879
582 4 0.247407 0.119965 0.150136
449 4 0.178757 0.117388 0.158846
235 2 0.208963 0.129758 0.161298
580 2 0.267448 0.129183 0.161907
628 2 0.365381 0.142779 0.153569
312 4 0.384368 0.108881 0.156392
629 4 0.376185 0.124756 0.167121
630 4 0.354577 0.160801 0.140018
310 2 0.384941 0.0863929 0.167307
339 4 0.0788471 0.24148 0.133589
337 2 0.0679262 0.24712 0.155363
736 2 0.236589 0.183302 0.120387
738 4 0.246132 0.192092 0.0990128
737 4 0.227047 0.174511 0.141761
461 4 0.302176 0.234173 0.0976729
460 2 0.324804 0.232594 0.108191
354 4 0.2826 0.23666 0.103454
352 2 0.274058 0.2392 0.126815
353 4 0.265516 0.24174 0.150177
278 4 0.257005 0.242227 0.167013
254 4 0.345293 0.174578 0.151612
462 4 0.347433 0.231014 0.118708
255 4 0.355604 0.218502 0.130046
253 2 0.350448 0.19654 0.140829
765 4 0.357072 0.23636 0.136646
624 4 0.366363 0.233309 0.120475
622 2 0.382538 0.231522 0.101492
763 2 0.345919 0.251191 0.153404
483 4 0.206024 0.297913 0.0954732
506 4 0.186383 0.2987 0.0933922
537 4 0.180318 0.317318 0.0994284
535 2 0.184688 0.326117 0.122421
755 4 0.246541 0.24969 0.153154
754 2 0.238846 0.271924 0.161617
387 4 0.312136 0.314738 0.11794
301 2 0.308757 0.31232 0.160826
302 4 0.309269 0.320547 0.13722
284 4 0.274295 0.249518 0.167415
385 2 0.333718 0.320166 0.10654
15 3 0.364473 0.325517 0.113565
386 4 0.355299 0.325594 0.0951401
12 3 0.400999 0.326314 0.121188
672 4 0.405039 0.3309 0.0991963
528 4 0.481432 0.26635 0.0992621
526 2 0.466243 0.285414 0.093691
527 4 0.451053 0.304477 0.0881198
315 4 0.0123344 0.397866 0.106319
647 4 0.0502154 0.354379 0.158791
417 4 0.142808 0.39975 0.14631
415 2 0.167178 0.395761 0.142394
536 4 0.189058 0.334917 0.145413
291 4 0.201543 0.391796 0.121572
289 2 0.223615 0.401454 0.128259
416 4 0.191549 0.391771 0.138477
493 2 0.389387 0.385303 0.0826078
494 4 0.382881 0.409431 0.0817892
14 3 0.387945 0.34422 0.0908294
740 4 0.370495 0.332213 0.0872126
11 1 0.383279 0.338337 0.112784
13 3 0.380389 0.357425 0.125657
595 2 0.484916 0.408835 0.124857
597 4 0.493134 0.407326 0.148423
645 4 0.489396 0.400222 0.167818
596 4 0.476698 0.410344 0.101291
104 3 0.501043 0.360815 0.143592
1791 4 0.0703729 0.485163 0.121925
1466 4 0.0540533 0.482042 0.133443
1465 2 0.0410861 0.478474 0.154521
627 4 0.193094 0.454643 0.0751677
290 4 0.245687 0.411113 0.134945
638 4 0.236501 0.477213 0.121452
607 2 0.306259 0.42516 0.0958798
608 4 0.320708 0.436663 0.112735
768 4 0.250526 0.42587 0.122586
767 4 0.255412 0.475385 0.127588
766 2 0.252969 0.450627 0.125087
1673 4 0.399596 0.441267 0.094716
659 4 0.338683 0.440928 0.106312
660 4 0.38337 0.429549 0.0869629
658 2 0.361027 0.435239 0.0966374
1559 4 0.357207 0.492144 0.108962
1558 2 0.338262 0.496568 0.0932553
524 4 0.373795 0.497837 0.0959707
16 1 0.0723073 0.0486891 0.176756
19 3 0.0674347 0.0701833 0.169499
17 3 0.0528359 0.0385838 0.183676
2480 4 0.0335263 0.0361301 0.183755
1422 4 0.0324345 0.0197314 0.195598
2479 2 0.0188795 0.051151 0.197358
380 4 0.999592 0.0838255 0.217343
20 3 0.0869418 0.0495031 0.194186
578 4 0.0996663 0.0581268 0.178781
674 4 0.146605 0.0208269 0.216039
673 2 0.130354 0.0122024 0.232971
689 4 0.158216 0.0064711 0.206017
577 2 0.123363 0.0648272 0.18311
579 4 0.14706 0.0715275 0.187438
1504 2 0.2375 0.992734 0.178597
652 2 0.292245 0.0182947 0.194059
654 4 0.278857 0.00937561 0.174918
1506 4 0.261244 0.999376 0.174443
653 4 0.305634 0.0272138 0.2132
25 3 0.334743 0.0427971 0.242249
311 4 0.385513 0.0639047 0.178222
758 4 0.375257 0.0508556 0.190387
759 4 0.352175 0.0578512 0.234194
757 2 0.363716 0.0543534 0.21229
511 2 0.0416301 0.155159 0.208529
513 4 0.0655142 0.161569 0.212223
381 4 0.0189131 0.128889 0.207508
512 4 0.0177459 0.148749 0.204836
379 2 0.00925258 0.106357 0.212426
393 4 0.083882 0.154297 0.214677
450 4 0.142625 0.0871214 0.175551
448 2 0.160691 0.102255 0.167198
391 2 0.0900611 0.1622 0.23758
691 2 0.226081 0.0962185 0.246037
693 4 0.212391 0.0825621 0.230186
236 4 0.187607 0.1262 0.173806
581 4 0.28749 0.138401 0.173678
26 1 0.319293 0.158376 0.24424
30 3 0.296695 0.161157 0.244771
28 3 0.324495 0.137451 0.235665
521 4 0.482772 0.139809 0.210327
332 4 0.482703 0.128855 0.228456
762 4 0.471705 0.143937 0.22521
760 2 0.45187 0.156154 0.234295
331 2 0.49312 0.106679 0.233442
394 2 0.0212044 0.227775 0.237589
395 4 0.0422256 0.216004 0.230901
396 4 0.000183152 0.239546 0.244277
279 4 0.25134 0.195265 0.183235
277 2 0.254173 0.218746 0.175124
27 3 0.328593 0.174481 0.230702
338 4 0.0570053 0.252761 0.177137
363 4 0.0681077 0.267914 0.180498
361 2 0.0752796 0.286577 0.195512
749 4 0.0680024 0.32125 0.213543
648 4 0.0582389 0.333888 0.203696
362 4 0.0824514 0.305241 0.210526
370 2 0.122488 0.304032 0.224054
372 4 0.0993441 0.299111 0.215971
371 4 0.145631 0.308953 0.232137
734 4 0.147697 0.322372 0.247475
756 4 0.23115 0.294158 0.170079
610 2 0.240697 0.303332 0.210791
612 4 0.236581 0.303711 0.186132
611 4 0.244814 0.302953 0.235451
285 4 0.318058 0.269988 0.180317
283 2 0.296177 0.259753 0.173866
307 2 0.326784 0.286022 0.211557
308 4 0.321962 0.289529 0.187275
303 4 0.308245 0.304094 0.184432
729 4 0.301475 0.31669 0.199458
498 4 0.326966 0.29392 0.251254
309 4 0.331606 0.282515 0.23584
764 4 0.334766 0.266022 0.170162
748 2 0.0760764 0.335898 0.232129
646 2 0.0542271 0.344134 0.181244
727 2 0.295498 0.339409 0.208018
728 4 0.28952 0.362129 0.216577
446 4 0.432386 0.356695 0.234914
445 2 0.435999 0.375929 0.219352
447 4 0.439613 0.395163 0.20379
644 4 0.45192 0.409793 0.199515
643 2 0.470658 0.405007 0.183667
1467 4 0.0281188 0.474906 0.175599
414 4 0.218892 0.472931 0.249268
229 2 0.464085 0.492704 0.235897
234 4 0.00729466 0.0489301 0.28281
232 2 0.030117 0.0387244 0.282408
233 4 0.0529394 0.0285186 0.282007
1404 4 0.0700285 0.0203794 0.284471
316 2 0.0817437 0.0518482 0.302721
317 4 0.0671669 0.0326421 0.296101
428 4 0.0719791 0.0142192 0.30239
427 2 0.0597228 0.00115876 0.319837
1402 2 0.0849907 0.00651961 0.270006
318 4 0.0963205 0.0710543 0.309341
732 4 0.111003 0.0812488 0.316947
24 3 0.31776 0.0716734 0.259436
21 1 0.337672 0.0600502 0.256822
23 3 0.344866 0.0519474 0.277341
22 3 0.353613 0.0743872 0.248486
349 2 0.393159 0.0718755 0.264792
351 4 0.415155 0.0618904 0.271245
479 4 0.460407 0.0265065 0.296571
478 2 0.445243 0.0374816 0.279995
2664 4 0.480682 0.026924 0.299387
480 4 0.430079 0.0484566 0.263418
1428 4 0.467284 0.017693 0.309546
258 4 0.451301 0.028147 0.313855
256 2 0.440276 0.0371534 0.33441
399 4 0.09367 0.0855281 0.323432
721 2 0.23442 0.127481 0.297998
722 4 0.226959 0.129627 0.321766
723 4 0.24188 0.125336 0.27423
692 4 0.239772 0.109875 0.261888
29 3 0.328045 0.160576 0.265616
632 4 0.359249 0.0971746 0.265925
350 4 0.371163 0.0818607 0.258338
631 2 0.346773 0.118284 0.261034
707 4 0.342231 0.150962 0.270575
633 4 0.334297 0.139394 0.256143
706 2 0.345257 0.16019 0.293616
761 4 0.432035 0.16837 0.24338
392 4 0.0962401 0.170103 0.260483
546 4 0.140214 0.175001 0.288321
544 2 0.152486 0.192901 0.275903
545 4 0.164758 0.2108 0.263485
402 4 0.176608 0.221448 0.274435
400 2 0.183631 0.245297 0.277097
474 4 0.181332 0.218956 0.332394
276 4 0.16638 0.205919 0.327659
378 4 0.254109 0.251396 0.317881
708 4 0.348282 0.169417 0.316657
419 4 0.431673 0.228505 0.324691
401 4 0.190654 0.269146 0.279759
676 2 0.183367 0.295347 0.308878
345 4 0.198805 0.284791 0.272365
677 4 0.189662 0.288089 0.285794
343 2 0.22129 0.289722 0.262604
735 4 0.184642 0.300641 0.273235
733 2 0.166169 0.311507 0.260355
344 4 0.243775 0.294653 0.252843
678 4 0.177072 0.302606 0.331961
376 2 0.270684 0.264062 0.304097
496 2 0.313628 0.279213 0.266453
497 4 0.30029 0.264507 0.281651
377 4 0.28726 0.276728 0.290313
541 2 0.393873 0.303388 0.317454
542 4 0.412282 0.286709 0.320304
543 4 0.375465 0.320067 0.314604
420 4 0.420366 0.274204 0.307825
418 2 0.426019 0.251354 0.316258
264 4 0.000651613 0.40197 0.255582
365 4 0.0264237 0.365248 0.292548
601 2 0.0442843 0.384583 0.324796
603 4 0.040516 0.368298 0.306201
364 2 0.00142916 0.364609 0.29276
299 4 0.145465 0.336362 0.260984
750 4 0.0841505 0.350546 0.250715
298 2 0.122979 0.347238 0.259864
300 4 0.100492 0.358113 0.258743
433 2 0.304407 0.385185 0.316281
435 4 0.280345 0.387745 0.309983
434 4 0.328469 0.382626 0.322578
614 4 0.333494 0.368466 0.336737
615 4 0.368925 0.334272 0.328011
613 2 0.35121 0.351369 0.332374
2461 2 0.99574 0.493195 0.310706
1757 4 0.0757808 0.431079 0.266445
776 4 0.0744562 0.496382 0.317309
1775 4 0.10781 0.492402 0.260827
1756 2 0.0860213 0.453412 0.261802
1758 4 0.0962617 0.475744 0.257159
777 4 0.0944844 0.502785 0.271937
775 2 0.0844703 0.499583 0.294623
412 2 0.218625 0.459044 0.270059
1436 4 0.214556 0.443672 0.310056
413 4 0.218358 0.445157 0.29085
1435 2 0.235417 0.437889 0.322567
3 3 0.291596 0.460511 0.319392
1801 2 0.364909 0.493953 0.293996
437 4 0.355156 0.485805 0.336718
1802 4 0.358999 0.488214 0.317604
231 4 0.481799 0.481795 0.249768
712 2 0.46096 0.466912 0.328764
713 4 0.436952 0.472784 0.324979
1742 4 0.421199 0.484362 0.326325
730 2 0.127403 0.0724367 0.333638
1780 2 0.121054 0.00705733 0.405694
731 4 0.143803 0.0636246 0.350328
606 4 0.162007 0.0570421 0.353119
604 2 0.184016 0.0687298 0.355163
605 4 0.206025 0.0804176 0.357207
1701 4 0.329588 0.0320847 0.390643
441 4 0.3186 0.0203212 0.401764
425 4 0.332939 0.0315361 0.409845
683 4 0.269627 0.075981 0.371955
698 4 0.410974 0.052407 0.346973
1699 2 0.341428 0.0387096 0.36964
1700 4 0.353269 0.0453345 0.348638
699 4 0.36292 0.0514116 0.333169
697 2 0.386947 0.0519093 0.340071
257 4 0.429251 0.0461598 0.354965
2879 4 0.49215 0.0670183 0.402704
2489 4 0.00354377 0.104846 0.399212
397 2 0.073609 0.0963393 0.333721
2584 2 0.0174189 0.101822 0.348914
398 4 0.0535479 0.10715 0.344009
2586 4 0.0379787 0.1145 0.355374
458 4 0.0417536 0.126462 0.369792
457 2 0.0369614 0.143206 0.387733
459 4 0.0321691 0.159949 0.405673
600 4 0.137262 0.133394 0.405008
598 2 0.134541 0.155 0.392721
248 4 0.226307 0.0814987 0.356681
249 4 0.229626 0.128584 0.340168
247 2 0.227967 0.105041 0.348425
403 2 0.239006 0.169347 0.338072
404 4 0.234599 0.145385 0.33245
682 2 0.276613 0.096117 0.385028
319 2 0.31955 0.133935 0.39177
684 4 0.283599 0.116253 0.398102
320 4 0.303089 0.117475 0.400898
321 4 0.336011 0.150394 0.382643
725 4 0.402525 0.0911245 0.402251
2878 2 0.495334 0.089279 0.413636
717 4 0.449183 0.153381 0.346296
260 4 0.0399319 0.179506 0.408481
259 2 0.0603063 0.19242 0.415061
261 4 0.0806807 0.205334 0.42164
599 4 0.13182 0.176605 0.380434
389 4 0.114889 0.240431 0.36118
686 4 0.130866 0.195366 0.390043
685 2 0.113093 0.205754 0.404235
275 4 0.137804 0.185561 0.363291
274 2 0.152092 0.19574 0.345475
687 4 0.0953202 0.216142 0.418426
472 2 0.204613 0.212486 0.338823
405 4 0.243413 0.193309 0.343693
473 4 0.227894 0.206017 0.345251
466 2 0.408738 0.198467 0.405127
467 4 0.408004 0.191854 0.381025
716 4 0.410899 0.177933 0.367086
269 4 0.446735 0.233582 0.335811
715 2 0.430041 0.165657 0.356691
270 4 0.471378 0.219538 0.376996
452 4 0.472934 0.199774 0.381794
268 2 0.459057 0.22656 0.356404
451 2 0.467753 0.204193 0.405852
616 2 0.0887616 0.315342 0.365255
618 4 0.07431 0.325264 0.383084
388 2 0.114256 0.264689 0.355153
390 4 0.113622 0.288947 0.349125
617 4 0.103213 0.305419 0.347426
374 4 0.121348 0.305315 0.355639
373 2 0.14419 0.311562 0.347613
375 4 0.167031 0.317809 0.339586
509 4 0.212302 0.319104 0.361237
347 4 0.0711834 0.344238 0.389375
549 4 0.0549704 0.408258 0.360839
602 4 0.0480526 0.400869 0.34339
346 2 0.0493413 0.348804 0.400656
510 4 0.240136 0.348568 0.331949
508 2 0.226219 0.333836 0.346593
668 4 0.323023 0.388432 0.403734
336 4 0.321281 0.370245 0.393143
667 2 0.320356 0.406908 0.420369
334 2 0.343463 0.359764 0.397968
335 4 0.365644 0.349282 0.402792
240 4 0.382407 0.345514 0.411388
238 2 0.402675 0.359238 0.406286
2537 4 0.49837 0.344388 0.341353
752 4 0.480202 0.408306 0.39383
561 4 0.472471 0.39422 0.406097
587 4 0.418614 0.392156 0.401474
239 4 0.422943 0.372963 0.401185
547 2 0.0648204 0.425861 0.375614
548 4 0.0746704 0.443463 0.390389
500 4 0.0740672 0.509242 0.333624
407 4 0.0850069 0.458861 0.383636
406 2 0.09767 0.463769 0.404629
1556 4 0.245049 0.485043 0.407993
1544 4 0.226392 0.481315 0.414736
636 4 0.304489 0.482513 0.415756
1555 2 0.269408 0.490167 0.405633
5 3 0.26731 0.47644 0.343353
1557 4 0.293767 0.495291 0.403272
1 1 0.282915 0.460035 0.340906
438 4 0.309738 0.464886 0.337247
1437 4 0.256279 0.432105 0.335077
4 3 0.273356 0.43932 0.345135
2 3 0.300006 0.463539 0.355899
436 2 0.332447 0.475346 0.336982
593 4 0.401869 0.456891 0.382549
592 2 0.413365 0.463934 0.361491
588 4 0.402848 0.438754 0.392484
714 4 0.484968 0.46104 0.332549
586 2 0.410731 0.415455 0.396979
753 4 0.498021 0.438702 0.358345
117 3 0.490548 0.459178 0.352345
751 2 0.489112 0.423504 0.376088
594 4 0.42486 0.470977 0.340434
367 2 0.0766998 0.0250893 0.436581
369 4 0.0528963 0.0174479 0.437005
719 4 0.0374577 0.0258105 0.42566
718 2 0.0161961 0.0207704 0.437814
1781 4 0.111486 0.0221379 0.423193
368 4 0.100503 0.0327307 0.436156
962 4 0.316385 0.0282435 0.419523
961 2 0.301529 0.0400964 0.435772
963 4 0.286674 0.0519493 0.45202
432 4 0.301387 0.0603224 0.46186
430 2 0.306205 0.0749444 0.481562
424 2 0.355 0.0311931 0.421607
426 4 0.377062 0.0308501 0.43337
726 4 0.422255 0.0882676 0.448113
431 4 0.311023 0.0895664 0.501264
724 2 0.41239 0.089696 0.425182
2880 4 0.498517 0.11154 0.424568
642 4 0.494685 0.115338 0.442478
640 2 0.476429 0.123053 0.457722
641 4 0.458173 0.130769 0.472966
696 4 0.0948742 0.249769 0.486139
1035 4 0.0809987 0.226149 0.425189
1033 2 0.0897275 0.236899 0.446008
1034 4 0.0984562 0.24765 0.466826
488 4 0.307254 0.234616 0.444142
487 2 0.329827 0.24018 0.453345
468 4 0.409473 0.205079 0.429229
411 4 0.37419 0.243995 0.463994
516 4 0.413144 0.196584 0.46497
409 2 0.390851 0.226907 0.456538
410 4 0.407512 0.209819 0.449082
575 4 0.421866 0.18695 0.479875
266 4 0.361748 0.240664 0.477593
489 4 0.3524 0.245743 0.462548
265 2 0.35737 0.235582 0.50168
583 2 0.49621 0.23784 0.466306
514 2 0.435804 0.196244 0.454406
515 4 0.458463 0.195904 0.443841
453 4 0.462571 0.208612 0.429911
584 4 0.495066 0.253437 0.485816
2802 4 0.0142872 0.306402 0.424772
1258 2 0.119363 0.280235 0.479968
1259 4 0.127935 0.303582 0.48255
9 3 0.149693 0.309776 0.484266
1260 4 0.110792 0.256889 0.477386
6 1 0.136474 0.328737 0.482233
7 3 0.114546 0.322276 0.479671
348 4 0.0274992 0.353369 0.411936
326 4 0.0609552 0.349648 0.484042
325 2 0.0847744 0.343992 0.478959
384 4 0.116049 0.417047 0.469804
10 3 0.142921 0.340788 0.464016
327 4 0.108594 0.338337 0.473876
709 2 0.153671 0.402288 0.475971
711 4 0.128681 0.401519 0.475638
503 4 0.198477 0.344503 0.491942
502 2 0.196969 0.369162 0.48809
710 4 0.17866 0.403058 0.476304
504 4 0.195462 0.393821 0.484237
882 4 0.358784 0.356388 0.491174
559 2 0.488959 0.393534 0.424882
3307 2 0.491187 0.378702 0.480519
3308 4 0.476406 0.375248 0.500388
570 4 0.165901 0.49576 0.441428
408 4 0.110333 0.468677 0.425623
382 2 0.116514 0.436372 0.453945
569 4 0.130585 0.463405 0.427052
383 4 0.116978 0.455697 0.438086
568 2 0.148243 0.479583 0.43424
1545 4 0.182795 0.499097 0.431581
1543 2 0.204594 0.490206 0.423158
634 2 0.31508 0.460175 0.419504
669 4 0.317689 0.425384 0.437004
635 4 0.325671 0.437838 0.423253
772 2 0.340716 0.438536 0.462812
773 4 0.345766 0.444614 0.486534
774 4 0.335665 0.432459 0.43909
663 4 0.496442 0.482562 0.449663
342 4 0.204311 0.056035 0.521562
340 2 0.18906 0.0371323 0.515621
341 4 0.17381 0.0182297 0.509679
2430 4 0.15869 0.010497 0.520403
1152 4 0.222604 0.0600769 0.513822
1150 2 0.228624 0.0765429 0.53165
1030 2 0.256138 0.0645902 0.578663
1217 4 0.380942 0.062379 0.512268
842 4 0.371693 0.0691413 0.528797
1216 2 0.398572 0.0458999 0.505727
841 2 0.350814 0.0758152 0.516767
3007 2 0.485055 0.0446689 0.574434
1218 4 0.416202 0.0294209 0.499186
470 4 0.0037014 0.156309 0.5059
1058 4 0.0894564 0.112069 0.515813
1057 2 0.0960989 0.117079 0.539392
1059 4 0.102741 0.122089 0.562971
1155 4 0.113228 0.133617 0.574037
1271 4 0.101625 0.140676 0.587914
1153 2 0.13715 0.128139 0.578823
1151 4 0.234644 0.093009 0.549477
1032 4 0.242387 0.081452 0.566344
1180 2 0.218271 0.130744 0.537
1181 4 0.22595 0.107869 0.543552
1182 4 0.210593 0.15362 0.530448
843 4 0.329935 0.0824891 0.504736
576 4 0.402146 0.156499 0.514293
1198 2 0.00483357 0.221498 0.562252
695 4 0.0614435 0.226847 0.515425
1199 4 0.0244906 0.216275 0.576795
694 2 0.0781589 0.238308 0.500782
900 4 0.229951 0.161255 0.530365
856 2 0.232489 0.242375 0.528384
857 4 0.215255 0.23848 0.546076
898 2 0.247943 0.178065 0.526019
650 4 0.282537 0.206718 0.519414
899 4 0.265935 0.194875 0.521673
649 2 0.297956 0.226401 0.519308
651 4 0.313376 0.246084 0.519201
267 4 0.352993 0.230499 0.525767
574 2 0.412006 0.171724 0.497084
1245 4 0.0380408 0.284958 0.576245
798 4 0.223163 0.258009 0.569648
947 4 0.207372 0.251133 0.560449
946 2 0.187534 0.265116 0.566458
948 4 0.167695 0.279098 0.572467
796 2 0.24549 0.263853 0.579268
1136 4 0.173135 0.298985 0.572009
858 4 0.249723 0.246269 0.510693
872 4 0.350845 0.285557 0.568118
871 2 0.362668 0.301289 0.583541
813 4 0.389111 0.317768 0.585915
2457 4 0.488713 0.296114 0.515936
1010 4 0.477019 0.31003 0.523684
2455 2 0.500122 0.276182 0.506051
8 3 0.138275 0.341739 0.501368
803 4 0.269906 0.362408 0.569386
804 4 0.29279 0.386209 0.531829
802 2 0.281348 0.374309 0.550608
930 4 0.320314 0.390418 0.574295
928 2 0.342003 0.390465 0.561855
929 4 0.363692 0.390513 0.549415
881 4 0.356829 0.377284 0.536564
880 2 0.357806 0.366836 0.513869
1011 4 0.47486 0.357852 0.509223
1009 2 0.47594 0.333941 0.516454
926 4 0.45855 0.405779 0.586687
1002 4 0.475636 0.41423 0.578734
540 4 0.0872832 0.475751 0.581489
2244 4 0.0976555 0.488547 0.572984
2154 4 0.217298 0.508947 0.556535
1910 4 0.41639 0.480935 0.553108
889 2 0.328514 0.497243 0.577113
1953 4 0.406846 0.497325 0.542556
1952 4 0.362534 0.492297 0.56518
1951 2 0.38469 0.494811 0.553868
890 4 0.348707 0.507537 0.566556
1909 2 0.433634 0.473487 0.569611
1081 2 0.0616669 0.0769641 0.637708
1082 4 0.068697 0.0667228 0.659408
2114 4 0.00504549 0.0100283 0.611311
825 4 0.158662 0.0344984 0.66068
1283 4 0.139397 0.0420479 0.657242
823 2 0.179155 0.0207026 0.65682
824 4 0.199648 0.00690674 0.652959
1031 4 0.26989 0.0477284 0.590982
951 4 0.286221 0.0406748 0.582557
949 2 0.302497 0.0225755 0.588274
950 4 0.318773 0.00447618 0.593992
3008 4 0.473459 0.0360442 0.594838
809 4 0.477867 0.045613 0.611481
808 2 0.47075 0.0577278 0.632163
810 4 0.463632 0.0698426 0.652845
1083 4 0.0546367 0.0872055 0.616009
1127 4 0.038221 0.098895 0.613793
1126 2 0.0146077 0.101141 0.605884
938 4 0.0721974 0.0889341 0.6062
939 4 0.10278 0.121159 0.583243
937 2 0.0874888 0.105046 0.594722
1270 2 0.0932978 0.161965 0.598044
1154 4 0.161072 0.122661 0.58361
1221 4 0.177042 0.127096 0.59559
1219 2 0.195944 0.140043 0.605605
1220 4 0.214845 0.15299 0.615619
1212 4 0.233699 0.160806 0.616819
1194 4 0.319804 0.161165 0.656839
887 4 0.310396 0.162367 0.674441
1192 2 0.334528 0.143168 0.647649
1193 4 0.349252 0.12517 0.638458
45 3 0.464654 0.0923847 0.653912
3424 2 0.497708 0.112945 0.664541
1244 4 0.0530278 0.237747 0.583112
878 4 0.0413417 0.222386 0.585954
877 2 0.058286 0.204199 0.58866
879 4 0.0752304 0.186013 0.591367
1272 4 0.0849703 0.183254 0.608173
1210 2 0.250145 0.173564 0.630673
1211 4 0.266591 0.186322 0.644528
886 2 0.293577 0.179425 0.667278
888 4 0.276757 0.196483 0.660115
954 4 0.506652 0.248941 0.5861
982 2 0.0214649 0.313834 0.590416
983 4 0.0400116 0.297123 0.591811
1243 2 0.0455343 0.261353 0.579679
1137 4 0.159273 0.337115 0.601243
1135 2 0.166204 0.31805 0.586626
822 4 0.157973 0.315189 0.645329
820 2 0.154891 0.296126 0.661213
1064 4 0.17377 0.328222 0.644312
797 4 0.267817 0.269697 0.588888
792 4 0.289956 0.321504 0.599253
791 4 0.286313 0.272048 0.592808
790 2 0.288135 0.296776 0.59603
806 4 0.279422 0.33951 0.659786
873 4 0.374491 0.317022 0.598965
1041 4 0.0608278 0.37299 0.648887
3264 4 0.0408657 0.37473 0.654466
3262 2 0.0455362 0.359579 0.6738
3240 4 0.0319609 0.392321 0.646923
1039 2 0.0795737 0.380881 0.634343
3238 2 0.0187636 0.412577 0.640542
1040 4 0.0983196 0.388772 0.6198
993 4 0.112939 0.375991 0.628267
991 2 0.129719 0.363404 0.61466
992 4 0.146499 0.350817 0.601052
1063 2 0.188873 0.343374 0.657254
897 4 0.167023 0.354256 0.598382
1189 2 0.243785 0.373344 0.597967
896 4 0.209723 0.377781 0.609516
895 2 0.188373 0.366018 0.603949
1172 4 0.233855 0.405702 0.6017
1191 4 0.225718 0.38734 0.608109
1065 4 0.203976 0.358526 0.670196
1190 4 0.261852 0.359348 0.587824
1239 4 0.312787 0.385333 0.592806
1238 4 0.30006 0.338076 0.603082
1237 2 0.306424 0.361705 0.597944
811 2 0.40653 0.334777 0.591612
1204 2 0.391932 0.387046 0.612225
1205 4 0.373223 0.389578 0.628619
1206 4 0.410641 0.384514 0.595832
925 2 0.441427 0.387727 0.589154
927 4 0.424304 0.369674 0.591621
812 4 0.423949 0.351786 0.597308
539 4 0.0748129 0.427641 0.587029
538 2 0.081048 0.451696 0.584259
3239 4 0.00556629 0.432833 0.634162
1160 4 0.107151 0.473561 0.579911
1159 2 0.131123 0.480286 0.582217
1161 4 0.155095 0.48701 0.584524
1171 2 0.220064 0.423666 0.612297
1188 4 0.165945 0.485728 0.601674
1186 2 0.17597 0.466148 0.613562
1173 4 0.206273 0.44163 0.622893
1187 4 0.185995 0.446569 0.625449
891 4 0.308321 0.486948 0.58767
1000 2 0.473708 0.438579 0.584083
1911 4 0.450878 0.466038 0.586114
1001 4 0.47178 0.462927 0.589433
1269 4 0.45881 0.466871 0.602252
1267 2 0.465488 0.485788 0.617176
945 4 0.0427082 0.00470275 0.671427
943 2 0.0427869 0.028964 0.677474
944 4 0.0428655 0.0532252 0.683521
1076 4 0.0581026 0.0626325 0.677057
1075 2 0.0646088 0.0773475 0.696196
1282 2 0.138671 0.0621646 0.672073
1284 4 0.137945 0.0822813 0.686905
1147 2 0.258038 0.0664383 0.689371
1149 4 0.261238 0.0432053 0.680701
1092 4 0.297772 0.0033125 0.690482
1004 4 0.324588 0.0747285 0.743042
42 3 0.456074 0.0605578 0.671414
1163 4 0.470457 0.0662385 0.687514
1162 2 0.487491 0.0536203 0.700772
1113 4 0.4269 0.0672273 0.748349
864 4 0.0622478 0.0875061 0.733087
1077 4 0.071115 0.0920625 0.715335
1107 4 0.0809291 0.0914458 0.731591
851 4 0.0816805 0.107681 0.718243
862 2 0.0398574 0.0902844 0.743863
850 2 0.0881371 0.127717 0.704751
852 4 0.0945937 0.147753 0.691258
1105 2 0.101931 0.0921372 0.745141
909 4 0.15303 0.0920552 0.695871
907 2 0.1748 0.103942 0.699021
908 4 0.196571 0.115829 0.702171
1227 4 0.210313 0.127112 0.692046
1225 2 0.232622 0.116262 0.688922
1226 4 0.254931 0.105413 0.685797
1148 4 0.254837 0.0896713 0.698041
829 2 0.322136 0.147112 0.703927
831 4 0.33808 0.131699 0.715478
1005 4 0.325823 0.115459 0.714056
1003 2 0.325205 0.0950938 0.728549
830 4 0.306191 0.162524 0.692377
41 1 0.457025 0.0834535 0.673423
43 3 0.43574 0.0914717 0.678012
44 3 0.471442 0.0888679 0.690779
3425 4 0.478494 0.0982304 0.670824
1025 4 0.428462 0.158076 0.679111
1024 2 0.440778 0.165554 0.699546
1177 2 0.00700851 0.234568 0.721867
1073 4 0.0648418 0.245387 0.738886
1072 2 0.0897443 0.243634 0.74029
1074 4 0.114647 0.241881 0.741694
1208 4 0.133173 0.243684 0.736122
1130 4 0.14301 0.246283 0.753225
978 4 0.304409 0.198762 0.72405
976 2 0.294053 0.204407 0.746096
1142 4 0.449881 0.167874 0.737714
1144 2 0.490072 0.169697 0.73673
1262 4 0.458274 0.19121 0.718088
1026 4 0.453093 0.173032 0.719981
1261 2 0.461147 0.215964 0.716043
1145 4 0.467004 0.176033 0.729455
1263 4 0.46402 0.240718 0.713997
1179 4 0.0264424 0.249047 0.715714
1209 4 0.141896 0.273951 0.697283
1207 2 0.137534 0.258817 0.716703
821 4 0.151808 0.277064 0.677097
807 4 0.235388 0.337896 0.683433
805 2 0.257405 0.338703 0.67161
1019 4 0.3609 0.311362 0.704668
1018 2 0.376614 0.327307 0.693533
3123 4 0.482525 0.266536 0.668254
3263 4 0.0502066 0.344427 0.693134
1279 2 0.0454764 0.388501 0.748022
1281 4 0.0516823 0.412006 0.742176
894 4 0.0217556 0.359298 0.744331
892 2 0.00834591 0.339487 0.751604
1028 4 0.222979 0.376049 0.703594
1066 2 0.195208 0.367151 0.736481
1068 4 0.20568 0.371153 0.714132
1027 2 0.237351 0.394146 0.694049
1020 4 0.392328 0.343253 0.682399
1983 4 0.0513304 0.432721 0.738102
1981 2 0.067878 0.449421 0.746615
2172 4 0.13223 0.495911 0.678922
2016 4 0.166392 0.497913 0.71624
1029 4 0.251724 0.412243 0.684503
1175 4 0.199451 0.439786 0.732057
1174 2 0.185772 0.459395 0.724741
1176 4 0.172092 0.479004 0.717426
1140 4 0.242785 0.430098 0.67697
1138 2 0.262543 0.443993 0.683429
1139 4 0.282301 0.457889 0.689887
1987 2 0.291935 0.456669 0.735644
1229 4 0.299624 0.454682 0.695966
1989 4 0.304262 0.459437 0.714067
2028 4 0.295845 0.470919 0.699459
1228 2 0.318154 0.447679 0.680709
2026 2 0.297979 0.495697 0.696881
1230 4 0.336684 0.440675 0.665453
2991 4 0.00206162 0.0444634 0.801757
2989 2 0.00556395 0.0621136 0.784396
2049 4 0.107118 0.0245749 0.776281
1202 4 0.103105 0.0308442 0.794404
2047 2 0.126424 0.0119057 0.766692
1201 2 0.111232 0.0544667 0.79546
1203 4 0.119358 0.0780893 0.796515
817 2 0.32504 0.0405208 0.824967
1085 4 0.319452 0.0806504 0.829809
818 4 0.336244 0.0195955 0.817107
819 4 0.313836 0.061446 0.832827
974 4 0.342006 0.00496303 0.806404
1111 2 0.451196 0.0670431 0.754251
845 4 0.492222 0.0655992 0.769393
1112 4 0.475492 0.0668589 0.760153
833 4 0.0110513 0.0983461 0.772465
832 2 0.0179776 0.11579 0.788986
2990 4 0.00906627 0.0797638 0.767036
863 4 0.017467 0.0930627 0.75464
1125 4 0.0315546 0.148188 0.815705
834 4 0.0249039 0.133233 0.805506
1106 4 0.122933 0.0928285 0.758692
911 4 0.119599 0.108982 0.82068
34 3 0.123118 0.0926342 0.778193
31 1 0.130597 0.103015 0.797551
35 3 0.118713 0.122091 0.801227
32 3 0.127612 0.0886892 0.8153
33 3 0.15318 0.107998 0.795649
1255 2 0.243694 0.092553 0.785299
1256 4 0.224755 0.103914 0.797022
840 4 0.238247 0.103965 0.812663
838 2 0.237198 0.122875 0.828987
1257 4 0.262633 0.0811922 0.773576
1084 2 0.303361 0.091783 0.814242
1086 4 0.28727 0.102916 0.798675
1023 4 0.393225 0.153468 0.817701
1052 4 0.408258 0.152554 0.831617
1021 2 0.370943 0.148179 0.827737
844 2 0.493523 0.0856811 0.784232
1129 2 0.158807 0.243435 0.772396
1131 4 0.174603 0.240586 0.791567
1277 4 0.193928 0.246311 0.791518
977 4 0.283697 0.210053 0.768143
918 4 0.281204 0.228842 0.769777
1298 4 0.291998 0.221276 0.783173
1297 2 0.293832 0.208551 0.804618