ITEM: TIMESTEP
3050000
ITEM: NUMBER OF ATOMS
4590
ITEM: BOX BOUNDS pp pp pp
-9.9985700000000008e+00 9.9985700000000008e+00
-9.9985700000000008e+00 9.9985700000000008e+00
-9.9985700000000008e+00 9.9985700000000008e+00
ITEM: ATOMS id type xs ys zs
1667 4 0.00765848 0.0508758 0.0625476
701 4 0.0208669 0.0643542 0.0558647
490 2 0.281 0.0537409 0.0761933
492 4 0.28952 0.0309876 0.0702867
2974 2 0.460659 0.00985956 0.0256464
745 2 0.43761 0.0658134 0.0222859
747 4 0.444219 0.0426969 0.015421
2467 2 0.498644 0.00676501 0.0699529
986 4 0.437899 0.0378399 0.998685
2975 4 0.444344 0.0242639 0.0133374
700 2 0.0413641 0.0777702 0.0508591
702 4 0.0618612 0.0911862 0.0458535
476 4 0.0669199 0.0993801 0.0638016
475 2 0.0752673 0.121944 0.0706098
477 4 0.0836148 0.144509 0.077418
566 4 0.213404 0.143418 0.0259269
565 2 0.226536 0.156262 0.00896377
769 2 0.404347 0.15077 0.0329632
556 2 0.389847 0.0892433 0.0101009
558 4 0.41156 0.0884334 0.0224731
746 4 0.431001 0.0889299 0.0291507
771 4 0.413877 0.128285 0.0383252
737 4 0.228848 0.203845 0.0678879
573 4 0.253829 0.264241 0.0468342
770 4 0.394817 0.173256 0.0276013
359 4 0.375618 0.176417 0.0297792
664 2 0.393356 0.208462 0.0518125
665 4 0.387315 0.187371 0.0398185
666 4 0.399397 0.229553 0.0638066
323 4 0.398014 0.249758 0.0610952
358 2 0.363746 0.181276 0.00831698
623 4 0.392005 0.240956 0.0769163
555 4 0.0868631 0.256822 0.0035716
292 2 0.1494 0.323232 0.0376717
294 4 0.131176 0.318501 0.0212197
293 4 0.167624 0.327964 0.0541237
507 4 0.179831 0.322412 0.0646882
287 4 0.185109 0.327771 0.0459459
286 2 0.202107 0.321376 0.0287598
288 4 0.219104 0.314982 0.0115737
481 2 0.224473 0.259272 0.0703257
505 2 0.185949 0.301735 0.0773463
483 4 0.205626 0.268105 0.0841797
506 4 0.192067 0.281058 0.0900045
482 4 0.243321 0.250439 0.0564718
571 2 0.278096 0.26569 0.0409887
572 4 0.302364 0.267139 0.0351432
357 4 0.306922 0.270449 0.0169988
355 2 0.318658 0.28992 0.00659133
956 4 0.34072 0.32513 0.00452512
1069 2 0.409158 0.316154 0.0289814
955 2 0.358531 0.335424 0.0187371
1071 4 0.391966 0.333897 0.0328266
322 2 0.412715 0.265494 0.0483896
324 4 0.427416 0.28123 0.0356839
1070 4 0.42635 0.298411 0.0251362
280 2 0.455407 0.303558 0.0520912
282 4 0.442752 0.29317 0.0331934
281 4 0.468062 0.313945 0.0709891
671 4 0.461032 0.329614 0.0807213
527 4 0.478737 0.321504 0.0848087
329 4 0.00890315 0.378428 0.0338262
456 4 0.18722 0.388447 0.0494983
552 4 0.165649 0.332257 0.0729391
454 2 0.181934 0.364404 0.0538755
455 4 0.176647 0.340361 0.0582527
1290 4 0.261502 0.395514 0.040923
250 2 0.267144 0.421193 0.0732644
1288 2 0.278698 0.381005 0.0300163
1289 4 0.295893 0.366495 0.0191096
251 4 0.257784 0.411579 0.0521662
903 4 0.293148 0.365745 0.999685
957 4 0.376342 0.345718 0.032949
741 4 0.386879 0.342956 0.0497206
739 2 0.390765 0.346993 0.0740881
1787 4 0.0834202 0.501397 0.0528736
1786 2 0.0864393 0.481355 0.0675142
627 4 0.164415 0.505095 0.0203577
1690 2 0.108763 0.497952 0.0165131
626 4 0.188401 0.48519 0.0594621
625 2 0.176408 0.495142 0.0399099
245 4 0.202706 0.472296 0.0549216
244 2 0.218816 0.453361 0.0522545
246 4 0.234927 0.434426 0.0495874
272 4 0.251576 0.427091 0.0411531
271 2 0.258496 0.434651 0.0183465
1672 2 0.40762 0.435243 0.070776
853 2 0.394293 0.438317 0.0178644
854 4 0.415102 0.436636 0.031625
855 4 0.373485 0.439998 0.00410381
37 3 0.356572 0.425398 0.00122841
1674 4 0.422338 0.437813 0.0507277
564 4 0.433053 0.440802 0.0351727
563 4 0.473017 0.470698 0.0320381
562 2 0.453035 0.45575 0.0336054
228 4 0.491012 0.477687 0.0288164
226 2 0.488667 0.498078 0.0145374
19 3 0.0612344 0.0316965 0.155809
16 1 0.0637836 0.0106648 0.165274
582 4 0.234452 0.0694795 0.146503
580 2 0.250997 0.0614994 0.163466
491 4 0.272481 0.0764942 0.0820999
1475 4 0.29741 0.0224001 0.0858441
1760 4 0.479218 0.0455946 0.142398
486 4 0.430097 0.00409571 0.102759
1759 2 0.486374 0.0291163 0.125007
2724 4 0.479257 0.0640836 0.147141
1761 4 0.49353 0.012638 0.107617
2744 4 0.493361 0.0534556 0.154922
237 4 0.222532 0.0804175 0.156219
235 2 0.205434 0.0865304 0.173409
628 2 0.370905 0.155206 0.172501
2722 2 0.466942 0.0856738 0.149856
2723 4 0.454626 0.107264 0.152571
738 4 0.201019 0.18332 0.104013
736 2 0.214934 0.193582 0.0859502
755 4 0.247593 0.236463 0.169202
460 2 0.319743 0.220529 0.114493
461 4 0.29839 0.208164 0.110452
354 4 0.280972 0.213376 0.119648
352 2 0.271609 0.227565 0.137983
353 4 0.262246 0.241755 0.156318
284 4 0.271087 0.25655 0.164834
630 4 0.372954 0.179834 0.168703
462 4 0.341096 0.232895 0.118533
255 4 0.357524 0.226424 0.128234
253 2 0.369783 0.209966 0.142519
622 2 0.374266 0.237887 0.0942687
624 4 0.356528 0.234819 0.111621
254 4 0.382042 0.193508 0.156803
765 4 0.35161 0.244626 0.128969
550 2 0.149267 0.3403 0.0900308
551 4 0.132886 0.348344 0.107122
536 4 0.194452 0.247682 0.141277
537 4 0.183161 0.283169 0.107902
535 2 0.188807 0.265425 0.124589
754 2 0.235582 0.258381 0.168485
756 4 0.223571 0.280299 0.167767
301 2 0.321854 0.314515 0.139118
303 4 0.318809 0.296557 0.156248
285 4 0.312524 0.284489 0.166603
283 2 0.291805 0.270519 0.165719
764 4 0.328917 0.28067 0.155171
763 2 0.340264 0.262648 0.14207
12 3 0.414043 0.327109 0.119875
647 4 0.0582597 0.362666 0.155418
302 4 0.324899 0.332472 0.121988
387 4 0.32812 0.351555 0.117415
385 2 0.352372 0.354714 0.112215
493 2 0.388729 0.392569 0.103328
495 4 0.390137 0.367724 0.105757
386 4 0.376624 0.357873 0.107015
15 3 0.381148 0.344185 0.115487
740 4 0.394651 0.351031 0.0984557
14 3 0.413073 0.363154 0.10927
11 1 0.402705 0.346979 0.122281
13 3 0.403218 0.353251 0.144614
494 4 0.387321 0.417415 0.100899
526 2 0.501195 0.332478 0.0854585
672 4 0.417886 0.344204 0.101367
670 2 0.439459 0.336909 0.0910443
1788 4 0.0894584 0.461312 0.0821548
1791 4 0.0526059 0.495224 0.148566
1465 2 0.0771447 0.470561 0.119784
1466 4 0.0683279 0.485776 0.137558
1467 4 0.0859614 0.455345 0.10201
638 4 0.21332 0.483806 0.150681
767 4 0.228908 0.473755 0.160814
637 2 0.192638 0.494283 0.141318
252 4 0.276505 0.430807 0.0943626
609 4 0.276009 0.444642 0.110364
607 2 0.299885 0.444239 0.117776
608 4 0.323761 0.443836 0.125188
659 4 0.328655 0.438344 0.106698
1316 4 0.289501 0.506886 0.146479
660 4 0.378448 0.434077 0.104919
1673 4 0.392901 0.432672 0.0908242
658 2 0.353552 0.43621 0.105808
524 4 0.399656 0.491402 0.126289
523 2 0.396183 0.469259 0.115208
525 4 0.392711 0.447116 0.104126
578 4 0.0793316 0.0326837 0.169754
20 3 0.0827618 0.0100504 0.177847
17 3 0.0456381 0.00631463 0.178726
2480 4 0.0320667 0.000152262 0.192292
2479 2 0.0312792 0.0206518 0.206586
380 4 0.0277376 0.0544675 0.20602
2481 4 0.0304917 0.0411514 0.22088
577 2 0.094787 0.0511923 0.176368
579 4 0.110242 0.0697008 0.182982
674 4 0.153843 0.00229577 0.235944
673 2 0.129857 0.999163 0.242269
450 4 0.122708 0.0798736 0.194364
448 2 0.146324 0.0856687 0.188543
1504 2 0.23985 0.00609299 0.188663
449 4 0.16994 0.0914637 0.182722
581 4 0.267543 0.0535194 0.180429
1506 4 0.258128 0.0228191 0.185297
654 4 0.260638 0.0404048 0.193951
652 2 0.280296 0.0389617 0.209335
653 4 0.299954 0.0375187 0.224718
758 4 0.349257 0.0666112 0.185245
759 4 0.361591 0.0568634 0.232717
757 2 0.355424 0.0617373 0.208981
350 4 0.374042 0.0599328 0.24872
349 2 0.398314 0.0545763 0.246008
22 3 0.358611 0.053825 0.247425
311 4 0.342898 0.0762843 0.168851
480 4 0.440648 0.0392633 0.239079
351 4 0.422586 0.0492197 0.243295
513 4 0.0378967 0.157956 0.182148
379 2 0.0246866 0.0783292 0.199201
511 2 0.0300891 0.134483 0.178511
512 4 0.0222815 0.11101 0.174874
381 4 0.0216357 0.102191 0.192382
236 4 0.188336 0.0926433 0.190598
30 3 0.322887 0.135132 0.230496
312 4 0.359022 0.12287 0.160456
629 4 0.368856 0.130578 0.1763
310 2 0.35096 0.0995773 0.164654
26 1 0.335516 0.145587 0.246303
28 3 0.35076 0.159812 0.23612
521 4 0.462796 0.149203 0.22415
762 4 0.446477 0.147078 0.233247
760 2 0.424381 0.146591 0.24494
332 4 0.458609 0.131176 0.226245
331 2 0.466367 0.109993 0.237029
520 2 0.483147 0.157448 0.212189
393 4 0.0467657 0.171333 0.168717
391 2 0.066081 0.186928 0.1717
392 4 0.0853962 0.202523 0.174682
339 4 0.0823703 0.221782 0.18154
337 2 0.07724 0.241315 0.196282
396 4 0.00702998 0.251602 0.251055
544 2 0.122059 0.241482 0.248912
546 4 0.100391 0.236758 0.237365
279 4 0.273928 0.214848 0.21592
277 2 0.269629 0.226803 0.194385
278 4 0.265329 0.238759 0.17285
394 2 0.0248829 0.264311 0.239015
395 4 0.0427359 0.277019 0.226976
338 4 0.0721098 0.260847 0.211025
363 4 0.059032 0.27632 0.21359
361 2 0.0624994 0.30081 0.209929
362 4 0.0659668 0.325299 0.206268
372 4 0.0869621 0.329693 0.202982
733 2 0.152392 0.336643 0.244046
612 4 0.236658 0.295485 0.169769
611 4 0.221739 0.325495 0.206884
610 2 0.229198 0.31049 0.188327
344 4 0.222334 0.320197 0.227106
343 2 0.203192 0.315372 0.242451
729 4 0.316175 0.303537 0.17354
727 2 0.30357 0.318134 0.189453
308 4 0.327915 0.288881 0.172661
728 4 0.290965 0.332732 0.205365
498 4 0.346907 0.278169 0.228299
307 2 0.342167 0.281102 0.191675
309 4 0.356419 0.273323 0.21069
749 4 0.0568082 0.341899 0.210933
648 4 0.0713428 0.33828 0.19707
748 2 0.0641089 0.355836 0.230365
646 2 0.0648012 0.350473 0.176244
370 2 0.109845 0.33865 0.207598
371 4 0.132728 0.347607 0.212215
734 4 0.136267 0.351914 0.232559
417 4 0.140253 0.363042 0.220494
299 4 0.134443 0.368713 0.241101
415 2 0.155039 0.373131 0.203037
416 4 0.169825 0.38322 0.18558
298 2 0.111363 0.372552 0.249917
290 4 0.228504 0.40806 0.175345
289 2 0.206311 0.396677 0.173585
291 4 0.184118 0.385295 0.171825
445 2 0.396986 0.384177 0.229772
447 4 0.405743 0.407595 0.229468
595 2 0.479952 0.392098 0.168896
644 4 0.424651 0.410253 0.223808
643 2 0.443278 0.403846 0.208408
645 4 0.461906 0.39744 0.193009
597 4 0.46307 0.380472 0.183215
766 2 0.225346 0.449903 0.167416
768 4 0.221783 0.426052 0.174019
412 2 0.246128 0.468684 0.223456
413 4 0.227039 0.45639 0.233928
414 4 0.265217 0.480978 0.212985
1574 4 0.293341 0.500522 0.225802
229 2 0.482616 0.498208 0.225612
231 4 0.500288 0.481397 0.220108
427 2 0.0532353 0.00176606 0.324817
234 4 0.011376 0.0564558 0.29862
232 2 0.0334031 0.0449508 0.29586
233 4 0.0554303 0.0334458 0.2931
317 4 0.0719332 0.0340584 0.304969
1404 4 0.0697325 0.0206015 0.29445
316 2 0.0853212 0.0525245 0.315213
1402 2 0.0802444 0.00637499 0.276778
428 4 0.0706724 0.0141886 0.311902
318 4 0.0987091 0.0709906 0.325457
693 4 0.319365 0.0663555 0.273292
691 2 0.303426 0.0853948 0.276229
24 3 0.325339 0.0508476 0.264653
25 3 0.342434 0.0203493 0.250678
632 4 0.361515 0.0722607 0.244143
21 1 0.345727 0.0404043 0.260955
23 3 0.356784 0.0372517 0.28111
257 4 0.423096 0.0764951 0.327298
743 4 0.482431 0.071694 0.247167
479 4 0.458253 0.0400029 0.285879
478 2 0.44945 0.0396331 0.262479
2664 4 0.475088 0.028638 0.292974
1428 4 0.456904 0.0260183 0.29474
258 4 0.447993 0.0404917 0.303118
2662 2 0.497389 0.0397186 0.295229
256 2 0.435545 0.0584934 0.315208
1426 2 0.450556 0.00447721 0.305734
2755 2 0.99433 0.0905926 0.319011
2757 4 0.98825 0.112284 0.329859
403 2 0.232847 0.164717 0.333873
404 4 0.243134 0.141958 0.335053
692 4 0.287487 0.104434 0.279167
721 2 0.264071 0.115366 0.309095
723 4 0.272142 0.0982912 0.292709
722 4 0.256 0.132441 0.325481
27 3 0.321792 0.157967 0.259997
761 4 0.402285 0.146104 0.256632
29 3 0.346726 0.129855 0.259158
631 2 0.359429 0.0937202 0.256805
707 4 0.353277 0.12859 0.277045
633 4 0.357343 0.11518 0.269466
706 2 0.35683 0.139679 0.299172
708 4 0.360383 0.150768 0.321298
333 4 0.474125 0.0888099 0.247812
443 4 0.0070731 0.249169 0.270719
405 4 0.22256 0.187475 0.332692
402 4 0.16179 0.2456 0.267429
545 4 0.143728 0.246207 0.260459
735 4 0.168517 0.321372 0.255533
400 2 0.17127 0.268735 0.267187
401 4 0.180749 0.291871 0.266945
676 2 0.170414 0.319154 0.293467
345 4 0.18405 0.310547 0.257796
677 4 0.171104 0.307724 0.271239
678 4 0.169723 0.330584 0.315694
378 4 0.295676 0.279165 0.324362
376 2 0.313499 0.287289 0.308821
377 4 0.331322 0.295412 0.293279
615 4 0.32909 0.316235 0.291774
497 4 0.341898 0.292789 0.275858
496 2 0.344403 0.285479 0.252078
541 2 0.365712 0.304273 0.302391
542 4 0.386942 0.302941 0.315534
543 4 0.344483 0.305606 0.289249
418 2 0.399233 0.263679 0.325156
420 4 0.399678 0.287071 0.316336
750 4 0.0714097 0.369774 0.249798
364 2 0.0051784 0.390662 0.293147
365 4 0.0298099 0.392913 0.296808
603 4 0.0312931 0.384388 0.314739
601 2 0.0445809 0.390306 0.335076
375 4 0.153764 0.325563 0.325536
300 4 0.0882824 0.376391 0.258734
510 4 0.17535 0.349734 0.316398
508 2 0.197809 0.356715 0.324884
434 4 0.324053 0.384124 0.305614
433 2 0.311439 0.405598 0.307839
614 4 0.324025 0.365279 0.300123
613 2 0.326557 0.340757 0.295948
446 4 0.38823 0.360759 0.230076
264 4 0.00791016 0.434079 0.253024
1757 4 0.0205986 0.431527 0.268899
1756 2 0.0438336 0.440127 0.272268
1758 4 0.0670686 0.448728 0.275636
1775 4 0.0765263 0.465479 0.279438
777 4 0.0705441 0.481835 0.290304
775 2 0.0717511 0.48262 0.315267
1776 4 0.121425 0.449765 0.264015
1774 2 0.0989758 0.457622 0.271726
1436 4 0.236803 0.45399 0.252041
1435 2 0.247661 0.447548 0.273623
4 3 0.252199 0.42275 0.306524
1437 4 0.258518 0.441106 0.295205
3 3 0.272824 0.453849 0.313723
1 1 0.266827 0.432813 0.321463
436 2 0.311115 0.459358 0.30799
438 4 0.291909 0.44401 0.312545
2 3 0.285754 0.419856 0.323207
435 4 0.298825 0.427071 0.310064
437 4 0.330321 0.474706 0.303436
1801 2 0.364088 0.479276 0.31895
1802 4 0.345131 0.488657 0.305615
119 3 0.496544 0.453477 0.323502
1781 4 0.0995359 0.00769158 0.406402
732 4 0.102894 0.0754189 0.342835
730 2 0.126052 0.0681093 0.348792
731 4 0.149209 0.0607997 0.354748
399 4 0.0918092 0.0885452 0.334721
699 4 0.392029 0.0456574 0.380717
1699 2 0.365775 0.0133688 0.3882
1700 4 0.376766 0.0322047 0.37597
697 2 0.400334 0.0565864 0.359818
698 4 0.408638 0.0675154 0.338919
2585 4 0.00252068 0.126951 0.336407
397 2 0.0721994 0.102149 0.342176
398 4 0.0525895 0.115752 0.349631
2584 2 0.0243813 0.129479 0.348277
2586 4 0.0462418 0.132006 0.360148
458 4 0.0496035 0.13841 0.378203
457 2 0.0418078 0.156889 0.393134
459 4 0.0340122 0.175367 0.408065
606 4 0.157643 0.0783848 0.35746
605 4 0.199822 0.092438 0.380355
604 2 0.178733 0.0854114 0.368907
248 4 0.208864 0.0985634 0.363301
247 2 0.227376 0.11166 0.352766
249 4 0.245888 0.124756 0.342232
683 4 0.261294 0.134459 0.343345
682 2 0.28235 0.142114 0.354446
684 4 0.303406 0.149768 0.365547
319 2 0.336032 0.161939 0.346323
321 4 0.359877 0.16043 0.338951
726 4 0.405535 0.147891 0.401356
717 4 0.379072 0.15413 0.344766
715 2 0.384025 0.149624 0.368857
716 4 0.388978 0.145118 0.392947
467 4 0.39049 0.162536 0.399349
724 2 0.419846 0.128116 0.406774
725 4 0.434157 0.108342 0.412191
642 4 0.494388 0.105186 0.386106
641 4 0.451285 0.113317 0.362089
640 2 0.472837 0.109252 0.374097
600 4 0.104899 0.186323 0.335292
598 2 0.116774 0.201258 0.35145
599 4 0.12865 0.216194 0.367608
389 4 0.132468 0.242803 0.380714
686 4 0.126132 0.225427 0.383762
685 2 0.115735 0.221692 0.406193
275 4 0.141518 0.229592 0.371294
274 2 0.164661 0.223331 0.378394
473 4 0.224298 0.206122 0.327871
474 4 0.195086 0.217722 0.366766
472 2 0.209692 0.211922 0.347319
276 4 0.187803 0.217071 0.385494
320 4 0.312188 0.163449 0.353695
419 4 0.398788 0.240287 0.333976
269 4 0.409751 0.224901 0.336062
268 2 0.431692 0.215475 0.343472
270 4 0.453633 0.206049 0.350882
452 4 0.462137 0.219854 0.363501
451 2 0.470502 0.217731 0.386968
453 4 0.478867 0.215607 0.410435
347 4 0.0585923 0.311942 0.386964
346 2 0.0381421 0.303057 0.398279
618 4 0.0657982 0.314962 0.368144
373 2 0.140832 0.308309 0.338195
388 2 0.126006 0.266273 0.375007
616 2 0.0888619 0.307875 0.361584
390 4 0.119544 0.289743 0.369299
617 4 0.111926 0.300789 0.355025
374 4 0.1279 0.291055 0.350854
2537 4 0.487201 0.280865 0.316392
602 4 0.0578688 0.396223 0.355413
549 4 0.0674482 0.387227 0.369553
547 2 0.0806644 0.406697 0.378005
509 4 0.220268 0.363697 0.33337
240 4 0.33077 0.378231 0.385822
335 4 0.33802 0.381622 0.404893
238 2 0.341264 0.383321 0.363705
239 4 0.351759 0.38841 0.341589
587 4 0.365842 0.400284 0.350609
752 4 0.463138 0.40145 0.393249
561 4 0.47178 0.383831 0.399015
751 2 0.474191 0.414298 0.374866
559 2 0.491176 0.371957 0.409407
776 4 0.0729581 0.483405 0.340229
500 4 0.0617034 0.467195 0.340726
499 2 0.0653448 0.457945 0.363668
501 4 0.0689861 0.448695 0.386611
548 4 0.0938807 0.426167 0.386456
407 4 0.0881517 0.444359 0.386989
406 2 0.100635 0.447611 0.408408
1555 2 0.235258 0.492062 0.389719
5 3 0.257026 0.434572 0.341945
636 4 0.253493 0.472218 0.422772
1557 4 0.243343 0.476181 0.407258
1803 4 0.383044 0.469895 0.332285
586 2 0.377817 0.422213 0.34966
593 4 0.395724 0.464724 0.346095
588 4 0.389792 0.444142 0.348711
592 2 0.415833 0.479502 0.344535
594 4 0.435942 0.494279 0.342975
712 2 0.470454 0.48122 0.336685
714 4 0.488118 0.463806 0.339829
753 4 0.485244 0.427147 0.356483
117 3 0.486214 0.449331 0.359402
719 4 0.0457801 0.997124 0.460974
718 2 0.0212405 0.000197898 0.457295
369 4 0.0652837 0.998753 0.465701
720 4 0.996701 0.00327228 0.453616
367 2 0.0808612 0.00194224 0.446404
341 4 0.192292 0.00601244 0.492658
963 4 0.298504 0.0349032 0.431882
432 4 0.296209 0.0450854 0.450285
430 2 0.315537 0.0514491 0.464815
961 2 0.311062 0.0168375 0.420004
431 4 0.334864 0.0578129 0.479345
843 4 0.348518 0.0736412 0.482949
841 2 0.368698 0.0652136 0.49507
1216 2 0.42503 0.0593449 0.492984
1218 4 0.446253 0.0510906 0.482659
576 4 0.405213 0.165063 0.488808
260 4 0.0477374 0.188042 0.417009
259 2 0.0666691 0.202881 0.423833
261 4 0.0856009 0.21772 0.430658
687 4 0.105338 0.217957 0.428624
1035 4 0.0957732 0.233861 0.434441
1033 2 0.100445 0.252037 0.450964
466 2 0.399392 0.179571 0.415341
409 2 0.400495 0.230898 0.443747
410 4 0.415108 0.210727 0.441557
411 4 0.385883 0.251069 0.445937
468 4 0.408294 0.196606 0.431333
515 4 0.470273 0.202729 0.421587
575 4 0.412953 0.204327 0.458822
516 4 0.425811 0.198128 0.444009
574 2 0.409083 0.184695 0.473815
514 2 0.448042 0.200428 0.432798
2802 4 0.000579121 0.28985 0.419845
348 4 0.0176919 0.294171 0.409594
1034 4 0.105116 0.270212 0.467487
696 4 0.101921 0.270342 0.485719
1260 4 0.116452 0.281702 0.480617
1258 2 0.118354 0.304786 0.471201
1259 4 0.120256 0.32787 0.461784
9 3 0.151299 0.334946 0.423463
7 3 0.136743 0.331083 0.457899
488 4 0.353348 0.274722 0.393629
489 4 0.371145 0.262385 0.438705
487 2 0.362247 0.268553 0.416167
266 4 0.383796 0.269725 0.451246
265 2 0.389242 0.278877 0.473868
267 4 0.394688 0.288028 0.496491
3308 4 0.497147 0.321482 0.46941
1011 4 0.479055 0.313024 0.469569
1009 2 0.475347 0.295149 0.486655
1010 4 0.471639 0.277274 0.50374
326 4 0.0749155 0.360771 0.471659
6 1 0.144136 0.346348 0.44236
327 4 0.119415 0.345961 0.454303
325 2 0.0971651 0.353366 0.462981
10 3 0.127059 0.360409 0.436944
709 2 0.143422 0.403637 0.498878
8 3 0.161735 0.358411 0.451479
503 4 0.163844 0.333437 0.483787
334 2 0.324 0.389098 0.4242
336 4 0.309981 0.396573 0.443507
668 4 0.309471 0.39861 0.464969
882 4 0.314562 0.382891 0.475189
3307 2 0.503986 0.340518 0.454712
1381 2 0.997724 0.479452 0.476381
1383 4 0.985662 0.463881 0.460979
384 4 0.132129 0.434646 0.486497
383 4 0.118687 0.462149 0.446955
711 4 0.127645 0.415403 0.483456
408 4 0.113118 0.450862 0.429827
382 2 0.125408 0.448397 0.466726
569 4 0.128356 0.461528 0.431326
568 2 0.141268 0.481146 0.422747
667 2 0.307122 0.423468 0.463646
774 4 0.311415 0.462893 0.452325
635 4 0.294494 0.456642 0.446794
634 2 0.273993 0.46443 0.434783
669 4 0.304772 0.448325 0.462323
773 4 0.360217 0.472142 0.446532
772 2 0.335816 0.467517 0.449428
663 4 0.433033 0.509604 0.447191
1058 4 0.120053 0.0724317 0.529753
1152 4 0.23254 0.0573003 0.510645
342 4 0.22593 0.0382379 0.510843
340 2 0.209111 0.0221252 0.501751
1150 2 0.228277 0.0632362 0.534557
1151 4 0.224015 0.0691721 0.558468
1181 4 0.238145 0.0748186 0.572093
1032 4 0.226496 0.0607275 0.575482
2430 4 0.174136 0.99884 0.498006
842 4 0.388878 0.0567861 0.507191
1217 4 0.403806 0.0675991 0.503308
3007 2 0.48716 0.0394588 0.574809
1270 2 0.091964 0.15184 0.554446
1271 4 0.10129 0.129658 0.561239
1057 2 0.112833 0.0917399 0.543904
1059 4 0.105613 0.111048 0.558055
1155 4 0.118391 0.122918 0.565721
939 4 0.101669 0.120422 0.575488
1153 2 0.13896 0.126241 0.579544
1154 4 0.159528 0.129564 0.593367
1180 2 0.237259 0.0988885 0.578804
898 2 0.249646 0.157983 0.563849
1182 4 0.236374 0.122958 0.585515
1221 4 0.174239 0.142059 0.592955
1199 4 0.0261248 0.220112 0.564173
879 4 0.06268 0.176095 0.548141
877 2 0.0524096 0.194313 0.561845
1272 4 0.0826378 0.174022 0.547653
878 4 0.0421392 0.212531 0.575549
1198 2 0.00284344 0.221662 0.555187
651 4 0.20892 0.219829 0.530114
858 4 0.195996 0.228136 0.518616
649 2 0.227839 0.204838 0.536634
650 4 0.246759 0.189847 0.543153
899 4 0.258973 0.176044 0.549289
695 4 0.0859786 0.258404 0.531589
982 2 0.00733812 0.277066 0.576483
694 2 0.0939497 0.264373 0.508654
946 2 0.177995 0.292133 0.574554
856 2 0.188935 0.248731 0.530909
857 4 0.181873 0.269327 0.543203
947 4 0.188236 0.274234 0.560414
798 4 0.206731 0.276626 0.570213
796 2 0.230048 0.27696 0.579235
790 2 0.267878 0.316886 0.588939
872 4 0.353272 0.313223 0.584845
2455 2 0.492497 0.25769 0.521379
2457 4 0.472548 0.27272 0.522512
3353 4 0.994314 0.330482 0.522837
936 4 0.00607022 0.340033 0.509707
710 4 0.159199 0.391871 0.5143
504 4 0.160267 0.37163 0.515868
502 2 0.162055 0.352533 0.499827
1189 2 0.241184 0.367771 0.574086
1191 4 0.219787 0.380529 0.576219
803 4 0.267426 0.358647 0.554069
804 4 0.268444 0.340678 0.507413
802 2 0.267935 0.349662 0.530741
1190 4 0.262582 0.355013 0.571954
1238 4 0.279558 0.354012 0.56999
792 4 0.272472 0.340163 0.581048
1237 2 0.299395 0.368564 0.574449
929 4 0.354244 0.371344 0.524551
881 4 0.351593 0.367482 0.505056
880 2 0.333078 0.375186 0.490122
928 2 0.345224 0.379063 0.546557
930 4 0.336205 0.386781 0.568562
1382 4 0.00978703 0.495023 0.491783
1081 2 0.081538 0.0706603 0.644012
4337 4 0.0153092 0.00298105 0.665066
944 4 0.0760362 0.02772 0.678154
825 4 0.153478 0.0638333 0.666929
1082 4 0.0871888 0.0551275 0.662773
1030 2 0.235292 0.0422673 0.58987
1031 4 0.244088 0.0238071 0.604259
824 4 0.173377 0.0180415 0.664122
823 2 0.163427 0.0409374 0.665525
2133 4 0.180447 0.00120395 0.661191
951 4 0.25777 0.0202373 0.61703
949 2 0.278172 0.00642232 0.621281
3008 4 0.489163 0.0314743 0.598419
809 4 0.478541 0.0167594 0.607815
808 2 0.472164 0.0325201 0.626148
810 4 0.465786 0.0482808 0.644481
45 3 0.462753 0.0708678 0.641558
41 1 0.45719 0.0653686 0.662947
42 3 0.458404 0.0425352 0.665459
43 3 0.435515 0.072276 0.667515
3425 4 0.478294 0.0804526 0.657371
1083 4 0.0758873 0.0861932 0.625251
1127 4 0.0596467 0.0917776 0.615357
1126 2 0.0383442 0.0930569 0.602328
1128 4 0.0170417 0.0943363 0.589299
938 4 0.0751127 0.102645 0.613952
937 2 0.0883908 0.111534 0.59472
900 4 0.240319 0.139923 0.57841
1219 2 0.199023 0.140248 0.590189
1211 4 0.246347 0.135119 0.648124
1210 2 0.242612 0.135833 0.623412
1220 4 0.223807 0.138437 0.587424
1212 4 0.238877 0.136546 0.598699
1227 4 0.248732 0.128083 0.663533
888 4 0.264787 0.136321 0.657577
886 2 0.285595 0.149926 0.660246
1225 2 0.256959 0.105651 0.670902
887 4 0.306403 0.163531 0.662914
3424 2 0.497307 0.0965463 0.659535
1244 4 0.0448507 0.211861 0.595439
1243 2 0.0388127 0.235163 0.602203
1194 4 0.323609 0.171629 0.664093
1192 2 0.329146 0.178522 0.640705
1193 4 0.334683 0.185415 0.617317
3123 4 0.477255 0.257863 0.630333
983 4 0.0200745 0.265415 0.594572
1245 4 0.0327748 0.258465 0.608967
3263 4 0.0524958 0.337846 0.605152
948 4 0.167754 0.310032 0.588694
1135 2 0.173211 0.32108 0.62043
1136 4 0.173469 0.300756 0.605868
791 4 0.263284 0.293609 0.59683
797 4 0.253365 0.277295 0.588256
871 2 0.371875 0.312827 0.601547
873 4 0.390478 0.312431 0.618249
813 4 0.405118 0.321131 0.630004
954 4 0.440021 0.291606 0.595477
952 2 0.455338 0.310955 0.5995
953 4 0.470654 0.330305 0.603522
3262 2 0.0562061 0.35911 0.617771
1041 4 0.0688341 0.398567 0.629293
3264 4 0.0599164 0.380375 0.63039
3240 4 0.0501171 0.396172 0.627023
3238 2 0.027185 0.404284 0.621234
3239 4 0.00425298 0.412395 0.615446
822 4 0.166648 0.340056 0.653218
1039 2 0.0935855 0.399815 0.625978
1040 4 0.118337 0.401063 0.622664
993 4 0.129404 0.385027 0.628309
991 2 0.148933 0.37048 0.633982
992 4 0.168462 0.355932 0.639655
1137 4 0.172953 0.341404 0.634991
1064 4 0.181132 0.351769 0.648325
897 4 0.186522 0.357914 0.631882
896 4 0.210036 0.376231 0.591729
895 2 0.198279 0.367072 0.611806
1172 4 0.221052 0.393584 0.589843
1063 2 0.197858 0.357749 0.665922
1239 4 0.319232 0.383117 0.578908
811 2 0.405302 0.343745 0.64067
1206 4 0.411742 0.378857 0.663706
927 4 0.407219 0.383663 0.644646
812 4 0.405486 0.366358 0.651336
925 2 0.41656 0.399087 0.627325
906 4 0.474139 0.349411 0.600801
904 2 0.494246 0.363839 0.597235
540 4 0.117277 0.4702 0.59041
539 4 0.0884867 0.429317 0.589768
2244 4 0.126 0.486925 0.587352
1160 4 0.136071 0.468823 0.586739
538 2 0.102882 0.449759 0.590089
1159 2 0.157119 0.475735 0.598332
1171 2 0.223804 0.416967 0.598259
1186 2 0.212954 0.471334 0.597632
1173 4 0.226557 0.44035 0.606675
1187 4 0.232084 0.455336 0.595819
1188 4 0.193823 0.487332 0.599444
1161 4 0.178167 0.482646 0.609924
926 4 0.425902 0.41451 0.610004
1002 4 0.42186 0.429494 0.622253
1911 4 0.447478 0.491085 0.612796
1001 4 0.440446 0.475913 0.621515
1000 2 0.431153 0.452703 0.621884
1269 4 0.458048 0.480257 0.626888
1267 2 0.469168 0.484728 0.648832
1268 4 0.480288 0.489198 0.670776
943 2 0.054487 0.0153577 0.675329
1076 4 0.0772705 0.0481341 0.679514
1075 2 0.0776593 0.0642007 0.698669
945 4 0.0329378 0.00299543 0.672503
864 4 0.066758 0.0798678 0.734457
1077 4 0.0780482 0.0802673 0.717823
1283 4 0.141514 0.0780414 0.677526
1148 4 0.256723 0.06877 0.667617
2254 2 0.177093 0.998581 0.70064
2256 4 0.181514 0.0115256 0.67971
1149 4 0.247383 0.0288217 0.696211
1147 2 0.252053 0.0487959 0.681914
2255 4 0.172672 0.985636 0.72157
1226 4 0.265186 0.0832191 0.678271
1004 4 0.333433 0.0891307 0.745823
1092 4 0.339948 0.0110629 0.6961
1163 4 0.473032 0.0532946 0.679745
1162 2 0.490165 0.0463313 0.696572
44 3 0.471977 0.0753444 0.677787
1107 4 0.0821052 0.0908146 0.730424
851 4 0.0795977 0.10027 0.714376
850 2 0.0747957 0.118254 0.697682
852 4 0.0699937 0.136238 0.680988
1105 2 0.104009 0.0912786 0.742473
1282 2 0.154117 0.099484 0.674964
908 4 0.230241 0.130961 0.657396
1284 4 0.16672 0.120927 0.672403
909 4 0.18195 0.131324 0.67038
907 2 0.206096 0.131142 0.663888
829 2 0.338941 0.147197 0.690357
830 4 0.320831 0.157102 0.676246
1005 4 0.358031 0.124102 0.719887
1003 2 0.345732 0.106616 0.732855
831 4 0.35705 0.137292 0.704468
3268 2 0.492149 0.14711 0.739498
1215 4 0.996065 0.232238 0.72931
1213 2 0.995614 0.2078 0.734577
1214 4 0.995162 0.183361 0.739844
1073 4 0.0800747 0.250029 0.724887
977 4 0.31126 0.229745 0.73434
918 4 0.293779 0.233159 0.742718
1297 2 0.284793 0.19623 0.746167
1299 4 0.268689 0.177493 0.750003
976 2 0.335942 0.233527 0.733044
978 4 0.360624 0.237309 0.731748
1025 4 0.385819 0.205254 0.692433
1020 4 0.377697 0.245527 0.739988
1024 2 0.404149 0.204094 0.709399
3270 4 0.492461 0.170603 0.730945
1142 4 0.43227 0.204595 0.741973
1144 2 0.462767 0.187364 0.718929
1262 4 0.437603 0.216093 0.727915
1026 4 0.422479 0.202934 0.726365
1261 2 0.445507 0.23923 0.722681
1145 4 0.440694 0.197672 0.724558
1146 4 0.484841 0.177056 0.713301
1178 4 0.00300909 0.250143 0.729565
1177 2 0.0211695 0.267292 0.728425
1179 4 0.0393299 0.284441 0.727285
820 2 0.152619 0.3281 0.670112
1072 2 0.104497 0.254511 0.727829
1208 4 0.147177 0.264343 0.721012
1074 4 0.128919 0.258994 0.730771
1207 2 0.146493 0.281314 0.702663
821 4 0.13859 0.316144 0.687006
1209 4 0.14581 0.298286 0.684314
1130 4 0.145919 0.253534 0.736225
815 4 0.114191 0.334332 0.728566
806 4 0.246498 0.312417 0.710412
1263 4 0.453411 0.262367 0.717446
892 2 0.0364555 0.358343 0.720017
1279 2 0.0775428 0.403054 0.740016
1280 4 0.0654505 0.382024 0.733961
816 4 0.0778201 0.368641 0.729425
894 4 0.0602056 0.364834 0.724374
893 4 0.0127055 0.351852 0.71566
814 2 0.0960056 0.351487 0.728995
942 4 0.134489 0.331824 0.728945
940 2 0.151852 0.347037 0.738551
805 2 0.235836 0.334209 0.70436
1065 4 0.214584 0.36373 0.68352
807 4 0.225175 0.356 0.698307
1028 4 0.211933 0.383167 0.685535
1066 2 0.195342 0.374068 0.718458
1068 4 0.213697 0.371679 0.701649
1027 2 0.224678 0.403541 0.678633
1067 4 0.176986 0.376457 0.735266
941 4 0.169214 0.362251 0.748157
1204 2 0.39277 0.386578 0.678047
1205 4 0.373799 0.394298 0.692387
1983 4 0.103232 0.431147 0.732596
1281 4 0.0896351 0.424085 0.746071
1981 2 0.107008 0.447547 0.751087
1029 4 0.237424 0.423915 0.671731
1176 4 0.186802 0.486904 0.746309
1175 4 0.199596 0.501779 0.700311
1174 2 0.193199 0.494341 0.72331
2016 4 0.172125 0.486063 0.759763
1140 4 0.255501 0.425117 0.680098
1138 2 0.264704 0.448329 0.678795
1139 4 0.273907 0.471541 0.677493
1987 2 0.288813 0.453901 0.727576
1229 4 0.291539 0.465344 0.685068
1989 4 0.291637 0.464941 0.70532
2028 4 0.281746 0.476086 0.694202
1228 2 0.315786 0.463146 0.679374
1230 4 0.340033 0.460949 0.673679
1101 4 0.474384 0.492033 0.689308
1099 2 0.4895 0.476686 0.702002
862 2 0.0475768 0.0772943 0.750289
2989 2 0.0135493 0.0369863 0.785699
2990 4 0.019411 0.0580349 0.773543
2991 4 0.00768771 0.0159377 0.797856
863 4 0.0283956 0.0747208 0.76612
833 4 0.0231772 0.0736043 0.784113
3083 4 0.00943468 0.07364 0.768772
2049 4 0.0995011 0.0114104 0.798409
1202 4 0.110037 0.0256151 0.805117
1201 2 0.119231 0.0482054 0.79961
1203 4 0.128425 0.0707957 0.794103
32 3 0.143278 0.0845164 0.802798
1085 4 0.316644 0.071496 0.808792
819 4 0.331484 0.0588808 0.812491
1084 2 0.300918 0.0857801 0.795607
973 2 0.376773 0.00116145 0.818363
1050 4 0.357621 0.00449013 0.788932
817 2 0.342709 0.0409826 0.799119
818 4 0.353935 0.0230845 0.785746
974 4 0.365236 0.016202 0.802058
844 2 0.496196 0.0612179 0.821313
845 4 0.49389 0.0593115 0.796489
2322 4 0.495125 0.0575606 0.777505
1112 4 0.495051 0.0757605 0.784673
832 2 0.0277615 0.0895988 0.802777
834 4 0.0323458 0.105593 0.821441
1125 4 0.0288314 0.125431 0.819039