ITEM: TIMESTEP
2880000
ITEM: NUMBER OF ATOMS
4590
ITEM: BOX BOUNDS pp pp pp
-9.9985700000000008e+00 9.9985700000000008e+00
-9.9985700000000008e+00 9.9985700000000008e+00
-9.9985700000000008e+00 9.9985700000000008e+00
ITEM: ATOMS id type xs ys zs
1667 4 0.00304122 0.0720527 0.0523378
701 4 0.0204155 0.0754537 0.0605424
491 4 0.262585 0.072875 0.0873618
485 4 0.419728 0.977543 0.0909927
2974 2 0.457031 0.0106937 0.0212274
745 2 0.433195 0.0638839 0.0150124
747 4 0.432997 0.0390799 0.0181591
2467 2 0.488219 0.0146841 0.0677964
986 4 0.425193 0.0253981 0.00567759
2468 4 0.479191 0.998821 0.0507073
2976 4 0.470004 0.994096 0.0346957
2975 4 0.444058 0.0272916 0.00775909
700 2 0.0371775 0.0914552 0.0699319
702 4 0.0539396 0.107457 0.0793215
567 4 0.232238 0.159233 0.997156
566 4 0.21095 0.160421 0.0423899
565 2 0.221594 0.159827 0.0197728
297 4 0.345711 0.124367 0.0343033
746 4 0.433393 0.0886879 0.0118657
558 4 0.431783 0.105265 0.999539
771 4 0.444918 0.152815 0.0320161
555 4 0.070252 0.23728 0.0210964
482 4 0.255372 0.256252 0.0704881
573 4 0.265393 0.253963 0.0534774
571 2 0.27893 0.25564 0.0325221
770 4 0.402966 0.175711 0.0173016
359 4 0.389451 0.18808 0.0131046
664 2 0.398346 0.211543 0.0438766
665 4 0.396776 0.190811 0.0299889
666 4 0.399916 0.232276 0.0577643
323 4 0.409903 0.246432 0.0656981
358 2 0.367474 0.190552 0.001439
623 4 0.391985 0.239976 0.0733829
769 2 0.423942 0.164263 0.0246588
3338 4 0.993641 0.265556 0.00443618
292 2 0.167101 0.320518 0.0372711
294 4 0.150133 0.313393 0.0203449
293 4 0.184069 0.327642 0.0541973
507 4 0.194574 0.329761 0.0674585
287 4 0.204014 0.332939 0.0512882
286 2 0.221652 0.324579 0.0356611
288 4 0.23929 0.31622 0.020034
505 2 0.199052 0.310808 0.0831389
572 4 0.292467 0.257317 0.0115669
357 4 0.309476 0.25731 0.000529302
355 2 0.321572 0.279096 0.998477
956 4 0.333504 0.311162 0.0124585
1069 2 0.409098 0.315009 0.0275535
955 2 0.353228 0.319551 0.0253323
1071 4 0.39164 0.332591 0.030915
957 4 0.372953 0.327941 0.038206
322 2 0.418849 0.264658 0.051105
324 4 0.427795 0.282884 0.036512
1070 4 0.426555 0.297427 0.0241919
280 2 0.456346 0.305026 0.0502896
282 4 0.444565 0.291296 0.0330299
281 4 0.468127 0.318755 0.0675492
527 4 0.474318 0.321455 0.0872177
671 4 0.462892 0.333907 0.0781632
456 4 0.198138 0.393724 0.0432471
552 4 0.179829 0.341209 0.0697742
454 2 0.194351 0.369694 0.0490271
455 4 0.190564 0.345664 0.0548071
1290 4 0.277667 0.403694 0.0367041
250 2 0.266172 0.414091 0.0684284
1288 2 0.279579 0.386372 0.0187741
1289 4 0.281491 0.36905 0.000844207
741 4 0.384642 0.340126 0.0470696
739 2 0.389989 0.342909 0.0713357
328 2 0.00530478 0.419136 0.0295978
329 4 0.0273281 0.420592 0.0413465
1788 4 0.0788301 0.468187 0.0723054
1786 2 0.0874492 0.4868 0.0580071
627 4 0.153039 0.498824 0.0773064
626 4 0.190505 0.474374 0.0549631
625 2 0.171772 0.486599 0.0661348
245 4 0.210741 0.472181 0.0576326
244 2 0.230502 0.458467 0.0508073
246 4 0.250263 0.444752 0.043982
251 4 0.264127 0.416427 0.0436184
272 4 0.260315 0.432235 0.030729
271 2 0.260225 0.441214 0.00739347
1672 2 0.396706 0.43629 0.0716581
853 2 0.389897 0.445915 0.0152029
1674 4 0.401828 0.444602 0.0486394
854 4 0.408139 0.450001 0.0318076
564 4 0.421759 0.44858 0.0450572
563 4 0.464772 0.473271 0.0386576
562 2 0.443266 0.460925 0.0418574
228 4 0.480368 0.469692 0.0250365
19 3 0.0600895 0.0340191 0.161678
16 1 0.0674438 0.0120125 0.161516
578 4 0.0861088 0.0320231 0.162859
577 2 0.101352 0.051814 0.161789
579 4 0.116595 0.0716049 0.16072
580 2 0.248698 0.0603129 0.146411
582 4 0.237312 0.0810378 0.138286
581 4 0.260085 0.0395879 0.154535
490 2 0.278325 0.0540178 0.0920338
1475 4 0.307366 0.0236136 0.0872272
492 4 0.294065 0.0351606 0.0967058
2722 2 0.472517 0.0662604 0.168716
2724 4 0.484421 0.04429 0.169589
1760 4 0.493231 0.0395525 0.153079
2723 4 0.460612 0.0882309 0.167844
486 4 0.449602 0.0144892 0.106589
484 2 0.434665 0.996016 0.098791
476 4 0.0591337 0.123975 0.0885646
475 2 0.0763481 0.141239 0.083015
513 4 0.0597728 0.154681 0.156083
393 4 0.05727 0.172951 0.148433
477 4 0.0935626 0.158503 0.0774654
237 4 0.2255 0.0927943 0.149131
235 2 0.202262 0.0903542 0.158032
738 4 0.212506 0.155814 0.0903012
628 2 0.373275 0.160123 0.146576
629 4 0.363691 0.137036 0.146009
312 4 0.345216 0.132479 0.149039
310 2 0.342621 0.114604 0.166328
2759 4 0.0143673 0.175968 0.111098
2624 4 0.0123556 0.194382 0.120113
391 2 0.0694127 0.187616 0.16464
737 4 0.233606 0.19717 0.10888
736 2 0.223056 0.176492 0.0995905
755 4 0.248483 0.244092 0.158136
460 2 0.329183 0.226644 0.115574
461 4 0.30816 0.214013 0.110713
354 4 0.290122 0.215565 0.121365
352 2 0.279387 0.228115 0.140139
353 4 0.268652 0.240664 0.158912
630 4 0.38286 0.183209 0.147142
462 4 0.350207 0.239276 0.120435
255 4 0.365448 0.236991 0.134144
253 2 0.374544 0.217553 0.146974
622 2 0.379896 0.242473 0.0951271
624 4 0.367808 0.24497 0.116871
536 4 0.173307 0.254285 0.145977
481 2 0.237867 0.271644 0.0795357
483 4 0.220363 0.287036 0.0885833
506 4 0.20353 0.291854 0.0988194
537 4 0.194054 0.287578 0.114964
535 2 0.18368 0.270931 0.13047
754 2 0.23284 0.263391 0.160966
756 4 0.217197 0.282691 0.163797
301 2 0.318628 0.318261 0.140072
303 4 0.320357 0.303039 0.159832
285 4 0.311283 0.28993 0.166022
764 4 0.330008 0.28633 0.158831
284 4 0.273486 0.25739 0.169654
283 2 0.292384 0.27366 0.167838
765 4 0.356116 0.253569 0.131522
763 2 0.343062 0.26995 0.145176
12 3 0.412528 0.319993 0.115375
647 4 0.0585 0.351734 0.151578
550 2 0.16073 0.348525 0.0841573
551 4 0.14163 0.35584 0.0985403
290 4 0.217413 0.417648 0.150882
252 4 0.268218 0.411754 0.0932384
302 4 0.316898 0.333483 0.120311
609 4 0.282992 0.405059 0.104953
387 4 0.326445 0.347733 0.109295
385 2 0.351156 0.349742 0.106052
493 2 0.391234 0.385004 0.101747
495 4 0.390174 0.360212 0.10481
386 4 0.375867 0.351751 0.102808
15 3 0.379268 0.336516 0.111684
740 4 0.395336 0.345692 0.0956018
14 3 0.410713 0.357166 0.110124
11 1 0.400323 0.338931 0.12002
13 3 0.399447 0.341835 0.143024
494 4 0.392295 0.409797 0.0986835
672 4 0.419101 0.339754 0.10159
526 2 0.496831 0.332194 0.088957
670 2 0.440997 0.33683 0.0898768
1791 4 0.0548201 0.481997 0.129286
1465 2 0.0734229 0.460712 0.108317
1466 4 0.0583142 0.461096 0.128236
1467 4 0.0885315 0.460328 0.088398
638 4 0.21741 0.49641 0.156529
767 4 0.228006 0.478367 0.155444
637 2 0.199768 0.503537 0.140307
766 2 0.22748 0.454646 0.147556
768 4 0.226954 0.430925 0.139668
607 2 0.300203 0.422177 0.110947
608 4 0.317414 0.439296 0.116941
659 4 0.330304 0.432522 0.104176
660 4 0.379236 0.422247 0.105043
1673 4 0.391585 0.427978 0.0946769
658 2 0.35477 0.427384 0.104609
524 4 0.399501 0.478533 0.138091
523 2 0.395952 0.457846 0.124504
525 4 0.392404 0.437159 0.110916
1559 4 0.381941 0.488578 0.138976
595 2 0.486308 0.412281 0.162237
17 3 0.0576541 0.000771555 0.179037
2480 4 0.0433352 0.0014726 0.192909
2479 2 0.0303795 0.0214024 0.200664
380 4 0.0262261 0.0512511 0.194115
2481 4 0.0174239 0.0413322 0.208418
379 2 0.0309356 0.0757228 0.192082
20 3 0.0900829 0.0113676 0.163904
674 4 0.139351 0.0128641 0.206832
673 2 0.123476 0.006368 0.225025
450 4 0.121391 0.0801408 0.179018
1504 2 0.235437 0.00302115 0.182006
1506 4 0.252895 0.0207684 0.184335
654 4 0.259634 0.0374124 0.174115
652 2 0.28373 0.032742 0.178886
653 4 0.307826 0.0280716 0.183657
758 4 0.342411 0.0763803 0.188323
759 4 0.361776 0.0738412 0.234358
757 2 0.352093 0.0751107 0.211341
350 4 0.371795 0.0654373 0.244297
349 2 0.396411 0.0612288 0.243075
22 3 0.357546 0.0642943 0.251469
632 4 0.360889 0.081773 0.246862
480 4 0.439983 0.0617183 0.246499
743 4 0.477483 0.0667442 0.24976
333 4 0.478457 0.08612 0.25133
511 2 0.0513956 0.135685 0.170017
512 4 0.0430185 0.116689 0.183951
381 4 0.0356451 0.100195 0.190049
448 2 0.144981 0.0882578 0.180685
449 4 0.168572 0.0963748 0.182352
236 4 0.179024 0.0879141 0.166932
30 3 0.332251 0.133415 0.240664
26 1 0.342551 0.152112 0.248598
311 4 0.340025 0.0967292 0.183618
761 4 0.409039 0.164983 0.241008
521 4 0.466718 0.13917 0.218672
762 4 0.45422 0.14449 0.234728
760 2 0.43163 0.154737 0.237868
332 4 0.469039 0.132909 0.236402
331 2 0.473748 0.109514 0.243866
520 2 0.485347 0.153139 0.209562
392 4 0.0815554 0.202282 0.180847
339 4 0.0664817 0.212129 0.189558
337 2 0.059524 0.234991 0.196912
396 4 0.00359405 0.249601 0.247507
279 4 0.267393 0.22118 0.216405
277 2 0.263762 0.233051 0.1947
278 4 0.260132 0.244922 0.172996
27 3 0.327081 0.16529 0.259377
254 4 0.38364 0.198115 0.159804
28 3 0.351721 0.164164 0.231018
394 2 0.0166014 0.265123 0.232841
395 4 0.0296088 0.280644 0.218176
338 4 0.0525662 0.257853 0.204266
363 4 0.0459735 0.277065 0.207391
361 2 0.0556066 0.300045 0.209461
648 4 0.0664144 0.337001 0.198705
362 4 0.0652398 0.323026 0.211531
372 4 0.0825242 0.32758 0.20489
749 4 0.0547958 0.337945 0.215631
370 2 0.105807 0.327534 0.214006
371 4 0.129089 0.327487 0.223122
612 4 0.227402 0.293669 0.17699
611 4 0.244446 0.322824 0.213871
610 2 0.235924 0.308246 0.195431
344 4 0.229592 0.326955 0.227272
343 2 0.212115 0.322662 0.244629
729 4 0.308776 0.306467 0.17441
727 2 0.297369 0.323594 0.188612
308 4 0.324574 0.294271 0.175803
498 4 0.343289 0.289814 0.233209
307 2 0.33796 0.288465 0.196108
309 4 0.351346 0.282659 0.216413
748 2 0.0625745 0.352122 0.234702
646 2 0.0624572 0.344367 0.175141
734 4 0.134472 0.341785 0.234083
733 2 0.155985 0.33367 0.243906
417 4 0.139037 0.363031 0.208758
299 4 0.133866 0.357041 0.248554
289 2 0.204409 0.401265 0.16458
291 4 0.191404 0.384882 0.178279
416 4 0.173505 0.390605 0.185255
415 2 0.156271 0.376818 0.197006
728 4 0.285962 0.340722 0.202815
445 2 0.388434 0.382759 0.239537
446 4 0.364626 0.38097 0.246964
447 4 0.412241 0.384548 0.232109
644 4 0.414962 0.398173 0.21891
643 2 0.432223 0.406305 0.20275
645 4 0.449483 0.414436 0.186591
264 4 0.0121636 0.43144 0.234379
1757 4 0.0262124 0.435454 0.250308
412 2 0.240755 0.467144 0.232311
413 4 0.237353 0.444313 0.241922
414 4 0.244157 0.489974 0.2227
1574 4 0.317358 0.488094 0.21357
1573 2 0.299968 0.500417 0.200497
597 4 0.462806 0.411261 0.17071
229 2 0.467127 0.496512 0.219985
231 4 0.478153 0.478657 0.233579
427 2 0.0573578 0.997829 0.323155
234 4 0.00261071 0.0501328 0.302168
232 2 0.0247672 0.040235 0.296143
233 4 0.0469237 0.0303371 0.290118
2756 4 0.999229 0.0686497 0.298426
317 4 0.0595923 0.0338912 0.302831
1404 4 0.0664297 0.0241647 0.290487
316 2 0.076121 0.0480313 0.315161
1402 2 0.0828875 0.0127122 0.275548
428 4 0.0656051 0.016279 0.308432
2755 2 0.00282256 0.0851989 0.316821
318 4 0.0926498 0.0621714 0.327491
730 2 0.132571 0.0811676 0.324718
731 4 0.156576 0.0879699 0.326358
693 4 0.318967 0.0549333 0.278835
691 2 0.30438 0.0734714 0.287126
24 3 0.324713 0.0484922 0.260684
25 3 0.352272 0.0278379 0.245467
21 1 0.347645 0.0451541 0.259517
23 3 0.356083 0.0406654 0.280661
351 4 0.421028 0.0570204 0.241853
479 4 0.45284 0.037797 0.288489
478 2 0.446412 0.0497576 0.267494
2664 4 0.469107 0.0271543 0.292445
1428 4 0.451122 0.0241252 0.29864
258 4 0.441185 0.0420102 0.303446
2662 2 0.493323 0.0318223 0.296566
256 2 0.426291 0.0562098 0.317648
1426 2 0.442819 0.00293801 0.309001
732 4 0.108567 0.0743652 0.323077
692 4 0.289793 0.0920095 0.295416
721 2 0.266932 0.115741 0.310348
723 4 0.275955 0.105075 0.289611
722 4 0.257909 0.126406 0.331084
29 3 0.359173 0.146202 0.263671
631 2 0.362877 0.104158 0.257824
707 4 0.375537 0.138987 0.270872
633 4 0.364865 0.126543 0.268785
706 2 0.376442 0.141216 0.295759
708 4 0.377348 0.143445 0.320647
444 4 0.0346193 0.223983 0.302906
442 2 0.0224374 0.232153 0.282657
544 2 0.123796 0.242693 0.2578
546 4 0.0996793 0.237155 0.261391
403 2 0.242471 0.160897 0.334468
405 4 0.227944 0.17994 0.327293
473 4 0.218927 0.192003 0.340122
269 4 0.401213 0.227339 0.331264
268 2 0.422343 0.220919 0.342989
443 4 0.0102554 0.240324 0.262408
545 4 0.147913 0.24823 0.25421
402 4 0.153504 0.266466 0.256149
375 4 0.16386 0.322239 0.323537
400 2 0.169673 0.284171 0.263239
401 4 0.185842 0.301875 0.27033
676 2 0.176478 0.329063 0.294668
345 4 0.194637 0.31837 0.261987
677 4 0.178249 0.319193 0.271763
735 4 0.177499 0.325556 0.25373
378 4 0.287066 0.282787 0.308183
376 2 0.307869 0.295184 0.301961
377 4 0.328672 0.307581 0.295739
615 4 0.330025 0.327639 0.298451
419 4 0.406152 0.243638 0.320838
497 4 0.342386 0.30307 0.281418
496 2 0.342838 0.296442 0.257314
541 2 0.365419 0.312991 0.309576
542 4 0.386564 0.311533 0.322839
420 4 0.393019 0.291752 0.324493
543 4 0.344273 0.314449 0.296312
418 2 0.399585 0.267695 0.322665
2537 4 0.494018 0.320204 0.323644
750 4 0.0703533 0.366298 0.253772
364 2 0.0207985 0.393277 0.303105
365 4 0.0451121 0.387449 0.302862
601 2 0.059265 0.379322 0.340549
603 4 0.0426763 0.381174 0.321932
300 4 0.0878389 0.375065 0.256127
298 2 0.110852 0.366053 0.252341
678 4 0.174707 0.338933 0.317573
510 4 0.192363 0.345702 0.319646
434 4 0.317504 0.387752 0.310202
433 2 0.306845 0.410241 0.312617
614 4 0.323094 0.377056 0.295196
613 2 0.326559 0.352347 0.296824
1756 2 0.0424636 0.449329 0.263292
1758 4 0.0587148 0.463203 0.276275
1775 4 0.0720723 0.477634 0.279626
777 4 0.0616576 0.490592 0.291702
775 2 0.0504863 0.480724 0.311777
1776 4 0.121319 0.469675 0.276147
1774 2 0.0966959 0.473655 0.277887
1436 4 0.228971 0.44567 0.260326
1435 2 0.240962 0.445469 0.282266
1437 4 0.252954 0.445267 0.304205
4 3 0.251352 0.426801 0.319389
3 3 0.266534 0.46107 0.313101
1 1 0.26561 0.443091 0.32774
436 2 0.307437 0.463889 0.302387
438 4 0.28808 0.45201 0.312847
2 3 0.286694 0.43414 0.329863
435 4 0.296186 0.432729 0.315032
1801 2 0.351772 0.497084 0.299455
437 4 0.326794 0.475767 0.291928
1802 4 0.33 0.495795 0.287228
119 3 0.489453 0.461349 0.319738
606 4 0.164418 0.0715794 0.334556
604 2 0.18439 0.0744739 0.349318
257 4 0.411396 0.0704095 0.331851
699 4 0.354618 0.0642755 0.370698
1699 2 0.359388 0.0261843 0.391128
1700 4 0.359543 0.05058 0.38565
697 2 0.375572 0.0689813 0.357892
1701 4 0.359233 0.00178864 0.396606
698 4 0.396525 0.0736872 0.345086
2585 4 0.00658019 0.107879 0.354892
397 2 0.0800571 0.0911878 0.350708
398 4 0.0640585 0.104268 0.364785
2584 2 0.0300612 0.11504 0.359639
2586 4 0.0535422 0.122202 0.364386
458 4 0.0476707 0.123547 0.384036
457 2 0.0561352 0.137509 0.402972
399 4 0.0960557 0.078108 0.336632
600 4 0.100489 0.165758 0.355595
605 4 0.204362 0.0773685 0.36408
248 4 0.217367 0.0909402 0.362446
247 2 0.233454 0.109171 0.35661
249 4 0.24954 0.127401 0.350774
404 4 0.256999 0.141854 0.341644
683 4 0.266817 0.13738 0.357029
682 2 0.290337 0.145838 0.357669
684 4 0.313858 0.154297 0.35831
320 4 0.31827 0.166758 0.342973
321 4 0.364425 0.150875 0.332104
319 2 0.341347 0.158816 0.337539
726 4 0.396575 0.140799 0.408402
717 4 0.366885 0.153712 0.352586
715 2 0.380969 0.153272 0.373241
716 4 0.395053 0.152832 0.393896
641 4 0.449851 0.102481 0.376187
640 2 0.473956 0.103249 0.382786
598 2 0.10628 0.188187 0.365007
599 4 0.112072 0.210616 0.374418
389 4 0.131773 0.237362 0.37329
686 4 0.121162 0.224816 0.383258
685 2 0.108096 0.226508 0.404509
275 4 0.130588 0.217813 0.368716
274 2 0.153496 0.213962 0.377966
474 4 0.182922 0.212787 0.367915
472 2 0.200924 0.202395 0.354019
276 4 0.176404 0.210111 0.387216
270 4 0.443472 0.214499 0.354715
452 4 0.459291 0.203642 0.358491
451 2 0.46977 0.210398 0.380164
453 4 0.480249 0.217154 0.401837
347 4 0.0600267 0.304153 0.39614
346 2 0.0397088 0.29649 0.408535
348 4 0.0193909 0.288826 0.42093
618 4 0.0768601 0.310222 0.389232
388 2 0.124525 0.258065 0.36129
616 2 0.094123 0.303216 0.372556
390 4 0.117277 0.278769 0.34929
617 4 0.111386 0.296211 0.35588
374 4 0.127414 0.295821 0.345319
373 2 0.145637 0.30903 0.334428
602 4 0.0758536 0.37747 0.359165
549 4 0.0934491 0.382533 0.364853
547 2 0.0975063 0.403383 0.378044
508 2 0.209327 0.347938 0.337878
509 4 0.226291 0.350174 0.35611
335 4 0.331487 0.366454 0.405303
240 4 0.342423 0.376696 0.391488
238 2 0.352521 0.390205 0.373029
239 4 0.362618 0.403714 0.35457
587 4 0.380269 0.411848 0.358641
752 4 0.477567 0.391605 0.381847
561 4 0.475896 0.387987 0.401967
559 2 0.494424 0.380579 0.417034
751 2 0.485464 0.409612 0.366401
776 4 0.039315 0.470855 0.331851
500 4 0.0580021 0.467399 0.339365
499 2 0.0700698 0.459249 0.359691
501 4 0.0821376 0.451099 0.380016
548 4 0.101564 0.424233 0.391234
407 4 0.089799 0.439419 0.392326
406 2 0.10217 0.449789 0.411422
1545 4 0.173694 0.499765 0.412124
1544 4 0.206494 0.497001 0.374478
1556 4 0.22534 0.488102 0.374207
1543 2 0.190094 0.498383 0.393301
5 3 0.25833 0.450063 0.348161
636 4 0.271779 0.483713 0.413473
1555 2 0.24444 0.47915 0.387633
1557 4 0.26354 0.470199 0.401059
586 2 0.389335 0.43515 0.358792
593 4 0.389802 0.472322 0.347073
588 4 0.398401 0.458452 0.358942
592 2 0.412205 0.481385 0.340659
594 4 0.434608 0.490448 0.334244
712 2 0.467503 0.484045 0.342186
714 4 0.486968 0.468663 0.339072
753 4 0.493361 0.427619 0.350956
117 3 0.492566 0.450263 0.355516
719 4 0.0510869 0.0103929 0.474251
718 2 0.0276093 0.00573063 0.467023
369 4 0.0674037 0.00511981 0.464004
963 4 0.30979 0.0261897 0.45267
432 4 0.297176 0.0405485 0.457488
430 2 0.309277 0.050403 0.477024
961 2 0.323108 0.0132624 0.435915
962 4 0.336425 0.000335032 0.419161
1217 4 0.400689 0.0393547 0.478242
425 4 0.3551 0.994746 0.415504
842 4 0.388511 0.0393886 0.493827
1216 2 0.42451 0.0468291 0.47961
1218 4 0.448331 0.0543034 0.480979
260 4 0.0602508 0.171324 0.423755
459 4 0.0645996 0.151472 0.421908
467 4 0.395721 0.159634 0.412715
724 2 0.392515 0.117987 0.417801
725 4 0.388455 0.0951759 0.4272
259 2 0.0722005 0.192787 0.428417
261 4 0.0841501 0.21425 0.433078
687 4 0.0950311 0.2282 0.42576
1035 4 0.0886476 0.231008 0.443514
1033 2 0.0871053 0.252113 0.456832
466 2 0.404262 0.180521 0.423484
468 4 0.412804 0.201407 0.434254
409 2 0.398797 0.231633 0.45524
410 4 0.413332 0.211854 0.450475
515 4 0.466453 0.221071 0.41548
575 4 0.429162 0.208408 0.463742
516 4 0.429525 0.204691 0.444955
574 2 0.436877 0.193496 0.48227
514 2 0.447989 0.212881 0.430218
696 4 0.0997407 0.273815 0.482451
1034 4 0.0855631 0.273218 0.470151
1260 4 0.102792 0.277893 0.462681
1258 2 0.116315 0.298923 0.462567
1259 4 0.129839 0.319953 0.462453
9 3 0.142555 0.32379 0.434987
7 3 0.141998 0.326132 0.472495
411 4 0.384262 0.251411 0.460004
489 4 0.383138 0.267262 0.449613
488 4 0.340149 0.269676 0.424179
487 2 0.361644 0.268469 0.436896
266 4 0.393447 0.268071 0.466127
265 2 0.3987 0.289651 0.477609
267 4 0.403953 0.311232 0.489092
2457 4 0.47133 0.272974 0.523441
3308 4 0.489092 0.327774 0.475715
1011 4 0.472832 0.316706 0.472716
1010 4 0.464799 0.281149 0.506949
1009 2 0.468815 0.298928 0.489833
6 1 0.147436 0.337357 0.453167
326 4 0.0812529 0.355806 0.486269
327 4 0.124589 0.339847 0.467085
325 2 0.102921 0.347827 0.476677
10 3 0.135294 0.356588 0.451992
709 2 0.136541 0.393135 0.494392
711 4 0.115908 0.398365 0.481273
8 3 0.170102 0.342312 0.453495
334 2 0.319266 0.382516 0.420063
336 4 0.307046 0.398578 0.434823
668 4 0.298471 0.398497 0.452056
882 4 0.349428 0.358017 0.485606
560 4 0.512951 0.373172 0.432102
3307 2 0.500697 0.3442 0.460859
1383 4 0.0110535 0.451214 0.470738
1381 2 0.0124197 0.476079 0.472985
568 2 0.148946 0.480355 0.430517
383 4 0.124092 0.458859 0.448724
384 4 0.122117 0.41761 0.476926
382 2 0.123105 0.438235 0.462825
408 4 0.11454 0.460158 0.430517
569 4 0.133481 0.460769 0.432072
570 4 0.164411 0.49994 0.428962
774 4 0.321817 0.452226 0.449417
635 4 0.305593 0.459194 0.44097
634 2 0.288686 0.471454 0.427222
669 4 0.303723 0.448032 0.456457
667 2 0.301097 0.423265 0.454257
773 4 0.359516 0.482881 0.437593
772 2 0.340666 0.467554 0.443505
663 4 0.473804 0.492393 0.464826
2430 4 0.154229 0.0132699 0.490762
341 4 0.173585 0.0136469 0.493247
1152 4 0.197136 0.0595568 0.525594
342 4 0.204643 0.0477003 0.51265
340 2 0.189114 0.0306736 0.502949
1032 4 0.232858 0.0687439 0.57371
1150 2 0.214012 0.0689109 0.541496
431 4 0.321378 0.0602576 0.496559
841 2 0.365013 0.0477604 0.495541
843 4 0.341515 0.0561321 0.497255
1058 4 0.120219 0.104385 0.506415
1270 2 0.0835224 0.149584 0.556013
1271 4 0.094568 0.128501 0.563675
1057 2 0.112654 0.109496 0.529693
1059 4 0.105089 0.114607 0.55297
1155 4 0.112198 0.123373 0.568313
939 4 0.0954463 0.112705 0.569405
1151 4 0.230889 0.078265 0.557398
1180 2 0.234387 0.112598 0.574976
1181 4 0.238666 0.0882905 0.570972
1182 4 0.230109 0.136905 0.578979
1199 4 0.0245053 0.210837 0.575896
879 4 0.0698947 0.190402 0.546189
1198 2 0.00435807 0.216481 0.562206
877 2 0.0568785 0.202105 0.564043
1272 4 0.0724769 0.170666 0.548351
651 4 0.207308 0.232345 0.527412
858 4 0.201277 0.244392 0.511706
898 2 0.237533 0.16988 0.568756
649 2 0.225218 0.215114 0.530146
650 4 0.243128 0.197882 0.53288
899 4 0.239316 0.185091 0.548993
2456 4 0.501439 0.233217 0.519757
576 4 0.444592 0.178584 0.500798
695 4 0.0801265 0.283873 0.527338
694 2 0.0899336 0.278844 0.504895
946 2 0.16964 0.282004 0.572889
856 2 0.191347 0.262117 0.526279
857 4 0.181417 0.279843 0.540852
947 4 0.184165 0.270076 0.556399
798 4 0.202878 0.263259 0.562065
796 2 0.222207 0.272608 0.574877
503 4 0.191877 0.331778 0.504561
797 4 0.241537 0.281958 0.587689
791 4 0.254742 0.292457 0.576331
790 2 0.262352 0.316098 0.573433
2455 2 0.486384 0.253095 0.521599
710 4 0.157174 0.387904 0.50751
502 2 0.180467 0.353384 0.509869
504 4 0.169058 0.374991 0.515176
1189 2 0.238925 0.366219 0.578174
803 4 0.266697 0.368497 0.55856
804 4 0.285086 0.382087 0.514087
802 2 0.275891 0.375292 0.536323
1190 4 0.259218 0.354919 0.568917
1238 4 0.274367 0.359105 0.574969
792 4 0.269963 0.339738 0.570536
1237 2 0.297631 0.361954 0.583678
929 4 0.368542 0.372601 0.550528
881 4 0.358734 0.365799 0.53412
880 2 0.354081 0.361908 0.509863
928 2 0.347564 0.375769 0.563759
2244 4 0.103134 0.49219 0.57535
1081 2 0.0699752 0.0638059 0.637224
1082 4 0.0786724 0.0525637 0.657795
1083 4 0.0612779 0.0750482 0.616654
1030 2 0.239123 0.0523614 0.591529
825 4 0.179695 0.0599508 0.652933
1031 4 0.245388 0.035979 0.609349
824 4 0.178729 0.0118454 0.666558
823 2 0.179212 0.0358981 0.659745
951 4 0.252694 0.0230807 0.622613
949 2 0.26916 0.00618853 0.630901
3008 4 0.489688 0.0216171 0.594961
809 4 0.480357 0.0184522 0.612568
808 2 0.471245 0.0349113 0.629037
810 4 0.462134 0.0513703 0.645507
45 3 0.459361 0.0743895 0.643246
41 1 0.452824 0.0680698 0.664127
1127 4 0.0489344 0.0887919 0.622856
1126 2 0.028212 0.0942754 0.609984
1128 4 0.00748957 0.0997589 0.597112
938 4 0.0683393 0.0856364 0.601548
1153 2 0.134522 0.126119 0.579234
937 2 0.0818928 0.0991709 0.585476
1154 4 0.156847 0.128864 0.590154
900 4 0.23575 0.154668 0.58852
1221 4 0.168674 0.145343 0.590619
1219 2 0.193672 0.145835 0.590648
1211 4 0.238515 0.14137 0.655019
1210 2 0.233121 0.145388 0.630937
1220 4 0.218671 0.146327 0.590677
1212 4 0.227728 0.149405 0.606855
908 4 0.221564 0.140865 0.66308
1227 4 0.237287 0.128428 0.66563
1192 2 0.322009 0.156536 0.647392
1194 4 0.309724 0.158718 0.66906
3424 2 0.491437 0.100272 0.655182
3425 4 0.472192 0.0849388 0.659617
878 4 0.0438622 0.213809 0.581897
1244 4 0.0539187 0.221745 0.595798
1243 2 0.0431624 0.24236 0.60499
1193 4 0.334293 0.154355 0.625724
3123 4 0.491492 0.226406 0.642584
983 4 0.0319578 0.27358 0.597999
1245 4 0.0324061 0.262975 0.614183
982 2 0.015277 0.28354 0.58226
3263 4 0.0610109 0.325135 0.61309
948 4 0.155115 0.293932 0.589379
820 2 0.158587 0.3145 0.661464
1135 2 0.169272 0.325485 0.61097
1136 4 0.166065 0.310002 0.591601
822 4 0.165194 0.333731 0.646914
872 4 0.354626 0.281561 0.606924
871 2 0.356174 0.304829 0.615944
813 4 0.376728 0.332859 0.630548
873 4 0.357722 0.328098 0.624964
954 4 0.452047 0.294957 0.607872
952 2 0.458526 0.318978 0.605379
3262 2 0.0609032 0.349075 0.620306
1041 4 0.065542 0.39184 0.632427
3264 4 0.0607955 0.373015 0.627521
3240 4 0.0537349 0.387097 0.617541
3238 2 0.0327612 0.398904 0.624314
3239 4 0.0117874 0.410711 0.631087
1039 2 0.0885009 0.394679 0.641914
1040 4 0.11146 0.397518 0.651401
993 4 0.128467 0.386221 0.648743
991 2 0.146348 0.369329 0.644258
992 4 0.164228 0.352436 0.639773
1137 4 0.172479 0.340968 0.63034
1064 4 0.177215 0.348843 0.648389
897 4 0.182287 0.356701 0.631262
896 4 0.206101 0.387251 0.599634
895 2 0.194194 0.371976 0.615448
1172 4 0.222967 0.393716 0.595989
1191 4 0.218632 0.377519 0.58743
1171 2 0.228721 0.418047 0.595746
1239 4 0.320895 0.364804 0.592386
930 4 0.326587 0.378937 0.576991
811 2 0.39028 0.351542 0.640165
1204 2 0.3799 0.395562 0.674986
1206 4 0.39408 0.383543 0.658264
927 4 0.400001 0.390323 0.641877
812 4 0.403831 0.370225 0.649781
925 2 0.409844 0.400373 0.621205
926 4 0.419687 0.410422 0.600534
953 4 0.465006 0.342998 0.602886
906 4 0.478411 0.351779 0.591252
540 4 0.107531 0.478733 0.588315
539 4 0.0884192 0.432539 0.589578
538 2 0.0979752 0.455636 0.588947
1159 2 0.144686 0.483241 0.587794
1160 4 0.122 0.485851 0.57761
1186 2 0.204102 0.472326 0.60182
1173 4 0.234476 0.442378 0.595503
1187 4 0.222295 0.455469 0.604986
1188 4 0.185909 0.489184 0.598654
1161 4 0.167371 0.480631 0.597979
1002 4 0.417553 0.430552 0.596698
1911 4 0.452699 0.488588 0.613259
1001 4 0.447193 0.469242 0.607887
1000 2 0.432373 0.449897 0.602292
1269 4 0.463164 0.475506 0.616405
1267 2 0.474464 0.482852 0.637465
943 2 0.0392378 0.0182034 0.674527
944 4 0.0589179 0.0336236 0.674826
1076 4 0.0673097 0.0515189 0.673733
1075 2 0.0670367 0.0678765 0.692642
945 4 0.0195576 0.00278326 0.674228
864 4 0.0578715 0.0765424 0.726578
862 2 0.0401098 0.0714688 0.743429
1283 4 0.162899 0.0676009 0.658827
1105 2 0.09621 0.0830906 0.741194
1149 4 0.242615 0.042815 0.727572
1147 2 0.248992 0.0580931 0.708835
1004 4 0.333287 0.0737968 0.741441
1148 4 0.25537 0.0733713 0.690098
1092 4 0.345019 0.00316791 0.682258
42 3 0.456922 0.0456018 0.666873
43 3 0.430103 0.0719339 0.666818
1163 4 0.469255 0.0569962 0.68215
1162 2 0.4874 0.0499234 0.697832
2321 4 0.502177 0.0339657 0.730762
1077 4 0.0667637 0.084234 0.71155
851 4 0.0733127 0.101538 0.717689
850 2 0.0784692 0.125239 0.711615
852 4 0.0836257 0.148939 0.705541
1107 4 0.0772362 0.0832549 0.72491
1282 2 0.167841 0.0894367 0.66996
1284 4 0.172783 0.111273 0.681093
909 4 0.181844 0.127624 0.690424
907 2 0.201704 0.134245 0.676752
1225 2 0.250132 0.107905 0.671875
886 2 0.272867 0.155627 0.673609
888 4 0.250853 0.144837 0.668695
1226 4 0.262977 0.0873825 0.678119
829 2 0.326524 0.146167 0.703136
830 4 0.309004 0.155578 0.68798
1005 4 0.342231 0.121773 0.730532
1003 2 0.337759 0.0977849 0.735986
831 4 0.344043 0.136757 0.718292
44 3 0.464815 0.0798889 0.680093
1214 4 0.99019 0.189841 0.718069
1213 2 0.996719 0.211291 0.729135
1299 4 0.259521 0.182282 0.751391
887 4 0.29488 0.166417 0.678523
977 4 0.303239 0.224667 0.724439
976 2 0.328057 0.222976 0.721907
1298 4 0.285979 0.219113 0.730316
918 4 0.292521 0.234407 0.739712
1297 2 0.27275 0.200697 0.740854
978 4 0.352874 0.221285 0.719375
1025 4 0.397229 0.183554 0.679129
1020 4 0.36883 0.228952 0.725594
1018 2 0.376654 0.244577 0.743478
1024 2 0.411927 0.192065 0.697479
1142 4 0.437655 0.193801 0.729092
1144 2 0.470744 0.188836 0.714852
1262 4 0.437596 0.212609 0.719524
1026 4 0.426624 0.200575 0.71583
1261 2 0.441158 0.23673 0.72506
1145 4 0.447368 0.197613 0.713561
1178 4 0.00418206 0.245917 0.723787
1177 2 0.0236887 0.256352 0.712134
1179 4 0.0431953 0.266787 0.700481
1208 4 0.162055 0.264411 0.723076
1074 4 0.14412 0.263419 0.730675
1207 2 0.163832 0.283153 0.706621
821 4 0.15198 0.295269 0.676014
1209 4 0.16561 0.301895 0.690167
1072 2 0.119528 0.258928 0.730162
1130 4 0.157019 0.251965 0.737541
1073 4 0.0949368 0.254436 0.72965
806 4 0.263746 0.333291 0.705036
1263 4 0.444721 0.260852 0.730596
892 2 0.0262835 0.36743 0.735357
1279 2 0.0634247 0.413267 0.73286
1280 4 0.061878 0.39002 0.723786
816 4 0.0601199 0.368935 0.724229
894 4 0.0467289 0.380743 0.729887
893 4 0.00583812 0.354117 0.740828
814 2 0.0829523 0.359006 0.726528
815 4 0.105785 0.349078 0.728828
942 4 0.122093 0.346339 0.740921
940 2 0.144452 0.356662 0.745245
805 2 0.239817 0.33922 0.700858
1063 2 0.193325 0.353796 0.666858
1065 4 0.209435 0.358749 0.685328
807 4 0.215889 0.34515 0.69668
1028 4 0.21497 0.375797 0.691172
1066 2 0.198116 0.368107 0.724521
1068 4 0.212473 0.362495 0.704834
1027 2 0.222627 0.399367 0.68786
1067 4 0.183759 0.37372 0.744207
1029 4 0.230285 0.422938 0.684547
1205 4 0.36572 0.407581 0.691709
1281 4 0.0649714 0.436515 0.741933
1983 4 0.0739917 0.454561 0.740027
1981 2 0.0951152 0.467523 0.74334
1176 4 0.179218 0.478837 0.736218
1175 4 0.203155 0.478475 0.692313
1174 2 0.191187 0.478656 0.714265
2016 4 0.187738 0.492651 0.747602
1140 4 0.244685 0.430475 0.672301
1138 2 0.263311 0.446946 0.674937
1139 4 0.281937 0.463418 0.677573
1987 2 0.291907 0.453816 0.723178
1229 4 0.299675 0.468225 0.685627
1989 4 0.300131 0.469145 0.705217
2028 4 0.285638 0.474794 0.692597
1228 2 0.323744 0.468697 0.67887
1230 4 0.347813 0.469169 0.672114
1268 4 0.485764 0.490198 0.658525
1101 4 0.485817 0.485806 0.67816
1099 2 0.47446 0.47702 0.698629
1100 4 0.463102 0.468235 0.719099
2168 4 0.497157 0.499966 0.670901
2989 2 0.0199691 0.0311456 0.777004
2990 4 0.0145772 0.055281 0.773318
2991 4 0.0253609 0.00701029 0.780691
863 4 0.0223481 0.0663953 0.760281
833 4 0.014724 0.0732337 0.778594
3083 4 0.00451322 0.0697727 0.762795
1106 4 0.115184 0.0829262 0.757477
2049 4 0.10842 0.018073 0.789197
1202 4 0.12515 0.0296195 0.78446
1201 2 0.127843 0.0544753 0.7848
1203 4 0.130536 0.0793311 0.78514
1085 4 0.32203 0.073777 0.807398
960 4 0.322816 0.0690202 0.825957
819 4 0.339025 0.0670942 0.815941
817 2 0.346734 0.0470885 0.803075
818 4 0.354442 0.0270828 0.79021
974 4 0.362787 0.0102491 0.795403
845 4 0.494291 0.0665517 0.78881
2322 4 0.491082 0.051854 0.776123
2320 2 0.496629 0.0429098 0.753442
832 2 0.0205659 0.0901031 0.7961
834 4 0.0264079 0.106972 0.813607
1125 4 0.0232342 0.125223 0.822488
32 3 0.146563 0.08856 0.796337
911 4 0.131967 0.103621 0.811025
34 3 0.11972 0.0959921 0.771101
31 1 0.136711 0.105231 0.78392
35 3 0.128159 0.120987 0.797965
33 3 0.152741 0.114783 0.770129
1256 4 0.234827 0.123007 0.801775
840 4 0.229366 0.131392 0.819579