ITEM: TIMESTEP
1600000
ITEM: NUMBER OF ATOMS
4590
ITEM: BOX BOUNDS pp pp pp
-9.9985700000000008e+00 9.9985700000000008e+00
-9.9985700000000008e+00 9.9985700000000008e+00
-9.9985700000000008e+00 9.9985700000000008e+00
ITEM: ATOMS id type xs ys zs
1666 2 0.059259 0.0658541 0.0673212
1668 4 0.0401826 0.0514682 0.0599515
747 4 0.463371 0.0626557 0.0199236
2974 2 0.478563 0.0248395 0.0256546
2976 4 0.482097 0.00125851 0.0331795
2975 4 0.47503 0.0484206 0.0181296
986 4 0.462737 0.0499127 0.00415563
745 2 0.454662 0.0858385 0.0233716
2264 4 0.255684 0.155559 0.00817306
297 4 0.3324 0.0855842 0.0398579
295 2 0.348051 0.0973531 0.0243111
296 4 0.363702 0.109122 0.00876422
556 2 0.402634 0.106158 0.0105568
771 4 0.413473 0.14402 0.0427806
769 2 0.396653 0.161636 0.037129
558 4 0.425475 0.10797 0.0205673
746 4 0.445953 0.109021 0.0268196
566 4 0.167451 0.185336 0.0385278
565 2 0.18886 0.182063 0.0260337
567 4 0.21027 0.17879 0.0135396
360 4 0.31829 0.179546 0.0550344
358 2 0.341557 0.184598 0.0474005
770 4 0.379833 0.179253 0.0314774
359 4 0.364825 0.18965 0.0397667
664 2 0.389949 0.21297 0.0571704
665 4 0.382809 0.192808 0.0442209
666 4 0.39709 0.233132 0.0701198
323 4 0.403864 0.250047 0.072509
555 4 0.0781281 0.284057 0.0385073
553 2 0.0726704 0.273114 0.0166985
287 4 0.16123 0.317763 0.0364434
292 2 0.151054 0.281044 0.0281974
507 4 0.158638 0.314632 0.0555808
293 4 0.152614 0.301042 0.0431241
551 4 0.10005 0.326264 0.087003
294 4 0.149493 0.261045 0.0132707
505 2 0.178261 0.309272 0.0701205
481 2 0.231017 0.293463 0.0638642
483 4 0.20699 0.294432 0.0707162
506 4 0.197884 0.303913 0.0846602
573 4 0.269944 0.279942 0.0528193
482 4 0.255043 0.292494 0.0570122
571 2 0.279675 0.26823 0.032987
572 4 0.289406 0.256518 0.0131548
322 2 0.409123 0.263738 0.052258
1069 2 0.394948 0.301879 0.0136028
324 4 0.414381 0.277428 0.032007
1070 4 0.416084 0.28856 0.0146179
741 4 0.351896 0.329967 0.0403628
957 4 0.359652 0.32126 0.0225292
1071 4 0.373811 0.315198 0.0125878
739 2 0.363796 0.333575 0.0620552
955 2 0.342754 0.316386 0.00475518
671 4 0.444677 0.311668 0.054409
280 2 0.447436 0.294922 0.0249539
281 4 0.460429 0.30539 0.0435765
282 4 0.434444 0.284455 0.00633132
670 2 0.427257 0.321965 0.069096
286 2 0.161532 0.336788 0.0202223
454 2 0.160889 0.385726 0.0689739
455 4 0.141506 0.370229 0.0720312
552 4 0.133813 0.354404 0.0631509
550 2 0.116931 0.340334 0.075077
288 4 0.161835 0.355814 0.00400118
456 4 0.180272 0.401222 0.0659167
250 2 0.273404 0.409573 0.0440786
251 4 0.277005 0.395732 0.0235691
1290 4 0.294648 0.398951 0.0150953
252 4 0.269802 0.423414 0.0645881
740 4 0.375695 0.337183 0.0837476
495 4 0.388189 0.363535 0.0819342
493 2 0.384465 0.388211 0.0803863
14 3 0.392155 0.345775 0.0799522
494 4 0.380741 0.412887 0.0788383
330 4 0.00871513 0.436954 0.0260411
245 4 0.206756 0.446555 0.0295487
626 4 0.190498 0.457598 0.0300789
625 2 0.184766 0.453628 0.0540906
244 2 0.229931 0.45014 0.0208747
627 4 0.179035 0.449657 0.0781023
246 4 0.253106 0.453725 0.0122008
609 4 0.278966 0.438114 0.0753455
1672 2 0.389083 0.464717 0.055777
660 4 0.374669 0.429729 0.0869169
1673 4 0.364428 0.46883 0.0564274
1674 4 0.413737 0.460605 0.0551267
853 2 0.40761 0.445201 0.00285097
854 4 0.421028 0.446977 0.0238742
563 4 0.473878 0.455389 0.0368053
228 4 0.488953 0.442151 0.0376529
562 2 0.449226 0.452988 0.0402259
564 4 0.424574 0.450587 0.0436465
18 3 0.0529489 0.0321325 0.146936
16 1 0.058606 0.0476654 0.163219
1667 4 0.0783355 0.08024 0.074691
701 4 0.0835959 0.0832538 0.0944312
1474 2 0.284862 0.00301839 0.0905295
1475 4 0.289623 0.0263265 0.0982262
492 4 0.283285 0.0402012 0.112945
490 2 0.280346 0.0649759 0.114604
2723 4 0.425284 0.0499223 0.167264
2722 2 0.448441 0.0456243 0.15887
2724 4 0.471598 0.0413263 0.150477
1760 4 0.487605 0.0312851 0.140875
1759 2 0.486076 0.0232837 0.117235
2744 4 0.489934 0.044094 0.15428
1761 4 0.484547 0.0152822 0.0935959
700 2 0.0805016 0.0923858 0.117501
702 4 0.0774074 0.101518 0.140571
476 4 0.0727063 0.117079 0.151659
475 2 0.0909837 0.132868 0.158126
477 4 0.109261 0.148658 0.164593
491 4 0.277406 0.0897505 0.116264
581 4 0.296782 0.105372 0.155396
628 2 0.362902 0.128067 0.146043
312 4 0.377364 0.0899932 0.14982
629 4 0.36497 0.10512 0.155756
630 4 0.360833 0.151014 0.13633
254 4 0.367761 0.166445 0.144409
339 4 0.0838046 0.224742 0.145578
337 2 0.0845594 0.245665 0.159247
738 4 0.229307 0.208459 0.107651
736 2 0.243424 0.188447 0.112693
737 4 0.257541 0.168435 0.117735
461 4 0.309483 0.233333 0.11161
460 2 0.333278 0.230293 0.118661
354 4 0.293823 0.2441 0.110881
462 4 0.357074 0.227254 0.125712
255 4 0.368685 0.2155 0.134743
253 2 0.368223 0.190973 0.139576
765 4 0.363558 0.229034 0.146593
624 4 0.373568 0.23371 0.131532
622 2 0.385764 0.238568 0.110253
623 4 0.397961 0.243425 0.0889729
537 4 0.194305 0.29774 0.102881
535 2 0.205019 0.311527 0.120779
352 2 0.284404 0.248833 0.133554
353 4 0.274985 0.253566 0.156227
755 4 0.267229 0.273014 0.159964
387 4 0.324858 0.316681 0.126221
301 2 0.328329 0.308881 0.161963
302 4 0.339001 0.309114 0.139353
385 2 0.34365 0.324616 0.111762
15 3 0.376745 0.32914 0.11001
386 4 0.362442 0.332551 0.0973029
12 3 0.413853 0.329632 0.106053
528 4 0.468142 0.273646 0.0875932
518 4 0.486804 0.279719 0.0812058
526 2 0.449706 0.273742 0.104483
527 4 0.43127 0.273838 0.121374
315 4 0.999251 0.36385 0.129234
536 4 0.215732 0.325314 0.138676
291 4 0.198281 0.406691 0.148116
11 1 0.394423 0.341462 0.102638
13 3 0.395623 0.361418 0.114415
672 4 0.409836 0.332261 0.0837829
595 2 0.479451 0.404064 0.128601
597 4 0.467585 0.400072 0.150245
1791 4 0.0499863 0.47685 0.129887
1466 4 0.0346708 0.474037 0.142601
417 4 0.141122 0.419309 0.124797
415 2 0.159701 0.413413 0.140457
243 4 0.162159 0.498266 0.0892821
289 2 0.222363 0.413349 0.149061
416 4 0.17828 0.407517 0.156118
290 4 0.246445 0.420006 0.150006
607 2 0.295096 0.427445 0.0911948
608 4 0.311225 0.416777 0.107044
768 4 0.265027 0.429187 0.153498
767 4 0.274473 0.477809 0.146614
766 2 0.26975 0.453498 0.150056
638 4 0.26365 0.491325 0.137549
658 2 0.35067 0.429624 0.0939325
659 4 0.326671 0.429519 0.100948
1559 4 0.353041 0.505023 0.10764
17 3 0.0453854 0.044194 0.18172
19 3 0.0549152 0.0691568 0.155288
2480 4 0.0419334 0.0347299 0.199782
1422 4 0.040537 0.0154888 0.200667
2479 2 0.0201123 0.0459949 0.204485
20 3 0.0804788 0.0451868 0.169057
578 4 0.096657 0.0505091 0.178652
674 4 0.146204 0.00849042 0.213792
673 2 0.128933 0.0045879 0.231445
689 4 0.15628 0.0178999 0.199452
577 2 0.114402 0.0666144 0.185787
1506 4 0.246623 0.00576616 0.166662
688 2 0.171826 0.998933 0.194579
654 4 0.257868 0.0191499 0.176267
652 2 0.269301 0.0157388 0.19824
653 4 0.280734 0.0123278 0.220213
25 3 0.321826 0.0432446 0.252832
311 4 0.368689 0.0610669 0.189679
758 4 0.368229 0.050226 0.205482
759 4 0.341264 0.0533235 0.247482
757 2 0.354746 0.0517747 0.226482
310 2 0.373026 0.07553 0.169749
2743 2 0.500403 0.0446193 0.17698
511 2 0.0374476 0.141104 0.214255
513 4 0.0546833 0.149668 0.230216
381 4 0.00300893 0.124194 0.193726
512 4 0.0202119 0.132539 0.198294
379 2 0.00358337 0.0997962 0.199167
579 4 0.132147 0.0827197 0.192922
450 4 0.138018 0.0976413 0.183137
448 2 0.156304 0.113912 0.188242
449 4 0.17459 0.130183 0.193346
237 4 0.240466 0.133051 0.180565
691 2 0.241593 0.110382 0.239754
693 4 0.227051 0.122363 0.223317
236 4 0.193674 0.125108 0.196317
235 2 0.21707 0.129079 0.188441
582 4 0.260145 0.132243 0.176286
580 2 0.278463 0.118808 0.165841
27 3 0.328599 0.161859 0.219649
521 4 0.490724 0.141963 0.22849
332 4 0.493659 0.129475 0.243729
762 4 0.47793 0.140017 0.239504
331 2 0.504011 0.106812 0.241635
396 4 0.99635 0.254985 0.236882
393 4 0.0669789 0.150701 0.246737
391 2 0.0822418 0.169775 0.252065
394 2 0.0145172 0.238454 0.232203
395 4 0.032684 0.221924 0.227524
277 2 0.245209 0.240529 0.173458
279 4 0.226447 0.224625 0.177956
285 4 0.325774 0.245522 0.196406
284 4 0.280397 0.249583 0.175788
283 2 0.303085 0.247552 0.186097
278 4 0.263971 0.256433 0.16896
763 2 0.353864 0.236574 0.168373
764 4 0.34417 0.244114 0.190152
338 4 0.0853141 0.266588 0.172915
363 4 0.0692653 0.267712 0.18593
361 2 0.0790374 0.28464 0.201522
749 4 0.0737834 0.315406 0.218564
647 4 0.06021 0.33114 0.165855
748 2 0.0813562 0.33117 0.236434
370 2 0.127526 0.297275 0.226864
372 4 0.105388 0.291797 0.216613
362 4 0.0888095 0.301569 0.217114
371 4 0.149663 0.302754 0.237115
734 4 0.1619 0.316664 0.244339
754 2 0.270177 0.294528 0.172359
756 4 0.273125 0.316042 0.184754
612 4 0.274824 0.307369 0.201973
610 2 0.26741 0.306796 0.225845
307 2 0.331436 0.285976 0.217032
308 4 0.329465 0.303536 0.199341
303 4 0.317657 0.308648 0.184573
729 4 0.308833 0.323358 0.195374
611 4 0.259996 0.306224 0.249717
309 4 0.333407 0.268417 0.234723
264 4 0.99958 0.381468 0.235396
646 2 0.0787973 0.336519 0.18169
648 4 0.0973847 0.341898 0.197526
727 2 0.3014 0.344417 0.206618
728 4 0.293967 0.365477 0.217862
445 2 0.412946 0.3763 0.230643
446 4 0.400671 0.366329 0.25001
447 4 0.42522 0.386272 0.211276
644 4 0.438086 0.382798 0.197031
643 2 0.456889 0.390426 0.182421
645 4 0.475691 0.398055 0.167811
1465 2 0.0328941 0.467115 0.166561
1467 4 0.0311174 0.460192 0.190521
1757 4 0.0949999 0.442773 0.244892
231 4 0.467632 0.471958 0.230372
229 2 0.460637 0.492246 0.21754
232 2 0.0229674 0.0307652 0.295773
233 4 0.0468958 0.0292985 0.28867
1404 4 0.0649133 0.0242767 0.29254
1402 2 0.0804851 0.0145017 0.275595
316 2 0.0732383 0.0535833 0.315024
317 4 0.0597178 0.0368386 0.302297
428 4 0.0644444 0.0175349 0.309695
318 4 0.0867588 0.0703279 0.327752
24 3 0.308737 0.0739032 0.270336
21 1 0.32634 0.058866 0.268777
23 3 0.329752 0.0485137 0.289261
22 3 0.345419 0.0703281 0.262969
351 4 0.406338 0.0633396 0.275759
349 2 0.38647 0.0778843 0.280109
479 4 0.450077 0.0317964 0.300769
478 2 0.436923 0.0445778 0.283775
2664 4 0.471256 0.031264 0.302239
480 4 0.423769 0.0573592 0.266781
1428 4 0.45822 0.0192427 0.308166
258 4 0.443697 0.0260833 0.318577
2662 2 0.493433 0.0406315 0.295484
399 4 0.0853391 0.090743 0.327946
692 4 0.256135 0.098401 0.256191
721 2 0.248319 0.11439 0.295273
722 4 0.237691 0.120683 0.317014
723 4 0.258947 0.108098 0.273533
249 4 0.233676 0.108707 0.332427
404 4 0.244518 0.12449 0.334123
26 1 0.323759 0.161004 0.242121
28 3 0.319978 0.138917 0.248145
632 4 0.365269 0.111773 0.28323
350 4 0.366603 0.0924291 0.284459
631 2 0.351411 0.129592 0.272478
707 4 0.344917 0.165347 0.27141
633 4 0.337552 0.147411 0.261727
29 3 0.341796 0.169479 0.254006
760 2 0.455792 0.14446 0.250244
761 4 0.433654 0.148903 0.260984
546 4 0.126048 0.191646 0.271318
392 4 0.0975047 0.188849 0.257394
544 2 0.142032 0.210737 0.269037
545 4 0.158015 0.229829 0.266755
402 4 0.177619 0.233026 0.274256
30 3 0.305166 0.173482 0.246271
706 2 0.347965 0.183365 0.288476
708 4 0.351014 0.201383 0.305542
442 2 0.01032 0.280453 0.264923
444 4 0.0167054 0.288875 0.287583
400 2 0.189805 0.253603 0.281555
401 4 0.201991 0.27418 0.288854
676 2 0.183647 0.298735 0.319257
345 4 0.207129 0.292082 0.286313
677 4 0.1951 0.292507 0.297922
343 2 0.228155 0.292337 0.272783
735 4 0.191079 0.303672 0.282816
733 2 0.17649 0.310168 0.263577
376 2 0.267572 0.255122 0.315903
344 4 0.24918 0.292592 0.259254
496 2 0.313716 0.273217 0.274164
497 4 0.299712 0.273023 0.294877
377 4 0.288953 0.266663 0.310001
498 4 0.327719 0.273412 0.25345
541 2 0.399641 0.321024 0.316523
2537 4 0.487196 0.335811 0.329953
365 4 0.039647 0.37878 0.293621
601 2 0.0597026 0.377542 0.320627
603 4 0.0516626 0.365909 0.300007
364 2 0.0150803 0.376013 0.28988
549 4 0.0847803 0.399536 0.337243
750 4 0.0889289 0.346933 0.254304
299 4 0.150638 0.327514 0.257837
298 2 0.129226 0.340306 0.259585
300 4 0.107813 0.353098 0.261332
433 2 0.304228 0.375626 0.298462
435 4 0.285041 0.390667 0.292909
434 4 0.323414 0.360585 0.304014
543 4 0.39021 0.340213 0.303561
614 4 0.337259 0.374 0.308388
615 4 0.380956 0.351446 0.317478
613 2 0.359108 0.362723 0.312933
1756 2 0.0981557 0.467552 0.246
776 4 0.0895073 0.506067 0.313824
1758 4 0.101311 0.49233 0.247109
412 2 0.22601 0.483331 0.282104
1436 4 0.221155 0.457084 0.318906
413 4 0.221722 0.470534 0.303153
5 3 0.287665 0.479236 0.324854
3 3 0.310622 0.449622 0.321155
1 1 0.295985 0.46078 0.335285
1803 4 0.36086 0.48223 0.279619
119 3 0.494012 0.459149 0.313043
713 4 0.435069 0.483973 0.337061
1742 4 0.418831 0.496731 0.332028
427 2 0.0582262 0.997037 0.322593
367 2 0.0617797 0.0241037 0.411937
1781 4 0.0986988 0.0262958 0.388611
368 4 0.085204 0.0223074 0.403378
732 4 0.101641 0.0811108 0.330689
730 2 0.120181 0.0794797 0.347385
1780 2 0.118344 0.0120334 0.394598
731 4 0.138722 0.0778486 0.364081
604 2 0.171532 0.0754901 0.371869
605 4 0.193534 0.0666689 0.363916
248 4 0.209371 0.0704985 0.353642
1701 4 0.327895 0.0347243 0.401881
1699 2 0.332008 0.0412218 0.378089
441 4 0.318684 0.0205727 0.41272
1700 4 0.336121 0.0477193 0.354297
699 4 0.35183 0.0549625 0.344679
697 2 0.375674 0.0476806 0.342777
698 4 0.399518 0.0403988 0.340875
257 4 0.402585 0.0223022 0.346795
724 2 0.409246 0.0838311 0.414837
2879 4 0.494148 0.0740856 0.39589
256 2 0.423141 0.0241928 0.332686
2584 2 0.0125578 0.114666 0.352444
397 2 0.0666185 0.102283 0.339843
398 4 0.047898 0.113824 0.35174
2586 4 0.0332736 0.122523 0.364033
458 4 0.0258889 0.138229 0.371597
457 2 0.0321016 0.151725 0.391707
600 4 0.135991 0.127688 0.352705
606 4 0.149529 0.0843114 0.379821
598 2 0.138079 0.151878 0.358675
247 2 0.221523 0.089603 0.343034
683 4 0.239239 0.0976984 0.417266
682 2 0.256712 0.109572 0.40389
403 2 0.250849 0.148201 0.338906
319 2 0.300987 0.144968 0.387378
684 4 0.274184 0.121445 0.390514
321 4 0.313211 0.163907 0.398197
320 4 0.288763 0.126028 0.376559
725 4 0.397374 0.103571 0.405112
2878 2 0.497965 0.0911226 0.413788
459 4 0.0383144 0.165222 0.411817
599 4 0.140167 0.176069 0.364646
389 4 0.124631 0.230714 0.364181
686 4 0.134013 0.185137 0.380372
685 2 0.117236 0.193853 0.396735
275 4 0.145184 0.191382 0.35158
388 2 0.102095 0.238658 0.356819
687 4 0.10046 0.20257 0.413098
261 4 0.0831101 0.207958 0.418386
472 2 0.227929 0.202354 0.357268
474 4 0.208446 0.215421 0.36592
276 4 0.191151 0.210011 0.357958
274 2 0.168168 0.200697 0.354769
405 4 0.257181 0.171912 0.343689
473 4 0.247411 0.189287 0.348615
378 4 0.24619 0.243582 0.321804
717 4 0.421802 0.184589 0.332723
715 2 0.412125 0.193947 0.353793
466 2 0.379982 0.197209 0.409044
716 4 0.402448 0.203305 0.374864
467 4 0.383981 0.203535 0.385186
270 4 0.484908 0.211067 0.370627
452 4 0.481967 0.201501 0.387013
268 2 0.477601 0.229384 0.355256
269 4 0.470295 0.247701 0.339885
451 2 0.466421 0.204527 0.406362
2801 4 0.00527586 0.276758 0.391121
2800 2 0.00801978 0.294284 0.408742
618 4 0.0516698 0.315476 0.377148
347 4 0.0449041 0.334581 0.374573
616 2 0.0717041 0.301761 0.371172
390 4 0.0795583 0.246602 0.349458
617 4 0.0917383 0.288046 0.365196
374 4 0.108362 0.282682 0.352603
373 2 0.131549 0.289151 0.345844
375 4 0.154736 0.295621 0.339084
678 4 0.172193 0.304963 0.340593
509 4 0.223561 0.318326 0.37004
508 2 0.244368 0.323917 0.357352
510 4 0.265175 0.329507 0.344664
542 4 0.409072 0.301836 0.329486
420 4 0.415569 0.282689 0.330113
419 4 0.454976 0.251908 0.329596
418 2 0.435272 0.267298 0.329855
602 4 0.0677427 0.389176 0.341247
346 2 0.0360506 0.353644 0.388115
348 4 0.0271971 0.372707 0.401658
668 4 0.324447 0.388698 0.409911
667 2 0.323136 0.410801 0.421527
336 4 0.338051 0.381361 0.397373
334 2 0.361136 0.371956 0.399327
335 4 0.384221 0.362551 0.401282
752 4 0.479968 0.416858 0.394611
561 4 0.486475 0.399781 0.404261
547 2 0.083154 0.421089 0.349814
548 4 0.0815277 0.442642 0.362384
407 4 0.100427 0.450748 0.365253
406 2 0.11266 0.451623 0.387042
408 4 0.124892 0.452498 0.408831
1435 2 0.240784 0.454691 0.334208
1555 2 0.258529 0.503135 0.414483
438 4 0.322062 0.456656 0.340399
1557 4 0.281971 0.500589 0.406164
1437 4 0.260413 0.452298 0.34951
4 3 0.278626 0.446672 0.341453
2 3 0.307381 0.467253 0.35419
437 4 0.368127 0.438352 0.347008
436 2 0.345094 0.447504 0.343703
593 4 0.409045 0.460668 0.388866
588 4 0.408921 0.458555 0.407618
592 2 0.413868 0.472397 0.367318
753 4 0.494752 0.438797 0.352175
714 4 0.481383 0.466107 0.331017
712 2 0.458226 0.47504 0.334039
117 3 0.492541 0.461176 0.350545
751 2 0.48736 0.427828 0.373393
594 4 0.418691 0.484127 0.345769
369 4 0.0383554 0.0258999 0.420496
719 4 0.0381513 0.0290078 0.439595
718 2 0.0155351 0.0260637 0.449843
962 4 0.317252 0.0317818 0.429928
961 2 0.310537 0.0544605 0.438037
963 4 0.303822 0.0771391 0.446146
432 4 0.304498 0.0906714 0.461483
425 4 0.332584 0.030894 0.419538
424 2 0.356314 0.0286403 0.427087
426 4 0.380043 0.0263866 0.434637
726 4 0.421117 0.0640913 0.424563
260 4 0.0535411 0.168207 0.425185
430 2 0.317931 0.0914694 0.482556
640 2 0.485212 0.113581 0.464524
641 4 0.465087 0.120885 0.477439
259 2 0.0683256 0.188083 0.421786
695 4 0.0613516 0.241894 0.504255
1035 4 0.0965379 0.216986 0.427606
1033 2 0.0998394 0.237956 0.440818
489 4 0.33842 0.247733 0.456495
468 4 0.375982 0.190884 0.432901
411 4 0.346787 0.231499 0.466096
516 4 0.396474 0.199613 0.463442
409 2 0.364768 0.216048 0.458152
410 4 0.382749 0.200597 0.450208
575 4 0.395514 0.186875 0.478806
266 4 0.344171 0.23519 0.484745
574 2 0.39658 0.168636 0.495876
514 2 0.419192 0.201822 0.453233
515 4 0.441909 0.204031 0.443025
453 4 0.450875 0.207552 0.42571
2802 4 0.0107637 0.31181 0.426362
2847 4 0.015728 0.310538 0.445594
694 2 0.0836109 0.250924 0.497315
1034 4 0.103141 0.258925 0.45403
1258 2 0.111649 0.288812 0.469153
1259 4 0.113713 0.313642 0.46705
9 3 0.128602 0.326801 0.463805
1260 4 0.109586 0.263983 0.471255
696 4 0.10587 0.259954 0.490374
858 4 0.223157 0.268425 0.493905
487 2 0.334154 0.2556 0.433148
488 4 0.329888 0.263467 0.4098
265 2 0.349961 0.251374 0.502903
584 4 0.494485 0.263292 0.493618
326 4 0.0566686 0.348409 0.460707
325 2 0.0789121 0.357809 0.454222
10 3 0.153253 0.345085 0.441995
6 1 0.137402 0.347517 0.458165
7 3 0.120453 0.360881 0.450211
327 4 0.101156 0.367208 0.447737
709 2 0.157878 0.405971 0.478216
8 3 0.146693 0.357548 0.476913
503 4 0.234469 0.368077 0.480842
504 4 0.194216 0.394037 0.495215
502 2 0.214343 0.381057 0.488028
710 4 0.182205 0.404864 0.483883
240 4 0.400809 0.364259 0.4139
238 2 0.406608 0.3832 0.429157
882 4 0.381869 0.362366 0.500953
239 4 0.412407 0.402141 0.444415
1381 2 0.00953672 0.495588 0.469295
1383 4 0.0058371 0.47265 0.460058
680 4 0.999107 0.456964 0.448801
711 4 0.13355 0.407078 0.472549
384 4 0.121536 0.422476 0.465305
569 4 0.131529 0.470366 0.419142
382 2 0.124154 0.438454 0.446251
568 2 0.14484 0.486041 0.433364
383 4 0.126771 0.454431 0.427197
1543 2 0.199911 0.49639 0.434396
1544 4 0.221548 0.491196 0.422991
634 2 0.302877 0.468726 0.428535
774 4 0.31943 0.437391 0.452879
773 4 0.300632 0.424801 0.497475
669 4 0.321824 0.432904 0.433143
636 4 0.288909 0.486718 0.418222
635 4 0.316845 0.450734 0.438848
772 2 0.310031 0.431096 0.475177
663 4 0.47756 0.475961 0.437529
661 2 0.474156 0.494406 0.454063
586 2 0.414289 0.437497 0.419983
587 4 0.419658 0.416439 0.432349
342 4 0.219608 0.0634803 0.526061
340 2 0.206639 0.0461326 0.513569
1152 4 0.209083 0.0814373 0.530227
341 4 0.193671 0.0287848 0.501077
2430 4 0.182348 0.0122588 0.504475
1217 4 0.402361 0.0706958 0.525893
1216 2 0.414527 0.0565016 0.509289
3007 2 0.481165 0.0553616 0.573688
1218 4 0.426693 0.0423074 0.492685
3009 4 0.492065 0.0558437 0.551191
1058 4 0.111721 0.119992 0.528098
1057 2 0.115286 0.118677 0.552811
1059 4 0.118852 0.117363 0.577524
1150 2 0.218498 0.083963 0.553252
1151 4 0.227913 0.0864886 0.576277
1180 2 0.221685 0.146466 0.555273
1181 4 0.202314 0.131826 0.561242
431 4 0.331365 0.0922675 0.503629
842 4 0.387473 0.0798175 0.515977
843 4 0.345692 0.104643 0.504199
841 2 0.366583 0.0922303 0.510088
576 4 0.397647 0.150397 0.512946
470 4 0.03588 0.172609 0.509417
1199 4 0.0382941 0.221714 0.570222
1198 2 0.0146016 0.225536 0.563206
469 2 0.0193881 0.188533 0.519398
471 4 0.00289624 0.204457 0.529379
1182 4 0.241055 0.161106 0.549305
900 4 0.238002 0.181135 0.543857
798 4 0.237922 0.248076 0.563162
898 2 0.26141 0.183651 0.535436
650 4 0.29272 0.203934 0.52185
899 4 0.284819 0.186166 0.527016
649 2 0.295872 0.228697 0.523276
796 2 0.25951 0.258704 0.569958
3065 4 0.509785 0.252468 0.51761
982 2 0.0162389 0.327942 0.580784
1244 4 0.0516834 0.253511 0.581654
1243 2 0.0416894 0.274488 0.572421
856 2 0.220155 0.263117 0.518153
947 4 0.217674 0.25229 0.56064
857 4 0.217153 0.257809 0.542402
946 2 0.198821 0.265326 0.570628
948 4 0.179967 0.278363 0.580616
651 4 0.299024 0.253461 0.524702
872 4 0.35454 0.288908 0.548877
871 2 0.365333 0.301403 0.567653
873 4 0.376127 0.313899 0.586429
267 4 0.355751 0.267559 0.521061
811 2 0.41281 0.328149 0.578408
1010 4 0.49093 0.334135 0.520349
2456 4 0.505732 0.269292 0.508121
906 4 0.485417 0.318377 0.574032
2457 4 0.491478 0.314664 0.523577
2455 2 0.498605 0.291978 0.515849
984 4 0.00955836 0.351976 0.582486
1189 2 0.244891 0.364831 0.582149
1190 4 0.263347 0.357548 0.566934
803 4 0.258869 0.365114 0.548148
804 4 0.290164 0.399839 0.530386
802 2 0.274516 0.382476 0.539267
930 4 0.323565 0.380465 0.575927
1239 4 0.32671 0.361617 0.581238
928 2 0.328845 0.391069 0.553908
929 4 0.334126 0.401673 0.531888
881 4 0.347312 0.394032 0.518382
880 2 0.36459 0.378199 0.509668
812 4 0.429852 0.343233 0.568055
1011 4 0.477925 0.382001 0.513989
1009 2 0.484427 0.358068 0.517169
927 4 0.422669 0.358515 0.557139
925 2 0.437032 0.378233 0.56262
3308 4 0.485024 0.39956 0.506303
926 4 0.451396 0.397952 0.5681
538 2 0.0965555 0.452379 0.57164
540 4 0.106717 0.474509 0.565968
1160 4 0.115887 0.491793 0.566186
1159 2 0.139376 0.491593 0.574751
539 4 0.0863938 0.430248 0.577312
1951 2 0.385873 0.500226 0.557422
1952 4 0.363306 0.489782 0.554806
890 4 0.353716 0.479399 0.569201
1953 4 0.40844 0.510669 0.560038
1082 4 0.0465763 0.0662102 0.659559
1081 2 0.053571 0.0790238 0.63926
825 4 0.154251 0.0396102 0.6537
823 2 0.16655 0.0179159 0.655504
824 4 0.178849 0.996221 0.657309
1032 4 0.243902 0.0825525 0.589008
1031 4 0.286202 0.0577463 0.598807
1030 2 0.265052 0.0701494 0.593908
951 4 0.281818 0.0391142 0.607354
949 2 0.295668 0.0184529 0.604809
3008 4 0.470264 0.0548795 0.596185
809 4 0.48459 0.0471831 0.608228
808 2 0.474706 0.0538665 0.630201
810 4 0.464822 0.0605499 0.652174
45 3 0.457607 0.0817983 0.653994
1128 4 0.998887 0.100793 0.588506
1083 4 0.0605656 0.0918373 0.618961
1126 2 0.0222265 0.0995479 0.597388
1127 4 0.045566 0.0983025 0.60627
938 4 0.0797407 0.0878315 0.611927
1155 4 0.124222 0.132931 0.586633
1271 4 0.110246 0.141239 0.596545
939 4 0.1137 0.121649 0.597648
937 2 0.0967204 0.10474 0.604788
1153 2 0.147337 0.129074 0.595351
1221 4 0.176842 0.131129 0.6231
1154 4 0.170452 0.125216 0.604068
1219 2 0.188508 0.152899 0.626993
1210 2 0.241681 0.16578 0.633552
886 2 0.295228 0.16468 0.658006
887 4 0.317545 0.170294 0.667785
1211 4 0.2637 0.154082 0.631688
1194 4 0.329856 0.168202 0.652233
1192 2 0.348441 0.153249 0.644736
1193 4 0.367026 0.138297 0.63724
3426 4 0.494096 0.132168 0.657627
3424 2 0.481041 0.11194 0.664377
3425 4 0.467985 0.0917129 0.671128
878 4 0.0483049 0.234708 0.580192
877 2 0.0657105 0.218083 0.586964
1179 4 0.0305727 0.227603 0.677845
879 4 0.083116 0.201459 0.593736
1272 4 0.0952755 0.187434 0.584601
1270 2 0.102761 0.164337 0.590573
1212 4 0.219662 0.177478 0.635417
1220 4 0.200173 0.174669 0.630886
797 4 0.281098 0.269332 0.576755
888 4 0.272911 0.159067 0.648227
983 4 0.0229195 0.303907 0.579081
1245 4 0.0316955 0.295466 0.563188
1137 4 0.159308 0.323707 0.617555
1135 2 0.163534 0.301469 0.606935
1136 4 0.16776 0.27923 0.596316
1065 4 0.217056 0.341685 0.678111
1064 4 0.181299 0.313305 0.657696
1063 2 0.199177 0.327495 0.667903
792 4 0.31557 0.304882 0.598519
791 4 0.30134 0.263892 0.573658
790 2 0.308455 0.284387 0.586089
1238 4 0.303115 0.318324 0.589592
813 4 0.395768 0.313064 0.588761
953 4 0.477198 0.305843 0.58888
952 2 0.466449 0.289208 0.604141
954 4 0.4557 0.272573 0.619402
3123 4 0.485432 0.248354 0.648048
1041 4 0.0637507 0.404937 0.635301
3264 4 0.0478093 0.407373 0.645901
3262 2 0.0449244 0.388714 0.662293
3240 4 0.0343451 0.422983 0.644679
1039 2 0.0852434 0.396819 0.625435
1040 4 0.106736 0.3887 0.61557
993 4 0.112017 0.368873 0.609715
991 2 0.13214 0.354041 0.609221
992 4 0.152263 0.339209 0.608726
897 4 0.169587 0.341939 0.616545
896 4 0.211172 0.359308 0.594874
895 2 0.19038 0.350624 0.605709
1172 4 0.218953 0.390571 0.601338
1191 4 0.226435 0.372114 0.597365
1237 2 0.314913 0.339971 0.585415
1206 4 0.40297 0.384637 0.62453
1204 2 0.410568 0.408063 0.62885
1002 4 0.445027 0.41513 0.577021
3238 2 0.0112545 0.429721 0.637852
1188 4 0.179194 0.489983 0.595065
1171 2 0.208391 0.413146 0.603335
1186 2 0.179977 0.466532 0.603703
1173 4 0.19783 0.435722 0.605333
1187 4 0.180759 0.443081 0.612341
891 4 0.323278 0.463998 0.605768
1230 4 0.33909 0.43105 0.661575
889 2 0.338497 0.471698 0.587484
1205 4 0.418166 0.431489 0.633169
1909 2 0.43666 0.493498 0.588448
1911 4 0.448176 0.478538 0.604842
1000 2 0.44968 0.436002 0.589978
1001 4 0.454333 0.456874 0.602935
1269 4 0.462491 0.470505 0.613086
1267 2 0.469849 0.48564 0.631579
943 2 0.0438196 0.0282389 0.689824
944 4 0.0410046 0.0530159 0.687992
1076 4 0.0542667 0.0646608 0.678856
1283 4 0.152179 0.0522955 0.669301
1282 2 0.159241 0.071932 0.683074
1148 4 0.237067 0.0699412 0.683536
1090 2 0.316391 0.00358062 0.718353
1147 2 0.256805 0.0572468 0.692163
1149 4 0.276544 0.0445524 0.700789
1092 4 0.318501 0.0218685 0.701433
1004 4 0.378265 0.0908749 0.722637
42 3 0.463245 0.0505717 0.673642
41 1 0.452855 0.0710947 0.673526
43 3 0.42995 0.0679176 0.675444
1163 4 0.469801 0.0621691 0.692302
1162 2 0.487451 0.0541422 0.708089
44 3 0.460655 0.0835518 0.691481
1075 2 0.0571252 0.0813842 0.697223
864 4 0.0526398 0.0952713 0.734634
1077 4 0.0599837 0.0981076 0.715589
1107 4 0.0711526 0.0982142 0.731179
851 4 0.0744242 0.110031 0.714617
862 2 0.0316195 0.0912742 0.747571
850 2 0.0774635 0.132254 0.703567
852 4 0.0805027 0.154476 0.692517
1284 4 0.166303 0.0915686 0.696848
1105 2 0.0904353 0.0950556 0.74678
909 4 0.155864 0.106856 0.701795
1226 4 0.238682 0.0883726 0.693807
907 2 0.174829 0.11608 0.715227
908 4 0.193795 0.125303 0.728659
1227 4 0.211351 0.115053 0.726085
1225 2 0.225017 0.101713 0.709946
830 4 0.318275 0.159017 0.684414
829 2 0.325875 0.141385 0.700431
831 4 0.333475 0.123753 0.716448
1003 2 0.35579 0.0985863 0.714852
1005 4 0.333316 0.106298 0.707068
1177 2 0.0122666 0.229107 0.69481
1214 4 0.996246 0.183185 0.756143
1073 4 0.079939 0.206575 0.736906
1072 2 0.0943197 0.226113 0.742958
1074 4 0.1087 0.245652 0.749009
978 4 0.301208 0.196349 0.732069
1142 4 0.443452 0.18033 0.72853
1144 2 0.486156 0.172778 0.733071
1025 4 0.438685 0.173518 0.67048
1262 4 0.464703 0.203583 0.722527
1024 2 0.44623 0.181246 0.693031
1026 4 0.453776 0.188975 0.715581
1261 2 0.466466 0.228466 0.724226
1145 4 0.464689 0.184229 0.72731
1209 4 0.124033 0.282831 0.709492
1207 2 0.124878 0.270223 0.731067
1208 4 0.125722 0.257614 0.752643
821 4 0.130867 0.279689 0.692152
820 2 0.149245 0.291793 0.680281
822 4 0.167623 0.303897 0.668411
805 2 0.282914 0.311927 0.675439
807 4 0.259109 0.312657 0.683054
806 4 0.306718 0.311196 0.667823
1263 4 0.468229 0.25335 0.725926
3263 4 0.0420396 0.370056 0.678685
894 4 0.0368291 0.356452 0.748936
1280 4 0.0490609 0.36602 0.738542
1279 2 0.0506739 0.389133 0.729143
816 4 0.0657906 0.358971 0.743571
1281 4 0.0522869 0.412247 0.719744
1028 4 0.233902 0.366332 0.711242
1066 2 0.199426 0.361859 0.739721
1068 4 0.217844 0.366894 0.723577
1027 2 0.234448 0.388116 0.698981
1029 4 0.234993 0.4099 0.686719
1067 4 0.181008 0.356824 0.755864
1018 2 0.382291 0.374796 0.719663
1020 4 0.397371 0.393105 0.727571
1019 4 0.367212 0.356486 0.711755
1983 4 0.0479727 0.426121 0.733602
1981 2 0.065524 0.443908 0.732745
1982 4 0.0830753 0.461696 0.731889
1138 2 0.246085 0.45222 0.685067
1140 4 0.242033 0.42757 0.686139
1175 4 0.204705 0.453598 0.710635
1174 2 0.185321 0.469019 0.71405
1176 4 0.165938 0.48444 0.717465
1139 4 0.250137 0.47687 0.683994
1987 2 0.304396 0.467167 0.728344
1229 4 0.317738 0.448695 0.703209
1989 4 0.314416 0.46866 0.705485
1228 2 0.328414 0.439872 0.682392
2991 4 0.000491077 0.0313497 0.796566
2989 2 0.00344254 0.0538396 0.786046
2990 4 0.006394 0.0763295 0.775525
2049 4 0.113397 0.0189833 0.777568
1202 4 0.103264 0.0308789 0.790017
2047 2 0.131117 0.00985252 0.762475
1201 2 0.110366 0.0545871 0.793575
1203 4 0.117468 0.0782954 0.797133
817 2 0.320802 0.0483123 0.818307
819 4 0.315143 0.0689419 0.831252
818 4 0.326462 0.0276827 0.805363
1050 4 0.334674 0.00126382 0.794417
974 4 0.340037 0.012137 0.80975
973 2 0.349531 0.997131 0.827353
1113 4 0.437864 0.0492047 0.764285
1111 2 0.457161 0.0577989 0.777661
845 4 0.493315 0.0724675 0.782944
1112 4 0.476459 0.066393 0.791038
863 4 0.0105993 0.0872771 0.760507
833 4 0.00366003 0.0943241 0.778723
832 2 0.0045074 0.112644 0.795718
834 4 0.00535478 0.130963 0.812714
1125 4 0.0220994 0.137017 0.822442
1123 2 0.0428515 0.147619 0.831504
1106 4 0.109718 0.091897 0.76238
911 4 0.110977 0.103821 0.824731
34 3 0.112476 0.0954378 0.781578
31 1 0.121921 0.104913 0.800537
35 3 0.108011 0.120822 0.809026
32 3 0.125103 0.0884474 0.816282
33 3 0.142462 0.114342 0.795286
1257 4 0.217768 0.0900483 0.771236
840 4 0.246096 0.119141 0.810966
1255 2 0.236992 0.0999358 0.7838
838 2 0.244031 0.133937 0.831016
1085 4 0.307672 0.0861111 0.82934
1256 4 0.256217 0.109823 0.796363
1084 2 0.301918 0.0977206 0.807955
1086 4 0.296165 0.10933 0.786571
47 3 0.407355 0.160441 0.813546
48 3 0.399106 0.16256 0.776939
1130 4 0.136923 0.240292 0.757984
977 4 0.302406 0.229524 0.769468
918 4 0.294416 0.233925 0.787264
976 2 0.301807 0.212936 0.750768
1298 4 0.311828 0.225258 0.786393
1297 2 0.330807 0.221834 0.802307
46 1 0.406039 0.174641 0.795497
1299 4 0.349786 0.21841 0.81822
1042 2 0.386369 0.230005 0.796148
1043 4 0.381351 0.20631 0.789939
49 3 0.390693 0.191389 0.800232
1143 4 0.419208 0.174768 0.771912