ITEM: TIMESTEP
2050000
ITEM: NUMBER OF ATOMS
4590
ITEM: BOX BOUNDS pp pp pp
-9.9985700000000008e+00 9.9985700000000008e+00
-9.9985700000000008e+00 9.9985700000000008e+00
-9.9985700000000008e+00 9.9985700000000008e+00
ITEM: ATOMS id type xs ys zs
1666 2 0.0322928 0.0671403 0.0614275
1668 4 0.0253708 0.0612008 0.0381468
1667 4 0.0392148 0.0730797 0.0847081
1474 2 0.288805 0.00657921 0.0705705
1475 4 0.280284 0.0300707 0.071418
2974 2 0.460567 0.0215232 0.00896532
2976 4 0.467753 0.998873 0.0167452
745 2 0.442334 0.0848692 0.000930456
701 4 0.0468891 0.0920169 0.0864143
2264 4 0.218756 0.145768 0.00459162
2263 2 0.239657 0.133809 0.997859
566 4 0.166946 0.152537 0.0110338
297 4 0.318177 0.107953 0.0226169
295 2 0.340491 0.110195 0.0115603
556 2 0.399266 0.124483 0.999611
558 4 0.422819 0.126107 0.0078451
746 4 0.430563 0.106553 0.00498639
555 4 0.0514168 0.271316 0.0149013
565 2 0.190942 0.159113 0.00856017
567 4 0.214938 0.16569 0.00608649
360 4 0.346857 0.187542 0.994265
770 4 0.407337 0.177205 0.0254589
359 4 0.386866 0.181305 0.0236096
358 2 0.366861 0.184424 0.00893745
664 2 0.401071 0.202605 0.0551284
665 4 0.396663 0.183655 0.0394241
666 4 0.40548 0.221555 0.0708327
323 4 0.407073 0.241203 0.0659427
623 4 0.395401 0.234766 0.0793635
769 2 0.42519 0.175186 0.00807026
2808 4 0.00566871 0.283764 0.0147732
287 4 0.161255 0.30813 0.0377502
292 2 0.127658 0.288058 0.0247131
507 4 0.153058 0.29293 0.048739
293 4 0.151366 0.294137 0.02983
294 4 0.103951 0.281979 0.0195961
551 4 0.106388 0.316571 0.0811825
286 2 0.172936 0.32142 0.0200833
505 2 0.167388 0.295473 0.06907
481 2 0.22342 0.293758 0.073581
482 4 0.24593 0.291022 0.0630459
573 4 0.251605 0.279135 0.0481584
571 2 0.270483 0.271511 0.0336435
572 4 0.28936 0.263887 0.0191286
357 4 0.306436 0.269912 0.0101269
1069 2 0.404523 0.306702 0.0213924
957 4 0.373546 0.336658 0.0173829
1071 4 0.38416 0.321183 0.0204896
741 4 0.373316 0.325923 0.0347312
322 2 0.413502 0.261172 0.0523386
324 4 0.419931 0.281142 0.0387346
1070 4 0.424887 0.292221 0.0222952
671 4 0.451924 0.320874 0.0737656
280 2 0.454261 0.299671 0.0440748
281 4 0.463844 0.305481 0.0664264
282 4 0.444678 0.293862 0.0217232
455 4 0.136932 0.356482 0.0520343
552 4 0.118607 0.351379 0.0474214
550 2 0.112497 0.333975 0.0643019
454 2 0.15513 0.372049 0.0448465
456 4 0.173329 0.387617 0.0376588
1290 4 0.266432 0.401084 0.0181132
252 4 0.284204 0.403458 0.0775759
250 2 0.275701 0.409396 0.054825
739 2 0.374802 0.331549 0.0590482
493 2 0.38345 0.387041 0.0699664
495 4 0.388637 0.362766 0.0729669
494 4 0.378263 0.411316 0.0669658
1788 4 0.08028 0.49083 0.00609247
626 4 0.230258 0.481957 0.062772
625 2 0.208657 0.491175 0.071351
627 4 0.187055 0.500392 0.07993
251 4 0.267197 0.415334 0.0320741
245 4 0.250202 0.481036 0.0688319
244 2 0.261124 0.461892 0.0570265
246 4 0.272046 0.442747 0.0452211
272 4 0.267816 0.434144 0.028824
271 2 0.275319 0.441909 0.00627201
1672 2 0.405545 0.442144 0.0528954
853 2 0.404606 0.436399 0.998894
660 4 0.374688 0.426846 0.079272
1673 4 0.385949 0.439392 0.0681793
854 4 0.420709 0.440932 0.017477
1674 4 0.425141 0.444896 0.0376114
563 4 0.485359 0.456509 0.0205415
562 2 0.460624 0.453161 0.022004
564 4 0.435888 0.449814 0.0234665
228 4 0.487126 0.468145 0.0366672
18 3 0.0581813 0.0290168 0.151517
16 1 0.0693795 0.0413943 0.167636
19 3 0.067842 0.0640215 0.162731
492 4 0.271058 0.0373075 0.0888631
490 2 0.274893 0.0619159 0.0910758
1506 4 0.250951 0.0133553 0.169073
486 4 0.424692 0.013222 0.101633
2723 4 0.451229 0.0792404 0.154529
2722 2 0.470754 0.0638348 0.151957
2724 4 0.490279 0.0484292 0.149385
1761 4 0.485239 0.0144036 0.0962895
1759 2 0.488045 0.0221515 0.119896
1760 4 0.490851 0.0298994 0.143503
2744 4 0.489823 0.0329159 0.16229
700 2 0.0608483 0.107199 0.10055
702 4 0.0748076 0.122382 0.114686
476 4 0.0886338 0.128246 0.128718
475 2 0.112798 0.13461 0.12785
477 4 0.136963 0.140974 0.126982
491 4 0.278727 0.0865244 0.0932885
582 4 0.243008 0.121239 0.157706
580 2 0.263933 0.115292 0.14538
581 4 0.284858 0.109344 0.133053
628 2 0.377611 0.150609 0.154622
312 4 0.383146 0.117597 0.164155
629 4 0.38849 0.135091 0.170932
630 4 0.366731 0.166127 0.138313
339 4 0.0695609 0.223727 0.150526
337 2 0.0640024 0.242028 0.16663
738 4 0.223897 0.221028 0.0862382
737 4 0.237885 0.179696 0.110666
736 2 0.230891 0.200362 0.0984523
460 2 0.325319 0.230713 0.107553
352 2 0.272633 0.242099 0.119505
353 4 0.258652 0.248064 0.139357
461 4 0.303555 0.228882 0.0953823
354 4 0.286614 0.236134 0.0996522
278 4 0.255343 0.248008 0.155163
254 4 0.358021 0.178115 0.150608
462 4 0.347083 0.232545 0.119724
255 4 0.360827 0.222591 0.127922
253 2 0.359424 0.200353 0.139265
765 4 0.358392 0.239345 0.136148
624 4 0.364503 0.239895 0.118347
622 2 0.379952 0.23733 0.0988554
506 4 0.181719 0.298017 0.089401
755 4 0.242903 0.259212 0.145961
483 4 0.200909 0.296493 0.0841162
537 4 0.179864 0.304759 0.108542
535 2 0.184974 0.315231 0.130664
754 2 0.240808 0.281929 0.156193
536 4 0.190084 0.325703 0.152786
387 4 0.330263 0.297109 0.107369
301 2 0.323902 0.305582 0.149313
302 4 0.331962 0.303713 0.125718
284 4 0.273795 0.252583 0.15401
763 2 0.344711 0.252738 0.15223
385 2 0.350639 0.310691 0.102313
386 4 0.371014 0.324272 0.0972569
527 4 0.456944 0.305434 0.0840161
670 2 0.430845 0.328603 0.084772
528 4 0.500176 0.293845 0.10632
526 2 0.47856 0.299639 0.095168
647 4 0.070438 0.345241 0.166859
417 4 0.1539 0.401704 0.16924
415 2 0.175517 0.395893 0.1581
291 4 0.214246 0.38647 0.137311
289 2 0.236548 0.397536 0.13963
416 4 0.197135 0.390082 0.146961
609 4 0.281659 0.403429 0.0975357
290 4 0.258849 0.408601 0.14195
607 2 0.301997 0.417044 0.102653
15 3 0.370716 0.335161 0.114396
740 4 0.376289 0.337175 0.0833652
12 3 0.407662 0.336496 0.119511
672 4 0.409766 0.336331 0.0957783
14 3 0.392815 0.349737 0.0876214
11 1 0.389527 0.347384 0.11047
13 3 0.387609 0.368273 0.120389
595 2 0.469779 0.40454 0.151537
596 4 0.461257 0.396858 0.129321
102 3 0.47785 0.341581 0.129887
101 1 0.500609 0.340445 0.133029
1791 4 0.0548449 0.487949 0.15214
1466 4 0.0386867 0.477559 0.145091
1465 2 0.044769 0.453352 0.143604
1467 4 0.0508513 0.429145 0.142117
638 4 0.253221 0.494404 0.136986
767 4 0.256398 0.476346 0.127171
766 2 0.25986 0.45252 0.133915
768 4 0.263323 0.428693 0.140659
608 4 0.322335 0.430659 0.107769
659 4 0.341259 0.43209 0.116092
658 2 0.357973 0.429468 0.0976818
1559 4 0.361492 0.490269 0.105821
1558 2 0.340896 0.502618 0.112782
524 4 0.379601 0.490088 0.100132
523 2 0.396319 0.495112 0.118033
525 4 0.413038 0.500136 0.135933
17 3 0.0595995 0.0375387 0.188096
2480 4 0.0416807 0.0308206 0.192387
1422 4 0.0402978 0.0118407 0.198676
2479 2 0.0216667 0.043955 0.199605
380 4 0.999007 0.0749542 0.195849
675 4 0.121391 0.993946 0.249438
20 3 0.0912482 0.0350923 0.168468
450 4 0.147966 0.0805177 0.175416
578 4 0.0896082 0.0569634 0.167846
674 4 0.152617 0.0163951 0.217474
673 2 0.137004 0.00517067 0.233456
577 2 0.109754 0.0717433 0.168786
688 2 0.185673 0.999207 0.204104
689 4 0.172865 0.014515 0.219164
693 4 0.260451 0.0799469 0.24321
652 2 0.285047 0.00529089 0.181313
653 4 0.30815 0.0125217 0.187568
25 3 0.326756 0.0485706 0.230566
758 4 0.379328 0.0558904 0.194269
759 4 0.346111 0.0619843 0.231151
757 2 0.362719 0.0589374 0.21271
311 4 0.374805 0.0716105 0.181941
511 2 0.0400036 0.142285 0.187255
512 4 0.0157167 0.136545 0.188795
381 4 0.000119764 0.124939 0.196829
379 2 0.999563 0.0999467 0.196339
579 4 0.1299 0.0865232 0.169725
448 2 0.172083 0.0808414 0.182007
237 4 0.239604 0.132334 0.174445
449 4 0.1962 0.0811652 0.188598
235 2 0.223786 0.115042 0.183161
236 4 0.207969 0.0977505 0.191878
26 1 0.318979 0.149521 0.24912
28 3 0.316809 0.143178 0.226907
310 2 0.378975 0.0946039 0.173048
521 4 0.486301 0.142669 0.221302
332 4 0.482775 0.125241 0.226331
762 4 0.482824 0.139449 0.240243
760 2 0.459517 0.143757 0.248204
331 2 0.495381 0.104638 0.232796
513 4 0.0642904 0.148026 0.185715
393 4 0.0706639 0.156981 0.201576
391 2 0.085373 0.175337 0.210053
392 4 0.100082 0.193694 0.218531
279 4 0.249162 0.21185 0.18915
277 2 0.252253 0.229929 0.172156
27 3 0.319168 0.172493 0.25031
394 2 0.00988429 0.253852 0.224394
395 4 0.0305863 0.262514 0.213368
338 4 0.0584439 0.26033 0.182734
363 4 0.044518 0.261853 0.196376
361 2 0.0584531 0.280415 0.205673
749 4 0.0616008 0.31207 0.22357
648 4 0.0737376 0.316589 0.207711
362 4 0.0723883 0.298977 0.21497
748 2 0.0711453 0.324572 0.243007
370 2 0.113422 0.303318 0.216349
372 4 0.0897703 0.303199 0.208238
371 4 0.137073 0.303437 0.224459
734 4 0.144491 0.307916 0.24485
756 4 0.238712 0.304647 0.166426
610 2 0.246947 0.313579 0.209748
612 4 0.240948 0.308876 0.185935
611 4 0.252945 0.318282 0.233561
285 4 0.31339 0.272988 0.176738
283 2 0.293592 0.262785 0.165374
307 2 0.325422 0.285705 0.208187
308 4 0.316765 0.290536 0.185233
303 4 0.315843 0.307451 0.172908
729 4 0.302234 0.322483 0.173185
727 2 0.299132 0.337097 0.193235
309 4 0.33408 0.280874 0.231141
764 4 0.331029 0.266131 0.168311
646 2 0.0720878 0.330915 0.187285
728 4 0.29603 0.351711 0.213284
446 4 0.38666 0.394801 0.23793
445 2 0.410622 0.397135 0.231183
645 4 0.47445 0.399309 0.187377
447 4 0.434585 0.39947 0.224435
644 4 0.441679 0.417098 0.220698
643 2 0.458065 0.408204 0.204038
597 4 0.478302 0.412223 0.173752
1774 2 0.0770333 0.503505 0.23465
414 4 0.226858 0.465685 0.221512
412 2 0.231777 0.468933 0.245811
229 2 0.45672 0.484263 0.233959
230 4 0.438701 0.492642 0.218783
2755 2 0.998269 0.0717238 0.310015
234 4 0.0156781 0.0416029 0.283525
232 2 0.0401113 0.0369975 0.286169
233 4 0.0645445 0.0323921 0.288812
1404 4 0.0797566 0.0220248 0.292885
317 4 0.0732788 0.0312252 0.307702
428 4 0.0840812 0.0133154 0.307
2756 4 0.00422277 0.0507991 0.297691
2478 4 0.000351041 0.050596 0.278935
316 2 0.0855398 0.0527996 0.310766
1402 2 0.0921464 0.0112602 0.274022
318 4 0.0978009 0.0743741 0.31383
24 3 0.30967 0.0762493 0.249529
21 1 0.327131 0.0609686 0.249666
23 3 0.32535 0.0470713 0.268162
22 3 0.347037 0.0724337 0.250867
349 2 0.386598 0.0651219 0.261709
351 4 0.411134 0.060809 0.259571
350 4 0.362063 0.0694348 0.263848
479 4 0.45147 0.0298792 0.284943
478 2 0.434357 0.0367712 0.268067
2664 4 0.46958 0.023958 0.285947
480 4 0.417243 0.0436633 0.251191
1428 4 0.45559 0.0212344 0.29916
258 4 0.445181 0.0364569 0.303651
2662 2 0.484337 0.0418494 0.295292
256 2 0.434371 0.0491663 0.322273
399 4 0.0903618 0.0882945 0.323687
732 4 0.10844 0.0916612 0.32047
691 2 0.257281 0.0952997 0.262689
721 2 0.254597 0.122256 0.312039
692 4 0.254112 0.110652 0.282168
30 3 0.301429 0.141527 0.261234
723 4 0.270406 0.114912 0.294113
29 3 0.338921 0.141399 0.257766
632 4 0.367836 0.0882325 0.265544
631 2 0.354727 0.109206 0.269213
707 4 0.348014 0.144511 0.276357
633 4 0.341618 0.130179 0.272882
706 2 0.353721 0.161529 0.293764
761 4 0.436209 0.148065 0.256166
546 4 0.155637 0.183399 0.297661
544 2 0.163522 0.198289 0.279187
545 4 0.171408 0.213179 0.260713
402 4 0.183766 0.229481 0.261867
708 4 0.359428 0.178548 0.31117
418 2 0.401383 0.249133 0.323585
442 2 0.999382 0.254758 0.278222
444 4 0.00408513 0.259307 0.302355
299 4 0.145325 0.324399 0.255393
298 2 0.122554 0.330541 0.263696
344 4 0.243775 0.305534 0.246447
400 2 0.19359 0.250379 0.271455
733 2 0.165998 0.298343 0.253276
401 4 0.203413 0.271277 0.281044
676 2 0.186702 0.294351 0.305289
345 4 0.204078 0.2867 0.270326
677 4 0.19146 0.286686 0.281969
343 2 0.223927 0.296117 0.258386
735 4 0.187505 0.288771 0.261701
678 4 0.181944 0.302016 0.328608
378 4 0.244707 0.278056 0.30535
498 4 0.328094 0.280766 0.250701
376 2 0.269104 0.274701 0.301023
496 2 0.320456 0.276672 0.274155
497 4 0.312818 0.272578 0.297609
377 4 0.2935 0.271346 0.296695
541 2 0.382926 0.306401 0.300227
542 4 0.391181 0.282802 0.299875
543 4 0.374671 0.33 0.300579
420 4 0.396074 0.263757 0.304011
615 4 0.355699 0.332269 0.30621
2537 4 0.493612 0.331521 0.324203
264 4 0.993999 0.373916 0.254169
365 4 0.0163084 0.372568 0.304516
601 2 0.0463524 0.394374 0.321722
603 4 0.0259043 0.388839 0.30844
750 4 0.0806897 0.337073 0.262444
300 4 0.0997829 0.336683 0.271998
510 4 0.215166 0.328453 0.315622
433 2 0.301342 0.385682 0.314486
435 4 0.276863 0.383851 0.319241
434 4 0.325821 0.387514 0.309731
614 4 0.34389 0.380772 0.30917
613 2 0.349795 0.35652 0.30769
775 2 0.0753146 0.502555 0.290733
500 4 0.0730267 0.485303 0.326372
777 4 0.0761442 0.502768 0.265744
1757 4 0.0406115 0.428764 0.255714
1756 2 0.0548805 0.448985 0.252157
1775 4 0.0723718 0.487313 0.253123
1758 4 0.0691494 0.469207 0.2486
1436 4 0.223786 0.460155 0.28037
413 4 0.236695 0.472181 0.27011
1435 2 0.239076 0.450938 0.297875
3 3 0.290874 0.473035 0.326732
1437 4 0.254366 0.441721 0.31538
4 3 0.273568 0.439509 0.32216
437 4 0.354459 0.484126 0.329895
231 4 0.474738 0.475883 0.249135
119 3 0.496698 0.466215 0.320423
1742 4 0.421313 0.481215 0.328602
606 4 0.163945 0.0653424 0.338442
1780 2 0.124997 0.00112387 0.395545
1781 4 0.116103 0.0209809 0.407865
368 4 0.0989502 0.0179411 0.419428
604 2 0.18666 0.0637103 0.348764
605 4 0.209375 0.0620782 0.359086
248 4 0.220751 0.0791238 0.361055
441 4 0.325005 0.0040732 0.406282
1701 4 0.334518 0.0148832 0.39234
962 4 0.311295 0.0186563 0.413592
699 4 0.356813 0.0454321 0.342409
425 4 0.329952 0.0193839 0.410818
698 4 0.405534 0.0565577 0.340644
1699 2 0.337265 0.0249538 0.36962
1700 4 0.340012 0.0350245 0.3469
697 2 0.381173 0.0509949 0.341526
725 4 0.395111 0.0615047 0.396217
257 4 0.42356 0.0618756 0.340895
397 2 0.0754897 0.106188 0.332843
2584 2 0.0219116 0.112376 0.341798
398 4 0.0606177 0.124081 0.341999
2586 4 0.0448379 0.116788 0.350747
458 4 0.0404746 0.126385 0.369268
457 2 0.0359187 0.143108 0.38729
459 4 0.0313629 0.15983 0.405312
730 2 0.132604 0.0860796 0.323652
731 4 0.156768 0.080498 0.326835
600 4 0.141506 0.141483 0.388915
598 2 0.136205 0.165299 0.38345
722 4 0.238788 0.1296 0.329964
249 4 0.23851 0.124104 0.34832
247 2 0.22963 0.101614 0.354688
404 4 0.240116 0.141123 0.347066
683 4 0.247239 0.133867 0.363385
403 2 0.231357 0.163498 0.340149
682 2 0.269539 0.139097 0.373412
319 2 0.322487 0.146411 0.384011
684 4 0.291838 0.144327 0.38344
320 4 0.304476 0.132569 0.39446
321 4 0.340498 0.160254 0.373563
716 4 0.399884 0.162525 0.378064
715 2 0.410459 0.169124 0.356389
717 4 0.421033 0.175723 0.334714
261 4 0.0637855 0.203347 0.421961
599 4 0.130903 0.189115 0.377986
389 4 0.12536 0.224009 0.378145
686 4 0.121722 0.206862 0.384742
685 2 0.100446 0.206086 0.397853
275 4 0.13782 0.206376 0.375304
274 2 0.159297 0.208958 0.362764
388 2 0.126128 0.248853 0.375431
474 4 0.1898 0.227411 0.343122
276 4 0.180773 0.211541 0.350223
472 2 0.210736 0.215521 0.336377
405 4 0.222599 0.185872 0.333232
473 4 0.231672 0.203631 0.329633
419 4 0.406691 0.23451 0.34316
467 4 0.397421 0.175892 0.392418
269 4 0.416744 0.217258 0.348807
270 4 0.453684 0.214614 0.38241
452 4 0.473327 0.214664 0.378958
268 2 0.435214 0.215936 0.365608
451 2 0.473769 0.210328 0.403579
618 4 0.0747841 0.309432 0.386375
347 4 0.0675079 0.326942 0.391496
616 2 0.0931661 0.295974 0.376071
390 4 0.126897 0.273697 0.372717
617 4 0.111548 0.282517 0.365767
374 4 0.130485 0.29027 0.366003
373 2 0.153206 0.294792 0.356598
375 4 0.175928 0.299314 0.347194
602 4 0.0668006 0.399908 0.335004
549 4 0.0768092 0.403304 0.351401
346 2 0.0454723 0.335528 0.38338
348 4 0.0234367 0.344115 0.375263
509 4 0.232195 0.349505 0.357664
508 2 0.22368 0.338979 0.336643
334 2 0.325073 0.361333 0.406343
335 4 0.344505 0.346505 0.401079
240 4 0.358024 0.360539 0.402076
238 2 0.382098 0.367199 0.403205
239 4 0.406172 0.373859 0.404334
587 4 0.413213 0.393089 0.400785
752 4 0.465847 0.401677 0.377631
561 4 0.478958 0.393413 0.389456
751 2 0.479056 0.417215 0.363164
559 2 0.489303 0.391829 0.412164
499 2 0.0782157 0.482562 0.350677
501 4 0.0834047 0.47982 0.374982
547 2 0.075649 0.42586 0.362127
548 4 0.0744888 0.448417 0.372852
407 4 0.0834332 0.461872 0.384903
406 2 0.0940204 0.462692 0.407539
436 2 0.332261 0.472818 0.332035
1555 2 0.267878 0.494114 0.420923
5 3 0.271492 0.45763 0.355099
1 1 0.284792 0.453213 0.337148
438 4 0.310063 0.461511 0.334174
2 3 0.303812 0.442421 0.344284
586 2 0.407431 0.417253 0.397983
593 4 0.399232 0.460641 0.389544
592 2 0.409068 0.468282 0.367863
588 4 0.401649 0.441417 0.395181
713 4 0.437104 0.480367 0.338307
712 2 0.46078 0.472328 0.338388
714 4 0.484456 0.464289 0.33847
753 4 0.492266 0.432752 0.348698
117 3 0.494651 0.453079 0.355578
594 4 0.418904 0.475923 0.346183
367 2 0.0796072 0.0278606 0.431782
369 4 0.0602641 0.0377802 0.444136
719 4 0.0419311 0.0285642 0.44482
718 2 0.0204321 0.0226652 0.456141
961 2 0.302627 0.0351049 0.43031
963 4 0.29396 0.0515535 0.447028
432 4 0.299924 0.0668145 0.46048
430 2 0.321819 0.0704081 0.472007
424 2 0.352683 0.01917 0.421229
426 4 0.375415 0.0189561 0.431641
724 2 0.41152 0.076145 0.408115
431 4 0.343714 0.0740017 0.483534
843 4 0.348274 0.0798115 0.501573
1218 4 0.448598 0.0515286 0.511191
726 4 0.427929 0.0907853 0.420014
640 2 0.491377 0.0963285 0.448713
641 4 0.474388 0.0903923 0.466072
260 4 0.0248607 0.171958 0.42142
687 4 0.0791697 0.20531 0.410964
259 2 0.0443231 0.187652 0.421691
1035 4 0.0823103 0.207902 0.429343
696 4 0.0932546 0.239456 0.487684
1033 2 0.0863716 0.223499 0.448459
1034 4 0.0904329 0.239096 0.467576
488 4 0.304141 0.245557 0.437378
466 2 0.398863 0.186612 0.41496
487 2 0.326555 0.243716 0.448306
468 4 0.400306 0.197332 0.437503
411 4 0.367468 0.243148 0.468251
409 2 0.383192 0.225024 0.461218
410 4 0.398916 0.2069 0.454186
266 4 0.352429 0.247861 0.47679
489 4 0.348968 0.241875 0.459235
574 2 0.403426 0.184018 0.489998
575 4 0.405802 0.196754 0.468612
516 4 0.414805 0.201736 0.450705
514 2 0.439627 0.200977 0.4478
515 4 0.46445 0.200217 0.444894
453 4 0.47421 0.205991 0.4282
2847 4 0.0115792 0.314178 0.444579
2802 4 0.00634407 0.303698 0.427797
1258 2 0.112798 0.27355 0.472432
1259 4 0.123245 0.295999 0.468959
9 3 0.144213 0.302265 0.460253
1260 4 0.102351 0.2511 0.475905
7 3 0.114351 0.314385 0.479592
6 1 0.134042 0.32089 0.469636
8 3 0.147887 0.330194 0.485766
1009 2 0.467877 0.322499 0.505256
326 4 0.0574215 0.352252 0.470076
325 2 0.0771246 0.338092 0.476114
327 4 0.0968277 0.323932 0.482152
10 3 0.129542 0.336267 0.453451
709 2 0.143489 0.408826 0.487258
503 4 0.21408 0.354338 0.488678
502 2 0.199652 0.374748 0.488038
710 4 0.167011 0.401826 0.492042
504 4 0.185223 0.395159 0.487399
668 4 0.309585 0.395404 0.409727
336 4 0.30564 0.376161 0.411607
667 2 0.315254 0.418066 0.418642
1011 4 0.463862 0.346184 0.498324
560 4 0.499649 0.390245 0.434872
3309 4 0.49354 0.390823 0.453524
3307 2 0.481648 0.375326 0.469131
3308 4 0.469755 0.359829 0.484738
1381 2 0.0249315 0.474521 0.470642
1383 4 0.0151935 0.451987 0.465891
679 2 0.00260207 0.431334 0.441627
680 4 0.0234179 0.44294 0.449189
711 4 0.119966 0.415825 0.482474
384 4 0.107686 0.417259 0.46666
382 2 0.110252 0.4403 0.457294
408 4 0.104608 0.463512 0.430176
568 2 0.142119 0.487185 0.433129
383 4 0.112817 0.463341 0.447928
569 4 0.122518 0.471662 0.433136
1557 4 0.291815 0.49036 0.427096
635 4 0.331451 0.455897 0.423719
636 4 0.307832 0.498551 0.434828
669 4 0.320923 0.440728 0.427556
634 2 0.319641 0.477224 0.429273
772 2 0.356759 0.439278 0.451939
773 4 0.375875 0.43899 0.468054
774 4 0.337644 0.439567 0.435824
2430 4 0.138337 0.0342733 0.503134
2428 2 0.131872 0.0101488 0.50431
1152 4 0.212666 0.06052 0.517743
1150 2 0.218812 0.0744779 0.537557
342 4 0.202507 0.0521423 0.502987
340 2 0.179684 0.0424143 0.499876
341 4 0.156861 0.0326863 0.496766
1030 2 0.261822 0.0718601 0.572802
949 2 0.286813 0.0169078 0.561378
951 4 0.285639 0.0391277 0.572783
1217 4 0.400308 0.0642132 0.513992
842 4 0.385765 0.0547756 0.523215
841 2 0.367019 0.0672935 0.512394
3009 4 0.508219 0.0602843 0.563728
1216 2 0.424453 0.0578709 0.512592
1058 4 0.104622 0.124679 0.513718
1057 2 0.0982949 0.124528 0.537907
1059 4 0.0919677 0.124376 0.562096
1155 4 0.099607 0.12224 0.580669
1271 4 0.0857519 0.134558 0.577552
939 4 0.0821445 0.115213 0.575811
1151 4 0.224957 0.0884358 0.557371
1180 2 0.213841 0.131004 0.543312
1181 4 0.220546 0.107871 0.550028
1182 4 0.207136 0.154136 0.536596
1032 4 0.241306 0.0856011 0.568872
1198 2 0.00588713 0.235702 0.555399
1199 4 0.0293187 0.233765 0.563907
1244 4 0.0534507 0.241728 0.580797
878 4 0.0403919 0.227985 0.578989
877 2 0.05733 0.209629 0.577839
695 4 0.086099 0.208905 0.526622
694 2 0.0896768 0.22418 0.507153
900 4 0.223394 0.164249 0.539373
898 2 0.244006 0.178342 0.53806
650 4 0.271381 0.204995 0.52303
899 4 0.264618 0.192434 0.536747
649 2 0.284418 0.225708 0.517909
651 4 0.297454 0.24642 0.512789
576 4 0.40105 0.171283 0.511383
267 4 0.356528 0.252045 0.526453
265 2 0.354478 0.249953 0.501621
1243 2 0.0463962 0.265645 0.57896
948 4 0.15713 0.282406 0.575846
1136 4 0.140236 0.287409 0.588232
856 2 0.212431 0.260806 0.511941
857 4 0.206806 0.263616 0.536141
798 4 0.215211 0.282474 0.561833
947 4 0.199747 0.274731 0.550835
946 2 0.178439 0.278568 0.563341
858 4 0.218056 0.257996 0.487741
2457 4 0.478212 0.279808 0.514173
1010 4 0.471892 0.298813 0.512187
803 4 0.266479 0.381338 0.562647
804 4 0.300766 0.378071 0.526391
802 2 0.283622 0.379705 0.544519
1190 4 0.265708 0.374643 0.581115
928 2 0.345091 0.39927 0.57186
929 4 0.356868 0.403663 0.550246
881 4 0.36399 0.396067 0.53245
880 2 0.371506 0.372375 0.529732
882 4 0.379022 0.348683 0.527015
539 4 0.0697052 0.431662 0.571892
540 4 0.10608 0.465874 0.569222
2244 4 0.104893 0.48527 0.573028
1160 4 0.114975 0.473602 0.58432
538 2 0.0878929 0.448768 0.570557
2154 4 0.223333 0.494018 0.535165
1909 2 0.436396 0.488002 0.56704
1911 4 0.450787 0.477569 0.584625
1001 4 0.457863 0.460078 0.58788
1081 2 0.0727919 0.0746958 0.64258
1082 4 0.0811943 0.0662249 0.664553
938 4 0.0665112 0.0764331 0.603242
1083 4 0.0643895 0.0831668 0.620607
1128 4 0.00176704 0.085549 0.605144
1031 4 0.282338 0.0581191 0.576733
3007 2 0.493236 0.0496435 0.580683
3008 4 0.478253 0.0390026 0.597637
809 4 0.475711 0.0349931 0.616391
808 2 0.468909 0.0526653 0.632719
810 4 0.462107 0.0703376 0.649047
1127 4 0.0485197 0.0972635 0.618473
1126 2 0.0251434 0.0914063 0.611809
1270 2 0.0725063 0.15574 0.576513
937 2 0.0743278 0.0958229 0.589527
1154 4 0.14656 0.126385 0.59737
1153 2 0.123084 0.124313 0.589019
1221 4 0.159371 0.140107 0.587978
1219 2 0.178279 0.147835 0.602399
1220 4 0.197186 0.155563 0.61682
1212 4 0.193743 0.166209 0.633073
1192 2 0.319146 0.129702 0.641215
1193 4 0.332614 0.127654 0.620248
886 2 0.273204 0.157504 0.658561
45 3 0.461487 0.0926515 0.643593
879 4 0.0742682 0.191272 0.576688
1272 4 0.0592606 0.176921 0.575474
1210 2 0.216303 0.172372 0.64192
1211 4 0.238862 0.178536 0.650766
888 4 0.258698 0.177159 0.653231
1245 4 0.0393417 0.289563 0.577122
983 4 0.0372528 0.30887 0.583527
982 2 0.0131968 0.314316 0.579426
1135 2 0.148559 0.309534 0.596378
822 4 0.145746 0.31078 0.637754
1064 4 0.145822 0.327785 0.649413
820 2 0.146808 0.288589 0.649225
821 4 0.14787 0.266397 0.660697
796 2 0.234084 0.277984 0.577608
797 4 0.252957 0.273495 0.593382
791 4 0.261126 0.291661 0.593959
790 2 0.277704 0.310228 0.591585
872 4 0.340261 0.284298 0.597953
871 2 0.362203 0.291677 0.607401
813 4 0.389864 0.314782 0.605865
873 4 0.384145 0.299057 0.616849
3123 4 0.473612 0.262391 0.649964
3121 2 0.496331 0.268897 0.65813
1041 4 0.0615025 0.375114 0.651491
3264 4 0.0427063 0.37812 0.656844
3240 4 0.0404677 0.397396 0.653799
3238 2 0.0187098 0.4097 0.65441
1039 2 0.0772148 0.383371 0.633881
1137 4 0.156881 0.33166 0.604525
1040 4 0.092927 0.391629 0.616271
993 4 0.109868 0.380362 0.618855
991 2 0.127064 0.362994 0.613579
992 4 0.144259 0.345626 0.608304
897 4 0.163375 0.349853 0.606331
1063 2 0.163979 0.34309 0.657239
1189 2 0.243721 0.38093 0.591225
896 4 0.206521 0.375046 0.608448
895 2 0.184948 0.36245 0.60739
1172 4 0.216572 0.406856 0.601194
1191 4 0.221734 0.387217 0.601335
792 4 0.294281 0.328795 0.589212
1238 4 0.310829 0.337453 0.596391
1239 4 0.318529 0.386339 0.603573
1237 2 0.314679 0.361896 0.599982
930 4 0.333314 0.394877 0.593475
811 2 0.400074 0.337606 0.605776
1204 2 0.379636 0.386429 0.638349
1205 4 0.367514 0.383298 0.659992
1206 4 0.391759 0.38956 0.616706
927 4 0.40605 0.378581 0.608156
812 4 0.410284 0.36043 0.605687
1002 4 0.433153 0.416605 0.588383
926 4 0.434554 0.400799 0.573594
925 2 0.420302 0.38969 0.590875
3239 4 0.996952 0.422005 0.655021
1159 2 0.135427 0.476143 0.598477
1161 4 0.155879 0.478684 0.612635
2172 4 0.135461 0.483707 0.674572
1188 4 0.170367 0.489512 0.60572
1171 2 0.217282 0.427892 0.614691
1186 2 0.191447 0.477674 0.612097
1173 4 0.217993 0.448928 0.628187
1187 4 0.212527 0.465835 0.618474
1140 4 0.244816 0.426816 0.660147
1000 2 0.445508 0.438342 0.588131
1099 2 0.436326 0.496225 0.665745
1269 4 0.466565 0.476673 0.59599
1267 2 0.463962 0.490028 0.616967
1268 4 0.461358 0.503383 0.637945
945 4 0.0497899 0.999798 0.694929
943 2 0.0602245 0.021847 0.689438
944 4 0.0706591 0.0438958 0.683947
1076 4 0.0718834 0.0638364 0.681757
1075 2 0.0704409 0.0787152 0.7018
825 4 0.160551 0.0401531 0.676571
1283 4 0.149286 0.0571857 0.676515
1282 2 0.152873 0.0737578 0.69489
823 2 0.171276 0.0209503 0.66468
1147 2 0.236279 0.0657071 0.672429
1149 4 0.224824 0.0442289 0.666714
1092 4 0.30059 0.0189424 0.688532
1004 4 0.324069 0.0600547 0.740195
1003 2 0.327222 0.0827431 0.730172
42 3 0.454011 0.066036 0.668666
1163 4 0.466348 0.0759467 0.683949
1162 2 0.481281 0.0623109 0.698654
1164 4 0.496215 0.048675 0.713359
864 4 0.0614831 0.0971613 0.740078
1077 4 0.0689985 0.0935941 0.721843
851 4 0.0784958 0.112307 0.7199
850 2 0.0663111 0.13414 0.720055
852 4 0.0541263 0.155973 0.72021
1107 4 0.0790708 0.101756 0.735367
1284 4 0.15646 0.09033 0.713266
1148 4 0.247734 0.0871854 0.678143
909 4 0.164718 0.108793 0.708227
907 2 0.184628 0.123082 0.703268
908 4 0.204539 0.13737 0.69831
1227 4 0.225074 0.135025 0.694
1225 2 0.242697 0.117732 0.690056
1194 4 0.305679 0.13175 0.662182
887 4 0.28771 0.137848 0.663891
1226 4 0.260319 0.100438 0.686113
829 2 0.307162 0.127448 0.699818
1005 4 0.330375 0.105431 0.720148
830 4 0.301709 0.139868 0.678814
831 4 0.312616 0.115027 0.720822
3424 2 0.495084 0.117345 0.654938
3425 4 0.474416 0.103701 0.658382
41 1 0.453572 0.088668 0.664573
43 3 0.431692 0.0961872 0.666339
44 3 0.46692 0.0993841 0.680238
1113 4 0.453465 0.114203 0.730891
1146 4 0.495457 0.158264 0.739464
1073 4 0.0686652 0.222847 0.735861
1072 2 0.092272 0.230975 0.734509
1130 4 0.129462 0.24753 0.742768
1074 4 0.115879 0.239103 0.733156
1208 4 0.131285 0.242089 0.722294
978 4 0.311348 0.187768 0.71911
976 2 0.300813 0.20122 0.737364
1025 4 0.401773 0.183152 0.679571
1024 2 0.420177 0.181819 0.696444
1142 4 0.435116 0.172553 0.730697
1144 2 0.473598 0.166921 0.730954
1262 4 0.454157 0.194141 0.719468
1026 4 0.438581 0.180485 0.713316
1261 2 0.45792 0.218723 0.716871
1145 4 0.45174 0.175579 0.722443
1177 2 0.0178794 0.249206 0.715032
1179 4 0.0393 0.258417 0.724059
892 2 0.0193558 0.336534 0.723701
1209 4 0.148982 0.263716 0.680824
1207 2 0.140134 0.252903 0.701559
1019 4 0.354264 0.313547 0.723565
1018 2 0.360094 0.314906 0.699288
1020 4 0.365924 0.316265 0.675012
1263 4 0.461683 0.243305 0.714274
3262 2 0.0486925 0.3589 0.671674
3263 4 0.0546787 0.339679 0.686504
1279 2 0.0419689 0.382432 0.739345
894 4 0.0347762 0.355744 0.727987
1280 4 0.0523217 0.359698 0.738268
816 4 0.0687209 0.357408 0.747073
1983 4 0.0483305 0.418493 0.738111
1065 4 0.182136 0.358395 0.665065
807 4 0.195515 0.345195 0.671041
1028 4 0.215971 0.376944 0.698513
1066 2 0.193693 0.366948 0.734582
1068 4 0.203613 0.378493 0.714745
1027 2 0.229617 0.393888 0.686189
805 2 0.219689 0.339409 0.673745
1029 4 0.243263 0.410832 0.673866
806 4 0.243864 0.333623 0.676448
1981 2 0.064146 0.437388 0.742358
1982 4 0.0799616 0.456283 0.746604
2016 4 0.159205 0.478487 0.741521
1176 4 0.161735 0.475734 0.721246
1175 4 0.186161 0.437398 0.700405
1174 2 0.173948 0.456566 0.710825
1138 2 0.261512 0.443307 0.668776
1139 4 0.278208 0.459798 0.677406
1987 2 0.274615 0.459909 0.730078
1229 4 0.293009 0.46163 0.691927
1989 4 0.288128 0.465954 0.709928
2028 4 0.278928 0.47134 0.692353
1228 2 0.312115 0.445504 0.691585
1230 4 0.331221 0.429379 0.691243
1100 4 0.427595 0.482885 0.685006
2989 2 0.0102405 0.051515 0.785281
2990 4 0.0103832 0.075873 0.779638
2049 4 0.109023 0.0211026 0.773496
1202 4 0.108251 0.0324128 0.789741
2047 2 0.125523 0.00286827 0.768975
1201 2 0.116066 0.0559882 0.79262
817 2 0.330064 0.0518444 0.812037
819 4 0.329378 0.0730596 0.825251
818 4 0.33075 0.0306291 0.798822
1050 4 0.33359 7.39105e-05 0.779263
974 4 0.332808 0.0119881 0.795511
973 2 0.348654 0.999544 0.810317
2322 4 0.473681 0.0481164 0.773223
845 4 0.4656 0.066257 0.7799
1112 4 0.463963 0.0778356 0.76357
844 2 0.465049 0.0642613 0.804817
2320 2 0.48447 0.042352 0.751416
846 4 0.464499 0.0622657 0.829735
862 2 0.0423802 0.091895 0.755326
863 4 0.0232772 0.0866286 0.770575
833 4 0.0145535 0.095001 0.78525
832 2 0.0241713 0.104644 0.806219
1125 4 0.0394136 0.129668 0.836846
834 4 0.0337892 0.114287 0.827188
3083 4 0.00340846 0.0907798 0.770986
1105 2 0.0998841 0.100696 0.749183
1203 4 0.123882 0.0795637 0.7955
1106 4 0.120697 0.0996373 0.762998
911 4 0.133822 0.101889 0.82533
34 3 0.120112 0.100665 0.782589
31 1 0.135544 0.104455 0.799496
35 3 0.127917 0.120738 0.813473
32 3 0.138451 0.0849931 0.811411
33 3 0.155916 0.110769 0.790358
1255 2 0.24656 0.110124 0.801698
1256 4 0.22525 0.108149 0.814627
840 4 0.234962 0.120227 0.828932
1085 4 0.320494 0.0911679 0.822666
1257 4 0.26787 0.112099 0.788769
1084 2 0.302478 0.103157 0.810141
1086 4 0.284462 0.115145 0.797615
1023 4 0.401183 0.153143 0.823567
48 3 0.393795 0.165291 0.779068
1111 2 0.458714 0.0960194 0.747231
1129 2 0.146758 0.247195 0.760821
1277 4 0.176107 0.2465 0.793542
977 4 0.290277 0.214673 0.755618
918 4 0.290601 0.233777 0.758033
1298 4 0.281852 0.222901 0.771779
1297 2 0.27967 0.211254 0.793796
1299 4 0.277488 0.199607 0.815813
47 3 0.400606 0.17186 0.815442
46 1 0.395737 0.181787 0.79527