ITEM: TIMESTEP
1050000
ITEM: NUMBER OF ATOMS
4590
ITEM: BOX BOUNDS pp pp pp
-9.9985700000000008e+00 9.9985700000000008e+00
-9.9985700000000008e+00 9.9985700000000008e+00
-9.9985700000000008e+00 9.9985700000000008e+00
ITEM: ATOMS id type xs ys zs
1668 4 0.0602369 0.0548475 0.0666311
1475 4 0.27227 0.0173854 0.066636
492 4 0.272127 0.0352959 0.0766046
297 4 0.324358 0.0695077 0.0530837
747 4 0.453604 0.0588266 0.0135321
2974 2 0.46357 0.0221987 0.031798
2976 4 0.475005 0.000847434 0.0380058
2975 4 0.452135 0.04355 0.0255901
986 4 0.438956 0.047315 0.0106248
745 2 0.443284 0.0815827 0.012621
985 2 0.42062 0.0343849 0.999589
1247 4 0.0111753 0.10319 0.0151726
566 4 0.157423 0.144435 0.059304
565 2 0.170198 0.158471 0.0430258
358 2 0.34351 0.160527 0.0632875
295 2 0.344845 0.0820612 0.0461645
296 4 0.365332 0.0946147 0.0392453
557 4 0.364646 0.094647 0.0204507
556 2 0.389434 0.0967566 0.0179472
769 2 0.399847 0.147999 0.0352489
359 4 0.364738 0.150616 0.0545506
558 4 0.414222 0.0988662 0.0154437
770 4 0.377498 0.157953 0.0404066
827 4 0.350343 0.0952173 0.00479634
771 4 0.422196 0.138044 0.0300912
746 4 0.432964 0.104339 0.0117099
567 4 0.182973 0.172506 0.0267477
360 4 0.322283 0.170439 0.0720243
664 2 0.382002 0.199883 0.03551
665 4 0.372293 0.177104 0.0389783
666 4 0.391712 0.222661 0.0320417
555 4 0.0649295 0.276693 0.0518238
553 2 0.0821505 0.271537 0.0344448
554 4 0.0993716 0.266381 0.0170659
287 4 0.15368 0.306179 0.0343367
292 2 0.14821 0.271289 0.0123356
293 4 0.153918 0.288417 0.0296342
507 4 0.161444 0.296608 0.0478747
286 2 0.150507 0.330663 0.0303802
294 4 0.142502 0.254161 0.995037
505 2 0.179096 0.295236 0.0655302
506 4 0.196747 0.293863 0.0831857
481 2 0.230886 0.272561 0.0717072
482 4 0.24783 0.261975 0.0566739
573 4 0.261558 0.266555 0.0434616
571 2 0.266835 0.260311 0.0198327
323 4 0.39198 0.260787 0.0799958
322 2 0.401274 0.269094 0.0583208
1069 2 0.392048 0.300347 0.00705499
324 4 0.410567 0.277401 0.0366459
1070 4 0.409192 0.290659 0.0224636
739 2 0.352749 0.327298 0.058897
741 4 0.355863 0.327417 0.0340885
671 4 0.438081 0.32099 0.0611621
280 2 0.440677 0.30028 0.0346635
281 4 0.453502 0.309811 0.0538953
282 4 0.427852 0.290748 0.0154318
288 4 0.147334 0.355147 0.0264236
552 4 0.108811 0.386189 0.0837457
454 2 0.145226 0.364901 0.0831121
455 4 0.126991 0.381193 0.0778959
250 2 0.311547 0.394073 0.0349858
251 4 0.301608 0.389572 0.0124883
252 4 0.321486 0.398574 0.0574833
609 4 0.313615 0.392464 0.0754806
956 4 0.331709 0.359934 0.011248
245 4 0.234676 0.441058 0.0501608
626 4 0.219056 0.442607 0.063132
244 2 0.248358 0.457522 0.0372419
625 2 0.198923 0.437878 0.0771841
246 4 0.26204 0.473987 0.0243229
272 4 0.277584 0.485072 0.018587
563 4 0.467473 0.472058 0.0553281
228 4 0.472524 0.469847 0.074056
562 2 0.451022 0.478642 0.0376863
564 4 0.434572 0.485225 0.0200445
854 4 0.427212 0.471666 0.00716846
1674 4 0.426242 0.497566 0.0333821
1666 2 0.0727968 0.0598782 0.0876577
19 3 0.0648703 0.0710196 0.145912
18 3 0.0797902 0.036947 0.153714
16 1 0.069367 0.0556341 0.162689
1420 2 0.045702 0.0043103 0.16692
1667 4 0.0853567 0.064909 0.108684
701 4 0.0889762 0.0850128 0.106878
1539 4 0.18215 0.997309 0.159451
491 4 0.25728 0.0630182 0.115486
490 2 0.264704 0.0491571 0.0960452
2722 2 0.478224 0.0551676 0.155627
2723 4 0.455577 0.0655066 0.157944
476 4 0.0779901 0.139175 0.143072
702 4 0.0736523 0.120138 0.139004
700 2 0.0813143 0.102575 0.122941
236 4 0.221246 0.109737 0.15518
235 2 0.225921 0.133091 0.162791
582 4 0.258212 0.123331 0.166372
628 2 0.392655 0.140267 0.136552
630 4 0.378105 0.155455 0.123032
312 4 0.404517 0.108544 0.161811
629 4 0.407206 0.125079 0.150072
2625 4 0.0116561 0.184443 0.103122
738 4 0.188639 0.22403 0.129175
737 4 0.210089 0.179382 0.122307
736 2 0.199364 0.201706 0.125741
277 2 0.236063 0.237507 0.1537
279 4 0.212278 0.230101 0.155849
461 4 0.307409 0.227484 0.0958245
460 2 0.331719 0.22645 0.101581
354 4 0.287594 0.230029 0.0964264
278 4 0.259847 0.244913 0.151551
352 2 0.281018 0.236978 0.119527
353 4 0.274442 0.243926 0.142628
462 4 0.356029 0.225416 0.107337
254 4 0.381509 0.175068 0.117706
255 4 0.371282 0.22399 0.119371
253 2 0.376395 0.199529 0.118539
765 4 0.365934 0.2306 0.137077
624 4 0.362037 0.23829 0.120212
763 2 0.350572 0.230422 0.156804
646 2 0.0696586 0.317871 0.157277
648 4 0.0478766 0.318123 0.145003
339 4 0.0891646 0.271288 0.128391
337 2 0.0907168 0.262743 0.151837
483 4 0.213941 0.283147 0.0867404
536 4 0.205042 0.298667 0.132197
535 2 0.205245 0.317801 0.116103
754 2 0.268853 0.283912 0.159682
755 4 0.269184 0.261596 0.148409
756 4 0.268522 0.306227 0.170956
622 2 0.379419 0.252728 0.109507
623 4 0.396802 0.267165 0.0988021
740 4 0.349634 0.32718 0.0837056
12 3 0.401342 0.335228 0.106624
670 2 0.42872 0.331009 0.0820709
528 4 0.456791 0.269695 0.117507
518 4 0.467368 0.270814 0.100582
526 2 0.44131 0.277601 0.13548
527 4 0.425829 0.285506 0.153453
517 2 0.491141 0.265749 0.0947203
551 4 0.075573 0.367946 0.116352
456 4 0.163461 0.348608 0.0883282
550 2 0.0921921 0.377068 0.100049
537 4 0.205448 0.336936 0.10001
416 4 0.210978 0.414458 0.157191
302 4 0.321622 0.352472 0.150563
387 4 0.315631 0.347712 0.132033
607 2 0.325065 0.407495 0.0918557
495 4 0.40258 0.373727 0.0843783
385 2 0.332396 0.346019 0.113561
15 3 0.365828 0.346542 0.108535
386 4 0.349162 0.344325 0.0950882
11 1 0.387342 0.352148 0.113471
13 3 0.389715 0.355041 0.136371
14 3 0.393182 0.37167 0.102374
493 2 0.401029 0.398647 0.0857062
672 4 0.41936 0.341028 0.10298
596 4 0.460306 0.394347 0.160011
1791 4 0.0580359 0.490856 0.149576
315 4 0.999708 0.424711 0.13195
1466 4 0.0459764 0.484449 0.163582
415 2 0.189612 0.426399 0.162302
627 4 0.178789 0.433149 0.0912363
767 4 0.291793 0.483774 0.157657
638 4 0.274489 0.492238 0.161955
766 2 0.284892 0.459797 0.159283
768 4 0.27799 0.43582 0.160908
525 4 0.363205 0.472171 0.108429
608 4 0.336515 0.422526 0.108231
658 2 0.372026 0.438023 0.108577
659 4 0.347813 0.439918 0.114516
660 4 0.39624 0.436128 0.102638
494 4 0.399478 0.423567 0.087034
523 2 0.356609 0.49299 0.0962528
226 2 0.486624 0.465549 0.0942524
227 4 0.500724 0.461251 0.114449
20 3 0.0826943 0.0651006 0.178545
17 3 0.0495225 0.0491573 0.172353
2480 4 0.0294618 0.0445591 0.171298
1422 4 0.0338275 0.0247273 0.175125
2479 2 0.00587531 0.0423147 0.179286
674 4 0.151321 0.0168017 0.242396
448 2 0.207227 0.0752254 0.180454
1506 4 0.235429 0.0270396 0.177012
450 4 0.198879 0.0562108 0.19438
691 2 0.221424 0.0792831 0.241652
689 4 0.170372 0.0114022 0.240604
1504 2 0.223804 0.00583633 0.183373
693 4 0.232887 0.0818421 0.219579
652 2 0.278327 0.0280295 0.177075
653 4 0.30221 0.0294035 0.1698
654 4 0.254445 0.0266555 0.18435
25 3 0.329762 0.0541016 0.243236
311 4 0.377068 0.0784193 0.19079
758 4 0.367706 0.0616979 0.189247
759 4 0.346729 0.0667278 0.234363
757 2 0.357218 0.0642129 0.211805
578 4 0.0870943 0.121389 0.23098
379 2 0.0167217 0.117101 0.189045
381 4 0.0174791 0.138066 0.202649
512 4 0.0354275 0.138138 0.211654
475 2 0.0852668 0.147392 0.165537
511 2 0.0422568 0.161675 0.216613
380 4 0.0159643 0.0961357 0.175441
477 4 0.0925434 0.15561 0.188003
577 2 0.102859 0.108085 0.216851
579 4 0.118623 0.09478 0.202721
449 4 0.215576 0.0942401 0.166529
237 4 0.230597 0.156444 0.170402
580 2 0.283166 0.122365 0.16761
581 4 0.30812 0.1214 0.168849
310 2 0.390792 0.0934814 0.1763
22 3 0.351626 0.0836907 0.24951
632 4 0.397936 0.110558 0.248556
631 2 0.377955 0.125499 0.24691
350 4 0.405822 0.0934577 0.245827
521 4 0.494948 0.159244 0.24455
513 4 0.049086 0.185211 0.221571
393 4 0.0593208 0.190006 0.238969
363 4 0.0896952 0.241787 0.189504
546 4 0.159033 0.167355 0.238391
284 4 0.275639 0.234821 0.159475
283 2 0.296847 0.229267 0.171498
285 4 0.318055 0.223713 0.183522
27 3 0.306061 0.174589 0.24773
764 4 0.33521 0.230243 0.176531
394 2 0.00510027 0.24876 0.218239
395 4 0.013428 0.260714 0.197918
338 4 0.092269 0.254198 0.175284
749 4 0.109787 0.263428 0.246373
647 4 0.0914406 0.31762 0.169552
361 2 0.102513 0.252205 0.208275
371 4 0.166794 0.299158 0.200944
370 2 0.146096 0.289029 0.21065
372 4 0.125399 0.278899 0.220355
362 4 0.11533 0.262623 0.227046
344 4 0.253745 0.31613 0.242988
612 4 0.281517 0.318967 0.179893
610 2 0.271328 0.320848 0.202649
307 2 0.310961 0.287096 0.230481
308 4 0.31528 0.276732 0.20814
611 4 0.261138 0.322728 0.225404
303 4 0.32327 0.349674 0.200464
301 2 0.322446 0.351073 0.175513
729 4 0.339992 0.360148 0.202944
727 2 0.34555 0.374721 0.222487
644 4 0.409324 0.388671 0.242541
728 4 0.351108 0.389294 0.24203
447 4 0.390031 0.384735 0.24737
595 2 0.457719 0.398114 0.184593
597 4 0.455132 0.401881 0.209176
643 2 0.433137 0.389232 0.234938
645 4 0.456951 0.389793 0.227336
1465 2 0.0345325 0.501481 0.177869
264 4 0.0310332 0.41936 0.232752
262 2 0.00681631 0.425568 0.233171
1758 4 0.118022 0.504871 0.245053
417 4 0.168247 0.43834 0.167413
291 4 0.225004 0.422264 0.166446
289 2 0.249605 0.419442 0.162979
290 4 0.274206 0.41662 0.159511
231 4 0.458263 0.463009 0.20993
229 2 0.447166 0.485315 0.207817
234 4 0.996231 0.0390727 0.303659
232 2 0.0192564 0.0373616 0.294064
233 4 0.0422822 0.0356506 0.284469
1404 4 0.0542102 0.0209877 0.288885
1402 2 0.0745931 0.0110557 0.278346
316 2 0.0682118 0.0465955 0.317002
317 4 0.058986 0.0256989 0.306834
318 4 0.0774375 0.067492 0.327171
428 4 0.057492 0.0133164 0.323802
673 2 0.127665 0.0166145 0.250491
675 4 0.104009 0.0164272 0.258586
1403 4 0.0949759 0.00112371 0.267807
692 4 0.209962 0.076724 0.263726
723 4 0.21816 0.0753889 0.280407
24 3 0.316869 0.0828912 0.263793
23 3 0.343866 0.060006 0.277644
21 1 0.33544 0.0700314 0.258489
699 4 0.341472 0.0416546 0.331704
743 4 0.488823 0.0813095 0.249937
479 4 0.480335 0.0585216 0.307864
478 2 0.456545 0.0652079 0.304051
2664 4 0.485159 0.0467342 0.322038
480 4 0.432756 0.0718942 0.300238
1428 4 0.451737 0.997186 0.325427
397 2 0.0590867 0.105985 0.326636
399 4 0.07469 0.0864587 0.325973
531 4 0.00555586 0.162169 0.2784
721 2 0.230141 0.0902901 0.296519
722 4 0.242123 0.105191 0.31263
28 3 0.302283 0.137203 0.248556
29 3 0.333725 0.153645 0.262176
26 1 0.31072 0.155618 0.259876
30 3 0.300973 0.157264 0.280392
707 4 0.3521 0.147879 0.263271
633 4 0.357974 0.14044 0.245264
706 2 0.358477 0.157923 0.285263
708 4 0.364854 0.167967 0.307255
349 2 0.417938 0.0901353 0.267446
333 4 0.476182 0.0971181 0.249631
331 2 0.478803 0.121974 0.25032
332 4 0.481424 0.146831 0.251009
351 4 0.430054 0.0868128 0.289064
444 4 0.996133 0.228254 0.298184
391 2 0.0766704 0.18313 0.255609
392 4 0.0940201 0.176255 0.272249
388 2 0.112959 0.227477 0.300507
389 4 0.108255 0.206345 0.313016
545 4 0.165183 0.200325 0.275484
544 2 0.162108 0.18384 0.256937
400 2 0.17814 0.238558 0.292115
402 4 0.174884 0.215604 0.282751
405 4 0.264076 0.174868 0.327538
717 4 0.397926 0.222722 0.322336
762 4 0.479603 0.16608 0.254805
761 4 0.46059 0.187524 0.295785
760 2 0.470097 0.176802 0.275295
748 2 0.100948 0.285864 0.252982
300 4 0.0988809 0.32447 0.2483
390 4 0.117663 0.248609 0.287997
750 4 0.0921098 0.3083 0.259592
401 4 0.181397 0.261512 0.301478
676 2 0.202591 0.322568 0.318102
345 4 0.221424 0.318889 0.281047
677 4 0.206553 0.32531 0.293567
343 2 0.237584 0.31751 0.262017
496 2 0.302693 0.304174 0.287429
497 4 0.292975 0.295448 0.30875
377 4 0.284633 0.300999 0.32595
498 4 0.312412 0.3129 0.266108
309 4 0.306642 0.29746 0.252822
541 2 0.400149 0.313671 0.34015
543 4 0.397024 0.336032 0.329409
615 4 0.377719 0.33306 0.326292
365 4 0.0164227 0.365107 0.288632
601 2 0.0455764 0.390122 0.303921
603 4 0.0331323 0.368668 0.300749
549 4 0.0703065 0.414397 0.323069
298 2 0.119393 0.338205 0.25227
299 4 0.139906 0.35194 0.25624
734 4 0.159349 0.347838 0.255881
735 4 0.190529 0.336032 0.293152
733 2 0.174939 0.341935 0.274517
433 2 0.307388 0.372445 0.328625
435 4 0.284546 0.362822 0.325336
614 4 0.341561 0.367589 0.325278
613 2 0.35964 0.350325 0.325785
445 2 0.381595 0.384037 0.270897
446 4 0.373158 0.383338 0.294424
753 4 0.453485 0.400815 0.329753
602 4 0.0580205 0.411576 0.307092
2463 4 0.999175 0.462467 0.306054
2461 2 0.00788831 0.482839 0.31764
1757 4 0.09008 0.468664 0.265277
777 4 0.107585 0.482999 0.299188
775 2 0.118925 0.489641 0.320459
1756 2 0.104051 0.486768 0.255165
1803 4 0.325022 0.487827 0.257522
1437 4 0.277446 0.455224 0.317976
1435 2 0.269143 0.478368 0.313436
436 2 0.336661 0.455633 0.313449
437 4 0.351316 0.447731 0.294796
118 3 0.498021 0.42388 0.322435
119 3 0.489789 0.460708 0.326951
606 4 0.145853 0.0757496 0.374783
732 4 0.086163 0.0783584 0.339675
730 2 0.107409 0.0762374 0.352686
731 4 0.128655 0.0741164 0.365697
604 2 0.166523 0.0889618 0.369949
1700 4 0.312342 0.0224076 0.359367
683 4 0.253032 0.0739292 0.382975
697 2 0.363851 0.0395534 0.342656
698 4 0.386231 0.0374523 0.353607
257 4 0.406376 0.0397306 0.350583
426 4 0.377387 0.0307525 0.388472
425 4 0.335259 0.0287674 0.415342
424 2 0.356323 0.0297599 0.401907
258 4 0.437945 0.00294238 0.338304
256 2 0.422161 0.0213365 0.344443
2757 4 0.996604 0.0988998 0.336838
398 4 0.0434834 0.125511 0.3273
458 4 0.0160021 0.123331 0.413212
2586 4 0.0151167 0.121398 0.392923
2584 2 0.00386945 0.10888 0.37443
598 2 0.14507 0.15021 0.356577
600 4 0.14628 0.127571 0.367121
249 4 0.236979 0.110816 0.330403
605 4 0.187193 0.102174 0.365115
248 4 0.205211 0.108719 0.368967
247 2 0.221095 0.109768 0.349685
404 4 0.247942 0.127984 0.334044
403 2 0.256009 0.151426 0.330791
682 2 0.267339 0.0866933 0.399023
320 4 0.29094 0.116382 0.417157
321 4 0.31587 0.159047 0.409484
319 2 0.303405 0.137715 0.413321
452 4 0.457479 0.169845 0.389467
451 2 0.449172 0.161315 0.411454
599 4 0.14386 0.17285 0.346033
686 4 0.153676 0.215269 0.407261
275 4 0.161617 0.220183 0.374821
474 4 0.220072 0.221625 0.343691
276 4 0.205917 0.230518 0.354049
472 2 0.236011 0.202422 0.342157
274 2 0.183767 0.22535 0.364435
473 4 0.251951 0.183219 0.340623
715 2 0.404417 0.209164 0.342318
466 2 0.387594 0.190083 0.395965
716 4 0.410907 0.195607 0.362299
467 4 0.39299 0.191628 0.3716
269 4 0.470712 0.240851 0.349003
268 2 0.481955 0.229221 0.368068
270 4 0.493198 0.21759 0.387134
419 4 0.450897 0.240777 0.346203
346 2 0.0459323 0.326945 0.387368
347 4 0.0592523 0.308385 0.377205
618 4 0.0797203 0.307439 0.373664
616 2 0.104458 0.305506 0.376742
617 4 0.129196 0.303572 0.379819
374 4 0.148438 0.29806 0.376341
373 2 0.163888 0.306084 0.358395
678 4 0.198628 0.319827 0.342636
375 4 0.179338 0.314108 0.340448
509 4 0.237243 0.324233 0.352624
376 2 0.276524 0.278842 0.334227
378 4 0.268414 0.256685 0.342503
542 4 0.403274 0.291309 0.350892
420 4 0.417533 0.277254 0.353754
418 2 0.434215 0.259015 0.349978
348 4 0.0326124 0.345505 0.397531
510 4 0.244686 0.354416 0.391794
508 2 0.240965 0.339324 0.372209
503 4 0.239222 0.388463 0.413644
434 4 0.33023 0.382068 0.331913
561 4 0.472887 0.392174 0.393342
751 2 0.464148 0.395151 0.351648
752 4 0.47481 0.389487 0.373543
559 2 0.488825 0.398076 0.411681
2462 4 0.0166021 0.503211 0.329226
547 2 0.0820366 0.425778 0.341992
681 4 0.00603798 0.423089 0.41646
500 4 0.112256 0.502355 0.350551
407 4 0.11214 0.441823 0.365525
548 4 0.0937667 0.437159 0.360914
406 2 0.109789 0.445256 0.39018
776 4 0.130265 0.496284 0.34173
408 4 0.107438 0.448689 0.414835
1556 4 0.220423 0.483293 0.40923
5 3 0.292012 0.490871 0.352053
438 4 0.322006 0.463535 0.332103
3 3 0.303117 0.45605 0.343006
1 1 0.309727 0.476567 0.351596
4 3 0.318238 0.473819 0.373007
2 3 0.326186 0.485318 0.338118
592 2 0.40857 0.483268 0.373313
588 4 0.403452 0.461854 0.405644
593 4 0.396406 0.476994 0.394238
594 4 0.420734 0.489542 0.352388
713 4 0.431942 0.492551 0.333813
714 4 0.470445 0.46067 0.33516
712 2 0.451194 0.476611 0.334487
116 1 0.499908 0.442179 0.336578
117 3 0.489292 0.437373 0.356412
718 2 0.0402711 0.00322565 0.452642
719 4 0.0505514 0.0178409 0.435152
369 4 0.0593906 0.0306111 0.424575
367 2 0.0834962 0.0243415 0.422386
368 4 0.107602 0.0180718 0.420198
441 4 0.317958 0.0232824 0.422944
962 4 0.313636 0.0375737 0.43701
961 2 0.30758 0.0434454 0.460547
963 4 0.301524 0.0493171 0.484085
432 4 0.289514 0.0541564 0.499966
457 2 0.0261983 0.142242 0.426001
459 4 0.0363945 0.161153 0.438791
684 4 0.281647 0.0994573 0.415072
725 4 0.414211 0.0826138 0.436457
724 2 0.405461 0.105354 0.442069
726 4 0.39671 0.128094 0.44768
642 4 0.501452 0.130205 0.463265
453 4 0.440865 0.152784 0.43344
2878 2 0.492027 0.103722 0.435965
2880 4 0.48567 0.12078 0.453105
640 2 0.483615 0.136239 0.479716
515 4 0.421811 0.157868 0.439154
641 4 0.465779 0.142272 0.496167
260 4 0.0515235 0.174684 0.434264
259 2 0.0759277 0.179959 0.435601
685 2 0.134389 0.206868 0.420774
687 4 0.115102 0.198467 0.434287
261 4 0.100332 0.185234 0.436938
1035 4 0.10564 0.197894 0.450736
1033 2 0.11113 0.207087 0.473331
1034 4 0.11662 0.21628 0.495926
489 4 0.320196 0.222716 0.446391
487 2 0.312592 0.246514 0.447387
649 2 0.268835 0.2537 0.498922
650 4 0.257162 0.231764 0.501703
468 4 0.382198 0.188539 0.420331
514 2 0.407523 0.176941 0.44672
411 4 0.336865 0.213181 0.452633
516 4 0.393236 0.196015 0.454287
409 2 0.358533 0.202457 0.446258
410 4 0.380202 0.191733 0.439883
575 4 0.391041 0.200706 0.474628
574 2 0.391825 0.195636 0.499099
305 4 0.490365 0.17516 0.430405
2847 4 0.0103923 0.327979 0.475325
695 4 0.039701 0.262079 0.481437
694 2 0.0636065 0.265178 0.488078
1258 2 0.1227 0.29052 0.483737
1260 4 0.106457 0.273468 0.492138
1259 4 0.138943 0.307572 0.475337
9 3 0.137678 0.326953 0.480354
651 4 0.280509 0.275635 0.496142
488 4 0.304988 0.270313 0.448383
266 4 0.371168 0.250981 0.424237
267 4 0.381329 0.280477 0.46332
265 2 0.376249 0.265729 0.443779
583 2 0.479999 0.253835 0.468656
585 4 0.460912 0.252423 0.452567
326 4 0.0630525 0.347171 0.448017
325 2 0.0830703 0.352873 0.461872
384 4 0.118774 0.402915 0.459629
6 1 0.136586 0.349803 0.484243
327 4 0.103088 0.358575 0.475727
7 3 0.11493 0.355405 0.48961
711 4 0.142155 0.390529 0.433345
10 3 0.142861 0.361178 0.465538
709 2 0.165016 0.391496 0.443425
504 4 0.198733 0.402714 0.439302
502 2 0.218978 0.395589 0.426473
710 4 0.187877 0.392464 0.453505
772 2 0.289274 0.411793 0.487198
669 4 0.309088 0.406823 0.449801
668 4 0.320455 0.372645 0.415111
667 2 0.314771 0.389734 0.432456
336 4 0.339376 0.3669 0.413782
880 2 0.343856 0.410455 0.494005
882 4 0.358713 0.418439 0.475547
335 4 0.385813 0.356789 0.429342
334 2 0.362594 0.361845 0.421562
238 2 0.409632 0.391168 0.434754
240 4 0.397769 0.372133 0.423704
3309 4 0.483712 0.411102 0.466142
239 4 0.421496 0.410203 0.445805
1383 4 0.0387939 0.478022 0.441207
680 4 0.0314227 0.464736 0.4275
679 2 0.0187303 0.443913 0.42198
569 4 0.115777 0.462313 0.425178
568 2 0.130603 0.482373 0.426907
383 4 0.113486 0.445243 0.433531
382 2 0.11613 0.424079 0.44658
1544 4 0.20855 0.498899 0.408502
1555 2 0.235957 0.476255 0.427515
636 4 0.270582 0.467416 0.439793
635 4 0.303765 0.435102 0.458644
634 2 0.287174 0.451259 0.449218
774 4 0.300322 0.416427 0.465252
1557 4 0.25149 0.469217 0.445801
586 2 0.407421 0.443521 0.422177
587 4 0.411389 0.425189 0.43871
661 2 0.453225 0.490058 0.462626
663 4 0.447428 0.475085 0.443458
1058 4 0.122373 0.0853909 0.556784
342 4 0.218905 0.0690716 0.500213
340 2 0.219252 0.0450677 0.507204
2430 4 0.211163 0.00560592 0.523408
341 4 0.2196 0.0210638 0.514195
430 2 0.302921 0.06206 0.519536
431 4 0.316327 0.0699636 0.539105
1031 4 0.291235 0.0664906 0.579765
843 4 0.335136 0.079272 0.539803
1217 4 0.399343 0.0615303 0.546665
1216 2 0.406125 0.0519722 0.524578
841 2 0.360029 0.0769307 0.539631
842 4 0.384922 0.0745895 0.539459
1218 4 0.412908 0.0424141 0.502492
3007 2 0.491623 0.0437797 0.563613
3008 4 0.48418 0.0557619 0.584258
470 4 0.0331174 0.147988 0.523614
1126 2 0.0251251 0.0964465 0.581272
1057 2 0.126253 0.104361 0.572604
1151 4 0.186182 0.10397 0.55139
1150 2 0.197634 0.0918999 0.532727
1152 4 0.209086 0.0798294 0.514063
1181 4 0.228742 0.121307 0.531633
1180 2 0.249365 0.132414 0.522886
1182 4 0.269988 0.14352 0.51414
900 4 0.288555 0.144133 0.513957
898 2 0.303311 0.148866 0.533579
899 4 0.318067 0.1536 0.553202
469 2 0.0364184 0.172769 0.523157
471 4 0.0397195 0.197549 0.522699
1199 4 0.0199909 0.240226 0.586843
877 2 0.0534162 0.215834 0.583634
879 4 0.0690743 0.196407 0.585247
878 4 0.0377582 0.235261 0.582022
1244 4 0.0550193 0.245024 0.576003
1272 4 0.0849574 0.187737 0.57808
858 4 0.171847 0.249993 0.518341
797 4 0.258037 0.24303 0.567803
791 4 0.273832 0.253975 0.567833
576 4 0.392609 0.190566 0.523571
3159 4 0.486147 0.167163 0.577072
983 4 0.0453689 0.305558 0.554614
1245 4 0.0467965 0.294166 0.571742
982 2 0.031938 0.326644 0.55502
1243 2 0.0509079 0.269595 0.573873
1136 4 0.151464 0.299554 0.564973
1135 2 0.146902 0.317843 0.5814
696 4 0.0875121 0.268278 0.494719
948 4 0.170133 0.295444 0.568722
856 2 0.19187 0.264732 0.515688
798 4 0.210455 0.242849 0.583185
796 2 0.234246 0.24294 0.575494
946 2 0.180813 0.273709 0.574945
857 4 0.211892 0.27947 0.513034
1237 2 0.305106 0.326772 0.579247
872 4 0.391599 0.258401 0.555545
871 2 0.388221 0.282578 0.56095
873 4 0.384844 0.306756 0.566356
813 4 0.398137 0.319019 0.556982
906 4 0.470996 0.292379 0.547172
953 4 0.458558 0.306289 0.555934
904 2 0.492401 0.288124 0.559374
952 2 0.444717 0.310022 0.57642
984 4 0.0185071 0.34773 0.555426
3354 4 0.0159065 0.363652 0.568734
8 3 0.150421 0.355489 0.501982
1190 4 0.238617 0.372203 0.563899
803 4 0.227584 0.369511 0.548437
802 2 0.23734 0.356808 0.529236
804 4 0.247095 0.344106 0.510036
930 4 0.32115 0.362778 0.561131
773 4 0.278226 0.407158 0.509144
1239 4 0.31023 0.350457 0.573087
881 4 0.328999 0.402471 0.512463
811 2 0.395971 0.341257 0.545759
812 4 0.393805 0.363496 0.534537
927 4 0.408612 0.37267 0.544997
929 4 0.353175 0.398486 0.575278
928 2 0.337163 0.380632 0.568205
926 4 0.438088 0.410341 0.559584
925 2 0.42335 0.391506 0.55229
539 4 0.0562507 0.45591 0.561088
538 2 0.0772394 0.468824 0.55686
540 4 0.098228 0.481739 0.552633
1160 4 0.129534 0.490366 0.549712
1159 2 0.140329 0.469849 0.559076
1161 4 0.151123 0.449332 0.56844
2244 4 0.110349 0.495734 0.545319
891 4 0.297511 0.465752 0.585789
1951 2 0.368959 0.474339 0.577971
1953 4 0.382241 0.486724 0.560784
1000 2 0.450426 0.450287 0.563242
1001 4 0.449221 0.471731 0.55044
1911 4 0.458702 0.486958 0.560071
2114 4 0.00755327 0.0142119 0.603383
945 4 0.0544816 0.0230464 0.655743
823 2 0.153473 0.0159362 0.634439
825 4 0.142709 0.0349365 0.622261
1032 4 0.24687 0.0839517 0.594851
951 4 0.305607 0.0539177 0.584428
949 2 0.316615 0.0380005 0.60026
950 4 0.327624 0.0220833 0.616091
1030 2 0.269052 0.0752211 0.587308
2283 4 0.409055 0.0188943 0.611399
809 4 0.464409 0.0550926 0.587872
808 2 0.463546 0.0646076 0.610979
42 3 0.463109 0.0624134 0.654182
810 4 0.462683 0.0741227 0.634085
1083 4 0.061337 0.0937043 0.603265
1082 4 0.0623058 0.0843918 0.652388
938 4 0.0631161 0.133854 0.582974
1081 2 0.0618214 0.089048 0.627826
1127 4 0.0493148 0.0953118 0.587497
939 4 0.11137 0.145442 0.589137
1155 4 0.130752 0.143541 0.590912
937 2 0.0872432 0.139648 0.586056
1059 4 0.130133 0.123331 0.588424
1153 2 0.154041 0.147634 0.59904
1154 4 0.17733 0.151728 0.607168
41 1 0.453977 0.0832035 0.65786
43 3 0.431299 0.0807858 0.662131
45 3 0.457066 0.0961315 0.639368
3425 4 0.46934 0.104565 0.657447
3424 2 0.487605 0.121094 0.653165
1179 4 0.0127915 0.228922 0.660151
1271 4 0.127551 0.208622 0.593902
1270 2 0.106254 0.198179 0.585991
1221 4 0.167934 0.163495 0.621333
1212 4 0.201657 0.189093 0.663313
1219 2 0.176358 0.179182 0.638886
1220 4 0.184782 0.194869 0.65644
1210 2 0.226571 0.188425 0.665325
888 4 0.263816 0.175488 0.657832
886 2 0.288246 0.172937 0.662506
1193 4 0.363108 0.206275 0.649417
1192 2 0.344704 0.194735 0.661799
947 4 0.191492 0.251975 0.581168
1238 4 0.299981 0.303087 0.585407
792 4 0.298791 0.286479 0.59649
790 2 0.286312 0.270227 0.582162
807 4 0.325412 0.308114 0.66531
805 2 0.325073 0.329439 0.65226
954 4 0.430877 0.313756 0.596906
3123 4 0.48807 0.271244 0.662611
1039 2 0.0576961 0.394095 0.607983
1041 4 0.0364805 0.396196 0.621047
3264 4 0.0319288 0.382138 0.635365
3262 2 0.0400959 0.36525 0.651896
3240 4 0.0170927 0.393856 0.64214
1040 4 0.0789116 0.391995 0.594919
3238 2 0.0033964 0.410246 0.629142
897 4 0.150955 0.347055 0.610827
993 4 0.0975922 0.386275 0.592272
1137 4 0.14234 0.336133 0.597828
991 2 0.115601 0.369456 0.596509
992 4 0.13361 0.352636 0.600746
895 2 0.169749 0.36329 0.607933
1189 2 0.220994 0.379964 0.579848
1172 4 0.215979 0.399464 0.605849
1191 4 0.203371 0.387724 0.595798
896 4 0.188543 0.379525 0.605039
1171 2 0.205998 0.416726 0.620934
806 4 0.324734 0.350764 0.639209
1204 2 0.409421 0.407841 0.647239
1206 4 0.416257 0.409065 0.623219
1188 4 0.156423 0.459108 0.585936
2172 4 0.124617 0.497349 0.673135
1173 4 0.196016 0.433988 0.636019
1187 4 0.180763 0.438086 0.624228
1186 2 0.168593 0.448597 0.605082
889 2 0.319419 0.459751 0.59624
890 4 0.341327 0.453751 0.606691
1230 4 0.332554 0.44463 0.64087
1952 4 0.355678 0.461954 0.595158
1002 4 0.451631 0.428843 0.576043
1269 4 0.440053 0.459041 0.635386
1267 2 0.448937 0.480029 0.64567
1268 4 0.45782 0.501017 0.655954
943 2 0.0567544 0.0431871 0.670385
944 4 0.0590272 0.0633278 0.685026
1076 4 0.0594287 0.0763181 0.670911
1283 4 0.123903 0.0557499 0.708691
1282 2 0.127389 0.0777865 0.697403
2049 4 0.139472 0.0510051 0.752418
1147 2 0.221629 0.0497748 0.712701
1148 4 0.237345 0.0683764 0.707028
1149 4 0.205914 0.0311731 0.718374
1004 4 0.38381 0.0860451 0.70675
1163 4 0.473436 0.073369 0.672944
1162 2 0.490805 0.0593072 0.684158
2320 2 0.496014 0.0444798 0.739173
864 4 0.0524913 0.109597 0.722795
1075 2 0.0570565 0.0954779 0.6868
1077 4 0.0546844 0.114638 0.702689
1107 4 0.0692232 0.113653 0.714814
851 4 0.0665909 0.129136 0.70158
850 2 0.0662414 0.151534 0.690473
862 2 0.0348851 0.10151 0.738601
1105 2 0.08804 0.114976 0.731226
1284 4 0.130876 0.099823 0.686115
1106 4 0.106857 0.116299 0.747638
909 4 0.144476 0.15324 0.709332
1226 4 0.237137 0.0879642 0.70956
908 4 0.192909 0.140985 0.707133
907 2 0.168692 0.147113 0.708233
1227 4 0.206837 0.127541 0.705529
1225 2 0.221987 0.107753 0.707545
829 2 0.322976 0.13817 0.688067
830 4 0.320072 0.152646 0.667888
1003 2 0.363741 0.100646 0.709789
1005 4 0.343671 0.115246 0.712827
831 4 0.325881 0.123694 0.708246
44 3 0.464492 0.0928884 0.676137
852 4 0.065892 0.173933 0.679365
1214 4 0.00838606 0.19996 0.751963
1177 2 0.998857 0.231236 0.680782
1073 4 0.113023 0.217692 0.736003
1072 2 0.105045 0.24025 0.728746
1211 4 0.251484 0.187758 0.667337
1194 4 0.326301 0.183194 0.67418
887 4 0.312676 0.170386 0.667179
1025 4 0.436606 0.178233 0.67187
1262 4 0.464126 0.211982 0.713714
1142 4 0.470031 0.184121 0.72839
1024 2 0.449648 0.184832 0.692156
1141 2 0.455864 0.175033 0.746881
1026 4 0.462691 0.191432 0.712441
1261 2 0.455736 0.230256 0.728576
1145 4 0.477297 0.198707 0.717863
1263 4 0.447346 0.248529 0.743437
1074 4 0.0970673 0.262808 0.721489
1209 4 0.135533 0.304935 0.710872
1207 2 0.117658 0.287886 0.707
1208 4 0.0997829 0.270837 0.703127
821 4 0.14379 0.316798 0.694431
820 2 0.166574 0.306499 0.69453
822 4 0.189358 0.2962 0.694629
1063 2 0.227689 0.30443 0.709554
1064 4 0.20307 0.300479 0.707702
1065 4 0.252309 0.308381 0.711407
3263 4 0.0482631 0.348362 0.668427
892 2 0.0153079 0.357625 0.736999
894 4 0.0377303 0.366258 0.73008
1280 4 0.054915 0.373513 0.722407
1279 2 0.0592081 0.3974 0.716392
816 4 0.0702966 0.361571 0.728338
893 4 0.992885 0.348992 0.743919
814 2 0.0898015 0.353888 0.741966
815 4 0.109306 0.346204 0.755593
1028 4 0.219095 0.383189 0.712388
1066 2 0.204275 0.372925 0.743382
1068 4 0.221752 0.369133 0.725908
1027 2 0.232857 0.402829 0.705313
941 4 0.175457 0.366692 0.749275
1019 4 0.367727 0.383751 0.738136
1018 2 0.377964 0.405982 0.733023
1205 4 0.402585 0.406617 0.671258
1981 2 0.07817 0.453342 0.716307
1281 4 0.0635013 0.421286 0.710377
1983 4 0.057177 0.43977 0.716816
1982 4 0.0991629 0.466915 0.715799
1029 4 0.246619 0.422469 0.698238
1140 4 0.235803 0.438221 0.694596
1138 2 0.255377 0.453552 0.69195
1139 4 0.274952 0.468882 0.689304
1987 2 0.33154 0.473347 0.726236
1229 4 0.334437 0.453011 0.690134
1228 2 0.333496 0.448821 0.665502
1988 4 0.325765 0.478011 0.750112
1989 4 0.337314 0.468683 0.702359
1020 4 0.388202 0.428213 0.72791
1101 4 0.456606 0.500738 0.677793
2991 4 0.00786814 0.0349529 0.776757
2989 2 0.00691463 0.0584645 0.768302
2990 4 0.00596111 0.0819761 0.759848
1202 4 0.121936 0.0588718 0.758022
1201 2 0.119264 0.0804324 0.770399
2047 2 0.143139 0.0264619 0.755478
2048 4 0.146805 0.00191863 0.758538
1257 4 0.240583 0.0634388 0.754238
1255 2 0.239439 0.069294 0.77852
1256 4 0.238295 0.0751493 0.802801
817 2 0.33182 0.0412373 0.811907
819 4 0.32276 0.0605253 0.824986
1085 4 0.310406 0.0763576 0.822497
840 4 0.251539 0.0834802 0.818037
818 4 0.34088 0.0219493 0.798827
1050 4 0.339411 0.00715257 0.774789
974 4 0.345046 0.00305018 0.793514
1113 4 0.423682 0.054283 0.777359
2322 4 0.489015 0.048454 0.762846
1111 2 0.443995 0.0624839 0.789413
845 4 0.482045 0.0795292 0.800461
1112 4 0.464308 0.0706847 0.801467
863 4 0.017279 0.0934231 0.754406
833 4 0.0124834 0.0951017 0.773126
832 2 0.0203972 0.110258 0.791369
834 4 0.028311 0.125415 0.809613
1125 4 0.0308804 0.140494 0.822893
1203 4 0.116591 0.101993 0.782775
911 4 0.101409 0.118943 0.813872
34 3 0.106691 0.117908 0.76926
31 1 0.112107 0.127411 0.789724
35 3 0.0932921 0.135281 0.799859
32 3 0.121744 0.111342 0.803068
33 3 0.127274 0.144702 0.786663
1084 2 0.314851 0.0986628 0.81211
1086 4 0.319296 0.120968 0.801722
1143 4 0.441698 0.165945 0.765371
48 3 0.435084 0.163846 0.78357
844 2 0.496208 0.084617 0.780494
1130 4 0.131685 0.199994 0.797403
1129 2 0.151962 0.210855 0.787602
978 4 0.245967 0.210174 0.766054
1131 4 0.172239 0.221715 0.7778
1277 4 0.187922 0.230218 0.771933
1276 2 0.205875 0.245638 0.763865
977 4 0.289145 0.234852 0.77128
918 4 0.305915 0.236409 0.779788
976 2 0.267556 0.222513 0.768667
1298 4 0.302374 0.222921 0.764158
1297 2 0.316737 0.203222 0.769708
1299 4 0.331101 0.183522 0.775258
1042 2 0.380912 0.210523 0.7966
1043 4 0.389578 0.187242 0.799447