ITEM: TIMESTEP
870000
ITEM: NUMBER OF ATOMS
4590
ITEM: BOX BOUNDS pp pp pp
-9.9985700000000008e+00 9.9985700000000008e+00
-9.9985700000000008e+00 9.9985700000000008e+00
-9.9985700000000008e+00 9.9985700000000008e+00
ITEM: ATOMS id type xs ys zs
1668 4 0.0749418 0.0566166 0.0657492
1475 4 0.297193 0.0312984 0.0769946
492 4 0.288991 0.0476544 0.069379
1474 2 0.303117 0.00796394 0.0702434
297 4 0.324797 0.0836412 0.0489839
747 4 0.453599 0.0528559 0.0158437
2974 2 0.476781 0.0238505 0.0367246
2976 4 0.490314 0.00424416 0.0443166
2975 4 0.463248 0.0434568 0.0291326
986 4 0.445959 0.0359743 0.0214433
745 2 0.445669 0.0765303 0.014494
985 2 0.42525 0.0224554 0.0177634
567 4 0.198223 0.143446 0.0498851
565 2 0.181092 0.159293 0.0588623
360 4 0.308859 0.160933 0.0620975
358 2 0.331815 0.153715 0.0688861
295 2 0.341705 0.101997 0.0474368
296 4 0.358612 0.120352 0.0458897
557 4 0.375198 0.111054 0.0380377
556 2 0.396255 0.107825 0.0249473
769 2 0.395316 0.162418 0.0555691
770 4 0.370635 0.161201 0.0517588
558 4 0.417312 0.104597 0.0118568
746 4 0.43774 0.100205 0.0131444
771 4 0.419998 0.163634 0.0593793
554 4 0.0799549 0.256074 0.00667254
566 4 0.163961 0.17514 0.0678394
664 2 0.354526 0.200625 0.0194465
665 4 0.348481 0.176396 0.0181844
666 4 0.360571 0.224854 0.0207087
323 4 0.411399 0.234398 0.0595418
322 2 0.409683 0.250687 0.0406498
553 2 0.0775611 0.271944 0.025846
555 4 0.0751674 0.287813 0.0450194
656 4 0.0035422 0.308721 0.0641907
293 4 0.164733 0.28843 0.0266096
507 4 0.15946 0.301011 0.0393585
287 4 0.155984 0.322086 0.0423524
292 2 0.160743 0.275399 0.00564681
505 2 0.175507 0.290761 0.0555638
483 4 0.206092 0.277081 0.0867782
506 4 0.191554 0.280511 0.0717691
481 2 0.224892 0.270145 0.0718239
573 4 0.260849 0.26097 0.046104
482 4 0.243691 0.263208 0.0568697
572 4 0.29574 0.267622 0.0109034
571 2 0.278295 0.264296 0.0285037
957 4 0.319427 0.317274 0.0213294
1069 2 0.398216 0.291404 0.00132033
1070 4 0.412947 0.285755 0.0207175
1071 4 0.383484 0.297052 0.981923
324 4 0.407967 0.266976 0.0217578
741 4 0.346533 0.341313 0.0533927
955 2 0.329706 0.337827 0.011476
671 4 0.437978 0.312449 0.07747
280 2 0.44093 0.297564 0.0424682
281 4 0.450183 0.301563 0.06535
282 4 0.431678 0.293566 0.0195864
551 4 0.0659642 0.383913 0.0952987
550 2 0.0899203 0.379741 0.0894776
552 4 0.113876 0.375569 0.0836565
286 2 0.146644 0.345156 0.0399624
288 4 0.137305 0.368226 0.0375724
250 2 0.304183 0.40194 0.0395927
251 4 0.310322 0.382088 0.0256862
739 2 0.338609 0.347471 0.0762939
245 4 0.228299 0.438122 0.0692992
626 4 0.208746 0.441563 0.0642587
244 2 0.240103 0.448597 0.0499051
246 4 0.251907 0.459072 0.0305111
272 4 0.256439 0.471236 0.0163074
252 4 0.298044 0.421792 0.0534991
609 4 0.305364 0.428111 0.071124
563 4 0.471039 0.47776 0.0323868
228 4 0.473934 0.464853 0.0472186
226 2 0.467133 0.44658 0.0628713
562 2 0.456467 0.498076 0.0321544
1666 2 0.0827587 0.06684 0.0871865
19 3 0.0682996 0.0519599 0.148989
1667 4 0.0905756 0.0770635 0.108624
448 2 0.198996 0.0789663 0.161195
1506 4 0.245757 0.00730543 0.152982
490 2 0.271333 0.0561901 0.0848874
652 2 0.282198 0.0291321 0.163416
653 4 0.305225 0.0370754 0.169058
491 4 0.253675 0.0647258 0.100396
654 4 0.259171 0.0211888 0.157774
311 4 0.386511 0.0702432 0.158425
758 4 0.372989 0.0626405 0.173864
2722 2 0.466833 0.0490059 0.139116
2723 4 0.443112 0.0543133 0.133255
2724 4 0.490553 0.0436985 0.144978
1760 4 0.490935 0.0246828 0.147442
1759 2 0.494834 0.00145655 0.139045
701 4 0.0812049 0.0886036 0.123168
700 2 0.0834291 0.112035 0.131606
702 4 0.0856532 0.135467 0.140043
380 4 0.0258744 0.107164 0.172477
476 4 0.10149 0.144008 0.148966
449 4 0.192531 0.0987202 0.147297
237 4 0.215855 0.153998 0.174074
235 2 0.20215 0.135179 0.164951
236 4 0.188445 0.116361 0.155829
737 4 0.201239 0.16052 0.11952
582 4 0.25515 0.138208 0.166858
581 4 0.303465 0.125612 0.169624
580 2 0.279307 0.13191 0.168241
359 4 0.354771 0.146496 0.0756748
310 2 0.402825 0.0888175 0.154682
628 2 0.399566 0.135258 0.126472
630 4 0.390868 0.146429 0.105863
312 4 0.41914 0.107392 0.150939
629 4 0.408263 0.124087 0.147081
2625 4 0.022057 0.192953 0.114111
2623 2 0.00918974 0.171521 0.113579
736 2 0.181475 0.175649 0.121898
738 4 0.16171 0.190778 0.124277
461 4 0.306134 0.238335 0.0951757
460 2 0.323871 0.220752 0.0939929
354 4 0.286591 0.231443 0.103972
278 4 0.26635 0.238162 0.165643
352 2 0.280128 0.236833 0.127517
353 4 0.273665 0.242223 0.151062
284 4 0.287746 0.241864 0.163577
254 4 0.383477 0.161764 0.117637
462 4 0.341608 0.203168 0.09281
255 4 0.358869 0.203344 0.104743
253 2 0.371173 0.182554 0.11119
765 4 0.381477 0.235545 0.146763
763 2 0.361684 0.228287 0.160207
624 4 0.37147 0.248926 0.134771
518 4 0.482532 0.239052 0.116672
528 4 0.466198 0.237694 0.128266
339 4 0.0827986 0.271931 0.125312
337 2 0.081544 0.261785 0.14813
536 4 0.200032 0.293266 0.122237
535 2 0.195431 0.31773 0.124588
612 4 0.25955 0.307432 0.174501
754 2 0.263907 0.279269 0.15573
755 4 0.260045 0.254604 0.154352
622 2 0.377184 0.26065 0.113439
623 4 0.382898 0.272375 0.0921062
670 2 0.422525 0.329094 0.0879253
526 2 0.460602 0.257329 0.1427
527 4 0.455006 0.276964 0.157134
648 4 0.0762467 0.356703 0.157589
455 4 0.123558 0.383743 0.0987356
454 2 0.14681 0.384809 0.0896045
456 4 0.170062 0.385875 0.0804735
537 4 0.190831 0.342194 0.12694
302 4 0.306642 0.363219 0.155556
387 4 0.321581 0.350674 0.152988
385 2 0.334162 0.353889 0.131621
672 4 0.407071 0.345738 0.0983806
740 4 0.330684 0.353628 0.0991952
15 3 0.363036 0.366719 0.102292
386 4 0.346744 0.357104 0.110254
11 1 0.383787 0.360757 0.109537
13 3 0.38415 0.359957 0.132724
14 3 0.399524 0.375996 0.101889
495 4 0.413437 0.390125 0.0974383
12 3 0.388993 0.339921 0.101295
493 2 0.41036 0.413355 0.106161
315 4 0.9955 0.4434 0.128493
313 2 0.99996 0.431091 0.149796
314 4 0.00441896 0.418782 0.171098
625 2 0.196424 0.448606 0.0848432
627 4 0.184101 0.455649 0.105428
607 2 0.320556 0.437646 0.0885446
638 4 0.258289 0.500256 0.16446
608 4 0.335748 0.44718 0.105965
658 2 0.366586 0.446478 0.118546
659 4 0.345119 0.459259 0.119546
660 4 0.388052 0.433696 0.117546
525 4 0.362124 0.498203 0.0823143
494 4 0.407282 0.436585 0.114883
227 4 0.460332 0.428307 0.078524
18 3 0.067976 0.033933 0.182446
16 1 0.061019 0.0528813 0.171002
20 3 0.0692534 0.0715403 0.181135
17 3 0.0380301 0.0536693 0.171204
2480 4 0.0212926 0.0448967 0.17974
1422 4 0.0220444 0.0273606 0.170674
673 2 0.121214 0.0143891 0.233832
674 4 0.136525 0.0218083 0.21551
450 4 0.205461 0.0592125 0.175094
693 4 0.229016 0.063077 0.216857
691 2 0.225173 0.0635322 0.241559
689 4 0.179593 0.0176002 0.239571
688 2 0.193582 0.00192287 0.226017
24 3 0.316674 0.0645957 0.24563
21 1 0.33518 0.0520734 0.239373
25 3 0.330094 0.0391954 0.221291
759 4 0.347252 0.0524019 0.215499
22 3 0.352337 0.0663844 0.233898
757 2 0.360121 0.0575212 0.194681
23 3 0.341974 0.0386201 0.257015
742 2 0.502467 0.0629739 0.234183
578 4 0.0808504 0.113155 0.188469
379 2 0.0241543 0.12915 0.184259
381 4 0.0224342 0.151137 0.196041
512 4 0.0384197 0.147529 0.208577
511 2 0.0465793 0.159453 0.228984
475 2 0.106956 0.147806 0.173067
477 4 0.112423 0.151605 0.197168
577 2 0.0861284 0.10136 0.209875
579 4 0.0914065 0.0895649 0.23128
333 4 0.46983 0.120051 0.236944
331 2 0.467901 0.14464 0.241047
513 4 0.0547388 0.171376 0.24939
338 4 0.0802893 0.251639 0.170948
363 4 0.0767458 0.236155 0.184325
279 4 0.227517 0.218645 0.190377
546 4 0.184917 0.192413 0.233358
277 2 0.246933 0.228404 0.17801
283 2 0.308777 0.235212 0.175352
285 4 0.329807 0.228559 0.187127
764 4 0.341892 0.22103 0.173652
520 2 0.494841 0.189423 0.219759
521 4 0.480019 0.180564 0.237843
332 4 0.465972 0.169229 0.24515
394 2 0.0133903 0.257632 0.219777
395 4 0.0275778 0.271966 0.204997
748 2 0.0773533 0.29168 0.248008
749 4 0.0763947 0.268308 0.239177
361 2 0.0829969 0.249764 0.204347
371 4 0.1545 0.284045 0.211064
370 2 0.130549 0.278467 0.215584
372 4 0.106598 0.27289 0.220103
362 4 0.089248 0.263373 0.224369
343 2 0.237765 0.303073 0.246255
610 2 0.254474 0.320737 0.195053
611 4 0.249398 0.334042 0.215606
756 4 0.267768 0.303934 0.157108
344 4 0.243861 0.320109 0.228997
307 2 0.322982 0.297973 0.239268
308 4 0.32479 0.276489 0.226605
647 4 0.0823852 0.339405 0.204106
646 2 0.0793159 0.348054 0.180847
415 2 0.201848 0.404313 0.16843
291 4 0.240901 0.387776 0.17467
416 4 0.222022 0.389571 0.167483
417 4 0.181675 0.419054 0.169377
289 2 0.255169 0.406014 0.184103
303 4 0.308251 0.368825 0.205222
301 2 0.307447 0.366022 0.180389
729 4 0.300727 0.379928 0.219677
727 2 0.317206 0.380134 0.23848
644 4 0.42282 0.386606 0.241634
595 2 0.471818 0.406323 0.183812
597 4 0.471411 0.38354 0.194105
643 2 0.439593 0.382391 0.223577
645 4 0.456367 0.378176 0.205519
262 2 0.00908638 0.431219 0.242331
767 4 0.274391 0.489281 0.171417
290 4 0.269437 0.424252 0.193536
768 4 0.27695 0.440394 0.181624
766 2 0.27567 0.464838 0.17652
596 4 0.472224 0.429107 0.17352
231 4 0.445711 0.472455 0.218356
229 2 0.428927 0.490653 0.214848
232 2 0.0191169 0.0236543 0.298268
233 4 0.0399644 0.017928 0.285707
1402 2 0.0755417 0.0228962 0.273621
1404 4 0.052366 0.0316515 0.276999
428 4 0.0559944 0.0226715 0.34015
675 4 0.105903 0.00697002 0.252154
1403 4 0.0987175 0.0141409 0.270244
1464 4 0.111299 0.00877347 0.284401
692 4 0.221329 0.0639874 0.266261
723 4 0.236528 0.0634656 0.279682
721 2 0.234731 0.084107 0.293677
699 4 0.35329 0.0732383 0.335149
479 4 0.493969 0.0519588 0.29548
743 4 0.49297 0.0549606 0.25588
478 2 0.474266 0.0671806 0.293184
480 4 0.454563 0.0824024 0.290888
258 4 0.43493 0.0260592 0.3297
1428 4 0.452201 0.0170387 0.336911
393 4 0.0510733 0.163869 0.267998
398 4 0.0573401 0.140581 0.305553
397 2 0.057614 0.119075 0.318305
399 4 0.0578878 0.0975694 0.331057
722 4 0.232933 0.104748 0.307673
249 4 0.228077 0.111809 0.32644
404 4 0.230054 0.131418 0.330655
28 3 0.302629 0.157166 0.24639
403 2 0.250518 0.145708 0.329174
405 4 0.270982 0.159998 0.327692
26 1 0.309333 0.172143 0.262795
29 3 0.327692 0.163703 0.274202
632 4 0.386284 0.11313 0.26586
707 4 0.343255 0.156095 0.284088
633 4 0.34509 0.135968 0.282659
631 2 0.365687 0.124549 0.274259
706 2 0.344899 0.165021 0.307386
350 4 0.390946 0.0969582 0.276887
351 4 0.438002 0.0945587 0.293641
349 2 0.414474 0.0957585 0.285264
444 4 0.0100254 0.21808 0.297479
391 2 0.0699 0.176661 0.278346
442 2 0.00831281 0.227304 0.274302
443 4 0.00660023 0.236527 0.251125
389 4 0.0741888 0.237972 0.332601
392 4 0.0887267 0.189454 0.288695
388 2 0.0956555 0.239145 0.319834
545 4 0.165592 0.216785 0.272514
544 2 0.175254 0.204599 0.252936
400 2 0.194241 0.232227 0.300597
402 4 0.208816 0.218907 0.285257
27 3 0.315279 0.191977 0.252775
30 3 0.292216 0.17592 0.277333
708 4 0.346543 0.173946 0.330685
717 4 0.390183 0.221768 0.321057
762 4 0.4743 0.183813 0.255933
761 4 0.471031 0.198601 0.303592
760 2 0.472666 0.191207 0.279763
750 4 0.0783119 0.315053 0.25684
390 4 0.117122 0.240318 0.307068
300 4 0.0977578 0.312341 0.253248
345 4 0.23167 0.286038 0.263513
401 4 0.179665 0.245546 0.315938
496 2 0.31899 0.330438 0.288545
497 4 0.311622 0.326763 0.312154
377 4 0.298557 0.312756 0.311495
498 4 0.326357 0.334113 0.264936
309 4 0.321174 0.319457 0.25193
615 4 0.370925 0.339424 0.318707
541 2 0.376859 0.300463 0.326837
543 4 0.363985 0.321278 0.321719
364 2 0.00780186 0.383864 0.291803
365 4 0.0195452 0.401498 0.278525
601 2 0.0576943 0.403734 0.293559
603 4 0.0362453 0.392806 0.2868
602 4 0.0791433 0.414662 0.300319
299 4 0.132027 0.346794 0.265051
298 2 0.114893 0.329568 0.259149
734 4 0.151385 0.35039 0.257364
676 2 0.20322 0.33393 0.322551
677 4 0.201805 0.341439 0.298744
733 2 0.173136 0.345853 0.268832
735 4 0.194887 0.341317 0.280299
728 4 0.333685 0.380341 0.257284
433 2 0.305143 0.373965 0.322731
435 4 0.28308 0.366664 0.331954
447 4 0.406188 0.390803 0.250257
434 4 0.327206 0.381267 0.313507
613 2 0.359058 0.36141 0.317724
614 4 0.347192 0.383396 0.316741
445 2 0.391284 0.372105 0.25757
446 4 0.376381 0.353408 0.264882
1757 4 0.0773472 0.485342 0.269829
264 4 0.0246392 0.433643 0.261758
549 4 0.075432 0.426018 0.316696
2463 4 0.00990061 0.476111 0.318661
2690 4 0.993724 0.474385 0.305882
2461 2 0.0238785 0.496261 0.323537
777 4 0.0907653 0.465717 0.312041
775 2 0.102963 0.475532 0.331537
1756 2 0.0891486 0.506535 0.263766
412 2 0.212463 0.488645 0.327682
1436 4 0.248699 0.502918 0.318474
436 2 0.333167 0.463157 0.322267
1437 4 0.288373 0.476774 0.302878
1435 2 0.268536 0.489846 0.310676
1803 4 0.321937 0.502328 0.247723
437 4 0.347966 0.449597 0.307358
714 4 0.463999 0.469032 0.339836
427 2 0.0633139 0.998769 0.339606
316 2 0.0571875 0.0600929 0.332495
317 4 0.0455995 0.037943 0.331964
1781 4 0.125207 0.00216728 0.40143
368 4 0.115764 0.0128841 0.41573
439 2 0.314936 0.998754 0.413927
1700 4 0.292939 0.0331885 0.336554
1699 2 0.286731 0.00984079 0.342997
683 4 0.283272 0.0650457 0.40802
697 2 0.369425 0.0557849 0.342909
698 4 0.38556 0.0383316 0.350669
257 4 0.400065 0.0357231 0.364221
256 2 0.417497 0.0308911 0.34696
732 4 0.0758381 0.100795 0.337667
2586 4 0.00660154 0.142497 0.379714
318 4 0.0687754 0.0822427 0.333026
457 2 0.020681 0.162611 0.414896
458 4 0.00716147 0.152163 0.396641
606 4 0.132017 0.0872956 0.354669
604 2 0.154648 0.0978735 0.355713
731 4 0.115056 0.0902683 0.366853
730 2 0.0954471 0.0955317 0.35226
598 2 0.155125 0.151042 0.374685
600 4 0.171642 0.145375 0.392581
599 4 0.138608 0.156709 0.356789
605 4 0.17728 0.108451 0.356756
248 4 0.196288 0.104147 0.364275
247 2 0.212182 0.107978 0.345357
473 4 0.212672 0.160016 0.364819
682 2 0.293377 0.0869299 0.401377
684 4 0.303483 0.108814 0.394734
452 4 0.469066 0.132849 0.401536
451 2 0.455717 0.149092 0.41507
686 4 0.162981 0.180245 0.418174
275 4 0.160997 0.233915 0.350771
474 4 0.214965 0.207529 0.380248
276 4 0.201797 0.222602 0.377381
472 2 0.213819 0.183772 0.372533
274 2 0.181397 0.228258 0.364076
715 2 0.401635 0.220119 0.343222
716 4 0.413087 0.21847 0.365388
467 4 0.418324 0.211576 0.383372
466 2 0.399543 0.205967 0.398896
269 4 0.487565 0.213558 0.412337
268 2 0.470052 0.229068 0.403509
270 4 0.45254 0.244577 0.39468
347 4 0.0826908 0.310876 0.365858
346 2 0.0580966 0.312946 0.369861
348 4 0.0335024 0.315016 0.373863
618 4 0.100312 0.303449 0.361187
616 2 0.123879 0.296409 0.356689
617 4 0.147446 0.289369 0.352192
678 4 0.204634 0.326421 0.346359
375 4 0.189783 0.314079 0.351862
373 2 0.186832 0.312078 0.37661
374 4 0.183881 0.310078 0.401358
376 2 0.280989 0.301889 0.325582
378 4 0.263421 0.291022 0.339669
542 4 0.389734 0.279649 0.331955
420 4 0.404439 0.27457 0.344227
418 2 0.428601 0.268509 0.342073
419 4 0.452763 0.262448 0.339918
547 2 0.077531 0.423194 0.341451
548 4 0.0796299 0.420371 0.366206
510 4 0.207991 0.380027 0.363307
508 2 0.230394 0.369 0.364613
509 4 0.252797 0.357973 0.36592
561 4 0.469055 0.398608 0.395555
751 2 0.45104 0.410594 0.358952
753 4 0.443339 0.424427 0.339599
752 4 0.458742 0.396761 0.378304
407 4 0.0736499 0.437692 0.37262
406 2 0.0840465 0.434559 0.395142
1545 4 0.158899 0.502575 0.406257
500 4 0.100358 0.496042 0.358671
570 4 0.141111 0.493206 0.408461
776 4 0.11516 0.485346 0.351032
499 2 0.0983843 0.509168 0.37986
1555 2 0.24355 0.489076 0.412158
414 4 0.192306 0.483617 0.341595
438 4 0.318367 0.476717 0.337176
3 3 0.299872 0.468965 0.349926
1 1 0.303609 0.491527 0.353852
4 3 0.312792 0.49448 0.374956
2 3 0.318405 0.499461 0.338127
1742 4 0.400914 0.489483 0.336062
594 4 0.396095 0.475438 0.348167
592 2 0.393138 0.46928 0.372219
593 4 0.390181 0.463122 0.396271
588 4 0.38605 0.446859 0.407939
118 3 0.487366 0.427553 0.333928
712 2 0.439259 0.472228 0.341533
713 4 0.414519 0.475425 0.343231
119 3 0.481512 0.464239 0.341944
116 1 0.494254 0.445498 0.346925
117 3 0.491301 0.440179 0.369109
718 2 0.0422811 0.0231094 0.462773
720 4 0.0285404 0.0232546 0.483662
2237 4 0.0150364 0.0135611 0.495787
719 4 0.0560219 0.0229642 0.441884
369 4 0.0696775 0.00982672 0.434896
367 2 0.0927209 0.0113554 0.425313
340 2 0.216341 0.0481289 0.498992
341 4 0.218262 0.0233845 0.495958
2430 4 0.210232 0.0138139 0.51129
441 4 0.319769 0.0215227 0.42306
962 4 0.305711 0.0280317 0.434414
961 2 0.304908 0.03229 0.45904
963 4 0.304106 0.0365483 0.483665
432 4 0.29382 0.0533352 0.489615
426 4 0.386659 0.0380994 0.416985
424 2 0.362674 0.0311706 0.415613
425 4 0.338689 0.0242418 0.414242
725 4 0.404582 0.0659425 0.428536
724 2 0.409285 0.079912 0.448733
2879 4 0.49379 0.0840123 0.416809
459 4 0.0342004 0.173058 0.433151
1181 4 0.241753 0.1269 0.489586
320 4 0.308425 0.124601 0.406728
321 4 0.301608 0.162169 0.439023
319 2 0.305017 0.143385 0.422875
726 4 0.413988 0.0938815 0.46893
516 4 0.385955 0.160879 0.463756
453 4 0.442368 0.165334 0.428604
2878 2 0.483835 0.099697 0.433545
2880 4 0.473879 0.115382 0.45028
640 2 0.473384 0.13865 0.484721
642 4 0.4817 0.129111 0.463156
641 4 0.465067 0.148188 0.506285
260 4 0.0528314 0.179345 0.440206
259 2 0.0766552 0.186803 0.441612
695 4 0.0546993 0.264526 0.469271
685 2 0.140419 0.185601 0.427524
687 4 0.117857 0.190957 0.436875
261 4 0.100479 0.194261 0.443019
1035 4 0.114191 0.197802 0.455844
1033 2 0.117308 0.202804 0.480143
489 4 0.329691 0.219742 0.437202
514 2 0.405231 0.159116 0.447929
515 4 0.424507 0.157354 0.432101
468 4 0.380763 0.200357 0.41442
411 4 0.333483 0.201805 0.447533
409 2 0.357242 0.19814 0.440658
410 4 0.381001 0.194476 0.433783
575 4 0.381347 0.174559 0.477247
305 4 0.503952 0.188432 0.427486
2847 4 0.00914904 0.329886 0.473298
694 2 0.0782821 0.26709 0.461368
696 4 0.101865 0.269653 0.453465
1258 2 0.127887 0.287151 0.483486
1260 4 0.113723 0.270967 0.470734
651 4 0.241702 0.279776 0.494562
649 2 0.25261 0.258643 0.502281
487 2 0.320145 0.242839 0.436458
488 4 0.310599 0.265937 0.435714
266 4 0.362771 0.258195 0.452588
267 4 0.374881 0.278477 0.496664
265 2 0.368826 0.268336 0.474626
583 2 0.477601 0.26883 0.475481
585 4 0.45691 0.26267 0.462867
584 4 0.498291 0.274991 0.488096
681 4 0.0121251 0.414034 0.414341
326 4 0.0678152 0.361287 0.465
6 1 0.145305 0.342489 0.487251
327 4 0.10965 0.357242 0.492097
325 2 0.0887324 0.359265 0.478549
7 3 0.128402 0.358091 0.487235
711 4 0.150202 0.377894 0.42597
10 3 0.153966 0.340792 0.466257
502 2 0.230284 0.381294 0.4239
504 4 0.210825 0.394589 0.415544
709 2 0.17257 0.389063 0.426238
710 4 0.194939 0.400232 0.426506
772 2 0.280817 0.407517 0.491832
669 4 0.289726 0.414389 0.45142
503 4 0.249742 0.368 0.432256
336 4 0.32427 0.364115 0.436746
668 4 0.314198 0.377581 0.428033
667 2 0.301962 0.395985 0.439726
587 4 0.41665 0.41704 0.433921
882 4 0.34795 0.414134 0.469555
335 4 0.370601 0.348256 0.426616
334 2 0.347436 0.356186 0.431681
238 2 0.400889 0.378799 0.436848
240 4 0.384069 0.360376 0.435146
880 2 0.340761 0.411545 0.493362
559 2 0.487117 0.395464 0.412556
239 4 0.417709 0.397221 0.43855
560 4 0.505179 0.39232 0.429558
3307 2 0.493569 0.39437 0.490537
3309 4 0.477948 0.410824 0.501046
679 2 0.0231593 0.432527 0.427047
680 4 0.0341936 0.451019 0.439753
1383 4 0.0287934 0.467156 0.427771
1381 2 0.0230233 0.488688 0.439096
384 4 0.0796888 0.430971 0.476594
408 4 0.0944431 0.431426 0.417665
568 2 0.125491 0.476937 0.419256
382 2 0.0880608 0.438216 0.454175
383 4 0.0964328 0.445461 0.431757
569 4 0.109872 0.460668 0.430051
1557 4 0.261822 0.47657 0.423774
636 4 0.273131 0.464355 0.435837
774 4 0.290647 0.41918 0.47202
635 4 0.286132 0.438886 0.476861
634 2 0.279631 0.451621 0.456349
586 2 0.40135 0.431949 0.42093
663 4 0.443297 0.46633 0.445533
661 2 0.452971 0.487123 0.455494
1058 4 0.105377 0.0782341 0.584011
342 4 0.21442 0.0728732 0.502026
430 2 0.30788 0.0665721 0.505498
431 4 0.321941 0.0798091 0.521382
1031 4 0.274573 0.0627416 0.602892
843 4 0.330174 0.0840669 0.537326
951 4 0.281534 0.0488553 0.588931
841 2 0.355135 0.0842548 0.538783
842 4 0.380095 0.0844427 0.540239
1217 4 0.394128 0.0736858 0.529387
1216 2 0.415205 0.0608279 0.533339
1218 4 0.436282 0.04797 0.537291
3007 2 0.49162 0.0415901 0.572222
3008 4 0.47875 0.0503215 0.5918
1128 4 0.00939818 0.10644 0.583428
470 4 0.0347796 0.161112 0.514736
938 4 0.0633723 0.136932 0.565758
937 2 0.0875418 0.138446 0.57198
1059 4 0.13981 0.114426 0.581726
939 4 0.111711 0.139961 0.578203
1057 2 0.122593 0.0963301 0.582869
1155 4 0.127817 0.13132 0.584548
1151 4 0.202685 0.136528 0.525226
1150 2 0.208786 0.113429 0.51785
1152 4 0.214887 0.0903306 0.510474
1182 4 0.280639 0.132283 0.520563
1180 2 0.261196 0.129591 0.505075
900 4 0.283248 0.149239 0.531553
469 2 0.0246296 0.180175 0.527336
878 4 0.0316928 0.235482 0.579631
471 4 0.0144797 0.199237 0.539937
1244 4 0.0388099 0.252715 0.586329
1199 4 0.0178056 0.238151 0.566274
877 2 0.0491996 0.217825 0.582257
879 4 0.0667063 0.200167 0.584883
1034 4 0.120424 0.207806 0.504442
858 4 0.163349 0.240692 0.533702
898 2 0.294339 0.171521 0.533936
899 4 0.30543 0.193803 0.53632
576 4 0.384649 0.193043 0.523595
574 2 0.382998 0.183801 0.500421
3065 4 0.501202 0.249898 0.509681
983 4 0.030529 0.304554 0.560336
1245 4 0.0446413 0.291783 0.555664
1243 2 0.0417256 0.272249 0.570996
1259 4 0.142051 0.303336 0.496238
9 3 0.136621 0.322028 0.49391
856 2 0.178974 0.25609 0.521705
857 4 0.194599 0.271489 0.509708
798 4 0.192199 0.262171 0.578529
650 4 0.263518 0.23751 0.51
872 4 0.350499 0.284222 0.567389
871 2 0.367143 0.299625 0.55686
906 4 0.460351 0.265842 0.587889
953 4 0.443137 0.267174 0.578735
904 2 0.478341 0.267611 0.570615
982 2 0.0264089 0.329213 0.559959
984 4 0.0222888 0.353872 0.559582
3354 4 0.0206542 0.372122 0.569552
3352 2 0.00606536 0.384709 0.553617
8 3 0.16179 0.349304 0.50209
897 4 0.143801 0.369747 0.58777
1189 2 0.223404 0.372695 0.588705
1190 4 0.240459 0.369092 0.57078
803 4 0.243965 0.360831 0.55226
802 2 0.249944 0.357299 0.52824
804 4 0.255922 0.353766 0.50422
773 4 0.270987 0.395854 0.511644
873 4 0.383788 0.315029 0.54633
929 4 0.350781 0.405054 0.558061
813 4 0.375139 0.33346 0.543361
928 2 0.342347 0.383383 0.567251
811 2 0.386873 0.354306 0.550637
812 4 0.398606 0.375152 0.557913
927 4 0.410408 0.386757 0.546587
930 4 0.333913 0.361713 0.576441
926 4 0.455266 0.390969 0.568283
925 2 0.432837 0.388863 0.557435
539 4 0.0762235 0.46291 0.535155
538 2 0.0960024 0.477908 0.532149
540 4 0.115781 0.492906 0.529142
2244 4 0.118037 0.503449 0.546019
881 4 0.333571 0.408955 0.517169
1002 4 0.415493 0.449864 0.57444
1000 2 0.431783 0.453803 0.555885
1001 4 0.448073 0.457743 0.537329
1911 4 0.446999 0.488435 0.558317
945 4 0.0381498 0.0202381 0.679831
823 2 0.132614 0.0182346 0.624245
825 4 0.116729 0.0321281 0.610834
824 4 0.148498 0.00434103 0.637655
1030 2 0.265136 0.0826277 0.591032
949 2 0.301931 0.0390452 0.599556
950 4 0.322328 0.0292351 0.610182
809 4 0.464643 0.0635114 0.596029
808 2 0.461083 0.0710466 0.619602
42 3 0.451667 0.0649363 0.660496
810 4 0.457523 0.0785818 0.643176
1083 4 0.0545389 0.0966159 0.620563
1126 2 0.0327497 0.104859 0.592225
1081 2 0.0606233 0.0908128 0.644111
1127 4 0.0561012 0.103277 0.601022
1082 4 0.0667076 0.0850096 0.667658
1153 2 0.14138 0.149064 0.595789
1154 4 0.154943 0.166808 0.60703
1032 4 0.255698 0.102514 0.579172
45 3 0.456554 0.100175 0.649215
1271 4 0.132824 0.21236 0.569506
1272 4 0.0856474 0.198789 0.57904
1270 2 0.109236 0.205575 0.574273
1221 4 0.168238 0.179891 0.61418
1212 4 0.231232 0.203472 0.630189
1219 2 0.192135 0.185889 0.618438
1220 4 0.216032 0.191887 0.622696
1210 2 0.241965 0.201506 0.652687
1211 4 0.252697 0.19954 0.675184
1194 4 0.327698 0.156697 0.662758
1193 4 0.357705 0.190937 0.642072
1192 2 0.342701 0.173817 0.652415
3159 4 0.490127 0.173705 0.582759
1136 4 0.133052 0.301233 0.59436
948 4 0.137505 0.282016 0.596678
946 2 0.155995 0.268005 0.587351
1135 2 0.137196 0.325329 0.589123
947 4 0.174486 0.253994 0.578025
796 2 0.213897 0.262293 0.590953
797 4 0.235595 0.262415 0.603378
791 4 0.255983 0.262672 0.607224
792 4 0.298094 0.282881 0.589364
790 2 0.277039 0.272777 0.598294
1238 4 0.310379 0.298891 0.583588
1237 2 0.321726 0.321157 0.584403
807 4 0.307843 0.289099 0.652539
954 4 0.412331 0.298454 0.602678
952 2 0.427734 0.282814 0.590707
3123 4 0.502693 0.266313 0.644626
1039 2 0.066386 0.408535 0.621448
1041 4 0.0436995 0.41455 0.630069
3264 4 0.0273174 0.404376 0.638197
3262 2 0.0269679 0.382278 0.649891
3263 4 0.0266185 0.360181 0.661585
3240 4 0.00848979 0.404646 0.639034
1040 4 0.0890725 0.402521 0.612827
993 4 0.0896692 0.382669 0.61433
1137 4 0.14134 0.349424 0.583887
991 2 0.109116 0.371137 0.603652
992 4 0.128563 0.359606 0.592974
895 2 0.165622 0.37111 0.5999
1172 4 0.214622 0.393236 0.613528
1191 4 0.20635 0.376297 0.606631
896 4 0.187443 0.372474 0.612031
1029 4 0.228187 0.405508 0.673713
1239 4 0.333073 0.343422 0.585217
1204 2 0.404566 0.415325 0.667786
1206 4 0.426068 0.403166 0.66391
1160 4 0.122453 0.494091 0.562905
1159 2 0.141494 0.491152 0.578841
1161 4 0.160535 0.488213 0.594778
1188 4 0.178728 0.493028 0.604603
1171 2 0.209123 0.416915 0.61938
1173 4 0.203624 0.440594 0.625231
1187 4 0.210719 0.459247 0.622936
1186 2 0.194724 0.476138 0.61377
1952 4 0.336915 0.482939 0.590171
889 2 0.301561 0.470128 0.609254
891 4 0.279626 0.468665 0.621166
890 4 0.323495 0.471591 0.597341
1205 4 0.383065 0.427483 0.671662
1951 2 0.359841 0.486623 0.580897
1230 4 0.323168 0.441066 0.654936
1228 2 0.333157 0.457333 0.671085
1268 4 0.466677 0.496809 0.668309
1269 4 0.438037 0.482863 0.629761
1267 2 0.452357 0.489836 0.649035
943 2 0.043667 0.0442861 0.683884
944 4 0.0491843 0.0683342 0.687937
1076 4 0.0683273 0.0776755 0.686231
1147 2 0.216403 0.0611231 0.745833
1149 4 0.215593 0.0426125 0.762622
1004 4 0.381732 0.075072 0.697008
1163 4 0.464757 0.0673647 0.679503
1162 2 0.476405 0.0492179 0.69216
2320 2 0.491279 0.0301244 0.746496
2321 4 0.491971 0.0228786 0.722575
1164 4 0.488054 0.0310712 0.704816
864 4 0.052729 0.123762 0.733035
1075 2 0.0635491 0.0969449 0.701431
1077 4 0.0587709 0.116214 0.716631
1107 4 0.0696754 0.130359 0.723242
851 4 0.0612371 0.132417 0.705464
850 2 0.0480641 0.14774 0.690738
1283 4 0.124449 0.0834408 0.67944
1105 2 0.0927446 0.139956 0.724177
1282 2 0.128146 0.0961212 0.70067
1284 4 0.131842 0.108802 0.721901
1106 4 0.115814 0.149554 0.725113
1148 4 0.217212 0.0796336 0.729043
908 4 0.196769 0.147205 0.701161
907 2 0.174567 0.14382 0.69017
1227 4 0.202276 0.129979 0.709797
1225 2 0.216692 0.109872 0.713412
1226 4 0.231107 0.0897647 0.717027
829 2 0.324933 0.135024 0.694138
830 4 0.307131 0.151909 0.689325
887 4 0.308514 0.157342 0.669841
1003 2 0.369657 0.0961449 0.691067
1005 4 0.357581 0.117218 0.685126
831 4 0.342735 0.118139 0.69895
41 1 0.451015 0.0870058 0.66695
3424 2 0.492014 0.116485 0.664192
3425 4 0.470581 0.103824 0.666537
43 3 0.429556 0.0920755 0.674179
44 3 0.466161 0.090218 0.684232
852 4 0.0348911 0.163063 0.676012
909 4 0.152365 0.140435 0.679178
1073 4 0.129368 0.218131 0.729751
1072 2 0.118247 0.238983 0.721585
888 4 0.268557 0.187335 0.671969
886 2 0.288536 0.172338 0.670905
1025 4 0.439584 0.207332 0.669637
1262 4 0.458364 0.210255 0.735216
1142 4 0.441565 0.185096 0.7215
1024 2 0.444418 0.205635 0.69411
1141 2 0.448532 0.176953 0.74409
1026 4 0.449252 0.203938 0.718583
1261 2 0.454783 0.23148 0.747937
1145 4 0.490219 0.223312 0.726664
893 4 0.00812236 0.330521 0.732849
1074 4 0.107125 0.259835 0.71342
1209 4 0.135129 0.312007 0.691726
1207 2 0.118374 0.294746 0.698543
1208 4 0.101618 0.277485 0.70536
821 4 0.154955 0.310392 0.692123
820 2 0.177694 0.300128 0.693794
822 4 0.200433 0.289865 0.695464
1063 2 0.227081 0.291352 0.716824
1064 4 0.213689 0.276739 0.701582
1065 4 0.240472 0.305966 0.732065
916 2 0.308886 0.257911 0.748014
917 4 0.323296 0.27724 0.754643
805 2 0.324007 0.307209 0.658535
806 4 0.34017 0.325319 0.664531
892 2 0.0205214 0.352183 0.731374
894 4 0.0329204 0.373846 0.7299
1280 4 0.0482216 0.385283 0.736218
1279 2 0.0424729 0.406063 0.723555
816 4 0.0649028 0.372127 0.736693
814 2 0.0894022 0.36737 0.735168
942 4 0.118896 0.354722 0.750285
815 4 0.113902 0.362613 0.733643
1140 4 0.232162 0.423309 0.68002
1028 4 0.21331 0.365703 0.700075
1066 2 0.192638 0.378418 0.736339
1068 4 0.209021 0.373214 0.718181
1027 2 0.220748 0.385606 0.686894
1019 4 0.366329 0.396875 0.71496
1018 2 0.385577 0.400903 0.730402
1981 2 0.068026 0.457497 0.715417
1281 4 0.0367242 0.426842 0.710892
1983 4 0.0505835 0.44069 0.709216
1982 4 0.0854685 0.474304 0.721618
2016 4 0.189219 0.503545 0.7436
1138 2 0.253971 0.434656 0.675461
1139 4 0.27578 0.446003 0.670902
1988 4 0.315916 0.464799 0.741064
1987 2 0.330299 0.47408 0.722838
1989 4 0.344682 0.483361 0.704613
1229 4 0.343146 0.473601 0.687233
1100 4 0.411404 0.49128 0.718105
1101 4 0.45734 0.493054 0.698422
1099 2 0.434372 0.492167 0.708264
2991 4 0.0240878 0.0363092 0.753594
2989 2 0.0185198 0.0605162 0.756457
2990 4 0.0129518 0.0847231 0.75932
1202 4 0.123771 0.0520362 0.766745
2049 4 0.120566 0.0320443 0.762943
1203 4 0.0820822 0.0796339 0.767825
1201 2 0.102926 0.0658351 0.767285
2047 2 0.129705 0.00912347 0.758907
1257 4 0.221533 0.0842287 0.774918
817 2 0.323687 0.0449045 0.803521
819 4 0.312288 0.0652455 0.812547
1085 4 0.309911 0.0840447 0.819968
975 4 0.391352 0.0156058 0.795467
818 4 0.335087 0.0245635 0.794495
974 4 0.34263 0.00796376 0.787192
973 2 0.366991 0.0117848 0.791329
1113 4 0.424917 0.0766701 0.761807
2322 4 0.490587 0.0373702 0.770417
1111 2 0.442801 0.0806893 0.778813
862 2 0.0382682 0.111257 0.74915
863 4 0.0238073 0.0987519 0.765265
833 4 0.00717202 0.0973851 0.773869
832 2 0.0113893 0.102925 0.797883
834 4 0.0156065 0.108465 0.821898
911 4 0.107701 0.119929 0.821566
34 3 0.119936 0.116318 0.778862
31 1 0.11755 0.127683 0.79895
35 3 0.0954681 0.129822 0.804093
32 3 0.128073 0.115733 0.815551
33 3 0.127386 0.148643 0.797409
1255 2 0.235465 0.0971438 0.791175
960 4 0.302913 0.0928767 0.835798
840 4 0.263699 0.115926 0.820712
1256 4 0.249396 0.110059 0.807431
1084 2 0.306005 0.0983492 0.799836
1086 4 0.302099 0.112654 0.779703
1022 4 0.376443 0.151327 0.837734
845 4 0.475459 0.0801575 0.781144
1112 4 0.460684 0.0847085 0.795819
1143 4 0.455498 0.16881 0.766681
1130 4 0.157374 0.21898 0.806088