ITEM: TIMESTEP
3420000
ITEM: NUMBER OF ATOMS
4590
ITEM: BOX BOUNDS pp pp pp
-9.9985700000000008e+00 9.9985700000000008e+00
-9.9985700000000008e+00 9.9985700000000008e+00
-9.9985700000000008e+00 9.9985700000000008e+00
ITEM: ATOMS id type xs ys zs
701 4 0.0425141 0.0377751 0.0822208
700 2 0.0577302 0.0572563 0.0784615
1667 4 0.0274546 0.0508185 0.0774551
1666 2 0.00254406 0.0507128 0.0753024
702 4 0.0729463 0.0767375 0.0747021
490 2 0.273086 0.0529278 0.0649607
492 4 0.293494 0.0385407 0.0662585
1475 4 0.299676 0.0192007 0.0604244
491 4 0.252677 0.0673149 0.0636629
745 2 0.413353 0.0714287 0.0230575
2974 2 0.466504 0.0312137 0.0289056
747 4 0.431474 0.0544145 0.0203476
2975 4 0.448315 0.0459363 0.0200973
986 4 0.435288 0.0369357 0.0097522
2976 4 0.484693 0.0164912 0.0377139
2468 4 0.496414 0.00258768 0.0472333
3836 4 0.496443 0.00480122 0.028388
1826 4 0.480181 0.997981 0.0383248
475 2 0.0651954 0.115976 0.0755548
477 4 0.0688321 0.140002 0.0696623
476 4 0.0615587 0.0919503 0.0814474
566 4 0.226241 0.140836 0.0350177
565 2 0.23419 0.147306 0.0122111
746 4 0.395233 0.0884428 0.0257674
769 2 0.392587 0.144363 0.02479
556 2 0.367269 0.0955375 0.999768
558 4 0.383437 0.102284 0.0176084
771 4 0.390885 0.119427 0.0254842
737 4 0.230866 0.190573 0.0357019
736 2 0.208858 0.198974 0.044084
738 4 0.18685 0.207374 0.0524662
770 4 0.39429 0.169299 0.0240958
359 4 0.383145 0.180471 0.013277
664 2 0.396156 0.209736 0.0410754
665 4 0.39328 0.18814 0.0288057
666 4 0.399033 0.231331 0.0533451
623 4 0.392443 0.233388 0.0711066
323 4 0.404181 0.247573 0.0646479
555 4 0.0691139 0.271263 0.999766
2808 4 0.00875829 0.25585 0.0105898
481 2 0.231075 0.274398 0.0643567
505 2 0.19299 0.314214 0.0710789
483 4 0.208427 0.284148 0.0685029
288 4 0.229966 0.319607 0.00843151
286 2 0.213502 0.329702 0.0243125
573 4 0.271022 0.257372 0.053376
482 4 0.253723 0.264649 0.0602106
571 2 0.293039 0.263412 0.0431793
572 4 0.315056 0.269451 0.0329826
357 4 0.312678 0.283978 0.019376
355 2 0.323273 0.303324 0.0075998
1069 2 0.411038 0.318567 0.0379388
322 2 0.41766 0.265381 0.0534065
324 4 0.431139 0.283189 0.042165
1070 4 0.430419 0.302837 0.0364819
280 2 0.455833 0.307523 0.067202
282 4 0.44357 0.296134 0.0486257
292 2 0.161794 0.34106 0.0294771
294 4 0.143588 0.335431 0.01329
507 4 0.188585 0.335427 0.0585966
287 4 0.197038 0.339796 0.0401934
293 4 0.180001 0.346688 0.0456641
552 4 0.175733 0.351132 0.0635333
456 4 0.226999 0.383878 0.070383
454 2 0.209755 0.367674 0.0623061
455 4 0.192511 0.351469 0.0542293
1290 4 0.275235 0.414005 0.0457775
1288 2 0.28451 0.392636 0.0366912
1289 4 0.293784 0.371268 0.027605
903 4 0.296316 0.375933 0.0076537
901 2 0.313244 0.35832 0.00232076
956 4 0.344264 0.331016 0.00893197
1071 4 0.391656 0.334297 0.0393958
955 2 0.360891 0.339355 0.0256407
957 4 0.377519 0.347693 0.0423494
741 4 0.388119 0.340195 0.0570135
1304 4 0.377456 0.367705 0.0138503
1303 2 0.374666 0.39117 0.00567673
1305 4 0.371876 0.414635 0.997503
1786 2 0.106257 0.48538 0.0687417
625 2 0.156882 0.473571 0.0518081
627 4 0.137472 0.486447 0.0608974
1788 4 0.0891592 0.473714 0.0827679
626 4 0.176293 0.460696 0.0427187
245 4 0.184137 0.442573 0.0451676
244 2 0.208996 0.440522 0.0469018
246 4 0.233855 0.438472 0.0486359
251 4 0.257393 0.420852 0.0530904
272 4 0.254359 0.43827 0.0459674
271 2 0.264804 0.447489 0.0252049
273 4 0.275249 0.456709 0.0044424
250 2 0.263684 0.427485 0.0763631
1157 4 0.287365 0.441437 0.00205715
1672 2 0.414796 0.436086 0.0781332
853 2 0.403654 0.447454 0.0252885
855 4 0.383667 0.445156 0.010443
37 3 0.366625 0.430572 0.0118547
854 4 0.423642 0.449753 0.0401341
1674 4 0.428604 0.441118 0.0579044
564 4 0.439795 0.449792 0.0457148
563 4 0.475901 0.475751 0.0228415
562 2 0.457848 0.462772 0.0342782
228 4 0.488347 0.478414 0.00712855
19 3 0.0469723 0.00697981 0.157445
577 2 0.0819377 0.0330705 0.157862
579 4 0.0974009 0.05043 0.148658
450 4 0.111883 0.0661521 0.150296
448 2 0.134975 0.0744815 0.155047
582 4 0.236291 0.0631335 0.163034
237 4 0.220784 0.0593759 0.150205
235 2 0.196402 0.0647509 0.151551
236 4 0.17202 0.0701259 0.152896
2759 4 0.0118838 0.163011 0.115516
393 4 0.0364232 0.163342 0.171335
449 4 0.158067 0.082811 0.159797
628 2 0.374229 0.163383 0.149138
629 4 0.365085 0.140126 0.149961
2723 4 0.496354 0.105077 0.121304
2624 4 0.000646457 0.178686 0.117006
460 2 0.326712 0.229962 0.109857
461 4 0.306145 0.216655 0.104844
354 4 0.286833 0.215074 0.109659
352 2 0.276837 0.229891 0.127144
353 4 0.266841 0.244707 0.144629
278 4 0.259609 0.237582 0.160324
462 4 0.347279 0.243268 0.11487
255 4 0.362587 0.238959 0.127482
253 2 0.371061 0.221525 0.143275
622 2 0.378932 0.240196 0.0910134
254 4 0.379535 0.204091 0.159069
630 4 0.383372 0.18664 0.148314
624 4 0.36542 0.247003 0.11092
506 4 0.197395 0.293002 0.0835612
537 4 0.185155 0.285371 0.0972133
755 4 0.248635 0.249399 0.147193
536 4 0.183084 0.255855 0.137528
535 2 0.184119 0.270613 0.11737
754 2 0.238309 0.271984 0.150107
756 4 0.227982 0.294568 0.153021
612 4 0.219914 0.308558 0.16533
301 2 0.320504 0.320245 0.141741
303 4 0.31396 0.300181 0.155149
764 4 0.326874 0.286313 0.153845
284 4 0.276086 0.250746 0.159939
283 2 0.293316 0.268794 0.161537
285 4 0.310547 0.286843 0.163135
765 4 0.35537 0.256349 0.125723
763 2 0.341122 0.271331 0.139784
12 3 0.408125 0.326763 0.128769
281 4 0.468095 0.318913 0.0857783
671 4 0.461209 0.331996 0.0967887
527 4 0.47683 0.325286 0.103912
526 2 0.498131 0.330918 0.0920925
647 4 0.0580419 0.349984 0.150895
550 2 0.159515 0.358465 0.0810944
551 4 0.143297 0.365797 0.0986554
302 4 0.327047 0.340309 0.128333
387 4 0.324243 0.352552 0.113223
739 2 0.390375 0.34536 0.0813737
385 2 0.349075 0.355398 0.112542
493 2 0.389961 0.391955 0.109546
495 4 0.388461 0.36728 0.1133
386 4 0.373907 0.358245 0.111861
15 3 0.375828 0.344437 0.12265
740 4 0.392631 0.350525 0.105734
14 3 0.408274 0.363409 0.120422
11 1 0.396729 0.346566 0.13144
13 3 0.395335 0.351423 0.154087
494 4 0.391461 0.41663 0.105792
672 4 0.4158 0.344969 0.113234
670 2 0.438505 0.338483 0.105011
1465 2 0.0654846 0.467641 0.101795
1466 4 0.0464968 0.479495 0.112937
1791 4 0.0342516 0.491989 0.122152
1467 4 0.0844724 0.455787 0.0906541
766 2 0.207597 0.459618 0.157081
768 4 0.21003 0.435099 0.152831
767 4 0.205164 0.484137 0.161332
290 4 0.211972 0.419954 0.165738
638 4 0.186982 0.48504 0.153268
252 4 0.269974 0.434117 0.0996359
609 4 0.276028 0.43395 0.118634
607 2 0.300663 0.438127 0.119555
608 4 0.325298 0.442304 0.120475
659 4 0.335173 0.439433 0.102453
660 4 0.384754 0.43475 0.0979177
1673 4 0.400988 0.431055 0.098362
658 2 0.359964 0.437092 0.100185
524 4 0.404217 0.488558 0.135393
523 2 0.398672 0.468305 0.121819
525 4 0.393127 0.448051 0.108246
578 4 0.0664746 0.0157109 0.167066
2479 2 0.008125 0.0205924 0.197989
380 4 0.00449382 0.0642624 0.20984
2481 4 0.00265448 0.044561 0.202545
20 3 0.0709478 0.00642258 0.186471
17 3 0.0346857 0.999717 0.192215
580 2 0.252851 0.0516331 0.177821
1506 4 0.251376 0.0110866 0.204443
581 4 0.269411 0.0401328 0.192609
654 4 0.265717 0.0248454 0.206182
652 2 0.28362 0.0346989 0.220589
653 4 0.301523 0.0445525 0.234996
24 3 0.316393 0.0465531 0.248727
758 4 0.337537 0.0754156 0.179125
759 4 0.364784 0.0596713 0.217989
757 2 0.35116 0.0675435 0.198557
350 4 0.371692 0.0491895 0.232422
349 2 0.395822 0.0441457 0.228242
632 4 0.363639 0.0617058 0.238235
25 3 0.334508 0.0212802 0.227495
22 3 0.353849 0.0474664 0.245747
21 1 0.335524 0.0335903 0.246628
743 4 0.501004 0.0633196 0.246779
480 4 0.439227 0.0369614 0.228059
351 4 0.419953 0.0391019 0.224062
478 2 0.448946 0.0366739 0.251094
513 4 0.0325409 0.144678 0.16731
379 2 0.0151205 0.0868734 0.210838
511 2 0.0360387 0.134436 0.189849
512 4 0.0395365 0.124193 0.212389
381 4 0.0257472 0.109484 0.211836
312 4 0.359392 0.140035 0.168404
310 2 0.350625 0.117197 0.173576
30 3 0.361396 0.153869 0.238511
311 4 0.341857 0.0943597 0.178748
26 1 0.378915 0.139799 0.242218
28 3 0.384919 0.129251 0.222441
761 4 0.406622 0.119702 0.210931
27 3 0.396875 0.151929 0.249926
631 2 0.362814 0.0838628 0.249792
521 4 0.468794 0.134095 0.225008
762 4 0.455369 0.121453 0.221949
760 2 0.430995 0.120578 0.21644
332 4 0.470779 0.119678 0.236605
331 2 0.476334 0.0960968 0.242791
520 2 0.483556 0.152209 0.216112
391 2 0.0474031 0.1858 0.170826
392 4 0.058383 0.208258 0.170318
339 4 0.074292 0.220226 0.174423
337 2 0.0743881 0.242365 0.186043
279 4 0.251238 0.200737 0.193081
277 2 0.255424 0.219159 0.176702
394 2 0.0308518 0.268584 0.233636
395 4 0.0514668 0.271639 0.219821
338 4 0.0744843 0.264504 0.197664
363 4 0.0701108 0.272213 0.215296
361 2 0.0747205 0.296134 0.209663
362 4 0.0793301 0.320055 0.20403
546 4 0.0883549 0.269447 0.223824
544 2 0.110184 0.263473 0.234453
545 4 0.132013 0.2575 0.245083
372 4 0.0967257 0.323462 0.19796
733 2 0.162081 0.332063 0.241784
611 4 0.233587 0.321042 0.211783
610 2 0.22675 0.3148 0.188557
344 4 0.236568 0.314196 0.231134
343 2 0.214218 0.30779 0.240334
735 4 0.180898 0.316741 0.247811
401 4 0.173682 0.298846 0.254334
729 4 0.305011 0.303829 0.172074
727 2 0.289863 0.318174 0.185854
308 4 0.322365 0.295302 0.171609
728 4 0.274715 0.33252 0.199635
496 2 0.340444 0.305037 0.246603
498 4 0.344395 0.300153 0.222402
307 2 0.339839 0.295312 0.189493
309 4 0.357313 0.295321 0.207377
749 4 0.066566 0.335631 0.20622
648 4 0.0795973 0.332734 0.19259
748 2 0.0700046 0.349623 0.226655
646 2 0.0688196 0.341359 0.171742
750 4 0.0734432 0.363615 0.24709
370 2 0.117334 0.333619 0.207824
371 4 0.137943 0.343776 0.217688
734 4 0.143264 0.347385 0.235756
417 4 0.146894 0.360744 0.225642
299 4 0.138884 0.36679 0.241665
415 2 0.156788 0.381092 0.215001
298 2 0.115016 0.368457 0.248923
416 4 0.166683 0.40144 0.20436
289 2 0.199312 0.410377 0.185057
291 4 0.186653 0.4008 0.204375
445 2 0.397441 0.363451 0.230802
446 4 0.376032 0.353478 0.222592
447 4 0.418849 0.373424 0.239011
644 4 0.436265 0.370885 0.227552
595 2 0.489785 0.397187 0.173326
643 2 0.446205 0.384841 0.209342
645 4 0.456144 0.398796 0.191131
597 4 0.466982 0.38831 0.178465
412 2 0.241273 0.486122 0.240863
414 4 0.235925 0.494777 0.218023
229 2 0.443375 0.478385 0.221807
231 4 0.445847 0.455063 0.230475
234 4 0.0182636 0.0542907 0.285565
232 2 0.037581 0.0427053 0.296418
233 4 0.0568983 0.0311198 0.307272
317 4 0.066867 0.0227848 0.323312
1404 4 0.0705911 0.0179643 0.305366
428 4 0.0722221 0.00426293 0.3184
2756 4 0.0137754 0.0692897 0.299029
2478 4 0.00207117 0.0554897 0.294088
1402 2 0.0822527 0.00883947 0.285219
1403 4 0.0939142 0.999715 0.265071
693 4 0.308585 0.0534457 0.265909
691 2 0.303576 0.0768039 0.27329
23 3 0.337626 0.0195441 0.264977
698 4 0.409875 0.0706249 0.325878
333 4 0.481888 0.0725157 0.248976
257 4 0.426287 0.0769144 0.317285
479 4 0.458665 0.0363864 0.27413
2664 4 0.477033 0.0329634 0.277985
1428 4 0.459841 0.0263948 0.287972
258 4 0.446717 0.0421299 0.287732
2662 2 0.500562 0.0289592 0.285436
256 2 0.436502 0.0595221 0.302509
1426 2 0.45147 0.00463861 0.297015
2755 2 0.00437942 0.083925 0.316993
403 2 0.233429 0.151387 0.324586
404 4 0.247437 0.131042 0.328466
692 4 0.298567 0.100162 0.280672
721 2 0.267434 0.10981 0.301017
723 4 0.277622 0.102974 0.27923
722 4 0.257247 0.116645 0.322804
29 3 0.373131 0.12399 0.258187
707 4 0.358698 0.117986 0.270914
633 4 0.361989 0.10602 0.26135
706 2 0.359262 0.124931 0.294927
708 4 0.359827 0.131877 0.31894
321 4 0.356901 0.144685 0.334127
717 4 0.377272 0.152447 0.333342
600 4 0.104695 0.197139 0.333415
405 4 0.219422 0.171731 0.320705
419 4 0.408851 0.243325 0.331756
269 4 0.4275 0.247481 0.329167
396 4 0.0102369 0.265529 0.247452
442 2 0.00465249 0.25505 0.291245
443 4 0.00779946 0.26504 0.268541
402 4 0.146171 0.257269 0.258243
400 2 0.159927 0.278058 0.256289
676 2 0.187544 0.311324 0.290139
677 4 0.184401 0.309972 0.26537
345 4 0.191868 0.301385 0.249533
678 4 0.190687 0.312675 0.314907
375 4 0.177472 0.313523 0.330738
378 4 0.276003 0.313113 0.277935
376 2 0.300354 0.316542 0.282454
377 4 0.324705 0.319971 0.286974
497 4 0.336492 0.309922 0.270804
543 4 0.340904 0.315931 0.288842
418 2 0.388992 0.255745 0.323006
541 2 0.350449 0.300163 0.305738
542 4 0.359993 0.284396 0.322634
420 4 0.369132 0.268164 0.314257
2537 4 0.50396 0.32387 0.334514
364 2 0.00346934 0.395457 0.289154
601 2 0.050385 0.400826 0.314255
603 4 0.0373982 0.40526 0.293354
365 4 0.0218407 0.411728 0.284367
300 4 0.0911471 0.370123 0.256182
510 4 0.196921 0.332215 0.317367
508 2 0.213234 0.35116 0.317781
509 4 0.229546 0.370105 0.318196
615 4 0.338178 0.331728 0.298265
434 4 0.319475 0.381667 0.324628
433 2 0.305206 0.401995 0.321734
613 2 0.331929 0.348378 0.315842
614 4 0.325681 0.365027 0.333418
2 3 0.275054 0.412527 0.311202
1757 4 0.012381 0.42587 0.272936
1756 2 0.0298575 0.443682 0.274506
1758 4 0.0473341 0.461494 0.276076
1775 4 0.0651947 0.467477 0.273313
775 2 0.0579999 0.485591 0.308701
777 4 0.0551953 0.477385 0.28525
1776 4 0.111775 0.468304 0.255138
1774 2 0.0884848 0.467891 0.264226
413 4 0.246621 0.477468 0.263703
4 3 0.241293 0.424196 0.299511
1436 4 0.242332 0.489304 0.278226
1435 2 0.246306 0.468747 0.291893
1437 4 0.250281 0.44819 0.305559
3 3 0.261729 0.445452 0.32349
1 1 0.255998 0.423792 0.317456
436 2 0.29708 0.456537 0.322962
438 4 0.281076 0.437772 0.318852
435 4 0.290937 0.422322 0.318841
437 4 0.313085 0.475302 0.327072
1802 4 0.327832 0.474051 0.313234
1801 2 0.349966 0.477135 0.324449
1803 4 0.372099 0.480219 0.335664
316 2 0.0779238 0.0399879 0.337698
399 4 0.0818856 0.0683608 0.365798
318 4 0.0889806 0.0571909 0.352085
732 4 0.101848 0.068124 0.361032
730 2 0.125847 0.068506 0.354026
731 4 0.149846 0.068888 0.34702
606 4 0.158163 0.0747905 0.329411
604 2 0.176893 0.0822031 0.344224
425 4 0.369881 0.00374645 0.406928
1701 4 0.369134 0.00355594 0.387381
699 4 0.374368 0.0595354 0.359299
1699 2 0.376044 0.0267212 0.380993
1700 4 0.382955 0.0498864 0.374606
697 2 0.392122 0.0650802 0.342589
962 4 0.355091 0.0115115 0.413736
397 2 0.0641651 0.0858717 0.363669
398 4 0.0464447 0.103383 0.36154
2584 2 0.0166526 0.11168 0.362986
2586 4 0.0386379 0.114616 0.374528
458 4 0.0428672 0.128219 0.389149
457 2 0.0451898 0.148162 0.404051
605 4 0.195622 0.0896158 0.359037
249 4 0.253127 0.116021 0.340647
248 4 0.215289 0.0893128 0.359505
247 2 0.234208 0.102667 0.350076
683 4 0.263826 0.131036 0.337402
682 2 0.283486 0.145733 0.34216
684 4 0.303147 0.16043 0.346917
319 2 0.33748 0.159397 0.339746
726 4 0.406661 0.141039 0.392994
715 2 0.390565 0.150587 0.354437
716 4 0.403857 0.148726 0.375533
467 4 0.39622 0.157076 0.392522
724 2 0.406172 0.117288 0.400793
725 4 0.405683 0.0935368 0.408593
641 4 0.483482 0.144339 0.355111
640 2 0.497694 0.134231 0.373029
459 4 0.0475125 0.168105 0.418953
598 2 0.115453 0.209432 0.352344
599 4 0.126212 0.221725 0.371274
686 4 0.127328 0.229618 0.390855
685 2 0.10833 0.227763 0.407005
275 4 0.141189 0.228249 0.380792
389 4 0.139488 0.24648 0.386546
274 2 0.161536 0.215032 0.38683
473 4 0.207373 0.173931 0.336186
474 4 0.19515 0.197785 0.378404
472 2 0.201261 0.185858 0.357295
276 4 0.181884 0.201814 0.392867
320 4 0.31806 0.174109 0.345364
466 2 0.404347 0.175234 0.407668
268 2 0.448694 0.239286 0.339598
270 4 0.469889 0.231091 0.350029
452 4 0.48045 0.223166 0.366475
451 2 0.478207 0.214808 0.389933
453 4 0.475965 0.20645 0.413391
2802 4 0.0126741 0.285605 0.410384
347 4 0.0580142 0.326018 0.389444
346 2 0.0420627 0.306899 0.391725
618 4 0.0778155 0.326101 0.384162
348 4 0.0261112 0.287781 0.394007
616 2 0.10008 0.316632 0.377853
373 2 0.156779 0.311321 0.3446
388 2 0.137924 0.270258 0.378973
390 4 0.13636 0.294036 0.371401
617 4 0.122345 0.307163 0.371545
374 4 0.136086 0.309119 0.358461
9 3 0.146444 0.313599 0.414441
488 4 0.372578 0.273374 0.385842
487 2 0.375708 0.262312 0.408045
602 4 0.0633718 0.396393 0.335157
549 4 0.0701802 0.401701 0.354035
547 2 0.0759459 0.414575 0.37468
10 3 0.146102 0.35124 0.415287
335 4 0.309349 0.380224 0.412117
240 4 0.319092 0.387622 0.395786
238 2 0.330202 0.399615 0.376867
239 4 0.341311 0.411608 0.357948
752 4 0.450802 0.389136 0.381481
561 4 0.442232 0.373465 0.39162
751 2 0.462805 0.409551 0.37346
559 2 0.455765 0.366568 0.411481
500 4 0.0604729 0.495983 0.351242
499 2 0.0704466 0.480716 0.368348
501 4 0.0804204 0.465448 0.385454
407 4 0.0814218 0.447811 0.393252
548 4 0.0817116 0.427448 0.395324
406 2 0.0960625 0.449509 0.41345
1555 2 0.22974 0.491908 0.404517
5 3 0.246409 0.413084 0.33512
1557 4 0.248981 0.485184 0.418999
1544 4 0.192618 0.494886 0.381691
636 4 0.268846 0.484593 0.416685
587 4 0.355308 0.419663 0.369792
593 4 0.384752 0.464736 0.339078
588 4 0.390133 0.449884 0.350437
586 2 0.37272 0.434774 0.360115
592 2 0.401555 0.481903 0.346015
119 3 0.476969 0.465539 0.341953
2862 4 0.492657 0.477505 0.351854
116 1 0.487748 0.452172 0.357559
712 2 0.452252 0.486859 0.362247
714 4 0.471271 0.470657 0.361273
753 4 0.474807 0.429966 0.365438
117 3 0.474801 0.450978 0.376535
118 3 0.490578 0.430771 0.34905
594 4 0.418359 0.49907 0.352951
718 2 0.0230207 0.00641324 0.461343
369 4 0.0595815 0.0251968 0.452339
367 2 0.083559 0.0190752 0.448764
719 4 0.0472937 0.0121713 0.459656
1781 4 0.127854 0.0079842 0.44317
368 4 0.107537 0.0129536 0.445189
963 4 0.323006 0.0460881 0.43034
432 4 0.315534 0.065376 0.430642
430 2 0.324237 0.0685976 0.45386
431 4 0.332941 0.0718192 0.477077
961 2 0.339048 0.0287998 0.422038
841 2 0.365046 0.0671856 0.500268
843 4 0.349584 0.0630251 0.481064
2656 2 0.497818 0.132147 0.426533
3489 4 0.489427 0.123841 0.45925
2657 4 0.48109 0.134236 0.444998
576 4 0.422542 0.150773 0.486658
260 4 0.0397855 0.185714 0.420599
259 2 0.0563753 0.203673 0.425835
261 4 0.072965 0.221633 0.431071
687 4 0.0893325 0.225909 0.423155
1035 4 0.0827321 0.23351 0.440913
1033 2 0.0899785 0.249725 0.458512
409 2 0.395039 0.217525 0.443329
411 4 0.382228 0.238937 0.444938
410 4 0.40785 0.196113 0.44172
468 4 0.412475 0.193392 0.422814
575 4 0.416852 0.191203 0.457783
574 2 0.419697 0.170988 0.47222
515 4 0.468493 0.213141 0.430815
516 4 0.42405 0.191588 0.43863
514 2 0.446272 0.202365 0.434723
2847 4 0.00569013 0.300269 0.420815
1034 4 0.0972249 0.26594 0.476111
696 4 0.113481 0.271822 0.486847
1260 4 0.10956 0.279207 0.46983
1258 2 0.115764 0.302057 0.461797
1259 4 0.121967 0.324908 0.453764
6 1 0.14776 0.332401 0.427975
8 3 0.167853 0.332416 0.439581
266 4 0.381663 0.25736 0.448463
489 4 0.378838 0.251249 0.430249
265 2 0.381516 0.27118 0.469299
267 4 0.38137 0.284999 0.490136
1010 4 0.492667 0.279584 0.500064
326 4 0.0807143 0.372046 0.430876
503 4 0.125369 0.340599 0.460581
7 3 0.130436 0.331903 0.443101
327 4 0.118469 0.342408 0.444909
325 2 0.0995915 0.357227 0.437893
502 2 0.138 0.351673 0.479101
334 2 0.305497 0.384049 0.436524
336 4 0.301644 0.387874 0.460931
668 4 0.291006 0.402574 0.469698
882 4 0.302414 0.390082 0.479593
880 2 0.325805 0.388907 0.488349
804 4 0.290914 0.380423 0.493968
881 4 0.349196 0.387733 0.497105
2508 4 0.486368 0.366864 0.439516
3308 4 0.467347 0.339427 0.494706
3309 4 0.476585 0.352454 0.447318
560 4 0.469298 0.359671 0.431342
3307 2 0.471966 0.34594 0.471012
1383 4 0.00431412 0.47244 0.450879
1381 2 0.00401222 0.494947 0.461765
382 2 0.131409 0.442638 0.468959
569 4 0.116831 0.469255 0.439393
568 2 0.133031 0.487206 0.433031
408 4 0.110703 0.451208 0.433647
383 4 0.12406 0.453622 0.447734
384 4 0.138758 0.431654 0.490185
669 4 0.288252 0.452393 0.473042
774 4 0.298507 0.467825 0.475712
772 2 0.318816 0.482408 0.475408
667 2 0.289629 0.427484 0.47137
634 2 0.277808 0.476729 0.438662
635 4 0.286771 0.468865 0.46064
773 4 0.339124 0.496991 0.475103
663 4 0.467947 0.481038 0.472424
1128 4 0.998441 0.0754658 0.586158
1152 4 0.235953 0.0742267 0.520182
1150 2 0.245319 0.0740091 0.543363
342 4 0.23367 0.0581056 0.508321
2430 4 0.205357 0.00780404 0.516824
340 2 0.215824 0.0405951 0.507988
341 4 0.197979 0.0230846 0.507656
1151 4 0.254686 0.0737916 0.566545
1217 4 0.398394 0.073525 0.527757
842 4 0.380507 0.0713461 0.519473
1216 2 0.422473 0.0728759 0.521053
1218 4 0.446552 0.0722267 0.514349
1058 4 0.0981795 0.0851728 0.521914
1270 2 0.0902105 0.152586 0.566448
1271 4 0.0946739 0.128488 0.571406
1057 2 0.0974247 0.0981662 0.543263
1059 4 0.0966699 0.11116 0.564612
1155 4 0.109437 0.12001 0.579257
1153 2 0.133955 0.124415 0.58142
1154 4 0.158472 0.128819 0.583583
1180 2 0.245405 0.112306 0.583247
898 2 0.245439 0.166582 0.566032
1181 4 0.254609 0.091248 0.573395
1199 4 0.0320655 0.215156 0.548229
877 2 0.060407 0.200746 0.552914
878 4 0.0465818 0.220022 0.560818
1198 2 0.00779331 0.22071 0.54595
879 4 0.0742323 0.18147 0.545009
1244 4 0.0611783 0.230287 0.568
1272 4 0.0857471 0.176683 0.56149
651 4 0.208188 0.214444 0.516122
858 4 0.199604 0.231273 0.518809
649 2 0.225901 0.207703 0.532431
650 4 0.243615 0.200962 0.548739
856 2 0.186334 0.246248 0.533803
899 4 0.25224 0.182973 0.548418
1243 2 0.0500785 0.251403 0.575489
1245 4 0.0389786 0.272519 0.582979
695 4 0.107131 0.264901 0.535965
694 2 0.110306 0.268361 0.511406
946 2 0.165391 0.281803 0.576004
857 4 0.173064 0.261223 0.548798
947 4 0.183502 0.27346 0.560919
798 4 0.200981 0.275302 0.554233
796 2 0.222721 0.283141 0.563779
797 4 0.24446 0.29098 0.573325
790 2 0.265699 0.324009 0.566444
791 4 0.261482 0.299366 0.566139
872 4 0.376127 0.306975 0.580569
954 4 0.496756 0.287475 0.559898
952 2 0.491196 0.30504 0.576802
1011 4 0.474035 0.325532 0.506568
1009 2 0.483351 0.302558 0.503316
2457 4 0.491728 0.260352 0.504453
3263 4 0.0397237 0.344335 0.554113
3262 2 0.0473944 0.355253 0.575259
936 4 0.00123543 0.352366 0.516763
709 2 0.153604 0.402686 0.501925
710 4 0.161857 0.379746 0.496375
504 4 0.150632 0.362747 0.497621
1189 2 0.248813 0.375505 0.566949
1191 4 0.228111 0.385414 0.57687
803 4 0.273297 0.367168 0.538853
802 2 0.282105 0.373795 0.51641
1190 4 0.269515 0.365596 0.557028
1238 4 0.283215 0.356045 0.553611
1237 2 0.305438 0.361709 0.563574
792 4 0.269916 0.348653 0.566749
1239 4 0.32766 0.367373 0.573536
930 4 0.339493 0.368816 0.555831
929 4 0.359739 0.38205 0.512063
928 2 0.349616 0.375433 0.533947
711 4 0.145351 0.425626 0.507474
1082 4 0.0630283 0.0511245 0.656738
1081 2 0.0553946 0.0666803 0.638712
1032 4 0.255778 0.0774906 0.586624
1030 2 0.256369 0.0547204 0.596937
1031 4 0.256959 0.0319502 0.607249
951 4 0.275074 0.0250709 0.615785
949 2 0.299338 0.0206564 0.611665
950 4 0.323601 0.016242 0.607544
1226 4 0.262855 0.0797409 0.659445
1148 4 0.261025 0.068946 0.642825
1147 2 0.262097 0.0504403 0.659605
809 4 0.494506 0.0303957 0.612354
808 2 0.483072 0.0420616 0.631284
810 4 0.471638 0.0537275 0.650214
45 3 0.467166 0.0744986 0.646768
41 1 0.459639 0.0688491 0.667506
43 3 0.436589 0.071321 0.668507
1126 2 0.0199147 0.0839549 0.59575
1083 4 0.0477609 0.082236 0.620686
1127 4 0.0413883 0.0924439 0.605341
938 4 0.0582179 0.0970947 0.615659
937 2 0.0757839 0.104167 0.599332
939 4 0.0933498 0.11124 0.583004
1283 4 0.150343 0.0844276 0.651945
900 4 0.238637 0.150191 0.583646
1221 4 0.172953 0.14334 0.5833
1219 2 0.197384 0.144654 0.588454
1220 4 0.221816 0.145967 0.593608
1182 4 0.236202 0.133363 0.593098
1210 2 0.242656 0.14748 0.625216
1212 4 0.239308 0.151017 0.600691
908 4 0.230337 0.136969 0.659242
1211 4 0.246004 0.143944 0.64974
1227 4 0.246203 0.126845 0.657297
888 4 0.261229 0.140819 0.660352
1225 2 0.254529 0.103293 0.658371
3425 4 0.479808 0.0842291 0.663788
1192 2 0.323356 0.189475 0.652178
1193 4 0.329784 0.210319 0.639956
3123 4 0.483703 0.202839 0.645892
3121 2 0.498552 0.222268 0.651104
982 2 0.0176099 0.297845 0.588588
983 4 0.0384094 0.287454 0.597785
948 4 0.14728 0.290146 0.591089
1136 4 0.154467 0.30857 0.596219
1135 2 0.162296 0.325834 0.612523
871 2 0.385228 0.305113 0.603783
873 4 0.39433 0.303251 0.626997
813 4 0.40043 0.319717 0.635512
953 4 0.485637 0.322605 0.593706
3112 2 0.492725 0.276572 0.668118
3114 4 0.475467 0.293488 0.674537
1041 4 0.0675698 0.372898 0.609087
3264 4 0.0550651 0.36617 0.596405
3240 4 0.0497973 0.38279 0.604387
3238 2 0.0290959 0.396123 0.608732
3239 4 0.00839443 0.409455 0.613076
1039 2 0.0908691 0.379777 0.615002
1040 4 0.114168 0.386657 0.620918
993 4 0.13063 0.392479 0.629605
991 2 0.148238 0.374894 0.632035
822 4 0.163871 0.342092 0.646163
992 4 0.165846 0.357308 0.634465
1137 4 0.170125 0.343098 0.628828
1064 4 0.180408 0.35402 0.640011
897 4 0.181013 0.357509 0.621313
896 4 0.210644 0.377567 0.586379
895 2 0.195829 0.367538 0.603846
1172 4 0.215111 0.395308 0.585724
1063 2 0.198028 0.359948 0.656732
1171 2 0.223144 0.414504 0.599587
811 2 0.401483 0.343812 0.642109
927 4 0.398168 0.387044 0.650024
812 4 0.402535 0.367906 0.648706
925 2 0.416819 0.400836 0.640692
1206 4 0.384548 0.374278 0.646818
1204 2 0.366209 0.384949 0.660047
906 4 0.483212 0.338745 0.606399
926 4 0.435471 0.414628 0.631361
539 4 0.0813689 0.444557 0.581699
2244 4 0.125055 0.488525 0.592108
1160 4 0.139972 0.47771 0.595798
540 4 0.124132 0.470181 0.585629
538 2 0.10275 0.457369 0.583664
1159 2 0.156884 0.475436 0.614073
1186 2 0.20473 0.452592 0.637128
1173 4 0.231177 0.433699 0.61345
1187 4 0.218987 0.433348 0.629946
1188 4 0.190473 0.471836 0.64431
1161 4 0.173796 0.473162 0.632349
1230 4 0.330752 0.432048 0.669498
1002 4 0.446541 0.427428 0.641334
1911 4 0.436146 0.486454 0.616912
1001 4 0.436208 0.475576 0.632634
1000 2 0.441374 0.451502 0.636984
1269 4 0.443043 0.494578 0.633125
945 4 0.0120016 0.00457433 0.678203
944 4 0.0384542 0.0468847 0.674915
943 2 0.0252279 0.0257295 0.676559
1076 4 0.0577289 0.050133 0.675251
1075 2 0.060408 0.0651744 0.695044
864 4 0.0647332 0.0741562 0.732508
1077 4 0.0630871 0.0802158 0.714837
1107 4 0.0809635 0.0788938 0.724692
862 2 0.0443226 0.0729506 0.7469
825 4 0.153407 0.0719757 0.667395
823 2 0.161616 0.0483864 0.668549
1105 2 0.0990677 0.0768313 0.741814
2133 4 0.177395 0.00743754 0.668613
2256 4 0.174794 0.0146669 0.686293
824 4 0.169825 0.0247971 0.669702
1149 4 0.263169 0.0319345 0.676385
1092 4 0.318917 0.0141672 0.689334
42 3 0.464954 0.0468782 0.67177
1163 4 0.472375 0.0609533 0.688176
1162 2 0.483891 0.0525497 0.708717
4581 4 0.490899 0.0152192 0.745631
2321 4 0.487078 0.0337559 0.744052
44 3 0.469746 0.0822561 0.683521
1164 4 0.495407 0.0441461 0.729258
851 4 0.0761842 0.093621 0.714385
850 2 0.0734421 0.118 0.709555
852 4 0.0707 0.142379 0.704725
1282 2 0.159947 0.102205 0.666673
907 2 0.209569 0.133216 0.67265
1284 4 0.16955 0.119982 0.681402
909 4 0.188801 0.129463 0.686058
886 2 0.282482 0.150762 0.668991
887 4 0.303735 0.160704 0.677629
830 4 0.321355 0.165931 0.682488
829 2 0.332149 0.14922 0.697635
1005 4 0.353644 0.127095 0.728803
1003 2 0.354081 0.105962 0.742158
831 4 0.342943 0.132509 0.712781
3268 2 0.48596 0.131085 0.742594
3270 4 0.493621 0.150082 0.728256
1214 4 0.0124862 0.197017 0.752387
1215 4 0.0109315 0.23462 0.719458
1213 2 0.0117088 0.215818 0.735922
1178 4 0.0231504 0.249135 0.718228
1194 4 0.316927 0.168631 0.664401
1297 2 0.289052 0.227604 0.724372
1298 4 0.311143 0.239313 0.724076
1299 4 0.266962 0.215895 0.724668
1025 4 0.384548 0.199603 0.712413
1024 2 0.406654 0.200169 0.724084
978 4 0.374483 0.2541 0.726865
1146 4 0.489214 0.169344 0.724214
1144 2 0.468245 0.181573 0.730206
1262 4 0.444336 0.210482 0.733767
1026 4 0.428759 0.200735 0.735755
1145 4 0.447276 0.193803 0.736198
1261 2 0.45074 0.233942 0.739578
1142 4 0.439309 0.201368 0.751756
1073 4 0.0687803 0.270683 0.743551
1177 2 0.0412893 0.265293 0.724148
1179 4 0.0594282 0.281452 0.730069
3038 4 0.00516273 0.253532 0.713334
1072 2 0.0933902 0.267619 0.740367
1208 4 0.130574 0.279039 0.727764
1074 4 0.118 0.264554 0.737183
1207 2 0.12973 0.300503 0.714967
821 4 0.141481 0.327431 0.688405
1209 4 0.128887 0.321967 0.702169
1130 4 0.136602 0.265786 0.739442
805 2 0.238934 0.330562 0.684149
918 4 0.306322 0.256206 0.73387
977 4 0.324815 0.250714 0.731598
806 4 0.253073 0.310135 0.686971
1020 4 0.389844 0.256227 0.738689
976 2 0.349649 0.252407 0.729231
1263 4 0.457144 0.257403 0.745388
892 2 0.0414458 0.355412 0.719044
1280 4 0.07129 0.373166 0.729023
816 4 0.0820158 0.364543 0.716081
894 4 0.0634647 0.365167 0.712322
893 4 0.019427 0.345657 0.725765
1279 2 0.0724408 0.397104 0.736153
820 2 0.152676 0.334762 0.667284
815 4 0.122396 0.335152 0.713562
942 4 0.14111 0.336365 0.705761
814 2 0.102206 0.349847 0.714821
940 2 0.158074 0.347504 0.720368
1078 2 0.1686 0.398747 0.74273
941 4 0.175037 0.358643 0.734975
1080 4 0.179463 0.376853 0.737458
1065 4 0.215648 0.365877 0.673452
807 4 0.224794 0.35099 0.681327
1028 4 0.219269 0.382074 0.682813
1066 2 0.207245 0.365624 0.71484
1068 4 0.21996 0.36568 0.693311
1027 2 0.228559 0.404008 0.675213
1067 4 0.19453 0.365568 0.736369
1205 4 0.34787 0.395619 0.673276
1281 4 0.0735916 0.421041 0.743282
1029 4 0.237849 0.425943 0.667614
1079 4 0.157737 0.420642 0.748003
1174 2 0.179778 0.47889 0.737407
1175 4 0.183096 0.485004 0.713391
1140 4 0.238234 0.444144 0.674883
1228 2 0.315022 0.447677 0.681052
1138 2 0.259937 0.455327 0.68028
1139 4 0.281639 0.466511 0.685677
1987 2 0.312255 0.458067 0.734816
1229 4 0.299292 0.463306 0.692606
1989 4 0.303798 0.46655 0.712868
2028 4 0.290195 0.474058 0.702156
2026 2 0.293187 0.498882 0.702215
1099 2 0.488656 0.488311 0.699392
1100 4 0.497386 0.470497 0.714611
2989 2 0.0151488 0.0492739 0.792487
2990 4 0.0196935 0.0702543 0.779668
2991 4 0.0106042 0.0282935 0.805307
863 4 0.0239119 0.071745 0.761292
3083 4 0.00685342 0.0780637 0.766713
1106 4 0.117172 0.0747688 0.758936
2049 4 0.101856 0.0064741 0.792928
1202 4 0.103785 0.0237799 0.784424
1201 2 0.116764 0.0451102 0.785738
1203 4 0.129744 0.0664405 0.787051
32 3 0.14678 0.0693941 0.798765
1085 4 0.306283 0.0717542 0.798426
960 4 0.303502 0.065256 0.817148
819 4 0.314472 0.055867 0.804992
817 2 0.328761 0.0370435 0.796826
973 2 0.363586 0.99814 0.817427
818 4 0.34305 0.01822 0.788661
974 4 0.357857 0.00703101 0.79477
2320 2 0.482559 0.0474719 0.764463
844 2 0.487746 0.06397 0.827228
845 4 0.483129 0.0636318 0.802657
2322 4 0.478041 0.061188 0.784875
1112 4 0.471512 0.0770869 0.79787
833 4 0.0215072 0.0866333 0.774908
832 2 0.0265468 0.103543 0.792623