ITEM: TIMESTEP
1310000
ITEM: NUMBER OF ATOMS
4590
ITEM: BOX BOUNDS pp pp pp
-9.9985700000000008e+00 9.9985700000000008e+00
-9.9985700000000008e+00 9.9985700000000008e+00
-9.9985700000000008e+00 9.9985700000000008e+00
ITEM: ATOMS id type xs ys zs
1666 2 0.0748862 0.0645324 0.0758142
1668 4 0.0735986 0.0503344 0.0552731
297 4 0.345071 0.0536469 0.0514375
295 2 0.355845 0.0726012 0.0391972
486 4 0.38432 0.0227972 0.078793
747 4 0.463088 0.0585645 0.00734399
2974 2 0.464061 0.0281514 0.0337028
2976 4 0.473253 0.0076409 0.0446576
2975 4 0.454869 0.048662 0.0227481
745 2 0.452581 0.079675 0.0156577
296 4 0.36662 0.0915555 0.0269568
358 2 0.347548 0.163248 0.0767487
557 4 0.374834 0.0896168 0.0091844
556 2 0.39847 0.0947299 0.0155376
769 2 0.385852 0.141919 0.0435011
770 4 0.371057 0.161214 0.0493308
771 4 0.400647 0.122624 0.0376715
827 4 0.356851 0.0943539 0.00977797
558 4 0.422107 0.099843 0.0218908
746 4 0.442073 0.100785 0.0239715
566 4 0.146286 0.178417 0.024397
565 2 0.170878 0.181588 0.0276094
567 4 0.195471 0.184759 0.0308219
359 4 0.365078 0.174555 0.0629632
664 2 0.385879 0.201217 0.0520967
665 4 0.373952 0.179866 0.0468918
666 4 0.397806 0.222567 0.0573017
555 4 0.0923933 0.277485 0.0460155
553 2 0.0833564 0.274593 0.0228822
286 2 0.140924 0.339071 0.028725
287 4 0.155657 0.31887 0.0289633
293 4 0.163075 0.29975 0.0280841
292 2 0.168458 0.281422 0.0119518
507 4 0.1687 0.312014 0.0411183
505 2 0.184011 0.307343 0.0603259
506 4 0.199322 0.302671 0.0795335
481 2 0.238327 0.287353 0.0706098
483 4 0.215302 0.290966 0.079662
573 4 0.259547 0.275924 0.0441984
482 4 0.261353 0.283739 0.0615576
571 2 0.26201 0.277581 0.0193716
322 2 0.391674 0.27983 0.0543792
1069 2 0.38531 0.303633 0.00767757
324 4 0.393544 0.281463 0.0294992
1070 4 0.405114 0.290031 0.0146054
741 4 0.355609 0.325022 0.0345241
957 4 0.357502 0.327483 0.0155046
955 2 0.337142 0.330332 0.00127237
1071 4 0.365506 0.317234 0.000749765
671 4 0.464642 0.320378 0.057479
280 2 0.440912 0.294877 0.0330166
281 4 0.459369 0.305888 0.0457949
282 4 0.422456 0.283866 0.0202383
670 2 0.45079 0.330474 0.0756827
288 4 0.126192 0.359272 0.0284866
454 2 0.15055 0.368827 0.0797939
552 4 0.111906 0.360512 0.0776416
456 4 0.174526 0.367648 0.0727977
250 2 0.278616 0.400424 0.0246038
251 4 0.261792 0.3935 0.00745135
252 4 0.29544 0.407347 0.0417562
739 2 0.365546 0.332124 0.0563413
740 4 0.375483 0.339226 0.0781585
495 4 0.388908 0.367946 0.0580974
493 2 0.384589 0.391538 0.0651653
14 3 0.389819 0.358261 0.0758935
4210 2 0.0310138 0.496476 0.996996
245 4 0.232433 0.441213 0.0504778
626 4 0.21857 0.438429 0.0648476
625 2 0.19976 0.452239 0.0738265
244 2 0.245457 0.450316 0.031173
1778 4 0.226276 0.488585 0.0311675
609 4 0.29393 0.420158 0.0580712
246 4 0.258482 0.459419 0.0118682
272 4 0.274157 0.456283 0.000241429
607 2 0.31192 0.426955 0.0740498
494 4 0.380271 0.41513 0.0722332
1672 2 0.398509 0.494592 0.0358672
1673 4 0.373986 0.49946 0.0355589
563 4 0.477059 0.460728 0.0445855
228 4 0.497042 0.459248 0.0483129
562 2 0.456053 0.470114 0.0347964
564 4 0.435047 0.4795 0.0250074
854 4 0.424153 0.470859 0.0106469
1674 4 0.423032 0.489724 0.0361755
19 3 0.0554283 0.0792563 0.166899
18 3 0.0766286 0.0567057 0.144844
16 1 0.0623919 0.0574418 0.163152
1667 4 0.0761738 0.0787304 0.0963554
701 4 0.0831985 0.0685089 0.111153
17 3 0.0439571 0.0444007 0.158766
1475 4 0.273509 0.0129239 0.0827673
492 4 0.27706 0.0284042 0.0951234
491 4 0.275216 0.0590296 0.134613
490 2 0.276138 0.0437169 0.114868
484 2 0.381578 0.00364948 0.0946368
2723 4 0.453708 0.0648047 0.149099
2722 2 0.472758 0.0489203 0.152254
2724 4 0.491809 0.0330359 0.155409
700 2 0.0901254 0.0875924 0.125748
476 4 0.100705 0.117364 0.157322
702 4 0.0970523 0.106676 0.140343
360 4 0.330018 0.151942 0.0905342
581 4 0.288428 0.117874 0.14731
580 2 0.267736 0.127435 0.157587
628 2 0.387617 0.138764 0.142884
630 4 0.380825 0.162555 0.139271
312 4 0.407189 0.105768 0.1591
629 4 0.394409 0.114974 0.146498
337 2 0.0811621 0.238801 0.156585
2625 4 0.00522413 0.175448 0.120858
339 4 0.0878058 0.227367 0.135365
737 4 0.200253 0.200812 0.105512
736 2 0.202774 0.225687 0.105741
738 4 0.205294 0.250562 0.105971
461 4 0.300983 0.223453 0.106617
460 2 0.325753 0.225816 0.109076
354 4 0.281125 0.226354 0.108853
352 2 0.275414 0.234081 0.131937
353 4 0.269704 0.241809 0.15502
462 4 0.350523 0.228179 0.111535
254 4 0.3811 0.170061 0.121436
255 4 0.363777 0.216916 0.123737
253 2 0.372439 0.193488 0.122587
765 4 0.363722 0.230955 0.138198
624 4 0.365458 0.235273 0.120183
763 2 0.350054 0.23376 0.158946
622 2 0.375145 0.247602 0.100706
648 4 0.0539082 0.311733 0.155654
537 4 0.197739 0.314997 0.094851
536 4 0.197715 0.328507 0.142999
535 2 0.197727 0.321752 0.118925
755 4 0.263112 0.261034 0.164353
387 4 0.321694 0.331479 0.120296
302 4 0.328076 0.321963 0.136104
301 2 0.323148 0.330437 0.159105
323 4 0.389803 0.278198 0.0792592
623 4 0.384832 0.25993 0.0812293
385 2 0.342803 0.33229 0.10692
15 3 0.379544 0.330152 0.0987402
386 4 0.363913 0.333102 0.0935439
528 4 0.460972 0.270925 0.100493
518 4 0.479708 0.27832 0.0967873
526 2 0.460949 0.273052 0.125406
527 4 0.460927 0.275179 0.150319
104 3 0.49103 0.330313 0.122804
551 4 0.0918564 0.348281 0.121791
455 4 0.126574 0.370007 0.0867901
550 2 0.101881 0.354397 0.0997162
12 3 0.41571 0.338302 0.0944397
11 1 0.39448 0.34707 0.0956785
13 3 0.393492 0.361833 0.113552
672 4 0.436938 0.34057 0.0938864
1791 4 0.0388886 0.476208 0.138719
1466 4 0.0434365 0.474446 0.158439
1789 2 0.04991 0.494371 0.125534
417 4 0.156348 0.450587 0.134401
627 4 0.180949 0.466049 0.0828054
291 4 0.214522 0.420986 0.144036
416 4 0.203565 0.434158 0.133229
415 2 0.179957 0.442372 0.133815
289 2 0.238045 0.428248 0.148413
768 4 0.276207 0.438233 0.168465
290 4 0.261567 0.435509 0.15279
608 4 0.329911 0.433752 0.0900284
767 4 0.276802 0.487516 0.160012
766 2 0.276504 0.462874 0.164239
525 4 0.388386 0.485311 0.140324
658 2 0.36178 0.429566 0.0990182
659 4 0.339348 0.434435 0.108931
660 4 0.384213 0.424698 0.0891057
523 2 0.367485 0.49589 0.131581
524 4 0.346585 0.506469 0.122838
20 3 0.0730449 0.049407 0.181607
2480 4 0.0281104 0.0431898 0.172228
1422 4 0.027197 0.0231248 0.174668
2479 2 0.0128519 0.0564127 0.186976
675 4 0.0918919 0.0106387 0.24079
674 4 0.137108 0.028427 0.228968
673 2 0.1145 0.0195328 0.234879
689 4 0.154909 0.0229151 0.221269
578 4 0.128918 0.0567686 0.216929
577 2 0.124368 0.0781208 0.20474
450 4 0.172643 0.0477957 0.170168
448 2 0.176306 0.0722 0.174192
1506 4 0.251706 0.0207202 0.171092
1504 2 0.235598 0.00537633 0.182507
688 2 0.175895 0.00980214 0.21769
654 4 0.260708 0.0268447 0.188371
652 2 0.285364 0.0278253 0.184338
653 4 0.310021 0.0288059 0.180305
24 3 0.311862 0.0749444 0.246971
25 3 0.33975 0.0506076 0.240072
311 4 0.386891 0.0632002 0.175735
758 4 0.386731 0.0683665 0.195237
759 4 0.352745 0.0673101 0.231905
757 2 0.369738 0.0678383 0.213571
381 4 0.998444 0.128713 0.218881
512 4 0.00498029 0.147363 0.218738
511 2 0.026781 0.15875 0.223237
475 2 0.100363 0.136976 0.172828
477 4 0.100021 0.156588 0.188334
579 4 0.119819 0.099473 0.192552
449 4 0.179969 0.0966042 0.178216
237 4 0.230105 0.142694 0.176757
691 2 0.225508 0.108714 0.236771
693 4 0.228743 0.126121 0.219116
236 4 0.188747 0.114582 0.17691
235 2 0.209426 0.128638 0.176834
582 4 0.247045 0.136996 0.167865
22 3 0.347325 0.0869679 0.24374
310 2 0.39704 0.0844839 0.167417
28 3 0.332127 0.138138 0.247363
762 4 0.486582 0.150252 0.247728
521 4 0.495149 0.150455 0.227933
332 4 0.491186 0.135571 0.237741
760 2 0.464987 0.16285 0.247361
333 4 0.48933 0.0856314 0.239561
331 2 0.490258 0.110601 0.238651
513 4 0.0485818 0.170136 0.227737
393 4 0.0554153 0.172229 0.246156
394 2 0.0146286 0.230672 0.228518
395 4 0.0298542 0.231663 0.20871
546 4 0.144599 0.198182 0.246243
277 2 0.236562 0.234664 0.17258
279 4 0.21358 0.225096 0.174914
284 4 0.275339 0.234506 0.173771
283 2 0.298678 0.233863 0.18272
285 4 0.322016 0.23322 0.191669
27 3 0.337073 0.174827 0.240874
278 4 0.259544 0.244233 0.170247
764 4 0.336385 0.236564 0.179695
338 4 0.0745185 0.250234 0.177806
646 2 0.0623737 0.322044 0.176801
363 4 0.0874667 0.266096 0.178206
749 4 0.0927682 0.291673 0.232021
361 2 0.0970592 0.275757 0.199178
370 2 0.149512 0.289795 0.227191
372 4 0.124713 0.287115 0.225455
362 4 0.106652 0.285419 0.22015
748 2 0.0937219 0.310473 0.248478
371 4 0.174311 0.292474 0.228927
754 2 0.264774 0.281542 0.17856
756 4 0.266437 0.30205 0.192767
612 4 0.270781 0.319945 0.198289
610 2 0.260993 0.317154 0.221127
307 2 0.31152 0.29254 0.220273
308 4 0.319309 0.294386 0.196585
611 4 0.251204 0.314364 0.243965
647 4 0.0708392 0.332356 0.197947
734 4 0.163325 0.361355 0.2499
303 4 0.318219 0.338912 0.182107
729 4 0.314715 0.3493 0.198936
727 2 0.308695 0.370712 0.210357
728 4 0.302674 0.392125 0.221777
447 4 0.412764 0.387054 0.234884
445 2 0.393822 0.398347 0.246668
596 4 0.497664 0.403876 0.163048
644 4 0.433271 0.390434 0.234853
595 2 0.478193 0.395501 0.176313
597 4 0.458723 0.387127 0.189577
643 2 0.437899 0.384036 0.21113
645 4 0.442527 0.377638 0.187406
264 4 0.0220458 0.420368 0.216409
1465 2 0.0418395 0.478142 0.183116
1467 4 0.0402426 0.481838 0.207794
1758 4 0.100748 0.483616 0.235345
1756 2 0.11177 0.461214 0.233994
1757 4 0.122792 0.438811 0.232643
1775 4 0.0860476 0.496902 0.238281
231 4 0.465027 0.477627 0.197737
229 2 0.45455 0.498971 0.190002
232 2 0.0246521 0.0374018 0.301578
233 4 0.0477193 0.0343744 0.292417
1404 4 0.0643698 0.0258361 0.295527
1402 2 0.0709259 0.0157139 0.273624
316 2 0.0712565 0.0594353 0.318779
317 4 0.0603106 0.0396707 0.308068
428 4 0.0700811 0.0234167 0.313439
1403 4 0.0774819 0.00559162 0.251721
21 1 0.334073 0.0696835 0.251141
23 3 0.33741 0.0669025 0.273935
699 4 0.359718 0.0640859 0.325546
351 4 0.416429 0.0658749 0.274288
1426 2 0.46544 7.2236e-05 0.331606
479 4 0.450755 0.0303405 0.309671
478 2 0.436484 0.0389571 0.291036
2664 4 0.47073 0.0347151 0.311128
480 4 0.422213 0.0475736 0.2724
1428 4 0.460443 0.0222503 0.321197
258 4 0.444086 0.0316748 0.328043
2662 2 0.494425 0.0394093 0.30467
391 2 0.0741498 0.158605 0.255568
392 4 0.0928842 0.144981 0.26498
692 4 0.222272 0.0913073 0.254427
723 4 0.231492 0.102761 0.268067
721 2 0.235286 0.109871 0.291736
722 4 0.23908 0.116981 0.315405
403 2 0.252936 0.154869 0.330132
30 3 0.308959 0.163559 0.262682
26 1 0.330498 0.159366 0.256588
632 4 0.381809 0.103123 0.262683
350 4 0.394226 0.101215 0.246741
631 2 0.365238 0.121845 0.262977
707 4 0.351776 0.147322 0.28316
633 4 0.348667 0.140566 0.263271
706 2 0.358173 0.157843 0.304921
29 3 0.344428 0.161063 0.275067
708 4 0.364569 0.168364 0.326683
349 2 0.405327 0.0835449 0.260514
388 2 0.118531 0.235046 0.31458
389 4 0.124557 0.214655 0.301423
544 2 0.161044 0.206906 0.262935
545 4 0.17749 0.215631 0.279626
402 4 0.180266 0.219311 0.298644
400 2 0.181586 0.244226 0.300286
405 4 0.247594 0.179041 0.326618
473 4 0.254018 0.197988 0.329509
717 4 0.416231 0.181796 0.336182
761 4 0.443391 0.175447 0.246993
419 4 0.462469 0.248398 0.328637
390 4 0.112504 0.255436 0.327737
750 4 0.0946756 0.329273 0.264935
401 4 0.182905 0.269141 0.301927
676 2 0.181691 0.32237 0.312232
345 4 0.213836 0.325774 0.30124
677 4 0.196122 0.325373 0.292035
343 2 0.228937 0.320762 0.281952
344 4 0.244037 0.31575 0.262664
496 2 0.281619 0.294511 0.281798
497 4 0.266807 0.293012 0.301887
377 4 0.2728 0.279053 0.31525
498 4 0.296431 0.296009 0.26171
309 4 0.303731 0.290695 0.243961
420 4 0.42512 0.281544 0.331296
418 2 0.443795 0.264971 0.329967
365 4 0.0331251 0.357461 0.288741
601 2 0.0616603 0.37268 0.313588
603 4 0.0479813 0.354914 0.302523
602 4 0.0753394 0.390447 0.324652
364 2 0.0100608 0.367114 0.28856
299 4 0.149416 0.36214 0.263373
300 4 0.101386 0.348219 0.263191
298 2 0.125401 0.355179 0.263282
735 4 0.195588 0.331335 0.273536
733 2 0.179457 0.346345 0.261718
433 2 0.31607 0.37683 0.31852
435 4 0.291788 0.379381 0.323912
434 4 0.340351 0.374279 0.313127
614 4 0.343 0.354122 0.315511
613 2 0.360025 0.339131 0.326027
446 4 0.37488 0.409641 0.258452
777 4 0.149365 0.481434 0.278675
775 2 0.132514 0.488746 0.29564
776 4 0.115664 0.496057 0.312604
1435 2 0.239089 0.458737 0.318334
1436 4 0.250056 0.473094 0.301049
1437 4 0.228123 0.444379 0.335619
413 4 0.253567 0.492743 0.308553
437 4 0.379857 0.464688 0.327346
1803 4 0.362279 0.495866 0.245684
119 3 0.495241 0.458533 0.315915
118 3 0.499052 0.423957 0.331225
318 4 0.0822023 0.0791999 0.32949
732 4 0.096032 0.0762183 0.339045
730 2 0.114301 0.066372 0.35299
731 4 0.132571 0.0565257 0.366935
606 4 0.146527 0.0715382 0.364119
1701 4 0.315936 0.0153821 0.383194
1699 2 0.309771 0.0253535 0.361109
1700 4 0.303606 0.0353249 0.339024
425 4 0.327263 0.0206899 0.399487
441 4 0.316122 0.0147467 0.413832
697 2 0.375822 0.0609975 0.344422
698 4 0.391926 0.0579091 0.363298
426 4 0.375602 0.0299622 0.390651
424 2 0.351432 0.025326 0.395069
257 4 0.41052 0.0486798 0.360981
726 4 0.431246 0.0734343 0.400575
256 2 0.427303 0.0401773 0.344512
399 4 0.0824722 0.0870665 0.347415
397 2 0.0767046 0.111127 0.351022
398 4 0.0709369 0.135187 0.354629
2586 4 0.0150659 0.14897 0.376985
458 4 0.0318993 0.150284 0.388602
457 2 0.0468833 0.15277 0.408463
598 2 0.142737 0.154443 0.357247
600 4 0.131073 0.135594 0.345678
249 4 0.240238 0.122589 0.335658
604 2 0.166988 0.0846028 0.358129
605 4 0.187448 0.0976673 0.352139
248 4 0.205857 0.0943376 0.358472
247 2 0.223048 0.108463 0.347065
404 4 0.258277 0.130697 0.333646
683 4 0.258536 0.0947881 0.363544
682 2 0.266464 0.105933 0.384475
319 2 0.310366 0.131663 0.409107
684 4 0.274392 0.117079 0.405406
321 4 0.331887 0.140613 0.400057
725 4 0.398233 0.108721 0.413446
724 2 0.414739 0.0910775 0.40701
599 4 0.154401 0.173293 0.368816
686 4 0.13811 0.178289 0.380196
685 2 0.130733 0.186529 0.402621
275 4 0.161784 0.190564 0.36243
472 2 0.240463 0.206511 0.348713
474 4 0.226907 0.215034 0.367916
276 4 0.209126 0.205237 0.369079
274 2 0.185455 0.1979 0.365754
715 2 0.40749 0.193429 0.356516
466 2 0.382402 0.190672 0.404978
716 4 0.398749 0.205062 0.376849
467 4 0.392021 0.187098 0.382177
487 2 0.341553 0.24389 0.416283
270 4 0.4717 0.210438 0.377153
452 4 0.47542 0.197253 0.393177
451 2 0.460115 0.188258 0.410785
268 2 0.462036 0.222594 0.357557
269 4 0.452371 0.234751 0.337961
618 4 0.0737327 0.325459 0.389411
616 2 0.0939815 0.312907 0.381821
617 4 0.11423 0.300355 0.374231
374 4 0.120486 0.302703 0.355168
373 2 0.14472 0.302582 0.349016
375 4 0.168955 0.30246 0.342863
678 4 0.167261 0.319367 0.33243
509 4 0.248622 0.307782 0.39007
376 2 0.268463 0.265843 0.336032
378 4 0.264126 0.252633 0.356813
508 2 0.251316 0.317814 0.367327
615 4 0.377049 0.324139 0.336544
541 2 0.407779 0.314334 0.340902
543 4 0.38931 0.326908 0.352126
488 4 0.347124 0.25171 0.393197
542 4 0.426247 0.30176 0.329678
347 4 0.0675422 0.343356 0.394618
346 2 0.0466716 0.357126 0.394623
348 4 0.025801 0.370895 0.394627
549 4 0.0889441 0.403791 0.331377
510 4 0.254011 0.327846 0.344583
668 4 0.32028 0.381413 0.403512
667 2 0.314376 0.399911 0.419266
336 4 0.335848 0.371292 0.404012
753 4 0.488946 0.41441 0.345112
751 2 0.486214 0.408468 0.369246
752 4 0.483482 0.402526 0.393379
547 2 0.0962142 0.421663 0.347281
407 4 0.116766 0.454421 0.367197
548 4 0.103484 0.439534 0.363185
406 2 0.124169 0.456529 0.390986
408 4 0.131572 0.458637 0.414776
1544 4 0.210203 0.502503 0.415038
3 3 0.31925 0.455389 0.34433
5 3 0.291257 0.479883 0.350165
1 1 0.311243 0.472315 0.358033
4 3 0.308746 0.464439 0.379716
438 4 0.333975 0.470871 0.34625
2 3 0.3264 0.48962 0.358106
436 2 0.356916 0.46778 0.336798
593 4 0.41159 0.461094 0.381154
586 2 0.418034 0.440348 0.416264
588 4 0.416272 0.459705 0.400535
592 2 0.424217 0.477524 0.367161
714 4 0.487175 0.468088 0.335406
712 2 0.468471 0.484581 0.337229
117 3 0.495731 0.454231 0.35325
594 4 0.436843 0.493954 0.353167
369 4 0.0530833 0.0062363 0.417608
718 2 0.0207122 0.00423584 0.441405
719 4 0.0360024 0.0128575 0.423599
962 4 0.318243 0.028511 0.427331
961 2 0.309544 0.0401369 0.447686
963 4 0.300844 0.0517628 0.468041
432 4 0.304405 0.0654356 0.483454
459 4 0.0618673 0.155257 0.428325
320 4 0.288844 0.122713 0.418157
640 2 0.489846 0.127263 0.469201
641 4 0.471103 0.132058 0.485041
260 4 0.0618629 0.170825 0.440793
687 4 0.123355 0.194769 0.425045
259 2 0.0846714 0.180977 0.439414
261 4 0.10748 0.191128 0.438035
1035 4 0.120685 0.204384 0.441164
1033 2 0.123523 0.223071 0.457533
1034 4 0.126362 0.241758 0.473901
489 4 0.335982 0.236069 0.43937
468 4 0.372782 0.194245 0.427779
514 2 0.414883 0.18293 0.449005
411 4 0.344006 0.224666 0.45524
516 4 0.390476 0.178318 0.451865
409 2 0.358083 0.20451 0.450683
410 4 0.37216 0.184355 0.446126
575 4 0.387646 0.182139 0.470587
266 4 0.374119 0.253559 0.468632
574 2 0.38491 0.183091 0.495422
515 4 0.439291 0.187542 0.446146
453 4 0.44481 0.179263 0.428392
583 2 0.497787 0.237677 0.466445
585 4 0.506132 0.22495 0.446606
694 2 0.0726257 0.254779 0.487155
695 4 0.0484679 0.249142 0.490286
1258 2 0.126111 0.281464 0.480269
1259 4 0.137223 0.303812 0.481766
9 3 0.132062 0.323591 0.481674
696 4 0.0967835 0.260416 0.484024
1260 4 0.114998 0.259115 0.478773
267 4 0.384 0.302567 0.469761
265 2 0.37906 0.278063 0.469197
584 4 0.489443 0.250404 0.486284
2847 4 0.0296508 0.339107 0.469523
2845 2 0.00802121 0.351531 0.467797
326 4 0.0446536 0.368175 0.462957
325 2 0.06915 0.364226 0.466041
711 4 0.139008 0.410158 0.462992
10 3 0.134639 0.346787 0.452128
6 1 0.130556 0.345607 0.474502
7 3 0.109325 0.353376 0.478749
327 4 0.0936464 0.360277 0.469126
709 2 0.159397 0.395886 0.465402
8 3 0.145802 0.358756 0.486036
503 4 0.235329 0.382683 0.443125
504 4 0.193306 0.366883 0.465151
502 2 0.214318 0.374783 0.454138
710 4 0.179786 0.381615 0.467812
882 4 0.380524 0.411317 0.489087
335 4 0.375693 0.355902 0.430016
334 2 0.35577 0.363597 0.417014
238 2 0.397816 0.391773 0.443876
240 4 0.388214 0.368823 0.441369
239 4 0.407418 0.414722 0.446382
3307 2 0.495794 0.397861 0.475907
3308 4 0.491436 0.378326 0.490893
1381 2 0.00595014 0.492813 0.459976
1383 4 0.015512 0.469801 0.457937
680 4 0.0019815 0.460145 0.447119
569 4 0.124182 0.475212 0.422135
382 2 0.121046 0.43499 0.440499
384 4 0.12253 0.412529 0.451384
568 2 0.136749 0.495122 0.430552
383 4 0.119561 0.457451 0.429613
1556 4 0.222672 0.489433 0.423653
1555 2 0.246697 0.483954 0.42789
1557 4 0.270722 0.478476 0.432127
636 4 0.286078 0.489261 0.431904
635 4 0.315578 0.448909 0.430423
669 4 0.308472 0.418409 0.435019
773 4 0.305939 0.417443 0.489927
774 4 0.309988 0.436595 0.443911
634 2 0.300828 0.469085 0.431164
772 2 0.307963 0.427019 0.466919
663 4 0.446884 0.46632 0.453462
661 2 0.454989 0.486334 0.466069
587 4 0.419797 0.420991 0.431993
342 4 0.208766 0.0676788 0.52145
340 2 0.215857 0.0462809 0.510632
341 4 0.222949 0.024883 0.499814
1032 4 0.231453 0.0837795 0.587295
1151 4 0.213713 0.0777398 0.580106
2430 4 0.208205 0.0123616 0.499216
430 2 0.316183 0.0776007 0.501852
431 4 0.32796 0.0897658 0.52025
1217 4 0.395628 0.0815728 0.532753
1216 2 0.408914 0.0704883 0.514703
1218 4 0.422201 0.0594038 0.496653
3007 2 0.497931 0.0476223 0.56396
3009 4 0.502092 0.0439761 0.539576
1128 4 0.00505768 0.103291 0.57952
1058 4 0.100188 0.123384 0.520957
1057 2 0.11053 0.119129 0.54332
1059 4 0.120873 0.114874 0.565682
1152 4 0.204435 0.0858052 0.531634
1150 2 0.209074 0.0817725 0.55587
1181 4 0.227467 0.13996 0.567863
1180 2 0.2447 0.139648 0.54975
843 4 0.338741 0.102543 0.530533
1182 4 0.261934 0.139335 0.531637
900 4 0.276258 0.151981 0.524972
841 2 0.36337 0.101175 0.53462
842 4 0.387999 0.0998056 0.538708
1199 4 0.0251869 0.211095 0.569473
1198 2 0.0029273 0.222393 0.568047
878 4 0.0355983 0.227869 0.57327
877 2 0.0570131 0.217505 0.580963
1244 4 0.0315009 0.247193 0.565346
1271 4 0.112194 0.173621 0.556229
1270 2 0.104737 0.187412 0.575706
857 4 0.228203 0.245803 0.526012
898 2 0.288525 0.173489 0.521494
650 4 0.289147 0.209144 0.525811
899 4 0.300793 0.194997 0.518015
649 2 0.286514 0.231816 0.515603
576 4 0.382174 0.184043 0.520257
1243 2 0.036787 0.269157 0.576062
982 2 0.0309657 0.324642 0.577043
796 2 0.232973 0.25072 0.5751
858 4 0.178235 0.247223 0.524638
856 2 0.203219 0.246513 0.525325
947 4 0.189028 0.251696 0.565463
946 2 0.177129 0.267977 0.580246
798 4 0.208112 0.252597 0.573207
797 4 0.257834 0.248842 0.576994
792 4 0.300245 0.299177 0.574642
651 4 0.283881 0.254488 0.505395
872 4 0.387671 0.247322 0.533161
871 2 0.386183 0.270281 0.54295
873 4 0.384694 0.293241 0.552739
813 4 0.383718 0.311776 0.545478
906 4 0.488915 0.292679 0.560566
953 4 0.475105 0.305579 0.565237
952 2 0.451597 0.299095 0.570759
954 4 0.428088 0.292612 0.576281
1010 4 0.493911 0.319009 0.51089
984 4 0.0151898 0.338976 0.563972
1190 4 0.24468 0.369808 0.568806
803 4 0.253535 0.352767 0.564562
804 4 0.291025 0.348691 0.53172
1237 2 0.319966 0.338485 0.580794
802 2 0.27228 0.350729 0.548141
930 4 0.328801 0.363534 0.566493
1239 4 0.334217 0.358625 0.584852
811 2 0.399763 0.330217 0.550739
812 4 0.415809 0.348657 0.556
927 4 0.41422 0.367003 0.563433
929 4 0.358504 0.400228 0.550001
928 2 0.343652 0.381881 0.558247
881 4 0.358244 0.394619 0.530626
880 2 0.369384 0.402968 0.509857
926 4 0.427994 0.412761 0.578171
925 2 0.421107 0.389882 0.570802
538 2 0.0703967 0.459866 0.565735
539 4 0.0530476 0.443459 0.573152
540 4 0.0877458 0.476273 0.558319
1160 4 0.12084 0.478143 0.543039
1159 2 0.127865 0.459649 0.558329
1161 4 0.13489 0.441154 0.573619
2244 4 0.101536 0.480054 0.546419
891 4 0.307706 0.428835 0.572611
889 2 0.322907 0.445148 0.583924
1953 4 0.384217 0.490771 0.557701
1951 2 0.367955 0.482509 0.574802
1000 2 0.438585 0.443799 0.575523
1002 4 0.436351 0.42189 0.563684
2114 4 0.0078399 0.0127017 0.610237
4338 4 0.0191093 0.00147053 0.620991
1082 4 0.0638479 0.0693183 0.659271
1083 4 0.0597791 0.0852805 0.612055
1081 2 0.0618135 0.0772994 0.635663
823 2 0.155906 0.0298077 0.650453
825 4 0.141649 0.0493618 0.656742
1283 4 0.125745 0.05764 0.665137
2133 4 0.18788 0.00804193 0.651152
824 4 0.170163 0.0102536 0.644165
1030 2 0.254233 0.0780444 0.595859
1031 4 0.277013 0.0723093 0.604424
951 4 0.28847 0.0685358 0.621154
949 2 0.298397 0.0467597 0.613912
950 4 0.308324 0.0249837 0.60667
2283 4 0.396727 0.0179687 0.647222
809 4 0.481766 0.043382 0.602473
808 2 0.471748 0.0533589 0.623095
810 4 0.461729 0.0633358 0.643717
42 3 0.458479 0.0511441 0.663007
41 1 0.454164 0.0734096 0.666852
3008 4 0.49377 0.0512685 0.588344
938 4 0.0790019 0.0934608 0.615525
1126 2 0.0264304 0.0939466 0.588524
1127 4 0.0478031 0.0846027 0.597528
939 4 0.107114 0.116496 0.581177
937 2 0.0930581 0.104978 0.598351
1155 4 0.120302 0.129625 0.577387
1153 2 0.134036 0.143314 0.593172
1154 4 0.14777 0.157002 0.608958
1221 4 0.163757 0.159999 0.620011
887 4 0.323052 0.167459 0.666738
45 3 0.455925 0.0848841 0.647259
3425 4 0.4694 0.094568 0.661768
3424 2 0.48491 0.113608 0.657068
879 4 0.0784278 0.207142 0.588656
1272 4 0.0972797 0.201203 0.595184
1212 4 0.207631 0.179942 0.662951
1219 2 0.180514 0.173313 0.632938
1220 4 0.197271 0.186627 0.645866
1210 2 0.23249 0.181351 0.660666
888 4 0.274103 0.169159 0.656649
886 2 0.298577 0.168309 0.661694
1194 4 0.334937 0.172416 0.650728
1211 4 0.257349 0.182759 0.658381
1193 4 0.38303 0.181413 0.661064
1192 2 0.358983 0.176915 0.655896
1245 4 0.0420732 0.29112 0.586778
983 4 0.0467416 0.310309 0.590114
1136 4 0.154997 0.286062 0.612118
1135 2 0.14997 0.308815 0.60305
948 4 0.165229 0.284257 0.595029
1137 4 0.144943 0.331568 0.593983
1238 4 0.305715 0.318345 0.576735
791 4 0.267645 0.263157 0.586498
790 2 0.283945 0.281167 0.58057
807 4 0.283145 0.322421 0.676145
805 2 0.30574 0.324093 0.66557
806 4 0.328336 0.325765 0.654994
3123 4 0.489285 0.260902 0.644214
1039 2 0.0669695 0.375808 0.613267
1041 4 0.0512112 0.378532 0.632488
3264 4 0.0370566 0.38709 0.642388
3262 2 0.0340375 0.367991 0.658241
3240 4 0.0243258 0.398919 0.652526
993 4 0.0911621 0.370064 0.575528
1040 4 0.0827278 0.373083 0.594046
897 4 0.148388 0.350617 0.598704
991 2 0.111096 0.357469 0.583847
992 4 0.131029 0.344874 0.592166
895 2 0.170172 0.360809 0.605546
1189 2 0.226587 0.373558 0.585651
1172 4 0.21454 0.39372 0.611039
1191 4 0.208493 0.377309 0.602495
896 4 0.191955 0.371 0.612387
1206 4 0.39037 0.401014 0.647456
3238 2 0.00667045 0.416527 0.650673
1188 4 0.145675 0.453521 0.584841
1171 2 0.205137 0.416842 0.612494
1186 2 0.166952 0.455917 0.597753
1173 4 0.195734 0.439965 0.613948
1187 4 0.188229 0.458312 0.610665
1139 4 0.241475 0.463624 0.650815
1230 4 0.349038 0.440273 0.650888
890 4 0.338108 0.461461 0.595238
1204 2 0.396905 0.424084 0.654542
1952 4 0.351693 0.474246 0.591903
1205 4 0.40344 0.447155 0.661628
1001 4 0.440819 0.465709 0.587361
1911 4 0.453276 0.479499 0.582747
1269 4 0.443267 0.479387 0.600575
1267 2 0.448801 0.489549 0.62274
945 4 0.0566127 0.00741311 0.678059
943 2 0.0606023 0.0311284 0.684903
944 4 0.0645918 0.0548438 0.691747
1076 4 0.0709431 0.0678738 0.678028
1282 2 0.12402 0.0777083 0.679951
1147 2 0.242435 0.0437603 0.722582
1148 4 0.232963 0.0523288 0.701087
1226 4 0.227487 0.0716508 0.697837
1149 4 0.251906 0.0351918 0.744077
1092 4 0.347406 0.0115657 0.697892
1004 4 0.395204 0.0899578 0.706396
43 3 0.432682 0.0755268 0.675363
1163 4 0.472607 0.0599454 0.680519
1162 2 0.48929 0.0498996 0.696202
2320 2 0.501029 0.0381181 0.748604
864 4 0.0624943 0.105857 0.732528
1075 2 0.0701783 0.0852676 0.695974
1077 4 0.0694134 0.102661 0.71392
1107 4 0.0786319 0.113073 0.726458
851 4 0.0788883 0.121736 0.709805
850 2 0.0786221 0.141567 0.694579
862 2 0.041416 0.100903 0.745032
852 4 0.0783559 0.161398 0.679352
1105 2 0.0913461 0.119412 0.747033
1284 4 0.122295 0.0977765 0.694765
909 4 0.156345 0.108823 0.750744
907 2 0.172979 0.116297 0.733638
908 4 0.189613 0.123772 0.716532
1227 4 0.205569 0.114771 0.710523
1225 2 0.216528 0.093211 0.70418
829 2 0.329278 0.131961 0.693194
830 4 0.327934 0.153557 0.680665
831 4 0.330621 0.110365 0.705724
1003 2 0.371283 0.0961612 0.710202
1005 4 0.347362 0.102365 0.714009
44 3 0.469591 0.0815015 0.68218
1178 4 0.00498431 0.247904 0.724998
1072 2 0.100199 0.219625 0.725912
1074 4 0.103789 0.243236 0.71851
1073 4 0.0966102 0.196013 0.733314
1144 2 0.491507 0.172982 0.738688
1025 4 0.435403 0.1773 0.67697
1262 4 0.466321 0.199094 0.72809
1142 4 0.454946 0.168055 0.737061
1024 2 0.445568 0.179529 0.699705
1026 4 0.455733 0.181758 0.72244
1261 2 0.464306 0.222132 0.737597
1145 4 0.468299 0.18101 0.733983
1177 2 0.0210967 0.251072 0.706142
1179 4 0.0372091 0.254239 0.687286
1209 4 0.124848 0.294522 0.719837
1207 2 0.107564 0.276455 0.719668
1208 4 0.0902806 0.258388 0.719498
821 4 0.14096 0.304748 0.713549
820 2 0.157416 0.310628 0.695666
822 4 0.173872 0.316509 0.677783
1063 2 0.21429 0.310257 0.691696
1064 4 0.189772 0.31484 0.68996
1065 4 0.238809 0.305674 0.693433
3263 4 0.0310184 0.348893 0.674094
892 2 0.0190163 0.355018 0.741738
894 4 0.0284655 0.351364 0.718879
1280 4 0.04677 0.361515 0.719804
1279 2 0.0527166 0.382481 0.707548
816 4 0.0634092 0.355991 0.728906
1281 4 0.0586632 0.403448 0.695292
814 2 0.0861952 0.348471 0.735936
942 4 0.12344 0.343131 0.754776
815 4 0.108981 0.340951 0.742967
1028 4 0.246061 0.390098 0.738564
1066 2 0.206531 0.372065 0.751365
1068 4 0.228333 0.379557 0.741682
1027 2 0.246839 0.405359 0.718773
1018 2 0.388786 0.393924 0.749173
1019 4 0.372561 0.383632 0.733172
1983 4 0.0599103 0.410201 0.714792
1981 2 0.0648598 0.430684 0.728249
1982 4 0.0698093 0.451168 0.741707
1140 4 0.236738 0.435526 0.69191
2016 4 0.174543 0.491727 0.733001
1138 2 0.239106 0.449575 0.671363
1029 4 0.247616 0.42062 0.698983
1987 2 0.324936 0.482873 0.724828
1988 4 0.311722 0.495656 0.741774
1989 4 0.33815 0.470091 0.707882
1228 2 0.34758 0.455457 0.670699
1229 4 0.346121 0.47064 0.690511
2991 4 0.0302539 0.0471069 0.799969
2989 2 0.0220859 0.0651819 0.784746
2990 4 0.0139179 0.0832569 0.769522
2048 4 0.151709 0.00149872 0.753085
2049 4 0.131483 0.0338547 0.785407
1202 4 0.115296 0.0431049 0.775818
2047 2 0.141596 0.0176767 0.769246
1201 2 0.115057 0.0673831 0.781793
1257 4 0.260207 0.0769522 0.759545
817 2 0.318911 0.0407285 0.827329
1085 4 0.310506 0.0791236 0.828661
818 4 0.331696 0.0206858 0.819584
1255 2 0.256808 0.0828575 0.783602
974 4 0.346101 0.0168026 0.806
973 2 0.363286 0.00441261 0.81928
1050 4 0.346717 0.00804518 0.788888
1113 4 0.410532 0.0526726 0.777826
2322 4 0.487711 0.0457073 0.768358
1111 2 0.43483 0.0585664 0.777632
845 4 0.478016 0.0574317 0.780853
1112 4 0.459129 0.0644602 0.777438
3083 4 0.0020574 0.0940699 0.756466
863 4 0.0203376 0.0959483 0.757535
833 4 0.00693323 0.10026 0.773461
832 2 0.00508816 0.119107 0.789787
834 4 0.00324308 0.137954 0.806114
1125 4 0.0164809 0.153355 0.810854
1123 2 0.0391615 0.160653 0.818438
1124 4 0.0618421 0.16795 0.826022
1106 4 0.10406 0.125751 0.767608
1203 4 0.114819 0.0916613 0.787767
911 4 0.100272 0.110298 0.819174
34 3 0.111393 0.110292 0.775115
31 1 0.114462 0.117396 0.79699
35 3 0.0956929 0.12792 0.804448
32 3 0.118644 0.0990661 0.810245
33 3 0.132614 0.131802 0.798168
1256 4 0.253409 0.0887627 0.80766
840 4 0.239775 0.101794 0.81461
1084 2 0.311748 0.0946343 0.809089
1086 4 0.312991 0.110145 0.789518
47 3 0.39777 0.157156 0.80984
1023 4 0.398314 0.163901 0.829327
846 4 0.489656 0.10601 0.778539
844 2 0.483836 0.0817209 0.779696
1130 4 0.126996 0.239325 0.773835
1129 2 0.150141 0.232317 0.767478
1131 4 0.173285 0.22531 0.76112
1277 4 0.186276 0.237181 0.769944
978 4 0.255471 0.186856 0.763959
977 4 0.291748 0.219981 0.773307
918 4 0.300909 0.236659 0.771176
976 2 0.27361 0.203419 0.768633
1298 4 0.305957 0.226936 0.786802
1297 2 0.320417 0.211879 0.800564
48 3 0.39669 0.170351 0.774664
1299 4 0.334876 0.196822 0.814326
1042 2 0.388866 0.231174 0.798642
1043 4 0.402025 0.210549 0.79348
49 3 0.397702 0.194308 0.80415
46 1 0.405187 0.17393 0.795957
1263 4 0.462291 0.24517 0.747103
1143 4 0.420537 0.169477 0.77332
1141 2 0.437742 0.168766 0.75519
50 3 0.427953 0.173675 0.795382
1306 2 0.477392 0.248729 0.803576
1307 4 0.49487 0.230899 0.804902
1276 2 0.198288 0.257792 0.777432