ITEM: TIMESTEP
2750000
ITEM: NUMBER OF ATOMS
4590
ITEM: BOX BOUNDS pp pp pp
-9.9985700000000008e+00 9.9985700000000008e+00
-9.9985700000000008e+00 9.9985700000000008e+00
-9.9985700000000008e+00 9.9985700000000008e+00
ITEM: ATOMS id type xs ys zs
1667 4 0.0195972 0.0728055 0.0749979
1666 2 0.99858 0.0612554 0.0820737
701 4 0.0361078 0.0804552 0.0669679
484 2 0.412098 0.994242 0.0961141
485 4 0.396464 0.993411 0.076619
2974 2 0.469657 0.0141249 0.007028
745 2 0.440224 0.0675719 0.00712981
747 4 0.445908 0.043255 0.00588068
2467 2 0.490342 0.00565909 0.0594888
2976 4 0.483113 0.99668 0.0188506
700 2 0.0406333 0.100955 0.0805496
567 4 0.229912 0.163819 0.00805096
2264 4 0.241394 0.151082 0.997885
297 4 0.340341 0.1319 0.0150341
746 4 0.43454 0.0918888 0.00837893
566 4 0.207581 0.169021 0.0524919
565 2 0.218747 0.16642 0.0302714
573 4 0.254521 0.240696 0.0611962
770 4 0.396546 0.18679 0.023107
359 4 0.377164 0.184816 0.0245275
664 2 0.388077 0.204117 0.055192
665 4 0.386964 0.183822 0.0406288
666 4 0.38919 0.224411 0.0697552
323 4 0.400899 0.23788 0.0600405
358 2 0.358921 0.19009 0.00826171
769 2 0.414152 0.174514 0.0102808
623 4 0.387438 0.243401 0.0715292
360 4 0.340679 0.195363 0.991996
3338 4 0.00540839 0.257937 0.0170261
292 2 0.16659 0.314289 0.0494907
294 4 0.152673 0.300584 0.0338807
482 4 0.25099 0.258048 0.0709874
293 4 0.180507 0.327993 0.0651008
507 4 0.191024 0.328167 0.078612
287 4 0.200347 0.332479 0.0624661
286 2 0.219818 0.326792 0.0478474
288 4 0.239289 0.321104 0.0332287
571 2 0.268701 0.251822 0.0438667
572 4 0.282881 0.262948 0.0265371
357 4 0.29564 0.265799 0.0123486
355 2 0.307398 0.286253 0.00406766
956 4 0.333702 0.313897 0.00503208
356 4 0.319156 0.306706 0.995787
1069 2 0.402564 0.308226 0.0316313
955 2 0.349921 0.323023 0.0217304
1071 4 0.384375 0.325244 0.0338025
322 2 0.412636 0.254599 0.0456226
957 4 0.36614 0.332149 0.0384288
324 4 0.424373 0.271319 0.0312047
1070 4 0.420753 0.291207 0.02946
280 2 0.452251 0.297139 0.0493922
282 4 0.438244 0.284627 0.0328866
281 4 0.466258 0.309651 0.0658978
527 4 0.476431 0.327269 0.0736705
671 4 0.458174 0.324014 0.0742069
328 2 0.00715306 0.41628 0.0262476
456 4 0.185551 0.391905 0.0486401
552 4 0.175979 0.339523 0.081589
454 2 0.186503 0.368759 0.0580501
455 4 0.187455 0.345613 0.0674601
1290 4 0.27467 0.411766 0.0223656
250 2 0.272344 0.414578 0.060907
1288 2 0.28115 0.389473 0.0130801
251 4 0.275348 0.423759 0.0378449
252 4 0.269339 0.405397 0.0839692
741 4 0.381705 0.336566 0.049423
739 2 0.388454 0.342604 0.0727292
329 4 0.0246364 0.433628 0.0219395
1788 4 0.0967299 0.464088 0.0693128
1786 2 0.0992173 0.486968 0.0595401
627 4 0.165131 0.461111 0.0433193
1467 4 0.093586 0.45538 0.0874898
626 4 0.201547 0.475411 0.0744655
625 2 0.183339 0.468261 0.0588924
245 4 0.216861 0.464787 0.0668935
244 2 0.23964 0.461965 0.0569777
246 4 0.26242 0.459144 0.0470619
272 4 0.269014 0.441152 0.0383729
271 2 0.27536 0.446588 0.0148071
1672 2 0.402248 0.435314 0.0643487
853 2 0.395171 0.447729 0.00627412
1674 4 0.408974 0.439961 0.0407195
854 4 0.413488 0.448919 0.0232529
564 4 0.425145 0.449081 0.0381511
563 4 0.471336 0.462494 0.0244676
562 2 0.448241 0.455787 0.0313094
228 4 0.479192 0.475513 0.0370108
226 2 0.489638 0.49508 0.048551
19 3 0.0661511 0.0391816 0.152946
18 3 0.0720784 0.00241285 0.145374
16 1 0.0720451 0.018632 0.161967
578 4 0.0871328 0.0404119 0.162558
577 2 0.0989397 0.0624518 0.16244
580 2 0.241362 0.0629013 0.143403
581 4 0.24871 0.0392193 0.146621
491 4 0.277428 0.0828795 0.0919188
490 2 0.286209 0.0635661 0.10515
1475 4 0.296698 0.02715 0.107751
492 4 0.29499 0.0442527 0.118381
1474 2 0.298313 0.00508182 0.096108
2722 2 0.471613 0.0624321 0.161009
2724 4 0.488513 0.045563 0.153593
1760 4 0.502779 0.039762 0.144723
2469 4 0.490662 0.0153247 0.0825464
1759 2 0.502037 0.0289016 0.122214
1761 4 0.501296 0.0180413 0.0997043
702 4 0.0451587 0.121455 0.0941312
476 4 0.0530908 0.139499 0.0925051
475 2 0.0717926 0.135876 0.108701
477 4 0.0904944 0.132254 0.124896
450 4 0.115039 0.102565 0.169575
448 2 0.13984 0.105075 0.167621
582 4 0.234015 0.0865833 0.140186
237 4 0.223426 0.0968719 0.154167
235 2 0.200275 0.094845 0.16339
628 2 0.379297 0.156084 0.148717
629 4 0.371076 0.132833 0.144592
312 4 0.362202 0.135603 0.162806
738 4 0.234342 0.178298 0.0993893
737 4 0.237146 0.216696 0.131302
736 2 0.235744 0.197497 0.115346
755 4 0.250017 0.243121 0.160733
460 2 0.328312 0.225606 0.115556
461 4 0.306074 0.215272 0.11067
354 4 0.288101 0.217948 0.120432
352 2 0.278131 0.231963 0.13858
353 4 0.26816 0.245977 0.156728
630 4 0.387517 0.179334 0.152842
254 4 0.38835 0.199403 0.151719
462 4 0.35055 0.23594 0.120441
255 4 0.367542 0.238656 0.128764
253 2 0.377946 0.21903 0.140242
622 2 0.374095 0.246766 0.0924052
536 4 0.155645 0.285925 0.153337
481 2 0.236363 0.270291 0.0871531
505 2 0.198928 0.310418 0.0943498
483 4 0.221736 0.282535 0.103319
506 4 0.206832 0.292669 0.110088
537 4 0.197149 0.2948 0.126892
535 2 0.176397 0.290362 0.140115
754 2 0.237162 0.26453 0.159471
756 4 0.224306 0.285939 0.158209
612 4 0.228282 0.302313 0.169109
301 2 0.326726 0.31851 0.144981
303 4 0.324703 0.301574 0.163263
764 4 0.335919 0.284564 0.164146
284 4 0.277488 0.258847 0.167739
283 2 0.296976 0.274451 0.169127
624 4 0.360751 0.250131 0.113281
765 4 0.354297 0.251722 0.131216
763 2 0.345108 0.268143 0.147681
12 3 0.413879 0.324966 0.119506
526 2 0.499068 0.333137 0.0825208
647 4 0.049845 0.357548 0.169555
550 2 0.15508 0.343425 0.0947491
551 4 0.134182 0.347327 0.107909
290 4 0.232848 0.412884 0.153492
289 2 0.217085 0.395422 0.161965
302 4 0.328749 0.335446 0.126698
609 4 0.287453 0.403076 0.0919834
387 4 0.328327 0.353009 0.116064
607 2 0.304087 0.414919 0.106413
385 2 0.352497 0.354468 0.10983
493 2 0.390397 0.388876 0.0969895
495 4 0.390794 0.364891 0.104043
386 4 0.376667 0.355928 0.103597
15 3 0.381701 0.343015 0.113875
740 4 0.395203 0.348641 0.0960353
14 3 0.414337 0.359929 0.105722
11 1 0.403439 0.345451 0.120214
13 3 0.404492 0.353662 0.141891
494 4 0.39 0.412861 0.0899363
672 4 0.418579 0.340136 0.100149
670 2 0.438377 0.332075 0.0871781
1791 4 0.06079 0.491297 0.119506
1465 2 0.0773172 0.463105 0.104834
1466 4 0.0610484 0.47083 0.122179
638 4 0.235716 0.469092 0.121569
767 4 0.241546 0.472499 0.140886
637 2 0.217713 0.484021 0.112725
639 4 0.19971 0.498949 0.103881
766 2 0.244989 0.448193 0.145633
768 4 0.248432 0.423887 0.150381
608 4 0.320722 0.426763 0.120842
659 4 0.331739 0.43222 0.105099
660 4 0.380969 0.431008 0.0964019
1673 4 0.395522 0.430667 0.0879779
658 2 0.356354 0.431614 0.10075
524 4 0.402478 0.489259 0.122925
523 2 0.398834 0.467843 0.110545
525 4 0.39519 0.446427 0.0981656
17 3 0.0565953 0.0128405 0.177996
2480 4 0.0363703 0.0131669 0.184209
2479 2 0.0233551 0.0324851 0.193297
380 4 0.0220458 0.0653894 0.191161
2481 4 0.01034 0.0518034 0.202385
20 3 0.0926573 0.0199799 0.171557
689 4 0.151195 0.00457183 0.215494
674 4 0.136793 0.0172837 0.209873
673 2 0.115126 0.00857423 0.21881
1403 4 0.0874554 0.00436612 0.245289
1504 2 0.227113 0.00617124 0.185859
1506 4 0.244446 0.0215174 0.176413
654 4 0.25531 0.0312955 0.163425
652 2 0.279525 0.0333709 0.169301
653 4 0.303739 0.0354464 0.175176
25 3 0.341789 0.0344043 0.244445
758 4 0.332079 0.0826295 0.192768
759 4 0.347586 0.0722263 0.239158
757 2 0.339833 0.0774279 0.215963
350 4 0.366238 0.0756183 0.242633
349 2 0.389408 0.0663912 0.240851
351 4 0.412579 0.0571642 0.239068
2723 4 0.454712 0.0793012 0.168425
480 4 0.43126 0.0509102 0.244905
743 4 0.486602 0.0685443 0.251039
379 2 0.0224367 0.0863194 0.177488
511 2 0.0525455 0.130105 0.173644
512 4 0.0308508 0.118595 0.17834
381 4 0.0228276 0.107249 0.163815
513 4 0.0742401 0.141615 0.168949
449 4 0.16464 0.107585 0.165667
579 4 0.110747 0.0844918 0.162322
393 4 0.0725903 0.160262 0.159485
236 4 0.177123 0.0928182 0.172614
30 3 0.314538 0.139679 0.245367
26 1 0.329202 0.156955 0.247636
310 2 0.352122 0.11395 0.170205
28 3 0.334697 0.165469 0.226761
311 4 0.342042 0.0922975 0.177604
761 4 0.402839 0.129748 0.232554
333 4 0.48816 0.0813125 0.235724
521 4 0.468842 0.141727 0.215845
762 4 0.452072 0.136637 0.227137
760 2 0.427455 0.133192 0.229845
332 4 0.46625 0.124677 0.223885
331 2 0.477205 0.102995 0.229805
339 4 0.0801731 0.221301 0.175657
337 2 0.064097 0.238835 0.183357
391 2 0.0748237 0.181472 0.172535
392 4 0.0770571 0.202683 0.185585
279 4 0.260769 0.225151 0.219779
277 2 0.263391 0.234273 0.196647
278 4 0.266013 0.243395 0.173515
520 2 0.482958 0.161113 0.208766
522 4 0.497074 0.180498 0.201686
394 2 0.0113478 0.2591 0.233525
395 4 0.0251908 0.267506 0.214475
338 4 0.0480209 0.256368 0.191058
363 4 0.0430129 0.270356 0.205824
361 2 0.054137 0.292118 0.211103
648 4 0.0590971 0.326992 0.208045
362 4 0.0652611 0.313879 0.216383
372 4 0.079987 0.322355 0.209766
749 4 0.0494171 0.321653 0.224772
370 2 0.104034 0.325057 0.21606
371 4 0.128081 0.327759 0.222354
611 4 0.24208 0.330256 0.208218
610 2 0.235181 0.316284 0.188663
344 4 0.227333 0.326147 0.220144
343 2 0.209952 0.323832 0.237967
285 4 0.316464 0.290055 0.170515
729 4 0.317867 0.306422 0.1833
727 2 0.304343 0.323535 0.195524
308 4 0.331989 0.295527 0.179456
307 2 0.339935 0.284795 0.200595
309 4 0.347881 0.274063 0.221735
498 4 0.348282 0.2907 0.234401
748 2 0.0574833 0.337095 0.242707
646 2 0.0544711 0.34227 0.1888
734 4 0.130965 0.343337 0.235484
733 2 0.153026 0.337737 0.245835
417 4 0.141145 0.386918 0.198898
291 4 0.201322 0.377961 0.170438
416 4 0.18857 0.379148 0.185069
415 2 0.164858 0.383033 0.191984
728 4 0.290819 0.340648 0.207748
447 4 0.430229 0.380794 0.230637
644 4 0.448746 0.390465 0.235649
643 2 0.452552 0.398586 0.21231
645 4 0.456358 0.406707 0.18897
264 4 0.0202387 0.433736 0.242759
1776 4 0.118827 0.501244 0.26108
412 2 0.237038 0.465812 0.230007
413 4 0.223702 0.453037 0.246863
414 4 0.250373 0.478587 0.21315
1574 4 0.2964 0.476683 0.227753
1573 2 0.294905 0.495689 0.211576
595 2 0.487203 0.420981 0.174167
597 4 0.463418 0.413782 0.171413
229 2 0.473612 0.484954 0.226089
231 4 0.491317 0.468075 0.220914
234 4 0.00814616 0.0519035 0.28436
232 2 0.0319814 0.0449829 0.281332
233 4 0.0558167 0.0380623 0.278305
2756 4 0.00475888 0.0709553 0.283879
317 4 0.0689528 0.0399354 0.291604
1404 4 0.0653669 0.0217742 0.286638
316 2 0.0822071 0.0587963 0.301287
1402 2 0.0764111 0.0130701 0.265964
428 4 0.0704918 0.0248896 0.30509
318 4 0.0954615 0.0776573 0.310971
730 2 0.129976 0.0823611 0.327399
732 4 0.105665 0.0875065 0.324625
399 4 0.0876862 0.0799467 0.328075
731 4 0.154286 0.0772157 0.330174
693 4 0.302421 0.0459473 0.266909
691 2 0.290037 0.0637841 0.279305
692 4 0.277653 0.0816209 0.291701
24 3 0.320354 0.0525764 0.269504
21 1 0.341905 0.0495462 0.261456
23 3 0.355773 0.0421644 0.278532
22 3 0.349818 0.0696767 0.253627
632 4 0.357848 0.0858647 0.249863
479 4 0.453431 0.0335853 0.286245
478 2 0.442345 0.0422477 0.265575
2664 4 0.469787 0.0215369 0.289453
1428 4 0.452367 0.0199696 0.296668
258 4 0.446067 0.0354711 0.304942
2662 2 0.488148 0.0369134 0.296637
256 2 0.441571 0.0502427 0.324609
1426 2 0.446266 0.997925 0.306766
2755 2 0.000649808 0.0909565 0.29831
2757 4 0.996541 0.110958 0.31274
404 4 0.25272 0.141301 0.325058
721 2 0.269916 0.109511 0.309593
723 4 0.288232 0.0958355 0.299459
722 4 0.251601 0.123187 0.319726
29 3 0.348363 0.149698 0.258525
631 2 0.357922 0.109658 0.257548
707 4 0.356091 0.143543 0.275736
633 4 0.357997 0.133451 0.265232
706 2 0.359942 0.147767 0.300077
708 4 0.363794 0.151991 0.324418
444 4 0.0121472 0.222993 0.312445
442 2 0.0085511 0.229565 0.288591
544 2 0.138689 0.227598 0.265212
546 4 0.118016 0.2138 0.262487
545 4 0.159361 0.241397 0.267937
403 2 0.239537 0.162543 0.325472
405 4 0.226355 0.183785 0.325886
473 4 0.211558 0.196876 0.321895
27 3 0.319412 0.173613 0.260118
269 4 0.403546 0.222277 0.314625
419 4 0.393702 0.239166 0.315848
443 4 0.00495505 0.236138 0.264736
402 4 0.169495 0.257287 0.260727
375 4 0.168401 0.316938 0.323541
400 2 0.177265 0.280952 0.262909
401 4 0.185035 0.304618 0.26509
676 2 0.183906 0.325893 0.294949
345 4 0.19257 0.321517 0.255791
677 4 0.183458 0.322554 0.270174
735 4 0.175087 0.332136 0.256185
678 4 0.184354 0.329231 0.319725
378 4 0.287819 0.28477 0.30732
376 2 0.308472 0.298035 0.302557
377 4 0.329125 0.311299 0.297793
497 4 0.336175 0.309481 0.279138
496 2 0.342229 0.300091 0.256769
541 2 0.364758 0.31097 0.308163
542 4 0.384924 0.305359 0.321839
420 4 0.395568 0.289124 0.317042
543 4 0.344592 0.316581 0.294487
418 2 0.394635 0.264145 0.316445
615 4 0.336589 0.330844 0.302478
364 2 0.00740249 0.393865 0.294011
365 4 0.0284365 0.3846 0.284168
601 2 0.057794 0.376357 0.317422
603 4 0.0441622 0.381449 0.297089
750 4 0.0655495 0.352536 0.260642
300 4 0.0811826 0.367189 0.266666
299 4 0.126228 0.35771 0.247128
298 2 0.103706 0.362449 0.256897
510 4 0.188996 0.337304 0.337612
434 4 0.312931 0.391714 0.302951
433 2 0.310115 0.414445 0.31298
614 4 0.319767 0.376579 0.313704
613 2 0.328178 0.353711 0.308091
445 2 0.410855 0.373055 0.244418
446 4 0.39148 0.365317 0.258199
1757 4 0.0356233 0.43234 0.256378
1756 2 0.050855 0.452156 0.257108
1758 4 0.0660866 0.471971 0.257837
1775 4 0.0730587 0.484652 0.272513
777 4 0.066664 0.489088 0.291134
775 2 0.0623132 0.492902 0.315458
1774 2 0.0959426 0.492948 0.266797
1436 4 0.229101 0.44123 0.262868
1435 2 0.241808 0.444257 0.284188
1437 4 0.254515 0.447284 0.305508
4 3 0.263863 0.427335 0.318956
3 3 0.262897 0.46496 0.313678
1 1 0.269613 0.447939 0.327946
436 2 0.304521 0.477826 0.305226
438 4 0.285864 0.463601 0.313871
2 3 0.292467 0.448868 0.330391
437 4 0.323178 0.492052 0.296581
1802 4 0.342727 0.492116 0.298097
119 3 0.490092 0.456115 0.317641
1781 4 0.0993398 0.998806 0.404163
606 4 0.155392 0.0763292 0.349756
441 4 0.33817 0.000785153 0.410914
699 4 0.370169 0.0546612 0.356988
1699 2 0.357754 0.025362 0.383946
1700 4 0.364978 0.0369266 0.362988
697 2 0.39334 0.0625263 0.351847
1701 4 0.35053 0.0137973 0.404905
698 4 0.416511 0.0703914 0.346707
257 4 0.437074 0.0650144 0.344275
641 4 0.449632 0.0780487 0.405391
2585 4 0.00484448 0.112478 0.330953
397 2 0.075595 0.0981279 0.340258
398 4 0.0635039 0.116309 0.352441
2584 2 0.025418 0.118222 0.34395
2586 4 0.0459916 0.123966 0.356947
458 4 0.048072 0.137575 0.373096
457 2 0.0535054 0.147175 0.395534
600 4 0.0991933 0.156521 0.348559
604 2 0.177974 0.0841368 0.357125
605 4 0.200555 0.0919445 0.364493
248 4 0.221225 0.0941626 0.36465
247 2 0.234365 0.11084 0.351444
249 4 0.247505 0.127518 0.338239
683 4 0.260674 0.140657 0.343089
682 2 0.282087 0.14349 0.355684
684 4 0.3035 0.146323 0.368279
320 4 0.316691 0.132847 0.361428
321 4 0.356762 0.156208 0.34274
319 2 0.336727 0.144528 0.352084
726 4 0.392332 0.138843 0.40599
717 4 0.369092 0.156775 0.358583
715 2 0.382747 0.157057 0.379527
716 4 0.396402 0.157339 0.400471
642 4 0.49887 0.0853926 0.400656
640 2 0.474251 0.0817207 0.403024
598 2 0.107032 0.178418 0.357741
599 4 0.11487 0.200314 0.366922
389 4 0.123157 0.23023 0.367656
686 4 0.110194 0.216529 0.375687
685 2 0.0958533 0.214941 0.396108
275 4 0.129035 0.213377 0.374338
274 2 0.153127 0.207001 0.372313
474 4 0.19481 0.207118 0.367888
472 2 0.203184 0.201997 0.344891
276 4 0.177219 0.200625 0.370288
268 2 0.42123 0.214742 0.330616
270 4 0.438914 0.207207 0.346606
452 4 0.454743 0.218627 0.349808
451 2 0.46111 0.214367 0.373609
453 4 0.467478 0.210106 0.39741
515 4 0.456133 0.22116 0.408091
347 4 0.0571382 0.299251 0.377958
346 2 0.0382888 0.298796 0.394379
348 4 0.0194395 0.29834 0.410801
618 4 0.0740104 0.30862 0.375663
388 2 0.125272 0.254901 0.364188
616 2 0.0964957 0.302904 0.36634
390 4 0.127387 0.279573 0.360721
617 4 0.118981 0.297188 0.357018
374 4 0.132706 0.289889 0.345788
373 2 0.150554 0.303414 0.334664
602 4 0.0714257 0.371265 0.337754
549 4 0.0818477 0.386033 0.348876
547 2 0.0858933 0.404862 0.364823
508 2 0.192578 0.361888 0.340434
509 4 0.19616 0.386472 0.343256
334 2 0.313175 0.388232 0.414008
335 4 0.32316 0.376934 0.394063
238 2 0.355804 0.385921 0.376455
239 4 0.369486 0.398496 0.359726
240 4 0.342122 0.373345 0.393184
587 4 0.38462 0.407254 0.370472
2537 4 0.4885 0.329076 0.33878
752 4 0.486958 0.394131 0.388393
561 4 0.468814 0.387682 0.395581
559 2 0.483615 0.379269 0.413892
751 2 0.492005 0.411454 0.371083
776 4 0.0579624 0.496717 0.339783
500 4 0.056011 0.486308 0.356175
499 2 0.0719213 0.471254 0.368234
501 4 0.0878317 0.456201 0.380294
548 4 0.0899389 0.42369 0.38077
407 4 0.101206 0.440978 0.3798
406 2 0.113618 0.443224 0.401388
1544 4 0.217073 0.465008 0.39119
1556 4 0.228208 0.479395 0.381757
1543 2 0.200737 0.472693 0.408488
435 4 0.307299 0.437175 0.323009
5 3 0.259777 0.450544 0.348321
636 4 0.285057 0.497028 0.403643
1555 2 0.252407 0.485468 0.3834
1557 4 0.276606 0.491541 0.385043
586 2 0.381863 0.431378 0.364505
593 4 0.390118 0.468394 0.347903
588 4 0.379107 0.455503 0.358538
592 2 0.408002 0.483983 0.340008
713 4 0.442218 0.492555 0.340153
712 2 0.462989 0.478817 0.337918
714 4 0.483761 0.465079 0.335683
753 4 0.497051 0.428777 0.353773
117 3 0.490806 0.450905 0.354856
369 4 0.0695308 0.00363232 0.466466
963 4 0.308582 0.0291407 0.459516
432 4 0.310706 0.0399193 0.475681
430 2 0.322865 0.0487547 0.495663
961 2 0.323258 0.0154247 0.444627
962 4 0.337933 0.00170874 0.429738
1216 2 0.410845 0.0514005 0.485525
1217 4 0.404079 0.0367211 0.504602
1218 4 0.41761 0.0660799 0.466449
425 4 0.353624 0.998704 0.41754
260 4 0.0611872 0.157423 0.437717
459 4 0.0589387 0.156776 0.417973
467 4 0.390022 0.153274 0.418028
724 2 0.384204 0.121179 0.42171
725 4 0.376076 0.103515 0.43743
259 2 0.0711119 0.180235 0.435215
261 4 0.0810366 0.203048 0.432712
687 4 0.0815128 0.213353 0.416529
1035 4 0.0791966 0.222407 0.434335
1033 2 0.0816103 0.242271 0.449328
466 2 0.400794 0.173068 0.42886
468 4 0.411567 0.192862 0.439692
411 4 0.387035 0.250741 0.464093
409 2 0.398964 0.229355 0.459041
410 4 0.410894 0.207969 0.453989
489 4 0.369068 0.251643 0.454937
575 4 0.427213 0.201516 0.463719
516 4 0.42662 0.203128 0.44421
574 2 0.442376 0.19034 0.480162
514 2 0.441377 0.212144 0.42615
576 4 0.457539 0.179164 0.496605
696 4 0.0867671 0.26963 0.482154
1034 4 0.0840239 0.262134 0.464321
1260 4 0.0979475 0.276603 0.467643
1258 2 0.111148 0.297464 0.463677
1259 4 0.124348 0.318325 0.45971
9 3 0.137162 0.31992 0.43844
7 3 0.133483 0.329715 0.474539
488 4 0.333461 0.255284 0.420015
487 2 0.351265 0.253464 0.437476
266 4 0.371392 0.258025 0.472654
265 2 0.378431 0.281603 0.477097
267 4 0.38547 0.30518 0.481541
326 4 0.0701379 0.355089 0.478848
6 1 0.139274 0.337339 0.453623
327 4 0.11538 0.340783 0.463063
325 2 0.0927592 0.347936 0.470956
8 3 0.161253 0.344756 0.454163
10 3 0.125437 0.354459 0.447783
709 2 0.154106 0.39976 0.495651
336 4 0.303191 0.399531 0.433954
668 4 0.290927 0.403373 0.447643
882 4 0.368867 0.370655 0.493391
3308 4 0.475868 0.338253 0.489128
560 4 0.498416 0.370855 0.432204
3309 4 0.496849 0.363375 0.451321
3307 2 0.486359 0.350814 0.470224
680 4 0.0085383 0.450619 0.455709
1383 4 0.0138272 0.463563 0.470211
1381 2 0.0250063 0.485905 0.471218
679 2 0.996304 0.429585 0.449958
711 4 0.13257 0.402915 0.483345
382 2 0.128526 0.43501 0.461056
384 4 0.124907 0.420901 0.481379
408 4 0.12603 0.445469 0.422977
569 4 0.128749 0.464512 0.430605
383 4 0.132145 0.449119 0.440733
568 2 0.149449 0.478518 0.431327
1395 4 0.187645 0.499702 0.427867
570 4 0.17015 0.492523 0.43205
1545 4 0.184401 0.480379 0.425787
774 4 0.315531 0.454013 0.448892
635 4 0.305858 0.464357 0.435277
634 2 0.295457 0.480693 0.41946
669 4 0.296312 0.453072 0.448972
667 2 0.29362 0.428222 0.448308
773 4 0.362381 0.465634 0.461958
772 2 0.338956 0.459824 0.455425
2430 4 0.156502 0.0132946 0.518093
341 4 0.175071 0.0181028 0.509202
1152 4 0.205596 0.0768485 0.514758
342 4 0.203382 0.0590612 0.50455
340 2 0.189227 0.038582 0.506876
1150 2 0.218582 0.0826576 0.53532
1032 4 0.245135 0.0843672 0.569534
1030 2 0.250071 0.0643317 0.583655
431 4 0.335023 0.0575901 0.515645
842 4 0.392151 0.0240606 0.514444
841 2 0.369454 0.0335224 0.518973
843 4 0.346757 0.0429842 0.523502
1058 4 0.122188 0.104593 0.5085
1270 2 0.0931574 0.145123 0.569582
1271 4 0.109627 0.126315 0.57002
1057 2 0.119343 0.108776 0.532986
1059 4 0.116498 0.112958 0.557473
1155 4 0.128355 0.122283 0.570505
939 4 0.115864 0.108624 0.575895
1153 2 0.149188 0.127141 0.583451
1151 4 0.231569 0.0884667 0.555881
1180 2 0.237609 0.122582 0.578171
1181 4 0.242608 0.102688 0.563874
900 4 0.235503 0.162109 0.591027
1199 4 0.0272846 0.213209 0.574834
879 4 0.0627708 0.166924 0.556692
1198 2 0.00501574 0.218795 0.564931
877 2 0.0513327 0.184337 0.570516
695 4 0.0875022 0.243805 0.524971
1272 4 0.0766873 0.163931 0.569144
651 4 0.226809 0.226486 0.50185
858 4 0.22229 0.242672 0.512135
898 2 0.236286 0.176999 0.570955
649 2 0.236609 0.210236 0.51813
650 4 0.24641 0.193985 0.53441
899 4 0.237069 0.191888 0.550883
2455 2 0.485167 0.240114 0.503039
694 2 0.0871347 0.256717 0.503563
984 4 0.0108782 0.294109 0.569864
856 2 0.206448 0.256268 0.525896
857 4 0.190605 0.269864 0.539656
947 4 0.191555 0.267731 0.559417
946 2 0.174035 0.28014 0.572232
798 4 0.202814 0.263083 0.575613
796 2 0.226943 0.268327 0.579547
797 4 0.251072 0.273572 0.583481
1011 4 0.467174 0.32423 0.50055
2457 4 0.46508 0.254864 0.505078
1010 4 0.468881 0.274771 0.507731
1009 2 0.468027 0.2995 0.50414
502 2 0.195378 0.361241 0.508956
503 4 0.197881 0.336427 0.51075
504 4 0.192876 0.386054 0.507163
710 4 0.175642 0.396604 0.507956
1189 2 0.234807 0.365453 0.579013
803 4 0.269809 0.363419 0.559804
804 4 0.262887 0.345412 0.513668
802 2 0.266348 0.354415 0.536736
1190 4 0.253981 0.354555 0.567231
1238 4 0.270193 0.356943 0.578248
792 4 0.258528 0.341691 0.580975
929 4 0.350497 0.375513 0.542841
881 4 0.337053 0.381896 0.5303
880 2 0.35296 0.376275 0.511845
928 2 0.341764 0.371811 0.565976
539 4 0.102244 0.431132 0.586934
538 2 0.104482 0.456027 0.587572
2244 4 0.115365 0.498951 0.58883
1081 2 0.0728826 0.0649584 0.635184
1082 4 0.0744471 0.0622039 0.659986
1083 4 0.071318 0.0677129 0.610382
938 4 0.0838485 0.0761604 0.596435
951 4 0.252503 0.0260721 0.603571
824 4 0.177181 0.00268452 0.674775
1031 4 0.255006 0.0442961 0.597775
949 2 0.264383 0.0192306 0.624481
950 4 0.276262 0.012389 0.645392
3008 4 0.492353 0.0160664 0.596378
809 4 0.487887 0.0276582 0.61168
808 2 0.477632 0.0415978 0.629728
810 4 0.467378 0.0555375 0.647775
45 3 0.465875 0.0777701 0.641924
41 1 0.45894 0.0747078 0.663399
1127 4 0.0542195 0.0773677 0.608019
1126 2 0.0310948 0.0848386 0.602135
1128 4 0.00797021 0.0923095 0.596251
937 2 0.0998562 0.0923921 0.586165
1154 4 0.17002 0.131998 0.596396
1182 4 0.23261 0.142477 0.592468
1221 4 0.172061 0.151939 0.594174
1219 2 0.196708 0.154011 0.597836
1211 4 0.239202 0.144473 0.665993
1210 2 0.231584 0.152651 0.643626
1220 4 0.221355 0.156082 0.601497
1212 4 0.223966 0.160829 0.62126
1192 2 0.326334 0.163211 0.635764
1193 4 0.332947 0.165313 0.611743
3424 2 0.496213 0.105149 0.645438
3425 4 0.477651 0.0917269 0.655463
878 4 0.0398947 0.201751 0.584341
1244 4 0.0376864 0.208404 0.602181
1243 2 0.0387195 0.231965 0.610486
1194 4 0.319721 0.16111 0.659786
3123 4 0.489703 0.230447 0.641841
983 4 0.0292995 0.269414 0.609254
1245 4 0.0397526 0.255526 0.61879
982 2 0.0200888 0.281762 0.589559
3263 4 0.0465675 0.324531 0.615491
948 4 0.156515 0.29255 0.585048
1135 2 0.163363 0.321464 0.618056
1136 4 0.156963 0.309048 0.597318
820 2 0.155572 0.311453 0.670218
822 4 0.167535 0.328875 0.656856
791 4 0.258044 0.292248 0.588452
790 2 0.258286 0.316969 0.584714
872 4 0.327778 0.295201 0.607513
871 2 0.351278 0.303717 0.606869
813 4 0.380285 0.320714 0.62422
873 4 0.374778 0.312233 0.606225
953 4 0.473682 0.332452 0.608999
954 4 0.446747 0.29112 0.600821
952 2 0.460215 0.311786 0.60491
3262 2 0.0536133 0.346858 0.624269
1041 4 0.0661939 0.387434 0.637855
3264 4 0.0606591 0.369185 0.633047
3240 4 0.0477458 0.383096 0.634383
3238 2 0.0251788 0.391809 0.640708
3239 4 0.00261186 0.400521 0.647034
1039 2 0.0911872 0.386778 0.63757
1040 4 0.116181 0.386122 0.637285
993 4 0.124163 0.375464 0.650921
991 2 0.144763 0.361344 0.649713
992 4 0.165363 0.347225 0.648505
1137 4 0.169762 0.33388 0.638794
1064 4 0.179828 0.343201 0.653705
897 4 0.180682 0.349517 0.635978
896 4 0.20004 0.382396 0.603651
895 2 0.190361 0.365956 0.619814
1172 4 0.21837 0.387203 0.606261
1191 4 0.215634 0.37635 0.590794
1239 4 0.315394 0.364523 0.598252
1237 2 0.292794 0.360733 0.58825
930 4 0.33303 0.368109 0.58911
811 2 0.379411 0.34555 0.626968
1204 2 0.373448 0.391305 0.658609
1206 4 0.377715 0.38931 0.634053
927 4 0.394225 0.380965 0.628336
812 4 0.378537 0.370387 0.629716
925 2 0.403566 0.397903 0.612492
926 4 0.412907 0.414841 0.596648
906 4 0.490084 0.326196 0.597652
1159 2 0.146914 0.491277 0.597289
540 4 0.10672 0.480922 0.58821
1160 4 0.12301 0.483962 0.597783
1171 2 0.223511 0.411641 0.6075
1186 2 0.203696 0.473328 0.605188
1173 4 0.228651 0.436079 0.608738
1187 4 0.217041 0.452613 0.609426
1188 4 0.19035 0.494043 0.600951
1911 4 0.443411 0.480441 0.60505
1002 4 0.432125 0.416703 0.593648
1001 4 0.445365 0.46207 0.609997
1000 2 0.438745 0.439386 0.601823
1269 4 0.459448 0.473432 0.616255
1267 2 0.463736 0.479343 0.640168
1268 4 0.468024 0.485254 0.664082
943 2 0.0356435 0.0177634 0.672606
944 4 0.051202 0.0371212 0.675502
1076 4 0.0682829 0.0468844 0.669302
1075 2 0.0614603 0.0632758 0.686908
945 4 0.020085 0.998406 0.66971
864 4 0.0508176 0.074441 0.722828
1077 4 0.0546378 0.0796672 0.704513
862 2 0.0355807 0.0720458 0.742507
825 4 0.18292 0.0522511 0.678081
823 2 0.180051 0.0274678 0.676428
1283 4 0.169939 0.0682917 0.675558
1149 4 0.218532 0.0501619 0.721492
1147 2 0.23685 0.0627597 0.710049
1148 4 0.255168 0.0753574 0.698607
1004 4 0.33848 0.0696124 0.738265
1003 2 0.337182 0.0872379 0.720578
43 3 0.436424 0.079992 0.665276
42 3 0.461918 0.0526617 0.669251
1163 4 0.47486 0.0650209 0.68153
1162 2 0.488983 0.053091 0.698365
2321 4 0.498824 0.0315115 0.731308
851 4 0.056443 0.0989349 0.705485
850 2 0.0564842 0.123763 0.702529
852 4 0.0565254 0.148591 0.699574
1107 4 0.0656699 0.0848609 0.716539
1105 2 0.0869094 0.0877857 0.729404
1106 4 0.108149 0.0907104 0.742269
1282 2 0.172258 0.0928106 0.679873
1284 4 0.174578 0.11733 0.684188
909 4 0.182065 0.134112 0.6957
907 2 0.205785 0.136227 0.68808
908 4 0.229505 0.138343 0.680459
1227 4 0.248952 0.133163 0.673382
1225 2 0.253642 0.108952 0.677507
886 2 0.280626 0.159164 0.669865
888 4 0.257013 0.151319 0.667398
1226 4 0.258332 0.0847406 0.681631
829 2 0.324234 0.1391 0.694887
830 4 0.319358 0.157395 0.678555
831 4 0.329109 0.120806 0.711218
1005 4 0.335884 0.104863 0.702891
44 3 0.471423 0.088024 0.677725
1146 4 0.491984 0.166885 0.708941
1178 4 0.99815 0.241408 0.724226
887 4 0.304238 0.167009 0.672332
977 4 0.304805 0.217918 0.73921
976 2 0.327152 0.218873 0.728035
978 4 0.349499 0.219828 0.71686
1025 4 0.402616 0.18177 0.683795
1020 4 0.367562 0.228555 0.71755
1024 2 0.418029 0.188837 0.702171
1142 4 0.44061 0.189747 0.736757
1144 2 0.472704 0.181013 0.716281
1262 4 0.442836 0.209189 0.730532
1026 4 0.433443 0.195903 0.720547
1261 2 0.443403 0.233763 0.735114
1145 4 0.453425 0.19514 0.723621
1177 2 0.016324 0.2544 0.712997
1179 4 0.0344983 0.267392 0.701769
1130 4 0.146024 0.252781 0.742531
1208 4 0.138954 0.262282 0.728028
1074 4 0.127298 0.262363 0.743122
1207 2 0.148561 0.271012 0.706658
821 4 0.14361 0.294031 0.68358
1209 4 0.158168 0.279742 0.685288
805 2 0.230374 0.325893 0.710677
806 4 0.244839 0.307453 0.71939
1018 2 0.376389 0.240632 0.737585
1263 4 0.443969 0.258337 0.739697
893 4 0.999363 0.358284 0.735304
892 2 0.0229356 0.365092 0.740118
1279 2 0.0580864 0.412477 0.742151
1280 4 0.0545361 0.387831 0.73988
816 4 0.0665336 0.374246 0.746615
894 4 0.0465081 0.371899 0.744932
814 2 0.0855451 0.361469 0.736591
815 4 0.104557 0.348691 0.726568
942 4 0.123657 0.343985 0.724584
940 2 0.143281 0.357993 0.731207
941 4 0.162905 0.372 0.737829
1063 2 0.19664 0.350189 0.670843
1065 4 0.213451 0.357178 0.687981
807 4 0.215909 0.344332 0.701963
1028 4 0.221249 0.374172 0.690079
1066 2 0.198527 0.369535 0.723491
1068 4 0.215316 0.363622 0.705931
1027 2 0.234802 0.395053 0.687737
1067 4 0.181738 0.375448 0.74105
1029 4 0.248355 0.415934 0.685396
1205 4 0.369182 0.393299 0.683165
1281 4 0.0616368 0.437122 0.744423
1983 4 0.0812498 0.440549 0.744445
1981 2 0.0839233 0.464586 0.738103
1982 4 0.0865967 0.488624 0.731761
1176 4 0.175133 0.483691 0.729416
1175 4 0.160118 0.490752 0.682242
1174 2 0.167626 0.487221 0.705829
1140 4 0.249128 0.42795 0.669187
1138 2 0.263936 0.445807 0.678517
1139 4 0.278744 0.463663 0.687847
1987 2 0.286591 0.453084 0.7281
1229 4 0.2974 0.4678 0.69274
1989 4 0.295914 0.470142 0.712375
2028 4 0.285485 0.478671 0.698652
1228 2 0.322046 0.467969 0.68853
1230 4 0.346692 0.468138 0.684321
1101 4 0.468798 0.479396 0.683178
1099 2 0.449792 0.474781 0.698755
1100 4 0.430786 0.470167 0.714333
2168 4 0.472184 0.498169 0.678148
2989 2 0.0185786 0.0314883 0.777581
2990 4 0.0140089 0.0555709 0.772649
2991 4 0.0231483 0.00740564 0.782513
863 4 0.0203438 0.0696506 0.762187
833 4 0.00594637 0.0721977 0.776797
2049 4 0.0941212 0.0191368 0.778404
1202 4 0.102654 0.0330578 0.788692
1201 2 0.109353 0.0568077 0.784661
2047 2 0.111125 0.00207137 0.77171
1203 4 0.116052 0.0805577 0.780631
1085 4 0.325767 0.0768555 0.801289
1084 2 0.306662 0.0901765 0.792193
1050 4 0.369808 0.00826178 0.769514
960 4 0.329949 0.0842459 0.818055
819 4 0.343331 0.073708 0.807353
817 2 0.346961 0.0496962 0.801401
818 4 0.350592 0.0256843 0.795449
974 4 0.358449 0.0097959 0.786632
2322 4 0.494446 0.0494825 0.777769
845 4 0.495438 0.0681679 0.783554
844 2 0.496568 0.0684975 0.80853
846 4 0.497698 0.0688272 0.833506
2320 2 0.496635 0.040497 0.754539
832 2 0.0110664 0.0903685 0.793192
834 4 0.0161864 0.108539 0.809587
1125 4 0.0222172 0.124099 0.819658
32 3 0.132742 0.0907382 0.792626
911 4 0.123647 0.108883 0.803505
34 3 0.110241 0.0942259 0.762723
31 1 0.124638 0.10553 0.776984
35 3 0.113477 0.122305 0.787598
33 3 0.142466 0.11425 0.764962