ITEM: TIMESTEP
2480000
ITEM: NUMBER OF ATOMS
4590
ITEM: BOX BOUNDS pp pp pp
-9.9985700000000008e+00 9.9985700000000008e+00
-9.9985700000000008e+00 9.9985700000000008e+00
-9.9985700000000008e+00 9.9985700000000008e+00
ITEM: ATOMS id type xs ys zs
465 4 0.0855721 0.0723951 0.0348086
463 2 0.0655694 0.0796167 0.0479584
701 4 0.0964579 0.078663 0.0203348
700 2 0.117517 0.0653136 0.0221985
702 4 0.138577 0.0519643 0.0240622
566 4 0.155042 0.0639813 0.0227357
565 2 0.172092 0.0636538 0.00444914
746 4 0.493177 0.0613219 0.0187976
2467 2 0.496092 0.0297424 0.0461459
2469 4 0.486603 0.0452387 0.0289702
464 4 0.0455667 0.0868382 0.0611083
590 4 0.0471222 0.0951906 0.0790898
589 2 0.0227873 0.100254 0.081801
558 4 0.338028 0.126219 0.0514087
556 2 0.350641 0.119805 0.0720229
865 2 0.359962 0.156007 0.00465526
553 2 0.0776502 0.232982 0.0109
555 4 0.0882044 0.227771 0.0329597
835 2 0.123684 0.205199 0.0214438
836 4 0.103922 0.214807 0.0333735
837 4 0.143447 0.195591 0.00951404
915 4 0.160989 0.205554 0.0136803
738 4 0.15871 0.182206 0.0733508
573 4 0.345779 0.246152 0.0613895
666 4 0.349827 0.226921 0.0609956
461 4 0.349899 0.236315 0.0778641
664 2 0.351616 0.208269 0.0444407
665 4 0.353406 0.189617 0.0278858
867 4 0.361212 0.171245 0.0244392
769 2 0.471544 0.169288 0.0724996
771 4 0.482352 0.167525 0.0500219
1070 4 0.459993 0.227774 0.0421244
1069 2 0.44656 0.242928 0.05679
2807 4 0.995497 0.284969 0.0341632
2808 4 0.0158329 0.330653 0.0344259
2806 2 0.00566507 0.307811 0.0342946
294 4 0.105511 0.307845 0.0641591
292 2 0.119369 0.326022 0.0540227
356 4 0.312929 0.303225 0.045849
572 4 0.324148 0.286867 0.0420213
355 2 0.308001 0.325348 0.0352907
571 2 0.334964 0.26651 0.0517054
1071 4 0.433128 0.258083 0.0714556
324 4 0.443957 0.273304 0.0643331
322 2 0.453243 0.296237 0.067945
323 4 0.462529 0.31917 0.071557
672 4 0.456044 0.336915 0.0616263
647 4 0.0288254 0.363784 0.0705559
646 2 0.0510232 0.354398 0.0772147
620 4 0.010483 0.373739 0.0712173
293 4 0.133227 0.344198 0.0438863
507 4 0.140164 0.333586 0.0287256
505 2 0.159195 0.3486 0.022596
481 2 0.215032 0.378766 0.00875659
482 4 0.238247 0.386695 0.0135926
483 4 0.191817 0.370838 0.00392062
609 4 0.246151 0.404211 0.0194849
536 4 0.203562 0.397222 0.0742148
611 4 0.232136 0.335496 0.0903938
535 2 0.215713 0.376501 0.0811567
506 4 0.178226 0.363614 0.0164665
357 4 0.303072 0.347471 0.0247324
902 4 0.308237 0.353917 0.0053305
957 4 0.368829 0.379487 0.0361258
955 2 0.373141 0.379153 0.011499
280 2 0.489041 0.409987 0.0481456
281 4 0.497175 0.389484 0.0599185
671 4 0.486109 0.376197 0.0689635
670 2 0.471077 0.356556 0.0652949
551 4 0.0380886 0.436015 0.0752202
550 2 0.0597905 0.448432 0.0750462
1787 4 0.0965869 0.469606 0.0657211
1786 2 0.104638 0.473312 0.0423411
1788 4 0.11269 0.477017 0.018961
242 4 0.0922116 0.473966 0.0841255
552 4 0.0814923 0.460848 0.0748723
246 4 0.245057 0.481122 0.0397499
244 2 0.225896 0.469804 0.0511487
245 4 0.206735 0.458487 0.0625475
627 4 0.192078 0.446133 0.0615633
625 2 0.190414 0.42489 0.074646
607 2 0.265159 0.418599 0.0270238
272 4 0.258602 0.478922 0.026157
1778 4 0.259892 0.493184 0.039774
271 2 0.260334 0.473807 0.00174354
608 4 0.284168 0.432987 0.0345628
252 4 0.303239 0.430378 0.0396761
250 2 0.313805 0.449288 0.0271874
251 4 0.32437 0.468197 0.0146988
523 2 0.377576 0.473986 0.0661276
524 4 0.363937 0.454334 0.0734073
2289 4 0.338179 0.476402 0.0261621
525 4 0.391214 0.493637 0.0588479
282 4 0.480906 0.430491 0.0363726
226 2 0.477522 0.472754 0.050566
227 4 0.476886 0.448646 0.0439653
228 4 0.478158 0.496862 0.0571667
16 1 0.0658224 0.0583008 0.153205
20 3 0.0764563 0.0752592 0.142343
1806 4 0.0559055 0.0274195 0.125321
18 3 0.0614712 0.0409393 0.138439
19 3 0.0459776 0.0660187 0.162426
1804 2 0.0474664 0.00627995 0.114973
673 2 0.124055 0.0510813 0.167073
674 4 0.148008 0.0480323 0.160582
450 4 0.165553 0.0568255 0.163067
1505 4 0.163944 0.037509 0.163329
448 2 0.174657 0.0788611 0.155536
654 4 0.313648 0.0216343 0.151313
1661 4 0.309646 0.00263936 0.157958
484 2 0.357027 0.0191348 0.135141
295 2 0.363071 0.0808888 0.115769
297 4 0.364867 0.0563106 0.119996
485 4 0.367159 0.0418368 0.132469
579 4 0.0911107 0.130978 0.121433
237 4 0.148752 0.155824 0.134645
578 4 0.131561 0.159882 0.126822
577 2 0.111336 0.14543 0.124127
235 2 0.165374 0.137388 0.137643
236 4 0.181996 0.118951 0.140642
693 4 0.19666 0.114499 0.152837
449 4 0.183762 0.100897 0.148005
691 2 0.220349 0.110724 0.159891
692 4 0.244038 0.106949 0.166945
582 4 0.253312 0.0982044 0.151642
580 2 0.273268 0.112886 0.155015
581 4 0.293224 0.127568 0.158389
29 3 0.318106 0.162285 0.151796
557 4 0.363254 0.113391 0.0926371
296 4 0.361275 0.105467 0.111543
476 4 0.140324 0.172929 0.138227
737 4 0.145984 0.169211 0.119933
475 2 0.13052 0.181726 0.159479
736 2 0.152347 0.175709 0.096642
283 2 0.319146 0.199624 0.135774
354 4 0.316128 0.239867 0.135708
285 4 0.314429 0.175136 0.137583
284 4 0.323862 0.224112 0.133966
462 4 0.325414 0.236426 0.121467
460 2 0.337656 0.236371 0.0996654
255 4 0.333434 0.238428 0.137102
253 2 0.352466 0.244985 0.151932
254 4 0.371499 0.251543 0.166762
770 4 0.460735 0.17105 0.0949772
1014 4 0.477004 0.176395 0.105992
1013 4 0.479035 0.22097 0.128567
1012 2 0.478019 0.198683 0.117279
756 4 0.249641 0.319047 0.143845
610 2 0.245714 0.335117 0.111386
352 2 0.294803 0.249657 0.144344
353 4 0.273478 0.259447 0.152981
754 2 0.261008 0.298347 0.152061
755 4 0.272375 0.277647 0.160276
612 4 0.259292 0.334737 0.132378
456 4 0.0829768 0.335378 0.0972685
648 4 0.073221 0.345012 0.0838735
455 4 0.110005 0.360563 0.130972
454 2 0.0964909 0.34797 0.11412
537 4 0.227864 0.355781 0.0880987
626 4 0.188749 0.403648 0.0877287
387 4 0.334181 0.406903 0.146511
741 4 0.410578 0.368683 0.104694
739 2 0.401292 0.373051 0.127495
740 4 0.392006 0.377418 0.150295
15 3 0.380554 0.365041 0.159695
385 2 0.355683 0.395688 0.152601
386 4 0.377184 0.384474 0.158692
1466 4 0.0316471 0.497072 0.0970333
1465 2 0.0163507 0.477619 0.0934594
241 2 0.106912 0.468175 0.103505
1438 2 0.15849 0.481452 0.122877
243 4 0.121612 0.462385 0.122884
1440 4 0.135005 0.476288 0.12973
1439 4 0.181975 0.486616 0.116024
637 2 0.210598 0.469037 0.134321
638 4 0.234956 0.466004 0.139084
639 4 0.186241 0.47207 0.129557
767 4 0.249102 0.478365 0.133938
303 4 0.311164 0.460866 0.125087
766 2 0.270951 0.466436 0.131594
768 4 0.2928 0.454508 0.12925
301 2 0.326296 0.442711 0.133248
302 4 0.341428 0.424556 0.141409
493 2 0.406279 0.41246 0.167128
494 4 0.416704 0.435006 0.169984
660 4 0.41537 0.454732 0.162706
17 3 0.0793284 0.0504811 0.170105
380 4 0.0297978 0.0706532 0.174742
675 4 0.100102 0.0541304 0.173564
1504 2 0.174706 0.0275364 0.183574
1506 4 0.185469 0.0175637 0.20382
689 4 0.200236 0.00336487 0.205439
652 2 0.3165 0.0408738 0.167026
653 4 0.319351 0.0601134 0.182739
22 3 0.410295 0.00977353 0.18786
21 1 0.408759 0.0187874 0.208968
23 3 0.387996 0.0288737 0.211324
757 2 0.451133 0.0617857 0.194153
25 3 0.425261 0.0342337 0.211747
759 4 0.440374 0.0450078 0.20925
350 4 0.438167 0.0370939 0.225925
758 4 0.461892 0.0785636 0.179056
379 2 0.0273741 0.0919705 0.187582
512 4 0.0323049 0.117514 0.21773
381 4 0.0249505 0.113288 0.200423
511 2 0.051495 0.131923 0.224752
513 4 0.0706852 0.146332 0.231774
339 4 0.0795971 0.148028 0.212191
337 2 0.09612 0.160568 0.19823
30 3 0.289919 0.144676 0.16949
26 1 0.307889 0.15839 0.172261
27 3 0.323029 0.14829 0.186329
521 4 0.485501 0.15118 0.239713
311 4 0.446339 0.178351 0.226021
477 4 0.120715 0.190524 0.180731
363 4 0.10503 0.189278 0.192476
338 4 0.112643 0.173109 0.18427
362 4 0.105356 0.238035 0.203579
361 2 0.105193 0.213657 0.198028
372 4 0.113754 0.245305 0.21963
370 2 0.127939 0.254028 0.238281
279 4 0.244074 0.237502 0.208034
28 3 0.301132 0.178484 0.181694
630 4 0.377756 0.238425 0.179275
628 2 0.385974 0.216615 0.188329
629 4 0.394191 0.194805 0.197382
312 4 0.41107 0.189529 0.192378
310 2 0.428704 0.18394 0.2092
749 4 0.0616414 0.295933 0.165935
750 4 0.0373556 0.294114 0.209611
395 4 0.03588 0.276313 0.220812
748 2 0.0494985 0.295024 0.187773
394 2 0.0286158 0.279028 0.244583
300 4 0.139049 0.284232 0.212228
298 2 0.127739 0.305782 0.217962
299 4 0.11643 0.327332 0.223695
401 4 0.243733 0.303766 0.243861
278 4 0.266447 0.262245 0.170778
277 2 0.255261 0.249874 0.189406
307 2 0.31763 0.326259 0.185298
308 4 0.315965 0.328273 0.210165
497 4 0.300191 0.32967 0.220985
309 4 0.319295 0.324245 0.160431
496 2 0.279354 0.323096 0.23314
765 4 0.387787 0.255158 0.177834
763 2 0.406386 0.270253 0.185003
764 4 0.424985 0.285348 0.192172
528 4 0.491309 0.314135 0.176449
624 4 0.475574 0.324973 0.180117
623 4 0.43524 0.295513 0.177666
622 2 0.455407 0.310243 0.178892
262 2 0.035247 0.381544 0.225702
264 4 0.0193134 0.397719 0.236175
2618 4 0.0188873 0.416912 0.241987
263 4 0.0511807 0.36537 0.215229
602 4 0.0668465 0.352648 0.209874
601 2 0.0896088 0.349227 0.219639
603 4 0.112371 0.345806 0.229404
734 4 0.116382 0.331213 0.242463
290 4 0.171383 0.376064 0.199652
289 2 0.171537 0.396778 0.213655
495 4 0.395854 0.389913 0.164271
14 3 0.400545 0.384428 0.185035
11 1 0.389446 0.364528 0.180655
13 3 0.372639 0.361221 0.196307
12 3 0.404465 0.347164 0.18209
291 4 0.171691 0.417492 0.227659
416 4 0.166997 0.435628 0.229625
415 2 0.180514 0.453146 0.21798
1430 4 0.198002 0.483405 0.192571
417 4 0.19403 0.470663 0.206334
658 2 0.427696 0.475121 0.170291
659 4 0.440021 0.49551 0.177876
595 2 0.480302 0.48904 0.192757
597 4 0.501549 0.480546 0.202837
232 2 0.998904 0.04717 0.29894
1799 4 0.0259115 0.0171692 0.314267
233 4 0.0155845 0.0324303 0.310327
1402 2 0.0572302 0.0453981 0.315343
1403 4 0.0346053 0.0347604 0.314977
1404 4 0.0798551 0.0560357 0.315708
1798 2 0.0119111 0.00631111 0.33191
633 4 0.370789 0.0469546 0.297916
631 2 0.358328 0.0596387 0.280338
257 4 0.365434 0.0538552 0.314788
698 4 0.361515 0.0352281 0.310691
697 2 0.362108 0.0114176 0.3183
632 4 0.345867 0.0723229 0.262759
349 2 0.444303 0.0302835 0.249187
744 4 0.458507 0.0230741 0.290521
742 2 0.473783 0.027069 0.309907
351 4 0.450439 0.0234732 0.27245
397 2 0.0762753 0.131418 0.329902
390 4 0.0759173 0.159678 0.306445
398 4 0.0879068 0.147858 0.315084
393 4 0.0910822 0.152659 0.295928
545 4 0.133445 0.154364 0.264559
392 4 0.123805 0.136266 0.261852
391 2 0.107444 0.144463 0.27889
404 4 0.215099 0.16167 0.33
444 4 0.0115522 0.23872 0.312316
388 2 0.0623484 0.180335 0.310228
389 4 0.0487795 0.200993 0.314012
544 2 0.156783 0.162206 0.268921
723 4 0.220162 0.221514 0.253593
721 2 0.206787 0.202629 0.263062
546 4 0.180121 0.170048 0.273282
403 2 0.201994 0.169314 0.310125
405 4 0.188888 0.176958 0.290251
722 4 0.193411 0.183745 0.27253
420 4 0.398769 0.231059 0.262914
717 4 0.383355 0.240139 0.272482
331 2 0.452963 0.211454 0.315255
332 4 0.451124 0.205105 0.291141
418 2 0.421029 0.226246 0.273235
419 4 0.443289 0.221433 0.283555
760 2 0.479047 0.21967 0.264717
762 4 0.456702 0.213027 0.273758
364 2 0.00996242 0.316885 0.288201
442 2 0.0130308 0.260138 0.2995
396 4 0.0213516 0.281744 0.268353
443 4 0.0145095 0.281556 0.286684
366 4 0.00980982 0.337796 0.301907
365 4 0.010115 0.295973 0.274494
371 4 0.142123 0.262751 0.256933
677 4 0.137477 0.314358 0.298268
676 2 0.160892 0.317701 0.306376
735 4 0.125265 0.329194 0.291633
733 2 0.120823 0.330204 0.267048
510 4 0.243728 0.296539 0.311105
508 2 0.222513 0.308256 0.317256
400 2 0.245228 0.297418 0.267999
402 4 0.246723 0.291069 0.292137
509 4 0.201299 0.319973 0.323406
678 4 0.184307 0.321044 0.314483
345 4 0.261995 0.293575 0.304568
498 4 0.258517 0.316521 0.245296
343 2 0.277322 0.274411 0.309366
344 4 0.292649 0.255248 0.314164
715 2 0.377337 0.264406 0.272703
716 4 0.371318 0.288674 0.272924
542 4 0.385291 0.297911 0.285246
541 2 0.388998 0.310577 0.306483
543 4 0.392705 0.323242 0.32772
751 2 0.479063 0.330379 0.328699
407 4 0.0178708 0.336494 0.31972
548 4 0.015924 0.353709 0.310517
547 2 0.025969 0.376575 0.309319
549 4 0.036014 0.399441 0.308122
777 4 0.0483831 0.414512 0.30389
435 4 0.193886 0.33766 0.319848
728 4 0.364546 0.369081 0.313423
727 2 0.363854 0.393215 0.319922
2538 4 0.484903 0.33109 0.293949
2536 2 0.494878 0.347472 0.277908
753 4 0.473145 0.342276 0.307519
2860 2 0.479898 0.399643 0.270246
775 2 0.0627228 0.428229 0.319102
776 4 0.0770626 0.441946 0.334313
1543 2 0.16778 0.470899 0.328814
1435 2 0.198682 0.498378 0.29076
1545 4 0.190303 0.468209 0.318293
1436 4 0.202693 0.481097 0.30838
729 4 0.363163 0.417349 0.326422
437 4 0.366126 0.433628 0.317049
2861 4 0.465189 0.418343 0.277936
1771 2 0.00703748 0.0147629 0.385063
1772 4 0.0131186 0.0331941 0.400826
2238 4 0.0241858 0.0488554 0.39569
732 4 0.0860902 0.0718528 0.392369
369 4 0.101386 0.0683158 0.40424
605 4 0.161277 0.0555941 0.388394
604 2 0.166989 0.0411368 0.407978
1701 4 0.174837 0.0703409 0.39102
256 2 0.38038 0.064623 0.331695
258 4 0.395327 0.0753909 0.348602
426 4 0.395709 0.0606648 0.363165
424 2 0.389079 0.055388 0.386689
425 4 0.38245 0.0501112 0.410213
1580 4 0.393405 0.0339637 0.414378
743 4 0.48906 0.0310639 0.329294
479 4 0.493374 0.041512 0.345395
478 2 0.485052 0.0607182 0.359072
480 4 0.47673 0.0799243 0.372748
458 4 0.00392448 0.154538 0.346566
318 4 0.00847341 0.140191 0.360683
399 4 0.0646438 0.114977 0.344721
317 4 0.0485731 0.110857 0.355002
731 4 0.0669569 0.106348 0.361634
730 2 0.0765236 0.0891006 0.377001
316 2 0.0285233 0.125524 0.357843
1699 2 0.194117 0.0844551 0.383655
247 2 0.211481 0.139752 0.360104
248 4 0.215879 0.117524 0.370674
1700 4 0.213397 0.0985693 0.376291
249 4 0.207082 0.161981 0.349534
319 2 0.314533 0.11902 0.384151
320 4 0.301215 0.119395 0.405309
706 2 0.323392 0.160529 0.346942
321 4 0.327851 0.118645 0.362993
708 4 0.325715 0.136935 0.354884
684 4 0.284112 0.125195 0.411864
682 2 0.264305 0.140449 0.411451
516 4 0.465148 0.162329 0.380109
575 4 0.453694 0.147732 0.373507
574 2 0.462234 0.133337 0.392082
457 2 0.00934878 0.177089 0.355903
2654 4 0.00162331 0.207509 0.378454
459 4 0.0147731 0.199641 0.36524
378 4 0.298589 0.249837 0.33261
376 2 0.303795 0.22558 0.335721
377 4 0.309001 0.201323 0.338831
707 4 0.321068 0.184124 0.338999
466 2 0.389517 0.236517 0.407021
467 4 0.405671 0.218489 0.413281
333 4 0.454802 0.217803 0.339369
514 2 0.462476 0.182311 0.365318
515 4 0.459803 0.202292 0.350527
453 4 0.463235 0.220477 0.357235
451 2 0.48608 0.230626 0.356687
406 2 0.0306088 0.329975 0.340224
408 4 0.0433467 0.323455 0.360728
347 4 0.0839959 0.330519 0.383948
275 4 0.154391 0.321644 0.350742
274 2 0.170194 0.309002 0.365427
276 4 0.185996 0.29636 0.380112
473 4 0.241266 0.265565 0.408977
374 4 0.235045 0.282837 0.399656
373 2 0.213773 0.280887 0.386661
375 4 0.192501 0.278936 0.373665
468 4 0.373363 0.254546 0.400761
615 4 0.40788 0.322543 0.340043
267 4 0.35455 0.259691 0.397453
265 2 0.348527 0.283761 0.400541
266 4 0.342504 0.307831 0.403628
613 2 0.423073 0.327706 0.359218
752 4 0.484981 0.318482 0.34988
614 4 0.438267 0.33287 0.378394
346 2 0.0684067 0.339174 0.401476
617 4 0.134654 0.319242 0.351799
618 4 0.101592 0.342024 0.381609
616 2 0.118123 0.330633 0.366704
433 2 0.193856 0.350472 0.341319
434 4 0.193825 0.363284 0.362791
335 4 0.364948 0.395989 0.390848
240 4 0.374999 0.409336 0.40145
414 4 0.0797021 0.456018 0.347237
412 2 0.103209 0.464527 0.346804
413 4 0.126716 0.473037 0.346372
1544 4 0.145258 0.47359 0.339334
500 4 0.133761 0.489494 0.337604
503 4 0.312893 0.421001 0.402648
336 4 0.325205 0.426244 0.388441
669 4 0.319819 0.439198 0.402675
667 2 0.317707 0.462282 0.412048
334 2 0.345076 0.411117 0.389645
436 2 0.369586 0.451406 0.334286
438 4 0.373045 0.469184 0.351524
592 2 0.415026 0.506147 0.377331
594 4 0.41534 0.482285 0.36987
3990 4 0.48465 0.494328 0.343613
2236 2 0.0303261 0.0552544 0.419068
1781 4 0.0692359 0.0122013 0.483302
1126 2 0.0104606 0.0465955 0.469229
1127 4 0.0320555 0.0561072 0.460961
2237 4 0.0364665 0.0616535 0.442446
719 4 0.080074 0.0841147 0.481087
720 4 0.0373961 0.07377 0.457164
718 2 0.0587351 0.0789423 0.469126
1780 2 0.0832827 0.0129202 0.46263
367 2 0.10338 0.050044 0.421191
368 4 0.105374 0.0317722 0.438142
1602 4 0.1449 0.97821 0.414743
606 4 0.172701 0.0266794 0.427562
1782 4 0.0973295 0.0136392 0.441958
962 4 0.246256 0.989937 0.489383
963 4 0.290158 0.0137083 0.49226
724 2 0.29183 0.051799 0.477224
726 4 0.284554 0.0735807 0.467335
725 4 0.299106 0.0300173 0.487113
432 4 0.309472 0.0149895 0.493818
1182 4 0.301072 0.0831159 0.461983
961 2 0.268207 0.00182245 0.490821
1579 2 0.381689 0.0127584 0.420561
642 4 0.435447 0.0681528 0.442138
2878 2 0.434376 0.0616305 0.482277
2880 4 0.44014 0.0561726 0.458567
939 4 0.0827128 0.131803 0.487128
1033 2 0.121569 0.12791 0.471479
1035 4 0.144484 0.13466 0.464095
261 4 0.155572 0.151041 0.47159
1034 4 0.0986542 0.121161 0.478863
683 4 0.244498 0.155703 0.411038
600 4 0.249372 0.166773 0.42659
1180 2 0.297328 0.0965262 0.441214
1181 4 0.293585 0.109936 0.420446
640 2 0.449477 0.0856976 0.43116
576 4 0.470774 0.118942 0.410657
641 4 0.463508 0.103242 0.420183
306 4 0.469709 0.118983 0.429965
304 2 0.467599 0.133898 0.449921
3158 4 0.455231 0.150645 0.487398
305 4 0.465488 0.148813 0.469878
259 2 0.15969 0.175512 0.468526
694 2 0.147324 0.229392 0.479852
696 4 0.130941 0.239611 0.495737
695 4 0.163707 0.219173 0.463966
260 4 0.163807 0.199984 0.465463
472 2 0.247404 0.248228 0.425917
599 4 0.243161 0.213879 0.442185
687 4 0.227207 0.218853 0.451928
686 4 0.180646 0.210017 0.467889
685 2 0.203926 0.214435 0.459909
411 4 0.244827 0.22396 0.458343
598 2 0.246267 0.190326 0.434388
409 2 0.259226 0.219064 0.478189
474 4 0.253542 0.230892 0.442856
488 4 0.270565 0.226242 0.434611
489 4 0.316804 0.212851 0.421068
487 2 0.293684 0.219546 0.427839
813 4 0.236705 0.303266 0.477679
2812 2 0.0180541 0.333247 0.436191
348 4 0.0528175 0.347829 0.419005
2813 4 0.0421192 0.338262 0.431618
326 4 0.0593075 0.344336 0.437604
325 2 0.0757124 0.354371 0.453584
384 4 0.138861 0.425641 0.497214
327 4 0.0921172 0.364406 0.469564
10 3 0.119526 0.355556 0.489995
7 3 0.0940711 0.380925 0.479929
6 1 0.111548 0.376467 0.494205
711 4 0.141075 0.405595 0.497872
8 3 0.128271 0.392171 0.490724
709 2 0.163426 0.405708 0.486664
635 4 0.194498 0.421429 0.467458
774 4 0.202203 0.412879 0.483293
710 4 0.185777 0.405821 0.475456
502 2 0.298111 0.411829 0.420607
504 4 0.283329 0.402657 0.438567
926 4 0.40965 0.412798 0.507637
679 2 0.0623252 0.456505 0.49352
680 4 0.0431887 0.472287 0.49037
1383 4 0.0377842 0.483726 0.476063
636 4 0.203215 0.460423 0.437388
634 2 0.198856 0.440926 0.452423
4 3 0.310611 0.502294 0.430158
668 4 0.315595 0.485365 0.421422
586 2 0.405192 0.43248 0.469721
239 4 0.407512 0.436504 0.428012
588 4 0.406854 0.442036 0.446675
238 2 0.391255 0.42292 0.414731
587 4 0.40353 0.422924 0.492767
1184 4 0.00832126 0.0173056 0.553863
1183 2 0.0197795 0.997219 0.563372
1150 2 0.144144 0.0592216 0.549358
342 4 0.143415 0.0438763 0.510748
1152 4 0.136081 0.0451789 0.530306
340 2 0.152983 0.0210152 0.507431
1151 4 0.152207 0.0732643 0.56841
430 2 0.329097 0.00618365 0.506564
841 2 0.367424 0.0240474 0.54916
842 4 0.37488 0.0380908 0.568456
1216 2 0.409515 0.0114389 0.580861
1217 4 0.390222 0.0270735 0.577947
843 4 0.359967 0.0100039 0.529863
2879 4 0.428613 0.0670884 0.505987
3009 4 0.487566 0.0645816 0.574379
1218 4 0.428809 0.995804 0.583774
879 4 0.0547126 0.142587 0.546332
877 2 0.0311265 0.143311 0.554599
878 4 0.00754035 0.144035 0.562866
938 4 0.063111 0.148533 0.529984
1272 4 0.0680401 0.157163 0.546374
937 2 0.0729119 0.140168 0.508556
3159 4 0.488136 0.138401 0.523008
3157 2 0.471684 0.144523 0.505203
1270 2 0.0744566 0.17666 0.560652
1258 2 0.115914 0.215078 0.521186
1259 4 0.116722 0.202689 0.54289
1271 4 0.0808731 0.196158 0.57493
1260 4 0.115106 0.227466 0.499482
898 2 0.293153 0.206856 0.526818
899 4 0.311804 0.193298 0.536486
900 4 0.274501 0.220415 0.51715
857 4 0.322565 0.189887 0.551877
856 2 0.314693 0.176648 0.571574
410 4 0.273626 0.214167 0.498035
791 4 0.330038 0.200064 0.536857
790 2 0.347674 0.216997 0.542096
792 4 0.365309 0.23393 0.547335
872 4 0.378042 0.248642 0.543487
811 2 0.242363 0.314547 0.499263
650 4 0.248739 0.319822 0.539856
812 4 0.248022 0.325829 0.520847
649 2 0.256878 0.307842 0.560237
651 4 0.265018 0.295861 0.580618
806 4 0.282094 0.285006 0.577785
1238 4 0.360776 0.252693 0.551487
871 2 0.390073 0.259059 0.524201
873 4 0.402105 0.269476 0.504916
1237 2 0.351857 0.263784 0.572045
583 2 0.505584 0.29247 0.502842
585 4 0.508037 0.267681 0.505007
1135 2 0.116635 0.406779 0.565104
897 4 0.149858 0.394074 0.573468
1137 4 0.13256 0.401112 0.583529
1136 4 0.100711 0.412446 0.546679
9 3 0.10389 0.377764 0.516071
773 4 0.232143 0.399219 0.520946
1189 2 0.223536 0.413634 0.558402
895 2 0.173005 0.402497 0.57776
1190 4 0.237402 0.404301 0.539806
803 4 0.242356 0.387381 0.532731
804 4 0.252719 0.3385 0.534738
802 2 0.247538 0.36294 0.533734
930 4 0.250125 0.404165 0.525408
772 2 0.217173 0.406049 0.50212
928 2 0.269836 0.419505 0.526573
925 2 0.415534 0.388527 0.506408
927 4 0.421419 0.364257 0.505179
681 4 0.0814618 0.440724 0.496669
383 4 0.092691 0.436881 0.512792
568 2 0.166539 0.457197 0.507017
382 2 0.115776 0.431261 0.505003
569 4 0.153619 0.43579 0.506988
896 4 0.196153 0.410919 0.582052
1191 4 0.20967 0.422968 0.576998
570 4 0.179459 0.478604 0.507046
1159 2 0.178136 0.496139 0.57783
929 4 0.289547 0.434845 0.527738
1952 4 0.296453 0.492158 0.521239
1951 2 0.301261 0.467658 0.519893
1953 4 0.30607 0.443158 0.518547
1000 2 0.402866 0.487536 0.551713
663 4 0.418707 0.429341 0.502611
1001 4 0.422457 0.472082 0.553317
661 2 0.424328 0.44681 0.519594
662 4 0.429948 0.464279 0.536577
1911 4 0.429456 0.45374 0.552321
1332 4 0.441503 0.469624 0.551137
1330 2 0.45761 0.487851 0.545349
1909 2 0.433122 0.447865 0.576346
1059 4 0.159086 0.0647024 0.584574
1058 4 0.183344 0.0312452 0.612732
1057 2 0.171215 0.0479738 0.598653
2375 4 0.18105 0.0133403 0.604896
949 2 0.273799 0.0164856 0.646984
951 4 0.275721 0.0414127 0.646632
1031 4 0.291215 0.0468175 0.657
1030 2 0.306735 0.0646141 0.665221
3007 2 0.493733 0.0830177 0.590103
43 3 0.433109 0.0753234 0.645427
45 3 0.444938 0.0467805 0.666946
1155 4 0.163621 0.0832225 0.581113
1153 2 0.164394 0.105485 0.592469
1154 4 0.165168 0.127747 0.603826
1221 4 0.178073 0.128667 0.620547
1219 2 0.190696 0.150171 0.618694
808 2 0.487769 0.0938724 0.644016
3008 4 0.4999 0.101454 0.605828
809 4 0.501112 0.0924885 0.622916
1244 4 0.0798843 0.210947 0.58898
1209 4 0.0943486 0.191306 0.652848
1245 4 0.0842169 0.200351 0.637659
1243 2 0.0820506 0.205649 0.613319
1210 2 0.239594 0.174713 0.63556
1212 4 0.216269 0.179943 0.628226
1220 4 0.203319 0.171674 0.61684
797 4 0.1802 0.232563 0.602074
796 2 0.191964 0.211901 0.609812
798 4 0.203728 0.191239 0.61755
858 4 0.306821 0.163409 0.59127
1211 4 0.262919 0.169484 0.642894
888 4 0.276458 0.167354 0.657516
1193 4 0.409014 0.228288 0.660531
3121 2 0.476935 0.231871 0.629949
3122 4 0.476959 0.209584 0.641282
3357 4 0.473324 0.191556 0.64954
3355 2 0.494421 0.183228 0.660062
983 4 0.0141635 0.285807 0.622686
982 2 0.0323069 0.297167 0.635607
984 4 0.0504504 0.308528 0.648527
3263 4 0.0526653 0.32196 0.66197
1041 4 0.0531263 0.327418 0.643145
805 2 0.304036 0.28306 0.589616
807 4 0.325977 0.281115 0.601446
1239 4 0.342938 0.274876 0.592603
3123 4 0.47691 0.254159 0.618615
906 4 0.466369 0.301882 0.59776
905 4 0.475366 0.267707 0.633141
904 2 0.470868 0.284794 0.61545
953 4 0.458866 0.318688 0.590705
1039 2 0.0555971 0.350246 0.633246
1040 4 0.0580678 0.373073 0.623347
993 4 0.069547 0.385932 0.614901
991 2 0.058565 0.407274 0.607896
1028 4 0.200454 0.398245 0.658284
1027 2 0.221909 0.39646 0.645568
1029 4 0.243364 0.394675 0.632853
952 2 0.476885 0.335655 0.594257
954 4 0.494903 0.352623 0.597808
3309 4 0.48808 0.409323 0.620993
992 4 0.047583 0.428617 0.600892
1172 4 0.204728 0.420338 0.596414
1160 4 0.181418 0.476148 0.592484
1171 2 0.201682 0.445087 0.598245
1173 4 0.198636 0.469837 0.600076
1187 4 0.187936 0.483076 0.609299
1186 2 0.193313 0.485804 0.633565
1188 4 0.19869 0.488532 0.65783
1268 4 0.418681 0.481379 0.644714
1267 2 0.420791 0.462205 0.628805
3182 4 0.496191 0.427307 0.620021
1206 4 0.484302 0.421768 0.635107
2168 4 0.434167 0.489688 0.634818
1204 2 0.461629 0.426432 0.625655
1910 4 0.436788 0.44199 0.600372
1269 4 0.422901 0.443031 0.612896
1205 4 0.438956 0.431097 0.616203
944 4 0.0696199 0.990289 0.678845
1284 4 0.105053 0.0453403 0.698572
1282 2 0.108788 0.0689199 0.706004
2047 2 0.150733 0.0123857 0.744024
2256 4 0.181544 0.0115987 0.725479
2049 4 0.164055 0.0204902 0.724479
1201 2 0.182421 0.0538549 0.716335
1202 4 0.180195 0.0289665 0.717225
1203 4 0.184646 0.0787433 0.715445
1148 4 0.196215 0.0888449 0.727554
1005 4 0.346712 0.0322004 0.709338
1003 2 0.344411 0.0161441 0.69031
41 1 0.441938 0.0693376 0.666034
42 3 0.427247 0.0757013 0.682551
1162 2 0.49008 0.0639223 0.692436
1163 4 0.478592 0.081262 0.67856
44 3 0.462182 0.0801597 0.669423
1077 4 0.0303063 0.114749 0.751154
1075 2 0.012277 0.106114 0.736136
1076 4 0.994248 0.0974784 0.721117
909 4 0.103685 0.15407 0.708657
907 2 0.106881 0.130644 0.716794
908 4 0.110078 0.107219 0.72493
1283 4 0.112523 0.0924995 0.713436
1227 4 0.128186 0.10166 0.721289
1225 2 0.152751 0.0974998 0.723386
1226 4 0.177317 0.0933399 0.725483
1147 2 0.213691 0.0937469 0.744751
1032 4 0.322256 0.0824108 0.673442
829 2 0.324158 0.147625 0.715789
830 4 0.30101 0.15567 0.72075
887 4 0.290567 0.159367 0.704822
886 2 0.283513 0.16336 0.681169
831 4 0.347306 0.139579 0.710828
1142 4 0.36398 0.14472 0.701376
1141 2 0.382649 0.161352 0.701477
810 4 0.474425 0.0952564 0.665116
1025 4 0.465427 0.153721 0.700331
3424 2 0.472417 0.117595 0.689907
3426 4 0.465281 0.094829 0.682426
3425 4 0.479553 0.140361 0.697388
3269 4 0.481689 0.154051 0.71125
3268 2 0.487931 0.162292 0.734017
1024 2 0.442942 0.164636 0.701037
852 4 0.0487975 0.179429 0.734819
1214 4 0.0307726 0.176373 0.7272
850 2 0.0702714 0.17396 0.723237
1213 2 0.00783659 0.186202 0.725617
851 4 0.0917453 0.168491 0.711655
1208 4 0.10462 0.169299 0.696562
1207 2 0.0994842 0.180303 0.674705
1107 4 0.110873 0.170658 0.714942
1105 2 0.128142 0.183706 0.727462
1106 4 0.14541 0.196753 0.739981
1130 4 0.164108 0.199156 0.748439
978 4 0.285664 0.167648 0.722171
976 2 0.286775 0.183655 0.741347
916 2 0.296686 0.237797 0.743602
1192 2 0.410625 0.21016 0.677677
1143 4 0.401319 0.177983 0.701579
1262 4 0.411806 0.188187 0.714352
1194 4 0.412235 0.192032 0.694822
1026 4 0.420458 0.175551 0.701743
1261 2 0.415517 0.193735 0.738448
3262 2 0.0607486 0.320261 0.68557
3264 4 0.0688319 0.318562 0.70917
779 4 0.0761472 0.310522 0.725124
893 4 0.0600859 0.32116 0.72657
778 2 0.0978094 0.298423 0.728213
780 4 0.119472 0.286324 0.731302
1065 4 0.214695 0.320735 0.714205
1063 2 0.23317 0.31209 0.699744
1064 4 0.251645 0.303445 0.685283
947 4 0.299153 0.261462 0.708005
946 2 0.284733 0.278947 0.697445
948 4 0.270313 0.296432 0.686884
917 4 0.299245 0.257633 0.728597
1008 4 0.456559 0.273325 0.707874
1006 2 0.450198 0.2697 0.731781
892 2 0.058048 0.336378 0.746304
1067 4 0.162155 0.39434 0.717237
940 2 0.127699 0.386714 0.745288
941 4 0.144346 0.39462 0.728389
1066 2 0.174727 0.395124 0.695638
1068 4 0.187299 0.395907 0.674039
1175 4 0.200209 0.4768 0.674253
1176 4 0.179565 0.442257 0.70394
1174 2 0.189887 0.459528 0.689097
1139 4 0.278933 0.480017 0.705359
1138 2 0.298393 0.468144 0.715631
1140 4 0.317854 0.45627 0.725902
1229 4 0.330471 0.441526 0.731726
1100 4 0.399137 0.441616 0.744967
1228 2 0.355163 0.441867 0.735645
1230 4 0.379855 0.442207 0.739563
1101 4 0.447064 0.45335 0.736838
1099 2 0.423101 0.447483 0.740903
3330 4 0.465602 0.460147 0.735375
3328 2 0.469031 0.461797 0.710663
1251 4 0.451097 0.472333 0.73793
3329 4 0.47246 0.463448 0.685951
1249 2 0.450154 0.494672 0.74912
2390 4 0.118255 0.999426 0.763822
1113 4 0.352946 0.0783483 0.810595
980 4 0.420035 0.999094 0.813711
2321 4 0.433481 0.011845 0.80824
2322 4 0.445335 0.0602916 0.804616
2320 2 0.439408 0.0360683 0.806428
846 4 0.454842 0.0638894 0.786945
844 2 0.441375 0.0817426 0.77576
864 4 0.050703 0.116838 0.751747
862 2 0.0484014 0.125541 0.775074
863 4 0.0460997 0.134243 0.798401
833 4 0.0472644 0.120804 0.812373
1125 4 0.056081 0.138245 0.815005
1123 2 0.067262 0.158223 0.825057
832 2 0.0455956 0.100397 0.826725
911 4 0.0911968 0.100527 0.843011
1149 4 0.231167 0.0986489 0.761948
1257 4 0.236895 0.118294 0.759781
1255 2 0.239884 0.131084 0.781057
921 4 0.225364 0.143001 0.809991
919 2 0.209262 0.159971 0.818817
840 4 0.240363 0.145543 0.822091
1256 4 0.242872 0.143875 0.802333
1111 2 0.362224 0.095163 0.826606
845 4 0.427909 0.0995959 0.764575
3189 4 0.0142347 0.250009 0.806189
1124 4 0.078443 0.178201 0.835109
1129 2 0.167129 0.211045 0.770226
34 3 0.124435 0.182961 0.822487
1131 4 0.170151 0.222935 0.792014
1277 4 0.175268 0.227384 0.810493
822 4 0.167355 0.241214 0.799278
1276 2 0.186899 0.209766 0.823891
920 4 0.193159 0.176942 0.827643
977 4 0.287887 0.199662 0.760523
918 4 0.294128 0.217961 0.758608
1298 4 0.290487 0.210552 0.776754
1297 2 0.288773 0.203379 0.800646
1299 4 0.28706 0.196207 0.824537
1086 4 0.307122 0.196499 0.829845
50 3 0.389653 0.182702 0.790061
46 1 0.410388 0.191892 0.792117
49 3 0.408948 0.215021 0.790954
3270 4 0.494173 0.170533 0.756783
1043 4 0.423633 0.214335 0.774725
48 3 0.41989 0.185553 0.812315
47 3 0.423733 0.184399 0.774944
1263 4 0.419228 0.199284 0.762544
1146 4 0.483398 0.185731 0.764228
1145 4 0.435863 0.199314 0.771751
1144 2 0.459631 0.192523 0.767989
1022 4 0.421861 0.192678 0.830999
1042 2 0.43109 0.238189 0.773977
3187 2 0.00290445 0.252135 0.784002
3188 4 0.991574 0.254262 0.761815
821 4 0.188046 0.282495 0.818475
820 2 0.177701 0.261854 0.808876
1235 4 0.246139 0.316402 0.796062
1098 4 0.258728 0.308817 0.810306
1044 4 0.438546 0.262043 0.773229
1007 4 0.443837 0.266074 0.755689
1165 2 0.479364 0.27094 0.781527
1166 4 0.457045 0.267865 0.770683
3275 4 0.0205365 0.359304 0.824775
894 4 0.0560102 0.351597 0.766038
3276 4 0.0487368 0.35809 0.783495
3274 2 0.0346367 0.358697 0.804135