ITEM: TIMESTEP
900000
ITEM: NUMBER OF ATOMS
4590
ITEM: BOX BOUNDS pp pp pp
-9.9985700000000008e+00 9.9985700000000008e+00
-9.9985700000000008e+00 9.9985700000000008e+00
-9.9985700000000008e+00 9.9985700000000008e+00
ITEM: ATOMS id type xs ys zs
463 2 0.0363494 0.0754929 0.0281331
464 4 0.0160012 0.0633224 0.0201954
701 4 0.0720724 0.0752264 0.041629
2576 4 0.0139583 0.0411309 0.0890492
465 4 0.0566976 0.0876635 0.0360708
567 4 0.161269 0.0602567 0.0610097
1668 4 0.0947073 0.0131998 0.0615742
491 4 0.273679 0.0167521 0.0461463
2264 4 0.292985 0.0342865 0.0157426
558 4 0.347859 0.0561427 0.0312228
556 2 0.349028 0.0476875 0.0547244
557 4 0.350197 0.0392323 0.0782259
745 2 0.471904 0.0423156 0.00555821
746 4 0.485257 0.0347616 0.0253019
2469 4 0.498782 0.0218511 0.0333041
589 2 0.0100144 0.143466 0.0734046
590 4 0.0319511 0.141414 0.061583
423 4 0.0954657 0.110597 0.0117724
554 4 0.0582224 0.162979 0.0114577
421 2 0.101293 0.13439 0.0167821
700 2 0.0915718 0.0900076 0.0467738
702 4 0.111071 0.104789 0.0519187
566 4 0.12947 0.0986097 0.0567041
565 2 0.14537 0.0794332 0.0588569
422 4 0.107121 0.158183 0.0217918
360 4 0.241815 0.149282 0.996989
358 2 0.265698 0.144865 0.00293116
359 4 0.28958 0.140449 0.00887289
828 4 0.439201 0.132301 0.991491
553 2 0.0579414 0.187967 0.0106031
836 4 0.0772102 0.219361 0.0120079
555 4 0.0576605 0.212954 0.00974855
835 2 0.101141 0.226474 0.0133868
837 4 0.125072 0.233587 0.0147657
915 4 0.130945 0.243705 0.997991
666 4 0.319139 0.228437 0.0285816
664 2 0.320452 0.209479 0.012332
573 4 0.323042 0.245542 0.0363046
461 4 0.332117 0.229223 0.0431149
460 2 0.33366 0.217461 0.0651255
1069 2 0.416377 0.253601 0.0246307
1013 4 0.493139 0.167836 0.0317458
1012 2 0.486599 0.189186 0.0429962
1070 4 0.422461 0.251523 0.000468009
2808 4 0.994135 0.296812 0.028881
292 2 0.114384 0.295341 0.063919
293 4 0.131969 0.297848 0.0815168
294 4 0.0967999 0.292835 0.0463211
507 4 0.149047 0.292734 0.0872275
505 2 0.171104 0.289125 0.0760179
481 2 0.227478 0.314631 0.0644245
506 4 0.193161 0.285516 0.0648082
483 4 0.21055 0.296564 0.0679216
357 4 0.254891 0.312115 0.996942
355 2 0.261175 0.293626 0.012559
571 2 0.305346 0.262751 0.0323217
356 4 0.267459 0.275138 0.0281756
572 4 0.28765 0.27996 0.0283388
957 4 0.384097 0.304211 0.0179775
1071 4 0.410292 0.255679 0.0487934
324 4 0.416627 0.270284 0.060816
322 2 0.427791 0.292402 0.0641783
519 4 0.474247 0.273156 0.0874654
672 4 0.450439 0.319492 0.0826659
323 4 0.438956 0.314521 0.0675406
455 4 0.127193 0.360765 0.0730574
482 4 0.244406 0.332697 0.0609273
609 4 0.242818 0.352275 0.065588
252 4 0.28166 0.397234 0.0600302
608 4 0.281519 0.380105 0.0504725
607 2 0.262168 0.36619 0.0580302
741 4 0.363222 0.334176 0.0893096
670 2 0.459758 0.339917 0.0716591
671 4 0.469078 0.360341 0.0606523
281 4 0.474573 0.374749 0.0482899
280 2 0.494325 0.390072 0.0478241
551 4 0.0713133 0.438156 0.0474971
550 2 0.0868121 0.455133 0.0573324
552 4 0.102311 0.472111 0.0671677
1787 4 0.0919815 0.487608 0.0693308
242 4 0.111749 0.487774 0.0715197
245 4 0.246384 0.463472 0.0769471
250 2 0.283313 0.420438 0.0508645
244 2 0.262133 0.477416 0.0634301
251 4 0.284967 0.443643 0.0416988
271 2 0.286927 0.482753 0.00836905
246 4 0.277882 0.491361 0.049913
272 4 0.283162 0.493976 0.0303926
525 4 0.356619 0.49252 0.0740716
523 2 0.355071 0.473975 0.0907705
226 2 0.489864 0.456081 0.0741524
16 1 0.0454092 0.0719019 0.163279
17 3 0.0661189 0.0794739 0.156727
18 3 0.0481088 0.0567739 0.180664
1804 2 0.0696848 0.00227264 0.13948
20 3 0.0352164 0.061727 0.145637
1667 4 0.0821288 0.994672 0.106287
1805 4 0.0668042 0.00367409 0.114682
1666 2 0.088418 0.0039361 0.0839306
448 2 0.189358 0.0788887 0.161711
450 4 0.187448 0.0568146 0.173298
652 2 0.312036 0.0189768 0.134049
653 4 0.31099 0.043077 0.127471
296 4 0.365563 0.0493778 0.0900433
295 2 0.371726 0.0298788 0.10443
297 4 0.37789 0.0103797 0.118817
485 4 0.39148 0.998538 0.126617
19 3 0.032723 0.0899765 0.170404
579 4 0.0812166 0.115543 0.161119
237 4 0.137041 0.132201 0.151376
235 2 0.160543 0.124618 0.155293
236 4 0.184045 0.117035 0.159211
693 4 0.203282 0.115718 0.154701
449 4 0.191269 0.100963 0.150124
285 4 0.266992 0.176717 0.136982
691 2 0.218415 0.122581 0.173384
283 2 0.274781 0.155818 0.148284
284 4 0.282571 0.134919 0.159587
770 4 0.438447 0.151469 0.0832862
312 4 0.458899 0.141542 0.160956
337 2 0.0482869 0.213685 0.154273
339 4 0.0233156 0.213651 0.153004
338 4 0.0732582 0.213719 0.155542
476 4 0.132083 0.189981 0.128521
475 2 0.111616 0.200568 0.138227
477 4 0.0911486 0.211154 0.147932
737 4 0.151583 0.198733 0.129974
738 4 0.191413 0.22797 0.122262
736 2 0.171498 0.213352 0.126118
462 4 0.335202 0.2057 0.0871361
254 4 0.382099 0.197506 0.126651
255 4 0.34354 0.217268 0.101684
253 2 0.362819 0.207387 0.114168
630 4 0.399213 0.207127 0.132146
628 2 0.409895 0.227239 0.14247
769 2 0.448834 0.174171 0.0819178
771 4 0.459221 0.196874 0.0805494
2895 4 0.491374 0.242769 0.13281
518 4 0.47563 0.255062 0.134064
354 4 0.330896 0.269361 0.114042
352 2 0.314662 0.276411 0.131704
353 4 0.298429 0.283461 0.149366
754 2 0.29014 0.325158 0.147725
755 4 0.298342 0.302296 0.153662
278 4 0.301889 0.289011 0.168138
629 4 0.420577 0.24735 0.152794
517 2 0.474939 0.264109 0.110764
620 4 0.0193265 0.360063 0.0842073
647 4 0.0242176 0.374431 0.0958994
646 2 0.0465268 0.365073 0.102217
648 4 0.068836 0.355715 0.108534
456 4 0.0814786 0.361451 0.0933163
454 2 0.104336 0.361108 0.0831868
537 4 0.209774 0.379917 0.15266
535 2 0.194315 0.369937 0.135732
536 4 0.178855 0.359957 0.118803
611 4 0.226887 0.381183 0.141854
756 4 0.281938 0.34802 0.141788
612 4 0.271391 0.361313 0.153047
610 2 0.249139 0.371248 0.147451
387 4 0.332494 0.398241 0.154959
302 4 0.332546 0.408048 0.173763
739 2 0.368776 0.346123 0.110561
740 4 0.37433 0.358069 0.131812
15 3 0.38544 0.370296 0.142294
385 2 0.350306 0.380897 0.152293
386 4 0.368118 0.363553 0.149627
11 1 0.405596 0.366653 0.152248
14 3 0.417515 0.386523 0.153498
495 4 0.405787 0.401771 0.147152
12 3 0.41761 0.35155 0.13973
13 3 0.40246 0.357946 0.173526
645 4 0.46256 0.408066 0.163645
2651 4 0.501498 0.373446 0.101552
1467 4 0.0101814 0.459972 0.117038
1465 2 0.0244938 0.479264 0.123978
1791 4 0.0473573 0.514496 0.121595
241 2 0.135111 0.491507 0.0796101
243 4 0.158473 0.49524 0.0877005
625 2 0.211113 0.45905 0.0916931
626 4 0.187696 0.46725 0.0947843
627 4 0.234531 0.45085 0.088602
767 4 0.263242 0.503565 0.167368
524 4 0.353523 0.45543 0.107469
493 2 0.404507 0.425825 0.140447
660 4 0.404344 0.468503 0.12838
494 4 0.403227 0.449878 0.133741
1673 4 0.411921 0.499276 0.0840999
658 2 0.41343 0.480091 0.148588
228 4 0.472638 0.440988 0.0841857
1806 4 0.0725653 0.000871186 0.164277
2480 4 0.00731165 0.0181509 0.182986
1422 4 0.00151703 9.88868e-05 0.178098
673 2 0.130996 0.0732188 0.209554
674 4 0.132175 0.0682611 0.234032
1506 4 0.195265 0.0145969 0.202239
1504 2 0.182262 0.0317768 0.189552
1505 4 0.169259 0.0489567 0.176865
689 4 0.195935 0.00842726 0.220992
758 4 0.396431 0.0949168 0.198903
21 1 0.394955 0.0228119 0.239728
25 3 0.410682 0.0378974 0.233114
759 4 0.39685 0.0518692 0.224348
757 2 0.396641 0.073393 0.211626
22 3 0.377041 0.0237362 0.225327
24 3 0.40385 0.0013859 0.239269
744 4 0.462814 0.0165552 0.24236
351 4 0.465527 0.0358954 0.238983
349 2 0.448308 0.0525856 0.231902
350 4 0.43109 0.0692757 0.22482
742 2 0.484335 0.0172505 0.25507
380 4 0.0271844 0.0878823 0.190685
512 4 0.0291554 0.154658 0.201041
379 2 0.0286099 0.111709 0.198131
381 4 0.0300353 0.135535 0.205578
675 4 0.129817 0.0781766 0.185075
577 2 0.0849933 0.131625 0.179888
578 4 0.0887699 0.147708 0.198657
692 4 0.233547 0.129444 0.192068
723 4 0.203363 0.148498 0.202434
721 2 0.195146 0.162031 0.221786
582 4 0.252754 0.131081 0.188466
28 3 0.33384 0.093083 0.235649
580 2 0.272159 0.119047 0.198654
581 4 0.291565 0.107013 0.208843
30 3 0.297569 0.0984232 0.227075
26 1 0.313442 0.10119 0.24317
27 3 0.315627 0.123599 0.247883
310 2 0.445785 0.134032 0.180876
311 4 0.432671 0.126522 0.200796
511 2 0.0486629 0.160203 0.215666
513 4 0.0681704 0.165749 0.230291
363 4 0.0889231 0.220306 0.164847
362 4 0.111571 0.222716 0.209366
361 2 0.100247 0.221511 0.187107
372 4 0.130052 0.21956 0.210066
370 2 0.155032 0.220583 0.209729
545 4 0.122651 0.169095 0.254613
722 4 0.18693 0.175563 0.241139
371 4 0.180012 0.221607 0.209393
765 4 0.363398 0.216942 0.171782
763 2 0.367379 0.240467 0.179259
520 2 0.489616 0.195508 0.225468
521 4 0.466719 0.204482 0.229982
395 4 0.0564674 0.278515 0.226281
750 4 0.0753192 0.277612 0.217129
748 2 0.0788236 0.297758 0.202739
749 4 0.082328 0.317903 0.188349
394 2 0.0361168 0.278729 0.240806
308 4 0.317906 0.248724 0.238086
279 4 0.262933 0.270845 0.193694
277 2 0.282411 0.279928 0.180916
307 2 0.323553 0.26099 0.217042
309 4 0.329199 0.273255 0.195998
764 4 0.37136 0.263992 0.186736
623 4 0.383306 0.275532 0.176371
622 2 0.407186 0.279721 0.182486
624 4 0.431065 0.28391 0.1886
528 4 0.440596 0.301606 0.190109
527 4 0.480225 0.278461 0.170245
526 2 0.46041 0.290034 0.180177
262 2 0.0660023 0.40542 0.218916
264 4 0.0523087 0.401885 0.198296
263 4 0.0796958 0.408954 0.239535
300 4 0.139217 0.330324 0.231314
298 2 0.141961 0.353341 0.24069
290 4 0.214183 0.39416 0.22931
301 2 0.308314 0.413182 0.177167
303 4 0.284081 0.418316 0.180572
643 2 0.46873 0.387072 0.175743
644 4 0.4749 0.366078 0.187841
447 4 0.484536 0.353453 0.201426
445 2 0.497749 0.359321 0.221826
446 4 0.510963 0.365189 0.242225
417 4 0.186672 0.488112 0.192803
415 2 0.184229 0.463539 0.196725
289 2 0.202633 0.415637 0.223785
291 4 0.191083 0.437114 0.21826
416 4 0.181785 0.438966 0.200646
766 2 0.267366 0.479566 0.173045
768 4 0.271489 0.455567 0.178722
712 2 0.381041 0.50382 0.239247
597 4 0.4588 0.427486 0.160391
595 2 0.464584 0.447846 0.173702
596 4 0.470369 0.468206 0.187013
1568 4 0.467058 0.486421 0.194631
2860 2 0.469796 0.433404 0.248195
2861 4 0.467112 0.451506 0.231156
1404 4 0.0884016 0.0266975 0.293067
1798 2 0.0209052 0.0163444 0.339005
1799 4 0.0251102 0.0237747 0.315504
233 4 0.0223234 0.0199114 0.296928
1402 2 0.0644065 0.0222467 0.298508
1403 4 0.0404114 0.017796 0.303949
232 2 0.0101088 0.0380806 0.284851
1699 2 0.214567 0.0701631 0.311992
1701 4 0.200636 0.0493998 0.311939
23 3 0.387628 0.0278903 0.26115
1516 2 0.387769 0.00435766 0.300807
697 2 0.399585 0.0546453 0.317781
699 4 0.405721 0.0360995 0.302174
1518 4 0.388006 0.0284776 0.307391
743 4 0.505856 0.0179459 0.26778
478 2 0.477936 0.0341667 0.316214
479 4 0.491991 0.013599 0.318363
480 4 0.463882 0.0547344 0.314065
398 4 0.096605 0.138897 0.310661
1700 4 0.228498 0.0909264 0.312045
248 4 0.237863 0.110145 0.314673
249 4 0.198953 0.14084 0.307999
247 2 0.218408 0.125493 0.311336
29 3 0.30713 0.0900367 0.262513
333 4 0.464229 0.11739 0.327659
331 2 0.458208 0.136175 0.312295
393 4 0.0777544 0.207718 0.288489
544 2 0.147452 0.167437 0.251905
392 4 0.107297 0.174437 0.265677
391 2 0.0925255 0.191078 0.277083
546 4 0.172253 0.165779 0.249198
404 4 0.198038 0.159832 0.308062
403 2 0.19289 0.165296 0.284212
405 4 0.187742 0.17076 0.260362
378 4 0.283703 0.200157 0.333129
376 2 0.307538 0.202869 0.340182
420 4 0.419961 0.212733 0.330619
332 4 0.452188 0.15496 0.296931
418 2 0.420379 0.188394 0.324909
419 4 0.420798 0.164055 0.3192
760 2 0.481967 0.184624 0.299148
762 4 0.464006 0.168571 0.305846
444 4 0.00158602 0.246611 0.312893
396 4 0.0157661 0.278944 0.255331
442 2 0.00720291 0.26132 0.29347
443 4 0.0128198 0.276029 0.274046
364 2 0.00769564 0.317573 0.273553
365 4 0.00798034 0.293665 0.266236
401 4 0.189848 0.259593 0.28595
345 4 0.230218 0.296044 0.303708
400 2 0.201676 0.276551 0.300011
402 4 0.213504 0.293508 0.314073
510 4 0.222815 0.310411 0.314346
508 2 0.216635 0.33367 0.321129
343 2 0.254787 0.297437 0.299276
344 4 0.279355 0.29883 0.294844
498 4 0.392735 0.285635 0.281124
496 2 0.371945 0.279548 0.268636
497 4 0.351156 0.273462 0.256149
541 2 0.41899 0.309741 0.315397
542 4 0.432124 0.289013 0.320197
366 4 0.00741094 0.34148 0.28087
2493 4 0.999239 0.354184 0.294376
603 4 0.134562 0.390014 0.261172
602 4 0.088242 0.408147 0.256036
299 4 0.144705 0.376357 0.250065
601 2 0.111402 0.399081 0.258604
734 4 0.151293 0.381778 0.267265
733 2 0.165702 0.389725 0.286091
735 4 0.180111 0.397672 0.304916
677 4 0.195032 0.40723 0.316248
676 2 0.210136 0.38846 0.322936
435 4 0.239915 0.373783 0.34293
678 4 0.22524 0.36969 0.329624
727 2 0.320132 0.391462 0.283381
728 4 0.298679 0.383757 0.293657
543 4 0.405856 0.330469 0.310597
729 4 0.341584 0.399167 0.273105
615 4 0.394126 0.343999 0.302596
613 2 0.38935 0.363855 0.317022
2538 4 0.47669 0.386564 0.318212
2536 2 0.475784 0.404341 0.300653
549 4 0.0328127 0.434365 0.320274
777 4 0.0870413 0.433945 0.304869
775 2 0.109148 0.443785 0.311167
776 4 0.131254 0.453625 0.317466
414 4 0.131178 0.472504 0.325872
412 2 0.148799 0.48513 0.338331
437 4 0.250503 0.445729 0.301442
438 4 0.267745 0.416159 0.264986
436 2 0.259124 0.430944 0.283214
713 4 0.366833 0.485782 0.249142
2537 4 0.474877 0.422118 0.283093
2862 4 0.47248 0.415303 0.265233
593 4 0.429551 0.474046 0.313481
1800 4 0.0167002 0.00891419 0.362505
367 2 0.0879827 0.0261024 0.399604
1377 4 0.00509048 0.999155 0.375397
1782 4 0.118444 0.00117669 0.389437
732 4 0.0926843 0.0894999 0.399859
368 4 0.10723 0.0170553 0.386456
605 4 0.163752 0.055215 0.367428
604 2 0.187488 0.0534011 0.375076
606 4 0.211224 0.0515872 0.382724
698 4 0.393449 0.073191 0.333388
256 2 0.402984 0.0702193 0.371909
257 4 0.389586 0.0778323 0.352219
633 4 0.375249 0.0785437 0.339549
424 2 0.421757 0.0291905 0.411076
258 4 0.416382 0.0626064 0.3916
426 4 0.428943 0.0497579 0.398808
318 4 0.0279889 0.0969807 0.351861
316 2 0.0408032 0.11734 0.345045
317 4 0.0536176 0.1377 0.338229
457 2 0.0197867 0.166604 0.414257
397 2 0.0939311 0.125168 0.331386
730 2 0.0991718 0.0936801 0.376076
399 4 0.0912572 0.111438 0.352111
731 4 0.105659 0.0978602 0.352294
600 4 0.210353 0.161103 0.353749
598 2 0.194817 0.168426 0.37192
683 4 0.263206 0.0772681 0.376986
682 2 0.268057 0.0973472 0.391074
684 4 0.272909 0.117426 0.405162
320 4 0.291539 0.118906 0.410383
632 4 0.346345 0.117276 0.352398
631 2 0.360797 0.0979099 0.345974
516 4 0.40153 0.146887 0.375587
575 4 0.388022 0.145119 0.391461
574 2 0.397353 0.149538 0.414234
451 2 0.48816 0.153512 0.364641
514 2 0.424895 0.148446 0.366821
453 4 0.46427 0.160755 0.363226
515 4 0.448259 0.150005 0.358054
459 4 0.0154191 0.188176 0.402393
2653 2 0.00151019 0.210009 0.381012
2654 4 0.0226939 0.198008 0.386704
388 2 0.107154 0.231597 0.340311
389 4 0.0873797 0.232289 0.355598
685 2 0.158365 0.205947 0.409712
686 4 0.152526 0.227635 0.420699
599 4 0.17928 0.175749 0.39009
687 4 0.164204 0.184259 0.398725
473 4 0.22428 0.201699 0.36575
472 2 0.246321 0.194566 0.375156
377 4 0.331372 0.20558 0.347235
474 4 0.268363 0.187432 0.384562
488 4 0.283425 0.193824 0.398018
487 2 0.295424 0.215061 0.392525
489 4 0.307424 0.236298 0.387031
707 4 0.345746 0.205593 0.333805
706 2 0.363965 0.189663 0.340089
708 4 0.382184 0.173733 0.346373
715 2 0.398008 0.240431 0.354848
717 4 0.404909 0.224436 0.336912
618 4 0.0811368 0.303303 0.388244
347 4 0.0712929 0.291177 0.401358
616 2 0.0895227 0.324804 0.378625
390 4 0.126928 0.230906 0.325025
275 4 0.128486 0.308753 0.389626
274 2 0.151632 0.301455 0.383611
276 4 0.174778 0.294157 0.377596
373 2 0.206528 0.274748 0.389008
374 4 0.227256 0.270866 0.402441
375 4 0.1858 0.278631 0.375575
716 4 0.391106 0.256426 0.372784
406 2 0.0468334 0.384414 0.397892
408 4 0.054176 0.372374 0.418539
548 4 0.0427579 0.408275 0.36176
407 4 0.0394908 0.396453 0.377244
617 4 0.0979087 0.346306 0.369005
509 4 0.210455 0.356929 0.327912
433 2 0.26385 0.369049 0.337465
434 4 0.287786 0.364316 0.331999
614 4 0.384574 0.383712 0.331448
753 4 0.483261 0.379993 0.336718
561 4 0.455592 0.359641 0.395163
752 4 0.467532 0.370524 0.383234
559 2 0.468404 0.368217 0.414848
751 2 0.475396 0.375259 0.359976
547 2 0.0377853 0.42132 0.341017
499 2 0.154055 0.489251 0.393886
501 4 0.132879 0.482946 0.405592
413 4 0.16642 0.497757 0.350791
500 4 0.175231 0.495555 0.382181
1544 4 0.182142 0.499876 0.362794
667 2 0.295641 0.439806 0.418607
668 4 0.301 0.464195 0.417317
1 1 0.315672 0.497463 0.401133
3 3 0.323969 0.48548 0.383079
4 3 0.305495 0.48305 0.416204
594 4 0.413843 0.442152 0.348648
592 2 0.421697 0.458099 0.331065
718 2 0.0303978 0.0731343 0.451109
720 4 0.0270296 0.0552982 0.468305
2237 4 0.0320554 0.0383961 0.475674
2236 2 0.0262738 0.0157902 0.466689
1127 4 0.0289599 0.0534246 0.487985
369 4 0.0687351 0.0351494 0.412751
1522 2 0.0953795 0.00895928 0.483245
1523 4 0.118074 0.0137426 0.492588
1180 2 0.253692 0.080444 0.463716
342 4 0.18329 0.0733255 0.495452
1182 4 0.2607 0.0599358 0.476185
726 4 0.290404 0.0346935 0.439638
724 2 0.288318 0.0362696 0.464504
725 4 0.286233 0.0378458 0.489371
963 4 0.287557 0.0279894 0.506271
1580 4 0.418487 0.999197 0.440655
425 4 0.41457 0.00862313 0.423345
2878 2 0.45966 0.0827414 0.481624
2879 4 0.455208 0.0666148 0.500206
458 4 0.0241543 0.145031 0.42612
719 4 0.0337661 0.0909704 0.433913
1033 2 0.130583 0.154482 0.47441
1034 4 0.127602 0.137159 0.492192
1181 4 0.246684 0.100952 0.451246
411 4 0.260354 0.166396 0.441702
321 4 0.3065 0.117166 0.458068
319 2 0.299019 0.118036 0.434225
576 4 0.406684 0.153958 0.437006
2880 4 0.464112 0.098868 0.463042
642 4 0.474737 0.103485 0.445004
640 2 0.458139 0.12151 0.440026
641 4 0.441541 0.139535 0.435048
306 4 0.426015 0.151819 0.441411
3158 4 0.49819 0.17052 0.479715
469 2 0.0117394 0.192344 0.479829
470 4 0.0295951 0.175107 0.482872
1035 4 0.133564 0.171805 0.456627
260 4 0.0975267 0.220956 0.440276
261 4 0.126714 0.18035 0.440219
259 2 0.11212 0.200653 0.440248
695 4 0.1094 0.232352 0.449844
409 2 0.273665 0.174034 0.461442
410 4 0.286976 0.181672 0.481182
468 4 0.380641 0.238647 0.417946
466 2 0.382866 0.217414 0.430961
467 4 0.385092 0.196181 0.443976
269 4 0.508996 0.253343 0.415633
305 4 0.441094 0.199204 0.446701
304 2 0.433554 0.175512 0.444056
346 2 0.071346 0.299391 0.424973
326 4 0.0758923 0.321964 0.461461
348 4 0.0713991 0.307605 0.448589
694 2 0.11282 0.253784 0.46226
1260 4 0.116233 0.277248 0.494463
696 4 0.11624 0.275216 0.474676
651 4 0.219416 0.269251 0.507543
266 4 0.308236 0.242418 0.470276
811 2 0.28887 0.299363 0.488008
813 4 0.308782 0.285868 0.481182
812 4 0.268959 0.312857 0.494834
265 2 0.330689 0.248354 0.461012
267 4 0.353142 0.254289 0.451748
2456 4 0.50286 0.288458 0.476463
584 4 0.492816 0.279299 0.461637
583 2 0.470785 0.272834 0.471537
585 4 0.448753 0.266368 0.481436
935 4 0.00350265 0.401918 0.493909
2812 2 0.00802572 0.368641 0.449843
325 2 0.0843211 0.344337 0.468781
2813 4 0.0306246 0.376225 0.45739
327 4 0.0927499 0.36671 0.4761
10 3 0.155566 0.335814 0.466087
7 3 0.121556 0.348947 0.47407
6 1 0.144146 0.352549 0.476487
8 3 0.149554 0.372974 0.466896
9 3 0.149324 0.3528 0.499104
711 4 0.15774 0.384258 0.481078
635 4 0.21641 0.40677 0.479181
504 4 0.238621 0.390652 0.44877
709 2 0.178874 0.396976 0.48518
710 4 0.200007 0.409694 0.489282
336 4 0.290782 0.395332 0.420724
502 2 0.256524 0.398079 0.432975
334 2 0.313324 0.384518 0.421015
503 4 0.274427 0.405507 0.41718
335 4 0.335867 0.373704 0.421307
239 4 0.400988 0.391344 0.42827
588 4 0.411856 0.392349 0.44539
586 2 0.417816 0.400485 0.468269
238 2 0.376438 0.386609 0.428517
240 4 0.351888 0.381875 0.428763
2507 4 0.493344 0.393551 0.431511
560 4 0.481216 0.376793 0.434532
1381 2 0.0405713 0.48967 0.423748
679 2 0.0568104 0.445037 0.456542
1383 4 0.0292819 0.469631 0.433553
681 4 0.0754757 0.434226 0.469187
680 4 0.0381452 0.455848 0.443896
539 4 0.0810783 0.499075 0.465983
382 2 0.112762 0.441945 0.450831
568 2 0.164208 0.477329 0.447704
383 4 0.0906594 0.432596 0.45785
569 4 0.144208 0.467676 0.436216
384 4 0.134864 0.451294 0.443812
636 4 0.224981 0.453923 0.464901
570 4 0.184208 0.486983 0.459193
634 2 0.220695 0.430347 0.472041
882 4 0.320924 0.498931 0.473897
669 4 0.290282 0.415418 0.419897
587 4 0.423776 0.408622 0.491148
663 4 0.464901 0.437466 0.493242
1126 2 0.00894884 0.0537965 0.502972
1128 4 0.988938 0.0541684 0.517959
1057 2 0.142456 0.0700465 0.573593
340 2 0.183486 0.0493889 0.502675
2428 2 0.213234 0.00270456 0.513321
2430 4 0.188939 0.00560477 0.508169
1152 4 0.173629 0.0860643 0.50722
341 4 0.183682 0.0254523 0.509899
430 2 0.314067 0.0591004 0.511479
431 4 0.326527 0.0784048 0.521342
961 2 0.270269 0.01431 0.518068
950 4 0.319213 0.0292732 0.569818
949 2 0.302966 0.0427867 0.583182
951 4 0.286719 0.0563002 0.596546
432 4 0.301608 0.0397961 0.501616
1217 4 0.38375 0.0343158 0.534782
1216 2 0.393475 0.012579 0.542405
842 4 0.378885 0.0514222 0.545061
841 2 0.359292 0.0662397 0.540397
938 4 0.103272 0.167746 0.550518
937 2 0.108502 0.156314 0.528904
1151 4 0.157673 0.101377 0.552071
1059 4 0.151149 0.0928726 0.568247
1155 4 0.160123 0.110218 0.569555
1153 2 0.167812 0.133244 0.575544
939 4 0.113732 0.144883 0.507291
1150 2 0.165651 0.0937206 0.529646
843 4 0.3397 0.0810571 0.535732
878 4 0.0356641 0.225187 0.542916
1199 4 0.0196916 0.225897 0.554504
877 2 0.0500636 0.208041 0.554043
879 4 0.0644631 0.190894 0.565171
1272 4 0.0718576 0.180255 0.581898
858 4 0.250098 0.20677 0.569619
857 4 0.298996 0.213275 0.561413
856 2 0.274547 0.210022 0.565516
898 2 0.295103 0.200022 0.506491
791 4 0.318558 0.212201 0.563784
899 4 0.313783 0.20345 0.522754
790 2 0.324491 0.236436 0.565408
900 4 0.276423 0.196594 0.490228
873 4 0.390367 0.254217 0.549965
1258 2 0.126441 0.289302 0.513845
1259 4 0.13665 0.301356 0.533227
649 2 0.239206 0.28451 0.506727
1239 4 0.33703 0.318068 0.542597
804 4 0.268512 0.329334 0.506506
650 4 0.258996 0.29977 0.505912
792 4 0.330424 0.260671 0.567033
871 2 0.390474 0.27109 0.531513
1238 4 0.339352 0.278672 0.573311
1237 2 0.338191 0.29837 0.557954
872 4 0.390581 0.287963 0.513061
1011 4 0.507501 0.318279 0.570963
954 4 0.494087 0.330637 0.580257
1189 2 0.228065 0.383434 0.5697
773 4 0.241067 0.377001 0.531197
1190 4 0.239765 0.37328 0.550073
803 4 0.243064 0.358768 0.537919
772 2 0.229079 0.39193 0.515116
774 4 0.217092 0.40686 0.499035
802 2 0.255788 0.344051 0.522212
930 4 0.310506 0.353889 0.555433
928 2 0.300094 0.376621 0.555319
929 4 0.289682 0.399353 0.555205
927 4 0.413189 0.373197 0.550523
925 2 0.416778 0.385152 0.528857
926 4 0.420367 0.397106 0.507192
2243 4 0.145886 0.502266 0.553988
1161 4 0.165945 0.501109 0.553799
2242 2 0.131984 0.507101 0.533775
1159 2 0.17525 0.483485 0.568898
1160 4 0.184554 0.46586 0.583997
889 2 0.314346 0.460092 0.548667
890 4 0.320526 0.472757 0.528013
891 4 0.308166 0.447427 0.569321
1002 4 0.381974 0.470379 0.512241
1000 2 0.406415 0.473256 0.516662
1953 4 0.35981 0.487365 0.571034
1001 4 0.430856 0.476132 0.521083
662 4 0.450317 0.47309 0.525163
661 2 0.457609 0.455278 0.509203
1911 4 0.438655 0.481968 0.537786
1909 2 0.437744 0.473979 0.561462
1332 4 0.452614 0.492682 0.530478
945 4 0.0630237 0.013243 0.663439
1058 4 0.133763 0.0472204 0.578939
943 2 0.0847709 0.020597 0.653531
944 4 0.106518 0.027951 0.643624
825 4 0.125785 0.0276775 0.639786
823 2 0.144488 0.0115925 0.643867
1030 2 0.249941 0.0767432 0.588088
1031 4 0.271946 0.0652234 0.585222
45 3 0.443535 0.0454062 0.669448
1081 2 0.034639 0.119219 0.653661
3179 4 0.0319432 0.157327 0.648187
1082 4 0.0402691 0.0995139 0.667985
1083 4 0.0290089 0.138925 0.639337
1154 4 0.175502 0.15627 0.581532
1282 2 0.160428 0.115119 0.654136
1284 4 0.169468 0.119546 0.631248
1032 4 0.227935 0.088263 0.590954
1221 4 0.189361 0.153915 0.595837
808 2 0.487517 0.086652 0.6467
810 4 0.481114 0.0829286 0.670581
1243 2 0.0739763 0.243608 0.628534
1244 4 0.05445 0.241643 0.61304
3178 2 0.0119742 0.169007 0.6387
1270 2 0.0898497 0.191437 0.59518
1271 4 0.107842 0.202619 0.608463
1209 4 0.110398 0.242595 0.653759
1210 2 0.225299 0.183776 0.655062
1212 4 0.208512 0.190331 0.637729
1219 2 0.196554 0.174749 0.607643
1220 4 0.203746 0.195583 0.619449
796 2 0.186481 0.224261 0.628467
798 4 0.206326 0.209661 0.632732
906 4 0.474579 0.234055 0.586861
904 2 0.470491 0.22639 0.610307
905 4 0.466403 0.218724 0.633752
3123 4 0.467481 0.229774 0.650305
3121 2 0.487815 0.234703 0.663994
983 4 0.0352475 0.310786 0.599452
982 2 0.0485172 0.321148 0.617938
3263 4 0.0706779 0.325231 0.652794
3262 2 0.0567097 0.3217 0.67323
1245 4 0.0935025 0.245573 0.644027
797 4 0.166636 0.238861 0.624201
947 4 0.200577 0.286303 0.634664
946 2 0.200422 0.27272 0.655656
952 2 0.491554 0.321254 0.603294
953 4 0.489021 0.31187 0.626331
984 4 0.0617869 0.331509 0.636424
1041 4 0.069471 0.344026 0.649068
897 4 0.153597 0.366732 0.590874
1137 4 0.138908 0.379086 0.589743
1039 2 0.0801637 0.36484 0.640257
1135 2 0.12307 0.3974 0.595982
1040 4 0.0908563 0.385654 0.631447
991 2 0.0982713 0.418649 0.640859
993 4 0.102406 0.394407 0.645373
896 4 0.199666 0.385046 0.584313
895 2 0.176632 0.375889 0.587593
1191 4 0.216365 0.393587 0.589326
1172 4 0.200447 0.404047 0.587952
1206 4 0.487763 0.408588 0.658195
3309 4 0.494854 0.390023 0.609522
992 4 0.0941364 0.442892 0.636346
1136 4 0.107232 0.415714 0.602222
1173 4 0.188411 0.451636 0.597499
1171 2 0.194429 0.427842 0.592726
1188 4 0.200977 0.479063 0.649147
1187 4 0.194628 0.469817 0.600414
1186 2 0.197802 0.47444 0.624781
1204 2 0.468195 0.423362 0.6533
1910 4 0.436833 0.46599 0.585137
1205 4 0.448626 0.438136 0.648405
1269 4 0.438177 0.453564 0.641287
1267 2 0.435332 0.478377 0.642482
1226 4 0.184461 0.0809706 0.723743
2254 2 0.205318 0.0191732 0.744043
2256 4 0.190903 0.0338874 0.72987
1003 2 0.320078 0.0420804 0.707146
1005 4 0.3097 0.0542174 0.687907
1004 4 0.330456 0.0299434 0.726386
42 3 0.43706 0.0683474 0.698165
41 1 0.447275 0.0663185 0.677654
1163 4 0.489208 0.0674885 0.678589
44 3 0.470061 0.0698511 0.680239
1076 4 0.0305469 0.105746 0.684269
864 4 0.0276165 0.115542 0.742288
1075 2 0.0303981 0.102061 0.708999
1077 4 0.0302494 0.0983748 0.733729
909 4 0.0914224 0.135521 0.688203
907 2 0.114533 0.125983 0.688525
908 4 0.137644 0.116445 0.688846
1283 4 0.151389 0.110692 0.677024
1227 4 0.150517 0.101417 0.693239
851 4 0.0915252 0.153929 0.734316
1148 4 0.197687 0.0959657 0.721239
1225 2 0.167489 0.0911937 0.708491
1147 2 0.218284 0.0929732 0.735094
888 4 0.256167 0.163778 0.676176
831 4 0.367395 0.156239 0.687091
1142 4 0.381258 0.161825 0.700281
1141 2 0.404762 0.166948 0.707101
1025 4 0.474363 0.144685 0.687207
43 3 0.438384 0.0821844 0.663244
3424 2 0.488094 0.102192 0.703404
3426 4 0.482086 0.0819908 0.68995
1024 2 0.459056 0.154213 0.70453
3425 4 0.494102 0.122393 0.716858
1143 4 0.428265 0.172071 0.713922
1026 4 0.443749 0.163742 0.721853
1215 4 0.00163756 0.210519 0.728346
852 4 0.0484256 0.167209 0.712711
1213 2 0.0215447 0.195395 0.72796
1214 4 0.0414518 0.180271 0.727574
850 2 0.0699754 0.160569 0.723513
1074 4 0.0827317 0.243958 0.73984
1207 2 0.104672 0.230294 0.674761
1208 4 0.0989455 0.217994 0.695763
1106 4 0.143124 0.183293 0.745413
1105 2 0.12021 0.177591 0.737193
1107 4 0.0972948 0.171889 0.728972
1211 4 0.242085 0.177221 0.672394
822 4 0.189929 0.237906 0.755563
886 2 0.278707 0.168209 0.68605
830 4 0.319398 0.164649 0.698327
887 4 0.301247 0.172641 0.695924
976 2 0.312071 0.188942 0.727629
978 4 0.316067 0.183086 0.703651
977 4 0.308074 0.194798 0.751606
1194 4 0.324295 0.214774 0.674003
829 2 0.343396 0.160444 0.692709
1193 4 0.366747 0.23667 0.688804
1192 2 0.345521 0.225722 0.681403
1261 2 0.447538 0.197063 0.741677
1262 4 0.434647 0.178674 0.730683
1263 4 0.460429 0.215451 0.752671
1145 4 0.478598 0.22057 0.761417
3264 4 0.0427415 0.318169 0.693665
893 4 0.0244963 0.328005 0.695256
1072 2 0.0611499 0.25256 0.749082
821 4 0.170771 0.273122 0.725671
948 4 0.200266 0.259138 0.676648
820 2 0.18035 0.255514 0.740617
1064 4 0.205591 0.271911 0.69054
1065 4 0.228203 0.299227 0.725799
1063 2 0.216897 0.285569 0.70817
806 4 0.298714 0.341657 0.664348
3274 2 0.00485962 0.396049 0.742662
892 2 0.0230329 0.345877 0.712681
894 4 0.0215694 0.363749 0.730106
3276 4 0.0177725 0.382137 0.726386
814 2 0.058226 0.377536 0.738667
816 4 0.0358845 0.377233 0.727445
941 4 0.137129 0.413733 0.73168
1067 4 0.150163 0.399957 0.729127
940 2 0.117383 0.399714 0.737906
1066 2 0.166841 0.41176 0.714715
1029 4 0.244512 0.417547 0.692494
1027 2 0.220265 0.421783 0.688099
1068 4 0.183518 0.423563 0.700302
805 2 0.323537 0.339862 0.666753
807 4 0.34836 0.338067 0.669158
1019 4 0.38253 0.395302 0.72274
1018 2 0.361367 0.391361 0.73546
1281 4 0.0176421 0.473909 0.693659
1983 4 0.00349752 0.488558 0.695306
1280 4 0.0645018 0.483251 0.678908
1279 2 0.041072 0.47858 0.686283
1028 4 0.196018 0.426019 0.683705
1140 4 0.262245 0.471404 0.713322
1138 2 0.260407 0.463641 0.737018
1228 2 0.39678 0.435442 0.7472
1230 4 0.410191 0.425055 0.72883
1100 4 0.423578 0.431664 0.715694
1101 4 0.46471 0.458182 0.705412
1099 2 0.444144 0.444923 0.710553
1251 4 0.471633 0.462117 0.723519
3330 4 0.484295 0.459057 0.709138
1249 2 0.474926 0.478486 0.742131
1294 2 0.9958 0.0208462 0.785696
1296 4 0.0144996 0.0287361 0.800298
1203 4 0.121567 0.081049 0.792794
1201 2 0.130869 0.0628488 0.778393
1202 4 0.140172 0.0446486 0.763992
2049 4 0.140416 0.0241566 0.767866
2047 2 0.153505 0.00443647 0.775926
1257 4 0.246164 0.0707486 0.754228
1255 2 0.265033 0.0750332 0.770064
1256 4 0.283902 0.0793177 0.7859
1113 4 0.39594 0.0549722 0.820682
1111 2 0.383091 0.0760517 0.816714
2321 4 0.475015 0.00292645 0.800893
2322 4 0.467379 0.0449014 0.774807
2320 2 0.471197 0.0239139 0.78785
846 4 0.468398 0.0647434 0.775968
862 2 0.0358457 0.115458 0.765898
863 4 0.0440749 0.115374 0.789509
832 2 0.0226983 0.0999273 0.824253
833 4 0.0325046 0.116143 0.807942
1125 4 0.0272011 0.13496 0.812498
1123 2 0.0308784 0.156059 0.825401
31 1 0.116023 0.145937 0.80641
34 3 0.122811 0.166134 0.797223
35 3 0.133004 0.130801 0.805307
33 3 0.0974855 0.137882 0.795013
1149 4 0.238882 0.0899808 0.748949
840 4 0.277096 0.092374 0.800205
838 2 0.281811 0.109822 0.817483
839 4 0.286526 0.12727 0.834761
1112 4 0.370243 0.0971311 0.812746
818 4 0.373407 0.115978 0.818564
844 2 0.464614 0.0890004 0.771229