ITEM: TIMESTEP
1390000
ITEM: NUMBER OF ATOMS
4590
ITEM: BOX BOUNDS pp pp pp
-9.9985700000000008e+00 9.9985700000000008e+00
-9.9985700000000008e+00 9.9985700000000008e+00
-9.9985700000000008e+00 9.9985700000000008e+00
ITEM: ATOMS id type xs ys zs
463 2 0.041149 0.072031 0.0260571
465 4 0.0573939 0.0530773 0.0274844
701 4 0.0760358 0.0609277 0.0246679
2576 4 0.0224498 0.0182145 0.0446339
2575 2 0.0062748 0.016979 0.0636608
3290 4 0.011335 0.0492289 0.00319996
700 2 0.0975553 0.067523 0.035558
702 4 0.119075 0.0741182 0.0464481
566 4 0.124581 0.0740928 0.065721
491 4 0.266866 0.0103063 0.0391092
2264 4 0.262973 0.0172463 0.0195572
2263 2 0.277997 0.0347941 0.00999003
745 2 0.480282 0.0468775 0.00303393
746 4 0.48452 0.0401505 0.0267397
2469 4 0.486579 0.030022 0.043877
2467 2 0.496111 0.00799963 0.0509012
464 4 0.0249041 0.0909848 0.0246298
590 4 0.0207938 0.115019 0.0584745
589 2 0.00633714 0.11712 0.0787665
422 4 0.098047 0.119834 0.0126196
565 2 0.148098 0.0818509 0.0622682
567 4 0.171616 0.0896089 0.0588154
867 4 0.337767 0.15929 0.0248169
865 2 0.355113 0.141491 0.0220767
866 4 0.372459 0.123693 0.0193364
827 4 0.382664 0.112828 0.00773304
558 4 0.344908 0.126911 0.0570646
556 2 0.345748 0.108888 0.0743746
771 4 0.432097 0.160031 0.0739136
554 4 0.0412603 0.211698 0.0307027
553 2 0.0639897 0.219035 0.0233046
555 4 0.086719 0.226372 0.0159066
835 2 0.120434 0.234345 0.0119307
837 4 0.143379 0.224704 0.00953303
836 4 0.0974893 0.243987 0.0143284
915 4 0.158224 0.237699 0.00615682
665 4 0.32245 0.17294 0.0266072
666 4 0.321434 0.222071 0.0358691
664 2 0.321942 0.197506 0.0312381
573 4 0.318278 0.237348 0.0471941
461 4 0.319688 0.219663 0.0552666
460 2 0.329962 0.224488 0.0775452
1070 4 0.391002 0.210226 0.0715567
1069 2 0.40295 0.231879 0.0678652
1012 2 0.498363 0.215159 0.0609946
769 2 0.453247 0.173312 0.0751113
770 4 0.474398 0.186593 0.0763091
1014 4 0.477144 0.205349 0.0698645
294 4 0.0624712 0.290676 0.0511276
292 2 0.0861626 0.295207 0.0445423
507 4 0.124371 0.294531 0.0507591
293 4 0.109854 0.299738 0.0379569
505 2 0.146507 0.305881 0.0482448
506 4 0.168644 0.317231 0.0457306
483 4 0.183232 0.331506 0.0510018
571 2 0.306474 0.254039 0.0327971
356 4 0.303884 0.286914 0.0124886
572 4 0.294671 0.270729 0.0184001
1071 4 0.414897 0.253531 0.0641738
324 4 0.425747 0.266959 0.0552906
322 2 0.428655 0.290153 0.046417
672 4 0.431723 0.331345 0.0449862
323 4 0.431564 0.313348 0.0375433
620 4 0.0160172 0.351937 0.0761207
647 4 0.0288385 0.350537 0.0604703
646 2 0.0502401 0.347494 0.0730357
481 2 0.195237 0.353325 0.0532277
609 4 0.2153 0.383762 0.0722916
607 2 0.23472 0.393956 0.0602874
482 4 0.207243 0.375144 0.0554536
608 4 0.25414 0.404151 0.0482832
252 4 0.273833 0.404363 0.0543676
250 2 0.277532 0.419498 0.0348122
957 4 0.363542 0.344406 0.0195694
670 2 0.449654 0.343632 0.0573421
671 4 0.467585 0.35592 0.0696981
281 4 0.469353 0.372556 0.0781222
280 2 0.467795 0.396175 0.0700642
2651 4 0.48483 0.360088 0.0783282
551 4 0.0967426 0.445251 0.068478
550 2 0.104353 0.467867 0.0759476
244 2 0.249857 0.48145 0.0543315
245 4 0.254467 0.465128 0.0727028
272 4 0.24328 0.493728 0.0170961
251 4 0.281231 0.434634 0.0152567
524 4 0.354944 0.503265 0.0104829
523 2 0.352494 0.500306 0.0351897
282 4 0.466237 0.419793 0.0620062
226 2 0.460035 0.446408 0.0323271
228 4 0.447316 0.462803 0.0183764
227 4 0.472755 0.430014 0.0462777
563 4 0.442176 0.480544 0.0267995
16 1 0.047727 0.0537712 0.150045
20 3 0.0442694 0.0336357 0.160108
1806 4 0.0822153 0.0415748 0.132324
18 3 0.0688186 0.0542769 0.140387
17 3 0.0319401 0.0568313 0.133597
1804 2 0.0824923 0.0179412 0.124166
19 3 0.0457368 0.0708524 0.165623
450 4 0.171281 0.0554054 0.121949
1505 4 0.175581 0.047365 0.140222
448 2 0.18364 0.0770138 0.119601
1504 2 0.184252 0.0427936 0.163224
652 2 0.315841 0.0187639 0.110013
653 4 0.316581 0.025953 0.0860771
654 4 0.315102 0.0115748 0.13395
1661 4 0.315689 0.0124103 0.15463
484 2 0.390641 0.0019369 0.112635
296 4 0.355605 0.0716334 0.0927114
295 2 0.361887 0.0519866 0.106844
297 4 0.368168 0.0323398 0.120976
485 4 0.383576 0.0207613 0.127498
237 4 0.155668 0.148197 0.140605
578 4 0.136123 0.146402 0.142029
577 2 0.117151 0.130842 0.137221
579 4 0.0981787 0.115282 0.132412
235 2 0.172695 0.132081 0.131914
236 4 0.189722 0.115965 0.123222
693 4 0.205593 0.107511 0.131557
449 4 0.195999 0.0986223 0.117254
691 2 0.22346 0.103935 0.148679
557 4 0.346587 0.0908643 0.0916846
337 2 0.0718663 0.19427 0.161548
339 4 0.0492654 0.187724 0.15309
476 4 0.138485 0.195725 0.120455
475 2 0.123485 0.19447 0.140421
477 4 0.108485 0.193215 0.160386
737 4 0.145624 0.208493 0.107682
736 2 0.167666 0.219957 0.110489
738 4 0.189709 0.231421 0.113296
283 2 0.331339 0.207019 0.155045
284 4 0.332764 0.220206 0.133849
462 4 0.340236 0.229313 0.0998237
255 4 0.34449 0.226499 0.11944
254 4 0.391941 0.2383 0.129922
253 2 0.368216 0.232399 0.124681
630 4 0.402004 0.224665 0.139539
628 2 0.416926 0.204642 0.140805
765 4 0.402953 0.242884 0.145739
629 4 0.431848 0.184619 0.14207
749 4 0.0966223 0.314788 0.155831
353 4 0.313334 0.286956 0.154586
754 2 0.278656 0.312131 0.147054
755 4 0.297496 0.296577 0.152373
278 4 0.29725 0.2824 0.165747
352 2 0.328781 0.28835 0.134974
756 4 0.259816 0.327686 0.141735
354 4 0.344228 0.289745 0.115363
763 2 0.407784 0.257884 0.165151
519 4 0.492324 0.283135 0.0873073
517 2 0.500673 0.281196 0.110796
648 4 0.0716417 0.344451 0.0856011
456 4 0.0847833 0.336153 0.0976557
455 4 0.117219 0.374173 0.0959033
454 2 0.101001 0.355163 0.0967795
537 4 0.20265 0.377346 0.125523
535 2 0.202449 0.400585 0.116299
611 4 0.219387 0.369684 0.131101
610 2 0.240395 0.358596 0.138905
612 4 0.261402 0.347508 0.14671
741 4 0.385791 0.371925 0.0930806
387 4 0.333613 0.408328 0.154347
739 2 0.390341 0.382389 0.115329
740 4 0.394891 0.392852 0.137577
15 3 0.39055 0.379673 0.151348
385 2 0.357958 0.402927 0.152515
386 4 0.382302 0.397526 0.150683
11 1 0.407486 0.384034 0.165937
495 4 0.399699 0.407115 0.148112
12 3 0.424576 0.369048 0.162405
14 3 0.415533 0.405529 0.162527
1465 2 0.0097309 0.486057 0.150815
1466 4 0.0328923 0.495378 0.149456
552 4 0.111964 0.490482 0.0834172
627 4 0.242946 0.461031 0.0895227
536 4 0.202247 0.423825 0.107076
625 2 0.220351 0.451334 0.0940582
626 4 0.197755 0.441636 0.0985937
637 2 0.235291 0.496336 0.143672
767 4 0.251896 0.460453 0.128021
638 4 0.247156 0.479186 0.129879
766 2 0.262244 0.446685 0.146146
301 2 0.313429 0.433203 0.163713
302 4 0.336015 0.428023 0.15432
494 4 0.408284 0.450664 0.12508
493 2 0.403991 0.42889 0.136596
660 4 0.413998 0.468563 0.131273
658 2 0.426077 0.480575 0.149576
2480 4 0.00474548 0.00439737 0.203508
673 2 0.127166 0.0480816 0.204702
675 4 0.104453 0.0566996 0.198783
674 4 0.149879 0.0394635 0.210621
689 4 0.204485 0.0246036 0.193243
1506 4 0.192923 0.0382222 0.186226
688 2 0.211114 0.00896709 0.211593
21 1 0.394666 0.0145836 0.224445
25 3 0.410786 0.0297975 0.219217
22 3 0.373967 0.0238439 0.220575
23 3 0.396219 0.00878856 0.246859
757 2 0.412487 0.0674798 0.195923
759 4 0.414585 0.0473663 0.210627
351 4 0.47561 0.0348052 0.236165
349 2 0.451938 0.0358872 0.228187
350 4 0.428266 0.0369692 0.220208
380 4 0.0533416 0.0897079 0.167359
512 4 0.0458558 0.119728 0.215755
379 2 0.042214 0.104507 0.184161
381 4 0.0310865 0.119307 0.200964
511 2 0.0546502 0.141548 0.224223
513 4 0.0634446 0.163369 0.232692
692 4 0.241327 0.10036 0.1658
721 2 0.182082 0.150866 0.22762
723 4 0.186806 0.136349 0.207817
582 4 0.260186 0.0982445 0.170958
580 2 0.272347 0.11634 0.183199
581 4 0.284508 0.134435 0.19544
30 3 0.304137 0.135036 0.197618
26 1 0.323753 0.139869 0.20813
29 3 0.324365 0.129527 0.228893
27 3 0.325348 0.162623 0.211107
28 3 0.341639 0.132724 0.195191
758 4 0.410388 0.0875933 0.181218
310 2 0.42209 0.144554 0.180575
311 4 0.418654 0.119795 0.180003
521 4 0.464153 0.16645 0.216912
338 4 0.0944672 0.200816 0.170005
363 4 0.111547 0.197614 0.179189
362 4 0.13865 0.214914 0.217489
361 2 0.125098 0.206264 0.198339
372 4 0.149573 0.231001 0.224685
544 2 0.157721 0.19409 0.253163
722 4 0.177359 0.165382 0.247422
546 4 0.18054 0.184181 0.250659
285 4 0.329914 0.193832 0.17624
279 4 0.26983 0.243534 0.181183
312 4 0.425526 0.169314 0.181147
520 2 0.487725 0.171621 0.210368
395 4 0.0706008 0.290971 0.207071
394 2 0.052138 0.294116 0.223636
396 4 0.0336752 0.297262 0.240202
750 4 0.0761075 0.309559 0.201135
748 2 0.0863649 0.312174 0.178483
370 2 0.162654 0.252261 0.223244
300 4 0.137593 0.316092 0.218907
371 4 0.175735 0.273521 0.221802
277 2 0.28354 0.262967 0.173465
308 4 0.33264 0.271465 0.242163
307 2 0.325185 0.283813 0.221739
309 4 0.31773 0.296161 0.201315
764 4 0.412615 0.272884 0.184564
623 4 0.422175 0.288349 0.192756
526 2 0.490566 0.289825 0.168707
528 4 0.473236 0.299687 0.183793
622 2 0.445518 0.295736 0.19783
624 4 0.46886 0.303123 0.202905
262 2 0.0515967 0.392004 0.230323
264 4 0.0266954 0.389834 0.229696
263 4 0.076498 0.394175 0.23095
298 2 0.14015 0.339699 0.22674
299 4 0.142707 0.363305 0.234573
603 4 0.125732 0.367171 0.245103
290 4 0.182052 0.374735 0.226592
289 2 0.180557 0.398987 0.220695
13 3 0.399918 0.381777 0.187755
644 4 0.505082 0.399407 0.194552
1757 4 0.0845059 0.495191 0.231424
1430 4 0.188004 0.497353 0.204688
416 4 0.171152 0.436381 0.202176
417 4 0.170121 0.486343 0.204022
415 2 0.170636 0.461362 0.203099
291 4 0.179063 0.42324 0.214799
768 4 0.272592 0.432917 0.164272
303 4 0.290843 0.438383 0.173106
643 2 0.498226 0.421975 0.202849
645 4 0.491371 0.444544 0.211147
597 4 0.475106 0.446737 0.200498
595 2 0.462813 0.466491 0.191342
596 4 0.450519 0.486245 0.182185
659 4 0.438156 0.492587 0.167878
1799 4 0.0231467 0.0285212 0.321861
233 4 0.0254217 0.0295818 0.302881
1402 2 0.0643656 0.0197141 0.308162
1403 4 0.0399068 0.022442 0.312578
232 2 0.015906 0.0395492 0.282018
234 4 0.00639019 0.0495166 0.261155
1404 4 0.0888244 0.0169862 0.303745
1699 2 0.184187 0.0798887 0.33017
1518 4 0.357479 0.00731316 0.291919
697 2 0.366191 0.0401522 0.319609
699 4 0.366278 0.0199695 0.30485
698 4 0.366105 0.0603349 0.334368
633 4 0.372468 0.0777226 0.328414
2664 4 0.502101 0.0343467 0.318218
743 4 0.491203 0.0420786 0.303514
744 4 0.48089 0.0329486 0.255442
742 2 0.486047 0.0375136 0.279478
479 4 0.487918 0.0475511 0.322463
398 4 0.104309 0.142522 0.30038
397 2 0.100093 0.119899 0.31016
393 4 0.101684 0.158917 0.290435
399 4 0.0958772 0.0972773 0.319939
390 4 0.104465 0.15921 0.310026
1700 4 0.207242 0.0888728 0.326576
248 4 0.220209 0.103906 0.331485
249 4 0.209676 0.15218 0.323778
247 2 0.214942 0.128043 0.327632
404 4 0.196703 0.150558 0.307955
403 2 0.188897 0.161079 0.286658
632 4 0.395027 0.109834 0.297419
631 2 0.383748 0.0937781 0.312917
333 4 0.480101 0.14254 0.287709
515 4 0.449472 0.153529 0.330128
331 2 0.469656 0.164522 0.293445
545 4 0.134901 0.203998 0.255667
392 4 0.123315 0.187339 0.255435
391 2 0.112499 0.173128 0.272935
388 2 0.106705 0.174276 0.329855
405 4 0.181091 0.1716 0.265361
420 4 0.403761 0.219121 0.30101
717 4 0.392225 0.236088 0.307624
332 4 0.459211 0.186503 0.299182
418 2 0.424176 0.206109 0.29476
419 4 0.444592 0.193097 0.288509
760 2 0.480989 0.216302 0.281013
762 4 0.461402 0.203494 0.289817
761 4 0.500576 0.229109 0.27221
444 4 0.0339265 0.252463 0.291038
364 2 0.00475962 0.3179 0.265057
442 2 0.0301913 0.269649 0.273266
443 4 0.0264562 0.286836 0.255494
365 4 0.0231429 0.306354 0.252651
401 4 0.223282 0.25873 0.265939
400 2 0.223665 0.260425 0.290882
402 4 0.224048 0.26212 0.315825
345 4 0.236915 0.264459 0.329835
510 4 0.222931 0.277824 0.327343
508 2 0.220669 0.302717 0.327991
497 4 0.331346 0.275389 0.261348
496 2 0.324052 0.293639 0.276805
498 4 0.316758 0.311888 0.292263
715 2 0.406137 0.256597 0.304303
542 4 0.425642 0.293164 0.289397
716 4 0.420049 0.277105 0.300983
541 2 0.418934 0.315618 0.298116
602 4 0.0842704 0.394639 0.250318
601 2 0.105001 0.380905 0.247711
734 4 0.142068 0.361315 0.253762
733 2 0.147919 0.362542 0.278041
735 4 0.15377 0.36377 0.302319
677 4 0.162932 0.362883 0.32114
676 2 0.185524 0.353441 0.326203
433 2 0.240921 0.364327 0.324911
678 4 0.208115 0.343998 0.331265
435 4 0.224847 0.34548 0.321508
434 4 0.256995 0.383175 0.328315
728 4 0.368318 0.369493 0.308982
727 2 0.357875 0.392211 0.308975
729 4 0.347433 0.41493 0.308968
543 4 0.412227 0.338071 0.306836
615 4 0.424087 0.350885 0.315444
613 2 0.42811 0.374261 0.323355
2538 4 0.47776 0.380794 0.318679
2536 2 0.478283 0.396823 0.299497
614 4 0.432133 0.397636 0.331265
2537 4 0.478807 0.412852 0.280314
777 4 0.0638512 0.437897 0.324155
775 2 0.0878271 0.434843 0.317751
414 4 0.119147 0.446399 0.323913
776 4 0.111803 0.431789 0.311347
438 4 0.292553 0.433368 0.282488
436 2 0.315849 0.432143 0.291488
437 4 0.339144 0.430918 0.300488
594 4 0.379315 0.467101 0.308484
592 2 0.392027 0.479475 0.326103
2862 4 0.464302 0.419646 0.266132
2861 4 0.435377 0.458564 0.253907
2860 2 0.44984 0.439105 0.26002
1798 2 0.0150633 0.0133365 0.340006
369 4 0.0846285 0.0483129 0.367901
367 2 0.0799888 0.0302615 0.384569
732 4 0.0813373 0.0675017 0.37168
368 4 0.0753491 0.0122102 0.401236
1701 4 0.161132 0.0709045 0.333764
1782 4 0.0937815 0.0050097 0.406762
256 2 0.401192 0.064136 0.358638
257 4 0.382924 0.0676794 0.341937
424 2 0.411823 0.0301654 0.401266
478 2 0.468863 0.0539356 0.33734
258 4 0.419459 0.0605927 0.375338
426 4 0.423593 0.0441562 0.38421
480 4 0.449807 0.0603201 0.352217
458 4 0.0251228 0.160528 0.367028
318 4 0.0296987 0.139647 0.36918
316 2 0.0416637 0.123674 0.354118
317 4 0.0536288 0.107701 0.339055
605 4 0.13809 0.0813744 0.354369
730 2 0.0861757 0.0858021 0.355344
604 2 0.147851 0.0982698 0.370004
606 4 0.157612 0.115165 0.385639
731 4 0.0910141 0.104102 0.339008
600 4 0.22265 0.144349 0.392989
683 4 0.242113 0.14542 0.39645
682 2 0.264556 0.13698 0.403537
319 2 0.317294 0.126534 0.398206
320 4 0.300561 0.114656 0.412492
708 4 0.339798 0.156977 0.385961
684 4 0.287 0.128539 0.410624
575 4 0.413258 0.136404 0.377975
321 4 0.334026 0.138412 0.383919
516 4 0.41002 0.141969 0.358599
574 2 0.425741 0.13586 0.399633
451 2 0.48509 0.15244 0.345119
514 2 0.429746 0.147749 0.344364
2655 4 0.0041228 0.246031 0.39729
457 2 0.0119703 0.171045 0.38551
2653 2 0.00548551 0.222346 0.405186
2654 4 0.00684822 0.198661 0.413082
459 4 0.998818 0.181562 0.403992
389 4 0.108945 0.189342 0.349683
598 2 0.216151 0.168371 0.395421
687 4 0.203646 0.197036 0.416278
599 4 0.209652 0.192392 0.397854
473 4 0.230966 0.220071 0.38443
374 4 0.215948 0.233085 0.38809
472 2 0.251755 0.220137 0.398322
378 4 0.295814 0.246157 0.360774
376 2 0.295244 0.221275 0.358372
377 4 0.294674 0.196394 0.35597
707 4 0.312363 0.191269 0.362043
706 2 0.32608 0.174123 0.374002
474 4 0.272544 0.220202 0.412215
453 4 0.465162 0.16479 0.336429
2849 4 0.013231 0.264035 0.390682
347 4 0.0764287 0.330718 0.398521
275 4 0.149457 0.312758 0.388058
617 4 0.141823 0.310682 0.40518
616 2 0.118806 0.320446 0.405439
618 4 0.0957895 0.330211 0.405699
274 2 0.169133 0.298661 0.394329
276 4 0.188808 0.284565 0.400601
373 2 0.211293 0.257542 0.390405
375 4 0.206639 0.281999 0.392719
509 4 0.218407 0.32761 0.328638
344 4 0.281544 0.254766 0.350207
343 2 0.25923 0.259613 0.340021
406 2 0.0133111 0.365305 0.366591
407 4 0.0259097 0.368601 0.345247
548 4 0.0301652 0.387487 0.349512
547 2 0.0433831 0.408241 0.345068
504 4 0.251118 0.405355 0.393893
334 2 0.331655 0.411271 0.397245
502 2 0.274217 0.406315 0.403415
336 4 0.309466 0.420411 0.404268
335 4 0.353843 0.402131 0.390221
240 4 0.372673 0.397247 0.39708
559 2 0.492223 0.342003 0.40104
561 4 0.476238 0.335301 0.383019
753 4 0.475585 0.378615 0.338826
752 4 0.4735 0.334323 0.361947
751 2 0.474543 0.356469 0.350386
549 4 0.0566011 0.428995 0.340624
412 2 0.136194 0.458371 0.337742
413 4 0.153241 0.470343 0.351572
500 4 0.157744 0.485781 0.362723
1543 2 0.187955 0.491653 0.335665
1544 4 0.167014 0.482371 0.345691
593 4 0.404739 0.49185 0.343722
720 4 0.0301679 0.0702633 0.459656
2237 4 0.0203797 0.0583181 0.447884
2236 2 0.0257856 0.0392905 0.43259
1127 4 0.0122148 0.0636274 0.465215
2238 4 0.0311915 0.0202628 0.417296
726 4 0.286915 0.0649171 0.469507
724 2 0.290547 0.0485946 0.488096
1580 4 0.383451 0.0144235 0.429116
425 4 0.400053 0.0161747 0.418322
2878 2 0.469328 0.0714149 0.484637
718 2 0.0395205 0.0909409 0.470151
719 4 0.0488731 0.111619 0.480646
1033 2 0.119069 0.136271 0.472324
1035 4 0.137243 0.151287 0.463993
1034 4 0.100895 0.121255 0.480655
1182 4 0.290382 0.0850302 0.465075
1180 2 0.289459 0.101539 0.446319
1181 4 0.288536 0.118048 0.427564
3158 4 0.497767 0.158953 0.449119
2880 4 0.461306 0.0895472 0.469404
642 4 0.469264 0.0892268 0.450593
640 2 0.462666 0.108128 0.435614
641 4 0.456068 0.127029 0.420634
306 4 0.454024 0.146245 0.42444
576 4 0.438225 0.135316 0.42129
469 2 0.0181303 0.202013 0.482147
470 4 0.0134897 0.181855 0.468101
686 4 0.164744 0.217449 0.440166
260 4 0.156013 0.208953 0.45566
261 4 0.132679 0.168082 0.472567
259 2 0.144346 0.188518 0.464113
695 4 0.149576 0.226419 0.44872
694 2 0.138873 0.244928 0.461684
411 4 0.231268 0.175884 0.502352
685 2 0.184195 0.207242 0.428222
488 4 0.267736 0.220317 0.431735
487 2 0.29 0.21666 0.44251
489 4 0.312264 0.213003 0.453285
467 4 0.378847 0.214418 0.415012
466 2 0.375866 0.234531 0.429564
305 4 0.458433 0.194293 0.43758
304 2 0.456229 0.170269 0.43101
585 4 0.441412 0.244954 0.495213
2847 4 0.998653 0.325662 0.495877
1260 4 0.123203 0.277512 0.487456
696 4 0.128171 0.263436 0.474649
811 2 0.262062 0.299792 0.493192
813 4 0.274098 0.286673 0.475637
266 4 0.313169 0.260693 0.47591
468 4 0.372886 0.254644 0.444117
265 2 0.335111 0.261514 0.463949
267 4 0.357053 0.262336 0.451989
2456 4 0.480298 0.280626 0.490515
584 4 0.485515 0.263553 0.480729
583 2 0.463464 0.254253 0.487971
348 4 0.0612912 0.342446 0.444716
326 4 0.0632057 0.360629 0.453202
346 2 0.06886 0.336582 0.421618
681 4 0.0672716 0.404618 0.43974
325 2 0.0775671 0.366307 0.472866
383 4 0.0857136 0.408831 0.447024
10 3 0.14355 0.371515 0.47517
327 4 0.0919286 0.371985 0.49253
7 3 0.110384 0.371085 0.49228
6 1 0.133155 0.370059 0.49538
635 4 0.198712 0.413698 0.465146
709 2 0.174456 0.405083 0.490404
774 4 0.214572 0.407302 0.473638
772 2 0.232292 0.403708 0.490908
710 4 0.197726 0.411414 0.483799
503 4 0.297317 0.407274 0.412937
239 4 0.392687 0.407363 0.441777
238 2 0.38268 0.402305 0.419429
588 4 0.394522 0.402645 0.460281
586 2 0.404657 0.409319 0.482143
587 4 0.414792 0.415992 0.504004
680 4 0.0371682 0.442294 0.426511
1381 2 0.0467702 0.485135 0.420045
1383 4 0.0421149 0.460814 0.423511
679 2 0.0522199 0.423456 0.433126
570 4 0.159489 0.473798 0.457329
538 2 0.102196 0.495143 0.483273
382 2 0.10509 0.419624 0.458566
569 4 0.142477 0.431872 0.478626
568 2 0.150983 0.452835 0.467978
384 4 0.124467 0.430418 0.470109
539 4 0.0879176 0.489221 0.463621
636 4 0.215317 0.453765 0.440255
634 2 0.207014 0.433731 0.452701
880 2 0.332234 0.496309 0.490401
5 3 0.29403 0.491363 0.455038
669 4 0.29589 0.426562 0.416275
668 4 0.309357 0.472353 0.431192
667 2 0.302623 0.449457 0.423733
4 3 0.314159 0.489411 0.423279
3077 4 0.995383 0.0376421 0.570348
1057 2 0.126251 0.0631466 0.583638
2375 4 0.122384 0.0250273 0.578106
340 2 0.188713 0.0464798 0.51557
342 4 0.184436 0.0710854 0.516773
2430 4 0.200057 0.012042 0.498762
341 4 0.192991 0.0218741 0.514368
430 2 0.317335 0.0254196 0.533638
432 4 0.300669 0.0170713 0.516973
963 4 0.289428 0.0144297 0.501501
725 4 0.29418 0.0322721 0.506686
431 4 0.334001 0.0337678 0.550304
843 4 0.346614 0.0481256 0.543469
1217 4 0.417119 0.0471791 0.542756
842 4 0.396571 0.0501211 0.54246
841 2 0.371592 0.0491233 0.542965
1216 2 0.420188 0.0224672 0.54501
2879 4 0.477349 0.0532826 0.499871
879 4 0.0737469 0.152796 0.554551
1272 4 0.077048 0.134149 0.559161
877 2 0.0521618 0.163759 0.548301
938 4 0.0840189 0.142282 0.542475
1059 4 0.13615 0.0856159 0.578914
1150 2 0.154256 0.0843664 0.538504
937 2 0.0929946 0.132232 0.521413
1151 4 0.14209 0.0887227 0.559909
1155 4 0.1546 0.0892159 0.574964
939 4 0.10197 0.122181 0.500351
1270 2 0.0910618 0.139529 0.579157
1152 4 0.166423 0.08001 0.517099
878 4 0.0305766 0.174723 0.542051
1199 4 0.0141091 0.179573 0.530698
471 4 0.0227708 0.222172 0.496193
409 2 0.254231 0.176629 0.512218
857 4 0.295603 0.223783 0.583713
898 2 0.288755 0.206269 0.542733
791 4 0.2953 0.235525 0.568655
899 4 0.29159 0.217093 0.565093
900 4 0.28592 0.195445 0.520372
410 4 0.277194 0.177374 0.522084
871 2 0.380698 0.228026 0.516919
872 4 0.359092 0.221125 0.506396
873 4 0.402304 0.234926 0.527443
3354 4 0.992961 0.308774 0.503108
1259 4 0.111919 0.262242 0.533719
1258 2 0.117561 0.269877 0.510587
649 2 0.256801 0.311349 0.547286
651 4 0.252201 0.301869 0.56996
650 4 0.261401 0.320829 0.524611
804 4 0.248854 0.332221 0.515196
812 4 0.250025 0.312912 0.510748
790 2 0.311856 0.253618 0.563787
792 4 0.328413 0.271712 0.55892
1238 4 0.338218 0.287292 0.565789
906 4 0.440601 0.257572 0.58076
2455 2 0.490708 0.301427 0.499685
935 4 0.00915293 0.402249 0.522548
9 3 0.138437 0.349891 0.505566
897 4 0.166851 0.389117 0.572382
1137 4 0.161024 0.409231 0.569652
711 4 0.151187 0.398752 0.497009
8 3 0.139684 0.387726 0.508932
1189 2 0.239887 0.403466 0.54818
773 4 0.250012 0.400115 0.508179
1190 4 0.250686 0.395048 0.527259
1191 4 0.229088 0.411884 0.569102
803 4 0.245582 0.38212 0.514863
895 2 0.189704 0.398802 0.575402
802 2 0.247218 0.35717 0.515029
896 4 0.212557 0.408486 0.578422
930 4 0.264426 0.388186 0.514595
928 2 0.288922 0.391637 0.51823
929 4 0.313418 0.395089 0.521865
927 4 0.391716 0.385488 0.553087
925 2 0.40416 0.400899 0.537829
926 4 0.416604 0.416311 0.522571
1135 2 0.141394 0.419953 0.558476
1136 4 0.121765 0.430675 0.5473
2243 4 0.141942 0.502972 0.565591
2242 2 0.136057 0.500865 0.541382
2244 4 0.130172 0.498757 0.517172
1172 4 0.219608 0.426872 0.575455
1171 2 0.21395 0.449722 0.583884
889 2 0.321384 0.465505 0.564995
891 4 0.333747 0.475309 0.545598
890 4 0.30902 0.455701 0.584391
1953 4 0.389991 0.46886 0.534639
1951 2 0.365492 0.472805 0.531572
1952 4 0.340992 0.47675 0.528505
663 4 0.408033 0.431604 0.514175
881 4 0.334729 0.480823 0.509873
1001 4 0.431787 0.491171 0.539994
662 4 0.42685 0.47509 0.530163
661 2 0.417442 0.453347 0.522169
1911 4 0.435546 0.473665 0.548041
1909 2 0.438292 0.46583 0.571626
1332 4 0.445422 0.479338 0.531958
1330 2 0.467795 0.490201 0.529389
1184 4 0.989884 0.0231252 0.582748
2374 2 0.129329 0.00117868 0.580967
1058 4 0.116352 0.0406773 0.588362
825 4 0.130984 0.999349 0.654695
1284 4 0.167148 0.0741892 0.652961
950 4 0.252797 0.016219 0.635291
949 2 0.268361 0.0350626 0.630012
951 4 0.283924 0.0539061 0.624733
1031 4 0.286186 0.0745147 0.624584
45 3 0.430769 0.0706195 0.644123
3008 4 0.505037 0.082781 0.596834
3178 2 0.0013392 0.167097 0.661441
1271 4 0.105076 0.144909 0.599153
1153 2 0.171053 0.102415 0.58839
1154 4 0.187506 0.115614 0.601816
1221 4 0.198903 0.120069 0.618329
1219 2 0.200651 0.143259 0.627515
1220 4 0.202399 0.166448 0.636701
1032 4 0.256006 0.113391 0.633445
1030 2 0.271096 0.093953 0.629014
808 2 0.481774 0.0889107 0.633442
810 4 0.470385 0.0878869 0.655677
43 3 0.42326 0.103652 0.660558
809 4 0.493163 0.0899344 0.611206
1243 2 0.0674 0.212869 0.642992
1244 4 0.0749909 0.217545 0.619632
1210 2 0.237093 0.179026 0.65185
1212 4 0.216826 0.179426 0.637213
796 2 0.192938 0.197083 0.620734
798 4 0.197807 0.184769 0.641943
797 4 0.188069 0.209398 0.599525
856 2 0.283756 0.206729 0.597641
858 4 0.271909 0.189676 0.61157
1211 4 0.257361 0.178626 0.666487
3121 2 0.484855 0.226175 0.64284
905 4 0.46496 0.23152 0.615812
3123 4 0.461737 0.223294 0.63376
904 2 0.45278 0.244546 0.598286
983 4 0.0499223 0.291349 0.61467
982 2 0.0477084 0.312988 0.627
3263 4 0.0414131 0.326338 0.656723
947 4 0.259363 0.292322 0.648451
805 2 0.30846 0.325945 0.642008
1237 2 0.332103 0.297716 0.587678
1239 4 0.325987 0.308139 0.609567
807 4 0.311742 0.316926 0.61892
806 4 0.305177 0.334964 0.665096
952 2 0.48876 0.320228 0.612763
953 4 0.476502 0.30966 0.631822
984 4 0.0454944 0.334627 0.63933
1041 4 0.0341189 0.344037 0.65095
1039 2 0.0401978 0.366198 0.641096
1040 4 0.0462767 0.388359 0.631241
993 4 0.0653514 0.392809 0.63283
991 2 0.066164 0.41684 0.625975
992 4 0.0669766 0.440872 0.61912
1159 2 0.180129 0.498404 0.584428
1160 4 0.20013 0.49075 0.597334
1173 4 0.208291 0.472572 0.592312
1188 4 0.195153 0.469301 0.653384
1187 4 0.212594 0.481651 0.608174
1186 2 0.203874 0.475476 0.630779
1206 4 0.481347 0.409527 0.647664
1204 2 0.459402 0.421481 0.648504
1910 4 0.441038 0.457995 0.595211
1269 4 0.436218 0.453598 0.646074
1267 2 0.426676 0.476369 0.650024
1205 4 0.437457 0.433434 0.649344
1226 4 0.160482 0.0816243 0.743362
2255 4 0.229062 0.0150726 0.743752
1004 4 0.33082 0.000327431 0.721776
1003 2 0.326148 0.0248813 0.721098
1005 4 0.321476 0.0494351 0.720421
41 1 0.433165 0.082835 0.663194
1162 2 0.494133 0.0725394 0.685973
42 3 0.422859 0.071844 0.680576
3179 4 0.0213625 0.161222 0.675215
1083 4 0.022189 0.142152 0.68103
1081 2 0.0189586 0.118917 0.689683
1082 4 0.0157282 0.095682 0.698336
1076 4 0.0272723 0.0866343 0.713939
1075 2 0.0388339 0.0930761 0.735152
850 2 0.0685828 0.15638 0.721422
852 4 0.0484376 0.151088 0.735255
1214 4 0.0296554 0.152987 0.740579
1282 2 0.157415 0.0875527 0.671719
909 4 0.101848 0.151638 0.697088
907 2 0.11719 0.132308 0.69307
908 4 0.132532 0.112978 0.689053
1283 4 0.147682 0.100916 0.690477
1227 4 0.138622 0.107613 0.706655
851 4 0.0887279 0.161671 0.707589
1225 2 0.149552 0.0946189 0.725008
1148 4 0.176878 0.0843698 0.753002
1147 2 0.200646 0.0901688 0.747843
1149 4 0.224415 0.0959677 0.742684
888 4 0.267904 0.163567 0.670487
830 4 0.321548 0.14568 0.710227
978 4 0.312564 0.16094 0.718105
887 4 0.3057 0.153138 0.701526
886 2 0.286802 0.158352 0.686006
831 4 0.368291 0.132741 0.72241
1141 2 0.401121 0.153702 0.718194
829 2 0.344919 0.13921 0.716319
1142 4 0.388046 0.133507 0.725005
1163 4 0.474521 0.0829205 0.67445
44 3 0.45568 0.0853526 0.668208
1025 4 0.47083 0.15615 0.690595
3424 2 0.476582 0.12299 0.677133
3426 4 0.467531 0.10059 0.670693
3425 4 0.485634 0.14539 0.683573
3269 4 0.487317 0.152137 0.701875
3268 2 0.495061 0.162784 0.723132
1245 4 0.0598091 0.208193 0.666352
1209 4 0.0614463 0.203457 0.687316
1207 2 0.0770708 0.221061 0.695753
1213 2 0.0169762 0.173997 0.745377
1215 4 0.00429711 0.195006 0.750176
1107 4 0.103016 0.171536 0.698242
1105 2 0.113621 0.186022 0.715645
1208 4 0.0926952 0.238664 0.704189
1106 4 0.124225 0.200508 0.733049
1130 4 0.141227 0.192382 0.738583
976 2 0.305862 0.176895 0.736152
1194 4 0.38132 0.223398 0.720949
1192 2 0.363201 0.239088 0.728068
1024 2 0.448999 0.167758 0.694313
1143 4 0.414195 0.173898 0.711383
1026 4 0.427168 0.179367 0.698031
1261 2 0.427412 0.203755 0.72829
1262 4 0.417514 0.192645 0.708195
3262 2 0.0397431 0.320332 0.680937
3264 4 0.0380732 0.314326 0.705151
779 4 0.0494513 0.315648 0.720729
893 4 0.0399063 0.331663 0.715487
778 2 0.06535 0.307475 0.738211
1064 4 0.24826 0.280655 0.698126
1065 4 0.210247 0.274043 0.729938
1063 2 0.229253 0.277349 0.714032
946 2 0.261443 0.28147 0.67088
948 4 0.263523 0.270618 0.69331
917 4 0.280105 0.246595 0.746545
1193 4 0.345081 0.254778 0.735187
1008 4 0.418108 0.305111 0.711925
1006 2 0.431154 0.302062 0.733036
892 2 0.0347306 0.352867 0.727686
894 4 0.029555 0.37407 0.739884
1066 2 0.155539 0.399032 0.692316
1067 4 0.135302 0.407211 0.704511
940 2 0.109345 0.404759 0.730596
942 4 0.101372 0.391881 0.75049
1068 4 0.175777 0.390852 0.68012
1027 2 0.212679 0.414148 0.682828
1028 4 0.192407 0.399761 0.685519
1279 2 0.0319514 0.499783 0.681997
1280 4 0.0516322 0.491777 0.668815
941 4 0.117318 0.417637 0.710702
1176 4 0.170371 0.478386 0.718378
1029 4 0.232952 0.428534 0.680138
1175 4 0.188671 0.468221 0.672963
1174 2 0.179521 0.473303 0.695671
1140 4 0.284909 0.467291 0.677313
1138 2 0.299593 0.462263 0.696916
1139 4 0.314277 0.457235 0.716518
1019 4 0.401626 0.42651 0.742504
1230 4 0.397189 0.453673 0.715802
1228 2 0.384372 0.459671 0.736415
1100 4 0.417879 0.453591 0.718832
1101 4 0.464681 0.452376 0.736405
1099 2 0.44128 0.452983 0.727618
3330 4 0.480498 0.447275 0.725901
1296 4 0.00592602 0.0387206 0.801857
1294 2 0.0142459 0.0191517 0.788703
1201 2 0.160711 0.0479609 0.768974
1202 4 0.15804 0.0251726 0.778911
1203 4 0.163383 0.0707492 0.759038
2254 2 0.209483 0.0164338 0.759244
2049 4 0.175036 0.0207563 0.787767
2256 4 0.189904 0.0177951 0.774735
1113 4 0.401019 0.0491118 0.825637
975 4 0.343429 0.0660388 0.828089
1111 2 0.401838 0.07348 0.831177
2442 4 0.466342 0.00403214 0.760839
980 4 0.459415 0.995508 0.791987
2321 4 0.461635 0.0108966 0.779318
2322 4 0.464761 0.0607955 0.780338
2320 2 0.463198 0.035846 0.779828
846 4 0.453329 0.0729484 0.794911
1077 4 0.0503955 0.0995179 0.756366
864 4 0.05895 0.105029 0.77414
862 2 0.0474554 0.117351 0.792612
863 4 0.0359608 0.129673 0.811084
832 2 0.00214199 0.133634 0.833717
833 4 0.0165506 0.134105 0.813288
1125 4 0.0303886 0.147738 0.814981
31 1 0.123857 0.131543 0.806188
35 3 0.133073 0.114499 0.79422
33 3 0.109794 0.123023 0.822559
32 3 0.140614 0.143611 0.816324
34 3 0.111971 0.145608 0.79207
1257 4 0.238876 0.0933354 0.756916
1255 2 0.258686 0.0971479 0.771689
1256 4 0.278495 0.10096 0.786462
840 4 0.286408 0.119307 0.787931
838 2 0.290251 0.133406 0.80822
839 4 0.294095 0.147505 0.828508
844 2 0.451036 0.0947998 0.806845
845 4 0.448742 0.116651 0.81878
1123 2 0.0413309 0.16931 0.808646
1124 4 0.0522732 0.190881 0.802311
1072 2 0.0499026 0.224502 0.784933
1073 4 0.0397952 0.207183 0.799868
1074 4 0.06001 0.241821 0.769998
1129 2 0.145406 0.211315 0.754372
822 4 0.153552 0.247466 0.775846
1131 4 0.149586 0.230247 0.770161
1277 4 0.167578 0.232776 0.777398
1276 2 0.173097 0.226313 0.800913
1278 4 0.178616 0.219849 0.824427
920 4 0.184044 0.205244 0.836744
977 4 0.29916 0.192849 0.7542
916 2 0.294944 0.227504 0.752908
918 4 0.309784 0.208413 0.759271
1298 4 0.312749 0.190075 0.766626
1297 2 0.331644 0.196766 0.781573
1299 4 0.350538 0.203457 0.79652
50 3 0.40744 0.205977 0.774817
1086 4 0.359712 0.199588 0.814407
49 3 0.418571 0.236755 0.79343