ITEM: TIMESTEP
1960000
ITEM: NUMBER OF ATOMS
4590
ITEM: BOX BOUNDS pp pp pp
-9.9985700000000008e+00 9.9985700000000008e+00
-9.9985700000000008e+00 9.9985700000000008e+00
-9.9985700000000008e+00 9.9985700000000008e+00
ITEM: ATOMS id type xs ys zs
701 4 0.0828044 0.0557021 0.017757
465 4 0.0705923 0.0660976 0.00684546
463 2 0.0512298 0.0810339 0.0120589
700 2 0.105952 0.0583819 0.0268223
702 4 0.1291 0.0610617 0.0358875
566 4 0.136407 0.0758972 0.0474334
2264 4 0.267709 0.0110596 0.0381412
2263 2 0.274476 0.0260769 0.0193297
491 4 0.26603 0.000595099 0.0560076
746 4 0.46757 0.0656775 0.0251005
2469 4 0.465295 0.0454073 0.03095
2467 2 0.474677 0.0226802 0.0354941
745 2 0.46279 0.0644858 0.000586926
464 4 0.0318673 0.0959702 0.0172723
590 4 0.0295521 0.105283 0.0346873
589 2 0.0161641 0.106491 0.05577
591 4 0.00277619 0.107699 0.0768528
565 2 0.149619 0.0884544 0.030318
567 4 0.162831 0.101012 0.0132026
558 4 0.313285 0.118634 0.0461157
556 2 0.323051 0.108819 0.0669357
865 2 0.352964 0.161959 0.00759776
771 4 0.49294 0.119731 0.0785636
554 4 0.0402061 0.220858 0.053159
553 2 0.0596183 0.226844 0.0385813
555 4 0.0790305 0.232831 0.0240036
835 2 0.11662 0.218322 0.00849156
836 4 0.0928505 0.224905 0.0125944
738 4 0.150245 0.186948 0.0789424
915 4 0.159431 0.218596 0.00520226
573 4 0.32827 0.243072 0.0565173
666 4 0.346401 0.236578 0.0550436
461 4 0.338973 0.239344 0.073038
867 4 0.348039 0.18119 0.0227995
664 2 0.344226 0.212822 0.0475544
665 4 0.342051 0.189065 0.0400652
1070 4 0.434753 0.213958 0.047253
1069 2 0.42327 0.236159 0.0465926
294 4 0.0988993 0.312293 0.0379898
292 2 0.120149 0.318603 0.0495576
507 4 0.154902 0.313494 0.0515331
293 4 0.141399 0.324913 0.0611255
505 2 0.17682 0.325326 0.0537217
356 4 0.31817 0.29717 0.0258584
355 2 0.318089 0.31911 0.013865
572 4 0.330909 0.28999 0.0394157
571 2 0.32959 0.266531 0.0479665
1071 4 0.411788 0.25836 0.0459323
324 4 0.420661 0.276354 0.0451814
322 2 0.42266 0.297102 0.0589909
323 4 0.424658 0.31785 0.0728005
672 4 0.437972 0.328972 0.0815985
620 4 0.000932075 0.360205 0.0611557
647 4 0.0200391 0.358532 0.0675513
646 2 0.0424849 0.361756 0.0780857
483 4 0.196794 0.356696 0.0511076
506 4 0.198738 0.337157 0.0559102
481 2 0.216393 0.368291 0.0407818
609 4 0.252047 0.391177 0.027836
482 4 0.235992 0.379886 0.0304561
607 2 0.267787 0.410601 0.0281865
357 4 0.318008 0.341049 0.00187155
670 2 0.454291 0.346094 0.0734915
281 4 0.468358 0.382548 0.0645375
671 4 0.470609 0.363216 0.0653844
2651 4 0.484748 0.37434 0.0720411
280 2 0.469901 0.4075 0.0641059
551 4 0.0670647 0.442192 0.0660954
550 2 0.0820661 0.461115 0.0725802
552 4 0.0970674 0.480038 0.079065
1787 4 0.0969701 0.493071 0.0642121
242 4 0.108092 0.495806 0.0793532
246 4 0.246331 0.480743 0.0344244
244 2 0.238484 0.465884 0.05294
245 4 0.230636 0.451026 0.0714557
627 4 0.234335 0.438268 0.0865652
272 4 0.250335 0.479899 0.0152575
608 4 0.283528 0.430025 0.0285371
252 4 0.294755 0.441764 0.016935
250 2 0.316774 0.452659 0.0122785
1778 4 0.256226 0.49516 0.0260601
2289 4 0.33983 0.480428 0.997214
251 4 0.338792 0.463553 0.00762204
282 4 0.471443 0.432453 0.0636742
226 2 0.476295 0.467237 0.0512449
228 4 0.489455 0.488487 0.0506015
227 4 0.463135 0.445987 0.0518882
16 1 0.0669171 0.0523731 0.138671
20 3 0.0508028 0.0616986 0.125556
1806 4 0.0596771 0.0122388 0.152083
18 3 0.061635 0.0302299 0.143163
1804 2 0.0561298 0.999038 0.131146
19 3 0.0688247 0.064245 0.158516
17 3 0.0870658 0.0531124 0.127597
673 2 0.119051 0.0494252 0.15781
675 4 0.100601 0.0467237 0.141152
448 2 0.165912 0.0781207 0.159178
692 4 0.242759 0.0785643 0.143427
652 2 0.313372 0.0350068 0.162418
654 4 0.3114 0.0112608 0.169995
653 4 0.315345 0.0587528 0.154841
582 4 0.25412 0.0811457 0.15879
484 2 0.370152 0.0108628 0.113839
295 2 0.348211 0.0743168 0.10805
297 4 0.357938 0.0512949 0.108789
485 4 0.358529 0.0329786 0.114822
380 4 0.0718084 0.0832174 0.165117
2624 4 0.9976 0.109498 0.0956428
579 4 0.0876589 0.1104 0.10592
237 4 0.142202 0.135051 0.120172
578 4 0.124979 0.142607 0.114326
577 2 0.106319 0.126503 0.110123
476 4 0.133109 0.148018 0.131375
737 4 0.141396 0.153575 0.115118
235 2 0.162596 0.121831 0.126049
475 2 0.123283 0.16359 0.148291
236 4 0.182989 0.108612 0.131926
693 4 0.195767 0.0950264 0.13879
449 4 0.177606 0.094793 0.144671
691 2 0.219263 0.0867953 0.141108
557 4 0.332817 0.0990037 0.0877556
296 4 0.338483 0.0973386 0.10731
311 4 0.439126 0.144189 0.139923
736 2 0.14582 0.170262 0.0970302
477 4 0.113458 0.179163 0.165206
283 2 0.326198 0.202941 0.135453
354 4 0.32886 0.244934 0.138865
285 4 0.322861 0.178162 0.135284
284 4 0.329536 0.227721 0.135622
462 4 0.331708 0.239401 0.122515
460 2 0.33534 0.239372 0.0977763
255 4 0.344195 0.237505 0.134779
254 4 0.386894 0.24079 0.160598
253 2 0.365545 0.239148 0.147688
310 2 0.442061 0.168189 0.146293
1012 2 0.495514 0.195596 0.103011
1013 4 0.480567 0.214928 0.108305
312 4 0.444996 0.192189 0.152662
629 4 0.428895 0.197689 0.166046
279 4 0.232666 0.25758 0.166454
352 2 0.313197 0.261585 0.148994
353 4 0.297533 0.278235 0.159123
754 2 0.278095 0.312458 0.152066
755 4 0.281109 0.288906 0.159901
278 4 0.281117 0.269525 0.163222
277 2 0.256891 0.263552 0.164838
456 4 0.07279 0.348382 0.097983
648 4 0.0649306 0.36498 0.0886201
454 2 0.0974855 0.352249 0.0985859
455 4 0.122181 0.356115 0.0991889
625 2 0.222991 0.416366 0.0906632
626 4 0.211647 0.394464 0.0947612
537 4 0.215143 0.340826 0.0985482
535 2 0.204104 0.363255 0.0980379
611 4 0.234913 0.347572 0.0962915
536 4 0.193065 0.385684 0.0975276
756 4 0.27508 0.33601 0.14423
610 2 0.254945 0.341235 0.109847
612 4 0.274977 0.334898 0.123402
741 4 0.386905 0.358361 0.100887
739 2 0.388141 0.369661 0.123157
740 4 0.389377 0.380962 0.145427
15 3 0.379059 0.377445 0.162139
385 2 0.356309 0.406168 0.150584
386 4 0.378251 0.394301 0.152291
495 4 0.397959 0.39771 0.149079
493 2 0.405876 0.420224 0.14162
14 3 0.413223 0.392909 0.165503
1467 4 0.00576681 0.457593 0.096909
1465 2 0.0233875 0.47532 0.097582
1466 4 0.0410081 0.493047 0.098255
1791 4 0.0403861 0.499108 0.116836
243 4 0.136455 0.486808 0.119544
241 2 0.122273 0.491307 0.0994485
1438 2 0.164346 0.498133 0.142808
637 2 0.220983 0.481836 0.161006
639 4 0.198725 0.491564 0.155078
1439 4 0.179951 0.494436 0.161992
303 4 0.300126 0.45927 0.128536
766 2 0.268756 0.465981 0.135739
768 4 0.282748 0.452185 0.120277
301 2 0.319611 0.448348 0.13977
767 4 0.254765 0.479777 0.151202
387 4 0.334367 0.418034 0.148877
302 4 0.339097 0.437426 0.151004
494 4 0.413792 0.442738 0.134161
660 4 0.43086 0.447629 0.144394
658 2 0.437116 0.467517 0.158197
1422 4 0.0318543 0.00398774 0.225686
2480 4 0.0156684 0.00968546 0.213278
450 4 0.154217 0.0614484 0.173686
674 4 0.1375 0.0521267 0.174468
1505 4 0.152241 0.0463378 0.186194
1504 2 0.167499 0.0335655 0.201335
689 4 0.191747 0.00972235 0.230825
1506 4 0.182757 0.0207932 0.216476
22 3 0.403362 0.0159506 0.199186
21 1 0.40842 0.00960793 0.220712
23 3 0.392405 0.0183266 0.235061
758 4 0.440854 0.0762983 0.209629
757 2 0.435452 0.0553688 0.222197
25 3 0.429005 0.0176223 0.226252
759 4 0.430051 0.0344392 0.234765
350 4 0.442432 0.0199675 0.24053
379 2 0.0567348 0.102051 0.171695
512 4 0.045828 0.12046 0.197819
381 4 0.0416611 0.120884 0.178273
511 2 0.0495114 0.14411 0.205051
580 2 0.272073 0.0961123 0.16767
581 4 0.290026 0.111079 0.17655
30 3 0.286842 0.122803 0.191986
26 1 0.30219 0.139176 0.195862
27 3 0.301116 0.145492 0.217955
28 3 0.297615 0.157626 0.182554
29 3 0.323528 0.131253 0.191354
521 4 0.461902 0.164093 0.217658
337 2 0.0713319 0.183736 0.170388
513 4 0.0531949 0.167759 0.212284
339 4 0.0478425 0.185181 0.178834
338 4 0.0948214 0.182291 0.161942
363 4 0.105578 0.197288 0.167784
362 4 0.126117 0.226287 0.202967
361 2 0.115848 0.211788 0.185375
372 4 0.132632 0.243351 0.211139
723 4 0.228386 0.21841 0.246254
630 4 0.403043 0.240225 0.170852
628 2 0.415969 0.218957 0.168449
520 2 0.486031 0.170201 0.220029
420 4 0.417906 0.232964 0.247094
394 2 0.0489091 0.294162 0.252348
750 4 0.0681072 0.302347 0.21542
395 4 0.0675342 0.299805 0.23665
748 2 0.0685749 0.300013 0.19053
749 4 0.0690427 0.297679 0.16564
370 2 0.153582 0.25604 0.216169
300 4 0.148111 0.32719 0.211098
298 2 0.133305 0.333509 0.23023
371 4 0.174532 0.268728 0.221198
401 4 0.220386 0.270572 0.243714
307 2 0.312295 0.29076 0.218037
309 4 0.316858 0.275866 0.198478
308 4 0.307732 0.305654 0.237595
497 4 0.292946 0.321849 0.24059
765 4 0.390108 0.254568 0.173084
763 2 0.407676 0.270215 0.181552
764 4 0.425244 0.285862 0.19002
623 4 0.435876 0.289136 0.206441
622 2 0.460439 0.289086 0.201768
624 4 0.485002 0.289037 0.197095
528 4 0.495271 0.304603 0.191849
2618 4 0.0121675 0.407658 0.234958
262 2 0.0436313 0.394453 0.215998
263 4 0.0681515 0.390512 0.213098
602 4 0.0704156 0.374759 0.224614
264 4 0.0191111 0.398394 0.218897
601 2 0.0861703 0.361848 0.239115
290 4 0.144808 0.375077 0.204211
289 2 0.160817 0.392135 0.213038
299 4 0.118499 0.339828 0.249362
291 4 0.176827 0.409192 0.221865
11 1 0.397699 0.378628 0.17517
12 3 0.407004 0.357671 0.177004
13 3 0.392074 0.386219 0.196363
1775 4 0.139182 0.500943 0.23953
638 4 0.243241 0.472108 0.166934
416 4 0.184293 0.422881 0.208812
415 2 0.18666 0.447466 0.204919
1430 4 0.201737 0.482265 0.210233
417 4 0.189027 0.472051 0.201025
659 4 0.443372 0.487405 0.171999
595 2 0.480169 0.479913 0.190606
596 4 0.462555 0.489943 0.175966
231 4 0.449303 0.490662 0.190506
232 2 0.0035164 0.0590147 0.29684
1799 4 0.022146 0.023865 0.304828
233 4 0.0190368 0.0396073 0.294075
1402 2 0.0604135 0.0266612 0.288889
1403 4 0.0375309 0.0331154 0.296629
1798 2 0.013654 0.0121853 0.32524
1404 4 0.0832961 0.0202069 0.281149
1464 4 0.149267 0.00129605 0.292306
633 4 0.381205 0.0437709 0.319155
631 2 0.382164 0.0485223 0.294626
632 4 0.383123 0.0532737 0.270097
257 4 0.389871 0.0561265 0.331454
349 2 0.463718 0.01882 0.253597
351 4 0.485004 0.0176726 0.266664
399 4 0.0498153 0.0958727 0.324024
397 2 0.0685286 0.11176 0.319271
317 4 0.0332062 0.104535 0.328085
545 4 0.137156 0.147798 0.250076
398 4 0.0872419 0.127647 0.314517
393 4 0.090681 0.139636 0.298959
392 4 0.117723 0.146986 0.257541
390 4 0.0948223 0.145777 0.317278
391 2 0.104202 0.143311 0.27825
544 2 0.158677 0.159371 0.255379
249 4 0.218682 0.153195 0.326581
444 4 0.0173794 0.229744 0.279738
388 2 0.0959648 0.168306 0.328062
721 2 0.212434 0.200448 0.253187
404 4 0.20632 0.16828 0.323894
403 2 0.198211 0.171178 0.30042
405 4 0.190102 0.174075 0.276946
546 4 0.180197 0.170944 0.260682
722 4 0.196481 0.182486 0.26012
378 4 0.289219 0.239261 0.319656
376 2 0.293456 0.219267 0.33406
717 4 0.420425 0.249862 0.258047
331 2 0.461002 0.200712 0.307969
332 4 0.459035 0.212496 0.286004
418 2 0.437259 0.22057 0.256943
419 4 0.456613 0.208176 0.266792
760 2 0.49096 0.209201 0.25847
762 4 0.47367 0.203883 0.275731
364 2 0.00137837 0.316738 0.283299
396 4 0.030284 0.28852 0.268047
443 4 0.0130826 0.278459 0.269292
365 4 0.0147986 0.296739 0.276583
442 2 0.015231 0.254101 0.274515
510 4 0.238479 0.302891 0.300328
508 2 0.219307 0.315812 0.30985
400 2 0.228162 0.279692 0.265657
402 4 0.235938 0.288813 0.287601
509 4 0.200136 0.328733 0.319372
345 4 0.253867 0.291937 0.294804
343 2 0.266494 0.273537 0.306082
344 4 0.279121 0.255137 0.31736
496 2 0.278835 0.332945 0.257995
715 2 0.407425 0.26669 0.2712
716 4 0.394425 0.283517 0.284353
542 4 0.394662 0.283865 0.30461
541 2 0.389153 0.307048 0.312184
543 4 0.383643 0.330232 0.319758
547 2 0.0246795 0.395367 0.305465
548 4 0.00681377 0.378326 0.309416
549 4 0.0425452 0.412408 0.301515
777 4 0.0574358 0.405169 0.313127
2617 2 0.999039 0.412611 0.255654
603 4 0.101925 0.348937 0.253616
734 4 0.111687 0.341318 0.268192
733 2 0.115354 0.345905 0.292496
735 4 0.119022 0.350491 0.3168
677 4 0.133497 0.339751 0.325453
676 2 0.158173 0.335792 0.326208
678 4 0.18285 0.331833 0.326964
435 4 0.192858 0.346761 0.319093
498 4 0.264724 0.344041 0.2754
728 4 0.372116 0.412952 0.264113
615 4 0.387301 0.349503 0.319458
2537 4 0.497821 0.376733 0.260751
2860 2 0.468847 0.40431 0.248152
2538 4 0.493393 0.37112 0.310245
2536 2 0.495607 0.373926 0.285498
2862 4 0.488163 0.388449 0.248875
753 4 0.486691 0.353332 0.317842
751 2 0.492818 0.340413 0.338353
775 2 0.0726324 0.424875 0.315556
776 4 0.0878289 0.444582 0.317984
414 4 0.09715 0.457005 0.306967
412 2 0.110046 0.477223 0.314043
413 4 0.122941 0.497442 0.32112
438 4 0.337748 0.476016 0.332176
436 2 0.344502 0.454884 0.320642
727 2 0.368072 0.415188 0.288686
729 4 0.364029 0.417424 0.313259
437 4 0.351255 0.433753 0.309108
2861 4 0.449532 0.420171 0.247428
1800 4 0.00516208 0.000505543 0.345652
1771 2 0.0197109 0.00425781 0.383344
1772 4 0.0288478 0.015139 0.403918
732 4 0.0555486 0.0520978 0.366168
2238 4 0.02671 0.0345242 0.396776
369 4 0.064361 0.052471 0.384421
730 2 0.0483829 0.0727461 0.354024
367 2 0.0802358 0.0373501 0.396443
368 4 0.0961107 0.0222292 0.408465
699 4 0.351866 0.999412 0.339291
698 4 0.379773 0.0409052 0.338791
697 2 0.36582 0.0201585 0.339041
256 2 0.394353 0.0672884 0.353374
258 4 0.398835 0.0784502 0.375295
426 4 0.382038 0.0756532 0.386881
424 2 0.378239 0.0625683 0.407846
479 4 0.502607 0.0390564 0.3303
478 2 0.4815 0.0511018 0.33618
480 4 0.460393 0.0631472 0.342061
731 4 0.0412171 0.0933943 0.341879
318 4 0.998845 0.134828 0.348144
316 2 0.0160253 0.119681 0.338115
1701 4 0.154736 0.0963201 0.370434
604 2 0.13933 0.10229 0.403854
605 4 0.160084 0.102556 0.389912
247 2 0.216156 0.128898 0.331918
1699 2 0.17473 0.0964861 0.355421
1700 4 0.194723 0.0966522 0.340407
248 4 0.21363 0.104602 0.337254
600 4 0.233904 0.142484 0.391578
683 4 0.246255 0.131477 0.404678
598 2 0.229116 0.165375 0.400425
682 2 0.268997 0.123899 0.411788
319 2 0.324286 0.13566 0.400059
320 4 0.309488 0.119198 0.411687
684 4 0.291739 0.11632 0.418899
708 4 0.341148 0.167509 0.375309
321 4 0.339083 0.152122 0.38843
516 4 0.440172 0.138125 0.367185
575 4 0.456304 0.128 0.37331
574 2 0.450074 0.120753 0.396415
514 2 0.446127 0.159585 0.35582
389 4 0.0971074 0.190836 0.338847
377 4 0.297693 0.199273 0.348464
707 4 0.307106 0.183245 0.34223
474 4 0.264907 0.242745 0.412016
706 2 0.324127 0.175377 0.35877
488 4 0.260507 0.223405 0.415683
333 4 0.46297 0.188928 0.329934
515 4 0.452082 0.181045 0.344455
453 4 0.469643 0.188229 0.347925
451 2 0.491418 0.194934 0.358224
347 4 0.0704169 0.313936 0.394546
618 4 0.0818124 0.326064 0.381487
275 4 0.143049 0.322362 0.362009
617 4 0.128189 0.31136 0.369923
616 2 0.105001 0.318712 0.375705
274 2 0.158341 0.311129 0.378293
473 4 0.236089 0.273283 0.384857
374 4 0.219446 0.263156 0.385039
276 4 0.173633 0.299897 0.394577
373 2 0.197067 0.271552 0.392378
375 4 0.174687 0.279947 0.399717
472 2 0.250498 0.258014 0.398436
561 4 0.496654 0.326622 0.378904
752 4 0.498944 0.327493 0.358865
408 4 0.0146248 0.341848 0.365165
346 2 0.0605416 0.333246 0.406988
406 2 0.00899236 0.352098 0.343065
348 4 0.0506663 0.352555 0.41943
433 2 0.203366 0.363149 0.334784
434 4 0.213873 0.379537 0.350475
502 2 0.289699 0.399451 0.380653
503 4 0.308532 0.41472 0.386767
336 4 0.326587 0.40629 0.38807
504 4 0.270866 0.384182 0.37454
334 2 0.3513 0.403013 0.386135
335 4 0.376012 0.399735 0.384199
240 4 0.381958 0.412351 0.398228
613 2 0.402121 0.355021 0.338825
614 4 0.416942 0.360539 0.358192
4 3 0.323556 0.484272 0.418149
668 4 0.31287 0.471094 0.40916
669 4 0.323782 0.42455 0.394486
667 2 0.318326 0.447822 0.401823
3990 4 0.467874 0.49833 0.342758
1127 4 0.0113751 0.0630793 0.457178
2237 4 0.0201174 0.0531224 0.442726
2236 2 0.0234137 0.0438233 0.419751
720 4 0.0308834 0.0643069 0.454619
718 2 0.0393297 0.0841157 0.467326
1782 4 0.0811595 0.0158821 0.420978
1780 2 0.0874169 0.0018911 0.440733
724 2 0.305707 0.0384422 0.4768
963 4 0.285125 0.00632362 0.491312
726 4 0.309891 0.0613304 0.467645
725 4 0.301523 0.0155541 0.485954
1182 4 0.296217 0.0690357 0.454907
961 2 0.26082 0.00101487 0.493816
1579 2 0.349314 0.0152201 0.416142
1580 4 0.362671 0.0359594 0.420225
425 4 0.37444 0.0494835 0.428811
1428 4 0.467585 0.00475366 0.413748
2880 4 0.464948 0.0834163 0.498057
642 4 0.453899 0.0803898 0.479422
719 4 0.0477759 0.103924 0.480032
606 4 0.118576 0.102024 0.417796
1033 2 0.125963 0.142047 0.474539
1035 4 0.139767 0.156725 0.459735
1034 4 0.112159 0.127368 0.489343
261 4 0.148106 0.163309 0.442302
939 4 0.105447 0.145807 0.496705
1180 2 0.301778 0.0895808 0.441787
1181 4 0.307339 0.110126 0.428666
640 2 0.449502 0.0940071 0.458918
3157 2 0.481632 0.163482 0.490662
641 4 0.445104 0.107624 0.438415
576 4 0.443843 0.113507 0.41952
306 4 0.442041 0.126336 0.433255
304 2 0.448935 0.14736 0.444902
3158 4 0.463539 0.169261 0.474401
470 4 0.0175238 0.17618 0.49503
259 2 0.161092 0.18348 0.449349
694 2 0.161263 0.229186 0.481469
696 4 0.143016 0.239071 0.495416
1258 2 0.106912 0.217509 0.495544
1260 4 0.123078 0.235183 0.488371
599 4 0.224329 0.188266 0.409272
260 4 0.174078 0.203652 0.456395
695 4 0.179509 0.2193 0.467521
687 4 0.224301 0.207296 0.417136
686 4 0.191915 0.210636 0.455093
685 2 0.208108 0.208966 0.436115
487 2 0.269955 0.20101 0.421545
489 4 0.279404 0.178615 0.427406
411 4 0.266091 0.211442 0.458891
409 2 0.26666 0.212969 0.483842
267 4 0.352536 0.252859 0.418165
467 4 0.356555 0.188515 0.420509
466 2 0.354856 0.212921 0.425671
468 4 0.353157 0.237327 0.430832
305 4 0.455829 0.168384 0.456548
585 4 0.465571 0.245179 0.460145
813 4 0.229965 0.306791 0.478451
265 2 0.35627 0.273815 0.431282
266 4 0.360005 0.294771 0.444399
584 4 0.48606 0.279114 0.49063
583 2 0.475815 0.262146 0.475388
2456 4 0.484469 0.298473 0.483422
2812 2 0.0128847 0.354342 0.436523
2813 4 0.0359928 0.361126 0.429801
326 4 0.0535705 0.36807 0.42986
325 2 0.0760872 0.376864 0.436253
10 3 0.133999 0.355513 0.466049
327 4 0.0986039 0.385657 0.442645
7 3 0.108128 0.381347 0.458552
6 1 0.119186 0.370123 0.475311
711 4 0.148022 0.395368 0.491096
8 3 0.130459 0.385537 0.488492
9 3 0.103658 0.358593 0.488131
774 4 0.21079 0.386648 0.476211
635 4 0.207158 0.401918 0.46376
709 2 0.170468 0.392955 0.480347
772 2 0.228324 0.387491 0.494016
710 4 0.192913 0.390542 0.469597
588 4 0.395177 0.409181 0.451821
586 2 0.395566 0.414273 0.476297
1383 4 0.0786506 0.468354 0.436534
1381 2 0.076285 0.492214 0.429445
680 4 0.0728959 0.452054 0.44721
679 2 0.0804003 0.439649 0.467581
681 4 0.0879048 0.427245 0.487952
568 2 0.161194 0.448855 0.503295
636 4 0.227949 0.440527 0.439723
570 4 0.16903 0.472377 0.500058
634 2 0.217554 0.421222 0.451741
880 2 0.323571 0.49656 0.490058
5 3 0.290169 0.49459 0.432167
239 4 0.407127 0.420372 0.440688
238 2 0.394542 0.416361 0.419458
3077 4 0.00550244 0.0277209 0.540455
1183 2 0.0126805 0.00358015 0.566702
1150 2 0.160306 0.0735499 0.547896
1151 4 0.167819 0.0842907 0.569188
342 4 0.152075 0.0520694 0.510474
1152 4 0.152793 0.0628092 0.526603
340 2 0.158046 0.0293893 0.501807
341 4 0.164018 0.00670916 0.493139
430 2 0.318557 0.00012714 0.514196
843 4 0.329594 0.0170088 0.543259
431 4 0.334688 0.00211809 0.533197
842 4 0.361674 0.0393966 0.574409
841 2 0.345634 0.0282027 0.558834
1217 4 0.378958 0.0342987 0.583723
1216 2 0.398409 0.0193549 0.578872
1218 4 0.417859 0.0044111 0.57402
2879 4 0.483244 0.0408717 0.516923
3009 4 0.503532 0.0749135 0.568685
2878 2 0.474096 0.062144 0.50749
879 4 0.0727758 0.14576 0.550683
877 2 0.0484017 0.151233 0.549621
1199 4 0.00975199 0.144267 0.542423
878 4 0.0240275 0.156706 0.54856
938 4 0.0902758 0.140565 0.544066
937 2 0.0978613 0.143186 0.520386
1272 4 0.0885084 0.157846 0.552664
3159 4 0.499724 0.157702 0.506924
1259 4 0.0907457 0.199834 0.502716
1270 2 0.0974307 0.167957 0.573719
898 2 0.288291 0.199868 0.539626
899 4 0.301804 0.200593 0.560651
900 4 0.274779 0.199144 0.518601
410 4 0.26723 0.214497 0.508792
791 4 0.31219 0.211775 0.572061
790 2 0.324055 0.233774 0.572723
811 2 0.241013 0.313025 0.499998
812 4 0.252061 0.319259 0.521544
650 4 0.254554 0.315234 0.540501
649 2 0.262359 0.311863 0.564014
804 4 0.260068 0.33193 0.534144
871 2 0.364194 0.268101 0.545591
872 4 0.352933 0.262504 0.567202
792 4 0.335921 0.255773 0.573385
1238 4 0.336908 0.274176 0.568425
873 4 0.375454 0.273698 0.523979
2455 2 0.487073 0.314061 0.502797
2457 4 0.489677 0.32965 0.522172
935 4 0.990752 0.332555 0.521665
1136 4 0.108919 0.385937 0.578991
1135 2 0.130304 0.384177 0.566154
1137 4 0.151688 0.382417 0.553316
897 4 0.162664 0.392168 0.567427
384 4 0.14051 0.411115 0.502191
382 2 0.116465 0.41759 0.504448
773 4 0.245858 0.388333 0.511822
1190 4 0.248565 0.399206 0.528321
1189 2 0.237112 0.404334 0.549948
1191 4 0.225659 0.409462 0.571574
896 4 0.207302 0.414005 0.573028
895 2 0.184983 0.403086 0.570228
802 2 0.257588 0.356583 0.530792
803 4 0.255107 0.381237 0.527441
930 4 0.263413 0.395705 0.516356
928 2 0.286464 0.40448 0.512254
929 4 0.309515 0.413254 0.508151
926 4 0.398302 0.403228 0.511211
587 4 0.395955 0.419366 0.500774
925 2 0.414311 0.387052 0.521566
927 4 0.43032 0.370876 0.531921
1161 4 0.157209 0.494508 0.558845
383 4 0.09242 0.424064 0.506706
569 4 0.153357 0.425333 0.506531
1172 4 0.219296 0.426765 0.579058
1159 2 0.172642 0.488299 0.577513
891 4 0.307355 0.49268 0.528748
1952 4 0.312374 0.47423 0.525874
881 4 0.317268 0.488444 0.512852
1951 2 0.319876 0.450733 0.521778
1953 4 0.327378 0.427236 0.517682
1000 2 0.399623 0.49337 0.558905
1001 4 0.417529 0.477699 0.551225
661 2 0.411215 0.441716 0.529173
663 4 0.401913 0.420688 0.519351
662 4 0.420518 0.462744 0.538995
1911 4 0.430538 0.463541 0.555882
1909 2 0.43357 0.453703 0.578668
1332 4 0.434802 0.476078 0.542006
1330 2 0.453599 0.491037 0.535073
2374 2 0.146208 0.00471203 0.601455
1058 4 0.159883 0.041404 0.620657
2375 4 0.157421 0.0259175 0.60851
1057 2 0.16663 0.0575915 0.602835
1059 4 0.173377 0.0737789 0.585013
950 4 0.251024 0.027901 0.589665
949 2 0.252288 0.035275 0.613523
951 4 0.253552 0.042649 0.637381
1031 4 0.262629 0.058547 0.644954
1030 2 0.266454 0.0828896 0.649195
43 3 0.433726 0.0834142 0.663145
810 4 0.47642 0.0802471 0.667964
1083 4 0.0361996 0.135477 0.65131
3179 4 0.0342049 0.157273 0.648194
1155 4 0.165245 0.0905683 0.587781
1284 4 0.143673 0.098486 0.650262
1153 2 0.171055 0.114801 0.585735
1154 4 0.176865 0.139034 0.58369
1221 4 0.169056 0.146527 0.600894
1219 2 0.18053 0.161437 0.617363
1032 4 0.270279 0.107232 0.653436
808 2 0.491429 0.0784328 0.648049
3178 2 0.0147002 0.172777 0.646098
1245 4 0.0872518 0.215063 0.6451
1271 4 0.106353 0.178069 0.594775
1243 2 0.0954462 0.205142 0.623662
1244 4 0.103641 0.19522 0.602224
1209 4 0.0924536 0.197888 0.654538
1210 2 0.222022 0.175621 0.661406
1212 4 0.208048 0.182694 0.641916
1220 4 0.192005 0.176347 0.633832
797 4 0.190006 0.236814 0.609444
796 2 0.196373 0.213928 0.617246
798 4 0.202741 0.191042 0.625048
857 4 0.298139 0.200114 0.579416
856 2 0.28478 0.193926 0.599625
858 4 0.27142 0.187738 0.619835
905 4 0.450397 0.250785 0.614752
3121 2 0.474517 0.228054 0.636857
3122 4 0.482885 0.217036 0.657684
3357 4 0.495849 0.201767 0.655893
983 4 0.0337111 0.284943 0.604954
982 2 0.0415876 0.306256 0.615391
984 4 0.0494641 0.327568 0.625828
3263 4 0.0529776 0.329592 0.644958
651 4 0.270164 0.308492 0.587528
805 2 0.297915 0.311854 0.627655
806 4 0.273239 0.311674 0.631688
807 4 0.32259 0.312033 0.623621
1239 4 0.320694 0.297359 0.60966
1237 2 0.328801 0.285768 0.589043
3123 4 0.46615 0.239072 0.61603
906 4 0.45023 0.299764 0.604662
904 2 0.450313 0.275274 0.609707
952 2 0.488577 0.318717 0.595622
953 4 0.468613 0.305703 0.603187
1041 4 0.0621623 0.34095 0.632112
1039 2 0.0570562 0.364607 0.625834
1040 4 0.0519501 0.388265 0.619556
993 4 0.0397841 0.397662 0.606272
1028 4 0.183118 0.412592 0.663207
1206 4 0.483494 0.41043 0.60811
3309 4 0.496409 0.396247 0.605729
3307 2 0.499767 0.373508 0.595889
991 2 0.040484 0.422195 0.601497
992 4 0.0411839 0.446729 0.596723
1029 4 0.196974 0.421271 0.615948
1027 2 0.190046 0.416931 0.639578
1171 2 0.211907 0.448969 0.587865
1160 4 0.188074 0.48209 0.59618
1173 4 0.204518 0.471173 0.596673
1188 4 0.176785 0.470454 0.658891
1187 4 0.1953 0.477295 0.612944
1186 2 0.186043 0.473875 0.635917
1268 4 0.410595 0.483261 0.643464
2168 4 0.409349 0.487232 0.664238
1267 2 0.417041 0.463458 0.629627
1204 2 0.461901 0.42199 0.613141
1910 4 0.436602 0.443865 0.601454
1269 4 0.423486 0.443655 0.615789
1205 4 0.440308 0.433549 0.618172
1077 4 0.0501023 0.0859776 0.749919
1296 4 0.011081 0.0393737 0.7386
1226 4 0.162395 0.0785022 0.739947
1148 4 0.179635 0.0795463 0.747986
1003 2 0.328625 0.0318356 0.684925
1005 4 0.326619 0.0498021 0.667652
1004 4 0.33063 0.013869 0.702198
1049 4 0.341709 0.99773 0.704123
45 3 0.441504 0.0493081 0.677072
1162 2 0.494737 0.0736315 0.704331
42 3 0.431582 0.0769451 0.700108
41 1 0.44306 0.0717085 0.680873
1163 4 0.482805 0.0851262 0.685604
44 3 0.465303 0.0777617 0.683527
1081 2 0.0417949 0.119622 0.669816
1075 2 0.0433449 0.0918611 0.726576
1076 4 0.0365875 0.0977446 0.703233
1082 4 0.0473902 0.103766 0.688322
851 4 0.078691 0.166829 0.712287
1282 2 0.13979 0.109201 0.672517
909 4 0.0984743 0.165234 0.711558
907 2 0.109405 0.142901 0.708922
908 4 0.120335 0.120568 0.706286
1283 4 0.135907 0.119916 0.694773
1227 4 0.135945 0.109419 0.710873
1225 2 0.14917 0.0939604 0.72541
1211 4 0.235996 0.168547 0.680896
1147 2 0.200611 0.0922021 0.752991
888 4 0.254715 0.161089 0.678358
886 2 0.274345 0.158544 0.693635
829 2 0.328989 0.149181 0.715613
830 4 0.306582 0.156056 0.724322
887 4 0.293974 0.156 0.708912
978 4 0.288006 0.161312 0.726902
831 4 0.351395 0.142306 0.706903
1142 4 0.366756 0.139696 0.719427
1141 2 0.382969 0.15777 0.713454
1025 4 0.459837 0.160027 0.693773
3424 2 0.4692 0.120176 0.681558
3426 4 0.469222 0.0957206 0.67635
3425 4 0.469179 0.144631 0.686766
3269 4 0.475829 0.155177 0.702283
3268 2 0.48594 0.16389 0.723426
850 2 0.0546396 0.1676 0.719077
852 4 0.0305882 0.168371 0.725868
780 4 0.0803486 0.249037 0.700432
1214 4 0.0253031 0.170558 0.746126
1213 2 0.00627804 0.185661 0.740197
1208 4 0.0892608 0.178145 0.700372
1207 2 0.0908572 0.188016 0.677455
1107 4 0.0897981 0.180671 0.719837
1105 2 0.105187 0.196508 0.731565
1106 4 0.120577 0.212345 0.743293
1130 4 0.140433 0.210834 0.736227
976 2 0.286148 0.180443 0.742893
916 2 0.29128 0.237817 0.744816
947 4 0.312535 0.254357 0.715073
1193 4 0.389409 0.232201 0.670195
1194 4 0.400356 0.193724 0.700201
1192 2 0.394883 0.212962 0.685198
1143 4 0.399181 0.175844 0.70748
1262 4 0.405581 0.190177 0.718947
1026 4 0.41696 0.18349 0.704343
1261 2 0.415158 0.198824 0.740364
1024 2 0.438399 0.171758 0.699058
3270 4 0.496051 0.172604 0.744569
3262 2 0.0524749 0.319601 0.667873
3264 4 0.0519722 0.309611 0.690788
779 4 0.0565726 0.293027 0.699887
778 2 0.0684606 0.271032 0.70016
893 4 0.0470834 0.307378 0.70973
892 2 0.0410893 0.32346 0.727913
1065 4 0.234272 0.326408 0.698757
1063 2 0.251604 0.308451 0.697235
946 2 0.300232 0.275019 0.708224
948 4 0.287929 0.29568 0.701374
1064 4 0.268936 0.290494 0.695713
917 4 0.288309 0.258988 0.731848
1008 4 0.438083 0.268551 0.721822
1006 2 0.442867 0.281207 0.742849
894 4 0.0350952 0.339543 0.746095
3276 4 0.0243865 0.355099 0.750154
814 2 0.0609732 0.371755 0.745337
815 4 0.078144 0.388215 0.737629
3274 2 0.000487924 0.362444 0.749859
1067 4 0.146126 0.40705 0.718852
940 2 0.112925 0.390426 0.738508
941 4 0.133829 0.391706 0.72485
1066 2 0.163635 0.410938 0.701431
1068 4 0.181143 0.414827 0.684009
1019 4 0.405145 0.411167 0.741033
1176 4 0.143245 0.452999 0.697899
1174 2 0.16092 0.467381 0.687607
1175 4 0.178595 0.481763 0.677315
1139 4 0.327463 0.473295 0.695809
1140 4 0.346259 0.463686 0.741142
1230 4 0.392853 0.42646 0.74179
1100 4 0.401317 0.422136 0.724885
1138 2 0.336861 0.468491 0.718475
1228 2 0.372985 0.43997 0.74871
1101 4 0.43953 0.454391 0.725257
1099 2 0.420424 0.438263 0.725071
3330 4 0.453525 0.467829 0.720882
1251 4 0.447834 0.465246 0.738585
3328 2 0.47757 0.463812 0.715325
1294 2 0.999096 0.0219768 0.751975
1203 4 0.166758 0.0663277 0.754217
1201 2 0.174445 0.0426101 0.756106
2256 4 0.194097 0.00472124 0.75473
1202 4 0.182132 0.0188926 0.757995
975 4 0.344323 0.041268 0.832004
2322 4 0.474076 0.0413077 0.774925
2320 2 0.468962 0.0169588 0.777406
846 4 0.473076 0.0594631 0.766185
844 2 0.480748 0.0808904 0.776538
864 4 0.066966 0.0949023 0.755363
862 2 0.0613421 0.106318 0.776886
863 4 0.0557183 0.117734 0.798408
833 4 0.0508685 0.127041 0.81538
1125 4 0.0573213 0.136732 0.799648
1123 2 0.0723878 0.15358 0.810341
34 3 0.138556 0.155886 0.835089
1149 4 0.221586 0.104858 0.757995
1257 4 0.237746 0.113281 0.765244
1255 2 0.246267 0.12127 0.787351
921 4 0.216698 0.13524 0.812038
919 2 0.207069 0.158106 0.815133
1256 4 0.254788 0.129258 0.809459
840 4 0.27045 0.133387 0.820295
1112 4 0.375778 0.100422 0.82673
845 4 0.48842 0.102318 0.786891
1129 2 0.158539 0.223664 0.747748
1073 4 0.0936629 0.187899 0.825578
1124 4 0.0874543 0.170428 0.821033
35 3 0.105166 0.172167 0.828948
1131 4 0.176644 0.236495 0.759269
1277 4 0.179229 0.234449 0.779029
1276 2 0.187119 0.216613 0.794676
1278 4 0.19501 0.198778 0.810323
1241 4 0.191532 0.1952 0.829002
920 4 0.19744 0.180973 0.818228
977 4 0.284289 0.199575 0.758884
918 4 0.29425 0.216647 0.757784
1298 4 0.294652 0.206554 0.774446
1297 2 0.309092 0.207021 0.794853
1299 4 0.323532 0.207488 0.815259
1086 4 0.341492 0.204304 0.820995
50 3 0.392602 0.216553 0.784486
46 1 0.413328 0.219614 0.793413
49 3 0.414423 0.240235 0.803996
48 3 0.418001 0.202676 0.808568
47 3 0.428989 0.219056 0.776574
1263 4 0.424735 0.207472 0.761781
1146 4 0.485878 0.185071 0.756937
1145 4 0.442315 0.206809 0.768358
1144 2 0.464097 0.19594 0.762647
1022 4 0.423111 0.187556 0.820132
3188 4 0.0171546 0.273122 0.772751
3187 2 0.0206101 0.277631 0.797101
3189 4 0.0240656 0.282139 0.821451
1179 4 0.00522474 0.259306 0.761595
822 4 0.176567 0.25163 0.770977
821 4 0.175951 0.300056 0.783438
820 2 0.176259 0.275843 0.777208
1098 4 0.222314 0.315428 0.825535
1235 4 0.232305 0.32492 0.80872
1043 4 0.420328 0.258334 0.811381
1042 2 0.433362 0.274285 0.797209
1044 4 0.446397 0.290235 0.783037
1007 4 0.447651 0.293862 0.763876
1165 2 0.483468 0.280538 0.780966