ITEM: TIMESTEP
780000
ITEM: NUMBER OF ATOMS
4590
ITEM: BOX BOUNDS pp pp pp
-9.9985700000000008e+00 9.9985700000000008e+00
-9.9985700000000008e+00 9.9985700000000008e+00
-9.9985700000000008e+00 9.9985700000000008e+00
ITEM: ATOMS id type xs ys zs
463 2 0.0475066 0.0751521 0.0258657
464 4 0.0311034 0.0564382 0.0234362
491 4 0.270698 0.0135054 0.038848
558 4 0.355033 0.054916 0.0301617
556 2 0.35474 0.0573976 0.0550401
557 4 0.354448 0.0598792 0.0799185
745 2 0.470925 0.0517483 0.00999906
746 4 0.478814 0.0454039 0.0328614
2469 4 0.495802 0.0328939 0.0390665
465 4 0.0639097 0.0938661 0.0282953
701 4 0.073468 0.0829251 0.04231
589 2 0.0163262 0.145592 0.066032
591 4 0.995239 0.152437 0.0544708
421 2 0.0825864 0.140156 0.0105831
422 4 0.0819955 0.164968 0.00755413
700 2 0.0903143 0.0974863 0.0536833
702 4 0.107161 0.112048 0.0650565
566 4 0.125928 0.112612 0.0553649
565 2 0.149028 0.105307 0.0491826
423 4 0.0831773 0.115344 0.013612
567 4 0.172127 0.0980025 0.0430003
360 4 0.269915 0.150422 0.0183889
358 2 0.27645 0.128383 0.00855357
359 4 0.282985 0.106344 0.998718
770 4 0.437924 0.143707 0.0706427
769 2 0.456023 0.158176 0.0800367
553 2 0.0473274 0.195356 0.0217118
554 4 0.0315857 0.178564 0.0314781
836 4 0.0775177 0.19977 0.00309268
555 4 0.0630692 0.212149 0.0119456
835 2 0.096162 0.215662 0.00809458
837 4 0.114806 0.231553 0.0130965
666 4 0.333807 0.223112 0.0343101
664 2 0.33266 0.204582 0.0175623
573 4 0.32415 0.239892 0.0379912
461 4 0.331811 0.229873 0.0525553
460 2 0.345864 0.221993 0.0716752
1069 2 0.41296 0.246907 0.0163702
1013 4 0.497472 0.170494 0.0333057
1014 4 0.470831 0.212296 0.0267054
1012 2 0.484151 0.191395 0.0300056
1071 4 0.423686 0.246566 0.0389539
292 2 0.125483 0.300131 0.0484236
293 4 0.142954 0.283923 0.0559865
294 4 0.108011 0.31634 0.0408607
507 4 0.156939 0.297831 0.0633737
505 2 0.179914 0.297059 0.0732087
355 2 0.246308 0.287839 0.0190761
357 4 0.22799 0.301157 0.00848144
481 2 0.233994 0.316186 0.0781311
506 4 0.202889 0.296288 0.0830438
571 2 0.303925 0.253233 0.0318153
356 4 0.264627 0.274521 0.0296708
572 4 0.2837 0.266575 0.0256394
482 4 0.258935 0.317933 0.0779023
324 4 0.413028 0.25373 0.0540729
957 4 0.384638 0.326493 0.00415596
322 2 0.426782 0.267856 0.0694496
670 2 0.453751 0.315663 0.063063
519 4 0.46773 0.261626 0.0695705
672 4 0.440185 0.296177 0.0709043
287 4 0.133215 0.346007 0.00422841
455 4 0.127034 0.385716 0.0538893
454 2 0.110212 0.377324 0.0703755
609 4 0.263432 0.338022 0.0803599
252 4 0.298589 0.388669 0.0484067
608 4 0.292549 0.371306 0.0570113
607 2 0.277991 0.354664 0.0686856
741 4 0.355942 0.340205 0.0805706
671 4 0.467316 0.335148 0.0552218
281 4 0.466558 0.355497 0.0521726
280 2 0.478072 0.37133 0.0366174
282 4 0.489585 0.387162 0.0210622
551 4 0.0791396 0.42682 0.0597584
550 2 0.0844773 0.45051 0.0657166
552 4 0.089815 0.474199 0.0716749
1787 4 0.0984555 0.491676 0.0750495
625 2 0.206322 0.444784 0.080633
245 4 0.246641 0.462028 0.0785719
626 4 0.181808 0.439891 0.0811899
627 4 0.230836 0.449677 0.0800762
250 2 0.297731 0.413354 0.0445247
244 2 0.255323 0.479549 0.0629887
251 4 0.296873 0.43804 0.0406426
271 2 0.270892 0.484473 0.006091
272 4 0.264215 0.495182 0.027676
246 4 0.264005 0.497069 0.0474055
525 4 0.365649 0.469692 0.0491647
523 2 0.361003 0.474133 0.0733281
227 4 0.469084 0.469968 0.0656921
16 1 0.0378139 0.0716272 0.15838
17 3 0.0603482 0.0749432 0.161599
18 3 0.0345177 0.0503229 0.149797
1804 2 0.085362 0.999672 0.144525
2576 4 0.00937122 0.0261405 0.0832228
1667 4 0.0978585 0.0125966 0.104296
1805 4 0.0951413 0.00900644 0.123492
652 2 0.304478 0.00884668 0.149276
653 4 0.28898 0.0281825 0.152611
296 4 0.36535 0.0619015 0.0965381
295 2 0.36602 0.0387516 0.105962
297 4 0.36669 0.0156018 0.115387
485 4 0.374557 0.00209386 0.103894
20 3 0.0299555 0.0872034 0.143742
590 4 0.0374136 0.138748 0.0775932
237 4 0.144714 0.146987 0.164411
235 2 0.161178 0.129938 0.156446
236 4 0.177643 0.112889 0.148481
693 4 0.191428 0.112181 0.161443
283 2 0.270625 0.158991 0.13852
284 4 0.288172 0.141521 0.142003
312 4 0.434752 0.123234 0.155107
337 2 0.0633452 0.230789 0.135867
339 4 0.0413497 0.233032 0.12419
363 4 0.0774434 0.22495 0.16559
338 4 0.0853406 0.228546 0.147544
476 4 0.137145 0.201147 0.10972
475 2 0.118222 0.209186 0.123949
477 4 0.0992993 0.217224 0.138179
737 4 0.156408 0.193596 0.106789
738 4 0.196337 0.209125 0.132581
736 2 0.176373 0.201361 0.119685
285 4 0.253079 0.17646 0.135037
462 4 0.359918 0.214112 0.090795
254 4 0.382426 0.203901 0.138036
255 4 0.348869 0.200166 0.101149
253 2 0.365648 0.202033 0.119593
630 4 0.400375 0.201346 0.128203
765 4 0.344452 0.212851 0.167267
771 4 0.474123 0.172645 0.0894307
629 4 0.444894 0.218021 0.143718
628 2 0.422635 0.209684 0.135961
2895 4 0.488744 0.228489 0.111967
518 4 0.487223 0.248554 0.113727
483 4 0.209052 0.314439 0.0783599
354 4 0.318375 0.250411 0.112904
352 2 0.310807 0.268293 0.128657
353 4 0.303239 0.286174 0.14441
754 2 0.299338 0.329737 0.145438
755 4 0.298535 0.304753 0.144847
278 4 0.285001 0.289909 0.147641
323 4 0.440536 0.281983 0.0848263
517 2 0.477476 0.25509 0.091649
620 4 0.0130724 0.345172 0.10387
647 4 0.0313438 0.350236 0.109557
646 2 0.0533299 0.358472 0.118157
648 4 0.075316 0.366708 0.126757
456 4 0.0933906 0.368933 0.0868618
537 4 0.220829 0.389212 0.162956
535 2 0.205363 0.385972 0.143579
536 4 0.189898 0.382732 0.124201
611 4 0.237483 0.378351 0.157388
756 4 0.300141 0.354721 0.146029
612 4 0.285436 0.365208 0.152049
610 2 0.261459 0.371779 0.154718
387 4 0.333075 0.389069 0.156718
739 2 0.366795 0.343915 0.102788
740 4 0.377647 0.347626 0.125006
15 3 0.385791 0.359148 0.137998
385 2 0.349803 0.374354 0.145368
386 4 0.366531 0.359639 0.134018
11 1 0.405652 0.370091 0.135889
14 3 0.402072 0.393015 0.135632
495 4 0.390918 0.406549 0.127573
12 3 0.415649 0.363903 0.116117
13 3 0.419699 0.364464 0.153479
1467 4 0.014482 0.460822 0.120426
1465 2 0.0322064 0.478316 0.122659
1466 4 0.0499309 0.49581 0.124892
242 4 0.115578 0.495106 0.0836925
524 4 0.356356 0.478574 0.0974914
658 2 0.406831 0.472949 0.155662
493 2 0.3919 0.431118 0.123036
660 4 0.392978 0.466655 0.135821
494 4 0.392883 0.455687 0.118498
226 2 0.479668 0.459354 0.0857048
228 4 0.490251 0.44874 0.105718
2480 4 0.00112505 0.0124831 0.181535
1404 4 0.0691569 0.00464182 0.234088
19 3 0.026936 0.073724 0.178768
673 2 0.129342 0.0780383 0.216529
674 4 0.138587 0.0718404 0.238919
675 4 0.120097 0.0842363 0.19414
1506 4 0.234276 0.0208995 0.170262
1504 2 0.212353 0.0325695 0.173162
450 4 0.172241 0.0542269 0.174348
1505 4 0.190431 0.0442395 0.176063
448 2 0.173622 0.0788347 0.170137
689 4 0.189402 0.0243292 0.235961
28 3 0.319095 0.0764126 0.246542
758 4 0.40427 0.0697034 0.179104
21 1 0.371573 0.0219006 0.234473
25 3 0.391578 0.0321925 0.230933
759 4 0.387449 0.0358537 0.211845
757 2 0.395859 0.0527785 0.195474
22 3 0.360398 0.0199721 0.214459
24 3 0.375022 0.000684554 0.243213
23 3 0.358671 0.0344865 0.249086
744 4 0.471909 0.0323198 0.240237
351 4 0.452342 0.0382242 0.242338
349 2 0.436491 0.0566887 0.236595
350 4 0.42064 0.0751532 0.230853
380 4 0.0222505 0.0902583 0.186604
512 4 0.0277123 0.157568 0.189337
379 2 0.0256433 0.11452 0.191608
381 4 0.0290361 0.138782 0.196612
579 4 0.0839903 0.0951134 0.173786
577 2 0.0884378 0.119599 0.171367
578 4 0.0928853 0.144085 0.168947
449 4 0.175003 0.103443 0.165927
691 2 0.212821 0.120246 0.171565
692 4 0.234214 0.128312 0.181688
723 4 0.19655 0.122982 0.213538
721 2 0.192643 0.143196 0.227726
722 4 0.188735 0.16341 0.241913
582 4 0.252224 0.123682 0.188244
580 2 0.273885 0.113782 0.195858
581 4 0.295546 0.103883 0.203473
30 3 0.308331 0.0950557 0.215652
26 1 0.320328 0.0964793 0.234957
29 3 0.312129 0.113741 0.248119
27 3 0.342346 0.100803 0.229894
310 2 0.437448 0.128647 0.179368
311 4 0.440145 0.13406 0.203629
511 2 0.044486 0.173219 0.19928
513 4 0.0612596 0.18887 0.209224
362 4 0.1085 0.236278 0.203112
361 2 0.0929718 0.230614 0.184351
372 4 0.123469 0.222674 0.198954
370 2 0.137543 0.219456 0.219368
371 4 0.151618 0.216239 0.239782
763 2 0.357851 0.230358 0.179065
764 4 0.37125 0.247864 0.190863
520 2 0.488256 0.206695 0.226024
521 4 0.468597 0.214468 0.239377
395 4 0.0498298 0.267049 0.228278
750 4 0.0658482 0.274977 0.220068
748 2 0.0757722 0.297222 0.214424
749 4 0.0856962 0.319467 0.208779
279 4 0.264493 0.28537 0.193023
277 2 0.274747 0.287639 0.170332
307 2 0.316805 0.262283 0.219476
308 4 0.312952 0.247793 0.239485
309 4 0.320658 0.276774 0.199467
623 4 0.385902 0.260181 0.197836
622 2 0.403115 0.278312 0.198236
624 4 0.420328 0.296443 0.198637
528 4 0.439384 0.299357 0.202346
527 4 0.484738 0.278435 0.199899
526 2 0.462061 0.288896 0.201123
263 4 0.068096 0.402094 0.24805
262 2 0.0571973 0.414467 0.229254
300 4 0.143862 0.35059 0.211593
298 2 0.141432 0.36459 0.232167
603 4 0.127923 0.394176 0.249181
290 4 0.234191 0.406402 0.223988
302 4 0.334841 0.397168 0.174515
301 2 0.313734 0.402413 0.18685
303 4 0.292627 0.407659 0.199185
645 4 0.460941 0.405911 0.177686
643 2 0.457702 0.383037 0.187251
644 4 0.454464 0.360164 0.196815
447 4 0.461668 0.354502 0.215328
445 2 0.484217 0.356061 0.226018
264 4 0.0462986 0.426841 0.210458
417 4 0.172936 0.480512 0.19358
1430 4 0.167068 0.500185 0.191099
415 2 0.175656 0.458739 0.205568
289 2 0.215851 0.423386 0.223384
291 4 0.197512 0.44037 0.222779
416 4 0.178376 0.436966 0.217557
766 2 0.26988 0.493335 0.171005
768 4 0.264767 0.476944 0.18918
659 4 0.420685 0.479243 0.175503
597 4 0.468604 0.422222 0.16733
595 2 0.470036 0.445361 0.176695
231 4 0.413713 0.487358 0.192859
596 4 0.471468 0.468501 0.18606
1568 4 0.478069 0.48626 0.19493
1798 2 0.0282427 0.00858149 0.312247
1799 4 0.0297485 0.0162461 0.288495
233 4 0.0282963 0.0278306 0.272335
1402 2 0.05653 0.0105263 0.254851
1403 4 0.043903 0.0164107 0.275614
232 2 0.00618904 0.0394595 0.271233
1699 2 0.206962 0.0609961 0.30341
1701 4 0.200665 0.041084 0.289661
1700 4 0.21326 0.0809082 0.317159
1516 2 0.381468 0.0116012 0.293617
697 2 0.386361 0.0639703 0.317663
699 4 0.386582 0.0518955 0.295769
1518 4 0.375483 0.0358753 0.293266
742 2 0.486624 0.0195349 0.255896
478 2 0.462264 0.0317923 0.314925
479 4 0.479613 0.0170286 0.304618
480 4 0.444916 0.046556 0.325232
398 4 0.0998475 0.134085 0.322424
248 4 0.224355 0.0898675 0.303277
249 4 0.217674 0.139424 0.303754
247 2 0.221014 0.114646 0.303516
404 4 0.217773 0.159394 0.30011
546 4 0.173393 0.168619 0.252641
403 2 0.204944 0.165726 0.279604
333 4 0.425905 0.136857 0.299872
331 2 0.444629 0.150329 0.290224
332 4 0.463353 0.163801 0.280577
544 2 0.149297 0.174929 0.254824
393 4 0.0849217 0.227062 0.267849
392 4 0.125427 0.19775 0.266935
391 2 0.105175 0.212406 0.267392
545 4 0.125202 0.181238 0.257007
405 4 0.192114 0.172058 0.259099
378 4 0.281585 0.219575 0.311008
377 4 0.327808 0.213642 0.329145
376 2 0.304696 0.216609 0.320077
418 2 0.409119 0.194158 0.326665
419 4 0.405245 0.171401 0.317059
760 2 0.493179 0.185291 0.283916
762 4 0.471387 0.177876 0.293679
394 2 0.040456 0.267877 0.251443
396 4 0.0310823 0.268705 0.274608
442 2 0.0180853 0.260138 0.314024
443 4 0.0190992 0.263068 0.289214
364 2 0.0146977 0.304811 0.283152
365 4 0.0161521 0.280046 0.280028
366 4 0.0132433 0.329576 0.286276
401 4 0.188229 0.261167 0.270802
345 4 0.224389 0.302008 0.30814
400 2 0.198763 0.275486 0.288386
402 4 0.209297 0.289805 0.305969
510 4 0.206211 0.306505 0.314263
508 2 0.202418 0.329671 0.322874
343 2 0.247359 0.305592 0.298937
344 4 0.27033 0.309175 0.289734
498 4 0.397559 0.272857 0.305687
496 2 0.377753 0.28787 0.302956
497 4 0.357946 0.302884 0.300224
543 4 0.404385 0.329379 0.306816
542 4 0.450173 0.309819 0.302175
541 2 0.427279 0.319599 0.304496
602 4 0.0819303 0.410871 0.259509
2493 4 0.999318 0.342424 0.293936
299 4 0.139002 0.378589 0.252741
601 2 0.104927 0.402524 0.254345
734 4 0.144203 0.395688 0.259526
733 2 0.163069 0.400366 0.275254
735 4 0.181935 0.405044 0.290982
677 4 0.184815 0.412331 0.309284
676 2 0.194429 0.392943 0.321809
509 4 0.198626 0.352836 0.331485
435 4 0.240594 0.367561 0.331354
727 2 0.327175 0.384473 0.287817
728 4 0.30933 0.37747 0.30387
438 4 0.282372 0.412346 0.266748
729 4 0.345019 0.391476 0.271764
615 4 0.405056 0.348016 0.312523
613 2 0.385335 0.363033 0.315799
614 4 0.365613 0.37805 0.319075
2538 4 0.479868 0.408709 0.333776
2536 2 0.47615 0.411014 0.309158
2537 4 0.472432 0.413319 0.28454
753 4 0.468495 0.391429 0.329965
549 4 0.0462653 0.440609 0.314362
547 2 0.0370226 0.422583 0.329018
777 4 0.100798 0.435238 0.291876
775 2 0.11956 0.451766 0.292033
776 4 0.138321 0.468294 0.29219
414 4 0.144461 0.463377 0.310316
412 2 0.156204 0.483924 0.318382
413 4 0.167948 0.504472 0.326448
437 4 0.268515 0.458192 0.281131
436 2 0.275443 0.435269 0.27394
2860 2 0.485128 0.459652 0.256349
2862 4 0.463044 0.461851 0.267866
594 4 0.419565 0.472132 0.3034
592 2 0.416868 0.481929 0.326245
1800 4 0.0267368 0.000916897 0.335999
367 2 0.085065 0.0104123 0.40787
605 4 0.174149 0.0593627 0.362431
604 2 0.187619 0.063771 0.38303
606 4 0.201089 0.0681794 0.403628
441 4 0.327497 0.00467271 0.369385
698 4 0.38614 0.0760451 0.339556
256 2 0.408077 0.0649845 0.371549
257 4 0.400606 0.07962 0.352703
258 4 0.415549 0.050349 0.390395
426 4 0.419486 0.0336093 0.402066
318 4 0.0388014 0.100815 0.34234
316 2 0.0524443 0.103954 0.363057
317 4 0.0660872 0.107093 0.383774
457 2 0.0356589 0.143223 0.397004
458 4 0.0420831 0.119778 0.402856
732 4 0.105047 0.0863756 0.413087
730 2 0.111832 0.0932478 0.390024
397 2 0.10885 0.126843 0.344598
399 4 0.117852 0.119601 0.366773
731 4 0.118617 0.10012 0.366961
599 4 0.166473 0.16429 0.390341
600 4 0.203957 0.145921 0.362806
598 2 0.185215 0.155106 0.376574
683 4 0.282903 0.0974157 0.364387
682 2 0.289428 0.0991495 0.388462
684 4 0.295954 0.100883 0.412537
632 4 0.339578 0.112926 0.347002
631 2 0.361429 0.101193 0.350167
633 4 0.383281 0.0894592 0.353333
516 4 0.415161 0.139601 0.374182
575 4 0.40468 0.149583 0.388346
574 2 0.404075 0.147591 0.413263
451 2 0.487302 0.158987 0.364559
514 2 0.431201 0.157586 0.367516
459 4 0.0292347 0.166667 0.391152
2653 2 0.0056143 0.200838 0.379822
2654 4 0.0253746 0.186372 0.384864
388 2 0.088935 0.237471 0.36133
389 4 0.0903259 0.213641 0.368769
685 2 0.151418 0.192185 0.410308
687 4 0.169985 0.18312 0.396226
473 4 0.238517 0.182488 0.363791
472 2 0.243443 0.193619 0.385631
474 4 0.24837 0.204751 0.407471
488 4 0.266144 0.210375 0.400652
487 2 0.288007 0.222497 0.401162
489 4 0.309869 0.234619 0.401671
717 4 0.408927 0.230557 0.34923
707 4 0.337671 0.213351 0.347901
420 4 0.412993 0.216915 0.336271
706 2 0.349352 0.191414 0.345158
708 4 0.361033 0.169478 0.342415
715 2 0.390795 0.247013 0.35429
466 2 0.376831 0.226891 0.418398
468 4 0.387178 0.247459 0.408647
515 4 0.447241 0.175571 0.360849
453 4 0.466867 0.173304 0.366168
444 4 0.0170715 0.257208 0.338835
390 4 0.0875441 0.261302 0.353891
618 4 0.072078 0.311497 0.389534
347 4 0.0556205 0.304186 0.398018
616 2 0.0848429 0.32486 0.372692
275 4 0.137133 0.31231 0.405565
274 2 0.153525 0.299977 0.391269
276 4 0.169916 0.287644 0.376972
373 2 0.209346 0.293437 0.378266
374 4 0.229818 0.307273 0.382089
375 4 0.188874 0.2796 0.374442
716 4 0.372664 0.26347 0.359351
406 2 0.0498916 0.401291 0.376737
408 4 0.0703229 0.395011 0.389711
548 4 0.02778 0.404556 0.343674
407 4 0.0294604 0.40757 0.363764
617 4 0.0976079 0.338224 0.355851
678 4 0.204043 0.373556 0.334334
433 2 0.261543 0.379704 0.33759
434 4 0.282491 0.391846 0.343826
336 4 0.288124 0.383437 0.417853
561 4 0.453213 0.366205 0.389773
752 4 0.46558 0.371776 0.375856
559 2 0.467295 0.371611 0.409714
751 2 0.467038 0.381602 0.352911
499 2 0.153576 0.491303 0.386957
500 4 0.173355 0.483319 0.373911
1544 4 0.180861 0.498683 0.359888
667 2 0.288502 0.442649 0.413266
668 4 0.286298 0.466021 0.404659
1 1 0.313489 0.497088 0.39955
3 3 0.322207 0.490696 0.379018
4 3 0.300613 0.479923 0.40838
593 4 0.41417 0.491727 0.349091
718 2 0.0418747 0.0690526 0.462988
720 4 0.0335252 0.0486548 0.474795
2237 4 0.0228734 0.0315879 0.473885
2236 2 0.0281313 0.00898889 0.464567
1127 4 0.0322316 0.0377471 0.489802
369 4 0.0688357 0.0250914 0.419966
1523 4 0.110229 0.0230482 0.479934
1180 2 0.24517 0.0801962 0.477647
341 4 0.177724 0.0357339 0.499884
1182 4 0.259532 0.0601715 0.473414
726 4 0.302207 0.0645945 0.431264
724 2 0.299268 0.0576762 0.455111
432 4 0.308306 0.0558452 0.493983
725 4 0.296329 0.0507579 0.478958
963 4 0.291952 0.0456995 0.497647
961 2 0.291671 0.0206975 0.497627
424 2 0.402318 0.0390984 0.419395
425 4 0.38515 0.0445875 0.436725
2878 2 0.468021 0.0831179 0.482721
719 4 0.0502242 0.0894505 0.451182
1033 2 0.118791 0.15693 0.479793
1035 4 0.131299 0.167746 0.461039
939 4 0.0865142 0.139676 0.500914
1034 4 0.106282 0.146113 0.498548
1181 4 0.230808 0.100221 0.48188
320 4 0.297404 0.11116 0.42932
411 4 0.25884 0.153297 0.464496
321 4 0.289878 0.135778 0.472192
319 2 0.293641 0.123469 0.450756
576 4 0.403469 0.145599 0.43818
2880 4 0.475713 0.104187 0.471671
642 4 0.486977 0.108974 0.453867
640 2 0.472445 0.127384 0.445202
641 4 0.457913 0.145794 0.436537
306 4 0.438911 0.151655 0.435646
3158 4 0.475041 0.155159 0.494595
471 4 0.00665471 0.21409 0.486706
469 2 0.0177109 0.191899 0.489946
470 4 0.028767 0.169708 0.493186
260 4 0.118407 0.233433 0.462988
261 4 0.125124 0.185212 0.451568
259 2 0.121765 0.209323 0.457278
686 4 0.132852 0.201249 0.424389
695 4 0.101019 0.23974 0.455141
409 2 0.263436 0.169249 0.483193
410 4 0.268032 0.185201 0.50189
467 4 0.366484 0.206323 0.428148
3159 4 0.495489 0.188999 0.463977
305 4 0.443991 0.199369 0.449728
304 2 0.441451 0.175512 0.442687
3157 2 0.485265 0.172079 0.479286
346 2 0.0595746 0.307283 0.422512
326 4 0.0708248 0.315277 0.46465
348 4 0.0635286 0.310381 0.447005
694 2 0.0972187 0.255863 0.47387
10 3 0.144129 0.332149 0.458877
1260 4 0.112099 0.278581 0.494034
696 4 0.0934183 0.271987 0.492599
650 4 0.266765 0.302434 0.500164
266 4 0.317438 0.256224 0.462411
811 2 0.296132 0.312062 0.487053
812 4 0.274909 0.319446 0.498019
813 4 0.317354 0.304678 0.476087
267 4 0.362289 0.26404 0.441722
265 2 0.339864 0.260132 0.452066
584 4 0.490687 0.280235 0.480628
583 2 0.469856 0.274602 0.493258
325 2 0.0785417 0.337276 0.473688
2813 4 0.0186501 0.376955 0.454655
7 3 0.128067 0.363038 0.472323
327 4 0.0862586 0.359274 0.482726
6 1 0.147444 0.350655 0.47173
8 3 0.164383 0.363663 0.46266
9 3 0.152999 0.344377 0.493366
504 4 0.226349 0.395985 0.42653
711 4 0.172298 0.38171 0.459599
709 2 0.19236 0.39214 0.470272
710 4 0.212422 0.402571 0.480945
774 4 0.221888 0.413647 0.493589
502 2 0.250666 0.393911 0.431965
334 2 0.312524 0.381019 0.422749
503 4 0.274983 0.391837 0.4374
804 4 0.269481 0.338325 0.49618
239 4 0.385002 0.398304 0.445371
588 4 0.396503 0.410419 0.457138
586 2 0.410266 0.398725 0.474431
335 4 0.336924 0.378601 0.427646
238 2 0.363036 0.386393 0.446273
240 4 0.341071 0.374481 0.447175
587 4 0.424028 0.387032 0.491723
560 4 0.481378 0.377017 0.429655
1381 2 0.0445734 0.491742 0.427467
679 2 0.0503419 0.446229 0.466836
1383 4 0.0382536 0.470156 0.438389
681 4 0.0662524 0.430039 0.47732
680 4 0.0344313 0.46242 0.456353
570 4 0.168788 0.491481 0.435577
538 2 0.0864686 0.495976 0.490797
539 4 0.080311 0.481417 0.471424
382 2 0.104351 0.44153 0.460364
568 2 0.15238 0.47621 0.446655
383 4 0.0848478 0.43464 0.474412
569 4 0.135972 0.460938 0.457733
384 4 0.123853 0.44842 0.446316
636 4 0.215632 0.471071 0.478043
635 4 0.216519 0.421097 0.476443
634 2 0.216076 0.446084 0.477243
669 4 0.290706 0.419276 0.421872
880 2 0.327582 0.500727 0.489735
881 4 0.351787 0.505217 0.494107
663 4 0.460753 0.456891 0.481731
1126 2 0.0222208 0.0478731 0.510355
1128 4 0.0122101 0.057999 0.530909
1057 2 0.134822 0.0737719 0.574281
1058 4 0.130498 0.0513002 0.584356
340 2 0.186272 0.0590509 0.502786
2428 2 0.202803 0.0141563 0.527712
2430 4 0.183794 0.0207931 0.512886
2429 4 0.221812 0.00751952 0.542537
1030 2 0.248907 0.0719159 0.58169
430 2 0.320369 0.0701125 0.510599
950 4 0.333817 0.0439496 0.58061
949 2 0.309221 0.0483186 0.579544
951 4 0.284625 0.0526875 0.578478
962 4 0.29139 0.995696 0.497607
1031 4 0.273372 0.0692957 0.577243
1217 4 0.382108 0.0520967 0.571426
1216 2 0.392308 0.0293062 0.570115
842 4 0.384004 0.0625765 0.554183
1218 4 0.402509 0.00651579 0.568804
431 4 0.332432 0.0843799 0.527216
841 2 0.365995 0.0775524 0.54543
2879 4 0.460328 0.0620488 0.493771
938 4 0.100283 0.140357 0.548983
937 2 0.0933985 0.140016 0.524949
1151 4 0.157072 0.100303 0.558819
1059 4 0.139146 0.0962436 0.564206
1155 4 0.152128 0.10662 0.575893
342 4 0.19482 0.082368 0.505689
1150 2 0.170304 0.0967544 0.537903
1152 4 0.183536 0.0932055 0.516986
843 4 0.347987 0.0925283 0.536678
878 4 0.0350113 0.208265 0.547107
1199 4 0.0235657 0.223989 0.551972
877 2 0.0545169 0.201982 0.561433
879 4 0.0740225 0.195699 0.575759
858 4 0.252579 0.195815 0.555378
857 4 0.292444 0.225644 0.560035
856 2 0.272512 0.21073 0.557706
898 2 0.306307 0.200807 0.514613
791 4 0.311362 0.226762 0.560307
899 4 0.329294 0.204433 0.523757
900 4 0.28332 0.19718 0.505469
790 2 0.318316 0.247844 0.571812
873 4 0.380815 0.242491 0.524435
983 4 0.0744045 0.316275 0.573838
1258 2 0.130729 0.292034 0.503889
1259 4 0.149359 0.305487 0.513743
651 4 0.223481 0.281896 0.514496
649 2 0.245123 0.292165 0.50733
792 4 0.325271 0.268926 0.583317
871 2 0.398084 0.260196 0.520763
872 4 0.415353 0.2779 0.51709
1239 4 0.363539 0.317892 0.570621
1238 4 0.344899 0.271928 0.576988
1237 2 0.354219 0.29491 0.573804
954 4 0.496509 0.304545 0.579104
1011 4 0.487794 0.305659 0.560896
585 4 0.449025 0.268969 0.505888
895 2 0.168538 0.375644 0.586351
1189 2 0.223917 0.380299 0.563676
773 4 0.243824 0.389082 0.53122
1190 4 0.240272 0.376536 0.545141
803 4 0.250183 0.370601 0.529143
772 2 0.232856 0.401364 0.512404
1191 4 0.207563 0.384062 0.582211
896 4 0.189041 0.385839 0.576308
802 2 0.259832 0.354463 0.512661
930 4 0.318705 0.358157 0.530871
928 2 0.3025 0.375196 0.53937
929 4 0.286294 0.392236 0.547868
927 4 0.414525 0.366392 0.545163
925 2 0.423038 0.381371 0.527042
926 4 0.43155 0.396349 0.508922
2243 4 0.147507 0.492179 0.546405
1161 4 0.167359 0.495058 0.548633
2242 2 0.126902 0.500439 0.534898
1159 2 0.176341 0.480038 0.566491
889 2 0.318923 0.457273 0.570586
890 4 0.329973 0.476361 0.558808
891 4 0.307872 0.438186 0.582364
1952 4 0.361385 0.504694 0.510959
1002 4 0.390235 0.454195 0.541243
1000 2 0.413552 0.462617 0.537995
1001 4 0.43687 0.471038 0.534748
662 4 0.453334 0.475758 0.527444
661 2 0.457043 0.466324 0.504587
1911 4 0.45304 0.476568 0.546199
1909 2 0.451925 0.483169 0.570289
1332 4 0.467705 0.485452 0.536234
1330 2 0.489341 0.497886 0.53466
945 4 0.0567329 0.0136552 0.643844
2319 4 0.0420312 0.00248582 0.65006
943 2 0.0787016 0.0179383 0.632699
944 4 0.10067 0.0222215 0.621554
825 4 0.119675 0.018717 0.629312
823 2 0.135448 0.00150982 0.638274
1032 4 0.224442 0.0745362 0.586136
1092 4 0.315625 0.00884201 0.655091
1081 2 0.0229204 0.124943 0.649944
3179 4 0.00655659 0.1528 0.647703
1082 4 0.0392366 0.112875 0.66455
1083 4 0.00660415 0.137011 0.635339
1153 2 0.149033 0.129102 0.586387
1154 4 0.145937 0.151585 0.596882
1282 2 0.164733 0.116874 0.650582
1284 4 0.179067 0.117774 0.630115
1221 4 0.165114 0.156784 0.599809
1211 4 0.236329 0.168032 0.665021
888 4 0.256395 0.163726 0.668287
3008 4 0.492339 0.0926089 0.607048
808 2 0.487946 0.0942821 0.646264
809 4 0.487918 0.104799 0.623579
1243 2 0.0687679 0.223162 0.632694
1244 4 0.0548404 0.206363 0.620487
1272 4 0.0810277 0.185842 0.592151
1245 4 0.0826954 0.239961 0.644901
1270 2 0.0979193 0.182481 0.610277
1271 4 0.114811 0.179121 0.628403
1209 4 0.0972157 0.233814 0.656283
1210 2 0.220035 0.179775 0.650129
1212 4 0.20374 0.191517 0.635237
1219 2 0.184333 0.16988 0.608991
1220 4 0.203551 0.182977 0.618174
796 2 0.197986 0.226605 0.621893
798 4 0.203579 0.202477 0.618466
906 4 0.438037 0.207575 0.593228
904 2 0.453309 0.222115 0.606664
905 4 0.46858 0.236655 0.620101
3123 4 0.475246 0.229506 0.638092
3121 2 0.494326 0.230254 0.654235
982 2 0.0664992 0.322128 0.596826
3263 4 0.0510228 0.332747 0.637673
3262 2 0.0381629 0.326949 0.658317
797 4 0.192394 0.250733 0.62532
947 4 0.186614 0.295965 0.640262
946 2 0.195548 0.286011 0.661387
952 2 0.478849 0.308445 0.596369
953 4 0.461188 0.312345 0.613634
984 4 0.0585938 0.327981 0.619814
1041 4 0.0701612 0.333453 0.634601
897 4 0.148035 0.365448 0.596394
1137 4 0.130243 0.371639 0.589409
1039 2 0.0833314 0.354435 0.637989
1135 2 0.11041 0.386682 0.591766
1136 4 0.0905779 0.401725 0.594123
1040 4 0.0965016 0.375417 0.641377
991 2 0.108095 0.411581 0.641746
993 4 0.111133 0.387749 0.648672
1172 4 0.197538 0.400126 0.586834
1206 4 0.464637 0.408948 0.667443
3309 4 0.489459 0.392946 0.590559
992 4 0.105056 0.435413 0.63482
1188 4 0.221884 0.496005 0.630553
1173 4 0.197311 0.45013 0.586314
1171 2 0.197425 0.425128 0.586574
1187 4 0.19981 0.465473 0.597671
1160 4 0.185324 0.465018 0.584349
1186 2 0.210847 0.480739 0.614112
1204 2 0.44928 0.420617 0.651532
1910 4 0.45081 0.48977 0.59438
1205 4 0.433923 0.432287 0.635621
1269 4 0.424836 0.447505 0.627288
1267 2 0.427724 0.470671 0.636243
1268 4 0.430612 0.493836 0.645198
2254 2 0.203675 0.0184436 0.752304
1147 2 0.217561 0.078943 0.727317
1149 4 0.242315 0.0764767 0.729836
2255 4 0.180045 0.0182773 0.74413
1257 4 0.247073 0.0681532 0.747296
1003 2 0.330888 0.053667 0.7122
1005 4 0.326999 0.0379759 0.693126
1004 4 0.334778 0.0693582 0.731275
45 3 0.446857 0.0625671 0.670454
42 3 0.455758 0.0604397 0.706637
41 1 0.454744 0.0743022 0.688307
1163 4 0.494371 0.0789593 0.686111
810 4 0.487975 0.083765 0.668948
44 3 0.47605 0.0822808 0.683749
1076 4 0.0280185 0.102085 0.678161
864 4 0.0510711 0.110655 0.738247
1075 2 0.0325162 0.108339 0.701949
1077 4 0.0370139 0.114593 0.725736
909 4 0.0957473 0.14167 0.701432
907 2 0.118024 0.134208 0.692875
908 4 0.140301 0.126745 0.684317
1283 4 0.150398 0.115974 0.671049
1227 4 0.15015 0.110652 0.689498
1225 2 0.161587 0.0956296 0.70589
1148 4 0.192807 0.0814094 0.724799
1226 4 0.173024 0.0806073 0.722282
886 2 0.279377 0.168723 0.676775
831 4 0.367449 0.15465 0.690082
1142 4 0.383805 0.160751 0.700606
829 2 0.343769 0.16266 0.690621
1025 4 0.471224 0.143001 0.685131
43 3 0.440508 0.0919977 0.693064
3424 2 0.497113 0.11458 0.698667
3426 4 0.488711 0.0971327 0.68285
1024 2 0.460404 0.159535 0.700452
852 4 0.0450784 0.182635 0.746152
1213 2 0.0227753 0.199346 0.724634
1214 4 0.0343948 0.177639 0.728993
1215 4 0.0111559 0.221052 0.720276
1178 4 0.000978514 0.238301 0.720363
1207 2 0.103883 0.233474 0.680379
1208 4 0.110551 0.233135 0.704475
1106 4 0.13364 0.204215 0.723074
1105 2 0.121749 0.186482 0.736088
1107 4 0.109857 0.16875 0.749101
1074 4 0.0877303 0.241887 0.74416
830 4 0.32009 0.170671 0.69116
887 4 0.302359 0.17372 0.685263
976 2 0.309467 0.189871 0.723388
978 4 0.306388 0.17399 0.704322
977 4 0.312547 0.205752 0.742453
918 4 0.305012 0.220487 0.751984
1298 4 0.324562 0.219276 0.74789
1141 2 0.406886 0.165966 0.708685
1193 4 0.358653 0.250043 0.693101
1192 2 0.350505 0.226685 0.689469
1194 4 0.342357 0.203327 0.685838
1143 4 0.429967 0.17118 0.716764
1026 4 0.449585 0.176069 0.715773
1261 2 0.449777 0.201306 0.739973
1262 4 0.436932 0.188025 0.723127
3264 4 0.0253029 0.321151 0.678962
1177 2 0.00285163 0.262905 0.724406
1179 4 0.00472475 0.287508 0.728449
948 4 0.204483 0.276058 0.682513
821 4 0.173083 0.292209 0.735188
820 2 0.176106 0.268431 0.742304
1064 4 0.218112 0.288831 0.688422
1065 4 0.220804 0.29 0.738343
1063 2 0.219458 0.289415 0.713382
893 4 0.0197136 0.332932 0.694979
892 2 0.0216594 0.355229 0.706126
894 4 0.0236051 0.377526 0.717272
3276 4 0.017096 0.381308 0.734873
814 2 0.0578857 0.390219 0.741716
816 4 0.0365644 0.38259 0.731115
941 4 0.147207 0.401264 0.751931
1067 4 0.154072 0.413524 0.738643
1066 2 0.165387 0.413545 0.716346
1029 4 0.235206 0.410581 0.675865
1027 2 0.21448 0.413833 0.689468
1068 4 0.176701 0.413566 0.694049
1028 4 0.193754 0.417085 0.70307
806 4 0.304955 0.352493 0.670577
805 2 0.328924 0.351127 0.677561
807 4 0.352894 0.349762 0.684545
1019 4 0.385345 0.38708 0.711395
1018 2 0.373411 0.373226 0.728449
1020 4 0.361477 0.359372 0.745503
1281 4 0.026672 0.489342 0.685768
1983 4 0.00769468 0.488362 0.692601
1280 4 0.0665873 0.45924 0.68694
1279 2 0.0466296 0.474291 0.686354
1140 4 0.252625 0.455896 0.699933
1139 4 0.267277 0.470687 0.7454
1138 2 0.259951 0.463292 0.722667
1228 2 0.399868 0.44988 0.744803
1230 4 0.410263 0.444456 0.722719
1100 4 0.429707 0.440522 0.721429
1101 4 0.475942 0.459575 0.72118
1099 2 0.452825 0.450048 0.721304
1251 4 0.478953 0.475066 0.732804
3330 4 0.488899 0.44448 0.726923
1294 2 0.0181689 0.0417102 0.783572
1296 4 0.0400736 0.0297703 0.785247
2047 2 0.159218 0.00384242 0.789157
1203 4 0.120651 0.0741969 0.779522
1201 2 0.130975 0.0528576 0.787473
1202 4 0.141299 0.0315182 0.795425
2049 4 0.159808 0.0255196 0.801604
2256 4 0.227304 0.0186098 0.760477
1255 2 0.261419 0.0663715 0.767697
1256 4 0.275764 0.0645897 0.788099
840 4 0.27574 0.0845692 0.792913
975 4 0.330404 0.0412062 0.827081
1113 4 0.372564 0.0622697 0.801438
1111 2 0.372084 0.0816609 0.817215
2321 4 0.47196 0.000125582 0.780486
2322 4 0.487784 0.0464833 0.790549
2320 2 0.479872 0.0233045 0.785518
980 4 0.437008 0.0142808 0.831305
846 4 0.480047 0.0614623 0.779534
844 2 0.474262 0.081144 0.765239
862 2 0.0533064 0.114559 0.762842
863 4 0.0555417 0.118462 0.787438
832 2 0.0276361 0.112268 0.816156
833 4 0.0453105 0.12582 0.804792
1125 4 0.0376808 0.144071 0.807781
834 4 0.00996157 0.0987154 0.827519
31 1 0.113489 0.145316 0.813642
34 3 0.121707 0.124299 0.80824
32 3 0.109478 0.156953 0.794209
35 3 0.12877 0.156653 0.826156
33 3 0.0935896 0.143259 0.825398
838 2 0.275845 0.10401 0.808636
839 4 0.27595 0.123451 0.824359
959 4 0.275711 0.143132 0.83042
845 4 0.468477 0.100826 0.750944
850 2 0.0682351 0.175535 0.75236
1123 2 0.0362847 0.166762 0.81819
1124 4 0.0348886 0.189452 0.8286
851 4 0.0913918 0.168435 0.758568
822 4 0.179129 0.244653 0.749421
1130 4 0.17602 0.177514 0.756397
1129 2 0.178002 0.202439 0.756408