ITEM: TIMESTEP
2690000
ITEM: NUMBER OF ATOMS
4590
ITEM: BOX BOUNDS pp pp pp
-9.9985700000000008e+00 9.9985700000000008e+00
-9.9985700000000008e+00 9.9985700000000008e+00
-9.9985700000000008e+00 9.9985700000000008e+00
ITEM: ATOMS id type xs ys zs
1668 4 0.0853109 0.993799 0.0585957
1666 2 0.0672502 0.991883 0.0757805
465 4 0.0857928 0.0775397 0.0266214
701 4 0.0986927 0.0697941 0.0125769
700 2 0.119777 0.0567702 0.0092608
702 4 0.140862 0.0437463 0.00594471
566 4 0.159838 0.034836 0.00572174
746 4 0.478872 0.0670153 0.0259866
2467 2 0.493729 0.0309759 0.0447196
2469 4 0.480107 0.0472473 0.031496
745 2 0.469188 0.0656466 0.00297535
463 2 0.065153 0.0841977 0.0390652
590 4 0.0319741 0.107505 0.0525606
464 4 0.0445132 0.0908557 0.0515091
589 2 0.0159133 0.0986833 0.0695727
558 4 0.345609 0.139452 0.0345525
556 2 0.348189 0.128867 0.0570579
865 2 0.374733 0.161244 0.00672478
771 4 0.459491 0.141804 0.0646628
769 2 0.46429 0.160973 0.0799829
554 4 0.0458924 0.20986 0.00480559
553 2 0.0629099 0.201608 0.0211608
555 4 0.0799274 0.193357 0.0375161
835 2 0.119037 0.197802 0.0215228
836 4 0.0998181 0.197867 0.0375165
837 4 0.138257 0.197737 0.00552923
461 4 0.341128 0.234663 0.0775818
573 4 0.339537 0.239078 0.0584289
666 4 0.333794 0.221662 0.064503
664 2 0.340447 0.202781 0.0495232
665 4 0.3471 0.183899 0.0345434
867 4 0.360299 0.176806 0.0199414
1070 4 0.462686 0.237263 0.0806852
2808 4 0.0338585 0.328137 0.046847
2806 2 0.017798 0.309881 0.0410204
294 4 0.101386 0.313199 0.0804527
292 2 0.117431 0.322511 0.0636893
293 4 0.133477 0.331823 0.0469259
356 4 0.310569 0.291 0.0366844
572 4 0.319648 0.274269 0.0289883
355 2 0.313897 0.314894 0.0301134
571 2 0.329593 0.256674 0.0437086
1069 2 0.44788 0.257407 0.0811153
322 2 0.435331 0.318389 0.0681387
1071 4 0.433074 0.277551 0.0815453
647 4 0.0263414 0.370097 0.0773806
646 2 0.0448984 0.353561 0.0801001
620 4 0.00979559 0.361126 0.0760704
507 4 0.140444 0.3409 0.0314556
505 2 0.165135 0.344841 0.031579
481 2 0.222148 0.372537 0.0193738
482 4 0.24454 0.383651 0.0188828
483 4 0.199755 0.361424 0.0198648
506 4 0.189826 0.348783 0.0317024
626 4 0.199948 0.406285 0.0909406
609 4 0.248059 0.402849 0.0231005
357 4 0.317226 0.338788 0.0235425
902 4 0.308457 0.350005 0.00976326
957 4 0.358918 0.383229 0.0277195
955 2 0.367878 0.379961 0.00460639
323 4 0.444882 0.33993 0.0597747
672 4 0.464327 0.342139 0.0634107
280 2 0.493917 0.418265 0.0447869
671 4 0.493131 0.38287 0.0599497
670 2 0.478729 0.362505 0.0616802
551 4 0.0346453 0.446652 0.0888545
550 2 0.0563665 0.450398 0.0770506
552 4 0.0780876 0.454145 0.0652467
1465 2 0.000940818 0.476403 0.0830882
1466 4 0.0114804 0.497059 0.0924375
1787 4 0.0959467 0.462207 0.0655219
1786 2 0.112605 0.464821 0.0470597
1788 4 0.129263 0.467435 0.0285974
242 4 0.0898996 0.451413 0.0810207
246 4 0.243361 0.476422 0.0376544
244 2 0.225699 0.469448 0.0539217
245 4 0.208038 0.462474 0.070189
625 2 0.196342 0.427827 0.0787699
272 4 0.238143 0.482106 0.0201758
1778 4 0.251701 0.491883 0.0300545
627 4 0.192737 0.449369 0.0665993
607 2 0.262633 0.421694 0.0306936
608 4 0.277208 0.440538 0.0382868
252 4 0.290213 0.454738 0.0476359
250 2 0.312402 0.457525 0.036454
251 4 0.334592 0.460312 0.025272
2289 4 0.340593 0.475228 0.0120665
525 4 0.416505 0.488797 0.0764919
2287 2 0.353794 0.49596 0.00747538
282 4 0.483532 0.437922 0.0333442
226 2 0.457765 0.465034 0.0504322
227 4 0.466599 0.443204 0.0420324
228 4 0.44893 0.486865 0.058832
1667 4 0.0491896 0.989966 0.0929653
16 1 0.0651586 0.0456949 0.152857
20 3 0.0703461 0.0601428 0.136034
1806 4 0.0340771 0.0270657 0.14287
18 3 0.0540941 0.0271936 0.144273
1804 2 0.0337022 0.0109651 0.123744
450 4 0.1614 0.0623027 0.164093
675 4 0.10052 0.0447554 0.152477
448 2 0.174364 0.0832567 0.159844
1661 4 0.298337 0.00686032 0.155887
654 4 0.314268 0.0193638 0.152437
652 2 0.316734 0.0428132 0.160757
484 2 0.374643 0.0164802 0.110661
297 4 0.361639 0.0592594 0.113055
485 4 0.370924 0.041199 0.111237
295 2 0.357043 0.08224 0.104341
579 4 0.098313 0.134233 0.0932709
237 4 0.152056 0.154625 0.124362
578 4 0.132262 0.156874 0.122177
577 2 0.115287 0.145553 0.107724
235 2 0.165345 0.136046 0.134531
236 4 0.178635 0.117467 0.144699
693 4 0.193358 0.106437 0.137547
449 4 0.187327 0.104211 0.155595
691 2 0.218115 0.109556 0.139152
692 4 0.242871 0.112675 0.140758
582 4 0.257611 0.109587 0.126625
580 2 0.278315 0.116528 0.138804
581 4 0.29902 0.123468 0.150983
29 3 0.317034 0.162262 0.146971
557 4 0.350768 0.118282 0.0795632
296 4 0.352446 0.105221 0.0956261
476 4 0.142908 0.170255 0.131028
737 4 0.144536 0.16797 0.112871
475 2 0.136822 0.179172 0.15358
736 2 0.161611 0.179032 0.0983358
738 4 0.178686 0.190094 0.0838008
354 4 0.316977 0.237907 0.138262
283 2 0.329494 0.198576 0.142994
285 4 0.332642 0.173853 0.14501
284 4 0.326346 0.223298 0.140978
462 4 0.325905 0.230625 0.125044
460 2 0.333516 0.232644 0.101313
352 2 0.298693 0.253958 0.144028
255 4 0.334819 0.23836 0.137994
253 2 0.351302 0.246617 0.154886
770 4 0.469088 0.180142 0.0953031
1014 4 0.478534 0.175502 0.112021
1013 4 0.465277 0.219426 0.131911
1012 2 0.471906 0.197464 0.121966
749 4 0.068568 0.312835 0.167344
455 4 0.0694957 0.324573 0.149815
454 2 0.064266 0.330876 0.126191
611 4 0.222213 0.350936 0.105505
610 2 0.235688 0.331392 0.113354
612 4 0.249164 0.311847 0.121202
756 4 0.254814 0.318419 0.139085
353 4 0.280409 0.270008 0.149795
754 2 0.266493 0.300377 0.151863
755 4 0.278172 0.282336 0.164641
278 4 0.267597 0.266342 0.163076
324 4 0.42578 0.296849 0.0765026
648 4 0.0634554 0.337026 0.0828196
456 4 0.0590362 0.337179 0.102567
536 4 0.185804 0.391599 0.0934597
535 2 0.196275 0.368901 0.0940327
537 4 0.206747 0.346203 0.0946056
387 4 0.333004 0.406073 0.142046
302 4 0.320537 0.406223 0.126686
741 4 0.405061 0.374875 0.10207
739 2 0.400251 0.383695 0.124967
740 4 0.395442 0.392516 0.147864
385 2 0.356223 0.401189 0.149935
386 4 0.379441 0.396305 0.157824
495 4 0.396071 0.406179 0.162185
15 3 0.38619 0.377875 0.1569
241 2 0.105034 0.447838 0.1006
1438 2 0.154861 0.459061 0.122196
243 4 0.120169 0.444263 0.120179
1440 4 0.132285 0.454268 0.131815
1439 4 0.177437 0.463855 0.112577
637 2 0.214423 0.477086 0.121339
638 4 0.232263 0.489848 0.133341
639 4 0.196583 0.464324 0.109338
767 4 0.251264 0.4865 0.137521
303 4 0.307346 0.453687 0.118093
766 2 0.269232 0.47211 0.127759
768 4 0.287199 0.457721 0.117997
301 2 0.313941 0.429955 0.122389
523 2 0.401385 0.469039 0.0740075
524 4 0.386266 0.44928 0.0715231
493 2 0.403715 0.429486 0.157332
494 4 0.411359 0.452792 0.152479
660 4 0.424015 0.466485 0.141572
658 2 0.431547 0.484134 0.157601
17 3 0.0845411 0.0386894 0.163074
19 3 0.0518069 0.0563187 0.168581
380 4 0.0585892 0.0732235 0.175475
1505 4 0.153211 0.0523247 0.178729
673 2 0.121572 0.0554149 0.160744
674 4 0.142624 0.0660744 0.169012
689 4 0.184853 0.000499188 0.195215
1504 2 0.163686 0.033584 0.191545
1506 4 0.174161 0.0148433 0.20436
653 4 0.3192 0.0662627 0.169077
23 3 0.400658 0.012144 0.236531
22 3 0.40775 0.0162905 0.199854
21 1 0.417337 0.0124072 0.220401
757 2 0.469863 0.0266314 0.209383
25 3 0.432288 0.0289713 0.224954
759 4 0.451054 0.0348251 0.223675
350 4 0.442501 0.0316982 0.24104
758 4 0.488672 0.0184377 0.19509
379 2 0.045946 0.0937279 0.182175
512 4 0.04396 0.123936 0.202426
381 4 0.0333028 0.114232 0.188876
511 2 0.057485 0.142104 0.213016
513 4 0.07101 0.160273 0.223607
339 4 0.0762539 0.164577 0.205026
30 3 0.313531 0.128506 0.163278
26 1 0.310935 0.150932 0.16628
28 3 0.288866 0.155702 0.171627
27 3 0.324441 0.157877 0.183558
521 4 0.474284 0.151952 0.243184
311 4 0.449988 0.153971 0.200549
337 2 0.0935407 0.175961 0.190999
477 4 0.130736 0.188089 0.176133
363 4 0.121093 0.203012 0.183072
338 4 0.110827 0.187345 0.176972
362 4 0.137798 0.234852 0.217828
361 2 0.129445 0.218932 0.20045
372 4 0.139967 0.23867 0.238158
723 4 0.215941 0.206373 0.248017
279 4 0.254164 0.243162 0.205302
628 2 0.393533 0.227343 0.18699
629 4 0.410174 0.20874 0.188464
630 4 0.376891 0.245946 0.185517
312 4 0.419651 0.193673 0.198529
310 2 0.43482 0.173822 0.199539
761 4 0.48407 0.226515 0.227434
750 4 0.0446539 0.285509 0.201726
395 4 0.0334179 0.289887 0.216197
748 2 0.0566109 0.299172 0.184535
394 2 0.0238085 0.284202 0.238569
370 2 0.155325 0.258042 0.234411
300 4 0.114495 0.276873 0.216208
298 2 0.112157 0.299991 0.225443
299 4 0.109819 0.323108 0.234678
371 4 0.170683 0.277414 0.230664
277 2 0.260881 0.254752 0.184189
401 4 0.272134 0.309424 0.243703
498 4 0.269261 0.330102 0.238975
764 4 0.408168 0.303922 0.184965
254 4 0.367784 0.254873 0.171778
765 4 0.375905 0.26572 0.185596
763 2 0.392036 0.284821 0.185281
624 4 0.472667 0.316554 0.186301
622 2 0.44819 0.315702 0.181267
528 4 0.490824 0.306293 0.182704
623 4 0.423713 0.314851 0.176234
262 2 0.0387358 0.394864 0.211885
263 4 0.0568317 0.377778 0.214296
602 4 0.064604 0.369713 0.230824
734 4 0.109632 0.339628 0.24544
601 2 0.0845663 0.354806 0.228709
603 4 0.104529 0.339899 0.226594
290 4 0.170613 0.376177 0.236346
289 2 0.167825 0.397965 0.224401
291 4 0.165037 0.419753 0.212456
496 2 0.28468 0.339959 0.221937
307 2 0.32684 0.339191 0.184012
308 4 0.303092 0.335922 0.191121
497 4 0.300099 0.349817 0.2049
309 4 0.350588 0.342461 0.176903
14 3 0.401282 0.401152 0.182357
11 1 0.395739 0.379142 0.177537
13 3 0.381077 0.370975 0.193559
12 3 0.414899 0.366416 0.177814
264 4 0.0206399 0.411949 0.209475
2618 4 0.0109104 0.429149 0.209751
2617 2 0.995606 0.436962 0.227914
416 4 0.178041 0.434492 0.217786
415 2 0.190874 0.454591 0.210269
1430 4 0.205942 0.494657 0.201542
417 4 0.203707 0.47469 0.202752
597 4 0.485497 0.463495 0.207796
596 4 0.453194 0.494488 0.185511
659 4 0.439079 0.501784 0.17363
595 2 0.469345 0.478992 0.196653
1799 4 0.0189235 0.0154089 0.30255
233 4 0.0100596 0.0309297 0.294589
1402 2 0.0490179 0.0415236 0.308662
1403 4 0.0296634 0.0306751 0.297134
1404 4 0.0683724 0.0523721 0.32019
1798 2 0.00797979 0.00646223 0.323175
633 4 0.382111 0.0445865 0.302739
631 2 0.387962 0.0547316 0.280648
257 4 0.373491 0.0514675 0.318806
698 4 0.366896 0.034905 0.311547
697 2 0.365878 0.0103807 0.316311
632 4 0.393814 0.0648767 0.258557
349 2 0.44371 0.0331703 0.265971
744 4 0.463895 0.0300651 0.296044
742 2 0.470434 0.0266726 0.319938
351 4 0.444919 0.0346423 0.290902
398 4 0.0733118 0.139091 0.30343
393 4 0.0834105 0.14743 0.289623
397 2 0.0666627 0.121742 0.320162
390 4 0.0805717 0.156731 0.307542
545 4 0.1331 0.16004 0.2549
392 4 0.119502 0.144728 0.255114
391 2 0.101456 0.146079 0.272369
544 2 0.154821 0.161299 0.267221
249 4 0.184949 0.144263 0.329069
404 4 0.203904 0.150304 0.327074
403 2 0.199382 0.159777 0.304381
444 4 0.0187217 0.22611 0.304888
442 2 0.0190239 0.246268 0.290099
388 2 0.0855099 0.179571 0.316438
389 4 0.0904481 0.20241 0.325334
721 2 0.198564 0.192956 0.259984
546 4 0.176541 0.162559 0.279541
405 4 0.194861 0.16925 0.281687
722 4 0.181188 0.179539 0.271952
420 4 0.386161 0.221438 0.254667
717 4 0.371631 0.231675 0.262202
418 2 0.409197 0.21376 0.260632
331 2 0.456536 0.206593 0.300552
332 4 0.448066 0.204205 0.277148
419 4 0.432233 0.206083 0.266597
760 2 0.46674 0.216989 0.242735
762 4 0.449409 0.207463 0.258035
333 4 0.465005 0.208982 0.323956
453 4 0.471616 0.219939 0.338441
364 2 0.015851 0.306513 0.292793
396 4 0.0141991 0.278517 0.260941
443 4 0.0193261 0.266427 0.27531
365 4 0.0187819 0.285901 0.278946
407 4 0.0182534 0.326403 0.325361
366 4 0.0129201 0.327125 0.30664
677 4 0.152857 0.317835 0.28452
735 4 0.142229 0.335387 0.283125
676 2 0.172389 0.321606 0.299668
508 2 0.232177 0.312857 0.308653
509 4 0.207799 0.31444 0.31398
678 4 0.191921 0.325377 0.314816
435 4 0.20557 0.327459 0.328856
510 4 0.256555 0.311273 0.303327
400 2 0.268114 0.303354 0.267623
402 4 0.264095 0.297283 0.291543
345 4 0.273946 0.303725 0.307167
343 2 0.287504 0.285854 0.318211
344 4 0.301062 0.267982 0.329255
715 2 0.3763 0.255405 0.268548
716 4 0.380969 0.279135 0.274893
542 4 0.396375 0.285531 0.285436
541 2 0.396595 0.300035 0.305802
543 4 0.396816 0.314539 0.326167
548 4 0.0206967 0.342418 0.315519
547 2 0.0241691 0.366755 0.320086
549 4 0.0276415 0.391091 0.324652
777 4 0.0343581 0.404851 0.33712
733 2 0.125931 0.337508 0.264282
728 4 0.352512 0.378864 0.295358
727 2 0.356542 0.401105 0.306048
751 2 0.487742 0.335669 0.326119
2538 4 0.474987 0.34593 0.28614
753 4 0.477327 0.346267 0.30601
2536 2 0.490895 0.362901 0.276968
2860 2 0.502947 0.415731 0.28458
1543 2 0.155438 0.483602 0.328706
1544 4 0.132174 0.488985 0.336121
1545 4 0.178702 0.478218 0.321291
1436 4 0.193722 0.486217 0.311528
729 4 0.360572 0.423346 0.316738
436 2 0.358642 0.464166 0.335181
438 4 0.359544 0.486876 0.345602
2861 4 0.492632 0.434274 0.297807
730 2 0.0659558 0.0714761 0.361212
732 4 0.064132 0.0483623 0.370572
369 4 0.0833263 0.0418551 0.373511
367 2 0.09387 0.0375693 0.395774
605 4 0.181321 0.0593634 0.38844
604 2 0.174287 0.0407749 0.403611
1701 4 0.196367 0.0728714 0.388052
606 4 0.167252 0.0221865 0.418783
256 2 0.368615 0.0610155 0.341394
258 4 0.363739 0.0705636 0.363983
426 4 0.371844 0.0816622 0.378337
424 2 0.384412 0.0691104 0.395935
425 4 0.396979 0.0565585 0.413533
1580 4 0.401734 0.0374348 0.41439
2664 4 0.492462 0.0344388 0.348086
743 4 0.476973 0.0232801 0.343832
479 4 0.474913 0.040079 0.353435
478 2 0.468117 0.0568097 0.370729
480 4 0.461321 0.0735404 0.388023
458 4 0.995956 0.139698 0.370939
318 4 0.011826 0.12753 0.375249
399 4 0.0600136 0.104393 0.336895
317 4 0.0518698 0.106438 0.353981
731 4 0.0677795 0.09459 0.351853
316 2 0.0318479 0.116984 0.364615
1699 2 0.193117 0.0974538 0.391264
247 2 0.185744 0.135845 0.3526
248 4 0.186538 0.127427 0.37613
1700 4 0.189867 0.122036 0.394476
319 2 0.331503 0.131782 0.405952
320 4 0.314347 0.118591 0.418476
682 2 0.276062 0.139811 0.409868
683 4 0.255229 0.151932 0.403215
684 4 0.296895 0.127691 0.41652
321 4 0.348659 0.144974 0.393428
708 4 0.341558 0.153262 0.377651
516 4 0.476205 0.162924 0.369178
575 4 0.472733 0.146196 0.377968
574 2 0.467369 0.137646 0.400843
378 4 0.303284 0.247277 0.333964
376 2 0.30544 0.222637 0.337622
600 4 0.252331 0.171309 0.401372
377 4 0.307595 0.197996 0.34128
707 4 0.322716 0.192103 0.352411
489 4 0.303776 0.241978 0.398377
706 2 0.332137 0.172683 0.365031
515 4 0.463661 0.203099 0.342173
514 2 0.469933 0.183011 0.355676
451 2 0.492286 0.233162 0.343247
406 2 0.0253207 0.316474 0.347193
408 4 0.0323879 0.306544 0.369025
347 4 0.0773344 0.330665 0.386451
275 4 0.147853 0.310665 0.347068
617 4 0.130143 0.310948 0.356705
274 2 0.167942 0.298348 0.355428
616 2 0.110334 0.32429 0.364106
276 4 0.188032 0.286031 0.363787
374 4 0.216021 0.279298 0.421111
373 2 0.200072 0.282857 0.402186
375 4 0.184124 0.286417 0.383261
615 4 0.404928 0.322231 0.34427
267 4 0.351704 0.275506 0.401614
468 4 0.357123 0.255503 0.402403
752 4 0.498156 0.325071 0.346229
346 2 0.0638657 0.337431 0.406401
618 4 0.0905246 0.337631 0.371507
433 2 0.207157 0.347686 0.343467
434 4 0.208744 0.367914 0.358079
502 2 0.314533 0.416843 0.402273
613 2 0.427629 0.332257 0.347327
614 4 0.450329 0.342284 0.350384
775 2 0.0568129 0.41571 0.335373
776 4 0.0792678 0.426568 0.333625
414 4 0.0864598 0.443846 0.340983
413 4 0.113168 0.48598 0.337495
412 2 0.0998141 0.464913 0.339239
503 4 0.329991 0.435534 0.396197
669 4 0.328735 0.454328 0.388536
667 2 0.328262 0.470496 0.407603
437 4 0.35774 0.441455 0.324759
240 4 0.406435 0.430455 0.399484
335 4 0.392233 0.429366 0.383227
336 4 0.344563 0.44414 0.386393
334 2 0.368398 0.436753 0.38481
3990 4 0.484389 0.482574 0.352971
2236 2 0.0105005 0.0497772 0.420615
1127 4 0.0130065 0.0463161 0.459024
2237 4 0.0227666 0.0471848 0.442248
720 4 0.0239763 0.0620945 0.454767
1523 4 0.0782069 0.998124 0.484263
1780 2 0.0950523 0.0146115 0.449386
368 4 0.104414 0.0332835 0.418037
1782 4 0.111296 0.0267468 0.434756
341 4 0.187109 0.0214383 0.507282
2430 4 0.1898 0.00309431 0.500274
724 2 0.293383 0.0542139 0.483632
726 4 0.294177 0.0792035 0.483369
725 4 0.292589 0.0292243 0.483894
963 4 0.291467 0.0103561 0.480708
432 4 0.307388 0.0176692 0.48825
1579 2 0.394199 0.0149873 0.422422
2879 4 0.424282 0.0335639 0.49053
642 4 0.445395 0.0739253 0.441271
2878 2 0.434422 0.0507645 0.47548
2880 4 0.444562 0.067965 0.46043
718 2 0.033137 0.0849339 0.459196
719 4 0.0422977 0.107773 0.463626
939 4 0.0821493 0.132581 0.489413
1033 2 0.116878 0.120697 0.48352
1035 4 0.14011 0.123764 0.474799
261 4 0.145941 0.142149 0.471325
1034 4 0.0936455 0.11763 0.49224
259 2 0.158997 0.163388 0.473229
1182 4 0.299222 0.0865084 0.465864
1180 2 0.298139 0.0977156 0.443539
1181 4 0.297057 0.108923 0.421214
576 4 0.462006 0.129095 0.423719
640 2 0.459089 0.0940934 0.435713
641 4 0.472783 0.114261 0.430154
306 4 0.477834 0.132113 0.435169
304 2 0.477407 0.144336 0.456978
3158 4 0.460791 0.15547 0.489852
305 4 0.476981 0.156558 0.478786
694 2 0.158044 0.218847 0.474793
696 4 0.147748 0.238208 0.486807
695 4 0.168339 0.199486 0.462779
260 4 0.172052 0.184627 0.475134
472 2 0.229185 0.242909 0.425969
599 4 0.245583 0.207177 0.435558
687 4 0.233191 0.206555 0.451326
686 4 0.187074 0.193385 0.465487
685 2 0.210132 0.19997 0.458406
411 4 0.248329 0.218913 0.450676
598 2 0.248957 0.189243 0.418465
474 4 0.246873 0.226517 0.432574
409 2 0.260486 0.217581 0.472484
488 4 0.265241 0.232542 0.42882
487 2 0.284509 0.23726 0.413599
410 4 0.272642 0.21625 0.494293
466 2 0.355673 0.235318 0.417088
467 4 0.354224 0.215134 0.431774
473 4 0.211497 0.259301 0.419364
813 4 0.242587 0.299374 0.471576
811 2 0.245455 0.315622 0.490364
266 4 0.332526 0.308915 0.433501
265 2 0.342115 0.292211 0.417558
2812 2 0.010553 0.335999 0.437312
348 4 0.050397 0.344197 0.42635
2813 4 0.0325572 0.347285 0.43362
326 4 0.0489652 0.351086 0.444121
325 2 0.0694625 0.359062 0.456013
327 4 0.0899598 0.367038 0.467906
7 3 0.10777 0.375773 0.467927
6 1 0.11669 0.379883 0.488728
711 4 0.140695 0.411155 0.493095
8 3 0.13559 0.393123 0.486302
709 2 0.163293 0.413755 0.482716
710 4 0.185892 0.416355 0.472336
504 4 0.299076 0.398153 0.408349
1383 4 0.058112 0.472403 0.469601
680 4 0.0623431 0.453278 0.471896
1381 2 0.0638844 0.490998 0.453913
679 2 0.0747137 0.441748 0.490313
774 4 0.197718 0.425498 0.485253
635 4 0.196161 0.432266 0.466836
636 4 0.208411 0.480695 0.464528
634 2 0.202286 0.456481 0.465682
668 4 0.327788 0.486664 0.42667
4 3 0.321591 0.490544 0.445349
586 2 0.400697 0.433754 0.477956
588 4 0.39649 0.444728 0.455886
238 2 0.409816 0.439506 0.422545
239 4 0.413197 0.448557 0.445606
1184 4 0.0017442 0.0127347 0.558922
342 4 0.165549 0.0526021 0.539912
1152 4 0.148275 0.063046 0.539685
1150 2 0.152841 0.0660616 0.564082
1151 4 0.157406 0.0690772 0.58848
340 2 0.176329 0.0370202 0.523597
430 2 0.322602 0.00701389 0.504988
841 2 0.362755 0.0232736 0.546815
842 4 0.376219 0.0376995 0.562171
1216 2 0.414102 0.0151174 0.567871
1217 4 0.394818 0.0309653 0.56641
843 4 0.349291 0.0088478 0.531459
3007 2 0.499343 0.0754753 0.590416
879 4 0.0495803 0.160671 0.529342
877 2 0.0245907 0.1607 0.528506
878 4 0.999601 0.160728 0.527669
938 4 0.0632597 0.169033 0.517964
937 2 0.0727045 0.150807 0.503688
3159 4 0.461598 0.131146 0.533537
3157 2 0.461194 0.143308 0.511695
1062 4 0.477461 0.118613 0.530397
1060 2 0.489512 0.0967839 0.52855
1272 4 0.0687475 0.160679 0.534521
1270 2 0.0719392 0.174507 0.555106
1199 4 0.00332677 0.16841 0.546215
1271 4 0.0751309 0.188336 0.575692
1258 2 0.12773 0.230266 0.524479
1259 4 0.114156 0.22353 0.544367
1260 4 0.141304 0.237003 0.504591
898 2 0.292966 0.215098 0.52536
899 4 0.302474 0.20152 0.544079
857 4 0.309912 0.185544 0.552164
856 2 0.298114 0.180559 0.573637
791 4 0.321957 0.197693 0.542429
900 4 0.283457 0.228676 0.506641
790 2 0.34127 0.210852 0.551319
792 4 0.360582 0.224012 0.560209
872 4 0.371773 0.236838 0.550933
1238 4 0.361351 0.243078 0.566222
651 4 0.286788 0.325522 0.56307
812 4 0.248322 0.331869 0.509151
806 4 0.295955 0.325049 0.581106
805 2 0.311525 0.305902 0.585123
807 4 0.327095 0.286754 0.58914
871 2 0.372448 0.249167 0.529191
1237 2 0.353053 0.260539 0.582079
873 4 0.373123 0.261497 0.50745
1135 2 0.127903 0.378614 0.562183
1136 4 0.118589 0.366209 0.542573
897 4 0.157308 0.387834 0.578159
10 3 0.122266 0.360103 0.498541
9 3 0.100877 0.390937 0.501619
773 4 0.232321 0.413058 0.519144
1189 2 0.225903 0.406644 0.559945
1190 4 0.236804 0.408858 0.537552
803 4 0.239643 0.395512 0.523115
1191 4 0.215003 0.40443 0.582339
802 2 0.24756 0.371941 0.520486
649 2 0.276208 0.328479 0.540609
930 4 0.251342 0.410883 0.524404
650 4 0.265627 0.331436 0.518148
804 4 0.255478 0.34837 0.517857
925 2 0.429153 0.401607 0.515776
927 4 0.434864 0.378801 0.524288
539 4 0.0738304 0.497307 0.50461
1161 4 0.161372 0.484256 0.563127
681 4 0.0870843 0.430218 0.508731
383 4 0.0982317 0.439773 0.521961
382 2 0.120724 0.431006 0.515448
384 4 0.143216 0.422239 0.508934
569 4 0.159708 0.431794 0.51402
568 2 0.173428 0.447693 0.527591
570 4 0.187148 0.463591 0.541163
1159 2 0.177804 0.483537 0.581959
772 2 0.215019 0.419278 0.502198
928 2 0.273032 0.422122 0.529729
929 4 0.294723 0.433362 0.535055
1951 2 0.301854 0.474008 0.532226
1953 4 0.30197 0.450858 0.541674
1952 4 0.301737 0.497158 0.522779
926 4 0.423442 0.424412 0.507263
663 4 0.409123 0.43646 0.513008
587 4 0.404903 0.422781 0.500025
1001 4 0.41818 0.484543 0.558909
661 2 0.416071 0.454585 0.528769
662 4 0.423019 0.472709 0.54453
1911 4 0.427434 0.468651 0.563003
1332 4 0.437201 0.482542 0.553567
1330 2 0.45559 0.494544 0.541609
2375 4 0.151853 0.00624678 0.628473
1155 4 0.165328 0.0840831 0.598376
1058 4 0.163805 0.0224531 0.629363
1059 4 0.167617 0.0659281 0.604948
1057 2 0.165711 0.0441906 0.617156
949 2 0.272683 0.012101 0.634263
951 4 0.281037 0.0333049 0.644548
1031 4 0.277904 0.0441906 0.661057
43 3 0.443185 0.0551318 0.655327
808 2 0.489751 0.0882556 0.647466
810 4 0.482543 0.0788385 0.669478
1154 4 0.15151 0.131316 0.607252
1221 4 0.16129 0.147473 0.609143
1153 2 0.158419 0.1077 0.602814
1219 2 0.179566 0.164354 0.611637
809 4 0.496958 0.0976727 0.625453
3008 4 0.496841 0.0940104 0.60701
1245 4 0.0951313 0.183073 0.635746
1244 4 0.0912455 0.183308 0.58589
1243 2 0.0931884 0.183191 0.610818
1209 4 0.105481 0.191516 0.649706
1210 2 0.233427 0.178119 0.637252
1212 4 0.217245 0.182167 0.618625
1220 4 0.197841 0.181235 0.61413
797 4 0.193969 0.235519 0.590916
796 2 0.199817 0.216609 0.606193
798 4 0.205665 0.197698 0.621469
1211 4 0.249608 0.174072 0.655878
858 4 0.286316 0.175574 0.595111
1193 4 0.414862 0.210649 0.65879
3121 2 0.465214 0.222333 0.64241
3122 4 0.476935 0.204583 0.655555
3357 4 0.488773 0.19074 0.647055
3355 2 0.501319 0.172867 0.659234
3123 4 0.453494 0.240082 0.629266
983 4 0.0264286 0.284782 0.630129
982 2 0.0370832 0.304642 0.640955
984 4 0.0477377 0.324503 0.651782
3263 4 0.0511391 0.335109 0.667792
1239 4 0.344755 0.278 0.597936
906 4 0.45528 0.302125 0.608361
905 4 0.455244 0.259374 0.634304
904 2 0.455262 0.28075 0.621332
953 4 0.465164 0.319362 0.611594
1041 4 0.0419893 0.343634 0.653683
1039 2 0.0527071 0.361246 0.639536
1040 4 0.0634249 0.378857 0.625388
993 4 0.0531287 0.39121 0.613636
991 2 0.0416772 0.413417 0.614572
1137 4 0.137216 0.39102 0.581792
895 2 0.179557 0.394717 0.587258
896 4 0.201806 0.4016 0.596357
1028 4 0.201859 0.385946 0.659485
1027 2 0.206034 0.395055 0.636578
1029 4 0.210208 0.404165 0.61367
1172 4 0.213678 0.416592 0.598575
952 2 0.483868 0.332613 0.601608
1206 4 0.48609 0.416752 0.618633
992 4 0.0302257 0.435624 0.615509
1160 4 0.194236 0.482819 0.600792
1171 2 0.20705 0.440599 0.600789
1173 4 0.200422 0.464606 0.603002
1187 4 0.199839 0.477265 0.618475
1186 2 0.19222 0.478028 0.642277
1188 4 0.1846 0.478791 0.666079
1909 2 0.428475 0.456229 0.584678
1268 4 0.436555 0.494263 0.654258
1267 2 0.433903 0.475394 0.638069
2168 4 0.456299 0.498577 0.653801
1204 2 0.464014 0.42844 0.619745
1910 4 0.429515 0.443808 0.606353
1269 4 0.43125 0.456525 0.62188
1205 4 0.441939 0.440129 0.620857
1284 4 0.088205 0.0598674 0.701082
1282 2 0.103712 0.0764983 0.690684
2047 2 0.151467 0.00526227 0.743171
2256 4 0.190725 0.00703535 0.733227
2049 4 0.174391 0.0144033 0.739154
1201 2 0.186946 0.0490185 0.722581
1202 4 0.188082 0.0270556 0.734478
1203 4 0.185809 0.0709813 0.710685
1030 2 0.295379 0.059996 0.669423
1032 4 0.312854 0.0758015 0.677788
1005 4 0.34244 0.00945715 0.712653
1003 2 0.34293 0.0011664 0.689069
45 3 0.455395 0.0353414 0.68494
41 1 0.450228 0.056204 0.67741
1162 2 0.503606 0.0511097 0.693396
1163 4 0.48666 0.0674807 0.68503
44 3 0.468756 0.0700637 0.679151
42 3 0.433215 0.0648873 0.690228
1077 4 0.0383081 0.098124 0.744659
1075 2 0.0184251 0.0905266 0.73154
864 4 0.053893 0.111184 0.740403
909 4 0.101813 0.15331 0.696396
907 2 0.111243 0.130175 0.695385
908 4 0.120672 0.10704 0.694373
1283 4 0.119219 0.0931292 0.680286
1227 4 0.135872 0.0949377 0.690918
1225 2 0.159858 0.0919731 0.697325
851 4 0.0928916 0.160735 0.711121
1148 4 0.200645 0.0831126 0.712202
1226 4 0.183844 0.0890085 0.703731
1147 2 0.219039 0.0932467 0.725771
1149 4 0.237434 0.103381 0.73934
829 2 0.3273 0.152525 0.708223
830 4 0.304876 0.16033 0.71606
831 4 0.349724 0.144719 0.700387
1142 4 0.361173 0.155307 0.71249
1141 2 0.38322 0.167094 0.712056
1025 4 0.459511 0.135966 0.712932
3424 2 0.478669 0.107426 0.697707
3426 4 0.479509 0.0848864 0.686916
3425 4 0.477829 0.129965 0.708497
3269 4 0.47366 0.133493 0.72617
1024 2 0.441437 0.153242 0.712737
3268 2 0.485567 0.146739 0.743719
845 4 0.443438 0.117219 0.750216
852 4 0.0495116 0.180198 0.726615
1214 4 0.0317028 0.18063 0.717177
850 2 0.0712016 0.170467 0.718868
1213 2 0.011374 0.191282 0.727099
1208 4 0.0949892 0.170782 0.693986
1207 2 0.100235 0.181149 0.671846
1107 4 0.110159 0.167912 0.706487
1105 2 0.129925 0.178905 0.717146
1106 4 0.149692 0.189898 0.727805
1130 4 0.162249 0.198246 0.741914
888 4 0.256408 0.170741 0.674282
887 4 0.285832 0.165207 0.714335
978 4 0.295029 0.167986 0.730905
886 2 0.27112 0.167974 0.694308
976 2 0.296717 0.189284 0.743894
916 2 0.29291 0.244021 0.739065
1143 4 0.405266 0.178882 0.711622
1192 2 0.417479 0.197985 0.68019
1194 4 0.420095 0.185322 0.70159
1262 4 0.419879 0.188 0.721101
1261 2 0.426008 0.195303 0.744216
1026 4 0.423363 0.170519 0.712543
3262 2 0.0644002 0.330526 0.688488
3264 4 0.0776613 0.325942 0.709184
893 4 0.0811956 0.325276 0.728689
779 4 0.0930113 0.316432 0.715894
778 2 0.102258 0.298793 0.731011
780 4 0.111505 0.281153 0.746128
1065 4 0.206817 0.323097 0.70469
1063 2 0.228422 0.313791 0.696215
1064 4 0.250027 0.304486 0.687741
947 4 0.308163 0.275934 0.711715
946 2 0.287975 0.284258 0.699536
948 4 0.267787 0.292582 0.687356
917 4 0.298278 0.261193 0.721702
1008 4 0.479722 0.288123 0.709916
1006 2 0.468505 0.282991 0.731665
1007 4 0.457288 0.27786 0.753414
892 2 0.0733452 0.343823 0.743506
1067 4 0.162211 0.386495 0.713514
940 2 0.137563 0.383605 0.748797
941 4 0.148671 0.380138 0.726667
1066 2 0.175046 0.390158 0.692371
1068 4 0.187881 0.39382 0.671228
1176 4 0.13857 0.459928 0.714138
1174 2 0.157047 0.465962 0.69841
1175 4 0.175524 0.471996 0.682682
1139 4 0.294888 0.47465 0.69772
1138 2 0.308484 0.465891 0.716788
1140 4 0.32208 0.457132 0.735857
1229 4 0.326289 0.439032 0.731201
1989 4 0.32724 0.445137 0.750261
1100 4 0.38416 0.433793 0.731605
1228 2 0.34895 0.428494 0.730419
1230 4 0.371611 0.417957 0.729636
1099 2 0.404264 0.446569 0.724006
1101 4 0.424369 0.459345 0.716406
3330 4 0.441293 0.460236 0.725805
3328 2 0.457965 0.450681 0.709808
1251 4 0.428318 0.474025 0.729181
3329 4 0.474637 0.441126 0.693811
785 4 0.0312954 0.0672461 0.832368
980 4 0.430161 0.00254193 0.807925
2321 4 0.444737 0.0090999 0.797639
2322 4 0.448413 0.0517856 0.771849
2320 2 0.446575 0.0304427 0.784744
846 4 0.453522 0.0701904 0.763901
862 2 0.0611392 0.117516 0.763481
863 4 0.0683854 0.123849 0.786558
833 4 0.0686135 0.111426 0.800783
1125 4 0.0660972 0.130837 0.804896
1123 2 0.0756646 0.151736 0.814738
832 2 0.0556254 0.097932 0.817347
911 4 0.117406 0.0910665 0.827032
1257 4 0.238812 0.119573 0.751186
1255 2 0.235157 0.125276 0.775255
921 4 0.216998 0.144425 0.802239
919 2 0.202175 0.159131 0.815993
840 4 0.228715 0.138699 0.816869
1256 4 0.231501 0.130979 0.799323
838 2 0.24887 0.131729 0.82992
1113 4 0.359539 0.0675334 0.802364
1111 2 0.356941 0.0899289 0.813175
844 2 0.44848 0.0937049 0.757059
3270 4 0.497473 0.159985 0.761268
1129 2 0.163291 0.212188 0.762644
1131 4 0.164334 0.226129 0.783374
1277 4 0.164595 0.22386 0.802758
1124 4 0.0852321 0.172636 0.82458
1276 2 0.168639 0.205132 0.818823
920 4 0.187352 0.173837 0.829748
822 4 0.177297 0.236184 0.795038
977 4 0.298405 0.210582 0.756883
918 4 0.287543 0.226849 0.756428
1298 4 0.294683 0.221214 0.773012
1297 2 0.30348 0.213943 0.795259
1299 4 0.312277 0.206673 0.817506
1086 4 0.331403 0.208407 0.8268
50 3 0.399853 0.195609 0.796367
46 1 0.422363 0.198886 0.797459
49 3 0.427168 0.221512 0.795611
1043 4 0.437894 0.217592 0.778264
48 3 0.430598 0.190653 0.817528
47 3 0.4325 0.187691 0.780108
1263 4 0.432136 0.202606 0.767331
1146 4 0.49116 0.175664 0.772046
1145 4 0.447649 0.199688 0.777557
1144 2 0.469405 0.187676 0.774801
1042 2 0.444521 0.240954 0.772307
1022 4 0.443925 0.180804 0.827658
3187 2 0.99948 0.277082 0.792937
3188 4 0.00127408 0.256505 0.778846
3189 4 0.997685 0.297659 0.807028
821 4 0.204674 0.277963 0.797434
820 2 0.190985 0.257074 0.796236
1098 4 0.249593 0.336806 0.817116
1044 4 0.451148 0.264315 0.76635
1165 2 0.488903 0.273461 0.78044
1166 4 0.469566 0.268789 0.765292
3275 4 0.0148528 0.344501 0.794502
894 4 0.0654948 0.36237 0.758323
3276 4 0.0598654 0.356293 0.776185
3274 2 0.0373591 0.350397 0.785344
816 4 0.0727862 0.370479 0.774684
814 2 0.0947968 0.380294 0.781345
942 4 0.126455 0.387072 0.770928
815 4 0.116807 0.39011 0.788006
1080 4 0.136016 0.387475 0.787071
1078 2 0.151739 0.392009 0.805977
1079 4 0.167461 0.396542 0.824882
1121 4 0.179978 0.412922 0.824839
1236 4 0.260746 0.353967 0.751187
1235 4 0.253215 0.343984 0.799606
1234 2 0.25698 0.348975 0.775396
1020 4 0.400541 0.396148 0.784229
1018 2 0.390499 0.408843 0.765172
1016 4 0.392536 0.397807 0.802717