ITEM: TIMESTEP
1220000
ITEM: NUMBER OF ATOMS
4590
ITEM: BOX BOUNDS pp pp pp
-9.9985700000000008e+00 9.9985700000000008e+00
-9.9985700000000008e+00 9.9985700000000008e+00
-9.9985700000000008e+00 9.9985700000000008e+00
ITEM: ATOMS id type xs ys zs
463 2 0.0470943 0.0801339 0.0271177
465 4 0.058894 0.0591236 0.0337893
701 4 0.0781363 0.0593959 0.038867
700 2 0.0953765 0.0707905 0.0529424
702 4 0.112617 0.082185 0.0670178
566 4 0.131547 0.0746885 0.0643603
565 2 0.147344 0.0782583 0.0834101
491 4 0.283549 0.0272981 0.0491482
2264 4 0.287511 0.0273681 0.0300717
490 2 0.285089 0.00266655 0.0531596
2263 2 0.288182 0.0327621 0.00566611
745 2 0.46375 0.0471668 0.00781111
746 4 0.462397 0.0419891 0.0322352
2469 4 0.475536 0.0294733 0.0400804
2467 2 0.492837 0.0122666 0.0455398
464 4 0.0352945 0.101144 0.020446
589 2 0.00131042 0.115815 0.0813882
590 4 0.0159879 0.116849 0.0611723
827 4 0.389004 0.121641 0.00870843
866 4 0.387031 0.138327 0.998245
865 2 0.365732 0.14789 0.00719477
867 4 0.344434 0.157453 0.0161442
771 4 0.448624 0.144022 0.0674801
554 4 0.0459708 0.189552 0.0276238
553 2 0.0535052 0.208681 0.0133943
555 4 0.0610397 0.227811 0.999165
835 2 0.104796 0.231989 0.00547966
837 4 0.128493 0.239544 0.00804657
666 4 0.316627 0.216273 0.0280245
664 2 0.32299 0.1931 0.0211177
573 4 0.302753 0.229763 0.0272633
461 4 0.312484 0.227154 0.0442183
460 2 0.319318 0.23039 0.0680511
665 4 0.329353 0.169927 0.0142109
1070 4 0.41237 0.221627 0.0282083
1071 4 0.423083 0.246212 0.0704161
1012 2 0.494082 0.208535 0.0734528
1069 2 0.417726 0.23392 0.0493122
769 2 0.450366 0.16856 0.0719585
770 4 0.452107 0.193097 0.0764369
1014 4 0.470097 0.202784 0.077551
294 4 0.0637665 0.294243 0.0354826
292 2 0.0862776 0.298826 0.0453526
507 4 0.125641 0.308743 0.0442757
293 4 0.108789 0.30341 0.0552226
505 2 0.150531 0.306583 0.0432751
506 4 0.175421 0.304424 0.0422744
483 4 0.192684 0.305917 0.0504187
481 2 0.20103 0.329449 0.049087
355 2 0.296894 0.31786 0.00984106
571 2 0.307078 0.253199 0.0196998
356 4 0.306368 0.295039 0.00601738
572 4 0.311402 0.276636 0.0121363
324 4 0.440205 0.255076 0.0661981
322 2 0.446424 0.279268 0.0650739
672 4 0.447086 0.316721 0.0491402
323 4 0.452643 0.30346 0.0639498
620 4 0.0134105 0.356288 0.0671108
647 4 0.0304541 0.361667 0.0779545
287 4 0.130435 0.356432 0.00212163
609 4 0.211872 0.372862 0.0490801
607 2 0.232775 0.386431 0.0511107
482 4 0.209377 0.35298 0.0477552
357 4 0.28742 0.340681 0.0136647
252 4 0.272811 0.403483 0.0495966
608 4 0.253677 0.4 0.0531413
250 2 0.281161 0.409569 0.026828
251 4 0.289512 0.415655 0.00405945
957 4 0.389193 0.324155 0.0203307
741 4 0.400596 0.356665 0.0746403
670 2 0.45814 0.334572 0.0627167
671 4 0.469194 0.352424 0.0762932
281 4 0.483332 0.365748 0.0797367
280 2 0.477585 0.388922 0.0723127
282 4 0.471839 0.412096 0.0648886
551 4 0.103732 0.439156 0.0610808
550 2 0.0991083 0.461054 0.0722285
552 4 0.0944848 0.482952 0.0833762
244 2 0.247195 0.476804 0.0682525
246 4 0.256789 0.494266 0.0531452
272 4 0.261075 0.497219 0.0341264
271 2 0.264887 0.48077 0.0156851
523 2 0.350894 0.495812 0.051846
524 4 0.337265 0.486465 0.0330827
525 4 0.364523 0.505159 0.0706093
226 2 0.456126 0.460887 0.0341179
228 4 0.455063 0.465711 0.00960704
227 4 0.457189 0.456063 0.0586287
16 1 0.0535129 0.0622098 0.148772
20 3 0.034483 0.0518694 0.14173
1806 4 0.0825693 0.0322265 0.150904
18 3 0.0718126 0.0483962 0.145207
2576 4 0.0155171 0.0306207 0.113917
1804 2 0.0844703 0.0172791 0.130951
567 4 0.163141 0.081828 0.10246
450 4 0.176317 0.0517135 0.130313
1505 4 0.173434 0.0423846 0.146784
448 2 0.183082 0.0757526 0.131551
1504 2 0.173671 0.0367375 0.17114
652 2 0.29843 0.02295 0.116267
653 4 0.301089 0.0302216 0.0924925
654 4 0.295772 0.0156783 0.140042
557 4 0.358312 0.0756701 0.108126
296 4 0.362837 0.0652787 0.0916757
295 2 0.379952 0.0505231 0.102377
297 4 0.397067 0.0357675 0.113079
485 4 0.400541 0.0189523 0.101467
17 3 0.0564342 0.0816525 0.136831
2625 4 0.00637398 0.146146 0.15672
237 4 0.147597 0.143708 0.138257
578 4 0.136821 0.153878 0.150356
577 2 0.119269 0.136636 0.154808
579 4 0.101717 0.119393 0.15926
235 2 0.169027 0.13133 0.134694
236 4 0.190457 0.118951 0.131131
693 4 0.202513 0.111114 0.143828
449 4 0.189847 0.0997918 0.132788
691 2 0.217904 0.111383 0.163532
558 4 0.328717 0.115393 0.101278
556 2 0.343515 0.0955317 0.104702
337 2 0.0587523 0.192475 0.144203
339 4 0.0405816 0.17901 0.13354
338 4 0.076923 0.205939 0.154867
476 4 0.138787 0.197046 0.134831
475 2 0.117363 0.200524 0.147245
477 4 0.0959393 0.204002 0.159659
737 4 0.145748 0.196849 0.115817
736 2 0.159134 0.217824 0.113361
738 4 0.17252 0.238799 0.110905
462 4 0.326152 0.233627 0.0918838
255 4 0.339446 0.224103 0.104334
254 4 0.363622 0.222346 0.148074
253 2 0.351534 0.223224 0.126204
630 4 0.376987 0.213709 0.160437
628 2 0.396109 0.200878 0.150697
765 4 0.373882 0.232777 0.160522
629 4 0.415232 0.188047 0.140958
749 4 0.106837 0.312292 0.159596
352 2 0.32826 0.285171 0.137144
353 4 0.308235 0.289741 0.151402
754 2 0.289226 0.327738 0.158002
755 4 0.298316 0.304453 0.158635
278 4 0.292482 0.287052 0.162733
354 4 0.348285 0.280601 0.122886
646 2 0.0512706 0.349796 0.085091
648 4 0.072087 0.337924 0.0922275
456 4 0.0813783 0.352354 0.103143
455 4 0.126177 0.372903 0.0946832
454 2 0.103778 0.362629 0.0989131
537 4 0.216605 0.385585 0.129603
535 2 0.195942 0.385324 0.115527
536 4 0.175278 0.385062 0.101451
611 4 0.226554 0.373756 0.142973
610 2 0.250878 0.371723 0.148396
612 4 0.275202 0.369689 0.153818
756 4 0.280137 0.351022 0.157369
387 4 0.335902 0.394667 0.15288
302 4 0.337249 0.412932 0.149763
739 2 0.393233 0.36255 0.0977991
740 4 0.38587 0.368436 0.120958
15 3 0.39529 0.364207 0.137919
385 2 0.357944 0.385504 0.145442
386 4 0.379987 0.37634 0.138004
11 1 0.41295 0.362142 0.152149
12 3 0.421597 0.340893 0.15046
2651 4 0.488234 0.34748 0.0744453
14 3 0.429473 0.377434 0.146533
495 4 0.435591 0.39683 0.146267
1465 2 0.0197473 0.465373 0.135751
1466 4 0.0434029 0.473472 0.135773
1791 4 0.0529562 0.490231 0.134661
242 4 0.113484 0.487627 0.0826869
241 2 0.133438 0.499056 0.0925057
627 4 0.230345 0.455678 0.101587
625 2 0.20787 0.447094 0.094775
626 4 0.185396 0.43851 0.0879634
637 2 0.226904 0.500119 0.148318
767 4 0.24688 0.477672 0.151902
1439 4 0.184932 0.497346 0.149902
638 4 0.250981 0.495852 0.143094
245 4 0.2376 0.459343 0.0833597
766 2 0.265349 0.46087 0.153228
768 4 0.283818 0.444068 0.154554
301 2 0.319481 0.429474 0.155747
303 4 0.301712 0.446016 0.161731
660 4 0.420352 0.465006 0.133887
494 4 0.422131 0.444569 0.139906
493 2 0.428861 0.4207 0.143086
658 2 0.431619 0.47526 0.153714
2480 4 0.0170013 0.024174 0.19083
19 3 0.0518056 0.0674369 0.171315
1422 4 0.01023 0.00565692 0.194788
2479 2 0.996649 0.0341702 0.201367
673 2 0.150344 0.0709321 0.212171
675 4 0.137198 0.0638273 0.192124
674 4 0.16349 0.078037 0.232218
689 4 0.190678 0.0205396 0.194596
1506 4 0.173907 0.0310904 0.195496
688 2 0.200946 0.00305608 0.209227
21 1 0.397578 0.0149358 0.233926
25 3 0.405457 0.0328508 0.22228
759 4 0.413954 0.0495606 0.218678
757 2 0.400206 0.0694163 0.225153
22 3 0.375343 0.0182524 0.238801
351 4 0.472049 0.0332227 0.239159
349 2 0.44853 0.0338246 0.230693
350 4 0.425011 0.0344265 0.222227
380 4 0.0550813 0.0852142 0.179832
2483 4 0.00577254 0.157394 0.172865
512 4 0.0453458 0.129295 0.204311
379 2 0.0421705 0.102528 0.19243
381 4 0.0292598 0.119842 0.205028
511 2 0.0461135 0.152802 0.212799
692 4 0.233294 0.111653 0.183236
582 4 0.246601 0.123548 0.192135
722 4 0.174051 0.151673 0.23992
721 2 0.187931 0.159783 0.220769
580 2 0.269693 0.122562 0.201671
581 4 0.292786 0.121575 0.211207
30 3 0.312239 0.130121 0.212124
26 1 0.329311 0.125838 0.226575
29 3 0.320859 0.11802 0.24672
27 3 0.341006 0.145263 0.230455
28 3 0.343704 0.110125 0.217391
758 4 0.386459 0.089272 0.231629
312 4 0.476778 0.168735 0.174429
310 2 0.459008 0.152309 0.180721
311 4 0.441237 0.135883 0.187012
513 4 0.0468811 0.176308 0.221286
363 4 0.0824675 0.206444 0.173384
362 4 0.10005 0.226934 0.215476
361 2 0.0912587 0.216689 0.19443
372 4 0.115202 0.241332 0.215565
370 2 0.136698 0.247141 0.226939
392 4 0.1005 0.171423 0.248993
723 4 0.201811 0.167893 0.201619
284 4 0.280887 0.18847 0.172091
283 2 0.304505 0.180282 0.171551
285 4 0.328124 0.172093 0.17101
521 4 0.476418 0.194736 0.244689
520 2 0.493219 0.180344 0.233037
395 4 0.0676474 0.294146 0.21181
394 2 0.047788 0.291085 0.22669
396 4 0.0279286 0.288023 0.24157
750 4 0.0843095 0.296634 0.201405
748 2 0.0955735 0.304463 0.1805
371 4 0.158194 0.25295 0.238312
300 4 0.128071 0.324209 0.211917
279 4 0.269032 0.263653 0.200194
277 2 0.280757 0.275353 0.181463
308 4 0.324994 0.29007 0.237348
307 2 0.331108 0.293335 0.213325
763 2 0.386834 0.250401 0.17264
309 4 0.337221 0.296601 0.189301
764 4 0.399787 0.268024 0.184758
623 4 0.408632 0.286384 0.184752
526 2 0.485958 0.282974 0.170872
528 4 0.476116 0.290888 0.192453
622 2 0.433596 0.285934 0.186083
624 4 0.45856 0.285485 0.187413
262 2 0.0605501 0.398358 0.229971
264 4 0.039426 0.395317 0.216944
263 4 0.0816743 0.4014 0.242997
298 2 0.130251 0.345687 0.224532
299 4 0.132431 0.367165 0.237146
601 2 0.11557 0.399528 0.248498
603 4 0.135674 0.384944 0.245616
290 4 0.217514 0.406666 0.214785
13 3 0.405972 0.365686 0.173993
447 4 0.495651 0.365917 0.20601
643 2 0.49236 0.404334 0.194489
644 4 0.501445 0.38104 0.194432
289 2 0.198723 0.42235 0.20968
417 4 0.166227 0.501011 0.22845
415 2 0.172823 0.478908 0.218799
291 4 0.179931 0.438034 0.204575
416 4 0.179418 0.456804 0.209149
645 4 0.483274 0.427629 0.194547
597 4 0.480992 0.445056 0.201715
595 2 0.467005 0.465017 0.196139
596 4 0.453017 0.484978 0.190564
659 4 0.442886 0.485514 0.173541
231 4 0.43366 0.486944 0.190619
234 4 0.00127476 0.0410222 0.265155
1799 4 0.0350737 0.031625 0.321752
233 4 0.0323622 0.0288727 0.302393
1402 2 0.0737125 0.0348579 0.301457
1403 4 0.0499781 0.0344781 0.309313
232 2 0.0168185 0.0349474 0.283774
1404 4 0.097447 0.0352377 0.293601
1699 2 0.187526 0.0573071 0.305266
1701 4 0.171022 0.039153 0.300448
1700 4 0.204031 0.0754611 0.310084
23 3 0.409346 0.0126069 0.253788
697 2 0.376157 0.0357907 0.305537
699 4 0.366775 0.0248814 0.285088
1518 4 0.352904 0.00984204 0.286207
633 4 0.380953 0.0655439 0.331543
698 4 0.385539 0.0467 0.325986
743 4 0.495024 0.0432458 0.296765
744 4 0.470812 0.0236756 0.25763
742 2 0.482918 0.0334607 0.277198
478 2 0.477153 0.0531619 0.330799
479 4 0.491601 0.0563401 0.310641
398 4 0.0820395 0.152614 0.310382
390 4 0.0860369 0.172534 0.314555
546 4 0.168106 0.160699 0.255143
248 4 0.20014 0.0896575 0.325562
249 4 0.220332 0.126595 0.298568
247 2 0.210236 0.108126 0.312065
404 4 0.223258 0.142121 0.286245
403 2 0.204526 0.147675 0.270644
405 4 0.185793 0.153229 0.255042
632 4 0.362608 0.11064 0.32012
631 2 0.371781 0.0880921 0.325832
333 4 0.466475 0.144252 0.277287
393 4 0.0843118 0.179149 0.295673
544 2 0.144163 0.167862 0.254353
545 4 0.12022 0.175024 0.253563
391 2 0.0924057 0.175286 0.272333
388 2 0.105365 0.184582 0.324872
717 4 0.408791 0.229853 0.32616
331 2 0.4611 0.168671 0.27729
420 4 0.42276 0.215632 0.323605
332 4 0.455725 0.19309 0.277294
418 2 0.437044 0.21388 0.303158
419 4 0.451328 0.212128 0.282711
760 2 0.492201 0.214756 0.280749
762 4 0.468605 0.207569 0.276655
444 4 0.0427462 0.252941 0.297575
364 2 0.00139443 0.307161 0.261754
442 2 0.0354135 0.263137 0.275954
443 4 0.0280809 0.273333 0.254333
365 4 0.0128816 0.286589 0.253385
401 4 0.22153 0.282658 0.265336
400 2 0.229436 0.283793 0.28903
402 4 0.237341 0.284928 0.312723
510 4 0.232335 0.299315 0.324563
508 2 0.228789 0.323524 0.329714
345 4 0.246891 0.28688 0.330183
343 2 0.258467 0.264892 0.332964
715 2 0.407881 0.254752 0.328251
497 4 0.329082 0.281265 0.255114
498 4 0.357562 0.315831 0.277359
496 2 0.343322 0.298548 0.266236
543 4 0.416952 0.322835 0.287307
716 4 0.406972 0.279652 0.330342
541 2 0.426147 0.302337 0.298283
542 4 0.435342 0.281839 0.309258
602 4 0.0954654 0.414113 0.251379
734 4 0.143469 0.368696 0.25346
733 2 0.152878 0.36659 0.27653
735 4 0.162287 0.364483 0.299599
677 4 0.167258 0.376078 0.315963
676 2 0.187884 0.366888 0.3267
509 4 0.225243 0.347733 0.334865
728 4 0.333488 0.375842 0.320034
727 2 0.340756 0.388612 0.299804
729 4 0.348025 0.401382 0.279573
615 4 0.428592 0.337161 0.295749
613 2 0.423558 0.360721 0.302441
2538 4 0.46676 0.37869 0.316847
2536 2 0.467339 0.396262 0.299069
614 4 0.418524 0.384281 0.309133
777 4 0.0691747 0.431216 0.314575
549 4 0.0576418 0.436967 0.330621
775 2 0.0920085 0.440993 0.311711
414 4 0.129966 0.462054 0.314397
776 4 0.114842 0.45077 0.308846
412 2 0.14827 0.470513 0.329182
438 4 0.287082 0.428206 0.274439
437 4 0.327309 0.445946 0.298267
436 2 0.307195 0.437076 0.286353
2537 4 0.467918 0.413835 0.281292
2861 4 0.452981 0.465187 0.261445
2862 4 0.474979 0.420368 0.264278
2860 2 0.46398 0.442778 0.262861
1798 2 0.021609 0.0174664 0.337354
369 4 0.0752359 0.053427 0.374798
1800 4 0.0081443 0.00330785 0.352956
367 2 0.0806965 0.029053 0.375924
732 4 0.089258 0.0675074 0.381486
368 4 0.0861571 0.00467896 0.37705
605 4 0.157152 0.0502633 0.353834
604 2 0.152357 0.0669381 0.371838
606 4 0.147563 0.0836129 0.389842
256 2 0.390062 0.0522996 0.363096
257 4 0.376539 0.0497696 0.342218
258 4 0.403585 0.0548296 0.383975
424 2 0.411209 0.0435089 0.415199
426 4 0.416807 0.06052 0.39775
480 4 0.462706 0.0499838 0.350957
458 4 0.0292972 0.143182 0.383146
318 4 0.0243216 0.1348 0.364981
316 2 0.0387829 0.115524 0.371651
317 4 0.0532441 0.096248 0.37832
457 2 0.027404 0.165471 0.394318
397 2 0.0854635 0.134143 0.326883
730 2 0.0934391 0.0900338 0.371473
399 4 0.0888876 0.115672 0.343383
731 4 0.0976202 0.11256 0.36146
600 4 0.207601 0.141823 0.384639
598 2 0.199885 0.165589 0.383748
683 4 0.253828 0.119728 0.370739
682 2 0.265686 0.110351 0.390655
684 4 0.277544 0.100974 0.410571
575 4 0.395976 0.130659 0.391092
516 4 0.40584 0.137211 0.375351
708 4 0.366727 0.158439 0.37091
321 4 0.336292 0.133552 0.419108
574 2 0.411176 0.137111 0.409868
451 2 0.48209 0.15348 0.35036
514 2 0.422849 0.141473 0.357526
453 4 0.457566 0.152328 0.345624
515 4 0.439858 0.145734 0.339702
2654 4 0.0135974 0.196838 0.392615
459 4 0.0255109 0.187759 0.405491
389 4 0.124693 0.19663 0.33519
685 2 0.163906 0.200604 0.412607
687 4 0.174993 0.190378 0.392665
599 4 0.19217 0.189356 0.382856
473 4 0.233623 0.206613 0.381366
344 4 0.270042 0.242904 0.335744
378 4 0.276159 0.224223 0.335196
376 2 0.297141 0.212857 0.342664
377 4 0.318123 0.201492 0.350131
472 2 0.254482 0.206726 0.395152
474 4 0.275341 0.20684 0.408938
707 4 0.335473 0.194377 0.355667
706 2 0.3511 0.176408 0.363289
467 4 0.380489 0.195514 0.416219
305 4 0.472701 0.189637 0.419794
275 4 0.147384 0.315621 0.405402
274 2 0.167967 0.307496 0.39376
616 2 0.116986 0.328112 0.418551
374 4 0.230124 0.25056 0.390779
276 4 0.18855 0.299371 0.382119
373 2 0.209845 0.264743 0.387203
375 4 0.189566 0.278926 0.383627
561 4 0.494321 0.326877 0.377891
406 2 0.028902 0.387483 0.385536
407 4 0.0466318 0.399853 0.372974
548 4 0.0353154 0.400648 0.356759
408 4 0.0111723 0.375113 0.398099
347 4 0.0774131 0.333894 0.41003
617 4 0.141654 0.331982 0.417245
678 4 0.208509 0.357697 0.337438
435 4 0.225311 0.367035 0.333752
504 4 0.250447 0.390294 0.403005
434 4 0.270484 0.388354 0.336134
433 2 0.247897 0.377694 0.334943
503 4 0.295001 0.412987 0.403872
334 2 0.329072 0.401765 0.407426
502 2 0.272724 0.40164 0.403438
335 4 0.346574 0.384499 0.402871
240 4 0.364271 0.377324 0.408589
753 4 0.475277 0.370145 0.332768
752 4 0.480701 0.339423 0.37185
751 2 0.477989 0.354784 0.352309
547 2 0.0464786 0.418807 0.34369
413 4 0.166573 0.478972 0.343967
500 4 0.165905 0.483761 0.362223
1545 4 0.230115 0.482459 0.348767
1543 2 0.205796 0.477944 0.35242
1544 4 0.181476 0.47343 0.356073
1436 4 0.233425 0.500058 0.340342
336 4 0.31157 0.419031 0.411982
669 4 0.300848 0.431523 0.402983
594 4 0.393379 0.452142 0.34891
592 2 0.41508 0.456656 0.33734
593 4 0.436782 0.46117 0.32577
1524 4 0.0624439 0.00736824 0.458664
1126 2 0.00917453 0.0500498 0.490474
720 4 0.0288026 0.0683018 0.460582
2237 4 0.0360418 0.0511779 0.455571
2236 2 0.0308312 0.030261 0.442902
1127 4 0.0231976 0.0515366 0.469826
2238 4 0.0256206 0.00934406 0.430233
1522 2 0.063727 0.00698556 0.483632
2428 2 0.229191 0.00905758 0.486765
2430 4 0.215647 0.0295134 0.481938
726 4 0.316395 0.0475441 0.444835
724 2 0.309198 0.036875 0.466272
725 4 0.302 0.0262058 0.487709
963 4 0.301775 0.00842686 0.495358
425 4 0.40561 0.0264979 0.432648
1580 4 0.398751 0.0116876 0.421748
2878 2 0.477475 0.0634327 0.480825
718 2 0.0274502 0.0925117 0.45448
719 4 0.0260978 0.116722 0.448379
1033 2 0.110435 0.141666 0.478843
1035 4 0.104516 0.153603 0.457684
1182 4 0.261091 0.10487 0.47647
320 4 0.292867 0.108782 0.417926
1180 2 0.26928 0.104061 0.452859
1181 4 0.277469 0.103252 0.429249
319 2 0.314579 0.121167 0.418517
411 4 0.279032 0.157761 0.471327
3157 2 0.487136 0.154753 0.473218
2880 4 0.473043 0.0812517 0.463854
642 4 0.463143 0.0975554 0.458747
640 2 0.453161 0.116713 0.446156
641 4 0.443179 0.13587 0.433565
306 4 0.440179 0.155219 0.435869
576 4 0.426376 0.143563 0.428643
3159 4 0.493371 0.131156 0.478647
471 4 0.0518547 0.228771 0.504442
469 2 0.0402345 0.209575 0.493412
470 4 0.0286143 0.190379 0.482383
686 4 0.152819 0.21083 0.43255
260 4 0.133019 0.20915 0.434574
261 4 0.116533 0.169616 0.460381
259 2 0.124776 0.189383 0.447477
695 4 0.142342 0.220742 0.446084
694 2 0.138016 0.241657 0.459087
488 4 0.28628 0.208585 0.426413
487 2 0.297698 0.220498 0.445198
489 4 0.309117 0.232412 0.463982
409 2 0.280782 0.181219 0.479801
410 4 0.282532 0.204678 0.488275
900 4 0.29175 0.223922 0.490233
468 4 0.37022 0.241856 0.431956
466 2 0.375354 0.218685 0.424087
3158 4 0.480901 0.17835 0.467789
304 2 0.45644 0.172428 0.427832
585 4 0.448216 0.242855 0.473427
348 4 0.0522475 0.333777 0.453243
326 4 0.0615819 0.334478 0.4704
618 4 0.0923184 0.324242 0.419857
1260 4 0.123698 0.274295 0.48378
696 4 0.133691 0.262571 0.472089
811 2 0.251793 0.286334 0.491961
813 4 0.252185 0.268421 0.474521
266 4 0.309394 0.264825 0.44149
265 2 0.333558 0.261154 0.436221
267 4 0.357723 0.257482 0.430951
2455 2 0.493761 0.303066 0.488217
2456 4 0.484991 0.301217 0.464875
584 4 0.471048 0.286542 0.465006
583 2 0.459632 0.264699 0.469217
2813 4 0.99257 0.398565 0.446286
346 2 0.0648303 0.333836 0.431636
325 2 0.074687 0.348983 0.48599
681 4 0.0661481 0.417493 0.442509
10 3 0.135319 0.361028 0.471459
7 3 0.104856 0.369102 0.491453
6 1 0.127844 0.369872 0.491069
8 3 0.134639 0.391984 0.492882
711 4 0.144807 0.401672 0.479649
327 4 0.087792 0.363487 0.501581
709 2 0.169146 0.406746 0.482301
710 4 0.193486 0.41182 0.484953
774 4 0.212966 0.413146 0.485492
239 4 0.392078 0.404739 0.439829
238 2 0.378174 0.391031 0.424209
588 4 0.388114 0.402883 0.459552
586 2 0.388498 0.410902 0.483231
1383 4 0.0300667 0.477041 0.437054
679 2 0.0522832 0.438118 0.439761
1381 2 0.0475524 0.494912 0.437307
680 4 0.0384183 0.458743 0.437012
539 4 0.0953866 0.466915 0.48502
384 4 0.134811 0.427067 0.449419
382 2 0.110527 0.422439 0.445668
568 2 0.14286 0.465485 0.463199
569 4 0.145559 0.442352 0.454104
570 4 0.14016 0.488619 0.472295
383 4 0.0862438 0.417812 0.441918
636 4 0.213672 0.461613 0.450721
635 4 0.203015 0.416503 0.469489
634 2 0.208343 0.439058 0.460105
667 2 0.300786 0.453275 0.415314
668 4 0.300724 0.475027 0.427644
4 3 0.318748 0.484253 0.429847
5 3 0.286344 0.502985 0.433941
880 2 0.344834 0.497069 0.486914
1523 4 0.06501 0.00660288 0.508599
1057 2 0.121523 0.0703701 0.575835
2374 2 0.112478 0.0110466 0.577428
1058 4 0.107968 0.0511421 0.584303
340 2 0.200561 0.0527474 0.506077
342 4 0.189331 0.0743493 0.51177
1152 4 0.170195 0.0736112 0.51108
341 4 0.211792 0.0311455 0.500384
430 2 0.326461 0.0324747 0.519253
431 4 0.336319 0.0441558 0.53904
432 4 0.316603 0.0207936 0.499465
843 4 0.347714 0.0598371 0.534381
1217 4 0.406096 0.0411066 0.534142
1216 2 0.410276 0.0165582 0.536396
842 4 0.395948 0.0537222 0.546075
841 2 0.371831 0.0567796 0.540228
3009 4 0.495762 0.0749596 0.566539
2879 4 0.481907 0.0456136 0.497796
879 4 0.0663754 0.154462 0.557144
1272 4 0.0834693 0.156756 0.56507
938 4 0.081291 0.145184 0.549016
937 2 0.0951693 0.132418 0.532596
1151 4 0.140315 0.0870909 0.548845
1059 4 0.135079 0.089598 0.567367
1155 4 0.149668 0.0999233 0.559583
939 4 0.109047 0.119653 0.516176
1150 2 0.155255 0.080351 0.529962
1153 2 0.16029 0.117904 0.573332
1034 4 0.116354 0.12973 0.500001
878 4 0.0354487 0.186867 0.534914
1199 4 0.0170128 0.196792 0.537494
877 2 0.0509121 0.170664 0.546029
857 4 0.294684 0.217532 0.55803
856 2 0.277128 0.215285 0.575692
898 2 0.295822 0.222357 0.514854
791 4 0.304162 0.234255 0.553303
899 4 0.299894 0.220792 0.539474
871 2 0.390048 0.236537 0.549113
872 4 0.37402 0.231414 0.530619
873 4 0.406077 0.24166 0.567607
3353 4 0.00974735 0.254521 0.533268
3352 2 0.00607177 0.275248 0.519776
1259 4 0.121391 0.297049 0.528251
1258 2 0.122545 0.285672 0.506015
649 2 0.232475 0.297735 0.541924
651 4 0.222344 0.282791 0.559222
650 4 0.242605 0.31268 0.524626
804 4 0.249623 0.323869 0.510083
790 2 0.314744 0.256164 0.559065
812 4 0.2514 0.304247 0.509401
792 4 0.325326 0.278073 0.564827
1238 4 0.316565 0.292115 0.576495
1237 2 0.333685 0.310333 0.576954
1239 4 0.350804 0.328551 0.577412
1009 2 0.501042 0.310708 0.551927
1010 4 0.496095 0.299443 0.53016
935 4 0.0098771 0.401063 0.53957
1135 2 0.135681 0.405599 0.555375
9 3 0.13606 0.357569 0.508945
897 4 0.159243 0.378035 0.577274
1137 4 0.143797 0.384637 0.566325
1189 2 0.231296 0.384853 0.555016
773 4 0.243961 0.389261 0.516629
1190 4 0.241623 0.379966 0.532775
772 2 0.228463 0.401204 0.50106
1191 4 0.220968 0.389741 0.577256
802 2 0.252187 0.348276 0.514871
803 4 0.254751 0.372683 0.519659
930 4 0.258907 0.388745 0.528898
928 2 0.281033 0.397909 0.536085
929 4 0.303159 0.407072 0.543272
927 4 0.379756 0.373208 0.545581
925 2 0.387018 0.395001 0.535705
926 4 0.394279 0.416794 0.52583
1136 4 0.127564 0.42656 0.544425
538 2 0.103916 0.485797 0.499016
1161 4 0.157641 0.480557 0.56278
2243 4 0.155462 0.497631 0.553769
1159 2 0.175051 0.474588 0.579705
889 2 0.299776 0.467317 0.564467
890 4 0.317253 0.476187 0.579993
891 4 0.282298 0.458447 0.548942
1953 4 0.357049 0.465389 0.553216
1951 2 0.360575 0.467104 0.528522
881 4 0.358641 0.488888 0.506087
1000 2 0.410907 0.493465 0.535022
1952 4 0.364101 0.46882 0.503828
663 4 0.407113 0.423002 0.512321
587 4 0.388882 0.418921 0.506911
1001 4 0.431181 0.478875 0.536154
662 4 0.434113 0.461666 0.528958
661 2 0.420613 0.442334 0.52064
1911 4 0.435326 0.464089 0.548365
1909 2 0.438613 0.459942 0.572802
1332 4 0.449128 0.470668 0.536606
1330 2 0.467212 0.487872 0.535117
2319 4 0.0485625 0.00197314 0.628531
943 2 0.074078 0.00386732 0.657713
2375 4 0.105366 0.0317023 0.58959
825 4 0.111212 0.0157549 0.655425
950 4 0.317861 0.0334533 0.612416
949 2 0.297025 0.0466036 0.60816
951 4 0.276189 0.0597539 0.603903
1031 4 0.279926 0.0751587 0.616316
1092 4 0.327247 0.995016 0.653713
45 3 0.438867 0.0691544 0.649556
41 1 0.439178 0.0795093 0.669837
3179 4 0.0355215 0.146379 0.660388
1083 4 0.0224297 0.132719 0.66318
3178 2 0.0177408 0.162693 0.653841
1284 4 0.159801 0.085725 0.645102
1270 2 0.0887733 0.160333 0.589242
1154 4 0.170913 0.135885 0.587081
1032 4 0.246451 0.108837 0.631997
1221 4 0.182001 0.135656 0.604046
1219 2 0.193258 0.155198 0.614842
1030 2 0.263189 0.0919981 0.624157
808 2 0.489087 0.0826211 0.645287
43 3 0.429852 0.100682 0.66806
810 4 0.474008 0.0833993 0.665216
1243 2 0.053865 0.203932 0.640295
1244 4 0.0623343 0.187315 0.623641
1245 4 0.0453957 0.220549 0.656948
1271 4 0.0940774 0.163909 0.613413
1212 4 0.223943 0.175408 0.627354
1220 4 0.204515 0.17474 0.625639
796 2 0.200947 0.210411 0.620065
798 4 0.213903 0.191414 0.629888
797 4 0.187992 0.229407 0.610243
1210 2 0.247542 0.175852 0.635602
858 4 0.259573 0.213038 0.593353
1211 4 0.271142 0.176297 0.643851
888 4 0.288755 0.169591 0.653455
3121 2 0.495163 0.234328 0.654824
905 4 0.465769 0.252303 0.626363
3123 4 0.478752 0.24458 0.638988
983 4 0.0272453 0.304292 0.605022
982 2 0.0344885 0.320918 0.622235
3263 4 0.0433256 0.330794 0.657184
947 4 0.229552 0.279924 0.634672
946 2 0.238765 0.281943 0.657828
906 4 0.422609 0.272218 0.61083
904 2 0.444189 0.26226 0.618596
952 2 0.482893 0.32301 0.603654
953 4 0.461201 0.318845 0.615371
984 4 0.0417317 0.337544 0.639448
1041 4 0.0454693 0.349392 0.654406
1039 2 0.060672 0.36635 0.644086
1040 4 0.0758747 0.383307 0.633765
993 4 0.0701555 0.401877 0.630369
895 2 0.182355 0.385763 0.582868
896 4 0.205467 0.393491 0.588462
1172 4 0.216907 0.408441 0.581694
807 4 0.320972 0.340339 0.649148
1206 4 0.452147 0.39625 0.654254
992 4 0.0631281 0.450235 0.619747
991 2 0.0666418 0.426056 0.625058
1160 4 0.19246 0.468619 0.59663
1173 4 0.207012 0.456364 0.591996
1171 2 0.211959 0.432403 0.586845
1188 4 0.195799 0.495297 0.648172
1187 4 0.20605 0.464131 0.610433
1186 2 0.200925 0.479714 0.629302
1204 2 0.450096 0.421166 0.654645
1910 4 0.441899 0.455794 0.597239
1269 4 0.445381 0.457492 0.639201
1267 2 0.435435 0.480363 0.640991
1205 4 0.448045 0.446082 0.655036
1077 4 0.0361854 0.0849945 0.747238
944 4 0.0958192 0.010609 0.66806
2255 4 0.218558 0.0374153 0.72735
2254 2 0.202183 0.0254495 0.741974
1147 2 0.205896 0.0796059 0.747201
1149 4 0.230724 0.0778831 0.749605
1004 4 0.328085 0.0116282 0.731569
1003 2 0.3429 0.0311327 0.736597
1005 4 0.357715 0.0506371 0.741624
1163 4 0.477646 0.0742132 0.681314
1162 2 0.491935 0.0579392 0.693811
42 3 0.426833 0.0671806 0.684829
1081 2 0.0299762 0.111002 0.673009
1082 4 0.0375226 0.0892853 0.682838
1076 4 0.0312941 0.0984101 0.699313
1075 2 0.0337398 0.0917023 0.723276
850 2 0.0674432 0.145488 0.733168
852 4 0.0440075 0.142006 0.741156
1282 2 0.146838 0.0915492 0.665674
909 4 0.0994085 0.152728 0.708656
907 2 0.110254 0.131241 0.701883
908 4 0.1211 0.109755 0.69511
1283 4 0.133875 0.0973735 0.686247
1227 4 0.13817 0.104893 0.703598
851 4 0.0908789 0.148971 0.725179
1225 2 0.152383 0.0999878 0.723576
1107 4 0.110377 0.153109 0.724748
1105 2 0.122718 0.161796 0.744683
1226 4 0.166596 0.0950831 0.743554
830 4 0.315876 0.148912 0.711235
978 4 0.299122 0.1579 0.715456
887 4 0.308784 0.161567 0.698569
831 4 0.363142 0.134229 0.718384
1141 2 0.401232 0.156289 0.718278
829 2 0.339509 0.141571 0.714809
1142 4 0.380178 0.14291 0.71657
44 3 0.460992 0.0810865 0.677587
1025 4 0.48017 0.15458 0.697274
3424 2 0.481324 0.115146 0.688896
3426 4 0.472757 0.0928391 0.681535
1024 2 0.457867 0.1647 0.702307
3425 4 0.48989 0.137453 0.696258
3269 4 0.495525 0.151262 0.709182
1209 4 0.0628156 0.223024 0.667974
1215 4 0.00566819 0.195146 0.74051
1213 2 0.0210976 0.176275 0.746076
1207 2 0.0824299 0.234962 0.677871
1208 4 0.102044 0.246899 0.687768
886 2 0.29877 0.165579 0.676012
976 2 0.300309 0.1775 0.730935
1194 4 0.392117 0.213557 0.710493
1193 4 0.361903 0.252877 0.704033
1192 2 0.37701 0.233217 0.707263
1143 4 0.422286 0.169667 0.719986
1026 4 0.435564 0.174821 0.70734
1261 2 0.4387 0.200645 0.739628
1262 4 0.42871 0.188571 0.720144
1179 4 0.0015242 0.260386 0.745854
3262 2 0.0381586 0.323545 0.680549
3264 4 0.0329915 0.316295 0.703914
779 4 0.0498282 0.316494 0.712896
893 4 0.0348888 0.327932 0.719443
778 2 0.0692703 0.315717 0.728599
780 4 0.0887125 0.31494 0.744301
821 4 0.120831 0.275099 0.747203
1064 4 0.238134 0.271095 0.691519
948 4 0.247978 0.283962 0.680985
1065 4 0.231322 0.274404 0.74095
1063 2 0.234728 0.27275 0.716235
805 2 0.32617 0.324412 0.667708
917 4 0.280984 0.253689 0.744826
806 4 0.331368 0.308485 0.686268
892 2 0.0254389 0.35032 0.725328
894 4 0.015989 0.372709 0.731212
3276 4 0.00269526 0.383554 0.739225
814 2 0.0441203 0.394901 0.748275
816 4 0.0214923 0.385024 0.744326
1066 2 0.157494 0.410011 0.704496
1068 4 0.172562 0.397809 0.688708
942 4 0.0860993 0.410647 0.750745
1029 4 0.232994 0.417554 0.664387
1027 2 0.212394 0.408165 0.675001
1028 4 0.191794 0.398777 0.685615
1019 4 0.390778 0.397389 0.723806
1018 2 0.387188 0.398291 0.748534
1008 4 0.414215 0.331344 0.727978
1279 2 0.0355818 0.496162 0.692603
1280 4 0.0605509 0.496601 0.693839
1281 4 0.0106127 0.495722 0.691366
1067 4 0.142426 0.422213 0.720284
940 2 0.109631 0.415579 0.743879
941 4 0.133162 0.420511 0.737013
1174 2 0.183149 0.499742 0.679446
1176 4 0.176518 0.487702 0.700332
1140 4 0.295332 0.478524 0.697664
1138 2 0.291849 0.454901 0.705081
1139 4 0.288367 0.431278 0.712497
1230 4 0.391988 0.475984 0.717432
1228 2 0.381384 0.466452 0.737972
1100 4 0.407982 0.463995 0.71738
1101 4 0.457529 0.47076 0.717638
1099 2 0.432756 0.467377 0.717509
1251 4 0.459736 0.462488 0.735127
3330 4 0.470649 0.456315 0.719535
3328 2 0.487899 0.442247 0.708147
1201 2 0.159418 0.0564788 0.761869
2047 2 0.159758 8.10434e-06 0.769248
1202 4 0.15476 0.0330732 0.76933
1203 4 0.164075 0.0798844 0.754407
1148 4 0.181068 0.0813288 0.744796
2049 4 0.170154 0.0225534 0.766279
2256 4 0.185808 0.0134836 0.756598
2321 4 0.465973 0.00964331 0.777165
2322 4 0.465716 0.0557001 0.796644
2320 2 0.465845 0.0326717 0.786905
846 4 0.470575 0.0736429 0.788754
980 4 0.440941 0.0168736 0.827373
1214 4 0.0365271 0.157403 0.751642
864 4 0.044082 0.0857289 0.765042
862 2 0.0413478 0.104536 0.781289
863 4 0.0386135 0.123344 0.797537
832 2 0.0112025 0.120392 0.827905
833 4 0.0246729 0.13109 0.809759
1125 4 0.0426774 0.137159 0.80986
1123 2 0.048719 0.161389 0.811115
31 1 0.121576 0.142436 0.823524
35 3 0.139583 0.130315 0.816634
33 3 0.108985 0.14903 0.805184
1257 4 0.244068 0.0920678 0.754722
1255 2 0.25881 0.10013 0.773238
1256 4 0.273552 0.108192 0.791754
840 4 0.273795 0.114297 0.810281
838 2 0.292186 0.121305 0.825704
1112 4 0.371756 0.0985627 0.831723
844 2 0.4785 0.0966024 0.79469
845 4 0.486426 0.119562 0.800625
1177 2 0.999267 0.235538 0.747475
1124 4 0.0547607 0.18562 0.81237
1072 2 0.0630582 0.23884 0.768744
1073 4 0.0418008 0.227278 0.762449
1106 4 0.135058 0.170484 0.764619
1130 4 0.140467 0.186997 0.756889
1129 2 0.146501 0.208879 0.767375
1131 4 0.152534 0.230761 0.777862