ITEM: TIMESTEP
550000
ITEM: NUMBER OF ATOMS
4590
ITEM: BOX BOUNDS pp pp pp
-9.9985700000000008e+00 9.9985700000000008e+00
-9.9985700000000008e+00 9.9985700000000008e+00
-9.9985700000000008e+00 9.9985700000000008e+00
ITEM: ATOMS id type xs ys zs
463 2 0.0392247 0.0613826 0.0357353
464 4 0.0153757 0.0555328 0.0310252
1667 4 0.0915315 0.012739 0.070638
492 4 0.263019 0.994198 0.0698771
490 2 0.270254 0.0102028 0.052082
491 4 0.27749 0.0262079 0.0342868
296 4 0.371714 0.0383329 0.07665
557 4 0.359732 0.0534556 0.071589
1608 4 0.399893 0.00382621 0.0171694
556 2 0.34138 0.069322 0.0655359
745 2 0.464239 0.060518 0.0174964
2469 4 0.484204 0.0357424 0.0388824
465 4 0.0630737 0.0672324 0.0404455
701 4 0.0707461 0.0772507 0.023114
589 2 0.0295322 0.126179 0.0657441
591 4 0.0202972 0.107426 0.0520259
590 4 0.0387672 0.144933 0.0794623
3234 4 0.0235835 0.145833 0.00475477
700 2 0.0930379 0.083176 0.0327651
702 4 0.11533 0.0891014 0.0424161
566 4 0.134593 0.0941916 0.0438106
565 2 0.142838 0.117797 0.0437528
567 4 0.151082 0.141402 0.0436951
423 4 0.098086 0.160757 0.0181979
360 4 0.26513 0.128803 0.0141287
558 4 0.323028 0.0851885 0.0594828
746 4 0.477147 0.0669879 0.0379095
770 4 0.447447 0.143089 0.0675992
769 2 0.46474 0.159602 0.0749112
553 2 0.0478686 0.216163 0.0044404
836 4 0.0786138 0.22873 0.0164468
555 4 0.0612006 0.222811 0.0245212
835 2 0.103196 0.224903 0.0139511
837 4 0.127779 0.221077 0.0114553
571 2 0.334852 0.253303 0.0381379
461 4 0.327169 0.215945 0.0590321
573 4 0.333931 0.231341 0.0500544
666 4 0.321274 0.220456 0.0405409
664 2 0.320885 0.197515 0.0306049
324 4 0.384252 0.245667 0.0875259
322 2 0.405267 0.254372 0.0771439
665 4 0.320496 0.174573 0.0206689
771 4 0.482032 0.176115 0.0822232
1014 4 0.471033 0.224491 0.00685957
2808 4 0.00447203 0.289679 0.00603726
292 2 0.139856 0.307786 0.0396904
293 4 0.162031 0.296681 0.0428735
294 4 0.117681 0.318892 0.0365073
507 4 0.161932 0.301056 0.0628512
505 2 0.183472 0.303848 0.0752374
355 2 0.245352 0.267819 0.0220734
357 4 0.233984 0.281857 0.0393614
506 4 0.205012 0.30664 0.0876237
572 4 0.335774 0.275265 0.0262213
609 4 0.280311 0.327784 0.085497
482 4 0.264134 0.318437 0.0779112
356 4 0.256721 0.253781 0.00478554
1071 4 0.39702 0.24543 0.0278344
1069 2 0.407584 0.265224 0.016798
1070 4 0.418147 0.285018 0.00576168
741 4 0.345079 0.317345 0.0805788
519 4 0.486392 0.273639 0.079318
670 2 0.451716 0.322949 0.0727007
323 4 0.426282 0.263076 0.0667619
328 2 0.995411 0.42055 0.0602471
286 2 0.158016 0.385029 0.00713555
287 4 0.159382 0.372783 0.0288919
251 4 0.265598 0.402463 0.0252339
252 4 0.294778 0.376457 0.0564245
250 2 0.280188 0.38946 0.0408292
608 4 0.295173 0.374693 0.0765884
607 2 0.287742 0.351239 0.0810427
281 4 0.468067 0.348376 0.0424405
671 4 0.467247 0.334763 0.0570677
280 2 0.475366 0.369542 0.0313094
282 4 0.482665 0.390708 0.0201783
330 4 0.00795631 0.440664 0.0681984
551 4 0.0698237 0.438495 0.0264
550 2 0.0870661 0.432766 0.0435773
552 4 0.104308 0.427037 0.0607546
627 4 0.218914 0.460385 0.0597609
625 2 0.202019 0.446188 0.0715158
245 4 0.235764 0.4653 0.0709964
626 4 0.185124 0.431991 0.0832706
244 2 0.243792 0.482332 0.0545454
246 4 0.251821 0.499364 0.0380945
272 4 0.262266 0.496649 0.0219647
271 2 0.282363 0.484016 0.0141104
524 4 0.319805 0.47346 0.0866485
273 4 0.302459 0.471382 0.00625625
227 4 0.465979 0.462511 0.0726115
226 2 0.471224 0.446547 0.0540963
563 4 0.441065 0.450949 0.998736
228 4 0.476468 0.430582 0.035581
562 2 0.44343 0.475832 0.998099
20 3 0.0428172 0.0788509 0.149491
1806 4 0.0953113 0.0113413 0.145401
1506 4 0.197975 0.00930006 0.152561
1505 4 0.226055 0.0450403 0.173414
1504 2 0.212015 0.0271702 0.162987
652 2 0.29855 0.00965299 0.153686
653 4 0.293746 0.0336261 0.148453
295 2 0.364715 0.020193 0.0923707
297 4 0.357716 0.00205299 0.108091
758 4 0.401948 0.0551979 0.159213
2724 4 0.493593 0.00758304 0.139933
2722 2 0.501646 0.0309201 0.143898
237 4 0.139003 0.141252 0.143151
235 2 0.155855 0.125631 0.153009
236 4 0.172707 0.11001 0.162867
449 4 0.183441 0.0944789 0.163022
693 4 0.191928 0.112214 0.15983
337 2 0.066861 0.232259 0.143896
339 4 0.0442597 0.24295 0.144147
2625 4 0.996653 0.180739 0.11675
338 4 0.0894624 0.221568 0.143646
476 4 0.143612 0.216574 0.130461
475 2 0.11928 0.221827 0.128112
477 4 0.0949474 0.22708 0.125762
737 4 0.161545 0.224876 0.133726
363 4 0.097478 0.221669 0.162108
738 4 0.20665 0.240427 0.118744
736 2 0.184098 0.232651 0.126235
285 4 0.252248 0.202539 0.161594
283 2 0.269867 0.188665 0.172652
460 2 0.336252 0.215963 0.0823275
630 4 0.41211 0.178142 0.112116
254 4 0.401659 0.190745 0.101206
255 4 0.35441 0.198816 0.115456
462 4 0.345335 0.21598 0.105623
253 2 0.378035 0.19478 0.108331
629 4 0.459337 0.187964 0.125303
628 2 0.435723 0.183053 0.118709
619 2 0.999461 0.329167 0.114718
483 4 0.221664 0.299254 0.0960489
481 2 0.242899 0.308845 0.0869801
354 4 0.280948 0.256391 0.100481
352 2 0.278768 0.269054 0.121931
353 4 0.276587 0.281716 0.143381
754 2 0.295406 0.318062 0.149662
755 4 0.290036 0.293646 0.150077
278 4 0.278529 0.283836 0.162278
672 4 0.436186 0.311135 0.0883338
620 4 0.0167428 0.346881 0.111152
647 4 0.0365267 0.351415 0.111711
646 2 0.0480454 0.350266 0.133873
648 4 0.0595642 0.349117 0.156036
456 4 0.109999 0.355373 0.0847292
455 4 0.113016 0.402229 0.101938
454 2 0.111508 0.378801 0.0933334
537 4 0.174433 0.350781 0.137934
535 2 0.198001 0.356074 0.144395
536 4 0.221568 0.361366 0.150856
756 4 0.300776 0.342479 0.149246
612 4 0.284153 0.355362 0.145999
610 2 0.269091 0.362671 0.16457
387 4 0.328816 0.371792 0.161666
739 2 0.35219 0.339069 0.0907112
740 4 0.359301 0.360793 0.100844
15 3 0.370751 0.364687 0.115732
385 2 0.33993 0.367333 0.139717
386 4 0.351044 0.362874 0.117767
11 1 0.392727 0.367654 0.120917
13 3 0.40338 0.347087 0.122305
14 3 0.394646 0.378946 0.141096
12 3 0.402785 0.38014 0.104422
495 4 0.395011 0.400068 0.143638
645 4 0.465578 0.383589 0.144691
597 4 0.475386 0.400689 0.146103
643 2 0.459805 0.374462 0.167242
315 4 8.44179e-05 0.449825 0.124506
638 4 0.274852 0.504728 0.145505
523 2 0.341139 0.460994 0.0904787
525 4 0.362472 0.448528 0.0943088
658 2 0.38246 0.481031 0.144036
493 2 0.39194 0.422409 0.132839
660 4 0.392147 0.463396 0.129193
494 4 0.388869 0.44475 0.12204
595 2 0.483138 0.422714 0.155049
19 3 0.0128272 0.0801978 0.172216
16 1 0.0353462 0.0748341 0.170626
18 3 0.0385735 0.0525065 0.176054
1404 4 0.0755124 0.0248782 0.244246
2480 4 0.00420616 0.0188695 0.163621
450 4 0.157599 0.0521562 0.16948
448 2 0.17052 0.0733176 0.166251
673 2 0.115679 0.0723446 0.223958
674 4 0.138221 0.0831514 0.224423
675 4 0.0931359 0.0615379 0.223494
28 3 0.313158 0.0777884 0.224658
21 1 0.373355 0.026852 0.221518
24 3 0.358891 0.0105738 0.213505
25 3 0.375507 0.0435601 0.206193
759 4 0.383011 0.0627227 0.20488
757 2 0.39248 0.0589603 0.182046
22 3 0.36474 0.0355124 0.24101
23 3 0.394111 0.0174956 0.225996
742 2 0.487392 0.0183352 0.246622
744 4 0.467598 0.0332807 0.243456
379 2 0.00443572 0.121408 0.171039
17 3 0.0471605 0.0878724 0.185444
381 4 0.00812447 0.145838 0.174875
511 2 0.0277995 0.161501 0.201745
512 4 0.0156644 0.163265 0.179955
513 4 0.0399345 0.159736 0.223535
578 4 0.073983 0.140483 0.187589
579 4 0.116262 0.120217 0.170196
577 2 0.0951225 0.13035 0.178892
691 2 0.215568 0.110929 0.167872
692 4 0.239208 0.109644 0.175915
723 4 0.200254 0.128967 0.215627
721 2 0.199637 0.142817 0.236435
582 4 0.251656 0.111901 0.191373
580 2 0.2715 0.118515 0.205072
581 4 0.291343 0.12513 0.218771
30 3 0.308731 0.115116 0.222482
26 1 0.31548 0.0979713 0.235868
27 3 0.337621 0.100918 0.24137
312 4 0.417441 0.151291 0.177827
310 2 0.426473 0.133983 0.19345
311 4 0.435504 0.116676 0.209073
362 4 0.119609 0.227079 0.206624
361 2 0.108543 0.224374 0.184366
372 4 0.128997 0.237484 0.220086
370 2 0.151712 0.247889 0.221055
284 4 0.287486 0.174791 0.183709
307 2 0.30861 0.249421 0.204922
763 2 0.380385 0.235359 0.188285
765 4 0.380494 0.210378 0.187228
308 4 0.316961 0.242678 0.227504
395 4 0.0508093 0.295818 0.224617
394 2 0.0364078 0.279865 0.237394
750 4 0.0669331 0.307114 0.222647
396 4 0.0220063 0.263911 0.250172
748 2 0.0876965 0.293278 0.221026
749 4 0.10846 0.279442 0.219406
371 4 0.174427 0.258294 0.222025
279 4 0.23788 0.27987 0.191134
277 2 0.258205 0.281853 0.176706
309 4 0.300259 0.256165 0.182339
764 4 0.380277 0.26034 0.189341
623 4 0.396194 0.272839 0.19197
622 2 0.405117 0.291117 0.177429
528 4 0.449238 0.249047 0.223534
624 4 0.41404 0.309396 0.162887
527 4 0.479284 0.270003 0.189493
526 2 0.464261 0.259525 0.206513
300 4 0.153997 0.32863 0.23615
298 2 0.142835 0.349512 0.244183
602 4 0.0854121 0.409892 0.240113
290 4 0.218528 0.394339 0.224471
289 2 0.212406 0.417599 0.217641
611 4 0.254028 0.36998 0.183142
302 4 0.322551 0.388915 0.171191
303 4 0.338499 0.40228 0.216664
301 2 0.330525 0.395597 0.193928
644 4 0.454032 0.365334 0.189793
447 4 0.452328 0.366679 0.210588
445 2 0.472915 0.376979 0.220347
446 4 0.493503 0.387279 0.230106
262 2 0.050988 0.433204 0.232875
264 4 0.027996 0.439702 0.225504
263 4 0.0739801 0.426706 0.240245
1757 4 0.0719027 0.50632 0.227266
1430 4 0.176748 0.494165 0.17622
417 4 0.182789 0.475105 0.174431
415 2 0.184429 0.45722 0.191827
291 4 0.206283 0.440859 0.21081
416 4 0.186069 0.439335 0.209222
767 4 0.274602 0.498264 0.165155
768 4 0.255446 0.462191 0.194009
766 2 0.265024 0.480227 0.179582
437 4 0.283507 0.437033 0.235417
714 4 0.423399 0.497127 0.234499
231 4 0.40679 0.492103 0.188636
596 4 0.49089 0.444738 0.163994
1799 4 0.0243171 0.0060161 0.286576
232 2 0.00837862 0.0452279 0.28445
233 4 0.023027 0.025117 0.281969
1402 2 0.0558184 0.0192644 0.258592
1403 4 0.0361244 0.0136507 0.272938
318 4 0.0356821 0.0654692 0.333379
689 4 0.218249 0.0214222 0.25733
1699 2 0.228669 0.0462775 0.311611
1701 4 0.238381 0.0237788 0.306645
1700 4 0.218957 0.0687762 0.316577
697 2 0.395263 0.0477184 0.316382
699 4 0.385192 0.0288377 0.303449
1518 4 0.365495 0.0283107 0.307106
478 2 0.479617 0.027572 0.304868
351 4 0.46053 0.0487972 0.25551
349 2 0.450866 0.070665 0.262831
479 4 0.495331 0.0276586 0.285419
480 4 0.463903 0.0274854 0.324316
398 4 0.0838568 0.147394 0.298879
397 2 0.0870519 0.126694 0.312534
399 4 0.0902471 0.105993 0.326189
248 4 0.227403 0.0881256 0.31492
249 4 0.205488 0.132963 0.311756
247 2 0.216446 0.110545 0.313338
404 4 0.215465 0.145216 0.300214
546 4 0.180868 0.162223 0.264908
722 4 0.199019 0.156668 0.257243
403 2 0.214846 0.165831 0.286079
29 3 0.302881 0.0977063 0.255351
632 4 0.371167 0.125048 0.345466
631 2 0.383772 0.104418 0.339084
350 4 0.441203 0.0925329 0.270151
331 2 0.439424 0.161691 0.286728
333 4 0.415131 0.157282 0.282785
389 4 0.0725303 0.217923 0.328557
393 4 0.0910867 0.209783 0.285669
392 4 0.137953 0.193174 0.280341
391 2 0.11452 0.201479 0.283005
545 4 0.133791 0.173476 0.277471
544 2 0.157329 0.16785 0.271189
405 4 0.214228 0.186446 0.271944
707 4 0.328727 0.21493 0.340728
377 4 0.315483 0.228939 0.334627
378 4 0.282337 0.25361 0.306458
376 2 0.29891 0.241274 0.320543
420 4 0.397719 0.230462 0.328893
332 4 0.463718 0.1661 0.290671
762 4 0.472599 0.182569 0.298342
520 2 0.489467 0.230237 0.250508
760 2 0.489493 0.198341 0.307881
761 4 0.506388 0.214114 0.31742
443 4 0.00943028 0.269044 0.264221
364 2 0.0194835 0.328524 0.294759
365 4 0.0365927 0.313838 0.283954
401 4 0.192742 0.266069 0.290819
345 4 0.236118 0.310385 0.291045
400 2 0.212742 0.280036 0.29631
402 4 0.232741 0.294002 0.301801
510 4 0.222445 0.31075 0.304705
508 2 0.216759 0.333517 0.313338
344 4 0.285547 0.308066 0.283825
343 2 0.260832 0.309226 0.287435
717 4 0.387261 0.247698 0.331219
498 4 0.374075 0.309444 0.287383
496 2 0.356481 0.291688 0.286794
497 4 0.338887 0.273932 0.286205
521 4 0.474933 0.250559 0.251497
542 4 0.433357 0.308286 0.295339
366 4 0.00237437 0.343211 0.305565
299 4 0.131674 0.370394 0.252216
601 2 0.103833 0.397212 0.251295
603 4 0.122255 0.384532 0.262477
734 4 0.141636 0.383361 0.261451
733 2 0.154811 0.395583 0.278835
735 4 0.167986 0.407806 0.296219
677 4 0.188977 0.407063 0.293372
676 2 0.203336 0.39104 0.306109
678 4 0.217696 0.375017 0.318846
509 4 0.211073 0.356283 0.321972
435 4 0.270235 0.366631 0.308959
433 2 0.283266 0.376934 0.327646
729 4 0.339742 0.37312 0.261456
727 2 0.340901 0.390643 0.279254
615 4 0.393979 0.356621 0.315468
613 2 0.375859 0.368775 0.327679
728 4 0.342061 0.408166 0.297052
543 4 0.395173 0.336618 0.310831
541 2 0.414265 0.322452 0.303085
2538 4 0.454738 0.37571 0.285254
2537 4 0.497335 0.401685 0.288649
2536 2 0.476037 0.388698 0.286951
549 4 0.0334653 0.425119 0.310506
777 4 0.0845998 0.452542 0.291168
775 2 0.106128 0.463303 0.297945
776 4 0.127655 0.474064 0.304723
414 4 0.144465 0.472248 0.293699
412 2 0.163531 0.48493 0.303741
413 4 0.182597 0.497612 0.313783
436 2 0.290122 0.431633 0.258917
438 4 0.296737 0.426233 0.282417
712 2 0.420644 0.502441 0.258775
2861 4 0.481744 0.480062 0.271285
316 2 0.0412188 0.0734103 0.356432
317 4 0.0467556 0.0813515 0.379486
1772 4 0.0322299 0.0104343 0.413921
604 2 0.200043 0.0829638 0.386046
605 4 0.186966 0.0739897 0.366716
441 4 0.307768 0.0145218 0.370083
698 4 0.405334 0.0665991 0.329316
257 4 0.412883 0.0799149 0.342101
424 2 0.40967 0.0379821 0.403979
425 4 0.396043 0.017503 0.408463
256 2 0.423271 0.0740986 0.364088
426 4 0.423296 0.0584612 0.399495
258 4 0.433659 0.0682823 0.386075
459 4 0.0091733 0.168351 0.390733
457 2 0.0232028 0.157294 0.408229
732 4 0.13631 0.0795771 0.367235
731 4 0.0989106 0.0937518 0.337217
730 2 0.11761 0.0866644 0.352226
606 4 0.213119 0.0919379 0.405376
600 4 0.199505 0.137121 0.359021
598 2 0.179498 0.150523 0.365751
683 4 0.254486 0.0752747 0.373915
682 2 0.270922 0.0884515 0.387385
684 4 0.287357 0.101628 0.400854
320 4 0.301817 0.114689 0.404985
633 4 0.396377 0.083789 0.332703
516 4 0.413764 0.143593 0.407973
451 2 0.493037 0.151779 0.3802
515 4 0.44992 0.157312 0.376268
514 2 0.431842 0.150453 0.39212
453 4 0.468041 0.151199 0.380052
388 2 0.071655 0.239683 0.340841
687 4 0.16837 0.179671 0.383006
599 4 0.159492 0.163925 0.372482
473 4 0.26093 0.164424 0.361882
685 2 0.172036 0.200187 0.396819
686 4 0.175701 0.220704 0.410633
474 4 0.267433 0.213383 0.369722
472 2 0.264181 0.188904 0.365802
488 4 0.263288 0.230765 0.380302
487 2 0.280137 0.234774 0.398337
418 2 0.412243 0.210189 0.330691
706 2 0.341862 0.19451 0.346702
708 4 0.354996 0.174091 0.352677
468 4 0.383575 0.235621 0.417826
419 4 0.426768 0.189916 0.332489
305 4 0.46155 0.208153 0.425463
390 4 0.0707796 0.261443 0.353126
616 2 0.0765064 0.328751 0.37732
618 4 0.0692472 0.313264 0.395559
347 4 0.0498251 0.307596 0.400203
275 4 0.14809 0.298696 0.386677
274 2 0.160799 0.278933 0.395226
276 4 0.173507 0.25917 0.403776
373 2 0.200743 0.317172 0.39067
374 4 0.217 0.307097 0.374565
375 4 0.184486 0.327247 0.406776
715 2 0.369533 0.256535 0.346476
716 4 0.351804 0.265373 0.361733
406 2 0.0725587 0.408947 0.383484
407 4 0.0634086 0.429842 0.373244
548 4 0.0534907 0.427421 0.35627
617 4 0.0837655 0.344237 0.359081
408 4 0.0817088 0.388053 0.393725
504 4 0.214408 0.389721 0.409206
502 2 0.235604 0.387419 0.422269
434 4 0.296296 0.387238 0.346334
336 4 0.302523 0.387727 0.407162
614 4 0.357738 0.380929 0.33989
2924 4 0.495328 0.341137 0.348175
561 4 0.462065 0.354988 0.379974
752 4 0.462794 0.374662 0.375141
559 2 0.470072 0.362183 0.402542
751 2 0.463247 0.389736 0.355197
753 4 0.4637 0.404809 0.335254
547 2 0.043478 0.42627 0.333388
500 4 0.160506 0.502788 0.373681
499 2 0.138057 0.493518 0.379619
501 4 0.115607 0.484249 0.385558
5 3 0.300095 0.477007 0.386631
1 1 0.314424 0.476565 0.404327
4 3 0.307025 0.461267 0.420126
3 3 0.335725 0.470838 0.397124
592 2 0.414942 0.485443 0.354342
594 4 0.421473 0.463311 0.344714
718 2 0.0323479 0.0662727 0.457251
720 4 0.0250589 0.0540678 0.47782
2237 4 0.0355774 0.0390127 0.485248
2236 2 0.0320205 0.0144973 0.481854
1127 4 0.0178167 0.0435912 0.492822
368 4 0.0858695 0.00451153 0.454476
367 2 0.106801 0.0171069 0.449148
369 4 0.127733 0.0297023 0.443819
1181 4 0.222793 0.084051 0.482049
1180 2 0.246971 0.0792667 0.48626
1182 4 0.271149 0.0744823 0.490471
726 4 0.291266 0.0452233 0.434469
724 2 0.303876 0.0644329 0.444326
432 4 0.311979 0.0569017 0.483808
963 4 0.291559 0.0520513 0.482537
2878 2 0.489123 0.0715954 0.462603
719 4 0.039637 0.0784776 0.436681
458 4 0.0372324 0.146237 0.425724
725 4 0.316486 0.0836424 0.454183
321 4 0.281969 0.128142 0.448869
319 2 0.291893 0.121416 0.426927
574 2 0.395789 0.135939 0.440802
575 4 0.406597 0.127587 0.419859
576 4 0.384981 0.144292 0.461745
642 4 0.483184 0.107786 0.457555
2880 4 0.474181 0.0914121 0.465638
640 2 0.463664 0.123128 0.460522
641 4 0.444145 0.138469 0.463488
471 4 0.992843 0.175273 0.4563
469 2 0.0155582 0.180839 0.465144
470 4 0.0382731 0.186405 0.473989
260 4 0.0962942 0.236542 0.453674
261 4 0.12047 0.199581 0.47713
259 2 0.108382 0.218062 0.465402
1035 4 0.106083 0.190266 0.486231
411 4 0.279468 0.173762 0.438547
409 2 0.275946 0.186457 0.459797
410 4 0.272423 0.199152 0.481048
900 4 0.288443 0.204588 0.492235
466 2 0.391725 0.212114 0.420304
467 4 0.399875 0.188606 0.422782
266 4 0.340579 0.247768 0.447911
304 2 0.450357 0.20446 0.447514
306 4 0.439164 0.200766 0.469566
346 2 0.0505137 0.305479 0.425108
348 4 0.0512023 0.303362 0.450012
326 4 0.054896 0.312967 0.466586
695 4 0.0883143 0.256637 0.457997
694 2 0.0922166 0.267364 0.480243
696 4 0.096119 0.27809 0.502489
7 3 0.143131 0.318778 0.485582
6 1 0.163217 0.329932 0.486716
325 2 0.0759016 0.326389 0.46853
10 3 0.180243 0.314836 0.48577
651 4 0.225238 0.29084 0.486284
489 4 0.296985 0.238782 0.416371
650 4 0.272134 0.305906 0.494919
649 2 0.248686 0.298373 0.490602
267 4 0.364036 0.291932 0.447915
265 2 0.352307 0.26985 0.447913
584 4 0.504036 0.281032 0.465953
583 2 0.479121 0.280172 0.467877
585 4 0.454207 0.279311 0.469801
2812 2 0.00442072 0.388428 0.445888
2813 4 0.00873856 0.365544 0.454989
327 4 0.0969071 0.339812 0.470474
635 4 0.199451 0.416443 0.479777
8 3 0.16466 0.344625 0.468816
711 4 0.168874 0.363493 0.463245
709 2 0.186011 0.380142 0.470615
710 4 0.203149 0.39679 0.477984
774 4 0.216368 0.409626 0.483188
503 4 0.256799 0.385118 0.435332
669 4 0.308941 0.427918 0.462203
334 2 0.323413 0.376431 0.414985
238 2 0.367288 0.377861 0.450524
240 4 0.345315 0.377999 0.438593
335 4 0.344302 0.365136 0.422809
239 4 0.38926 0.377723 0.462456
587 4 0.416239 0.410771 0.469471
560 4 0.478079 0.369378 0.42511
926 4 0.423357 0.401507 0.486286
2507 4 0.486616 0.386847 0.430088
539 4 0.0704816 0.499303 0.477157
935 4 0.00474658 0.414358 0.489107
679 2 0.0569309 0.460037 0.45965
1383 4 0.0375186 0.481512 0.431247
681 4 0.0724309 0.442846 0.469106
680 4 0.0414308 0.477228 0.450195
382 2 0.111093 0.431789 0.456765
568 2 0.147946 0.468393 0.433566
383 4 0.0867649 0.432291 0.462516
569 4 0.139588 0.445179 0.437613
384 4 0.135421 0.431288 0.451015
570 4 0.156305 0.491608 0.429518
634 2 0.202829 0.435537 0.463992
636 4 0.206207 0.454632 0.448207
2 3 0.315196 0.497434 0.413973
667 2 0.301258 0.436733 0.440102
668 4 0.293574 0.445547 0.418002
588 4 0.403617 0.456832 0.484296
586 2 0.409928 0.433801 0.476883
663 4 0.476222 0.452015 0.48767
1126 2 0.0199441 0.0585182 0.512768
1128 4 0.0220715 0.0734452 0.532714
1058 4 0.135048 0.046816 0.583569
1057 2 0.141417 0.0705344 0.588266
342 4 0.1887 0.0831447 0.516174
2430 4 0.175295 0.0186321 0.503457
340 2 0.188135 0.0584341 0.512399
341 4 0.18757 0.0337235 0.508625
1031 4 0.251664 0.0676188 0.553201
951 4 0.264556 0.054914 0.559203
961 2 0.279347 0.0325232 0.492269
962 4 0.267135 0.0129952 0.502
430 2 0.328478 0.0643641 0.50105
949 2 0.272504 0.0350121 0.572084
1217 4 0.401214 0.0475963 0.565789
1216 2 0.396154 0.0241644 0.572896
841 2 0.375611 0.0630939 0.536513
842 4 0.385903 0.0590588 0.55894
431 4 0.344977 0.0718264 0.518291
1218 4 0.391094 0.000732523 0.580004
939 4 0.0873719 0.14564 0.515138
938 4 0.067925 0.108999 0.543065
937 2 0.0776485 0.127319 0.529102
1034 4 0.0789064 0.164532 0.519396
1155 4 0.158151 0.107903 0.582281
1151 4 0.159512 0.109606 0.561449
1150 2 0.168891 0.105148 0.538704
1030 2 0.239508 0.0889144 0.55809
1152 4 0.178271 0.100691 0.515959
1032 4 0.227351 0.11021 0.562978
858 4 0.256877 0.160374 0.507743
843 4 0.365318 0.067129 0.514086
878 4 0.0453915 0.215934 0.545873
1199 4 0.0261306 0.220384 0.548089
1198 2 0.00120858 0.218955 0.546665
877 2 0.0621159 0.211562 0.563938
879 4 0.0788402 0.207191 0.582004
1033 2 0.0924946 0.177399 0.502814
1272 4 0.0988612 0.204859 0.57605
857 4 0.272354 0.197054 0.538004
856 2 0.264616 0.178714 0.522873
898 2 0.311422 0.20051 0.501206
792 4 0.308187 0.253841 0.588325
899 4 0.334402 0.196432 0.510177
871 2 0.402488 0.236205 0.534367
873 4 0.385641 0.234504 0.552765
872 4 0.419335 0.237906 0.515969
3158 4 0.480592 0.182803 0.530766
983 4 0.0472002 0.318137 0.566104
1258 2 0.126174 0.290019 0.524063
1260 4 0.111705 0.272598 0.513463
1259 4 0.140644 0.307439 0.534662
791 4 0.272628 0.233425 0.559699
790 2 0.290408 0.243633 0.574012
811 2 0.306287 0.319131 0.512722
804 4 0.271399 0.330254 0.516442
813 4 0.329819 0.318588 0.521156
812 4 0.282755 0.319675 0.504288
954 4 0.475242 0.312606 0.560744
1011 4 0.4931 0.321263 0.562954
952 2 0.458894 0.303297 0.577214
1136 4 0.0958829 0.362786 0.564065
1135 2 0.109957 0.37383 0.581533
9 3 0.164155 0.34168 0.506704
1189 2 0.225302 0.37815 0.561566
773 4 0.237126 0.386372 0.522291
1190 4 0.238711 0.378336 0.540463
1191 4 0.211892 0.377965 0.582669
772 2 0.226747 0.397999 0.502739
896 4 0.191215 0.375225 0.582235
803 4 0.238315 0.366803 0.524829
802 2 0.254857 0.348529 0.520636
930 4 0.301468 0.37937 0.552506
928 2 0.301589 0.380317 0.52752
929 4 0.301709 0.381265 0.502535
927 4 0.440571 0.375954 0.525674
3309 4 0.494226 0.386602 0.563897
925 2 0.431964 0.388731 0.50598
936 4 0.000244534 0.438503 0.532666
934 2 0.00249556 0.42643 0.510887
1161 4 0.168297 0.491432 0.563043
1159 2 0.181469 0.47768 0.579247
882 4 0.306478 0.471989 0.49233
891 4 0.305702 0.455508 0.555513
880 2 0.324552 0.481839 0.506524
881 4 0.342627 0.491689 0.520718
1952 4 0.35324 0.479804 0.533486
1002 4 0.403671 0.433796 0.554617
1000 2 0.421752 0.450987 0.556262
1001 4 0.439834 0.468179 0.557906
662 4 0.469756 0.487149 0.522664
661 2 0.472989 0.469582 0.505167
1911 4 0.445137 0.484655 0.550445
1332 4 0.478259 0.504374 0.523137
1909 2 0.448704 0.499609 0.570163
1184 4 0.00147162 0.0146917 0.6084
943 2 0.0637031 0.0271162 0.642768
945 4 0.0697967 0.00642429 0.655413
944 4 0.0576094 0.047808 0.630123
825 4 0.115554 0.00150758 0.605938
823 2 0.132119 0.997484 0.62423
950 4 0.280451 0.0151101 0.584965
1090 2 0.307628 0.99895 0.652213
1091 4 0.310614 0.0146248 0.671463
808 2 0.483149 0.0801032 0.627574
44 3 0.46933 0.0664148 0.6617
1083 4 0.0148028 0.135004 0.627069
1081 2 0.0208654 0.116039 0.642194
1082 4 0.026928 0.097075 0.657319
1059 4 0.147785 0.0942528 0.592962
1153 2 0.160575 0.132126 0.587989
909 4 0.111453 0.119349 0.659572
1154 4 0.162999 0.156348 0.593696
1284 4 0.180457 0.0912097 0.63106
1282 2 0.173803 0.0984226 0.654057
45 3 0.440485 0.0904719 0.664324
810 4 0.478201 0.0813362 0.652052
3008 4 0.505073 0.0889613 0.606724
1243 2 0.0683867 0.226969 0.627833
1245 4 0.0829199 0.223409 0.647865
1244 4 0.0538536 0.230529 0.607801
1270 2 0.117259 0.219166 0.585106
1271 4 0.135657 0.233473 0.594161
1209 4 0.0906817 0.2144 0.663846
1221 4 0.160486 0.174373 0.600242
1210 2 0.234733 0.186886 0.635889
1212 4 0.222397 0.191514 0.614638
1219 2 0.182835 0.185087 0.603546
1220 4 0.205184 0.1958 0.606849
796 2 0.224354 0.233296 0.609748
798 4 0.220227 0.208887 0.606235
1211 4 0.247068 0.182258 0.657139
888 4 0.265157 0.177418 0.660668
905 4 0.497195 0.231144 0.585095
3123 4 0.456673 0.250035 0.655395
982 2 0.0511663 0.331492 0.586867
947 4 0.172186 0.260076 0.652743
797 4 0.228481 0.257705 0.613261
946 2 0.191463 0.273974 0.660517
1238 4 0.299525 0.269812 0.596612
1237 2 0.309826 0.287355 0.611149
1239 4 0.320127 0.304898 0.625686
906 4 0.457169 0.261033 0.58738
904 2 0.477182 0.246088 0.586238
953 4 0.442547 0.293988 0.593684
984 4 0.0551325 0.344846 0.60763
1039 2 0.0814674 0.357291 0.627322
1041 4 0.0650923 0.338765 0.623605
3263 4 0.0481165 0.347766 0.625619
3262 2 0.0266515 0.348682 0.638409
3264 4 0.00518654 0.349598 0.6512
897 4 0.142864 0.377779 0.594742
895 2 0.167039 0.376502 0.588488
1137 4 0.124032 0.384873 0.599001
1040 4 0.0978426 0.375817 0.631039
991 2 0.124139 0.404418 0.653733
993 4 0.10783 0.390746 0.640608
1204 2 0.42321 0.396609 0.656724
1172 4 0.219202 0.41223 0.601639
1188 4 0.209428 0.497181 0.653827
1173 4 0.195318 0.454818 0.612435
1171 2 0.20726 0.433524 0.607037
1187 4 0.194221 0.474032 0.61219
1160 4 0.194641 0.463928 0.595451
1186 2 0.201824 0.485607 0.633009
889 2 0.321089 0.461414 0.574316
890 4 0.336475 0.467319 0.593119
1205 4 0.442184 0.412845 0.655469
1269 4 0.45857 0.467823 0.635808
1147 2 0.210349 0.0786602 0.736005
1149 4 0.219183 0.0556718 0.731684
1004 4 0.349947 0.0786142 0.724573
1163 4 0.485804 0.0741446 0.668299
42 3 0.43429 0.0537396 0.666616
41 1 0.448915 0.0707032 0.67186
43 3 0.451543 0.0714865 0.694901
1076 4 0.0378805 0.103499 0.673167
864 4 0.063653 0.119336 0.735526
1075 2 0.0495594 0.108677 0.694661
1077 4 0.0612384 0.113854 0.716154
907 2 0.130854 0.126299 0.67373
908 4 0.150256 0.13325 0.687888
1227 4 0.165153 0.120834 0.689887
1106 4 0.12835 0.154235 0.748521
1283 4 0.167149 0.105635 0.677055
1148 4 0.201515 0.101649 0.740326
1225 2 0.183648 0.117323 0.706343
1226 4 0.202142 0.113812 0.722799
1005 4 0.30404 0.0943543 0.712511
1003 2 0.326994 0.0864843 0.718542
1142 4 0.383199 0.157116 0.702451
845 4 0.479054 0.0845384 0.743009
1025 4 0.471224 0.157182 0.677988
852 4 0.0547676 0.197267 0.707936
850 2 0.0631828 0.188946 0.729961
1213 2 0.0118118 0.217183 0.7348
1214 4 0.0266623 0.198358 0.741889
1207 2 0.0956134 0.203846 0.68597
1208 4 0.100545 0.193293 0.708095
1073 4 0.106231 0.229832 0.748995
1072 2 0.0841615 0.239623 0.755494
1130 4 0.175427 0.196065 0.715928
1129 2 0.178468 0.2157 0.731107
1131 4 0.18151 0.235335 0.746285
830 4 0.324158 0.180201 0.692716
886 2 0.285251 0.180939 0.675125
887 4 0.305345 0.18446 0.689582
976 2 0.308246 0.193995 0.729804
978 4 0.312015 0.182805 0.707765
831 4 0.363952 0.152235 0.704339
829 2 0.344055 0.166218 0.698527
1192 2 0.361522 0.236438 0.685015
1194 4 0.384063 0.230386 0.676046
1141 2 0.403517 0.170373 0.708504
1024 2 0.455781 0.172258 0.690616
1143 4 0.423834 0.18363 0.714557
1026 4 0.440339 0.187333 0.703243
1261 2 0.44244 0.216069 0.72676
1262 4 0.429777 0.200903 0.711436
1263 4 0.455104 0.231235 0.742083
3121 2 0.473755 0.253851 0.673251
893 4 0.0288988 0.335992 0.689366
820 2 0.165067 0.271715 0.737144
821 4 0.161761 0.293188 0.724769
948 4 0.21074 0.287872 0.668292
1064 4 0.229556 0.288426 0.677342
1065 4 0.217848 0.30002 0.724557
1063 2 0.223702 0.294223 0.70095
822 4 0.168374 0.250242 0.74952
1193 4 0.338981 0.24249 0.693984
3122 4 0.490837 0.257667 0.691107
3275 4 0.00336077 0.413191 0.751721
3274 2 0.0182843 0.394145 0.745419
892 2 0.0368257 0.351048 0.707687
894 4 0.0447526 0.366103 0.726009
3276 4 0.0332079 0.375098 0.739118
816 4 0.0522114 0.379288 0.738566
814 2 0.0766632 0.376052 0.742667
940 2 0.129643 0.38182 0.744719
941 4 0.148422 0.382677 0.728232
1067 4 0.164642 0.37397 0.721329
992 4 0.140449 0.41809 0.666857
815 4 0.101115 0.372816 0.746768
1027 2 0.212537 0.412689 0.673339
1066 2 0.16719 0.39014 0.702428
1068 4 0.169737 0.406309 0.683527
1028 4 0.189385 0.406269 0.680261
806 4 0.291967 0.369493 0.679889
805 2 0.316321 0.365432 0.683834
807 4 0.340675 0.361371 0.68778
1206 4 0.404235 0.380374 0.657979
1281 4 0.0327775 0.495772 0.730957
1280 4 0.0633041 0.456636 0.724861
1279 2 0.0480408 0.476204 0.727909
1029 4 0.23569 0.41911 0.666418
1139 4 0.288727 0.425767 0.73242
1138 2 0.267452 0.43277 0.721306
1140 4 0.246178 0.439772 0.710191
1228 2 0.399341 0.456267 0.726661
1229 4 0.380851 0.472031 0.73256
1230 4 0.417831 0.440504 0.720762
1989 4 0.369187 0.488683 0.731788
1100 4 0.421728 0.429509 0.704244
1267 2 0.448349 0.478381 0.656038
1101 4 0.467675 0.425485 0.723566
1099 2 0.444702 0.427497 0.713905
1268 4 0.438127 0.488939 0.676267
1294 2 0.0529589 0.033509 0.783204
1295 4 0.0581165 0.0575079 0.778447
2047 2 0.119783 0.000783709 0.768868
1203 4 0.109364 0.076891 0.80076
1201 2 0.107468 0.0537145 0.791571
1202 4 0.105573 0.030538 0.782382
2049 4 0.105146 0.0209103 0.766449
911 4 0.0866164 0.0636455 0.822144
1257 4 0.25256 0.0326737 0.786891
1255 2 0.249851 0.0538202 0.799954
974 4 0.321957 0.000284419 0.828675
1256 4 0.247142 0.0749667 0.813018
1111 2 0.395397 0.0532541 0.814613
1113 4 0.407856 0.0399245 0.797517
1112 4 0.382937 0.0665837 0.831709
818 4 0.368334 0.082953 0.832799
2321 4 0.474113 0.0112824 0.768901
862 2 0.0502999 0.114533 0.756112
863 4 0.0369468 0.10973 0.776699
832 2 0.0243676 0.102663 0.817957
833 4 0.0270661 0.10287 0.793101
1105 2 0.106515 0.163188 0.756785
31 1 0.112203 0.149291 0.816797
35 3 0.127584 0.140852 0.802276
32 3 0.106416 0.170553 0.810192
838 2 0.24503 0.114143 0.83184
840 4 0.250835 0.0927178 0.820331
959 4 0.30742 0.15805 0.819549
1084 2 0.36679 0.160804 0.808512
1085 4 0.382477 0.147957 0.823143
819 4 0.380339 0.131458 0.83476
817 2 0.374336 0.107206 0.83378
50 3 0.422182 0.162964 0.778907
844 2 0.500033 0.0839593 0.756601
851 4 0.0715979 0.180624 0.751986
1074 4 0.0620917 0.249414 0.761993
1107 4 0.0846811 0.172141 0.765048
1277 4 0.182236 0.245638 0.761404
1298 4 0.315612 0.213101 0.765589
918 4 0.307387 0.223921 0.751011
977 4 0.304477 0.205186 0.751844
916 2 0.302284 0.247663 0.756966
1086 4 0.351103 0.173651 0.793882
1299 4 0.364384 0.207774 0.775263
1297 2 0.339998 0.210438 0.770426
1042 2 0.412803 0.237855 0.784396
1043 4 0.405285 0.215236 0.776846
49 3 0.403859 0.195385 0.773358
48 3 0.416954 0.186421 0.807891
1022 4 0.429046 0.182162 0.822881
3468 4 0.497677 0.169498 0.813633
1145 4 0.470838 0.236411 0.75245
46 1 0.420888 0.184848 0.785078
47 3 0.440811 0.195277 0.780231
1144 2 0.486349 0.218911 0.7613
780 4 0.0730966 0.299488 0.759173