ITEM: TIMESTEP
1670000
ITEM: NUMBER OF ATOMS
4590
ITEM: BOX BOUNDS pp pp pp
-9.9985700000000008e+00 9.9985700000000008e+00
-9.9985700000000008e+00 9.9985700000000008e+00
-9.9985700000000008e+00 9.9985700000000008e+00
ITEM: ATOMS id type xs ys zs
465 4 0.0496752 0.0744219 0.0115172
700 2 0.0836725 0.0577586 0.0100632
702 4 0.107828 0.0563831 0.0163703
566 4 0.118428 0.0675882 0.03007
565 2 0.139393 0.0768746 0.0400394
491 4 0.269069 0.0117148 0.0421148
2264 4 0.273787 0.0208918 0.0251603
2263 2 0.263823 0.0419571 0.0160971
2265 4 0.253859 0.0630225 0.0070339
558 4 0.304357 0.076351 0.0513363
556 2 0.323509 0.0833136 0.0658241
745 2 0.46182 0.0437379 0.00642632
746 4 0.465283 0.0401761 0.0309314
2469 4 0.469797 0.0218083 0.0366687
2467 2 0.485509 0.00652509 0.0486997
463 2 0.03236 0.0923739 0.00976029
464 4 0.0150448 0.110326 0.00800341
590 4 0.00347643 0.110348 0.0235584
567 4 0.160359 0.0861609 0.0500089
358 2 0.251396 0.133236 0.00545835
359 4 0.229823 0.139675 0.0163363
360 4 0.272969 0.126796 0.99458
557 4 0.342661 0.0902763 0.0803119
865 2 0.336697 0.151323 0.00756228
867 4 0.33146 0.167547 0.0258529
554 4 0.0370993 0.227886 0.036126
553 2 0.0604913 0.231847 0.0282327
555 4 0.0838833 0.235808 0.0203394
837 4 0.140457 0.22605 0.00103988
915 4 0.158694 0.235327 0.997532
835 2 0.116046 0.231449 0.00140123
461 4 0.33253 0.229637 0.0708586
665 4 0.338693 0.183061 0.0351126
666 4 0.346987 0.226887 0.0577217
664 2 0.34284 0.204974 0.0464172
573 4 0.336695 0.243316 0.058264
1070 4 0.394473 0.222855 0.019492
1069 2 0.413018 0.232134 0.0334621
1071 4 0.431563 0.241413 0.0474321
294 4 0.0878405 0.276975 0.0434549
292 2 0.108569 0.284049 0.0313936
507 4 0.126482 0.308485 0.0266153
293 4 0.129297 0.291122 0.0193323
505 2 0.146985 0.32171 0.0320837
356 4 0.317405 0.302905 0.0344589
572 4 0.330762 0.290909 0.0441085
355 2 0.308508 0.319834 0.0183519
571 2 0.333728 0.267112 0.0511863
324 4 0.425617 0.259376 0.0485338
322 2 0.429438 0.282629 0.0568918
672 4 0.442311 0.322781 0.0735812
323 4 0.433259 0.305883 0.0652497
620 4 0.00901743 0.376545 0.0717341
647 4 0.0243442 0.364501 0.0730466
483 4 0.169628 0.350384 0.0250196
506 4 0.167488 0.334935 0.0375522
481 2 0.188243 0.366139 0.0305361
609 4 0.225933 0.379794 0.0426208
607 2 0.242822 0.39823 0.0428234
482 4 0.206857 0.381895 0.0360525
357 4 0.299611 0.336763 0.0022449
252 4 0.278662 0.42434 0.0401571
902 4 0.30963 0.354301 0.994913
957 4 0.376809 0.362561 0.010545
741 4 0.381495 0.380341 0.0850318
670 2 0.456776 0.343169 0.0740959
280 2 0.474105 0.396911 0.0677245
281 4 0.486395 0.375615 0.0722665
671 4 0.471242 0.363557 0.0746105
625 2 0.22937 0.44324 0.0849393
627 4 0.243833 0.459007 0.072001
608 4 0.259712 0.416666 0.043026
244 2 0.264305 0.479597 0.0530464
245 4 0.260193 0.469496 0.0755461
250 2 0.303465 0.426826 0.0421089
251 4 0.328268 0.429311 0.0440608
272 4 0.264538 0.495406 0.0126303
246 4 0.268417 0.489698 0.0305466
271 2 0.25608 0.477455 0.997419
282 4 0.461815 0.418206 0.0631824
226 2 0.461382 0.455856 0.0413563
228 4 0.463965 0.473634 0.0239651
227 4 0.458798 0.438079 0.0587475
563 4 0.459092 0.493244 0.0273447
16 1 0.0636984 0.0538188 0.144058
20 3 0.059603 0.0672916 0.126159
1806 4 0.0673411 0.0156909 0.136839
18 3 0.0549245 0.0326822 0.140229
17 3 0.0864232 0.0519936 0.147124
19 3 0.05426 0.0629689 0.163178
380 4 0.0637099 0.0809579 0.16232
1804 2 0.0591576 0.00235258 0.117337
1505 4 0.157605 0.0379739 0.159658
450 4 0.150565 0.0463325 0.143178
448 2 0.163208 0.0674597 0.138824
653 4 0.32071 0.0317683 0.10099
652 2 0.32194 0.0204946 0.123274
654 4 0.323171 0.00922089 0.145558
484 2 0.379579 0.00358265 0.105953
295 2 0.357752 0.0617207 0.106461
297 4 0.361412 0.0394447 0.117211
485 4 0.378079 0.0275523 0.112909
296 4 0.354093 0.0839967 0.0957106
579 4 0.0847025 0.11843 0.110006
237 4 0.138998 0.145595 0.137098
578 4 0.123359 0.146671 0.124455
577 2 0.104031 0.13255 0.117231
235 2 0.154199 0.125871 0.13935
476 4 0.136615 0.160489 0.125864
236 4 0.1694 0.106147 0.141602
693 4 0.185453 0.0977537 0.148498
449 4 0.175852 0.0885869 0.134469
691 2 0.208102 0.10198 0.158212
582 4 0.246663 0.117192 0.167617
771 4 0.464392 0.131103 0.0851668
769 2 0.470507 0.153271 0.0949834
310 2 0.436221 0.163344 0.137531
311 4 0.438772 0.139957 0.129064
339 4 0.052773 0.193583 0.150941
337 2 0.0764007 0.193072 0.159104
475 2 0.126742 0.177288 0.141531
477 4 0.116869 0.194088 0.157199
737 4 0.154188 0.16563 0.114286
338 4 0.100028 0.19256 0.167268
736 2 0.170715 0.183898 0.110004
738 4 0.187242 0.202165 0.105723
460 2 0.326298 0.230229 0.0950659
283 2 0.315604 0.195399 0.135901
462 4 0.320066 0.230821 0.119273
354 4 0.321409 0.236899 0.135775
285 4 0.314314 0.170592 0.138753
284 4 0.316894 0.220206 0.13305
352 2 0.301256 0.250512 0.141579
255 4 0.333432 0.225996 0.129582
254 4 0.374685 0.2438 0.151536
253 2 0.354059 0.234898 0.140559
630 4 0.390631 0.238839 0.161031
628 2 0.404793 0.219319 0.154431
765 4 0.388294 0.257754 0.157527
1012 2 0.500208 0.202177 0.0876649
770 4 0.476621 0.175439 0.1048
1014 4 0.480316 0.187033 0.0880312
312 4 0.433671 0.186732 0.145998
629 4 0.418956 0.199799 0.14783
456 4 0.0689044 0.327263 0.102451
749 4 0.0715473 0.296646 0.157313
454 2 0.0875219 0.334731 0.117378
612 4 0.251041 0.33333 0.134602
353 4 0.281102 0.264126 0.147384
754 2 0.2728 0.307366 0.149116
755 4 0.280918 0.283733 0.148267
756 4 0.264681 0.331 0.149965
519 4 0.50203 0.304893 0.102596
648 4 0.0536332 0.339896 0.105257
646 2 0.0389887 0.352198 0.0891517
455 4 0.106139 0.342199 0.132304
537 4 0.203205 0.379205 0.136421
535 2 0.205117 0.401787 0.125857
611 4 0.209757 0.361287 0.130766
610 2 0.230399 0.347309 0.132684
303 4 0.282817 0.411926 0.145511
739 2 0.386408 0.385729 0.108949
740 4 0.391321 0.391116 0.132866
15 3 0.385851 0.37974 0.148188
385 2 0.363084 0.407456 0.153826
386 4 0.386313 0.399539 0.14904
495 4 0.404849 0.40202 0.141826
11 1 0.405987 0.375793 0.158069
387 4 0.339855 0.415374 0.158612
2651 4 0.488816 0.356658 0.0752366
12 3 0.413021 0.354556 0.152714
14 3 0.421694 0.391054 0.150403
1465 2 0.0297695 0.468853 0.110741
1466 4 0.0451157 0.486018 0.12049
1467 4 0.0144232 0.451689 0.100991
1791 4 0.0638072 0.4836 0.13025
552 4 0.103027 0.492088 0.0799341
550 2 0.0987312 0.468582 0.0872959
551 4 0.0944356 0.445076 0.0946577
626 4 0.214908 0.427472 0.0978777
536 4 0.20703 0.424369 0.115294
637 2 0.228968 0.496605 0.14191
767 4 0.245871 0.469931 0.150873
638 4 0.252338 0.489481 0.147225
766 2 0.260968 0.450008 0.1503
768 4 0.276066 0.430086 0.149726
301 2 0.306765 0.419108 0.145793
302 4 0.330714 0.426289 0.146075
493 2 0.413542 0.424948 0.136936
660 4 0.412185 0.458429 0.145157
494 4 0.422236 0.447876 0.132046
658 2 0.421171 0.475637 0.160914
673 2 0.119523 0.0587198 0.198086
675 4 0.100483 0.0736185 0.191706
674 4 0.138562 0.0438211 0.204466
1504 2 0.171233 0.0321101 0.179785
689 4 0.187741 0.0068871 0.198375
1506 4 0.184861 0.0262463 0.199912
21 1 0.392537 0.00773081 0.232664
25 3 0.410798 0.0186258 0.224511
22 3 0.373603 0.0196834 0.227392
758 4 0.423104 0.0771085 0.194689
757 2 0.42158 0.0542923 0.204802
759 4 0.420056 0.0314762 0.214915
349 2 0.446786 0.0252989 0.244832
350 4 0.429234 0.0208634 0.227585
379 2 0.0565767 0.099799 0.177129
512 4 0.0386174 0.118801 0.209935
381 4 0.0494435 0.11864 0.191938
511 2 0.0438334 0.139448 0.223038
513 4 0.0490495 0.160094 0.236141
692 4 0.23075 0.106205 0.167926
721 2 0.202629 0.158214 0.234313
723 4 0.211116 0.14995 0.212294
580 2 0.271659 0.117539 0.168091
581 4 0.296656 0.117885 0.168566
30 3 0.307578 0.123983 0.185016
26 1 0.318092 0.138574 0.198987
29 3 0.325511 0.127436 0.217942
27 3 0.303286 0.154997 0.205328
28 3 0.33603 0.148453 0.188075
363 4 0.116421 0.197782 0.176013
362 4 0.126811 0.226032 0.215947
361 2 0.121616 0.211907 0.19598
372 4 0.146583 0.230651 0.219014
370 2 0.156368 0.235894 0.241418
545 4 0.127091 0.17971 0.244472
544 2 0.151465 0.176092 0.248719
392 4 0.112478 0.164631 0.249477
722 4 0.194141 0.166478 0.256332
521 4 0.468 0.181101 0.219962
520 2 0.490897 0.172615 0.214589
394 2 0.0579945 0.306587 0.232691
396 4 0.0389487 0.308589 0.248767
750 4 0.086274 0.292459 0.204918
748 2 0.0789106 0.294552 0.181115
395 4 0.0770402 0.304586 0.216615
300 4 0.142724 0.314533 0.195261
298 2 0.132624 0.321673 0.216991
279 4 0.261041 0.252373 0.206093
278 4 0.270932 0.273128 0.161684
277 2 0.265986 0.262751 0.183889
307 2 0.328092 0.312 0.218454
309 4 0.323005 0.308281 0.194257
308 4 0.333179 0.315718 0.24265
763 2 0.403603 0.276251 0.164504
764 4 0.418911 0.294748 0.171481
623 4 0.420704 0.301832 0.190538
526 2 0.498874 0.295481 0.18432
528 4 0.48742 0.309633 0.201458
622 2 0.444292 0.308497 0.195475
624 4 0.46788 0.315163 0.200412
2618 4 0.0188911 0.408842 0.220926
262 2 0.057345 0.401142 0.226114
264 4 0.0376428 0.409429 0.21314
263 4 0.0770472 0.392855 0.239088
602 4 0.0765536 0.372825 0.238993
299 4 0.122524 0.328812 0.238721
603 4 0.120028 0.348124 0.238289
601 2 0.0982909 0.360475 0.238641
290 4 0.189554 0.371136 0.219016
289 2 0.182028 0.394851 0.221496
13 3 0.403948 0.377429 0.181125
2860 2 0.459017 0.404292 0.24392
416 4 0.175388 0.431658 0.209632
415 2 0.172905 0.455792 0.215679
291 4 0.174502 0.418566 0.223976
1430 4 0.180352 0.490993 0.206738
417 4 0.170423 0.479926 0.221726
659 4 0.430157 0.492845 0.176672
597 4 0.487775 0.461004 0.198825
595 2 0.46709 0.471787 0.189824
596 4 0.446404 0.48257 0.180823
231 4 0.438665 0.49434 0.194203
2861 4 0.442221 0.417908 0.231364
1799 4 0.025465 0.0206773 0.314287
233 4 0.0265417 0.032472 0.298391
1402 2 0.0649053 0.0162755 0.296991
1403 4 0.0404707 0.0186584 0.30173
232 2 0.0240491 0.0564047 0.291595
234 4 0.0215564 0.0803375 0.284799
1798 2 0.0109964 0.00906151 0.331048
23 3 0.394064 0.00589404 0.255744
697 2 0.356184 0.0212959 0.33032
699 4 0.361101 0.997102 0.326362
633 4 0.363495 0.0596489 0.327494
631 2 0.378209 0.0677069 0.308954
351 4 0.464338 0.0297343 0.262078
743 4 0.495971 0.0608832 0.30957
744 4 0.470706 0.0465663 0.268858
742 2 0.483338 0.0537248 0.289214
479 4 0.495807 0.0629951 0.329104
399 4 0.0506149 0.107611 0.324496
397 2 0.0674241 0.11959 0.310384
398 4 0.0842334 0.131568 0.296272
393 4 0.101314 0.137675 0.29009
390 4 0.0944336 0.143864 0.307457
391 2 0.106896 0.151153 0.269783
249 4 0.204982 0.152415 0.332797
404 4 0.194376 0.153176 0.314292
403 2 0.188547 0.163715 0.29238
632 4 0.392922 0.0757649 0.290413
333 4 0.455664 0.166964 0.322893
515 4 0.453676 0.151958 0.335237
444 4 0.0358965 0.248969 0.280198
388 2 0.0988705 0.162333 0.323717
405 4 0.182718 0.174254 0.270468
546 4 0.175838 0.172475 0.252965
371 4 0.166154 0.241137 0.263822
420 4 0.404249 0.222265 0.26442
717 4 0.407679 0.241651 0.267825
331 2 0.455539 0.183274 0.303942
332 4 0.455414 0.199584 0.284991
418 2 0.42618 0.210303 0.265474
419 4 0.448111 0.19834 0.266528
760 2 0.482793 0.218553 0.255872
762 4 0.46569 0.206234 0.269322
443 4 0.0351142 0.296181 0.263733
365 4 0.0254424 0.313214 0.262356
364 2 0.00900281 0.331969 0.264134
442 2 0.0355053 0.272575 0.271966
401 4 0.238507 0.268348 0.262624
400 2 0.24152 0.273543 0.286895
402 4 0.244533 0.278737 0.311167
345 4 0.238142 0.281776 0.32898
510 4 0.233478 0.295467 0.316409
508 2 0.221593 0.31543 0.32565
496 2 0.295335 0.321149 0.265103
498 4 0.272715 0.324696 0.275149
497 4 0.317956 0.317602 0.255057
715 2 0.416296 0.264093 0.2747
716 4 0.424914 0.286535 0.281576
542 4 0.41488 0.294921 0.297294
541 2 0.420045 0.317629 0.306396
547 2 0.0201976 0.407616 0.320373
548 4 0.0193048 0.387723 0.335494
734 4 0.128966 0.341076 0.253496
733 2 0.143822 0.35111 0.270926
735 4 0.158678 0.361143 0.288355
677 4 0.15516 0.349645 0.302528
509 4 0.209707 0.335393 0.334891
676 2 0.177281 0.349695 0.314182
435 4 0.217953 0.351113 0.329465
678 4 0.199402 0.349744 0.325837
728 4 0.356077 0.38595 0.325268
727 2 0.354032 0.400688 0.305174
615 4 0.432731 0.357726 0.311112
543 4 0.42521 0.340337 0.315497
613 2 0.429559 0.373667 0.330112
2538 4 0.478196 0.376681 0.316483
2536 2 0.483585 0.378974 0.292175
2537 4 0.488974 0.381267 0.267866
2862 4 0.475814 0.390675 0.256476
753 4 0.475532 0.36085 0.328981
549 4 0.0210903 0.427509 0.305252
777 4 0.0410666 0.426928 0.302458
775 2 0.0641599 0.435607 0.306525
414 4 0.102353 0.456961 0.310748
776 4 0.0872533 0.444286 0.310593
412 2 0.11602 0.470354 0.326842
438 4 0.314036 0.462938 0.269785
436 2 0.32697 0.445782 0.282574
729 4 0.351988 0.415427 0.28508
437 4 0.339904 0.428625 0.295363
594 4 0.393146 0.500913 0.327141
1772 4 0.0143634 0.0155462 0.405671
1771 2 0.00493561 0.00340197 0.385953
732 4 0.0770027 0.0739748 0.370564
730 2 0.062914 0.0896275 0.357085
2238 4 0.0265186 0.0305574 0.407667
369 4 0.0715086 0.055031 0.37592
367 2 0.0838983 0.0365704 0.387361
368 4 0.0962881 0.0181098 0.398801
1701 4 0.180512 0.0638444 0.37602
605 4 0.172937 0.0729545 0.392104
1699 2 0.198001 0.0777314 0.364774
698 4 0.351267 0.0454896 0.334278
256 2 0.37791 0.0626109 0.364168
257 4 0.361235 0.0562692 0.346649
258 4 0.394585 0.0689525 0.381686
426 4 0.39741 0.0589821 0.398823
424 2 0.393204 0.040068 0.414627
1428 4 0.476053 0.0110946 0.380622
478 2 0.476449 0.0735574 0.340888
480 4 0.45709 0.0841196 0.352672
317 4 0.0376408 0.118385 0.334508
731 4 0.0488253 0.10528 0.343606
318 4 0.00145558 0.150526 0.347087
316 2 0.0195482 0.134456 0.340797
604 2 0.152473 0.0870549 0.394855
606 4 0.132009 0.101155 0.397606
247 2 0.213998 0.130335 0.340307
1700 4 0.21549 0.0916184 0.353528
248 4 0.223013 0.108256 0.347817
600 4 0.233748 0.166114 0.387383
683 4 0.24444 0.153484 0.398751
682 2 0.258732 0.134195 0.405742
319 2 0.306738 0.116793 0.38593
320 4 0.287827 0.109741 0.40069
708 4 0.320772 0.13911 0.359196
706 2 0.316887 0.163766 0.357722
684 4 0.273023 0.114907 0.412734
321 4 0.325648 0.123845 0.371171
516 4 0.435398 0.108223 0.351173
575 4 0.434513 0.105657 0.370699
574 2 0.438773 0.109841 0.394979
514 2 0.444537 0.13009 0.343205
453 4 0.468751 0.164747 0.337316
389 4 0.103307 0.180803 0.339976
598 2 0.224641 0.179198 0.406645
473 4 0.219433 0.241737 0.38588
374 4 0.204526 0.252995 0.393515
472 2 0.243491 0.235661 0.388964
378 4 0.27263 0.234084 0.356373
376 2 0.293932 0.221049 0.355151
377 4 0.315234 0.208013 0.353929
707 4 0.313002 0.188422 0.356249
474 4 0.267548 0.229586 0.392048
488 4 0.280504 0.215505 0.398985
344 4 0.273141 0.254045 0.351491
487 2 0.302629 0.21808 0.410345
452 4 0.500377 0.178107 0.373676
451 2 0.484564 0.171427 0.355496
347 4 0.0732293 0.310883 0.409143
618 4 0.0915068 0.305657 0.414199
275 4 0.141923 0.315657 0.36994
617 4 0.133256 0.306954 0.386702
616 2 0.112381 0.306305 0.40045
274 2 0.164354 0.308629 0.361416
276 4 0.186785 0.301601 0.352892
373 2 0.20124 0.274856 0.381833
375 4 0.197955 0.296718 0.370152
343 2 0.255642 0.26791 0.340235
561 4 0.492211 0.32987 0.380775
752 4 0.478392 0.327055 0.365728
408 4 0.0165718 0.389798 0.392243
406 2 0.0135148 0.381145 0.368984
407 4 0.0104578 0.372493 0.345726
433 2 0.224554 0.37516 0.327627
434 4 0.231155 0.399206 0.325788
334 2 0.330657 0.410331 0.396394
502 2 0.272691 0.399108 0.396278
504 4 0.25394 0.382701 0.394186
503 4 0.291443 0.415515 0.39837
335 4 0.352373 0.398223 0.39904
240 4 0.364481 0.385591 0.410497
614 4 0.426387 0.389608 0.349112
751 2 0.476962 0.343953 0.347355
500 4 0.121416 0.499541 0.352429
413 4 0.129686 0.483747 0.342937
1544 4 0.140272 0.495676 0.353146
636 4 0.224042 0.437268 0.412616
668 4 0.291465 0.482356 0.405279
669 4 0.293868 0.434085 0.39244
336 4 0.308942 0.422439 0.393748
667 2 0.292666 0.45822 0.398859
592 2 0.401992 0.503287 0.350407
3990 4 0.504928 0.492931 0.373341
2237 4 0.0162146 0.0664259 0.440954
2236 2 0.0213666 0.0484916 0.42431
1127 4 0.00647121 0.0600221 0.455749
720 4 0.0152944 0.0772217 0.457483
1782 4 0.0857564 0.0101555 0.414546
1781 4 0.112634 0.00613657 0.456524
1780 2 0.0991952 0.00814604 0.435535
724 2 0.294648 0.0676193 0.488744
963 4 0.281528 0.0274377 0.494411
961 2 0.268055 0.00643191 0.495967
432 4 0.29952 0.0267816 0.502091
1580 4 0.374382 0.0204976 0.444192
425 4 0.388999 0.021154 0.43043
2878 2 0.475391 0.0619258 0.492775
2880 4 0.473707 0.0741189 0.471011
642 4 0.456105 0.072844 0.460937
718 2 0.0382124 0.087213 0.457822
719 4 0.0611305 0.0972044 0.45816
1033 2 0.129686 0.141088 0.465341
1035 4 0.126266 0.154755 0.444685
1034 4 0.133105 0.127421 0.485998
726 4 0.296377 0.0922767 0.484976
1182 4 0.291587 0.0932897 0.466405
1180 2 0.287686 0.0966853 0.441942
1181 4 0.283785 0.100081 0.417479
3158 4 0.483111 0.158706 0.461882
641 4 0.437569 0.11357 0.438608
576 4 0.443033 0.114024 0.41926
640 2 0.446837 0.0932068 0.449773
306 4 0.445547 0.129093 0.431004
304 2 0.457531 0.148867 0.44052
471 4 0.0183718 0.19042 0.466495
261 4 0.141322 0.165526 0.43673
259 2 0.156093 0.184507 0.443564
694 2 0.150276 0.229404 0.478087
260 4 0.170865 0.203488 0.450398
695 4 0.166329 0.214152 0.466474
696 4 0.134224 0.244656 0.489701
599 4 0.215533 0.192281 0.425908
687 4 0.221411 0.211651 0.428103
686 4 0.184787 0.210965 0.462145
685 2 0.203099 0.211308 0.445124
489 4 0.324753 0.220655 0.421705
467 4 0.392991 0.197678 0.422759
466 2 0.383151 0.220574 0.424799
468 4 0.373312 0.243469 0.426839
305 4 0.469516 0.16864 0.450037
585 4 0.433346 0.239753 0.475425
1260 4 0.117176 0.251158 0.483176
1258 2 0.0969935 0.256716 0.496849
813 4 0.231418 0.283275 0.488524
811 2 0.237134 0.30504 0.499423
266 4 0.330564 0.283682 0.44794
267 4 0.373521 0.260757 0.436543
265 2 0.352043 0.27222 0.442241
2456 4 0.454756 0.30056 0.495673
584 4 0.450222 0.28142 0.49733
583 2 0.441784 0.260586 0.486377
346 2 0.0668759 0.332256 0.420456
348 4 0.0605225 0.353629 0.43177
326 4 0.0699686 0.369998 0.439692
325 2 0.0926254 0.375206 0.448896
10 3 0.142268 0.349348 0.488344
327 4 0.115282 0.380414 0.458101
7 3 0.112788 0.366041 0.472686
6 1 0.129175 0.367978 0.488714
711 4 0.16017 0.386467 0.477146
8 3 0.141996 0.386759 0.484101
774 4 0.224464 0.408939 0.462117
635 4 0.208359 0.416215 0.455178
709 2 0.183157 0.39255 0.469413
772 2 0.234355 0.403206 0.484354
710 4 0.206144 0.398632 0.461681
586 2 0.405145 0.407328 0.478821
239 4 0.399668 0.391679 0.445504
238 2 0.382074 0.388635 0.428
588 4 0.389676 0.401352 0.460109
681 4 0.0701232 0.423403 0.475566
1383 4 0.0660233 0.462484 0.432908
1381 2 0.0779814 0.484427 0.432078
680 4 0.0494544 0.452282 0.440359
679 2 0.0597888 0.437842 0.457962
539 4 0.0817343 0.484992 0.499772
383 4 0.0905348 0.427521 0.476088
382 2 0.114486 0.433034 0.480682
538 2 0.103522 0.497163 0.498239
570 4 0.157746 0.489123 0.450948
569 4 0.148425 0.455911 0.487153
568 2 0.153085 0.472517 0.469051
384 4 0.138438 0.438547 0.485277
634 2 0.216201 0.426742 0.433897
880 2 0.321331 0.492413 0.488658
1 1 0.29772 0.498961 0.438333
5 3 0.290815 0.479309 0.447541
4 3 0.300979 0.4963 0.415515
587 4 0.420615 0.413304 0.497534
1184 4 0.000988656 0.0292856 0.565823
3077 4 0.012235 0.0368056 0.551247
1059 4 0.143302 0.0778574 0.586304
340 2 0.184289 0.0434803 0.527111
342 4 0.180801 0.0682372 0.527431
2430 4 0.198165 0.00188671 0.529561
341 4 0.187778 0.0187233 0.52679
430 2 0.315063 0.0268968 0.521676
725 4 0.29292 0.0429619 0.492513
431 4 0.330606 0.0270121 0.541261
843 4 0.344009 0.0380358 0.532061
842 4 0.390654 0.0383408 0.550084
841 2 0.367331 0.0381883 0.541072
1217 4 0.399345 0.0432479 0.568226
1216 2 0.412341 0.0220056 0.565977
2879 4 0.477074 0.0497326 0.514539
879 4 0.0832775 0.162915 0.541963
938 4 0.0981001 0.152669 0.534871
937 2 0.106325 0.139874 0.515026
1151 4 0.150797 0.0906203 0.573081
939 4 0.114549 0.127079 0.495181
1150 2 0.162024 0.0888554 0.550809
1272 4 0.10102 0.166909 0.548695
1152 4 0.173251 0.0870906 0.528538
877 2 0.0591825 0.169273 0.539919
878 4 0.0350875 0.175632 0.537874
1199 4 0.0237035 0.172521 0.554809
1198 2 0.000513531 0.179112 0.561439
1270 2 0.10638 0.171853 0.572612
411 4 0.234819 0.210003 0.490527
409 2 0.257661 0.209139 0.500661
898 2 0.302149 0.225367 0.543099
899 4 0.310699 0.235424 0.564334
900 4 0.293599 0.21531 0.521864
410 4 0.280502 0.208275 0.510795
791 4 0.324755 0.232204 0.57753
871 2 0.374848 0.248079 0.526826
873 4 0.39456 0.239656 0.513954
872 4 0.355136 0.256501 0.539697
1259 4 0.0768106 0.262273 0.510521
812 4 0.242851 0.326804 0.510322
649 2 0.275875 0.315757 0.534402
651 4 0.296866 0.305744 0.543583
650 4 0.254884 0.325769 0.52522
790 2 0.33976 0.252203 0.577219
1238 4 0.348979 0.289839 0.581974
906 4 0.463611 0.266923 0.589124
2455 2 0.469896 0.316262 0.507895
935 4 0.0102854 0.371712 0.511453
9 3 0.119109 0.37017 0.509505
1135 2 0.138528 0.397314 0.575233
1136 4 0.114841 0.403402 0.570034
1137 4 0.162215 0.391225 0.580433
897 4 0.178147 0.377847 0.583776
895 2 0.196572 0.3943 0.579906
773 4 0.244245 0.397473 0.506591
896 4 0.214997 0.410754 0.576037
1190 4 0.250033 0.405471 0.523044
804 4 0.240972 0.339487 0.52515
803 4 0.255743 0.386846 0.518849
802 2 0.248358 0.363167 0.521999
930 4 0.262957 0.402428 0.509611
928 2 0.285941 0.411814 0.512577
927 4 0.437905 0.380237 0.545331
925 2 0.436632 0.398424 0.52822
2457 4 0.485037 0.331963 0.520118
926 4 0.435359 0.416611 0.511109
1011 4 0.503092 0.342163 0.580048
1009 2 0.502458 0.33808 0.555388
1189 2 0.237249 0.413054 0.54315
1191 4 0.224465 0.420637 0.563256
1172 4 0.208342 0.428303 0.569801
1171 2 0.207757 0.450949 0.580383
929 4 0.308926 0.4212 0.515542
889 2 0.29441 0.490417 0.53985
891 4 0.308547 0.477702 0.523613
1952 4 0.326376 0.474367 0.529305
881 4 0.322941 0.480703 0.510691
890 4 0.280273 0.503132 0.556087
1953 4 0.34582 0.429333 0.539031
1951 2 0.336098 0.45185 0.534168
663 4 0.422405 0.430179 0.50624
1001 4 0.41625 0.490102 0.538547
662 4 0.418527 0.470901 0.535004
661 2 0.420466 0.45054 0.520622
1911 4 0.416617 0.477122 0.553145
1909 2 0.423708 0.47037 0.576151
1332 4 0.433017 0.481128 0.542572
1330 2 0.455114 0.490943 0.536203
1185 4 0.000114348 0.00436782 0.609171
1183 2 0.000551502 0.0168267 0.587497
1057 2 0.136636 0.0537915 0.587558
1058 4 0.129969 0.0297257 0.588811
2375 4 0.139667 0.0226367 0.604795
1284 4 0.1311 0.0749259 0.653089
950 4 0.230006 0.0134311 0.611707
949 2 0.250129 0.0279955 0.61456
951 4 0.270251 0.0425598 0.617414
1031 4 0.269625 0.0602423 0.606882
1030 2 0.279548 0.0780315 0.621383
45 3 0.438015 0.065415 0.662478
3007 2 0.495229 0.0559694 0.605042
3009 4 0.491145 0.0349263 0.59217
1155 4 0.156714 0.0913918 0.591164
1153 2 0.161468 0.0972541 0.615001
1154 4 0.166223 0.103116 0.638838
1221 4 0.16076 0.122052 0.642771
1219 2 0.169629 0.145319 0.645046
1212 4 0.197661 0.166185 0.644372
1210 2 0.221951 0.164424 0.650034
1211 4 0.246242 0.162663 0.655697
1032 4 0.289471 0.0958206 0.635884
888 4 0.257008 0.152341 0.668209
808 2 0.481462 0.0926372 0.645855
809 4 0.491459 0.0942937 0.622996
3178 2 0.021373 0.161423 0.662135
1271 4 0.11174 0.176796 0.596529
1245 4 0.0843255 0.203129 0.655282
1243 2 0.0868216 0.209061 0.631121
1244 4 0.0893177 0.214992 0.606959
797 4 0.176345 0.219493 0.607102
1220 4 0.178499 0.168586 0.647321
796 2 0.182928 0.200815 0.622367
798 4 0.18951 0.182137 0.637631
857 4 0.306526 0.227162 0.582184
856 2 0.302393 0.21689 0.604602
858 4 0.29826 0.206618 0.627021
905 4 0.450795 0.232568 0.623127
3123 4 0.457847 0.216007 0.630966
904 2 0.457203 0.249745 0.606125
3121 2 0.477198 0.208994 0.645163
983 4 0.0338652 0.276414 0.614403
982 2 0.0382064 0.300368 0.620105
984 4 0.0425475 0.324323 0.625806
805 2 0.30501 0.315319 0.647457
806 4 0.282425 0.310808 0.657191
792 4 0.354764 0.272202 0.576908
807 4 0.327595 0.319831 0.637723
1239 4 0.327212 0.317841 0.617227
1237 2 0.338096 0.30384 0.5996
952 2 0.478474 0.323306 0.602502
953 4 0.458231 0.309171 0.606456
3263 4 0.0514845 0.330666 0.641909
1041 4 0.0511542 0.341633 0.625355
1039 2 0.0500723 0.366496 0.627767
1040 4 0.0489904 0.39136 0.630178
993 4 0.0535122 0.408416 0.637248
1206 4 0.473786 0.410102 0.598958
991 2 0.0471174 0.42425 0.618985
992 4 0.0407227 0.440085 0.600722
1029 4 0.227335 0.424681 0.645412
1160 4 0.190945 0.484873 0.592769
1173 4 0.207172 0.473595 0.590966
1188 4 0.197357 0.480024 0.656495
1187 4 0.203307 0.484067 0.607008
1186 2 0.200332 0.482046 0.631752
1204 2 0.458238 0.429661 0.599877
1910 4 0.430799 0.463618 0.599158
1269 4 0.446388 0.467301 0.609628
1267 2 0.436167 0.472301 0.631893
1205 4 0.442689 0.449221 0.600796
1268 4 0.425947 0.477301 0.654157
1075 2 0.0245181 0.0788753 0.727759
1076 4 0.0279376 0.0747694 0.703333
1077 4 0.0210985 0.0829812 0.752185
1282 2 0.132062 0.0803281 0.677483
1004 4 0.326551 0.0151115 0.704486
1003 2 0.315313 0.0374428 0.704059
1005 4 0.304074 0.0597742 0.703632
1049 4 0.332942 0.99943 0.714125
1162 2 0.495082 0.0793544 0.700796
42 3 0.448066 0.0553474 0.696982
41 1 0.441876 0.0730041 0.683601
1083 4 0.0316981 0.133802 0.668681
1081 2 0.033492 0.111307 0.67945
1082 4 0.0352859 0.0888131 0.690218
850 2 0.0717159 0.160761 0.728272
3179 4 0.0372562 0.15025 0.677885
852 4 0.0511454 0.157972 0.74221
909 4 0.100952 0.147045 0.709592
907 2 0.113251 0.125559 0.706096
908 4 0.125551 0.104072 0.702599
1283 4 0.133024 0.0857304 0.701877
1227 4 0.143411 0.100587 0.70873
851 4 0.0922863 0.16355 0.714335
1225 2 0.15733 0.0924037 0.727822
1107 4 0.111617 0.162123 0.715293
1149 4 0.239511 0.0902492 0.753857
886 2 0.272906 0.16204 0.684894
829 2 0.323689 0.152064 0.704207
887 4 0.288803 0.171739 0.701578
831 4 0.344918 0.14152 0.696249
1141 2 0.383076 0.160842 0.707372
1142 4 0.362863 0.147305 0.701598
810 4 0.471466 0.0909806 0.668713
1163 4 0.478011 0.0912821 0.686959
44 3 0.459028 0.0886292 0.683388
43 3 0.42257 0.0825514 0.692235
1025 4 0.465134 0.165787 0.70707
3424 2 0.470638 0.127354 0.692405
3426 4 0.466712 0.105946 0.680099
3425 4 0.474564 0.148763 0.704712
3269 4 0.482915 0.163738 0.714524
1214 4 0.0341624 0.159953 0.733627
1213 2 0.0184648 0.179329 0.735458
1208 4 0.0732666 0.211472 0.713002
1209 4 0.0826787 0.220759 0.664775
1207 2 0.0779726 0.216116 0.688889
1105 2 0.122689 0.184249 0.718902
1106 4 0.133761 0.206375 0.722512
1130 4 0.150719 0.206586 0.711723
1129 2 0.162181 0.218748 0.730321
1131 4 0.173642 0.23091 0.748919
830 4 0.30246 0.162608 0.712165
978 4 0.290537 0.17507 0.721186
1193 4 0.329413 0.218264 0.714219
976 2 0.296427 0.191608 0.73899
1194 4 0.376212 0.232397 0.703695
1192 2 0.352812 0.22533 0.708957
1143 4 0.403289 0.174379 0.713147
1262 4 0.411029 0.192503 0.716396
1261 2 0.414204 0.203216 0.738764
3268 2 0.483756 0.168605 0.739035
1024 2 0.441408 0.173321 0.704728
1026 4 0.417682 0.180855 0.702386
3262 2 0.0490431 0.326009 0.666353
3264 4 0.0466017 0.321353 0.690798
779 4 0.0385121 0.304925 0.697724
778 2 0.0565086 0.295471 0.712281
780 4 0.074505 0.286016 0.726838
893 4 0.0319634 0.322285 0.703916
1065 4 0.223075 0.290382 0.71282
1063 2 0.246173 0.281406 0.70949
947 4 0.302 0.260536 0.663935
946 2 0.294814 0.26452 0.68755
948 4 0.287627 0.268505 0.711164
1064 4 0.269272 0.27243 0.706161
1008 4 0.420369 0.311696 0.733041
1006 2 0.430752 0.298061 0.751246
892 2 0.0306395 0.343602 0.716916
894 4 0.0293156 0.36492 0.729916
816 4 0.0370743 0.380429 0.739316
814 2 0.0594565 0.391458 0.740922
815 4 0.0818387 0.402487 0.742528
1066 2 0.170133 0.404041 0.703881
1067 4 0.145435 0.401169 0.706517
940 2 0.114792 0.397503 0.722363
941 4 0.128122 0.392943 0.701707
942 4 0.101461 0.402062 0.743019
1027 2 0.215039 0.414235 0.664515
1068 4 0.19483 0.406912 0.701245
1028 4 0.202744 0.40379 0.683617
1019 4 0.406534 0.396557 0.733487
1280 4 0.0395046 0.488974 0.706654
1176 4 0.148447 0.488843 0.685823
1175 4 0.194513 0.473438 0.673935
1174 2 0.17148 0.48114 0.679879
1140 4 0.341219 0.480023 0.708259
1230 4 0.395483 0.422684 0.73727
1100 4 0.412725 0.415183 0.727831
1228 2 0.377975 0.438416 0.745706
3329 4 0.496343 0.435774 0.689229
1101 4 0.446128 0.452008 0.733201
1099 2 0.429426 0.433595 0.730516
3330 4 0.460149 0.447971 0.721509
1251 4 0.463676 0.457572 0.738983
3328 2 0.478246 0.441873 0.705369
2168 4 0.424237 0.481526 0.672883
1295 4 0.0295416 0.00846483 0.79471
1296 4 0.0394288 0.0566592 0.785751
1294 2 0.0344852 0.032562 0.790231
1226 4 0.171248 0.0842206 0.746914
1203 4 0.181669 0.0689432 0.75345
2049 4 0.183171 0.00849542 0.771425
1201 2 0.183827 0.0475897 0.766278
1202 4 0.185984 0.0262362 0.779105
2254 2 0.222722 0.00503168 0.766679
2256 4 0.201228 0.0156692 0.77375
975 4 0.324296 0.0640647 0.832756
2321 4 0.464369 0.00596976 0.783213
2322 4 0.447605 0.0527543 0.777654
2320 2 0.455987 0.029362 0.780434
846 4 0.438586 0.0610962 0.793575
2442 4 0.478028 0.996151 0.793027
864 4 0.033951 0.096849 0.758351
862 2 0.0411239 0.116597 0.771906
863 4 0.0482968 0.136345 0.785462
832 2 0.0332666 0.128678 0.824865
833 4 0.0464787 0.130772 0.803741
1125 4 0.0634851 0.138684 0.797287
1123 2 0.0742273 0.160554 0.802898
1148 4 0.189655 0.0867163 0.752237
1147 2 0.214583 0.0884828 0.753047
921 4 0.173164 0.146102 0.806415
1257 4 0.251283 0.104389 0.762061
1255 2 0.268204 0.100939 0.780143
1256 4 0.285126 0.0974879 0.798224
840 4 0.284075 0.0945866 0.816921
838 2 0.286621 0.110029 0.836421
1085 4 0.365513 0.172609 0.846177
844 2 0.453294 0.0808045 0.798096
845 4 0.468001 0.100513 0.802618
1072 2 0.0580433 0.21612 0.809152
1074 4 0.0388066 0.231657 0.805447
1073 4 0.0772801 0.200583 0.812858
3188 4 0.997816 0.255519 0.785238
1124 4 0.0849695 0.182424 0.80851
1277 4 0.181015 0.231119 0.767385
1276 2 0.185185 0.218081 0.788309
1278 4 0.189354 0.205043 0.809233
920 4 0.194797 0.189148 0.819823
919 2 0.183981 0.167625 0.813119
1241 4 0.200795 0.206719 0.824438
822 4 0.173146 0.246733 0.759307
977 4 0.302318 0.208147 0.756793
918 4 0.298002 0.225614 0.753702
1298 4 0.303495 0.219653 0.772317
1297 2 0.32302 0.216364 0.787586
1299 4 0.342544 0.213075 0.802856
50 3 0.381427 0.192479 0.789108
1086 4 0.349327 0.193568 0.803757
1043 4 0.394737 0.243655 0.801932
49 3 0.399427 0.224408 0.797719
1084 2 0.35742 0.183088 0.824967
46 1 0.401815 0.201784 0.793153
47 3 0.415098 0.199317 0.774535
3468 4 0.491695 0.175048 0.782094
1263 4 0.41738 0.213929 0.761132
1146 4 0.476209 0.1861 0.776583
1145 4 0.431642 0.208447 0.772704
1144 2 0.453926 0.197273 0.774643
1022 4 0.419546 0.183997 0.828521
48 3 0.411971 0.191114 0.811081