ITEM: TIMESTEP
690000
ITEM: NUMBER OF ATOMS
4590
ITEM: BOX BOUNDS pp pp pp
-9.9985700000000008e+00 9.9985700000000008e+00
-9.9985700000000008e+00 9.9985700000000008e+00
-9.9985700000000008e+00 9.9985700000000008e+00
ITEM: ATOMS id type xs ys zs
463 2 0.0326889 0.0548016 0.041653
464 4 0.0134123 0.0389992 0.039684
465 4 0.0519655 0.070604 0.0436219
701 4 0.0686826 0.0781297 0.0516876
491 4 0.278845 0.999609 0.0278417
558 4 0.362671 0.0663205 0.0340314
556 2 0.36661 0.0603513 0.0579904
745 2 0.478887 0.0598735 0.00625329
746 4 0.494843 0.0591301 0.0254892
589 2 0.0186849 0.139289 0.0726524
591 4 0.00597906 0.137636 0.0511813
700 2 0.0888749 0.0927101 0.0494825
702 4 0.109067 0.107291 0.0472773
566 4 0.125683 0.098344 0.0452152
565 2 0.149115 0.10652 0.0421726
423 4 0.0930849 0.158669 0.0282844
421 2 0.0842456 0.164483 0.00562946
567 4 0.172547 0.114697 0.0391299
360 4 0.275305 0.147004 0.0342513
358 2 0.276252 0.127839 0.0182203
359 4 0.2772 0.108674 0.00218942
770 4 0.450772 0.131681 0.0763832
1013 4 0.491487 0.168797 0.0367806
553 2 0.0479982 0.205993 0.0109228
554 4 0.0312906 0.194733 0.0257297
666 4 0.320922 0.211023 0.0393888
664 2 0.327261 0.193534 0.0226813
573 4 0.321567 0.230358 0.0375838
665 4 0.333599 0.176045 0.00597388
461 4 0.338043 0.220816 0.0426729
460 2 0.343553 0.21834 0.0669359
1014 4 0.465481 0.206008 0.0158112
1012 2 0.478484 0.187402 0.0262959
292 2 0.129545 0.310288 0.0464601
293 4 0.135202 0.303093 0.0697282
294 4 0.123888 0.317483 0.0231919
507 4 0.153004 0.305754 0.0815236
505 2 0.177657 0.307563 0.0777624
355 2 0.242691 0.272315 0.0301485
357 4 0.221502 0.284421 0.0247045
483 4 0.219066 0.318343 0.0649507
506 4 0.202309 0.309372 0.0740011
481 2 0.242741 0.320578 0.0726781
356 4 0.26388 0.260208 0.0355925
571 2 0.312707 0.253706 0.0363363
572 4 0.303847 0.277054 0.0350889
482 4 0.266415 0.322814 0.0804055
1071 4 0.407214 0.25262 0.0347244
1069 2 0.417608 0.259669 0.0131037
324 4 0.421474 0.258159 0.0481936
322 2 0.436433 0.27084 0.0637049
670 2 0.454156 0.322091 0.07565
519 4 0.487592 0.273373 0.0718489
287 4 0.138595 0.356668 0.0144544
456 4 0.114682 0.346197 0.0835291
609 4 0.283428 0.33379 0.0750779
251 4 0.286353 0.417332 0.0191245
252 4 0.278549 0.387787 0.0587086
250 2 0.282451 0.40256 0.0389165
608 4 0.291979 0.383058 0.0745397
607 2 0.287704 0.358424 0.0748088
957 4 0.368475 0.34724 0.00644749
671 4 0.455744 0.342908 0.06189
281 4 0.473419 0.353309 0.0611878
280 2 0.479898 0.352857 0.0370424
282 4 0.486376 0.352406 0.0128969
551 4 0.0708616 0.424733 0.0562133
550 2 0.0815595 0.447219 0.0584752
330 4 0.00637698 0.426104 0.061138
1786 2 0.0828943 0.499962 0.0755665
552 4 0.0922575 0.469705 0.0607372
1787 4 0.101261 0.484713 0.0681296
242 4 0.118262 0.495112 0.0723513
241 2 0.142656 0.496579 0.0776406
625 2 0.213203 0.447415 0.0767851
245 4 0.239019 0.483333 0.0840045
626 4 0.200068 0.42682 0.0714499
244 2 0.244637 0.491458 0.0610349
271 2 0.268993 0.481425 0.0121366
273 4 0.283129 0.461865 0.00559603
246 4 0.250256 0.499582 0.0380653
227 4 0.461686 0.466677 0.0625726
226 2 0.480216 0.451638 0.0700331
228 4 0.498746 0.436599 0.0774936
1667 4 0.0807786 0.0103421 0.0885626
20 3 0.0320044 0.0618918 0.141084
1506 4 0.225241 0.0246945 0.161212
652 2 0.308272 0.00516909 0.132583
653 4 0.29323 0.0250273 0.130441
557 4 0.370549 0.0543821 0.0819494
296 4 0.3592 0.0578646 0.0977978
295 2 0.360405 0.0338488 0.104651
297 4 0.361611 0.00983305 0.111504
2724 4 0.495799 0.0082505 0.15201
590 4 0.0313908 0.140941 0.0941235
380 4 0.0237757 0.101109 0.160125
237 4 0.143392 0.150589 0.166824
769 2 0.450694 0.155216 0.0848262
312 4 0.436637 0.127598 0.161537
337 2 0.0660816 0.2256 0.131613
339 4 0.0431786 0.220926 0.122737
705 4 0.001966 0.234217 0.15441
338 4 0.0889845 0.230274 0.140489
476 4 0.150746 0.216424 0.123781
475 2 0.126165 0.216503 0.128362
477 4 0.101585 0.216582 0.132943
737 4 0.160198 0.20279 0.11274
363 4 0.0852774 0.235528 0.160732
738 4 0.207819 0.21753 0.116695
736 2 0.184009 0.21016 0.114718
285 4 0.245295 0.196612 0.153466
354 4 0.30248 0.233802 0.129765
283 2 0.267217 0.184658 0.152168
284 4 0.289139 0.172703 0.150871
254 4 0.390242 0.187708 0.115783
255 4 0.345786 0.209839 0.109906
462 4 0.349062 0.215863 0.091199
253 2 0.368014 0.198773 0.112844
630 4 0.399786 0.205659 0.112078
771 4 0.450616 0.178751 0.0932692
629 4 0.446759 0.198031 0.127443
628 2 0.423272 0.201845 0.11976
2895 4 0.496273 0.226815 0.116473
518 4 0.48888 0.244473 0.112639
352 2 0.296707 0.257723 0.134198
353 4 0.290934 0.281643 0.138631
754 2 0.286209 0.323205 0.129389
755 4 0.286777 0.298555 0.133537
278 4 0.273953 0.28925 0.14525
277 2 0.257495 0.289489 0.164072
741 4 0.347897 0.31587 0.0883004
323 4 0.451393 0.283521 0.0792161
672 4 0.452569 0.301275 0.08941
517 2 0.488236 0.258923 0.092244
620 4 0.0193196 0.345934 0.089891
647 4 0.0152916 0.350384 0.108184
646 2 0.0395445 0.351103 0.114222
648 4 0.0637973 0.351822 0.12026
455 4 0.119451 0.393664 0.0985242
454 2 0.117067 0.36993 0.0910266
537 4 0.215023 0.385659 0.160423
535 2 0.206399 0.374986 0.139521
536 4 0.197776 0.364313 0.118619
756 4 0.28564 0.347856 0.125241
612 4 0.275219 0.351228 0.141795
610 2 0.258216 0.361418 0.157034
739 2 0.359956 0.335419 0.0981805
387 4 0.337742 0.363316 0.164509
740 4 0.372014 0.354967 0.108061
15 3 0.387523 0.361769 0.118493
385 2 0.354266 0.35973 0.14609
386 4 0.37079 0.356143 0.12767
11 1 0.405558 0.371587 0.128343
13 3 0.401138 0.375569 0.150771
14 3 0.410568 0.391531 0.117594
495 4 0.397061 0.403854 0.126164
12 3 0.423677 0.357508 0.126719
645 4 0.472913 0.400436 0.155988
597 4 0.478146 0.416245 0.142903
315 4 3.09004e-05 0.455318 0.109207
1467 4 0.0115346 0.462986 0.123163
1465 2 0.0253004 0.478344 0.137299
1466 4 0.0390662 0.493701 0.151435
627 4 0.226338 0.468011 0.0821202
524 4 0.322525 0.480471 0.0946082
766 2 0.264241 0.487116 0.163249
523 2 0.343779 0.467302 0.0946561
525 4 0.365033 0.454132 0.0947039
658 2 0.393587 0.481295 0.14958
493 2 0.389057 0.426976 0.13131
660 4 0.388236 0.46752 0.129411
494 4 0.381054 0.450098 0.136456
659 4 0.398939 0.49507 0.169749
595 2 0.48126 0.438665 0.153525
596 4 0.484375 0.461085 0.164148
16 1 0.037284 0.0649797 0.163021
2480 4 0.99644 0.0184348 0.170429
17 3 0.0587211 0.0575299 0.166776
18 3 0.0226944 0.052927 0.176448
1404 4 0.0697116 0.0291725 0.236578
673 2 0.130282 0.0669018 0.212302
674 4 0.146281 0.0505812 0.222443
1504 2 0.205496 0.0325319 0.1744
450 4 0.171514 0.0528688 0.180214
1505 4 0.185752 0.0403692 0.187588
448 2 0.172613 0.0769942 0.173738
689 4 0.21661 0.0201409 0.243895
28 3 0.319804 0.0767815 0.234472
758 4 0.382131 0.0564597 0.174213
21 1 0.37403 0.0143878 0.240322
25 3 0.385054 0.0338683 0.236123
759 4 0.386993 0.0512376 0.223708
757 2 0.384562 0.0538486 0.19896
22 3 0.35744 0.0115384 0.224644
744 4 0.465155 0.029531 0.245101
742 2 0.485511 0.0174431 0.253143
351 4 0.454638 0.0459662 0.239735
349 2 0.439396 0.065407 0.235873
350 4 0.424154 0.0848478 0.232011
19 3 0.0361423 0.0875366 0.168339
512 4 0.0117805 0.158565 0.178048
379 2 0.022124 0.121908 0.173904
381 4 0.0204724 0.142707 0.187683
579 4 0.0727445 0.107484 0.181258
235 2 0.161686 0.133926 0.163234
675 4 0.114282 0.0832223 0.202161
577 2 0.0853572 0.129068 0.181729
578 4 0.0979698 0.150652 0.1822
449 4 0.173712 0.10112 0.167263
236 4 0.179979 0.117264 0.159644
693 4 0.191071 0.109256 0.173213
691 2 0.214851 0.111903 0.18047
692 4 0.238632 0.11455 0.187727
723 4 0.222973 0.11882 0.219942
721 2 0.202333 0.128643 0.230074
722 4 0.181692 0.138465 0.240207
582 4 0.254744 0.112485 0.201041
580 2 0.277022 0.120415 0.209164
581 4 0.2993 0.128345 0.217288
30 3 0.309959 0.112105 0.22593
26 1 0.318935 0.0987087 0.242011
27 3 0.340303 0.105804 0.246725
310 2 0.429591 0.132584 0.185003
311 4 0.422544 0.137571 0.208469
511 2 0.0258825 0.174333 0.191378
513 4 0.0399845 0.190101 0.204707
362 4 0.116644 0.241306 0.199248
361 2 0.100961 0.238417 0.17999
372 4 0.113634 0.230151 0.214762
370 2 0.136397 0.231334 0.225038
371 4 0.159161 0.232517 0.235315
763 2 0.368019 0.238393 0.191832
765 4 0.350315 0.220849 0.189837
520 2 0.489729 0.225208 0.231742
521 4 0.467999 0.234944 0.239371
395 4 0.0472368 0.265711 0.232219
750 4 0.0556731 0.280649 0.223167
748 2 0.0785682 0.290696 0.223388
749 4 0.101463 0.300743 0.223609
279 4 0.241038 0.289728 0.182895
307 2 0.30469 0.255586 0.211675
308 4 0.308364 0.252714 0.23624
309 4 0.301015 0.258458 0.18711
764 4 0.385722 0.255937 0.193826
623 4 0.389083 0.26858 0.179775
622 2 0.413004 0.275444 0.17735
624 4 0.436924 0.282309 0.174926
528 4 0.443093 0.289452 0.193438
527 4 0.489788 0.271811 0.196453
526 2 0.46644 0.280632 0.194945
263 4 0.0701157 0.41239 0.237001
300 4 0.137371 0.337973 0.214732
298 2 0.135876 0.352972 0.234681
602 4 0.0874401 0.413722 0.245435
611 4 0.241212 0.371608 0.172273
290 4 0.200312 0.401511 0.234346
302 4 0.321239 0.37359 0.16868
301 2 0.320385 0.396647 0.178314
643 2 0.469199 0.388685 0.177744
644 4 0.465485 0.376934 0.199499
447 4 0.46294 0.360871 0.209988
445 2 0.481166 0.357985 0.22686
446 4 0.499393 0.3551 0.243731
262 2 0.0624959 0.419912 0.214406
264 4 0.0548762 0.427434 0.191811
417 4 0.148459 0.484421 0.178603
415 2 0.160097 0.463538 0.185926
289 2 0.190036 0.421303 0.223039
291 4 0.17976 0.441096 0.211733
416 4 0.171735 0.442655 0.19325
303 4 0.319531 0.419704 0.187949
768 4 0.265618 0.462151 0.163255
231 4 0.406722 0.493401 0.186656
1568 4 0.489378 0.481097 0.166751
1798 2 0.0181107 0.0110231 0.30959
1799 4 0.0249179 0.0176596 0.286464
233 4 0.0142411 0.0259095 0.273185
1402 2 0.0515249 0.0257187 0.253385
1403 4 0.0333382 0.0222648 0.270193
1699 2 0.212925 0.043716 0.29851
1701 4 0.219389 0.0199103 0.294425
1700 4 0.206461 0.0675217 0.302594
248 4 0.215598 0.0833195 0.306969
1516 2 0.378918 0.0058565 0.300083
23 3 0.364374 0.0151419 0.261408
697 2 0.384818 0.0698877 0.322201
699 4 0.37722 0.0496553 0.309627
1518 4 0.37912 0.0292568 0.30889
743 4 0.505868 0.00535512 0.261185
478 2 0.474688 0.0405765 0.303325
479 4 0.47564 0.0286271 0.281382
480 4 0.473737 0.052526 0.325268
398 4 0.0815273 0.141307 0.333878
544 2 0.152399 0.160991 0.266602
249 4 0.202372 0.131391 0.303107
247 2 0.208985 0.107355 0.305038
404 4 0.218019 0.144032 0.302523
546 4 0.166086 0.146074 0.251929
403 2 0.210304 0.155828 0.281871
29 3 0.306185 0.0999329 0.26136
698 4 0.392415 0.09012 0.334775
333 4 0.434224 0.136359 0.305995
331 2 0.450428 0.154848 0.301435
444 4 0.00224567 0.241578 0.325446
393 4 0.0888171 0.222421 0.262137
392 4 0.123477 0.189048 0.275761
391 2 0.106147 0.205735 0.268949
545 4 0.138711 0.175909 0.281275
405 4 0.202589 0.167624 0.261219
378 4 0.282518 0.221588 0.321896
332 4 0.466631 0.173337 0.296874
762 4 0.485716 0.170392 0.303074
394 2 0.0389725 0.26548 0.255816
396 4 0.0307082 0.265249 0.279413
442 2 0.00991588 0.258019 0.30824
443 4 0.0175861 0.274459 0.291034
364 2 0.0280408 0.320255 0.285518
365 4 0.0356065 0.297776 0.277603
401 4 0.190617 0.262833 0.259228
345 4 0.225975 0.296707 0.300925
400 2 0.19958 0.275664 0.278727
402 4 0.208544 0.288494 0.298227
510 4 0.209948 0.30677 0.305808
508 2 0.207873 0.325976 0.321683
343 2 0.246012 0.305816 0.289064
344 4 0.26605 0.314925 0.277202
498 4 0.382569 0.271867 0.31913
496 2 0.374157 0.286653 0.300806
497 4 0.365744 0.30144 0.282482
542 4 0.438798 0.301163 0.302613
541 2 0.429898 0.323414 0.309747
2493 4 0.0100276 0.34005 0.310157
366 4 0.0204751 0.342734 0.293432
299 4 0.134381 0.367972 0.254629
601 2 0.105264 0.398088 0.253376
603 4 0.123087 0.382454 0.261318
734 4 0.14218 0.383926 0.263849
733 2 0.15876 0.393602 0.279869
735 4 0.175341 0.403278 0.295889
677 4 0.189663 0.407535 0.308934
676 2 0.194762 0.385037 0.318577
678 4 0.199862 0.362539 0.328221
727 2 0.330868 0.392957 0.279623
728 4 0.33104 0.403006 0.302518
438 4 0.27585 0.401241 0.270534
729 4 0.330697 0.382907 0.256729
543 4 0.420997 0.345664 0.31688
615 4 0.402921 0.34094 0.325122
613 2 0.381129 0.35277 0.3219
614 4 0.359338 0.364599 0.318678
2538 4 0.463644 0.381395 0.310386
2536 2 0.476604 0.396272 0.295027
2537 4 0.489564 0.411148 0.279667
753 4 0.463529 0.392263 0.326822
549 4 0.0539345 0.421926 0.310148
777 4 0.0946429 0.439985 0.280134
775 2 0.109546 0.458658 0.287509
776 4 0.12445 0.477331 0.294883
414 4 0.142147 0.470619 0.300314
412 2 0.152018 0.489981 0.312677
437 4 0.294929 0.446448 0.260888
436 2 0.28539 0.423845 0.265711
2862 4 0.482234 0.465858 0.269438
594 4 0.440055 0.457913 0.320954
732 4 0.126404 0.0599857 0.397277
730 2 0.117884 0.0734684 0.37802
367 2 0.0946825 0.00276123 0.411376
605 4 0.17914 0.0876826 0.375623
604 2 0.203934 0.0849748 0.373856
439 2 0.319868 0.000894549 0.386758
441 4 0.318227 0.00703712 0.362577
426 4 0.406499 0.0576086 0.401785
258 4 0.414457 0.0719282 0.390342
318 4 0.0255348 0.0913653 0.350061
316 2 0.0491908 0.0968398 0.356028
317 4 0.0728467 0.102314 0.361995
457 2 0.0448043 0.153975 0.398709
459 4 0.0230834 0.164827 0.392742
458 4 0.0665253 0.143123 0.404676
397 2 0.0962417 0.124265 0.344753
399 4 0.110956 0.107224 0.355628
731 4 0.109364 0.086951 0.358764
599 4 0.177803 0.153848 0.397161
606 4 0.228728 0.082267 0.37209
600 4 0.205689 0.1559 0.355702
598 2 0.191746 0.154874 0.376432
683 4 0.270401 0.100098 0.364052
682 2 0.27645 0.100648 0.388306
684 4 0.2825 0.101199 0.412561
256 2 0.411464 0.0834527 0.368355
257 4 0.408471 0.0949771 0.346369
632 4 0.346302 0.124407 0.34987
631 2 0.369197 0.114421 0.348751
633 4 0.392093 0.104436 0.347631
516 4 0.415187 0.152981 0.384574
575 4 0.405198 0.146496 0.401111
451 2 0.487104 0.151693 0.365255
514 2 0.434521 0.166173 0.375779
2653 2 0.0118854 0.199312 0.382414
2654 4 0.0298185 0.182613 0.387389
388 2 0.0893242 0.233635 0.344306
389 4 0.102311 0.21447 0.33486
473 4 0.248945 0.178245 0.368073
687 4 0.18176 0.172717 0.40526
685 2 0.171182 0.194652 0.410928
377 4 0.32203 0.22925 0.351574
376 2 0.302274 0.225419 0.336735
474 4 0.269456 0.202621 0.406619
472 2 0.2592 0.190433 0.387346
488 4 0.269089 0.221684 0.399809
487 2 0.287867 0.23661 0.406866
717 4 0.401635 0.245569 0.336626
707 4 0.338992 0.218554 0.346764
420 4 0.394204 0.226471 0.333913
418 2 0.40602 0.204441 0.334386
706 2 0.346809 0.195674 0.353133
708 4 0.354626 0.172794 0.359503
715 2 0.381618 0.250481 0.350781
419 4 0.417836 0.18241 0.334859
515 4 0.453855 0.179366 0.366984
453 4 0.466257 0.164149 0.371209
390 4 0.0763372 0.252799 0.353752
618 4 0.0711662 0.31432 0.392985
347 4 0.0548786 0.319337 0.404437
616 2 0.0869795 0.325616 0.377252
275 4 0.136024 0.311727 0.39099
274 2 0.148354 0.289978 0.390605
276 4 0.160684 0.268229 0.390221
373 2 0.208918 0.315018 0.387706
374 4 0.231078 0.308827 0.37792
375 4 0.186757 0.321209 0.397492
716 4 0.361601 0.255394 0.364936
406 2 0.0517452 0.413742 0.393011
408 4 0.0633649 0.401315 0.411334
548 4 0.0371166 0.41608 0.356878
617 4 0.102793 0.336912 0.36152
509 4 0.205798 0.345182 0.337558
504 4 0.240765 0.392448 0.39948
435 4 0.254162 0.368333 0.34103
433 2 0.270062 0.387407 0.343956
434 4 0.285962 0.406481 0.346882
336 4 0.291334 0.384622 0.420171
334 2 0.315824 0.38355 0.415245
561 4 0.45516 0.364028 0.383934
752 4 0.449502 0.363067 0.364921
559 2 0.464477 0.37151 0.405897
751 2 0.456515 0.377665 0.345872
2463 4 0.00415932 0.494525 0.335554
547 2 0.0455256 0.419003 0.333513
407 4 0.0401255 0.426169 0.374688
499 2 0.150238 0.498283 0.385826
501 4 0.126455 0.4918 0.381637
1544 4 0.176805 0.504855 0.370015
668 4 0.287292 0.467346 0.409462
1 1 0.315059 0.493335 0.406518
3 3 0.320901 0.489683 0.384361
4 3 0.305678 0.474111 0.415509
593 4 0.417519 0.488036 0.353901
592 2 0.428787 0.472975 0.337427
1772 4 0.0341507 0.00110845 0.41784
718 2 0.0348237 0.0696253 0.459115
720 4 0.0297684 0.0482225 0.471012
2237 4 0.0287732 0.0293541 0.477815
2236 2 0.0320622 0.00458124 0.476997
1127 4 0.0213347 0.044184 0.487936
369 4 0.0783436 0.0181669 0.422371
1181 4 0.219488 0.0901722 0.482322
1180 2 0.238147 0.0757439 0.474025
2430 4 0.199034 0.0276683 0.503493
341 4 0.186403 0.0380938 0.493102
1182 4 0.256806 0.0613156 0.465728
726 4 0.313946 0.0453614 0.436913
724 2 0.306753 0.0512233 0.460131
432 4 0.314899 0.0581368 0.495114
725 4 0.29956 0.0570851 0.483349
424 2 0.401606 0.0409354 0.419763
425 4 0.396712 0.0242621 0.437742
2879 4 0.474274 0.0718536 0.485636
719 4 0.039879 0.0910281 0.447217
1033 2 0.106246 0.153865 0.485855
1034 4 0.0919207 0.13468 0.49306
320 4 0.297551 0.112945 0.419394
321 4 0.293844 0.130352 0.466127
319 2 0.295697 0.121648 0.442761
411 4 0.24908 0.155986 0.468742
574 2 0.404868 0.14111 0.425526
576 4 0.404538 0.135723 0.44994
2878 2 0.488899 0.0879607 0.473313
642 4 0.492244 0.117548 0.451419
640 2 0.476312 0.136812 0.450935
641 4 0.46038 0.156076 0.45045
306 4 0.440034 0.15706 0.451055
469 2 0.0113841 0.199355 0.485467
470 4 0.030796 0.191729 0.499258
260 4 0.118073 0.234604 0.457101
261 4 0.125054 0.185819 0.465585
259 2 0.121564 0.210212 0.461343
1035 4 0.12057 0.17305 0.47865
686 4 0.160605 0.216588 0.416597
409 2 0.26088 0.172342 0.483521
410 4 0.272679 0.188698 0.498301
468 4 0.415208 0.234641 0.42261
466 2 0.400908 0.214521 0.426598
467 4 0.386609 0.194401 0.430585
3159 4 0.496312 0.202716 0.496609
305 4 0.451731 0.205679 0.450813
304 2 0.445883 0.18137 0.450934
346 2 0.0504071 0.325412 0.428275
326 4 0.0626124 0.329189 0.462939
695 4 0.111039 0.254121 0.454045
694 2 0.106171 0.261427 0.477456
10 3 0.156384 0.335735 0.463423
651 4 0.234724 0.275477 0.49178
649 2 0.251253 0.294182 0.493237
489 4 0.306645 0.251535 0.413923
650 4 0.267781 0.312887 0.494693
266 4 0.337558 0.258472 0.439025
267 4 0.377395 0.279133 0.461089
265 2 0.357477 0.268803 0.450057
584 4 0.488663 0.289587 0.463747
583 2 0.464897 0.29044 0.471469
585 4 0.441131 0.291292 0.479192
348 4 0.0459356 0.331487 0.452114
325 2 0.0810537 0.329229 0.479823
2813 4 0.00916587 0.370604 0.447677
7 3 0.128823 0.353314 0.481431
327 4 0.099495 0.329269 0.496708
6 1 0.151599 0.352212 0.478399
8 3 0.159093 0.372644 0.470351
9 3 0.161663 0.347552 0.49878
711 4 0.172375 0.376771 0.456092
709 2 0.193697 0.388431 0.461976
710 4 0.215019 0.40009 0.46786
774 4 0.223104 0.404401 0.484846
502 2 0.251944 0.389765 0.421684
503 4 0.263123 0.387082 0.443887
586 2 0.404548 0.411068 0.482984
335 4 0.340314 0.382477 0.410318
238 2 0.363235 0.400431 0.44431
240 4 0.348287 0.387578 0.428931
239 4 0.378182 0.413285 0.45969
587 4 0.418071 0.39517 0.496753
560 4 0.473795 0.378993 0.42786
2507 4 0.491906 0.384337 0.437825
1381 2 0.0319739 0.497432 0.436714
679 2 0.0556588 0.456873 0.466044
1383 4 0.0311059 0.474505 0.446652
681 4 0.079629 0.450672 0.469531
680 4 0.0316886 0.463073 0.462558
382 2 0.107261 0.439897 0.458507
568 2 0.150849 0.476215 0.447126
383 4 0.084657 0.431925 0.465627
569 4 0.149529 0.451431 0.444091
384 4 0.129865 0.447868 0.451387
635 4 0.219078 0.418351 0.472664
634 2 0.224795 0.442551 0.470046
636 4 0.230512 0.466751 0.467429
669 4 0.254073 0.436466 0.430524
882 4 0.281984 0.496352 0.491035
667 2 0.270683 0.451906 0.419993
880 2 0.304309 0.487431 0.497906
588 4 0.391025 0.426965 0.469215
663 4 0.45198 0.445451 0.492529
1126 2 0.0153726 0.0571116 0.508491
1128 4 0.00941045 0.0700391 0.529046
1057 2 0.137432 0.0735301 0.573333
1058 4 0.124308 0.0533628 0.580131
1523 4 0.115374 0.00807234 0.506906
340 2 0.186213 0.0606954 0.503793
2428 2 0.205524 0.0115218 0.521447
430 2 0.329955 0.0718647 0.509606
950 4 0.297517 0.0210703 0.566457
962 4 0.276135 0.00542074 0.514328
963 4 0.303285 0.043149 0.495883
961 2 0.28971 0.0242849 0.505105
1217 4 0.396576 0.0571064 0.566439
1216 2 0.391337 0.0330886 0.571008
842 4 0.38954 0.0729035 0.555264
1218 4 0.386098 0.00907082 0.575578
938 4 0.0728778 0.120657 0.552555
937 2 0.0827732 0.130946 0.532027
939 4 0.0926685 0.141235 0.511499
1151 4 0.159621 0.110761 0.561125
1059 4 0.150557 0.0936974 0.566535
1155 4 0.158304 0.105099 0.579748
342 4 0.186023 0.083297 0.514485
1150 2 0.175542 0.106 0.542443
1152 4 0.191463 0.10124 0.52376
858 4 0.249385 0.169797 0.549825
841 2 0.371462 0.0868316 0.545048
843 4 0.353384 0.10076 0.534831
431 4 0.345012 0.0855925 0.524099
878 4 0.0404497 0.213181 0.548553
1199 4 0.0217908 0.208698 0.542012
877 2 0.0626435 0.205249 0.556902
879 4 0.0848373 0.197317 0.56525
857 4 0.284749 0.201546 0.565385
856 2 0.267067 0.185672 0.557605
898 2 0.305153 0.204246 0.518758
791 4 0.289933 0.24093 0.553404
899 4 0.327733 0.205941 0.529362
900 4 0.282573 0.20255 0.508155
871 2 0.39432 0.251659 0.524399
3158 4 0.464766 0.172453 0.520893
872 4 0.415917 0.239873 0.528858
3157 2 0.480539 0.187584 0.508751
906 4 0.446837 0.22607 0.584888
983 4 0.0647675 0.328417 0.570742
1258 2 0.131099 0.295123 0.516301
1259 4 0.150921 0.310278 0.517909
1260 4 0.111277 0.279968 0.514692
696 4 0.101302 0.268732 0.500868
790 2 0.298124 0.255215 0.572219
811 2 0.300837 0.327952 0.502293
804 4 0.26757 0.325085 0.522757
812 4 0.27601 0.328611 0.505183
813 4 0.325665 0.327292 0.499403
873 4 0.372724 0.263444 0.51994
1239 4 0.347187 0.309016 0.579237
954 4 0.491997 0.296729 0.580191
952 2 0.472197 0.311251 0.584907
1135 2 0.110584 0.398889 0.570795
897 4 0.146262 0.379057 0.552726
1137 4 0.131728 0.387198 0.564356
895 2 0.166098 0.381566 0.567739
1189 2 0.219877 0.384035 0.561027
773 4 0.230626 0.382744 0.529289
1190 4 0.237689 0.375835 0.545514
803 4 0.240057 0.36661 0.527171
772 2 0.226865 0.393572 0.507068
1191 4 0.202065 0.392234 0.576541
802 2 0.253814 0.345847 0.524964
930 4 0.330395 0.401912 0.534823
928 2 0.308194 0.394567 0.525974
929 4 0.285992 0.387221 0.517125
927 4 0.42676 0.378998 0.554616
925 2 0.431145 0.385692 0.530927
926 4 0.43553 0.392386 0.507239
1161 4 0.15947 0.472099 0.548648
2243 4 0.149343 0.484772 0.534094
1159 2 0.174975 0.467072 0.567609
891 4 0.295692 0.459462 0.586957
889 2 0.31871 0.45484 0.578356
881 4 0.326633 0.478509 0.504777
1952 4 0.341508 0.48727 0.515253
1002 4 0.391539 0.425067 0.548607
1000 2 0.411106 0.440096 0.544552
890 4 0.341729 0.450217 0.569756
1001 4 0.430673 0.455125 0.540497
662 4 0.454438 0.481674 0.526918
661 2 0.453209 0.463563 0.509724
1911 4 0.442108 0.472116 0.541138
1909 2 0.450434 0.473407 0.564679
1332 4 0.466703 0.497053 0.533323
943 2 0.0764247 0.0254978 0.646372
945 4 0.0639403 0.00412555 0.64283
944 4 0.0889091 0.04687 0.649914
825 4 0.142123 0.0274343 0.620206
823 2 0.149117 0.00499275 0.628729
1030 2 0.249729 0.0781827 0.590958
949 2 0.289649 0.037142 0.58392
1031 4 0.272453 0.0678629 0.592477
951 4 0.28178 0.0532138 0.601383
1092 4 0.319984 0.0152695 0.644503
3008 4 0.493138 0.0870072 0.601303
1083 4 0.016041 0.135794 0.632833
1081 2 0.0277679 0.124268 0.651669
3179 4 0.00872379 0.153293 0.631561
1153 2 0.161823 0.124311 0.595358
1154 4 0.165342 0.143524 0.610968
1282 2 0.160007 0.113006 0.658211
1032 4 0.227005 0.0885024 0.589439
1284 4 0.167967 0.111772 0.634541
1221 4 0.173031 0.161171 0.605154
45 3 0.438754 0.0771263 0.660329
808 2 0.487084 0.0983035 0.641006
810 4 0.484088 0.0958272 0.665706
809 4 0.490079 0.10078 0.616307
1243 2 0.0721682 0.228734 0.637705
1244 4 0.0709545 0.214643 0.617086
1245 4 0.0733819 0.242825 0.658325
1272 4 0.0806933 0.190503 0.582598
1270 2 0.0996482 0.189509 0.598874
1271 4 0.118603 0.188515 0.615149
1210 2 0.235098 0.184791 0.651184
1212 4 0.214306 0.194982 0.641749
1219 2 0.184293 0.17771 0.620148
1220 4 0.195555 0.194248 0.635142
796 2 0.21078 0.229056 0.615909
798 4 0.206859 0.209486 0.63097
797 4 0.214702 0.248625 0.600848
1211 4 0.25589 0.174601 0.66062
888 4 0.275606 0.17899 0.662512
904 2 0.454908 0.227035 0.608534
905 4 0.462979 0.228001 0.632179
3123 4 0.469024 0.240153 0.646899
3121 2 0.49136 0.240501 0.658131
947 4 0.194826 0.251186 0.637617
946 2 0.200957 0.26301 0.658778
792 4 0.306316 0.269501 0.591033
1238 4 0.309006 0.285551 0.601425
1237 2 0.328096 0.297283 0.590331
953 4 0.452397 0.325774 0.589622
982 2 0.0584052 0.337492 0.593155
984 4 0.0520429 0.346567 0.615568
1041 4 0.0625844 0.350662 0.631436
3263 4 0.0462698 0.340221 0.633565
3262 2 0.0313106 0.338974 0.653561
1136 4 0.0894411 0.41058 0.577235
1039 2 0.0821247 0.365211 0.637063
1040 4 0.101665 0.379761 0.64269
991 2 0.112245 0.410551 0.645432
993 4 0.118241 0.386882 0.650817
896 4 0.185935 0.384075 0.582753
1172 4 0.194285 0.398539 0.593231
1206 4 0.450763 0.3919 0.66358
3309 4 0.487723 0.371085 0.616038
992 4 0.106248 0.434221 0.640048
1175 4 0.244492 0.499197 0.635375
1188 4 0.234011 0.48636 0.624414
1173 4 0.185913 0.447334 0.600274
1171 2 0.190099 0.422936 0.596752
1187 4 0.193432 0.464215 0.605345
1160 4 0.190479 0.462044 0.58657
1186 2 0.213722 0.475287 0.61488
1204 2 0.448546 0.414627 0.653394
1910 4 0.458761 0.474698 0.58822
1205 4 0.446329 0.437354 0.643208
1269 4 0.428137 0.445468 0.638932
1267 2 0.439456 0.46765 0.641172
1268 4 0.450776 0.489832 0.643412
2254 2 0.191209 0.0176162 0.72806
1147 2 0.215317 0.0826746 0.726243
1149 4 0.23848 0.0733361 0.725056
2255 4 0.174413 0.0358251 0.731453
1003 2 0.326003 0.0642592 0.714642
1004 4 0.329946 0.0599959 0.738962
1005 4 0.322061 0.0685226 0.690322
42 3 0.450119 0.0577259 0.690118
41 1 0.450668 0.0782313 0.679707
1163 4 0.490569 0.0830034 0.679502
1082 4 0.0394948 0.112741 0.670505
1076 4 0.0255274 0.103716 0.68161
864 4 0.0584906 0.110614 0.736923
1075 2 0.038497 0.100341 0.702718
1077 4 0.0514666 0.0969659 0.723827
909 4 0.0936996 0.148716 0.6987
907 2 0.114899 0.136429 0.69372
908 4 0.136098 0.124141 0.688741
1283 4 0.152048 0.11424 0.681882
1227 4 0.148054 0.114469 0.700785
1225 2 0.163334 0.108408 0.719624
1148 4 0.192153 0.0920132 0.72743
1226 4 0.178615 0.102346 0.738464
1142 4 0.385819 0.162653 0.721436
831 4 0.373266 0.155861 0.706913
1141 2 0.410302 0.167223 0.72365
1025 4 0.470813 0.145666 0.681323
3425 4 0.500296 0.13671 0.710847
44 3 0.47274 0.0837314 0.675128
43 3 0.441326 0.0940768 0.693851
3424 2 0.490896 0.117873 0.697356
3426 4 0.481496 0.0990364 0.683865
1024 2 0.454612 0.159832 0.694052
852 4 0.0467721 0.205233 0.738144
1213 2 0.00824072 0.215526 0.728711
1214 4 0.0264652 0.200238 0.736413
1209 4 0.084235 0.241672 0.675576
1207 2 0.0957194 0.228643 0.693563
1208 4 0.107204 0.215614 0.71155
1106 4 0.146524 0.188914 0.73926
1105 2 0.123216 0.180038 0.741027
1107 4 0.0999077 0.171163 0.742793
1130 4 0.18289 0.188552 0.739844
1129 2 0.182985 0.213255 0.743712
1131 4 0.183079 0.237957 0.747579
830 4 0.331517 0.182745 0.701
886 2 0.296653 0.177028 0.675868
887 4 0.3177 0.175065 0.689223
976 2 0.312204 0.203389 0.721221
978 4 0.313031 0.183601 0.705959
977 4 0.311377 0.223178 0.736482
1193 4 0.338796 0.25211 0.692401
829 2 0.352392 0.169303 0.703957
1192 2 0.354109 0.232486 0.694759
1194 4 0.369422 0.212861 0.697118
1143 4 0.434784 0.171792 0.725865
1026 4 0.43841 0.173998 0.706781
1261 2 0.455763 0.204016 0.734825
1262 4 0.445634 0.186803 0.719783
1263 4 0.465893 0.22123 0.749867
1074 4 0.0769743 0.269946 0.747341
893 4 0.030705 0.332812 0.687101
948 4 0.207087 0.274835 0.679939
821 4 0.176133 0.279769 0.708755
820 2 0.176683 0.267771 0.730685
1064 4 0.224879 0.286254 0.677196
1065 4 0.215836 0.302533 0.723607
1063 2 0.220358 0.294393 0.700402
3264 4 0.0163514 0.337726 0.673557
3274 2 0.00319607 0.3818 0.738139
892 2 0.033873 0.346836 0.707557
894 4 0.037041 0.36086 0.728014
3276 4 0.0203765 0.363677 0.736893
814 2 0.0570945 0.380925 0.746486
816 4 0.0352412 0.377486 0.734834
941 4 0.14388 0.375091 0.741939
1067 4 0.154871 0.387615 0.729054
1066 2 0.161032 0.401964 0.709526
940 2 0.120057 0.381297 0.746312
1029 4 0.230192 0.417494 0.668108
1027 2 0.205731 0.419512 0.672879
1068 4 0.167193 0.416312 0.689998
806 4 0.301729 0.365559 0.679292
805 2 0.32489 0.373052 0.685002
807 4 0.348051 0.380544 0.690712
1019 4 0.39024 0.364481 0.705087
1018 2 0.377794 0.360486 0.726402
1020 4 0.365348 0.356492 0.747717
1280 4 0.0546286 0.467616 0.689251
1279 2 0.0379472 0.484785 0.696472
1281 4 0.0212659 0.501954 0.703694
1028 4 0.18127 0.421531 0.67765
1140 4 0.260439 0.45284 0.68742
1139 4 0.277796 0.452169 0.734313
1138 2 0.269118 0.452504 0.710867
1228 2 0.389655 0.443206 0.736251
1229 4 0.371144 0.457539 0.74503
1230 4 0.408166 0.428873 0.727471
1989 4 0.360187 0.471092 0.736956
1100 4 0.423796 0.441485 0.732562
1101 4 0.473782 0.441287 0.734009
1099 2 0.448789 0.441386 0.733286
1251 4 0.485114 0.468871 0.746257
3330 4 0.492688 0.443906 0.726633
1294 2 0.0309547 0.032745 0.781191
1295 4 0.0129365 0.0500003 0.782858
1296 4 0.048973 0.0154897 0.779525
911 4 0.090829 0.0560353 0.829686
2047 2 0.13622 0.00804939 0.775691
1203 4 0.101406 0.0754581 0.767337
1201 2 0.111254 0.0581003 0.7824
1202 4 0.121102 0.0407425 0.797464
2049 4 0.136947 0.0289821 0.789347
1257 4 0.259954 0.0341251 0.767276
1255 2 0.258609 0.0484324 0.787738
1256 4 0.257264 0.0627397 0.808199
840 4 0.261568 0.0834024 0.810132
1113 4 0.389299 0.0485021 0.809054
1111 2 0.382128 0.0688952 0.821619
2321 4 0.478978 0.0021137 0.786155
2322 4 0.482116 0.0502215 0.79944
2320 2 0.480547 0.0261676 0.792798
980 4 0.43971 0.0268721 0.831571
846 4 0.481416 0.0674133 0.788668
862 2 0.0499841 0.113375 0.760272
863 4 0.0414777 0.116135 0.783622
832 2 0.0286958 0.100475 0.823172
833 4 0.0356837 0.112346 0.802305
1125 4 0.0188934 0.166977 0.823442
31 1 0.11163 0.146247 0.827254
34 3 0.116093 0.124621 0.820127
32 3 0.0909447 0.152544 0.819405
35 3 0.127403 0.160519 0.81912
838 2 0.273882 0.101112 0.822778
844 2 0.473406 0.083371 0.771164
845 4 0.465396 0.0993288 0.753661
850 2 0.0667439 0.192784 0.746589
1073 4 0.04321 0.241035 0.77025
851 4 0.0867157 0.180335 0.755034
1277 4 0.194555 0.24966 0.758443
1276 2 0.206745 0.250074 0.78027
920 4 0.192609 0.196117 0.819612
1241 4 0.22808 0.235218 0.810307
918 4 0.310288 0.234672 0.751222
1298 4 0.326136 0.22343 0.750555
916 2 0.291583 0.245291 0.763972
1084 2 0.358082 0.169286 0.818114
50 3 0.397926 0.179152 0.78771
1086 4 0.357798 0.184846 0.798544
1299 4 0.345427 0.198639 0.789465
1297 2 0.335781 0.211035 0.77001
1043 4 0.397456 0.226091 0.78657
49 3 0.410978 0.212986 0.777583
46 1 0.416395 0.192455 0.78694
48 3 0.424867 0.195485 0.808328
1145 4 0.478139 0.220579 0.76654
47 3 0.432464 0.182363 0.773936
1022 4 0.429361 0.194307 0.828243