ITEM: TIMESTEP
2720000
ITEM: NUMBER OF ATOMS
4590
ITEM: BOX BOUNDS pp pp pp
-9.9985700000000008e+00 9.9985700000000008e+00
-9.9985700000000008e+00 9.9985700000000008e+00
-9.9985700000000008e+00 9.9985700000000008e+00
ITEM: ATOMS id type xs ys zs
465 4 0.0826182 0.0701653 0.0209435
591 4 0.997937 0.0848558 0.0827211
701 4 0.100084 0.0634517 0.0174818
700 2 0.123708 0.0558614 0.0144037
702 4 0.147332 0.048271 0.0113256
566 4 0.16509 0.0402249 0.0108107
746 4 0.474822 0.0629614 0.0272395
2467 2 0.498474 0.0321253 0.0459292
2469 4 0.483918 0.0456794 0.0307765
745 2 0.469464 0.0649248 0.00289568
463 2 0.0661868 0.082632 0.0350775
590 4 0.0296564 0.0980297 0.0463755
464 4 0.0497555 0.0950987 0.0492116
589 2 0.0137965 0.0914428 0.0645483
558 4 0.349359 0.12812 0.0327927
556 2 0.349865 0.115341 0.0542779
865 2 0.36265 0.163381 0.00150643
557 4 0.350371 0.102562 0.0757631
771 4 0.453963 0.141628 0.0575099
769 2 0.462708 0.156074 0.0759495
554 4 0.0441708 0.205658 0.00843472
553 2 0.061836 0.202944 0.0259204
555 4 0.0795013 0.20023 0.0434061
835 2 0.11756 0.197031 0.0258498
836 4 0.0971025 0.193155 0.0396939
837 4 0.138017 0.200906 0.0120056
915 4 0.155263 0.204759 0.000356203
573 4 0.337548 0.240657 0.0535152
461 4 0.338175 0.24266 0.0729323
666 4 0.344351 0.2261 0.0644163
664 2 0.342452 0.206516 0.0489885
665 4 0.340553 0.186931 0.0335608
867 4 0.351871 0.171816 0.0224316
1070 4 0.448929 0.230567 0.0730379
2808 4 0.028593 0.323402 0.0275831
2806 2 0.0167759 0.304587 0.0390519
2807 4 0.00495883 0.285772 0.0505208
294 4 0.102471 0.310071 0.0670313
292 2 0.123156 0.320879 0.0580598
356 4 0.309465 0.289954 0.0289145
572 4 0.325123 0.279716 0.0248671
355 2 0.307505 0.314706 0.0259675
571 2 0.331336 0.260187 0.0391911
1069 2 0.438315 0.253182 0.0740868
322 2 0.43383 0.314209 0.0738851
1071 4 0.427702 0.275797 0.0751356
323 4 0.448155 0.333654 0.0674169
324 4 0.419504 0.294763 0.0803534
647 4 0.0245066 0.361644 0.064834
646 2 0.0415419 0.346745 0.0754642
620 4 0.00706212 0.366058 0.0706828
293 4 0.143841 0.331688 0.0490882
507 4 0.140197 0.346093 0.0353492
505 2 0.164258 0.34815 0.0288693
481 2 0.222811 0.375414 0.0194907
482 4 0.237819 0.395392 0.0204008
483 4 0.207802 0.355437 0.0185805
506 4 0.18832 0.350206 0.0223894
609 4 0.252923 0.405139 0.0319213
357 4 0.305545 0.339457 0.0230205
902 4 0.308736 0.356277 0.012244
957 4 0.362495 0.392646 0.0206365
672 4 0.461941 0.348782 0.0683454
671 4 0.497096 0.383296 0.0597644
670 2 0.479519 0.366039 0.0640549
281 4 0.503751 0.400829 0.0533622
551 4 0.0346107 0.436788 0.0834128
550 2 0.0561161 0.447001 0.0757707
552 4 0.0776214 0.457213 0.0681285
1787 4 0.0949367 0.464352 0.063067
1786 2 0.108816 0.468818 0.0427544
1788 4 0.122695 0.473284 0.0224417
242 4 0.0943989 0.450009 0.0753414
246 4 0.242895 0.478659 0.0371932
244 2 0.230325 0.468228 0.056124
245 4 0.217755 0.457797 0.0750548
625 2 0.189497 0.425115 0.0835177
272 4 0.241502 0.484815 0.0190909
1778 4 0.240019 0.497581 0.0332131
627 4 0.204906 0.444246 0.0788595
607 2 0.270233 0.422874 0.0352381
608 4 0.287543 0.44061 0.0385549
252 4 0.296403 0.455848 0.0452144
250 2 0.320421 0.456289 0.0382767
251 4 0.344439 0.45673 0.031339
2289 4 0.341072 0.475393 0.0228485
2287 2 0.351116 0.493974 0.00946771
523 2 0.40902 0.467993 0.0774619
280 2 0.491103 0.421437 0.0469997
525 4 0.424194 0.487839 0.0764333
282 4 0.478454 0.442046 0.0406371
226 2 0.459257 0.467786 0.0542664
227 4 0.474772 0.448827 0.0592674
228 4 0.443742 0.486746 0.0492655
563 4 0.433931 0.498794 0.0637035
16 1 0.066776 0.0434997 0.148839
20 3 0.0753006 0.0593523 0.134886
1806 4 0.0471896 0.0121063 0.142993
18 3 0.0500803 0.03157 0.138006
1804 2 0.0415441 0.00121444 0.121206
450 4 0.152194 0.061675 0.159412
675 4 0.102406 0.0380886 0.152285
17 3 0.0835352 0.0289709 0.154938
673 2 0.121523 0.0494346 0.16373
448 2 0.168485 0.0803146 0.155895
1661 4 0.298315 0.00402081 0.150851
654 4 0.311586 0.019018 0.152894
652 2 0.316602 0.0431292 0.157215
653 4 0.321617 0.0672405 0.161535
484 2 0.36971 0.0182403 0.111512
297 4 0.360918 0.0598131 0.121601
485 4 0.359258 0.0406354 0.115307
295 2 0.362556 0.0795965 0.106398
579 4 0.0843878 0.135319 0.121962
237 4 0.144145 0.146761 0.13117
578 4 0.130175 0.155361 0.120368
577 2 0.107282 0.14534 0.121165
235 2 0.162975 0.132171 0.138769
476 4 0.14038 0.166046 0.132924
737 4 0.148479 0.159427 0.116665
236 4 0.181806 0.117582 0.146368
693 4 0.199428 0.110393 0.145368
449 4 0.184775 0.0989543 0.152378
691 2 0.223165 0.108788 0.137676
692 4 0.246902 0.107184 0.129984
582 4 0.264781 0.106102 0.122938
580 2 0.283648 0.112766 0.137932
581 4 0.302514 0.11943 0.152927
30 3 0.314544 0.130028 0.164218
296 4 0.364193 0.0993799 0.0911958
475 2 0.134624 0.181754 0.151506
736 2 0.163753 0.174668 0.104032
738 4 0.179027 0.189909 0.0913981
29 3 0.315983 0.167 0.157244
354 4 0.320721 0.242521 0.135697
283 2 0.326485 0.201776 0.138433
285 4 0.326873 0.17745 0.144204
284 4 0.326098 0.226101 0.132662
462 4 0.331253 0.239177 0.122335
460 2 0.334714 0.240918 0.0976339
255 4 0.337402 0.238216 0.138699
253 2 0.356822 0.24548 0.152672
770 4 0.471453 0.17052 0.0943891
1014 4 0.478869 0.171832 0.114097
1013 4 0.458759 0.216652 0.123447
1012 2 0.468814 0.194242 0.118772
749 4 0.0609859 0.315808 0.166128
456 4 0.0542986 0.327851 0.104666
610 2 0.232275 0.33168 0.10881
612 4 0.246578 0.311178 0.109328
352 2 0.301499 0.256589 0.143299
756 4 0.253321 0.313601 0.126888
353 4 0.282277 0.270657 0.150901
754 2 0.264331 0.299625 0.144456
755 4 0.275341 0.28565 0.162024
278 4 0.266826 0.267982 0.161251
254 4 0.376243 0.252744 0.166645
455 4 0.061674 0.333208 0.153835
454 2 0.0579863 0.33053 0.129251
648 4 0.0585772 0.331847 0.0860945
626 4 0.174087 0.405983 0.0881759
611 4 0.217972 0.352182 0.108293
536 4 0.185578 0.389735 0.0891235
535 2 0.191421 0.367379 0.0986772
537 4 0.197264 0.345024 0.108231
302 4 0.318701 0.411241 0.128653
387 4 0.337361 0.406561 0.134973
741 4 0.414866 0.379075 0.104262
739 2 0.406412 0.386035 0.12674
740 4 0.397958 0.392995 0.149218
385 2 0.359067 0.401615 0.146355
386 4 0.380773 0.396668 0.157737
495 4 0.397322 0.405454 0.164578
15 3 0.388253 0.378589 0.158939
241 2 0.110811 0.446282 0.0938331
1438 2 0.15592 0.467279 0.117596
243 4 0.127223 0.442556 0.112325
1440 4 0.132687 0.458904 0.121505
1439 4 0.179153 0.475653 0.113688
637 2 0.2213 0.483434 0.121298
638 4 0.243789 0.493003 0.126574
639 4 0.19881 0.473865 0.116022
767 4 0.259203 0.495806 0.114001
303 4 0.313321 0.45943 0.116425
766 2 0.281453 0.485502 0.118891
768 4 0.303704 0.475198 0.123782
301 2 0.316011 0.435336 0.122539
524 4 0.393845 0.448147 0.0784904
493 2 0.403784 0.428646 0.157829
494 4 0.410246 0.451838 0.15108
660 4 0.422013 0.464528 0.142305
658 2 0.431199 0.482473 0.157095
19 3 0.0582269 0.0535311 0.167936
380 4 0.055681 0.0707417 0.176456
1505 4 0.158512 0.0524951 0.175096
674 4 0.14064 0.0607807 0.175175
689 4 0.188926 0.00281631 0.196865
1504 2 0.167357 0.0344534 0.189977
1506 4 0.176201 0.0164118 0.204859
23 3 0.400178 0.0133885 0.229943
22 3 0.410253 0.0186732 0.194121
21 1 0.418021 0.0133572 0.21511
757 2 0.473634 0.0312688 0.214753
25 3 0.433482 0.0288015 0.22152
759 4 0.450955 0.038389 0.222509
350 4 0.441646 0.032148 0.238405
758 4 0.496313 0.0241486 0.206997
379 2 0.0423613 0.0898227 0.185603
512 4 0.0417921 0.12339 0.198637
381 4 0.0290415 0.108904 0.194751
511 2 0.0526353 0.144359 0.206879
513 4 0.0634785 0.165327 0.215121
26 1 0.310131 0.150702 0.172689
28 3 0.287594 0.152471 0.177917
27 3 0.322477 0.153834 0.191844
311 4 0.440467 0.146949 0.20055
339 4 0.0755466 0.173095 0.202376
337 2 0.0976674 0.181379 0.194177
477 4 0.128868 0.197463 0.170087
363 4 0.129097 0.206869 0.187525
338 4 0.119788 0.189663 0.185978
362 4 0.135794 0.245418 0.218667
361 2 0.132446 0.226143 0.203096
372 4 0.137164 0.255339 0.236165
723 4 0.227373 0.201891 0.246934
628 2 0.397521 0.223711 0.188805
629 4 0.403911 0.203125 0.201476
630 4 0.391131 0.244297 0.176134
420 4 0.391021 0.22523 0.246725
312 4 0.417797 0.190944 0.193394
310 2 0.429132 0.168947 0.196972
761 4 0.477174 0.230213 0.233802
750 4 0.0534908 0.290828 0.208796
395 4 0.0371209 0.291553 0.218865
748 2 0.0572384 0.303318 0.187462
394 2 0.0248053 0.284723 0.239525
370 2 0.158461 0.268267 0.238285
300 4 0.100268 0.279326 0.220843
298 2 0.105444 0.302624 0.228301
299 4 0.11062 0.325921 0.235759
371 4 0.179757 0.281196 0.240405
279 4 0.259769 0.251568 0.207957
277 2 0.263298 0.259775 0.184604
401 4 0.274523 0.292472 0.242615
498 4 0.272917 0.31019 0.232601
496 2 0.288646 0.325692 0.220875
764 4 0.409044 0.301855 0.178686
765 4 0.382551 0.259773 0.183981
763 2 0.395797 0.280814 0.181333
624 4 0.474739 0.317669 0.183941
622 2 0.450223 0.315076 0.179766
528 4 0.488162 0.313519 0.169435
623 4 0.425707 0.312484 0.175591
262 2 0.0399402 0.404948 0.209163
263 4 0.0459251 0.382198 0.217637
602 4 0.0594906 0.36859 0.224711
601 2 0.0808245 0.356071 0.228359
734 4 0.110759 0.340062 0.249129
603 4 0.102158 0.343551 0.232007
290 4 0.177381 0.384199 0.22619
289 2 0.172664 0.407301 0.217867
308 4 0.303545 0.348753 0.190283
497 4 0.304374 0.341194 0.209149
307 2 0.328277 0.347592 0.186796
309 4 0.353009 0.34643 0.183309
14 3 0.400835 0.403051 0.184648
11 1 0.394538 0.381072 0.180687
13 3 0.37701 0.375203 0.194713
12 3 0.412454 0.367309 0.185015
644 4 0.502539 0.40775 0.194249
447 4 0.503871 0.390058 0.20634
264 4 0.0339553 0.427697 0.200689
2618 4 0.017551 0.434997 0.208046
291 4 0.167947 0.430402 0.209545
416 4 0.174231 0.446803 0.217248
415 2 0.193831 0.461258 0.211587
1430 4 0.213696 0.494573 0.199555
417 4 0.213431 0.475714 0.205926
643 2 0.500555 0.431991 0.200051
597 4 0.490639 0.473533 0.211787
596 4 0.455599 0.491814 0.181149
659 4 0.440386 0.500419 0.171885
595 2 0.473119 0.482673 0.196468
1799 4 0.0141089 0.0183063 0.303573
233 4 0.018147 0.037237 0.300226
1402 2 0.0526714 0.0371117 0.310607
1403 4 0.031945 0.0241251 0.305416
1404 4 0.0733978 0.0500984 0.315797
1798 2 0.00649458 0.00498485 0.323315
633 4 0.382696 0.0414547 0.295858
631 2 0.394187 0.0534715 0.277183
257 4 0.374403 0.0534131 0.309353
698 4 0.369055 0.0343173 0.308311
697 2 0.365296 0.00970758 0.310636
632 4 0.405677 0.0654883 0.258508
256 2 0.370812 0.0678953 0.329416
349 2 0.443523 0.0310908 0.263315
744 4 0.465212 0.0260811 0.293903
742 2 0.472666 0.026038 0.317769
351 4 0.4454 0.0300336 0.288226
398 4 0.0731657 0.142738 0.304288
397 2 0.0666893 0.126827 0.322456
390 4 0.0789507 0.161603 0.304756
393 4 0.0919197 0.147174 0.301389
545 4 0.136378 0.152236 0.255511
392 4 0.11701 0.148545 0.258153
391 2 0.104465 0.147859 0.279771
404 4 0.199286 0.150124 0.327877
403 2 0.193445 0.163502 0.307577
521 4 0.47644 0.155699 0.266294
520 2 0.496868 0.161621 0.253149
444 4 0.015537 0.225335 0.291595
442 2 0.0186556 0.248997 0.28414
388 2 0.0820212 0.18175 0.319241
544 2 0.154932 0.165998 0.26508
721 2 0.207629 0.197662 0.26168
546 4 0.173485 0.17976 0.274649
405 4 0.187605 0.17688 0.287277
722 4 0.187884 0.193432 0.276425
378 4 0.300142 0.236782 0.324192
376 2 0.310975 0.216102 0.333144
717 4 0.380793 0.235364 0.260014
418 2 0.410878 0.214305 0.257286
331 2 0.452859 0.203599 0.30628
332 4 0.442541 0.20443 0.283519
419 4 0.430735 0.203381 0.267847
760 2 0.46346 0.216808 0.249845
762 4 0.449747 0.203403 0.265889
333 4 0.463176 0.202769 0.32904
453 4 0.474995 0.218262 0.32613
364 2 0.0196456 0.308305 0.290906
396 4 0.0124898 0.277892 0.260186
443 4 0.0217741 0.272659 0.276685
365 4 0.0192234 0.291265 0.272613
366 4 0.0200678 0.325346 0.309198
677 4 0.154071 0.322268 0.289308
676 2 0.174289 0.328965 0.302406
508 2 0.235149 0.319451 0.309846
509 4 0.213111 0.33077 0.313221
678 4 0.194507 0.335663 0.315504
510 4 0.257187 0.308132 0.30647
400 2 0.27129 0.298945 0.266548
402 4 0.268056 0.305417 0.290482
345 4 0.273314 0.29665 0.307394
343 2 0.286857 0.277302 0.315605
344 4 0.3004 0.257954 0.323817
715 2 0.376184 0.256742 0.272134
716 4 0.371576 0.278121 0.284254
542 4 0.38687 0.277919 0.296622
541 2 0.395611 0.298268 0.308227
543 4 0.404352 0.318618 0.319832
2493 4 0.00597482 0.335979 0.317358
407 4 0.0216431 0.330995 0.328023
548 4 0.0235644 0.343922 0.313453
547 2 0.0310521 0.367197 0.318684
549 4 0.0385397 0.390473 0.323914
735 4 0.139424 0.336051 0.289909
733 2 0.125092 0.338056 0.269519
728 4 0.35217 0.370552 0.301768
727 2 0.35899 0.393873 0.30767
751 2 0.486471 0.334275 0.330753
2538 4 0.472442 0.342088 0.291417
753 4 0.48473 0.338816 0.306227
2536 2 0.486241 0.358704 0.27882
1543 2 0.154102 0.482008 0.334875
1545 4 0.177827 0.476435 0.329287
1436 4 0.182544 0.492903 0.31782
729 4 0.365811 0.417193 0.313572
437 4 0.366212 0.436596 0.317144
2861 4 0.495419 0.438311 0.287585
730 2 0.0707437 0.0698617 0.350524
732 4 0.0779118 0.0480785 0.360489
369 4 0.0925117 0.0368369 0.368619
367 2 0.0961841 0.0347116 0.39326
605 4 0.182617 0.0500979 0.402732
604 2 0.172188 0.0290907 0.411399
1701 4 0.183514 0.0675352 0.411314
426 4 0.383015 0.0751414 0.360518
424 2 0.387431 0.0636053 0.382257
425 4 0.391846 0.0520692 0.403997
1580 4 0.406289 0.041302 0.41282
2664 4 0.497052 0.0264668 0.351845
743 4 0.48012 0.0259949 0.341636
479 4 0.479384 0.0277744 0.360657
478 2 0.474266 0.0503586 0.370088
480 4 0.469148 0.0729428 0.379519
458 4 0.0108866 0.135788 0.379102
318 4 0.0125813 0.115637 0.377025
399 4 0.0602129 0.110916 0.340624
317 4 0.0548549 0.100204 0.355219
731 4 0.0635755 0.091645 0.34056
316 2 0.0337181 0.10792 0.366122
249 4 0.181497 0.141358 0.333626
1699 2 0.187754 0.0911745 0.404358
247 2 0.184972 0.129879 0.355566
248 4 0.188448 0.1184 0.377505
1700 4 0.191995 0.114814 0.397403
319 2 0.327201 0.134245 0.400063
320 4 0.306578 0.128908 0.413154
682 2 0.270786 0.137581 0.409076
683 4 0.252674 0.154819 0.40907
684 4 0.288898 0.120344 0.409082
1181 4 0.303501 0.110133 0.415451
258 4 0.367221 0.0823776 0.34948
321 4 0.347824 0.139582 0.386971
708 4 0.340264 0.15006 0.371897
516 4 0.481667 0.158622 0.358339
575 4 0.47377 0.150345 0.376181
574 2 0.472508 0.135856 0.39652
389 4 0.0850917 0.201898 0.333726
600 4 0.265431 0.16953 0.414365
377 4 0.321807 0.195421 0.342097
489 4 0.312608 0.253207 0.416285
707 4 0.340444 0.194455 0.34888
706 2 0.340354 0.172257 0.360388
466 2 0.358291 0.233176 0.411813
515 4 0.481439 0.203894 0.337099
514 2 0.481553 0.181258 0.347719
451 2 0.491156 0.233185 0.338017
406 2 0.0260546 0.321724 0.350821
408 4 0.030466 0.312453 0.37362
275 4 0.141938 0.31109 0.34355
617 4 0.124274 0.321157 0.343983
616 2 0.111974 0.335396 0.360449
435 4 0.205294 0.333118 0.330947
274 2 0.162116 0.301048 0.354375
276 4 0.182294 0.291006 0.3652
373 2 0.206191 0.285589 0.403115
375 4 0.189398 0.289725 0.385058
615 4 0.411181 0.323925 0.338708
267 4 0.363689 0.27569 0.413557
468 4 0.359614 0.257436 0.405906
752 4 0.488211 0.329734 0.35528
777 4 0.0436658 0.403088 0.339785
347 4 0.0820542 0.344565 0.386832
346 2 0.0674075 0.343398 0.407063
775 2 0.0662741 0.413744 0.340479
618 4 0.0996744 0.349636 0.376915
433 2 0.21298 0.348645 0.348975
434 4 0.220665 0.364173 0.367003
504 4 0.301777 0.396145 0.412024
613 2 0.431491 0.336491 0.346108
614 4 0.451802 0.349058 0.353507
1544 4 0.130376 0.487581 0.340463
776 4 0.0888825 0.424401 0.341172
414 4 0.0881622 0.44386 0.340546
413 4 0.112124 0.486809 0.331495
412 2 0.100143 0.465334 0.336021
502 2 0.315799 0.415253 0.404059
503 4 0.329821 0.434361 0.396094
667 2 0.331283 0.46907 0.411644
436 2 0.364273 0.456279 0.33244
438 4 0.362335 0.475963 0.347736
669 4 0.338286 0.452182 0.394587
240 4 0.399891 0.436671 0.399898
335 4 0.388344 0.424056 0.389834
336 4 0.34122 0.438312 0.381071
334 2 0.364782 0.431184 0.385452
3990 4 0.490523 0.482817 0.359007
2236 2 0.00297898 0.0488983 0.422876
1127 4 0.0122503 0.0504915 0.463887
2237 4 0.0145719 0.0468401 0.444934
720 4 0.0163235 0.0650379 0.451295
1523 4 0.0784545 0.00241519 0.47721
606 4 0.16176 0.00808354 0.420066
1780 2 0.0876975 0.00276467 0.43796
368 4 0.0998565 0.0325864 0.417901
1782 4 0.0961935 0.0121288 0.416389
2428 2 0.217496 0.00595869 0.492396
2429 4 0.239884 0.00979114 0.481942
961 2 0.269092 0.00279707 0.476915
724 2 0.294024 0.0543166 0.47573
726 4 0.288969 0.078294 0.47076
725 4 0.29908 0.0303392 0.4807
963 4 0.291566 0.0120466 0.482795
432 4 0.306502 0.0184554 0.493877
1579 2 0.392746 0.0215865 0.420105
1581 4 0.379204 0.001871 0.427391
2879 4 0.42182 0.042964 0.48425
642 4 0.459764 0.0677242 0.433511
2878 2 0.437988 0.0539838 0.468683
2880 4 0.454157 0.0650036 0.453117
718 2 0.0270349 0.0870553 0.456362
719 4 0.0377463 0.109073 0.461429
939 4 0.0899684 0.130034 0.487686
1033 2 0.116703 0.11907 0.472416
1035 4 0.139948 0.125459 0.465779
261 4 0.146669 0.143885 0.460423
1034 4 0.0934586 0.11268 0.479053
259 2 0.161452 0.163599 0.464664
1182 4 0.298739 0.0945009 0.462712
1180 2 0.30112 0.102317 0.439081
576 4 0.471247 0.121367 0.416858
640 2 0.470676 0.0901949 0.432428
641 4 0.481588 0.112666 0.431345
306 4 0.470136 0.127995 0.435348
304 2 0.460948 0.139616 0.455491
3158 4 0.452758 0.15579 0.495785
305 4 0.45176 0.151237 0.475633
694 2 0.164976 0.221487 0.477439
696 4 0.153034 0.240165 0.489
695 4 0.176918 0.202808 0.465877
260 4 0.176234 0.183313 0.468906
472 2 0.233061 0.249253 0.435626
599 4 0.250954 0.211249 0.437831
687 4 0.23659 0.210973 0.450908
686 4 0.193576 0.193162 0.469163
685 2 0.215083 0.202068 0.460035
474 4 0.249539 0.230476 0.436656
411 4 0.252631 0.222581 0.453652
598 2 0.258193 0.19039 0.426098
409 2 0.26547 0.226263 0.474789
488 4 0.268836 0.2331 0.429716
487 2 0.290722 0.243153 0.423001
410 4 0.278308 0.229944 0.495927
467 4 0.356969 0.208917 0.41772
374 4 0.222985 0.281454 0.421172
473 4 0.216582 0.26803 0.434596
813 4 0.229288 0.302406 0.471625
811 2 0.240013 0.3187 0.487266
266 4 0.32259 0.290247 0.438047
265 2 0.34314 0.282969 0.425802
584 4 0.493673 0.298924 0.473871
2812 2 0.0123155 0.335184 0.439562
348 4 0.0527609 0.342231 0.427294
2813 4 0.035125 0.344233 0.434765
326 4 0.0495604 0.352328 0.443933
325 2 0.0683054 0.359259 0.458958
327 4 0.0870503 0.36619 0.473984
7 3 0.0999598 0.381491 0.472607
6 1 0.115049 0.384354 0.489733
711 4 0.142528 0.41065 0.492616
8 3 0.132032 0.39841 0.482495
709 2 0.165483 0.415601 0.484029
10 3 0.123682 0.364109 0.495586
1383 4 0.0434577 0.469866 0.464949
680 4 0.049517 0.44948 0.472166
1381 2 0.0546516 0.489961 0.455149
679 2 0.0683592 0.443298 0.487395
710 4 0.188438 0.420552 0.475442
774 4 0.207124 0.425269 0.478814
635 4 0.195726 0.436274 0.466903
636 4 0.211447 0.483689 0.464565
634 2 0.203586 0.459982 0.465734
668 4 0.32428 0.485958 0.428701
4 3 0.312868 0.496247 0.441647
239 4 0.410648 0.458952 0.443356
238 2 0.405269 0.447812 0.421627
588 4 0.402038 0.454697 0.461217
586 2 0.402089 0.439034 0.480707
587 4 0.402139 0.423372 0.500198
1184 4 0.00106896 0.0178943 0.56235
342 4 0.158526 0.0425623 0.539503
1152 4 0.15322 0.0616325 0.534137
1150 2 0.149764 0.0665879 0.558399
1151 4 0.146307 0.0715433 0.582662
340 2 0.169552 0.0290488 0.521586
341 4 0.180578 0.0155353 0.50367
2430 4 0.195108 0.00212624 0.50285
430 2 0.321092 0.00570683 0.509682
841 2 0.358133 0.023353 0.548804
842 4 0.371617 0.0392919 0.562563
1216 2 0.405101 0.0135737 0.571533
1217 4 0.38625 0.0299985 0.571751
843 4 0.344649 0.00741405 0.535045
3009 4 0.489639 0.0563572 0.573639
879 4 0.0546252 0.153421 0.521564
877 2 0.0299023 0.153854 0.525275
878 4 0.00517949 0.154288 0.528986
938 4 0.0707983 0.164944 0.517927
937 2 0.0803834 0.147489 0.502807
1272 4 0.0631006 0.163273 0.535631
1199 4 0.999033 0.161468 0.547842
3159 4 0.464165 0.128939 0.536401
3157 2 0.458462 0.142365 0.516093
1062 4 0.47482 0.114507 0.528381
1060 2 0.486398 0.0923902 0.52697
1270 2 0.0712778 0.176899 0.554935
1271 4 0.079455 0.190525 0.574239
1258 2 0.137052 0.225727 0.525115
1259 4 0.122294 0.22338 0.545162
1260 4 0.151809 0.228075 0.505067
1244 4 0.0955047 0.200567 0.578167
898 2 0.292225 0.220068 0.525623
899 4 0.304234 0.201168 0.536746
857 4 0.309856 0.186376 0.548017
856 2 0.30233 0.183542 0.571692
791 4 0.323123 0.199 0.542025
900 4 0.280216 0.238968 0.514499
790 2 0.342613 0.213077 0.54889
792 4 0.362103 0.227155 0.555756
872 4 0.374677 0.240251 0.548131
1238 4 0.360775 0.245746 0.560875
651 4 0.290696 0.325371 0.55583
806 4 0.292422 0.320818 0.574557
649 2 0.272459 0.327957 0.538921
650 4 0.254223 0.330543 0.522012
871 2 0.380925 0.254187 0.528334
1237 2 0.348065 0.261497 0.575555
873 4 0.387173 0.268122 0.508536
1135 2 0.127842 0.376134 0.560745
1136 4 0.112229 0.364393 0.545139
897 4 0.158494 0.373634 0.577334
9 3 0.104106 0.393835 0.507865
384 4 0.140631 0.420996 0.509454
1137 4 0.143456 0.387875 0.576351
773 4 0.227171 0.414148 0.523257
1189 2 0.223489 0.40625 0.563825
1190 4 0.233035 0.40677 0.540722
803 4 0.232588 0.395208 0.524666
802 2 0.240812 0.37192 0.520762
930 4 0.245729 0.409786 0.52637
804 4 0.249035 0.348632 0.516858
812 4 0.250738 0.334994 0.502908
926 4 0.416153 0.413678 0.509433
925 2 0.420955 0.394722 0.525015
927 4 0.425757 0.375766 0.540596
539 4 0.0803505 0.483158 0.503043
1161 4 0.155927 0.490981 0.576087
681 4 0.0872014 0.437117 0.502625
383 4 0.0985902 0.447554 0.514744
382 2 0.11961 0.434275 0.512099
569 4 0.152649 0.433452 0.517917
538 2 0.0978216 0.49951 0.510293
568 2 0.171274 0.44779 0.526444
570 4 0.189899 0.462128 0.534971
772 2 0.217147 0.419708 0.501035
928 2 0.266429 0.423779 0.52543
929 4 0.287129 0.437772 0.52449
1951 2 0.297195 0.474947 0.533385
1953 4 0.2906 0.451504 0.539056
1952 4 0.303789 0.498389 0.527715
663 4 0.410275 0.43172 0.51573
1000 2 0.408424 0.498834 0.561917
1001 4 0.427107 0.482349 0.559827
661 2 0.415822 0.450977 0.530683
662 4 0.421369 0.470234 0.545636
1911 4 0.433201 0.463118 0.559149
1332 4 0.440064 0.476857 0.547336
1330 2 0.4578 0.492863 0.539959
1909 2 0.43431 0.45125 0.581128
2375 4 0.163241 0.00184427 0.623258
1155 4 0.153181 0.0788595 0.599936
1059 4 0.146404 0.0604515 0.598533
1057 2 0.156364 0.0407279 0.610236
1058 4 0.166324 0.0210043 0.621939
949 2 0.279196 0.0166152 0.633076
951 4 0.2961 0.0255836 0.64917
1031 4 0.285179 0.0434644 0.651211
1030 2 0.300157 0.0542965 0.668048
950 4 0.262293 0.00764672 0.616982
3007 2 0.495767 0.0721317 0.592046
43 3 0.44245 0.053181 0.663997
1154 4 0.156957 0.128712 0.598854
1153 2 0.155069 0.103786 0.599395
1221 4 0.167259 0.142837 0.587373
1219 2 0.179725 0.157297 0.603518
808 2 0.482688 0.0867493 0.645095
809 4 0.489504 0.0962041 0.622974
3252 4 0.499799 0.107158 0.610733
1245 4 0.0989923 0.186621 0.626064
1243 2 0.0972485 0.193594 0.602116
1209 4 0.107233 0.188848 0.644824
1210 2 0.227305 0.176754 0.640335
1212 4 0.204797 0.182077 0.630835
1220 4 0.192192 0.171757 0.619664
797 4 0.193633 0.234825 0.602093
796 2 0.191139 0.212555 0.613184
798 4 0.188644 0.190285 0.624275
1211 4 0.249812 0.171431 0.649835
858 4 0.294804 0.180709 0.595368
3121 2 0.473124 0.216332 0.637118
3122 4 0.477515 0.199951 0.655492
3357 4 0.484262 0.183862 0.645183
3355 2 0.495884 0.167836 0.660457
3123 4 0.468734 0.232712 0.618744
983 4 0.00736874 0.293664 0.630498
982 2 0.0194263 0.3109 0.644015
984 4 0.0314838 0.328136 0.657532
3263 4 0.0490687 0.327123 0.666201
805 2 0.303909 0.300079 0.5825
807 4 0.315397 0.27934 0.590444
1239 4 0.335355 0.277249 0.590236
906 4 0.455041 0.298356 0.618018
905 4 0.473298 0.252052 0.622844
904 2 0.464169 0.275204 0.620431
953 4 0.465751 0.313763 0.615492
952 2 0.483132 0.327471 0.603866
1041 4 0.0451004 0.341925 0.655032
1039 2 0.0529625 0.358437 0.637982
1040 4 0.0608245 0.374948 0.620931
993 4 0.0551129 0.392464 0.613791
991 2 0.0451111 0.415029 0.609795
1191 4 0.213942 0.40573 0.586929
895 2 0.178144 0.386002 0.586613
896 4 0.197793 0.39837 0.595892
1028 4 0.202877 0.386318 0.663393
1027 2 0.203084 0.392329 0.639124
1029 4 0.203292 0.398339 0.614854
1172 4 0.207231 0.41363 0.60359
1206 4 0.49025 0.41137 0.622706
992 4 0.0351094 0.437594 0.605798
1159 2 0.17657 0.484451 0.588593
1160 4 0.197214 0.477921 0.601099
1171 2 0.207468 0.438453 0.60658
1173 4 0.207704 0.463276 0.60957
1187 4 0.198147 0.476245 0.620527
1186 2 0.188337 0.479037 0.643356
1268 4 0.448398 0.489449 0.647154
1267 2 0.44102 0.470286 0.632888
2168 4 0.457503 0.497667 0.664407
1204 2 0.470283 0.426002 0.619184
1910 4 0.435419 0.439382 0.603108
1269 4 0.433641 0.451123 0.618622
1205 4 0.450317 0.440634 0.615662
1284 4 0.0891092 0.0573173 0.702341
1282 2 0.10414 0.0749953 0.693027
2256 4 0.189862 0.00728267 0.725482
2049 4 0.173256 0.00875753 0.736119
1201 2 0.189198 0.0439695 0.725313
1202 4 0.18659 0.022369 0.737634
1203 4 0.191806 0.0655701 0.712993
1148 4 0.200822 0.0814572 0.7063
1226 4 0.181148 0.0786665 0.703164
1032 4 0.315135 0.0651286 0.684886
1005 4 0.338522 0.0201981 0.709811
1003 2 0.340153 0.009982 0.687048
810 4 0.475873 0.0772944 0.667216
45 3 0.448111 0.0450382 0.70032
41 1 0.447835 0.0617681 0.68487
1163 4 0.486877 0.0674175 0.680274
44 3 0.468576 0.072139 0.684059
42 3 0.431971 0.0773233 0.69083
1077 4 0.0355138 0.101707 0.739246
1075 2 0.0167717 0.0976585 0.723198
864 4 0.0464761 0.114843 0.747397
909 4 0.105048 0.154454 0.693037
907 2 0.113196 0.130869 0.694626
908 4 0.121344 0.107284 0.696214
1283 4 0.119171 0.0926732 0.683714
1227 4 0.137179 0.0983 0.689674
1225 2 0.159164 0.0884832 0.696419
851 4 0.0949727 0.162884 0.707804
1147 2 0.21505 0.0950982 0.721684
1149 4 0.229279 0.108739 0.737067
829 2 0.32113 0.153759 0.705443
830 4 0.297822 0.156431 0.714092
831 4 0.344437 0.151088 0.696795
1142 4 0.360957 0.154764 0.708097
1141 2 0.384204 0.163364 0.711382
1025 4 0.461813 0.136152 0.717674
3424 2 0.48005 0.108131 0.695662
3426 4 0.482607 0.0862907 0.683761
3425 4 0.477494 0.129972 0.707563
3269 4 0.477881 0.130199 0.727006
1024 2 0.444014 0.153588 0.715588
3268 2 0.487925 0.144008 0.74527
852 4 0.0548346 0.183584 0.729278
1214 4 0.0350288 0.184327 0.730027
850 2 0.0749036 0.173234 0.718541
1213 2 0.0115551 0.192098 0.733738
1208 4 0.096474 0.171236 0.690374
1207 2 0.101853 0.180042 0.667599
1107 4 0.112192 0.170861 0.701886
1105 2 0.132134 0.180517 0.713472
1106 4 0.152076 0.190172 0.725059
1130 4 0.164143 0.202365 0.734957
888 4 0.256847 0.179784 0.666163
887 4 0.28629 0.170065 0.705398
978 4 0.290697 0.171364 0.724333
886 2 0.271569 0.174924 0.68578
976 2 0.292826 0.18902 0.74191
916 2 0.29522 0.244502 0.748256
1193 4 0.415922 0.215284 0.663888
1143 4 0.407452 0.171963 0.714666
1192 2 0.416493 0.200125 0.683763
1194 4 0.417063 0.184965 0.703639
1262 4 0.417897 0.186166 0.723286
1261 2 0.427567 0.193527 0.745137
1026 4 0.426215 0.171024 0.713501
3262 2 0.064525 0.325984 0.685822
3264 4 0.0799813 0.324846 0.705444
893 4 0.078719 0.328201 0.724833
779 4 0.0942239 0.319911 0.71821
778 2 0.100991 0.298821 0.729812
780 4 0.107758 0.277732 0.741414
1065 4 0.208411 0.310178 0.694404
1063 2 0.233371 0.309431 0.693114
1064 4 0.25833 0.308684 0.691825
947 4 0.301377 0.274111 0.715897
946 2 0.288966 0.287871 0.69911
948 4 0.276554 0.301631 0.682323
917 4 0.295443 0.263132 0.731581
1008 4 0.484009 0.299899 0.710189
1006 2 0.472057 0.288127 0.728729
1007 4 0.460105 0.276355 0.74727
892 2 0.0701137 0.34335 0.742767
1067 4 0.161917 0.381946 0.711752
941 4 0.153739 0.387457 0.729923
1066 2 0.174417 0.38874 0.69119
1068 4 0.186917 0.395534 0.670629
1236 4 0.255731 0.345672 0.753472
1019 4 0.384873 0.420639 0.74549
1176 4 0.133775 0.458694 0.709752
1174 2 0.153545 0.468023 0.697614
1188 4 0.178528 0.481829 0.666185
1175 4 0.173314 0.477352 0.685476
1139 4 0.2916 0.474231 0.70215
1138 2 0.305517 0.46144 0.718517
1140 4 0.319434 0.448649 0.734884
1229 4 0.333215 0.437912 0.726691
1989 4 0.331954 0.43962 0.746061
1100 4 0.391532 0.433576 0.731813
1228 2 0.356372 0.428482 0.726826
1230 4 0.379529 0.419053 0.72696
1099 2 0.408326 0.450984 0.725482
1101 4 0.425121 0.468393 0.719152
3330 4 0.443365 0.462583 0.72119
3328 2 0.46122 0.449119 0.710005
1251 4 0.438967 0.479546 0.728336
3329 4 0.479075 0.435654 0.69882
785 4 0.0317202 0.070025 0.828175
834 4 0.0497503 0.0725487 0.835647
1113 4 0.359303 0.0690282 0.796381
980 4 0.428348 0.997241 0.811594
2321 4 0.435994 0.00774019 0.796458
2322 4 0.444879 0.0541214 0.780009
2320 2 0.440436 0.0309308 0.788233
846 4 0.438585 0.068663 0.768182
862 2 0.0595794 0.11563 0.768678
863 4 0.0726826 0.116417 0.789959
833 4 0.0677263 0.109457 0.807092
1125 4 0.0707594 0.128887 0.804828
1123 2 0.0799047 0.149046 0.816454
832 2 0.0587383 0.0910026 0.82137
911 4 0.118839 0.0921776 0.817083
910 2 0.121301 0.113028 0.830662
1257 4 0.228783 0.102356 0.756281
1255 2 0.227557 0.116722 0.776709
921 4 0.219381 0.146607 0.807444
919 2 0.201537 0.159296 0.819518
840 4 0.230629 0.132868 0.816518
1256 4 0.226331 0.131088 0.797137
838 2 0.250148 0.135362 0.831944
1111 2 0.360674 0.0904541 0.809196
1112 4 0.362044 0.11188 0.822012
845 4 0.440827 0.113655 0.746471
844 2 0.439706 0.0911591 0.757326
3270 4 0.497969 0.157818 0.763535
1129 2 0.167632 0.210452 0.758357
1124 4 0.0890499 0.169205 0.82808
34 3 0.136755 0.181566 0.827961
35 3 0.100197 0.182206 0.836944
1131 4 0.171121 0.21854 0.781758
1277 4 0.167437 0.223244 0.80031
1276 2 0.173968 0.206951 0.818117
920 4 0.183694 0.171984 0.831592
822 4 0.180214 0.233543 0.789081
977 4 0.294955 0.206675 0.759487
918 4 0.294998 0.225872 0.764931
1298 4 0.287849 0.211753 0.776059
1297 2 0.301494 0.207307 0.796534
1299 4 0.31514 0.202861 0.817009
1086 4 0.334035 0.209462 0.823917
50 3 0.401935 0.195821 0.797501
46 1 0.423625 0.202746 0.797985
49 3 0.424982 0.224985 0.791506
1043 4 0.439463 0.217675 0.777411
48 3 0.432279 0.200181 0.819361
47 3 0.435983 0.189977 0.783378
1263 4 0.437237 0.200888 0.766989
1146 4 0.490616 0.171844 0.775778
1145 4 0.451224 0.202248 0.780739
1144 2 0.47092 0.187046 0.778259
1042 2 0.449286 0.238154 0.766956
1022 4 0.441142 0.186738 0.829932
821 4 0.183415 0.283015 0.782523
820 2 0.181815 0.258279 0.785802
1044 4 0.459108 0.258633 0.756502
1165 2 0.488146 0.276121 0.780703
1166 4 0.469648 0.273032 0.764167
3275 4 0.0113979 0.358668 0.799598
894 4 0.0615083 0.358499 0.760701
3276 4 0.0572199 0.361474 0.779769
3274 2 0.0343089 0.360071 0.789683
816 4 0.0710163 0.371358 0.771828
3228 4 0.00799185 0.413311 0.831405
940 2 0.140691 0.392519 0.750643