ITEM: TIMESTEP
1330000
ITEM: NUMBER OF ATOMS
4590
ITEM: BOX BOUNDS pp pp pp
-9.9985700000000008e+00 9.9985700000000008e+00
-9.9985700000000008e+00 9.9985700000000008e+00
-9.9985700000000008e+00 9.9985700000000008e+00
ITEM: ATOMS id type xs ys zs
463 2 0.0487241 0.0744166 0.0300182
465 4 0.0645128 0.0573578 0.0392318
701 4 0.0817131 0.0525429 0.048476
464 4 0.0329353 0.0914754 0.0208046
700 2 0.0972031 0.0687998 0.0594739
566 4 0.125447 0.0900751 0.054336
491 4 0.274322 0.0181912 0.0346899
2264 4 0.280685 0.035837 0.0278174
2263 2 0.288592 0.0536468 0.0121502
490 2 0.278445 0.996624 0.046649
745 2 0.477796 0.0511794 0.00652294
746 4 0.48678 0.0492857 0.0297797
2469 4 0.481738 0.0308618 0.0379413
2467 2 0.497774 0.0134301 0.0459522
590 4 0.030767 0.0968658 0.0726853
702 4 0.112693 0.0850567 0.0704719
565 2 0.147306 0.0921442 0.0662962
422 4 0.0824374 0.102875 0.00861401
360 4 0.22933 0.173149 0.99571
665 4 0.326144 0.171631 0.0270985
865 2 0.355844 0.14413 0.00746284
867 4 0.337639 0.159791 0.0144252
771 4 0.44464 0.150453 0.0770841
554 4 0.0429049 0.20525 0.0206229
553 2 0.0609275 0.222503 0.0189764
555 4 0.0789501 0.239756 0.01733
835 2 0.118766 0.238231 0.00943569
837 4 0.141508 0.22784 0.00944057
836 4 0.0960245 0.248623 0.00943082
915 4 0.159212 0.235682 0.0108131
666 4 0.310783 0.219028 0.0313695
664 2 0.318463 0.195329 0.029234
573 4 0.315498 0.237812 0.0332954
461 4 0.324271 0.22495 0.0440903
460 2 0.337143 0.230724 0.0647338
1070 4 0.41292 0.211867 0.073129
1069 2 0.40547 0.233344 0.0627167
1012 2 0.496637 0.22023 0.0677869
769 2 0.453613 0.172566 0.0696227
770 4 0.462586 0.194679 0.0621612
1014 4 0.473839 0.210554 0.064352
294 4 0.0689259 0.292713 0.0650429
292 2 0.0845076 0.293198 0.0454942
507 4 0.117834 0.298376 0.0362772
293 4 0.100089 0.293684 0.0259454
505 2 0.141789 0.305235 0.0383518
506 4 0.165744 0.312094 0.0404265
483 4 0.178872 0.327119 0.0389192
355 2 0.30454 0.317881 0.0097546
571 2 0.312304 0.262127 0.0284194
356 4 0.32194 0.3024 0.0188531
572 4 0.30911 0.286441 0.0235435
1071 4 0.39802 0.254821 0.0523044
957 4 0.378626 0.341673 0.00750429
324 4 0.417517 0.260727 0.0552388
322 2 0.425956 0.282026 0.0452231
672 4 0.439028 0.322839 0.0319441
323 4 0.434395 0.303325 0.0352074
620 4 0.0115307 0.350964 0.0730311
481 2 0.190838 0.341839 0.0552078
609 4 0.218118 0.36882 0.0687203
607 2 0.234607 0.386547 0.0624703
482 4 0.202804 0.356559 0.0714964
608 4 0.251096 0.404273 0.0562202
357 4 0.287141 0.333361 0.000656141
252 4 0.265692 0.411865 0.045188
250 2 0.285212 0.403352 0.0320849
251 4 0.304731 0.39484 0.0189818
741 4 0.393277 0.374739 0.0820172
670 2 0.45535 0.334949 0.046509
671 4 0.471671 0.347059 0.0610739
281 4 0.479335 0.363819 0.0649923
280 2 0.47254 0.386784 0.0578101
2651 4 0.479126 0.350319 0.0787282
551 4 0.092007 0.439245 0.0693396
550 2 0.0998013 0.460592 0.0797667
552 4 0.107596 0.481939 0.0901938
242 4 0.121341 0.493825 0.0808883
244 2 0.240391 0.487806 0.0553755
245 4 0.239251 0.477333 0.0780516
627 4 0.23432 0.458063 0.075689
272 4 0.254709 0.496425 0.0184396
271 2 0.252667 0.482791 0.99758
524 4 0.347142 0.484052 0.00499625
523 2 0.348815 0.490248 0.029162
525 4 0.350489 0.496445 0.0533277
282 4 0.465746 0.40975 0.0506278
226 2 0.466478 0.445577 0.0260076
228 4 0.46101 0.463288 0.00922663
227 4 0.471946 0.427866 0.0427885
563 4 0.453589 0.482012 0.0090326
16 1 0.0485617 0.0537741 0.15119
20 3 0.0386307 0.0383482 0.164683
1806 4 0.0781395 0.0289766 0.14579
18 3 0.0676112 0.0447302 0.141509
2576 4 0.0359286 0.0289096 0.0731849
2575 2 0.0129202 0.0237074 0.0814752
17 3 0.0339035 0.0598186 0.134524
1804 2 0.0750122 0.00988772 0.129947
450 4 0.183194 0.048604 0.124989
1505 4 0.188301 0.0422772 0.145149
448 2 0.186725 0.0733291 0.126162
652 2 0.318036 0.0116156 0.112565
653 4 0.323689 0.00846702 0.0884131
654 4 0.312383 0.0147641 0.136717
1661 4 0.32496 0.00347547 0.146381
557 4 0.340214 0.0730441 0.0949789
296 4 0.360106 0.0682107 0.0921978
295 2 0.367964 0.0488138 0.10588
297 4 0.375822 0.0294169 0.119562
485 4 0.386426 0.011671 0.119653
589 2 0.0107294 0.103545 0.0860664
2625 4 0.00149476 0.14128 0.158269
237 4 0.154585 0.142493 0.143153
578 4 0.141501 0.157582 0.147888
577 2 0.12121 0.143167 0.145508
579 4 0.100919 0.128751 0.143128
567 4 0.169166 0.0942133 0.0782565
235 2 0.174035 0.129742 0.133973
236 4 0.193486 0.116991 0.124793
693 4 0.205824 0.106166 0.135655
449 4 0.190257 0.0980542 0.127335
691 2 0.224643 0.104293 0.152011
558 4 0.353625 0.120507 0.0867261
556 2 0.34692 0.0967757 0.0908525
337 2 0.0697926 0.186919 0.151519
339 4 0.0534146 0.177234 0.135298
338 4 0.0861705 0.196605 0.16774
476 4 0.141432 0.203089 0.129963
475 2 0.12295 0.199574 0.146432
477 4 0.104469 0.19606 0.162902
737 4 0.159839 0.19524 0.129762
736 2 0.177982 0.210475 0.12177
738 4 0.196126 0.22571 0.113777
462 4 0.350015 0.236498 0.0853773
284 4 0.318746 0.20626 0.135341
283 2 0.320107 0.189758 0.154076
255 4 0.352469 0.243098 0.104217
254 4 0.38042 0.226833 0.14236
253 2 0.366445 0.234966 0.123289
630 4 0.397624 0.219699 0.14219
628 2 0.401239 0.19498 0.141143
765 4 0.395398 0.235663 0.152899
629 4 0.404854 0.170262 0.140096
749 4 0.0975594 0.305722 0.159821
353 4 0.303401 0.294012 0.14975
754 2 0.283519 0.318019 0.156421
755 4 0.295468 0.298558 0.166604
278 4 0.2908 0.281644 0.159015
352 2 0.319948 0.279979 0.137321
354 4 0.336494 0.265947 0.124892
526 2 0.490672 0.290618 0.172811
647 4 0.0283632 0.340362 0.0749552
646 2 0.0518294 0.346388 0.0811365
648 4 0.0752957 0.352413 0.0873178
456 4 0.0885633 0.339843 0.0977495
455 4 0.120131 0.374958 0.114216
454 2 0.104347 0.357401 0.105983
537 4 0.215276 0.372047 0.127668
535 2 0.204887 0.391769 0.116343
536 4 0.194497 0.411491 0.105017
611 4 0.224948 0.365399 0.143758
610 2 0.247529 0.35867 0.152125
756 4 0.27157 0.337479 0.146238
387 4 0.343444 0.403445 0.154349
739 2 0.399036 0.38 0.105773
740 4 0.404795 0.385261 0.129529
15 3 0.400647 0.372722 0.144342
385 2 0.365988 0.395393 0.147131
386 4 0.388532 0.38734 0.139913
11 1 0.416212 0.380698 0.158927
12 3 0.433523 0.365633 0.160522
14 3 0.424573 0.400951 0.151291
495 4 0.408179 0.403488 0.138362
1465 2 0.0142112 0.478504 0.149992
1466 4 0.0356321 0.490544 0.154615
625 2 0.217603 0.443932 0.0877729
626 4 0.200886 0.4298 0.0998567
637 2 0.227322 0.500695 0.146395
767 4 0.239993 0.465932 0.136124
638 4 0.245904 0.484909 0.140854
302 4 0.33693 0.422 0.157859
766 2 0.259616 0.453663 0.145591
494 4 0.41379 0.451416 0.12524
660 4 0.422181 0.466405 0.135927
493 2 0.410984 0.427452 0.131801
658 2 0.435611 0.479076 0.152787
2480 4 0.00835121 0.0189997 0.209214
19 3 0.0541247 0.0726437 0.163494
673 2 0.133261 0.056734 0.21569
675 4 0.12949 0.0641626 0.192115
674 4 0.137032 0.0493055 0.239265
1504 2 0.18356 0.0286777 0.165588
689 4 0.186202 0.0238653 0.201756
1506 4 0.178819 0.0150782 0.186027
688 2 0.198002 0.00690922 0.215844
21 1 0.400346 0.0151999 0.226722
25 3 0.414809 0.0306874 0.21838
759 4 0.415607 0.0400722 0.200834
757 2 0.40906 0.0639548 0.197379
22 3 0.379094 0.0240026 0.226901
351 4 0.474575 0.0379504 0.235962
349 2 0.452548 0.0396043 0.224248
350 4 0.43052 0.0412581 0.212533
380 4 0.0448758 0.0798488 0.179602
512 4 0.0389548 0.1268 0.212797
379 2 0.0339915 0.0990855 0.191292
381 4 0.0231071 0.118322 0.202982
511 2 0.0482583 0.149273 0.218591
545 4 0.120747 0.189368 0.239495
692 4 0.243462 0.102421 0.168367
721 2 0.193573 0.157108 0.223821
723 4 0.206018 0.142193 0.208079
582 4 0.258054 0.115708 0.170615
580 2 0.273462 0.124375 0.188297
581 4 0.288869 0.133043 0.20598
30 3 0.297385 0.149003 0.21511
26 1 0.319741 0.14494 0.216634
29 3 0.323385 0.124512 0.22702
27 3 0.329619 0.161516 0.229157
28 3 0.329237 0.144867 0.195462
758 4 0.402513 0.0878373 0.193923
310 2 0.437816 0.154307 0.184478
311 4 0.437531 0.129357 0.186086
513 4 0.0575618 0.171746 0.224386
363 4 0.0995205 0.202677 0.180897
362 4 0.124977 0.22165 0.219533
361 2 0.112249 0.212164 0.200215
372 4 0.140592 0.231365 0.211893
722 4 0.181127 0.172023 0.239564
285 4 0.321468 0.173256 0.172811
312 4 0.438101 0.179257 0.182871
521 4 0.471568 0.176344 0.223086
520 2 0.494558 0.170399 0.215257
395 4 0.060861 0.287283 0.208902
394 2 0.0431134 0.287268 0.226514
396 4 0.0253658 0.287253 0.244127
370 2 0.158942 0.245546 0.22124
750 4 0.0793214 0.291292 0.204092
748 2 0.0884404 0.298507 0.181956
300 4 0.129306 0.321327 0.216541
371 4 0.177292 0.259727 0.230587
279 4 0.27213 0.250291 0.193207
277 2 0.281465 0.265968 0.176111
308 4 0.326337 0.265256 0.23582
307 2 0.33175 0.276981 0.214409
497 4 0.316803 0.278569 0.24727
763 2 0.401995 0.257332 0.163487
309 4 0.337162 0.288705 0.192998
764 4 0.408592 0.279002 0.174075
623 4 0.413844 0.289489 0.189839
528 4 0.479018 0.298029 0.193655
622 2 0.438185 0.289551 0.195556
624 4 0.462526 0.289613 0.201274
262 2 0.0550178 0.387674 0.226864
264 4 0.0401436 0.372298 0.213921
263 4 0.069892 0.40305 0.239806
298 2 0.132357 0.343779 0.227113
290 4 0.18683 0.379783 0.215061
289 2 0.183374 0.40401 0.220191
612 4 0.270109 0.35194 0.160492
13 3 0.406713 0.383459 0.179917
643 2 0.501892 0.416303 0.19719
1430 4 0.196488 0.498897 0.207043
416 4 0.1695 0.440105 0.212996
417 4 0.177916 0.488802 0.20535
415 2 0.173708 0.464453 0.209173
291 4 0.179918 0.428236 0.225321
768 4 0.279239 0.441395 0.155057
301 2 0.31419 0.430364 0.164035
303 4 0.291451 0.438727 0.170211
645 4 0.493452 0.438599 0.18965
597 4 0.482671 0.444549 0.204544
595 2 0.470638 0.463802 0.194071
596 4 0.458605 0.483055 0.183597
659 4 0.449042 0.491747 0.169646
231 4 0.446922 0.498434 0.187825
1799 4 0.0331333 0.0166079 0.319538
233 4 0.0276388 0.0270784 0.303673
1402 2 0.0691445 0.0171981 0.302153
1403 4 0.0462355 0.0243308 0.309188
232 2 0.0171176 0.0388179 0.284265
234 4 0.00659645 0.0505574 0.264857
1404 4 0.0920535 0.0100653 0.295119
1701 4 0.165107 0.0518218 0.324143
1699 2 0.182796 0.06949 0.324494
23 3 0.406349 0.00964768 0.248437
697 2 0.365046 0.0307444 0.314956
699 4 0.360984 0.00825539 0.304811
1518 4 0.355522 0.00213018 0.286685
698 4 0.369108 0.0532334 0.325101
743 4 0.492426 0.0419859 0.302549
744 4 0.476588 0.0393391 0.255191
742 2 0.484507 0.0406625 0.27887
479 4 0.487562 0.0473164 0.319977
398 4 0.101161 0.146626 0.305575
397 2 0.100312 0.124058 0.316305
393 4 0.0900079 0.155221 0.293825
399 4 0.0994635 0.10149 0.327036
1700 4 0.200484 0.0871583 0.324846
248 4 0.213613 0.101856 0.321728
249 4 0.195445 0.148349 0.318716
247 2 0.204529 0.125103 0.320222
404 4 0.202818 0.152359 0.299888
403 2 0.19234 0.162528 0.27959
632 4 0.39601 0.10628 0.298051
631 2 0.383752 0.0894541 0.311902
333 4 0.467081 0.149648 0.269725
331 2 0.463446 0.170374 0.28323
515 4 0.447807 0.155612 0.33319
392 4 0.111162 0.178637 0.255032
544 2 0.145121 0.186695 0.244387
390 4 0.0934105 0.16384 0.311043
391 2 0.100585 0.166929 0.274429
388 2 0.0953261 0.178431 0.331257
546 4 0.169496 0.184022 0.249279
405 4 0.181862 0.172697 0.259293
344 4 0.280939 0.241105 0.340599
717 4 0.410569 0.234135 0.311078
420 4 0.402208 0.215492 0.309521
332 4 0.459811 0.191101 0.296735
418 2 0.422042 0.203986 0.299551
419 4 0.441876 0.19248 0.28958
760 2 0.471163 0.223483 0.281039
762 4 0.453019 0.208379 0.289278
761 4 0.489306 0.238586 0.2728
444 4 0.041158 0.2536 0.29553
364 2 0.00523941 0.321076 0.265263
442 2 0.0327875 0.271107 0.279762
443 4 0.0244171 0.288614 0.263994
365 4 0.0155545 0.301584 0.253481
401 4 0.219432 0.270412 0.275978
400 2 0.225451 0.274931 0.299822
402 4 0.23147 0.279449 0.323666
510 4 0.236663 0.292476 0.336269
508 2 0.224039 0.31401 0.337723
345 4 0.243056 0.273659 0.338191
343 2 0.261998 0.257382 0.339395
496 2 0.318314 0.2886 0.270124
715 2 0.409635 0.258393 0.317068
498 4 0.319826 0.29863 0.292977
716 4 0.408702 0.28265 0.323058
541 2 0.422737 0.315451 0.300664
542 4 0.415553 0.292528 0.3076
299 4 0.135407 0.366231 0.237686
601 2 0.111857 0.39165 0.247406
603 4 0.133879 0.380326 0.250866
602 4 0.0898354 0.402974 0.243945
734 4 0.147822 0.367031 0.253019
733 2 0.147066 0.361532 0.277398
735 4 0.14631 0.356034 0.301778
677 4 0.155983 0.354555 0.31981
676 2 0.180595 0.352113 0.323476
509 4 0.211415 0.335543 0.339178
433 2 0.231499 0.374894 0.337627
678 4 0.205208 0.349671 0.327142
434 4 0.242944 0.397089 0.336369
728 4 0.388294 0.389769 0.287469
727 2 0.369382 0.402146 0.298162
543 4 0.429921 0.338374 0.293728
615 4 0.416294 0.350101 0.30496
613 2 0.416326 0.373156 0.314638
2538 4 0.474104 0.380096 0.319605
2536 2 0.47879 0.393904 0.299293
614 4 0.416358 0.396211 0.324315
2537 4 0.483476 0.407711 0.278981
753 4 0.47224 0.374787 0.338983
777 4 0.0618179 0.439362 0.313981
549 4 0.0564643 0.433623 0.332468
775 2 0.0866895 0.437113 0.312747
414 4 0.117795 0.444926 0.328314
776 4 0.111561 0.434863 0.311513
412 2 0.135528 0.45852 0.339536
1545 4 0.21494 0.488725 0.333542
438 4 0.293206 0.435061 0.284622
436 2 0.317082 0.429208 0.289191
437 4 0.340957 0.423354 0.29376
729 4 0.350471 0.414523 0.308856
594 4 0.375166 0.470477 0.333555
592 2 0.398171 0.47562 0.325218
2862 4 0.482246 0.423877 0.266044
2861 4 0.440129 0.445941 0.250552
2860 2 0.461187 0.434909 0.258298
593 4 0.421176 0.480763 0.31688
1798 2 0.0186772 0.00819374 0.338123
369 4 0.0701667 0.0517962 0.36897
367 2 0.071841 0.0302352 0.38152
732 4 0.0810544 0.0650088 0.381477
1782 4 0.0793965 0.0017308 0.411801
368 4 0.0735154 0.00867424 0.39407
605 4 0.147095 0.0781642 0.358323
633 4 0.371495 0.0726285 0.325752
256 2 0.399143 0.0520927 0.353353
257 4 0.382545 0.060781 0.336794
258 4 0.415741 0.0434044 0.369911
424 2 0.406316 0.0323898 0.411307
478 2 0.466018 0.0465864 0.332646
426 4 0.410074 0.043777 0.389366
480 4 0.444474 0.0458564 0.345316
458 4 0.0248798 0.14755 0.388563
318 4 0.0281987 0.140042 0.370669
316 2 0.0413177 0.121881 0.359568
317 4 0.0544366 0.103719 0.348467
457 2 0.0233265 0.172505 0.388352
604 2 0.152586 0.0943699 0.376555
606 4 0.158078 0.110576 0.394786
730 2 0.0915219 0.0768599 0.362108
731 4 0.101989 0.088711 0.342738
600 4 0.231506 0.148273 0.379979
683 4 0.248537 0.135748 0.38274
682 2 0.263587 0.127123 0.400748
684 4 0.278637 0.118497 0.418755
319 2 0.318099 0.127903 0.408401
575 4 0.412713 0.128911 0.383113
516 4 0.415753 0.143381 0.369571
321 4 0.338337 0.134296 0.395183
708 4 0.341164 0.155287 0.390383
574 2 0.426359 0.132077 0.403823
451 2 0.485702 0.15791 0.34891
514 2 0.43178 0.149496 0.351381
453 4 0.467054 0.158466 0.332263
2653 2 0.00433223 0.225733 0.397513
2654 4 0.0160033 0.2054 0.406205
459 4 0.0217731 0.197459 0.388141
389 4 0.0972416 0.193021 0.351472
598 2 0.214757 0.164472 0.389049
687 4 0.196003 0.193741 0.41257
599 4 0.198008 0.18067 0.398118
473 4 0.237535 0.224028 0.384246
374 4 0.232723 0.243942 0.381533
472 2 0.251732 0.213241 0.401776
378 4 0.298689 0.23943 0.334826
376 2 0.300191 0.221652 0.352344
377 4 0.301692 0.203875 0.369862
474 4 0.265928 0.202455 0.419305
707 4 0.315627 0.191058 0.36653
706 2 0.328396 0.173173 0.378457
275 4 0.152702 0.316074 0.409769
347 4 0.0911722 0.336926 0.40826
274 2 0.171257 0.303609 0.398567
276 4 0.189813 0.291143 0.387365
373 2 0.220807 0.264981 0.387902
375 4 0.20889 0.286019 0.394271
559 2 0.492057 0.333139 0.396915
561 4 0.475704 0.331119 0.378109
406 2 0.0259258 0.367272 0.364319
407 4 0.0460867 0.380021 0.356823
548 4 0.0336379 0.393836 0.352385
408 4 0.00576484 0.354524 0.371815
435 4 0.220053 0.3527 0.338885
504 4 0.249925 0.386941 0.382123
334 2 0.328125 0.409614 0.40244
502 2 0.267513 0.400663 0.393417
336 4 0.304062 0.413947 0.407672
335 4 0.352188 0.405282 0.397209
240 4 0.369218 0.403796 0.408043
752 4 0.471847 0.328985 0.359051
751 2 0.472044 0.351886 0.349017
547 2 0.0450511 0.413729 0.342427
413 4 0.153261 0.472115 0.350757
500 4 0.160296 0.489773 0.356796
1543 2 0.193474 0.481317 0.344006
1544 4 0.172007 0.47391 0.354471
1126 2 0.996018 0.0570171 0.48664
1524 4 0.0451653 0.00474987 0.467027
720 4 0.0245053 0.064871 0.456788
2237 4 0.0177189 0.0458665 0.456774
2236 2 0.025199 0.028997 0.439903
1127 4 0.00761229 0.0601868 0.464715
2238 4 0.0326791 0.0121275 0.423031
1522 2 0.0509501 0.996365 0.489861
2428 2 0.213382 0.998721 0.499845
2430 4 0.192944 0.0128288 0.502748
726 4 0.301396 0.0472829 0.455829
724 2 0.297207 0.0404182 0.479504
725 4 0.293019 0.0335534 0.503179
425 4 0.402557 0.0210025 0.433247
2878 2 0.477167 0.0649908 0.470678
2880 4 0.469579 0.0801815 0.452325
2879 4 0.484755 0.0498001 0.489032
718 2 0.0315967 0.0888279 0.457767
719 4 0.038688 0.112785 0.458746
1033 2 0.108494 0.141079 0.474096
1035 4 0.11954 0.160662 0.463157
1182 4 0.308625 0.0861303 0.469993
320 4 0.297861 0.121511 0.42162
1180 2 0.297837 0.100981 0.453015
1181 4 0.287049 0.115831 0.436037
411 4 0.235307 0.164982 0.488254
3157 2 0.505187 0.152699 0.464533
642 4 0.478075 0.0953006 0.443876
640 2 0.463754 0.11576 0.442651
641 4 0.449433 0.136219 0.441426
306 4 0.455938 0.145774 0.42586
576 4 0.440006 0.135244 0.424534
469 2 0.0289105 0.21556 0.485091
470 4 0.0375438 0.196189 0.471847
686 4 0.161932 0.220761 0.437264
260 4 0.147386 0.209677 0.444481
261 4 0.124051 0.177846 0.475189
259 2 0.135719 0.193761 0.459835
695 4 0.14983 0.228461 0.450363
685 2 0.178968 0.207251 0.424917
488 4 0.281302 0.191936 0.423561
487 2 0.297236 0.209715 0.430989
489 4 0.31317 0.227495 0.438417
409 2 0.247571 0.183348 0.499978
410 4 0.259834 0.201715 0.511701
467 4 0.381652 0.204458 0.421327
466 2 0.374914 0.227295 0.42896
305 4 0.469961 0.193576 0.430216
304 2 0.46295 0.169675 0.428038
3158 4 0.492027 0.173761 0.461642
585 4 0.429491 0.247802 0.489533
616 2 0.132153 0.341038 0.408769
617 4 0.156415 0.335223 0.407118
694 2 0.139045 0.248141 0.461388
1260 4 0.13222 0.271507 0.492417
696 4 0.12826 0.267822 0.472413
811 2 0.263127 0.301379 0.482849
813 4 0.269432 0.2933 0.460042
266 4 0.319803 0.263245 0.467944
468 4 0.368176 0.250132 0.436594
265 2 0.342284 0.264869 0.45712
267 4 0.364764 0.266493 0.446296
2455 2 0.48668 0.302427 0.498697
2456 4 0.478889 0.284114 0.48356
584 4 0.472492 0.268238 0.474237
583 2 0.450992 0.25802 0.481885
2813 4 0.995519 0.398708 0.461865
348 4 0.0646305 0.335667 0.450624
326 4 0.0655734 0.340965 0.469139
346 2 0.0779013 0.336296 0.429442
325 2 0.07917 0.357559 0.481983
383 4 0.0964053 0.407091 0.436235
681 4 0.0767179 0.409652 0.436657
618 4 0.107891 0.346852 0.410421
10 3 0.137798 0.361953 0.478239
6 1 0.133107 0.370438 0.498846
8 3 0.13679 0.393347 0.499
709 2 0.172264 0.408526 0.488279
774 4 0.211324 0.417244 0.4753
772 2 0.227565 0.405462 0.49022
503 4 0.2851 0.414384 0.404712
239 4 0.382754 0.386153 0.452834
238 2 0.375986 0.394975 0.430439
588 4 0.378588 0.404725 0.459978
586 2 0.393034 0.414078 0.478117
680 4 0.0468863 0.449741 0.438573
1381 2 0.0463695 0.49226 0.430247
1383 4 0.0395436 0.469225 0.437173
679 2 0.0618021 0.429697 0.437615
382 2 0.112243 0.417044 0.452827
569 4 0.144128 0.436428 0.460184
568 2 0.15587 0.458357 0.462721
384 4 0.12808 0.426997 0.469419
539 4 0.0939538 0.476909 0.480719
538 2 0.113112 0.488087 0.492261
710 4 0.192838 0.411241 0.474332
570 4 0.167612 0.480286 0.465259
636 4 0.206312 0.453709 0.432055
634 2 0.205142 0.432327 0.444964
635 4 0.203972 0.410945 0.457872
5 3 0.289244 0.493358 0.456663
668 4 0.297307 0.47515 0.433555
667 2 0.295062 0.452353 0.423534
669 4 0.292817 0.429556 0.413512
4 3 0.304743 0.489475 0.422569
1057 2 0.132134 0.0679812 0.57466
2374 2 0.123257 0.00895297 0.580872
340 2 0.192777 0.0530168 0.504597
342 4 0.184465 0.0757706 0.51079
341 4 0.201089 0.0302631 0.498403
430 2 0.31105 0.034797 0.532621
432 4 0.288217 0.0348515 0.522432
963 4 0.29026 0.0174997 0.514142
431 4 0.333884 0.0347424 0.54281
843 4 0.343663 0.0526162 0.540552
1217 4 0.408253 0.0423139 0.541975
842 4 0.393561 0.054933 0.538198
841 2 0.368612 0.0537746 0.539375
1216 2 0.420454 0.0213705 0.548114
1218 4 0.432656 0.000427121 0.554252
3009 4 0.502311 0.0453685 0.579755
879 4 0.0710156 0.15331 0.547619
1272 4 0.074814 0.145625 0.566086
938 4 0.0781519 0.135566 0.550013
1059 4 0.140039 0.0894774 0.56463
1150 2 0.164843 0.0925676 0.533068
937 2 0.0860054 0.127786 0.527586
1151 4 0.158103 0.0935341 0.557126
1155 4 0.155176 0.0909525 0.576707
939 4 0.0938589 0.120006 0.505159
1034 4 0.0974467 0.121496 0.485035
1152 4 0.171582 0.091601 0.509009
878 4 0.0274645 0.177882 0.548098
1199 4 0.0118384 0.188061 0.542126
877 2 0.0492401 0.165596 0.547859
471 4 0.0202773 0.234932 0.498334
857 4 0.284621 0.218219 0.571127
898 2 0.283366 0.214032 0.530089
791 4 0.292037 0.235938 0.56743
899 4 0.286943 0.224141 0.552676
900 4 0.27979 0.203922 0.507502
871 2 0.389133 0.225745 0.533806
872 4 0.377486 0.229909 0.512076
873 4 0.40078 0.221581 0.555536
3354 4 0.999958 0.296655 0.500715
1259 4 0.107509 0.260824 0.534559
1258 2 0.119864 0.266166 0.513488
649 2 0.243486 0.2993 0.540062
651 4 0.243342 0.285392 0.56084
650 4 0.24363 0.313207 0.519284
804 4 0.24874 0.327413 0.507446
790 2 0.311252 0.25154 0.570974
812 4 0.256822 0.309459 0.505656
792 4 0.330466 0.267142 0.574519
1238 4 0.343977 0.281911 0.572746
1237 2 0.337164 0.300644 0.587839
1010 4 0.494755 0.317087 0.534283
1009 2 0.497954 0.326453 0.557245
935 4 0.00904144 0.393944 0.543658
9 3 0.146404 0.360169 0.51485
897 4 0.158607 0.385861 0.563806
1137 4 0.151883 0.403694 0.556353
327 4 0.0927665 0.374152 0.494828
7 3 0.111015 0.366423 0.503843
711 4 0.15169 0.40581 0.502225
1189 2 0.232684 0.396479 0.544539
773 4 0.243806 0.39368 0.505139
1190 4 0.245821 0.393306 0.523502
1191 4 0.219547 0.399651 0.565575
803 4 0.24317 0.376503 0.515184
895 2 0.181534 0.392426 0.571317
802 2 0.245955 0.351958 0.511315
930 4 0.259864 0.3852 0.511362
928 2 0.280373 0.398711 0.516055
929 4 0.300882 0.412221 0.520748
927 4 0.391393 0.386622 0.551527
925 2 0.396923 0.402031 0.532627
926 4 0.402452 0.417439 0.513728
1135 2 0.136148 0.422983 0.5587
1136 4 0.120413 0.442272 0.561047
1161 4 0.151608 0.490564 0.59048
2243 4 0.14938 0.495407 0.56843
2242 2 0.146972 0.498579 0.543745
889 2 0.320234 0.471515 0.563737
890 4 0.313233 0.474888 0.587502
891 4 0.327236 0.468143 0.539971
1953 4 0.390258 0.47233 0.537418
1951 2 0.366019 0.47101 0.531424
1952 4 0.341781 0.46969 0.52543
663 4 0.405257 0.436664 0.510183
587 4 0.407479 0.423432 0.496255
881 4 0.337207 0.482537 0.509957
1001 4 0.425772 0.486299 0.539922
662 4 0.43447 0.470395 0.532756
661 2 0.419863 0.453529 0.52147
1911 4 0.432158 0.472471 0.551943
1909 2 0.434924 0.466595 0.576088
1332 4 0.445041 0.483961 0.542607
1330 2 0.468501 0.491988 0.539383
945 4 0.0682791 0.986241 0.640526
2319 4 0.0508179 0.993981 0.633835
943 2 0.0847008 0.99748 0.655665
2375 4 0.126809 0.0298657 0.594109
1058 4 0.124228 0.0464849 0.584689
1284 4 0.162697 0.0694104 0.647077
950 4 0.27665 0.00101511 0.626785
949 2 0.278066 0.0246104 0.618635
951 4 0.279483 0.0482056 0.610484
1031 4 0.270745 0.0645265 0.617942
1153 2 0.174961 0.102945 0.586191
1270 2 0.0913193 0.139229 0.583745
1271 4 0.107825 0.132833 0.601404
1282 2 0.152415 0.0852691 0.663446
1154 4 0.194745 0.114937 0.595675
1221 4 0.199964 0.12539 0.611927
1219 2 0.201508 0.14682 0.624716
1210 2 0.241695 0.172552 0.650803
1032 4 0.251913 0.10627 0.638031
1030 2 0.261329 0.0853981 0.627987
888 4 0.273784 0.157619 0.663264
1211 4 0.26124 0.173814 0.666346
45 3 0.435251 0.0876464 0.645784
808 2 0.489825 0.085133 0.639379
810 4 0.474661 0.0818513 0.658987
809 4 0.504989 0.0884148 0.619772
3178 2 0.0056756 0.169407 0.653236
1243 2 0.0558737 0.217463 0.645516
1244 4 0.0616583 0.225567 0.622581
3180 4 0.99503 0.181864 0.63435
1212 4 0.22215 0.171289 0.63526
1220 4 0.203052 0.168249 0.637505
796 2 0.205709 0.207764 0.624078
798 4 0.209625 0.186533 0.636689
797 4 0.201794 0.228996 0.611466
856 2 0.273985 0.208453 0.591539
858 4 0.263348 0.198687 0.611951
3121 2 0.492438 0.224004 0.643012
905 4 0.460755 0.224064 0.617891
3123 4 0.473614 0.214835 0.629347
904 2 0.44999 0.238228 0.600322
983 4 0.0577376 0.307731 0.591259
982 2 0.0523803 0.315434 0.614436
3263 4 0.0445956 0.321577 0.656895
984 4 0.0470231 0.323136 0.637612
947 4 0.259471 0.262312 0.650216
805 2 0.325184 0.331394 0.653682
906 4 0.439224 0.252391 0.582752
952 2 0.479062 0.324985 0.610945
953 4 0.458049 0.317157 0.622005
1041 4 0.0403415 0.338443 0.648295
1039 2 0.0422008 0.363071 0.644396
1040 4 0.0440602 0.387698 0.640498
993 4 0.0528903 0.391092 0.623251
896 4 0.204462 0.398992 0.578827
1172 4 0.218658 0.412155 0.580184
807 4 0.328697 0.344177 0.632482
1239 4 0.330352 0.319378 0.602933
1206 4 0.487447 0.426998 0.649247
954 4 0.500076 0.332812 0.599884
992 4 0.0529715 0.441091 0.622365
991 2 0.0529309 0.416091 0.622808
1159 2 0.174999 0.482199 0.593323
1160 4 0.19839 0.473835 0.596166
1173 4 0.209415 0.457859 0.59825
1171 2 0.214036 0.435007 0.589217
1188 4 0.196985 0.459577 0.659711
1187 4 0.208154 0.471811 0.612527
1186 2 0.202569 0.465694 0.636119
1204 2 0.463517 0.432255 0.654236
1910 4 0.43769 0.46072 0.600234
1269 4 0.438887 0.45656 0.65111
1267 2 0.424962 0.477238 0.649192
1205 4 0.439587 0.437513 0.659225
944 4 0.101122 0.00871886 0.670804
2255 4 0.222533 0.0321713 0.730862
2254 2 0.2059 0.0255794 0.748329
1004 4 0.33109 0.999891 0.734006
1003 2 0.334559 0.0244203 0.730623
1005 4 0.338029 0.0489499 0.727241
1163 4 0.479426 0.0751383 0.67689
1162 2 0.495482 0.0629305 0.691667
42 3 0.42616 0.0650407 0.674055
3179 4 0.0163217 0.15695 0.672121
1083 4 0.0088069 0.141753 0.681135
1081 2 0.0172727 0.118949 0.686923
1082 4 0.0257384 0.0961457 0.692711
1076 4 0.0299394 0.0834211 0.708449
1075 2 0.0410297 0.0871384 0.730548
850 2 0.0670304 0.156282 0.722931
852 4 0.0478881 0.153107 0.738701
1214 4 0.0312847 0.156414 0.748375
909 4 0.0991431 0.145519 0.703179
907 2 0.11266 0.125715 0.69609
908 4 0.126178 0.105911 0.689001
1283 4 0.142133 0.101128 0.679816
1227 4 0.142009 0.105039 0.699574
851 4 0.0861727 0.159457 0.707162
1225 2 0.153582 0.0929422 0.718146
1107 4 0.104404 0.16368 0.709377
1226 4 0.165155 0.0808452 0.736718
830 4 0.318178 0.146754 0.705717
978 4 0.304594 0.154683 0.716377
887 4 0.299903 0.141808 0.702868
886 2 0.286844 0.149714 0.683066
831 4 0.364638 0.132925 0.718004
1141 2 0.402742 0.146906 0.714908
829 2 0.341408 0.139839 0.71186
1142 4 0.385594 0.12872 0.715564
44 3 0.460804 0.0795002 0.67221
41 1 0.438357 0.0835725 0.667974
43 3 0.431111 0.101746 0.68045
1025 4 0.475534 0.151131 0.691695
3424 2 0.481392 0.115371 0.68403
3426 4 0.473579 0.0934194 0.674959
1024 2 0.452558 0.1605 0.694781
3425 4 0.489205 0.137322 0.693101
3269 4 0.491315 0.154027 0.7035
3268 2 0.495706 0.162285 0.726688
1178 4 0.988845 0.207123 0.755675
1245 4 0.0500892 0.209359 0.668452
1209 4 0.0631244 0.210214 0.683752
1215 4 7.72568e-05 0.195388 0.745581
1213 2 0.015681 0.175901 0.746978
1207 2 0.0840237 0.221499 0.691564
1105 2 0.118695 0.176874 0.725089
1208 4 0.104923 0.232785 0.699376
976 2 0.304062 0.173209 0.73316
977 4 0.30353 0.191734 0.749944
917 4 0.269474 0.240968 0.762707
1194 4 0.393994 0.229772 0.711509
1193 4 0.351691 0.255133 0.719752
1192 2 0.372842 0.242452 0.715631
1143 4 0.419889 0.165091 0.714251
1026 4 0.429583 0.16987 0.697866
1261 2 0.431416 0.198884 0.729039
1262 4 0.423898 0.183359 0.710939
3262 2 0.0435255 0.320445 0.68185
3264 4 0.0424554 0.319313 0.706805
779 4 0.0538443 0.311401 0.720536
893 4 0.0418104 0.326724 0.725074
778 2 0.0694493 0.304927 0.738968
821 4 0.128384 0.283685 0.753994
946 2 0.253803 0.269739 0.673408
1064 4 0.238668 0.293729 0.706271
1065 4 0.207319 0.264382 0.731898
1063 2 0.222994 0.279056 0.719084
948 4 0.248135 0.277166 0.696601
806 4 0.321672 0.318611 0.674882
1008 4 0.431342 0.322341 0.723801
1006 2 0.43692 0.31244 0.746073
892 2 0.031119 0.347508 0.733957
894 4 0.0204277 0.368292 0.742839
3276 4 0.0126633 0.383535 0.751422
814 2 0.0539114 0.393216 0.75449
816 4 0.0320113 0.381599 0.751234
1066 2 0.161076 0.40566 0.694217
1067 4 0.139371 0.408349 0.706335
940 2 0.114336 0.411604 0.739287
1029 4 0.248993 0.408627 0.699633
1068 4 0.182781 0.402972 0.682099
1027 2 0.225149 0.403369 0.694248
1028 4 0.201305 0.398111 0.688863
1019 4 0.396194 0.413561 0.727298
1280 4 0.0558234 0.500215 0.67111
941 4 0.135268 0.411253 0.725616
1176 4 0.175779 0.476049 0.716524
1175 4 0.178741 0.460712 0.669019
1174 2 0.17726 0.468381 0.692772
1140 4 0.302274 0.453196 0.680908
1138 2 0.302379 0.448262 0.70542
1139 4 0.302484 0.443328 0.729931
1230 4 0.411053 0.474594 0.737616
1228 2 0.387193 0.467645 0.740377
1100 4 0.420824 0.468547 0.719939
1101 4 0.461513 0.448386 0.740883
1099 2 0.441169 0.458467 0.730411
1251 4 0.477477 0.445268 0.751513
3330 4 0.475135 0.434897 0.736255
3328 2 0.492821 0.43721 0.718731
1201 2 0.156389 0.0498704 0.762814
1202 4 0.151634 0.0269707 0.771655
1203 4 0.161144 0.0727701 0.753972
2049 4 0.169912 0.0201763 0.767493
2256 4 0.189268 0.0189875 0.765795
1148 4 0.177047 0.0830906 0.752134
1257 4 0.244196 0.0795385 0.755463
2321 4 0.455701 0.00666682 0.783276
2322 4 0.46272 0.0557509 0.789772
2320 2 0.459211 0.0312089 0.786524
846 4 0.469458 0.0738583 0.792064
980 4 0.455777 1.42172e-05 0.802746
1077 4 0.05212 0.0908556 0.752647
864 4 0.0514543 0.0856615 0.770582
862 2 0.0432021 0.106389 0.781873
863 4 0.03495 0.127116 0.793163
832 2 0.00684825 0.122703 0.823135
833 4 0.0208453 0.132044 0.804642
1125 4 0.0366365 0.143771 0.80309
31 1 0.124129 0.132349 0.816273
35 3 0.133298 0.128968 0.795703
33 3 0.105175 0.119195 0.818751
32 3 0.139412 0.12649 0.832437
34 3 0.118633 0.154738 0.818908
1147 2 0.20196 0.0837723 0.750129
1149 4 0.226874 0.084454 0.748124
921 4 0.189232 0.157203 0.827062
1255 2 0.261106 0.0892612 0.771107
1256 4 0.278015 0.0989839 0.786751
840 4 0.280256 0.118808 0.787241
838 2 0.296953 0.131525 0.800832
839 4 0.313649 0.144241 0.814422
1112 4 0.406803 0.0927999 0.845766
844 2 0.470742 0.0905091 0.810673
845 4 0.472026 0.10716 0.829281
1123 2 0.0384461 0.168516 0.80619
1124 4 0.0402556 0.193261 0.80929
1072 2 0.0570336 0.221394 0.772311
1073 4 0.0367778 0.227297 0.785728
1074 4 0.0772895 0.215492 0.758893
1106 4 0.132987 0.190067 0.740801
1130 4 0.153722 0.19316 0.737901
1129 2 0.156131 0.209773 0.756432
822 4 0.155026 0.245082 0.771336
1131 4 0.158541 0.226386 0.774963
1277 4 0.171733 0.239879 0.780706
1276 2 0.176406 0.231417 0.803765