ITEM: TIMESTEP
1920000
ITEM: NUMBER OF ATOMS
4590
ITEM: BOX BOUNDS pp pp pp
-9.9985700000000008e+00 9.9985700000000008e+00
-9.9985700000000008e+00 9.9985700000000008e+00
-9.9985700000000008e+00 9.9985700000000008e+00
ITEM: ATOMS id type xs ys zs
701 4 0.075604 0.0589496 0.0215543
465 4 0.0613074 0.0541199 0.00856647
700 2 0.0968373 0.0613107 0.0345448
702 4 0.118071 0.0636718 0.0475353
566 4 0.12947 0.0714811 0.034228
565 2 0.149588 0.082367 0.0241302
2264 4 0.267766 0.0189307 0.0382532
2263 2 0.27353 0.0333922 0.0186875
2265 4 0.279294 0.0478538 0.999122
746 4 0.45989 0.0494302 0.024135
2469 4 0.479681 0.0467897 0.0253471
2467 2 0.479471 0.0238871 0.0353772
463 2 0.0463004 0.0731057 0.0148518
464 4 0.0312933 0.0920916 0.0211371
590 4 0.0259449 0.103209 0.0379699
589 2 0.0118089 0.103466 0.0585924
567 4 0.169705 0.0932529 0.0140324
558 4 0.321705 0.111067 0.0402423
556 2 0.324056 0.10357 0.0639794
865 2 0.365238 0.160629 0.0149508
771 4 0.474499 0.132558 0.0693962
769 2 0.489809 0.150476 0.0777455
554 4 0.035146 0.214356 0.0519392
553 2 0.0535036 0.225919 0.0395105
555 4 0.0718613 0.237482 0.0270819
837 4 0.13022 0.213721 0.00365843
835 2 0.10719 0.222374 0.00812565
836 4 0.0841606 0.231026 0.0125929
738 4 0.153715 0.18776 0.0800105
666 4 0.33363 0.227149 0.0615405
461 4 0.34352 0.241641 0.0705376
867 4 0.365409 0.17667 0.0341294
573 4 0.328108 0.245666 0.0596923
664 2 0.34615 0.211621 0.0464641
665 4 0.35867 0.196092 0.0313878
1070 4 0.421129 0.212884 0.028969
1069 2 0.415888 0.236215 0.036275
2808 4 0.00801088 0.294445 0.00827167
294 4 0.100015 0.295739 0.0483429
292 2 0.114581 0.316043 0.0474881
507 4 0.146076 0.325639 0.0476762
356 4 0.322166 0.300741 0.0316962
572 4 0.337426 0.29028 0.0391148
355 2 0.312671 0.320669 0.0199537
571 2 0.332767 0.267973 0.0494035
1071 4 0.410648 0.259546 0.0435809
324 4 0.417894 0.273283 0.0554553
322 2 0.420278 0.296589 0.0641916
323 4 0.422662 0.319895 0.0729279
620 4 0.00903965 0.36889 0.0678694
647 4 0.0272041 0.362932 0.0611132
293 4 0.129147 0.336348 0.0466332
505 2 0.168935 0.335382 0.0504558
483 4 0.18585 0.364049 0.0486222
506 4 0.191793 0.345125 0.0532353
481 2 0.207116 0.375124 0.0415317
609 4 0.241303 0.39684 0.0242342
482 4 0.228382 0.3862 0.0344412
607 2 0.257508 0.41587 0.0248977
357 4 0.303175 0.340597 0.00821124
957 4 0.410961 0.388486 0.00914643
672 4 0.436919 0.334481 0.0711872
670 2 0.453784 0.35279 0.0688331
281 4 0.474855 0.390219 0.0636185
671 4 0.470649 0.371098 0.0664791
2651 4 0.488074 0.376351 0.0603811
280 2 0.465678 0.413032 0.0681471
551 4 0.0714215 0.433563 0.0698858
552 4 0.0938696 0.477891 0.0755228
1787 4 0.103749 0.491161 0.0651777
550 2 0.0826456 0.455727 0.0727043
1788 4 0.122075 0.484456 0.019135
1786 2 0.112912 0.487808 0.0421563
246 4 0.24596 0.484768 0.0359807
244 2 0.241873 0.466345 0.0523846
245 4 0.237785 0.447923 0.0687884
272 4 0.24404 0.482966 0.0170911
627 4 0.242678 0.429683 0.0736999
625 2 0.225191 0.413309 0.0808595
608 4 0.273713 0.4349 0.0255611
252 4 0.289969 0.44312 0.0187546
250 2 0.308408 0.453679 0.00557443
1778 4 0.257936 0.494611 0.0239602
282 4 0.456501 0.435846 0.0726757
226 2 0.47336 0.470414 0.053257
228 4 0.485352 0.48635 0.0381774
227 4 0.461369 0.454477 0.0683365
16 1 0.0715232 0.0539268 0.139054
20 3 0.0666008 0.0542343 0.11682
1806 4 0.0534595 0.0178226 0.152149
18 3 0.0641333 0.034075 0.148525
1804 2 0.0514388 0.00345359 0.131787
19 3 0.0614829 0.0719716 0.149636
380 4 0.0554331 0.0718419 0.168213
17 3 0.094313 0.0554404 0.14179
450 4 0.155089 0.0597556 0.173429
673 2 0.124739 0.0423289 0.16337
675 4 0.100863 0.0429917 0.155973
674 4 0.148614 0.0416661 0.170766
448 2 0.168461 0.0741835 0.157995
652 2 0.312159 0.0340675 0.153039
654 4 0.312149 0.0125042 0.165696
653 4 0.312169 0.0556307 0.140382
484 2 0.374683 0.00920244 0.107461
295 2 0.347363 0.0690007 0.101204
297 4 0.352618 0.0446457 0.103301
485 4 0.368386 0.0331859 0.104248
579 4 0.0854002 0.10414 0.106086
237 4 0.139724 0.135388 0.119823
578 4 0.121904 0.137873 0.111584
577 2 0.103652 0.121006 0.108835
476 4 0.129978 0.150194 0.124122
737 4 0.13737 0.148236 0.105922
736 2 0.145543 0.167998 0.0929664
235 2 0.158335 0.12021 0.126784
475 2 0.116711 0.164275 0.139961
236 4 0.176945 0.105032 0.133745
693 4 0.194612 0.103301 0.142941
449 4 0.181834 0.0886114 0.142562
691 2 0.218083 0.0964836 0.148216
692 4 0.241554 0.0896665 0.153492
582 4 0.257024 0.0976559 0.144833
557 4 0.326408 0.0960734 0.0877166
580 2 0.2736 0.101236 0.163207
296 4 0.342108 0.0933558 0.0991076
311 4 0.423409 0.140514 0.143816
310 2 0.433027 0.162979 0.149107
337 2 0.0628896 0.18825 0.168839
477 4 0.103443 0.178356 0.1558
338 4 0.0875522 0.187098 0.164888
279 4 0.23243 0.25124 0.163758
283 2 0.323188 0.203932 0.136319
354 4 0.32449 0.242382 0.132643
285 4 0.313855 0.181081 0.140307
284 4 0.33252 0.226784 0.132331
462 4 0.336092 0.238963 0.119918
460 2 0.339806 0.240302 0.0952275
255 4 0.341852 0.241077 0.136331
254 4 0.385583 0.247671 0.159673
253 2 0.363718 0.244374 0.148002
630 4 0.395641 0.2316 0.1655
628 2 0.410324 0.212705 0.158248
1012 2 0.492355 0.201313 0.104873
1013 4 0.474374 0.215458 0.114963
312 4 0.442645 0.185444 0.154398
629 4 0.425006 0.19381 0.150996
456 4 0.078038 0.3337 0.0919014
352 2 0.306274 0.256775 0.141926
353 4 0.288057 0.271168 0.151209
754 2 0.282292 0.306182 0.152958
755 4 0.287171 0.284823 0.165008
278 4 0.279628 0.26705 0.168563
756 4 0.277413 0.32754 0.140909
277 2 0.256029 0.259145 0.16616
765 4 0.404842 0.248824 0.164726
646 2 0.0437411 0.352836 0.0769175
648 4 0.0602782 0.34274 0.0927217
454 2 0.0998192 0.345341 0.0958062
455 4 0.1216 0.356982 0.099711
626 4 0.207704 0.396935 0.0880191
537 4 0.214511 0.339485 0.105726
535 2 0.203949 0.36185 0.102066
611 4 0.231091 0.348761 0.107449
536 4 0.193387 0.384216 0.0984055
610 2 0.254 0.343743 0.116121
612 4 0.276909 0.338725 0.124792
741 4 0.39153 0.356829 0.101482
739 2 0.392209 0.367556 0.124057
740 4 0.392888 0.378283 0.146633
15 3 0.381446 0.371358 0.161192
385 2 0.358567 0.402072 0.15456
386 4 0.380331 0.389763 0.15446
495 4 0.39849 0.39615 0.15411
387 4 0.336804 0.414382 0.15466
1467 4 0.997581 0.4576 0.0881409
1465 2 0.0163805 0.47327 0.0932585
1466 4 0.03518 0.488941 0.098376
1791 4 0.0391469 0.494884 0.116198
242 4 0.105541 0.489545 0.0840801
243 4 0.148136 0.498614 0.10866
241 2 0.126838 0.494079 0.0963699
637 2 0.217871 0.481323 0.156367
638 4 0.241459 0.474258 0.160711
639 4 0.194283 0.488388 0.152022
1439 4 0.175858 0.493721 0.159781
303 4 0.297538 0.454859 0.129516
766 2 0.265187 0.460135 0.141516
768 4 0.280934 0.463361 0.122363
301 2 0.317074 0.444536 0.141218
302 4 0.33661 0.434212 0.152921
493 2 0.41156 0.414691 0.143594
494 4 0.424631 0.433232 0.133079
660 4 0.425604 0.453341 0.133608
658 2 0.434162 0.470406 0.149755
2480 4 0.0163653 0.00874556 0.209662
1505 4 0.162685 0.0459852 0.184226
1504 2 0.169721 0.0374743 0.206659
689 4 0.186409 0.0129752 0.225491
1506 4 0.176757 0.0289635 0.229092
22 3 0.397327 0.0145508 0.199182
21 1 0.405987 0.00737051 0.219247
23 3 0.39035 0.0111849 0.23596
758 4 0.424794 0.0794026 0.206087
757 2 0.428363 0.0574933 0.217595
25 3 0.42511 0.018901 0.223719
759 4 0.431931 0.035584 0.229102
350 4 0.444729 0.0218104 0.225695
349 2 0.459702 0.0195902 0.245597
379 2 0.0517628 0.0910613 0.18378
512 4 0.0617524 0.118129 0.212373
381 4 0.0480926 0.110281 0.199347
511 2 0.0617365 0.142518 0.206861
513 4 0.0617207 0.166906 0.201349
545 4 0.138355 0.153134 0.247886
581 4 0.290176 0.104817 0.181581
30 3 0.299337 0.120147 0.192043
26 1 0.309127 0.139984 0.197457
27 3 0.302777 0.146011 0.218729
28 3 0.30231 0.156483 0.182635
29 3 0.332223 0.13784 0.196848
521 4 0.46769 0.151146 0.217709
520 2 0.490778 0.160644 0.219091
339 4 0.038227 0.189402 0.17279
363 4 0.103993 0.183336 0.174516
362 4 0.126866 0.216336 0.204325
361 2 0.115429 0.199836 0.189421
372 4 0.131954 0.234019 0.211804
370 2 0.149908 0.251152 0.214856
723 4 0.223797 0.207935 0.235426
721 2 0.210934 0.192352 0.250153
420 4 0.413888 0.236019 0.245656
394 2 0.0490331 0.305266 0.246055
750 4 0.0736175 0.318778 0.212428
395 4 0.0661707 0.31623 0.23152
748 2 0.0732977 0.305648 0.191152
749 4 0.0729779 0.292517 0.169877
300 4 0.147746 0.327955 0.211368
371 4 0.167863 0.268284 0.217907
401 4 0.219385 0.265246 0.247275
307 2 0.313867 0.296843 0.213307
309 4 0.318489 0.288095 0.190345
308 4 0.309245 0.305591 0.23627
497 4 0.297841 0.321916 0.240758
763 2 0.414145 0.269964 0.174302
764 4 0.423448 0.291105 0.183878
623 4 0.434556 0.294497 0.199918
622 2 0.459191 0.293755 0.195705
624 4 0.483826 0.293012 0.191492
2618 4 0.0171101 0.409676 0.228781
262 2 0.0421201 0.391027 0.215056
263 4 0.0663779 0.384974 0.214727
602 4 0.0647363 0.372124 0.229032
264 4 0.0178623 0.397079 0.215385
298 2 0.134963 0.337876 0.23043
601 2 0.0854956 0.365187 0.24112
291 4 0.169126 0.410021 0.223245
603 4 0.106255 0.358251 0.253208
290 4 0.17575 0.368547 0.196102
289 2 0.172438 0.389284 0.209674
11 1 0.398352 0.374691 0.176084
12 3 0.409034 0.354702 0.180017
14 3 0.413674 0.389805 0.167414
13 3 0.389796 0.382692 0.196113
416 4 0.18306 0.418884 0.211953
415 2 0.184234 0.443783 0.209992
1430 4 0.197912 0.47606 0.221742
417 4 0.185408 0.468682 0.208031
767 4 0.24944 0.45691 0.160668
713 4 0.351817 0.506512 0.22004
2861 4 0.443237 0.418168 0.246325
659 4 0.44272 0.487471 0.165902
597 4 0.489896 0.457719 0.202201
595 2 0.473296 0.472582 0.190857
596 4 0.456695 0.487446 0.179513
231 4 0.437724 0.488791 0.183994
229 2 0.427573 0.498319 0.204764
232 2 0.00531727 0.0628336 0.300745
1799 4 0.0221557 0.0283146 0.304646
233 4 0.0254097 0.0479562 0.301113
1402 2 0.0561668 0.0322117 0.284938
1403 4 0.0401235 0.0358011 0.303777
1798 2 0.0117592 0.0126343 0.321115
1404 4 0.0722101 0.0286223 0.266099
633 4 0.378171 0.0525095 0.319805
631 2 0.38679 0.0553648 0.296508
632 4 0.39541 0.0582201 0.273212
698 4 0.369165 0.0443651 0.335294
351 4 0.474674 0.01737 0.265498
744 4 0.493387 0.0205357 0.273117
742 2 0.501444 0.0273202 0.295794
399 4 0.0564716 0.105182 0.324864
397 2 0.0710698 0.123842 0.316873
317 4 0.0390775 0.10475 0.333568
731 4 0.0523422 0.0910543 0.338018
398 4 0.085668 0.142503 0.308882
393 4 0.0848907 0.152545 0.292346
392 4 0.120859 0.150549 0.257662
390 4 0.0854776 0.161379 0.310073
391 2 0.102875 0.151547 0.275004
544 2 0.158455 0.166117 0.255141
404 4 0.213103 0.166955 0.321115
249 4 0.217223 0.147753 0.319232
403 2 0.199585 0.170428 0.300369
405 4 0.186068 0.173902 0.279623
247 2 0.216767 0.125248 0.330117
444 4 0.0318219 0.239026 0.272385
546 4 0.178554 0.1791 0.262396
722 4 0.19807 0.17677 0.264881
378 4 0.296916 0.240706 0.319406
717 4 0.411029 0.253788 0.253136
331 2 0.453822 0.197899 0.305159
332 4 0.454397 0.208342 0.282448
418 2 0.431626 0.221166 0.255137
419 4 0.449365 0.206312 0.264618
760 2 0.490522 0.210087 0.259004
762 4 0.467547 0.211894 0.268702
333 4 0.453246 0.187457 0.327871
396 4 0.0318954 0.294302 0.260591
443 4 0.0205527 0.287671 0.2751
365 4 0.0174635 0.305187 0.267811
442 2 0.0261873 0.263348 0.273743
510 4 0.237022 0.29916 0.297914
508 2 0.219866 0.313409 0.309217
400 2 0.230643 0.27441 0.267633
402 4 0.241901 0.283575 0.287991
509 4 0.202709 0.327659 0.320521
345 4 0.254587 0.289424 0.301514
678 4 0.183719 0.331025 0.326514
343 2 0.270757 0.273521 0.312041
344 4 0.286927 0.257618 0.322568
715 2 0.40648 0.265902 0.27453
716 4 0.40193 0.278017 0.295924
542 4 0.393628 0.285926 0.311759
541 2 0.391163 0.307978 0.323282
547 2 0.0333634 0.385414 0.305823
548 4 0.0151319 0.368523 0.308554
549 4 0.0515949 0.402306 0.303092
777 4 0.0649983 0.402318 0.317191
407 4 0.0188792 0.364112 0.327376
299 4 0.122181 0.347798 0.249492
734 4 0.119044 0.353218 0.267368
733 2 0.117564 0.346025 0.291269
735 4 0.116084 0.338831 0.31517
677 4 0.133749 0.331176 0.324598
676 2 0.158734 0.3311 0.325556
435 4 0.197865 0.343086 0.330354
496 2 0.283738 0.331822 0.258873
498 4 0.269635 0.341728 0.276988
728 4 0.366944 0.404744 0.263667
615 4 0.400692 0.342922 0.327559
2537 4 0.497698 0.379514 0.262503
2860 2 0.463876 0.404553 0.250045
2538 4 0.492616 0.371682 0.311631
2536 2 0.495157 0.375598 0.287067
2862 4 0.484515 0.390938 0.253765
753 4 0.476979 0.359014 0.313889
2617 2 0.00899181 0.412779 0.252225
775 2 0.0708165 0.426564 0.315342
776 4 0.0766346 0.450811 0.313493
414 4 0.0922507 0.458599 0.304835
412 2 0.107331 0.475993 0.314592
413 4 0.122412 0.493387 0.32435
1543 2 0.165264 0.497672 0.323614
1544 4 0.140553 0.499069 0.327161
1545 4 0.189976 0.496276 0.320067
438 4 0.328291 0.483835 0.315734
436 2 0.340028 0.462653 0.309507
727 2 0.366872 0.417148 0.285377
729 4 0.3668 0.429552 0.307087
437 4 0.351764 0.441472 0.30328
1773 4 0.00718947 0.999889 0.355644
1771 2 0.0144444 0.00752257 0.378322
1772 4 0.0216994 0.0151564 0.400999
732 4 0.0576444 0.0508411 0.367267
2238 4 0.0326415 0.0321083 0.39975
369 4 0.0715822 0.050995 0.381261
730 2 0.0549933 0.0709477 0.352642
367 2 0.0866925 0.0423701 0.399218
1701 4 0.164026 0.0874362 0.381307
257 4 0.383284 0.0564023 0.338647
697 2 0.362523 0.0210108 0.341263
256 2 0.394865 0.0661044 0.35857
258 4 0.406445 0.0758065 0.378493
426 4 0.393985 0.064939 0.388398
424 2 0.386708 0.0569782 0.410956
478 2 0.482469 0.0537936 0.340726
480 4 0.459804 0.0629541 0.345976
318 4 0.00488999 0.133917 0.355504
316 2 0.0219837 0.119333 0.344536
604 2 0.132309 0.100353 0.405601
605 4 0.150261 0.10104 0.388211
1699 2 0.180771 0.0944223 0.364102
1700 4 0.197516 0.101408 0.346898
248 4 0.216312 0.102742 0.341002
600 4 0.227834 0.145382 0.397001
683 4 0.241723 0.130787 0.397332
682 2 0.265499 0.127605 0.404385
319 2 0.323841 0.128976 0.392798
320 4 0.304883 0.116307 0.403057
684 4 0.289275 0.124423 0.411438
708 4 0.334304 0.146139 0.364104
321 4 0.3428 0.141645 0.382538
516 4 0.442585 0.132064 0.363838
575 4 0.451343 0.120203 0.378497
574 2 0.445265 0.115322 0.402254
514 2 0.445986 0.154767 0.35393
459 4 0.999288 0.190788 0.378597
388 2 0.0960651 0.172514 0.329799
389 4 0.106653 0.183649 0.349524
598 2 0.228837 0.166712 0.410008
376 2 0.302994 0.220963 0.333494
377 4 0.309072 0.201221 0.347582
707 4 0.328621 0.193399 0.348778
474 4 0.260846 0.236929 0.408633
472 2 0.24693 0.250509 0.392914
706 2 0.331463 0.169769 0.356441
267 4 0.355161 0.246088 0.410717
515 4 0.449387 0.177471 0.344023
453 4 0.464665 0.189238 0.344335
451 2 0.48725 0.192909 0.354415
347 4 0.0719202 0.314306 0.393587
618 4 0.0875003 0.325904 0.391681
408 4 0.02826 0.328133 0.360816
275 4 0.141677 0.321922 0.3724
617 4 0.126612 0.311381 0.364112
616 2 0.107056 0.318642 0.377897
274 2 0.162255 0.314603 0.384572
473 4 0.233015 0.26409 0.377194
374 4 0.218679 0.260296 0.391733
276 4 0.182834 0.307285 0.396744
373 2 0.19825 0.274704 0.39126
375 4 0.177821 0.289112 0.390786
543 4 0.388697 0.330031 0.334804
752 4 0.485272 0.331701 0.354949
346 2 0.0602623 0.333763 0.404108
406 2 0.0235696 0.346123 0.344096
348 4 0.0486045 0.353221 0.414629
433 2 0.207693 0.364561 0.338565
434 4 0.21752 0.386037 0.346776
502 2 0.283156 0.390637 0.381251
503 4 0.301969 0.406259 0.386463
336 4 0.320588 0.409125 0.390179
504 4 0.264342 0.375014 0.376038
334 2 0.344591 0.402167 0.389415
335 4 0.368595 0.395208 0.388652
240 4 0.379763 0.409295 0.398286
238 2 0.391436 0.411699 0.420266
751 2 0.481125 0.345357 0.334419
613 2 0.411309 0.357528 0.344854
614 4 0.421927 0.372135 0.362148
668 4 0.304267 0.468151 0.417017
669 4 0.308178 0.422972 0.39594
667 2 0.306223 0.445562 0.406478
3990 4 0.477492 0.487589 0.350631
1127 4 0.000260221 0.0619956 0.448262
2237 4 0.0169823 0.0593383 0.438661
2236 2 0.0248119 0.0457233 0.419206
720 4 0.0183726 0.0666755 0.456368
718 2 0.0339383 0.0833008 0.466688
368 4 0.101803 0.0337453 0.417175
1782 4 0.0954357 0.0344024 0.436037
1780 2 0.0940031 0.0147768 0.451463
341 4 0.17141 0.0153332 0.491121
724 2 0.297968 0.0465014 0.486689
963 4 0.28369 0.00873176 0.499369
726 4 0.302704 0.0673139 0.473666
725 4 0.293232 0.0256889 0.499712
1182 4 0.302435 0.0846634 0.463162
1579 2 0.358324 0.0159177 0.434949
1580 4 0.375044 0.0325702 0.443214
425 4 0.379431 0.0490174 0.433514
1428 4 0.471038 0.011422 0.421747
2878 2 0.471691 0.0596679 0.495815
719 4 0.049504 0.099926 0.477007
606 4 0.114357 0.099666 0.422992
1033 2 0.11888 0.146573 0.466989
1035 4 0.127596 0.157029 0.446016
1034 4 0.110163 0.136118 0.487963
261 4 0.140004 0.170313 0.435825
1180 2 0.301993 0.0987948 0.442539
1181 4 0.301552 0.112926 0.421917
2880 4 0.471912 0.0827054 0.486099
642 4 0.452433 0.0831429 0.480555
640 2 0.443707 0.0981024 0.46252
3157 2 0.484105 0.162077 0.490369
641 4 0.434982 0.113062 0.444485
576 4 0.439186 0.110441 0.426011
306 4 0.442939 0.128123 0.434059
304 2 0.449395 0.149399 0.445496
3158 4 0.468985 0.168364 0.471474
470 4 0.00980081 0.174863 0.481613
259 2 0.158739 0.181997 0.447559
694 2 0.161033 0.221853 0.482735
696 4 0.143522 0.233072 0.496616
599 4 0.229841 0.188043 0.423014
260 4 0.177473 0.193681 0.459293
695 4 0.178543 0.210633 0.468854
687 4 0.22436 0.207181 0.425343
686 4 0.194495 0.200847 0.464949
685 2 0.209427 0.204014 0.445146
488 4 0.272176 0.222606 0.412597
487 2 0.279421 0.199369 0.418317
489 4 0.286666 0.176131 0.424037
411 4 0.257833 0.209758 0.460352
409 2 0.266455 0.203795 0.483052
467 4 0.356617 0.18371 0.422761
466 2 0.360279 0.208431 0.423548
468 4 0.363941 0.233153 0.424335
305 4 0.455852 0.170676 0.456933
585 4 0.488871 0.245847 0.467243
813 4 0.241231 0.290205 0.483545
265 2 0.361226 0.26793 0.421268
266 4 0.367291 0.289772 0.431819
584 4 0.469364 0.281464 0.496425
583 2 0.479117 0.263655 0.481834
2812 2 0.0151347 0.349038 0.434584
2813 4 0.0354801 0.360786 0.426026
326 4 0.0538517 0.363235 0.431181
325 2 0.0740604 0.373789 0.441448
10 3 0.131244 0.348598 0.46796
327 4 0.0942692 0.384342 0.451715
7 3 0.108125 0.377576 0.463637
6 1 0.124219 0.368217 0.477148
711 4 0.148047 0.395914 0.492429
8 3 0.142044 0.382968 0.478904
9 3 0.115072 0.364314 0.498112
384 4 0.140244 0.414657 0.494685
774 4 0.212429 0.395507 0.47414
635 4 0.206766 0.410935 0.464067
709 2 0.170669 0.396984 0.481833
772 2 0.229692 0.391967 0.491878
710 4 0.193292 0.398053 0.471237
1383 4 0.0676368 0.461945 0.44948
1381 2 0.0728258 0.483777 0.438451
680 4 0.0636173 0.443393 0.443856
679 2 0.0772904 0.433713 0.462418
681 4 0.0909636 0.424034 0.480979
568 2 0.162471 0.453028 0.494393
569 4 0.155539 0.429193 0.497396
382 2 0.116249 0.420867 0.497976
634 2 0.221858 0.420461 0.446555
570 4 0.169404 0.476863 0.491389
636 4 0.23695 0.429987 0.429043
1 1 0.31407 0.494576 0.435852
5 3 0.29892 0.485307 0.450108
880 2 0.328583 0.49369 0.488044
4 3 0.321322 0.478684 0.420579
586 2 0.385593 0.41916 0.474007
239 4 0.403109 0.414102 0.442246
588 4 0.384901 0.418437 0.449023
587 4 0.386285 0.419883 0.498991
1184 4 8.88238e-06 0.0259845 0.558038
3077 4 0.0120164 0.0306184 0.542526
1183 2 0.00112683 0.00467896 0.571076
1150 2 0.153467 0.0712379 0.548308
1151 4 0.161367 0.0769778 0.571326
342 4 0.161115 0.0558886 0.518507
1152 4 0.145568 0.0654979 0.52529
340 2 0.166262 0.0356109 0.504814
430 2 0.32427 0.0108298 0.518826
432 4 0.301758 0.0101267 0.507968
961 2 0.259824 0.00139875 0.498012
431 4 0.346782 0.0115328 0.529684
843 4 0.340121 0.0247068 0.543356
842 4 0.373571 0.0463855 0.573553
841 2 0.356846 0.0355462 0.558455
1217 4 0.388027 0.0445985 0.588209
2879 4 0.471469 0.0366304 0.505531
3009 4 0.488996 0.061606 0.5727
879 4 0.0747269 0.145555 0.554595
877 2 0.0540227 0.151562 0.541929
1199 4 0.0169136 0.155912 0.541972
878 4 0.0333186 0.157569 0.529263
938 4 0.0905782 0.137559 0.545764
937 2 0.105203 0.139052 0.525539
939 4 0.119829 0.140545 0.505314
1272 4 0.0930554 0.149153 0.56109
1155 4 0.153352 0.0940029 0.578434
1259 4 0.0939842 0.205556 0.508717
1270 2 0.102169 0.167048 0.575986
1258 2 0.109513 0.223301 0.500401
1260 4 0.125042 0.241045 0.492086
898 2 0.290056 0.201429 0.54472
899 4 0.306013 0.206661 0.563245
900 4 0.2741 0.196198 0.526194
410 4 0.275078 0.197831 0.505752
791 4 0.313983 0.214667 0.579014
790 2 0.327566 0.234752 0.572911
811 2 0.247181 0.302299 0.504605
812 4 0.253131 0.314393 0.525665
650 4 0.260885 0.313357 0.543395
649 2 0.255643 0.308174 0.567287
651 4 0.250401 0.30299 0.591179
804 4 0.264013 0.328855 0.531612
871 2 0.369412 0.274796 0.549457
872 4 0.348796 0.272863 0.563471
792 4 0.341149 0.254838 0.566808
1238 4 0.340993 0.267792 0.580336
873 4 0.390029 0.276729 0.535443
2455 2 0.479143 0.312475 0.510206
2457 4 0.496547 0.326604 0.521281
2456 4 0.46174 0.298345 0.499131
935 4 0.00786481 0.345609 0.507221
1136 4 0.112057 0.379491 0.576456
1135 2 0.134727 0.382966 0.566498
1137 4 0.157397 0.38644 0.556539
897 4 0.162593 0.398662 0.56979
773 4 0.246955 0.388427 0.509616
1190 4 0.24682 0.38909 0.528752
1189 2 0.236765 0.400881 0.548375
1191 4 0.226709 0.412671 0.567998
896 4 0.208352 0.418829 0.570191
895 2 0.185472 0.408745 0.569991
802 2 0.261689 0.353033 0.525679
803 4 0.259365 0.377211 0.519746
930 4 0.261129 0.397312 0.518553
928 2 0.281204 0.411237 0.513232
925 2 0.409048 0.394064 0.520394
927 4 0.421744 0.373601 0.527123
383 4 0.0922533 0.427077 0.501268
1172 4 0.223243 0.429783 0.577133
1159 2 0.17197 0.485853 0.579124
929 4 0.301278 0.425161 0.507912
891 4 0.312456 0.482032 0.527807
1952 4 0.327773 0.472072 0.522095
881 4 0.319326 0.484753 0.509483
1951 2 0.325431 0.448181 0.529091
889 2 0.297129 0.499038 0.537859
1953 4 0.323089 0.424291 0.536086
1000 2 0.397654 0.498395 0.561266
926 4 0.396352 0.414527 0.513666
1001 4 0.411477 0.482515 0.547778
661 2 0.405683 0.449082 0.526113
663 4 0.395521 0.433593 0.50932
662 4 0.415845 0.46457 0.542906
1911 4 0.42061 0.470797 0.560287
1909 2 0.425566 0.45398 0.578115
1332 4 0.4298 0.477819 0.544419
1330 2 0.451257 0.48859 0.537436
1057 2 0.157099 0.0599271 0.600964
1058 4 0.151398 0.0380378 0.611619
2375 4 0.151411 0.0176864 0.614339
1059 4 0.1628 0.0818163 0.590308
950 4 0.228422 0.0446818 0.593292
949 2 0.246086 0.0464982 0.610895
951 4 0.263751 0.0483147 0.628497
1031 4 0.265436 0.0613615 0.642887
1030 2 0.266256 0.0863369 0.643744
1216 2 0.40341 0.0249065 0.587341
1218 4 0.418793 0.00521446 0.586474
3007 2 0.499299 0.0692018 0.594178
808 2 0.485382 0.0793119 0.650932
43 3 0.434459 0.0698601 0.658187
1083 4 0.04758 0.147179 0.652713
3179 4 0.0380026 0.158023 0.638614
3178 2 0.0148187 0.166099 0.643353
1284 4 0.148848 0.09067 0.652952
1153 2 0.160105 0.115953 0.588322
1154 4 0.166859 0.137902 0.59821
1221 4 0.163423 0.143346 0.617203
1219 2 0.173633 0.16419 0.626501
1032 4 0.267076 0.111312 0.6446
1245 4 0.07604 0.215362 0.641625
1271 4 0.111283 0.184943 0.590881
1243 2 0.0859698 0.204984 0.621158
1244 4 0.0958996 0.194606 0.600692
1209 4 0.0900736 0.205705 0.653126
1210 2 0.218343 0.174952 0.656897
1212 4 0.201968 0.187741 0.642987
1220 4 0.183843 0.185034 0.635798
797 4 0.186721 0.241707 0.618086
796 2 0.191922 0.217523 0.621728
798 4 0.197123 0.193339 0.625369
857 4 0.295772 0.208245 0.579488
856 2 0.290228 0.207712 0.603864
858 4 0.284685 0.20718 0.628239
905 4 0.449214 0.247779 0.625226
3123 4 0.463487 0.242712 0.638491
3121 2 0.479941 0.223961 0.640187
983 4 0.0327816 0.297914 0.598717
982 2 0.0447101 0.317102 0.609428
984 4 0.0566386 0.33629 0.620138
3263 4 0.057032 0.329865 0.63945
3262 2 0.0535212 0.323758 0.663441
805 2 0.303662 0.308698 0.638366
806 4 0.282659 0.31053 0.651809
807 4 0.324665 0.306866 0.624924
1239 4 0.337696 0.292026 0.623954
1237 2 0.339344 0.279909 0.602145
906 4 0.452762 0.289906 0.598516
904 2 0.450988 0.268842 0.611871
952 2 0.488304 0.314423 0.595276
953 4 0.471996 0.295752 0.598533
1041 4 0.0652166 0.346409 0.634492
1039 2 0.0585271 0.369116 0.626442
1040 4 0.0518376 0.391823 0.618392
993 4 0.0396164 0.407581 0.614678
1029 4 0.199895 0.416791 0.618009
1206 4 0.484977 0.407446 0.604761
3309 4 0.499215 0.396054 0.609427
991 2 0.0372787 0.4324 0.616606
992 4 0.0349411 0.457219 0.618535
1027 2 0.196685 0.416972 0.642805
1171 2 0.216421 0.452529 0.584961
1160 4 0.190264 0.475103 0.592351
1173 4 0.209599 0.475274 0.59279
1188 4 0.183657 0.486747 0.65589
1187 4 0.200089 0.476583 0.609766
1186 2 0.191873 0.481665 0.632828
1175 4 0.168087 0.494964 0.66405
1268 4 0.41922 0.473326 0.652463
2168 4 0.409429 0.490613 0.655607
1204 2 0.465584 0.423195 0.6058
1910 4 0.430523 0.437164 0.595942
1269 4 0.42831 0.441744 0.614772
1267 2 0.423765 0.457535 0.633618
1205 4 0.446192 0.438944 0.606839
1226 4 0.164312 0.0781695 0.740995
1148 4 0.183541 0.0748629 0.742054
1203 4 0.171101 0.059992 0.745015
1201 2 0.177284 0.0372724 0.753428
1003 2 0.324982 0.0301248 0.701745
1005 4 0.314009 0.0525101 0.699832
1004 4 0.335956 0.00773954 0.703658
45 3 0.440528 0.0459902 0.686666
1162 2 0.498326 0.0692026 0.702732
42 3 0.423045 0.0783539 0.692976
41 1 0.439527 0.0679595 0.680751
1163 4 0.479006 0.078566 0.689916
44 3 0.459819 0.078292 0.68521
810 4 0.472413 0.0753731 0.671943
1081 2 0.0454664 0.12876 0.66949
1075 2 0.0449119 0.0957299 0.719848
1076 4 0.031333 0.103573 0.700373
1082 4 0.0433528 0.110341 0.686266
1077 4 0.0584908 0.087887 0.739323
1282 2 0.138437 0.0987649 0.674195
909 4 0.0975995 0.16408 0.705074
907 2 0.108462 0.141606 0.706529
908 4 0.119325 0.119132 0.707983
1283 4 0.128026 0.10686 0.695438
1227 4 0.133555 0.107602 0.714757
1225 2 0.148933 0.0928856 0.727876
1211 4 0.234717 0.162162 0.670806
1147 2 0.205568 0.0850643 0.748047
888 4 0.246117 0.146796 0.675783
886 2 0.265415 0.149359 0.691474
829 2 0.324135 0.148419 0.705766
830 4 0.302043 0.151397 0.717089
887 4 0.284713 0.151922 0.707165
978 4 0.288252 0.16371 0.722415
831 4 0.346228 0.145441 0.694442
1142 4 0.365959 0.144049 0.693088
1141 2 0.382598 0.161235 0.700364
1025 4 0.457637 0.150451 0.699998
3424 2 0.47138 0.115272 0.691423
3426 4 0.471373 0.0933686 0.679365
3425 4 0.471388 0.137176 0.703482
3269 4 0.475173 0.156461 0.705351
3268 2 0.487092 0.16825 0.723902
1024 2 0.437903 0.165536 0.702857
851 4 0.0804151 0.170885 0.710401
850 2 0.0607088 0.177379 0.724353
852 4 0.0410024 0.183873 0.738305
1208 4 0.0892296 0.177669 0.694527
1207 2 0.0896516 0.191687 0.673826
1107 4 0.0965133 0.18201 0.71165
1105 2 0.115945 0.193666 0.722221
1106 4 0.135376 0.205322 0.732791
1130 4 0.151612 0.213813 0.724893
1129 2 0.162705 0.22329 0.745198
976 2 0.289683 0.183368 0.7378
916 2 0.29136 0.240702 0.746223
977 4 0.291114 0.203026 0.753185
1193 4 0.376478 0.232263 0.687319
1194 4 0.406675 0.196134 0.704157
1192 2 0.391577 0.214198 0.695738
1143 4 0.399238 0.178422 0.707639
1262 4 0.409159 0.188162 0.721576
1026 4 0.418169 0.180621 0.705715
1261 2 0.419166 0.19949 0.741494
3270 4 0.499011 0.180038 0.742453
3264 4 0.0500103 0.31765 0.687431
779 4 0.0422577 0.302149 0.696199
778 2 0.049537 0.279536 0.703999
780 4 0.0568163 0.256923 0.7118
893 4 0.0400188 0.31919 0.704938
892 2 0.0340021 0.330661 0.726325
1065 4 0.24641 0.329401 0.696311
947 4 0.317718 0.257088 0.679739
1063 2 0.258103 0.307398 0.694229
946 2 0.302259 0.273272 0.690889
948 4 0.286801 0.289455 0.702038
1064 4 0.269797 0.285396 0.692146
917 4 0.282464 0.261642 0.735853
1008 4 0.442791 0.286193 0.716499
1006 2 0.443646 0.284235 0.741412
894 4 0.0279853 0.342133 0.747711
3276 4 0.0160585 0.355579 0.754548
942 4 0.0928025 0.3921 0.746736
1067 4 0.145343 0.397154 0.712912
940 2 0.112967 0.386747 0.732956
941 4 0.133132 0.381395 0.719175
1066 2 0.162726 0.407048 0.697909
1019 4 0.395574 0.40453 0.731959
1176 4 0.161613 0.466259 0.704483
1028 4 0.193475 0.417153 0.667601
1068 4 0.18011 0.416943 0.682906
1174 2 0.16485 0.480612 0.684267
1140 4 0.352309 0.465386 0.721912
1230 4 0.386754 0.42191 0.737263
1100 4 0.403546 0.421343 0.727192
1138 2 0.345871 0.476893 0.700667
1139 4 0.339433 0.488399 0.679423
1101 4 0.445003 0.449148 0.730174
1099 2 0.424274 0.435246 0.728683
3330 4 0.462153 0.45859 0.72886
1251 4 0.448813 0.464306 0.741441
3328 2 0.486955 0.455742 0.727478
1296 4 0.0135236 0.036838 0.754554
1294 2 0.995969 0.0201698 0.760815
864 4 0.0551314 0.0859025 0.759892
2256 4 0.197018 0.00478461 0.751408
1202 4 0.183466 0.0145528 0.761841
975 4 0.344031 0.0323263 0.827267
2322 4 0.472973 0.043983 0.788361
2320 2 0.470979 0.019368 0.784448
846 4 0.462816 0.062582 0.782145
862 2 0.0536734 0.1015 0.77938
863 4 0.0522155 0.117097 0.798868
833 4 0.0387149 0.129072 0.804405
1125 4 0.0546658 0.136744 0.796326
1123 2 0.0697129 0.156706 0.796845
832 2 0.0367483 0.125704 0.829102
1149 4 0.227595 0.0952657 0.754041
1257 4 0.236689 0.107609 0.767519
1255 2 0.249241 0.116967 0.787013
921 4 0.206333 0.136224 0.822141
919 2 0.20294 0.160988 0.821514
1256 4 0.261793 0.126325 0.806508
840 4 0.271503 0.13987 0.820002
844 2 0.470648 0.0847317 0.773588
845 4 0.478479 0.106881 0.76503
1214 4 0.031579 0.174652 0.752547
1213 2 0.0116585 0.187734 0.744982
1072 2 0.0722714 0.208855 0.824151
1073 4 0.0815442 0.192728 0.807444
1124 4 0.0847599 0.176669 0.797364
1131 4 0.173798 0.232768 0.765503
1277 4 0.185834 0.239928 0.779311
1276 2 0.190714 0.220078 0.793711
1278 4 0.195593 0.200229 0.808112
822 4 0.172143 0.251482 0.770946
1241 4 0.189074 0.201303 0.826684
920 4 0.199547 0.185753 0.820887
918 4 0.300256 0.219761 0.756594
1298 4 0.294529 0.209583 0.771844
1297 2 0.308641 0.212638 0.792257
1299 4 0.322753 0.215694 0.81267
1086 4 0.335643 0.200279 0.815668
50 3 0.394971 0.209848 0.795038
46 1 0.417458 0.212537 0.797441
1084 2 0.341432 0.183792 0.833552
49 3 0.422677 0.235127 0.798351
48 3 0.424673 0.201954 0.816789
47 3 0.428184 0.203147 0.779387
1263 4 0.429172 0.210818 0.761411
1146 4 0.487591 0.18463 0.757647
1145 4 0.445495 0.207574 0.771865
1144 2 0.466543 0.196102 0.764756
1022 4 0.416919 0.186823 0.827457
3188 4 0.0124062 0.27171 0.774246
3187 2 0.0190751 0.275164 0.798095
3189 4 0.0257439 0.278617 0.821944
821 4 0.162649 0.300401 0.766758
820 2 0.167396 0.275942 0.768852
1096 2 0.237473 0.300734 0.827426
1098 4 0.231039 0.322278 0.816488
1043 4 0.416449 0.255275 0.802166
1042 2 0.429173 0.274315 0.792128
1044 4 0.441898 0.293355 0.782091
1007 4 0.4445 0.282277 0.766324
1165 2 0.482355 0.279257 0.784131
1166 4 0.460123 0.287902 0.776636
1308 4 0.499098 0.261094 0.807087
1167 4 0.504587 0.270611 0.791626
816 4 0.035715 0.356428 0.757306