ITEM: TIMESTEP
3010000
ITEM: NUMBER OF ATOMS
4590
ITEM: BOX BOUNDS pp pp pp
-9.9985700000000008e+00 9.9985700000000008e+00
-9.9985700000000008e+00 9.9985700000000008e+00
-9.9985700000000008e+00 9.9985700000000008e+00
ITEM: ATOMS id type xs ys zs
465 4 0.0718011 0.0688692 0.029946
701 4 0.0906743 0.0704183 0.0221425
700 2 0.115095 0.0666142 0.0259314
702 4 0.139515 0.0628101 0.0297203
566 4 0.15384 0.0591649 0.0167341
746 4 0.479288 0.0528 0.0471981
2469 4 0.483791 0.0349483 0.0552254
745 2 0.470247 0.0521176 0.0238963
463 2 0.0557003 0.0873109 0.0350301
464 4 0.0395995 0.105753 0.0401142
590 4 0.0288004 0.112284 0.0553311
589 2 0.0157293 0.0975829 0.0707652
579 4 0.115545 0.14154 0.0806574
558 4 0.365812 0.116728 0.0354706
556 2 0.371582 0.105487 0.0570467
866 4 0.366519 0.132565 0.0248782
865 2 0.368884 0.15696 0.0298258
827 4 0.367748 0.114465 0.0167021
557 4 0.377351 0.0942456 0.0786229
771 4 0.418249 0.160788 0.079538
554 4 0.043809 0.226623 0.0186575
553 2 0.0639449 0.213677 0.0258784
555 4 0.0840807 0.200732 0.0330993
835 2 0.121341 0.208463 0.0136748
836 4 0.102627 0.204561 0.0297919
461 4 0.329456 0.234566 0.0796672
666 4 0.344903 0.235714 0.0677479
664 2 0.356816 0.21886 0.0536341
665 4 0.36873 0.202007 0.0395202
867 4 0.371248 0.181355 0.0347734
2808 4 0.0475152 0.29635 0.0178633
2806 2 0.0257667 0.294851 0.0301081
2807 4 0.00401824 0.293352 0.0423529
292 2 0.102608 0.330391 0.0744728
356 4 0.305336 0.313909 0.0579614
572 4 0.312143 0.295136 0.0581716
355 2 0.300438 0.330795 0.0401835
571 2 0.321722 0.272463 0.0625686
573 4 0.331302 0.249789 0.0669656
620 4 0.00816712 0.382539 0.0775994
647 4 0.0157126 0.362578 0.0792916
293 4 0.122198 0.336022 0.0599903
507 4 0.139474 0.348059 0.0566112
505 2 0.141847 0.370702 0.0462755
483 4 0.151486 0.412797 0.0300321
506 4 0.14422 0.393346 0.0359398
481 2 0.176286 0.413655 0.0330966
626 4 0.190753 0.413341 0.083149
482 4 0.201086 0.414512 0.0361611
357 4 0.295541 0.347681 0.0224056
902 4 0.297738 0.349165 0.00272028
671 4 0.484632 0.375826 0.0647612
281 4 0.499284 0.384883 0.0561978
280 2 0.49515 0.409518 0.055092
550 2 0.0651551 0.443651 0.0700469
551 4 0.0475516 0.427476 0.0773737
552 4 0.0827587 0.459825 0.0627202
1787 4 0.0902089 0.477341 0.0590074
1786 2 0.08948 0.480569 0.0342237
1788 4 0.0887512 0.483796 0.00944003
242 4 0.101343 0.463366 0.0668014
609 4 0.217865 0.418844 0.0256004
246 4 0.240315 0.479166 0.0256839
244 2 0.237418 0.471193 0.0492044
245 4 0.234521 0.463219 0.0727249
272 4 0.241649 0.483708 0.00734649
627 4 0.222026 0.452276 0.0857628
625 2 0.206389 0.432809 0.0844559
607 2 0.242688 0.419689 0.028475
1778 4 0.250479 0.494969 0.0207525
608 4 0.267511 0.420535 0.0313496
252 4 0.279655 0.437998 0.0293967
250 2 0.298016 0.454656 0.026147
251 4 0.316378 0.471314 0.0228974
2289 4 0.323362 0.489792 0.0261761
957 4 0.390446 0.421768 0.0106593
525 4 0.439787 0.48853 0.0791588
226 2 0.465449 0.468456 0.0621217
227 4 0.48205 0.44976 0.0623111
228 4 0.448847 0.487152 0.0619323
282 4 0.491016 0.434152 0.0539862
1804 2 0.0525363 0.00238488 0.102033
16 1 0.0721159 0.0402949 0.137713
20 3 0.0664454 0.0541169 0.120525
18 3 0.0714718 0.018202 0.13065
19 3 0.0575136 0.0433584 0.155484
1806 4 0.0530799 0.0134828 0.124432
380 4 0.0707277 0.0561473 0.165208
17 3 0.0934669 0.0452509 0.144694
675 4 0.0909809 0.0531765 0.163439
652 2 0.323567 0.0306426 0.150879
654 4 0.307783 0.0121072 0.156578
653 4 0.339351 0.049178 0.14518
484 2 0.359967 0.00608708 0.119848
297 4 0.374006 0.0478577 0.129027
485 4 0.363167 0.0299906 0.126447
295 2 0.370901 0.0641794 0.110341
296 4 0.367796 0.0805012 0.0916562
2625 4 0.00226602 0.101827 0.152506
2623 2 0.00238037 0.0968016 0.128012
2624 4 0.00249473 0.0917767 0.103519
591 4 0.0026582 0.0828822 0.0861994
237 4 0.14604 0.161713 0.135043
578 4 0.133163 0.165183 0.121047
577 2 0.124354 0.153362 0.100852
235 2 0.155715 0.14299 0.148499
236 4 0.16539 0.124268 0.161954
693 4 0.184426 0.126477 0.162334
449 4 0.176495 0.108629 0.164186
691 2 0.207099 0.119766 0.154208
692 4 0.229773 0.113054 0.146082
582 4 0.246339 0.103902 0.140449
580 2 0.269526 0.109035 0.148272
581 4 0.292713 0.114168 0.156094
30 3 0.297068 0.133363 0.161223
737 4 0.150361 0.17315 0.119364
476 4 0.138509 0.179667 0.132966
475 2 0.128232 0.194467 0.150302
736 2 0.170129 0.186299 0.111518
738 4 0.189896 0.199447 0.103673
354 4 0.314719 0.227288 0.139703
283 2 0.327479 0.193501 0.152325
285 4 0.326075 0.169679 0.159789
284 4 0.328882 0.217323 0.14486
462 4 0.327395 0.223011 0.128277
460 2 0.328426 0.228789 0.103972
255 4 0.330599 0.234417 0.141496
352 2 0.296021 0.243198 0.14444
253 2 0.350957 0.244119 0.152294
1070 4 0.427298 0.228052 0.0844121
769 2 0.427352 0.169093 0.101294
770 4 0.436455 0.177398 0.123051
1014 4 0.455156 0.186087 0.123334
1013 4 0.470772 0.233546 0.121214
1012 2 0.462964 0.209816 0.122274
294 4 0.083019 0.324761 0.0889554
610 2 0.226409 0.327129 0.128047
612 4 0.22865 0.302326 0.130278
756 4 0.24661 0.29825 0.122875
353 4 0.277323 0.259108 0.149176
754 2 0.252421 0.278134 0.136542
755 4 0.258232 0.258019 0.150209
278 4 0.268343 0.261253 0.166665
254 4 0.371316 0.253821 0.163091
1069 2 0.437278 0.250967 0.08509
322 2 0.452806 0.313801 0.0911651
1071 4 0.447258 0.273883 0.0857679
324 4 0.448899 0.289794 0.0969592
456 4 0.0484297 0.339899 0.114707
455 4 0.0547683 0.334469 0.164013
454 2 0.051599 0.337184 0.13936
646 2 0.0352771 0.349686 0.0880205
648 4 0.0548417 0.336793 0.0967494
536 4 0.200997 0.396081 0.0855643
611 4 0.224168 0.351932 0.125815
535 2 0.205522 0.380742 0.104784
537 4 0.210048 0.365402 0.124004
387 4 0.333221 0.413778 0.137255
739 2 0.397276 0.375838 0.114464
740 4 0.389803 0.384749 0.136599
385 2 0.356032 0.405004 0.142533
386 4 0.378843 0.39623 0.147811
495 4 0.397902 0.398294 0.14875
15 3 0.377969 0.376777 0.150208
741 4 0.404749 0.366927 0.09233
670 2 0.470846 0.364256 0.0821182
672 4 0.45706 0.352686 0.0994751
323 4 0.456713 0.337808 0.0853711
1466 4 0.00619862 0.493133 0.102919
1465 2 0.999292 0.469245 0.100306
241 2 0.112913 0.472673 0.0869183
243 4 0.124484 0.481979 0.107035
1440 4 0.143515 0.478191 0.10957
1438 2 0.167502 0.483099 0.114639
1439 4 0.19149 0.488008 0.119709
639 4 0.210839 0.481279 0.117924
303 4 0.304224 0.470122 0.119224
768 4 0.300334 0.4848 0.105595
301 2 0.318979 0.450062 0.12147
302 4 0.333734 0.430002 0.123717
493 2 0.407611 0.420707 0.143403
660 4 0.408785 0.456946 0.149736
494 4 0.417319 0.44312 0.138055
524 4 0.428476 0.489295 0.127864
523 2 0.434131 0.488912 0.103511
658 2 0.420779 0.473955 0.163592
379 2 0.0657493 0.0785047 0.175235
673 2 0.114963 0.0571867 0.169268
450 4 0.150214 0.0721854 0.186138
1505 4 0.155678 0.0537062 0.183316
674 4 0.138944 0.0611969 0.175096
1504 2 0.162031 0.0295713 0.184842
1506 4 0.168384 0.00543647 0.186367
22 3 0.422627 0.00546326 0.202906
757 2 0.467367 0.0322363 0.21623
25 3 0.434279 0.0127925 0.237596
759 4 0.44959 0.0237445 0.231626
758 4 0.485144 0.040728 0.200833
350 4 0.451088 0.0107994 0.24674
512 4 0.0561347 0.120118 0.182713
381 4 0.0607708 0.100862 0.185262
511 2 0.0721866 0.137487 0.190827
448 2 0.163355 0.0904072 0.175162
513 4 0.0882385 0.154856 0.198941
29 3 0.321898 0.157731 0.175621
26 1 0.313443 0.136155 0.176803
28 3 0.304955 0.132125 0.198019
27 3 0.330471 0.121257 0.172652
521 4 0.492349 0.135182 0.24
339 4 0.0808917 0.172771 0.202839
337 2 0.0922606 0.191871 0.191389
477 4 0.117955 0.209267 0.167637
363 4 0.117363 0.224176 0.180537
338 4 0.103629 0.210972 0.179939
362 4 0.1495 0.24242 0.214228
361 2 0.133432 0.233298 0.197383
372 4 0.137786 0.245608 0.231076
628 2 0.392684 0.219425 0.178836
629 4 0.403077 0.197488 0.184834
630 4 0.382291 0.241361 0.172838
312 4 0.421895 0.196126 0.182452
311 4 0.466963 0.174456 0.182418
310 2 0.444429 0.185291 0.182435
761 4 0.485408 0.222023 0.242758
749 4 0.0469633 0.327907 0.181546
750 4 0.0416603 0.285069 0.206795
395 4 0.0491581 0.289474 0.224731
748 2 0.0443118 0.306488 0.19417
394 2 0.0359699 0.285418 0.245583
300 4 0.112929 0.319216 0.17846
298 2 0.111839 0.329837 0.20107
277 2 0.259638 0.259297 0.190022
279 4 0.250933 0.257342 0.21338
401 4 0.269073 0.316541 0.22981
498 4 0.282785 0.331292 0.232813
308 4 0.333009 0.330783 0.196191
765 4 0.386763 0.260784 0.172584
763 2 0.403803 0.271964 0.18707
526 2 0.498552 0.306782 0.17578
528 4 0.480648 0.323077 0.182033
764 4 0.420842 0.283145 0.201555
624 4 0.468368 0.313911 0.194615
622 2 0.449607 0.301336 0.205341
623 4 0.430845 0.288761 0.216067
262 2 0.0594036 0.411337 0.206589
263 4 0.0836868 0.405485 0.207707
299 4 0.110749 0.340458 0.223679
734 4 0.122099 0.342596 0.239695
602 4 0.0910493 0.401223 0.22655
601 2 0.0994149 0.378175 0.231445
603 4 0.107781 0.355126 0.236341
290 4 0.166901 0.395416 0.215689
289 2 0.177718 0.416351 0.20733
496 2 0.298285 0.334318 0.213428
497 4 0.313785 0.337344 0.194043
11 1 0.390836 0.375954 0.16898
12 3 0.402055 0.355881 0.169601
307 2 0.352547 0.345045 0.189863
309 4 0.372086 0.359306 0.183535
14 3 0.406345 0.393211 0.168711
13 3 0.377433 0.377642 0.187846
264 4 0.0351203 0.41719 0.205471
2617 2 0.999152 0.422596 0.228715
2618 4 0.0215708 0.416265 0.219632
291 4 0.188535 0.437287 0.198971
416 4 0.174625 0.451722 0.198891
415 2 0.185815 0.473735 0.202815
1430 4 0.214106 0.49282 0.196844
417 4 0.197005 0.495748 0.206739
597 4 0.491053 0.463482 0.197367
596 4 0.449417 0.489726 0.188511
659 4 0.432773 0.490965 0.177448
595 2 0.470235 0.476604 0.192939
1799 4 0.0108611 0.0138838 0.297928
233 4 0.0106879 0.0323987 0.293357
1402 2 0.0500081 0.0335232 0.305122
1403 4 0.026978 0.024475 0.301527
1404 4 0.0730382 0.0425714 0.308716
1798 2 0.00132148 0.00244312 0.31801
633 4 0.380053 0.0315016 0.284697
631 2 0.399485 0.0356197 0.26951
257 4 0.365106 0.0340586 0.297377
698 4 0.369906 0.0160414 0.291354
256 2 0.362744 0.0524326 0.31417
258 4 0.360382 0.0708067 0.330963
632 4 0.418917 0.0397379 0.254324
349 2 0.454069 0.0200805 0.269765
744 4 0.467884 0.0156182 0.300479
742 2 0.481856 0.0195032 0.320847
351 4 0.457051 0.0293615 0.29279
398 4 0.0760339 0.14162 0.3219
390 4 0.0785127 0.160898 0.318357
393 4 0.0777481 0.14751 0.303641
392 4 0.113228 0.163866 0.272426
391 2 0.095488 0.155688 0.288033
545 4 0.133355 0.166611 0.268507
403 2 0.199797 0.162662 0.31097
404 4 0.202585 0.14628 0.329652
444 4 0.018876 0.236215 0.310195
388 2 0.069805 0.179924 0.332045
370 2 0.146067 0.246441 0.254654
544 2 0.156789 0.172232 0.275173
371 4 0.154349 0.247274 0.278232
546 4 0.180223 0.177852 0.281838
723 4 0.224621 0.230684 0.282514
721 2 0.207758 0.212236 0.28179
405 4 0.19701 0.179045 0.292287
722 4 0.190896 0.193789 0.281066
376 2 0.309645 0.226234 0.319598
378 4 0.296508 0.247064 0.315272
377 4 0.322782 0.205404 0.323923
420 4 0.392153 0.223841 0.268468
717 4 0.385726 0.230372 0.285605
418 2 0.413343 0.211097 0.272176
331 2 0.452134 0.201146 0.315586
332 4 0.446625 0.199278 0.291268
419 4 0.434534 0.198354 0.275884
760 2 0.469804 0.209909 0.258087
762 4 0.454201 0.197795 0.273416
442 2 0.0173089 0.257459 0.297104
364 2 0.0215449 0.313899 0.295818
396 4 0.0227817 0.281361 0.266435
443 4 0.0157417 0.278704 0.284012
365 4 0.0255147 0.294277 0.280838
407 4 0.0144917 0.332033 0.329839
735 4 0.157445 0.324711 0.270216
733 2 0.139772 0.333653 0.254955
676 2 0.190175 0.332703 0.283224
508 2 0.236687 0.30951 0.302174
509 4 0.212767 0.311497 0.30918
678 4 0.207733 0.328563 0.300537
435 4 0.214276 0.327994 0.319451
510 4 0.260606 0.307523 0.295168
400 2 0.265799 0.309422 0.253554
402 4 0.262526 0.302303 0.277298
345 4 0.27344 0.292909 0.290383
343 2 0.290379 0.27927 0.302721
344 4 0.307318 0.26563 0.315058
715 2 0.376722 0.253695 0.285993
716 4 0.367718 0.277018 0.286382
542 4 0.364854 0.292326 0.298764
541 2 0.379683 0.310442 0.307544
543 4 0.394512 0.328558 0.316323
751 2 0.486311 0.318437 0.318187
753 4 0.479948 0.32241 0.294335
366 4 0.0175751 0.333521 0.310798
548 4 0.0246504 0.347274 0.322498
547 2 0.0301465 0.371214 0.317823
549 4 0.0356425 0.395154 0.313147
777 4 0.0352082 0.410528 0.325254
2493 4 0.00569503 0.345838 0.319774
677 4 0.172617 0.336843 0.26591
728 4 0.367579 0.38622 0.2895
727 2 0.360599 0.401255 0.30822
2538 4 0.485603 0.341424 0.292169
2536 2 0.49786 0.361294 0.283216
1543 2 0.141363 0.478625 0.311957
1545 4 0.159954 0.472905 0.296245
1436 4 0.170203 0.490462 0.295586
1544 4 0.122772 0.484344 0.327669
729 4 0.353619 0.416289 0.32694
437 4 0.356064 0.43488 0.333539
730 2 0.0720234 0.0699519 0.359089
1772 4 0.0081351 0.0327083 0.386879
2238 4 0.0231073 0.0456459 0.384345
2236 2 0.0219454 0.0493897 0.409039
1771 2 0.0049816 0.0140205 0.37057
368 4 0.0914541 0.0144091 0.4122
732 4 0.0897232 0.0522959 0.358689
369 4 0.0798916 0.0385387 0.369953
367 2 0.0856729 0.0264739 0.391076
604 2 0.169419 0.0177934 0.402437
1701 4 0.17784 0.0581772 0.413095
1699 2 0.187838 0.0716799 0.394578
605 4 0.18117 0.0397704 0.404458
424 2 0.378536 0.0670867 0.365997
425 4 0.385315 0.055606 0.387149
1580 4 0.399461 0.0407057 0.389764
426 4 0.371758 0.0785673 0.344845
1579 2 0.396336 0.0167226 0.396106
743 4 0.495828 0.0233882 0.341215
478 2 0.492644 0.0439893 0.376955
480 4 0.482449 0.0549822 0.396965
457 2 0.000587721 0.162526 0.365295
458 4 0.0016496 0.137545 0.36543
397 2 0.0686343 0.121884 0.335349
399 4 0.0612348 0.102147 0.348798
317 4 0.0446193 0.104645 0.35801
731 4 0.0543235 0.0876078 0.35949
316 2 0.0222275 0.112015 0.366344
249 4 0.186795 0.135279 0.331861
247 2 0.193103 0.11488 0.344872
248 4 0.199411 0.0944816 0.357883
1700 4 0.197836 0.0851827 0.37606
319 2 0.330394 0.132694 0.394992
321 4 0.342868 0.134487 0.373396
708 4 0.331268 0.14914 0.362009
516 4 0.458776 0.153623 0.380784
575 4 0.466754 0.135245 0.376214
574 2 0.466386 0.127733 0.400059
459 4 0.999526 0.187507 0.36516
2654 4 0.0076789 0.205665 0.363118
389 4 0.0610974 0.198949 0.345734
707 4 0.319224 0.19044 0.336516
706 2 0.325246 0.16979 0.349262
600 4 0.262895 0.178791 0.405947
466 2 0.3565 0.248774 0.387138
467 4 0.360228 0.231794 0.369167
451 2 0.501203 0.20803 0.340177
333 4 0.457643 0.203013 0.339903
453 4 0.476279 0.207538 0.342107
515 4 0.469771 0.190049 0.348334
514 2 0.464274 0.171836 0.364559
406 2 0.0192532 0.317693 0.349761
408 4 0.0240147 0.303354 0.369683
347 4 0.0775144 0.330975 0.375295
275 4 0.142589 0.325538 0.353766
274 2 0.157004 0.309194 0.366024
276 4 0.17142 0.292851 0.378282
373 2 0.201291 0.276899 0.395781
375 4 0.191683 0.289175 0.376233
374 4 0.210898 0.264622 0.41533
489 4 0.303949 0.25601 0.415393
615 4 0.397036 0.32561 0.33583
267 4 0.351744 0.286245 0.402616
468 4 0.352771 0.265754 0.405109
613 2 0.409743 0.313832 0.353858
752 4 0.492673 0.314463 0.342039
614 4 0.42245 0.302054 0.371885
346 2 0.0650805 0.333202 0.396874
618 4 0.0847217 0.345225 0.360564
617 4 0.132754 0.340728 0.347396
616 2 0.108738 0.342977 0.35398
433 2 0.205194 0.334019 0.341954
434 4 0.196112 0.340045 0.364457
240 4 0.389672 0.402394 0.40253
335 4 0.370762 0.396237 0.404191
334 2 0.352781 0.41361 0.404087
775 2 0.0463727 0.426775 0.340635
776 4 0.0575371 0.443021 0.356017
414 4 0.077806 0.446073 0.358472
413 4 0.115876 0.474591 0.343041
412 2 0.0968408 0.460332 0.350757
500 4 0.122694 0.492947 0.345095
504 4 0.270635 0.424186 0.397922
502 2 0.294468 0.424693 0.405467
503 4 0.3183 0.425201 0.413012
436 2 0.367151 0.45526 0.342862
438 4 0.378238 0.47564 0.352186
336 4 0.334799 0.430984 0.403982
593 4 0.381781 0.4968 0.354977
3990 4 0.466962 0.485359 0.362756
1127 4 0.0116029 0.0489702 0.449652
2237 4 0.0207835 0.0531336 0.433734
720 4 0.0251533 0.0629947 0.450916
1782 4 0.110332 0.0103853 0.419154
2428 2 0.225222 0.0221685 0.490682
2430 4 0.202823 0.0324585 0.494877
2429 4 0.247621 0.0118786 0.486487
962 4 0.266327 0.00318134 0.483048
961 2 0.281268 0.0176785 0.496897
724 2 0.317549 0.0626674 0.4924
725 4 0.307911 0.0401591 0.497467
2879 4 0.409103 0.0115341 0.468898
642 4 0.449318 0.0596719 0.448731
2878 2 0.426224 0.029387 0.465246
2880 4 0.443345 0.0472398 0.461594
640 2 0.4556 0.0833421 0.443689
469 2 0.00420446 0.144704 0.473343
470 4 0.0224371 0.131472 0.462496
718 2 0.025531 0.0879032 0.453062
719 4 0.0259088 0.112812 0.455208
937 2 0.0802402 0.152392 0.497991
939 4 0.0907735 0.141044 0.478358
1033 2 0.12762 0.145188 0.466014
1035 4 0.15198 0.139642 0.465009
1034 4 0.10326 0.150734 0.467019
261 4 0.170293 0.141345 0.456281
259 2 0.176574 0.165294 0.459769
320 4 0.317921 0.130901 0.416588
726 4 0.327186 0.0851757 0.487332
684 4 0.299578 0.128749 0.42424
682 2 0.281628 0.145893 0.421229
683 4 0.263678 0.163037 0.418217
1181 4 0.315647 0.123571 0.434272
1182 4 0.332415 0.0919329 0.469181
1180 2 0.324031 0.107752 0.451726
576 4 0.466019 0.120222 0.423905
641 4 0.461883 0.107012 0.438646
306 4 0.471317 0.123338 0.442288
304 2 0.464709 0.136988 0.462167
3158 4 0.445173 0.155161 0.496217
305 4 0.458101 0.150638 0.482046
694 2 0.177105 0.222674 0.492318
695 4 0.183187 0.204048 0.476786
260 4 0.182855 0.189243 0.463257
687 4 0.240449 0.220681 0.446752
686 4 0.198321 0.201038 0.465192
685 2 0.219385 0.21086 0.455972
474 4 0.245656 0.234718 0.437113
599 4 0.252906 0.219081 0.433834
411 4 0.257177 0.227457 0.448081
598 2 0.257901 0.198936 0.41989
409 2 0.267594 0.223571 0.470477
488 4 0.26281 0.233375 0.432597
487 2 0.28338 0.244693 0.423995
410 4 0.27801 0.219685 0.492872
2812 2 0.0198479 0.329284 0.439957
472 2 0.231913 0.255378 0.43403
473 4 0.21817 0.276037 0.430948
266 4 0.319636 0.30937 0.433194
265 2 0.33569 0.297807 0.417905
348 4 0.0526467 0.335429 0.418452
2813 4 0.0421317 0.33889 0.43393
326 4 0.0548716 0.352424 0.428417
325 2 0.0633585 0.366513 0.447249
327 4 0.0718455 0.380602 0.466082
7 3 0.0835702 0.392257 0.479569
6 1 0.100966 0.378846 0.486403
709 2 0.147004 0.408158 0.496872
10 3 0.112103 0.371103 0.46811
774 4 0.181948 0.417132 0.49827
710 4 0.168688 0.411639 0.484921
813 4 0.290913 0.348993 0.480556
811 2 0.27494 0.344118 0.499165
238 2 0.406301 0.413105 0.417826
679 2 0.0578253 0.463772 0.496161
680 4 0.0550233 0.480737 0.478008
1383 4 0.0626611 0.489253 0.459787
635 4 0.180883 0.426113 0.480814
636 4 0.190727 0.45879 0.444262
634 2 0.185805 0.442451 0.462538
668 4 0.32456 0.480385 0.441375
667 2 0.328345 0.457429 0.432216
4 3 0.331973 0.495722 0.451399
669 4 0.332129 0.434473 0.423057
587 4 0.419294 0.441077 0.495799
239 4 0.42293 0.423815 0.433122
586 2 0.416751 0.439831 0.470956
588 4 0.414207 0.438586 0.446114
1184 4 0.0183629 0.00763395 0.558431
3077 4 0.0234807 0.00786544 0.538844
3076 2 0.00866455 0.0154417 0.520182
1152 4 0.129931 0.0654212 0.518627
1150 2 0.127785 0.0703049 0.543055
1151 4 0.125639 0.0751885 0.567483
342 4 0.149938 0.0644345 0.51802
1059 4 0.136455 0.0827071 0.582337
340 2 0.169016 0.0490943 0.512933
341 4 0.188094 0.0337541 0.507847
430 2 0.328885 0.0239296 0.528912
432 4 0.313228 0.0385846 0.516058
963 4 0.296208 0.0321757 0.510747
841 2 0.377171 0.0326803 0.559159
842 4 0.397283 0.0465497 0.564481
843 4 0.357059 0.0188109 0.553836
431 4 0.344543 0.0092745 0.541767
1217 4 0.41448 0.0361743 0.559465
1216 2 0.427168 0.0147008 0.557709
879 4 0.0523039 0.157456 0.525423
877 2 0.029493 0.149012 0.531213
878 4 0.00668219 0.140567 0.537004
938 4 0.0697069 0.16374 0.517624
1155 4 0.133814 0.093156 0.565539
1154 4 0.151933 0.136432 0.582848
1153 2 0.142874 0.114794 0.574194
1221 4 0.171915 0.136808 0.583692
3159 4 0.457363 0.125965 0.534943
3157 2 0.451268 0.140563 0.51558
1062 4 0.468309 0.111576 0.522831
1060 2 0.485288 0.09327 0.521496
1272 4 0.0637686 0.168805 0.535571
1270 2 0.0787492 0.177642 0.553534
1271 4 0.0937299 0.18648 0.571496
1258 2 0.156988 0.228525 0.547176
1259 4 0.15055 0.216792 0.568297
1260 4 0.163425 0.240258 0.526056
696 4 0.171022 0.2413 0.50785
898 2 0.292761 0.230945 0.530449
899 4 0.305011 0.230702 0.552245
857 4 0.306605 0.219064 0.567679
791 4 0.317004 0.235816 0.566083
900 4 0.280511 0.231188 0.508654
856 2 0.303424 0.199515 0.58294
790 2 0.338951 0.246397 0.560469
792 4 0.360899 0.256979 0.554855
872 4 0.375699 0.259292 0.543139
1238 4 0.372237 0.272298 0.557115
871 2 0.385341 0.269076 0.522247
873 4 0.394983 0.27886 0.501354
1237 2 0.366296 0.291291 0.572251
1135 2 0.111734 0.359717 0.577873
1136 4 0.105677 0.335468 0.577171
1137 4 0.11779 0.383966 0.578574
897 4 0.136288 0.393173 0.573448
895 2 0.158901 0.400488 0.581213
8 3 0.1153 0.391347 0.499695
711 4 0.125319 0.404677 0.508823
9 3 0.0923841 0.361048 0.498568
773 4 0.224696 0.411806 0.523666
1189 2 0.211098 0.40975 0.564463
1190 4 0.222474 0.405916 0.542529
803 4 0.22969 0.394418 0.529045
802 2 0.237529 0.370678 0.529401
804 4 0.245369 0.346938 0.529757
930 4 0.240603 0.409655 0.535188
772 2 0.203322 0.414469 0.510968
651 4 0.298097 0.338457 0.57103
649 2 0.279585 0.338552 0.554223
650 4 0.261073 0.338647 0.537416
812 4 0.258967 0.339243 0.517773
925 2 0.412887 0.399052 0.508529
927 4 0.406307 0.375942 0.515443
539 4 0.0759789 0.485311 0.52477
383 4 0.0785001 0.440723 0.508114
681 4 0.0606273 0.446807 0.514313
384 4 0.122084 0.419679 0.520697
382 2 0.100292 0.430201 0.514405
569 4 0.129599 0.428864 0.536681
568 2 0.146743 0.446441 0.541403
570 4 0.163888 0.464018 0.546124
538 2 0.0991739 0.494552 0.523439
928 2 0.261827 0.421229 0.528804
929 4 0.283051 0.432804 0.522419
1951 2 0.300918 0.473674 0.524966
1953 4 0.288815 0.451909 0.522725
1952 4 0.313021 0.495438 0.527206
663 4 0.410289 0.434683 0.512449
661 2 0.414647 0.44993 0.53178
1330 2 0.453848 0.48932 0.539079
926 4 0.419467 0.422162 0.501614
1001 4 0.421594 0.48321 0.558599
662 4 0.419006 0.465178 0.551111
1911 4 0.430899 0.467824 0.566406
1332 4 0.435774 0.474755 0.54837
2374 2 0.14347 0.0110166 0.609001
2375 4 0.147606 0.0353319 0.613103
1057 2 0.147858 0.0661092 0.597157
1058 4 0.159262 0.0495113 0.611978
950 4 0.253935 0.0137863 0.605089
2400 4 0.330792 0.0191138 0.636553
949 2 0.263812 0.0286462 0.622605
951 4 0.273689 0.0435062 0.640121
1031 4 0.27079 0.0608324 0.651169
1030 2 0.294512 0.0580673 0.65857
43 3 0.469449 0.046485 0.646798
810 4 0.490019 0.0757698 0.661201
1209 4 0.103321 0.163035 0.640547
1207 2 0.102446 0.160382 0.665394
1219 2 0.189299 0.150796 0.594975
1220 4 0.206683 0.164784 0.606257
888 4 0.255136 0.165209 0.663426
808 2 0.491362 0.085722 0.638303
809 4 0.492705 0.0956743 0.615405
3250 2 0.495315 0.134109 0.614234
3251 4 0.498291 0.157088 0.62363
3252 4 0.492339 0.11113 0.604837
1244 4 0.0990698 0.189346 0.590491
1245 4 0.097257 0.181333 0.639819
1243 2 0.0981634 0.18534 0.615155
1210 2 0.234237 0.178901 0.635842
1212 4 0.21687 0.176122 0.618069
797 4 0.19602 0.232436 0.594614
796 2 0.201829 0.208488 0.598845
798 4 0.207638 0.184539 0.603076
1211 4 0.251603 0.18168 0.653614
858 4 0.300242 0.179966 0.598201
3121 2 0.478531 0.212906 0.62938
3122 4 0.488206 0.190081 0.626126
3123 4 0.468856 0.235731 0.632635
983 4 0.00154518 0.330426 0.639511
3263 4 0.0623985 0.333097 0.661363
806 4 0.29626 0.329695 0.589629
805 2 0.318667 0.318609 0.58916
807 4 0.341074 0.307523 0.588691
1239 4 0.360355 0.310285 0.587388
906 4 0.460828 0.295034 0.596811
905 4 0.463468 0.25194 0.622042
904 2 0.462148 0.273487 0.609426
953 4 0.459163 0.312852 0.606272
952 2 0.479122 0.324234 0.596408
982 2 0.0230999 0.336036 0.650873
984 4 0.0446546 0.341645 0.662236
1041 4 0.0600396 0.352392 0.657471
1039 2 0.0735251 0.368679 0.644127
993 4 0.0808757 0.401268 0.61952
991 2 0.0616844 0.417252 0.618351
1040 4 0.0870107 0.384966 0.630784
896 4 0.181515 0.407803 0.588979
1028 4 0.184737 0.388269 0.64879
1027 2 0.18974 0.398124 0.626362
1029 4 0.194744 0.407979 0.603934
1191 4 0.199723 0.413584 0.586396
954 4 0.49908 0.335616 0.586545
1206 4 0.491276 0.411797 0.625666
3309 4 0.501506 0.39555 0.621434
992 4 0.042493 0.433237 0.617183
1159 2 0.16569 0.498256 0.596699
1172 4 0.187115 0.42452 0.596948
1160 4 0.177372 0.480981 0.610494
1171 2 0.19071 0.448764 0.601898
1173 4 0.194305 0.473008 0.606847
1187 4 0.191384 0.479669 0.625031
1186 2 0.185276 0.484363 0.648819
1909 2 0.439004 0.461346 0.589156
1268 4 0.449808 0.497522 0.653258
1267 2 0.444532 0.476226 0.641265
1204 2 0.470631 0.425901 0.625453
1910 4 0.447109 0.454867 0.611905
1269 4 0.439256 0.45493 0.629272
1205 4 0.449986 0.440004 0.62524
1284 4 0.104619 0.0461698 0.725667
1282 2 0.116247 0.0656865 0.715223
2047 2 0.153352 0.00823299 0.750268
2049 4 0.175419 0.014088 0.740073
1225 2 0.171761 0.0814176 0.703001
1201 2 0.195722 0.0360895 0.718195
1202 4 0.192484 0.0140152 0.729483
1203 4 0.19896 0.0581639 0.706907
1226 4 0.196228 0.0766442 0.701061
1148 4 0.213996 0.0710193 0.707616
2256 4 0.190441 0.00385594 0.746112
1032 4 0.318235 0.0553021 0.665971
45 3 0.478853 0.0313725 0.679977
41 1 0.468735 0.0490819 0.669844
1163 4 0.497586 0.0753633 0.679012
44 3 0.479343 0.0688026 0.675926
42 3 0.44675 0.0500936 0.676536
1077 4 0.0239697 0.128794 0.735423
1075 2 0.00235675 0.119456 0.727005
864 4 0.0419178 0.126291 0.745683
850 2 0.0663142 0.156636 0.706618
1283 4 0.127875 0.0852032 0.70478
909 4 0.104896 0.139489 0.694835
907 2 0.120794 0.120891 0.699985
908 4 0.136693 0.102293 0.705136
1227 4 0.147294 0.0861911 0.704942
851 4 0.0893123 0.148141 0.701708
1208 4 0.101571 0.157729 0.690241
1107 4 0.107406 0.15297 0.708763
1147 2 0.227245 0.0840178 0.724369
1149 4 0.240494 0.0970162 0.741122
829 2 0.323295 0.147791 0.696522
830 4 0.301044 0.151916 0.707156
886 2 0.274991 0.165288 0.678622
887 4 0.294847 0.165367 0.693818
831 4 0.345545 0.143667 0.685888
1142 4 0.361873 0.150886 0.696549
1141 2 0.385338 0.157346 0.702277
1143 4 0.408804 0.163807 0.708005
3426 4 0.482928 0.087535 0.675318
1025 4 0.461749 0.128349 0.704841
3424 2 0.481351 0.109315 0.687497
3425 4 0.479774 0.131094 0.699677
3269 4 0.475332 0.124579 0.71817
1024 2 0.44464 0.146561 0.703944
3268 2 0.483494 0.134358 0.739685
1026 4 0.427532 0.164772 0.703048
845 4 0.453002 0.0967334 0.730086
852 4 0.043316 0.16513 0.711528
1214 4 0.0362403 0.184107 0.71003
1213 2 0.0133667 0.194061 0.711729
1105 2 0.119254 0.170588 0.721968
1106 4 0.131102 0.188206 0.735174
1130 4 0.147836 0.194136 0.746424
978 4 0.294536 0.169438 0.712697
976 2 0.299269 0.186566 0.730287
916 2 0.319745 0.238287 0.750131
977 4 0.304002 0.203694 0.747878
1192 2 0.416212 0.199937 0.684266
1194 4 0.415212 0.178603 0.697266
1262 4 0.42009 0.177355 0.71646
1193 4 0.417213 0.221272 0.671265
1261 2 0.426958 0.185284 0.739157
3262 2 0.0677442 0.317723 0.680343
3264 4 0.0730898 0.302349 0.699324
893 4 0.0763782 0.302846 0.718627
892 2 0.0711659 0.320677 0.735363
779 4 0.0916444 0.299668 0.706313
778 2 0.11619 0.296597 0.709952
780 4 0.140736 0.293526 0.713592
1065 4 0.235714 0.309197 0.693995
1064 4 0.28292 0.321506 0.704986
1063 2 0.259317 0.315351 0.69949
947 4 0.315851 0.271526 0.736525
946 2 0.30386 0.291797 0.72813
948 4 0.291868 0.312068 0.719735
917 4 0.33082 0.258325 0.740081
1008 4 0.451964 0.302088 0.715404
1006 2 0.455632 0.280412 0.727315
1007 4 0.459299 0.258735 0.739225
941 4 0.149833 0.40792 0.72053
1067 4 0.165018 0.397813 0.713249
940 2 0.137414 0.399388 0.740484
1066 2 0.175006 0.392063 0.69106
1068 4 0.184995 0.386313 0.668871
1019 4 0.391723 0.406396 0.741513
1230 4 0.377642 0.410043 0.728811
884 4 0.0561635 0.473067 0.738778
1176 4 0.126055 0.484317 0.703411
1174 2 0.143668 0.483515 0.685682
1175 4 0.161281 0.482712 0.667954
1188 4 0.179169 0.489057 0.672606
1139 4 0.317488 0.486003 0.68327
1138 2 0.321717 0.465901 0.697524
1140 4 0.325947 0.445798 0.711779
1989 4 0.322058 0.444179 0.730865
1229 4 0.33284 0.43088 0.721112
1100 4 0.392751 0.422439 0.72917
1228 2 0.355241 0.420462 0.724961
1099 2 0.408651 0.441516 0.726264
1101 4 0.424552 0.460592 0.723357
3330 4 0.443597 0.459023 0.719204
3328 2 0.46616 0.451712 0.711289
1251 4 0.436456 0.462311 0.737754
3329 4 0.488723 0.444401 0.703374
1249 2 0.440186 0.484609 0.748433
834 4 0.0330354 0.0647897 0.815238
785 4 0.0216921 0.0787451 0.823178
832 2 0.0472014 0.0827473 0.805137
2048 4 0.131285 0.00237801 0.760464
2390 4 0.114697 0.0120257 0.76669
1113 4 0.364921 0.071589 0.780743
1111 2 0.371434 0.0806419 0.803121
2321 4 0.451728 0.014503 0.804757
2322 4 0.456216 0.0564347 0.777882
2320 2 0.453972 0.0354689 0.791319
846 4 0.445708 0.0725576 0.773249
980 4 0.433148 0.00996428 0.809665
979 2 0.421721 0.0154353 0.831222
862 2 0.0520253 0.123026 0.768318
863 4 0.0621328 0.11976 0.790953
833 4 0.0613673 0.100705 0.795036
1125 4 0.0682001 0.112873 0.80801
1123 2 0.0749965 0.133756 0.819963
1124 4 0.0817928 0.154639 0.831916
911 4 0.142482 0.110859 0.81388
910 2 0.133771 0.129523 0.828056
1257 4 0.231363 0.106972 0.757529
1255 2 0.223898 0.120587 0.777127
921 4 0.20082 0.139309 0.807651
919 2 0.185475 0.153879 0.820971
840 4 0.218657 0.137295 0.815312
1256 4 0.216433 0.134202 0.796725
838 2 0.240056 0.145083 0.825639
1112 4 0.377948 0.0896948 0.8255
844 2 0.449355 0.0846455 0.751668
3270 4 0.491657 0.144138 0.7612
1146 4 0.488947 0.160749 0.771097
1073 4 0.0717143 0.170815 0.828586
34 3 0.116736 0.190394 0.812675
1277 4 0.1526 0.226711 0.806102
1276 2 0.159335 0.207257 0.820294
1129 2 0.147921 0.208798 0.766677
1131 4 0.148006 0.22346 0.786931
822 4 0.15697 0.240088 0.793239
35 3 0.0906136 0.172181 0.832764
920 4 0.170129 0.168448 0.834291
918 4 0.30867 0.21825 0.760182
1298 4 0.312545 0.199324 0.764649
1297 2 0.321666 0.190341 0.786127
1299 4 0.330787 0.181359 0.807604
1086 4 0.342242 0.180761 0.824512
50 3 0.400044 0.19646 0.791875
1044 4 0.468438 0.245265 0.750831
46 1 0.422817 0.196513 0.791919
49 3 0.430698 0.217396 0.785579
1043 4 0.442559 0.207937 0.77175
48 3 0.430705 0.191157 0.813074
47 3 0.43046 0.180818 0.776939
1263 4 0.433825 0.193212 0.761854
1145 4 0.448205 0.189584 0.774148
1144 2 0.468576 0.175166 0.772623
1042 2 0.455499 0.226601 0.76129
1022 4 0.45069 0.194798 0.816551
3187 2 0.00898088 0.276333 0.7634
3189 4 0.0264671 0.293331 0.768923
820 2 0.167795 0.260608 0.783915
821 4 0.178621 0.281128 0.77459
1236 4 0.228945 0.30939 0.767512
1234 2 0.228259 0.314038 0.79207
1098 4 0.242672 0.322475 0.828217
1235 4 0.227573 0.318686 0.816628
1166 4 0.469452 0.264666 0.754682
1165 2 0.488709 0.268258 0.770221
3275 4 0.0177495 0.363097 0.790876
894 4 0.0659536 0.338508 0.752098
3276 4 0.0596977 0.349176 0.767482