ITEM: TIMESTEP
60000
ITEM: NUMBER OF ATOMS
4590
ITEM: BOX BOUNDS pp pp pp
-9.9985700000000008e+00 9.9985700000000008e+00
-9.9985700000000008e+00 9.9985700000000008e+00
-9.9985700000000008e+00 9.9985700000000008e+00
ITEM: ATOMS id type xs ys zs
463 2 0.0601441 0.0391752 0.0113891
465 4 0.0369298 0.0480061 0.00850975
702 4 0.0753125 0.0843359 0.0808741
1667 4 0.0751993 0.0109558 0.0594757
464 4 0.0833584 0.0303443 0.0142685
532 2 0.200731 0.0488957 0.0174691
533 4 0.215917 0.0501188 0.997643
534 4 0.185545 0.0476727 0.0372951
486 4 0.334945 0.996295 0.0711057
490 2 0.274408 0.0412999 0.030125
491 4 0.275813 0.0407415 0.0550829
492 4 0.273003 0.0418582 0.00516722
295 2 0.389232 0.071134 0.0723011
484 2 0.355763 0.995835 0.0849473
745 2 0.443505 0.0583803 0.0525145
746 4 0.430442 0.0379865 0.0587288
747 4 0.456569 0.0787741 0.0463002
2975 4 0.481708 0.0671865 0.0147415
2974 2 0.498813 0.0553997 0.000824803
589 2 0.0300476 0.109582 0.0623495
590 4 0.00527307 0.107649 0.0651179
591 4 0.0548221 0.111515 0.0595811
700 2 0.0970111 0.0967575 0.0806412
421 2 0.117627 0.132279 0.0102663
422 4 0.13224 0.132073 0.989978
423 4 0.103015 0.132485 0.0305546
476 4 0.117155 0.167249 0.076422
701 4 0.11871 0.109179 0.0804084
565 2 0.22248 0.123998 0.0622477
566 4 0.224756 0.102946 0.0489496
567 4 0.220204 0.145049 0.0755457
358 2 0.281769 0.135749 0.032108
359 4 0.272401 0.114079 0.0238748
296 4 0.390038 0.0841235 0.0509517
556 2 0.352882 0.127523 0.0491729
557 4 0.338305 0.129014 0.028913
558 4 0.367459 0.126033 0.0694328
553 2 0.0655865 0.212617 0.0111208
555 4 0.0617987 0.195892 0.0293178
360 4 0.291138 0.15742 0.0403412
571 2 0.319641 0.230453 0.0490724
573 4 0.295153 0.230688 0.0541181
572 4 0.344129 0.230218 0.0440267
664 2 0.34491 0.198328 0.00617099
665 4 0.367986 0.195791 0.0154565
771 4 0.441799 0.193009 0.055466
770 4 0.488467 0.177479 0.0644999
769 2 0.465133 0.185244 0.059983
1014 4 0.491721 0.215721 0.00936267
292 2 0.108768 0.291226 0.0111065
293 4 0.124731 0.273751 0.00304465
294 4 0.0928054 0.308701 0.0191683
914 4 0.178166 0.259503 0.010177
913 2 0.164618 0.262256 0.989343
483 4 0.229261 0.299043 0.0357604
505 2 0.200397 0.288873 0.0617646
507 4 0.185317 0.304384 0.0492268
506 4 0.215477 0.273363 0.0743023
355 2 0.266409 0.269142 0.000236418
357 4 0.273844 0.274386 0.023526
481 2 0.251927 0.308993 0.0392864
482 4 0.274593 0.318942 0.0428124
740 4 0.364704 0.335226 0.0869656
280 2 0.466242 0.312677 0.0153642
281 4 0.474357 0.314232 0.0389633
322 2 0.41608 0.266037 0.0689506
323 4 0.437076 0.2789 0.0646084
1070 4 0.419855 0.282981 0.0162164
328 2 0.015844 0.401337 0.00966939
330 4 0.0253931 0.392361 0.030963
288 4 0.1599 0.392815 0.00048514
454 2 0.139277 0.356058 0.0776755
455 4 0.159068 0.368635 0.0689971
456 4 0.119486 0.343481 0.0863538
286 2 0.173297 0.372165 0.00487252
252 4 0.250365 0.382571 0.0542011
287 4 0.186695 0.351515 0.0092599
250 2 0.271415 0.396054 0.0547614
251 4 0.292465 0.409536 0.0553216
670 2 0.437104 0.344865 0.0771811
671 4 0.461101 0.350649 0.0732012
550 2 0.0654121 0.434462 0.0370293
551 4 0.046055 0.450181 0.0351818
315 4 0.00536793 0.417788 0.0710389
552 4 0.0847691 0.418744 0.0388768
241 2 0.17189 0.492921 0.0739371
244 2 0.236668 0.454665 0.0331127
245 4 0.212216 0.457198 0.0285433
246 4 0.261119 0.452133 0.0376821
271 2 0.293785 0.486313 0.00294848
272 4 0.305511 0.470452 0.0183146
524 4 0.353053 0.50641 0.0820208
564 4 0.420358 0.478375 0.0459884
226 2 0.499457 0.464377 0.045481
227 4 0.489832 0.443001 0.0367858
562 2 0.440483 0.472699 0.0322796
563 4 0.460608 0.467022 0.0185709
16 1 0.0658585 0.0720823 0.14758
19 3 0.0618066 0.0623617 0.126904
2576 4 0.00845797 0.0323279 0.13248
450 4 0.14893 0.0488409 0.123791
20 3 0.0861374 0.0824456 0.147454
448 2 0.16794 0.0598514 0.135732
1475 4 0.215799 0.993983 0.108653
652 2 0.316876 0.0415401 0.153288
654 4 0.294276 0.0522258 0.152812
653 4 0.339476 0.0308543 0.153763
297 4 0.388425 0.0581444 0.0936506
485 4 0.376581 0.995376 0.0987889
758 4 0.434806 0.0645684 0.162094
1760 4 0.49101 0.00524618 0.132155
17 3 0.0494371 0.0876174 0.15184
381 4 0.0567125 0.159017 0.167133
235 2 0.158358 0.135583 0.141223
237 4 0.141161 0.153076 0.146066
449 4 0.186949 0.0708619 0.147673
236 4 0.175555 0.118091 0.136379
580 2 0.276935 0.103364 0.147415
581 4 0.276564 0.120225 0.165875
582 4 0.277306 0.0865024 0.128956
254 4 0.397471 0.161491 0.0960404
379 2 0.0340143 0.166039 0.159345
380 4 0.0113161 0.173062 0.151557
656 4 0.0251347 0.248702 0.105815
475 2 0.130238 0.166828 0.0977252
477 4 0.143322 0.166407 0.119028
736 2 0.175859 0.201012 0.127223
737 4 0.170808 0.196459 0.103162
738 4 0.180911 0.205565 0.151284
352 2 0.251627 0.223183 0.115829
354 4 0.236891 0.20349 0.111333
353 4 0.266362 0.242876 0.120325
460 2 0.33032 0.181865 0.115034
461 4 0.318937 0.19782 0.130561
253 2 0.382083 0.180628 0.0913336
255 4 0.366695 0.199766 0.0866269
628 2 0.40078 0.166663 0.140727
462 4 0.341703 0.165911 0.0995074
630 4 0.384473 0.178624 0.15543
629 4 0.417087 0.154701 0.126024
517 2 0.475752 0.23035 0.109587
518 4 0.473722 0.205447 0.10863
655 2 0.00908027 0.26732 0.101253
703 2 0.0130646 0.304761 0.166845
704 4 0.00726149 0.280459 0.165872
648 4 0.06908 0.330145 0.172615
657 4 0.993026 0.285937 0.0966909
337 2 0.102296 0.252951 0.126284
338 4 0.117569 0.251414 0.146021
339 4 0.0870228 0.254489 0.106547
754 2 0.280333 0.305246 0.125165
755 4 0.290968 0.288187 0.140033
756 4 0.269699 0.322306 0.110297
741 4 0.322421 0.317678 0.10709
622 2 0.382455 0.270177 0.145973
624 4 0.358739 0.271656 0.138193
739 2 0.343563 0.326452 0.097028
324 4 0.395083 0.253173 0.0732927
623 4 0.406172 0.268697 0.153753
519 4 0.477781 0.255253 0.110544
619 2 0.00511116 0.346586 0.10677
620 4 0.0187487 0.365847 0.115029
537 4 0.156599 0.359919 0.138883
535 2 0.169193 0.346454 0.155772
625 2 0.202485 0.404536 0.103999
626 4 0.214228 0.383134 0.098594
607 2 0.321685 0.413077 0.10198
609 4 0.303286 0.402238 0.114987
610 2 0.271635 0.36484 0.162126
612 4 0.280581 0.379399 0.143872
387 4 0.35136 0.372537 0.138946
15 3 0.402457 0.363661 0.130248
385 2 0.361253 0.377848 0.116606
386 4 0.371146 0.383159 0.0942655
495 4 0.420324 0.407197 0.117958
11 1 0.400703 0.358814 0.152431
595 2 0.493682 0.392815 0.167339
597 4 0.470999 0.382325 0.166556
672 4 0.413106 0.33908 0.0811611
2652 4 0.502641 0.362332 0.133776
313 2 0.00325789 0.437139 0.0867316
314 4 0.00114784 0.456491 0.102424
243 4 0.190615 0.476992 0.0784958
627 4 0.190742 0.425939 0.109404
639 4 0.231164 0.479606 0.129955
1440 4 0.199586 0.511595 0.1009
637 2 0.249651 0.476068 0.146414
608 4 0.340083 0.423916 0.0889724
523 2 0.343647 0.494621 0.101964
525 4 0.334242 0.482831 0.121907
658 2 0.400464 0.474697 0.155169
493 2 0.437443 0.424085 0.124807
494 4 0.454562 0.440973 0.131656
659 4 0.408989 0.49083 0.138073
18 3 0.0653489 0.0558832 0.164185
2480 4 0.997054 0.0377736 0.179359
673 2 0.116065 0.0323811 0.219651
674 4 0.137816 0.0308783 0.207412
675 4 0.0943135 0.0338839 0.231891
1505 4 0.235882 0.0192232 0.168218
689 4 0.209769 0.00877834 0.227391
692 4 0.252428 0.0847668 0.204616
1504 2 0.254449 0.0093467 0.181742
21 1 0.372601 0.0504405 0.23664
23 3 0.380017 0.0296458 0.243781
24 3 0.357168 0.0478906 0.219502
25 3 0.390231 0.062922 0.229427
759 4 0.397505 0.0665336 0.195342
757 2 0.416155 0.065551 0.178718
742 2 0.44737 0.0565822 0.248066
743 4 0.465237 0.073159 0.242484
511 2 0.024829 0.152297 0.231015
512 4 0.00574157 0.167592 0.22583
513 4 0.0439164 0.137001 0.236201
577 2 0.0996486 0.112442 0.21739
578 4 0.108359 0.129343 0.201153
579 4 0.0909383 0.0955411 0.233628
546 4 0.17025 0.145923 0.25484
723 4 0.189698 0.0983389 0.224047
691 2 0.234092 0.0884106 0.188012
693 4 0.215755 0.0920545 0.171408
721 2 0.188119 0.1089 0.246655
30 3 0.298598 0.15455 0.224797
26 1 0.31098 0.136141 0.229939
27 3 0.332047 0.138438 0.220992
28 3 0.301057 0.117172 0.220989
310 2 0.409658 0.126633 0.188722
312 4 0.400121 0.120401 0.166465
311 4 0.419195 0.132865 0.210979
363 4 0.0761821 0.235683 0.179454
394 2 0.00993417 0.231972 0.204727
396 4 0.989614 0.221328 0.214677
391 2 0.097059 0.190169 0.237198
392 4 0.0987145 0.183529 0.213149
283 2 0.254603 0.196842 0.172195
284 4 0.239734 0.209612 0.156671
285 4 0.269472 0.184071 0.18772
765 4 0.380894 0.240709 0.228957
764 4 0.36701 0.22154 0.184906
763 2 0.373952 0.231125 0.206932
520 2 0.461795 0.210064 0.237944
521 4 0.439773 0.211467 0.226185
395 4 0.0302539 0.242616 0.194778
361 2 0.0831363 0.257404 0.189702
362 4 0.0900905 0.279125 0.19995
370 2 0.152827 0.245469 0.242078
372 4 0.141654 0.267022 0.236093
279 4 0.220968 0.260684 0.192701
343 2 0.225569 0.287644 0.23685
344 4 0.228894 0.262869 0.236274
345 4 0.222245 0.312419 0.237427
277 2 0.245812 0.263149 0.191327
278 4 0.270655 0.265614 0.189953
307 2 0.305298 0.287875 0.232814
309 4 0.299836 0.301639 0.212667
526 2 0.481616 0.258552 0.18135
528 4 0.4601 0.245849 0.182283
262 2 0.03069 0.412811 0.214761
264 4 0.0154844 0.405033 0.233022
646 2 0.0822139 0.349679 0.181048
298 2 0.139266 0.339375 0.230044
299 4 0.153727 0.350409 0.212888
647 4 0.0953478 0.369212 0.189482
536 4 0.181788 0.33299 0.172662
303 4 0.306677 0.41086 0.183206
611 4 0.26269 0.35028 0.180379
12 3 0.405129 0.336476 0.155678
13 3 0.379191 0.363355 0.15985
14 3 0.416056 0.371337 0.164509
643 2 0.445944 0.369192 0.21009
644 4 0.432893 0.383921 0.225514
645 4 0.458994 0.354463 0.194665
110 3 0.500355 0.412995 0.211597
263 4 0.0458956 0.420589 0.1965
2618 4 0.00730584 0.469814 0.198742
415 2 0.140473 0.427345 0.169729
416 4 0.128535 0.44829 0.163098
417 4 0.152411 0.406399 0.176359
291 4 0.186502 0.448848 0.181307
289 2 0.207751 0.436362 0.18552
290 4 0.229001 0.423876 0.189733
768 4 0.241994 0.461172 0.211553
301 2 0.330875 0.410648 0.1895
767 4 0.285913 0.485025 0.209863
766 2 0.263953 0.473098 0.210708
638 4 0.268138 0.472529 0.162873
660 4 0.391939 0.458565 0.172264
302 4 0.355072 0.410435 0.195793
229 2 0.391211 0.485866 0.245198
231 4 0.386243 0.461427 0.247001
232 2 0.0110355 0.0513542 0.278196
233 4 0.0227285 0.0394889 0.296842
2756 4 0.00639861 0.0890679 0.322467
1464 4 0.146805 0.0139753 0.271813
1403 4 0.0960102 0.0235881 0.272346
1402 2 0.0757609 0.0108532 0.279624
688 2 0.214953 0.00454822 0.251482
690 4 0.220137 0.000318099 0.275574
1699 2 0.257923 0.00131909 0.325778
1700 4 0.264097 0.999734 0.301601
22 3 0.362434 0.0611653 0.254269
744 4 0.429503 0.0400054 0.253648
478 2 0.47876 0.0315611 0.310028
480 4 0.471903 0.0111408 0.297332
351 4 0.436372 0.0665975 0.300381
479 4 0.485618 0.0519814 0.322723
529 2 0.0391119 0.138348 0.290148
530 4 0.0604179 0.150769 0.294268
531 4 0.0178059 0.125928 0.286029
730 2 0.153881 0.0798957 0.311697
731 4 0.163097 0.0849972 0.289021
732 4 0.144665 0.0747942 0.334374
722 4 0.186539 0.119461 0.269264
249 4 0.218022 0.112937 0.28751
247 2 0.24087 0.103083 0.285052
403 2 0.217603 0.151268 0.302054
404 4 0.213947 0.126538 0.301613
29 3 0.312804 0.134008 0.252972
248 4 0.263718 0.0932293 0.282593
631 2 0.353442 0.0962566 0.295759
632 4 0.340921 0.0893611 0.275244
633 4 0.365962 0.103152 0.316274
331 2 0.456129 0.141928 0.260406
332 4 0.479688 0.142293 0.268773
333 4 0.43257 0.141563 0.252039
349 2 0.450746 0.0831043 0.312468
350 4 0.46512 0.0996112 0.324555
444 4 0.0434586 0.240044 0.284007
393 4 0.0954036 0.19681 0.261247
544 2 0.176687 0.170072 0.254077
371 4 0.163999 0.223916 0.248063
545 4 0.183124 0.194221 0.253315
405 4 0.221259 0.175999 0.302496
706 2 0.329357 0.200093 0.309718
708 4 0.330339 0.18539 0.329917
707 4 0.328376 0.214796 0.289518
420 4 0.423093 0.236847 0.278951
418 2 0.431162 0.236956 0.302617
419 4 0.43923 0.237064 0.326283
522 4 0.483816 0.208661 0.249704
762 4 0.461895 0.190347 0.272498
761 4 0.475275 0.200495 0.319601
760 2 0.468585 0.195421 0.296049
748 2 0.0822139 0.290706 0.256317
750 4 0.0665861 0.271231 0.25502
442 2 0.0212225 0.251477 0.283975
390 4 0.0880232 0.251792 0.319596
749 4 0.0978416 0.310181 0.257615
300 4 0.124806 0.328341 0.2472
388 2 0.111356 0.260404 0.317032
389 4 0.134689 0.269017 0.314468
677 4 0.128618 0.332112 0.318188
400 2 0.202152 0.261307 0.318169
402 4 0.225288 0.262728 0.308793
509 4 0.243961 0.327416 0.335893
308 4 0.31076 0.274111 0.252961
496 2 0.302286 0.287939 0.287654
497 4 0.322043 0.273399 0.292493
498 4 0.282529 0.302479 0.282815
541 2 0.417861 0.306395 0.299091
543 4 0.396493 0.315425 0.28976
615 4 0.35142 0.296443 0.323277
613 2 0.359126 0.320135 0.325402
542 4 0.439228 0.297365 0.308422
364 2 0.014993 0.349771 0.281152
365 4 0.00586 0.369259 0.29388
366 4 0.0241261 0.330283 0.268425
601 2 0.0736665 0.394251 0.294483
602 4 0.0616043 0.415802 0.290579
603 4 0.0857287 0.3727 0.298386
735 4 0.194964 0.349387 0.296393
733 2 0.177876 0.352426 0.278394
734 4 0.160789 0.355466 0.260395
435 4 0.285074 0.402064 0.332226
729 4 0.3496 0.352742 0.251187
447 4 0.417626 0.387088 0.262682
727 2 0.349504 0.37343 0.26523
728 4 0.349408 0.394117 0.279273
118 3 0.504033 0.410493 0.323753
445 2 0.437891 0.385909 0.27728
446 4 0.458156 0.384731 0.291879
777 4 0.0585177 0.486017 0.319635
775 2 0.0809392 0.475088 0.317898
776 4 0.103361 0.464159 0.316162
414 4 0.148183 0.459826 0.283825
412 2 0.160687 0.462207 0.305346
413 4 0.173191 0.464588 0.326868
436 2 0.297071 0.442905 0.291024
437 4 0.313372 0.434163 0.274199
438 4 0.280771 0.451646 0.307848
712 2 0.431718 0.480088 0.293084
713 4 0.41205 0.465432 0.29794
714 4 0.451386 0.494743 0.288227
316 2 0.0317141 0.0637992 0.356161
317 4 0.00930271 0.0543038 0.361884
318 4 0.0541256 0.0732946 0.350439
427 2 0.0943325 0.0258544 0.371345
428 4 0.0866582 0.0360933 0.392827
429 4 0.102007 0.0156155 0.349864
1701 4 0.25175 0.00290369 0.349956
606 4 0.162535 0.0550271 0.382124
441 4 0.233203 0.0318428 0.390923
604 2 0.178393 0.0438642 0.366341
605 4 0.194251 0.0327013 0.350558
439 2 0.255158 0.0266841 0.401718
440 4 0.277113 0.0215254 0.412514
698 4 0.377254 0.0341098 0.34113
697 2 0.359491 0.0227611 0.354578
699 4 0.341728 0.0114125 0.368027
256 2 0.429302 0.0573681 0.379129
258 4 0.429406 0.0363193 0.392624
257 4 0.429198 0.078417 0.365634
397 2 0.0823903 0.115424 0.338569
398 4 0.061107 0.125545 0.346922
399 4 0.103674 0.105303 0.330217
598 2 0.174986 0.157295 0.355517
685 2 0.183347 0.17048 0.421353
474 4 0.232923 0.16432 0.360408
599 4 0.193431 0.151837 0.371492
682 2 0.295839 0.0891779 0.375397
683 4 0.319001 0.0896069 0.36599
684 4 0.272676 0.0887489 0.384804
466 2 0.343324 0.147643 0.40686
467 4 0.358387 0.153452 0.387767
451 2 0.469366 0.143587 0.357391
452 4 0.493103 0.136894 0.353276
453 4 0.445629 0.150279 0.361507
514 2 0.444396 0.141639 0.405815
515 4 0.445484 0.145592 0.38115
2654 4 0.0217269 0.195945 0.371827
600 4 0.156541 0.162753 0.339543
274 2 0.228458 0.246286 0.403058
686 4 0.204593 0.17906 0.431362
472 2 0.252289 0.170867 0.346011
473 4 0.271655 0.177414 0.331615
488 4 0.293279 0.238041 0.393061
715 2 0.359044 0.23316 0.368507
716 4 0.345535 0.213035 0.362369
267 4 0.350128 0.244777 0.409664
617 4 0.0740171 0.312849 0.345155
616 2 0.0723767 0.324498 0.367218
618 4 0.0707363 0.336146 0.389282
676 2 0.133712 0.331812 0.342665
678 4 0.138805 0.331512 0.367143
275 4 0.2099 0.259843 0.39321
401 4 0.179017 0.259886 0.327545
508 2 0.220886 0.332027 0.344345
510 4 0.19781 0.336637 0.352797
375 4 0.184691 0.287864 0.411756
376 2 0.289291 0.304096 0.362974
377 4 0.30423 0.291918 0.347046
378 4 0.274352 0.316274 0.378902
717 4 0.372554 0.253284 0.374645
268 2 0.478434 0.281215 0.381276
269 4 0.473396 0.256788 0.379511
270 4 0.483473 0.305642 0.383041
2927 4 0.0187464 0.367785 0.372776
548 4 0.0623081 0.413384 0.3371
408 4 0.0731551 0.391128 0.414199
406 2 0.0825545 0.400652 0.393078
407 4 0.0919538 0.410176 0.371956
502 2 0.212756 0.405475 0.392243
504 4 0.198005 0.390641 0.378548
433 2 0.309959 0.399664 0.331804
614 4 0.366832 0.343826 0.327526
336 4 0.368777 0.381072 0.403187
434 4 0.334843 0.397263 0.331382
561 4 0.429891 0.34295 0.403912
559 2 0.449838 0.352405 0.415655
751 2 0.434015 0.404158 0.386454
752 4 0.446553 0.383291 0.38075
753 4 0.421477 0.425025 0.392158
2925 4 0.492518 0.345441 0.397129
547 2 0.042337 0.427786 0.341452
549 4 0.022366 0.442187 0.345805
680 4 0.0583655 0.428271 0.411732
499 2 0.107263 0.462654 0.36938
500 4 0.127652 0.451252 0.378295
501 4 0.0868746 0.474056 0.360466
503 4 0.227507 0.420308 0.405938
570 4 0.192722 0.447149 0.420897
1 1 0.332924 0.472312 0.369439
5 3 0.312335 0.466027 0.362005
4 3 0.339175 0.459157 0.387502
668 4 0.315814 0.423921 0.415883
2 3 0.332166 0.494298 0.376161
3 3 0.348487 0.470224 0.352356
594 4 0.392089 0.485271 0.362759
592 2 0.415746 0.4794 0.357188
586 2 0.419157 0.452511 0.411775
588 4 0.394559 0.448486 0.409792
119 3 0.487721 0.444285 0.329788
593 4 0.439404 0.473529 0.351617
2237 4 0.0655896 0.995217 0.479533
718 2 0.0495862 0.070562 0.465735
719 4 0.0368633 0.0718956 0.487218
720 4 0.0623091 0.0692284 0.444252
367 2 0.109343 0.0652402 0.4594
369 4 0.119364 0.0485616 0.475103
342 4 0.165781 0.0424703 0.454538
340 2 0.175847 0.0418928 0.477418
341 4 0.185914 0.0413153 0.500299
430 2 0.320928 0.0771071 0.492943
432 4 0.305089 0.0579941 0.489945
724 2 0.329077 0.0747231 0.437038
726 4 0.312126 0.0804774 0.419582
424 2 0.391532 0.019761 0.443119
425 4 0.375744 0.000378782 0.442632
426 4 0.40732 0.0391432 0.443606
725 4 0.346029 0.0689689 0.454494
457 2 0.00527642 0.161117 0.435189
458 4 0.0185407 0.14123 0.442522
469 2 0.00241825 0.176196 0.489407
687 4 0.162101 0.1619 0.411344
368 4 0.099322 0.0819189 0.443697
1152 4 0.165436 0.0992702 0.477343
321 4 0.226647 0.119776 0.419363
411 4 0.260691 0.178115 0.482904
319 2 0.250407 0.126916 0.42247
320 4 0.274168 0.134056 0.425576
468 4 0.328261 0.141835 0.425953
431 4 0.336767 0.09622 0.495942
574 2 0.37329 0.173022 0.457785
576 4 0.36644 0.15226 0.469918
642 4 0.446884 0.0989094 0.48494
516 4 0.443309 0.137686 0.43048
2880 4 0.488928 0.107013 0.457054
470 4 0.00802394 0.199995 0.484175
260 4 0.0855071 0.207617 0.437191
261 4 0.107967 0.196267 0.480405
259 2 0.096737 0.201942 0.458798
694 2 0.10055 0.253589 0.48888
696 4 0.104867 0.254773 0.46428
276 4 0.247016 0.232729 0.412906
409 2 0.276801 0.196859 0.479123
410 4 0.292912 0.215603 0.475341
487 2 0.298047 0.226559 0.414755
489 4 0.302816 0.215078 0.436449
575 4 0.380139 0.193783 0.445652
872 4 0.419708 0.241915 0.493615
306 4 0.49096 0.229409 0.431183
304 2 0.486089 0.205241 0.42702
305 4 0.481218 0.181072 0.422857
346 2 0.0552634 0.286155 0.421612
348 4 0.0350265 0.273942 0.413458
347 4 0.0755003 0.298369 0.429766
6 1 0.155634 0.322648 0.481461
9 3 0.142873 0.303272 0.481057
326 4 0.109345 0.337088 0.418163
325 2 0.0987506 0.329863 0.439628
373 2 0.203187 0.299413 0.423992
374 4 0.221682 0.310963 0.436228
10 3 0.17204 0.321477 0.46571
651 4 0.249374 0.264322 0.474841
649 2 0.259166 0.287328 0.474915
650 4 0.268959 0.310334 0.474988
265 2 0.355684 0.264945 0.42336
266 4 0.361241 0.285112 0.437056
583 2 0.468699 0.312725 0.462176
584 4 0.483099 0.301223 0.445279
585 4 0.454299 0.324227 0.479073
327 4 0.0881565 0.322637 0.461093
7 3 0.142017 0.340617 0.476897
773 4 0.232454 0.409671 0.49039
709 2 0.190136 0.383764 0.447965
710 4 0.191973 0.407356 0.439888
711 4 0.188298 0.360173 0.456041
772 2 0.250996 0.3983 0.502722
334 2 0.354937 0.378553 0.423858
238 2 0.365188 0.383122 0.47865
239 4 0.380921 0.380256 0.497871
240 4 0.349455 0.385989 0.45943
335 4 0.341096 0.376034 0.444529
560 4 0.469784 0.36186 0.427398
926 4 0.451086 0.398887 0.498988
679 2 0.0492195 0.42404 0.434615
681 4 0.0400734 0.419809 0.457497
384 4 0.0791527 0.421146 0.493978
538 2 0.0795593 0.495052 0.497691
382 2 0.0889892 0.427023 0.471755
383 4 0.0988257 0.432901 0.449532
569 4 0.146363 0.46403 0.429055
568 2 0.169543 0.45559 0.424976
634 2 0.24366 0.452005 0.458786
635 4 0.232287 0.44993 0.480956
636 4 0.255034 0.454079 0.436616
667 2 0.298394 0.427476 0.433464
669 4 0.280974 0.431032 0.451045
587 4 0.443755 0.456535 0.413758
663 4 0.435195 0.498638 0.504427
1126 2 0.0502565 0.0579058 0.530155
1127 4 0.0560628 0.0493011 0.507408
1128 4 0.0444502 0.0665105 0.552902
1057 2 0.14303 0.0513429 0.579386
1058 4 0.152983 0.0449575 0.557355
1181 4 0.21634 0.0679437 0.516056
2430 4 0.198141 0.0159693 0.536877
961 2 0.289661 0.0252515 0.514877
963 4 0.296194 0.0490231 0.519049
962 4 0.283127 0.00147987 0.510705
841 2 0.368496 0.0712872 0.547148
842 4 0.39021 0.0786739 0.537192
1216 2 0.404496 0.0139915 0.580658
843 4 0.346782 0.0639004 0.557103
1217 4 0.413032 0.031073 0.564517
3008 4 0.499124 0.0576522 0.561192
937 2 0.0880705 0.133208 0.514549
939 4 0.0883512 0.112965 0.529224
1154 4 0.147445 0.135207 0.579312
938 4 0.0877898 0.15345 0.499875
1150 2 0.179502 0.113097 0.492709
1151 4 0.193569 0.126925 0.508075
1180 2 0.231169 0.0871504 0.510024
1182 4 0.245998 0.106357 0.503992
899 4 0.35862 0.1524 0.551216
898 2 0.34707 0.171019 0.53917
641 4 0.465991 0.134762 0.514099
3159 4 0.492976 0.147319 0.548082
640 2 0.456438 0.116836 0.499519
877 2 0.0739638 0.230157 0.56724
878 4 0.0655302 0.244021 0.548218
1200 4 0.00462031 0.201902 0.576197
1033 2 0.123458 0.193664 0.508216
1035 4 0.105374 0.207805 0.498306
1034 4 0.141542 0.179524 0.518125
695 4 0.0962326 0.252404 0.513479
856 2 0.216405 0.215509 0.526077
857 4 0.215792 0.216061 0.501087
858 4 0.217019 0.214956 0.551067
1221 4 0.186372 0.190131 0.565753
900 4 0.335519 0.189638 0.527124
871 2 0.409912 0.239262 0.516466
873 4 0.400116 0.23661 0.539318
905 4 0.502753 0.254234 0.577797
983 4 0.0204318 0.318267 0.56032
1258 2 0.153085 0.261877 0.574123
8 3 0.165031 0.325507 0.502483
1260 4 0.129773 0.25765 0.582114
1259 4 0.176397 0.266104 0.566133
790 2 0.302331 0.25891 0.568682
791 4 0.320813 0.249603 0.582716
792 4 0.283849 0.268218 0.554647
813 4 0.317213 0.315404 0.526567
811 2 0.339978 0.305077 0.527142
812 4 0.362742 0.294751 0.527717
1009 2 0.509241 0.321209 0.542382
1010 4 0.496725 0.30034 0.548126
982 2 0.0098145 0.337475 0.5723
984 4 0.999197 0.356683 0.584279
1137 4 0.0935693 0.372025 0.586261
897 4 0.172758 0.402005 0.572266
802 2 0.280974 0.349897 0.540498
803 4 0.305286 0.349803 0.546339
804 4 0.256663 0.349991 0.534657
1190 4 0.26518 0.395079 0.576386
774 4 0.269538 0.386929 0.515053
928 2 0.35431 0.373538 0.579942
929 4 0.35778 0.378742 0.555733
925 2 0.459387 0.402353 0.522318
927 4 0.467688 0.40582 0.545647
934 2 0.00729772 0.450162 0.52818
935 4 0.0156159 0.426913 0.524244
1938 4 0.0457589 0.497728 0.561994
539 4 0.0626584 0.476626 0.497848
1159 2 0.168919 0.43992 0.565297
1161 4 0.169549 0.450113 0.542474
1171 2 0.233347 0.466171 0.556987
1173 4 0.211661 0.455072 0.551357
882 4 0.318435 0.464897 0.524662
1172 4 0.255033 0.47727 0.562617
880 2 0.342899 0.462438 0.529203
881 4 0.367364 0.459978 0.533744
1000 2 0.418079 0.449905 0.578533
1001 4 0.439711 0.446008 0.566614
662 4 0.472046 0.465024 0.508005
661 2 0.453621 0.481831 0.506216
1183 2 0.994356 0.0350627 0.659496
1185 4 0.0150366 0.0486742 0.656002
1059 4 0.133078 0.0577283 0.601416
825 4 0.160365 0.0172182 0.64858
945 4 0.100518 0.0422737 0.679009
823 2 0.171352 0.0229038 0.626852
824 4 0.18234 0.0285893 0.605123
2196 4 0.345624 0.998881 0.594006
1031 4 0.258601 0.0598326 0.583476
949 2 0.26512 0.0236606 0.638103
951 4 0.265908 0.0289873 0.613686
1218 4 0.39596 0.99691 0.596799
809 4 0.469208 0.0738379 0.630354
1082 4 0.0366094 0.0959612 0.644896
1076 4 0.0222057 0.104067 0.656872
1081 2 0.0501813 0.107506 0.627354
1083 4 0.0637533 0.119051 0.609813
1153 2 0.143536 0.130855 0.603622
1155 4 0.139626 0.126504 0.627932
1284 4 0.181458 0.0907648 0.641024
1283 4 0.224038 0.0956768 0.615264
1282 2 0.202748 0.0932208 0.628144
1032 4 0.255057 0.108797 0.592996
1030 2 0.256829 0.0843148 0.588236
1005 4 0.323238 0.0870418 0.654517
808 2 0.46043 0.096604 0.624892
810 4 0.451652 0.11937 0.619431
852 4 0.0355136 0.174787 0.662853
1272 4 0.110437 0.20316 0.591713
879 4 0.0823974 0.216293 0.586263
1270 2 0.124796 0.194826 0.610408
1271 4 0.139156 0.186492 0.629104
1210 2 0.230014 0.197732 0.654543
1212 4 0.224522 0.212885 0.635427
1219 2 0.193094 0.182688 0.588657
1220 4 0.199815 0.175244 0.611561
886 2 0.299243 0.182177 0.669338
888 4 0.284 0.200988 0.663094
1026 4 0.415138 0.209349 0.66296
1192 2 0.353088 0.205577 0.670787
1193 4 0.368827 0.190006 0.659167
1194 4 0.33735 0.221147 0.682408
904 2 0.487357 0.239587 0.590973
906 4 0.471961 0.224941 0.60415
1024 2 0.436207 0.197109 0.65735
1025 4 0.457276 0.18487 0.65174
1243 2 0.024132 0.278559 0.641303
1244 4 0.0256626 0.273776 0.616809
1245 4 0.0226014 0.283342 0.665797
796 2 0.22611 0.250128 0.618318
797 4 0.202942 0.244576 0.61073
798 4 0.249279 0.25568 0.625906
946 2 0.180641 0.290118 0.636455
947 4 0.176224 0.266116 0.64189
948 4 0.185058 0.314121 0.63102
1239 4 0.294472 0.316157 0.621797
952 2 0.44793 0.297224 0.608784
953 4 0.460191 0.297613 0.630572
954 4 0.435669 0.296835 0.586997
1040 4 0.0481284 0.390961 0.628504
1039 2 0.0485933 0.406319 0.608779
1135 2 0.109055 0.352705 0.589741
1136 4 0.12454 0.333385 0.593221
896 4 0.163931 0.375899 0.613995
1189 2 0.244629 0.382859 0.5837
1191 4 0.224077 0.370639 0.591013
895 2 0.168345 0.388952 0.593131
1237 2 0.316602 0.327452 0.618991
930 4 0.35084 0.368335 0.604151
1204 2 0.405457 0.412357 0.654839
1238 4 0.338732 0.338748 0.616186
1041 4 0.0490582 0.421676 0.589053
992 4 0.138095 0.436534 0.659008
991 2 0.118583 0.425047 0.6484
993 4 0.0990715 0.41356 0.637793
1160 4 0.168288 0.429727 0.58812
1188 4 0.212514 0.491573 0.636237
889 2 0.327982 0.436173 0.59674
891 4 0.304585 0.438813 0.605156
1002 4 0.396447 0.453801 0.590453
890 4 0.351378 0.433534 0.588325
1206 4 0.39969 0.436345 0.65078
1951 2 0.353187 0.497669 0.603076
1952 4 0.37357 0.483458 0.600291
1267 2 0.443454 0.478296 0.666009
1268 4 0.465562 0.484463 0.656089
2990 4 0.0108103 0.0806569 0.722094
944 4 0.0634074 0.0756472 0.682123
943 2 0.081963 0.0589604 0.680566
1147 2 0.206939 0.073806 0.719425
1149 4 0.196771 0.0511535 0.722368
950 4 0.264333 0.018334 0.66252
1092 4 0.327863 0.0189833 0.668275
44 3 0.416045 0.089123 0.681659
1090 2 0.348413 0.00984984 0.679205
1163 4 0.480429 0.0280058 0.669697
42 3 0.437913 0.0777254 0.710024
41 1 0.434575 0.0763491 0.687306
43 3 0.430937 0.0541568 0.681589
45 3 0.453022 0.0842274 0.676522
1162 2 0.483915 0.0408873 0.690841
1164 4 0.4874 0.0537689 0.711986
862 2 0.0530443 0.137611 0.721498
864 4 0.0325424 0.146163 0.710021
1075 2 0.0262756 0.122231 0.673566
863 4 0.0735463 0.12906 0.732975
1077 4 0.0303455 0.140395 0.69026
907 2 0.158427 0.148356 0.687112
909 4 0.140412 0.143118 0.670584
1148 4 0.217107 0.0964584 0.716483
1225 2 0.208994 0.133872 0.717654
1226 4 0.224036 0.114157 0.720848
1227 4 0.193952 0.153588 0.71446
908 4 0.176442 0.153594 0.703641
829 2 0.319943 0.150022 0.710409
830 4 0.326136 0.152953 0.686362
831 4 0.313749 0.147091 0.734455
1003 2 0.333112 0.0860334 0.677466
1004 4 0.342986 0.085025 0.700415
1141 2 0.390082 0.145677 0.712393
1142 4 0.397063 0.154948 0.690246
1143 4 0.383101 0.136405 0.73454
3426 4 0.498361 0.120162 0.678332
851 4 0.0703139 0.179536 0.69845
850 2 0.0529137 0.177161 0.680652
1105 2 0.107727 0.20772 0.723839
1106 4 0.117828 0.230571 0.724849
1107 4 0.0976269 0.18487 0.722828
1208 4 0.101749 0.236794 0.680941
1211 4 0.235505 0.182579 0.673658
1277 4 0.233129 0.249906 0.744813
887 4 0.314485 0.163366 0.675582
976 2 0.289448 0.207394 0.730715
977 4 0.300725 0.228573 0.737746
978 4 0.27817 0.186214 0.723684
1261 2 0.442869 0.235513 0.724308
1263 4 0.424815 0.234633 0.707032
1262 4 0.460924 0.236393 0.741583
1209 4 0.0827273 0.282744 0.675699
1177 2 0.0174438 0.258944 0.695125
1178 4 0.035255 0.268675 0.709728
1207 2 0.0922383 0.259769 0.67832
820 2 0.152673 0.299812 0.736635
821 4 0.144611 0.293563 0.713807
1276 2 0.209539 0.257544 0.748028
1063 2 0.248859 0.282699 0.707327
1065 4 0.231657 0.285498 0.689398
1278 4 0.185949 0.265182 0.751243
1064 4 0.26606 0.2799 0.725256
807 4 0.326077 0.295236 0.67547
805 2 0.33432 0.318827 0.676275
1006 2 0.360511 0.29929 0.740817
1007 4 0.381917 0.287798 0.746723
1008 4 0.339105 0.310783 0.734911
3123 4 0.489328 0.277833 0.677259
892 2 0.061626 0.357023 0.695062
893 4 0.0778075 0.338957 0.701142
894 4 0.0454444 0.375089 0.688982
940 2 0.149249 0.392201 0.745753
942 4 0.126318 0.388911 0.736346
1067 4 0.164784 0.413692 0.701475
1066 2 0.185725 0.406731 0.689719
1068 4 0.206666 0.39977 0.677964
1027 2 0.240966 0.400138 0.672383
1029 4 0.262877 0.38899 0.676946
1205 4 0.411224 0.388368 0.658897
806 4 0.342564 0.342419 0.67708
1100 4 0.463761 0.411575 0.700419
1281 4 0.0208271 0.454435 0.696734
1280 4 0.0691526 0.466879 0.699974
1279 2 0.0449898 0.460657 0.698354
885 4 0.0696113 0.447559 0.748696
1028 4 0.219056 0.411286 0.66782
1174 2 0.224153 0.489759 0.688817
1175 4 0.24711 0.480167 0.686338
1176 4 0.201196 0.499351 0.691297
1138 2 0.30632 0.431075 0.720496
1139 4 0.292779 0.425121 0.740654
1140 4 0.319862 0.437029 0.700338
1989 4 0.313693 0.499001 0.708949
1228 2 0.360254 0.461871 0.711846
1229 4 0.351045 0.468198 0.734214
1230 4 0.369463 0.455543 0.689478
1099 2 0.451257 0.43318 0.701841
1101 4 0.438753 0.454786 0.703262
1269 4 0.421347 0.47213 0.675929
1296 4 0.0122021 0.0357665 0.823869
1295 4 0.0307385 0.0431369 0.778012
1294 2 0.0214703 0.0394517 0.800941
2049 4 0.0951135 0.992289 0.774694
1201 2 0.105985 0.0578629 0.783797
1202 4 0.130908 0.0571595 0.781927
1203 4 0.0810611 0.0585664 0.785668
2048 4 0.143487 0.994645 0.787152
2047 2 0.1193 0.993467 0.780923
875 4 0.212567 0.0485711 0.821347
1255 2 0.271948 0.0451803 0.802828
1256 4 0.283776 0.0541794 0.822935
1257 4 0.260121 0.0361812 0.78272
1113 4 0.393135 0.0306949 0.775767
975 4 0.348132 0.0269011 0.822372
844 2 0.493717 0.0679498 0.781361
846 4 0.501858 0.0464085 0.771621
1111 2 0.413052 0.0446841 0.781494
1112 4 0.432969 0.0586734 0.787221
832 2 0.0123611 0.141591 0.786348
833 4 0.0369396 0.146105 0.787185
34 3 0.119864 0.140724 0.815656
1287 4 0.0907956 0.11311 0.826274
31 1 0.126532 0.161542 0.807875
839 4 0.263807 0.112251 0.788725
838 2 0.261858 0.130196 0.806027
840 4 0.259909 0.148141 0.82333