ITEM: TIMESTEP
2220000
ITEM: NUMBER OF ATOMS
4590
ITEM: BOX BOUNDS pp pp pp
-9.9985700000000008e+00 9.9985700000000008e+00
-9.9985700000000008e+00 9.9985700000000008e+00
-9.9985700000000008e+00 9.9985700000000008e+00
ITEM: ATOMS id type xs ys zs
465 4 0.0725421 0.069403 0.0182148
463 2 0.0663582 0.0873269 0.0345142
701 4 0.0863262 0.0549016 0.0250422
700 2 0.108363 0.0530448 0.036709
702 4 0.1304 0.0511879 0.0483758
566 4 0.148584 0.0537379 0.0395009
565 2 0.16113 0.0734498 0.0306003
2264 4 0.282981 0.992852 0.038704
2263 2 0.285631 0.00354944 0.0162603
491 4 0.287951 0.000979459 0.0561053
746 4 0.486573 0.0606985 0.0101793
2469 4 0.488624 0.0456588 0.0232318
464 4 0.0601742 0.105251 0.0508135
590 4 0.046469 0.0978971 0.0629005
589 2 0.0220738 0.102232 0.0662563
567 4 0.173676 0.0931617 0.0216997
865 2 0.359818 0.169763 0.00888234
558 4 0.329466 0.135574 0.0688341
556 2 0.348424 0.119675 0.0724443
557 4 0.367382 0.103777 0.0760545
770 4 0.47757 0.167517 0.0878091
769 2 0.480746 0.149296 0.070984
771 4 0.483921 0.131075 0.0541589
554 4 0.0378524 0.210101 0.0110316
553 2 0.059151 0.216464 0.0224796
555 4 0.0804496 0.222827 0.0339277
835 2 0.11322 0.230428 0.0148451
836 4 0.0919324 0.236535 0.0264523
837 4 0.134508 0.224322 0.00323787
738 4 0.166874 0.183029 0.0786089
573 4 0.328078 0.259289 0.063141
666 4 0.336994 0.243553 0.0538026
461 4 0.331235 0.242154 0.0719319
664 2 0.336621 0.220636 0.0438096
665 4 0.336249 0.197719 0.0338166
867 4 0.344552 0.185876 0.0203937
1070 4 0.439451 0.217428 0.0488601
1069 2 0.432998 0.241392 0.0518995
2808 4 0.0206322 0.314475 0.00837603
294 4 0.106444 0.315277 0.0353993
292 2 0.129721 0.316341 0.0444685
293 4 0.152997 0.317404 0.0535376
507 4 0.170045 0.325136 0.0449942
356 4 0.288158 0.299053 0.0224907
572 4 0.297105 0.288915 0.0373779
571 2 0.312591 0.274102 0.0502594
355 2 0.293329 0.323509 0.0230918
1071 4 0.426544 0.265357 0.054939
324 4 0.423023 0.278878 0.0683222
322 2 0.425049 0.303775 0.069423
323 4 0.427074 0.328672 0.0705237
647 4 0.0265587 0.374489 0.0677345
646 2 0.0495115 0.365006 0.0706368
620 4 0.00672206 0.373595 0.0615776
648 4 0.0724642 0.355523 0.0735392
456 4 0.0889394 0.353599 0.0848468
505 2 0.188597 0.337299 0.033459
506 4 0.207149 0.349463 0.0219239
483 4 0.212219 0.357461 0.00368688
481 2 0.228022 0.373277 0.0148807
482 4 0.243825 0.389094 0.0260745
609 4 0.245354 0.40498 0.037403
357 4 0.298499 0.347965 0.0236928
902 4 0.291446 0.363583 0.0121801
607 2 0.266835 0.417629 0.0354716
957 4 0.373565 0.410859 0.0145333
672 4 0.422883 0.34637 0.0790667
670 2 0.442845 0.360891 0.0830435
280 2 0.471168 0.412884 0.0738713
1787 4 0.0930043 0.487453 0.0681865
1786 2 0.106934 0.484369 0.047653
1788 4 0.120864 0.481285 0.0271196
246 4 0.239393 0.484431 0.0432125
244 2 0.220377 0.475022 0.0564428
245 4 0.201361 0.465613 0.0696731
627 4 0.192459 0.447299 0.0751603
625 2 0.186708 0.423677 0.081002
272 4 0.246878 0.478188 0.0265252
1778 4 0.255664 0.492421 0.0376175
608 4 0.288317 0.430278 0.0335402
252 4 0.285758 0.437958 0.0157653
250 2 0.309612 0.445223 0.0139276
251 4 0.333466 0.452489 0.01209
271 2 0.250677 0.469768 0.00329036
525 4 0.38232 0.48523 0.0764317
523 2 0.380051 0.469863 0.0568387
524 4 0.377783 0.454496 0.0372457
282 4 0.467785 0.435751 0.0643388
226 2 0.482254 0.473218 0.057978
227 4 0.477065 0.449252 0.053086
228 4 0.487442 0.497183 0.0628701
16 1 0.0528321 0.0602393 0.142217
20 3 0.0461215 0.0591333 0.120482
1806 4 0.0508361 0.0231002 0.145145
18 3 0.0466177 0.0408907 0.153416
19 3 0.0433345 0.0787431 0.152503
17 3 0.0757351 0.0622444 0.142982
1804 2 0.053223 0.00857535 0.124933
673 2 0.111838 0.0523623 0.16189
675 4 0.0873264 0.0521995 0.156959
450 4 0.153986 0.0563116 0.158353
448 2 0.166777 0.073242 0.145126
674 4 0.13635 0.0525251 0.166821
653 4 0.276014 0.0536898 0.153555
484 2 0.358805 0.00952161 0.125197
295 2 0.352015 0.0702289 0.103114
297 4 0.344301 0.051546 0.117832
485 4 0.346812 0.0308817 0.120187
296 4 0.35973 0.0889117 0.0883959
380 4 0.0244236 0.0877402 0.151779
379 2 0.0247414 0.0970641 0.174977
579 4 0.0933392 0.123765 0.0918763
237 4 0.149329 0.148885 0.124998
578 4 0.134112 0.141575 0.114703
577 2 0.113726 0.13267 0.10329
476 4 0.131716 0.15393 0.130085
737 4 0.138423 0.160644 0.113108
235 2 0.161977 0.12832 0.131502
475 2 0.118862 0.171108 0.142925
736 2 0.152648 0.171836 0.0958584
692 4 0.240828 0.0889541 0.148143
236 4 0.174625 0.107755 0.138007
693 4 0.192769 0.101177 0.141692
449 4 0.179568 0.0901724 0.1319
691 2 0.216799 0.0950653 0.144917
582 4 0.246901 0.0880076 0.16763
477 4 0.106009 0.188287 0.155764
283 2 0.324033 0.201406 0.144015
354 4 0.319397 0.239662 0.137497
285 4 0.321744 0.178826 0.154507
284 4 0.326321 0.223986 0.133523
462 4 0.321109 0.234451 0.120293
460 2 0.326172 0.238303 0.0961126
255 4 0.335145 0.238754 0.129986
253 2 0.356093 0.245699 0.141738
254 4 0.377042 0.252644 0.15349
628 2 0.400569 0.216507 0.163889
1014 4 0.493811 0.177124 0.0815817
629 4 0.411995 0.194578 0.167597
1013 4 0.481961 0.221865 0.100517
1012 2 0.487886 0.199494 0.0910493
312 4 0.430568 0.18811 0.163326
749 4 0.0645635 0.294412 0.169646
455 4 0.12992 0.328793 0.0991968
611 4 0.221247 0.334407 0.0951343
610 2 0.245255 0.336089 0.101915
352 2 0.30196 0.254908 0.146915
353 4 0.284523 0.270154 0.156332
754 2 0.281619 0.304739 0.131397
755 4 0.283988 0.288061 0.149875
278 4 0.267307 0.277623 0.153742
756 4 0.279249 0.321416 0.11292
612 4 0.269263 0.337771 0.108696
528 4 0.49052 0.315782 0.156472
454 2 0.10943 0.341196 0.0920218
536 4 0.181807 0.380129 0.0953762
626 4 0.180957 0.400055 0.0868438
537 4 0.218808 0.349419 0.0816442
535 2 0.200307 0.364774 0.0885102
387 4 0.334703 0.405068 0.157253
741 4 0.399194 0.37109 0.102828
739 2 0.395017 0.376071 0.126971
740 4 0.390839 0.381053 0.151115
15 3 0.382181 0.369555 0.164326
385 2 0.358134 0.397274 0.161177
386 4 0.381566 0.38948 0.165101
495 4 0.40034 0.394447 0.162222
493 2 0.410528 0.417168 0.159955
281 4 0.474551 0.390018 0.0834038
671 4 0.462808 0.375412 0.0870202
2651 4 0.482745 0.372543 0.0850878
552 4 0.0855183 0.477136 0.0832524
551 4 0.0521467 0.439962 0.0855345
1465 2 0.00814521 0.476424 0.0823948
1466 4 0.0275827 0.491736 0.0859847
1791 4 0.037344 0.497182 0.102248
550 2 0.0688325 0.458549 0.0843934
242 4 0.0911967 0.495639 0.0859686
241 2 0.0958604 0.503458 0.109256
1438 2 0.138674 0.496096 0.150888
1439 4 0.161344 0.490555 0.159862
637 2 0.201776 0.485285 0.150987
638 4 0.223261 0.478579 0.140096
767 4 0.242469 0.477623 0.133875
639 4 0.180291 0.49199 0.161878
303 4 0.303052 0.457576 0.128589
766 2 0.266156 0.473926 0.126773
768 4 0.289843 0.470229 0.119672
301 2 0.317859 0.438872 0.136079
494 4 0.420715 0.439889 0.157689
302 4 0.332667 0.420169 0.14357
660 4 0.434281 0.45531 0.155166
2480 4 0.00360124 0.996574 0.236535
1505 4 0.151055 0.0397108 0.168148
1504 2 0.166074 0.0260306 0.182724
1506 4 0.181092 0.0123505 0.197301
689 4 0.185657 0.000885202 0.212798
652 2 0.28287 0.0314842 0.162779
654 4 0.289726 0.00927852 0.172003
1661 4 0.309714 0.00605073 0.169884
22 3 0.413115 0.00344635 0.209703
21 1 0.407522 0.0205602 0.22402
23 3 0.391601 0.033992 0.213797
24 3 0.398871 0.0114824 0.243544
757 2 0.451145 0.0560122 0.212724
25 3 0.426146 0.0327934 0.228725
759 4 0.44476 0.0376303 0.228425
350 4 0.439703 0.023172 0.239147
758 4 0.457529 0.0743941 0.197023
512 4 0.0262417 0.11789 0.214967
381 4 0.0250592 0.106388 0.198175
511 2 0.0465065 0.132394 0.212927
513 4 0.0667713 0.146898 0.210887
339 4 0.0786969 0.163268 0.214039
580 2 0.268169 0.0989273 0.174953
581 4 0.289437 0.109847 0.182275
30 3 0.292045 0.125392 0.197081
26 1 0.292244 0.147972 0.194122
27 3 0.286292 0.158248 0.213824
28 3 0.277022 0.153934 0.177656
29 3 0.313538 0.154986 0.188139
311 4 0.472197 0.162344 0.173517
521 4 0.470074 0.146046 0.236776
520 2 0.492955 0.149863 0.227444
363 4 0.115727 0.195156 0.171443
337 2 0.0904439 0.17249 0.193985
338 4 0.102191 0.181713 0.173932
362 4 0.152045 0.218219 0.196934
361 2 0.133886 0.206687 0.184189
372 4 0.141217 0.235377 0.202617
723 4 0.207972 0.225212 0.249009
630 4 0.389144 0.238437 0.160182
310 2 0.451383 0.175227 0.168421
750 4 0.0582943 0.285096 0.218376
395 4 0.0526834 0.303692 0.224261
748 2 0.0614289 0.289754 0.194011
394 2 0.0372901 0.29887 0.243366
370 2 0.129627 0.256565 0.209092
300 4 0.142787 0.331322 0.186454
298 2 0.133613 0.342601 0.206795
371 4 0.118038 0.277754 0.215567
401 4 0.231244 0.281524 0.248016
279 4 0.227943 0.260157 0.179161
277 2 0.247625 0.26889 0.166452
307 2 0.324283 0.308829 0.212535
308 4 0.313379 0.318669 0.23277
497 4 0.293404 0.324041 0.236717
309 4 0.335186 0.298989 0.192299
765 4 0.390467 0.257038 0.167168
763 2 0.402782 0.272943 0.182019
764 4 0.415098 0.288848 0.19687
623 4 0.429425 0.301075 0.188101
622 2 0.452436 0.304828 0.179069
624 4 0.475447 0.308582 0.170037
262 2 0.0378722 0.387415 0.230839
263 4 0.0420457 0.364414 0.239711
602 4 0.0621621 0.362916 0.237687
264 4 0.0336987 0.410416 0.221967
2618 4 0.0171091 0.423007 0.223149
299 4 0.124438 0.353881 0.227137
601 2 0.0851122 0.353494 0.234573
603 4 0.108062 0.344072 0.231458
734 4 0.122362 0.346835 0.245026
291 4 0.171148 0.399646 0.200751
290 4 0.180409 0.351651 0.190194
289 2 0.175779 0.375649 0.195473
416 4 0.17805 0.418134 0.198861
14 3 0.413802 0.384551 0.178216
11 1 0.399303 0.366452 0.179019
13 3 0.390934 0.363954 0.200516
12 3 0.410857 0.347408 0.173277
2860 2 0.469845 0.417258 0.248672
2617 2 0.997944 0.430045 0.237584
415 2 0.187261 0.440557 0.204988
1430 4 0.207349 0.478255 0.220004
417 4 0.196471 0.46298 0.211116
713 4 0.352868 0.49736 0.205712
658 2 0.443979 0.473737 0.169007
2861 4 0.452327 0.432579 0.239531
659 4 0.453678 0.492164 0.182848
595 2 0.483868 0.492129 0.204016
596 4 0.468232 0.503909 0.188462
232 2 0.00623375 0.0476405 0.296976
1799 4 0.0262149 0.0108054 0.305632
233 4 0.0223813 0.0287654 0.299833
1402 2 0.0608234 0.0245898 0.29683
1403 4 0.0372582 0.0181923 0.291451
1404 4 0.0843886 0.0309874 0.302209
1798 2 0.0153531 0.997203 0.323581
633 4 0.380686 0.0474503 0.303371
631 2 0.382842 0.0646001 0.285304
257 4 0.381447 0.0594764 0.318357
698 4 0.370118 0.0447311 0.319757
697 2 0.36219 0.0236844 0.330682
632 4 0.384999 0.08175 0.267237
349 2 0.458662 0.0170091 0.254239
744 4 0.493122 0.0101487 0.282565
742 2 0.497059 0.0236613 0.303231
351 4 0.47762 0.0108463 0.269332
479 4 0.497056 0.0462344 0.34019
399 4 0.047553 0.107693 0.323855
397 2 0.0612875 0.123348 0.310019
390 4 0.0686398 0.155555 0.287997
398 4 0.075022 0.139004 0.296182
393 4 0.0809956 0.143526 0.278269
545 4 0.146734 0.144651 0.256395
392 4 0.127411 0.143801 0.259661
391 2 0.104203 0.143663 0.268965
544 2 0.165032 0.16032 0.263093
444 4 0.0321533 0.2469 0.300001
388 2 0.0663567 0.180177 0.291703
389 4 0.0640735 0.204799 0.29541
404 4 0.21202 0.17284 0.330095
721 2 0.204578 0.201685 0.256763
403 2 0.204055 0.177152 0.30679
405 4 0.196089 0.181463 0.283484
546 4 0.183329 0.17599 0.269791
722 4 0.201183 0.178158 0.264517
378 4 0.287315 0.232695 0.323617
420 4 0.396974 0.216564 0.269823
717 4 0.39323 0.231825 0.282872
761 4 0.487121 0.23961 0.249839
331 2 0.464664 0.188305 0.307392
332 4 0.459443 0.194681 0.283785
418 2 0.420098 0.207254 0.271764
419 4 0.443223 0.197944 0.273705
760 2 0.471163 0.226298 0.263742
762 4 0.455205 0.212986 0.277646
442 2 0.0221243 0.267011 0.28904
396 4 0.0218968 0.294049 0.26247
443 4 0.0120953 0.287122 0.278079
365 4 0.00424779 0.300601 0.266484
677 4 0.13918 0.309614 0.299614
676 2 0.160081 0.320655 0.307762
733 2 0.126011 0.331232 0.26422
735 4 0.12966 0.315629 0.283414
510 4 0.228559 0.285476 0.316064
508 2 0.209522 0.301154 0.320185
400 2 0.23372 0.283512 0.272817
402 4 0.236195 0.2855 0.297618
509 4 0.190485 0.316831 0.324306
345 4 0.245031 0.276031 0.312593
678 4 0.180983 0.331697 0.31591
343 2 0.266202 0.264197 0.318669
344 4 0.287374 0.252364 0.324745
715 2 0.395944 0.256126 0.288097
716 4 0.398657 0.280426 0.293321
542 4 0.378551 0.286131 0.294817
541 2 0.380451 0.309587 0.303265
543 4 0.382351 0.333044 0.311714
548 4 0.0102829 0.357027 0.311096
547 2 0.0244277 0.37761 0.312299
549 4 0.0385725 0.398193 0.313503
777 4 0.0535229 0.411141 0.317023
407 4 0.00432684 0.339059 0.314628
435 4 0.189102 0.334632 0.333247
496 2 0.283625 0.339226 0.254008
498 4 0.273846 0.354411 0.271298
728 4 0.385798 0.402249 0.276129
615 4 0.398907 0.344027 0.310538
727 2 0.373725 0.409962 0.296621
613 2 0.409824 0.351877 0.331617
2862 4 0.487363 0.401938 0.257813
2537 4 0.500748 0.390084 0.268215
2538 4 0.473755 0.363274 0.300669
2536 2 0.487252 0.376679 0.284442
753 4 0.487597 0.350128 0.305424
751 2 0.491568 0.334618 0.324629
775 2 0.0749097 0.423561 0.3207
776 4 0.0962965 0.435982 0.324377
1545 4 0.188634 0.480496 0.324873
1436 4 0.199549 0.489589 0.309958
729 4 0.361652 0.417676 0.317113
436 2 0.377324 0.455224 0.330405
437 4 0.363883 0.436647 0.320433
1771 2 0.0173841 0.997303 0.379245
1772 4 0.0241558 0.012326 0.39805
2238 4 0.028431 0.0308747 0.392262
2236 2 0.0269217 0.0461045 0.412035
367 2 0.0803914 0.041474 0.396432
369 4 0.0766108 0.0553562 0.375983
368 4 0.0841719 0.0275917 0.416881
732 4 0.0808048 0.0686001 0.363352
604 2 0.13746 0.0859518 0.385807
605 4 0.162054 0.090455 0.385552
606 4 0.112867 0.0814485 0.386062
1701 4 0.179325 0.0840382 0.386731
256 2 0.387771 0.070051 0.340114
258 4 0.394095 0.0806256 0.361871
426 4 0.391961 0.0696807 0.377871
424 2 0.389859 0.0544024 0.397551
425 4 0.387757 0.0391241 0.417232
478 2 0.49183 0.070594 0.342306
317 4 0.0322122 0.10801 0.336305
731 4 0.0488525 0.100038 0.341184
730 2 0.0648286 0.084319 0.352268
318 4 0.00758579 0.133052 0.371902
316 2 0.019899 0.120531 0.354103
247 2 0.211225 0.147508 0.354119
248 4 0.210993 0.122857 0.358301
1699 2 0.189282 0.0968792 0.367727
1700 4 0.199239 0.10972 0.348723
600 4 0.244399 0.160346 0.413885
683 4 0.246136 0.142842 0.422605
682 2 0.263213 0.125145 0.418089
319 2 0.315524 0.112447 0.394105
320 4 0.297129 0.100762 0.406363
708 4 0.327317 0.140125 0.371182
706 2 0.323158 0.163992 0.364999
684 4 0.280289 0.107449 0.413573
321 4 0.33392 0.124131 0.381847
480 4 0.486604 0.0949535 0.344423
516 4 0.440423 0.132748 0.356779
575 4 0.45354 0.119915 0.367074
574 2 0.455557 0.116227 0.391721
514 2 0.446597 0.155074 0.347368
2654 4 0.0161641 0.216688 0.368303
459 4 0.0245889 0.199443 0.367499
457 2 0.0174955 0.175857 0.371807
249 4 0.211457 0.172158 0.349937
376 2 0.304134 0.217789 0.334575
377 4 0.320953 0.202882 0.345534
707 4 0.318999 0.18786 0.358816
474 4 0.266562 0.233446 0.403457
488 4 0.276336 0.226014 0.417565
468 4 0.377666 0.225542 0.415087
333 4 0.469885 0.181929 0.330998
515 4 0.452772 0.177401 0.337956
453 4 0.465919 0.187007 0.349125
451 2 0.483118 0.20157 0.359955
406 2 0.0155348 0.328522 0.33434
347 4 0.0732925 0.333409 0.380034
408 4 0.0267427 0.317985 0.354051
618 4 0.0797703 0.340131 0.361927
275 4 0.13118 0.308947 0.352322
617 4 0.116556 0.313845 0.34056
616 2 0.0981631 0.326988 0.351244
274 2 0.150669 0.310645 0.367894
473 4 0.236525 0.270401 0.388201
374 4 0.233051 0.28389 0.374163
276 4 0.170158 0.312344 0.383466
373 2 0.210481 0.294477 0.376077
375 4 0.18791 0.305064 0.37799
472 2 0.251544 0.251924 0.395829
346 2 0.0608869 0.341427 0.400208
433 2 0.187943 0.358771 0.339658
434 4 0.186784 0.382911 0.34607
502 2 0.29773 0.389023 0.407642
503 4 0.314388 0.40764 0.406601
336 4 0.327598 0.413218 0.392635
504 4 0.281071 0.370406 0.408684
238 2 0.398505 0.412709 0.415476
334 2 0.350791 0.404226 0.3901
335 4 0.373984 0.395234 0.387565
240 4 0.390205 0.397747 0.397243
614 4 0.420742 0.359728 0.352697
752 4 0.495538 0.319108 0.343835
1543 2 0.166562 0.486429 0.335013
414 4 0.0925142 0.456007 0.327653
412 2 0.109114 0.47341 0.334493
413 4 0.125714 0.490812 0.341332
1544 4 0.14449 0.492362 0.345152
668 4 0.319405 0.474321 0.415091
669 4 0.316965 0.426484 0.400728
667 2 0.318185 0.450402 0.407909
438 4 0.390764 0.473801 0.340377
594 4 0.441907 0.470827 0.358345
592 2 0.435597 0.489539 0.373682
1781 4 0.0660883 0.994429 0.459418
1127 4 0.0111864 0.0641137 0.444867
2237 4 0.0254124 0.0613342 0.431807
720 4 0.0279286 0.074297 0.446291
1780 2 0.0807749 0.0101091 0.446627
1782 4 0.0954614 0.0257888 0.433835
961 2 0.259376 0.00566385 0.497472
724 2 0.300948 0.0403846 0.473785
726 4 0.304558 0.0637316 0.465595
725 4 0.297339 0.0170376 0.481974
1182 4 0.297064 0.0823424 0.469068
963 4 0.282076 0.0156831 0.494389
432 4 0.300392 0.00987228 0.499787
1579 2 0.371958 0.0161811 0.435861
1580 4 0.379389 0.0400511 0.43543
1581 4 0.364528 0.992311 0.436292
642 4 0.447879 0.0604292 0.453098
2878 2 0.454772 0.0423488 0.487967
2880 4 0.453933 0.0438023 0.46302
718 2 0.0438672 0.0924425 0.452763
719 4 0.0598057 0.110588 0.459235
1033 2 0.118181 0.137216 0.475057
1035 4 0.123915 0.141008 0.451017
261 4 0.140318 0.143998 0.439396
1034 4 0.112447 0.133424 0.499097
259 2 0.153806 0.164747 0.44297
1180 2 0.293354 0.086698 0.444727
1181 4 0.289645 0.0910537 0.420387
640 2 0.45732 0.0798742 0.440531
576 4 0.457573 0.11254 0.416369
641 4 0.466761 0.0993193 0.427963
306 4 0.462526 0.117263 0.434273
304 2 0.463845 0.137093 0.449445
3158 4 0.469459 0.154421 0.484366
305 4 0.465164 0.156923 0.464618
694 2 0.147607 0.207342 0.478198
695 4 0.155231 0.197956 0.456313
260 4 0.167293 0.185495 0.446544
696 4 0.139983 0.216728 0.500084
598 2 0.239179 0.181887 0.425457
599 4 0.23396 0.203429 0.437028
687 4 0.222592 0.206831 0.45253
686 4 0.173809 0.198624 0.459846
685 2 0.198201 0.202727 0.456188
411 4 0.240998 0.214588 0.451986
409 2 0.25088 0.214178 0.47495
489 4 0.311113 0.206474 0.447722
487 2 0.293725 0.216244 0.432644
410 4 0.260762 0.213767 0.497914
267 4 0.363759 0.241198 0.414382
466 2 0.374993 0.206164 0.430659
467 4 0.37232 0.186785 0.446232
585 4 0.495518 0.244844 0.507249
813 4 0.239052 0.300658 0.488035
265 2 0.362088 0.266145 0.414517
266 4 0.360417 0.291093 0.414652
583 2 0.501922 0.264778 0.493581
2456 4 0.516909 0.302366 0.486149
348 4 0.0484813 0.349445 0.420382
2812 2 0.0199213 0.33633 0.436104
2813 4 0.0447301 0.334806 0.433388
326 4 0.0573412 0.348548 0.437801
325 2 0.066006 0.367393 0.451764
10 3 0.124251 0.371697 0.46228
327 4 0.0746707 0.386238 0.465727
7 3 0.09416 0.390839 0.473279
6 1 0.115833 0.385219 0.478556
711 4 0.144384 0.414629 0.487763
8 3 0.128465 0.404626 0.480043
9 3 0.115953 0.374109 0.498926
709 2 0.168674 0.409722 0.484434
774 4 0.211413 0.404578 0.486656
635 4 0.207877 0.400444 0.468142
710 4 0.192964 0.404815 0.481106
634 2 0.215269 0.415825 0.449868
679 2 0.0776453 0.466692 0.486799
680 4 0.0643927 0.479404 0.46983
1383 4 0.0535428 0.486516 0.454568
384 4 0.142015 0.430389 0.499779
569 4 0.147984 0.449377 0.498222
568 2 0.158036 0.471936 0.494321
636 4 0.22266 0.431207 0.431593
570 4 0.168089 0.494495 0.490421
4 3 0.32346 0.480078 0.434441
5 3 0.290109 0.49746 0.436241
586 2 0.410686 0.421881 0.47591
239 4 0.406804 0.42767 0.433709
588 4 0.410649 0.431629 0.452885
587 4 0.410724 0.412134 0.498935
3077 4 0.00778712 0.029635 0.538367
1184 4 0.000253347 0.0135822 0.547962
1150 2 0.145842 0.0670323 0.552215
342 4 0.135517 0.0361233 0.524983
1152 4 0.136162 0.0537097 0.533401
340 2 0.151312 0.0167648 0.524008
1059 4 0.169854 0.0687941 0.576893
2430 4 0.185105 0.00459568 0.529572
841 2 0.344537 0.0124536 0.560037
842 4 0.353649 0.0231869 0.5807
2879 4 0.455612 0.0408953 0.512915
879 4 0.0610325 0.161247 0.53465
877 2 0.0393958 0.151117 0.542026
1199 4 0.0125395 0.146506 0.567861
878 4 0.017759 0.140986 0.549402
938 4 0.0786928 0.156573 0.541143
1272 4 0.0692933 0.172044 0.54839
1151 4 0.155522 0.0803548 0.57103
937 2 0.0981577 0.14545 0.530071
939 4 0.117623 0.134328 0.518999
1155 4 0.165969 0.0868002 0.585699
3159 4 0.499681 0.14397 0.522812
3157 2 0.48457 0.149195 0.503589
1270 2 0.0776255 0.185458 0.567776
1258 2 0.117857 0.230084 0.526059
1260 4 0.124758 0.211114 0.511305
1259 4 0.110956 0.249055 0.540813
898 2 0.28046 0.210152 0.529916
899 4 0.297439 0.219285 0.545838
900 4 0.263482 0.20102 0.513993
791 4 0.315011 0.214978 0.552878
857 4 0.299415 0.206962 0.560825
856 2 0.295567 0.188618 0.577374
790 2 0.332343 0.232318 0.557789
792 4 0.349675 0.249658 0.5627
811 2 0.250362 0.309478 0.508516
812 4 0.261673 0.318299 0.528997
650 4 0.261924 0.327398 0.545428
649 2 0.264845 0.313284 0.565859
871 2 0.370938 0.278644 0.546819
872 4 0.359792 0.265991 0.565282
1238 4 0.356109 0.254632 0.580835
873 4 0.382084 0.291296 0.528357
906 4 0.46073 0.294816 0.59302
992 4 0.0483277 0.391911 0.573188
1136 4 0.10599 0.404158 0.5477
1135 2 0.124929 0.391647 0.558188
897 4 0.162318 0.385933 0.570267
1137 4 0.143867 0.379136 0.568675
773 4 0.248339 0.394729 0.518909
1189 2 0.234903 0.413664 0.554277
772 2 0.229876 0.399653 0.502783
895 2 0.182224 0.400887 0.572572
896 4 0.20213 0.415841 0.574876
804 4 0.253586 0.336566 0.529846
803 4 0.252735 0.386199 0.535895
1190 4 0.249633 0.405047 0.536002
802 2 0.253161 0.361382 0.532871
930 4 0.265337 0.398051 0.526524
928 2 0.285459 0.410689 0.534306
929 4 0.305582 0.423326 0.542088
926 4 0.413506 0.414133 0.517727
925 2 0.424503 0.392575 0.524011
927 4 0.435499 0.371016 0.530295
681 4 0.0908979 0.453979 0.503768
382 2 0.1186 0.434556 0.507495
383 4 0.0951847 0.438724 0.515211
1191 4 0.220174 0.422282 0.572551
1160 4 0.190171 0.487946 0.580146
1172 4 0.208891 0.428688 0.587158
891 4 0.291149 0.493885 0.524993
1952 4 0.310294 0.488658 0.526286
881 4 0.304187 0.499368 0.511408
1951 2 0.313038 0.464677 0.532809
1953 4 0.315782 0.440696 0.539332
1000 2 0.405068 0.498257 0.544679
663 4 0.41347 0.429934 0.506112
1001 4 0.424233 0.482858 0.549233
661 2 0.418774 0.448179 0.522366
662 4 0.424078 0.466424 0.538619
1911 4 0.432716 0.467133 0.556315
1332 4 0.440512 0.477054 0.541102
1330 2 0.460609 0.490647 0.535056
1909 2 0.427545 0.453789 0.576818
1058 4 0.185599 0.0352596 0.610483
1057 2 0.177726 0.0520268 0.593688
2375 4 0.182468 0.0215092 0.59626
950 4 0.249568 0.020164 0.653384
949 2 0.266986 0.0376924 0.649569
951 4 0.284404 0.0552207 0.645755
1031 4 0.291766 0.0738172 0.643572
1216 2 0.390799 0.0126438 0.590155
1218 4 0.414469 0.00554008 0.586349
1217 4 0.36713 0.0197476 0.593961
43 3 0.451591 0.0373553 0.656098
808 2 0.490871 0.0796161 0.646841
41 1 0.441745 0.0567944 0.664071
42 3 0.42935 0.0663148 0.647192
1083 4 0.0122319 0.141824 0.645064
3179 4 0.000982717 0.155802 0.656156
1081 2 0.00360923 0.1264 0.662754
1284 4 0.128145 0.0765306 0.647539
1221 4 0.165331 0.143934 0.612049
1153 2 0.162926 0.105703 0.60178
1154 4 0.159883 0.124605 0.617861
1219 2 0.180687 0.161595 0.620851
1211 4 0.247616 0.16695 0.654783
1030 2 0.30547 0.0880306 0.658914
888 4 0.259743 0.178837 0.66897
1209 4 0.100328 0.19801 0.65419
1245 4 0.0989128 0.213249 0.640059
1271 4 0.0859576 0.198872 0.587162
1243 2 0.0932074 0.216117 0.615885
1244 4 0.087502 0.218986 0.591711
1210 2 0.226674 0.179049 0.64844
1212 4 0.205733 0.191149 0.642097
1220 4 0.196043 0.179255 0.629654
797 4 0.171705 0.241152 0.624701
796 2 0.184392 0.21962 0.625464
798 4 0.197079 0.198088 0.626228
858 4 0.29172 0.170274 0.593923
1193 4 0.395222 0.215148 0.657907
3121 2 0.481627 0.229771 0.627834
3122 4 0.481222 0.209432 0.642372
905 4 0.483689 0.250391 0.593286
983 4 0.0466457 0.279324 0.610736
982 2 0.0493417 0.301406 0.62215
984 4 0.0520376 0.323488 0.633564
3263 4 0.052548 0.321916 0.653461
651 4 0.267765 0.299169 0.586291
805 2 0.30126 0.293383 0.610996
806 4 0.277555 0.295879 0.603443
807 4 0.324965 0.290887 0.618548
1239 4 0.345933 0.287855 0.616798
1237 2 0.351021 0.271244 0.598817
3123 4 0.482032 0.250109 0.613295
904 2 0.472209 0.272604 0.593153
952 2 0.493311 0.323046 0.594397
953 4 0.478621 0.302817 0.594807
1041 4 0.0521031 0.339292 0.645019
1039 2 0.0498904 0.36419 0.644383
1040 4 0.0476776 0.389087 0.643746
993 4 0.0511727 0.391061 0.623107
991 2 0.0497502 0.391486 0.598148
1068 4 0.188355 0.39924 0.665091
1028 4 0.204173 0.402123 0.653227
3309 4 0.496126 0.405318 0.613509
1188 4 0.200748 0.498518 0.646734
1027 2 0.209565 0.42487 0.644358
1171 2 0.20752 0.45361 0.585691
1029 4 0.214958 0.447617 0.635489
1173 4 0.206148 0.478533 0.584225
1187 4 0.199313 0.491316 0.59727
1186 2 0.20003 0.494917 0.622002
1175 4 0.187771 0.485092 0.654893
1268 4 0.410714 0.469422 0.650549
2168 4 0.414923 0.487542 0.643417
1206 4 0.482644 0.417624 0.621844
1267 2 0.421264 0.455666 0.632531
1204 2 0.460719 0.423885 0.611585
1910 4 0.422373 0.440446 0.597322
1269 4 0.431813 0.44191 0.614513
1205 4 0.438793 0.430145 0.601325
1296 4 6.09192e-05 0.0399218 0.73862
1226 4 0.159425 0.0873675 0.749178
1201 2 0.173404 0.0467558 0.741141
2256 4 0.18952 0.00506835 0.738385
2049 4 0.171377 0.005977 0.745064
1202 4 0.179153 0.0225539 0.738613
1005 4 0.328548 0.0429497 0.687695
1003 2 0.332663 0.0188844 0.6823
810 4 0.477064 0.0764182 0.66744
1164 4 0.500722 0.0448696 0.716016
45 3 0.428053 0.0519404 0.68161
1162 2 0.486084 0.0579622 0.700541
1163 4 0.471446 0.0710548 0.685066
44 3 0.458127 0.0718146 0.670735
1077 4 0.0297254 0.123744 0.731881
1075 2 0.0125833 0.115388 0.715709
864 4 0.037494 0.118137 0.748754
850 2 0.0661395 0.1627 0.714078
851 4 0.0888518 0.161828 0.703658
1282 2 0.124915 0.0837451 0.67126
909 4 0.106711 0.156019 0.707981
907 2 0.110836 0.131481 0.705516
908 4 0.114961 0.106944 0.703051
1283 4 0.121684 0.0909596 0.694982
1227 4 0.124015 0.0932508 0.71436
1225 2 0.14172 0.0903091 0.731769
1148 4 0.175809 0.0884462 0.739416
1032 4 0.319174 0.102244 0.674256
886 2 0.274929 0.169829 0.686674
829 2 0.320981 0.152657 0.713307
830 4 0.297566 0.154953 0.72177
887 4 0.290115 0.160821 0.704377
978 4 0.282439 0.167338 0.721164
831 4 0.344396 0.15036 0.704844
1142 4 0.357136 0.146756 0.718748
1141 2 0.375644 0.162061 0.711791
1025 4 0.455275 0.146751 0.700075
3424 2 0.46748 0.1105 0.68806
3426 4 0.465506 0.0879567 0.677425
3425 4 0.469453 0.133043 0.698695
3269 4 0.471926 0.148443 0.709848
3268 2 0.478258 0.158596 0.731802
1024 2 0.433677 0.159322 0.700902
845 4 0.43775 0.0824144 0.73655
852 4 0.0434273 0.163572 0.724497
1213 2 0.0196951 0.192397 0.742024
1208 4 0.102654 0.163667 0.690465
1207 2 0.101491 0.180839 0.672327
1107 4 0.102839 0.175493 0.706048
1105 2 0.115276 0.181368 0.726928
1106 4 0.127713 0.187244 0.747808
780 4 0.0834163 0.250779 0.720829
976 2 0.282498 0.182558 0.741002
916 2 0.303789 0.235537 0.753909
1194 4 0.407607 0.190401 0.69956
1192 2 0.401414 0.202775 0.678734
1143 4 0.394152 0.177366 0.704835
1262 4 0.40688 0.183203 0.717582
1026 4 0.412079 0.171893 0.701729
1261 2 0.416692 0.194221 0.737769
3270 4 0.484591 0.168749 0.753756
3262 2 0.0499314 0.313711 0.676935
3264 4 0.0473148 0.305507 0.700409
779 4 0.0577854 0.291426 0.706987
893 4 0.0620646 0.309399 0.713107
892 2 0.0628176 0.323858 0.733492
778 2 0.0706009 0.271102 0.713908
1063 2 0.251207 0.307828 0.697822
1065 4 0.228034 0.316231 0.702015
947 4 0.299653 0.257901 0.731549
946 2 0.289429 0.268841 0.711525
948 4 0.279205 0.279782 0.691501
1064 4 0.27438 0.299425 0.69363
917 4 0.313594 0.256548 0.74455
1008 4 0.426418 0.270147 0.715517
1006 2 0.433611 0.2767 0.73855
894 4 0.0635706 0.338317 0.753877
1067 4 0.143782 0.391505 0.686403
940 2 0.126126 0.388708 0.726527
941 4 0.136156 0.394366 0.704333
1066 2 0.166069 0.395373 0.675747
1176 4 0.163194 0.443193 0.666772
1174 2 0.175483 0.464142 0.660832
1139 4 0.304354 0.450679 0.698397
1138 2 0.315115 0.4583 0.719641
1140 4 0.325876 0.46592 0.740885
1230 4 0.384312 0.440534 0.749257
1100 4 0.402153 0.434875 0.745501
1101 4 0.448654 0.452996 0.74234
1099 2 0.425403 0.443935 0.74392
3330 4 0.461507 0.43787 0.743011
3328 2 0.47875 0.432751 0.725642
3329 4 0.495993 0.427632 0.708274
1203 4 0.167654 0.0709577 0.743669
1113 4 0.36602 0.0614281 0.82596
2321 4 0.44778 0.00739267 0.812871
2322 4 0.455296 0.0475185 0.783989
2320 2 0.451538 0.0274556 0.79843
846 4 0.442413 0.0627407 0.782287
844 2 0.440081 0.0725775 0.759419
1214 4 0.0381594 0.175689 0.739769
862 2 0.0453448 0.120829 0.77234
863 4 0.0531956 0.123521 0.795926
833 4 0.0530529 0.116321 0.814087
1125 4 0.0591829 0.134707 0.811443
1123 2 0.0714732 0.150688 0.826233
832 2 0.0448002 0.0990104 0.830131
34 3 0.134298 0.168633 0.824769
911 4 0.0984749 0.0904672 0.836461
1147 2 0.196714 0.0978555 0.749396
1149 4 0.21762 0.107265 0.759376
1257 4 0.236834 0.105275 0.752685
1255 2 0.242011 0.117696 0.773759
921 4 0.241398 0.144823 0.806348
1256 4 0.247187 0.130116 0.794833
840 4 0.253205 0.130375 0.81309
1124 4 0.0837635 0.166669 0.841023
3188 4 0.0152037 0.255761 0.784028
1130 4 0.123977 0.207307 0.751253
1129 2 0.141456 0.217364 0.766036
822 4 0.173362 0.238266 0.789457
1131 4 0.158935 0.227421 0.780818
1277 4 0.169845 0.21973 0.794565
35 3 0.0998521 0.177611 0.837038
919 2 0.220503 0.156521 0.81354
1276 2 0.179126 0.201732 0.809232
1278 4 0.188407 0.183734 0.823898
920 4 0.199608 0.168219 0.820733
977 4 0.282558 0.197779 0.760839
918 4 0.293984 0.214527 0.763269
1298 4 0.284055 0.206746 0.777481
1297 2 0.296423 0.205041 0.799144
1299 4 0.308792 0.203335 0.820807
1086 4 0.325487 0.209985 0.829412
50 3 0.389873 0.198752 0.787991
46 1 0.410117 0.206397 0.795088
1306 2 0.502343 0.24689 0.816185
49 3 0.407476 0.226499 0.806372
48 3 0.420051 0.190733 0.809029
47 3 0.423732 0.20983 0.776867
1263 4 0.426504 0.20524 0.757956
1146 4 0.482106 0.183331 0.766602
1145 4 0.441301 0.212145 0.768935
1144 2 0.461703 0.197738 0.767769
1022 4 0.426883 0.174717 0.818926
1043 4 0.42378 0.237443 0.804667
1179 4 0.996279 0.253316 0.779349
3187 2 0.0400688 0.256765 0.7816
3189 4 0.0649339 0.257769 0.779171
3276 4 0.0592322 0.330868 0.771306
821 4 0.162123 0.286188 0.780633
820 2 0.167743 0.262227 0.785045
1098 4 0.225061 0.323493 0.820875
1096 2 0.242345 0.30902 0.83169
1042 2 0.434721 0.255825 0.791722
1044 4 0.445661 0.274207 0.778776
1007 4 0.440804 0.283252 0.761583
1165 2 0.481696 0.271889 0.771246
1166 4 0.45906 0.281904 0.767714
3275 4 0.0131031 0.332954 0.790502
814 2 0.084347 0.365826 0.763926
3274 2 0.0361677 0.331911 0.780904
816 4 0.071373 0.345641 0.770955
815 4 0.097321 0.386011 0.756896
942 4 0.116097 0.38305 0.748721
1235 4 0.221505 0.32487 0.800939
1234 2 0.212621 0.339437 0.782662