ITEM: TIMESTEP
1000000
ITEM: NUMBER OF ATOMS
4590
ITEM: BOX BOUNDS pp pp pp
-9.9985700000000008e+00 9.9985700000000008e+00
-9.9985700000000008e+00 9.9985700000000008e+00
-9.9985700000000008e+00 9.9985700000000008e+00
ITEM: ATOMS id type xs ys zs
464 4 0.0200275 0.0663712 0.0299685
701 4 0.0697505 0.0759613 0.0402497
463 2 0.042817 0.0759937 0.0263321
567 4 0.16165 0.0761732 0.0798328
565 2 0.137651 0.080504 0.0743129
566 4 0.113652 0.0848349 0.068793
700 2 0.0850144 0.0749239 0.0600263
491 4 0.302101 0.0230537 0.036452
2264 4 0.290266 0.031698 0.0229303
558 4 0.365211 0.0793132 0.0384463
556 2 0.363523 0.0618222 0.0562337
557 4 0.361834 0.0443312 0.0740211
745 2 0.468512 0.0514267 0.00703753
746 4 0.475639 0.047286 0.0306433
2467 2 0.502504 0.0159166 0.0437673
2469 4 0.490649 0.037416 0.0390329
465 4 0.0656065 0.0856162 0.0226956
589 2 0.0106335 0.123924 0.0766664
590 4 0.0300089 0.122256 0.0609504
554 4 0.0677299 0.156345 0.0216714
421 2 0.115028 0.123698 0.00187207
702 4 0.100278 0.0738865 0.0798029
422 4 0.127766 0.135928 0.0195741
359 4 0.263288 0.132829 0.00952281
770 4 0.455348 0.151171 0.0694723
553 2 0.0704204 0.18081 0.0172688
836 4 0.0740232 0.221447 0.0234964
555 4 0.0731108 0.205276 0.0128661
835 2 0.0957656 0.233491 0.0207746
837 4 0.117508 0.245534 0.0180528
666 4 0.320848 0.219412 0.0253487
664 2 0.322666 0.210209 0.00217164
573 4 0.314714 0.232401 0.0380782
461 4 0.319182 0.214887 0.0442857
460 2 0.326266 0.21103 0.0679524
1070 4 0.410252 0.237198 0.0175632
769 2 0.437579 0.168378 0.0731286
1012 2 0.47944 0.20195 0.0511434
771 4 0.419811 0.185586 0.076785
1014 4 0.461362 0.199158 0.0681888
1013 4 0.497519 0.204743 0.034098
1069 2 0.417506 0.243865 0.0405438
1071 4 0.42476 0.250532 0.0635244
915 4 0.136905 0.247066 0.0118012
292 2 0.115138 0.28947 0.0612408
294 4 0.0928253 0.292061 0.0502582
507 4 0.152696 0.284254 0.05719
293 4 0.137451 0.28688 0.0722233
505 2 0.17669 0.286306 0.0639169
481 2 0.218672 0.324158 0.0707268
506 4 0.200684 0.288358 0.0706438
483 4 0.217455 0.299197 0.0715313
355 2 0.292422 0.302651 0.0136366
571 2 0.311013 0.257076 0.0397057
356 4 0.312168 0.293475 0.0259287
572 4 0.307313 0.28175 0.0413332
357 4 0.272677 0.311827 0.00134454
957 4 0.369949 0.322707 0.0280686
324 4 0.427162 0.270352 0.0647846
322 2 0.432725 0.294403 0.0687575
672 4 0.452492 0.319155 0.0573803
323 4 0.438287 0.318455 0.0727305
620 4 0.0215231 0.350622 0.0727817
482 4 0.219888 0.349119 0.0699223
609 4 0.234558 0.363154 0.0656903
252 4 0.273508 0.393063 0.0396779
608 4 0.276799 0.372283 0.0405288
607 2 0.255678 0.367718 0.0531096
670 2 0.462665 0.340785 0.06472
671 4 0.472838 0.362414 0.0720597
281 4 0.483036 0.374398 0.0825434
280 2 0.486524 0.395434 0.069486
2651 4 0.49143 0.358554 0.0765045
282 4 0.490012 0.416471 0.0564286
551 4 0.0637952 0.441767 0.0798465
550 2 0.0788794 0.460574 0.0732184
552 4 0.0939635 0.479382 0.0665903
1787 4 0.101502 0.497443 0.0674107
242 4 0.112865 0.482535 0.062918
241 2 0.132779 0.486104 0.0776096
250 2 0.279764 0.417271 0.0396994
244 2 0.25376 0.475723 0.0565308
251 4 0.286019 0.44148 0.0397209
271 2 0.265345 0.479769 0.00238425
246 4 0.260279 0.495151 0.0422056
272 4 0.265386 0.490051 0.0251756
245 4 0.24724 0.456294 0.070856
523 2 0.357082 0.489807 0.0632377
524 4 0.353644 0.465251 0.0664564
226 2 0.479306 0.469559 0.0527969
228 4 0.458917 0.460125 0.0637738
563 4 0.450821 0.46795 0.00586849
562 2 0.453531 0.492522 0.00211921
2576 4 0.00610975 0.0476209 0.0886511
16 1 0.0535432 0.0651647 0.15898
17 3 0.0721719 0.0648284 0.145489
1804 2 0.0761395 0.0193838 0.133685
20 3 0.034999 0.0615898 0.146253
1806 4 0.0720044 0.0180905 0.15831
1805 4 0.0802747 0.0206771 0.10906
1667 4 0.0917917 0.0132781 0.092173
448 2 0.180765 0.0783275 0.146793
450 4 0.177008 0.053639 0.148036
1505 4 0.177138 0.0362846 0.157717
652 2 0.303058 0.0175927 0.131606
653 4 0.295367 0.0351245 0.115523
296 4 0.35838 0.0546516 0.0908617
295 2 0.372092 0.0414559 0.10708
297 4 0.385805 0.0282601 0.123298
485 4 0.381956 0.0113083 0.112914
235 2 0.157021 0.129827 0.164357
236 4 0.175594 0.117818 0.152695
693 4 0.19412 0.113602 0.158063
449 4 0.184521 0.103016 0.14555
284 4 0.274109 0.161009 0.155916
312 4 0.449089 0.147458 0.157508
337 2 0.0535565 0.20833 0.15411
339 4 0.0291121 0.210266 0.149221
338 4 0.078001 0.206394 0.158999
476 4 0.131908 0.202691 0.123365
475 2 0.114649 0.204498 0.141367
477 4 0.0973905 0.206304 0.159368
737 4 0.147469 0.215206 0.123676
363 4 0.0887641 0.220038 0.169723
738 4 0.193432 0.233647 0.116745
736 2 0.170451 0.224426 0.120211
283 2 0.287975 0.17883 0.145176
285 4 0.301841 0.196651 0.134436
462 4 0.33335 0.207173 0.0916191
255 4 0.336589 0.200669 0.109696
254 4 0.372927 0.200807 0.144051
253 2 0.354758 0.200738 0.126874
630 4 0.387618 0.211024 0.151156
628 2 0.409484 0.208495 0.139296
629 4 0.431351 0.205967 0.127437
352 2 0.317496 0.282498 0.131875
353 4 0.296867 0.291629 0.142656
754 2 0.290788 0.33122 0.153636
755 4 0.28851 0.306323 0.153244
278 4 0.285573 0.288098 0.157992
354 4 0.338126 0.273366 0.121095
518 4 0.487805 0.255967 0.13679
2895 4 0.497124 0.258741 0.15546
519 4 0.481142 0.292478 0.103274
517 2 0.484473 0.274222 0.120032
647 4 0.0162049 0.34489 0.0914494
646 2 0.039504 0.345981 0.100457
648 4 0.062803 0.347071 0.109466
456 4 0.0793835 0.35608 0.111888
455 4 0.116657 0.365665 0.0799579
454 2 0.0980201 0.360873 0.0959231
537 4 0.222459 0.362662 0.14746
535 2 0.200506 0.368397 0.136955
536 4 0.178553 0.374131 0.12645
611 4 0.232213 0.378167 0.155511
756 4 0.293065 0.356116 0.154027
612 4 0.281265 0.371438 0.148489
610 2 0.256739 0.374803 0.152
387 4 0.33066 0.391815 0.159017
302 4 0.313148 0.386096 0.164282
741 4 0.378052 0.348125 0.084513
739 2 0.373164 0.355276 0.107968
740 4 0.368276 0.362426 0.131424
15 3 0.385927 0.3649 0.137438
385 2 0.352395 0.386191 0.14801
386 4 0.37413 0.380567 0.137004
11 1 0.402977 0.367397 0.152329
14 3 0.413992 0.38745 0.148462
495 4 0.416669 0.402546 0.134503
12 3 0.417905 0.350091 0.149726
1467 4 0.011974 0.469658 0.130428
1465 2 0.0247946 0.481673 0.148218
1466 4 0.0376152 0.493688 0.166007
243 4 0.152694 0.489673 0.0923012
625 2 0.220222 0.461692 0.103048
626 4 0.208872 0.468594 0.124231
627 4 0.231572 0.454789 0.0818657
638 4 0.251427 0.499305 0.153984
767 4 0.266598 0.486856 0.154593
766 2 0.271773 0.464009 0.163336
493 2 0.411396 0.425017 0.144116
660 4 0.421143 0.461852 0.152626
494 4 0.406123 0.447488 0.153729
658 2 0.425047 0.485158 0.160797
1673 4 0.445988 0.499531 0.101571
18 3 0.0555369 0.04844 0.17494
2480 4 0.0291082 0.0143019 0.18955
19 3 0.0521601 0.0858792 0.169344
380 4 0.0442638 0.084515 0.187517
2479 2 0.00803873 0.0273547 0.192849
1422 4 0.0175202 0.997542 0.191341
673 2 0.127955 0.0641081 0.188077
674 4 0.119127 0.0728023 0.209795
675 4 0.136782 0.055414 0.166359
1506 4 0.162331 0.0127822 0.1993
1504 2 0.169735 0.0245334 0.178509
689 4 0.172078 0.00717129 0.215613
21 1 0.396638 0.0216206 0.236607
25 3 0.40688 0.0342043 0.220625
759 4 0.412363 0.0519539 0.216775
757 2 0.39696 0.066774 0.203803
22 3 0.373936 0.021672 0.232896
744 4 0.473072 0.0146549 0.242646
351 4 0.473315 0.0312503 0.232838
349 2 0.448859 0.0352916 0.229557
350 4 0.424403 0.0393329 0.226275
512 4 0.0360147 0.149256 0.198828
379 2 0.045549 0.109465 0.188522
381 4 0.0468342 0.134416 0.189527
511 2 0.0562071 0.160778 0.208031
579 4 0.110316 0.0952361 0.169209
237 4 0.138447 0.141836 0.176018
578 4 0.0942818 0.14138 0.179902
577 2 0.102299 0.118308 0.174556
691 2 0.209875 0.122402 0.175369
692 4 0.225631 0.131203 0.192675
723 4 0.205899 0.15704 0.197785
721 2 0.19284 0.159326 0.218985
582 4 0.244748 0.130041 0.203044
722 4 0.179782 0.161613 0.240184
580 2 0.254753 0.112321 0.217573
581 4 0.264758 0.0946015 0.232102
30 3 0.284027 0.0939555 0.240166
26 1 0.304041 0.104585 0.242428
28 3 0.319778 0.0949042 0.228391
27 3 0.301558 0.126718 0.236672
758 4 0.381556 0.0815941 0.190831
310 2 0.441082 0.13329 0.17649
311 4 0.433074 0.119121 0.195472
513 4 0.0763995 0.1723 0.217233
362 4 0.111894 0.223191 0.213947
361 2 0.100329 0.221614 0.191835
372 4 0.131594 0.225055 0.214098
370 2 0.156325 0.222242 0.211721
371 4 0.181056 0.21943 0.209344
765 4 0.383913 0.221442 0.168747
763 2 0.391289 0.241807 0.181237
308 4 0.342967 0.240729 0.227471
520 2 0.496476 0.202815 0.230912
521 4 0.4773 0.215403 0.240862
395 4 0.0460061 0.29316 0.212448
750 4 0.0551255 0.277437 0.20541
748 2 0.0731178 0.283302 0.189068
749 4 0.09111 0.289166 0.172726
394 2 0.0385033 0.287366 0.235585
300 4 0.150264 0.335517 0.223716
279 4 0.292346 0.259583 0.19851
277 2 0.288959 0.273841 0.178251
309 4 0.32895 0.276717 0.195704
307 2 0.335958 0.258723 0.211588
764 4 0.398665 0.262173 0.193728
623 4 0.396013 0.281713 0.199339
622 2 0.418692 0.291982 0.197018
624 4 0.441371 0.302251 0.194698
528 4 0.453958 0.289595 0.186367
527 4 0.486479 0.254173 0.172642
526 2 0.470218 0.271884 0.179505
262 2 0.0583247 0.397873 0.220968
264 4 0.0523042 0.400708 0.196866
263 4 0.0643453 0.395039 0.24507
298 2 0.145354 0.356696 0.236066
299 4 0.140444 0.377875 0.248416
602 4 0.0823138 0.402437 0.244469
601 2 0.105855 0.397209 0.251076
290 4 0.215912 0.392385 0.23468
289 2 0.198805 0.409678 0.228893
301 2 0.301908 0.406931 0.172329
13 3 0.394691 0.366962 0.173998
645 4 0.470663 0.409255 0.178958
643 2 0.476495 0.388793 0.192092
644 4 0.482328 0.368332 0.205225
447 4 0.474724 0.362871 0.223219
445 2 0.491405 0.358479 0.24132
417 4 0.178353 0.49378 0.203518
415 2 0.179061 0.469108 0.207512
291 4 0.181698 0.42697 0.223105
416 4 0.179768 0.444436 0.211506
303 4 0.290668 0.427765 0.180376
768 4 0.276947 0.441163 0.172079
713 4 0.342939 0.497778 0.243864
597 4 0.466846 0.424056 0.166003
595 2 0.46922 0.448754 0.169088
596 4 0.471594 0.473453 0.172172
1568 4 0.480225 0.490394 0.168139
2861 4 0.463784 0.463828 0.253289
1799 4 0.027385 0.0216075 0.318593
233 4 0.020822 0.0185681 0.300527
1402 2 0.059043 0.0173673 0.289396
1403 4 0.0388735 0.0228383 0.303123
232 2 0.99947 0.0258294 0.289732
1404 4 0.0792126 0.0118964 0.275668
1699 2 0.215215 0.0601798 0.302751
1701 4 0.202306 0.0409724 0.293285
1700 4 0.228124 0.0793873 0.312218
23 3 0.400826 0.0305553 0.257608
1516 2 0.363468 0.00318319 0.292754
697 2 0.383272 0.0532246 0.317949
699 4 0.390732 0.0340483 0.303744
1518 4 0.377302 0.0240069 0.292331
742 2 0.490255 0.00959415 0.26009
478 2 0.47532 0.0438582 0.311529
479 4 0.489976 0.0313675 0.29558
480 4 0.460663 0.0563488 0.327477
398 4 0.0702533 0.130294 0.312577
546 4 0.161726 0.167697 0.240244
545 4 0.113147 0.167368 0.252107
544 2 0.137437 0.167533 0.246176
248 4 0.229305 0.0985949 0.316041
249 4 0.196136 0.129493 0.294926
247 2 0.212721 0.114044 0.305484
404 4 0.197471 0.14981 0.295629
403 2 0.184673 0.158803 0.276122
29 3 0.311231 0.103324 0.264453
632 4 0.344525 0.116967 0.332875
333 4 0.436618 0.125439 0.311219
331 2 0.443188 0.149519 0.309748
393 4 0.106378 0.214212 0.297617
392 4 0.0998918 0.179017 0.26269
391 2 0.103135 0.196614 0.280153
390 4 0.112305 0.214915 0.318536
405 4 0.171874 0.167795 0.256615
378 4 0.286431 0.206579 0.31493
376 2 0.309996 0.198346 0.316368
377 4 0.333562 0.190114 0.317807
707 4 0.346499 0.182944 0.331052
761 4 0.500155 0.221192 0.302097
332 4 0.449759 0.173599 0.308277
420 4 0.407563 0.213424 0.325294
418 2 0.427679 0.202796 0.314923
419 4 0.447795 0.192168 0.304552
760 2 0.482825 0.203641 0.306195
762 4 0.465495 0.186089 0.310293
444 4 0.0221629 0.253413 0.312376
396 4 0.0310006 0.281572 0.258722
442 2 0.0230084 0.270403 0.294051
443 4 0.0238539 0.287394 0.275727
365 4 0.0207282 0.298087 0.259269
401 4 0.190975 0.26554 0.275869
345 4 0.241903 0.306227 0.299267
400 2 0.208628 0.280766 0.28491
402 4 0.22628 0.295992 0.293951
510 4 0.225974 0.306298 0.310477
508 2 0.2204 0.327934 0.321704
343 2 0.265295 0.297767 0.301806
344 4 0.288686 0.289308 0.304344
498 4 0.385427 0.288938 0.298254
496 2 0.365339 0.288763 0.283367
497 4 0.345251 0.288589 0.26848
541 2 0.420693 0.321201 0.31085
542 4 0.421904 0.296495 0.314503
603 4 0.129397 0.391981 0.257682
734 4 0.139049 0.378712 0.267409
733 2 0.154059 0.381427 0.287222
735 4 0.169068 0.384142 0.307034
677 4 0.181918 0.394049 0.319221
676 2 0.202245 0.379646 0.321356
678 4 0.222572 0.365243 0.323491
728 4 0.315508 0.390245 0.299918
438 4 0.273719 0.411345 0.268476
727 2 0.335441 0.394033 0.285306
729 4 0.355374 0.39782 0.270694
615 4 0.404616 0.358452 0.307469
613 2 0.402195 0.36881 0.330097
2538 4 0.495612 0.395939 0.32238
543 4 0.419482 0.345907 0.307197
2536 2 0.497048 0.403657 0.298641
2537 4 0.498483 0.411376 0.274902
549 4 0.0331815 0.431789 0.326853
777 4 0.0851522 0.443473 0.305042
775 2 0.100355 0.45526 0.321014
414 4 0.130717 0.469234 0.323834
437 4 0.264306 0.43307 0.312523
436 2 0.269012 0.422207 0.2905
2862 4 0.489727 0.421724 0.260702
2860 2 0.476756 0.442776 0.256996
593 4 0.425597 0.447656 0.310912
592 2 0.427175 0.469174 0.323548
594 4 0.428753 0.490692 0.336184
1377 4 0.997471 0.999754 0.371393
1798 2 0.0211978 0.0120233 0.340842
369 4 0.0628518 0.0538933 0.392703
1800 4 0.0150106 0.00243902 0.363092
1782 4 0.108389 0.0019833 0.389596
367 2 0.0794986 0.0353113 0.394368
368 4 0.0961454 0.0167293 0.396033
605 4 0.136533 0.0468319 0.368768
604 2 0.158724 0.0501007 0.379815
606 4 0.180916 0.0533695 0.390863
698 4 0.375812 0.0724009 0.332155
256 2 0.387639 0.0561526 0.372095
257 4 0.380786 0.06515 0.349796
258 4 0.394492 0.0471552 0.394395
426 4 0.415265 0.0484893 0.393626
424 2 0.419743 0.0289918 0.408625
318 4 0.0113345 0.140479 0.380819
316 2 0.0289049 0.127137 0.369052
317 4 0.0464752 0.113795 0.357286
397 2 0.0853744 0.125917 0.332003
457 2 0.00165525 0.163831 0.399217
730 2 0.0939283 0.100786 0.385972
399 4 0.100495 0.121541 0.351429
731 4 0.10125 0.1203 0.37216
732 4 0.0866061 0.0812727 0.399784
600 4 0.207078 0.163714 0.372685
683 4 0.287564 0.114103 0.365609
682 2 0.281696 0.110775 0.389685
684 4 0.275828 0.107447 0.413762
631 2 0.362301 0.100785 0.339755
633 4 0.380077 0.0846035 0.346636
516 4 0.419247 0.140024 0.375072
575 4 0.403613 0.149064 0.383159
574 2 0.414241 0.152679 0.4055
451 2 0.497819 0.143338 0.360021
514 2 0.439352 0.132278 0.362386
453 4 0.474155 0.138291 0.35372
515 4 0.459457 0.124531 0.349699
459 4 0.00648367 0.187981 0.403532
2654 4 0.00890778 0.204729 0.3921
388 2 0.100817 0.218654 0.340427
389 4 0.089329 0.222392 0.362318
685 2 0.161001 0.219675 0.413051
686 4 0.145768 0.238045 0.420516
598 2 0.198927 0.176585 0.392512
687 4 0.176233 0.201306 0.405587
599 4 0.190776 0.189456 0.412338
473 4 0.236678 0.207823 0.377516
472 2 0.25919 0.198109 0.382418
474 4 0.281701 0.188394 0.38732
488 4 0.299807 0.191738 0.390651
487 2 0.309381 0.213655 0.397942
489 4 0.318955 0.235572 0.405233
706 2 0.36105 0.199515 0.342837
708 4 0.3756 0.216086 0.354621
715 2 0.407022 0.241469 0.347781
717 4 0.421429 0.224402 0.33654
347 4 0.0685863 0.320445 0.418437
275 4 0.1385 0.325123 0.392273
274 2 0.158456 0.313785 0.382356
276 4 0.178413 0.302447 0.372439
373 2 0.213403 0.276534 0.381279
374 4 0.233582 0.262434 0.385659
375 4 0.193224 0.290634 0.3769
716 4 0.392616 0.258535 0.359022
618 4 0.0719445 0.338604 0.41166
406 2 0.0454407 0.388653 0.397263
407 4 0.032872 0.408962 0.389862
408 4 0.0580095 0.368345 0.404663
616 2 0.0843427 0.333042 0.390671
617 4 0.0967408 0.32748 0.369683
509 4 0.214826 0.349569 0.33293
435 4 0.225065 0.362608 0.342629
434 4 0.272852 0.375514 0.349735
433 2 0.248958 0.369061 0.346182
503 4 0.277104 0.40718 0.426623
614 4 0.399774 0.379168 0.352725
753 4 0.480694 0.389978 0.335711
561 4 0.457793 0.368089 0.392317
752 4 0.45226 0.375271 0.374129
559 2 0.477345 0.366633 0.407834
751 2 0.466477 0.382625 0.35492
548 4 0.0415 0.420134 0.374767
547 2 0.0373407 0.425961 0.35081
776 4 0.115559 0.467047 0.336986
412 2 0.148622 0.482408 0.335282
499 2 0.170291 0.499781 0.382894
501 4 0.160524 0.497737 0.40582
413 4 0.166526 0.495582 0.34673
1544 4 0.18595 0.497104 0.342679
668 4 0.30497 0.464018 0.402282
1 1 0.320033 0.495337 0.410075
3 3 0.331255 0.499415 0.390179
667 2 0.295568 0.441827 0.40894
718 2 0.0360206 0.0783493 0.447041
720 4 0.0272216 0.0616151 0.463403
2237 4 0.0320109 0.0454094 0.473722
2236 2 0.0315239 0.0246457 0.4598
1127 4 0.0189218 0.0583622 0.481005
340 2 0.184105 0.050706 0.489801
2430 4 0.200015 0.0106665 0.493065
341 4 0.190345 0.0265532 0.488104
1182 4 0.249678 0.0885842 0.481769
342 4 0.177865 0.0748587 0.491498
726 4 0.317997 0.0558142 0.441452
724 2 0.306707 0.0487147 0.462602
725 4 0.295416 0.0416151 0.483751
963 4 0.297224 0.0292699 0.498887
1580 4 0.40599 0.00332483 0.428939
425 4 0.42422 0.00949423 0.423624
2878 2 0.454467 0.078385 0.476725
2879 4 0.456042 0.0543426 0.483408
719 4 0.0448196 0.0950836 0.430679
1033 2 0.126346 0.14471 0.476167
1035 4 0.133774 0.1489 0.452663
1152 4 0.179916 0.0887365 0.505944
320 4 0.279172 0.117338 0.432076
1180 2 0.263394 0.0938995 0.461549
1181 4 0.277109 0.0992148 0.44133
321 4 0.318076 0.144222 0.448339
319 2 0.298624 0.13078 0.440208
2880 4 0.452892 0.102427 0.470042
642 4 0.466386 0.106959 0.454239
640 2 0.4517 0.125169 0.445414
641 4 0.437015 0.14338 0.436589
306 4 0.439666 0.162206 0.43951
471 4 0.0102036 0.211839 0.472331
469 2 0.0257363 0.193591 0.465194
470 4 0.0412691 0.175344 0.458057
260 4 0.121788 0.213813 0.435779
261 4 0.127728 0.168092 0.455144
259 2 0.124758 0.190952 0.445461
695 4 0.111004 0.227117 0.449032
694 2 0.10823 0.249205 0.460416
411 4 0.249112 0.18646 0.451774
409 2 0.271939 0.192308 0.460136
410 4 0.294766 0.198155 0.468497
900 4 0.296784 0.210449 0.485718
468 4 0.372464 0.226575 0.443925
466 2 0.378164 0.202253 0.44287
467 4 0.383865 0.177931 0.441816
267 4 0.338029 0.251683 0.437924
576 4 0.42487 0.156294 0.427842
305 4 0.472901 0.195784 0.423118
304 2 0.456283 0.178995 0.431314
346 2 0.062925 0.320076 0.442788
326 4 0.0657331 0.336856 0.473088
348 4 0.0572637 0.319707 0.467139
1260 4 0.100455 0.277519 0.489026
696 4 0.105456 0.271294 0.471799
265 2 0.32909 0.262762 0.458479
266 4 0.320151 0.273841 0.479035
811 2 0.272136 0.310342 0.477961
813 4 0.278273 0.311198 0.453738
2456 4 0.505674 0.264165 0.474452
584 4 0.485503 0.263058 0.4786
583 2 0.465669 0.271699 0.466066
585 4 0.445834 0.280339 0.453532
2812 2 0.00466696 0.362535 0.452983
2813 4 0.0293319 0.366628 0.452717
325 2 0.0834758 0.352792 0.4806
327 4 0.101218 0.368728 0.488112
10 3 0.143668 0.333936 0.487583
7 3 0.118806 0.361178 0.481865
6 1 0.140633 0.356506 0.487426
8 3 0.154632 0.366268 0.471706
711 4 0.167601 0.375193 0.459639
635 4 0.205458 0.412543 0.476141
504 4 0.231579 0.388334 0.418076
709 2 0.181665 0.389295 0.474756
710 4 0.195729 0.403397 0.489873
774 4 0.214667 0.409008 0.492541
336 4 0.296491 0.405593 0.423116
502 2 0.254342 0.397757 0.422349
334 2 0.311996 0.386625 0.428114
335 4 0.327501 0.367657 0.433113
239 4 0.391145 0.383906 0.444392
238 2 0.366965 0.382089 0.438291
240 4 0.342786 0.380272 0.43219
588 4 0.408859 0.391956 0.438609
587 4 0.421553 0.391611 0.486977
560 4 0.496896 0.365177 0.423352
586 2 0.415206 0.391784 0.462793
681 4 0.0784202 0.413816 0.454806
1382 4 0.047744 0.504848 0.419768
680 4 0.0444985 0.436774 0.426119
1383 4 0.0400477 0.455781 0.425588
1381 2 0.0438958 0.480315 0.422678
679 2 0.0614594 0.425295 0.440462
383 4 0.0979067 0.414115 0.462008
568 2 0.16053 0.478981 0.456651
382 2 0.118735 0.427889 0.460729
384 4 0.139563 0.441664 0.459451
569 4 0.15143 0.456673 0.463336
636 4 0.233763 0.444638 0.450266
570 4 0.169631 0.50129 0.449966
634 2 0.219611 0.42859 0.463203
669 4 0.286166 0.419636 0.415598
4 3 0.318819 0.472491 0.413947
882 4 0.344207 0.50247 0.467869
1057 2 0.153055 0.0647893 0.573893
2428 2 0.220707 0.00251207 0.50449
430 2 0.316766 0.0602997 0.517475
431 4 0.327447 0.074479 0.535083
961 2 0.27543 0.0173162 0.501597
432 4 0.306084 0.0461205 0.499867
843 4 0.344508 0.0638902 0.535162
1217 4 0.395009 0.0356043 0.530948
1216 2 0.405342 0.0154139 0.541473
842 4 0.388285 0.0438111 0.548621
841 2 0.366396 0.0538506 0.541891
937 2 0.0924011 0.15944 0.528302
1151 4 0.164539 0.095074 0.553105
1059 4 0.149654 0.0855579 0.560392
1155 4 0.150417 0.105314 0.560405
939 4 0.104356 0.150468 0.508258
1153 2 0.161861 0.121379 0.575772
1034 4 0.118919 0.140521 0.499672
1150 2 0.172227 0.0919052 0.529524
938 4 0.0804463 0.168412 0.548346
878 4 0.0297532 0.210067 0.554214
1199 4 0.0202181 0.227528 0.551142
877 2 0.045946 0.191017 0.554493
879 4 0.0621388 0.171968 0.554771
1272 4 0.0774555 0.175898 0.565621
858 4 0.266707 0.190642 0.575463
857 4 0.305565 0.208335 0.54943
856 2 0.286136 0.199489 0.562446
898 2 0.298911 0.215356 0.510143
791 4 0.313814 0.225478 0.548114
899 4 0.301037 0.220263 0.534568
790 2 0.31655 0.247882 0.558872
3353 4 0.0158916 0.285063 0.531168
1258 2 0.10742 0.285691 0.511607
1259 4 0.114386 0.293863 0.534187
649 2 0.230619 0.290348 0.511392
651 4 0.211892 0.273808 0.512358
650 4 0.249345 0.306888 0.510426
804 4 0.258215 0.324155 0.512206
792 4 0.319287 0.270286 0.569631
812 4 0.265998 0.309486 0.502185
1239 4 0.335646 0.328504 0.56
1237 2 0.33384 0.305495 0.569616
1238 4 0.332033 0.282485 0.579232
873 4 0.415635 0.26112 0.546199
871 2 0.400473 0.2628 0.526388
872 4 0.385311 0.26448 0.506577
954 4 0.491487 0.329104 0.57107
1011 4 0.487716 0.317703 0.55372
935 4 0.00758763 0.393245 0.50466
1137 4 0.141818 0.390038 0.586635
1135 2 0.128329 0.408802 0.577086
9 3 0.145045 0.365235 0.508468
1189 2 0.230202 0.381129 0.565532
773 4 0.236567 0.384288 0.530091
1190 4 0.243707 0.375295 0.545314
772 2 0.225617 0.396648 0.511316
803 4 0.250543 0.371022 0.52787
802 2 0.254379 0.347588 0.520038
930 4 0.282083 0.346026 0.566688
928 2 0.292447 0.365282 0.554565
929 4 0.302812 0.384538 0.542442
927 4 0.424424 0.380394 0.553606
925 2 0.422105 0.387509 0.529748
926 4 0.419785 0.394625 0.505891
3309 4 0.496521 0.404175 0.580838
1161 4 0.170842 0.495341 0.551536
1136 4 0.114841 0.427565 0.567537
1159 2 0.184915 0.481739 0.567096
889 2 0.31111 0.475603 0.544714
890 4 0.310197 0.499801 0.538483
891 4 0.312023 0.451406 0.550945
1953 4 0.382818 0.479968 0.562768
1951 2 0.366696 0.493557 0.549329
1000 2 0.416862 0.498485 0.517109
1001 4 0.438557 0.488052 0.523864
662 4 0.453014 0.475054 0.524685
661 2 0.446849 0.451316 0.519817
1911 4 0.441113 0.477634 0.539971
1909 2 0.437968 0.479336 0.564717
1332 4 0.453862 0.491719 0.535255
663 4 0.440685 0.427578 0.514949
2319 4 0.0496681 0.00306869 0.633179
945 4 0.0618126 0.0162298 0.643515
1058 4 0.156457 0.0440208 0.587394
2375 4 0.113097 0.0171912 0.604696
943 2 0.0851268 0.0207495 0.651338
944 4 0.108441 0.0252691 0.659161
825 4 0.124138 0.0197025 0.648677
823 2 0.144719 0.00831979 0.640191
824 4 0.165301 0.996937 0.631706
1030 2 0.256296 0.0874374 0.612681
950 4 0.319548 0.0341135 0.608531
949 2 0.295794 0.0416162 0.610688
951 4 0.272041 0.0491188 0.612845
1031 4 0.273089 0.0689158 0.612337
1081 2 0.0373535 0.118004 0.660207
3179 4 0.0296835 0.149702 0.639897
1083 4 0.0446533 0.139665 0.650073
3178 2 0.0093551 0.164254 0.640311
1282 2 0.157081 0.0984963 0.66138
1154 4 0.173305 0.137444 0.591139
1032 4 0.239502 0.105959 0.613024
1284 4 0.167959 0.0928374 0.63959
1221 4 0.191702 0.138973 0.600608
1219 2 0.200829 0.15709 0.615226
43 3 0.430769 0.0945083 0.668164
808 2 0.486494 0.0899767 0.643636
809 4 0.500238 0.0942822 0.623197
1243 2 0.0787939 0.23094 0.625097
1244 4 0.0583056 0.223409 0.612903
1270 2 0.0898327 0.183722 0.585889
1271 4 0.10221 0.191545 0.606156
1209 4 0.0878939 0.239377 0.653649
1245 4 0.0992822 0.238471 0.637291
1210 2 0.237646 0.194377 0.655376
1212 4 0.218408 0.18936 0.640212
1220 4 0.209955 0.175206 0.629843
796 2 0.192886 0.212017 0.62429
798 4 0.210535 0.194345 0.623103
797 4 0.175237 0.229688 0.625478
1194 4 0.333958 0.233388 0.653622
906 4 0.483146 0.244663 0.583408
904 2 0.473186 0.243183 0.606295
905 4 0.463226 0.241704 0.629181
3123 4 0.471057 0.244786 0.646564
3121 2 0.488336 0.23347 0.660655
983 4 0.0353994 0.329927 0.600534
982 2 0.0504048 0.331573 0.620466
3263 4 0.0645399 0.325972 0.658616
947 4 0.186929 0.271261 0.63781
946 2 0.19172 0.262526 0.660743
805 2 0.326423 0.324211 0.665545
807 4 0.338159 0.324166 0.643467
952 2 0.485276 0.330603 0.595244
953 4 0.479066 0.332101 0.619418
984 4 0.0654102 0.33322 0.640399
1041 4 0.0643393 0.345485 0.655115
1039 2 0.0746455 0.368266 0.655171
1040 4 0.0849518 0.391047 0.655227
993 4 0.0826991 0.399075 0.636991
897 4 0.150364 0.370962 0.587682
896 4 0.19864 0.38339 0.591638
895 2 0.174502 0.377176 0.58966
1191 4 0.216696 0.386963 0.585749
1172 4 0.205784 0.401326 0.593938
1206 4 0.478392 0.406705 0.668486
991 2 0.0838907 0.423985 0.638793
992 4 0.0850823 0.448895 0.640594
1160 4 0.198988 0.468137 0.582657
1175 4 0.210426 0.493263 0.652738
1173 4 0.201495 0.451078 0.591277
1171 2 0.20364 0.426202 0.592607
1188 4 0.217898 0.475065 0.648656
1187 4 0.200716 0.466529 0.602476
1186 2 0.209307 0.470797 0.625566
1268 4 0.420815 0.502009 0.648722
1910 4 0.434823 0.481038 0.589464
1204 2 0.470953 0.427228 0.656294
1205 4 0.463515 0.447752 0.644102
1269 4 0.451532 0.462548 0.64873
1267 2 0.436173 0.482278 0.648726
2254 2 0.209446 0.0100187 0.7375
2256 4 0.190594 0.0257811 0.732883
1003 2 0.314222 0.0535936 0.722144
1005 4 0.296708 0.070571 0.716645
1004 4 0.331735 0.0366162 0.727643
810 4 0.47275 0.0856712 0.664074
45 3 0.43276 0.0569734 0.67036
42 3 0.433285 0.0774481 0.70156
41 1 0.439968 0.0765159 0.679568
1163 4 0.479135 0.0690121 0.672897
44 3 0.46313 0.0776017 0.678715
1162 2 0.490573 0.0476964 0.679221
1082 4 0.0300538 0.0963434 0.670341
1076 4 0.0232695 0.0987244 0.688348
1075 2 0.025265 0.0936613 0.712752
1077 4 0.0272605 0.0885982 0.737156
850 2 0.0693625 0.167365 0.718236
864 4 0.0339403 0.10292 0.749604
909 4 0.0937467 0.142945 0.701191
907 2 0.114232 0.1291 0.69747
908 4 0.134717 0.115254 0.693749
1283 4 0.146203 0.104155 0.68317
1227 4 0.153724 0.11555 0.697693
851 4 0.0924261 0.159852 0.71217
1225 2 0.164089 0.10798 0.719151
1107 4 0.111595 0.156608 0.718287
1203 4 0.145081 0.0858805 0.740672
1226 4 0.174453 0.10041 0.740609
1148 4 0.18987 0.0863518 0.745605
1147 2 0.21457 0.0847352 0.742069
1149 4 0.239269 0.0831186 0.738532
887 4 0.296875 0.156871 0.704193
830 4 0.314856 0.151286 0.708902
978 4 0.306581 0.164549 0.719782
831 4 0.363326 0.146287 0.69766
1141 2 0.403601 0.158326 0.711672
829 2 0.339091 0.148786 0.703281
1142 4 0.382607 0.146556 0.704898
1025 4 0.474946 0.14073 0.680443
3424 2 0.489798 0.101009 0.699493
3426 4 0.480181 0.0862465 0.681751
1024 2 0.457342 0.151854 0.694283
1143 4 0.424595 0.170096 0.718447
1026 4 0.439737 0.162978 0.708123
852 4 0.0462989 0.174879 0.724302
1215 4 0.0035605 0.207153 0.721745
1213 2 0.0211208 0.192923 0.732438
1214 4 0.038681 0.178694 0.743131
1074 4 0.0666159 0.246303 0.730997
1177 2 0.992568 0.242703 0.743131
1207 2 0.102642 0.242945 0.673521
1208 4 0.117391 0.246513 0.693394
1106 4 0.144983 0.180077 0.747187
1105 2 0.128289 0.168343 0.732737
1064 4 0.214052 0.24601 0.68752
888 4 0.263149 0.18266 0.677769
1211 4 0.256884 0.199393 0.670539
886 2 0.280012 0.169766 0.690981
976 2 0.304781 0.176216 0.741823
1193 4 0.343732 0.224748 0.701897
1192 2 0.338845 0.229068 0.677759
1261 2 0.455848 0.192528 0.731099
1262 4 0.43994 0.18171 0.715127
3262 2 0.0481008 0.322082 0.677049
3264 4 0.0316616 0.318191 0.695483
893 4 0.0252367 0.31791 0.714118
1179 4 0.990529 0.263402 0.757008
948 4 0.196511 0.253791 0.683677
821 4 0.172655 0.274946 0.721561
820 2 0.173724 0.259107 0.740879
1065 4 0.230031 0.256526 0.733724
1063 2 0.222041 0.251268 0.710622
806 4 0.314686 0.324257 0.687622
917 4 0.290695 0.251708 0.74189
892 2 0.0236834 0.341588 0.721998
894 4 0.0221301 0.365266 0.729879
3276 4 0.0285949 0.383968 0.732513
814 2 0.0607115 0.383085 0.720004
816 4 0.0383936 0.371856 0.721007
815 4 0.0830293 0.394314 0.719
940 2 0.109697 0.403388 0.737301
942 4 0.089878 0.388146 0.737034
1029 4 0.228175 0.419659 0.67147
1019 4 0.381058 0.397232 0.720039
1018 2 0.359941 0.395828 0.733355
1020 4 0.338825 0.394425 0.74667
1280 4 0.0476986 0.477976 0.703577
1279 2 0.0290799 0.493034 0.710773
941 4 0.129516 0.418631 0.737569
1066 2 0.155749 0.42858 0.706908
1067 4 0.147988 0.420834 0.729379
1068 4 0.163511 0.436326 0.684437
1027 2 0.203691 0.421887 0.67602
1028 4 0.179206 0.424114 0.680571
1140 4 0.279495 0.485454 0.716949
1138 2 0.265975 0.470511 0.73175
1230 4 0.405751 0.443322 0.730215
3328 2 0.495277 0.460409 0.699712
1100 4 0.416475 0.443584 0.713655
1101 4 0.461576 0.460731 0.726794
1099 2 0.439026 0.452158 0.720225
1251 4 0.472945 0.476521 0.72818
3330 4 0.474603 0.464419 0.713191
1296 4 0.00945404 0.0300427 0.818853
2047 2 0.15403 0.00512411 0.783568
1201 2 0.14935 0.0625164 0.748487
1202 4 0.153619 0.0391523 0.756302
2049 4 0.147262 0.0245058 0.769295
2321 4 0.454064 0.0099919 0.793793
2322 4 0.469342 0.055299 0.779144
2320 2 0.461703 0.0326455 0.786469
846 4 0.475923 0.0701874 0.767141
862 2 0.0403912 0.10749 0.773325
863 4 0.0468421 0.112061 0.797046
832 2 0.0204621 0.101089 0.825677
833 4 0.0419321 0.108977 0.815577
1125 4 0.0512791 0.125233 0.810241
1123 2 0.044331 0.148467 0.81633
31 1 0.136409 0.150221 0.808614
35 3 0.14901 0.134124 0.798577
33 3 0.114864 0.149924 0.800004
32 3 0.13544 0.146085 0.831222
34 3 0.146014 0.171066 0.805206
1257 4 0.248007 0.0975546 0.749219
1255 2 0.261474 0.0896724 0.768755
1256 4 0.274942 0.0817902 0.788292
840 4 0.282 0.0849823 0.807247
838 2 0.292589 0.102403 0.821723
1112 4 0.376933 0.0859461 0.839092
844 2 0.464757 0.0889163 0.779378
845 4 0.453592 0.107645 0.791615
1072 2 0.0587096 0.247406 0.754692
1124 4 0.0373828 0.171701 0.82242
1130 4 0.140276 0.19355 0.76321
1129 2 0.159929 0.208874 0.761179
822 4 0.174792 0.243268 0.760197
1131 4 0.179581 0.224199 0.759149
920 4 0.226217 0.187027 0.8305
1277 4 0.188546 0.235836 0.772209
1276 2 0.195557 0.234915 0.796192
1278 4 0.202568 0.233995 0.820175
977 4 0.302982 0.187884 0.763864
918 4 0.297956 0.206707 0.762453
1298 4 0.301949 0.19961 0.779546
916 2 0.294325 0.229207 0.752171
1297 2 0.321404 0.195987 0.794829
1084 2 0.371857 0.185615 0.835102
50 3 0.403339 0.194393 0.773811
1086 4 0.356189 0.199766 0.821707