ITEM: TIMESTEP
2000000
ITEM: NUMBER OF ATOMS
4590
ITEM: BOX BOUNDS pp pp pp
-9.9985700000000008e+00 9.9985700000000008e+00
-9.9985700000000008e+00 9.9985700000000008e+00
-9.9985700000000008e+00 9.9985700000000008e+00
ITEM: ATOMS id type xs ys zs
701 4 0.0828416 0.0427235 0.00840577
465 4 0.0693177 0.0560355 0.0117742
463 2 0.0557688 0.0766457 0.0158763
700 2 0.10507 0.0488586 0.0180716
702 4 0.127299 0.0549937 0.0277373
566 4 0.137728 0.0696191 0.0188565
565 2 0.159642 0.0761629 0.028961
567 4 0.181557 0.0827067 0.0390654
2264 4 0.261549 0.0165004 0.0452334
2263 2 0.271718 0.0191488 0.0225454
491 4 0.273138 0.000721841 0.0489662
746 4 0.467805 0.0575208 0.0213635
2469 4 0.467313 0.0462838 0.0373851
2467 2 0.478835 0.0245596 0.041912
2468 4 0.490356 0.0028354 0.0464389
464 4 0.04222 0.0972559 0.0199785
590 4 0.0252571 0.096544 0.0315915
589 2 0.0193254 0.0990055 0.0557562
591 4 0.0133937 0.101467 0.079921
558 4 0.316046 0.115678 0.0535824
556 2 0.326451 0.112526 0.0760984
865 2 0.34745 0.165541 0.00746098
771 4 0.488458 0.125863 0.0627086
769 2 0.496953 0.145668 0.0753883
554 4 0.0484805 0.236533 0.0514597
553 2 0.0704805 0.231252 0.0408155
555 4 0.0924805 0.225972 0.0301713
835 2 0.111824 0.216613 0.00763491
836 4 0.0896689 0.22792 0.0101764
738 4 0.154106 0.184809 0.0821452
915 4 0.151266 0.215616 0.00450821
837 4 0.13398 0.205306 0.00509344
666 4 0.342856 0.241368 0.0538295
461 4 0.347088 0.246662 0.0713853
867 4 0.339598 0.176126 0.0287097
664 2 0.342038 0.217765 0.0456193
665 4 0.341221 0.194162 0.0374091
1070 4 0.446076 0.22212 0.0428359
1069 2 0.430381 0.241312 0.0460797
2806 2 0.00313988 0.297877 0.0325341
2808 4 0.026344 0.307042 0.0308733
294 4 0.0842568 0.310044 0.0485883
292 2 0.108599 0.314669 0.0519407
507 4 0.152596 0.312428 0.0584191
293 4 0.132942 0.319294 0.0552932
505 2 0.172175 0.327543 0.0547596
356 4 0.317562 0.310781 0.0336428
572 4 0.316558 0.290866 0.0269561
571 2 0.327911 0.275074 0.0426691
573 4 0.339265 0.259282 0.0583822
1071 4 0.414685 0.260503 0.0493235
324 4 0.42834 0.274405 0.0534719
322 2 0.43583 0.298261 0.0534024
323 4 0.44332 0.322116 0.0533328
620 4 0.00195855 0.363661 0.0650551
647 4 0.0213951 0.373858 0.0635236
646 2 0.0440387 0.369521 0.0732002
648 4 0.0666824 0.365184 0.0828768
483 4 0.200914 0.354555 0.0383326
506 4 0.191754 0.342658 0.0511001
481 2 0.222392 0.365771 0.0321636
609 4 0.247203 0.394496 0.0358686
482 4 0.243871 0.376987 0.0259945
625 2 0.218679 0.412383 0.0747812
355 2 0.309587 0.331313 0.0218095
607 2 0.265808 0.407644 0.0255647
357 4 0.301613 0.351844 0.00997622
902 4 0.28286 0.356053 0.0104125
957 4 0.385775 0.381405 0.0124392
672 4 0.43147 0.335805 0.0626441
670 2 0.450048 0.352383 0.0649242
281 4 0.484386 0.379328 0.0611471
671 4 0.468627 0.368961 0.0672044
2651 4 0.48581 0.361264 0.068061
280 2 0.478228 0.403248 0.057258
551 4 0.0654331 0.441583 0.0752978
550 2 0.0844915 0.45751 0.0781742
552 4 0.10355 0.473437 0.0810506
1787 4 0.1099 0.489711 0.0726262
1786 2 0.113535 0.492848 0.048088
246 4 0.256104 0.47639 0.0382818
244 2 0.246518 0.461587 0.0560063
245 4 0.236932 0.446784 0.0737309
627 4 0.237695 0.427522 0.0689136
272 4 0.250616 0.480527 0.0195616
608 4 0.284413 0.420792 0.0152607
252 4 0.296311 0.428692 0.00141645
250 2 0.313088 0.446631 0.00609876
1778 4 0.251524 0.494303 0.032178
251 4 0.329865 0.46457 0.0107811
282 4 0.472069 0.427167 0.0533689
226 2 0.481769 0.468853 0.0472485
228 4 0.485307 0.493465 0.049881
227 4 0.478232 0.444241 0.044616
16 1 0.0658722 0.0490017 0.132886
20 3 0.0558585 0.0562181 0.113747
1806 4 0.069177 0.0107585 0.147797
18 3 0.0619603 0.0263166 0.1358
19 3 0.0576677 0.0608544 0.151069
380 4 0.0576147 0.0804268 0.151767
17 3 0.0885562 0.0524992 0.131352
673 2 0.121916 0.0535973 0.158675
675 4 0.104983 0.0482469 0.141073
448 2 0.171175 0.0766534 0.164522
484 2 0.369069 0.0225223 0.109725
295 2 0.361827 0.0782561 0.101258
297 4 0.367149 0.0540852 0.104811
485 4 0.352329 0.0410257 0.108121
579 4 0.0936216 0.116997 0.0868688
237 4 0.144224 0.138836 0.126822
578 4 0.12635 0.134539 0.120363
577 2 0.109986 0.125768 0.103616
476 4 0.129326 0.150655 0.130233
737 4 0.136141 0.148692 0.111701
235 2 0.160889 0.12213 0.135091
475 2 0.121096 0.162826 0.150465
692 4 0.245086 0.0924936 0.1409
236 4 0.177553 0.105423 0.14336
693 4 0.19626 0.102627 0.144656
449 4 0.185098 0.0967728 0.15937
691 2 0.220673 0.0975603 0.142778
582 4 0.262958 0.0847153 0.144589
557 4 0.336856 0.109374 0.0986144
580 2 0.270089 0.0951681 0.166154
296 4 0.356505 0.102427 0.097704
311 4 0.444089 0.157405 0.12046
736 2 0.145124 0.16675 0.0969233
477 4 0.112866 0.174998 0.170696
283 2 0.32201 0.206681 0.129757
354 4 0.328834 0.244765 0.1354
285 4 0.310999 0.184311 0.131644
284 4 0.33302 0.22905 0.127869
462 4 0.337468 0.245132 0.120434
460 2 0.342278 0.245897 0.0959099
255 4 0.345495 0.239195 0.134822
254 4 0.387712 0.24442 0.161112
253 2 0.366604 0.241808 0.147967
310 2 0.446411 0.180212 0.130442
1012 2 0.494365 0.205207 0.100339
1013 4 0.490529 0.226219 0.113337
312 4 0.448733 0.203019 0.140423
629 4 0.435972 0.20142 0.156903
628 2 0.421175 0.221358 0.159851
611 4 0.23509 0.338713 0.0960494
352 2 0.310996 0.256799 0.148134
353 4 0.293158 0.268833 0.160868
754 2 0.282503 0.30354 0.150621
755 4 0.280932 0.283069 0.164892
278 4 0.274163 0.264568 0.162267
277 2 0.251216 0.259867 0.171016
756 4 0.284075 0.32401 0.136349
610 2 0.255191 0.329656 0.107844
612 4 0.275292 0.3206 0.119638
765 4 0.397254 0.25524 0.173734
456 4 0.0722429 0.352178 0.0980796
454 2 0.0971537 0.354247 0.0974876
455 4 0.122065 0.356316 0.0968957
626 4 0.199664 0.397245 0.0806488
537 4 0.215826 0.338822 0.0990287
535 2 0.203795 0.358885 0.0902007
536 4 0.191765 0.378948 0.0813726
741 4 0.389515 0.366532 0.10238
739 2 0.391017 0.374602 0.125997
740 4 0.392518 0.382672 0.149615
15 3 0.380702 0.377323 0.164309
385 2 0.360099 0.410282 0.158054
386 4 0.380486 0.395819 0.157474
495 4 0.400477 0.398126 0.158221
493 2 0.414091 0.416568 0.148234
1467 4 0.00363449 0.461178 0.0971077
1465 2 0.0230575 0.476891 0.0981112
1466 4 0.0424805 0.492605 0.0991147
1791 4 0.0399967 0.499801 0.116706
242 4 0.101403 0.49141 0.0894103
243 4 0.1377 0.489244 0.123741
241 2 0.119551 0.490327 0.106575
1438 2 0.167465 0.495812 0.147022
637 2 0.220946 0.478452 0.166782
639 4 0.196089 0.478614 0.164079
767 4 0.249068 0.475821 0.150619
303 4 0.294718 0.455059 0.132532
766 2 0.264408 0.464203 0.134653
768 4 0.279747 0.452585 0.118688
301 2 0.317484 0.449223 0.141066
387 4 0.339712 0.424746 0.158634
302 4 0.34025 0.443387 0.1496
494 4 0.427705 0.43501 0.138247
660 4 0.421637 0.450877 0.149672
658 2 0.43264 0.468965 0.162974
1422 4 0.0176004 0.00194627 0.223509
2480 4 0.00349772 0.0171529 0.224617
450 4 0.157252 0.0565339 0.169673
674 4 0.13885 0.0589477 0.176277
1505 4 0.152089 0.0469986 0.18488
1504 2 0.1639 0.0323637 0.201356
689 4 0.181536 0.999254 0.220951
1506 4 0.175712 0.0177287 0.217833
652 2 0.313986 0.0388097 0.174496
654 4 0.322235 0.0152067 0.174681
653 4 0.305737 0.0624127 0.17431
22 3 0.399348 0.0202688 0.206326
21 1 0.404874 0.0152175 0.228077
23 3 0.38893 0.0244248 0.242199
757 2 0.436429 0.064831 0.2222
25 3 0.42539 0.0238965 0.232813
759 4 0.435358 0.0406665 0.228533
350 4 0.444243 0.0264156 0.238345
379 2 0.0451752 0.0933606 0.169178
512 4 0.0322218 0.123849 0.194288
381 4 0.0327357 0.106294 0.186589
511 2 0.0501724 0.141242 0.194958
581 4 0.27722 0.105621 0.18772
30 3 0.289345 0.120556 0.18874
26 1 0.301046 0.138634 0.196152
27 3 0.29697 0.141616 0.218594
28 3 0.294306 0.157661 0.18471
29 3 0.323779 0.135164 0.193054
758 4 0.437499 0.0889955 0.215866
521 4 0.465325 0.147374 0.235873
520 2 0.486366 0.158504 0.228219
337 2 0.0738942 0.187804 0.177969
513 4 0.0681229 0.158635 0.195627
339 4 0.0491107 0.190801 0.176565
338 4 0.0986778 0.184807 0.179372
363 4 0.114102 0.194166 0.171965
362 4 0.12843 0.239445 0.187626
361 2 0.121266 0.216805 0.179795
372 4 0.146121 0.242283 0.197881
370 2 0.167482 0.248695 0.209184
723 4 0.240288 0.209482 0.249015
371 4 0.188843 0.255108 0.220487
630 4 0.406379 0.241296 0.162799
761 4 0.510635 0.22445 0.253292
750 4 0.0632882 0.310973 0.222608
395 4 0.0599204 0.294416 0.234484
748 2 0.0697178 0.310116 0.198461
749 4 0.0761473 0.309258 0.174313
300 4 0.133639 0.311418 0.210447
298 2 0.120699 0.320829 0.229661
299 4 0.107759 0.330241 0.248874
279 4 0.22827 0.255166 0.179765
401 4 0.220634 0.279331 0.235849
307 2 0.31273 0.285803 0.212846
309 4 0.329164 0.271918 0.200106
308 4 0.296296 0.299688 0.225586
497 4 0.29664 0.307053 0.244329
763 2 0.407869 0.274277 0.185986
764 4 0.418485 0.293313 0.198238
623 4 0.438918 0.297883 0.195069
622 2 0.461917 0.294595 0.204311
624 4 0.484916 0.291306 0.213553
262 2 0.0532413 0.395794 0.218269
263 4 0.0731327 0.381802 0.21246
602 4 0.0702378 0.375101 0.230126
264 4 0.0333499 0.409786 0.224077
601 2 0.0805352 0.356203 0.242854
290 4 0.162397 0.364289 0.186585
603 4 0.0908326 0.337304 0.255581
289 2 0.174932 0.385644 0.190053
291 4 0.187466 0.406999 0.193521
14 3 0.412498 0.394073 0.175538
11 1 0.396725 0.37779 0.180486
12 3 0.407192 0.357325 0.181376
13 3 0.38703 0.38216 0.201109
2860 2 0.463059 0.396811 0.247087
2862 4 0.480124 0.383894 0.260016
2861 4 0.445995 0.409728 0.234159
2618 4 0.0242133 0.421071 0.236636
2617 2 0.00421702 0.417822 0.251291
1775 4 0.151918 0.507382 0.232344
1439 4 0.180965 0.491892 0.1677
638 4 0.245802 0.478289 0.169484
416 4 0.183877 0.426149 0.196128
415 2 0.186216 0.449463 0.204855
1430 4 0.188678 0.492409 0.209395
417 4 0.188555 0.472777 0.213582
713 4 0.348991 0.50149 0.219635
659 4 0.443643 0.487052 0.176276
595 2 0.484712 0.478927 0.18364
596 4 0.462456 0.489002 0.178314
231 4 0.450425 0.49729 0.191643
645 4 0.498375 0.451646 0.194004
1799 4 0.0195335 0.0254818 0.301438
233 4 0.0171679 0.0412971 0.290187
1402 2 0.0561919 0.0376268 0.280708
1403 4 0.0350124 0.0343218 0.29358
1798 2 0.0155881 0.00873236 0.319579
1404 4 0.0773714 0.0409317 0.267836
1464 4 0.144435 0.00145305 0.291437
633 4 0.377954 0.0379491 0.320789
631 2 0.378703 0.0547503 0.302287
632 4 0.379453 0.0715514 0.283784
349 2 0.467407 0.0263662 0.247757
351 4 0.490571 0.0263168 0.25717
399 4 0.0556692 0.0978866 0.328804
397 2 0.0738903 0.113539 0.321863
545 4 0.136696 0.159933 0.257739
398 4 0.0921113 0.129191 0.314922
393 4 0.102653 0.142659 0.304644
392 4 0.12194 0.146683 0.258681
390 4 0.0924515 0.147951 0.319756
391 2 0.112297 0.144671 0.281663
249 4 0.2206 0.150257 0.32032
404 4 0.201027 0.1587 0.321639
247 2 0.214916 0.128863 0.331946
248 4 0.209231 0.107469 0.343572
444 4 0.000478571 0.225326 0.286785
442 2 0.00607781 0.249169 0.281747
544 2 0.159703 0.169353 0.260405
388 2 0.0878269 0.17209 0.32435
389 4 0.0832022 0.196228 0.328945
721 2 0.221081 0.19514 0.256128
403 2 0.196841 0.171718 0.300706
405 4 0.192655 0.184736 0.279773
546 4 0.182711 0.178773 0.263071
722 4 0.201875 0.180799 0.263241
378 4 0.285314 0.234347 0.31274
376 2 0.287071 0.215629 0.329225
420 4 0.416555 0.234596 0.253742
717 4 0.408586 0.252348 0.258132
331 2 0.466626 0.195794 0.309683
332 4 0.465657 0.209749 0.288958
418 2 0.432616 0.220659 0.266893
419 4 0.448678 0.206721 0.280045
760 2 0.487781 0.218802 0.261718
762 4 0.464927 0.213155 0.270143
333 4 0.467596 0.181839 0.330407
394 2 0.0441275 0.288557 0.252962
396 4 0.0283346 0.282698 0.27144
443 4 0.011677 0.273011 0.276709
365 4 0.0139347 0.292516 0.279703
677 4 0.138772 0.323132 0.320262
676 2 0.163129 0.328743 0.319597
510 4 0.22242 0.29132 0.300907
508 2 0.214927 0.313371 0.310006
400 2 0.224636 0.281378 0.260446
402 4 0.228638 0.283425 0.285042
509 4 0.207434 0.335422 0.319104
345 4 0.241715 0.287028 0.29919
678 4 0.187485 0.334353 0.318932
343 2 0.259467 0.269738 0.302521
344 4 0.277219 0.252448 0.305853
496 2 0.28202 0.31881 0.260857
498 4 0.267399 0.330566 0.277386
715 2 0.394615 0.267996 0.271738
716 4 0.380643 0.283644 0.285344
542 4 0.393095 0.284253 0.300903
541 2 0.386728 0.303939 0.314941
543 4 0.38036 0.323626 0.328979
547 2 0.0249517 0.385851 0.303551
548 4 0.00656938 0.373926 0.315595
549 4 0.0433341 0.397776 0.291507
777 4 0.0607582 0.407085 0.298816
407 4 0.0129795 0.355854 0.323845
734 4 0.107344 0.344712 0.262492
733 2 0.118578 0.336371 0.283214
735 4 0.129812 0.32803 0.303936
435 4 0.196888 0.351651 0.317147
728 4 0.3667 0.38596 0.275841
615 4 0.386676 0.342077 0.332021
727 2 0.368317 0.404143 0.292928
2537 4 0.499523 0.379369 0.265709
2538 4 0.480818 0.375487 0.311923
2536 2 0.49017 0.377428 0.288816
753 4 0.479362 0.355106 0.315243
775 2 0.0751067 0.424914 0.308886
776 4 0.0894552 0.442744 0.318956
414 4 0.10464 0.455496 0.314952
412 2 0.116204 0.476508 0.32202
413 4 0.127767 0.49752 0.329088
436 2 0.343113 0.449388 0.321665
729 4 0.369934 0.422327 0.310014
437 4 0.358724 0.438221 0.305639
1771 2 0.0235137 0.00791044 0.375338
1772 4 0.034908 0.0202156 0.393883
732 4 0.0666534 0.0525259 0.362277
2238 4 0.026444 0.038007 0.39734
369 4 0.0783043 0.0432542 0.375133
730 2 0.0550548 0.0725414 0.352789
367 2 0.0845361 0.0278663 0.393829
368 4 0.090768 0.0124784 0.412525
257 4 0.38764 0.0463555 0.334606
698 4 0.368957 0.041372 0.338332
697 2 0.360223 0.017955 0.337603
256 2 0.391856 0.0594266 0.355499
258 4 0.396071 0.0724977 0.376393
426 4 0.379613 0.0773114 0.387106
424 2 0.370033 0.0642212 0.406133
478 2 0.487885 0.0548774 0.338224
480 4 0.468476 0.0666723 0.348681
1428 4 0.455105 0.995256 0.402037
458 4 0.992669 0.141501 0.370467
317 4 0.0374346 0.105416 0.329763
731 4 0.0434563 0.0925569 0.3433
316 2 0.0221061 0.119222 0.343892
1701 4 0.1502 0.087268 0.372489
604 2 0.136225 0.104747 0.403621
605 4 0.153195 0.103125 0.385331
1699 2 0.170146 0.0972522 0.36119
1700 4 0.190092 0.107236 0.349892
600 4 0.240234 0.148856 0.388373
683 4 0.249804 0.134184 0.398721
682 2 0.272121 0.131398 0.409648
319 2 0.327999 0.135427 0.400714
320 4 0.310493 0.121124 0.411397
708 4 0.33735 0.161922 0.376801
321 4 0.345504 0.149731 0.39003
516 4 0.44802 0.131526 0.357267
575 4 0.455857 0.121901 0.372908
574 2 0.45849 0.124641 0.397621
514 2 0.453387 0.155475 0.352487
598 2 0.235761 0.170823 0.399446
599 4 0.231288 0.192791 0.410519
377 4 0.288828 0.196912 0.34571
707 4 0.306786 0.193128 0.352455
474 4 0.263678 0.236114 0.410989
706 2 0.322068 0.177525 0.364628
489 4 0.279171 0.183536 0.419632
515 4 0.458755 0.179423 0.347707
453 4 0.472981 0.191366 0.347375
451 2 0.488974 0.199765 0.364663
347 4 0.071465 0.331069 0.38224
618 4 0.0800422 0.314226 0.387328
408 4 0.0171499 0.32013 0.358589
275 4 0.144365 0.316974 0.364771
617 4 0.124821 0.316177 0.365154
616 2 0.102432 0.315201 0.376241
274 2 0.157794 0.31027 0.384769
473 4 0.246612 0.266491 0.375119
374 4 0.231093 0.271891 0.388042
276 4 0.171224 0.303566 0.404766
373 2 0.209263 0.283337 0.392241
375 4 0.187433 0.294783 0.39644
472 2 0.255145 0.251303 0.393054
346 2 0.0592016 0.340135 0.402054
406 2 0.0150647 0.337992 0.341217
433 2 0.198483 0.367722 0.336235
434 4 0.200077 0.383792 0.355324
502 2 0.293558 0.392296 0.39078
503 4 0.307773 0.40975 0.379896
336 4 0.326828 0.407669 0.379229
504 4 0.279343 0.374842 0.401665
334 2 0.350974 0.404838 0.385072
335 4 0.37512 0.402008 0.390915
240 4 0.378593 0.416324 0.404344
613 2 0.406714 0.357005 0.331128
751 2 0.481596 0.342481 0.336709
561 4 0.498834 0.326372 0.370169
752 4 0.48383 0.329855 0.358174
614 4 0.426752 0.371934 0.330235
668 4 0.313442 0.46383 0.416943
669 4 0.319247 0.422977 0.388693
667 2 0.316344 0.443404 0.402818
438 4 0.327503 0.460554 0.33769
3990 4 0.477313 0.494947 0.335112
1127 4 0.00947942 0.063141 0.458817
2237 4 0.0195871 0.0544922 0.444051
2236 2 0.0230155 0.0462496 0.420696
720 4 0.0281906 0.0678629 0.455524
718 2 0.0457519 0.0853867 0.458638
1782 4 0.0999691 0.0111156 0.429244
341 4 0.174202 0.00630437 0.499072
432 4 0.298821 0.00190471 0.500326
724 2 0.301848 0.0345809 0.473853
726 4 0.308775 0.0560816 0.463133
725 4 0.294922 0.0130801 0.484573
1182 4 0.312765 0.0744063 0.457079
1579 2 0.356371 0.00881663 0.423929
1580 4 0.365612 0.0320392 0.424626
425 4 0.360453 0.0511311 0.425161
642 4 0.476926 0.0813115 0.460874
2878 2 0.469024 0.0634337 0.491901
719 4 0.0633132 0.10291 0.461752
606 4 0.119254 0.106368 0.421912
1033 2 0.135811 0.135221 0.476709
1035 4 0.153243 0.148951 0.465186
1034 4 0.118379 0.121491 0.488233
261 4 0.146451 0.158391 0.447886
684 4 0.294438 0.128612 0.420574
1180 2 0.307142 0.0934216 0.441847
1181 4 0.30152 0.112437 0.426616
2880 4 0.464664 0.0830272 0.476993
640 2 0.46439 0.0985219 0.447766
641 4 0.451853 0.115732 0.434658
576 4 0.461123 0.127382 0.422334
306 4 0.443555 0.132962 0.428534
304 2 0.447061 0.150687 0.445818
470 4 0.0167068 0.184305 0.481353
259 2 0.159459 0.179656 0.449834
694 2 0.156295 0.229888 0.478323
696 4 0.141961 0.242338 0.494594
1260 4 0.127174 0.230021 0.489665
260 4 0.172467 0.20092 0.451782
695 4 0.170629 0.217439 0.462053
687 4 0.226359 0.204713 0.424918
686 4 0.1883 0.210691 0.4568
685 2 0.20733 0.207702 0.440859
488 4 0.279213 0.233357 0.423938
487 2 0.279192 0.208447 0.421785
411 4 0.254061 0.223471 0.461923
409 2 0.260642 0.213943 0.484083
467 4 0.358236 0.187696 0.421406
466 2 0.356209 0.21235 0.417764
468 4 0.354183 0.237004 0.414122
3157 2 0.482372 0.15956 0.486544
3158 4 0.461951 0.172411 0.479987
305 4 0.450568 0.168411 0.463101
813 4 0.220717 0.294326 0.491702
267 4 0.361912 0.255314 0.419846
265 2 0.355563 0.278735 0.425873
266 4 0.349213 0.302156 0.4319
585 4 0.458688 0.253996 0.454284
583 2 0.474132 0.261191 0.472583
2456 4 0.48352 0.287265 0.495312
348 4 0.0469382 0.3492 0.421869
2812 2 0.0139742 0.356468 0.436085
2813 4 0.0364317 0.364418 0.428494
326 4 0.0551092 0.364881 0.43072
325 2 0.0722425 0.378706 0.442574
10 3 0.133629 0.364571 0.45742
327 4 0.0893757 0.392531 0.454427
7 3 0.106597 0.389421 0.464102
6 1 0.119518 0.372765 0.473308
711 4 0.143149 0.396687 0.494728
8 3 0.131733 0.381624 0.490935
9 3 0.105605 0.35587 0.481013
634 2 0.20104 0.422757 0.455679
774 4 0.209578 0.387908 0.479556
635 4 0.20185 0.400353 0.466749
709 2 0.166963 0.394127 0.487552
772 2 0.227484 0.387492 0.497003
710 4 0.190778 0.391567 0.480375
586 2 0.391037 0.41648 0.480948
1383 4 0.0771189 0.466756 0.448503
1381 2 0.0750613 0.487915 0.435342
680 4 0.0682302 0.448529 0.443974
679 2 0.0751984 0.436479 0.464745
681 4 0.0821666 0.42443 0.485516
568 2 0.165766 0.453722 0.498726
569 4 0.158742 0.429732 0.499275
570 4 0.172791 0.477712 0.498177
636 4 0.20023 0.445162 0.444609
1 1 0.316105 0.495522 0.434896
5 3 0.295786 0.490024 0.443589
880 2 0.329978 0.50032 0.489902
4 3 0.326712 0.476492 0.426912
238 2 0.389314 0.421448 0.426343
239 4 0.400035 0.426573 0.448342
588 4 0.382938 0.424637 0.458744
3077 4 0.00511845 0.0168767 0.538671
1183 2 0.0174214 0.997046 0.564837
1150 2 0.161372 0.0649657 0.546822
342 4 0.144914 0.045178 0.51055
1152 4 0.153484 0.0517081 0.527144
340 2 0.159558 0.0257412 0.504811
1151 4 0.169259 0.0782233 0.566499
430 2 0.314264 0.000697749 0.519953
843 4 0.322798 0.00142081 0.558126
431 4 0.329708 0.999491 0.53958
842 4 0.355404 0.0305907 0.582347
841 2 0.339101 0.0160057 0.570237
1217 4 0.373832 0.038542 0.580481
1216 2 0.395875 0.0275586 0.576159
1218 4 0.417917 0.0165752 0.571837
2879 4 0.473384 0.0438402 0.50681
879 4 0.0765763 0.147709 0.545768
877 2 0.0523871 0.145072 0.551521
1199 4 0.00954804 0.150017 0.555326
878 4 0.0281979 0.142434 0.557275
938 4 0.0935372 0.140164 0.550235
937 2 0.103079 0.133139 0.528217
1272 4 0.0850411 0.152361 0.562709
1270 2 0.0961248 0.161211 0.5833
939 4 0.112622 0.126113 0.5062
1155 4 0.17771 0.0898346 0.579415
3159 4 0.502793 0.146709 0.493102
1259 4 0.0866252 0.205836 0.506145
1258 2 0.1069 0.217928 0.497905
898 2 0.283149 0.200447 0.544869
899 4 0.293173 0.206871 0.566856
900 4 0.273125 0.194024 0.522881
410 4 0.267222 0.204415 0.506244
791 4 0.310951 0.210483 0.571193
790 2 0.324194 0.231631 0.572796
857 4 0.298604 0.206947 0.585832
811 2 0.239628 0.302022 0.506135
812 4 0.258539 0.309718 0.520569
650 4 0.261199 0.313561 0.539059
649 2 0.264609 0.30982 0.563544
804 4 0.26959 0.325368 0.525798
871 2 0.365763 0.264163 0.542366
872 4 0.35261 0.257211 0.562463
792 4 0.337437 0.252779 0.574399
1238 4 0.34227 0.270759 0.570741
873 4 0.378915 0.271115 0.52227
2455 2 0.489652 0.31061 0.501837
584 4 0.489577 0.268385 0.490883
1136 4 0.102631 0.380462 0.575342
1135 2 0.126076 0.380069 0.566662
1137 4 0.149521 0.379675 0.557981
897 4 0.160737 0.394604 0.56578
384 4 0.142211 0.41634 0.495584
382 2 0.117785 0.42025 0.49923
773 4 0.24539 0.387077 0.514449
1190 4 0.251528 0.387089 0.533036
1189 2 0.237936 0.401692 0.548109
1191 4 0.224344 0.416294 0.563182
895 2 0.184249 0.402713 0.568349
802 2 0.263452 0.349426 0.522848
803 4 0.257313 0.373484 0.519898
930 4 0.263997 0.392122 0.518959
928 2 0.287354 0.401013 0.519723
929 4 0.310711 0.409903 0.520487
926 4 0.408669 0.408312 0.519166
587 4 0.399137 0.408322 0.503153
2457 4 0.495784 0.333955 0.508363
925 2 0.425688 0.390438 0.515161
927 4 0.442707 0.372564 0.511156
383 4 0.0933597 0.424159 0.502877
896 4 0.207762 0.410822 0.570919
1172 4 0.214183 0.42952 0.573681
1159 2 0.181455 0.500222 0.577982
891 4 0.305419 0.496604 0.523643
1952 4 0.313858 0.479783 0.525334
881 4 0.320961 0.492781 0.511971
1951 2 0.313468 0.45481 0.526512
1953 4 0.313077 0.429837 0.52769
1000 2 0.393134 0.488011 0.562281
1001 4 0.414395 0.478112 0.553612
661 2 0.407659 0.444987 0.527244
663 4 0.399445 0.424471 0.515548
662 4 0.415873 0.465503 0.538941
1911 4 0.419765 0.459131 0.556857
1909 2 0.428473 0.450409 0.578612
1332 4 0.431741 0.471775 0.548159
1330 2 0.451505 0.486533 0.544062
2374 2 0.14493 0.00591754 0.596368
1058 4 0.152532 0.0413191 0.618166
2375 4 0.147462 0.0230163 0.614435
1057 2 0.158082 0.0591756 0.601567
1059 4 0.163631 0.0770321 0.584968
950 4 0.244073 0.0242267 0.592762
949 2 0.250319 0.0332431 0.615231
951 4 0.256565 0.0422596 0.637701
1031 4 0.272285 0.0496104 0.649158
1030 2 0.268432 0.0741899 0.651643
43 3 0.425528 0.0825206 0.664429
808 2 0.492619 0.0772339 0.64804
1083 4 0.0255003 0.149673 0.671427
3179 4 0.0163455 0.15232 0.653619
3178 2 0.998242 0.166086 0.643231
1284 4 0.143983 0.0970124 0.646162
1221 4 0.157652 0.141928 0.604048
1282 2 0.136242 0.104125 0.668849
1153 2 0.176858 0.111827 0.591279
1154 4 0.176005 0.13382 0.603144
1219 2 0.170797 0.158902 0.616865
1032 4 0.264578 0.0987694 0.654128
1209 4 0.0848603 0.209104 0.653377
1245 4 0.0890121 0.220289 0.636501
1271 4 0.107208 0.170061 0.603892
1243 2 0.0959103 0.204566 0.618324
1244 4 0.102808 0.188843 0.600147
1210 2 0.218169 0.177757 0.656748
1212 4 0.198788 0.178458 0.640967
1220 4 0.183941 0.175877 0.629681
797 4 0.209348 0.235477 0.608841
796 2 0.203256 0.212922 0.617749
798 4 0.197164 0.190367 0.626657
856 2 0.280861 0.197223 0.600523
858 4 0.263119 0.187499 0.615214
905 4 0.471171 0.2473 0.612589
3121 2 0.479495 0.219204 0.631217
3122 4 0.49008 0.210435 0.652103
3357 4 0.493944 0.192772 0.662444
3123 4 0.468911 0.227973 0.61033
983 4 0.0329348 0.288608 0.597406
982 2 0.0416025 0.305622 0.613547
984 4 0.0502703 0.322637 0.629689
3263 4 0.0532215 0.326387 0.648676
651 4 0.268019 0.306078 0.58803
805 2 0.300564 0.312886 0.623058
806 4 0.277721 0.322762 0.620639
807 4 0.323407 0.30301 0.625477
1239 4 0.330341 0.303573 0.60654
1237 2 0.336305 0.287166 0.58864
906 4 0.457617 0.29424 0.601929
904 2 0.464394 0.27077 0.607259
952 2 0.489622 0.321138 0.593116
953 4 0.476236 0.303981 0.605429
1041 4 0.0588036 0.339628 0.63562
1039 2 0.0583009 0.36284 0.62634
1040 4 0.0577981 0.386052 0.61706
993 4 0.0523641 0.404924 0.620395
1029 4 0.206669 0.406783 0.627027
1027 2 0.195742 0.413135 0.648601
1206 4 0.485368 0.413991 0.618843
3309 4 0.487876 0.39823 0.606958
3307 2 0.49671 0.37676 0.597677
991 2 0.0408087 0.420487 0.604602
992 4 0.0292532 0.436051 0.588809
1171 2 0.206909 0.450237 0.585641
1160 4 0.196159 0.488938 0.594764
1173 4 0.199634 0.470954 0.597602
1188 4 0.18385 0.478123 0.657039
1187 4 0.184916 0.478416 0.607044
1186 2 0.184383 0.47827 0.632041
1268 4 0.398774 0.478667 0.640716
2168 4 0.406052 0.490475 0.6561
1267 2 0.415622 0.464041 0.62943
1204 2 0.461913 0.422553 0.617544
1910 4 0.437182 0.441686 0.600366
1269 4 0.43247 0.449415 0.618143
1205 4 0.438457 0.431116 0.616246
1296 4 0.00484279 0.0367891 0.736549
1226 4 0.161387 0.0729749 0.732598
1148 4 0.173683 0.0811911 0.74452
1203 4 0.173653 0.0620629 0.743285
1003 2 0.331608 0.0325315 0.696256
1005 4 0.32318 0.0536635 0.685883
1004 4 0.340036 0.0113995 0.706629
810 4 0.477178 0.0805194 0.66743
45 3 0.441545 0.0524337 0.680425
1162 2 0.491293 0.0741704 0.702103
42 3 0.431848 0.0816911 0.701469
41 1 0.440018 0.0751494 0.680985
1163 4 0.478857 0.0882235 0.68558
44 3 0.460999 0.0845731 0.67792
1077 4 0.0384184 0.0936242 0.746344
1081 2 0.0321345 0.125826 0.674959
1075 2 0.0395589 0.0940332 0.72137
1076 4 0.0406995 0.0944422 0.696396
1082 4 0.0387686 0.101978 0.678491
852 4 0.0331104 0.15814 0.71915
909 4 0.0921148 0.161513 0.702316
907 2 0.104441 0.139818 0.703922
908 4 0.116767 0.118123 0.705529
1283 4 0.1285 0.111237 0.691535
1227 4 0.13191 0.107067 0.710928
1225 2 0.146649 0.0900208 0.721763
1211 4 0.23755 0.177055 0.67253
888 4 0.256628 0.16821 0.673373
886 2 0.271408 0.164075 0.693112
829 2 0.326521 0.147213 0.722552
830 4 0.302229 0.152483 0.719847
887 4 0.286188 0.159941 0.712851
978 4 0.289288 0.159366 0.732336
831 4 0.350813 0.141944 0.725258
1142 4 0.362567 0.152578 0.73672
1141 2 0.379654 0.164419 0.722826
1025 4 0.459124 0.155286 0.693265
3424 2 0.473664 0.122413 0.680554
3426 4 0.471853 0.0991179 0.671652
3425 4 0.475475 0.145707 0.689457
3269 4 0.475741 0.158809 0.703887
3268 2 0.48568 0.168108 0.724861
851 4 0.0790866 0.174128 0.707693
850 2 0.0560985 0.166134 0.713421
780 4 0.0784796 0.248275 0.716167
1214 4 0.0241119 0.165848 0.736193
1213 2 0.00677255 0.183295 0.74068
1208 4 0.0905837 0.178612 0.692597
1207 2 0.087722 0.193858 0.672987
1107 4 0.0972546 0.17775 0.711218
1105 2 0.108122 0.195558 0.724999
1106 4 0.11899 0.213367 0.73878
1130 4 0.136647 0.21313 0.72753
1129 2 0.152259 0.221393 0.745226
976 2 0.28627 0.178234 0.748463
1193 4 0.407762 0.23467 0.674469
1194 4 0.403432 0.192783 0.70144
1192 2 0.405597 0.213726 0.687955
1143 4 0.396741 0.176259 0.708933
1262 4 0.408628 0.187754 0.719813
1026 4 0.41582 0.177835 0.704084
1261 2 0.419975 0.19683 0.740162
1024 2 0.437472 0.166561 0.698675
3270 4 0.495619 0.177407 0.745836
3262 2 0.0551821 0.317168 0.671835
3264 4 0.0571427 0.307949 0.694994
779 4 0.0627857 0.295011 0.707793
778 2 0.0706326 0.271643 0.71198
893 4 0.0509536 0.310049 0.713548
892 2 0.0471909 0.323884 0.734032
947 4 0.313683 0.258949 0.722538
1063 2 0.252629 0.315204 0.699424
946 2 0.300689 0.273579 0.706972
948 4 0.287695 0.288209 0.691406
1064 4 0.270815 0.298691 0.694759
917 4 0.302947 0.255006 0.739999
1008 4 0.434438 0.293376 0.719538
1006 2 0.43738 0.289934 0.744128
1067 4 0.132377 0.411043 0.704289
940 2 0.113451 0.392371 0.733619
941 4 0.133234 0.40056 0.720706
1066 2 0.156003 0.411281 0.696108
942 4 0.0936671 0.384182 0.746531
1028 4 0.184815 0.419488 0.670175
1065 4 0.234442 0.331717 0.704089
1068 4 0.179629 0.411519 0.687928
1019 4 0.397896 0.419301 0.752407
1176 4 0.150076 0.445746 0.688353
1174 2 0.164811 0.464879 0.681874
1175 4 0.179546 0.484013 0.675396
1139 4 0.321145 0.485114 0.701855
1138 2 0.325693 0.478326 0.725486
1140 4 0.330241 0.471537 0.749116
1230 4 0.386635 0.434928 0.746695
1100 4 0.396302 0.423852 0.733746
1228 2 0.363908 0.445352 0.746546
1101 4 0.441756 0.441229 0.722224
1099 2 0.419029 0.43254 0.727985
3330 4 0.455953 0.453617 0.723849
1251 4 0.444809 0.44762 0.740001
3328 2 0.477346 0.459775 0.712465
3329 4 0.498739 0.465933 0.701081
1295 4 0.00286446 0.00528025 0.77533
1294 2 0.00385363 0.0210347 0.755939
1201 2 0.175715 0.0391473 0.753073
2256 4 0.191661 0.00217487 0.758771
1202 4 0.177777 0.0162317 0.762861
2049 4 0.178073 0.998758 0.771379
2322 4 0.457477 0.0412688 0.76509
2320 2 0.463533 0.0190503 0.774829
846 4 0.47163 0.0551196 0.764917
844 2 0.468306 0.0782293 0.773866
864 4 0.0487299 0.11054 0.751559
862 2 0.0481554 0.117706 0.775507
863 4 0.0475809 0.124871 0.799455
833 4 0.0416789 0.135809 0.815164
1125 4 0.0521387 0.143834 0.800819
1123 2 0.0727274 0.156439 0.807332
832 2 0.0327116 0.120632 0.832896
34 3 0.140852 0.166165 0.833142
1147 2 0.195769 0.0909612 0.750994
1149 4 0.217855 0.100731 0.757469
1257 4 0.233438 0.113344 0.765362
1255 2 0.248578 0.116099 0.785069
921 4 0.220036 0.144304 0.811298
919 2 0.20614 0.165016 0.809546
1256 4 0.263718 0.118853 0.804776
840 4 0.269763 0.132327 0.817968
845 4 0.464982 0.101339 0.782814
1073 4 0.0873557 0.183824 0.824704
1124 4 0.093316 0.169043 0.813845
35 3 0.104332 0.174513 0.829365
822 4 0.159902 0.243691 0.774501
1131 4 0.16787 0.229656 0.762923
1277 4 0.169299 0.228341 0.782335
1276 2 0.184608 0.215604 0.797453
1278 4 0.199917 0.202867 0.812572
1241 4 0.191914 0.192626 0.826797
920 4 0.192243 0.185728 0.807793
916 2 0.295348 0.235351 0.753458
977 4 0.283252 0.197101 0.764591
918 4 0.287749 0.215697 0.766917
1298 4 0.285898 0.203798 0.782775
1297 2 0.303758 0.196309 0.79859
1299 4 0.321618 0.18882 0.814405
1086 4 0.329328 0.204768 0.823901
50 3 0.393571 0.216027 0.788973
46 1 0.414842 0.214044 0.796863
49 3 0.422245 0.234513 0.804901
48 3 0.415568 0.198164 0.813766
47 3 0.428675 0.20733 0.779754
1263 4 0.431322 0.205906 0.76051
1146 4 0.487259 0.185749 0.76177
1145 4 0.446261 0.212508 0.771959
1144 2 0.46676 0.199129 0.766865
1022 4 0.427564 0.183681 0.814319
1021 2 0.446942 0.183916 0.830118
3188 4 0.0171157 0.255716 0.776803
3187 2 0.0196677 0.269992 0.797172
3189 4 0.0222197 0.284267 0.817541
821 4 0.181859 0.287309 0.785273
820 2 0.170881 0.2655 0.779887
1098 4 0.228226 0.308734 0.819576
1235 4 0.234893 0.318868 0.803761
1234 2 0.23042 0.334177 0.784505
1043 4 0.41645 0.253466 0.811741
1042 2 0.429016 0.27138 0.799644
1044 4 0.441583 0.289294 0.787546
1007 4 0.440322 0.286491 0.768718
1165 2 0.480573 0.277386 0.780918
1166 4 0.458095 0.287039 0.775744
894 4 0.0434283 0.337719 0.754517
3276 4 0.0258071 0.343957 0.757878
814 2 0.0583696 0.371222 0.760531