ITEM: TIMESTEP
1820000
ITEM: NUMBER OF ATOMS
4590
ITEM: BOX BOUNDS pp pp pp
-9.9985700000000008e+00 9.9985700000000008e+00
-9.9985700000000008e+00 9.9985700000000008e+00
-9.9985700000000008e+00 9.9985700000000008e+00
ITEM: ATOMS id type xs ys zs
701 4 0.0789572 0.0746013 0.0208799
465 4 0.0699476 0.0707398 0.00412232
700 2 0.097655 0.0645181 0.0340669
702 4 0.116353 0.0544349 0.047254
566 4 0.132748 0.0621713 0.0368531
565 2 0.155739 0.0598667 0.0272988
567 4 0.17873 0.057562 0.0177445
491 4 0.288477 0.0113784 0.0529996
2264 4 0.275704 0.0172324 0.0375877
2263 2 0.275379 0.0398349 0.0269013
2265 4 0.275054 0.0624375 0.0162149
746 4 0.465384 0.0520787 0.0218186
2469 4 0.471729 0.0388079 0.0367568
2467 2 0.476181 0.0162301 0.0465343
463 2 0.0513174 0.0856984 0.0114936
464 4 0.0326872 0.100657 0.0188649
590 4 0.0210443 0.105945 0.0346215
589 2 0.00539526 0.112308 0.0530553
359 4 0.243848 0.113152 0.993496
558 4 0.311259 0.0976029 0.0427123
556 2 0.314624 0.0966996 0.067472
557 4 0.317988 0.0957963 0.0922317
358 2 0.263633 0.12698 0.986974
865 2 0.357837 0.154224 0.019499
771 4 0.468926 0.132121 0.0618337
769 2 0.480371 0.150331 0.0745856
554 4 0.0539035 0.217762 0.0572773
553 2 0.0632143 0.229957 0.037535
555 4 0.0725251 0.242152 0.0177926
837 4 0.139822 0.230892 0.00418259
835 2 0.115888 0.235927 0.00937775
836 4 0.0919542 0.240961 0.0145729
915 4 0.157266 0.226185 0.998231
738 4 0.16792 0.176212 0.0747947
573 4 0.321109 0.241529 0.05328
666 4 0.323941 0.224659 0.0613379
461 4 0.328312 0.240776 0.0715589
867 4 0.34692 0.1619 0.0406432
665 4 0.33854 0.180069 0.0440358
664 2 0.33124 0.202364 0.0526869
1070 4 0.401951 0.214717 0.0237256
1069 2 0.398824 0.236124 0.036261
770 4 0.491815 0.16854 0.0873374
294 4 0.0804808 0.302248 0.0416856
292 2 0.103332 0.312336 0.0428032
507 4 0.142689 0.316072 0.052075
293 4 0.126182 0.322425 0.0439208
356 4 0.325231 0.305758 0.0336274
572 4 0.324356 0.285272 0.0292653
355 2 0.318335 0.323262 0.0171591
571 2 0.322732 0.263401 0.0412726
1071 4 0.395696 0.257531 0.0487964
324 4 0.402934 0.274994 0.0572742
322 2 0.418958 0.293569 0.0621103
672 4 0.452157 0.321439 0.0687989
323 4 0.434982 0.312144 0.0669464
620 4 0.00263078 0.369405 0.0608262
647 4 0.0157943 0.358187 0.0718012
646 2 0.0338744 0.345666 0.0836969
505 2 0.161203 0.332676 0.0546686
483 4 0.190411 0.351231 0.041056
506 4 0.179717 0.349279 0.0572622
481 2 0.203377 0.370857 0.0325772
609 4 0.232813 0.40192 0.024621
482 4 0.216342 0.390483 0.0240985
607 2 0.252085 0.411253 0.0375293
608 4 0.271358 0.420587 0.0504375
902 4 0.293878 0.350799 0.998874
957 4 0.393524 0.37848 0.0165926
670 2 0.459095 0.344564 0.0753013
280 2 0.473226 0.407863 0.0737509
281 4 0.476701 0.383305 0.0769154
671 4 0.466034 0.367689 0.0818036
1467 4 0.99977 0.45311 0.0795002
552 4 0.0876417 0.484739 0.0813492
1787 4 0.0918805 0.494055 0.0644217
246 4 0.254239 0.500624 0.0339663
252 4 0.27944 0.434135 0.0393613
244 2 0.251779 0.481864 0.0503117
245 4 0.249318 0.463103 0.066657
250 2 0.292485 0.452228 0.0280632
251 4 0.305531 0.47032 0.0167651
2289 4 0.334636 0.491578 0.994161
282 4 0.469751 0.432421 0.0705864
226 2 0.478795 0.466808 0.0428995
228 4 0.484343 0.487134 0.0294373
227 4 0.473247 0.446481 0.0563616
563 4 0.468691 0.498834 0.0319775
16 1 0.0605542 0.0571628 0.142045
20 3 0.0596967 0.0699967 0.123251
1806 4 0.0539496 0.0195064 0.143757
18 3 0.0484565 0.0376225 0.138847
1804 2 0.0524538 0.00538106 0.12318
19 3 0.0519414 0.0689497 0.16008
17 3 0.0824523 0.0517064 0.146501
450 4 0.152861 0.0514498 0.159895
448 2 0.167925 0.0680778 0.148861
652 2 0.320681 0.0380941 0.140393
654 4 0.324862 0.013444 0.140654
653 4 0.3165 0.0627443 0.140132
484 2 0.373834 0.0168126 0.108351
295 2 0.352686 0.0721114 0.101385
297 4 0.367687 0.053089 0.107572
485 4 0.357928 0.0357001 0.112283
2483 4 0.000758042 0.127992 0.157043
579 4 0.096962 0.104968 0.118666
237 4 0.152461 0.141758 0.126345
578 4 0.135197 0.137187 0.117815
577 2 0.11608 0.121078 0.11824
476 4 0.13564 0.151596 0.129853
737 4 0.14417 0.153507 0.112492
235 2 0.168361 0.123161 0.131493
236 4 0.184261 0.104564 0.13664
693 4 0.199391 0.0934604 0.131292
449 4 0.182989 0.0847057 0.137826
691 2 0.223566 0.0928532 0.137648
692 4 0.24774 0.0922459 0.144005
582 4 0.252209 0.107078 0.15626
580 2 0.275901 0.11176 0.162734
581 4 0.299594 0.116441 0.169207
296 4 0.337684 0.0911338 0.0951985
311 4 0.444178 0.140684 0.149027
339 4 0.0499681 0.198988 0.150789
337 2 0.0745197 0.199428 0.155501
475 2 0.123292 0.168894 0.143024
736 2 0.156045 0.16486 0.0936436
477 4 0.110944 0.186192 0.156196
338 4 0.0990712 0.199868 0.160214
283 2 0.319739 0.199339 0.133252
354 4 0.325077 0.241047 0.130899
285 4 0.315779 0.17502 0.137501
284 4 0.323698 0.223659 0.129002
352 2 0.306355 0.254895 0.140005
460 2 0.332359 0.236819 0.0959135
462 4 0.336405 0.232861 0.120268
255 4 0.337642 0.230327 0.137467
254 4 0.376985 0.23352 0.16817
253 2 0.357314 0.231924 0.152819
1012 2 0.483967 0.205995 0.107633
1013 4 0.482094 0.230155 0.113796
310 2 0.430966 0.161733 0.146276
1014 4 0.48584 0.181836 0.101469
312 4 0.417755 0.182782 0.143526
456 4 0.0686467 0.324971 0.102158
648 4 0.0519545 0.333144 0.0955926
454 2 0.0929557 0.329546 0.0985085
455 4 0.117265 0.334121 0.0948587
612 4 0.250274 0.339021 0.122661
353 4 0.287634 0.268743 0.149111
754 2 0.275391 0.305527 0.137162
755 4 0.288585 0.28835 0.149655
278 4 0.278913 0.27833 0.163093
756 4 0.262197 0.322704 0.12467
277 2 0.261408 0.261845 0.169946
537 4 0.192117 0.361778 0.107348
535 2 0.191726 0.385644 0.0999005
611 4 0.201834 0.351128 0.119887
610 2 0.226054 0.345075 0.121274
536 4 0.191334 0.409509 0.0924532
741 4 0.373399 0.363464 0.091207
739 2 0.379904 0.373961 0.112948
740 4 0.386408 0.384458 0.134689
15 3 0.380233 0.375518 0.150293
385 2 0.354067 0.404968 0.151254
386 4 0.376469 0.394508 0.147523
495 4 0.395161 0.399391 0.143311
11 1 0.398643 0.377214 0.163591
12 3 0.412835 0.359662 0.159157
14 3 0.409745 0.39712 0.159241
2651 4 0.484693 0.36961 0.0885277
1465 2 0.0174032 0.464803 0.0928252
1466 4 0.035036 0.476495 0.10615
1791 4 0.0528384 0.474516 0.113779
1789 2 0.0502364 0.493926 0.129325
551 4 0.0825672 0.434994 0.0807504
550 2 0.0851044 0.459867 0.0810498
242 4 0.102184 0.498059 0.0796247
625 2 0.22463 0.439358 0.0850225
626 4 0.204746 0.424204 0.0854336
638 4 0.236255 0.479228 0.152803
627 4 0.244513 0.454512 0.0846114
302 4 0.334882 0.431886 0.14744
303 4 0.296407 0.463322 0.141763
766 2 0.262067 0.460354 0.143878
768 4 0.282122 0.458623 0.129047
301 2 0.315645 0.447604 0.144601
387 4 0.331665 0.415428 0.154986
493 2 0.404241 0.42029 0.133016
494 4 0.413321 0.441188 0.122721
660 4 0.420246 0.457128 0.132597
658 2 0.429613 0.469733 0.152053
2480 4 0.0128342 0.0188145 0.215618
1422 4 0.030905 0.0103876 0.218326
1505 4 0.159657 0.0513303 0.177842
673 2 0.118262 0.0446955 0.168193
675 4 0.0940067 0.0463627 0.162356
674 4 0.142518 0.0430283 0.17403
1504 2 0.166311 0.0358499 0.196315
689 4 0.190608 0.0238071 0.224009
1506 4 0.172964 0.0203694 0.214789
22 3 0.380499 0.0145114 0.214223
758 4 0.415186 0.0812878 0.211153
757 2 0.416497 0.0590156 0.22244
21 1 0.395896 0.00812232 0.230074
25 3 0.415335 0.019484 0.226657
759 4 0.417808 0.0367434 0.233728
350 4 0.432618 0.0253987 0.234038
349 2 0.456269 0.0238304 0.241996
351 4 0.47992 0.0222622 0.249955
380 4 0.0636093 0.0749543 0.176776
379 2 0.0612868 0.0933375 0.193564
512 4 0.0445446 0.123704 0.219915
381 4 0.0589643 0.111721 0.210352
511 2 0.047251 0.144774 0.206727
30 3 0.298891 0.136445 0.176048
26 1 0.313944 0.138952 0.192953
29 3 0.327697 0.120302 0.194138
27 3 0.302663 0.141152 0.212879
28 3 0.326715 0.158 0.189421
521 4 0.471944 0.148089 0.207689
520 2 0.491549 0.163524 0.209286
513 4 0.0499575 0.165844 0.19354
363 4 0.105829 0.187884 0.174521
362 4 0.130678 0.217289 0.206437
361 2 0.118253 0.202587 0.190479
372 4 0.14928 0.218431 0.215067
370 2 0.158161 0.240729 0.222074
545 4 0.127843 0.157066 0.246526
721 2 0.210863 0.169679 0.241356
723 4 0.228101 0.16262 0.224676
628 2 0.4035 0.206385 0.168049
630 4 0.39475 0.229067 0.173892
765 4 0.389643 0.248141 0.172705
629 4 0.412251 0.183703 0.162205
394 2 0.0436932 0.307076 0.245192
750 4 0.0680105 0.314781 0.208529
748 2 0.0847254 0.299036 0.198636
395 4 0.0570533 0.31019 0.224288
396 4 0.0303331 0.303962 0.266096
749 4 0.10144 0.283291 0.188743
300 4 0.14228 0.328817 0.199125
298 2 0.124592 0.334404 0.215891
371 4 0.167043 0.263027 0.229081
279 4 0.243902 0.245359 0.1768
307 2 0.311694 0.302568 0.208705
309 4 0.312161 0.283323 0.192748
308 4 0.311226 0.321812 0.224661
763 2 0.406338 0.266534 0.169853
764 4 0.423033 0.284928 0.167001
623 4 0.432236 0.29563 0.181898
528 4 0.499166 0.29605 0.201409
622 2 0.456386 0.296453 0.188323
624 4 0.480536 0.297277 0.194748
2618 4 0.00570357 0.400482 0.22537
262 2 0.0417743 0.399264 0.208978
263 4 0.066057 0.393344 0.208283
602 4 0.0731421 0.388367 0.226714
299 4 0.106905 0.339991 0.232657
603 4 0.109678 0.357221 0.240705
601 2 0.0914099 0.372794 0.233709
290 4 0.190491 0.362786 0.193003
289 2 0.188043 0.384616 0.204945
291 4 0.185595 0.406447 0.216887
13 3 0.392389 0.376348 0.185919
2861 4 0.451672 0.409786 0.242763
264 4 0.0174915 0.405183 0.209673
767 4 0.242011 0.462085 0.158709
416 4 0.176295 0.419638 0.206504
415 2 0.179411 0.443916 0.211604
1430 4 0.197349 0.479995 0.213062
417 4 0.182527 0.468195 0.216704
713 4 0.367273 0.478149 0.242536
712 2 0.382862 0.497295 0.238586
659 4 0.438981 0.482339 0.171509
597 4 0.49933 0.470066 0.201884
595 2 0.476815 0.475623 0.192537
596 4 0.4543 0.48118 0.183189
231 4 0.439516 0.492585 0.188286
1568 4 0.451192 0.49756 0.173912
1799 4 0.0188677 0.0283211 0.305784
233 4 0.0188057 0.0444113 0.294889
1402 2 0.0569922 0.0298067 0.284203
1403 4 0.035289 0.0337284 0.295983
232 2 0.00080878 0.061548 0.292128
1798 2 0.0124099 0.0158413 0.326466
1404 4 0.0786953 0.0258849 0.272422
23 3 0.387459 0.0130191 0.251128
697 2 0.36458 0.0163852 0.337942
633 4 0.374465 0.0509249 0.319744
631 2 0.37065 0.0670051 0.300981
698 4 0.374654 0.0391171 0.335304
743 4 0.494753 0.0244343 0.315783
744 4 0.4893 0.0262744 0.266108
742 2 0.492026 0.0253543 0.290945
479 4 0.489153 0.034181 0.33098
478 2 0.472996 0.0528391 0.334981
399 4 0.0522272 0.104821 0.325886
397 2 0.0682905 0.123212 0.320511
398 4 0.0843537 0.141604 0.315136
392 4 0.110437 0.150901 0.252314
393 4 0.0900512 0.146389 0.297754
390 4 0.0967786 0.156991 0.3128
391 2 0.100244 0.148645 0.275034
388 2 0.106537 0.162231 0.335216
404 4 0.194367 0.167071 0.320822
403 2 0.187916 0.169617 0.2968
632 4 0.366835 0.0830853 0.282218
444 4 0.0281547 0.237607 0.27269
544 2 0.151482 0.164206 0.250449
546 4 0.175121 0.171347 0.254373
722 4 0.193624 0.176738 0.258035
405 4 0.181465 0.172164 0.272777
378 4 0.301543 0.238317 0.335771
420 4 0.407389 0.232932 0.264862
331 2 0.452887 0.191653 0.309416
332 4 0.44907 0.203321 0.287634
418 2 0.427488 0.218181 0.266769
419 4 0.447586 0.20343 0.268675
760 2 0.488598 0.208448 0.268563
762 4 0.465293 0.205944 0.277266
443 4 0.0234719 0.286246 0.262061
365 4 0.0163479 0.297533 0.276845
442 2 0.0258133 0.261926 0.267375
510 4 0.2479 0.302113 0.319461
508 2 0.228621 0.317922 0.321361
400 2 0.246019 0.282065 0.280417
402 4 0.246687 0.292108 0.303305
497 4 0.313143 0.321501 0.245955
401 4 0.245351 0.272023 0.257528
345 4 0.251873 0.282701 0.319572
496 2 0.297553 0.310811 0.262322
498 4 0.281964 0.30012 0.278688
343 2 0.270522 0.267984 0.327369
715 2 0.401265 0.270734 0.271483
716 4 0.396214 0.289419 0.287312
717 4 0.406316 0.252049 0.255655
542 4 0.39971 0.295484 0.305084
541 2 0.409047 0.314968 0.317669
547 2 0.0276821 0.395307 0.31363
548 4 0.0159828 0.373209 0.313682
549 4 0.0393814 0.417404 0.313578
734 4 0.113389 0.341492 0.251748
733 2 0.123436 0.34674 0.274034
735 4 0.133484 0.351988 0.29632
677 4 0.143382 0.342368 0.312049
509 4 0.209343 0.333731 0.323261
676 2 0.167055 0.340686 0.31992
435 4 0.205523 0.351237 0.330953
728 4 0.355971 0.388918 0.273649
727 2 0.351152 0.410226 0.285813
615 4 0.423403 0.353683 0.330336
2860 2 0.473952 0.400036 0.248571
543 4 0.418383 0.334452 0.330254
2538 4 0.476598 0.359831 0.30817
2536 2 0.489257 0.36859 0.288467
2537 4 0.501915 0.377349 0.268763
2862 4 0.496232 0.390287 0.254379
753 4 0.489043 0.344806 0.309382
777 4 0.035012 0.437592 0.317639
775 2 0.0598419 0.440299 0.316488
776 4 0.0846718 0.443007 0.315338
1775 4 0.13303 0.506632 0.249882
414 4 0.0885997 0.461878 0.307818
412 2 0.105885 0.479319 0.312526
1543 2 0.161756 0.501114 0.322168
413 4 0.123171 0.496761 0.317234
1544 4 0.138025 0.502596 0.329902
1545 4 0.185487 0.499632 0.314433
438 4 0.299816 0.462542 0.323828
436 2 0.320199 0.456394 0.310717
729 4 0.346334 0.431533 0.297977
437 4 0.340582 0.450246 0.297605
1771 2 0.0216857 0.999909 0.382165
1772 4 0.0334886 0.00841144 0.402502
732 4 0.0681356 0.0725758 0.381349
2238 4 0.0262162 0.0228834 0.413591
369 4 0.076303 0.05541 0.386246
730 2 0.0594088 0.0876176 0.363384
367 2 0.0921867 0.0387596 0.396027
368 4 0.10807 0.0221091 0.405807
1701 4 0.189543 0.0785641 0.383367
605 4 0.171495 0.0867036 0.38119
1699 2 0.198431 0.0906989 0.363394
256 2 0.393227 0.062723 0.355423
257 4 0.387936 0.0529274 0.333035
258 4 0.398519 0.0725187 0.377811
426 4 0.406216 0.0683733 0.396028
424 2 0.395857 0.0516717 0.411486
1428 4 0.456677 0.992371 0.41845
480 4 0.45684 0.0714973 0.338982
317 4 0.0355286 0.110251 0.335098
458 4 0.0151619 0.148143 0.371841
731 4 0.0506819 0.102659 0.345418
316 2 0.0193423 0.122635 0.349583
604 2 0.15187 0.0946549 0.394488
606 4 0.132245 0.102606 0.407785
249 4 0.209204 0.157132 0.328376
247 2 0.21724 0.134271 0.334538
1700 4 0.207318 0.102834 0.343421
248 4 0.225276 0.11141 0.340701
600 4 0.241862 0.155203 0.398728
683 4 0.242699 0.134423 0.395541
682 2 0.264402 0.125028 0.403659
319 2 0.322691 0.119102 0.388743
320 4 0.301399 0.112393 0.400004
706 2 0.340105 0.167726 0.370891
684 4 0.286104 0.115632 0.411777
708 4 0.349621 0.145417 0.376969
321 4 0.343983 0.125811 0.377482
516 4 0.434392 0.130341 0.363216
575 4 0.422679 0.122903 0.378286
574 2 0.430856 0.113606 0.400009
514 2 0.449155 0.147313 0.352299
459 4 0.993387 0.189935 0.388574
457 2 0.00427463 0.169039 0.380207
389 4 0.116296 0.167471 0.357633
598 2 0.233056 0.177478 0.4059
376 2 0.315337 0.224647 0.35152
377 4 0.329132 0.210977 0.367268
707 4 0.33059 0.190036 0.364814
474 4 0.278168 0.240553 0.402201
488 4 0.294217 0.231316 0.41134
487 2 0.292201 0.206659 0.407715
489 4 0.290185 0.182002 0.404089
344 4 0.289172 0.253267 0.335167
333 4 0.456705 0.179985 0.331198
515 4 0.463918 0.164284 0.341381
453 4 0.470464 0.182406 0.344257
451 2 0.493663 0.188993 0.35086
347 4 0.0599068 0.306167 0.39905
618 4 0.0764427 0.306171 0.388155
275 4 0.138134 0.313877 0.378157
617 4 0.125932 0.3111 0.393369
616 2 0.101188 0.308635 0.390762
274 2 0.157135 0.299772 0.386232
473 4 0.235073 0.252432 0.379785
374 4 0.21772 0.250955 0.389628
276 4 0.176137 0.285668 0.394307
373 2 0.205052 0.271071 0.397376
375 4 0.192384 0.291188 0.405124
472 2 0.25662 0.246492 0.390993
561 4 0.494868 0.314405 0.370654
752 4 0.489619 0.326896 0.356068
408 4 0.0187988 0.345141 0.378498
406 2 0.0176191 0.354963 0.355535
407 4 0.0164393 0.364785 0.332571
678 4 0.190728 0.339005 0.327791
433 2 0.216773 0.373566 0.331047
434 4 0.228024 0.395895 0.331141
334 2 0.327367 0.406528 0.386641
502 2 0.277799 0.387444 0.405733
503 4 0.294922 0.405488 0.403207
613 2 0.407533 0.365876 0.345325
335 4 0.350346 0.397043 0.383964
240 4 0.368119 0.402999 0.39468
614 4 0.391664 0.378069 0.360314
751 2 0.489331 0.335851 0.332725
500 4 0.12163 0.512313 0.328914
669 4 0.293239 0.424267 0.403608
336 4 0.304387 0.416013 0.389319
667 2 0.297157 0.448598 0.407828
3990 4 0.467705 0.494511 0.352265
2237 4 0.0101767 0.0608251 0.441944
2236 2 0.0181965 0.0418543 0.427768
1127 4 0.995195 0.0644203 0.454299
720 4 0.00956236 0.0775856 0.451664
1782 4 0.0950417 0.017808 0.420209
1781 4 0.0850078 0.997202 0.464655
1780 2 0.0900247 0.0075049 0.442432
724 2 0.29606 0.0479943 0.475021
963 4 0.285428 0.0192584 0.48829
726 4 0.289097 0.0699723 0.465343
725 4 0.303023 0.0260163 0.484699
432 4 0.299284 0.0199155 0.50271
1579 2 0.359961 0.011156 0.432443
1580 4 0.366365 0.0348081 0.427468
425 4 0.385498 0.0349702 0.426943
2880 4 0.453009 0.0744037 0.476985
642 4 0.441101 0.0631733 0.464648
640 2 0.43924 0.0852112 0.452985
718 2 0.0323231 0.0844045 0.459451
719 4 0.0550838 0.0912235 0.467238
1033 2 0.121464 0.133292 0.46879
1035 4 0.132649 0.145129 0.449818
1034 4 0.110278 0.121455 0.487763
261 4 0.137902 0.160767 0.438179
1182 4 0.302215 0.0810379 0.455508
1180 2 0.302837 0.098484 0.437607
1181 4 0.303458 0.11593 0.419707
3157 2 0.489485 0.15848 0.483433
3158 4 0.469526 0.165341 0.470026
641 4 0.437378 0.107249 0.441321
576 4 0.439033 0.104309 0.421732
306 4 0.445046 0.120675 0.430252
304 2 0.45214 0.141546 0.442052
305 4 0.459233 0.162418 0.453853
259 2 0.149449 0.180239 0.448795
694 2 0.146592 0.233466 0.478522
260 4 0.160995 0.19971 0.459411
695 4 0.159829 0.218452 0.463537
696 4 0.133354 0.248479 0.493508
599 4 0.224249 0.199753 0.413071
687 4 0.219521 0.200853 0.432963
686 4 0.175449 0.211161 0.454225
685 2 0.197485 0.206007 0.443594
411 4 0.246579 0.219231 0.480949
267 4 0.365192 0.250952 0.421928
467 4 0.348774 0.190277 0.435736
466 2 0.360976 0.21165 0.431323
468 4 0.373178 0.233023 0.42691
873 4 0.374131 0.265712 0.506022
585 4 0.473336 0.239905 0.468671
346 2 0.0520568 0.32492 0.413605
813 4 0.219219 0.300003 0.498894
266 4 0.339226 0.293155 0.415191
265 2 0.352209 0.272054 0.418559
584 4 0.453497 0.281122 0.488877
583 2 0.463416 0.260514 0.478774
2456 4 0.465235 0.291727 0.500241
2812 2 0.00465446 0.354395 0.441048
2813 4 0.0240297 0.370197 0.440767
348 4 0.0442068 0.343674 0.42816
326 4 0.0571617 0.357101 0.434607
325 2 0.0801442 0.366054 0.438709
10 3 0.138575 0.354274 0.483005
327 4 0.103127 0.375007 0.442811
7 3 0.113752 0.367284 0.458359
6 1 0.123093 0.37052 0.479129
711 4 0.144767 0.406174 0.486125
8 3 0.133223 0.39139 0.479629
9 3 0.106332 0.369465 0.495139
634 2 0.219231 0.422535 0.442541
774 4 0.208012 0.396532 0.47396
635 4 0.206666 0.409927 0.4601
709 2 0.169007 0.407916 0.480249
772 2 0.226204 0.395147 0.491057
710 4 0.193248 0.409659 0.474372
504 4 0.260676 0.3694 0.40826
586 2 0.392293 0.410745 0.478631
239 4 0.393782 0.40368 0.437595
238 2 0.38095 0.403339 0.416137
588 4 0.392065 0.399393 0.456354
681 4 0.0858466 0.42231 0.469093
1383 4 0.0547876 0.469101 0.450541
1381 2 0.0642658 0.489733 0.44007
680 4 0.0503182 0.450342 0.447818
679 2 0.0680824 0.436326 0.458455
384 4 0.14221 0.424471 0.490458
383 4 0.0924176 0.427124 0.486663
382 2 0.117314 0.425797 0.488561
570 4 0.165841 0.477427 0.458678
569 4 0.146625 0.444107 0.490634
568 2 0.156233 0.460767 0.474656
636 4 0.231796 0.435143 0.424981
880 2 0.325395 0.492407 0.493855
882 4 0.32868 0.502892 0.471395
4 3 0.314494 0.487025 0.419966
5 3 0.29769 0.476602 0.452007
1 1 0.306222 0.494246 0.440407
668 4 0.301076 0.47293 0.412048
1183 2 0.996273 0.004552 0.587792
1184 4 0.00524313 0.0159644 0.567434
1059 4 0.167054 0.0720513 0.585699
1150 2 0.161371 0.0801474 0.546598
1151 4 0.156731 0.0800653 0.571167
340 2 0.178252 0.0397493 0.510419
342 4 0.167097 0.0616155 0.515174
2430 4 0.201855 0.0146225 0.521604
341 4 0.189406 0.017883 0.505664
1152 4 0.166012 0.0802294 0.522029
430 2 0.320403 0.0177 0.51591
431 4 0.341523 0.0154845 0.52911
843 4 0.346996 0.0343055 0.529784
842 4 0.38211 0.0428765 0.564342
841 2 0.364553 0.038591 0.547063
1217 4 0.396229 0.044647 0.57783
1216 2 0.407819 0.022567 0.576005
2879 4 0.469027 0.0527803 0.519134
3009 4 0.491306 0.0865051 0.566528
2878 2 0.461018 0.063592 0.498059
879 4 0.0814396 0.15113 0.545284
877 2 0.0566827 0.1526 0.542103
1199 4 0.0184551 0.167783 0.53961
878 4 0.0319258 0.154069 0.538923
938 4 0.100361 0.151713 0.545276
937 2 0.108926 0.138872 0.525606
939 4 0.117491 0.12603 0.505936
1272 4 0.08971 0.157093 0.561472
1270 2 0.0950619 0.17898 0.572314
1260 4 0.126714 0.242631 0.510542
1258 2 0.101805 0.242942 0.50839
409 2 0.265953 0.211497 0.494733
898 2 0.298656 0.202605 0.546537
899 4 0.303215 0.210479 0.569826
900 4 0.294098 0.194731 0.523247
410 4 0.285327 0.203764 0.508518
791 4 0.311046 0.228521 0.57069
790 2 0.326309 0.248225 0.56869
1259 4 0.0768959 0.243253 0.506238
812 4 0.259124 0.327678 0.510826
811 2 0.239172 0.31384 0.50486
650 4 0.262265 0.317991 0.528065
649 2 0.270963 0.313457 0.551064
651 4 0.279662 0.308923 0.574063
871 2 0.363378 0.264495 0.528563
872 4 0.352625 0.263277 0.551103
792 4 0.341573 0.267928 0.566691
1238 4 0.337773 0.285704 0.577018
2455 2 0.481246 0.304964 0.514155
2457 4 0.497258 0.3182 0.528069
935 4 0.00522269 0.345219 0.503275
1136 4 0.130191 0.406429 0.553739
1135 2 0.143952 0.393627 0.570229
773 4 0.244397 0.393763 0.508154
1190 4 0.246496 0.399761 0.52583
1189 2 0.234139 0.407773 0.546036
1191 4 0.221781 0.415784 0.566242
804 4 0.261865 0.337141 0.526827
802 2 0.260284 0.361802 0.523015
803 4 0.258702 0.386463 0.519203
930 4 0.259524 0.405269 0.513163
926 4 0.408678 0.418737 0.511382
587 4 0.392521 0.422096 0.500908
927 4 0.441769 0.389374 0.534693
925 2 0.425224 0.404055 0.523038
928 2 0.278479 0.421492 0.514806
929 4 0.297434 0.437715 0.516448
891 4 0.314219 0.490763 0.531967
1952 4 0.318384 0.472225 0.533282
881 4 0.32211 0.481922 0.516315
1951 2 0.325734 0.448368 0.534689
1953 4 0.333084 0.42451 0.536095
889 2 0.296197 0.505109 0.541693
890 4 0.278176 0.519455 0.551419
1001 4 0.404678 0.487561 0.548725
662 4 0.414854 0.473234 0.540321
661 2 0.405675 0.453665 0.527751
1911 4 0.414518 0.473712 0.559415
663 4 0.396497 0.434096 0.515182
1909 2 0.42536 0.462891 0.579178
1332 4 0.423503 0.487771 0.550131
1330 2 0.444289 0.495563 0.538623
4085 4 0.481028 0.503829 0.5389
1185 4 0.987303 0.99314 0.608151
945 4 0.0532446 0.997759 0.63192
1057 2 0.157944 0.0528082 0.59881
1058 4 0.148834 0.0335651 0.611921
2375 4 0.149439 0.0143518 0.609868
1284 4 0.124866 0.0787039 0.65552
950 4 0.231818 0.0232327 0.585986
949 2 0.243192 0.0332101 0.605893
951 4 0.254565 0.0431876 0.625799
1031 4 0.265794 0.0593786 0.619403
1030 2 0.273571 0.0719117 0.639593
1032 4 0.281347 0.0844449 0.659783
3007 2 0.495203 0.0823081 0.590867
3008 4 0.499099 0.0781111 0.615206
1083 4 0.0306365 0.133432 0.651043
3179 4 0.03555 0.151839 0.654224
1155 4 0.152496 0.0840621 0.589775
1153 2 0.1555 0.107381 0.598283
1154 4 0.158505 0.130699 0.606792
1221 4 0.160699 0.130234 0.626258
1219 2 0.175761 0.149168 0.632569
1211 4 0.244411 0.153984 0.671749
1210 2 0.226995 0.158694 0.654437
888 4 0.261272 0.163362 0.673299
808 2 0.494797 0.0798787 0.655847
809 4 0.504672 0.083389 0.633146
3178 2 0.0232994 0.168526 0.640201
1245 4 0.0774313 0.214799 0.6465
3180 4 0.0110488 0.185212 0.626178
1243 2 0.087173 0.209342 0.624128
1244 4 0.0969147 0.203884 0.601757
1271 4 0.100414 0.200866 0.583155
1220 4 0.190823 0.168101 0.638881
1212 4 0.20958 0.163404 0.637125
797 4 0.187588 0.223642 0.615703
796 2 0.194724 0.200117 0.620267
798 4 0.201859 0.176592 0.624832
857 4 0.306141 0.220235 0.586873
856 2 0.292953 0.223197 0.607908
858 4 0.279765 0.226159 0.628943
905 4 0.470711 0.239257 0.618438
3123 4 0.463895 0.2302 0.634717
3121 2 0.480223 0.214728 0.645636
3122 4 0.496551 0.199257 0.656555
983 4 0.0256299 0.290822 0.595124
982 2 0.0386396 0.305714 0.610427
984 4 0.0516493 0.320606 0.625729
3263 4 0.0456526 0.331995 0.640292
3262 2 0.0473422 0.325296 0.664322
805 2 0.310198 0.312997 0.641013
806 4 0.287063 0.318681 0.648604
807 4 0.333334 0.307313 0.633422
947 4 0.31524 0.261305 0.663625
1239 4 0.347503 0.29847 0.62438
1237 2 0.342638 0.292087 0.600699
906 4 0.460842 0.286947 0.60708
904 2 0.465777 0.263102 0.612759
952 2 0.482174 0.318646 0.610586
953 4 0.464271 0.30344 0.619157
954 4 0.500076 0.333852 0.602016
1041 4 0.058458 0.33881 0.62647
1039 2 0.0549258 0.363542 0.625468
1040 4 0.0513935 0.388275 0.624465
993 4 0.0596726 0.405588 0.628377
991 2 0.0393663 0.416426 0.618611
1137 4 0.157714 0.380826 0.586719
897 4 0.176138 0.384109 0.589859
895 2 0.198177 0.395486 0.586694
896 4 0.220216 0.406863 0.583528
1029 4 0.22278 0.394124 0.653014
1206 4 0.486831 0.412125 0.613794
3309 4 0.48808 0.393483 0.60856
3307 2 0.497998 0.371802 0.601027
992 4 0.0190601 0.427264 0.608845
1172 4 0.228922 0.424445 0.581451
1171 2 0.223141 0.447479 0.589274
1160 4 0.199772 0.475756 0.588818
1173 4 0.21736 0.470512 0.597098
1188 4 0.196709 0.47494 0.65726
1187 4 0.201068 0.471894 0.607537
1186 2 0.198888 0.473417 0.632399
1175 4 0.182757 0.48868 0.665153
1159 2 0.181054 0.489367 0.579355
1204 2 0.465807 0.425594 0.612468
1910 4 0.436202 0.452071 0.59894
1269 4 0.42634 0.446105 0.613577
1267 2 0.428594 0.45877 0.635017
1205 4 0.444783 0.439062 0.611142
1268 4 0.430848 0.471435 0.656458
1226 4 0.169481 0.0775433 0.743174
1282 2 0.126364 0.0908403 0.677329
2255 4 0.235914 0.985568 0.736651
1004 4 0.337609 0.00900938 0.69792
1003 2 0.325292 0.0301279 0.703162
1005 4 0.312976 0.0512464 0.708404
45 3 0.442988 0.0473936 0.684715
1162 2 0.498682 0.0648882 0.710626
42 3 0.44346 0.0707903 0.713788
41 1 0.445668 0.0691324 0.690951
1163 4 0.481778 0.0779412 0.697625
44 3 0.466802 0.0765573 0.6849
1075 2 0.0432192 0.08619 0.715306
1076 4 0.0408808 0.0871796 0.690432
1081 2 0.0316426 0.11048 0.660909
1082 4 0.0326487 0.0875267 0.670775
850 2 0.0705529 0.168384 0.725269
1077 4 0.0455576 0.0852003 0.74018
909 4 0.102961 0.159066 0.701542
907 2 0.110704 0.135919 0.706967
908 4 0.118446 0.112771 0.712391
1283 4 0.127862 0.102977 0.699138
1227 4 0.132857 0.101291 0.718772
851 4 0.0912132 0.171236 0.711477
1225 2 0.151169 0.0894172 0.730973
1149 4 0.22891 0.103502 0.760899
886 2 0.275036 0.154729 0.692304
829 2 0.330953 0.148582 0.708969
830 4 0.306776 0.154465 0.711433
887 4 0.288801 0.146096 0.711309
978 4 0.292279 0.161085 0.723468
831 4 0.355129 0.142699 0.706505
1142 4 0.374384 0.146617 0.706063
1141 2 0.396025 0.158178 0.710877
43 3 0.429452 0.0823172 0.680871
810 4 0.484921 0.0763684 0.678548
1025 4 0.470812 0.158076 0.698553
3424 2 0.477562 0.116476 0.694077
3426 4 0.478186 0.0926673 0.686467
3425 4 0.476939 0.140285 0.701688
3269 4 0.485738 0.155696 0.711006
3268 2 0.492844 0.166175 0.732567
1209 4 0.0847584 0.215136 0.664874
1208 4 0.0962836 0.175162 0.692623
1207 2 0.090521 0.195149 0.678748
1107 4 0.109569 0.177052 0.706454
1105 2 0.125638 0.18925 0.721225
1106 4 0.141707 0.201447 0.735996
1130 4 0.154266 0.21428 0.727657
1129 2 0.163413 0.226171 0.747661
976 2 0.294224 0.180548 0.739043
977 4 0.296169 0.200011 0.754619
918 4 0.301756 0.218478 0.755033
916 2 0.290666 0.240534 0.751072
1193 4 0.364124 0.228014 0.693344
1194 4 0.404511 0.204109 0.710611
1192 2 0.384318 0.216062 0.701977
1143 4 0.417667 0.169739 0.715691
1262 4 0.414781 0.18884 0.718925
1261 2 0.422755 0.199941 0.739862
1024 2 0.449122 0.1701 0.701738
1026 4 0.427432 0.182124 0.704923
3264 4 0.0490318 0.318596 0.688352
779 4 0.0522035 0.30143 0.697136
778 2 0.0617872 0.278562 0.693909
780 4 0.071371 0.255695 0.690681
893 4 0.044921 0.315821 0.707701
1065 4 0.219087 0.293872 0.677325
1063 2 0.243118 0.293543 0.68422
946 2 0.295928 0.268676 0.677693
948 4 0.276616 0.276047 0.691761
1064 4 0.26715 0.293215 0.691115
917 4 0.279576 0.262591 0.74711
1008 4 0.421687 0.309314 0.72507
1006 2 0.434869 0.298727 0.743491
892 2 0.0384604 0.336026 0.720938
894 4 0.0319998 0.35623 0.734174
816 4 0.0313187 0.368122 0.749483
814 2 0.050381 0.383174 0.743546
3276 4 0.01679 0.355566 0.7472
815 4 0.0694433 0.398226 0.737609
1067 4 0.147232 0.389814 0.707557
940 2 0.105494 0.389093 0.717155
941 4 0.128638 0.381723 0.711221
942 4 0.0823506 0.396464 0.72309
1066 2 0.162545 0.406189 0.696486
1068 4 0.177857 0.422564 0.685416
1019 4 0.401889 0.400146 0.732289
1176 4 0.151698 0.472008 0.700623
1027 2 0.210077 0.410683 0.666785
1028 4 0.197374 0.427241 0.680556
1174 2 0.167227 0.480344 0.682888
1140 4 0.350652 0.454197 0.721069
1230 4 0.384387 0.427791 0.734011
1100 4 0.40268 0.4189 0.736731
1138 2 0.347132 0.471775 0.70364
1139 4 0.343612 0.489354 0.686211
2168 4 0.421387 0.486677 0.664085
3329 4 0.496978 0.444714 0.698146
1101 4 0.446768 0.442501 0.736638
1099 2 0.424724 0.430701 0.736685
3330 4 0.460641 0.454829 0.730979
1251 4 0.461363 0.447366 0.74825
3328 2 0.47881 0.449772 0.714563
1296 4 0.0233767 0.0455596 0.793249
1294 2 0.0113705 0.0238017 0.790488
864 4 0.0539032 0.0830742 0.75817
1148 4 0.187946 0.07712 0.749645
1203 4 0.17773 0.0602926 0.746438
1201 2 0.180974 0.0377032 0.756654
1202 4 0.184218 0.0151139 0.766871
2254 2 0.219289 0.998596 0.750031
2256 4 0.202664 0.0116247 0.763412
975 4 0.334518 0.0340713 0.823587
2322 4 0.465503 0.0452264 0.778293
2320 2 0.466719 0.0217477 0.786805
846 4 0.456171 0.0571043 0.765508
844 2 0.471499 0.0765882 0.768768
852 4 0.0498925 0.165532 0.73906
862 2 0.0566719 0.103232 0.772701
863 4 0.0594407 0.12339 0.787232
833 4 0.055313 0.129807 0.80539
1125 4 0.0717165 0.135607 0.796471
1123 2 0.0747406 0.160413 0.795636
832 2 0.0416815 0.119624 0.823712
35 3 0.0921207 0.135687 0.838762
34 3 0.122241 0.145388 0.818358
31 1 0.114279 0.140866 0.839679
1147 2 0.208428 0.0903112 0.755272
921 4 0.216037 0.142193 0.828968
1257 4 0.248574 0.108757 0.763636
919 2 0.205006 0.164503 0.826569
1255 2 0.2614 0.113636 0.784537
1256 4 0.274226 0.118514 0.805439
840 4 0.287436 0.119087 0.821448
845 4 0.486826 0.0960721 0.772028
1214 4 0.0362103 0.163483 0.753791
1213 2 0.0190425 0.180153 0.746542
1072 2 0.0755616 0.211933 0.820495
1074 4 0.0609395 0.223737 0.836988
1073 4 0.0901837 0.200128 0.804002
1124 4 0.0777646 0.185219 0.794801
1131 4 0.172559 0.238061 0.767664
1277 4 0.17805 0.237109 0.787292
1276 2 0.186088 0.221585 0.805168
1278 4 0.194126 0.206061 0.823045
920 4 0.193976 0.186813 0.824169
822 4 0.172467 0.253705 0.778558
1298 4 0.314471 0.204144 0.759526
1297 2 0.326071 0.198325 0.780898
1086 4 0.326912 0.186917 0.820076
1299 4 0.33767 0.192505 0.802271
50 3 0.390585 0.206269 0.790892
1043 4 0.409686 0.255509 0.800743
49 3 0.410675 0.23607 0.802113
46 1 0.4113 0.213427 0.79708