ITEM: TIMESTEP
1800000
ITEM: NUMBER OF ATOMS
4590
ITEM: BOX BOUNDS pp pp pp
-9.9985700000000008e+00 9.9985700000000008e+00
-9.9985700000000008e+00 9.9985700000000008e+00
-9.9985700000000008e+00 9.9985700000000008e+00
ITEM: ATOMS id type xs ys zs
701 4 0.0714907 0.0594866 0.0182549
465 4 0.0651239 0.0769065 0.00990495
700 2 0.0929046 0.0588226 0.0311462
702 4 0.114318 0.0581586 0.0440375
566 4 0.130074 0.0684728 0.0410438
565 2 0.152989 0.0692916 0.0310738
567 4 0.175904 0.0701104 0.0211038
491 4 0.286208 0.0197174 0.0499751
2264 4 0.287035 0.0180093 0.0293737
2263 2 0.27922 0.0400975 0.0206431
2265 4 0.271406 0.0621856 0.0119126
746 4 0.470122 0.0559448 0.0208604
2469 4 0.4705 0.0417341 0.0340849
2467 2 0.473845 0.0181938 0.0418207
463 2 0.0470885 0.093202 0.0157669
464 4 0.0290532 0.109498 0.0216288
590 4 0.0274459 0.103049 0.0402768
589 2 0.00739942 0.108396 0.0542311
359 4 0.248842 0.0987942 0.00851956
558 4 0.307494 0.0943559 0.0311739
556 2 0.313582 0.0930297 0.0553887
557 4 0.31967 0.0917034 0.0796034
358 2 0.256305 0.119471 0.996605
865 2 0.353847 0.151653 0.0151865
771 4 0.465219 0.13282 0.0657216
769 2 0.47889 0.151946 0.0742348
554 4 0.0509421 0.229688 0.0593802
553 2 0.0651494 0.229708 0.0388053
555 4 0.0793568 0.229728 0.0182303
837 4 0.141143 0.225728 0.992785
835 2 0.120171 0.228104 0.00619129
836 4 0.0991996 0.23048 0.0195971
915 4 0.159384 0.218048 0.992128
738 4 0.175644 0.187731 0.0874666
573 4 0.328749 0.246355 0.0536313
666 4 0.335125 0.2277 0.0566925
461 4 0.339664 0.241766 0.0696634
867 4 0.352314 0.16361 0.0370921
665 4 0.346089 0.181205 0.0419032
664 2 0.340607 0.204453 0.0492978
1070 4 0.403297 0.218768 0.036598
1069 2 0.397191 0.239333 0.0494419
770 4 0.492562 0.171072 0.0827479
294 4 0.0799382 0.309512 0.0525537
292 2 0.104437 0.311863 0.0481428
507 4 0.148049 0.321204 0.0387888
293 4 0.128936 0.314214 0.0437319
356 4 0.323285 0.293963 0.0254726
572 4 0.306498 0.284191 0.029671
355 2 0.315941 0.315231 0.0145668
571 2 0.317623 0.265273 0.0416512
1071 4 0.391085 0.259898 0.0622859
324 4 0.40304 0.272244 0.0523081
322 2 0.420495 0.287899 0.0609925
672 4 0.4473 0.320392 0.075706
323 4 0.43795 0.303554 0.0696768
620 4 0.000515417 0.360735 0.0609998
647 4 0.0162044 0.350666 0.0645923
646 2 0.0340391 0.339541 0.0781327
505 2 0.161735 0.339753 0.0484765
483 4 0.191705 0.354259 0.0496109
506 4 0.17542 0.358301 0.0581642
481 2 0.203498 0.372798 0.0376765
609 4 0.233038 0.400728 0.0309902
482 4 0.215291 0.391336 0.0257422
607 2 0.254835 0.408631 0.0403498
608 4 0.276632 0.416534 0.0497094
902 4 0.302081 0.354663 0.00527555
957 4 0.390315 0.373908 0.0115068
670 2 0.460108 0.341833 0.0745222
280 2 0.471054 0.40721 0.0723144
281 4 0.476053 0.382718 0.0728673
671 4 0.472917 0.363275 0.0733385
1467 4 0.00471104 0.447699 0.07703
552 4 0.0817203 0.488311 0.0766724
1787 4 0.0932221 0.494852 0.0620223
246 4 0.246929 0.498815 0.0342218
252 4 0.275655 0.430696 0.0362679
244 2 0.251489 0.48224 0.0523782
245 4 0.256048 0.465665 0.0705346
250 2 0.290274 0.448647 0.026821
251 4 0.304892 0.466598 0.0173741
2289 4 0.335807 0.497166 0.00139555
282 4 0.466055 0.431703 0.0717615
226 2 0.476794 0.467873 0.0500691
228 4 0.482211 0.491161 0.0427562
227 4 0.471378 0.444584 0.057382
563 4 0.467413 0.497137 0.0315472
16 1 0.0579692 0.0570373 0.147248
20 3 0.0576674 0.0655202 0.126115
1806 4 0.0514015 0.0210104 0.143362
18 3 0.0438038 0.0387111 0.148626
1804 2 0.0533414 0.00561418 0.123757
19 3 0.0513616 0.0733139 0.162408
17 3 0.0793535 0.0503115 0.152408
450 4 0.156154 0.0527264 0.158032
448 2 0.166804 0.0727214 0.147451
652 2 0.327413 0.0347512 0.14127
654 4 0.322793 0.011991 0.150533
653 4 0.332033 0.0575114 0.132006
484 2 0.375591 0.0149464 0.106418
295 2 0.348735 0.0759013 0.0968564
297 4 0.365526 0.0574432 0.0984475
485 4 0.364669 0.0366963 0.100687
2483 4 0.999556 0.132927 0.146418
579 4 0.093008 0.106597 0.116531
237 4 0.148472 0.142313 0.125412
578 4 0.129828 0.137828 0.129555
577 2 0.111418 0.122212 0.123043
476 4 0.135707 0.156088 0.129972
737 4 0.144973 0.157439 0.112812
235 2 0.165724 0.126577 0.134353
236 4 0.182975 0.110841 0.143294
693 4 0.195301 0.0996788 0.133511
449 4 0.177453 0.0927164 0.136869
691 2 0.218386 0.0974806 0.142861
692 4 0.241471 0.0952824 0.152211
582 4 0.26151 0.091734 0.155192
580 2 0.281171 0.107161 0.155987
581 4 0.300832 0.122588 0.156781
296 4 0.331944 0.0943594 0.0952653
311 4 0.448865 0.144094 0.138988
339 4 0.044081 0.198143 0.156229
337 2 0.0690789 0.198338 0.15573
475 2 0.12304 0.172437 0.144024
736 2 0.160308 0.172585 0.100139
477 4 0.110374 0.188785 0.158076
338 4 0.0940767 0.198534 0.155232
283 2 0.322278 0.192502 0.128295
354 4 0.323289 0.234276 0.133321
285 4 0.321187 0.167528 0.128846
284 4 0.323369 0.217475 0.127744
352 2 0.303472 0.249018 0.137216
460 2 0.334461 0.23614 0.0934636
462 4 0.329258 0.230514 0.117264
255 4 0.338372 0.22555 0.131445
254 4 0.373365 0.241204 0.163557
253 2 0.355869 0.233377 0.147501
1012 2 0.496287 0.211643 0.0995324
1013 4 0.503094 0.233104 0.110408
310 2 0.431242 0.161369 0.143015
1014 4 0.489479 0.190183 0.0886573
312 4 0.41362 0.178643 0.147041
456 4 0.0616711 0.322577 0.10855
648 4 0.0518738 0.328416 0.0916731
454 2 0.0856294 0.325339 0.101951
455 4 0.109588 0.328101 0.0953517
612 4 0.244863 0.333309 0.12556
353 4 0.283656 0.263759 0.14111
754 2 0.273268 0.302907 0.13273
755 4 0.28319 0.282304 0.142841
278 4 0.274455 0.27178 0.155609
756 4 0.263346 0.323511 0.122619
277 2 0.25646 0.259173 0.167544
537 4 0.184472 0.371062 0.119248
535 2 0.19486 0.390203 0.106964
611 4 0.20149 0.356692 0.117033
610 2 0.223177 0.345 0.121296
536 4 0.205248 0.409344 0.0946796
741 4 0.363904 0.366557 0.0935456
739 2 0.374988 0.376041 0.113853
740 4 0.386071 0.385525 0.13416
15 3 0.380888 0.375987 0.150163
385 2 0.35777 0.407486 0.154017
386 4 0.3778 0.394964 0.145818
495 4 0.396219 0.400102 0.139521
11 1 0.40144 0.376655 0.159951
12 3 0.412558 0.356998 0.155576
14 3 0.413755 0.394321 0.151309
2651 4 0.486662 0.371037 0.0839572
1465 2 0.0213475 0.459134 0.0917834
1466 4 0.037984 0.470568 0.106537
1791 4 0.0520446 0.467588 0.121266
1789 2 0.0548854 0.490346 0.131227
551 4 0.0723139 0.44297 0.0955528
550 2 0.0770171 0.465641 0.0861126
242 4 0.0986303 0.495643 0.0805387
625 2 0.229786 0.445217 0.0872231
626 4 0.212519 0.427138 0.086789
638 4 0.236503 0.489 0.158898
627 4 0.247053 0.463295 0.0876573
302 4 0.333338 0.422764 0.144153
303 4 0.300478 0.459747 0.136858
766 2 0.263217 0.470439 0.149401
768 4 0.284045 0.471104 0.135583
301 2 0.316908 0.441256 0.140506
387 4 0.337741 0.420008 0.162215
493 2 0.405788 0.422795 0.135207
494 4 0.415358 0.445489 0.130893
660 4 0.417004 0.466573 0.130617
658 2 0.428216 0.479391 0.148924
2480 4 0.0176158 0.0265155 0.215992
1422 4 0.0276967 0.00992243 0.21752
1505 4 0.16028 0.0540674 0.177154
673 2 0.117505 0.0540431 0.177078
675 4 0.0932394 0.0545554 0.183088
674 4 0.14177 0.0535309 0.171069
1504 2 0.166966 0.0368975 0.194056
689 4 0.18488 0.0195143 0.227099
1506 4 0.173651 0.0197277 0.210959
22 3 0.382087 0.00509335 0.213559
758 4 0.393293 0.0766496 0.222639
757 2 0.406665 0.0556524 0.224982
21 1 0.399013 0.000753106 0.22852
25 3 0.416072 0.0154274 0.22501
759 4 0.420037 0.0346552 0.227325
350 4 0.434857 0.0217027 0.22731
349 2 0.455598 0.0204024 0.241213
351 4 0.47634 0.019102 0.255116
380 4 0.067197 0.0833604 0.170749
379 2 0.0607546 0.0939042 0.192486
512 4 0.0442351 0.12242 0.214632
381 4 0.0543122 0.104448 0.214223
511 2 0.0502303 0.146692 0.214329
30 3 0.302841 0.132596 0.173998
26 1 0.311693 0.139557 0.193792
29 3 0.321443 0.121635 0.204843
27 3 0.294931 0.148191 0.206969
28 3 0.327526 0.156092 0.190005
521 4 0.475515 0.148541 0.201461
520 2 0.492566 0.164148 0.210994
513 4 0.0562254 0.170964 0.214026
363 4 0.100512 0.196393 0.173445
362 4 0.130057 0.214812 0.209341
361 2 0.115285 0.205603 0.191393
372 4 0.14915 0.220375 0.2124
370 2 0.155271 0.242479 0.222358
545 4 0.124272 0.169305 0.240228
721 2 0.213015 0.175398 0.244254
723 4 0.235932 0.171436 0.235073
628 2 0.401881 0.207464 0.164175
630 4 0.38729 0.227739 0.163065
765 4 0.389803 0.244306 0.173097
629 4 0.416471 0.18719 0.165285
394 2 0.047579 0.308397 0.243404
750 4 0.0692571 0.29965 0.216807
748 2 0.0778799 0.296588 0.193538
395 4 0.0610861 0.316339 0.223919
396 4 0.0340719 0.300455 0.262889
749 4 0.0865028 0.293526 0.170269
300 4 0.127176 0.313246 0.197572
298 2 0.122269 0.32614 0.218424
371 4 0.161392 0.264582 0.232316
279 4 0.238465 0.246567 0.179478
307 2 0.312723 0.299547 0.208798
309 4 0.317174 0.286535 0.187917
308 4 0.308271 0.31256 0.22968
763 2 0.407689 0.261473 0.176345
764 4 0.425575 0.278641 0.179592
623 4 0.427018 0.295939 0.189155
528 4 0.495439 0.299566 0.198313
622 2 0.451891 0.294884 0.191486
624 4 0.476763 0.29383 0.193817
2618 4 0.0090188 0.405077 0.221725
262 2 0.0477583 0.399632 0.209186
263 4 0.069308 0.387138 0.207021
602 4 0.0682417 0.378172 0.224976
299 4 0.117363 0.339035 0.239277
603 4 0.11177 0.357917 0.238966
601 2 0.0900059 0.368044 0.231971
290 4 0.192013 0.366125 0.188136
289 2 0.186627 0.386232 0.201986
291 4 0.18124 0.40634 0.215837
13 3 0.399196 0.379052 0.182921
2861 4 0.443987 0.409937 0.238378
264 4 0.0262086 0.412127 0.21135
767 4 0.242389 0.469775 0.163219
416 4 0.171639 0.422447 0.210804
415 2 0.182878 0.444089 0.216327
1430 4 0.185313 0.483524 0.218789
417 4 0.194116 0.46573 0.22185
713 4 0.371945 0.472017 0.243457
712 2 0.383706 0.493766 0.239741
659 4 0.439427 0.49221 0.167232
597 4 0.490536 0.463425 0.200412
595 2 0.470409 0.475474 0.191758
596 4 0.450281 0.487522 0.183105
231 4 0.434358 0.497848 0.18541
1568 4 0.450271 0.505313 0.177196
1799 4 0.0210822 0.0218203 0.306059
233 4 0.019817 0.0368229 0.294454
1402 2 0.0532775 0.0268196 0.289257
1403 4 0.0356523 0.0341548 0.305404
232 2 0.00347085 0.0556632 0.292714
1798 2 0.0121547 0.00988549 0.326135
1404 4 0.0709026 0.0194845 0.273109
23 3 0.39078 0.0031921 0.250076
697 2 0.363395 0.0175388 0.327051
633 4 0.378357 0.057261 0.315016
631 2 0.374156 0.0773207 0.300694
698 4 0.370117 0.0413908 0.323722
743 4 0.496329 0.0304955 0.317828
744 4 0.487368 0.0252752 0.268908
742 2 0.491848 0.0278853 0.293368
479 4 0.484722 0.0421962 0.328073
478 2 0.46505 0.0563339 0.334263
399 4 0.0470966 0.107415 0.329825
397 2 0.0634713 0.120867 0.316555
398 4 0.0798461 0.134318 0.303285
392 4 0.106539 0.16037 0.247984
393 4 0.0949234 0.141608 0.29286
390 4 0.0930072 0.146392 0.311572
391 2 0.100731 0.150989 0.270422
388 2 0.103085 0.156413 0.332144
404 4 0.196695 0.167054 0.318483
403 2 0.190395 0.168755 0.294346
632 4 0.369955 0.0973803 0.286371
444 4 0.0270623 0.24064 0.281653
544 2 0.14793 0.171491 0.248018
546 4 0.171589 0.173677 0.255807
722 4 0.190098 0.17936 0.253435
405 4 0.184095 0.170457 0.270209
378 4 0.299535 0.236211 0.338908
420 4 0.419706 0.232879 0.254554
331 2 0.453735 0.197247 0.31141
332 4 0.454159 0.207316 0.288527
418 2 0.435347 0.215366 0.263145
419 4 0.450989 0.197852 0.271736
760 2 0.490872 0.207198 0.265322
762 4 0.468068 0.207368 0.275574
443 4 0.0202881 0.286897 0.2639
365 4 0.0146591 0.305265 0.262272
442 2 0.0236752 0.263769 0.272777
510 4 0.242216 0.299928 0.324111
508 2 0.223906 0.316935 0.324924
400 2 0.248059 0.282945 0.284072
402 4 0.243216 0.288083 0.308058
497 4 0.31707 0.317937 0.246952
401 4 0.252901 0.277807 0.260086
345 4 0.25362 0.284391 0.324269
496 2 0.295788 0.314376 0.259584
498 4 0.274505 0.310815 0.272215
343 2 0.270173 0.267448 0.332277
715 2 0.411548 0.265222 0.271005
716 4 0.39778 0.278682 0.286957
717 4 0.425316 0.251763 0.255053
542 4 0.406672 0.296947 0.291063
541 2 0.4101 0.315891 0.307018
547 2 0.0259176 0.391697 0.31636
548 4 0.0201107 0.367711 0.312348
549 4 0.0317245 0.415684 0.320373
734 4 0.109301 0.347167 0.255375
733 2 0.121804 0.346096 0.277002
735 4 0.134306 0.345026 0.298628
677 4 0.149802 0.355272 0.307629
509 4 0.205595 0.333942 0.325738
676 2 0.169787 0.348307 0.320943
435 4 0.20526 0.352087 0.33241
728 4 0.359698 0.38952 0.280566
727 2 0.352436 0.411537 0.28993
615 4 0.420415 0.353531 0.321832
2860 2 0.464628 0.403638 0.251005
543 4 0.413527 0.334835 0.322973
2538 4 0.486024 0.364389 0.314863
2536 2 0.490692 0.373137 0.291909
2537 4 0.49536 0.381885 0.268956
2862 4 0.485269 0.397338 0.263633
753 4 0.482522 0.343716 0.311792
777 4 0.035023 0.435854 0.319627
775 2 0.0592446 0.441959 0.31852
776 4 0.0834662 0.448064 0.317414
1775 4 0.12948 0.503446 0.257673
414 4 0.0899819 0.456665 0.300289
412 2 0.103086 0.474763 0.31151
1543 2 0.156727 0.486417 0.322208
413 4 0.11619 0.492861 0.322731
1544 4 0.132884 0.486541 0.329736
1545 4 0.18057 0.486293 0.31468
438 4 0.295667 0.466418 0.33052
436 2 0.315407 0.457652 0.317925
729 4 0.345175 0.433554 0.299294
437 4 0.335148 0.448885 0.305329
1771 2 0.0157012 0.000816966 0.380471
1772 4 0.0314717 0.0103523 0.397369
732 4 0.0750053 0.0755543 0.376721
2238 4 0.0193907 0.024726 0.406758
369 4 0.0809515 0.0628866 0.391336
730 2 0.058952 0.0840773 0.35955
367 2 0.090949 0.0406908 0.397043
368 4 0.100947 0.018495 0.402751
1701 4 0.187946 0.0768444 0.391865
605 4 0.17278 0.0895497 0.390103
1699 2 0.197933 0.0871007 0.371365
256 2 0.388126 0.0595039 0.357474
257 4 0.380653 0.0544833 0.334147
258 4 0.395599 0.0645244 0.3808
426 4 0.40737 0.0713766 0.395761
424 2 0.399627 0.0548487 0.412851
1428 4 0.460753 0.00849339 0.404259
480 4 0.445379 0.0704716 0.340454
317 4 0.0288374 0.104714 0.335893
458 4 0.0157602 0.150469 0.363622
731 4 0.0428986 0.0926003 0.34238
316 2 0.0150824 0.120479 0.349584
604 2 0.149772 0.0973749 0.39598
606 4 0.126763 0.1052 0.401857
249 4 0.205122 0.151821 0.329701
247 2 0.213869 0.129081 0.335318
1700 4 0.20792 0.097357 0.350865
248 4 0.222616 0.10634 0.340936
600 4 0.243282 0.152071 0.402643
683 4 0.241357 0.132057 0.403927
682 2 0.265786 0.127404 0.406526
319 2 0.32013 0.119803 0.388719
320 4 0.300986 0.108507 0.40017
706 2 0.342365 0.166067 0.367436
684 4 0.290215 0.122752 0.409125
708 4 0.352023 0.143005 0.367719
321 4 0.339273 0.131098 0.377268
516 4 0.430476 0.126874 0.356584
575 4 0.42394 0.12067 0.374574
574 2 0.432581 0.116244 0.397616
514 2 0.441873 0.148105 0.349912
459 4 0.999023 0.189183 0.390488
457 2 0.0073916 0.169826 0.377055
389 4 0.113163 0.166434 0.352716
598 2 0.236936 0.175 0.410333
376 2 0.314622 0.222793 0.353656
377 4 0.329708 0.209374 0.368405
707 4 0.332708 0.189128 0.367153
474 4 0.27693 0.248135 0.402631
488 4 0.285902 0.230459 0.406369
487 2 0.294539 0.207278 0.410005
489 4 0.303175 0.184097 0.413641
344 4 0.286726 0.250505 0.340284
333 4 0.453311 0.187178 0.334293
515 4 0.45327 0.169336 0.343239
453 4 0.470217 0.178776 0.339983
451 2 0.491491 0.183226 0.352346
347 4 0.0585793 0.314428 0.392548
618 4 0.0759037 0.304148 0.39657
275 4 0.138042 0.325092 0.392975
617 4 0.125183 0.312206 0.399287
616 2 0.100543 0.308177 0.397929
274 2 0.157105 0.309584 0.388362
473 4 0.239964 0.254011 0.369469
374 4 0.220791 0.25732 0.371329
276 4 0.176168 0.294076 0.383749
373 2 0.207098 0.275096 0.38236
375 4 0.193405 0.292872 0.393391
472 2 0.258447 0.251073 0.38605
561 4 0.489546 0.31424 0.373621
752 4 0.485826 0.316964 0.353912
408 4 0.0083969 0.336432 0.369945
406 2 0.0149987 0.352173 0.351674
407 4 0.0216005 0.367914 0.333404
678 4 0.189773 0.341342 0.334257
433 2 0.216583 0.374297 0.334328
434 4 0.227905 0.396508 0.336245
334 2 0.328746 0.412187 0.3891
502 2 0.27494 0.39434 0.406524
503 4 0.286202 0.413213 0.394601
613 2 0.408813 0.36402 0.341339
335 4 0.35253 0.405787 0.384793
240 4 0.370658 0.410708 0.393272
614 4 0.397211 0.37451 0.360847
751 2 0.484174 0.33034 0.332852
500 4 0.117506 0.49194 0.341602
669 4 0.292885 0.429793 0.402448
336 4 0.304962 0.418587 0.393407
667 2 0.296993 0.453947 0.407435
3990 4 0.469926 0.491532 0.345173
2237 4 0.00893561 0.0564193 0.443999
2236 2 0.0141632 0.0405727 0.425379
1127 4 0.997876 0.0703523 0.452383
720 4 0.016996 0.0735495 0.449779
1782 4 0.098901 0.0101733 0.420732
1781 4 0.0886368 0.00215551 0.469013
1780 2 0.0937689 0.00616441 0.444872
724 2 0.291754 0.0546604 0.480697
963 4 0.294407 0.0144619 0.48069
726 4 0.291773 0.0778715 0.471401
725 4 0.291736 0.0314492 0.489994
432 4 0.301296 0.017431 0.498424
1579 2 0.367396 0.0122493 0.440145
1580 4 0.373217 0.03654 0.439026
425 4 0.391884 0.0383208 0.42994
2880 4 0.453142 0.0684221 0.483568
642 4 0.446002 0.0661548 0.464713
640 2 0.438745 0.085281 0.450336
718 2 0.0365017 0.0843206 0.461123
719 4 0.0560075 0.0950918 0.472467
1033 2 0.125806 0.132885 0.472401
1035 4 0.127472 0.148361 0.452834
1034 4 0.124141 0.117408 0.491969
261 4 0.137745 0.163787 0.445906
1182 4 0.292601 0.0770146 0.451873
1180 2 0.298447 0.0949952 0.435512
1181 4 0.304292 0.112976 0.41915
3157 2 0.488738 0.151269 0.488373
3158 4 0.473221 0.164511 0.473914
641 4 0.431488 0.104407 0.435959
576 4 0.441222 0.111818 0.420658
306 4 0.434841 0.123599 0.435316
304 2 0.448541 0.140991 0.446937
305 4 0.46224 0.158382 0.458558
259 2 0.151388 0.183998 0.451434
694 2 0.147466 0.231767 0.479974
260 4 0.165031 0.20421 0.456963
695 4 0.165287 0.221461 0.465784
696 4 0.129644 0.242073 0.494164
599 4 0.230591 0.19793 0.418023
687 4 0.222504 0.204787 0.434612
686 4 0.177568 0.21878 0.451515
685 2 0.200036 0.211783 0.443064
411 4 0.247293 0.220975 0.485468
267 4 0.363792 0.243165 0.425212
467 4 0.357781 0.195665 0.4549
466 2 0.363548 0.210816 0.435865
468 4 0.369316 0.225967 0.416829
873 4 0.364046 0.257005 0.498627
585 4 0.461759 0.240009 0.471586
346 2 0.0529003 0.333339 0.407888
813 4 0.220523 0.291199 0.497239
266 4 0.328247 0.277997 0.42031
265 2 0.34602 0.260581 0.422761
584 4 0.455359 0.287112 0.487111
583 2 0.458559 0.26356 0.479349
2456 4 0.47276 0.290539 0.497801
2812 2 0.998916 0.360141 0.448616
2813 4 0.0111868 0.381926 0.448435
348 4 0.0472214 0.352249 0.423228
326 4 0.0660951 0.355191 0.431205
325 2 0.0892904 0.362635 0.436839
10 3 0.138613 0.346682 0.485304
327 4 0.112486 0.370079 0.442473
7 3 0.128373 0.364495 0.454147
6 1 0.128713 0.365491 0.477126
711 4 0.147703 0.403626 0.486583
8 3 0.140734 0.384237 0.483644
9 3 0.106899 0.366973 0.484894
634 2 0.22174 0.418837 0.437536
774 4 0.213646 0.407039 0.473477
635 4 0.206879 0.410819 0.455976
709 2 0.170979 0.403764 0.47745
772 2 0.230111 0.402724 0.491793
710 4 0.194254 0.403903 0.468317
504 4 0.263679 0.375466 0.418447
586 2 0.392869 0.406204 0.478488
239 4 0.388662 0.395417 0.437348
238 2 0.37966 0.403062 0.41531
588 4 0.384251 0.398145 0.456443
681 4 0.0761786 0.425231 0.47767
1383 4 0.0494793 0.470768 0.43316
1381 2 0.0616473 0.492563 0.434617
680 4 0.0544281 0.458551 0.447381
679 2 0.0653034 0.441891 0.462526
384 4 0.138041 0.42194 0.490919
383 4 0.0885319 0.428628 0.493127
382 2 0.113286 0.425284 0.492023
570 4 0.159992 0.480788 0.460696
569 4 0.142523 0.440284 0.484253
568 2 0.151258 0.460536 0.472474
636 4 0.236601 0.426854 0.419096
880 2 0.326022 0.494465 0.493494
882 4 0.328602 0.500595 0.469392
4 3 0.315934 0.487113 0.420683
5 3 0.302796 0.476258 0.454257
1 1 0.307843 0.494242 0.441228
668 4 0.301101 0.478102 0.412422
1183 2 0.997615 0.010772 0.582655
1184 4 0.00288814 0.0101247 0.558223
1059 4 0.159511 0.0679192 0.582065
1150 2 0.158655 0.0798282 0.548519
1151 4 0.147602 0.0776374 0.57084
340 2 0.181394 0.0420089 0.5137
342 4 0.179603 0.066766 0.516709
2430 4 0.20122 0.0124796 0.520051
341 4 0.183184 0.0172518 0.51069
1152 4 0.169709 0.0820189 0.526199
430 2 0.323102 0.0177727 0.510653
431 4 0.344908 0.0181145 0.522882
843 4 0.344182 0.0369635 0.528917
842 4 0.384274 0.0469334 0.557095
841 2 0.364228 0.0419484 0.543006
1217 4 0.402277 0.0467264 0.567886
1216 2 0.407485 0.0225394 0.571498
2879 4 0.472558 0.0504047 0.525984
3009 4 0.480154 0.0743884 0.573791
2878 2 0.46285 0.0594134 0.504776
879 4 0.0779216 0.161606 0.552168
877 2 0.0552783 0.159959 0.541692
1199 4 0.0136647 0.164559 0.532777
878 4 0.032635 0.158312 0.531216
938 4 0.0915999 0.150434 0.5445
937 2 0.103066 0.13665 0.527073
939 4 0.114533 0.122866 0.509646
1272 4 0.0935376 0.15826 0.561848
1270 2 0.0930192 0.179789 0.574552
1260 4 0.115853 0.233935 0.50524
1258 2 0.0969577 0.249785 0.509352
409 2 0.265885 0.216322 0.501526
898 2 0.301798 0.206154 0.549465
899 4 0.312873 0.215544 0.56982
900 4 0.290722 0.196764 0.52911
410 4 0.284477 0.21167 0.517584
791 4 0.329232 0.223799 0.577347
790 2 0.33627 0.246786 0.57047
1259 4 0.078062 0.265635 0.513464
812 4 0.255655 0.319547 0.518753
811 2 0.238089 0.305373 0.507996
650 4 0.259547 0.323044 0.53749
649 2 0.279582 0.315986 0.550679
651 4 0.299617 0.308928 0.563869
871 2 0.35594 0.261887 0.521771
872 4 0.347833 0.266768 0.544914
792 4 0.343308 0.269772 0.563594
1238 4 0.339215 0.283221 0.576989
2455 2 0.484375 0.302587 0.516379
2457 4 0.495991 0.314634 0.534957
935 4 0.0128603 0.347637 0.51136
1136 4 0.128842 0.406034 0.548301
1135 2 0.138694 0.396451 0.569189
773 4 0.246576 0.398409 0.510109
1190 4 0.249328 0.404097 0.528871
1189 2 0.235258 0.410409 0.548553
1191 4 0.221187 0.416721 0.568234
804 4 0.259023 0.337844 0.524506
802 2 0.258776 0.362814 0.523233
803 4 0.258529 0.387783 0.52196
930 4 0.26409 0.405389 0.515463
926 4 0.413831 0.408493 0.514257
587 4 0.401486 0.414263 0.500533
927 4 0.450429 0.382253 0.536
925 2 0.43213 0.395373 0.525129
928 2 0.280273 0.424437 0.51614
929 4 0.296457 0.443485 0.516817
891 4 0.313493 0.485613 0.533721
1952 4 0.330559 0.477002 0.532234
881 4 0.323443 0.488334 0.517597
1951 2 0.329188 0.45204 0.532634
1953 4 0.327816 0.427077 0.533034
889 2 0.295378 0.497553 0.546149
890 4 0.277263 0.509494 0.558577
1001 4 0.402856 0.48411 0.545796
662 4 0.412016 0.467619 0.540723
661 2 0.41141 0.447525 0.525856
1911 4 0.41473 0.474158 0.558377
663 4 0.410804 0.42743 0.510989
1909 2 0.422088 0.460246 0.577807
1332 4 0.422555 0.483444 0.543347
1330 2 0.445749 0.490869 0.537685
4085 4 0.486707 0.49882 0.540405
1185 4 0.992341 0.0114194 0.607088
945 4 0.0520251 0.0024657 0.634953
1057 2 0.151206 0.0495566 0.596864
1058 4 0.1429 0.031194 0.611663
2375 4 0.139148 0.0149683 0.599895
1284 4 0.126971 0.0688029 0.657252
950 4 0.230051 0.0126799 0.596893
949 2 0.24279 0.0328968 0.604255
951 4 0.255528 0.0531138 0.611617
1031 4 0.268609 0.0663908 0.617935
1030 2 0.271282 0.0734705 0.641765
1032 4 0.273955 0.0805502 0.665596
3007 2 0.492565 0.0746614 0.595495
3008 4 0.504976 0.0749343 0.617199
1083 4 0.0246515 0.139403 0.650849
3179 4 0.0395793 0.151795 0.649813
1155 4 0.149231 0.0836593 0.588737
1153 2 0.157959 0.10424 0.599938
1154 4 0.166686 0.12482 0.611139
1221 4 0.156761 0.130612 0.627035
1219 2 0.174449 0.147406 0.632537
1211 4 0.243677 0.148896 0.662689
1210 2 0.2255 0.162511 0.652228
888 4 0.253046 0.164574 0.67005
808 2 0.492288 0.0826172 0.656574
809 4 0.503864 0.0828403 0.634412
3178 2 0.0238418 0.167084 0.637823
1245 4 0.074155 0.215246 0.651456
3180 4 0.00810423 0.182373 0.625833
1243 2 0.0829082 0.210232 0.628577
1244 4 0.0916614 0.205219 0.605699
1271 4 0.0925007 0.201318 0.587257
1220 4 0.192136 0.164201 0.638039
1212 4 0.207323 0.176125 0.641766
797 4 0.187597 0.226011 0.61148
796 2 0.192383 0.202658 0.619023
798 4 0.19717 0.179305 0.626565
857 4 0.3136 0.220285 0.588146
856 2 0.296026 0.217213 0.605664
858 4 0.278453 0.214141 0.623183
905 4 0.465752 0.230485 0.606404
3123 4 0.471309 0.227579 0.626795
3121 2 0.483214 0.214512 0.644477
3122 4 0.495119 0.201444 0.66216
983 4 0.0193295 0.296305 0.59323
982 2 0.0351594 0.306511 0.609675
984 4 0.0509893 0.316716 0.62612
3263 4 0.0427949 0.328573 0.639034
3262 2 0.0439231 0.322661 0.663303
805 2 0.308433 0.310854 0.649429
806 4 0.286734 0.309895 0.661815
807 4 0.330132 0.311814 0.637043
947 4 0.304812 0.261013 0.669246
1239 4 0.341795 0.306677 0.621078
1237 2 0.340505 0.294949 0.599033
906 4 0.467676 0.280171 0.601085
904 2 0.466714 0.255328 0.603744
952 2 0.480712 0.315611 0.60764
953 4 0.465711 0.296489 0.613516
954 4 0.495714 0.334732 0.601765
1041 4 0.0569065 0.335747 0.627659
1039 2 0.0587992 0.360678 0.627531
1040 4 0.0606919 0.38561 0.627403
993 4 0.0604366 0.405829 0.628805
991 2 0.0405583 0.414977 0.616708
1137 4 0.148546 0.386869 0.590077
897 4 0.170307 0.384442 0.589135
895 2 0.192271 0.396174 0.586867
896 4 0.214235 0.407906 0.584599
1029 4 0.229143 0.401996 0.655989
1206 4 0.488174 0.407817 0.599404
3309 4 0.49875 0.394352 0.608557
3307 2 0.504917 0.370511 0.604226
992 4 0.02068 0.424124 0.60461
1172 4 0.227081 0.422422 0.585837
1171 2 0.222073 0.445834 0.593047
1160 4 0.201217 0.471625 0.589187
1173 4 0.217065 0.469245 0.600257
1188 4 0.197599 0.475633 0.658921
1187 4 0.200039 0.470392 0.609249
1186 2 0.198819 0.473013 0.634085
1175 4 0.184915 0.488731 0.667084
1159 2 0.185926 0.489666 0.581069
1204 2 0.466863 0.420893 0.599171
1910 4 0.429446 0.446335 0.597237
1269 4 0.438731 0.443453 0.614143
1267 2 0.438543 0.458549 0.634074
1205 4 0.445552 0.433969 0.598939
1268 4 0.438355 0.473645 0.654005
1226 4 0.167822 0.0760922 0.743128
1282 2 0.12672 0.0838046 0.677254
2255 4 0.244683 0.0039137 0.739545
1004 4 0.334973 0.00741496 0.70328
1003 2 0.324685 0.0300155 0.706204
1005 4 0.314397 0.0526161 0.709129
45 3 0.4442 0.0498094 0.678441
1162 2 0.498034 0.0674939 0.710238
42 3 0.442001 0.0631109 0.713243
41 1 0.443759 0.0687888 0.69102
1163 4 0.480239 0.0802345 0.698148
44 3 0.463346 0.0808247 0.687881
1075 2 0.0444368 0.0916132 0.718403
1076 4 0.0428136 0.0922197 0.693459
1081 2 0.0262984 0.119275 0.665592
1082 4 0.0279453 0.0991474 0.680334
850 2 0.067004 0.174888 0.732374
1077 4 0.04606 0.0910068 0.743346
909 4 0.0960428 0.155174 0.716682
907 2 0.106818 0.132821 0.71362
908 4 0.117594 0.110467 0.710558
1283 4 0.12647 0.0988063 0.697256
1227 4 0.132911 0.0987976 0.715444
851 4 0.0836027 0.169683 0.714414
1225 2 0.150367 0.0874449 0.729286
1149 4 0.229749 0.0961397 0.749722
886 2 0.270645 0.160536 0.687345
829 2 0.330952 0.144058 0.709532
830 4 0.307303 0.151379 0.706024
887 4 0.288245 0.156499 0.704641
978 4 0.298735 0.163002 0.71938
831 4 0.354601 0.136737 0.71304
1142 4 0.37172 0.143394 0.720093
1141 2 0.390828 0.159096 0.716418
43 3 0.425453 0.0817711 0.685125
810 4 0.480712 0.0823941 0.678735
1025 4 0.471775 0.163323 0.701018
3424 2 0.475369 0.120803 0.69721
3426 4 0.474475 0.0971026 0.689293
3425 4 0.476262 0.144503 0.705127
3269 4 0.485135 0.158347 0.714699
3268 2 0.493686 0.165857 0.736962
1209 4 0.0836247 0.218825 0.6683
1208 4 0.0909135 0.185652 0.705003
1207 2 0.0872691 0.202239 0.686651
1107 4 0.101307 0.174268 0.71679
1105 2 0.12123 0.185055 0.727367
1106 4 0.141154 0.195842 0.737944
1130 4 0.150177 0.211519 0.729274
1129 2 0.162105 0.221573 0.748814
976 2 0.300745 0.183558 0.733472
977 4 0.302755 0.204114 0.747564
918 4 0.311194 0.218484 0.757464
916 2 0.298014 0.238524 0.750401
1193 4 0.35068 0.217786 0.69592
1194 4 0.398727 0.204557 0.700078
1192 2 0.374704 0.211172 0.697999
1143 4 0.409936 0.174799 0.712744
1262 4 0.416656 0.192393 0.719972
1261 2 0.422276 0.195657 0.744116
1024 2 0.448953 0.173133 0.703873
1026 4 0.426132 0.182942 0.706727
3264 4 0.0450513 0.316748 0.687571
779 4 0.0487518 0.303049 0.70099
778 2 0.0604208 0.281396 0.696504
780 4 0.0720899 0.259742 0.692018
893 4 0.0364018 0.318232 0.704845
1065 4 0.214783 0.283102 0.697581
1063 2 0.239004 0.289194 0.698768
946 2 0.288042 0.269092 0.685939
948 4 0.271271 0.277171 0.702632
1064 4 0.263225 0.295286 0.699955
917 4 0.284835 0.258563 0.743337
1008 4 0.432022 0.313278 0.722578
1006 2 0.436681 0.29809 0.741886
892 2 0.0344161 0.336504 0.721796
894 4 0.0324304 0.354777 0.738748
816 4 0.0311451 0.374382 0.741538
814 2 0.052637 0.386385 0.74592
3276 4 0.01661 0.365444 0.735051
815 4 0.074129 0.398388 0.750302
1067 4 0.146718 0.392523 0.71421
940 2 0.107649 0.401276 0.723312
941 4 0.130113 0.402254 0.712376
942 4 0.0851844 0.400298 0.734247
1066 2 0.163114 0.408198 0.70369
1068 4 0.179509 0.423873 0.69317
1019 4 0.397691 0.398752 0.732978
1176 4 0.154488 0.475221 0.704399
1027 2 0.209244 0.413097 0.666285
1028 4 0.189346 0.424198 0.676581
1174 2 0.169701 0.481976 0.685741
1140 4 0.356179 0.455087 0.725801
1230 4 0.392221 0.434262 0.73719
1100 4 0.403409 0.417661 0.735719
1138 2 0.344529 0.473956 0.71425
1139 4 0.332879 0.492825 0.702698
2168 4 0.425095 0.482445 0.667786
3329 4 0.490425 0.449656 0.688846
1101 4 0.446761 0.442586 0.735482
1099 2 0.425085 0.430124 0.7356
3330 4 0.4597 0.455398 0.727881
1251 4 0.459359 0.45217 0.746908
3328 2 0.475062 0.452527 0.708364
1296 4 0.0258906 0.0527938 0.798705
1294 2 0.0167022 0.0324243 0.787487
864 4 0.0555219 0.0823572 0.758784
1148 4 0.183956 0.0763107 0.752972
1203 4 0.174936 0.0602107 0.752305
1201 2 0.184485 0.039015 0.76151
1202 4 0.194035 0.0178194 0.770715
2254 2 0.227077 0.00465741 0.757283
2256 4 0.20947 0.00540111 0.775021
975 4 0.338113 0.0410748 0.826286
2322 4 0.465241 0.042736 0.789319
2320 2 0.468664 0.0179737 0.789856
846 4 0.463221 0.0598613 0.779821
844 2 0.471748 0.0828219 0.774793
852 4 0.0504054 0.180094 0.750335
862 2 0.0557666 0.1019 0.774378
863 4 0.0560113 0.121444 0.789972
833 4 0.0566725 0.130019 0.807462
1125 4 0.0655748 0.138188 0.792006
1123 2 0.0755507 0.161013 0.794171
832 2 0.0422923 0.118841 0.824592
35 3 0.0940034 0.13487 0.837594
34 3 0.117851 0.149781 0.812562
31 1 0.115268 0.142371 0.834398
1147 2 0.206852 0.0862252 0.751347
921 4 0.209476 0.139872 0.824057
1257 4 0.247787 0.0961926 0.757644
919 2 0.200719 0.163289 0.824405
1255 2 0.259425 0.105123 0.777893
1256 4 0.271063 0.114053 0.798141
840 4 0.284608 0.112223 0.813436
845 4 0.480275 0.105782 0.769765
1214 4 0.0342062 0.168463 0.755375
1213 2 0.0143827 0.182951 0.750649
1072 2 0.0701799 0.211779 0.817813
1074 4 0.0508312 0.225795 0.825185
1073 4 0.0895286 0.197763 0.81044
1124 4 0.0855266 0.183838 0.796335
1131 4 0.174034 0.231627 0.768354
1277 4 0.174866 0.239167 0.7861
1276 2 0.184742 0.22097 0.800119
1278 4 0.194617 0.202773 0.814138
920 4 0.191961 0.186706 0.824753
822 4 0.180652 0.250029 0.77047
1298 4 0.308963 0.200749 0.765944
1297 2 0.319653 0.199644 0.78852
1086 4 0.327998 0.185367 0.825298
1299 4 0.330342 0.198538 0.811097
50 3 0.391609 0.204813 0.782522
1043 4 0.40747 0.246772 0.79032
49 3 0.40698 0.232183 0.803313
46 1 0.408499 0.209931 0.796916