ITEM: TIMESTEP
520000
ITEM: NUMBER OF ATOMS
4590
ITEM: BOX BOUNDS pp pp pp
-9.9985700000000008e+00 9.9985700000000008e+00
-9.9985700000000008e+00 9.9985700000000008e+00
-9.9985700000000008e+00 9.9985700000000008e+00
ITEM: ATOMS id type xs ys zs
463 2 0.0389693 0.0709413 0.0443935
464 4 0.0184575 0.0566559 0.0450023
1667 4 0.0857761 0.0159407 0.0785055
465 4 0.0594811 0.0852268 0.0437846
534 4 0.17641 0.0950782 0.994602
492 4 0.262208 0.0074437 0.0719737
490 2 0.268453 0.0178067 0.0500926
491 4 0.274699 0.0281697 0.0282116
296 4 0.367183 0.0501709 0.0766731
557 4 0.366889 0.0638004 0.0606798
1608 4 0.404357 0.0127905 0.0219453
556 2 0.348777 0.0787454 0.0692688
745 2 0.460184 0.0698916 0.0218856
747 4 0.455803 0.0564028 0.0012936
701 4 0.0672304 0.0841671 0.0247716
589 2 0.0310444 0.140735 0.066432
591 4 0.020815 0.122454 0.0527809
700 2 0.0918043 0.0843926 0.0293812
702 4 0.116378 0.084618 0.0339908
566 4 0.127148 0.101843 0.0403782
565 2 0.145023 0.119188 0.0425788
567 4 0.162897 0.136532 0.0447795
423 4 0.10782 0.154446 0.0194068
360 4 0.258489 0.123182 0.0146274
558 4 0.330665 0.0936904 0.0778579
746 4 0.464566 0.0833804 0.0424777
770 4 0.448521 0.136766 0.0409698
769 2 0.455504 0.15255 0.0590603
553 2 0.0478167 0.206264 0.00280305
554 4 0.0252796 0.197329 0.996687
836 4 0.0822677 0.226657 0.020198
555 4 0.0703538 0.2152 0.00891952
835 2 0.103801 0.234753 0.0104034
837 4 0.125335 0.24285 0.000608768
571 2 0.325291 0.24575 0.0292667
461 4 0.322436 0.216748 0.0633413
573 4 0.326775 0.226857 0.0455765
666 4 0.32323 0.21338 0.0311048
664 2 0.3299 0.190685 0.0230054
771 4 0.462487 0.168335 0.0771507
292 2 0.144381 0.314111 0.0354019
293 4 0.16644 0.309203 0.0461022
294 4 0.122322 0.319018 0.0247017
507 4 0.161643 0.29333 0.0570346
505 2 0.182045 0.291897 0.0714176
483 4 0.219114 0.297871 0.093444
481 2 0.239144 0.309204 0.0836694
355 2 0.247133 0.266478 0.0172283
357 4 0.236095 0.282384 0.0330507
572 4 0.323807 0.264644 0.0129569
609 4 0.278247 0.322645 0.0780637
1071 4 0.40881 0.263325 0.0502248
1069 2 0.403473 0.273106 0.0278411
1070 4 0.398136 0.282887 0.00545734
324 4 0.385771 0.250949 0.0859863
322 2 0.409553 0.252675 0.0784629
519 4 0.488549 0.275905 0.0660582
328 2 0.00426561 0.417531 0.0592616
286 2 0.156446 0.381474 0.00131513
287 4 0.159718 0.366113 0.0207706
251 4 0.266603 0.406726 0.0246469
252 4 0.279276 0.373321 0.0596356
250 2 0.272939 0.390023 0.0421412
608 4 0.283203 0.372282 0.0815762
607 2 0.280725 0.347464 0.0798199
281 4 0.465209 0.35205 0.0459948
671 4 0.470379 0.345295 0.064189
280 2 0.468546 0.371159 0.0302187
282 4 0.471883 0.390268 0.0144425
670 2 0.452901 0.330328 0.0739716
330 4 0.0131638 0.440393 0.0640888
550 2 0.0869411 0.433183 0.0435775
551 4 0.0752866 0.443782 0.0241608
552 4 0.0985957 0.422583 0.0629942
627 4 0.228156 0.452917 0.0725346
625 2 0.205775 0.444726 0.080099
245 4 0.245642 0.457907 0.0689663
244 2 0.249922 0.477099 0.0535211
246 4 0.254201 0.49629 0.0380759
272 4 0.272483 0.493897 0.031399
271 2 0.292532 0.488579 0.0174372
524 4 0.317002 0.478874 0.0835197
273 4 0.312581 0.48326 0.00347535
227 4 0.475187 0.45724 0.0704035
226 2 0.47598 0.456584 0.0454211
563 4 0.431396 0.448836 0.0129287
228 4 0.476773 0.455927 0.0204387
20 3 0.0479161 0.0793469 0.153215
19 3 0.0136422 0.0752587 0.168257
450 4 0.152848 0.0607362 0.177948
1806 4 0.0995626 0.012044 0.129096
448 2 0.164131 0.0824568 0.172839
1506 4 0.190056 0.00682315 0.163413
652 2 0.292738 0.00862898 0.160806
653 4 0.285966 0.0255152 0.143654
295 2 0.36291 0.0279925 0.0873985
297 4 0.358636 0.00581411 0.0981239
758 4 0.414559 0.0567491 0.155137
485 4 0.351363 0.989875 0.105058
2723 4 0.503299 0.0578387 0.148149
2722 2 0.499588 0.0331336 0.14712
590 4 0.0412738 0.159016 0.0800831
379 2 0.00657234 0.122268 0.171705
237 4 0.140029 0.149639 0.151449
235 2 0.160288 0.136101 0.157058
236 4 0.180548 0.122563 0.162667
449 4 0.175413 0.104177 0.16773
693 4 0.192802 0.108764 0.160286
691 2 0.21552 0.109628 0.170694
337 2 0.0706629 0.229231 0.147602
338 4 0.0939707 0.220209 0.146876
339 4 0.047355 0.238253 0.148328
476 4 0.148162 0.227141 0.132399
475 2 0.123711 0.222264 0.130509
477 4 0.0992607 0.217388 0.128619
737 4 0.164005 0.238994 0.133074
363 4 0.104403 0.233585 0.160002
738 4 0.203361 0.225105 0.105526
736 2 0.183683 0.232049 0.1193
460 2 0.334426 0.212309 0.084829
354 4 0.26744 0.257873 0.0953643
285 4 0.260115 0.196777 0.141841
283 2 0.275799 0.190554 0.160292
630 4 0.408721 0.189273 0.124648
254 4 0.400427 0.186085 0.107586
255 4 0.359767 0.212602 0.1196
462 4 0.346416 0.207871 0.106317
253 2 0.380097 0.199344 0.113593
629 4 0.456855 0.176059 0.121609
628 2 0.432788 0.182666 0.123129
619 2 0.00312396 0.325776 0.114689
456 4 0.100899 0.338079 0.10052
506 4 0.202448 0.290463 0.0858006
482 4 0.259174 0.320537 0.0738949
352 2 0.273836 0.269224 0.116705
353 4 0.280232 0.280576 0.138045
754 2 0.293188 0.315655 0.151574
755 4 0.288873 0.291078 0.153161
278 4 0.271278 0.28399 0.154689
741 4 0.35004 0.311769 0.0865101
323 4 0.433336 0.254401 0.0709395
620 4 0.0264516 0.334165 0.117946
647 4 0.0430991 0.346423 0.114576
646 2 0.0547799 0.346417 0.136683
648 4 0.0664608 0.346411 0.158791
455 4 0.107911 0.386285 0.0892171
454 2 0.104405 0.362182 0.0948683
537 4 0.174447 0.364788 0.149268
535 2 0.19851 0.360667 0.143869
536 4 0.222573 0.356546 0.13847
756 4 0.297504 0.340232 0.149988
612 4 0.278354 0.346763 0.152565
610 2 0.265616 0.365431 0.163263
739 2 0.356092 0.334352 0.0953731
740 4 0.362143 0.356935 0.104236
15 3 0.37364 0.365784 0.117533
385 2 0.341527 0.364141 0.142331
386 4 0.354591 0.361176 0.121219
11 1 0.394842 0.370999 0.124007
13 3 0.40512 0.352348 0.133222
14 3 0.394367 0.388253 0.139515
12 3 0.406906 0.377829 0.105651
495 4 0.397177 0.405938 0.149534
672 4 0.435423 0.315361 0.0837543
645 4 0.461226 0.392025 0.145791
597 4 0.469955 0.409209 0.151481
315 4 0.0104373 0.440175 0.112242
626 4 0.183395 0.436536 0.0876634
523 2 0.337713 0.466405 0.0899033
637 2 0.265114 0.501485 0.128649
638 4 0.276671 0.500081 0.150777
767 4 0.28141 0.492861 0.168679
525 4 0.358425 0.453936 0.0962869
658 2 0.374865 0.481951 0.138193
493 2 0.397857 0.428814 0.139466
660 4 0.384431 0.463783 0.123924
494 4 0.398538 0.451691 0.129397
659 4 0.365299 0.500118 0.152462
16 1 0.0364791 0.0743255 0.172258
18 3 0.0423626 0.0531407 0.179674
17 3 0.0418048 0.089656 0.188561
673 2 0.122566 0.0683359 0.22951
674 4 0.144957 0.0786913 0.233582
675 4 0.100175 0.0579805 0.225437
1505 4 0.233016 0.0323144 0.161096
1504 2 0.211536 0.0195688 0.162254
689 4 0.223093 0.010801 0.25706
28 3 0.320992 0.0793502 0.231133
21 1 0.373041 0.0311065 0.220275
24 3 0.353136 0.0198019 0.21648
25 3 0.380636 0.0402098 0.200831
759 4 0.384462 0.0591589 0.195
757 2 0.399511 0.057954 0.175068
22 3 0.369263 0.0478994 0.235535
23 3 0.388899 0.0165407 0.228922
742 2 0.482378 0.0249983 0.243432
743 4 0.499817 0.00711255 0.242356
381 4 0.0174617 0.144231 0.166783
511 2 0.0305864 0.151265 0.209507
512 4 0.0215035 0.148049 0.186435
579 4 0.105993 0.105612 0.187625
513 4 0.0396693 0.15448 0.23258
577 2 0.0919249 0.126156 0.189914
578 4 0.0778564 0.146699 0.192202
692 4 0.238238 0.110491 0.181102
723 4 0.186419 0.138782 0.20973
721 2 0.186107 0.142566 0.234444
582 4 0.253778 0.123373 0.187366
580 2 0.273854 0.121629 0.202167
581 4 0.29393 0.119886 0.216969
30 3 0.313774 0.115115 0.221836
26 1 0.320075 0.101244 0.238764
27 3 0.340945 0.107397 0.24623
312 4 0.423896 0.145699 0.177395
310 2 0.426632 0.128764 0.195586
311 4 0.429368 0.111829 0.213777
362 4 0.126299 0.230776 0.204872
361 2 0.115351 0.23218 0.182437
372 4 0.129106 0.242145 0.221087
370 2 0.15321 0.246054 0.226458
284 4 0.291484 0.184331 0.178743
763 2 0.37975 0.236599 0.191742
765 4 0.389676 0.213753 0.18957
308 4 0.346689 0.232439 0.217649
528 4 0.461453 0.250441 0.22651
395 4 0.050561 0.296332 0.21733
394 2 0.03741 0.281567 0.232634
750 4 0.0697616 0.303063 0.224394
748 2 0.0917676 0.291207 0.223797
749 4 0.113774 0.279351 0.2232
371 4 0.177315 0.249964 0.23183
279 4 0.235945 0.285048 0.190062
277 2 0.253612 0.284519 0.172375
307 2 0.324554 0.24339 0.213738
309 4 0.302419 0.254342 0.209827
764 4 0.369825 0.259445 0.193915
623 4 0.38 0.274712 0.188907
622 2 0.400956 0.286833 0.182653
624 4 0.421912 0.298954 0.176399
527 4 0.472336 0.253308 0.177785
526 2 0.466894 0.251875 0.202147
300 4 0.141637 0.341467 0.222204
298 2 0.137845 0.353141 0.243987
602 4 0.0926268 0.417043 0.248368
290 4 0.227385 0.401109 0.25086
611 4 0.252879 0.384098 0.173961
387 4 0.328463 0.367106 0.163443
302 4 0.333772 0.385132 0.169557
303 4 0.338937 0.394723 0.218363
301 2 0.336355 0.389927 0.19396
643 2 0.462007 0.376526 0.165395
644 4 0.462789 0.361027 0.185
447 4 0.464221 0.35908 0.205014
445 2 0.475973 0.372277 0.222704
446 4 0.487725 0.385473 0.240393
262 2 0.0530465 0.426067 0.235289
264 4 0.0288034 0.42444 0.229389
263 4 0.0772895 0.427695 0.241189
1430 4 0.174903 0.490858 0.192617
417 4 0.171342 0.472871 0.184924
415 2 0.177266 0.452986 0.198877
291 4 0.203471 0.426782 0.215227
416 4 0.18319 0.433102 0.21283
289 2 0.215428 0.413945 0.233044
768 4 0.256948 0.457273 0.193895
766 2 0.269179 0.475067 0.181287
714 4 0.415861 0.492024 0.235057
595 2 0.482452 0.427728 0.162708
1568 4 0.510469 0.480056 0.205175
1404 4 0.0771636 0.996613 0.25086
1799 4 0.0227455 0.00702516 0.286676
232 2 0.00724613 0.0438091 0.279869
233 4 0.0241998 0.0258143 0.283603
1402 2 0.0574021 0.00491568 0.263734
1403 4 0.0376406 0.0132181 0.276607
234 4 0.990292 0.0618039 0.276136
318 4 0.0294917 0.070081 0.323848
732 4 0.147898 0.0816149 0.360843
1699 2 0.23201 0.0485766 0.31556
1701 4 0.245469 0.0302942 0.326038
1700 4 0.218551 0.0668589 0.305082
697 2 0.392884 0.0500966 0.321699
699 4 0.387043 0.0302777 0.307618
1518 4 0.369173 0.0244488 0.313742
744 4 0.464939 0.0428841 0.244509
478 2 0.4707 0.034176 0.309012
351 4 0.454365 0.0428773 0.260361
349 2 0.451383 0.0674154 0.264125
479 4 0.489418 0.0346224 0.292441
480 4 0.451981 0.0337295 0.325583
398 4 0.080804 0.144525 0.300521
397 2 0.090369 0.125655 0.313848
399 4 0.0999339 0.106785 0.327176
731 4 0.104985 0.0901092 0.336613
730 2 0.126442 0.0858621 0.348728
248 4 0.215233 0.0863871 0.310706
249 4 0.197908 0.133205 0.307759
247 2 0.20657 0.109796 0.309232
404 4 0.204481 0.151864 0.301792
546 4 0.182847 0.160102 0.272862
722 4 0.185796 0.146349 0.259158
29 3 0.305032 0.102879 0.256354
632 4 0.382316 0.120691 0.316889
631 2 0.389161 0.10263 0.332768
350 4 0.4484 0.0919535 0.267888
331 2 0.439233 0.169091 0.282237
332 4 0.462033 0.166029 0.292031
762 4 0.478232 0.175574 0.285242
389 4 0.0653446 0.221183 0.332375
444 4 0.986357 0.239288 0.297187
393 4 0.0810579 0.204594 0.272452
392 4 0.12892 0.193138 0.281321
391 2 0.104989 0.198866 0.276886
545 4 0.138096 0.176084 0.288438
544 2 0.160471 0.168093 0.28065
403 2 0.215351 0.163171 0.282319
405 4 0.226221 0.174477 0.262846
707 4 0.323816 0.208055 0.332271
377 4 0.300212 0.247805 0.330398
378 4 0.274587 0.240666 0.288052
376 2 0.287399 0.244235 0.309225
420 4 0.392676 0.21898 0.324367
717 4 0.38801 0.257088 0.331619
333 4 0.416432 0.172153 0.272443
522 4 0.505459 0.210558 0.24781
520 2 0.49361 0.232368 0.250821
521 4 0.481761 0.254179 0.253833
418 2 0.408442 0.205766 0.33858
760 2 0.48828 0.18524 0.305997
761 4 0.498328 0.194907 0.326753
396 4 0.024259 0.266802 0.247938
443 4 0.0141286 0.26653 0.265766
442 2 0.000243025 0.252909 0.281477
364 2 0.0210953 0.324723 0.295865
365 4 0.0369494 0.307972 0.286208
366 4 0.00524113 0.341473 0.305521
401 4 0.188411 0.275331 0.28881
345 4 0.238495 0.316743 0.295834
400 2 0.210256 0.286938 0.292456
402 4 0.2321 0.298544 0.296103
510 4 0.22305 0.312601 0.306398
344 4 0.277783 0.306345 0.266696
343 2 0.258139 0.311544 0.281265
498 4 0.344494 0.327951 0.293843
496 2 0.346321 0.303492 0.288985
497 4 0.348148 0.279033 0.284128
542 4 0.441675 0.324539 0.303876
299 4 0.134053 0.364815 0.265771
601 2 0.106326 0.397482 0.255775
603 4 0.120026 0.377921 0.263182
734 4 0.136808 0.383533 0.272099
733 2 0.153033 0.398325 0.284061
508 2 0.220463 0.335712 0.315583
735 4 0.169259 0.413117 0.296023
677 4 0.185463 0.404761 0.303785
676 2 0.203972 0.388337 0.307372
678 4 0.222481 0.371913 0.310959
435 4 0.281628 0.366189 0.306248
433 2 0.28743 0.37711 0.327979
729 4 0.356334 0.367572 0.258911
727 2 0.347491 0.380919 0.278116
615 4 0.402667 0.353215 0.320405
613 2 0.381546 0.362212 0.33031
728 4 0.338648 0.394265 0.297321
543 4 0.39768 0.348218 0.301769
541 2 0.419677 0.336379 0.302823
2538 4 0.468419 0.355481 0.29086
2537 4 0.488217 0.399692 0.278447
2536 2 0.478318 0.377586 0.284654
549 4 0.0310404 0.426199 0.320087
777 4 0.0851336 0.456753 0.293013
1757 4 0.0893081 0.488841 0.247643
775 2 0.1082 0.466055 0.290444
776 4 0.131266 0.475356 0.287874
414 4 0.141394 0.466684 0.302882
412 2 0.162648 0.476545 0.311611
436 2 0.291066 0.442099 0.26883
437 4 0.281539 0.450747 0.247392
438 4 0.300594 0.43345 0.290269
712 2 0.421483 0.496474 0.25901
2861 4 0.490404 0.483226 0.275843
316 2 0.0295735 0.073327 0.34864
317 4 0.0296553 0.076573 0.373432
604 2 0.199 0.0839213 0.381983
605 4 0.196889 0.0698708 0.361408
683 4 0.259925 0.087908 0.371076
441 4 0.308326 0.0144442 0.376448
698 4 0.398724 0.0699155 0.33578
633 4 0.396007 0.0845692 0.348646
257 4 0.413442 0.0809398 0.340683
256 2 0.425686 0.0746308 0.361551
424 2 0.408519 0.0412305 0.404699
426 4 0.422856 0.056563 0.391115
258 4 0.437929 0.0683219 0.382419
459 4 0.00543287 0.166979 0.403383
457 2 0.02962 0.163948 0.408948
606 4 0.201111 0.0979718 0.402557
600 4 0.185877 0.127469 0.360244
598 2 0.17716 0.150285 0.365597
682 2 0.276673 0.0959959 0.387788
684 4 0.293421 0.104084 0.404499
473 4 0.250145 0.168517 0.358662
320 4 0.308083 0.11417 0.411832
516 4 0.411031 0.145996 0.407739
451 2 0.488246 0.146933 0.3797
515 4 0.446336 0.143917 0.372384
514 2 0.428684 0.144956 0.390061
453 4 0.463446 0.149945 0.378671
2655 4 0.987958 0.2191 0.375948
388 2 0.0687247 0.240803 0.347501
687 4 0.161741 0.174154 0.389807
599 4 0.168444 0.1731 0.37095
685 2 0.172606 0.194898 0.398572
686 4 0.18347 0.215642 0.407337
474 4 0.274803 0.211834 0.36271
472 2 0.262474 0.190176 0.360686
488 4 0.276223 0.221887 0.381355
487 2 0.27652 0.237992 0.400479
489 4 0.276816 0.254097 0.419603
706 2 0.344991 0.199082 0.342084
708 4 0.366166 0.190108 0.351896
468 4 0.371473 0.218235 0.420867
419 4 0.424207 0.192552 0.352794
305 4 0.4514 0.202625 0.414796
390 4 0.0721048 0.260423 0.362627
616 2 0.0720113 0.322419 0.376259
618 4 0.0530681 0.30763 0.383159
347 4 0.0464186 0.300499 0.400931
617 4 0.0909546 0.337209 0.36936
275 4 0.14264 0.293364 0.38701
274 2 0.159821 0.276534 0.393847
276 4 0.177003 0.259704 0.400683
373 2 0.201953 0.315968 0.388349
374 4 0.213673 0.303527 0.3701
715 2 0.36572 0.259403 0.342706
716 4 0.343429 0.261719 0.353794
269 4 0.49948 0.265532 0.390846
2814 4 0.992154 0.404397 0.423748
408 4 0.0938354 0.383237 0.398115
406 2 0.0830683 0.398786 0.38176
407 4 0.0723012 0.414335 0.365406
548 4 0.0711205 0.409565 0.344938
509 4 0.217876 0.358822 0.324769
434 4 0.293232 0.38803 0.349711
503 4 0.258965 0.386735 0.417745
336 4 0.306108 0.392846 0.411071
614 4 0.360424 0.37121 0.340215
561 4 0.461676 0.355935 0.384182
752 4 0.458891 0.37032 0.369203
559 2 0.471391 0.364501 0.405569
751 2 0.4546 0.391508 0.356639
753 4 0.450309 0.412696 0.344075
547 2 0.0510804 0.417882 0.332512
500 4 0.153028 0.49264 0.371904
499 2 0.132261 0.485116 0.38362
501 4 0.111493 0.477591 0.395336
413 4 0.183901 0.486407 0.320341
1557 4 0.226742 0.512674 0.383373
5 3 0.30144 0.481757 0.384212
1 1 0.313492 0.474969 0.402305
4 3 0.306078 0.454158 0.409401
3 3 0.336025 0.473919 0.396867
594 4 0.419519 0.459123 0.356781
592 2 0.414896 0.483504 0.359842
119 3 0.500996 0.42317 0.356482
1772 4 0.0290382 0.0171148 0.415044
718 2 0.0376735 0.0701564 0.46567
720 4 0.0396052 0.0522402 0.483003
2237 4 0.0360674 0.0328587 0.48775
2236 2 0.0287795 0.0103364 0.4797
719 4 0.0357418 0.0880726 0.448336
368 4 0.0854904 0.0239485 0.442131
367 2 0.109734 0.0214757 0.447726
369 4 0.133978 0.0190029 0.453321
341 4 0.193652 0.0360608 0.500854
1181 4 0.213372 0.0769432 0.476964
1180 2 0.238297 0.0784557 0.478225
1182 4 0.263223 0.0799681 0.479487
726 4 0.295261 0.0607484 0.439402
724 2 0.312971 0.0737131 0.45138
432 4 0.312332 0.0491197 0.489228
725 4 0.330681 0.0866778 0.463357
425 4 0.394181 0.025898 0.418283
2878 2 0.49117 0.070696 0.459964
2879 4 0.502214 0.0504618 0.45028
458 4 0.0538072 0.160916 0.414513
321 4 0.287858 0.129527 0.454911
319 2 0.297971 0.121848 0.433371
574 2 0.39531 0.140135 0.446425
575 4 0.41163 0.14218 0.427592
576 4 0.37899 0.138091 0.465257
642 4 0.472966 0.10977 0.468482
2880 4 0.480125 0.0909303 0.469647
640 2 0.452545 0.120963 0.477586
641 4 0.432125 0.132156 0.48669
3159 4 0.511318 0.173813 0.483165
471 4 0.00341428 0.178057 0.45655
469 2 0.0216991 0.189376 0.469306
470 4 0.039984 0.200695 0.482062
260 4 0.101289 0.234485 0.459002
261 4 0.113806 0.187105 0.468957
259 2 0.107548 0.210795 0.46398
1035 4 0.107251 0.190358 0.487272
411 4 0.280686 0.167899 0.430882
409 2 0.281712 0.180195 0.452629
410 4 0.282738 0.192491 0.474376
900 4 0.292538 0.198329 0.491105
466 2 0.392321 0.204448 0.421537
467 4 0.413169 0.190661 0.422208
304 2 0.460494 0.204676 0.437997
306 4 0.469588 0.206727 0.461197
346 2 0.0514605 0.303063 0.425286
348 4 0.0565025 0.305628 0.449642
326 4 0.0629423 0.318217 0.462916
695 4 0.0950434 0.254602 0.460588
694 2 0.0946684 0.27128 0.479213
696 4 0.0942933 0.287958 0.497838
7 3 0.14526 0.326889 0.491785
6 1 0.167893 0.329575 0.488673
375 4 0.190233 0.32841 0.406599
10 3 0.176914 0.309828 0.481792
651 4 0.232217 0.296157 0.48729
650 4 0.281751 0.299029 0.493529
649 2 0.256984 0.297593 0.490409
266 4 0.345407 0.244761 0.438005
267 4 0.358902 0.28513 0.464254
265 2 0.352155 0.264946 0.45113
583 2 0.474579 0.292126 0.46634
585 4 0.44994 0.294007 0.462524
2812 2 0.00243414 0.391417 0.442484
2813 4 0.0127141 0.378437 0.46122
327 4 0.110306 0.333965 0.459846
325 2 0.086624 0.326091 0.461381
8 3 0.171363 0.345906 0.47256
504 4 0.21259 0.392129 0.399831
711 4 0.168059 0.365343 0.470111
709 2 0.188462 0.378584 0.475905
710 4 0.208865 0.391825 0.481699
774 4 0.215374 0.406843 0.492814
502 2 0.235777 0.389432 0.408788
669 4 0.296787 0.411203 0.46336
334 2 0.326288 0.380939 0.419799
238 2 0.371715 0.381564 0.451963
240 4 0.351621 0.38597 0.43775
335 4 0.346467 0.369032 0.428528
239 4 0.391809 0.377159 0.466175
560 4 0.481106 0.373068 0.426956
926 4 0.427311 0.39602 0.474974
2507 4 0.495511 0.38531 0.431187
925 2 0.432895 0.389227 0.498381
1381 2 0.0358966 0.505858 0.427263
935 4 0.0198516 0.427836 0.487287
679 2 0.0537448 0.453732 0.45128
1383 4 0.027302 0.483628 0.434822
681 4 0.0678034 0.433312 0.454526
383 4 0.0867239 0.428232 0.44957
680 4 0.0396861 0.474152 0.448033
569 4 0.143127 0.452618 0.435859
384 4 0.135306 0.439971 0.45121
568 2 0.157591 0.472958 0.43735
539 4 0.0663143 0.503162 0.480583
382 2 0.111015 0.434102 0.45039
636 4 0.219928 0.453652 0.458635
634 2 0.21208 0.431665 0.46759
635 4 0.204232 0.409679 0.476545
570 4 0.172054 0.493299 0.438842
668 4 0.301144 0.438278 0.421543
667 2 0.298966 0.42474 0.442451
2 3 0.310664 0.490097 0.419401
586 2 0.411348 0.434643 0.465884
588 4 0.403679 0.458385 0.46753
587 4 0.419017 0.410902 0.464237
663 4 0.470008 0.451298 0.49109
1126 2 0.0247193 0.0556915 0.519154
1127 4 0.0258894 0.0475806 0.495532
1128 4 0.0235493 0.0638024 0.542777
1058 4 0.133401 0.0483591 0.567613
1057 2 0.143794 0.0669921 0.580651
2428 2 0.195659 0.00190834 0.51801
342 4 0.186467 0.0808042 0.521999
2430 4 0.184348 0.0184625 0.50307
340 2 0.19006 0.0584325 0.511426
1031 4 0.256006 0.0605583 0.558728
951 4 0.274274 0.0509075 0.559287
961 2 0.280116 0.0299432 0.506938
962 4 0.266968 0.0122274 0.518705
430 2 0.323868 0.0644484 0.505263
949 2 0.265207 0.0330628 0.574272
963 4 0.293264 0.0476591 0.495171
1217 4 0.405775 0.0497239 0.560948
1216 2 0.401813 0.0251682 0.563497
841 2 0.374217 0.0715923 0.539847
842 4 0.394602 0.0644525 0.552442
431 4 0.335404 0.079777 0.521299
843 4 0.353831 0.0787322 0.527251
1218 4 0.397851 0.000612417 0.566045
938 4 0.0869492 0.109819 0.546552
937 2 0.0835242 0.128273 0.530032
939 4 0.0800992 0.146726 0.513511
1151 4 0.174707 0.120396 0.557676
1150 2 0.171379 0.10472 0.538483
1034 4 0.0848914 0.163773 0.523244
1155 4 0.148727 0.104026 0.588927
1030 2 0.244002 0.0824912 0.558852
1152 4 0.16805 0.0890447 0.51929
1032 4 0.231997 0.104424 0.558975
858 4 0.264911 0.157461 0.51155
878 4 0.041693 0.215528 0.54956
1199 4 0.0262174 0.224511 0.558439
1198 2 0.00175825 0.223075 0.553452
877 2 0.0622465 0.212952 0.563564
879 4 0.0828 0.210377 0.577567
1033 2 0.0960712 0.177065 0.505258
857 4 0.266305 0.200354 0.53722
856 2 0.265608 0.178907 0.524385
898 2 0.312064 0.202029 0.506277
899 4 0.331591 0.205728 0.52145
871 2 0.407962 0.225717 0.53578
873 4 0.384253 0.225393 0.543715
872 4 0.431671 0.226041 0.527846
906 4 0.439085 0.259966 0.5897
3157 2 0.504298 0.181051 0.506045
3158 4 0.497277 0.188288 0.528925
983 4 0.0601068 0.305184 0.571412
1258 2 0.125754 0.281491 0.524488
1260 4 0.105453 0.276519 0.510764
1259 4 0.146055 0.286463 0.538211
791 4 0.267664 0.260876 0.551178
790 2 0.286057 0.253307 0.566331
811 2 0.304527 0.314963 0.51297
804 4 0.264432 0.326511 0.50667
813 4 0.328395 0.31484 0.52042
812 4 0.28066 0.315086 0.50552
954 4 0.473315 0.30532 0.551386
1011 4 0.489744 0.315614 0.557288
952 2 0.460874 0.303956 0.573032
1136 4 0.0959659 0.376478 0.55129
897 4 0.138679 0.391353 0.597027
1135 2 0.107481 0.384181 0.572105
895 2 0.162591 0.388869 0.590156
9 3 0.177505 0.336096 0.50876
1189 2 0.22286 0.377678 0.560847
773 4 0.243547 0.385997 0.528485
1190 4 0.243409 0.378152 0.546611
1191 4 0.20231 0.377203 0.575083
772 2 0.22946 0.39642 0.51065
896 4 0.186503 0.386385 0.583285
802 2 0.257061 0.346995 0.51897
803 4 0.24969 0.367478 0.531269
930 4 0.299685 0.388525 0.563913
928 2 0.303935 0.377967 0.54165
929 4 0.308186 0.367409 0.519387
927 4 0.438478 0.382435 0.521787
3309 4 0.491018 0.398816 0.566628
936 4 0.999314 0.455071 0.523854
934 2 0.00958275 0.441453 0.50557
538 2 0.0820501 0.506306 0.499758
1161 4 0.160097 0.489498 0.557173
1159 2 0.172316 0.477473 0.575373
882 4 0.313899 0.455489 0.502257
891 4 0.303378 0.443412 0.578507
880 2 0.328221 0.469791 0.516937
881 4 0.342543 0.484092 0.531617
1952 4 0.356104 0.48022 0.545421
1002 4 0.416812 0.417879 0.551149
1000 2 0.426961 0.440339 0.555355
1001 4 0.437111 0.462799 0.559562
662 4 0.489744 0.481013 0.526137
661 2 0.479876 0.466156 0.508614
943 2 0.0674376 0.0225678 0.648858
945 4 0.0624948 0.00209746 0.662338
944 4 0.0723804 0.0430382 0.635378
825 4 0.107528 0.0112714 0.608602
823 2 0.123099 0.00430319 0.626882
950 4 0.25614 0.0152181 0.589256
1092 4 0.319519 0.985454 0.629529
1090 2 0.314994 0.00127841 0.648351
45 3 0.438163 0.0781203 0.651929
810 4 0.483803 0.0845116 0.655999
808 2 0.496182 0.0803717 0.634674
1083 4 0.0300942 0.146321 0.638159
1081 2 0.0243437 0.12576 0.651172
1059 4 0.154187 0.0856251 0.593688
1153 2 0.154699 0.128238 0.590732
909 4 0.106533 0.127323 0.665236
1154 4 0.16067 0.152451 0.592536
1283 4 0.168078 0.10525 0.670814
1221 4 0.168002 0.169218 0.597747
1284 4 0.189579 0.095533 0.626722
1282 2 0.178829 0.100391 0.648768
1243 2 0.0637997 0.234842 0.622587
1245 4 0.0743666 0.239705 0.64472
1244 4 0.0532328 0.229979 0.600454
1272 4 0.101831 0.213478 0.574249
1270 2 0.1183 0.220035 0.591883
1271 4 0.134769 0.226593 0.609517
797 4 0.216759 0.255949 0.601837
1210 2 0.241137 0.19752 0.6446
1212 4 0.22494 0.198252 0.625566
1219 2 0.188152 0.179284 0.608603
1220 4 0.208301 0.18935 0.619459
796 2 0.215176 0.231629 0.607421
798 4 0.213592 0.207308 0.613005
1211 4 0.257334 0.196789 0.663634
888 4 0.266598 0.180744 0.656323
792 4 0.30445 0.245739 0.581483
904 2 0.462288 0.25067 0.590337
905 4 0.485491 0.241375 0.590974
947 4 0.161646 0.260056 0.64508
946 2 0.183692 0.261681 0.656763
948 4 0.205738 0.263306 0.668447
1238 4 0.306527 0.26352 0.592475
1237 2 0.308461 0.283017 0.60801
1239 4 0.310395 0.302513 0.623545
953 4 0.448433 0.302592 0.594677
3123 4 0.460857 0.24681 0.653412
982 2 0.0574045 0.324558 0.586985
984 4 0.0547023 0.343932 0.602558
1039 2 0.0823588 0.367112 0.626307
1041 4 0.0637612 0.355321 0.614463
3263 4 0.0475534 0.347359 0.620895
3262 2 0.0267066 0.348836 0.634621
1137 4 0.118997 0.391883 0.592919
1040 4 0.100956 0.378903 0.638151
991 2 0.134119 0.40193 0.654323
993 4 0.118795 0.388452 0.639877
1172 4 0.21866 0.420075 0.593009
1029 4 0.236256 0.421796 0.663715
1188 4 0.212168 0.497707 0.647061
1173 4 0.188491 0.456193 0.609921
1171 2 0.203576 0.438134 0.601465
1187 4 0.186277 0.475578 0.610446
1160 4 0.184536 0.465447 0.593573
1186 2 0.199223 0.486643 0.628754
1027 2 0.216752 0.408407 0.671811
889 2 0.320024 0.459433 0.58807
890 4 0.33667 0.475454 0.597632
1205 4 0.441898 0.417017 0.646623
1204 2 0.423248 0.404888 0.658034
1269 4 0.458128 0.471851 0.643041
1147 2 0.211235 0.068855 0.733497
1091 4 0.310468 0.0171033 0.667173
1004 4 0.341102 0.0742715 0.728413
1163 4 0.488432 0.0694737 0.667734
42 3 0.447103 0.0487089 0.673094
41 1 0.44884 0.0715452 0.67094
1082 4 0.0185932 0.105198 0.664186
1076 4 0.031579 0.104142 0.679039
864 4 0.0662218 0.114407 0.7377
1075 2 0.0425635 0.110576 0.700559
1077 4 0.0535481 0.117009 0.72208
907 2 0.128518 0.129763 0.676893
908 4 0.150503 0.132204 0.68855
1227 4 0.166156 0.120013 0.685193
1105 2 0.111433 0.162936 0.753708
1106 4 0.131267 0.150273 0.745254
1148 4 0.212464 0.092836 0.726527
1225 2 0.1822 0.113191 0.703116
1226 4 0.198245 0.106369 0.721038
1005 4 0.301263 0.0971749 0.708689
1003 2 0.321183 0.0857232 0.718551
1142 4 0.384907 0.164552 0.729812
831 4 0.364013 0.168506 0.698998
829 2 0.339688 0.173302 0.702233
44 3 0.471294 0.0772858 0.669799
845 4 0.484096 0.0900348 0.731582
43 3 0.439025 0.0815896 0.689411
3425 4 0.505114 0.136241 0.723675
852 4 0.0438557 0.175483 0.71435
850 2 0.0597168 0.178893 0.733375
1213 2 0.00840848 0.21601 0.744857
1214 4 0.0276412 0.200468 0.748563
1209 4 0.085389 0.227975 0.659114
1207 2 0.0943243 0.212219 0.67635
1208 4 0.103259 0.196463 0.693586
1073 4 0.10652 0.225145 0.736025
1072 2 0.0864409 0.232643 0.7489
1130 4 0.167398 0.201158 0.711653
1129 2 0.17421 0.21835 0.728482
1131 4 0.181022 0.235542 0.745312
830 4 0.315362 0.178097 0.705468
886 2 0.282798 0.178779 0.675267
887 4 0.298998 0.176814 0.694211
976 2 0.301268 0.194625 0.734591
978 4 0.298056 0.182896 0.712744
1192 2 0.371509 0.240436 0.68471
1194 4 0.391075 0.225009 0.682625
1141 2 0.405899 0.174531 0.720596
3357 4 0.507671 0.244506 0.697489
1025 4 0.488044 0.168293 0.688646
1024 2 0.466229 0.177917 0.696173
1143 4 0.426891 0.184511 0.71138
1026 4 0.444413 0.187541 0.7037
1261 2 0.444827 0.217875 0.72819
1262 4 0.433893 0.202471 0.711808
1263 4 0.45576 0.233278 0.744572
3122 4 0.493595 0.258121 0.689482
820 2 0.165497 0.273175 0.734768
821 4 0.150818 0.291489 0.726148
1064 4 0.217224 0.27891 0.671476
1065 4 0.219071 0.283805 0.721209
1063 2 0.218148 0.281357 0.696342
1193 4 0.351943 0.255864 0.686795
3121 2 0.477226 0.252465 0.671447
3274 2 0.0205776 0.396303 0.73907
892 2 0.0370566 0.349346 0.709712
893 4 0.0275828 0.335087 0.691488
894 4 0.0465304 0.363605 0.727936
3276 4 0.0303239 0.374698 0.731105
816 4 0.0469939 0.377697 0.741091
814 2 0.071584 0.376111 0.745333
940 2 0.130729 0.383737 0.744212
941 4 0.151398 0.380346 0.730556
1067 4 0.152644 0.372767 0.712488
992 4 0.149444 0.415408 0.668769
942 4 0.11006 0.387128 0.757867
1066 2 0.170178 0.388079 0.703361
1068 4 0.187711 0.40339 0.694234
1028 4 0.197249 0.395018 0.679907
806 4 0.299806 0.377917 0.67808
805 2 0.316101 0.360561 0.685725
1139 4 0.295821 0.422243 0.72396
807 4 0.332395 0.343206 0.693369
1019 4 0.395621 0.390147 0.754447
1018 2 0.383562 0.368247 0.754081
1020 4 0.371502 0.346347 0.753715
1281 4 0.0338728 0.495388 0.724893
1280 4 0.0689515 0.460028 0.720438
1279 2 0.0514121 0.477708 0.722665
1983 4 0.0193222 0.505195 0.736364
1981 2 0.996303 0.498191 0.743165
1176 4 0.254908 0.515785 0.698406
1174 2 0.237117 0.51119 0.681447
1138 2 0.277514 0.434902 0.712569
1140 4 0.259207 0.447561 0.701177
1206 4 0.404598 0.392758 0.669446
1228 2 0.385574 0.463449 0.716057
1229 4 0.367892 0.470632 0.732209
1230 4 0.403257 0.456265 0.699905
1989 4 0.371847 0.488352 0.74114
1100 4 0.421407 0.450493 0.693649
1267 2 0.45567 0.48085 0.666239
1101 4 0.45741 0.421814 0.713194
1099 2 0.439409 0.436154 0.703421
1268 4 0.453213 0.48985 0.689437
1294 2 0.0414373 0.0158344 0.78216
1295 4 0.0467851 0.0400349 0.785464
910 2 0.0904303 0.0679917 0.841447
1203 4 0.119153 0.0702713 0.796308
1201 2 0.104286 0.0510469 0.790427
1202 4 0.0894189 0.0318224 0.784547
2049 4 0.10004 0.0194339 0.77028
1149 4 0.210005 0.044874 0.740467
1257 4 0.249673 0.03483 0.794296
1255 2 0.25245 0.0567109 0.806074
1111 2 0.391561 0.0508495 0.811467
1113 4 0.406245 0.0362295 0.797474
1112 4 0.376878 0.0654694 0.825461
974 4 0.329299 0.00582545 0.833653
2321 4 0.487048 0.00415255 0.766003
851 4 0.0755779 0.182303 0.752401
911 4 0.0876723 0.0669785 0.816617
862 2 0.0526574 0.109104 0.758024
863 4 0.039093 0.103801 0.778348
832 2 0.0261817 0.104617 0.820433
833 4 0.0303063 0.104806 0.795773
1107 4 0.0915992 0.175599 0.762161
34 3 0.0938047 0.131474 0.834468
31 1 0.108606 0.147869 0.827361
35 3 0.128026 0.138282 0.820319
32 3 0.0990861 0.159415 0.80989
838 2 0.240773 0.111912 0.831016
1256 4 0.255226 0.0785917 0.817851
840 4 0.254837 0.0984174 0.815355
1084 2 0.362298 0.157937 0.805714
1085 4 0.376073 0.140472 0.817134
819 4 0.37471 0.123342 0.826875
50 3 0.414827 0.164118 0.779745
817 2 0.368746 0.0994827 0.831386
844 2 0.494448 0.0894804 0.754336
3269 4 0.49851 0.147104 0.740433
1074 4 0.066362 0.240142 0.761776
1277 4 0.183711 0.247681 0.761238
1086 4 0.348523 0.175401 0.794294
1298 4 0.32084 0.212821 0.763456
918 4 0.304605 0.224401 0.764765
977 4 0.30448 0.206355 0.756438
916 2 0.299767 0.248903 0.763579
1299 4 0.369423 0.217031 0.774532
1297 2 0.345132 0.214926 0.768994
1042 2 0.405762 0.236634 0.790323