ITEM: TIMESTEP
1310000
ITEM: NUMBER OF ATOMS
4590
ITEM: BOX BOUNDS pp pp pp
-9.9985700000000008e+00 9.9985700000000008e+00
-9.9985700000000008e+00 9.9985700000000008e+00
-9.9985700000000008e+00 9.9985700000000008e+00
ITEM: ATOMS id type xs ys zs
463 2 0.0475288 0.0704162 0.0225413
465 4 0.058989 0.0555484 0.0390576
701 4 0.0753842 0.0586508 0.0501657
464 4 0.0360686 0.085284 0.0060249
700 2 0.0906959 0.076158 0.0593434
566 4 0.124238 0.0858096 0.0608284
491 4 0.26948 0.023331 0.0410247
2264 4 0.274672 0.0352012 0.024938
2263 2 0.286875 0.0436059 0.00479761
490 2 0.276235 0.00219871 0.0525557
745 2 0.472009 0.0467323 0.00628714
746 4 0.481824 0.0472844 0.0292774
2469 4 0.485157 0.0284165 0.0330654
2467 2 0.499248 0.0115172 0.0449411
590 4 0.0252836 0.0891569 0.0692182
702 4 0.106008 0.0936652 0.0685211
565 2 0.146833 0.0876242 0.0713819
422 4 0.0902846 0.104264 0.0123058
360 4 0.225696 0.169384 0.00183231
665 4 0.326548 0.168189 0.0230482
865 2 0.356994 0.140249 0.00912897
867 4 0.340464 0.154108 0.0217731
771 4 0.452819 0.145778 0.0807848
554 4 0.0430883 0.204647 0.0193428
553 2 0.0582814 0.224232 0.0160575
555 4 0.0734746 0.243816 0.0127722
835 2 0.113221 0.240678 0.0124123
837 4 0.134817 0.228078 0.0125865
836 4 0.0916244 0.253277 0.0122382
915 4 0.155103 0.225812 0.0108486
666 4 0.315789 0.216707 0.0286047
664 2 0.321168 0.192448 0.0258264
573 4 0.305586 0.232017 0.0346695
461 4 0.317319 0.221908 0.0471042
460 2 0.328732 0.224129 0.0692401
1070 4 0.401831 0.205983 0.0670069
1069 2 0.401364 0.230156 0.0606336
1012 2 0.492605 0.213269 0.0678196
769 2 0.459159 0.167433 0.0700119
770 4 0.4655 0.189087 0.059239
1014 4 0.46986 0.203566 0.0715201
294 4 0.0733111 0.297397 0.0597427
292 2 0.0919776 0.295907 0.043174
507 4 0.126704 0.30257 0.0361658
293 4 0.110644 0.294417 0.0266053
505 2 0.151479 0.303429 0.0394255
506 4 0.176254 0.304288 0.0426852
483 4 0.175974 0.324599 0.0395188
355 2 0.295166 0.317805 0.0124275
571 2 0.305922 0.256047 0.027769
356 4 0.310427 0.298058 0.0139451
572 4 0.306257 0.280077 0.0208686
1071 4 0.400897 0.254329 0.0542602
957 4 0.380361 0.322549 0.0109836
324 4 0.418553 0.262695 0.0568541
322 2 0.430942 0.283668 0.0512114
672 4 0.447351 0.318773 0.0333309
323 4 0.443331 0.304641 0.0455686
620 4 0.00638656 0.336179 0.0748495
481 2 0.192308 0.340034 0.0504788
609 4 0.218543 0.371606 0.066023
607 2 0.23826 0.386143 0.0610106
482 4 0.208643 0.35547 0.0614388
608 4 0.257977 0.400679 0.0559983
357 4 0.279904 0.337553 0.0109099
252 4 0.256966 0.406852 0.0369383
250 2 0.281423 0.409699 0.0325887
251 4 0.30588 0.412546 0.0282391
741 4 0.408582 0.363802 0.0853984
670 2 0.460657 0.335305 0.0465537
671 4 0.473962 0.351837 0.0597765
281 4 0.472506 0.3694 0.0687337
280 2 0.467042 0.392587 0.0611367
2651 4 0.482799 0.354689 0.0765672
551 4 0.0892301 0.437332 0.06812
550 2 0.0962367 0.46023 0.0753141
552 4 0.103243 0.483129 0.0825082
242 4 0.119718 0.492562 0.0783276
244 2 0.242735 0.490499 0.0553144
245 4 0.2368 0.476471 0.0751426
627 4 0.23099 0.458865 0.0833015
272 4 0.2594 0.493777 0.0225757
271 2 0.25908 0.480695 0.00126979
524 4 0.340412 0.49119 0.0169942
523 2 0.349012 0.494582 0.0402261
525 4 0.357612 0.497974 0.0634579
282 4 0.461579 0.415773 0.0535397
226 2 0.460869 0.449641 0.032141
228 4 0.451064 0.470733 0.0229657
227 4 0.470674 0.42855 0.0413163
563 4 0.452457 0.487738 0.0139821
16 1 0.0493763 0.0582119 0.154709
20 3 0.0342856 0.0447963 0.165242
1806 4 0.0656727 0.0259217 0.148383
18 3 0.0654238 0.0452548 0.144079
2576 4 0.0289687 0.0321212 0.0818619
2575 2 0.00697673 0.0250602 0.0914365
17 3 0.0384853 0.0709601 0.138961
1804 2 0.0795208 0.00787525 0.138003
450 4 0.179883 0.0472888 0.128735
1505 4 0.180868 0.034206 0.143761
448 2 0.185312 0.0716757 0.129726
652 2 0.3186 0.0123943 0.113846
653 4 0.32467 0.0130094 0.0895982
654 4 0.312531 0.0117792 0.138094
1661 4 0.31843 0.00618977 0.156816
557 4 0.344852 0.071828 0.091714
296 4 0.366118 0.0691882 0.0923499
295 2 0.372318 0.0466797 0.1013
297 4 0.378518 0.0241711 0.11025
485 4 0.384577 0.00452416 0.116241
589 2 0.0113416 0.100745 0.0864379
2625 4 0.00396847 0.140721 0.15882
237 4 0.15797 0.143263 0.138291
578 4 0.144944 0.159288 0.139198
577 2 0.124315 0.145358 0.141558
579 4 0.103686 0.131427 0.143919
567 4 0.169427 0.0894387 0.0819354
235 2 0.177442 0.128737 0.132373
236 4 0.196914 0.114212 0.126454
693 4 0.200999 0.106508 0.144052
449 4 0.190742 0.0960626 0.130716
691 2 0.222784 0.110758 0.155564
558 4 0.355618 0.120635 0.0900712
556 2 0.350235 0.0962315 0.0908926
337 2 0.0660246 0.186851 0.155615
339 4 0.0441024 0.182819 0.144287
338 4 0.0879468 0.190882 0.166944
476 4 0.143391 0.204813 0.128716
475 2 0.123124 0.202086 0.143103
477 4 0.102856 0.199359 0.15749
737 4 0.161663 0.208719 0.123798
736 2 0.182944 0.220817 0.118705
738 4 0.204224 0.232916 0.113612
462 4 0.340145 0.226349 0.091376
284 4 0.312627 0.196907 0.137458
283 2 0.324492 0.188491 0.157795
255 4 0.344416 0.240766 0.105131
254 4 0.378025 0.225981 0.13908
253 2 0.36122 0.233373 0.122105
630 4 0.392775 0.214759 0.144387
628 2 0.400179 0.190876 0.144346
765 4 0.391925 0.233668 0.150297
629 4 0.407582 0.166994 0.144306
749 4 0.0928394 0.304202 0.155685
353 4 0.304653 0.289041 0.145856
754 2 0.288446 0.3249 0.15635
755 4 0.30082 0.303278 0.158485
278 4 0.292344 0.285993 0.161599
352 2 0.327185 0.287036 0.135205
354 4 0.349718 0.28503 0.124553
526 2 0.487633 0.291215 0.166353
647 4 0.0236052 0.33637 0.0832065
646 2 0.0479971 0.341472 0.085251
648 4 0.072389 0.346575 0.0872955
456 4 0.0862648 0.340612 0.101625
455 4 0.114705 0.380649 0.111054
454 2 0.100485 0.36063 0.10634
537 4 0.217441 0.364253 0.124116
535 2 0.20716 0.382529 0.110498
536 4 0.196879 0.400805 0.0968799
611 4 0.22731 0.375489 0.138406
610 2 0.246207 0.366915 0.152354
756 4 0.276073 0.346522 0.154215
387 4 0.341257 0.399133 0.160909
739 2 0.404855 0.373268 0.108239
740 4 0.401128 0.382734 0.131079
15 3 0.39741 0.370627 0.146112
385 2 0.363378 0.392409 0.15139
386 4 0.3855 0.385685 0.141872
11 1 0.413858 0.375505 0.161089
12 3 0.427279 0.357033 0.163887
14 3 0.42681 0.39306 0.153187
495 4 0.413544 0.398104 0.138117
1465 2 0.0121898 0.486567 0.147478
1466 4 0.0355423 0.490861 0.139641
625 2 0.216345 0.440208 0.0912148
626 4 0.2017 0.421551 0.099128
637 2 0.224205 0.498992 0.146052
767 4 0.24381 0.464751 0.13749
638 4 0.243752 0.483544 0.14394
302 4 0.337935 0.418967 0.161465
766 2 0.258976 0.451271 0.1521
494 4 0.420326 0.447084 0.130651
660 4 0.421874 0.466334 0.135399
493 2 0.416935 0.422594 0.134384
658 2 0.433309 0.477923 0.154375
2480 4 0.0128181 0.0112442 0.211689
19 3 0.0595073 0.0723289 0.170087
673 2 0.144214 0.056458 0.214442
675 4 0.131876 0.0565814 0.192695
674 4 0.156552 0.0563346 0.236189
1504 2 0.180582 0.0301096 0.168425
689 4 0.19557 0.025178 0.207541
1506 4 0.180296 0.0260132 0.193089
688 2 0.20254 0.00451367 0.219771
21 1 0.402036 0.0165693 0.227725
25 3 0.416594 0.0278542 0.214333
759 4 0.420005 0.0422481 0.202092
757 2 0.409296 0.0648413 0.202334
22 3 0.380548 0.0203443 0.220433
351 4 0.476022 0.0341452 0.240311
349 2 0.454745 0.0360734 0.227321
350 4 0.433467 0.0380016 0.214331
380 4 0.0586215 0.0898225 0.181023
512 4 0.0357869 0.133057 0.212571
379 2 0.0419758 0.102575 0.194641
381 4 0.0253301 0.115328 0.20826
511 2 0.0433538 0.154919 0.222057
545 4 0.124217 0.181362 0.25074
692 4 0.24457 0.115007 0.167075
721 2 0.197306 0.15937 0.225513
723 4 0.207912 0.143088 0.209778
582 4 0.258617 0.126748 0.176924
580 2 0.273209 0.132233 0.196473
581 4 0.287801 0.137718 0.216021
30 3 0.307517 0.13321 0.216462
26 1 0.32896 0.138582 0.22194
29 3 0.337147 0.123521 0.237578
27 3 0.329392 0.15971 0.231028
28 3 0.342288 0.138312 0.202948
758 4 0.398588 0.0874345 0.202577
310 2 0.444424 0.154908 0.184561
311 4 0.446247 0.130062 0.186698
513 4 0.0509207 0.17678 0.231543
363 4 0.0978355 0.20422 0.176192
362 4 0.120819 0.225071 0.215405
361 2 0.109327 0.214646 0.195798
372 4 0.129232 0.242437 0.216844
722 4 0.1867 0.175652 0.241248
285 4 0.336357 0.180075 0.178131
312 4 0.442601 0.179753 0.182423
521 4 0.46678 0.184372 0.227531
520 2 0.487391 0.17764 0.215078
395 4 0.0615845 0.290971 0.212116
394 2 0.0455487 0.292112 0.231267
396 4 0.0295129 0.293254 0.250417
370 2 0.152205 0.250702 0.22224
750 4 0.077837 0.298966 0.203101
748 2 0.0853382 0.301584 0.179393
300 4 0.123029 0.321858 0.215094
371 4 0.175178 0.258968 0.227636
279 4 0.277199 0.251051 0.19401
277 2 0.284771 0.268522 0.177804
308 4 0.318665 0.271195 0.23995
307 2 0.324026 0.277679 0.216404
497 4 0.309411 0.284525 0.251626
763 2 0.401011 0.251612 0.165152
309 4 0.329387 0.284162 0.192859
764 4 0.410096 0.269555 0.180007
623 4 0.412402 0.289559 0.183266
528 4 0.474485 0.309495 0.177221
622 2 0.435836 0.297742 0.186274
624 4 0.45927 0.305925 0.189283
262 2 0.055622 0.382388 0.227134
264 4 0.0408491 0.3646 0.21762
263 4 0.070395 0.400177 0.236648
298 2 0.127341 0.3418 0.229548
290 4 0.193382 0.394887 0.210114
289 2 0.180955 0.415423 0.217115
612 4 0.265105 0.35834 0.166302
13 3 0.404505 0.38115 0.18156
643 2 0.501454 0.414688 0.205576
1430 4 0.200022 0.49566 0.203604
416 4 0.16735 0.448446 0.210258
417 4 0.180227 0.496545 0.205635
415 2 0.173789 0.472496 0.207947
291 4 0.168528 0.43596 0.224116
768 4 0.274141 0.43779 0.16671
301 2 0.315889 0.430103 0.165356
303 4 0.293843 0.441238 0.169247
645 4 0.501615 0.439184 0.210585
597 4 0.485129 0.446833 0.199596
595 2 0.472136 0.467081 0.192787
596 4 0.459143 0.48733 0.185978
659 4 0.444743 0.489512 0.173352
231 4 0.4431 0.49822 0.190655
1799 4 0.031693 0.0268568 0.325574
233 4 0.0347407 0.0272075 0.306612
1402 2 0.0685489 0.0157602 0.305168
1403 4 0.0503098 0.0259305 0.318919
232 2 0.0191981 0.0368185 0.289546
234 4 0.00365557 0.0464296 0.27248
1404 4 0.086788 0.00558996 0.291418
1701 4 0.169647 0.0504862 0.323285
1699 2 0.184727 0.0702769 0.320815
23 3 0.40396 0.024069 0.249599
697 2 0.365055 0.0395048 0.310614
699 4 0.362603 0.0184298 0.297385
1518 4 0.355477 0.00346953 0.2859
698 4 0.367507 0.0605798 0.323843
743 4 0.49362 0.042305 0.302301
744 4 0.484689 0.0253738 0.256102
742 2 0.489155 0.0338394 0.279202
479 4 0.490555 0.0430203 0.321767
398 4 0.0903236 0.147951 0.308668
397 2 0.0923687 0.123652 0.314198
393 4 0.0904404 0.161403 0.294534
399 4 0.0944137 0.0993539 0.319728
1700 4 0.199807 0.0900677 0.318345
248 4 0.217754 0.0977874 0.327505
249 4 0.197459 0.143116 0.321657
247 2 0.207606 0.120452 0.324581
404 4 0.194905 0.145189 0.302021
403 2 0.191182 0.158454 0.281156
632 4 0.395905 0.104191 0.292298
631 2 0.386503 0.0903658 0.31089
333 4 0.455575 0.141376 0.265136
331 2 0.457952 0.16517 0.272442
515 4 0.446186 0.148185 0.329739
392 4 0.104426 0.181794 0.251067
544 2 0.149155 0.182592 0.252075
390 4 0.0986114 0.1656 0.311634
391 2 0.097433 0.171599 0.2728
388 2 0.0993844 0.180384 0.331784
546 4 0.174092 0.183823 0.25341
405 4 0.18746 0.171719 0.260291
344 4 0.284419 0.251038 0.334627
717 4 0.397045 0.229274 0.317554
420 4 0.403283 0.213717 0.306527
332 4 0.460329 0.188964 0.279748
418 2 0.424153 0.202252 0.298901
419 4 0.445023 0.190787 0.291275
760 2 0.477182 0.219871 0.282061
762 4 0.456233 0.206832 0.286095
761 4 0.498132 0.232911 0.278027
444 4 0.0404549 0.259828 0.299985
364 2 0.00128352 0.313395 0.262127
442 2 0.029371 0.270873 0.280482
443 4 0.0182872 0.281918 0.26098
365 4 0.0102427 0.294994 0.247763
401 4 0.226895 0.265686 0.268986
400 2 0.230836 0.272928 0.292591
402 4 0.234777 0.280169 0.316196
510 4 0.231176 0.294281 0.329375
508 2 0.22641 0.318526 0.3332
345 4 0.242928 0.278948 0.334136
343 2 0.263673 0.264993 0.334382
496 2 0.322052 0.295093 0.270432
715 2 0.403165 0.253424 0.319677
498 4 0.334694 0.305661 0.289239
716 4 0.409286 0.277574 0.321801
541 2 0.424789 0.316819 0.308457
542 4 0.41434 0.297226 0.319951
299 4 0.131653 0.361741 0.244003
601 2 0.109053 0.389439 0.252536
603 4 0.131771 0.379132 0.25421
602 4 0.0863339 0.399746 0.250862
734 4 0.145647 0.365712 0.256889
733 2 0.14629 0.358458 0.280808
735 4 0.146933 0.351203 0.304728
677 4 0.158153 0.36134 0.318836
676 2 0.181256 0.352984 0.323486
509 4 0.221644 0.342772 0.337024
433 2 0.233535 0.376934 0.333951
678 4 0.204359 0.344629 0.328135
434 4 0.250311 0.394295 0.340458
728 4 0.37798 0.380572 0.291325
727 2 0.360797 0.398737 0.291335
543 4 0.435237 0.336412 0.296962
615 4 0.430706 0.355629 0.300845
613 2 0.425926 0.375085 0.315805
2538 4 0.474085 0.381725 0.316571
2536 2 0.479743 0.40174 0.302694
614 4 0.421145 0.394541 0.330764
2537 4 0.485402 0.421756 0.288818
753 4 0.477846 0.369851 0.331228
777 4 0.0649562 0.430817 0.315602
549 4 0.0565398 0.434594 0.332962
775 2 0.0881239 0.438483 0.310155
414 4 0.124459 0.443255 0.322389
776 4 0.111292 0.446149 0.304708
412 2 0.138766 0.459077 0.335433
1545 4 0.215598 0.486069 0.329037
438 4 0.286896 0.441674 0.292993
436 2 0.306768 0.427387 0.287879
437 4 0.32664 0.4131 0.282765
729 4 0.343615 0.416901 0.291344
594 4 0.3802 0.474632 0.324881
592 2 0.402743 0.472999 0.31419
2862 4 0.482766 0.425715 0.269739
2861 4 0.440084 0.443436 0.250636
2860 2 0.461425 0.434575 0.260187
593 4 0.425287 0.471367 0.303499
1798 2 0.0175394 0.0103356 0.337899
369 4 0.0747617 0.0530286 0.371244
367 2 0.0763504 0.0300419 0.380953
732 4 0.0700973 0.0702745 0.375168
1782 4 0.0900469 0.00437644 0.407552
368 4 0.077939 0.00705522 0.390662
605 4 0.156157 0.0779938 0.355925
633 4 0.377102 0.076541 0.329482
256 2 0.397656 0.0572331 0.356333
257 4 0.379461 0.0602289 0.339447
258 4 0.415852 0.0542373 0.373219
424 2 0.406237 0.0333662 0.4114
478 2 0.468932 0.0426403 0.334316
426 4 0.41191 0.0456846 0.390395
480 4 0.447309 0.0422602 0.346864
458 4 0.0256621 0.140417 0.391663
318 4 0.0288715 0.139493 0.372465
316 2 0.042439 0.119727 0.365364
317 4 0.0560065 0.0999613 0.358263
457 2 0.0221092 0.164978 0.388613
604 2 0.155947 0.0927826 0.376085
606 4 0.155737 0.107571 0.396245
730 2 0.0826301 0.0798375 0.35576
731 4 0.095163 0.0894004 0.336353
600 4 0.230762 0.154459 0.38452
683 4 0.240268 0.137303 0.389455
682 2 0.260746 0.128967 0.401132
684 4 0.281224 0.120632 0.412808
319 2 0.315231 0.125618 0.406052
575 4 0.405537 0.139089 0.385137
516 4 0.414529 0.140751 0.36773
321 4 0.332577 0.136351 0.391592
708 4 0.337015 0.153892 0.381425
574 2 0.423192 0.139351 0.40284
451 2 0.48821 0.151479 0.340996
514 2 0.430357 0.144468 0.348735
453 4 0.465231 0.150999 0.331149
2653 2 0.00269747 0.220439 0.396059
2654 4 0.018727 0.201977 0.401295
459 4 0.0185563 0.18954 0.385563
389 4 0.100157 0.195169 0.351933
598 2 0.210983 0.167876 0.391867
687 4 0.191971 0.196937 0.413504
599 4 0.191205 0.181294 0.399213
473 4 0.239182 0.223981 0.386556
374 4 0.222255 0.234634 0.389445
472 2 0.250111 0.206317 0.400475
378 4 0.293242 0.233289 0.330831
376 2 0.296791 0.217691 0.350048
377 4 0.30034 0.202093 0.369265
474 4 0.261039 0.188653 0.414394
707 4 0.321155 0.199867 0.369787
706 2 0.329085 0.176879 0.375606
275 4 0.173271 0.323088 0.402172
347 4 0.0963872 0.328181 0.414142
274 2 0.179008 0.301805 0.39037
276 4 0.184745 0.280522 0.378567
373 2 0.213643 0.257605 0.384614
375 4 0.205031 0.280576 0.379783
559 2 0.491285 0.332083 0.397836
561 4 0.474652 0.33255 0.379173
406 2 0.0219126 0.366635 0.371439
407 4 0.0433385 0.376892 0.363635
548 4 0.0354541 0.39589 0.356585
408 4 0.00048672 0.356377 0.379242
435 4 0.216759 0.359573 0.327444
504 4 0.25653 0.386817 0.387221
334 2 0.329959 0.409091 0.400856
502 2 0.272899 0.399543 0.401195
336 4 0.307304 0.415479 0.409289
335 4 0.352614 0.402703 0.392423
240 4 0.369004 0.397592 0.403215
752 4 0.462796 0.334568 0.363311
751 2 0.470321 0.35221 0.347269
547 2 0.0459969 0.415242 0.344773
413 4 0.153074 0.474898 0.348477
500 4 0.157258 0.491158 0.357171
1543 2 0.193609 0.482498 0.340392
1544 4 0.171621 0.478927 0.351747
1126 2 0.99688 0.0561558 0.483863
1524 4 0.0453542 0.0138138 0.464171
720 4 0.018248 0.068355 0.451924
2237 4 0.0126785 0.0506182 0.451595
2236 2 0.0212492 0.0313622 0.438144
1127 4 0.000796037 0.0625003 0.459997
2238 4 0.0298199 0.0121061 0.424693
1522 2 0.0543651 0.00616228 0.486204
2428 2 0.22425 0.00277665 0.49907
2430 4 0.20509 0.0188103 0.500055
726 4 0.300703 0.0512386 0.454977
724 2 0.298503 0.040023 0.477216
725 4 0.296304 0.0288074 0.499454
425 4 0.400563 0.0210478 0.432406
2878 2 0.476057 0.0631005 0.47304
2880 4 0.470195 0.072939 0.450813
2879 4 0.481919 0.0532619 0.495266
718 2 0.0301125 0.0892827 0.458739
719 4 0.0419771 0.11021 0.465554
1033 2 0.11141 0.144285 0.483744
1035 4 0.119195 0.163084 0.469213
1182 4 0.289353 0.0887541 0.469512
320 4 0.297885 0.114885 0.420513
1180 2 0.286853 0.105267 0.450904
1181 4 0.284353 0.12178 0.432296
411 4 0.247592 0.157121 0.479537
3157 2 0.502344 0.152436 0.467216
642 4 0.467181 0.0891606 0.438633
640 2 0.458565 0.112631 0.438332
641 4 0.44995 0.136101 0.438031
306 4 0.450541 0.153666 0.429677
576 4 0.440847 0.139613 0.420543
469 2 0.0321426 0.211496 0.49656
470 4 0.0486696 0.20194 0.480412
686 4 0.150868 0.215151 0.4354
260 4 0.139014 0.211355 0.449619
261 4 0.133784 0.17188 0.479869
259 2 0.136399 0.191618 0.464744
695 4 0.140586 0.229708 0.443152
685 2 0.17142 0.206044 0.424452
488 4 0.271995 0.192653 0.43192
487 2 0.292665 0.206343 0.435157
489 4 0.313336 0.220034 0.438394
409 2 0.259142 0.17616 0.490908
410 4 0.270693 0.195198 0.502279
467 4 0.376312 0.203918 0.423811
466 2 0.374671 0.2288 0.425639
305 4 0.461745 0.201656 0.438169
304 2 0.456143 0.177661 0.433923
3158 4 0.48669 0.171918 0.466467
585 4 0.432734 0.237839 0.487927
616 2 0.137069 0.337794 0.414943
617 4 0.161808 0.334183 0.415285
694 2 0.135516 0.249839 0.457088
1260 4 0.129711 0.259284 0.489569
696 4 0.130446 0.26997 0.471024
811 2 0.263392 0.303906 0.487957
813 4 0.26437 0.288614 0.468199
266 4 0.317995 0.261322 0.463926
468 4 0.37303 0.253683 0.427467
265 2 0.339895 0.26225 0.451896
267 4 0.361794 0.263178 0.439865
2455 2 0.482765 0.301 0.494009
2456 4 0.477626 0.287202 0.473801
584 4 0.459887 0.27598 0.470357
583 2 0.44631 0.256909 0.479142
2813 4 0.997734 0.395098 0.449644
348 4 0.0628116 0.339634 0.449387
326 4 0.0676038 0.33551 0.468833
346 2 0.0795994 0.333908 0.431765
325 2 0.0778377 0.353563 0.482781
383 4 0.0880782 0.409606 0.435527
681 4 0.0698642 0.413984 0.437072
618 4 0.11233 0.341405 0.414601
10 3 0.134932 0.361914 0.47567
6 1 0.13036 0.369872 0.496513
8 3 0.134631 0.392662 0.497399
709 2 0.167798 0.410621 0.491574
774 4 0.20445 0.413961 0.480659
772 2 0.223304 0.405265 0.49459
503 4 0.289267 0.41227 0.41517
239 4 0.383808 0.391665 0.450611
238 2 0.376406 0.394629 0.426913
588 4 0.371853 0.404666 0.459398
586 2 0.386037 0.412056 0.478617
680 4 0.0352403 0.449811 0.432793
1381 2 0.0465693 0.490997 0.430053
1383 4 0.0364904 0.469944 0.439017
679 2 0.0525523 0.431898 0.434933
382 2 0.106283 0.420772 0.44853
569 4 0.13421 0.443845 0.449858
568 2 0.148915 0.459436 0.462736
384 4 0.124488 0.431938 0.461533
539 4 0.0931111 0.474775 0.483647
538 2 0.110826 0.488553 0.494671
710 4 0.186125 0.418818 0.47667
570 4 0.163621 0.475028 0.475613
636 4 0.202536 0.453666 0.425697
634 2 0.201081 0.436553 0.443869
635 4 0.199627 0.419439 0.46204
5 3 0.285462 0.498362 0.46076
668 4 0.301999 0.475546 0.432439
667 2 0.298565 0.453082 0.422011
669 4 0.295132 0.430617 0.411583
4 3 0.295291 0.492608 0.424872
1057 2 0.129096 0.0627423 0.575583
2374 2 0.120312 0.00679912 0.576895
340 2 0.196683 0.054868 0.511294
342 4 0.181331 0.0740062 0.516113
341 4 0.212034 0.0357298 0.506474
430 2 0.314061 0.0356322 0.533688
432 4 0.297596 0.025348 0.517929
963 4 0.297299 0.0104702 0.50441
431 4 0.330525 0.0459163 0.549447
843 4 0.345788 0.0538322 0.539916
1217 4 0.406475 0.0439086 0.546016
842 4 0.395484 0.0577923 0.535996
841 2 0.370636 0.0558122 0.537956
1216 2 0.415248 0.0204949 0.545895
1218 4 0.424021 0.997081 0.545774
3009 4 0.503345 0.0656976 0.565007
879 4 0.0705495 0.154352 0.554383
1272 4 0.0714706 0.142876 0.569594
938 4 0.0831027 0.139148 0.553782
1059 4 0.132232 0.0867971 0.569524
1150 2 0.156594 0.0853807 0.534771
937 2 0.0866524 0.12755 0.531917
1151 4 0.148035 0.0868472 0.558219
1155 4 0.149451 0.094427 0.575841
939 4 0.0902021 0.115952 0.510052
1034 4 0.103625 0.125486 0.498275
1152 4 0.165153 0.0839141 0.511324
878 4 0.0298004 0.180998 0.542972
1199 4 0.0108801 0.175406 0.540735
877 2 0.050175 0.167675 0.548678
471 4 0.0156156 0.221051 0.512707
857 4 0.292728 0.218008 0.569131
898 2 0.286103 0.217117 0.527136
791 4 0.299126 0.234704 0.560453
899 4 0.296234 0.219008 0.549917
900 4 0.275971 0.215225 0.504356
871 2 0.384775 0.229623 0.537163
872 4 0.380407 0.227558 0.512631
873 4 0.389143 0.231687 0.561695
3354 4 0.991694 0.299411 0.509168
1259 4 0.107978 0.267284 0.533891
1258 2 0.118844 0.263284 0.51173
649 2 0.24552 0.298397 0.542382
651 4 0.239748 0.285367 0.562926
650 4 0.251291 0.311427 0.521837
804 4 0.246134 0.327619 0.513253
790 2 0.313809 0.253988 0.566593
812 4 0.262413 0.319197 0.507715
792 4 0.328491 0.273273 0.572734
1238 4 0.337313 0.292112 0.570494
1237 2 0.331696 0.308765 0.588279
1010 4 0.488388 0.309789 0.533276
1009 2 0.493707 0.316703 0.556709
935 4 0.013384 0.404575 0.540598
9 3 0.143308 0.358769 0.512243
897 4 0.155756 0.384317 0.56651
1137 4 0.146065 0.396962 0.554106
327 4 0.0880716 0.371616 0.496729
7 3 0.108147 0.366279 0.501291
711 4 0.149472 0.402424 0.506478
1189 2 0.22949 0.390772 0.547066
773 4 0.242159 0.39657 0.508521
1190 4 0.242552 0.389226 0.525801
1191 4 0.216429 0.392319 0.56833
803 4 0.245318 0.377547 0.51055
895 2 0.179081 0.388945 0.574238
802 2 0.245726 0.352583 0.511902
930 4 0.259148 0.39035 0.51588
928 2 0.283272 0.395176 0.520343
929 4 0.307395 0.400002 0.524807
927 4 0.39107 0.386938 0.555314
925 2 0.396812 0.401942 0.536154
926 4 0.402554 0.416946 0.516995
1135 2 0.132754 0.418104 0.555115
1136 4 0.119443 0.439246 0.556124
1161 4 0.15279 0.478543 0.581879
2243 4 0.154488 0.476836 0.562057
2242 2 0.146087 0.490177 0.542651
889 2 0.31872 0.476229 0.564493
890 4 0.305251 0.473585 0.585392
891 4 0.332188 0.478873 0.543593
1953 4 0.386705 0.469096 0.534272
1951 2 0.362305 0.471931 0.529602
1952 4 0.337906 0.474765 0.524932
663 4 0.41194 0.431274 0.507152
587 4 0.400221 0.419445 0.497837
881 4 0.341505 0.481643 0.507113
1001 4 0.431533 0.48533 0.54393
662 4 0.43114 0.470794 0.531031
661 2 0.42154 0.451034 0.519092
1911 4 0.434913 0.466555 0.549426
1909 2 0.439658 0.46511 0.573933
1332 4 0.448405 0.476427 0.53878
1330 2 0.470029 0.488815 0.536748
945 4 0.0665495 0.999768 0.638
2319 4 0.0482991 0.991498 0.634949
943 2 0.0831357 0.00316659 0.656399
2375 4 0.109427 0.0276161 0.58546
1058 4 0.12596 0.0386874 0.581642
1284 4 0.156866 0.0656935 0.6439
950 4 0.294561 0.00750176 0.616861
949 2 0.287969 0.0315862 0.61557
951 4 0.281377 0.0556707 0.614279
1031 4 0.262496 0.0540099 0.620409
1153 2 0.165806 0.11011 0.586411
1270 2 0.0885265 0.139739 0.587606
1271 4 0.105582 0.136602 0.605618
1282 2 0.147519 0.0800553 0.662109
1154 4 0.182161 0.125793 0.596981
1221 4 0.196982 0.126737 0.610127
1219 2 0.201672 0.149224 0.620003
1210 2 0.242911 0.173207 0.65303
1032 4 0.261682 0.101319 0.636592
1030 2 0.262089 0.0776646 0.628501
888 4 0.282321 0.167463 0.660298
1211 4 0.263304 0.17087 0.667307
45 3 0.432465 0.0856574 0.647185
808 2 0.487596 0.0895068 0.636134
810 4 0.478079 0.0827512 0.658246
809 4 0.497113 0.0962624 0.614021
3178 2 0.00952619 0.171404 0.66155
1243 2 0.0627685 0.218514 0.647831
1244 4 0.0686277 0.22574 0.624623
3180 4 0.998573 0.185832 0.644315
1212 4 0.222517 0.175544 0.638754
1220 4 0.206361 0.171711 0.629878
796 2 0.206725 0.20561 0.612363
798 4 0.210562 0.190253 0.631719
797 4 0.202887 0.220967 0.593008
856 2 0.275221 0.215498 0.586805
858 4 0.257714 0.212988 0.60448
3121 2 0.493641 0.22961 0.646635
905 4 0.459112 0.223846 0.621902
3123 4 0.470918 0.226961 0.636543
904 2 0.448897 0.234831 0.601898
983 4 0.0555259 0.306804 0.59446
982 2 0.0526941 0.314258 0.618158
3263 4 0.0462047 0.325588 0.660816
984 4 0.0498624 0.321712 0.641856
947 4 0.249819 0.27579 0.646299
805 2 0.327452 0.331124 0.651646
906 4 0.438681 0.245815 0.581894
952 2 0.481877 0.327154 0.610278
953 4 0.461651 0.321391 0.623801
1041 4 0.0492253 0.340305 0.648344
1039 2 0.0536916 0.364667 0.64492
1040 4 0.0581579 0.389029 0.641497
993 4 0.0439576 0.396062 0.629866
896 4 0.202406 0.393572 0.581966
1172 4 0.21277 0.409566 0.576913
807 4 0.318371 0.343604 0.631974
1239 4 0.32608 0.325418 0.606064
1206 4 0.491335 0.416956 0.656306
954 4 0.502103 0.332917 0.596755
992 4 0.0663327 0.440107 0.622112
991 2 0.0551451 0.418084 0.625989
1159 2 0.176962 0.475617 0.587569
1160 4 0.201133 0.472691 0.59326
1173 4 0.205874 0.454107 0.598576
1171 2 0.209322 0.431837 0.587744
1188 4 0.200109 0.467313 0.661428
1187 4 0.19783 0.465277 0.611515
1186 2 0.19897 0.466295 0.636471
1204 2 0.471078 0.431607 0.656693
1910 4 0.444404 0.463665 0.598439
1269 4 0.441202 0.460175 0.645924
1267 2 0.429277 0.482015 0.643474
1205 4 0.45082 0.446259 0.65708
944 4 0.0997219 0.00656563 0.674798
2255 4 0.221444 0.0409795 0.736146
2254 2 0.20407 0.0278184 0.748397
1004 4 0.331901 0.00226234 0.733659
1003 2 0.340729 0.0255632 0.731581
1005 4 0.349556 0.048864 0.729503
1163 4 0.478036 0.07483 0.67588
1162 2 0.496582 0.0634355 0.688184
42 3 0.430885 0.0676062 0.679813
3179 4 0.0204795 0.156975 0.678784
1083 4 0.0094364 0.140568 0.68353
1081 2 0.0241749 0.120628 0.686749
1082 4 0.0389134 0.100689 0.689968
1076 4 0.0326142 0.0910024 0.706979
1075 2 0.0401071 0.0916716 0.730824
850 2 0.0681893 0.15198 0.730782
852 4 0.048483 0.148725 0.745824
1214 4 0.0327847 0.159094 0.745407
909 4 0.094321 0.140679 0.705164
907 2 0.108842 0.12183 0.69748
908 4 0.123363 0.102982 0.689796
1283 4 0.138173 0.0944171 0.680318
1227 4 0.141171 0.102744 0.697667
851 4 0.0878956 0.155236 0.715741
1225 2 0.154322 0.0915055 0.71572
1107 4 0.106559 0.155721 0.709913
1226 4 0.167473 0.0802665 0.733773
830 4 0.315747 0.142222 0.711205
978 4 0.304151 0.153105 0.721351
887 4 0.298981 0.147411 0.702972
886 2 0.290651 0.157437 0.681635
831 4 0.361799 0.124192 0.718613
1141 2 0.39722 0.144148 0.713648
829 2 0.338773 0.133207 0.714909
1142 4 0.382004 0.124456 0.716073
44 3 0.462532 0.0852638 0.669846
41 1 0.439359 0.0859905 0.668888
43 3 0.431596 0.105182 0.679367
1025 4 0.471952 0.149672 0.702414
3424 2 0.482902 0.117412 0.682933
3426 4 0.479739 0.0942654 0.674022
1024 2 0.449482 0.160564 0.701126
3425 4 0.486066 0.140559 0.691843
3269 4 0.490379 0.147936 0.709553
3268 2 0.496441 0.159608 0.730818
1178 4 0.990533 0.210079 0.753993
1245 4 0.0569093 0.211288 0.67104
1209 4 0.0727044 0.20912 0.682722
1215 4 0.00127373 0.197868 0.743314
1213 2 0.0170292 0.178481 0.744361
1207 2 0.0947213 0.216667 0.691859
1105 2 0.118014 0.172556 0.724423
1208 4 0.116738 0.224213 0.700996
976 2 0.301001 0.171094 0.738429
977 4 0.297851 0.189083 0.755506
917 4 0.264247 0.239753 0.752083
1194 4 0.392504 0.2334 0.70663
1193 4 0.349 0.252564 0.722151
1192 2 0.370752 0.242982 0.714391
1143 4 0.412437 0.16384 0.711223
1026 4 0.427013 0.171456 0.699837
1261 2 0.427387 0.197189 0.732318
1262 4 0.419091 0.1818 0.714442
3262 2 0.0424893 0.318429 0.684483
3264 4 0.0387738 0.31127 0.70815
779 4 0.053384 0.317918 0.719685
893 4 0.0367435 0.327625 0.719354
778 2 0.0706492 0.311353 0.736537
821 4 0.131289 0.27989 0.751453
946 2 0.249165 0.279822 0.670967
1064 4 0.237985 0.294257 0.708674
1065 4 0.206293 0.269252 0.738188
1063 2 0.222139 0.281755 0.723431
948 4 0.248511 0.283853 0.695635
806 4 0.336534 0.318645 0.671317
1008 4 0.421772 0.322298 0.724958
1006 2 0.434205 0.312404 0.744263
892 2 0.0288373 0.347926 0.731623
894 4 0.0209311 0.368227 0.743892
3276 4 0.0188524 0.387393 0.748526
814 2 0.0552915 0.39576 0.750742
816 4 0.0369697 0.379468 0.745838
1066 2 0.156022 0.407814 0.694242
1067 4 0.137231 0.414334 0.709393
940 2 0.111689 0.406007 0.736558
1029 4 0.241807 0.399659 0.69251
1068 4 0.174814 0.401294 0.679091
1027 2 0.21751 0.402963 0.687622
1028 4 0.193212 0.406267 0.682735
1019 4 0.403582 0.403912 0.72715
1280 4 0.0578842 0.503538 0.673989
941 4 0.135256 0.409592 0.729013
1176 4 0.162508 0.468482 0.708624
1175 4 0.185105 0.477469 0.664929
1174 2 0.173807 0.472975 0.686776
1140 4 0.295474 0.460426 0.687944
1138 2 0.303452 0.450701 0.709553
1139 4 0.31143 0.440976 0.731162
1230 4 0.407277 0.478116 0.726112
1228 2 0.387386 0.469188 0.738351
1100 4 0.418096 0.461335 0.722558
1101 4 0.46171 0.444289 0.740107
1099 2 0.439903 0.452812 0.731332
1251 4 0.476644 0.44889 0.75163
3330 4 0.479067 0.435667 0.737542
3328 2 0.49147 0.438079 0.715966
1201 2 0.157951 0.0559735 0.76236
1202 4 0.157515 0.033578 0.77347
1203 4 0.158387 0.0783689 0.75125
2049 4 0.169388 0.0186311 0.767731
2256 4 0.186695 0.0146574 0.760648
1148 4 0.175827 0.0876852 0.74973
1257 4 0.242688 0.0768893 0.75723
2321 4 0.454481 0.00303081 0.775123
2322 4 0.461697 0.0493718 0.792477
2320 2 0.458089 0.0262013 0.7838
846 4 0.465376 0.0686488 0.790646
980 4 0.455379 0.0127809 0.820153
1077 4 0.0476 0.0923407 0.754669
864 4 0.0536103 0.0843491 0.772278
862 2 0.0445373 0.104114 0.784616
863 4 0.0354644 0.123878 0.796954
832 2 0.00656027 0.121148 0.823965
833 4 0.0204585 0.132786 0.806743
1125 4 0.0372374 0.142513 0.803068
31 1 0.128109 0.143648 0.818944
35 3 0.144189 0.142372 0.802868
33 3 0.107183 0.145466 0.809085
32 3 0.128662 0.124546 0.831748
34 3 0.132035 0.161969 0.832632
1147 2 0.200784 0.0867339 0.750927
1149 4 0.225741 0.0857826 0.752123
921 4 0.193001 0.157356 0.82047
1255 2 0.256617 0.0893071 0.773872
1256 4 0.270546 0.101725 0.790514
840 4 0.288255 0.112383 0.791973
838 2 0.300816 0.129907 0.804634
839 4 0.313378 0.147431 0.817294
1112 4 0.406416 0.088326 0.83483
844 2 0.470413 0.0875097 0.806269
845 4 0.475449 0.106371 0.821891
1123 2 0.0306614 0.166442 0.806121
1124 4 0.0240855 0.190372 0.809175
1072 2 0.0560412 0.22947 0.770845
1073 4 0.0346993 0.239146 0.779566
1074 4 0.0773832 0.219793 0.762123
1106 4 0.129468 0.189391 0.738933
1130 4 0.148765 0.188969 0.745625
1129 2 0.156869 0.208328 0.759216
822 4 0.158984 0.245959 0.775587
1131 4 0.164973 0.227688 0.772807
1277 4 0.176104 0.240513 0.782885
1276 2 0.176925 0.229134 0.805135