ITEM: TIMESTEP
3250000
ITEM: NUMBER OF ATOMS
4590
ITEM: BOX BOUNDS pp pp pp
-9.9985700000000008e+00 9.9985700000000008e+00
-9.9985700000000008e+00 9.9985700000000008e+00
-9.9985700000000008e+00 9.9985700000000008e+00
ITEM: ATOMS id type xs ys zs
1805 4 0.0553037 0.0124369 0.0743263
700 2 0.119581 0.0794683 0.0294073
702 4 0.143619 0.0792535 0.0225299
566 4 0.145775 0.0696084 0.00566885
746 4 0.485335 0.0495499 0.0449517
2469 4 0.494584 0.0411251 0.0605622
745 2 0.473492 0.0545609 0.0235083
985 2 0.429617 0.075234 0.995937
463 2 0.0557245 0.0943485 0.0406264
464 4 0.0322244 0.10202 0.0368758
590 4 0.0139233 0.102207 0.0446735
589 2 0.999586 0.100048 0.0650442
465 4 0.0792246 0.0866767 0.0443771
701 4 0.0955425 0.0796832 0.0362848
579 4 0.10886 0.143214 0.0884759
558 4 0.357254 0.127089 0.0475574
556 2 0.344731 0.111562 0.0626318
866 4 0.355737 0.141408 0.0342563
865 2 0.36016 0.165944 0.0361502
827 4 0.369696 0.127104 0.0334861
557 4 0.332208 0.0960338 0.0777061
826 2 0.381485 0.111689 0.0177201
986 4 0.406155 0.0814684 0.00192686
828 4 0.393275 0.0962741 0.00195415
554 4 0.0279673 0.217154 0.0451141
553 2 0.0529203 0.21705 0.043528
555 4 0.0778733 0.216947 0.0419419
835 2 0.111593 0.221912 0.0113888
836 4 0.0924902 0.216658 0.0266414
837 4 0.130696 0.227166 0.996136
666 4 0.333283 0.240186 0.0729771
573 4 0.315031 0.247758 0.0751418
664 2 0.343458 0.223227 0.0576796
665 4 0.353634 0.206267 0.042382
867 4 0.364583 0.19048 0.0380441
2808 4 0.0562141 0.285043 0.0479285
2806 2 0.0325573 0.288276 0.0553497
2807 4 0.00890037 0.29151 0.0627708
356 4 0.308483 0.315528 0.0597097
572 4 0.310892 0.294918 0.0590318
355 2 0.296494 0.330027 0.0432412
571 2 0.312962 0.271338 0.0670868
1070 4 0.395064 0.264122 0.0616581
1069 2 0.418408 0.270228 0.0682142
1071 4 0.441751 0.276335 0.0747703
620 4 0.016689 0.382323 0.0855744
647 4 0.02798 0.365844 0.0848658
293 4 0.125585 0.330932 0.0807937
507 4 0.124009 0.338678 0.0623847
505 2 0.139899 0.355274 0.0525228
506 4 0.15579 0.371869 0.042661
483 4 0.172973 0.381202 0.0370309
481 2 0.189816 0.399363 0.0404467
609 4 0.224844 0.418166 0.0358743
482 4 0.20666 0.417523 0.0438625
357 4 0.284505 0.344526 0.0267726
902 4 0.280161 0.347255 0.00765735
741 4 0.402777 0.385421 0.0775338
671 4 0.494641 0.369374 0.0815454
280 2 0.496605 0.412269 0.0693276
281 4 0.495541 0.388015 0.0753098
550 2 0.0672316 0.449803 0.0775918
552 4 0.0766417 0.472934 0.0788425
1787 4 0.0696711 0.491196 0.076063
551 4 0.0578215 0.426671 0.0763411
244 2 0.23705 0.481103 0.0412673
245 4 0.230842 0.466119 0.0602966
627 4 0.225981 0.445961 0.0635335
625 2 0.215688 0.430105 0.079899
246 4 0.243257 0.496087 0.022238
272 4 0.24913 0.489176 0.00559214
607 2 0.246363 0.418034 0.0231428
608 4 0.267882 0.417902 0.0104112
252 4 0.272313 0.436654 0.0151944
250 2 0.290437 0.451104 0.0245702
251 4 0.308561 0.465553 0.033946
2289 4 0.31762 0.47314 0.0182418
2287 2 0.330683 0.491798 0.00792582
226 2 0.46259 0.460578 0.0715989
227 4 0.478857 0.444116 0.0621344
228 4 0.446323 0.477039 0.0810634
282 4 0.497668 0.436523 0.0633454
563 4 0.440759 0.495681 0.07724
16 1 0.0661351 0.0527621 0.141523
20 3 0.0553076 0.0694634 0.130456
18 3 0.0635304 0.032722 0.130121
19 3 0.0577174 0.0507771 0.163055
1806 4 0.0754302 0.0366461 0.113179
1804 2 0.065367 0.0245415 0.0937528
17 3 0.0885542 0.0577685 0.142736
675 4 0.0861544 0.0596132 0.162861
652 2 0.324751 0.0190474 0.138507
654 4 0.306175 0.00728523 0.150414
296 4 0.33936 0.0859192 0.0943283
653 4 0.343327 0.0308096 0.126601
484 2 0.377609 0.0149845 0.111753
297 4 0.34637 0.03894 0.109966
485 4 0.361725 0.0317816 0.121279
295 2 0.342865 0.0624296 0.102147
486 4 0.393493 0.998188 0.102228
237 4 0.157407 0.14451 0.1278
577 2 0.129897 0.149121 0.100631
578 4 0.150934 0.155027 0.112786
235 2 0.165414 0.125997 0.142576
476 4 0.151643 0.163008 0.130043
236 4 0.173422 0.107484 0.157352
691 2 0.214227 0.0945153 0.157358
692 4 0.237357 0.088248 0.150225
582 4 0.241859 0.105162 0.139444
449 4 0.173947 0.0927587 0.169244
737 4 0.168236 0.159246 0.120001
693 4 0.191096 0.100783 0.16449
580 2 0.265386 0.112862 0.142962
581 4 0.288913 0.120561 0.146481
29 3 0.303674 0.159248 0.150206
771 4 0.412781 0.141084 0.104422
769 2 0.432121 0.156927 0.104787
475 2 0.140913 0.176357 0.148259
736 2 0.179139 0.175485 0.104425
738 4 0.190043 0.191724 0.0888492
285 4 0.321723 0.16806 0.15522
461 4 0.324197 0.238242 0.0899185
354 4 0.312681 0.231728 0.150545
462 4 0.326508 0.232576 0.13955
460 2 0.325352 0.235409 0.114734
352 2 0.29484 0.244135 0.162911
283 2 0.32217 0.192778 0.15148
284 4 0.322617 0.217497 0.147741
255 4 0.329364 0.230915 0.156736
253 2 0.349988 0.238271 0.168808
770 4 0.451461 0.172771 0.105152
1014 4 0.443786 0.191155 0.110304
1013 4 0.463889 0.236638 0.115592
1012 2 0.453837 0.213897 0.112948
455 4 0.0685378 0.328862 0.162793
454 2 0.0682505 0.336883 0.139113
610 2 0.243836 0.329069 0.118189
756 4 0.241607 0.296033 0.133257
612 4 0.25429 0.306642 0.121783
754 2 0.256865 0.283032 0.148201
755 4 0.272124 0.270031 0.163146
323 4 0.451635 0.333142 0.102399
322 2 0.445858 0.309269 0.0977181
324 4 0.440081 0.285397 0.0930377
519 4 0.468227 0.25673 0.11247
517 2 0.482177 0.26482 0.131579
456 4 0.0679631 0.344903 0.115432
648 4 0.0661712 0.336306 0.0978914
646 2 0.0470756 0.351075 0.0913786
294 4 0.0830465 0.345659 0.102573
292 2 0.104316 0.338296 0.0916833
626 4 0.205395 0.41425 0.0962646
536 4 0.212376 0.397315 0.104946
611 4 0.233382 0.351496 0.114594
535 2 0.212731 0.373646 0.112997
537 4 0.213086 0.349976 0.121048
387 4 0.329937 0.413069 0.123759
739 2 0.395716 0.389786 0.101119
740 4 0.388655 0.394152 0.124704
385 2 0.353431 0.407353 0.130122
386 4 0.376926 0.401636 0.136486
495 4 0.395272 0.406983 0.139153
15 3 0.378535 0.381882 0.135598
11 1 0.393396 0.379649 0.15271
12 3 0.409667 0.364543 0.146693
14 3 0.403425 0.400085 0.157203
670 2 0.473009 0.357218 0.0846234
672 4 0.451377 0.345062 0.0877015
242 4 0.0831347 0.487366 0.0897013
241 2 0.100629 0.495879 0.105407
243 4 0.118123 0.504391 0.121113
1440 4 0.131211 0.489291 0.113608
1438 2 0.15491 0.487533 0.105834
1439 4 0.178609 0.485775 0.0980602
639 4 0.18475 0.474976 0.113713
637 2 0.209639 0.475186 0.111332
638 4 0.234528 0.475395 0.10895
767 4 0.248607 0.48682 0.0992501
303 4 0.314463 0.47007 0.0889954
768 4 0.297788 0.480105 0.093181
301 2 0.322889 0.45078 0.102488
302 4 0.331316 0.43149 0.115981
766 2 0.273197 0.483463 0.0962155
493 2 0.403045 0.430696 0.137587
660 4 0.414487 0.462536 0.153032
494 4 0.410819 0.454408 0.136021
524 4 0.423641 0.467778 0.136184
525 4 0.430215 0.484491 0.0895128
523 2 0.426928 0.476134 0.112848
658 2 0.427125 0.478242 0.167824
380 4 0.0709119 0.062423 0.17432
379 2 0.0601789 0.0793588 0.189259
673 2 0.106952 0.056086 0.176284
674 4 0.127751 0.0525588 0.189707
450 4 0.147095 0.0551854 0.188425
1505 4 0.140669 0.0374091 0.188518
1504 2 0.1476 0.0269489 0.210144
448 2 0.160521 0.073972 0.178835
1506 4 0.154532 0.0164887 0.231771
689 4 0.171297 0.00365756 0.231448
632 4 0.377417 0.0473738 0.249154
22 3 0.400058 0.00276579 0.200122
25 3 0.414751 0.0137119 0.232637
757 2 0.452516 0.0296081 0.216415
759 4 0.433671 0.0188356 0.228824
758 4 0.471362 0.0403805 0.204007
350 4 0.429123 0.00851552 0.244888
512 4 0.0537281 0.114297 0.21131
381 4 0.0494459 0.0962947 0.204197
511 2 0.0560173 0.138011 0.203723
513 4 0.0583064 0.161726 0.196136
30 3 0.291944 0.126599 0.164837
26 1 0.307234 0.143368 0.166745
28 3 0.305594 0.153233 0.187683
27 3 0.32838 0.134659 0.164265
339 4 0.0753882 0.166411 0.186644
477 4 0.130183 0.189706 0.166476
337 2 0.0969916 0.178739 0.184096
363 4 0.130301 0.20576 0.178299
338 4 0.118595 0.191067 0.181548
362 4 0.125518 0.248054 0.204548
361 2 0.12791 0.226907 0.191423
370 2 0.141766 0.241269 0.244366
723 4 0.239679 0.195508 0.24483
628 2 0.399646 0.21272 0.186223
630 4 0.38341 0.231335 0.182339
254 4 0.370611 0.245627 0.180881
765 4 0.381065 0.242026 0.197908
629 4 0.415882 0.194106 0.190108
311 4 0.474782 0.20468 0.183062
312 4 0.430297 0.194308 0.203415
310 2 0.45254 0.199494 0.193238
761 4 0.45084 0.178208 0.229711
749 4 0.0591418 0.312751 0.169694
750 4 0.0461219 0.288283 0.211318
395 4 0.0372867 0.28606 0.229346
748 2 0.0526319 0.300517 0.190506
394 2 0.0350681 0.294506 0.252775
372 4 0.133611 0.250398 0.222564
300 4 0.134242 0.322379 0.161481
298 2 0.129574 0.33096 0.184498
299 4 0.124906 0.339541 0.207514
733 2 0.135084 0.332554 0.247714
353 4 0.276999 0.256543 0.175277
278 4 0.262999 0.268629 0.180476
277 2 0.264288 0.27984 0.202788
279 4 0.265577 0.291051 0.2251
401 4 0.27301 0.309609 0.224439
496 2 0.300955 0.324829 0.199837
498 4 0.287426 0.306201 0.209592
763 2 0.388189 0.265926 0.196103
764 4 0.395312 0.289825 0.194299
623 4 0.409697 0.298717 0.184498
528 4 0.476936 0.299885 0.200078
624 4 0.459277 0.296827 0.190744
622 2 0.434487 0.297772 0.187621
526 2 0.491565 0.288238 0.18348
262 2 0.0584408 0.404178 0.21027
263 4 0.078098 0.391441 0.201521
734 4 0.124441 0.342293 0.227292
602 4 0.0948341 0.393009 0.213318
601 2 0.112258 0.375101 0.214258
603 4 0.129681 0.357193 0.215199
290 4 0.165759 0.412974 0.233845
497 4 0.314484 0.343456 0.190082
308 4 0.320594 0.361735 0.187771
307 2 0.342626 0.367283 0.177332
309 4 0.364659 0.37283 0.166893
13 3 0.382532 0.37182 0.17166
264 4 0.0387835 0.416914 0.219019
2618 4 0.02248 0.427847 0.221365
2617 2 0.00114401 0.420892 0.232391
289 2 0.1749 0.41527 0.210686
291 4 0.184042 0.417566 0.187527
416 4 0.200623 0.429079 0.182266
415 2 0.201113 0.454012 0.180457
1430 4 0.213569 0.489183 0.19097
417 4 0.201604 0.478945 0.178648
597 4 0.490347 0.469088 0.210647
659 4 0.439762 0.493948 0.182616
595 2 0.470996 0.48342 0.203916
232 2 0.00408911 0.0559782 0.310853
1799 4 0.011131 0.0166695 0.308066
233 4 0.0174925 0.0349534 0.31272
1402 2 0.0539939 0.0237711 0.3093
1403 4 0.029418 0.0199411 0.311857
1404 4 0.0785697 0.0276012 0.306743
1798 2 0.00218756 0.00172093 0.326003
633 4 0.381559 0.026246 0.294289
631 2 0.379488 0.0368099 0.271722
257 4 0.367479 0.0370539 0.302444
698 4 0.367456 0.0179643 0.304605
256 2 0.353606 0.0461514 0.321151
349 2 0.441333 0.00358706 0.266144
744 4 0.461943 0.00568736 0.30478
742 2 0.483109 0.0163255 0.312781
351 4 0.453542 0.998659 0.2874
743 4 0.504275 0.0269636 0.320781
393 4 0.0996339 0.156286 0.302184
398 4 0.102009 0.148397 0.319868
392 4 0.119497 0.169194 0.258144
391 2 0.109566 0.16274 0.280164
397 2 0.087826 0.128124 0.323473
249 4 0.196707 0.136088 0.324326
404 4 0.194843 0.153764 0.332638
444 4 0.0376643 0.245155 0.314261
388 2 0.0831424 0.188382 0.320883
390 4 0.0931454 0.1657 0.317622
545 4 0.13743 0.17965 0.260697
544 2 0.161121 0.180153 0.268675
371 4 0.14992 0.23214 0.266169
403 2 0.193838 0.169457 0.313198
546 4 0.184813 0.180656 0.276652
721 2 0.22204 0.188922 0.261282
405 4 0.192833 0.185149 0.293758
722 4 0.2044 0.182336 0.277734
376 2 0.304896 0.234827 0.332141
420 4 0.384031 0.220586 0.281937
717 4 0.371265 0.233814 0.289844
418 2 0.407247 0.211339 0.281109
715 2 0.373605 0.255482 0.302099
331 2 0.462715 0.198139 0.306621
332 4 0.447421 0.206763 0.288819
419 4 0.430463 0.202092 0.280282
760 2 0.44817 0.193305 0.249463
762 4 0.4455 0.208403 0.269214
333 4 0.478008 0.189515 0.324423
442 2 0.0370311 0.265886 0.300296
364 2 0.0303943 0.321629 0.304053
396 4 0.0328494 0.302953 0.276204
443 4 0.036398 0.286616 0.286331
365 4 0.043801 0.303993 0.29246
735 4 0.145727 0.322815 0.268136
677 4 0.158755 0.307398 0.271064
508 2 0.231945 0.32152 0.293309
509 4 0.213576 0.337137 0.299931
676 2 0.17682 0.320733 0.282064
510 4 0.250314 0.305902 0.286687
400 2 0.268795 0.309652 0.249085
378 4 0.306506 0.259683 0.329952
402 4 0.264581 0.309696 0.273731
345 4 0.267195 0.295804 0.287151
343 2 0.283508 0.282032 0.300166
344 4 0.299821 0.26826 0.313181
716 4 0.375946 0.27715 0.314354
542 4 0.368002 0.295406 0.309181
541 2 0.383544 0.309497 0.322784
751 2 0.487051 0.313369 0.333203
753 4 0.487913 0.316095 0.308364
2538 4 0.49221 0.33219 0.29708
407 4 0.0186074 0.351968 0.330212
366 4 0.0169877 0.339266 0.315646
548 4 0.0246095 0.356725 0.312197
547 2 0.0277785 0.380317 0.304547
549 4 0.0309475 0.403909 0.296896
2493 4 0.00551751 0.355605 0.31617
678 4 0.194885 0.334068 0.293065
435 4 0.199961 0.350533 0.30171
433 2 0.190637 0.3628 0.321402
728 4 0.370196 0.409981 0.299972
777 4 0.0353551 0.421408 0.306114
2463 4 0.00203227 0.487761 0.291848
775 2 0.0547089 0.427062 0.320901
1543 2 0.146358 0.481864 0.321611
1545 4 0.170356 0.480021 0.314837
1436 4 0.188555 0.486175 0.309752
727 2 0.36652 0.427476 0.317453
729 4 0.362843 0.44497 0.334935
2861 4 0.502723 0.435437 0.311261
1772 4 0.999943 0.0285605 0.396742
732 4 0.0816716 0.0731336 0.383042
369 4 0.0804194 0.0518379 0.377549
367 2 0.0919441 0.034865 0.391842
368 4 0.103469 0.017892 0.406135
604 2 0.17989 0.0116517 0.371838
1701 4 0.196518 0.0491434 0.386408
1699 2 0.202193 0.0726215 0.379947
605 4 0.186165 0.0331644 0.382928
1581 4 0.395768 0.997839 0.401185
258 4 0.339733 0.0552488 0.339857
424 2 0.355375 0.0608579 0.375216
425 4 0.365827 0.0534512 0.396688
1580 4 0.367661 0.0382788 0.409864
426 4 0.344924 0.0682645 0.353743
1579 2 0.381714 0.0180588 0.405524
480 4 0.503058 0.0559693 0.383515
399 4 0.0736429 0.10785 0.327079
730 2 0.0743164 0.0859294 0.362859
317 4 0.0542566 0.108246 0.331544
731 4 0.0669612 0.0987253 0.342676
316 2 0.0343699 0.121866 0.338192
318 4 0.0144832 0.135486 0.34484
458 4 0.00897531 0.134715 0.364908
457 2 0.00141128 0.158546 0.365087
247 2 0.204909 0.118009 0.339526
248 4 0.213112 0.0999294 0.354725
1700 4 0.207868 0.0960996 0.373485
708 4 0.323829 0.163462 0.361428
683 4 0.259521 0.16041 0.428563
319 2 0.324541 0.148645 0.393732
321 4 0.335932 0.164098 0.377713
2642 4 0.490181 0.118617 0.350132
516 4 0.470246 0.163887 0.387002
575 4 0.45854 0.150008 0.394919
389 4 0.0731393 0.211064 0.324144
377 4 0.303287 0.209971 0.33433
707 4 0.314559 0.211308 0.350223
706 2 0.319194 0.187385 0.355825
600 4 0.263879 0.177459 0.419295
514 2 0.473678 0.175005 0.364871
453 4 0.4935 0.193963 0.336021
515 4 0.477111 0.186124 0.34274
274 2 0.133801 0.311389 0.363329
276 4 0.142734 0.302191 0.384795
275 4 0.124869 0.320586 0.341863
375 4 0.161989 0.300128 0.385044
373 2 0.181867 0.289627 0.395989
374 4 0.201745 0.279127 0.406933
473 4 0.214652 0.268531 0.4169
543 4 0.399086 0.323589 0.336387
467 4 0.354201 0.254907 0.363576
466 2 0.352917 0.265734 0.386078
615 4 0.402841 0.318081 0.355039
468 4 0.351633 0.27656 0.408579
267 4 0.335119 0.287825 0.406487
613 2 0.413916 0.300344 0.368748
561 4 0.497273 0.326666 0.364753
752 4 0.486188 0.310643 0.358043
614 4 0.424991 0.282607 0.382457
406 2 0.0343949 0.351127 0.349583
408 4 0.0501824 0.350286 0.368954
347 4 0.0650297 0.352241 0.381045
346 2 0.0554266 0.360597 0.402566
618 4 0.0679682 0.353822 0.362006
617 4 0.112023 0.33519 0.34742
616 2 0.0899955 0.344506 0.354713
434 4 0.181312 0.375066 0.341094
504 4 0.283319 0.411657 0.411778
335 4 0.389798 0.410204 0.40306
334 2 0.36805 0.414923 0.41446
240 4 0.409815 0.41193 0.40526
776 4 0.0740627 0.432715 0.335687
414 4 0.0900924 0.440249 0.3456
1544 4 0.12236 0.483706 0.328385
413 4 0.112983 0.484707 0.345193
412 2 0.101538 0.462478 0.345397
500 4 0.116581 0.500775 0.334626
437 4 0.37556 0.441595 0.350835
336 4 0.346303 0.419642 0.42586
436 2 0.384372 0.461645 0.362898
438 4 0.393185 0.481695 0.374961
593 4 0.393041 0.502343 0.37225
3988 2 0.47394 0.49958 0.35369
3990 4 0.474715 0.475168 0.348337
1782 4 0.0866703 0.0199617 0.416156
2236 2 0.00576047 0.0508371 0.421207
1126 2 0.0135788 0.051949 0.47518
1127 4 0.0264512 0.0604562 0.455505
2237 4 0.0244629 0.0578663 0.43624
720 4 0.0337165 0.0736938 0.442109
1780 2 0.0848595 0.00532694 0.436348
1128 4 0.000706452 0.0434418 0.494855
2429 4 0.248534 0.0286401 0.508019
724 2 0.314723 0.0594145 0.478584
963 4 0.301713 0.0181982 0.490898
725 4 0.305681 0.0366539 0.48362
726 4 0.323766 0.082175 0.473547
432 4 0.319051 0.0259506 0.491662
642 4 0.441203 0.0522941 0.447201
2878 2 0.429948 0.016307 0.445267
2880 4 0.428617 0.0392731 0.455063
640 2 0.44737 0.0761358 0.442873
470 4 0.0220637 0.140892 0.455984
718 2 0.0270073 0.0971424 0.447616
719 4 0.020298 0.120591 0.453123
939 4 0.0994548 0.144121 0.481008
1033 2 0.134592 0.132488 0.465418
1035 4 0.157697 0.135031 0.456205
1034 4 0.111487 0.129945 0.474632
261 4 0.175831 0.141171 0.453878
259 2 0.179509 0.163906 0.463613
320 4 0.313151 0.133191 0.409752
684 4 0.298243 0.129393 0.422292
682 2 0.278882 0.144902 0.425428
1181 4 0.317077 0.127255 0.427691
1182 4 0.320758 0.101097 0.470151
1180 2 0.318917 0.114176 0.448921
574 2 0.458947 0.133827 0.413977
576 4 0.459354 0.117646 0.433034
641 4 0.453537 0.0999774 0.438546
306 4 0.451835 0.113718 0.451621
304 2 0.438887 0.129613 0.465933
305 4 0.425938 0.145508 0.480246
694 2 0.164893 0.213252 0.493453
696 4 0.14393 0.224685 0.500872
695 4 0.185855 0.201818 0.486035
260 4 0.183187 0.186641 0.473347
687 4 0.234443 0.221884 0.450625
686 4 0.191077 0.20307 0.466939
685 2 0.21276 0.212477 0.458782
474 4 0.242052 0.235848 0.44301
599 4 0.248658 0.22008 0.440567
411 4 0.250287 0.227816 0.456259
598 2 0.256268 0.198769 0.429931
409 2 0.259552 0.224635 0.479264
488 4 0.259361 0.234083 0.442684
487 2 0.279891 0.246676 0.435965
472 2 0.228352 0.252189 0.429955
489 4 0.300421 0.259268 0.429246
266 4 0.345038 0.304751 0.452485
265 2 0.340078 0.296288 0.429486
348 4 0.0458234 0.368953 0.424087
2812 2 0.00660159 0.355599 0.434569
2813 4 0.0271152 0.369373 0.430744
326 4 0.0366305 0.385429 0.428283
325 2 0.051449 0.391484 0.44749
327 4 0.0662676 0.39754 0.466698
7 3 0.0857951 0.394361 0.468789
6 1 0.103501 0.384798 0.479935
10 3 0.112924 0.368813 0.466732
8 3 0.119102 0.401279 0.484772
9 3 0.0957118 0.375247 0.499595
711 4 0.122688 0.419543 0.491221
813 4 0.287391 0.352355 0.470236
811 2 0.273032 0.351712 0.490695
925 2 0.422829 0.39666 0.501562
927 4 0.419511 0.373017 0.494133
1383 4 0.0533203 0.505342 0.495907
680 4 0.0404249 0.489464 0.493878
679 2 0.0473025 0.466269 0.500194
709 2 0.146885 0.418072 0.485096
774 4 0.185439 0.421823 0.492542
635 4 0.187268 0.425347 0.474367
636 4 0.180622 0.453789 0.433777
634 2 0.183945 0.439568 0.454072
710 4 0.171082 0.4166 0.478971
502 2 0.307253 0.418712 0.413382
503 4 0.331187 0.425767 0.414986
669 4 0.339761 0.438262 0.427067
4 3 0.323954 0.488844 0.454581
667 2 0.340662 0.461152 0.437086
668 4 0.341563 0.484043 0.447105
586 2 0.43617 0.440763 0.473625
588 4 0.435611 0.449627 0.450252
238 2 0.424939 0.424088 0.421028
239 4 0.440063 0.436246 0.436796
587 4 0.436728 0.431899 0.496998
1184 4 0.0344784 0.0164182 0.560353
3077 4 0.0236749 0.0106459 0.545478
3076 2 0.0148393 0.0185543 0.523465
1183 2 0.0485268 0.00228299 0.575453
1152 4 0.137693 0.0477258 0.539535
1150 2 0.137413 0.0619054 0.560127
1151 4 0.137133 0.076085 0.58072
342 4 0.151456 0.0379587 0.528381
340 2 0.17318 0.0267555 0.523114
2430 4 0.208229 0.0133655 0.533374
341 4 0.194903 0.0155522 0.517848
2428 2 0.228382 0.0210028 0.520696
962 4 0.260106 0.0158214 0.518538
961 2 0.28091 0.0170098 0.504718
430 2 0.338742 0.0145375 0.502016
841 2 0.389922 0.024166 0.531805
842 4 0.411601 0.0348216 0.538257
843 4 0.368242 0.0135104 0.525352
431 4 0.358432 0.00312435 0.51237
1217 4 0.425089 0.0204138 0.533442
1216 2 0.437053 0.00043648 0.54255
1061 4 0.494714 0.0846431 0.535324
877 2 0.0408672 0.153897 0.539399
878 4 0.0169625 0.146631 0.540371
938 4 0.0736265 0.159084 0.52113
1272 4 0.0813124 0.170907 0.534416
937 2 0.0865407 0.151603 0.501069
1154 4 0.16712 0.133181 0.57134
1221 4 0.16593 0.150735 0.581918
3159 4 0.458325 0.137552 0.541747
3157 2 0.44533 0.140894 0.520649
1062 4 0.476774 0.130151 0.545712
1060 2 0.485744 0.107397 0.540518
3158 4 0.432334 0.144235 0.499551
879 4 0.0647719 0.161163 0.538428
1270 2 0.0937878 0.184487 0.551301
1258 2 0.128417 0.243274 0.527311
1259 4 0.12771 0.248852 0.551674
1260 4 0.129125 0.237695 0.502947
1271 4 0.106263 0.198067 0.568187
898 2 0.284654 0.234275 0.527602
899 4 0.302286 0.229612 0.544706
857 4 0.309354 0.215303 0.555615
791 4 0.320026 0.231641 0.550629
856 2 0.308753 0.194423 0.569356
900 4 0.267022 0.238938 0.510498
410 4 0.268817 0.221454 0.502268
790 2 0.341409 0.244597 0.550321
805 2 0.317511 0.330972 0.576728
792 4 0.362792 0.257552 0.550013
872 4 0.377535 0.269957 0.551078
1238 4 0.362767 0.271742 0.56336
871 2 0.385043 0.282569 0.530836
1237 2 0.354596 0.289687 0.578735
807 4 0.32998 0.319235 0.594947
873 4 0.392551 0.29518 0.510594
1137 4 0.113948 0.386353 0.584202
897 4 0.134108 0.386909 0.579887
1135 2 0.100651 0.366044 0.590194
1136 4 0.0873544 0.345734 0.596187
773 4 0.217928 0.407514 0.527761
1189 2 0.20714 0.406065 0.567925
1190 4 0.218769 0.402079 0.546152
803 4 0.221289 0.389236 0.531533
802 2 0.231257 0.367222 0.525113
804 4 0.241225 0.345209 0.518693
930 4 0.235231 0.401928 0.535635
651 4 0.287652 0.33515 0.563322
649 2 0.272614 0.335343 0.543347
806 4 0.305042 0.342709 0.558509
650 4 0.257576 0.335537 0.523373
812 4 0.258673 0.351069 0.511154
2457 4 0.49576 0.346414 0.517694
681 4 0.0541801 0.443075 0.506509
383 4 0.0722306 0.438724 0.499419
384 4 0.121794 0.433541 0.503585
382 2 0.0970122 0.436132 0.501502
569 4 0.130772 0.442987 0.518616
568 2 0.1472 0.454223 0.53375
570 4 0.163628 0.465459 0.548885
538 2 0.10717 0.494309 0.521776
539 4 0.0840303 0.49235 0.531044
772 2 0.201684 0.414668 0.510151
928 2 0.254308 0.418011 0.534019
929 4 0.273384 0.434093 0.532402
1951 2 0.268259 0.469236 0.515575
1953 4 0.262277 0.445221 0.519139
1952 4 0.274241 0.49325 0.512012
1001 4 0.411776 0.485993 0.551609
662 4 0.421486 0.469406 0.546302
661 2 0.421198 0.454002 0.526609
663 4 0.420911 0.438598 0.506916
926 4 0.426146 0.420303 0.508991
1911 4 0.418485 0.473462 0.564851
1332 4 0.430638 0.484508 0.554694
1909 2 0.426834 0.460247 0.584366
2374 2 0.134488 0.0066544 0.633007
2375 4 0.12166 0.0280196 0.635041
1057 2 0.124506 0.0658267 0.614017
1058 4 0.118485 0.047729 0.630185
1059 4 0.130527 0.0839244 0.597849
950 4 0.245317 0.00505397 0.607417
949 2 0.251456 0.0245557 0.621811
2398 2 0.326991 0.000746057 0.661018
2400 4 0.330127 0.0248772 0.655271
951 4 0.257594 0.0440574 0.636205
1031 4 0.271242 0.0491261 0.649439
1030 2 0.291384 0.0597598 0.659754
1032 4 0.311527 0.0703935 0.670068
43 3 0.451655 0.0641074 0.637382
45 3 0.476721 0.040512 0.652633
41 1 0.464445 0.0593679 0.656153
44 3 0.478513 0.0772092 0.660864
1155 4 0.145473 0.0916483 0.588865
1153 2 0.156296 0.112415 0.580103
1207 2 0.0963455 0.164442 0.659094
1211 4 0.24247 0.167074 0.64524
1219 2 0.18377 0.165502 0.591343
810 4 0.4878 0.0913257 0.650802
808 2 0.490674 0.103275 0.629027
809 4 0.493548 0.115224 0.607252
3252 4 0.492237 0.129001 0.593855
1245 4 0.0983162 0.197475 0.635227
1209 4 0.0951923 0.177315 0.63769
1244 4 0.0985757 0.197231 0.585221
1243 2 0.0984459 0.197353 0.610224
1220 4 0.20161 0.180269 0.600769
1210 2 0.231561 0.175071 0.624211
1212 4 0.220652 0.183069 0.603182
797 4 0.21563 0.247683 0.600921
796 2 0.212822 0.222869 0.599665
798 4 0.210015 0.198056 0.598409
858 4 0.308152 0.173543 0.583098
888 4 0.248504 0.168351 0.664623
3121 2 0.482882 0.207205 0.603753
3122 4 0.499531 0.189053 0.599452
3123 4 0.466234 0.225358 0.608054
905 4 0.474203 0.238871 0.594629
982 2 0.0347292 0.330751 0.649759
983 4 0.0127303 0.320845 0.643195
1239 4 0.346425 0.307632 0.59411
906 4 0.460207 0.283918 0.611228
904 2 0.467205 0.261394 0.602928
953 4 0.462441 0.30326 0.61429
952 2 0.4781 0.320874 0.60594
984 4 0.0567282 0.340658 0.656323
1041 4 0.0696929 0.353037 0.66371
1039 2 0.0657736 0.37598 0.654577
993 4 0.0645705 0.41598 0.634732
1040 4 0.0618544 0.398923 0.645443
895 2 0.155249 0.397783 0.587629
1028 4 0.192386 0.3893 0.65457
1027 2 0.191471 0.399154 0.631608
1029 4 0.190557 0.409008 0.608646
1191 4 0.195512 0.410051 0.589698
1068 4 0.189734 0.384767 0.674798
1206 4 0.484945 0.415093 0.614915
3309 4 0.499337 0.406371 0.605082
954 4 0.493759 0.338488 0.597589
991 2 0.0538732 0.43508 0.622652
992 4 0.043176 0.45418 0.610573
1188 4 0.164708 0.503074 0.663275
896 4 0.176391 0.408658 0.595372
1172 4 0.187204 0.425121 0.597439
1160 4 0.181093 0.491313 0.600695
1171 2 0.186659 0.449596 0.602522
1173 4 0.186114 0.474071 0.607605
1187 4 0.185529 0.488675 0.620148
1186 2 0.175119 0.495875 0.641711
1268 4 0.445602 0.48657 0.651081
1267 2 0.440493 0.466533 0.637024
1204 2 0.46106 0.422467 0.61434
1910 4 0.435184 0.447033 0.603881
1269 4 0.435384 0.446496 0.622967
1205 4 0.437176 0.42984 0.613765
2168 4 0.464015 0.490158 0.656532
1284 4 0.0886713 0.0505548 0.711791
1282 2 0.103996 0.0702904 0.712707
1227 4 0.135823 0.0851351 0.704535
1225 2 0.160266 0.0813244 0.70817
1201 2 0.193938 0.0391967 0.724821
1203 4 0.189338 0.0588479 0.710061
1226 4 0.184709 0.0775138 0.711806
1148 4 0.202994 0.0720575 0.70658
1202 4 0.198539 0.0195455 0.73958
42 3 0.450407 0.0560345 0.674069
1075 2 0.0158061 0.119885 0.718387
1077 4 0.032908 0.135292 0.728151
850 2 0.0657375 0.151167 0.708152
852 4 0.0432646 0.149784 0.719026
1076 4 0.998704 0.104478 0.708623
1283 4 0.119321 0.090026 0.713622
909 4 0.104584 0.141284 0.695287
907 2 0.118971 0.12231 0.702914
908 4 0.133359 0.103336 0.710541
851 4 0.0882104 0.15255 0.697279
1208 4 0.0974987 0.151569 0.680498
1107 4 0.106085 0.160846 0.694972
1147 2 0.21703 0.0887573 0.718798
1149 4 0.231066 0.105457 0.731017
1257 4 0.229062 0.119694 0.747052
829 2 0.321286 0.151827 0.695602
887 4 0.285648 0.16263 0.697613
830 4 0.303617 0.169447 0.694009
831 4 0.338954 0.134208 0.697194
1142 4 0.352734 0.14483 0.70636
1141 2 0.373429 0.155564 0.715397
1026 4 0.408378 0.153642 0.720813
1143 4 0.394123 0.166299 0.724435
3426 4 0.482358 0.0943142 0.668849
1025 4 0.445901 0.120597 0.719964
3424 2 0.47161 0.103634 0.689411
3425 4 0.460862 0.112954 0.709973
3269 4 0.463683 0.118885 0.727905
1024 2 0.42714 0.137119 0.720388
3268 2 0.475251 0.134452 0.743686
845 4 0.45301 0.103047 0.725294
844 2 0.444625 0.0870499 0.742584
1214 4 0.0373521 0.169814 0.719169
1213 2 0.0160968 0.182744 0.72166
1105 2 0.116374 0.175269 0.712616
1106 4 0.126664 0.189692 0.730259
1130 4 0.14658 0.184524 0.729213
1129 2 0.156857 0.201404 0.74453
886 2 0.267076 0.165491 0.681118
978 4 0.292913 0.178205 0.707548
976 2 0.301693 0.193548 0.725231
916 2 0.325794 0.242381 0.742108
977 4 0.310473 0.20889 0.742914
1262 4 0.412883 0.169568 0.730386
1194 4 0.408104 0.169834 0.711401
1193 4 0.422399 0.20237 0.67622
1192 2 0.415251 0.186102 0.69381
1044 4 0.458846 0.251936 0.749369
3262 2 0.0700575 0.324631 0.692546
893 4 0.0626007 0.305502 0.731112
3264 4 0.0697245 0.314234 0.715282
779 4 0.0781871 0.298284 0.722615
778 2 0.100905 0.288005 0.720769
780 4 0.123623 0.277725 0.718922
1065 4 0.250018 0.300078 0.675048
1064 4 0.284574 0.321092 0.704458
1063 2 0.267296 0.310585 0.689753
946 2 0.315339 0.296972 0.724065
948 4 0.302097 0.312421 0.709534
917 4 0.329854 0.264081 0.730368
947 4 0.328581 0.281522 0.738596
1008 4 0.461037 0.288677 0.700289
1006 2 0.457337 0.279619 0.723299
1007 4 0.453637 0.270562 0.746308
3263 4 0.0703906 0.335029 0.669809
941 4 0.126078 0.382169 0.70356
1067 4 0.143304 0.385747 0.693345
940 2 0.121404 0.380642 0.728075
1066 2 0.166519 0.385257 0.684072
884 4 0.0483807 0.479451 0.739825
1139 4 0.307036 0.465553 0.682219
1138 2 0.319042 0.464799 0.704138
1140 4 0.331049 0.464044 0.726057
1989 4 0.325835 0.45196 0.74064
1229 4 0.341349 0.448545 0.729811
1230 4 0.383972 0.426069 0.743181
1100 4 0.402251 0.432326 0.738557
1228 2 0.36266 0.437307 0.736496
1099 2 0.417679 0.451916 0.736717
1101 4 0.433107 0.471506 0.734877
3330 4 0.450077 0.466315 0.726776
3328 2 0.465683 0.468384 0.70735
1251 4 0.450047 0.477644 0.743014
3329 4 0.48129 0.470452 0.687925
834 4 0.0262292 0.0716279 0.83
785 4 0.00890604 0.0703577 0.819816
832 2 0.0416634 0.0870944 0.817845
2048 4 0.137622 0.00371106 0.767708
2047 2 0.160301 0.006788 0.75764
2254 2 0.217381 0.0111163 0.771652
2255 4 0.233342 0.0157683 0.790327
2049 4 0.18298 0.00986494 0.747571
2256 4 0.20142 0.00646428 0.752976
1113 4 0.346301 0.0651501 0.796189
1111 2 0.366622 0.0744335 0.807417
2321 4 0.451557 0.0195672 0.796718
2322 4 0.43424 0.051276 0.762143
2320 2 0.442899 0.0354216 0.779431
846 4 0.436239 0.0710525 0.759874
980 4 0.437755 0.0136952 0.809607
979 2 0.419123 0.0139249 0.82628
864 4 0.0329354 0.12874 0.746813
862 2 0.0412511 0.119559 0.768532
863 4 0.0495668 0.110378 0.790252
833 4 0.0570975 0.102561 0.805689
1125 4 0.0469166 0.118792 0.807542
1123 2 0.0588596 0.138693 0.816841
34 3 0.122138 0.159208 0.813402
1255 2 0.224742 0.126434 0.77074
921 4 0.205761 0.138069 0.807104
919 2 0.192655 0.158577 0.812836
840 4 0.224708 0.139298 0.811995
1256 4 0.220421 0.133173 0.794427
838 2 0.246763 0.148005 0.819929
1112 4 0.386943 0.0837169 0.818645
818 4 0.385272 0.103418 0.820045
3270 4 0.486819 0.150019 0.759467
1146 4 0.489461 0.167307 0.769318
1131 4 0.167134 0.218285 0.759847
822 4 0.162348 0.23408 0.76977
31 1 0.110332 0.172284 0.828503
1277 4 0.156422 0.216621 0.776347
33 3 0.110042 0.194352 0.821339
1276 2 0.164055 0.206671 0.797978
920 4 0.17955 0.179085 0.818569
1278 4 0.171688 0.196721 0.81961
1241 4 0.179062 0.188348 0.835875
918 4 0.321735 0.220682 0.753847
1298 4 0.32407 0.201439 0.755474
1297 2 0.333265 0.196496 0.778194
1299 4 0.34246 0.191554 0.800914
1086 4 0.338352 0.187713 0.820424
50 3 0.404124 0.203476 0.802041
1084 2 0.356394 0.176265 0.833409
1261 2 0.422704 0.182825 0.749174
46 1 0.426712 0.203169 0.799156
49 3 0.433765 0.223175 0.789753
1043 4 0.440187 0.212362 0.773587
48 3 0.437255 0.199854 0.819559
47 3 0.432309 0.185919 0.785005
1263 4 0.432526 0.196081 0.767962
1145 4 0.448499 0.194759 0.777635
1144 2 0.46898 0.181033 0.773476
1042 2 0.449516 0.232149 0.761478
892 2 0.062233 0.324901 0.746883
820 2 0.157984 0.257896 0.763528
821 4 0.15362 0.281711 0.757285
1236 4 0.226712 0.339868 0.771493
1234 2 0.232192 0.335631 0.795518
1235 4 0.237672 0.331394 0.819543
1166 4 0.469005 0.266546 0.757049
1165 2 0.491657 0.26568 0.767599
894 4 0.0618653 0.344301 0.762654
3275 4 0.0116206 0.353971 0.80745
3276 4 0.0456598 0.352237 0.770858