ITEM: TIMESTEP
120000
ITEM: NUMBER OF ATOMS
4590
ITEM: BOX BOUNDS pp pp pp
-9.9985700000000008e+00 9.9985700000000008e+00
-9.9985700000000008e+00 9.9985700000000008e+00
-9.9985700000000008e+00 9.9985700000000008e+00
ITEM: ATOMS id type xs ys zs
463 2 0.0587102 0.0345428 0.0210022
465 4 0.0596178 0.0595295 0.020855
1667 4 0.0801209 0.0136591 0.0615171
464 4 0.0578025 0.00955614 0.0211493
702 4 0.0700874 0.0787497 0.090828
532 2 0.193343 0.0457585 0.0109632
534 4 0.186416 0.0604989 0.029935
490 2 0.271805 0.0481347 0.0516885
491 4 0.28831 0.0523931 0.0699819
492 4 0.255301 0.0438763 0.0333951
486 4 0.328043 0.995134 0.0915589
295 2 0.375104 0.0598326 0.0784035
745 2 0.45432 0.0540957 0.0393048
746 4 0.439622 0.040812 0.0545586
747 4 0.469019 0.0673794 0.024051
2975 4 0.483228 0.0630379 0.00988572
589 2 0.0391612 0.116937 0.0589777
590 4 0.0180372 0.103834 0.056283
591 4 0.0602853 0.13004 0.0616724
3233 4 0.0180184 0.143077 0.0108076
421 2 0.121653 0.136975 0.00171287
423 4 0.0976035 0.140033 0.00783246
701 4 0.101641 0.107141 0.064389
700 2 0.0858641 0.0929456 0.0776085
565 2 0.215295 0.124972 0.0516055
566 4 0.219563 0.112775 0.0302002
567 4 0.211026 0.137169 0.0730109
358 2 0.288019 0.124596 0.0322441
359 4 0.278129 0.112815 0.0125319
360 4 0.29791 0.136376 0.0519564
296 4 0.386331 0.075347 0.0623276
556 2 0.368566 0.110742 0.0431814
557 4 0.366064 0.0933944 0.0253491
558 4 0.371067 0.128089 0.0610137
553 2 0.0481011 0.211629 0.0161886
555 4 0.0330165 0.191698 0.0167963
554 4 0.0631857 0.231561 0.015581
571 2 0.319014 0.239828 0.0636017
573 4 0.294114 0.237594 0.0640434
572 4 0.343914 0.242062 0.06316
665 4 0.370521 0.182175 0.989574
324 4 0.418355 0.234262 0.0705507
1071 4 0.399654 0.238506 0.0289353
771 4 0.451057 0.18774 0.0417775
770 4 0.488351 0.178578 0.0738081
769 2 0.469704 0.183159 0.0577928
1014 4 0.484614 0.198091 0.00638257
292 2 0.130387 0.314558 0.0105844
294 4 0.10621 0.319201 0.00621456
293 4 0.154564 0.309915 0.0149543
914 4 0.183375 0.25228 0.00421414
483 4 0.220262 0.293773 0.0423279
505 2 0.187608 0.282343 0.0561907
507 4 0.18031 0.30623 0.0550448
506 4 0.194907 0.258456 0.0573367
481 2 0.241906 0.30629 0.0424322
355 2 0.250623 0.261506 0.998008
357 4 0.261331 0.262788 0.0205666
482 4 0.26355 0.318808 0.0425365
1069 2 0.413391 0.25291 0.0138029
280 2 0.470174 0.311659 0.0171249
281 4 0.480915 0.298641 0.0355734
322 2 0.427556 0.257509 0.0702611
323 4 0.436756 0.280757 0.0699715
1070 4 0.427128 0.267314 0.998671
672 4 0.433368 0.321023 0.0825973
328 2 0.00816162 0.40023 0.0149255
330 4 0.0170352 0.390479 0.0361709
552 4 0.05565 0.417815 0.0589375
315 4 0.999439 0.418957 0.0700541
454 2 0.119492 0.362315 0.0804618
455 4 0.128593 0.372458 0.0594981
287 4 0.171086 0.348858 0.0252773
288 4 0.164832 0.397554 0.0157708
286 2 0.167959 0.373206 0.020524
252 4 0.262273 0.374994 0.0475438
250 2 0.271501 0.398076 0.0448575
670 2 0.448388 0.340799 0.0796884
671 4 0.463409 0.360576 0.0767796
550 2 0.0573998 0.438427 0.0448917
551 4 0.0591495 0.459038 0.0308459
1788 4 0.0613872 0.501538 0.0867778
244 2 0.245477 0.457351 0.0234824
245 4 0.231685 0.452699 0.0031522
251 4 0.280729 0.421159 0.0421711
246 4 0.259269 0.462004 0.0438126
271 2 0.291548 0.487109 0.00464492
272 4 0.303753 0.485788 0.0264272
524 4 0.358397 0.50302 0.0761735
564 4 0.418648 0.477558 0.0519853
227 4 0.495007 0.434203 0.049551
562 2 0.43699 0.474667 0.0352407
563 4 0.455332 0.471777 0.0184962
226 2 0.492263 0.458392 0.0438465
228 4 0.489518 0.482581 0.038142
16 1 0.0613648 0.0592734 0.156864
19 3 0.0712948 0.0552571 0.13628
2576 4 0.00156948 0.024121 0.129006
18 3 0.0618778 0.0400164 0.169798
20 3 0.0722768 0.0761366 0.167597
17 3 0.0394457 0.0653777 0.153481
1666 2 0.0689675 0.00216595 0.0807184
450 4 0.169497 0.0478142 0.145261
448 2 0.164859 0.0723784 0.144739
1505 4 0.237481 0.0172067 0.149405
652 2 0.312603 0.0458268 0.141497
654 4 0.288561 0.0412644 0.136367
653 4 0.336646 0.0503891 0.146628
297 4 0.363877 0.0443182 0.0944795
758 4 0.429911 0.050253 0.16821
1760 4 0.48153 0.0172453 0.140178
476 4 0.139224 0.154156 0.0834877
449 4 0.160221 0.0969426 0.144217
235 2 0.157259 0.134526 0.152668
237 4 0.144522 0.154025 0.161764
236 4 0.169997 0.115027 0.143573
693 4 0.224067 0.102309 0.172942
582 4 0.265336 0.104818 0.13326
580 2 0.271282 0.0988903 0.156811
628 2 0.412876 0.156025 0.140609
462 4 0.33601 0.165123 0.0910936
630 4 0.391673 0.163397 0.129599
629 4 0.43408 0.148652 0.15162
379 2 0.0259557 0.171803 0.168915
380 4 0.0161183 0.183441 0.149092
656 4 0.0146894 0.239174 0.0920574
475 2 0.137133 0.166473 0.105146
477 4 0.135043 0.178791 0.126804
338 4 0.0989891 0.234495 0.161668
737 4 0.163662 0.19755 0.113415
736 2 0.182006 0.190545 0.128895
738 4 0.200349 0.183541 0.144375
354 4 0.231998 0.236189 0.0891901
284 4 0.243901 0.225176 0.160527
352 2 0.250683 0.243644 0.104038
353 4 0.269367 0.2511 0.118886
460 2 0.331446 0.183052 0.107914
461 4 0.326881 0.20098 0.124734
255 4 0.362729 0.176604 0.100344
254 4 0.410579 0.189244 0.0931819
253 2 0.386654 0.182924 0.096763
517 2 0.482159 0.235279 0.104553
518 4 0.474845 0.212025 0.110113
705 4 0.0193297 0.315028 0.137831
337 2 0.0941891 0.247286 0.140727
339 4 0.089389 0.260076 0.119785
754 2 0.272461 0.309499 0.118059
755 4 0.279055 0.288806 0.130448
756 4 0.265867 0.330192 0.105671
741 4 0.321599 0.310439 0.112756
622 2 0.388767 0.267368 0.152787
624 4 0.369369 0.251852 0.155641
739 2 0.342272 0.324313 0.110446
623 4 0.408164 0.282884 0.149933
519 4 0.489474 0.258533 0.0989924
619 2 0.0162635 0.357025 0.10214
620 4 0.0294245 0.377121 0.109076
456 4 0.11039 0.352173 0.101425
537 4 0.155274 0.365713 0.145343
535 2 0.166968 0.34949 0.160351
626 4 0.232644 0.399831 0.120134
608 4 0.330764 0.411345 0.0879064
607 2 0.308545 0.400913 0.0926672
609 4 0.286326 0.390481 0.0974281
612 4 0.291692 0.360493 0.149276
740 4 0.362945 0.338186 0.108136
387 4 0.337416 0.393501 0.140556
15 3 0.39408 0.354067 0.126467
385 2 0.352924 0.388153 0.121686
386 4 0.368432 0.382805 0.102816
11 1 0.406986 0.356526 0.145069
12 3 0.41383 0.335801 0.152336
13 3 0.394719 0.366712 0.161926
14 3 0.425713 0.369287 0.140082
495 4 0.425692 0.401321 0.13101
595 2 0.493316 0.397144 0.168138
313 2 0.00532949 0.434557 0.0886852
314 4 0.0112199 0.450157 0.107316
241 2 0.160027 0.500404 0.0804544
416 4 0.164951 0.450511 0.167969
243 4 0.181507 0.494138 0.0916127
625 2 0.214578 0.416353 0.115051
627 4 0.196512 0.432874 0.109968
637 2 0.256381 0.486497 0.142533
638 4 0.265256 0.466065 0.153889
523 2 0.346809 0.490268 0.0942914
525 4 0.33522 0.477515 0.112409
658 2 0.394123 0.476398 0.150544
659 4 0.385259 0.495408 0.136935
493 2 0.43594 0.419194 0.116843
494 4 0.446188 0.437066 0.102675
2480 4 0.000550569 0.0317903 0.200295
673 2 0.124474 0.036626 0.220575
674 4 0.14935 0.0362491 0.218087
675 4 0.0995971 0.037003 0.223062
689 4 0.217874 0.0167242 0.236439
1504 2 0.247353 0.00819545 0.170536
21 1 0.369876 0.0549524 0.234172
23 3 0.374666 0.0333897 0.241279
24 3 0.349494 0.0552953 0.223087
25 3 0.386364 0.0624219 0.220352
759 4 0.400226 0.0593992 0.207399
757 2 0.415069 0.0548261 0.187804
742 2 0.450234 0.049008 0.24631
743 4 0.463379 0.0653674 0.232718
381 4 0.0357932 0.160165 0.188739
511 2 0.0204531 0.156136 0.224881
513 4 0.0336579 0.139195 0.23768
577 2 0.0980576 0.11092 0.22478
578 4 0.10416 0.132144 0.213054
579 4 0.0919557 0.0896965 0.236505
723 4 0.189873 0.103587 0.208938
691 2 0.222671 0.0921116 0.195729
721 2 0.183001 0.115932 0.229567
692 4 0.221276 0.0819146 0.218516
581 4 0.277227 0.0929622 0.180363
30 3 0.303236 0.150519 0.226833
26 1 0.318485 0.13361 0.226388
28 3 0.30858 0.114226 0.218354
27 3 0.335838 0.139422 0.212451
312 4 0.408294 0.118048 0.172036
310 2 0.428431 0.122226 0.186257
311 4 0.448568 0.126404 0.200478
512 4 0.00724831 0.173077 0.212082
394 2 0.0215877 0.244464 0.213723
363 4 0.104987 0.233397 0.181028
392 4 0.11542 0.169462 0.259977
371 4 0.172432 0.244848 0.218658
283 2 0.259584 0.213277 0.175943
285 4 0.275267 0.201378 0.191359
764 4 0.387988 0.225565 0.18208
763 2 0.394042 0.233009 0.205169
520 2 0.469944 0.206029 0.237528
521 4 0.449425 0.200414 0.22439
528 4 0.462285 0.251702 0.170407
395 4 0.0419326 0.253371 0.202236
370 2 0.152947 0.25999 0.222686
361 2 0.104638 0.253984 0.195215
362 4 0.104289 0.27457 0.209402
372 4 0.133462 0.275132 0.226714
300 4 0.138094 0.313088 0.241305
536 4 0.178663 0.333267 0.175359
279 4 0.226908 0.262439 0.170589
343 2 0.249574 0.286034 0.243117
344 4 0.26011 0.264426 0.249992
345 4 0.239037 0.307642 0.236242
277 2 0.249194 0.273771 0.170305
278 4 0.271481 0.285102 0.170021
307 2 0.309788 0.273779 0.230714
309 4 0.316179 0.28222 0.208063
765 4 0.400097 0.240453 0.228258
527 4 0.502865 0.273633 0.18972
526 2 0.482575 0.262668 0.180063
262 2 0.0391755 0.414423 0.220125
264 4 0.02585 0.409402 0.240678
648 4 0.106117 0.345059 0.178985
646 2 0.0932569 0.36609 0.174798
298 2 0.127189 0.33556 0.240171
299 4 0.116283 0.358031 0.239037
647 4 0.0803969 0.38712 0.170611
417 4 0.143383 0.414463 0.1951
610 2 0.277502 0.349628 0.166761
611 4 0.263311 0.338762 0.184247
303 4 0.316604 0.393189 0.177534
301 2 0.335032 0.408594 0.184482
729 4 0.34553 0.366782 0.249152
597 4 0.473958 0.399481 0.18379
643 2 0.45305 0.373192 0.19625
644 4 0.436992 0.365971 0.214003
645 4 0.469108 0.380414 0.178496
447 4 0.437318 0.366758 0.235333
263 4 0.0525009 0.419443 0.199573
415 2 0.154167 0.432487 0.181535
291 4 0.185736 0.452564 0.173268
289 2 0.20354 0.450556 0.190708
290 4 0.221344 0.448548 0.208149
768 4 0.244166 0.502045 0.229481
766 2 0.252159 0.48168 0.217374
767 4 0.260151 0.461316 0.205267
660 4 0.402986 0.457387 0.164154
302 4 0.353459 0.423999 0.19143
229 2 0.389584 0.491693 0.244069
231 4 0.373757 0.472594 0.247217
232 2 0.00334889 0.051919 0.275652
233 4 0.0162855 0.0305422 0.276578
1402 2 0.0703373 0.000625001 0.280158
1464 4 0.117711 0.00368895 0.293279
1403 4 0.085581 0.0196547 0.274619
688 2 0.226917 0.0110789 0.259056
690 4 0.235961 0.00543347 0.281673
248 4 0.231912 0.0813199 0.280729
1699 2 0.252458 0.999802 0.324034
22 3 0.368577 0.068724 0.252552
744 4 0.437089 0.0326485 0.259902
478 2 0.474279 0.0336436 0.308434
480 4 0.471988 0.00997516 0.300705
351 4 0.440284 0.0651459 0.291968
479 4 0.47657 0.0573121 0.316162
529 2 0.0322897 0.135829 0.280224
530 4 0.0531671 0.141291 0.292853
531 4 0.0114124 0.130366 0.267596
398 4 0.0755738 0.126089 0.322278
730 2 0.154355 0.0917356 0.318023
731 4 0.156568 0.097979 0.293913
722 4 0.176129 0.128277 0.250196
546 4 0.171383 0.137968 0.268309
249 4 0.220164 0.121259 0.308435
247 2 0.226038 0.101289 0.294582
403 2 0.220455 0.156429 0.29245
404 4 0.215546 0.131912 0.292527
544 2 0.17254 0.162418 0.263207
600 4 0.190538 0.163911 0.334464
29 3 0.326886 0.129963 0.247708
631 2 0.347728 0.0947874 0.290967
632 4 0.32681 0.101541 0.279051
633 4 0.368646 0.0880333 0.302883
331 2 0.448862 0.129049 0.260774
332 4 0.464469 0.148342 0.263834
333 4 0.433254 0.109757 0.257714
349 2 0.446677 0.0850991 0.305613
350 4 0.45307 0.105052 0.319258
444 4 0.0214012 0.229087 0.283933
391 2 0.100889 0.189084 0.265361
393 4 0.0863573 0.208706 0.270746
545 4 0.173696 0.186869 0.258105
405 4 0.225364 0.180946 0.292373
706 2 0.319214 0.191858 0.309436
708 4 0.312808 0.174427 0.326178
707 4 0.325621 0.209289 0.292694
420 4 0.426289 0.24402 0.279467
418 2 0.438724 0.241899 0.301055
419 4 0.451159 0.239777 0.322643
522 4 0.490463 0.211645 0.250665
762 4 0.451873 0.183005 0.272016
761 4 0.470722 0.187364 0.318129
760 2 0.461298 0.185184 0.295072
748 2 0.0830695 0.280043 0.259964
750 4 0.0602255 0.271235 0.26504
442 2 0.00631674 0.248986 0.285217
366 4 0.0137356 0.329019 0.271604
749 4 0.105913 0.28885 0.254889
389 4 0.131441 0.271439 0.341929
677 4 0.158639 0.327393 0.316579
400 2 0.201142 0.269395 0.316771
402 4 0.224016 0.278943 0.320057
401 4 0.178267 0.259847 0.313485
308 4 0.303397 0.265337 0.253365
496 2 0.30332 0.2962 0.292963
497 4 0.312734 0.298807 0.315979
498 4 0.293906 0.293593 0.269946
543 4 0.400367 0.312362 0.296911
615 4 0.369499 0.304792 0.333628
613 2 0.373434 0.327406 0.323714
541 2 0.424682 0.314402 0.302373
542 4 0.448996 0.316443 0.307834
364 2 0.0150935 0.346242 0.289679
365 4 0.0164513 0.363465 0.307755
601 2 0.0745789 0.381137 0.297649
602 4 0.0558636 0.392734 0.285799
603 4 0.0932942 0.36954 0.309498
734 4 0.147973 0.361546 0.253394
735 4 0.179897 0.362397 0.291876
733 2 0.163935 0.361971 0.272635
509 4 0.252133 0.350956 0.333801
727 2 0.337976 0.388305 0.259393
728 4 0.330422 0.409829 0.269633
614 4 0.377369 0.35002 0.3138
445 2 0.439826 0.37393 0.259154
446 4 0.442335 0.381103 0.282975
777 4 0.0651431 0.45462 0.292034
775 2 0.0817147 0.463816 0.308343
549 4 0.0337459 0.436222 0.325262
776 4 0.0982863 0.473012 0.324653
414 4 0.155894 0.457549 0.276345
412 2 0.160903 0.464738 0.299763
413 4 0.165911 0.471927 0.323181
436 2 0.303184 0.434549 0.278716
437 4 0.315739 0.433206 0.257134
438 4 0.29063 0.435892 0.300297
713 4 0.406639 0.478366 0.303698
712 2 0.429974 0.475934 0.295051
714 4 0.453308 0.473502 0.286405
119 3 0.506611 0.436174 0.314842
316 2 0.0289044 0.0721195 0.356886
317 4 0.0137535 0.0730012 0.376757
318 4 0.0440552 0.0712379 0.337016
428 4 0.08071 0.0329692 0.395834
732 4 0.152142 0.0854923 0.342133
427 2 0.0850681 0.0246303 0.372668
429 4 0.0894262 0.0162914 0.349502
1701 4 0.228767 0.00137717 0.331874
606 4 0.172095 0.0343665 0.383106
441 4 0.25064 0.041463 0.404427
604 2 0.190237 0.0434921 0.368519
605 4 0.208378 0.0526176 0.353931
439 2 0.2681 0.0243367 0.409628
440 4 0.285559 0.00721048 0.414829
698 4 0.370974 0.048451 0.342358
697 2 0.362153 0.0255406 0.347099
699 4 0.353332 0.00263017 0.351841
256 2 0.416627 0.0458497 0.359153
258 4 0.43165 0.0366471 0.376896
257 4 0.401604 0.0550523 0.341411
397 2 0.0951281 0.117063 0.334979
399 4 0.114682 0.108036 0.347681
598 2 0.188568 0.157289 0.358494
599 4 0.186598 0.150668 0.382525
474 4 0.244391 0.154717 0.369786
682 2 0.293084 0.0846935 0.387226
683 4 0.309834 0.0844531 0.368664
684 4 0.276334 0.0849338 0.405788
466 2 0.355248 0.144305 0.4104
467 4 0.370922 0.152651 0.392797
451 2 0.473139 0.141394 0.370952
452 4 0.496687 0.135253 0.365209
453 4 0.449592 0.147536 0.376695
514 2 0.433222 0.158321 0.408556
515 4 0.437603 0.140922 0.391143
2654 4 0.0194857 0.190345 0.357481
274 2 0.212546 0.24451 0.393507
276 4 0.231198 0.230149 0.401934
472 2 0.259691 0.171285 0.358988
473 4 0.27499 0.187853 0.348189
488 4 0.301293 0.218718 0.388351
487 2 0.297076 0.233103 0.408363
715 2 0.358341 0.237027 0.352175
716 4 0.349409 0.213673 0.35209
616 2 0.0689233 0.319187 0.364398
618 4 0.0509428 0.316886 0.381619
347 4 0.0629504 0.312796 0.396564
390 4 0.0829138 0.264968 0.331732
388 2 0.107177 0.268203 0.33683
617 4 0.0869039 0.321488 0.347176
676 2 0.151041 0.330054 0.340251
678 4 0.143444 0.332715 0.363923
275 4 0.193893 0.258871 0.38508
375 4 0.194598 0.314685 0.380816
373 2 0.201393 0.312614 0.404789
376 2 0.288235 0.295837 0.356081
377 4 0.304333 0.279221 0.346598
378 4 0.272137 0.312454 0.365564
267 4 0.343933 0.250582 0.437586
717 4 0.367274 0.26038 0.352261
268 2 0.487215 0.281427 0.397931
269 4 0.49282 0.25931 0.387703
270 4 0.481609 0.303543 0.408159
2927 4 0.0047471 0.356338 0.358367
408 4 0.0868051 0.400815 0.403985
406 2 0.0814792 0.398584 0.379658
407 4 0.0761533 0.396353 0.35533
510 4 0.223519 0.320025 0.360732
508 2 0.237826 0.335491 0.347266
502 2 0.228299 0.404627 0.399883
504 4 0.223582 0.386793 0.416761
435 4 0.299763 0.385902 0.353741
433 2 0.323278 0.391382 0.347245
434 4 0.346793 0.396862 0.340749
336 4 0.376051 0.367459 0.405605
2923 2 0.497806 0.354005 0.36828
561 4 0.433138 0.371451 0.397236
751 2 0.433025 0.410388 0.384035
752 4 0.443008 0.389564 0.393622
2925 4 0.482492 0.357057 0.387808
559 2 0.454238 0.362142 0.406896
548 4 0.0623906 0.409949 0.356725
547 2 0.0480682 0.423085 0.340993
499 2 0.11793 0.467991 0.369594
500 4 0.140418 0.462107 0.378805
501 4 0.095442 0.473875 0.360383
503 4 0.233016 0.422461 0.383004
570 4 0.181132 0.443166 0.40347
1436 4 0.249008 0.489852 0.335855
5 3 0.315263 0.447688 0.354645
1 1 0.328289 0.461856 0.36682
2 3 0.31517 0.478643 0.375494
4 3 0.33829 0.450353 0.384315
3 3 0.344551 0.471307 0.353233
594 4 0.386333 0.483519 0.34176
588 4 0.398291 0.435334 0.408151
592 2 0.410594 0.481081 0.347294
117 3 0.496841 0.425783 0.349616
753 4 0.423043 0.431211 0.374448
593 4 0.434856 0.478643 0.352828
718 2 0.0480438 0.0653987 0.468311
719 4 0.0357451 0.0792284 0.485123
720 4 0.0603425 0.0515691 0.451498
367 2 0.119798 0.0700216 0.466816
369 4 0.126507 0.0669247 0.490702
368 4 0.113089 0.0731184 0.442929
342 4 0.169887 0.0718161 0.469797
340 2 0.178869 0.0509336 0.48021
341 4 0.187852 0.0300511 0.490622
724 2 0.32604 0.0660079 0.435793
726 4 0.311116 0.0680158 0.415833
424 2 0.383657 0.0265548 0.42638
425 4 0.364616 0.011521 0.432431
426 4 0.402698 0.0415886 0.420328
725 4 0.340964 0.0639999 0.455754
457 2 0.00531852 0.145597 0.435974
458 4 0.0146338 0.126559 0.449239
687 4 0.143736 0.146714 0.434741
1152 4 0.182962 0.0851904 0.479478
321 4 0.249567 0.143682 0.430155
1150 2 0.187489 0.104557 0.494632
685 2 0.167231 0.154157 0.430532
319 2 0.262926 0.124381 0.421542
320 4 0.276286 0.10508 0.412929
468 4 0.339575 0.135959 0.428003
574 2 0.376208 0.166021 0.463633
576 4 0.375917 0.16423 0.488571
642 4 0.479147 0.118779 0.47835
516 4 0.428841 0.175721 0.42597
2880 4 0.481484 0.0985101 0.477693
459 4 0.996003 0.164635 0.422709
469 2 0.0124405 0.184653 0.493407
470 4 0.0303092 0.200442 0.500928
260 4 0.0875738 0.208569 0.415262
261 4 0.113511 0.203326 0.457693
259 2 0.100543 0.205947 0.436477
1035 4 0.123296 0.197454 0.474525
1033 2 0.121431 0.191297 0.498687
686 4 0.190727 0.161601 0.426322
411 4 0.267022 0.188608 0.476493
409 2 0.287341 0.201553 0.483183
410 4 0.30766 0.214497 0.489873
489 4 0.292859 0.247488 0.428375
575 4 0.3765 0.167812 0.438696
306 4 0.494849 0.232235 0.430419
872 4 0.428674 0.24327 0.485534
304 2 0.489372 0.207972 0.432974
305 4 0.483895 0.18371 0.435529
346 2 0.057268 0.29863 0.416369
348 4 0.0515855 0.284464 0.436173
327 4 0.0988396 0.30649 0.465695
694 2 0.107551 0.249852 0.493756
696 4 0.106093 0.265954 0.474682
6 1 0.155171 0.334015 0.490099
9 3 0.143165 0.314768 0.494978
325 2 0.103219 0.31582 0.442914
326 4 0.107599 0.325149 0.420134
374 4 0.208187 0.310542 0.428762
10 3 0.165051 0.332042 0.469675
651 4 0.26111 0.258265 0.475727
649 2 0.266891 0.280949 0.466941
650 4 0.272671 0.303633 0.458154
265 2 0.355168 0.272871 0.436115
266 4 0.366403 0.295159 0.434644
583 2 0.473241 0.310311 0.479145
584 4 0.48761 0.29715 0.463476
585 4 0.458872 0.323471 0.494814
681 4 0.0401999 0.412902 0.448038
7 3 0.140732 0.35192 0.489834
773 4 0.208003 0.375621 0.501151
709 2 0.180691 0.393326 0.456886
710 4 0.189549 0.416494 0.453732
711 4 0.171832 0.370158 0.46004
334 2 0.36206 0.369823 0.426192
238 2 0.368868 0.373683 0.48014
240 4 0.349919 0.380139 0.465159
335 4 0.348069 0.372188 0.44678
560 4 0.475338 0.352833 0.416555
926 4 0.449287 0.393944 0.497694
1383 4 0.0202544 0.495423 0.44171
680 4 0.0307013 0.457917 0.428438
679 2 0.0354506 0.43541 0.438238
384 4 0.0963634 0.420887 0.487273
382 2 0.0950866 0.428607 0.463525
383 4 0.0938098 0.436327 0.439777
538 2 0.085999 0.496147 0.501054
569 4 0.143582 0.458693 0.432618
636 4 0.231473 0.462439 0.442759
634 2 0.241772 0.459656 0.465372
635 4 0.252071 0.456872 0.487985
568 2 0.162357 0.45093 0.418044
668 4 0.313144 0.404796 0.424094
667 2 0.300804 0.422944 0.436075
669 4 0.288463 0.441092 0.448057
586 2 0.414869 0.440041 0.426266
663 4 0.43582 0.498038 0.491443
1332 4 0.499336 0.496085 0.482112
587 4 0.431447 0.444748 0.444382
1126 2 0.0466073 0.0614409 0.525214
1127 4 0.0404264 0.0372186 0.524711
1128 4 0.0527882 0.0856633 0.525718
1058 4 0.161482 0.0785982 0.575479
1181 4 0.221479 0.061191 0.494438
2430 4 0.203777 0.0242939 0.502036
1180 2 0.239788 0.0758991 0.50302
961 2 0.294411 0.0342164 0.515615
963 4 0.310459 0.0533386 0.517019
962 4 0.278362 0.0150941 0.514211
432 4 0.306583 0.0693051 0.504025
430 2 0.324004 0.087029 0.506772
841 2 0.373435 0.0768428 0.533205
843 4 0.349478 0.0743082 0.52651
1217 4 0.40645 0.0475493 0.564281
1216 2 0.398186 0.0290738 0.578962
3008 4 0.493862 0.0599568 0.57222
1060 2 0.486486 0.017108 0.533472
1062 4 0.470537 0.0362463 0.531347
4467 4 0.476072 0.00577268 0.585379
938 4 0.0779178 0.118936 0.507382
937 2 0.0980931 0.122193 0.521788
939 4 0.118268 0.125451 0.536194
1154 4 0.147601 0.133798 0.57933
1151 4 0.192016 0.123923 0.509785
1032 4 0.254784 0.107598 0.573115
1182 4 0.258097 0.0906072 0.511601
842 4 0.397392 0.0793775 0.5399
899 4 0.345898 0.138532 0.536993
898 2 0.344663 0.163383 0.534528
431 4 0.341425 0.104753 0.509519
641 4 0.466344 0.129604 0.525463
640 2 0.472745 0.124191 0.501907
877 2 0.0668395 0.217898 0.575767
878 4 0.0566058 0.238294 0.565547
1034 4 0.119565 0.18514 0.522848
695 4 0.109008 0.233751 0.512829
856 2 0.223099 0.221071 0.532812
858 4 0.221209 0.218859 0.557646
1221 4 0.178351 0.175137 0.577438
857 4 0.224989 0.223282 0.507978
900 4 0.343428 0.188234 0.532063
983 4 0.0353178 0.31695 0.559804
982 2 0.0272104 0.333688 0.576516
1258 2 0.156318 0.274083 0.565729
1260 4 0.135355 0.260616 0.563642
8 3 0.171304 0.337629 0.506381
1259 4 0.177282 0.287551 0.567816
792 4 0.314475 0.286977 0.569972
813 4 0.331067 0.30779 0.543565
871 2 0.413878 0.251676 0.503854
873 4 0.399083 0.260082 0.522174
811 2 0.339916 0.305824 0.520263
812 4 0.348765 0.303857 0.49696
1137 4 0.105246 0.372671 0.578024
897 4 0.165972 0.411587 0.576964
1189 2 0.243639 0.377279 0.573069
1191 4 0.221871 0.365007 0.57223
772 2 0.228764 0.388881 0.505431
802 2 0.289121 0.351025 0.548665
803 4 0.299558 0.363876 0.567403
804 4 0.278684 0.338174 0.529928
1190 4 0.265408 0.38955 0.573907
774 4 0.249526 0.402142 0.50971
928 2 0.360862 0.378639 0.566923
929 4 0.34849 0.383479 0.545741
239 4 0.387817 0.367228 0.495122
925 2 0.460235 0.39655 0.520022
927 4 0.471183 0.399156 0.54235
934 2 0.997573 0.441702 0.521834
935 4 0.00953994 0.429092 0.503863
1938 4 0.0599443 0.49388 0.544727
539 4 0.0674601 0.479777 0.50473
1159 2 0.173809 0.446686 0.579791
1161 4 0.170346 0.448229 0.555076
1171 2 0.226433 0.460488 0.564327
1173 4 0.202934 0.458181 0.556102
1172 4 0.249933 0.462794 0.572551
882 4 0.336307 0.483334 0.523674
880 2 0.354197 0.468875 0.533474
881 4 0.372086 0.454415 0.543275
1952 4 0.347438 0.480182 0.56783
1000 2 0.42044 0.435903 0.568274
1001 4 0.439371 0.447962 0.557255
662 4 0.471482 0.474197 0.517145
661 2 0.453651 0.486117 0.504294
1185 4 0.00763938 0.0362055 0.645589
1057 2 0.145923 0.068114 0.592008
1059 4 0.130364 0.0576299 0.608536
825 4 0.134182 0.0314659 0.647256
823 2 0.154311 0.0196866 0.638243
1284 4 0.163302 0.0841611 0.62258
1031 4 0.225476 0.0742624 0.596148
1030 2 0.24013 0.09093 0.584632
949 2 0.262625 0.0303237 0.6185
951 4 0.26176 0.0394586 0.595241
950 4 0.26349 0.0211888 0.641759
1092 4 0.337039 0.0150278 0.654758
1005 4 0.328593 0.0605976 0.662703
1218 4 0.389922 0.0105983 0.593643
809 4 0.460453 0.0684296 0.613241
1082 4 0.0395795 0.0837084 0.651139
1076 4 0.0267115 0.0943643 0.661306
1081 2 0.0494228 0.088424 0.628644
1083 4 0.0592661 0.0931397 0.606148
1153 2 0.140541 0.124228 0.601324
1155 4 0.133482 0.114658 0.623319
1283 4 0.206869 0.108186 0.617537
1282 2 0.185086 0.0961738 0.620058
808 2 0.45727 0.0920835 0.620694
810 4 0.454088 0.115737 0.628147
879 4 0.0770732 0.197502 0.585987
1272 4 0.0955078 0.191303 0.585496
1270 2 0.116416 0.19775 0.597598
1271 4 0.137324 0.204198 0.609699
1210 2 0.233928 0.184173 0.645771
1212 4 0.215939 0.182436 0.628492
1219 2 0.196863 0.181348 0.593057
1220 4 0.215374 0.187559 0.608675
796 2 0.22947 0.237952 0.613435
797 4 0.204548 0.23695 0.611684
1211 4 0.251917 0.18591 0.663049
798 4 0.254392 0.238954 0.615186
791 4 0.324514 0.23925 0.581021
1026 4 0.408233 0.196092 0.664148
1193 4 0.343105 0.189355 0.652011
904 2 0.476578 0.245012 0.591593
906 4 0.459624 0.228474 0.599609
1024 2 0.431093 0.198951 0.654429
1025 4 0.453952 0.201809 0.64471
1243 2 0.0386 0.271363 0.627069
1244 4 0.0273226 0.252344 0.615396
1245 4 0.0498773 0.290383 0.638742
946 2 0.177101 0.287855 0.640885
947 4 0.162863 0.26738 0.642675
948 4 0.191339 0.308331 0.639094
790 2 0.319494 0.263114 0.575497
1239 4 0.295441 0.335909 0.615018
1237 2 0.30413 0.318423 0.599401
1238 4 0.312819 0.300937 0.583783
954 4 0.460618 0.293246 0.579726
905 4 0.493531 0.261551 0.583577
952 2 0.453871 0.293001 0.603801
953 4 0.447124 0.292755 0.627875
984 4 0.019103 0.350425 0.593228
1040 4 0.0758749 0.395437 0.632626
1039 2 0.0645004 0.406794 0.613473
1136 4 0.128612 0.334906 0.601014
1135 2 0.116929 0.353788 0.589519
896 4 0.171886 0.366986 0.598794
993 4 0.0931665 0.405159 0.634453
895 2 0.168929 0.389287 0.587879
806 4 0.341149 0.362204 0.673746
930 4 0.373234 0.3738 0.588105
1204 2 0.402678 0.414542 0.637377
1205 4 0.41418 0.40842 0.616037
1041 4 0.0531258 0.418151 0.59432
992 4 0.13789 0.427336 0.63741
991 2 0.115528 0.416247 0.635931
1160 4 0.177273 0.445143 0.604505
889 2 0.320082 0.451272 0.606228
891 4 0.296036 0.458119 0.606444
1002 4 0.40151 0.423843 0.579292
890 4 0.344129 0.444424 0.606013
1206 4 0.391176 0.420664 0.658718
1268 4 0.465893 0.49121 0.654715
1267 2 0.44158 0.485503 0.655923
1269 4 0.417266 0.479796 0.65713
2990 4 0.00991628 0.0912888 0.708784
944 4 0.0521235 0.0620165 0.685117
943 2 0.0750734 0.0524488 0.682482
945 4 0.0980232 0.042881 0.679847
1147 2 0.210291 0.0694991 0.729095
1149 4 0.215752 0.0498295 0.743533
1090 2 0.352727 0.00553221 0.671755
1003 2 0.338566 0.0779229 0.677721
1050 4 0.370396 0.0139806 0.746744
1048 2 0.346828 0.0060801 0.744034
1163 4 0.459887 0.0363426 0.665301
41 1 0.441081 0.0805064 0.691158
43 3 0.424629 0.069804 0.703535
45 3 0.444035 0.0698114 0.671269
1162 2 0.478038 0.0430305 0.681144
852 4 0.0231409 0.166339 0.678004
862 2 0.0637194 0.125848 0.728709
864 4 0.0450634 0.133443 0.713896
1075 2 0.0367519 0.10555 0.681287
863 4 0.0823753 0.118253 0.743523
1077 4 0.0467922 0.116736 0.701268
850 2 0.044112 0.168194 0.691493
907 2 0.155028 0.144214 0.683849
909 4 0.133013 0.147619 0.672494
1148 4 0.20483 0.0891686 0.714657
1225 2 0.1956 0.126952 0.719492
1226 4 0.206095 0.105477 0.726832
1227 4 0.185105 0.148427 0.712153
908 4 0.177043 0.14081 0.695203
829 2 0.32537 0.151007 0.719255
831 4 0.328589 0.135734 0.738789
1004 4 0.348539 0.0952483 0.69274
1141 2 0.403121 0.153417 0.712368
1142 4 0.415108 0.144958 0.69212
1143 4 0.391135 0.161875 0.732615
44 3 0.43508 0.102611 0.687445
42 3 0.460789 0.0800414 0.703011
851 4 0.0650832 0.170049 0.704981
1213 2 0.0190558 0.231466 0.745154
1214 4 0.0427536 0.232271 0.753088
1105 2 0.0954244 0.197114 0.734215
1106 4 0.0857845 0.217067 0.745797
1107 4 0.105064 0.177162 0.722633
1208 4 0.107307 0.235382 0.682267
1277 4 0.219696 0.235167 0.75163
830 4 0.322151 0.166279 0.699721
886 2 0.29337 0.189878 0.682703
888 4 0.280829 0.210026 0.674833
887 4 0.305912 0.16973 0.690574
976 2 0.294468 0.207558 0.73565
977 4 0.310845 0.225763 0.740707
978 4 0.278091 0.189353 0.730594
1192 2 0.34744 0.200677 0.673879
1194 4 0.351775 0.212 0.695746
1261 2 0.446358 0.218448 0.730518
1263 4 0.437499 0.213666 0.707631
1262 4 0.455217 0.223231 0.753405
1177 2 0.0096072 0.26841 0.705979
1178 4 0.0309872 0.262422 0.717478
1209 4 0.0716841 0.270432 0.68407
1207 2 0.0894957 0.252907 0.683168
820 2 0.158329 0.29176 0.730702
821 4 0.155355 0.269816 0.719093
822 4 0.161303 0.313704 0.742312
1065 4 0.232463 0.287847 0.680834
1063 2 0.252895 0.28808 0.695244
1064 4 0.273327 0.288314 0.709654
807 4 0.326187 0.314488 0.67395
3123 4 0.491495 0.28374 0.674148
892 2 0.0407748 0.370966 0.705654
893 4 0.0565006 0.374308 0.724803
894 4 0.025049 0.367625 0.686504
940 2 0.139406 0.39188 0.735908
1067 4 0.160859 0.397417 0.701296
941 4 0.156334 0.387297 0.718086
1028 4 0.224508 0.402812 0.689121
1066 2 0.184469 0.405116 0.698383
1068 4 0.208079 0.412815 0.69547
1027 2 0.245585 0.391559 0.681752
805 2 0.333668 0.338346 0.673848
1029 4 0.266662 0.380306 0.674383
1139 4 0.272954 0.420332 0.733262
1281 4 0.0189821 0.471179 0.699519
1280 4 0.0585997 0.44556 0.716098
1279 2 0.0387909 0.45837 0.707808
1983 4 0.0288837 0.489508 0.736366
1174 2 0.229673 0.507783 0.692127
1175 4 0.252494 0.497803 0.689942
1138 2 0.289141 0.434422 0.72043
1140 4 0.305328 0.448512 0.707599
1228 2 0.367764 0.463665 0.720247
1229 4 0.367726 0.48817 0.725219
1230 4 0.367801 0.439161 0.715275
1100 4 0.450846 0.438222 0.679639
1099 2 0.450473 0.449476 0.701964
1101 4 0.4501 0.460731 0.724288
1249 2 0.466736 0.487016 0.748373
1296 4 0.99606 0.0233219 0.819785
1295 4 0.0244949 0.0491427 0.787762
1294 2 0.0102773 0.0362323 0.803773
1203 4 0.0828187 0.0500304 0.779022
1201 2 0.107425 0.0539177 0.776883
1202 4 0.132032 0.057805 0.774744
2049 4 0.103434 0.995656 0.755957
875 4 0.216502 0.0237622 0.821394
1255 2 0.275397 0.0611685 0.795185
1256 4 0.28658 0.0754808 0.812369
1257 4 0.264215 0.0468561 0.778001
1113 4 0.417186 0.0144213 0.782733
973 2 0.360518 3.56335e-05 0.830928
844 2 0.488086 0.0604939 0.766964
1111 2 0.426726 0.0341516 0.79477
1112 4 0.436266 0.0538818 0.806806
845 4 0.466946 0.0537144 0.778468
832 2 0.00648272 0.138786 0.785259
833 4 0.0277934 0.142853 0.77283
34 3 0.112757 0.139638 0.818922
31 1 0.124761 0.158294 0.812121
35 3 0.122498 0.161223 0.78965
33 3 0.147172 0.155705 0.817551
839 4 0.269759 0.11132 0.792164
838 2 0.261506 0.130054 0.806521
840 4 0.253253 0.148787 0.820878
960 4 0.32757 0.152271 0.834403
1084 2 0.352082 0.119859 0.789258
1085 4 0.347424 0.114747 0.813286
1086 4 0.35674 0.124971 0.76523
819 4 0.368066 0.115855 0.815532
32 3 0.116555 0.176804 0.823039
1072 2 0.093857 0.246887 0.793814
1074 4 0.107938 0.231919 0.779571
1129 2 0.200073 0.20145 0.766661
1130 4 0.198681 0.177927 0.758299
1131 4 0.201464 0.224973 0.775023
918 4 0.312962 0.239182 0.755779
1298 4 0.35928 0.211473 0.739851
47 3 0.401376 0.185515 0.809193
1299 4 0.356782 0.17442 0.77334
1297 2 0.358031 0.192946 0.756596
1043 4 0.407707 0.227729 0.778125
48 3 0.43825 0.184257 0.802024