ITEM: TIMESTEP
3420000
ITEM: NUMBER OF ATOMS
4590
ITEM: BOX BOUNDS pp pp pp
-9.9985700000000008e+00 9.9985700000000008e+00
-9.9985700000000008e+00 9.9985700000000008e+00
-9.9985700000000008e+00 9.9985700000000008e+00
ITEM: ATOMS id type xs ys zs
2576 4 0.0462659 0.00588739 0.0737877
702 4 0.126796 0.061212 0.019016
566 4 0.138203 0.0515909 0.00447998
700 2 0.110691 0.0779398 0.028289
986 4 0.405718 0.0811077 0.000302041
746 4 0.480609 0.0433601 0.0490669
2469 4 0.487392 0.0308565 0.063646
745 2 0.4716 0.0444126 0.0257661
747 4 0.462592 0.0454651 0.00246538
985 2 0.427107 0.0681858 0.999436
987 4 0.448495 0.0552638 0.998569
463 2 0.0601927 0.103845 0.0396555
464 4 0.0376318 0.0985068 0.0490199
590 4 0.0364829 0.10957 0.0658026
589 2 0.0150884 0.104691 0.0777883
465 4 0.0827536 0.109183 0.0302912
701 4 0.0945858 0.0946677 0.0375619
557 4 0.322888 0.0991326 0.0795604
558 4 0.360342 0.120207 0.0539914
556 2 0.341615 0.10967 0.0667759
866 4 0.368569 0.137957 0.0518794
865 2 0.365836 0.162781 0.0506803
827 4 0.37266 0.123189 0.0397157
826 2 0.386152 0.105238 0.0287184
828 4 0.399643 0.0872878 0.017721
554 4 0.0266564 0.214399 0.0367619
553 2 0.049861 0.213821 0.0274674
555 4 0.0730657 0.213243 0.0181728
836 4 0.0833955 0.201125 0.00593151
835 2 0.108243 0.203733 0.00494773
666 4 0.345323 0.240195 0.071554
664 2 0.346646 0.219617 0.0574141
665 4 0.347969 0.199038 0.0432742
867 4 0.363103 0.187606 0.0494812
2808 4 0.0543392 0.297499 0.0467952
2806 2 0.0297739 0.292841 0.046948
2807 4 0.00520857 0.288183 0.0471009
573 4 0.339268 0.25855 0.0704069
356 4 0.302067 0.313307 0.0580746
572 4 0.311322 0.300012 0.0696155
355 2 0.298425 0.321238 0.0346437
571 2 0.325295 0.279281 0.0700112
1070 4 0.432699 0.258803 0.0716991
507 4 0.128176 0.35067 0.072236
505 2 0.144095 0.36512 0.0594702
506 4 0.160014 0.379569 0.0467044
483 4 0.159781 0.39264 0.0314897
481 2 0.180835 0.403 0.0228529
482 4 0.201889 0.413359 0.0142161
609 4 0.218531 0.41114 0.0251539
357 4 0.294782 0.329169 0.0112127
902 4 0.295495 0.340466 0.994109
741 4 0.391228 0.366885 0.0822108
957 4 0.39722 0.400984 0.022216
955 2 0.395476 0.391521 0.999138
1787 4 0.0619946 0.486117 0.0867901
244 2 0.227943 0.480514 0.0366226
245 4 0.217125 0.473008 0.0578782
627 4 0.20611 0.46349 0.0708095
625 2 0.20717 0.43896 0.0755343
607 2 0.241476 0.418581 0.0317364
246 4 0.238761 0.488021 0.015367
272 4 0.256269 0.490801 0.00622963
608 4 0.264421 0.426022 0.0383189
252 4 0.277698 0.426935 0.0530944
250 2 0.293358 0.440163 0.0387778
251 4 0.309018 0.453391 0.0244611
2289 4 0.312457 0.465829 0.00967263
226 2 0.47056 0.471804 0.058701
227 4 0.488543 0.456512 0.0504588
228 4 0.452577 0.487097 0.0669433
282 4 0.500001 0.441803 0.0596314
525 4 0.435745 0.487065 0.0760026
16 1 0.0549895 0.0498927 0.152018
20 3 0.0511224 0.0619938 0.133116
18 3 0.0482056 0.0279258 0.148881
1806 4 0.0519235 0.0133551 0.135923
1804 2 0.0560877 0.010056 0.11149
17 3 0.0775126 0.0501252 0.156687
692 4 0.237347 0.0848835 0.142554
654 4 0.32706 0.00509849 0.166091
652 2 0.333243 0.0193786 0.14652
653 4 0.339427 0.0336586 0.126949
484 2 0.37261 0.0239797 0.105702
297 4 0.334373 0.0395574 0.109352
485 4 0.35335 0.0381444 0.113022
295 2 0.334077 0.0628211 0.100193
486 4 0.39187 0.00981507 0.0983825
579 4 0.118747 0.132392 0.0873679
237 4 0.159181 0.141104 0.132822
577 2 0.134635 0.1427 0.103692
578 4 0.150523 0.153008 0.120017
476 4 0.1499 0.157388 0.138645
737 4 0.166922 0.157933 0.128782
235 2 0.165671 0.120706 0.145745
236 4 0.172162 0.100308 0.158667
691 2 0.214237 0.0899671 0.150633
693 4 0.191127 0.0950508 0.158711
736 2 0.182275 0.177251 0.124747
449 4 0.177038 0.0854786 0.169022
582 4 0.256318 0.0908316 0.139826
580 2 0.2762 0.105731 0.142638
581 4 0.296082 0.12063 0.14545
29 3 0.303034 0.172459 0.167154
30 3 0.292856 0.139076 0.153025
296 4 0.333782 0.0860848 0.0910333
771 4 0.436101 0.123203 0.100844
769 2 0.433284 0.148047 0.100821
475 2 0.138847 0.171229 0.156293
738 4 0.197627 0.19657 0.120711
285 4 0.299942 0.175803 0.147858
354 4 0.31335 0.240968 0.146157
462 4 0.316749 0.233426 0.130503
460 2 0.326512 0.240822 0.108705
283 2 0.307454 0.199612 0.146479
284 4 0.314965 0.223421 0.145101
255 4 0.32905 0.233501 0.143034
253 2 0.346791 0.236165 0.160451
461 4 0.336276 0.248219 0.0869072
770 4 0.430467 0.172892 0.100799
1014 4 0.450933 0.177697 0.102956
1013 4 0.471851 0.222495 0.11046
1012 2 0.461392 0.200096 0.106708
519 4 0.476187 0.240945 0.107662
454 2 0.0667838 0.324151 0.14988
455 4 0.0541236 0.308014 0.16418
756 4 0.238312 0.301995 0.126471
352 2 0.295899 0.256908 0.154315
612 4 0.252283 0.315705 0.130543
754 2 0.248956 0.285935 0.142407
755 4 0.2596 0.269876 0.158343
353 4 0.278447 0.272847 0.162472
1069 2 0.444636 0.278945 0.0804709
1071 4 0.456574 0.299088 0.0892428
322 2 0.44822 0.331019 0.0995323
324 4 0.438586 0.308537 0.0943456
517 2 0.483517 0.249807 0.129864
518 4 0.490847 0.25867 0.152065
647 4 0.040422 0.379701 0.0952327
620 4 0.0211255 0.37596 0.0911876
456 4 0.0794441 0.340288 0.13558
648 4 0.0729952 0.354214 0.123342
646 2 0.0567086 0.366957 0.109288
294 4 0.0829199 0.338768 0.116435
293 4 0.124738 0.339535 0.0890227
292 2 0.103829 0.339151 0.102729
610 2 0.242382 0.331914 0.114283
626 4 0.208231 0.414429 0.0802592
536 4 0.219281 0.398161 0.0818422
611 4 0.232481 0.348124 0.0980224
535 2 0.217356 0.377494 0.0957844
537 4 0.21543 0.356828 0.109727
387 4 0.323518 0.410631 0.127759
739 2 0.387543 0.378539 0.104023
740 4 0.383859 0.390193 0.125836
385 2 0.347389 0.404493 0.131961
386 4 0.37126 0.398355 0.136164
495 4 0.38969 0.4036 0.140089
15 3 0.374342 0.379026 0.139017
11 1 0.385349 0.381597 0.158788
12 3 0.399582 0.363797 0.161905
14 3 0.397792 0.401179 0.158434
309 4 0.355904 0.3734 0.16607
323 4 0.457855 0.353501 0.104719
670 2 0.472696 0.38117 0.104234
672 4 0.44984 0.371904 0.108346
671 4 0.495552 0.390437 0.100122
552 4 0.0696292 0.470042 0.0931004
550 2 0.0509078 0.453553 0.0947728
551 4 0.0321863 0.437064 0.0964453
242 4 0.0790868 0.486989 0.0962408
241 2 0.103872 0.487076 0.0995366
243 4 0.128657 0.487163 0.102832
1440 4 0.141878 0.473445 0.104054
1438 2 0.164762 0.483504 0.104594
1439 4 0.187647 0.493563 0.105134
639 4 0.196152 0.497362 0.0861596
637 2 0.217261 0.499002 0.0994594
638 4 0.238371 0.500642 0.112759
767 4 0.251535 0.488848 0.104847
303 4 0.306973 0.456203 0.0823557
768 4 0.294051 0.472486 0.0842217
301 2 0.307731 0.437065 0.0984292
302 4 0.30849 0.417928 0.114503
766 2 0.272793 0.480667 0.0945345
493 2 0.400682 0.424482 0.131824
494 4 0.411674 0.445364 0.123559
660 4 0.413944 0.460624 0.134085
524 4 0.421813 0.460305 0.115884
523 2 0.428779 0.473685 0.0959432
658 2 0.422791 0.476351 0.151393
19 3 0.0435261 0.0592478 0.169891
380 4 0.060421 0.0650531 0.180855
379 2 0.0488646 0.0792592 0.197879
675 4 0.0783333 0.0643022 0.171851
673 2 0.100948 0.0617367 0.182204
674 4 0.123562 0.0591712 0.192558
450 4 0.142316 0.0634682 0.197494
1505 4 0.13719 0.0452681 0.193482
1504 2 0.14738 0.0237151 0.201019
448 2 0.159677 0.0744734 0.183258
1506 4 0.15757 0.00216213 0.208556
22 3 0.383464 0.00359372 0.221445
25 3 0.4124 0.0102485 0.244057
757 2 0.413851 0.0452482 0.219605
759 4 0.418828 0.0269734 0.235928
758 4 0.408874 0.063523 0.203282
512 4 0.0333764 0.113069 0.216972
381 4 0.0373082 0.0934654 0.214903
511 2 0.0426653 0.136198 0.214985
513 4 0.0519542 0.159327 0.212998
339 4 0.0677901 0.163675 0.201522
27 3 0.324389 0.142044 0.172768
26 1 0.302737 0.149527 0.170682
28 3 0.291206 0.144668 0.190222
477 4 0.127793 0.185069 0.17394
337 2 0.0901095 0.170449 0.192514
363 4 0.118489 0.19594 0.186779
338 4 0.112429 0.177222 0.183507
362 4 0.137164 0.240925 0.198106
361 2 0.127826 0.218433 0.192442
372 4 0.135135 0.234083 0.217668
370 2 0.146216 0.243601 0.237961
723 4 0.228746 0.218837 0.263429
628 2 0.395139 0.214207 0.17835
630 4 0.383752 0.236429 0.179648
254 4 0.364532 0.238828 0.177868
765 4 0.377083 0.252817 0.171924
629 4 0.406526 0.191985 0.177052
311 4 0.472243 0.202133 0.166223
312 4 0.425317 0.192273 0.180417
310 2 0.44878 0.197203 0.17332
761 4 0.473759 0.219004 0.227754
749 4 0.0406262 0.317243 0.177167
750 4 0.0272135 0.299234 0.221849
395 4 0.023817 0.282431 0.234829
748 2 0.0339199 0.308238 0.199508
300 4 0.142178 0.300254 0.171095
298 2 0.135042 0.313215 0.191251
299 4 0.127906 0.326176 0.211407
734 4 0.115575 0.331058 0.225638
278 4 0.265073 0.26888 0.175839
277 2 0.261534 0.282173 0.196718
279 4 0.257996 0.295466 0.217598
401 4 0.272924 0.305224 0.224881
496 2 0.304902 0.33008 0.208377
498 4 0.286799 0.318872 0.221485
400 2 0.264672 0.307086 0.24841
763 2 0.378008 0.275481 0.182445
764 4 0.378933 0.298144 0.192966
623 4 0.397485 0.30349 0.199731
528 4 0.453049 0.285531 0.200705
624 4 0.447455 0.304292 0.201502
622 2 0.42247 0.303891 0.200616
526 2 0.470162 0.276146 0.185077
527 4 0.487274 0.266762 0.169448
262 2 0.0540551 0.391015 0.208428
263 4 0.0765624 0.387557 0.198101
264 4 0.0315477 0.394472 0.218754
2618 4 0.0267922 0.408064 0.233242
2617 2 0.00401447 0.407187 0.243517
602 4 0.0926889 0.382804 0.208591
601 2 0.108678 0.363818 0.211599
603 4 0.124667 0.344831 0.214607
497 4 0.323005 0.341288 0.195268
308 4 0.321498 0.338401 0.175663
307 2 0.338701 0.3559 0.170866
13 3 0.370137 0.382193 0.176299
290 4 0.159434 0.419615 0.231557
289 2 0.166695 0.425452 0.208354
291 4 0.173956 0.431289 0.185151
416 4 0.190005 0.438062 0.174714
415 2 0.198752 0.461469 0.175572
1430 4 0.215252 0.494225 0.191704
417 4 0.2075 0.484877 0.176431
713 4 0.366756 0.498973 0.246187
597 4 0.486046 0.475008 0.209002
659 4 0.431638 0.492079 0.168701
595 2 0.466616 0.481212 0.19454
596 4 0.447186 0.487417 0.180077
645 4 0.501471 0.461855 0.201878
234 4 0.999943 0.0687786 0.310041
232 2 0.0116173 0.04746 0.304175
1799 4 0.0155904 0.0106743 0.307317
233 4 0.0232914 0.0261413 0.298309
1402 2 0.0563915 0.00770378 0.296603
1403 4 0.0350656 0.0142802 0.307879
1798 2 0.00910885 0.997322 0.327439
2756 4 0.997427 0.0873158 0.315514
1404 4 0.0777174 0.00112734 0.285328
632 4 0.410985 0.0273408 0.253804
633 4 0.373828 0.0381405 0.28548
631 2 0.392407 0.0327407 0.269642
257 4 0.361058 0.0359624 0.300638
698 4 0.360111 0.0238091 0.285929
256 2 0.357872 0.0512112 0.320196
350 4 0.428428 0.0188505 0.250429
349 2 0.45019 0.0123781 0.260903
744 4 0.485668 0.00882926 0.286687
742 2 0.495521 0.016474 0.308358
351 4 0.471953 0.00590558 0.271376
397 2 0.0863752 0.137898 0.324189
399 4 0.0756986 0.115673 0.328339
398 4 0.0970518 0.160124 0.32004
249 4 0.203849 0.127393 0.318608
404 4 0.217312 0.125475 0.305035
403 2 0.207395 0.145217 0.293326
393 4 0.091635 0.169909 0.305133
390 4 0.0901229 0.179094 0.321806
392 4 0.12708 0.179087 0.271073
391 2 0.109358 0.174498 0.288103
388 2 0.0835417 0.200287 0.333327
545 4 0.139582 0.182807 0.255033
371 4 0.157297 0.253119 0.258253
721 2 0.212098 0.201086 0.269166
544 2 0.162966 0.17571 0.260326
546 4 0.186349 0.168613 0.265619
405 4 0.197479 0.164959 0.281617
722 4 0.195449 0.183335 0.274904
377 4 0.320834 0.218227 0.312646
376 2 0.312279 0.241418 0.31641
420 4 0.401251 0.237242 0.286785
717 4 0.392155 0.233351 0.303953
760 2 0.467158 0.215869 0.251666
418 2 0.421353 0.222793 0.283276
331 2 0.467397 0.196986 0.31238
332 4 0.456199 0.200237 0.290262
419 4 0.441455 0.208343 0.279766
762 4 0.460558 0.212735 0.275578
394 2 0.0280778 0.284577 0.259373
442 2 0.0227016 0.267355 0.315375
364 2 0.0287365 0.327283 0.299318
396 4 0.0323385 0.286723 0.283917
443 4 0.0328516 0.286545 0.30297
365 4 0.0330436 0.30332 0.293623
733 2 0.121011 0.325643 0.249435
735 4 0.126448 0.320227 0.273232
677 4 0.144069 0.318051 0.282975
508 2 0.225167 0.320979 0.291461
676 2 0.165565 0.326323 0.292704
509 4 0.204631 0.334914 0.294503
510 4 0.245703 0.307043 0.288419
402 4 0.256421 0.308947 0.27194
345 4 0.264955 0.30337 0.2884
343 2 0.274495 0.283972 0.300966
344 4 0.284034 0.264574 0.313532
378 4 0.303725 0.26461 0.320174
715 2 0.382107 0.25529 0.297403
716 4 0.372059 0.277229 0.290853
542 4 0.367492 0.291235 0.304683
541 2 0.375312 0.304383 0.324461
751 2 0.487486 0.331829 0.332412
753 4 0.492843 0.334226 0.308107
407 4 0.0216303 0.361634 0.321441
366 4 0.0244294 0.351245 0.305012
548 4 0.0130028 0.366546 0.304997
547 2 0.019339 0.389482 0.297319
549 4 0.0256752 0.412418 0.28964
2493 4 0.00717209 0.350644 0.314928
777 4 0.0314665 0.421018 0.30655
678 4 0.187062 0.334594 0.302434
435 4 0.19549 0.35157 0.299507
433 2 0.198746 0.370555 0.315448
434 4 0.202003 0.38954 0.33139
728 4 0.341864 0.431406 0.290461
2538 4 0.489175 0.33949 0.290083
775 2 0.0521803 0.434338 0.310873
776 4 0.072894 0.447659 0.315196
414 4 0.0878057 0.44407 0.328688
1545 4 0.182423 0.475047 0.321418
1436 4 0.19751 0.488018 0.315199
727 2 0.360238 0.437477 0.306294
729 4 0.378612 0.443549 0.322128
1771 2 0.00664102 0.00724296 0.380205
2238 4 0.00257861 0.0441804 0.392553
1772 4 0.0127377 0.0268625 0.394456
1782 4 0.0828723 0.0176625 0.401772
606 4 0.168801 0.00702397 0.374629
732 4 0.100734 0.0741797 0.376495
369 4 0.102734 0.0781173 0.396321
367 2 0.0981671 0.0549865 0.404645
368 4 0.0936006 0.0318557 0.412969
604 2 0.171762 0.0286878 0.386757
1701 4 0.176813 0.0691255 0.393588
1699 2 0.196717 0.0812711 0.384558
605 4 0.174723 0.0503516 0.398885
258 4 0.354685 0.0664601 0.339754
424 2 0.35241 0.0513645 0.37591
425 4 0.356375 0.0515253 0.400597
1580 4 0.365156 0.0337 0.405993
426 4 0.348446 0.0512036 0.351223
1579 2 0.377646 0.0129473 0.412196
480 4 0.501576 0.0464995 0.387998
317 4 0.0615337 0.103049 0.330879
731 4 0.0781784 0.100186 0.340223
316 2 0.0413452 0.111298 0.343109
318 4 0.0211568 0.119546 0.355338
458 4 0.0178234 0.126804 0.373314
457 2 0.0124631 0.150665 0.378518
730 2 0.0894563 0.0871828 0.358359
1700 4 0.21662 0.0934166 0.375529
247 2 0.209146 0.111218 0.336925
248 4 0.214442 0.0950432 0.355241
319 2 0.326246 0.147405 0.38657
321 4 0.339672 0.156607 0.367589
320 4 0.31282 0.138202 0.40555
684 4 0.298333 0.13199 0.416169
516 4 0.459375 0.165534 0.383213
575 4 0.46444 0.146315 0.383466
574 2 0.460473 0.130118 0.402097
514 2 0.471812 0.171116 0.362252
2653 2 0.00126009 0.21667 0.386698
459 4 0.00710293 0.174526 0.383722
2654 4 0.00635796 0.193041 0.393092
444 4 0.0125515 0.248165 0.327781
389 4 0.0769605 0.22148 0.344847
707 4 0.331511 0.212917 0.329293
706 2 0.337757 0.192785 0.342741
708 4 0.344002 0.172652 0.35619
333 4 0.478595 0.193736 0.334498
453 4 0.493874 0.192393 0.3468
515 4 0.484248 0.176698 0.341292
274 2 0.141853 0.322492 0.371255
276 4 0.153902 0.310023 0.389269
275 4 0.129804 0.334962 0.353241
375 4 0.159756 0.291969 0.383628
373 2 0.177217 0.280125 0.397045
374 4 0.194679 0.26828 0.410461
473 4 0.211778 0.263694 0.418585
543 4 0.383131 0.317531 0.344239
467 4 0.360625 0.253035 0.367537
466 2 0.353864 0.266042 0.387792
468 4 0.347103 0.27905 0.408047
615 4 0.400926 0.313435 0.353127
613 2 0.401625 0.311165 0.378017
561 4 0.484843 0.322328 0.375789
752 4 0.482129 0.329433 0.356717
614 4 0.402323 0.308896 0.402908
406 2 0.0350695 0.361077 0.342519
408 4 0.0485087 0.360521 0.363596
347 4 0.0489863 0.35646 0.382382
346 2 0.0426046 0.363755 0.40543
618 4 0.0644406 0.351995 0.370496
617 4 0.112139 0.342107 0.359188
616 2 0.0882897 0.347051 0.364842
504 4 0.277132 0.406759 0.411958
502 2 0.300765 0.41485 0.413052
1543 2 0.159424 0.483296 0.326727
1544 4 0.136425 0.491544 0.332037
413 4 0.124311 0.477408 0.336216
412 2 0.106058 0.460739 0.332452
500 4 0.118042 0.495146 0.339743
669 4 0.326918 0.441597 0.410756
503 4 0.324398 0.422941 0.414147
335 4 0.392167 0.431949 0.411993
334 2 0.367231 0.431056 0.4104
437 4 0.383889 0.462456 0.327219
336 4 0.342294 0.430163 0.408807
436 2 0.391854 0.475824 0.34679
438 4 0.399819 0.489193 0.36636
593 4 0.419712 0.484711 0.364032
240 4 0.405478 0.417317 0.407283
2236 2 0.00555303 0.0558305 0.414476
1126 2 0.012054 0.0414994 0.471947
1127 4 0.00972373 0.0589687 0.454211
2237 4 0.00852746 0.0674805 0.436398
720 4 0.0223917 0.0730049 0.448601
1128 4 0.0143842 0.02403 0.489683
724 2 0.320464 0.0523234 0.4689
963 4 0.306328 0.0159797 0.489609
725 4 0.313734 0.0296652 0.477055
432 4 0.32441 0.0153663 0.483947
726 4 0.327193 0.0749816 0.460745
961 2 0.284234 0.0092361 0.499178
642 4 0.454633 0.0524601 0.44864
2878 2 0.450358 0.0166277 0.443893
2880 4 0.463737 0.0358825 0.45258
469 2 0.993202 0.139847 0.462398
470 4 0.012209 0.128642 0.450636
718 2 0.0257958 0.0975689 0.445407
719 4 0.0291999 0.122133 0.442213
939 4 0.10131 0.158706 0.476879
1033 2 0.121636 0.154618 0.453096
1035 4 0.146359 0.153582 0.449504
1034 4 0.0969139 0.155653 0.456688
261 4 0.162208 0.146021 0.458687
259 2 0.175407 0.163995 0.469998
682 2 0.283056 0.148255 0.427449
1181 4 0.317029 0.12901 0.422091
1182 4 0.331856 0.094825 0.455441
1180 2 0.324443 0.111918 0.438766
683 4 0.267779 0.16452 0.43873
640 2 0.455471 0.0764242 0.441555
576 4 0.456506 0.113921 0.420728
641 4 0.456309 0.100388 0.43447
306 4 0.448704 0.117805 0.43818
304 2 0.441089 0.131216 0.457861
305 4 0.433475 0.144627 0.477542
3158 4 0.427415 0.149601 0.496239
694 2 0.164781 0.211798 0.494017
695 4 0.177432 0.198384 0.477129
260 4 0.188605 0.181968 0.481308
687 4 0.237048 0.222347 0.458405
686 4 0.19682 0.198788 0.4765
685 2 0.216934 0.210567 0.467452
474 4 0.241829 0.234478 0.445863
599 4 0.252427 0.22133 0.450077
411 4 0.249581 0.234161 0.461617
472 2 0.226803 0.249086 0.432224
409 2 0.257098 0.240095 0.484714
600 4 0.278926 0.178923 0.449728
598 2 0.265677 0.200126 0.449903
488 4 0.259019 0.237622 0.44701
487 2 0.279894 0.248087 0.438072
489 4 0.300769 0.258553 0.429134
265 2 0.330139 0.29243 0.429712
266 4 0.317484 0.313659 0.433507
267 4 0.342794 0.271202 0.425917
348 4 0.0362229 0.371051 0.428479
2812 2 0.998365 0.356366 0.440917
2813 4 0.0200811 0.368428 0.438069
326 4 0.0348491 0.377761 0.446608
325 2 0.0492295 0.376852 0.467042
327 4 0.0636098 0.375942 0.487476
7 3 0.0790112 0.388061 0.488507
6 1 0.0987335 0.382448 0.498932
10 3 0.111788 0.370679 0.48445
813 4 0.24356 0.330054 0.458765
811 2 0.241612 0.337068 0.482686
927 4 0.413567 0.377936 0.510872
925 2 0.420174 0.401431 0.505439
681 4 0.0418824 0.444188 0.50056
709 2 0.140731 0.421462 0.48885
710 4 0.162637 0.423367 0.476946
774 4 0.17797 0.425271 0.488164
634 2 0.186621 0.446011 0.457384
635 4 0.180496 0.424633 0.468813
636 4 0.192747 0.467389 0.445954
667 2 0.325718 0.461867 0.425346
668 4 0.324518 0.482137 0.439935
239 4 0.438109 0.449557 0.427194
238 2 0.421794 0.433437 0.417239
586 2 0.432335 0.449865 0.46984
588 4 0.437421 0.45703 0.446431
926 4 0.426781 0.424926 0.500006
587 4 0.427248 0.442699 0.493248
1184 4 0.0531282 0.0175955 0.563776
3077 4 0.0451424 0.0269001 0.547976
3076 2 0.0306488 0.0226129 0.528058
3078 4 0.0161553 0.0183258 0.50814
3111 4 0.0127035 0.00493219 0.494102
1152 4 0.158262 0.0619182 0.534412
1150 2 0.147925 0.072377 0.554634
342 4 0.168509 0.0466384 0.527394
340 2 0.185908 0.0324882 0.538449
2430 4 0.211184 0.0108803 0.5333
341 4 0.203308 0.0183381 0.549504
2428 2 0.235811 0.0116933 0.529053
2429 4 0.260438 0.0125064 0.524806
841 2 0.387292 0.0217546 0.526748
843 4 0.371199 0.0117963 0.510407
431 4 0.357899 0.000466622 0.517964
842 4 0.403385 0.0317128 0.543089
430 2 0.341154 0.00791646 0.500955
1217 4 0.418427 0.019017 0.546216
877 2 0.0422342 0.146129 0.532708
878 4 0.0174155 0.147755 0.535271
938 4 0.068379 0.156626 0.514454
1272 4 0.0776657 0.159889 0.531506
879 4 0.0670529 0.144502 0.530146
1199 4 0.0091435 0.163488 0.539704
937 2 0.0848447 0.157666 0.495667
1221 4 0.170102 0.15519 0.598251
3159 4 0.462753 0.133119 0.527548
3157 2 0.445084 0.14136 0.511894
1062 4 0.479885 0.122953 0.523676
1060 2 0.495377 0.103443 0.521544
1270 2 0.0883212 0.166851 0.553027
1258 2 0.123085 0.229486 0.5378
1260 4 0.146218 0.223375 0.530542
1271 4 0.0989767 0.173814 0.574549
696 4 0.152129 0.225212 0.510904
1259 4 0.099951 0.235597 0.545057
1244 4 0.0910857 0.184509 0.589804
898 2 0.291406 0.231872 0.537597
899 4 0.312672 0.226269 0.549494
857 4 0.32467 0.210745 0.55008
856 2 0.322795 0.190919 0.565199
900 4 0.27014 0.237475 0.525699
410 4 0.264616 0.246029 0.50781
858 4 0.32092 0.171092 0.580318
791 4 0.332346 0.229011 0.550697
790 2 0.350945 0.243354 0.559272
651 4 0.290794 0.342542 0.54232
792 4 0.369544 0.257697 0.567847
872 4 0.379113 0.272003 0.559069
1238 4 0.366866 0.276623 0.572763
871 2 0.395442 0.277235 0.540871
1237 2 0.355406 0.29756 0.580211
1239 4 0.343945 0.318497 0.587658
873 4 0.411771 0.282466 0.522673
9 3 0.0939399 0.369502 0.517582
711 4 0.118826 0.419557 0.500753
897 4 0.136315 0.385879 0.574593
8 3 0.109612 0.401903 0.505377
773 4 0.205728 0.4087 0.526317
1189 2 0.206818 0.408992 0.566986
1190 4 0.215342 0.408506 0.543486
803 4 0.21115 0.391445 0.534489
802 2 0.218077 0.368631 0.526959
804 4 0.225004 0.345816 0.519429
930 4 0.224578 0.4038 0.526494
650 4 0.243765 0.345842 0.525643
812 4 0.239663 0.344082 0.506606
649 2 0.26728 0.344192 0.533981
805 2 0.320149 0.336893 0.561334
806 4 0.310431 0.342445 0.538975
383 4 0.0616195 0.447673 0.498663
680 4 0.0382615 0.493871 0.496178
679 2 0.040072 0.46903 0.498369
384 4 0.105625 0.428783 0.513065
382 2 0.0836224 0.438228 0.505864
569 4 0.11728 0.442598 0.520633
568 2 0.127881 0.435298 0.542069
570 4 0.138482 0.427997 0.563505
538 2 0.128636 0.483444 0.51813
539 4 0.115976 0.461908 0.517064
772 2 0.191849 0.416985 0.50724
928 2 0.243928 0.419567 0.527954
929 4 0.263279 0.435335 0.529414
1951 2 0.261282 0.480438 0.523793
1953 4 0.260593 0.455752 0.527705
1952 4 0.261971 0.505124 0.519881
1001 4 0.414642 0.478199 0.559308
1000 2 0.392709 0.489385 0.554949
1002 4 0.370776 0.50057 0.550591
1330 2 0.448443 0.495646 0.556444
662 4 0.428311 0.46527 0.552651
661 2 0.423581 0.452419 0.53173
663 4 0.418851 0.439569 0.510809
1911 4 0.420678 0.463378 0.570319
1332 4 0.433124 0.478209 0.565742
1151 4 0.137588 0.0828359 0.574857
2374 2 0.158894 0.00624561 0.629258
2375 4 0.156028 0.0308398 0.625781
1057 2 0.143866 0.0635732 0.610501
1058 4 0.144166 0.0459611 0.628246
1059 4 0.143566 0.0811852 0.592755
950 4 0.218625 0.0190879 0.646566
949 2 0.237167 0.0350958 0.651575
951 4 0.25571 0.0511038 0.656585
1031 4 0.264131 0.0680124 0.652496
1030 2 0.283816 0.0721465 0.637643
2400 4 0.333863 0.00243278 0.622153
1032 4 0.3035 0.0762805 0.622791
43 3 0.446374 0.071888 0.638198
45 3 0.468132 0.0464855 0.655488
41 1 0.456094 0.0656101 0.658311
44 3 0.469887 0.0825745 0.666078
1154 4 0.160406 0.13659 0.596386
1155 4 0.132176 0.0961474 0.58813
1153 2 0.146291 0.116369 0.592258
1211 4 0.246639 0.167866 0.650503
1219 2 0.189466 0.170858 0.600423
810 4 0.482119 0.0963455 0.658445
808 2 0.487776 0.10654 0.636326
809 4 0.493433 0.116735 0.614207
3008 4 0.495672 0.113788 0.595675
1209 4 0.117892 0.156986 0.637245
1207 2 0.108771 0.155687 0.660489
1245 4 0.118076 0.176284 0.631091
1243 2 0.104581 0.180396 0.610447
1220 4 0.208831 0.186525 0.602594
1210 2 0.233376 0.180695 0.633629
1212 4 0.220113 0.193524 0.616756
796 2 0.204204 0.225028 0.591883
798 4 0.214115 0.204968 0.603045
797 4 0.194293 0.245087 0.580721
3123 4 0.490317 0.22632 0.599325
905 4 0.486269 0.243296 0.608935
983 4 0.0030148 0.326537 0.656833
807 4 0.329867 0.331341 0.583693
906 4 0.456103 0.280949 0.595785
904 2 0.471186 0.262122 0.60236
953 4 0.457602 0.300522 0.58763
952 2 0.473178 0.319988 0.589541
982 2 0.0257021 0.337044 0.657116
1041 4 0.0628708 0.35824 0.649377
1039 2 0.0645717 0.380827 0.638789
1040 4 0.0662725 0.403414 0.628201
993 4 0.0578213 0.420318 0.633426
984 4 0.0483894 0.34755 0.657398
3263 4 0.0674028 0.343867 0.661513
1137 4 0.129639 0.377751 0.59189
1135 2 0.112999 0.359117 0.592917
1136 4 0.0963586 0.340483 0.593943
895 2 0.157733 0.396105 0.582458
1028 4 0.194306 0.403655 0.657071
1027 2 0.191373 0.40626 0.632377
1029 4 0.188439 0.408865 0.607683
1068 4 0.185277 0.392591 0.670826
896 4 0.179151 0.406332 0.590323
1206 4 0.482087 0.404115 0.615711
954 4 0.488753 0.339454 0.591452
3307 2 0.498895 0.371185 0.610835
3308 4 0.502919 0.350011 0.598161
3182 4 0.497975 0.41172 0.623237
991 2 0.0386813 0.4254 0.618161
992 4 0.0195413 0.430482 0.602897
1191 4 0.198293 0.409477 0.590487
1172 4 0.186097 0.423716 0.596458
1160 4 0.195012 0.489698 0.592714
1171 2 0.186661 0.448618 0.598635
1173 4 0.187225 0.47352 0.600811
1187 4 0.177425 0.490638 0.60218
1186 2 0.167424 0.497855 0.62393
1909 2 0.425705 0.452473 0.592251
1268 4 0.459311 0.480229 0.66157
1267 2 0.451868 0.463293 0.644748
1204 2 0.460509 0.416073 0.619781
1910 4 0.430732 0.441568 0.614182
1269 4 0.444425 0.446357 0.627927
1205 4 0.438931 0.428031 0.623852
2168 4 0.476703 0.485407 0.66996
1284 4 0.110187 0.0532836 0.743474
1282 2 0.121699 0.0699874 0.728858
1201 2 0.205262 0.0409833 0.727072
1203 4 0.203587 0.0611756 0.712422
1226 4 0.194253 0.0787285 0.71239
1148 4 0.213166 0.0778326 0.717391
1202 4 0.206936 0.020791 0.741723
42 3 0.439465 0.0618844 0.673762
1075 2 0.00656839 0.122338 0.717537
1077 4 0.0250543 0.139173 0.71768
850 2 0.0654918 0.151709 0.708548
852 4 0.0424999 0.147284 0.717321
864 4 0.0328955 0.145982 0.734292
1214 4 0.0268535 0.158449 0.720771
851 4 0.0884837 0.156134 0.699775
1283 4 0.133211 0.0866912 0.714242
1227 4 0.148208 0.0982125 0.711416
909 4 0.105707 0.147199 0.700609
907 2 0.117861 0.126538 0.707721
908 4 0.130016 0.105878 0.714833
1208 4 0.0996502 0.154388 0.683734
1107 4 0.105469 0.165947 0.698025
888 4 0.248342 0.158279 0.669303
1225 2 0.171231 0.0884705 0.711903
1147 2 0.226127 0.0983927 0.723264
1149 4 0.239087 0.118953 0.729136
829 2 0.322749 0.149129 0.698412
830 4 0.305163 0.166643 0.701441
887 4 0.285678 0.168433 0.700982
886 2 0.26701 0.163356 0.685142
831 4 0.340336 0.131616 0.695383
1142 4 0.357522 0.139554 0.703045
1141 2 0.375791 0.153828 0.712409
1026 4 0.41076 0.158497 0.726842
1143 4 0.394059 0.168102 0.721774
3426 4 0.477627 0.0962879 0.677798
1163 4 0.489076 0.0829038 0.670021
1025 4 0.447963 0.125111 0.728271
3424 2 0.467059 0.102665 0.699542
3425 4 0.45649 0.109042 0.721287
3269 4 0.465378 0.118464 0.735312
1024 2 0.429362 0.141804 0.727556
3268 2 0.476172 0.132921 0.752623
845 4 0.449013 0.109049 0.739329
1213 2 0.0109848 0.177733 0.721981
1105 2 0.115048 0.186207 0.709114
1106 4 0.124626 0.206467 0.720203
1130 4 0.141733 0.198209 0.723166
1129 2 0.151794 0.208109 0.743804
978 4 0.295953 0.171562 0.717935
976 2 0.306679 0.192247 0.727005
977 4 0.317405 0.212932 0.736075
916 2 0.33198 0.243112 0.734235
1262 4 0.404378 0.172797 0.737626
1194 4 0.411005 0.175839 0.718644
1192 2 0.418856 0.190434 0.699922
1193 4 0.426708 0.205028 0.681199
3262 2 0.0740468 0.329557 0.68091
893 4 0.0706799 0.32249 0.715225
892 2 0.0639977 0.33608 0.735121
3264 4 0.0806909 0.315246 0.700307
779 4 0.0793019 0.305657 0.717667
778 2 0.0964308 0.292237 0.729982
780 4 0.11356 0.278816 0.742298
1065 4 0.255319 0.327154 0.689166
1064 4 0.304803 0.324159 0.695723
1063 2 0.280061 0.325656 0.692445
946 2 0.32518 0.29278 0.714232
948 4 0.30555 0.306563 0.70717
947 4 0.344811 0.278997 0.721294
917 4 0.329837 0.266131 0.72471
1008 4 0.467951 0.283793 0.69181
1006 2 0.462491 0.271521 0.712899
1007 4 0.457031 0.259249 0.733989
941 4 0.140565 0.380449 0.707967
1067 4 0.145071 0.371086 0.691361
940 2 0.133669 0.377516 0.731821
1066 2 0.165174 0.381838 0.681093
884 4 0.0667356 0.452567 0.730443
1139 4 0.310481 0.463886 0.693858
1138 2 0.318741 0.45251 0.714535
1140 4 0.327001 0.441134 0.735212
1100 4 0.398595 0.441392 0.749023
1099 2 0.418064 0.452758 0.738209
1101 4 0.437533 0.464125 0.727395
3330 4 0.455306 0.465966 0.719154
3328 2 0.467346 0.453167 0.701366
1251 4 0.448058 0.479701 0.731459
3329 4 0.479386 0.440368 0.683578
1249 2 0.450571 0.50223 0.74201
834 4 0.0127171 0.0906853 0.807855
785 4 0.00254304 0.0768866 0.817792
2390 4 0.139226 0.00820426 0.784881
2048 4 0.158005 0.00133805 0.77787
2047 2 0.175075 0.0142341 0.764929
2049 4 0.192145 0.0271301 0.751987
2254 2 0.232041 0.0194417 0.7693
2256 4 0.209153 0.0247532 0.760749
2255 4 0.254928 0.0141302 0.777851
1113 4 0.356531 0.0470656 0.805404
1111 2 0.363559 0.0686395 0.815909
979 2 0.408629 0.021284 0.835073
2442 4 0.440242 0.00907163 0.817572
2321 4 0.43901 0.0250995 0.805709
2322 4 0.44009 0.0466633 0.760603
2320 2 0.43955 0.0358814 0.783156
846 4 0.440153 0.0661667 0.763481
980 4 0.424044 0.0194278 0.815474
832 2 0.0282998 0.109371 0.802092
862 2 0.0371321 0.144457 0.758887
863 4 0.0413687 0.142932 0.783482
833 4 0.0438824 0.128056 0.79633
1125 4 0.0585459 0.139468 0.790893
1123 2 0.0663431 0.145789 0.813793
1124 4 0.0741403 0.152109 0.836694
1257 4 0.243377 0.121062 0.749556
1255 2 0.240816 0.123373 0.77432
921 4 0.222586 0.137121 0.803288
919 2 0.206795 0.155145 0.810426
840 4 0.239015 0.137897 0.813816
1256 4 0.238255 0.125685 0.799085
838 2 0.25955 0.144142 0.826641
1112 4 0.370586 0.0902134 0.826414
818 4 0.38541 0.0968391 0.837352
817 2 0.386062 0.121393 0.832678
819 4 0.386715 0.145947 0.828004
1085 4 0.368542 0.152431 0.831984
844 2 0.444583 0.087608 0.751405
3270 4 0.486967 0.147377 0.769934
1146 4 0.483636 0.165438 0.776309
34 3 0.117597 0.178304 0.822198
1131 4 0.161854 0.218009 0.764443
822 4 0.162392 0.231991 0.77774
1277 4 0.171569 0.21466 0.781663
1276 2 0.180148 0.203196 0.80216
920 4 0.191004 0.173169 0.817564
1278 4 0.188727 0.191732 0.822658
918 4 0.334123 0.220094 0.74376
1298 4 0.321941 0.209256 0.754986
1297 2 0.338303 0.202897 0.772792
1299 4 0.354665 0.196539 0.790598
1086 4 0.346657 0.190881 0.808675
50 3 0.398305 0.205513 0.806821
1084 2 0.3576 0.171656 0.82033
1261 2 0.416568 0.185534 0.755357
46 1 0.420867 0.207182 0.804213
49 3 0.426168 0.227198 0.793742
1043 4 0.43692 0.214326 0.781701
48 3 0.431333 0.206044 0.824891
47 3 0.428293 0.189763 0.791152
1263 4 0.428758 0.19827 0.773087
1145 4 0.445098 0.196626 0.78285
1144 2 0.464367 0.181032 0.77958
1042 2 0.445845 0.231565 0.765941
1044 4 0.45477 0.248803 0.750181
820 2 0.164917 0.256078 0.783955
821 4 0.167443 0.280165 0.79017
1236 4 0.205797 0.333562 0.780198
1234 2 0.227746 0.332857 0.792152
1235 4 0.249695 0.332151 0.804107
1166 4 0.470556 0.260662 0.748379
1165 2 0.489838 0.263233 0.764088
894 4 0.0573156 0.349669 0.755016