ITEM: TIMESTEP
2310000
ITEM: NUMBER OF ATOMS
4590
ITEM: BOX BOUNDS pp pp pp
-9.9985700000000008e+00 9.9985700000000008e+00
-9.9985700000000008e+00 9.9985700000000008e+00
-9.9985700000000008e+00 9.9985700000000008e+00
ITEM: ATOMS id type xs ys zs
465 4 0.0726128 0.0641943 0.0358008
701 4 0.0780231 0.0476513 0.0242569
700 2 0.102527 0.0518791 0.0216337
702 4 0.12703 0.0561068 0.0190104
566 4 0.136413 0.071018 0.0300403
565 2 0.160471 0.0777929 0.0293291
567 4 0.184529 0.0845677 0.0286179
746 4 0.503348 0.0529378 0.00853266
2469 4 0.489923 0.0477297 0.023551
2467 2 0.493098 0.0253203 0.0341772
2468 4 0.496273 0.00291092 0.0448034
463 2 0.0652215 0.082413 0.0512484
464 4 0.0578303 0.100632 0.066696
590 4 0.0502804 0.11961 0.068358
589 2 0.0271051 0.113044 0.0750645
579 4 0.100508 0.12807 0.0744398
558 4 0.304851 0.11892 0.0702889
556 2 0.323618 0.10719 0.0819244
865 2 0.353172 0.157036 0.00122664
866 4 0.363263 0.136602 0.990941
769 2 0.482282 0.151676 0.0750537
771 4 0.481914 0.135099 0.0563383
554 4 0.0408391 0.201818 0.00425347
553 2 0.0586166 0.218242 0.0105309
555 4 0.0763941 0.234666 0.0168084
835 2 0.118057 0.217081 0.0136627
836 4 0.0948516 0.225551 0.0175292
837 4 0.141262 0.20861 0.00979624
738 4 0.171372 0.194311 0.082597
573 4 0.314488 0.241928 0.0590401
666 4 0.325225 0.225627 0.058735
461 4 0.329497 0.239143 0.0722172
664 2 0.330147 0.206713 0.0431392
665 4 0.33507 0.1878 0.0275434
867 4 0.343081 0.17747 0.0115124
770 4 0.48265 0.168252 0.0937691
1070 4 0.421482 0.223616 0.0578547
1069 2 0.437387 0.242892 0.058679
2808 4 0.0129166 0.317077 0.998421
2806 2 0.0028111 0.303119 0.0165378
294 4 0.109305 0.322497 0.0338506
292 2 0.134067 0.319325 0.0352398
293 4 0.15883 0.316153 0.036629
507 4 0.171346 0.330513 0.02986
356 4 0.29158 0.299488 0.034893
572 4 0.291969 0.285508 0.0493251
571 2 0.303228 0.263718 0.0541826
355 2 0.297434 0.320054 0.0219329
1071 4 0.453291 0.262167 0.0595033
324 4 0.456764 0.274043 0.0732805
322 2 0.449851 0.295948 0.0831573
647 4 0.0200584 0.362828 0.0805324
646 2 0.0450264 0.3615 0.0804106
620 4 0.00618747 0.366648 0.0659043
648 4 0.0699944 0.360173 0.0802888
505 2 0.187965 0.349138 0.0284013
506 4 0.204584 0.367762 0.0269425
483 4 0.210814 0.377253 0.010401
481 2 0.230287 0.387169 0.0225525
482 4 0.249759 0.397086 0.0347041
626 4 0.189099 0.402206 0.0860431
609 4 0.268751 0.402713 0.0297123
357 4 0.303288 0.340619 0.00897285
902 4 0.285236 0.351694 0.00771921
957 4 0.397292 0.393034 0.0268098
955 2 0.390476 0.376576 0.00926451
280 2 0.468592 0.408333 0.0658165
281 4 0.479613 0.39015 0.0789735
671 4 0.470819 0.375892 0.08861
1465 2 0.00448317 0.480507 0.0809268
1787 4 0.0935673 0.479261 0.07255
1786 2 0.09937 0.479592 0.0482313
1788 4 0.105173 0.479924 0.0239126
246 4 0.238852 0.478732 0.0355864
244 2 0.225504 0.467653 0.0535939
245 4 0.212157 0.456574 0.0716014
627 4 0.192373 0.450559 0.073717
625 2 0.190736 0.426382 0.07988
272 4 0.247293 0.492246 0.024326
1778 4 0.243419 0.495796 0.0436121
271 2 0.254644 0.475799 0.00698682
607 2 0.283366 0.42126 0.0379328
608 4 0.297981 0.439807 0.0461533
252 4 0.312806 0.432499 0.0330403
250 2 0.331629 0.437828 0.0174683
525 4 0.371504 0.494967 0.0796226
523 2 0.376589 0.473348 0.0681373
524 4 0.381674 0.451728 0.0566521
282 4 0.457571 0.426515 0.0526596
226 2 0.476573 0.467597 0.0577585
227 4 0.471421 0.443688 0.0525615
228 4 0.481726 0.491506 0.0629555
16 1 0.0641966 0.0622627 0.136823
20 3 0.0508883 0.0644345 0.118471
1806 4 0.0664145 0.0206851 0.141269
18 3 0.0721859 0.0405268 0.138282
19 3 0.052218 0.0676006 0.155965
17 3 0.0820566 0.0766418 0.134976
1804 2 0.0551421 0.00754491 0.123228
380 4 0.0338265 0.0748697 0.160034
673 2 0.124342 0.0646531 0.144621
675 4 0.100626 0.0689768 0.137988
450 4 0.166438 0.0576067 0.15002
674 4 0.148059 0.0603295 0.151254
1505 4 0.15614 0.0455546 0.161935
448 2 0.177454 0.0799776 0.148187
484 2 0.344295 0.0181378 0.136574
295 2 0.359535 0.0599035 0.102036
297 4 0.361364 0.0349726 0.102572
485 4 0.344851 0.0296854 0.114404
486 4 0.343739 0.00659017 0.158744
237 4 0.146112 0.144407 0.121653
578 4 0.131282 0.147898 0.108506
577 2 0.115895 0.137984 0.0914729
476 4 0.134758 0.16032 0.122749
737 4 0.147962 0.158149 0.107992
235 2 0.165924 0.133083 0.131872
692 4 0.250434 0.10133 0.154826
236 4 0.185737 0.121759 0.14209
693 4 0.203524 0.114056 0.143071
449 4 0.18847 0.102349 0.146354
691 2 0.226979 0.107693 0.148948
582 4 0.267416 0.0954578 0.160038
557 4 0.342385 0.0954594 0.0935598
296 4 0.357706 0.0848343 0.101499
475 2 0.121817 0.171429 0.141033
736 2 0.159667 0.17623 0.0952947
477 4 0.108876 0.182537 0.159317
283 2 0.321603 0.201092 0.142397
354 4 0.321802 0.239812 0.138373
285 4 0.317545 0.178482 0.152271
284 4 0.325661 0.223702 0.132523
462 4 0.328626 0.23747 0.122189
460 2 0.329061 0.238307 0.0972029
255 4 0.338578 0.235302 0.136412
253 2 0.360604 0.243626 0.144822
630 4 0.390794 0.242541 0.168612
254 4 0.382631 0.251949 0.153233
1014 4 0.48752 0.184617 0.0838982
1013 4 0.490902 0.226925 0.110342
1012 2 0.489211 0.205771 0.0971201
455 4 0.124544 0.327578 0.0813293
352 2 0.306959 0.253954 0.152686
353 4 0.292115 0.268096 0.166999
754 2 0.278038 0.297567 0.138444
755 4 0.283001 0.283406 0.158444
756 4 0.273076 0.311728 0.118443
612 4 0.265933 0.328622 0.113882
765 4 0.391556 0.262364 0.167328
323 4 0.442938 0.317853 0.0930341
528 4 0.488466 0.308963 0.173852
624 4 0.476153 0.324948 0.178188
456 4 0.0883846 0.3614 0.08835
454 2 0.106464 0.344489 0.0848397
537 4 0.208347 0.348103 0.0874616
611 4 0.220547 0.331774 0.0931233
610 2 0.24324 0.330198 0.103503
536 4 0.208375 0.398057 0.0851677
535 2 0.208361 0.37308 0.0863147
387 4 0.334606 0.405122 0.149234
741 4 0.402261 0.363468 0.108916
739 2 0.398292 0.372542 0.131874
740 4 0.394322 0.381616 0.154832
15 3 0.384112 0.368314 0.16545
385 2 0.356776 0.395983 0.156315
386 4 0.378946 0.386844 0.163397
495 4 0.396345 0.396197 0.167681
672 4 0.438999 0.337481 0.0850386
670 2 0.454909 0.356686 0.0868243
2651 4 0.489894 0.376359 0.0875187
551 4 0.0499173 0.432907 0.0996619
550 2 0.0659452 0.450084 0.0911038
552 4 0.081973 0.467261 0.0825457
242 4 0.0871978 0.484716 0.0899652
241 2 0.105994 0.489161 0.105844
1438 2 0.147828 0.497148 0.149718
243 4 0.12479 0.493606 0.121722
1439 4 0.171148 0.496967 0.158738
637 2 0.211519 0.481079 0.146664
638 4 0.231339 0.469821 0.136387
767 4 0.251986 0.47035 0.134099
639 4 0.191699 0.492337 0.156942
302 4 0.341933 0.422664 0.144065
303 4 0.320741 0.467739 0.139611
766 2 0.276772 0.472298 0.136753
768 4 0.301558 0.474245 0.139406
301 2 0.331337 0.445202 0.141838
493 2 0.403705 0.41975 0.163646
494 4 0.411065 0.443303 0.159612
660 4 0.413937 0.462526 0.166436
1504 2 0.167313 0.0270402 0.174487
1506 4 0.178487 0.00852583 0.187038
653 4 0.276275 0.0466238 0.167772
652 2 0.289668 0.0255189 0.167142
21 1 0.413084 0.0157743 0.214729
23 3 0.397927 0.0288952 0.203045
24 3 0.40468 0.0108011 0.235777
757 2 0.446635 0.0594151 0.210184
25 3 0.432955 0.0267283 0.216685
759 4 0.437279 0.0430383 0.226599
350 4 0.44139 0.0262571 0.234587
758 4 0.45599 0.0757918 0.193769
349 2 0.450191 0.021492 0.257501
379 2 0.0334331 0.0854775 0.182672
512 4 0.0204282 0.111592 0.209487
381 4 0.0330398 0.0960853 0.205311
511 2 0.0333819 0.132905 0.211269
513 4 0.0463355 0.154217 0.213052
580 2 0.280866 0.111984 0.173121
581 4 0.294316 0.128511 0.186204
30 3 0.288503 0.146958 0.188552
26 1 0.29676 0.167054 0.181724
29 3 0.301765 0.166275 0.15908
521 4 0.48201 0.131057 0.226908
339 4 0.0633833 0.166953 0.20902
337 2 0.0805405 0.172516 0.191704
363 4 0.106712 0.194877 0.17474
338 4 0.0976976 0.17808 0.174387
362 4 0.132559 0.228057 0.201789
361 2 0.119636 0.211467 0.188265
372 4 0.133638 0.247152 0.208955
723 4 0.225388 0.215217 0.242581
721 2 0.212228 0.196056 0.251793
27 3 0.316002 0.171714 0.193437
28 3 0.281235 0.183802 0.185834
628 2 0.397629 0.222798 0.182347
629 4 0.404464 0.203054 0.196082
312 4 0.414414 0.185565 0.194184
420 4 0.403693 0.217078 0.245445
311 4 0.461627 0.181055 0.17833
310 2 0.438021 0.18331 0.186257
761 4 0.502663 0.228802 0.258187
749 4 0.0776151 0.305582 0.173467
750 4 0.0558936 0.272938 0.204504
395 4 0.0443849 0.267029 0.218534
748 2 0.0667544 0.28926 0.188986
394 2 0.0335841 0.273678 0.240082
370 2 0.123244 0.252184 0.231131
300 4 0.146265 0.319976 0.193754
371 4 0.112849 0.257216 0.253308
298 2 0.128818 0.328819 0.209329
279 4 0.235269 0.246734 0.184731
277 2 0.254803 0.256378 0.17246
278 4 0.274337 0.266022 0.160189
307 2 0.307218 0.309652 0.203355
308 4 0.296142 0.314605 0.225217
497 4 0.295812 0.318008 0.245208
309 4 0.318294 0.3047 0.181492
763 2 0.409956 0.275729 0.177721
764 4 0.428355 0.289095 0.188113
623 4 0.432262 0.301534 0.173089
622 2 0.454208 0.313241 0.175639
262 2 0.0287089 0.3888 0.23473
601 2 0.0741236 0.352849 0.239483
264 4 0.0221366 0.411849 0.227607
299 4 0.111371 0.337661 0.224904
603 4 0.0946724 0.33965 0.234124
734 4 0.111259 0.337723 0.244642
291 4 0.193231 0.399947 0.22333
290 4 0.184564 0.367127 0.186609
289 2 0.188898 0.383537 0.204969
416 4 0.192031 0.417285 0.215258
14 3 0.405556 0.391311 0.186161
11 1 0.395057 0.370637 0.185286
13 3 0.380069 0.368612 0.202883
12 3 0.410972 0.354131 0.187136
2618 4 0.00195657 0.416814 0.231198
415 2 0.193039 0.442119 0.212532
1430 4 0.191721 0.485725 0.203234
417 4 0.194048 0.466953 0.209806
713 4 0.362733 0.488765 0.21818
596 4 0.463254 0.502363 0.186026
658 2 0.429477 0.479272 0.176598
659 4 0.445017 0.496018 0.18676
595 2 0.479571 0.490479 0.200781
597 4 0.495888 0.478595 0.215537
232 2 0.00539203 0.0501279 0.307391
1799 4 0.0250427 0.0117277 0.312681
233 4 0.018959 0.0291729 0.305975
1402 2 0.0589909 0.0271979 0.312842
1403 4 0.0366095 0.0235081 0.302323
1404 4 0.0813723 0.0308878 0.32336
633 4 0.377419 0.060467 0.298606
631 2 0.374145 0.0731833 0.277328
257 4 0.381116 0.0529991 0.316255
698 4 0.372845 0.0419637 0.301777
697 2 0.366294 0.0191587 0.309664
632 4 0.370871 0.0858996 0.25605
744 4 0.475869 0.0171611 0.290468
742 2 0.488363 0.0285946 0.308862
351 4 0.458991 0.0167268 0.280414
399 4 0.041463 0.104938 0.329968
397 2 0.0538588 0.119643 0.31399
390 4 0.0649578 0.153118 0.291875
398 4 0.0662545 0.134348 0.298012
393 4 0.0822933 0.146231 0.298933
545 4 0.145283 0.146428 0.266619
392 4 0.127943 0.148817 0.278682
391 2 0.105118 0.147524 0.288807
544 2 0.165785 0.160065 0.270964
546 4 0.186287 0.173702 0.275309
444 4 0.0406245 0.244346 0.315046
388 2 0.0615582 0.177839 0.29345
389 4 0.0581586 0.202561 0.295025
404 4 0.216376 0.169318 0.327118
403 2 0.211109 0.170659 0.302712
405 4 0.205843 0.172001 0.278306
722 4 0.199068 0.176896 0.261005
344 4 0.282485 0.255492 0.325906
717 4 0.396875 0.231271 0.258789
715 2 0.388166 0.249957 0.272939
331 2 0.452547 0.19658 0.307237
332 4 0.457067 0.193645 0.282821
418 2 0.4248 0.209196 0.256289
419 4 0.445906 0.201314 0.267133
760 2 0.48094 0.219898 0.266791
762 4 0.459217 0.210995 0.275396
364 2 0.00946815 0.306677 0.2913
442 2 0.0301966 0.25703 0.29619
396 4 0.0227834 0.280327 0.26163
443 4 0.0197687 0.269714 0.277334
365 4 0.0108034 0.287391 0.275443
677 4 0.14155 0.314572 0.296154
676 2 0.1588 0.320566 0.313232
733 2 0.121917 0.334367 0.26701
735 4 0.132574 0.331012 0.289378
401 4 0.229891 0.29496 0.25244
510 4 0.236156 0.301158 0.312681
508 2 0.215317 0.31075 0.322627
400 2 0.23831 0.292935 0.275896
402 4 0.246729 0.290911 0.299352
509 4 0.194479 0.320342 0.332573
345 4 0.241501 0.282451 0.316196
678 4 0.17605 0.326559 0.330311
343 2 0.261993 0.268972 0.321051
496 2 0.276528 0.330671 0.25485
716 4 0.379457 0.268642 0.287088
542 4 0.378641 0.287203 0.295031
541 2 0.389639 0.307712 0.304174
543 4 0.400637 0.328221 0.313318
614 4 0.454489 0.327459 0.331541
263 4 0.0352813 0.365751 0.241852
602 4 0.0535749 0.366049 0.244841
366 4 0.00813291 0.325963 0.307157
548 4 0.01537 0.343479 0.312103
547 2 0.0315942 0.361653 0.306476
549 4 0.0478184 0.379827 0.300848
777 4 0.0536963 0.399825 0.303604
407 4 0.00831609 0.331582 0.326252
775 2 0.0674551 0.416359 0.316352
498 4 0.257244 0.343333 0.264493
615 4 0.405167 0.335709 0.331356
728 4 0.381409 0.368872 0.290134
727 2 0.371877 0.391616 0.294259
729 4 0.362344 0.41436 0.298385
2538 4 0.473081 0.35144 0.279445
2536 2 0.488012 0.367929 0.268027
753 4 0.487103 0.351458 0.295374
751 2 0.496111 0.337871 0.314333
613 2 0.429828 0.331584 0.331449
776 4 0.0812139 0.432893 0.329099
1543 2 0.169528 0.485148 0.327494
1545 4 0.194318 0.483358 0.324769
1436 4 0.212416 0.487769 0.31667
436 2 0.377252 0.449478 0.319637
437 4 0.363243 0.432214 0.308196
438 4 0.39126 0.466742 0.331077
2861 4 0.476862 0.444426 0.273494
2860 2 0.489824 0.423898 0.267514
1771 2 0.007715 0.00879313 0.386668
1772 4 0.0159459 0.0228038 0.405671
2238 4 0.0197599 0.0402021 0.395266
2236 2 0.0232948 0.0549753 0.415126
369 4 0.0800797 0.0529643 0.376666
732 4 0.0791862 0.0717397 0.372217
367 2 0.0849066 0.0497049 0.400982
606 4 0.121891 0.056993 0.398752
604 2 0.146124 0.061505 0.394559
605 4 0.170357 0.066017 0.390367
1701 4 0.188 0.0758824 0.391114
256 2 0.385354 0.0628083 0.33886
258 4 0.389592 0.0726174 0.361466
426 4 0.377808 0.0754408 0.37877
424 2 0.377958 0.0633031 0.400629
479 4 0.502709 0.0528484 0.342385
478 2 0.489457 0.070875 0.353548
458 4 0.0101095 0.163034 0.36644
317 4 0.0337313 0.104092 0.347996
731 4 0.0533455 0.10525 0.34557
730 2 0.0662659 0.0884948 0.358893
318 4 0.0143298 0.143647 0.371654
316 2 0.0240306 0.123869 0.359825
247 2 0.203002 0.139568 0.352202
248 4 0.199533 0.11636 0.360834
1699 2 0.191749 0.0885206 0.369868
1700 4 0.195497 0.101159 0.348622
249 4 0.206471 0.162776 0.343569
683 4 0.235534 0.1403 0.414213
319 2 0.309739 0.117817 0.397145
320 4 0.290958 0.110974 0.412166
706 2 0.31977 0.160565 0.359914
321 4 0.32852 0.12466 0.382125
708 4 0.318835 0.137323 0.369085
480 4 0.476205 0.0889016 0.364711
516 4 0.456633 0.148003 0.37346
575 4 0.441202 0.135211 0.376814
574 2 0.455829 0.125275 0.394492
514 2 0.449798 0.167789 0.359786
576 4 0.470457 0.115339 0.412169
2653 2 0.996299 0.239049 0.378043
2654 4 0.0102636 0.218489 0.375316
459 4 0.0156421 0.211834 0.357023
457 2 0.0128758 0.187434 0.361731
378 4 0.286791 0.240031 0.336884
376 2 0.297323 0.217398 0.338301
377 4 0.307855 0.194765 0.339717
707 4 0.320705 0.183807 0.350744
474 4 0.255076 0.237018 0.415884
488 4 0.270762 0.244581 0.426308
267 4 0.38069 0.251945 0.408685
468 4 0.38442 0.232977 0.414455
333 4 0.448027 0.199515 0.331652
515 4 0.442964 0.187575 0.346111
453 4 0.458374 0.199862 0.348549
451 2 0.47765 0.214845 0.353947
406 2 0.0202033 0.326299 0.347606
408 4 0.0320905 0.321017 0.368959
275 4 0.139933 0.310798 0.350589
617 4 0.128738 0.32684 0.349024
616 2 0.104985 0.329316 0.356429
274 2 0.151463 0.304984 0.372001
276 4 0.162992 0.29917 0.393412
347 4 0.0765308 0.340942 0.380894
473 4 0.231461 0.260704 0.378708
374 4 0.221629 0.274326 0.367653
373 2 0.201352 0.283139 0.37933
375 4 0.181075 0.291953 0.391006
472 2 0.243268 0.248861 0.397296
265 2 0.370023 0.274514 0.410114
266 4 0.359356 0.297083 0.411542
346 2 0.064549 0.350459 0.400668
618 4 0.0812317 0.331792 0.363834
435 4 0.188977 0.339332 0.33431
433 2 0.189958 0.363239 0.341568
434 4 0.19094 0.387145 0.348826
502 2 0.288126 0.412222 0.41158
334 2 0.350753 0.41457 0.3897
335 4 0.374546 0.409101 0.384301
240 4 0.392701 0.414061 0.391673
412 2 0.111136 0.465011 0.328509
413 4 0.125253 0.485305 0.332253
414 4 0.0970192 0.444716 0.324766
1544 4 0.144738 0.486938 0.33022
668 4 0.314416 0.48049 0.424414
503 4 0.308107 0.421587 0.399822
336 4 0.32696 0.42004 0.3951
669 4 0.319905 0.436783 0.400743
667 2 0.31716 0.458636 0.412579
238 2 0.397251 0.423308 0.414454
594 4 0.447938 0.479016 0.363887
592 2 0.430528 0.493875 0.37395
3990 4 0.48517 0.492641 0.368546
1127 4 0.0165468 0.0765563 0.450474
2237 4 0.0268296 0.0697485 0.434987
720 4 0.0309428 0.0872717 0.443599
1780 2 0.0820122 0.0122255 0.448188
368 4 0.0897334 0.0464456 0.425298
1782 4 0.0882246 0.0357774 0.442541
724 2 0.299439 0.042645 0.481179
726 4 0.310766 0.0628879 0.471846
725 4 0.288112 0.0224021 0.490511
1182 4 0.2984 0.0778763 0.464427
432 4 0.299471 0.00805629 0.497411
425 4 0.378108 0.0511653 0.422489
1579 2 0.37534 0.0149495 0.431301
1580 4 0.387706 0.0364699 0.434321
642 4 0.453159 0.0625631 0.452982
2878 2 0.435783 0.0526546 0.493006
2880 4 0.449928 0.0561194 0.472682
640 2 0.461481 0.0808894 0.438147
718 2 0.0521118 0.0837875 0.456441
719 4 0.0732809 0.0803033 0.469283
1033 2 0.128015 0.133613 0.482513
1035 4 0.149667 0.13484 0.470068
261 4 0.152715 0.147023 0.45452
1034 4 0.106364 0.132386 0.494958
600 4 0.242435 0.154758 0.424324
684 4 0.273416 0.108511 0.421637
682 2 0.254475 0.124406 0.417925
1180 2 0.293868 0.0960506 0.447864
1181 4 0.289335 0.114225 0.431301
641 4 0.469802 0.0992158 0.423312
306 4 0.47412 0.116643 0.431324
304 2 0.470168 0.135945 0.446719
3158 4 0.471592 0.166777 0.476739
305 4 0.466215 0.155247 0.462113
3157 2 0.483646 0.157968 0.496796
259 2 0.162355 0.169933 0.451804
694 2 0.149343 0.216477 0.47503
695 4 0.158088 0.205788 0.454187
260 4 0.171995 0.192843 0.449088
696 4 0.140598 0.227166 0.495873
598 2 0.240989 0.175933 0.437542
599 4 0.239544 0.197108 0.45076
687 4 0.223992 0.208703 0.449476
686 4 0.174279 0.211676 0.444942
685 2 0.199136 0.210189 0.447209
411 4 0.232885 0.205899 0.467165
409 2 0.248741 0.216011 0.483644
489 4 0.301864 0.20713 0.437744
487 2 0.286313 0.225856 0.432026
466 2 0.372927 0.216024 0.428797
467 4 0.361433 0.199072 0.44314
813 4 0.228509 0.286009 0.507229
584 4 0.49325 0.294882 0.486997
2456 4 0.50717 0.30681 0.482142
583 2 0.487431 0.272376 0.496205
348 4 0.0525672 0.359976 0.420443
2812 2 0.0207278 0.342029 0.433403
2813 4 0.0453808 0.345272 0.430778
326 4 0.0518577 0.36152 0.440387
325 2 0.0669095 0.372054 0.457348
327 4 0.0819613 0.382588 0.474308
10 3 0.133143 0.360489 0.468672
7 3 0.0998087 0.375247 0.476666
6 1 0.12114 0.371647 0.484485
711 4 0.145866 0.406178 0.485389
8 3 0.131054 0.392147 0.488946
709 2 0.170294 0.409623 0.481314
774 4 0.211851 0.405682 0.481379
635 4 0.209839 0.420157 0.467668
710 4 0.194721 0.413069 0.47724
504 4 0.268145 0.402857 0.423337
1383 4 0.056026 0.485622 0.473074
680 4 0.0615672 0.476012 0.489878
679 2 0.0770123 0.462966 0.50459
569 4 0.152211 0.439074 0.502067
568 2 0.166798 0.459263 0.504257
636 4 0.213577 0.422904 0.417876
634 2 0.211708 0.421531 0.442772
4 3 0.30938 0.486507 0.442652
586 2 0.396015 0.428618 0.471125
239 4 0.401801 0.432555 0.437235
588 4 0.387483 0.439328 0.450204
587 4 0.404547 0.417907 0.492046
1184 4 0.995971 0.0115816 0.550121
1183 2 0.0138114 0.00195066 0.564755
1150 2 0.146092 0.0694342 0.547873
342 4 0.137938 0.0446647 0.5197
1152 4 0.130525 0.0602771 0.530581
340 2 0.149571 0.0232083 0.514271
1151 4 0.16166 0.0785913 0.565164
341 4 0.161204 0.00175177 0.508842
841 2 0.35099 0.0137087 0.551659
842 4 0.361686 0.0290851 0.568222
1216 2 0.400208 0.0293025 0.57697
1217 4 0.378929 0.0413067 0.571652
2879 4 0.421637 0.0491897 0.51333
3009 4 0.480151 0.0566586 0.579585
879 4 0.0596026 0.155702 0.553246
877 2 0.0375075 0.144496 0.556623
878 4 0.0154124 0.133289 0.56
938 4 0.0745013 0.150791 0.540981
1272 4 0.0784437 0.158236 0.558845
937 2 0.0820786 0.147808 0.517341
939 4 0.0896559 0.144826 0.493701
1155 4 0.163963 0.0844941 0.583558
1270 2 0.0797719 0.179904 0.57125
470 4 0.997308 0.162583 0.497762
1258 2 0.124934 0.220103 0.525796
1260 4 0.141886 0.234603 0.514501
1259 4 0.107982 0.205604 0.53709
898 2 0.287649 0.203323 0.530198
899 4 0.305525 0.193616 0.544739
900 4 0.269774 0.21303 0.515658
791 4 0.321881 0.202583 0.55219
857 4 0.3091 0.193756 0.563958
790 2 0.333432 0.224726 0.553393
410 4 0.264596 0.226123 0.500122
792 4 0.344982 0.246869 0.554596
585 4 0.481613 0.24987 0.505414
811 2 0.245708 0.302948 0.513744
812 4 0.262908 0.319887 0.520259
650 4 0.268541 0.324279 0.538653
649 2 0.267055 0.318164 0.562851
651 4 0.265569 0.312049 0.58705
871 2 0.365844 0.265764 0.533823
872 4 0.352139 0.264928 0.554719
1238 4 0.341872 0.258316 0.57
873 4 0.379549 0.266599 0.512927
992 4 0.0831487 0.403582 0.585231
1135 2 0.121943 0.408213 0.562265
897 4 0.15307 0.386994 0.583836
1137 4 0.141448 0.393161 0.56653
9 3 0.119975 0.359017 0.503915
773 4 0.244656 0.395647 0.517763
1189 2 0.226318 0.406196 0.555686
772 2 0.228254 0.400664 0.499571
895 2 0.174394 0.400044 0.583454
1190 4 0.239269 0.397046 0.536355
803 4 0.255553 0.387162 0.531573
804 4 0.259156 0.337448 0.527545
802 2 0.257355 0.362305 0.529559
930 4 0.255033 0.406431 0.529455
928 2 0.276975 0.418119 0.532121
926 4 0.407817 0.402487 0.503667
925 2 0.413323 0.383258 0.518671
927 4 0.418828 0.36403 0.533676
1136 4 0.102438 0.423265 0.558001
382 2 0.122392 0.428227 0.503198
383 4 0.100754 0.431319 0.51534
681 4 0.0924575 0.449921 0.519301
384 4 0.144029 0.425135 0.491056
1191 4 0.213366 0.415347 0.575018
1160 4 0.199749 0.495602 0.590493
570 4 0.181386 0.479452 0.506447
929 4 0.298917 0.429807 0.534786
1952 4 0.310377 0.490331 0.53178
881 4 0.311723 0.498287 0.514399
1951 2 0.308873 0.46634 0.538659
1953 4 0.307369 0.442348 0.545538
663 4 0.407443 0.421276 0.510203
1000 2 0.408405 0.490379 0.555821
661 2 0.417135 0.440395 0.523077
1001 4 0.426815 0.476143 0.54668
662 4 0.426828 0.459513 0.53595
1911 4 0.437727 0.460201 0.551335
1332 4 0.442471 0.471119 0.536238
1330 2 0.462522 0.485776 0.533357
1909 2 0.436878 0.448233 0.573272
1059 4 0.172757 0.0680648 0.578013
1058 4 0.19218 0.0335325 0.608525
1057 2 0.182468 0.0507987 0.593269
2375 4 0.186989 0.0146206 0.598375
950 4 0.262364 0.00932523 0.664472
949 2 0.272008 0.029101 0.652593
951 4 0.281651 0.0488767 0.640715
1031 4 0.298737 0.0581091 0.64563
1030 2 0.307851 0.0807426 0.651091
1218 4 0.421487 0.0172984 0.582288
1005 4 0.346922 0.0508406 0.672025
3007 2 0.495998 0.0681199 0.595163
43 3 0.433124 0.0760872 0.650457
808 2 0.491928 0.0825828 0.65015
41 1 0.442682 0.0645181 0.668155
810 4 0.479863 0.0839121 0.67201
1221 4 0.17394 0.136637 0.624603
1153 2 0.162848 0.104111 0.599022
1154 4 0.161734 0.123728 0.614485
1219 2 0.187395 0.157711 0.624489
1032 4 0.316966 0.103376 0.656552
42 3 0.429984 0.0679752 0.687022
1244 4 0.0797105 0.204017 0.602717
1209 4 0.0951287 0.199209 0.652961
1245 4 0.0987675 0.218811 0.64652
1271 4 0.0811001 0.201573 0.583656
1243 2 0.089239 0.211414 0.624618
1210 2 0.232542 0.186424 0.641889
1212 4 0.214205 0.19327 0.62633
1220 4 0.200851 0.178785 0.624376
797 4 0.184084 0.241395 0.61714
796 2 0.190259 0.218592 0.625328
798 4 0.196434 0.195788 0.633516
856 2 0.31182 0.187771 0.588082
858 4 0.31454 0.181786 0.612206
1211 4 0.250879 0.179578 0.657447
888 4 0.266403 0.180782 0.668287
1193 4 0.403426 0.220932 0.663795
3121 2 0.482688 0.223358 0.613938
3122 4 0.497169 0.206622 0.625574
3357 4 0.488053 0.195711 0.639016
3123 4 0.468208 0.240094 0.602301
983 4 0.0489168 0.285585 0.607847
982 2 0.0516572 0.301942 0.626559
984 4 0.0543975 0.3183 0.64527
3263 4 0.0478522 0.328955 0.660145
805 2 0.298677 0.296734 0.610178
806 4 0.28073 0.310601 0.599651
807 4 0.316623 0.282867 0.620704
1239 4 0.330754 0.26898 0.617575
1237 2 0.336313 0.263648 0.593788
906 4 0.465885 0.300847 0.612709
905 4 0.469894 0.256154 0.590637
904 2 0.46789 0.278501 0.601673
952 2 0.493937 0.331949 0.593743
953 4 0.479777 0.312653 0.60098
1041 4 0.0649728 0.333359 0.652177
1039 2 0.0629954 0.354842 0.639539
1040 4 0.0610181 0.376326 0.6269
993 4 0.0493812 0.376345 0.610103
991 2 0.0662649 0.389964 0.597667
896 4 0.195718 0.413094 0.583073
1068 4 0.186548 0.3908 0.665987
1028 4 0.205354 0.391498 0.661402
3309 4 0.504282 0.408896 0.619716
1206 4 0.485308 0.412266 0.623011
1172 4 0.203567 0.431007 0.582181
1027 2 0.222297 0.408977 0.655693
1171 2 0.203452 0.45455 0.590603
1029 4 0.239241 0.426456 0.649984
1173 4 0.203337 0.478092 0.599025
1187 4 0.208763 0.494253 0.607809
1186 2 0.196758 0.495863 0.629683
1175 4 0.179379 0.48208 0.664174
1188 4 0.184753 0.497474 0.651557
2168 4 0.425848 0.480869 0.657818
1268 4 0.41073 0.471314 0.649253
1267 2 0.421104 0.457631 0.631078
1204 2 0.461871 0.41895 0.617424
1910 4 0.436029 0.436264 0.595209
1269 4 0.431479 0.443949 0.612904
1205 4 0.438434 0.425635 0.611838
1284 4 0.103543 0.0535303 0.681422
1282 2 0.111493 0.0754259 0.690509
2049 4 0.165563 0.0145226 0.734272
1201 2 0.179716 0.0424312 0.724979
2256 4 0.178936 0.000822521 0.732832
1202 4 0.180946 0.0174844 0.723828
1203 4 0.178486 0.0673779 0.726131
1003 2 0.346486 0.0258414 0.671845
1004 4 0.34605 0.000842322 0.671664
1164 4 0.507086 0.0535651 0.719333
45 3 0.443248 0.0422379 0.663473
1162 2 0.490495 0.0635487 0.703514
1163 4 0.473903 0.0735322 0.687696
44 3 0.464179 0.072339 0.672044
1077 4 0.0271966 0.107414 0.736948
1075 2 0.0110322 0.100813 0.719051
850 2 0.0626914 0.172115 0.723858
1076 4 0.994868 0.0942117 0.701153
852 4 0.0419322 0.170802 0.737733
851 4 0.0834507 0.173429 0.709983
909 4 0.0971876 0.159569 0.710421
907 2 0.105788 0.136093 0.71072
908 4 0.114388 0.112617 0.711019
1283 4 0.119442 0.0973215 0.699596
1227 4 0.13105 0.102374 0.714176
1225 2 0.153499 0.0944614 0.721832
1226 4 0.175948 0.0865485 0.729488
829 2 0.325307 0.145826 0.71123
830 4 0.303983 0.158289 0.707338
887 4 0.285252 0.159681 0.70952
831 4 0.346631 0.133364 0.715122
1142 4 0.364393 0.144354 0.712268
1141 2 0.382144 0.161752 0.714987
1025 4 0.45666 0.153823 0.694447
3424 2 0.464509 0.112838 0.68999
3426 4 0.463987 0.0888167 0.683069
3425 4 0.46503 0.136859 0.69691
3269 4 0.472711 0.152255 0.706333
3268 2 0.482305 0.159534 0.728245
845 4 0.437549 0.10179 0.737756
1213 2 0.0115858 0.186635 0.734185
1214 4 0.0233983 0.165363 0.739944
780 4 0.086322 0.250525 0.72758
1208 4 0.0957303 0.171888 0.694841
1207 2 0.0954295 0.185549 0.673901
1107 4 0.102242 0.17824 0.712119
1105 2 0.121465 0.190671 0.722174
1106 4 0.140688 0.203103 0.732229
1130 4 0.142734 0.218636 0.74378
886 2 0.275827 0.170231 0.688904
978 4 0.295813 0.168448 0.722567
976 2 0.296234 0.189346 0.736288
1194 4 0.398174 0.18672 0.699886
1192 2 0.4008 0.203826 0.681841
1143 4 0.399894 0.17915 0.717706
1262 4 0.40867 0.196276 0.713471
1024 2 0.435918 0.166543 0.700206
1026 4 0.415176 0.179262 0.705965
1261 2 0.417823 0.204238 0.735334
3270 4 0.491899 0.166813 0.750158
3262 2 0.053284 0.317499 0.681696
3264 4 0.0587159 0.306043 0.703246
779 4 0.0659233 0.295122 0.717796
893 4 0.0710349 0.314384 0.716522
892 2 0.0669442 0.329546 0.735979
778 2 0.0761227 0.272823 0.722688
1065 4 0.21587 0.306748 0.715969
1063 2 0.235817 0.295232 0.706239
947 4 0.303086 0.267971 0.723011
946 2 0.288214 0.278662 0.70599
948 4 0.273341 0.289353 0.68897
1064 4 0.255764 0.283715 0.696509
1008 4 0.434171 0.287645 0.715305
1006 2 0.436563 0.283132 0.739781
894 4 0.0628535 0.344707 0.755436
1067 4 0.16827 0.375671 0.710007
940 2 0.135767 0.389772 0.73663
941 4 0.151598 0.380612 0.719582
1066 2 0.177409 0.383235 0.687997
1176 4 0.187281 0.439881 0.689817
1174 2 0.18333 0.46098 0.676996
1139 4 0.290525 0.478073 0.705341
1138 2 0.303433 0.464609 0.721991
1140 4 0.316342 0.451144 0.738642
1100 4 0.39505 0.436871 0.739572
1228 2 0.353195 0.44419 0.747217
1229 4 0.330362 0.453083 0.752192
1230 4 0.376028 0.435297 0.742243
1101 4 0.444252 0.44482 0.735485
1099 2 0.419651 0.440845 0.737528
3330 4 0.458172 0.457725 0.738967
3328 2 0.473356 0.450014 0.72066
3329 4 0.488541 0.442303 0.702352
2047 2 0.147441 0.00750228 0.750004
2048 4 0.129319 0.000481985 0.765735
1148 4 0.186664 0.0763108 0.741968
1113 4 0.364879 0.0733242 0.823658
2321 4 0.454497 0.00535692 0.804237
2322 4 0.453063 0.0507595 0.783326
2320 2 0.45378 0.0280582 0.793782
846 4 0.448635 0.0685174 0.773404
844 2 0.443092 0.0851536 0.75558
980 4 0.446502 0.994064 0.81711
864 4 0.0428979 0.112283 0.747649
862 2 0.0518213 0.116499 0.770622
863 4 0.0607447 0.120715 0.793595
833 4 0.0671774 0.118131 0.811732
1125 4 0.0594288 0.135484 0.806027
1123 2 0.0680089 0.155989 0.817477
832 2 0.054083 0.101858 0.825477
911 4 0.0994509 0.104356 0.829319
910 2 0.112686 0.123234 0.838996
1147 2 0.202735 0.0874278 0.757566
1149 4 0.218806 0.0985448 0.773165
1257 4 0.226318 0.11405 0.763561
1255 2 0.235205 0.123346 0.785004
921 4 0.22483 0.138355 0.810789
919 2 0.206235 0.152716 0.819343
1256 4 0.244091 0.132641 0.806447
840 4 0.237003 0.134217 0.824018
1111 2 0.375616 0.0935579 0.833682
818 4 0.380758 0.131853 0.839913
3188 4 0.00720322 0.242032 0.789168
3187 2 0.0311942 0.241706 0.796204
34 3 0.132646 0.18343 0.831234
1129 2 0.151032 0.225494 0.766348
1131 4 0.159331 0.232352 0.788915
920 4 0.187641 0.167077 0.827896
822 4 0.166445 0.245121 0.801968
1277 4 0.167808 0.226257 0.8057
1276 2 0.173384 0.205316 0.818172
1278 4 0.17896 0.184374 0.830643
916 2 0.302436 0.242757 0.754604
977 4 0.296655 0.210244 0.75001
918 4 0.299214 0.220656 0.765844
1298 4 0.301796 0.20171 0.766158
1297 2 0.304515 0.197248 0.790609
1299 4 0.307235 0.192786 0.815061
50 3 0.395023 0.213588 0.776144
46 1 0.413719 0.215471 0.789012
49 3 0.415058 0.236842 0.797951
48 3 0.413197 0.199763 0.806081
47 3 0.432296 0.211683 0.775984
1263 4 0.426976 0.2122 0.757198
1146 4 0.483075 0.179319 0.761622
1145 4 0.445808 0.212626 0.763206
1144 2 0.464442 0.195972 0.762414
1022 4 0.423432 0.188634 0.819307
1043 4 0.412199 0.255037 0.805676
1021 2 0.439843 0.200168 0.834235
3189 4 0.0551851 0.241381 0.80324
3275 4 0.0152609 0.328848 0.787622
821 4 0.1649 0.293884 0.790989
820 2 0.165673 0.269502 0.796479
1096 2 0.243647 0.313403 0.833389
1235 4 0.241642 0.327534 0.797544
917 4 0.305658 0.264858 0.743363
1042 2 0.429403 0.268551 0.79357
1044 4 0.446608 0.282065 0.781463
1007 4 0.438956 0.278618 0.764257
1165 2 0.479913 0.274755 0.772899
1166 4 0.457882 0.284357 0.765999
3276 4 0.0549346 0.354258 0.770858
3274 2 0.0350978 0.341553 0.77924
816 4 0.0738673 0.355168 0.767599
814 2 0.0886776 0.375162 0.765136
942 4 0.119935 0.398932 0.753678
815 4 0.103488 0.395156 0.762672
1098 4 0.235187 0.329696 0.816414
1234 2 0.227962 0.346795 0.789357
1080 4 0.176133 0.366794 0.78903
1078 2 0.180569 0.386419 0.803874
1236 4 0.214281 0.366056 0.781169
1079 4 0.185004 0.406045 0.818718
1018 2 0.393449 0.409137 0.771409
1020 4 0.398951 0.390219 0.786805