ITEM: TIMESTEP
1050000
ITEM: NUMBER OF ATOMS
4590
ITEM: BOX BOUNDS pp pp pp
-9.9985700000000008e+00 9.9985700000000008e+00
-9.9985700000000008e+00 9.9985700000000008e+00
-9.9985700000000008e+00 9.9985700000000008e+00
ITEM: ATOMS id type xs ys zs
464 4 0.0123456 0.0668887 0.0256584
463 2 0.0373083 0.0655313 0.0261073
700 2 0.0809405 0.0789889 0.0570118
2576 4 0.00852979 0.0469889 0.0828011
567 4 0.16179 0.0646589 0.0941138
565 2 0.139418 0.073465 0.0872515
702 4 0.0992962 0.0779196 0.073956
491 4 0.273283 0.0171439 0.0267888
2264 4 0.286802 0.0261786 0.0158163
490 2 0.274747 0.998172 0.0430091
558 4 0.346798 0.0841686 0.0587738
556 2 0.358389 0.06497 0.06983
557 4 0.36998 0.0457713 0.0808862
745 2 0.470067 0.0521989 0.00973061
746 4 0.476229 0.0516281 0.0339563
2469 4 0.491583 0.0385506 0.0300399
701 4 0.0625849 0.0800582 0.0400676
465 4 0.0622709 0.064174 0.0265562
589 2 0.0105623 0.13231 0.0747701
590 4 0.0279837 0.130093 0.0569724
554 4 0.0575216 0.173147 0.0317211
566 4 0.117045 0.0822711 0.0803891
422 4 0.138339 0.144466 0.0167192
553 2 0.0576059 0.19783 0.0277312
836 4 0.0760373 0.229093 0.0181965
555 4 0.0576903 0.222513 0.0237413
835 2 0.0983115 0.240444 0.0186356
915 4 0.130835 0.24166 0.00399006
666 4 0.309429 0.211808 0.0325109
664 2 0.315791 0.208453 0.0085641
573 4 0.310399 0.229583 0.0387053
461 4 0.32469 0.217707 0.0436057
460 2 0.326751 0.210715 0.0675229
770 4 0.444772 0.172468 0.07748
1070 4 0.427865 0.225756 0.0173388
1012 2 0.487577 0.205694 0.0672691
1014 4 0.467538 0.198774 0.0805252
1069 2 0.422823 0.233981 0.0404063
1071 4 0.41778 0.242205 0.0634738
837 4 0.120586 0.251796 0.0190748
292 2 0.115615 0.295046 0.0709675
294 4 0.0911234 0.299494 0.068612
507 4 0.14598 0.305106 0.0618067
293 4 0.140107 0.290597 0.073323
505 2 0.170678 0.302448 0.0589507
481 2 0.21767 0.334838 0.071705
506 4 0.195375 0.299789 0.0560948
483 4 0.203687 0.318087 0.0594954
355 2 0.288446 0.311905 0.0155764
571 2 0.303828 0.253707 0.0388722
356 4 0.30048 0.291205 0.0227777
572 4 0.297256 0.277831 0.0390392
357 4 0.276412 0.332605 0.00837521
957 4 0.372965 0.318078 0.0217065
955 2 0.370597 0.320205 0.996906
324 4 0.423609 0.260647 0.057757
322 2 0.43517 0.280801 0.0669938
672 4 0.437981 0.317185 0.0667018
323 4 0.446732 0.300955 0.0762307
620 4 0.0166247 0.351759 0.0706528
647 4 0.0260953 0.333488 0.0684275
455 4 0.117989 0.366023 0.0731818
482 4 0.231652 0.351589 0.0839147
609 4 0.245386 0.35809 0.0712713
252 4 0.280212 0.392994 0.037971
608 4 0.274694 0.375318 0.0345981
607 2 0.26004 0.366704 0.0529347
250 2 0.293606 0.41353 0.0330672
741 4 0.385079 0.349778 0.0764997
670 2 0.458108 0.331979 0.0655984
671 4 0.478235 0.346774 0.064495
281 4 0.486285 0.363109 0.0706945
280 2 0.478534 0.386456 0.0662202
2651 4 0.485085 0.347394 0.0828246
282 4 0.470783 0.409803 0.061746
551 4 0.0709247 0.443008 0.0727188
550 2 0.0862922 0.462681 0.0712984
552 4 0.10166 0.482353 0.069878
1787 4 0.109929 0.497745 0.0602414
242 4 0.111357 0.496212 0.0791289
241 2 0.134829 0.490512 0.0855901
245 4 0.239952 0.46652 0.0699915
627 4 0.224906 0.45229 0.0711721
244 2 0.25172 0.478408 0.0514069
251 4 0.307 0.434066 0.0281635
246 4 0.263487 0.490296 0.0328223
272 4 0.263585 0.501567 0.017008
523 2 0.35248 0.489693 0.0587939
524 4 0.332226 0.475397 0.0555387
226 2 0.462094 0.467291 0.0490833
228 4 0.448776 0.447768 0.0409179
563 4 0.446353 0.476511 0.00206201
227 4 0.475411 0.486814 0.0572488
16 1 0.0575436 0.0603773 0.158525
17 3 0.0684647 0.0751736 0.144707
1804 2 0.0769504 0.0282657 0.112821
20 3 0.0352709 0.0607298 0.153787
1806 4 0.0745954 0.0390792 0.135242
1805 4 0.0793054 0.0174521 0.0903998
1667 4 0.0846175 0.997589 0.0902178
18 3 0.0660619 0.0390917 0.154953
448 2 0.185686 0.0758796 0.133718
450 4 0.186142 0.0517505 0.127179
1505 4 0.181532 0.04241 0.144567
652 2 0.300903 0.0110788 0.131089
653 4 0.29072 0.0231872 0.111727
296 4 0.363256 0.0485938 0.098979
295 2 0.382047 0.0364623 0.110155
297 4 0.400838 0.0243309 0.121331
485 4 0.403378 0.00418714 0.11799
235 2 0.157976 0.134368 0.148909
579 4 0.106369 0.0856858 0.154409
237 4 0.141151 0.152145 0.154015
578 4 0.109878 0.135371 0.158858
577 2 0.108124 0.110528 0.156634
236 4 0.174801 0.11659 0.143804
693 4 0.184266 0.107485 0.157801
449 4 0.185231 0.100009 0.140257
284 4 0.282192 0.168687 0.165359
312 4 0.459896 0.150639 0.161558
337 2 0.0630323 0.209089 0.146033
339 4 0.0388165 0.214592 0.143121
338 4 0.0872481 0.203585 0.148946
476 4 0.142106 0.214142 0.126932
475 2 0.123008 0.205783 0.140737
477 4 0.103911 0.197423 0.154542
737 4 0.156718 0.223195 0.136548
363 4 0.0919305 0.205644 0.167349
736 2 0.161957 0.231251 0.113465
738 4 0.167197 0.239307 0.0903819
283 2 0.286533 0.180267 0.143628
285 4 0.290873 0.191846 0.121897
462 4 0.328813 0.203723 0.0914402
771 4 0.395308 0.172455 0.0848288
255 4 0.341268 0.203519 0.106989
254 4 0.368289 0.198265 0.148738
253 2 0.354778 0.200892 0.127864
630 4 0.383402 0.209689 0.154492
628 2 0.405781 0.208003 0.143469
769 2 0.42004 0.172461 0.0811544
629 4 0.428161 0.206316 0.132447
352 2 0.322603 0.285648 0.133571
353 4 0.309191 0.297031 0.15134
754 2 0.284433 0.323483 0.147736
755 4 0.290563 0.299335 0.14985
278 4 0.298288 0.288442 0.164752
354 4 0.336015 0.274266 0.115802
518 4 0.501988 0.256086 0.129723
2895 4 0.501149 0.257096 0.149312
519 4 0.497477 0.280086 0.0860837
517 2 0.499732 0.268086 0.107903
646 2 0.0467788 0.339687 0.0810353
648 4 0.0674622 0.345885 0.0936431
456 4 0.0838004 0.348103 0.104974
454 2 0.100895 0.357063 0.0890777
537 4 0.218995 0.369526 0.148746
535 2 0.199011 0.377962 0.13631
536 4 0.179027 0.386399 0.123874
611 4 0.22992 0.385232 0.158484
756 4 0.278302 0.347631 0.145621
612 4 0.275697 0.368487 0.147315
610 2 0.252808 0.376859 0.1529
387 4 0.330334 0.393744 0.149389
739 2 0.380025 0.358794 0.0992668
740 4 0.374971 0.36781 0.122034
15 3 0.387733 0.367858 0.136603
385 2 0.353546 0.388332 0.14183
386 4 0.376757 0.382921 0.134271
11 1 0.406298 0.364901 0.149458
14 3 0.416137 0.38542 0.153994
495 4 0.410783 0.402729 0.144212
12 3 0.421379 0.351775 0.138082
1467 4 0.00733748 0.467148 0.122715
1465 2 0.0238394 0.478193 0.13791
1466 4 0.0403413 0.489238 0.153105
243 4 0.158301 0.484813 0.0920513
1440 4 0.164948 0.498253 0.108205
625 2 0.219443 0.456599 0.095188
626 4 0.21398 0.460909 0.119204
767 4 0.255665 0.483799 0.150429
766 2 0.270607 0.465419 0.158433
493 2 0.405171 0.426828 0.14062
660 4 0.409651 0.467028 0.143604
494 4 0.399559 0.450928 0.137029
658 2 0.423839 0.480223 0.159409
1673 4 0.4456 0.48798 0.107897
2480 4 0.0276374 0.0240897 0.1826
19 3 0.0610493 0.0667153 0.180569
2479 2 0.00761639 0.0338025 0.194001
1422 4 0.0356161 0.00531661 0.182231
673 2 0.130679 0.0678855 0.189482
675 4 0.123851 0.0442174 0.185195
1506 4 0.174049 0.0199715 0.188626
1504 2 0.177791 0.0311907 0.166597
689 4 0.170823 0.00773207 0.204578
21 1 0.398997 0.0196942 0.238286
25 3 0.411067 0.0372382 0.230213
759 4 0.412102 0.055349 0.222162
757 2 0.395414 0.0711483 0.212309
22 3 0.378131 0.0197589 0.228603
24 3 0.409613 0.999725 0.233095
744 4 0.48516 0.0135344 0.242005
351 4 0.471275 0.0215995 0.22954
349 2 0.449151 0.0321775 0.22466
350 4 0.427027 0.0427554 0.219781
380 4 0.0506135 0.0793634 0.190797
512 4 0.0372204 0.144593 0.208673
379 2 0.0443812 0.103276 0.194611
381 4 0.0381489 0.127188 0.198425
511 2 0.0596352 0.154929 0.212664
674 4 0.137507 0.0915537 0.193769
546 4 0.162227 0.158815 0.244493
544 2 0.139691 0.16946 0.242492
691 2 0.204048 0.113415 0.171896
692 4 0.22383 0.119345 0.185991
723 4 0.190935 0.162233 0.190894
721 2 0.184781 0.155907 0.214288
582 4 0.242179 0.118614 0.194299
722 4 0.178628 0.149581 0.237682
580 2 0.258566 0.11007 0.211141
581 4 0.274953 0.101527 0.227983
30 3 0.292672 0.0974837 0.237262
26 1 0.311433 0.109449 0.24211
28 3 0.330304 0.0973749 0.236069
27 3 0.311115 0.129167 0.230269
758 4 0.378727 0.0869476 0.202455
310 2 0.444947 0.134242 0.173083
311 4 0.429997 0.117845 0.184608
513 4 0.0820501 0.165264 0.216655
362 4 0.101423 0.220013 0.214298
361 2 0.0966767 0.212828 0.190824
372 4 0.115056 0.235876 0.219293
370 2 0.139173 0.23315 0.225303
371 4 0.16329 0.230423 0.231312
765 4 0.385685 0.220417 0.170981
763 2 0.38676 0.242883 0.181903
308 4 0.35682 0.241542 0.228481
395 4 0.051662 0.283298 0.218949
750 4 0.070553 0.280678 0.214716
748 2 0.0799656 0.287979 0.192733
394 2 0.0417761 0.287773 0.241475
749 4 0.0893781 0.29528 0.170749
279 4 0.281381 0.258802 0.201307
277 2 0.289835 0.273622 0.18303
309 4 0.325481 0.265182 0.197501
307 2 0.34115 0.253362 0.212991
764 4 0.387835 0.26535 0.192825
623 4 0.400234 0.279987 0.20052
622 2 0.418511 0.28666 0.184816
624 4 0.436788 0.293332 0.169113
528 4 0.455986 0.29378 0.164452
527 4 0.495197 0.26287 0.16723
526 2 0.475592 0.278325 0.165841
262 2 0.0620494 0.393187 0.212461
264 4 0.0418465 0.397331 0.198324
263 4 0.0822523 0.389043 0.226598
300 4 0.147521 0.340368 0.210244
298 2 0.142036 0.357012 0.228079
602 4 0.0908198 0.406819 0.233383
601 2 0.1084 0.394816 0.2465
290 4 0.22107 0.386894 0.225948
289 2 0.206955 0.406923 0.220972
302 4 0.317423 0.388625 0.165226
301 2 0.306087 0.410259 0.170576
13 3 0.400588 0.354297 0.169291
645 4 0.477995 0.403527 0.177504
643 2 0.468328 0.393234 0.198138
644 4 0.458661 0.382941 0.218773
447 4 0.474728 0.375544 0.226229
445 2 0.492367 0.370342 0.24317
1757 4 0.0638767 0.490443 0.246367
1756 2 0.086973 0.498375 0.240998
417 4 0.186167 0.479403 0.20919
415 2 0.185419 0.457292 0.220842
291 4 0.19284 0.426953 0.215995
416 4 0.184671 0.435182 0.232493
1430 4 0.199115 0.493791 0.205621
303 4 0.294751 0.431894 0.175927
768 4 0.285549 0.447039 0.166438
713 4 0.333645 0.499162 0.23082
597 4 0.477627 0.424384 0.177261
595 2 0.469413 0.44798 0.176292
596 4 0.461199 0.471576 0.175323
1568 4 0.456435 0.490168 0.181414
659 4 0.438026 0.493417 0.175214
1799 4 0.0264333 0.0219146 0.320693
233 4 0.0184469 0.0212516 0.302428
1402 2 0.0603313 0.0179657 0.30815
1403 4 0.0359091 0.0130035 0.306122
232 2 0.00629082 0.0375676 0.287895
1404 4 0.0847535 0.0229278 0.310178
1699 2 0.209663 0.0536842 0.300992
1701 4 0.208065 0.0326198 0.287616
1700 4 0.211261 0.0747487 0.314368
23 3 0.396601 0.0216474 0.261282
1516 2 0.368784 0.00225601 0.291168
697 2 0.386122 0.0446183 0.319453
699 4 0.386243 0.0337098 0.296955
1518 4 0.369961 0.0248813 0.301745
742 2 0.489261 0.017252 0.266388
478 2 0.466235 0.0433465 0.312884
479 4 0.487391 0.0358942 0.301836
480 4 0.445079 0.0507988 0.323933
743 4 0.493363 0.0209696 0.290771
398 4 0.0749715 0.135095 0.316386
248 4 0.215713 0.0897861 0.302533
249 4 0.201038 0.137121 0.309221
247 2 0.208376 0.113454 0.305877
404 4 0.184876 0.145621 0.299594
403 2 0.182113 0.15357 0.276049
405 4 0.179351 0.161519 0.252504
29 3 0.312072 0.114326 0.264786
333 4 0.438967 0.13031 0.287747
331 2 0.449008 0.15252 0.293321
545 4 0.117156 0.180106 0.24049
393 4 0.0914657 0.205871 0.297108
392 4 0.11153 0.178459 0.26041
391 2 0.101498 0.192165 0.278759
390 4 0.099265 0.205022 0.316253
378 4 0.282426 0.227845 0.311616
376 2 0.303155 0.215362 0.317914
377 4 0.323884 0.202878 0.324211
420 4 0.414828 0.219738 0.323063
717 4 0.405519 0.236464 0.32114
521 4 0.479957 0.217059 0.24727
761 4 0.500778 0.228259 0.313484
332 4 0.45905 0.17473 0.298894
418 2 0.432997 0.203687 0.316946
419 4 0.451166 0.187636 0.310828
760 2 0.485268 0.209171 0.30898
762 4 0.469759 0.190083 0.304476
364 2 0.00487557 0.325909 0.272992
444 4 0.0173391 0.252743 0.307527
396 4 0.0318903 0.292248 0.264001
442 2 0.0235559 0.273619 0.295249
443 4 0.0297727 0.294494 0.282972
365 4 0.022413 0.308225 0.270784
401 4 0.192183 0.262234 0.277388
345 4 0.243556 0.29194 0.298167
400 2 0.208306 0.27648 0.290127
402 4 0.224429 0.290727 0.302866
510 4 0.235782 0.303324 0.312525
508 2 0.233712 0.324241 0.326067
343 2 0.268472 0.291734 0.296094
344 4 0.293389 0.291529 0.29402
498 4 0.384859 0.303967 0.29376
496 2 0.366325 0.292114 0.281878
497 4 0.347792 0.280262 0.269995
541 2 0.410314 0.318993 0.301392
542 4 0.418453 0.295584 0.304702
299 4 0.136552 0.373655 0.245915
603 4 0.12598 0.382813 0.259616
734 4 0.143407 0.374677 0.263626
733 2 0.152269 0.372499 0.286904
735 4 0.161131 0.370322 0.310183
677 4 0.179087 0.377435 0.317022
676 2 0.201733 0.368398 0.322561
678 4 0.224378 0.35936 0.328101
728 4 0.312107 0.373882 0.316204
727 2 0.335714 0.376381 0.30835
729 4 0.35932 0.37888 0.300496
615 4 0.400795 0.361653 0.304408
613 2 0.393973 0.370878 0.326623
543 4 0.402176 0.342402 0.298082
2538 4 0.490999 0.399696 0.324466
2536 2 0.488272 0.405326 0.300257
2537 4 0.485545 0.410955 0.276049
777 4 0.0672638 0.438254 0.321632
775 2 0.0909319 0.44614 0.32331
414 4 0.124823 0.468817 0.334069
438 4 0.27095 0.420383 0.27469
437 4 0.272034 0.444829 0.318301
436 2 0.271492 0.432606 0.296496
594 4 0.407712 0.486215 0.331556
2861 4 0.443949 0.453154 0.254244
2862 4 0.484826 0.430151 0.271586
2860 2 0.464388 0.441653 0.262915
593 4 0.430933 0.455681 0.299475
592 2 0.419322 0.470948 0.315515
1798 2 0.0166539 0.0114701 0.341198
369 4 0.072873 0.0696745 0.403783
367 2 0.0803363 0.0468893 0.396691
1782 4 0.0957647 0.00492126 0.387903
368 4 0.0877996 0.024104 0.389598
605 4 0.138919 0.048402 0.373041
604 2 0.161802 0.0462967 0.382895
732 4 0.0904525 0.0764741 0.393404
606 4 0.184685 0.0441915 0.392749
698 4 0.386002 0.0555267 0.341951
256 2 0.395631 0.0650208 0.370442
257 4 0.393316 0.0721387 0.346585
258 4 0.397947 0.0579029 0.394299
426 4 0.416458 0.0603671 0.402583
633 4 0.375871 0.0720807 0.338774
458 4 0.0200595 0.150336 0.393449
318 4 0.0165728 0.13582 0.379152
316 2 0.0315482 0.120306 0.366494
317 4 0.0465236 0.104792 0.353835
397 2 0.0901653 0.128994 0.335283
730 2 0.0971483 0.098756 0.384247
399 4 0.105359 0.122892 0.35418
731 4 0.103844 0.121038 0.375089
600 4 0.192466 0.141598 0.390297
683 4 0.275194 0.123776 0.36676
682 2 0.276262 0.116013 0.390504
632 4 0.336613 0.102994 0.336792
631 2 0.356242 0.0875375 0.337783
575 4 0.406471 0.138627 0.390683
516 4 0.414099 0.132783 0.373075
574 2 0.419824 0.145852 0.410549
451 2 0.485706 0.158953 0.366115
514 2 0.431616 0.140535 0.357006
453 4 0.465815 0.154165 0.35174
515 4 0.449134 0.148287 0.340937
457 2 0.0119344 0.173297 0.399103
459 4 0.00380926 0.196257 0.404757
388 2 0.0969982 0.20925 0.340792
389 4 0.0947315 0.213477 0.365331
685 2 0.156082 0.216604 0.411483
598 2 0.18903 0.166364 0.390186
687 4 0.173597 0.204085 0.398768
599 4 0.185594 0.191131 0.390076
473 4 0.247914 0.199898 0.366176
472 2 0.264475 0.203436 0.384572
474 4 0.281036 0.206974 0.402967
488 4 0.29967 0.201735 0.405073
487 2 0.305288 0.22576 0.409123
489 4 0.310906 0.249785 0.413173
707 4 0.336077 0.199708 0.3392
706 2 0.358002 0.193453 0.349465
708 4 0.379926 0.187198 0.35973
715 2 0.394992 0.253397 0.336228
347 4 0.0782339 0.32633 0.407808
274 2 0.160882 0.318179 0.393377
276 4 0.178113 0.301029 0.399224
373 2 0.210449 0.272015 0.390656
374 4 0.230588 0.25853 0.384511
375 4 0.19031 0.285499 0.3968
716 4 0.384465 0.27033 0.351317
406 2 0.0578517 0.388984 0.405131
407 4 0.0513029 0.406291 0.388315
408 4 0.0644005 0.371678 0.421947
275 4 0.143652 0.335328 0.387531
616 2 0.112903 0.34529 0.399687
617 4 0.132399 0.351873 0.385484
509 4 0.231642 0.345157 0.33961
435 4 0.236884 0.364016 0.342303
504 4 0.239745 0.385498 0.399266
434 4 0.280752 0.386986 0.34928
433 2 0.258818 0.375501 0.345791
503 4 0.286937 0.401766 0.402263
336 4 0.293189 0.396235 0.419958
502 2 0.263341 0.393632 0.400764
334 2 0.315281 0.384782 0.41752
614 4 0.387151 0.380103 0.348839
335 4 0.337374 0.37333 0.415081
753 4 0.475474 0.396942 0.338128
561 4 0.456196 0.351889 0.384556
752 4 0.455024 0.362267 0.367796
559 2 0.476679 0.349859 0.398751
751 2 0.465249 0.379605 0.352962
549 4 0.0578466 0.447284 0.337896
548 4 0.0459698 0.423015 0.379975
547 2 0.0519082 0.43515 0.358935
776 4 0.1146 0.454025 0.324988
412 2 0.143413 0.485313 0.336803
413 4 0.162004 0.501808 0.339537
1543 2 0.203097 0.495242 0.340531
1544 4 0.178553 0.492033 0.344061
500 4 0.17026 0.502984 0.357641
1545 4 0.227641 0.498452 0.337001
4 3 0.307878 0.473069 0.412188
669 4 0.299937 0.412849 0.410909
668 4 0.291061 0.461886 0.415071
1 1 0.318194 0.493658 0.409342
667 2 0.295499 0.437368 0.41299
3 3 0.332192 0.493015 0.390847
1126 2 0.00313029 0.0617016 0.492181
720 4 0.0212762 0.0663592 0.462852
2237 4 0.0298764 0.0488691 0.460732
2236 2 0.0435191 0.0348491 0.44516
1127 4 0.0152087 0.0514801 0.472821
2238 4 0.0571618 0.0208291 0.429587
1772 4 0.0471163 0.0110785 0.415447
1523 4 0.100863 0.00045321 0.502078
340 2 0.195612 0.0553388 0.499169
2430 4 0.200438 0.0141838 0.49747
341 4 0.205181 0.0325015 0.502643
342 4 0.186043 0.0781762 0.495694
726 4 0.327133 0.0378565 0.442253
724 2 0.309845 0.0414793 0.459949
725 4 0.292556 0.0451021 0.477646
963 4 0.296431 0.0330894 0.49251
961 2 0.277312 0.0175387 0.496731
424 2 0.419686 0.04103 0.418102
1580 4 0.419017 0.00392284 0.424704
425 4 0.422913 0.0216929 0.433621
2878 2 0.464913 0.0773133 0.47594
2879 4 0.475543 0.054731 0.477436
718 2 0.0298097 0.0869052 0.45144
719 4 0.0383431 0.107451 0.440029
1033 2 0.117563 0.144289 0.484396
1035 4 0.118338 0.147134 0.459567
1182 4 0.239742 0.0949727 0.47132
1152 4 0.170121 0.0898872 0.501355
684 4 0.27733 0.108249 0.414247
320 4 0.287701 0.110947 0.430848
1180 2 0.254481 0.0997485 0.451695
1181 4 0.26922 0.104524 0.43207
321 4 0.320156 0.147328 0.441979
319 2 0.303928 0.129138 0.436413
2880 4 0.454284 0.0998957 0.474443
642 4 0.464386 0.103432 0.457076
640 2 0.456859 0.123833 0.444734
641 4 0.449331 0.144234 0.432392
306 4 0.449148 0.161079 0.422312
576 4 0.433177 0.153078 0.430416
471 4 0.024682 0.215303 0.467339
469 2 0.0196365 0.191307 0.462451
470 4 0.0145909 0.16731 0.457563
686 4 0.138567 0.229123 0.424199
260 4 0.135841 0.211961 0.450489
261 4 0.115692 0.167118 0.459645
259 2 0.125767 0.189539 0.455067
695 4 0.125796 0.225962 0.440628
411 4 0.245546 0.173201 0.474163
409 2 0.268286 0.183204 0.471334
410 4 0.291026 0.193207 0.468506
900 4 0.302693 0.200035 0.483806
468 4 0.358177 0.217516 0.434527
466 2 0.376596 0.201002 0.438162
467 4 0.395015 0.184489 0.441798
267 4 0.355478 0.237081 0.439145
305 4 0.472752 0.204524 0.414823
304 2 0.46095 0.182802 0.418567
346 2 0.0709388 0.329999 0.431441
348 4 0.0636437 0.333669 0.455073
694 2 0.123597 0.246386 0.454883
1260 4 0.117501 0.270347 0.488794
696 4 0.121399 0.26681 0.469138
266 4 0.320012 0.27056 0.450191
811 2 0.268481 0.30466 0.479156
813 4 0.279115 0.304826 0.456527
812 4 0.257847 0.304493 0.501785
265 2 0.337745 0.253821 0.444668
2456 4 0.494802 0.281445 0.478206
584 4 0.478008 0.289821 0.485765
583 2 0.456583 0.280828 0.47653
585 4 0.435158 0.271835 0.467295
326 4 0.0692928 0.348627 0.467958
2813 4 0.00856387 0.38208 0.448125
681 4 0.0806142 0.420522 0.462412
618 4 0.0934065 0.338708 0.413891
325 2 0.0882634 0.357859 0.481376
327 4 0.107234 0.367091 0.494795
10 3 0.154647 0.334915 0.492347
7 3 0.122725 0.3542 0.490952
6 1 0.145625 0.355825 0.492403
8 3 0.153459 0.367877 0.474187
711 4 0.162767 0.384243 0.463689
709 2 0.181012 0.396598 0.475507
710 4 0.199256 0.408954 0.487325
774 4 0.218753 0.40686 0.483989
239 4 0.396701 0.399122 0.435129
238 2 0.374945 0.387357 0.43146
240 4 0.353189 0.375592 0.427791
588 4 0.410434 0.413132 0.437462
586 2 0.418291 0.406029 0.460112
587 4 0.426149 0.398926 0.482761
560 4 0.497162 0.347829 0.412946
1382 4 0.0539081 0.501521 0.416242
680 4 0.0401029 0.435452 0.43718
1383 4 0.0465887 0.453117 0.426449
1381 2 0.0502484 0.477319 0.421345
679 2 0.0603585 0.427987 0.449796
539 4 0.10432 0.496286 0.470991
569 4 0.154962 0.453546 0.454363
383 4 0.10037 0.419972 0.456158
568 2 0.1605 0.476869 0.461474
382 2 0.120327 0.433411 0.449355
384 4 0.140285 0.44685 0.442551
634 2 0.218591 0.443467 0.479582
570 4 0.166037 0.500192 0.468584
636 4 0.22515 0.464341 0.467481
635 4 0.212032 0.422593 0.491684
2 3 0.330772 0.49832 0.428029
1057 2 0.148567 0.0770086 0.58072
2428 2 0.222062 0.00163583 0.497853
430 2 0.31342 0.0583473 0.512637
431 4 0.329634 0.0639865 0.530816
432 4 0.297206 0.0527082 0.494458
843 4 0.336692 0.0594432 0.54904
1217 4 0.392894 0.0257045 0.537821
1216 2 0.407546 0.00544788 0.538221
842 4 0.381699 0.0417043 0.536372
841 2 0.359195 0.0505738 0.542706
938 4 0.0810708 0.166752 0.552484
937 2 0.0996283 0.163701 0.536007
1151 4 0.155509 0.0986673 0.548367
1059 4 0.148263 0.0970276 0.565743
1155 4 0.161231 0.1112 0.561771
939 4 0.118186 0.160651 0.51953
1034 4 0.116787 0.141445 0.509225
1153 2 0.174539 0.126736 0.576149
1150 2 0.162815 0.0942772 0.524861
878 4 0.0206963 0.196497 0.550692
1199 4 0.0195947 0.215348 0.558687
877 2 0.0412411 0.182513 0.553438
879 4 0.0617858 0.168529 0.556184
1272 4 0.0741376 0.167775 0.571072
858 4 0.267693 0.188437 0.578384
857 4 0.300866 0.214031 0.551086
856 2 0.28428 0.201234 0.564735
898 2 0.303653 0.20579 0.508119
791 4 0.314281 0.225176 0.541761
899 4 0.304612 0.211546 0.532432
790 2 0.316173 0.247051 0.553723
3353 4 0.0173348 0.277501 0.515904
3352 2 0.999447 0.294089 0.521384
1258 2 0.111479 0.275322 0.512546
1259 4 0.105457 0.280297 0.536298
649 2 0.232325 0.29425 0.52458
651 4 0.213701 0.278333 0.529579
650 4 0.250949 0.310166 0.519581
804 4 0.258659 0.322755 0.507135
792 4 0.318064 0.268927 0.565684
1237 2 0.327716 0.307807 0.558834
1238 4 0.326494 0.287562 0.573458
1239 4 0.328938 0.328051 0.544211
871 2 0.40334 0.26755 0.535373
872 4 0.393019 0.272786 0.513209
873 4 0.41366 0.262313 0.557536
954 4 0.486112 0.315348 0.571424
1011 4 0.482549 0.32604 0.553939
906 4 0.469237 0.244685 0.585285
935 4 0.0151506 0.392048 0.514361
1135 2 0.129124 0.401391 0.579463
9 3 0.151135 0.366772 0.512106
1189 2 0.227464 0.381957 0.558562
773 4 0.245114 0.384519 0.520138
1190 4 0.242035 0.378939 0.538468
772 2 0.231933 0.39569 0.502063
1191 4 0.212893 0.384975 0.578655
803 4 0.253732 0.368178 0.527462
802 2 0.256196 0.345467 0.517298
930 4 0.288958 0.353901 0.544486
928 2 0.290605 0.378031 0.550826
929 4 0.292252 0.402161 0.557165
927 4 0.408612 0.374819 0.532608
925 2 0.418048 0.39116 0.516203
926 4 0.427484 0.407502 0.499799
3309 4 0.498201 0.401515 0.574566
1161 4 0.16061 0.493561 0.561078
1136 4 0.111122 0.418477 0.576432
1159 2 0.173183 0.476921 0.57487
889 2 0.30324 0.468731 0.544715
890 4 0.291884 0.485475 0.530023
891 4 0.314596 0.451986 0.559407
1953 4 0.372486 0.476147 0.570569
1951 2 0.362828 0.489176 0.551539
1000 2 0.416806 0.490193 0.532571
1952 4 0.353169 0.502206 0.532509
1001 4 0.435469 0.473938 0.536128
662 4 0.450747 0.461996 0.53292
661 2 0.446109 0.440047 0.52188
1911 4 0.44682 0.46798 0.550871
1909 2 0.445353 0.463754 0.575472
1332 4 0.45259 0.480973 0.537471
663 4 0.44147 0.418097 0.510839
1330 2 0.473172 0.49516 0.536947
2319 4 0.0485442 0.00295046 0.640474
945 4 0.0616047 0.0149902 0.648288
943 2 0.0863606 0.0117428 0.649622
1058 4 0.148872 0.0569896 0.595698
2375 4 0.123261 0.0241571 0.599372
944 4 0.111116 0.0084954 0.650957
825 4 0.126073 0.0139605 0.663199
2374 2 0.129954 0.00507684 0.584664
950 4 0.312413 0.0241295 0.617733
949 2 0.29812 0.0437904 0.611875
951 4 0.283826 0.0634513 0.606016
1031 4 0.264219 0.0655025 0.607769
1081 2 0.0258427 0.115945 0.668453
3179 4 0.0344988 0.14806 0.640379
1083 4 0.0358838 0.131714 0.651849
3178 2 0.0132988 0.160617 0.63613
1282 2 0.152741 0.0975693 0.66606
1284 4 0.160985 0.0924787 0.64301
1154 4 0.187847 0.142271 0.590527
1032 4 0.249274 0.11119 0.621555
1221 4 0.201371 0.137058 0.604005
1219 2 0.202347 0.157592 0.618237
1030 2 0.256747 0.088346 0.614662
808 2 0.482264 0.0920713 0.647394
809 4 0.49484 0.100732 0.627595
810 4 0.469687 0.0834107 0.667193
1243 2 0.0661461 0.224106 0.626152
1244 4 0.0541035 0.213294 0.607093
1245 4 0.0781886 0.234919 0.645211
1270 2 0.0881372 0.17467 0.590607
1271 4 0.102137 0.181565 0.610143
1209 4 0.0902422 0.242021 0.659189
1210 2 0.24203 0.185756 0.643237
1212 4 0.219228 0.19045 0.634116
1220 4 0.203324 0.178127 0.632469
796 2 0.194573 0.209992 0.621981
798 4 0.20845 0.189571 0.618029
797 4 0.180696 0.230412 0.625932
888 4 0.282357 0.175919 0.661713
1211 4 0.264832 0.181061 0.652358
1194 4 0.35277 0.224531 0.655273
3123 4 0.470961 0.235433 0.644743
3121 2 0.48981 0.226804 0.658723
983 4 0.0247755 0.330217 0.599235
982 2 0.0401151 0.328512 0.618906
3263 4 0.0526203 0.32411 0.657231
984 4 0.0554546 0.326808 0.638578
947 4 0.177283 0.2725 0.640375
946 2 0.19351 0.268637 0.659001
807 4 0.329216 0.317763 0.645296
904 2 0.466642 0.247966 0.609936
905 4 0.464047 0.251246 0.634588
952 2 0.479205 0.327539 0.592132
1041 4 0.0597438 0.341597 0.650913
1039 2 0.0686586 0.364958 0.650985
1137 4 0.147125 0.384305 0.582494
1040 4 0.0775734 0.388318 0.651058
993 4 0.0866076 0.396703 0.635517
897 4 0.150987 0.36687 0.589361
896 4 0.199496 0.378863 0.591299
895 2 0.175242 0.372866 0.59033
1172 4 0.202317 0.397537 0.589939
953 4 0.472297 0.339731 0.61284
1206 4 0.470787 0.39343 0.649882
992 4 0.0750658 0.445001 0.641412
991 2 0.0808367 0.420852 0.638465
1160 4 0.185756 0.460281 0.588661
1175 4 0.205497 0.494827 0.65556
1173 4 0.200012 0.447483 0.590848
1171 2 0.201165 0.42251 0.590393
1188 4 0.218977 0.484271 0.643738
1187 4 0.197051 0.462257 0.604554
1186 2 0.208014 0.473264 0.624146
1910 4 0.443886 0.459528 0.600072
1204 2 0.466579 0.417885 0.652952
1205 4 0.462371 0.44234 0.656022
1269 4 0.451609 0.456474 0.64927
1267 2 0.441756 0.478424 0.656073
1077 4 0.0500529 0.0814709 0.739168
1203 4 0.168274 0.0812566 0.747924
1201 2 0.158038 0.0599522 0.756081
1148 4 0.187775 0.0836514 0.745558
1003 2 0.324005 0.0504822 0.73867
1005 4 0.303269 0.0632027 0.732891
1004 4 0.344741 0.0377616 0.744449
45 3 0.422831 0.0675411 0.673609
42 3 0.430396 0.0822256 0.707076
41 1 0.434894 0.0834599 0.68455
1163 4 0.472896 0.0681712 0.678642
44 3 0.457578 0.0798828 0.681224
1162 2 0.488169 0.0485543 0.681302
1082 4 0.0158017 0.100175 0.685057
1076 4 0.0243725 0.10394 0.702611
1075 2 0.0372127 0.0927056 0.720889
850 2 0.0722607 0.151763 0.730104
864 4 0.0389511 0.0917255 0.752278
852 4 0.0491514 0.152688 0.739605
909 4 0.103077 0.150902 0.702241
907 2 0.11481 0.129178 0.698296
908 4 0.126544 0.107454 0.694351
1283 4 0.144496 0.10266 0.68911
1227 4 0.142037 0.11233 0.705847
851 4 0.09537 0.150837 0.720602
1225 2 0.158398 0.105191 0.723355
1107 4 0.107211 0.165009 0.715194
1226 4 0.174759 0.098052 0.740863
1147 2 0.211366 0.0918492 0.744346
1149 4 0.234956 0.100047 0.743134
1257 4 0.251476 0.0879223 0.741658
887 4 0.305465 0.166513 0.705052
830 4 0.315503 0.150804 0.708063
978 4 0.307397 0.159289 0.723576
886 2 0.293911 0.171216 0.683382
831 4 0.365154 0.146162 0.711796
1141 2 0.402783 0.15517 0.709691
829 2 0.340328 0.148483 0.709929
1142 4 0.381473 0.145292 0.70112
43 3 0.428989 0.104543 0.676866
1025 4 0.474866 0.143048 0.680715
3424 2 0.484213 0.105533 0.69862
3426 4 0.475106 0.0860916 0.685803
1024 2 0.457886 0.154695 0.6949
1143 4 0.424093 0.165049 0.718262
1026 4 0.440905 0.166342 0.709084
3425 4 0.493319 0.124975 0.711437
1215 4 0.00153915 0.202012 0.737019
1213 2 0.0203469 0.18572 0.739476
1214 4 0.0391546 0.169429 0.741932
1074 4 0.0714651 0.240888 0.743672
1207 2 0.100664 0.236554 0.68125
1208 4 0.111086 0.231087 0.703311
1106 4 0.140624 0.190839 0.741973
1105 2 0.123917 0.177924 0.728583
1064 4 0.222512 0.252013 0.685206
976 2 0.306431 0.174115 0.743687
916 2 0.291289 0.228186 0.748641
1193 4 0.361154 0.242138 0.701321
1192 2 0.356962 0.233335 0.678297
1261 2 0.450695 0.195327 0.733972
1262 4 0.435831 0.181538 0.71934
1145 4 0.481833 0.213704 0.757565
3262 2 0.0375177 0.322828 0.677117
3264 4 0.0224152 0.321546 0.697003
893 4 0.0157881 0.326844 0.715468
779 4 0.0733177 0.300241 0.749532
821 4 0.148293 0.275862 0.731094
948 4 0.209738 0.264773 0.677627
820 2 0.161279 0.26154 0.74695
1065 4 0.223733 0.276077 0.729026
1063 2 0.223122 0.264045 0.707116
805 2 0.321932 0.311968 0.668502
806 4 0.314648 0.306172 0.691709
917 4 0.282692 0.249885 0.739673
892 2 0.020989 0.350038 0.723224
894 4 0.0261898 0.373233 0.730979
3276 4 0.0133212 0.383296 0.742258
814 2 0.0548429 0.39232 0.733018
816 4 0.0304458 0.390715 0.738251
815 4 0.07924 0.393925 0.727785
940 2 0.110022 0.41741 0.739185
942 4 0.0920371 0.400179 0.741379
1068 4 0.170648 0.418943 0.687663
1029 4 0.229785 0.410347 0.675984
1027 2 0.208239 0.418203 0.685946
1019 4 0.378834 0.401804 0.728885
1018 2 0.35932 0.38902 0.737881
1020 4 0.339805 0.376236 0.746876
1280 4 0.0526134 0.479694 0.693403
1279 2 0.0313022 0.491826 0.698285
941 4 0.128007 0.434641 0.736992
1066 2 0.154096 0.420061 0.706369
1067 4 0.137543 0.421178 0.725076
1028 4 0.186693 0.426059 0.695908
1140 4 0.265008 0.500568 0.718837
1138 2 0.265554 0.475665 0.721013
1139 4 0.2661 0.450762 0.72319
1230 4 0.409899 0.447606 0.727525
1228 2 0.391333 0.443575 0.74378
3328 2 0.499378 0.451996 0.701541
1100 4 0.414051 0.442822 0.708122
1101 4 0.460832 0.456492 0.719319
1099 2 0.437441 0.449657 0.71372
1251 4 0.470206 0.469467 0.72945
3330 4 0.479329 0.459086 0.714692
1296 4 0.00498609 0.0184232 0.826253
2047 2 0.154201 7.80069e-05 0.784257
1202 4 0.147803 0.0386477 0.764238
2049 4 0.147942 0.019304 0.769547
2254 2 0.215102 0.0258706 0.752642
2256 4 0.20225 0.0417082 0.767105
2321 4 0.465632 0.00904256 0.778852
2322 4 0.485951 0.0543955 0.784415
2320 2 0.475792 0.031719 0.781633
846 4 0.478227 0.0723752 0.78425
862 2 0.0441612 0.102373 0.774293
863 4 0.0493712 0.113021 0.796308
832 2 0.0152027 0.104657 0.821536
833 4 0.0378779 0.107294 0.811335
1125 4 0.0432913 0.125615 0.809812
1123 2 0.0502963 0.149531 0.811846
1124 4 0.0573014 0.173447 0.81388
31 1 0.128491 0.145622 0.82462
35 3 0.137184 0.126706 0.815386
33 3 0.10868 0.151264 0.813938
34 3 0.143712 0.16304 0.822796
1255 2 0.262825 0.089036 0.76391
1256 4 0.274174 0.0901496 0.786161
840 4 0.281985 0.101309 0.800115
838 2 0.285678 0.106286 0.824338
1112 4 0.381726 0.0968526 0.824451
818 4 0.382352 0.115986 0.83017
844 2 0.471373 0.09634 0.786224
845 4 0.464519 0.120305 0.788197
1072 2 0.0600603 0.245082 0.765524
1073 4 0.0486555 0.249275 0.787377
1130 4 0.14173 0.191212 0.761913
1129 2 0.156737 0.210541 0.767046
1131 4 0.171745 0.22987 0.772178