ITEM: TIMESTEP
3170000
ITEM: NUMBER OF ATOMS
4590
ITEM: BOX BOUNDS pp pp pp
-9.9985700000000008e+00 9.9985700000000008e+00
-9.9985700000000008e+00 9.9985700000000008e+00
-9.9985700000000008e+00 9.9985700000000008e+00
ITEM: ATOMS id type xs ys zs
465 4 0.0791187 0.0774655 0.0290697
2576 4 0.0489427 0.998115 0.0574003
1805 4 0.0664951 0.00115978 0.0657257
701 4 0.0947985 0.0644195 0.0323309
700 2 0.117737 0.0592941 0.0238016
702 4 0.140675 0.0541687 0.0152722
566 4 0.15765 0.0582106 0.00370392
296 4 0.350814 0.0805116 0.0880098
746 4 0.483453 0.0455317 0.0493023
2469 4 0.488814 0.040594 0.0668571
745 2 0.474617 0.0494493 0.0262424
463 2 0.059951 0.0903056 0.0387087
464 4 0.0407833 0.103146 0.0483476
590 4 0.025355 0.11071 0.059008
589 2 0.00424821 0.112117 0.0723385
579 4 0.122438 0.145521 0.0807506
558 4 0.358834 0.126541 0.0399423
556 2 0.352619 0.11096 0.0584837
866 4 0.363527 0.14056 0.0271622
865 2 0.366328 0.165246 0.0299762
827 4 0.363589 0.121427 0.0218379
557 4 0.346404 0.095379 0.077025
826 2 0.376274 0.106052 0.00674211
771 4 0.412146 0.159407 0.11218
554 4 0.0322151 0.224064 0.0347396
553 2 0.0571361 0.223228 0.0365901
555 4 0.0820571 0.222392 0.0384406
835 2 0.117213 0.214299 0.0188322
836 4 0.0991541 0.212034 0.0359763
837 4 0.135272 0.216564 0.00168821
915 4 0.148245 0.219787 0.986779
461 4 0.327536 0.233271 0.086477
666 4 0.337352 0.236167 0.0692971
664 2 0.35303 0.22162 0.0563441
665 4 0.368707 0.207074 0.043391
867 4 0.369129 0.189932 0.0327902
1070 4 0.40361 0.243607 0.0548144
2808 4 0.0466506 0.275757 0.0561011
2806 2 0.0237608 0.285177 0.0525655
2807 4 0.000870922 0.294597 0.0490298
573 4 0.329528 0.250844 0.0800224
356 4 0.319851 0.314842 0.0635386
572 4 0.313995 0.297528 0.071079
355 2 0.310132 0.331497 0.0476226
571 2 0.321762 0.274186 0.0755507
1069 2 0.417617 0.256845 0.0707424
620 4 0.0135784 0.365875 0.0799861
647 4 0.0315401 0.359951 0.0781718
293 4 0.122802 0.328775 0.0721908
507 4 0.137011 0.339147 0.0624349
505 2 0.152653 0.358382 0.0591903
483 4 0.169598 0.385122 0.0367571
506 4 0.168294 0.377617 0.0559457
481 2 0.191697 0.396189 0.0329718
609 4 0.232562 0.407914 0.0210039
357 4 0.300412 0.348152 0.0317066
902 4 0.301973 0.359583 0.0147118
671 4 0.494134 0.377903 0.0793094
280 2 0.497809 0.412034 0.0750394
281 4 0.502603 0.391758 0.088862
550 2 0.0607668 0.445624 0.0673449
552 4 0.0786335 0.462227 0.0618413
1787 4 0.0794026 0.481788 0.0593746
1786 2 0.0635095 0.492327 0.0432031
551 4 0.0429001 0.429021 0.0728486
242 4 0.0782024 0.475314 0.0769349
607 2 0.255853 0.413838 0.0279036
482 4 0.213796 0.407256 0.0291866
244 2 0.243122 0.478037 0.0422005
245 4 0.229012 0.463824 0.0571703
608 4 0.279144 0.419761 0.0348032
246 4 0.257231 0.49225 0.0272308
272 4 0.263349 0.49005 0.00925327
252 4 0.276646 0.438749 0.0282351
250 2 0.295913 0.454565 0.0262756
251 4 0.31518 0.47038 0.0243161
2289 4 0.334363 0.465258 0.0210926
2287 2 0.344168 0.485938 0.0110252
957 4 0.4038 0.41924 0.0166157
226 2 0.468207 0.469109 0.0670783
227 4 0.483131 0.449634 0.0622638
228 4 0.453283 0.488583 0.0718928
282 4 0.493015 0.432311 0.0612169
16 1 0.0683121 0.0495171 0.130832
20 3 0.0532396 0.0608794 0.118089
18 3 0.0728836 0.028909 0.121198
19 3 0.0599248 0.046557 0.152263
1806 4 0.0667454 0.03394 0.10349
380 4 0.0698737 0.0607583 0.16213
1804 2 0.0666203 0.0175499 0.0846077
17 3 0.0878271 0.0616304 0.132091
675 4 0.0890834 0.057646 0.152868
673 2 0.110457 0.0507286 0.163846
674 4 0.13183 0.0438112 0.174823
652 2 0.322697 0.0285943 0.141373
654 4 0.299754 0.0187577 0.142791
653 4 0.345641 0.0384309 0.139956
484 2 0.370631 0.0113546 0.125332
297 4 0.354445 0.0455576 0.123587
485 4 0.363508 0.0330208 0.13558
295 2 0.35263 0.0630346 0.105798
237 4 0.157339 0.15542 0.137272
577 2 0.134365 0.153033 0.101402
235 2 0.166037 0.134961 0.148715
236 4 0.174736 0.114502 0.160158
693 4 0.190291 0.107137 0.167746
691 2 0.210725 0.101774 0.154373
692 4 0.23116 0.0964097 0.141
582 4 0.243266 0.110186 0.134238
449 4 0.173898 0.0966874 0.168599
580 2 0.264568 0.11245 0.147133
581 4 0.285871 0.114714 0.160027
30 3 0.301997 0.125208 0.155321
285 4 0.328199 0.160255 0.15052
578 4 0.146292 0.160546 0.122054
737 4 0.164756 0.167387 0.12306
476 4 0.151036 0.173953 0.135442
475 2 0.136957 0.187411 0.15112
477 4 0.122878 0.20087 0.166799
736 2 0.18683 0.176023 0.115101
738 4 0.208904 0.18466 0.107142
354 4 0.316066 0.225686 0.151106
462 4 0.322915 0.222803 0.135157
460 2 0.325225 0.228037 0.110817
352 2 0.294575 0.232227 0.162085
353 4 0.273084 0.238767 0.173064
283 2 0.32412 0.184823 0.148302
284 4 0.32004 0.209392 0.146083
755 4 0.258044 0.251179 0.174567
255 4 0.33291 0.220901 0.149385
253 2 0.350316 0.231241 0.164057
769 2 0.434955 0.169332 0.109644
770 4 0.457763 0.179257 0.107107
1014 4 0.45464 0.195304 0.118203
1013 4 0.474369 0.238748 0.103233
1012 2 0.464504 0.217026 0.110718
311 4 0.469221 0.200115 0.163356
294 4 0.0840965 0.340176 0.101731
456 4 0.0790092 0.335486 0.120306
455 4 0.0567347 0.323533 0.163454
454 2 0.067872 0.329509 0.14188
648 4 0.0657951 0.339966 0.108633
610 2 0.235439 0.323174 0.121583
612 4 0.242045 0.303908 0.136087
756 4 0.242764 0.283053 0.139193
754 2 0.250404 0.267116 0.15688
323 4 0.44893 0.328757 0.0858072
322 2 0.439958 0.306741 0.0935515
1071 4 0.431625 0.270083 0.0866705
324 4 0.430985 0.284725 0.101296
519 4 0.48741 0.254046 0.102591
517 2 0.496701 0.263245 0.123904
646 2 0.0486676 0.349959 0.0934025
292 2 0.103449 0.334475 0.0869607
626 4 0.204936 0.410192 0.0964461
536 4 0.190206 0.39785 0.0943498
611 4 0.228833 0.342439 0.107079
535 2 0.202613 0.376378 0.0975383
537 4 0.215021 0.354905 0.100727
387 4 0.332572 0.417358 0.135632
739 2 0.396399 0.386063 0.100818
740 4 0.393072 0.394068 0.12427
385 2 0.3557 0.407879 0.13628
386 4 0.378828 0.3984 0.136927
495 4 0.397241 0.405423 0.139483
15 3 0.385323 0.380508 0.136724
741 4 0.399726 0.378058 0.0773649
11 1 0.399897 0.380676 0.154223
12 3 0.415188 0.363706 0.151511
14 3 0.411207 0.400925 0.154912
670 2 0.474735 0.362905 0.0842042
672 4 0.455337 0.347908 0.0890991
1791 4 0.991686 0.500195 0.120202
241 2 0.0958566 0.477271 0.0945327
243 4 0.113511 0.479227 0.11213
1440 4 0.133483 0.483392 0.11543
1438 2 0.153353 0.482374 0.100286
627 4 0.221796 0.449426 0.0704244
625 2 0.213366 0.429809 0.0834353
1439 4 0.173223 0.481357 0.0851431
639 4 0.187782 0.480142 0.099389
637 2 0.212264 0.485175 0.0986932
303 4 0.317948 0.473107 0.107547
768 4 0.304882 0.48673 0.102673
301 2 0.320103 0.449046 0.113997
302 4 0.322258 0.424985 0.120447
766 2 0.280448 0.488923 0.0978387
493 2 0.404591 0.428665 0.133919
660 4 0.40965 0.465841 0.142505
494 4 0.41194 0.451907 0.128354
524 4 0.41433 0.470959 0.123773
525 4 0.43645 0.484072 0.0808837
523 2 0.42539 0.477515 0.102328
658 2 0.426814 0.475957 0.157613
379 2 0.0620849 0.0800768 0.175962
450 4 0.148227 0.0538446 0.171086
1505 4 0.147206 0.0417738 0.186416
1504 2 0.154687 0.0310004 0.207703
448 2 0.161063 0.075266 0.169843
1506 4 0.162169 0.020227 0.22899
689 4 0.172887 0.00416618 0.228182
632 4 0.384533 0.0567152 0.245851
23 3 0.392135 0.99973 0.241033
22 3 0.396766 0.0119159 0.205781
21 1 0.407767 0.00439922 0.224533
757 2 0.455822 0.0284994 0.208983
25 3 0.422127 0.0205236 0.231774
759 4 0.437654 0.0301233 0.226084
758 4 0.473991 0.0268755 0.191882
350 4 0.438748 0.0175762 0.241054
512 4 0.0627118 0.116508 0.196629
381 4 0.0542962 0.0993953 0.189793
511 2 0.0657193 0.140433 0.190013
513 4 0.0687269 0.164357 0.183398
29 3 0.316758 0.158105 0.166162
26 1 0.318339 0.135013 0.167789
28 3 0.316369 0.128482 0.189967
27 3 0.338901 0.128391 0.159885
521 4 0.516258 0.124531 0.242377
339 4 0.063441 0.18266 0.190071
337 2 0.0852755 0.193338 0.184204
363 4 0.118477 0.219092 0.172054
338 4 0.10711 0.204015 0.178336
362 4 0.131905 0.242664 0.214063
361 2 0.125191 0.230878 0.193059
278 4 0.275167 0.256069 0.182041
628 2 0.395744 0.211384 0.191788
629 4 0.413441 0.193783 0.193267
630 4 0.378047 0.228986 0.190309
254 4 0.367723 0.241581 0.178729
312 4 0.43299 0.194748 0.197403
310 2 0.451105 0.197431 0.180379
761 4 0.471196 0.203141 0.2398
749 4 0.0389074 0.31611 0.161726
750 4 0.0395404 0.298965 0.208698
395 4 0.0341947 0.280609 0.215177
748 2 0.0392239 0.307537 0.185212
394 2 0.0291654 0.282475 0.239598
370 2 0.143098 0.243405 0.246035
372 4 0.140499 0.256291 0.224766
300 4 0.124907 0.306891 0.172453
298 2 0.127907 0.320073 0.193487
277 2 0.273648 0.264478 0.205539
279 4 0.272129 0.272887 0.229037
401 4 0.266768 0.320935 0.23208
496 2 0.297918 0.329795 0.202886
497 4 0.316966 0.339251 0.189735
498 4 0.278871 0.320339 0.216037
400 2 0.265189 0.314285 0.256131
765 4 0.384505 0.246642 0.186843
763 2 0.397635 0.267834 0.188759
764 4 0.410765 0.289026 0.190676
528 4 0.495025 0.307995 0.198242
624 4 0.474761 0.305608 0.202639
622 2 0.451068 0.29764 0.202085
623 4 0.427374 0.289673 0.201531
262 2 0.053471 0.402362 0.229746
264 4 0.0328545 0.41646 0.230926
263 4 0.0740875 0.388265 0.228565
2618 4 0.0164428 0.405304 0.229922
299 4 0.130907 0.333255 0.21452
734 4 0.131785 0.340161 0.232377
602 4 0.094386 0.388662 0.225322
601 2 0.111071 0.370403 0.22166
603 4 0.127756 0.352144 0.217999
290 4 0.169443 0.397686 0.229447
289 2 0.169969 0.413629 0.210193
308 4 0.328184 0.355853 0.186371
307 2 0.349814 0.368394 0.186386
309 4 0.371445 0.380935 0.186401
13 3 0.388425 0.37733 0.174113
291 4 0.170496 0.429573 0.19094
416 4 0.182518 0.445401 0.200187
415 2 0.192604 0.464751 0.187978
1430 4 0.214398 0.486287 0.192294
417 4 0.20269 0.4841 0.175769
597 4 0.483763 0.460455 0.208893
596 4 0.454087 0.49424 0.187016
659 4 0.443978 0.486073 0.17272
595 2 0.468925 0.477347 0.197955
1799 4 0.00963759 0.00974891 0.304839
233 4 0.00604015 0.0287946 0.307564
1402 2 0.044171 0.0265676 0.311917
1403 4 0.0205579 0.0204286 0.317387
1404 4 0.0677841 0.0327066 0.306448
633 4 0.377032 0.0293601 0.287035
631 2 0.380783 0.0430376 0.266443
257 4 0.372742 0.034134 0.306297
698 4 0.375953 0.0159714 0.301171
256 2 0.359269 0.0454341 0.324073
349 2 0.446761 0.0184504 0.264722
744 4 0.465819 0.0031684 0.294357
742 2 0.479 0.0134194 0.312967
351 4 0.454775 0.0193246 0.288391
393 4 0.0925242 0.155083 0.306655
398 4 0.098951 0.142616 0.320408
392 4 0.121392 0.162249 0.266456
391 2 0.106958 0.158666 0.286556
397 2 0.0855379 0.122469 0.326684
403 2 0.180993 0.163418 0.313306
249 4 0.187863 0.132292 0.337904
390 4 0.0986677 0.162411 0.323749
444 4 0.033533 0.251255 0.320453
545 4 0.13375 0.174479 0.255786
544 2 0.156561 0.179112 0.264916
371 4 0.145697 0.230519 0.267304
546 4 0.179372 0.183745 0.274046
723 4 0.235633 0.199621 0.273547
721 2 0.211954 0.196302 0.280861
405 4 0.180361 0.175081 0.291198
722 4 0.188276 0.192983 0.288175
376 2 0.306437 0.235681 0.337587
420 4 0.3818 0.219491 0.286754
717 4 0.367106 0.229925 0.297563
418 2 0.405634 0.213447 0.291295
331 2 0.459433 0.203188 0.31425
332 4 0.447341 0.215278 0.296007
419 4 0.429467 0.207404 0.295837
760 2 0.45602 0.205675 0.259508
762 4 0.440843 0.208208 0.279217
442 2 0.0258247 0.264585 0.300753
364 2 0.0165595 0.318222 0.291137
396 4 0.0241361 0.28434 0.264019
443 4 0.0181164 0.277914 0.281053
365 4 0.0188818 0.296865 0.278343
407 4 0.0176715 0.338237 0.323247
735 4 0.147153 0.320331 0.275636
733 2 0.139469 0.330246 0.254006
508 2 0.233905 0.317638 0.304203
509 4 0.216556 0.332519 0.314338
378 4 0.296815 0.253963 0.323502
510 4 0.251254 0.302757 0.294067
402 4 0.263609 0.307635 0.280182
345 4 0.259437 0.289154 0.284778
343 2 0.278612 0.277647 0.295961
344 4 0.297788 0.26614 0.307145
715 2 0.361809 0.253939 0.302086
716 4 0.356512 0.277953 0.306609
542 4 0.354879 0.296706 0.315411
541 2 0.377471 0.306602 0.319513
543 4 0.400064 0.316499 0.323616
751 2 0.487 0.319939 0.325069
753 4 0.48702 0.330433 0.302374
366 4 0.0142372 0.339579 0.30393
548 4 0.0246666 0.353623 0.313591
547 2 0.0288392 0.376112 0.30349
549 4 0.0330118 0.398601 0.293389
777 4 0.0410622 0.409803 0.309073
2493 4 0.00508304 0.35156 0.316552
677 4 0.154127 0.337915 0.282676
676 2 0.17613 0.33667 0.294486
678 4 0.198134 0.335425 0.306296
435 4 0.206153 0.347602 0.31899
728 4 0.367711 0.384718 0.308948
727 2 0.367062 0.404571 0.324135
2538 4 0.4789 0.335057 0.283707
2536 2 0.49576 0.353448 0.282064
2861 4 0.495852 0.420458 0.315963
775 2 0.0486032 0.429488 0.32252
1543 2 0.142556 0.482144 0.316349
1545 4 0.163133 0.481467 0.30216
1544 4 0.12198 0.482821 0.330537
500 4 0.113344 0.500246 0.335153
1436 4 0.182055 0.490623 0.302682
1435 2 0.191499 0.512084 0.294
729 4 0.366414 0.424423 0.339322
437 4 0.379818 0.437501 0.349056
2238 4 0.990223 0.0399758 0.402866
1772 4 0.00412882 0.0274674 0.394853
1771 2 0.998169 0.00910331 0.378965
730 2 0.0832939 0.0757229 0.357403
732 4 0.101307 0.0627873 0.368951
369 4 0.0899393 0.0520264 0.382259
367 2 0.0954648 0.0296258 0.391895
606 4 0.150729 0.992483 0.380728
604 2 0.168984 0.00956741 0.38096
1701 4 0.196441 0.0441726 0.3794
1699 2 0.204449 0.0676504 0.382539
605 4 0.187239 0.026652 0.381192
258 4 0.345796 0.0567342 0.341848
424 2 0.370486 0.0567987 0.378214
425 4 0.384618 0.051747 0.398213
1580 4 0.399991 0.0391791 0.398441
426 4 0.356354 0.0618504 0.358215
1579 2 0.396258 0.0154266 0.405301
478 2 0.496551 0.0501295 0.361604
480 4 0.495298 0.0595623 0.384726
399 4 0.0721249 0.102322 0.33296
317 4 0.0541941 0.10418 0.340373
731 4 0.0652804 0.0886586 0.345855
316 2 0.0314843 0.112406 0.346837
318 4 0.00877452 0.120631 0.353301
458 4 0.0136665 0.139671 0.35504
457 2 0.00735396 0.158992 0.369602
404 4 0.181625 0.151756 0.335414
247 2 0.19883 0.115692 0.353047
248 4 0.209797 0.0990912 0.36819
1700 4 0.212456 0.0911281 0.385678
319 2 0.324024 0.145031 0.405831
708 4 0.325551 0.159777 0.371303
321 4 0.33703 0.157287 0.388344
516 4 0.458165 0.140784 0.366586
575 4 0.463891 0.141205 0.385936
574 2 0.467215 0.13194 0.408921
514 2 0.468933 0.161245 0.357069
459 4 0.00104142 0.178313 0.384163
389 4 0.0695547 0.199365 0.340706
388 2 0.0841112 0.180888 0.332228
377 4 0.316059 0.2174 0.351672
600 4 0.255377 0.171061 0.426268
707 4 0.304634 0.201294 0.352876
706 2 0.315093 0.180535 0.362089
467 4 0.360481 0.233261 0.371133
466 2 0.348727 0.24958 0.385989
451 2 0.50434 0.211025 0.346273
333 4 0.471524 0.191098 0.332493
453 4 0.481371 0.201149 0.346563
515 4 0.479701 0.181706 0.347551
406 2 0.0327695 0.338625 0.343174
408 4 0.0478675 0.339012 0.3631
347 4 0.0636511 0.341487 0.37479
274 2 0.135127 0.306814 0.360985
276 4 0.145115 0.28702 0.372545
275 4 0.12514 0.326608 0.349425
373 2 0.178581 0.281947 0.395865
375 4 0.163373 0.288407 0.377099
489 4 0.297099 0.247866 0.415366
615 4 0.407474 0.313637 0.341754
468 4 0.336974 0.2659 0.400846
613 2 0.421653 0.305724 0.360768
752 4 0.486981 0.309445 0.347764
614 4 0.435832 0.29781 0.379781
561 4 0.505361 0.314532 0.351437
346 2 0.0569253 0.346847 0.398268
618 4 0.0661742 0.334863 0.357117
348 4 0.0501994 0.352206 0.421746
617 4 0.115206 0.34348 0.35239
616 2 0.0906901 0.339172 0.354753
433 2 0.205639 0.357496 0.341947
434 4 0.205125 0.36739 0.364904
504 4 0.280372 0.408478 0.405331
240 4 0.412834 0.423382 0.407689
335 4 0.39464 0.414763 0.409092
776 4 0.0561443 0.449173 0.335966
414 4 0.0759502 0.443269 0.34048
413 4 0.105169 0.483825 0.338987
412 2 0.0905594 0.463547 0.339734
502 2 0.303952 0.416785 0.40497
503 4 0.327533 0.425093 0.404609
334 2 0.369796 0.417394 0.410112
436 2 0.387971 0.45707 0.362312
438 4 0.396123 0.47664 0.375569
593 4 0.384657 0.492017 0.367155
3990 4 0.466784 0.477136 0.365581
2236 2 0.00211186 0.0478841 0.423391
1126 2 0.0145145 0.0388255 0.478548
1127 4 0.0251189 0.0511124 0.459528
2237 4 0.0140012 0.0557924 0.443916
720 4 0.0299494 0.0661534 0.447447
1780 2 0.0771194 0.99983 0.433916
368 4 0.10099 0.00722516 0.401532
1782 4 0.0871185 0.0119758 0.414482
2429 4 0.239518 0.026211 0.49168
962 4 0.255604 0.014858 0.493907
961 2 0.280565 0.0163165 0.493857
724 2 0.319692 0.0561514 0.484872
963 4 0.305526 0.017775 0.493806
432 4 0.317605 0.0218872 0.507691
725 4 0.319378 0.031892 0.490918
1581 4 0.392525 0.991674 0.412161
2879 4 0.414408 0.0168311 0.462595
642 4 0.439027 0.0648609 0.452576
2878 2 0.423222 0.0361464 0.449389
2880 4 0.432037 0.0554617 0.436183
469 2 0.00306055 0.145214 0.457668
470 4 0.0194365 0.132637 0.443567
718 2 0.0230645 0.0900868 0.449676
719 4 0.0161796 0.11402 0.451905
937 2 0.096276 0.14886 0.504224
939 4 0.110056 0.142161 0.484465
1033 2 0.135183 0.146919 0.459846
1035 4 0.159461 0.145923 0.45395
1034 4 0.110905 0.147915 0.465743
261 4 0.179352 0.146736 0.45783
259 2 0.186909 0.165733 0.472223
726 4 0.320006 0.0804108 0.478825
683 4 0.248907 0.154827 0.41689
320 4 0.311018 0.132775 0.423319
684 4 0.291668 0.131369 0.427931
682 2 0.270287 0.143098 0.42241
1181 4 0.30458 0.135672 0.441488
1182 4 0.321458 0.0988754 0.470846
1180 2 0.313019 0.117274 0.456167
640 2 0.448583 0.0869371 0.445756
576 4 0.470538 0.122676 0.431905
641 4 0.458139 0.109013 0.438937
306 4 0.454426 0.12802 0.441278
304 2 0.445681 0.139881 0.461478
3158 4 0.432337 0.145794 0.500224
305 4 0.436937 0.151742 0.481678
695 4 0.179052 0.197164 0.488098
260 4 0.194465 0.184731 0.486616
687 4 0.234146 0.222598 0.455454
686 4 0.196538 0.204187 0.482792
685 2 0.215342 0.213392 0.469123
474 4 0.239721 0.233049 0.442472
599 4 0.247192 0.216705 0.444986
472 2 0.223302 0.246835 0.429605
694 2 0.160567 0.213249 0.493072
598 2 0.251284 0.193883 0.435627
411 4 0.250683 0.230146 0.455711
409 2 0.261723 0.237155 0.477022
488 4 0.256687 0.230141 0.438892
487 2 0.276893 0.239003 0.427129
410 4 0.272763 0.244164 0.498333
374 4 0.193789 0.275487 0.414631
473 4 0.206883 0.260621 0.416739
267 4 0.35139 0.277433 0.408222
266 4 0.338823 0.313339 0.44068
265 2 0.345106 0.295386 0.424451
2812 2 0.0124687 0.338737 0.439495
2813 4 0.0341538 0.348654 0.431973
326 4 0.0371347 0.366882 0.426889
325 2 0.0521566 0.379074 0.442727
327 4 0.0671786 0.391267 0.458566
7 3 0.0858903 0.395736 0.464197
6 1 0.105167 0.386133 0.47228
709 2 0.149667 0.415659 0.489159
10 3 0.119589 0.382584 0.455016
8 3 0.114761 0.400478 0.48779
9 3 0.0998179 0.365951 0.482404
813 4 0.287465 0.35857 0.47852
811 2 0.26958 0.354151 0.495424
1383 4 0.051261 0.502568 0.487277
680 4 0.0596942 0.492097 0.501265
679 2 0.0575264 0.467287 0.503482
710 4 0.173602 0.414692 0.481995
774 4 0.192517 0.415548 0.485933
634 2 0.193548 0.445999 0.464825
636 4 0.201841 0.469216 0.460655
635 4 0.185256 0.422782 0.468994
669 4 0.333972 0.431509 0.422454
668 4 0.334311 0.477095 0.44301
667 2 0.334141 0.454302 0.432732
4 3 0.317181 0.483634 0.450052
336 4 0.344952 0.420025 0.411133
586 2 0.441344 0.443593 0.475611
588 4 0.447773 0.442615 0.451468
238 2 0.427952 0.438068 0.421141
239 4 0.443069 0.452754 0.434593
1184 4 0.0296692 0.021584 0.568808
3077 4 0.0238489 0.00722608 0.554882
3076 2 0.0106047 0.0160395 0.535593
1183 2 0.0443956 0.00222587 0.574602
1152 4 0.14741 0.0659192 0.533579
1150 2 0.14878 0.0733997 0.557398
1151 4 0.150151 0.0808803 0.581217
342 4 0.1509 0.0493424 0.524163
340 2 0.167496 0.0313833 0.518946
2428 2 0.218912 0.0138014 0.498504
2430 4 0.198306 0.00139168 0.505327
341 4 0.184092 0.0134241 0.51373
430 2 0.33885 0.0112946 0.515541
841 2 0.389731 0.022393 0.539657
842 4 0.410906 0.0356752 0.54027
843 4 0.368556 0.00911076 0.539044
431 4 0.360095 0.000702045 0.523391
1217 4 0.429131 0.0297021 0.547857
1216 2 0.440874 0.00820311 0.54285
1061 4 0.500088 0.0785745 0.529318
877 2 0.0404521 0.164054 0.520419
878 4 0.0154616 0.163446 0.520954
879 4 0.0654426 0.164661 0.519884
1155 4 0.153988 0.0951939 0.594635
3159 4 0.456454 0.12479 0.538668
3157 2 0.444396 0.135292 0.519446
1062 4 0.473971 0.121197 0.530704
1060 2 0.48703 0.0998859 0.530011
938 4 0.0824959 0.15556 0.523982
1272 4 0.0760104 0.169517 0.534881
1270 2 0.0831946 0.178735 0.556985
1258 2 0.138504 0.230789 0.543934
1259 4 0.135501 0.233387 0.56862
1260 4 0.141506 0.228192 0.519248
696 4 0.142083 0.229335 0.498046
898 2 0.294465 0.24112 0.527653
899 4 0.312085 0.228904 0.540518
857 4 0.302706 0.221777 0.555297
791 4 0.319601 0.231175 0.558264
900 4 0.276845 0.253335 0.514788
856 2 0.300095 0.201123 0.569146
858 4 0.297485 0.18047 0.582995
790 2 0.341187 0.243284 0.554714
651 4 0.283155 0.326649 0.570066
649 2 0.270564 0.33438 0.549895
806 4 0.300209 0.337903 0.566793
805 2 0.319899 0.326053 0.576645
792 4 0.362773 0.255392 0.551164
872 4 0.36879 0.272567 0.545146
1238 4 0.366324 0.269883 0.564441
871 2 0.375595 0.282973 0.523452
873 4 0.382401 0.293378 0.501759
1237 2 0.357676 0.285904 0.581579
1137 4 0.109034 0.387379 0.572441
897 4 0.124994 0.399817 0.574651
895 2 0.145955 0.409331 0.584411
711 4 0.125731 0.416626 0.496323
773 4 0.215257 0.409833 0.530103
1189 2 0.199886 0.408581 0.567113
1190 4 0.216954 0.404949 0.549205
803 4 0.224941 0.393918 0.535868
802 2 0.23231 0.370476 0.531251
804 4 0.239679 0.347033 0.526634
930 4 0.232312 0.412012 0.539115
650 4 0.257974 0.342112 0.529724
812 4 0.251695 0.349732 0.512329
925 2 0.432806 0.403203 0.515096
927 4 0.43303 0.379894 0.524141
539 4 0.0796909 0.504744 0.541562
681 4 0.0553587 0.442476 0.505699
383 4 0.075655 0.441109 0.511983
384 4 0.121135 0.42082 0.51653
382 2 0.098395 0.430965 0.514257
569 4 0.138106 0.429067 0.522674
568 2 0.147429 0.447091 0.537282
570 4 0.156751 0.465115 0.55189
772 2 0.203887 0.41269 0.508018
928 2 0.254396 0.423214 0.535653
929 4 0.276481 0.434415 0.532191
1951 2 0.28522 0.470467 0.526021
1953 4 0.288366 0.446417 0.519948
1952 4 0.282075 0.494517 0.532093
663 4 0.417077 0.438727 0.505718
661 2 0.414668 0.454888 0.524644
1001 4 0.408578 0.488543 0.550357
662 4 0.412259 0.471048 0.543571
1330 2 0.449425 0.49338 0.540392
926 4 0.432582 0.426513 0.506052
1911 4 0.420745 0.476916 0.560044
1332 4 0.42665 0.483551 0.543538
1909 2 0.426535 0.463523 0.580349
587 4 0.434915 0.44457 0.499754
2374 2 0.14069 0.00949672 0.622019
2375 4 0.122884 0.0245502 0.631047
1057 2 0.130876 0.0627273 0.61191
1058 4 0.121805 0.0438975 0.625633
950 4 0.233064 0.016946 0.598188
949 2 0.246515 0.0343495 0.610078
2398 2 0.324777 0.00110871 0.657956
2400 4 0.313744 0.0189374 0.644333
951 4 0.259966 0.0517529 0.621968
1031 4 0.268114 0.0455206 0.640961
1030 2 0.290092 0.0572165 0.643274
1032 4 0.31207 0.0689123 0.645588
43 3 0.458793 0.0595228 0.644113
45 3 0.485261 0.0390767 0.661406
41 1 0.471139 0.0568117 0.663571
44 3 0.483263 0.0760909 0.668011
1059 4 0.139946 0.0815571 0.598186
1153 2 0.157244 0.119643 0.590536
1154 4 0.1605 0.144093 0.586438
1209 4 0.0967379 0.167421 0.637727
1207 2 0.0969207 0.163873 0.662477
1221 4 0.165744 0.158367 0.60048
888 4 0.245581 0.151816 0.671803
810 4 0.488983 0.0914968 0.656682
808 2 0.49158 0.0986018 0.63285
809 4 0.494176 0.105707 0.609018
3250 2 0.500199 0.146252 0.595773
3252 4 0.498798 0.121369 0.597781
3008 4 0.510073 0.105362 0.598211
1271 4 0.0903789 0.187953 0.579089
1244 4 0.0928253 0.203677 0.592343
1243 2 0.0887324 0.193696 0.6149
1245 4 0.0846395 0.183716 0.637457
1219 2 0.188986 0.167475 0.599047
1220 4 0.212228 0.176582 0.597615
1210 2 0.23339 0.167661 0.631131
1212 4 0.228952 0.174604 0.607524
797 4 0.205564 0.240206 0.604803
796 2 0.21285 0.216288 0.604995
798 4 0.220136 0.192371 0.605187
1211 4 0.237827 0.160718 0.654738
3121 2 0.480956 0.206946 0.59484
3122 4 0.499355 0.190255 0.591991
3123 4 0.462558 0.223636 0.597688
905 4 0.470336 0.238017 0.608761
807 4 0.339589 0.314204 0.586497
1239 4 0.349028 0.301925 0.598716
906 4 0.463248 0.286986 0.616007
904 2 0.466792 0.262501 0.612384
953 4 0.466624 0.300023 0.599764
952 2 0.483699 0.318273 0.599013
982 2 0.0288312 0.334226 0.653233
984 4 0.0453035 0.352199 0.658783
1041 4 0.0614191 0.361821 0.66348
1039 2 0.0681618 0.375494 0.643662
993 4 0.056941 0.397334 0.619428
1040 4 0.0749045 0.389168 0.623844
1135 2 0.106506 0.363739 0.580184
1136 4 0.103978 0.3401 0.587928
896 4 0.166917 0.418846 0.594171
1028 4 0.188091 0.387002 0.647507
1027 2 0.182501 0.395921 0.624828
1029 4 0.17691 0.40484 0.602148
1191 4 0.182819 0.412212 0.585021
1068 4 0.174875 0.398687 0.656734
954 4 0.500774 0.336523 0.598262
1206 4 0.482915 0.410938 0.620191
3309 4 0.496831 0.400348 0.612537
3307 2 0.502161 0.377652 0.603498
991 2 0.0537959 0.42112 0.612392
992 4 0.0506509 0.444906 0.605356
1159 2 0.179995 0.511274 0.593776
1172 4 0.184341 0.423091 0.600524
1160 4 0.182438 0.49155 0.608948
1171 2 0.181834 0.4478 0.603415
1173 4 0.179328 0.472509 0.606306
1187 4 0.167286 0.48282 0.617981
1186 2 0.168484 0.488619 0.642273
1268 4 0.446959 0.484748 0.655928
1267 2 0.439103 0.469497 0.637738
1204 2 0.462389 0.424923 0.61731
1910 4 0.432325 0.450131 0.600654
1269 4 0.431246 0.454246 0.619549
1205 4 0.441863 0.438907 0.61443
2168 4 0.458084 0.495891 0.642173
1284 4 0.10232 0.0495148 0.713437
1282 2 0.119234 0.0669204 0.707426
2047 2 0.160988 0.000532578 0.742598
1225 2 0.170302 0.0859289 0.693478
2049 4 0.185467 0.00547282 0.741367
1201 2 0.193457 0.0425726 0.725669
1203 4 0.1943 0.0612211 0.709035
1226 4 0.193214 0.076508 0.696859
1148 4 0.206848 0.0755872 0.711359
42 3 0.456705 0.0529136 0.681053
1077 4 0.0183322 0.119885 0.746357
864 4 0.0318447 0.134885 0.747394
850 2 0.0678484 0.163621 0.709572
852 4 0.0441257 0.16997 0.714272
1214 4 0.0253742 0.161975 0.717862
1283 4 0.136149 0.0843259 0.701415
909 4 0.103593 0.144021 0.696586
907 2 0.118622 0.124132 0.698514
908 4 0.133651 0.104242 0.700441
1227 4 0.147389 0.0953499 0.690096
851 4 0.0915712 0.157271 0.704872
1208 4 0.0971035 0.160324 0.687226
1107 4 0.110553 0.16192 0.701403
1147 2 0.219581 0.0945191 0.721588
1149 4 0.232315 0.113451 0.731816
1257 4 0.240544 0.124177 0.745937
829 2 0.323648 0.152113 0.697712
830 4 0.303279 0.166613 0.697851
831 4 0.344017 0.137612 0.697573
1142 4 0.354924 0.145685 0.712712
1141 2 0.37653 0.15806 0.710427
1026 4 0.411307 0.158599 0.71702
3426 4 0.483733 0.0942925 0.67509
1025 4 0.443658 0.120702 0.721261
3424 2 0.469126 0.100901 0.694278
3425 4 0.454519 0.107509 0.713465
3269 4 0.462223 0.118723 0.727312
1024 2 0.427483 0.13965 0.719141
3268 2 0.475474 0.133876 0.742144
845 4 0.449207 0.105709 0.732588
844 2 0.445706 0.0848756 0.745963
1213 2 0.00817537 0.17738 0.727457
1105 2 0.130483 0.17633 0.70591
1106 4 0.150414 0.190741 0.710417
1130 4 0.154589 0.195762 0.728202
1129 2 0.152281 0.209164 0.749184
887 4 0.284168 0.16812 0.699116
886 2 0.264875 0.159968 0.68546
978 4 0.296903 0.173062 0.713943
976 2 0.301008 0.190763 0.731118
916 2 0.323015 0.241487 0.741557
918 4 0.320461 0.218968 0.75212
1143 4 0.398136 0.170435 0.708141
1262 4 0.409345 0.176469 0.722831
1192 2 0.421977 0.181403 0.682025
1194 4 0.417255 0.173349 0.70522
1193 4 0.426699 0.189458 0.65883
1261 2 0.41814 0.185762 0.744313
1044 4 0.463863 0.243681 0.74258
3262 2 0.0718885 0.331706 0.686727
3264 4 0.0843534 0.320982 0.705563
892 2 0.0738908 0.321792 0.742897
893 4 0.0778396 0.311182 0.720603
779 4 0.0944153 0.305904 0.713026
778 2 0.112458 0.2901 0.72009
780 4 0.1305 0.274296 0.727154
1065 4 0.260717 0.278053 0.680625
1064 4 0.285206 0.315961 0.702165
1063 2 0.272961 0.297007 0.691395
946 2 0.313048 0.294373 0.729639
948 4 0.295037 0.308173 0.719134
917 4 0.325569 0.264005 0.730994
947 4 0.331059 0.280574 0.740145
1008 4 0.472572 0.304765 0.712324
1006 2 0.471298 0.28148 0.721342
1007 4 0.470024 0.258194 0.730361
1166 4 0.476946 0.256756 0.748584
3263 4 0.0594236 0.34243 0.667891
941 4 0.141348 0.401036 0.71451
1067 4 0.150437 0.409432 0.699019
940 2 0.130096 0.394764 0.73594
1066 2 0.162656 0.40406 0.677877
1176 4 0.118675 0.516519 0.709065
1174 2 0.137455 0.509011 0.694364
1175 4 0.156235 0.501503 0.679663
1188 4 0.169683 0.494418 0.666565
1139 4 0.300235 0.473028 0.685374
1138 2 0.312769 0.467171 0.706201
1140 4 0.325303 0.461313 0.727028
1989 4 0.311022 0.451844 0.735371
1229 4 0.327445 0.442517 0.731009
1230 4 0.37585 0.432126 0.738062
1100 4 0.393688 0.432807 0.745589
1228 2 0.351648 0.437322 0.734535
1099 2 0.411138 0.447029 0.734708
1101 4 0.428588 0.461252 0.723827
3330 4 0.448439 0.458168 0.724951
3328 2 0.464493 0.451806 0.706868
1251 4 0.439655 0.470842 0.735464
3329 4 0.480546 0.445445 0.688785
1249 2 0.44249 0.491654 0.74903
834 4 0.0373547 0.0682786 0.815252
785 4 0.0219343 0.0790652 0.820871
1202 4 0.192615 0.023924 0.742304
2256 4 0.201017 0.00951225 0.752698
1113 4 0.356431 0.065996 0.784963
2321 4 0.448018 0.0150289 0.809073
2322 4 0.447997 0.049899 0.773229
2320 2 0.448007 0.032464 0.791151
846 4 0.442205 0.0640421 0.759338
980 4 0.43409 0.00832451 0.820852
979 2 0.412437 0.0104777 0.833169
832 2 0.0515744 0.0857548 0.80441
862 2 0.0449869 0.127605 0.767381
863 4 0.0581292 0.120326 0.787367
833 4 0.0657941 0.103231 0.793567
1125 4 0.0691486 0.119431 0.803953
1123 2 0.0719643 0.139102 0.81913
1124 4 0.0747799 0.158772 0.834306
34 3 0.114256 0.158767 0.812538
911 4 0.163432 0.118122 0.832921
1255 2 0.229742 0.133518 0.766462
921 4 0.209172 0.136719 0.801809
919 2 0.1964 0.15751 0.807263
840 4 0.227485 0.137741 0.804455
1256 4 0.218941 0.14286 0.786986
838 2 0.249526 0.140916 0.815825
839 4 0.271567 0.14409 0.827196
1111 2 0.374115 0.0799644 0.795796
1112 4 0.391798 0.0939329 0.806629
818 4 0.39888 0.098904 0.823911
3270 4 0.488725 0.149029 0.756976
1146 4 0.481898 0.161159 0.771082
1131 4 0.149974 0.222567 0.770165
822 4 0.15026 0.241332 0.774618
31 1 0.109576 0.175119 0.828322
1277 4 0.154494 0.228456 0.788526
1276 2 0.164072 0.211465 0.80417
920 4 0.183628 0.178302 0.812717
1278 4 0.17365 0.194475 0.819815
977 4 0.305114 0.208465 0.748293
1298 4 0.317806 0.200011 0.759413
1297 2 0.333966 0.202145 0.778373
959 4 0.273808 0.162366 0.835902
1299 4 0.350127 0.204279 0.797332
1086 4 0.348406 0.188227 0.80641
50 3 0.401257 0.214042 0.796207
1084 2 0.357919 0.173698 0.824399
46 1 0.422808 0.206868 0.794561
49 3 0.435439 0.222377 0.782798
1043 4 0.442083 0.20774 0.769684
48 3 0.431766 0.203787 0.815742
47 3 0.42328 0.186816 0.783298
1263 4 0.426934 0.195054 0.765795
1145 4 0.441792 0.190313 0.777586
1144 2 0.461845 0.175736 0.774334
1042 2 0.452973 0.22571 0.756132
1022 4 0.436938 0.189013 0.827369
3189 4 0.984135 0.313619 0.78612
820 2 0.154436 0.264192 0.765392
821 4 0.158612 0.287053 0.756166
1236 4 0.219805 0.317496 0.774163