ITEM: TIMESTEP
2750000
ITEM: NUMBER OF ATOMS
4590
ITEM: BOX BOUNDS pp pp pp
-9.9985700000000008e+00 9.9985700000000008e+00
-9.9985700000000008e+00 9.9985700000000008e+00
-9.9985700000000008e+00 9.9985700000000008e+00
ITEM: ATOMS id type xs ys zs
465 4 0.0888914 0.0637885 0.0275495
591 4 0.993646 0.0909144 0.0729363
701 4 0.103073 0.0742191 0.0168024
700 2 0.125304 0.0631652 0.0138413
702 4 0.147535 0.0521114 0.0108802
566 4 0.158963 0.0652379 0.0201049
746 4 0.477727 0.0645114 0.027627
2467 2 0.502172 0.0339044 0.0502858
2469 4 0.48831 0.0516797 0.0394657
745 2 0.467504 0.0637432 0.00482168
463 2 0.0659382 0.0736949 0.0279869
590 4 0.0304943 0.0951104 0.0393905
464 4 0.0429849 0.0836013 0.0284242
589 2 0.0120702 0.0930124 0.0561634
558 4 0.354104 0.121333 0.0353651
556 2 0.352701 0.114139 0.0592703
865 2 0.361074 0.164306 0.00707094
557 4 0.351298 0.106945 0.0831755
771 4 0.462321 0.13634 0.0494441
769 2 0.464444 0.149383 0.0706705
554 4 0.0357056 0.208153 0.0222518
553 2 0.0594884 0.2028 0.0278113
555 4 0.0832712 0.197448 0.0333709
835 2 0.122065 0.204106 0.0269727
836 4 0.102391 0.196114 0.0401729
837 4 0.141739 0.212098 0.0137725
915 4 0.157228 0.209738 0.00137685
573 4 0.322824 0.234802 0.0582993
461 4 0.330859 0.237449 0.0754048
666 4 0.33078 0.219598 0.0675188
664 2 0.337074 0.207042 0.0468325
665 4 0.343368 0.194486 0.0261462
867 4 0.354249 0.178409 0.0265569
1070 4 0.436231 0.235674 0.0763078
2808 4 0.0319692 0.319691 0.0195431
2806 2 0.0177655 0.305474 0.0344201
2807 4 0.00356185 0.291258 0.049297
294 4 0.105282 0.327573 0.0831536
292 2 0.120099 0.32662 0.0630363
356 4 0.30933 0.293749 0.0346489
572 4 0.322871 0.283091 0.0453039
355 2 0.299638 0.314361 0.0243341
571 2 0.322848 0.258946 0.0518016
1069 2 0.431973 0.259975 0.0722413
322 2 0.446237 0.318058 0.0743105
1071 4 0.427714 0.284275 0.0681747
323 4 0.464027 0.335124 0.0701328
324 4 0.428447 0.300992 0.0784882
647 4 0.0217962 0.358775 0.0645893
646 2 0.0399261 0.346204 0.0763565
620 4 0.00698729 0.368589 0.0756315
293 4 0.134917 0.325667 0.042919
507 4 0.138615 0.338975 0.0274889
505 2 0.1626 0.345725 0.0254039
481 2 0.21932 0.381061 0.0211808
482 4 0.234852 0.400501 0.0236387
483 4 0.203789 0.361621 0.0187228
506 4 0.186584 0.352476 0.0233189
609 4 0.253135 0.405475 0.0288412
357 4 0.289947 0.334973 0.0140194
902 4 0.295261 0.347912 0.000909234
957 4 0.356241 0.394595 0.0193361
672 4 0.462122 0.355539 0.0703347
671 4 0.493136 0.394621 0.0669497
670 2 0.477629 0.37508 0.0686422
281 4 0.502281 0.401519 0.0506717
551 4 0.0341408 0.444688 0.0708311
550 2 0.057089 0.454514 0.0722473
552 4 0.0800372 0.46434 0.0736636
1787 4 0.0980962 0.461273 0.0657298
1786 2 0.111512 0.468687 0.0459757
1788 4 0.124927 0.476102 0.0262216
242 4 0.0904251 0.449278 0.0791812
246 4 0.238907 0.48092 0.0374767
244 2 0.225722 0.46265 0.04832
245 4 0.212538 0.444381 0.0591633
625 2 0.19103 0.425091 0.086698
272 4 0.25113 0.483695 0.0226859
1778 4 0.242145 0.499074 0.030506
627 4 0.202291 0.444965 0.0765294
607 2 0.268739 0.424966 0.0301763
608 4 0.284344 0.444457 0.0315115
252 4 0.290245 0.451032 0.0501568
250 2 0.311536 0.460962 0.0415954
251 4 0.332826 0.470892 0.0330341
2289 4 0.34868 0.480372 0.026226
2287 2 0.356028 0.498492 0.0106433
523 2 0.410856 0.46921 0.0831064
280 2 0.493169 0.422633 0.0408559
525 4 0.427454 0.482196 0.0696512
282 4 0.484058 0.443747 0.0310401
226 2 0.45932 0.464171 0.0534797
227 4 0.475121 0.445437 0.0485302
228 4 0.443518 0.482906 0.0584291
563 4 0.440348 0.496829 0.0722299
16 1 0.0654712 0.0429383 0.147563
20 3 0.0689198 0.0599075 0.132771
1806 4 0.0390561 0.0145494 0.140913
18 3 0.0550497 0.0251498 0.136915
1804 2 0.0358829 0.00277161 0.119087
450 4 0.153881 0.063148 0.175816
675 4 0.0963284 0.0537539 0.15525
17 3 0.0857389 0.0358329 0.155802
673 2 0.116238 0.0578113 0.169822
448 2 0.169297 0.0806277 0.16676
1661 4 0.298763 0.00415152 0.159002
654 4 0.297832 0.0236519 0.163554
652 2 0.31206 0.0433073 0.157519
653 4 0.326287 0.0629627 0.151485
484 2 0.366823 0.0147767 0.108594
297 4 0.352498 0.0519651 0.120681
485 4 0.364112 0.0355908 0.122181
295 2 0.355982 0.0734269 0.108335
579 4 0.0889284 0.147003 0.105536
237 4 0.151059 0.1485 0.130833
578 4 0.135232 0.156563 0.121825
577 2 0.11208 0.151783 0.113681
235 2 0.167324 0.131857 0.139977
476 4 0.142808 0.16494 0.138084
737 4 0.152598 0.165075 0.121374
236 4 0.18359 0.115214 0.149122
693 4 0.19612 0.101945 0.142668
449 4 0.184712 0.0981073 0.157705
691 2 0.21991 0.107474 0.137314
692 4 0.243699 0.113003 0.13196
582 4 0.260004 0.108051 0.120859
580 2 0.278862 0.111128 0.136986
581 4 0.297721 0.114204 0.153113
30 3 0.309077 0.129513 0.162227
296 4 0.359466 0.0948887 0.0959888
475 2 0.134893 0.180591 0.155904
736 2 0.170015 0.17506 0.10647
738 4 0.187432 0.185044 0.0915662
29 3 0.32477 0.1628 0.154267
354 4 0.314503 0.242665 0.134688
283 2 0.322851 0.203145 0.14102
285 4 0.322915 0.178168 0.142157
284 4 0.322787 0.228123 0.139884
462 4 0.327707 0.236086 0.125294
460 2 0.329283 0.236767 0.100349
255 4 0.331007 0.243435 0.140972
253 2 0.352209 0.249074 0.152966
770 4 0.466567 0.162426 0.0918968
1014 4 0.47575 0.162663 0.109297
1013 4 0.481928 0.212283 0.108675
1012 2 0.478839 0.187473 0.108986
749 4 0.0530878 0.312692 0.163894
456 4 0.0554895 0.340777 0.107109
610 2 0.232553 0.330555 0.10919
612 4 0.240804 0.307751 0.103103
352 2 0.298285 0.258112 0.145804
756 4 0.247861 0.307975 0.122288
353 4 0.282068 0.27356 0.15692
754 2 0.255866 0.293708 0.141197
755 4 0.263871 0.279442 0.160107
278 4 0.268548 0.260547 0.161947
254 4 0.37341 0.254714 0.164961
455 4 0.0623809 0.328685 0.15514
454 2 0.0589352 0.334731 0.131124
648 4 0.058056 0.333633 0.0881236
626 4 0.179769 0.405217 0.0968667
611 4 0.224301 0.353359 0.115278
536 4 0.174706 0.387377 0.0884057
535 2 0.190149 0.371727 0.100311
537 4 0.205593 0.356076 0.112217
302 4 0.323452 0.417936 0.133096
387 4 0.343013 0.40997 0.127051
741 4 0.424915 0.377397 0.109928
739 2 0.413034 0.383695 0.131008
740 4 0.401154 0.389994 0.152088
385 2 0.363937 0.405471 0.139979
386 4 0.384861 0.400973 0.152906
495 4 0.401546 0.406532 0.162087
15 3 0.384484 0.382755 0.160554
241 2 0.110478 0.442367 0.0924216
1438 2 0.157615 0.460993 0.114901
243 4 0.13053 0.435455 0.105662
1440 4 0.133741 0.453566 0.114734
1439 4 0.18149 0.468419 0.115068
637 2 0.224408 0.481276 0.113925
638 4 0.248465 0.487916 0.112402
639 4 0.20035 0.474637 0.115448
767 4 0.263085 0.499811 0.115674
303 4 0.307665 0.45655 0.10552
766 2 0.283354 0.485217 0.11684
768 4 0.303623 0.470624 0.118006
301 2 0.315558 0.437243 0.119308
524 4 0.394258 0.456223 0.0965616
493 2 0.409173 0.430101 0.158692
494 4 0.416801 0.453669 0.155297
660 4 0.418188 0.46781 0.142724
658 2 0.432221 0.48296 0.156821
19 3 0.052383 0.0503679 0.165224
380 4 0.0475792 0.0581843 0.183498
1505 4 0.145732 0.0454517 0.178859
674 4 0.136147 0.0618687 0.184393
689 4 0.176901 0.999851 0.208876
1504 2 0.162304 0.0326976 0.192566
1506 4 0.178876 0.0199436 0.206273
23 3 0.400025 0.013303 0.228655
22 3 0.41159 0.0215129 0.193849
21 1 0.4182 0.0131485 0.214232
757 2 0.475002 0.0261095 0.214193
25 3 0.434893 0.0261694 0.222627
759 4 0.453025 0.0298783 0.225507
350 4 0.441644 0.025718 0.240823
758 4 0.496979 0.0223407 0.20288
379 2 0.0452794 0.083081 0.183288
512 4 0.043525 0.125087 0.192711
381 4 0.0429795 0.107978 0.183079
511 2 0.0572452 0.138842 0.208451
513 4 0.0709654 0.152597 0.22419
26 1 0.315618 0.149511 0.170942
28 3 0.297456 0.160271 0.180572
27 3 0.331548 0.145873 0.187133
311 4 0.437342 0.152809 0.195696
339 4 0.0883108 0.159305 0.214544
337 2 0.104209 0.174476 0.202616
477 4 0.126978 0.196243 0.173725
363 4 0.124112 0.208954 0.188335
338 4 0.120107 0.189646 0.190688
362 4 0.138077 0.245678 0.219271
361 2 0.131094 0.227316 0.203803
372 4 0.141043 0.260144 0.232373
723 4 0.216369 0.207707 0.239114
628 2 0.390966 0.231602 0.189985
629 4 0.396132 0.209208 0.199833
630 4 0.3858 0.253997 0.180137
420 4 0.391613 0.227233 0.261725
312 4 0.411721 0.195525 0.20013
310 2 0.424532 0.174167 0.197913
761 4 0.487879 0.230764 0.228752
750 4 0.0307816 0.293122 0.204146
395 4 0.0166783 0.297783 0.216808
748 2 0.0419347 0.302907 0.18402
394 2 0.0195852 0.288235 0.239733
370 2 0.155659 0.27866 0.24066
300 4 0.101792 0.278735 0.227487
298 2 0.102811 0.303523 0.230605
299 4 0.10383 0.32831 0.233723
371 4 0.170276 0.297177 0.248946
279 4 0.248646 0.261216 0.207818
277 2 0.258597 0.260881 0.184882
401 4 0.276798 0.28879 0.237121
498 4 0.273448 0.306027 0.226932
496 2 0.283243 0.321225 0.209662
764 4 0.404951 0.310258 0.183785
765 4 0.375726 0.270216 0.177205
763 2 0.390339 0.290237 0.180495
624 4 0.471037 0.308511 0.168663
622 2 0.447046 0.31238 0.174551
528 4 0.489648 0.310988 0.176664
623 4 0.423056 0.316248 0.180439
262 2 0.0359673 0.399856 0.217728
263 4 0.049467 0.381584 0.228171
602 4 0.0624649 0.367493 0.220097
601 2 0.0847092 0.357527 0.225669
734 4 0.108724 0.339885 0.248696
603 4 0.106954 0.347561 0.23124
290 4 0.164367 0.391454 0.23281
289 2 0.176068 0.410213 0.221132
308 4 0.307632 0.339828 0.179523
497 4 0.293037 0.336422 0.192391
307 2 0.332535 0.337732 0.180325
309 4 0.357437 0.335636 0.181127
14 3 0.408638 0.403692 0.18045
11 1 0.394231 0.38551 0.180952
13 3 0.37793 0.388764 0.197141
12 3 0.406269 0.366627 0.18621
644 4 0.503351 0.405371 0.196142
447 4 0.502729 0.388854 0.206678
264 4 0.0224676 0.418128 0.207285
2618 4 0.0186364 0.436829 0.213146
291 4 0.187768 0.428971 0.209453
416 4 0.178765 0.442913 0.222147
415 2 0.195474 0.4605 0.216089
1430 4 0.208534 0.492562 0.195513
417 4 0.212184 0.478086 0.210031
643 2 0.496611 0.429128 0.200056
597 4 0.485519 0.469559 0.212976
596 4 0.455965 0.501095 0.187822
659 4 0.446255 0.49811 0.170918
595 2 0.470742 0.485327 0.200399
1799 4 0.0144299 0.0212367 0.298774
233 4 0.00567839 0.038727 0.298744
1402 2 0.0499991 0.0411509 0.302885
1403 4 0.0253518 0.0369549 0.302597
1404 4 0.0746464 0.0453468 0.303173
1798 2 0.00741028 0.00745528 0.318421
633 4 0.371687 0.0446827 0.298392
631 2 0.383097 0.0537201 0.278062
257 4 0.358537 0.0555254 0.30844
698 4 0.362163 0.0366579 0.313703
697 2 0.360951 0.0119029 0.317004
632 4 0.394507 0.0627576 0.257731
256 2 0.365516 0.0706536 0.327084
349 2 0.446975 0.03067 0.264744
744 4 0.466305 0.023431 0.297053
742 2 0.472031 0.0245072 0.321368
351 4 0.452306 0.035622 0.288666
398 4 0.0753022 0.148995 0.311854
397 2 0.0675383 0.129048 0.324777
390 4 0.0795585 0.1671 0.309758
393 4 0.0900558 0.153581 0.299805
545 4 0.13732 0.154831 0.25028
392 4 0.118065 0.154705 0.258393
391 2 0.10406 0.154143 0.279099
404 4 0.199026 0.151453 0.321139
403 2 0.18836 0.165432 0.303363
521 4 0.484203 0.148034 0.256188
520 2 0.507306 0.152565 0.247766
444 4 0.0184868 0.225667 0.30267
442 2 0.0184526 0.247901 0.291231
388 2 0.0791412 0.191913 0.312809
544 2 0.156789 0.16842 0.258123
721 2 0.201629 0.200835 0.258106
546 4 0.176257 0.182008 0.265965
405 4 0.177694 0.179411 0.285587
722 4 0.18689 0.193962 0.277098
378 4 0.304524 0.242334 0.331799
376 2 0.312105 0.218601 0.333916
717 4 0.381814 0.238055 0.247307
418 2 0.41403 0.216175 0.262328
331 2 0.454481 0.211316 0.302203
332 4 0.445879 0.210474 0.278741
419 4 0.436448 0.205118 0.262931
760 2 0.471593 0.221235 0.245157
762 4 0.455306 0.211706 0.261562
333 4 0.463084 0.212158 0.325665
453 4 0.480339 0.220824 0.330664
364 2 0.0204544 0.309283 0.291212
396 4 0.0224921 0.278687 0.262659
443 4 0.0184183 0.270134 0.279793
365 4 0.0148878 0.289632 0.276788
366 4 0.0260209 0.328933 0.305635
677 4 0.155618 0.33534 0.297755
676 2 0.180252 0.338878 0.300175
508 2 0.240229 0.317589 0.305759
509 4 0.219769 0.33142 0.309665
678 4 0.204885 0.342415 0.302594
510 4 0.26069 0.303758 0.301853
400 2 0.27344 0.29247 0.261623
402 4 0.270083 0.296149 0.286125
345 4 0.278886 0.296742 0.303742
343 2 0.292445 0.278009 0.313251
344 4 0.306003 0.259276 0.32276
715 2 0.378548 0.259795 0.259217
716 4 0.375281 0.281536 0.271128
542 4 0.377647 0.281933 0.290476
541 2 0.391869 0.294419 0.306817
543 4 0.40609 0.306905 0.323158
2493 4 0.00822662 0.333387 0.313408
407 4 0.0213963 0.324644 0.324479
548 4 0.024166 0.343039 0.319278
547 2 0.0323941 0.366533 0.321632
549 4 0.0406221 0.390026 0.323985
735 4 0.137373 0.333833 0.289234
733 2 0.123048 0.336859 0.268965
728 4 0.349858 0.383703 0.296847
727 2 0.362534 0.404086 0.303849
751 2 0.484009 0.33198 0.332911
2538 4 0.47919 0.350292 0.300387
753 4 0.47407 0.334146 0.31007
2536 2 0.493196 0.363476 0.284412
1543 2 0.155288 0.477792 0.327209
1545 4 0.179313 0.474079 0.32136
1436 4 0.19123 0.48862 0.313288
729 4 0.375209 0.424469 0.310852
437 4 0.384974 0.440078 0.317349
2861 4 0.496731 0.436421 0.284526
730 2 0.0692233 0.0703999 0.348038
732 4 0.0825407 0.0500868 0.353971
369 4 0.095626 0.0397249 0.364372
367 2 0.0921624 0.031142 0.3876
605 4 0.185288 0.0528031 0.400914
604 2 0.17202 0.0340979 0.410876
1701 4 0.197847 0.069124 0.402651
426 4 0.374241 0.0900563 0.364559
424 2 0.38614 0.0755029 0.381045
425 4 0.398038 0.0609495 0.397531
1580 4 0.396959 0.0436657 0.407029
2664 4 0.497012 0.0222387 0.348485
743 4 0.477758 0.0255833 0.345684
479 4 0.485662 0.0285868 0.363001
478 2 0.485811 0.0527221 0.369531
480 4 0.485961 0.0768574 0.376062
458 4 0.0104031 0.141464 0.371516
318 4 0.0201697 0.129742 0.384946
399 4 0.0597743 0.109101 0.3377
317 4 0.0499191 0.104035 0.354045
731 4 0.0559059 0.090713 0.342105
316 2 0.0350444 0.116889 0.369495
249 4 0.198981 0.133357 0.331039
1699 2 0.194688 0.0938789 0.401105
247 2 0.195009 0.12815 0.35517
248 4 0.191037 0.122944 0.3793
1700 4 0.191529 0.118634 0.399559
319 2 0.330755 0.13191 0.394911
320 4 0.310976 0.122772 0.407176
682 2 0.272112 0.141498 0.409696
683 4 0.250441 0.153568 0.406556
684 4 0.293783 0.129428 0.412836
1181 4 0.302246 0.114378 0.422406
258 4 0.372495 0.0857818 0.345728
321 4 0.350535 0.141048 0.382645
708 4 0.34685 0.149343 0.364529
516 4 0.484727 0.15927 0.357657
575 4 0.477855 0.149316 0.37423
574 2 0.472206 0.138271 0.395939
389 4 0.078724 0.216727 0.315859
600 4 0.25876 0.172643 0.408463
377 4 0.319686 0.194869 0.336033
489 4 0.30618 0.250235 0.424097
707 4 0.332889 0.195045 0.349792
706 2 0.33987 0.172194 0.35716
466 2 0.364827 0.229662 0.416922
515 4 0.477794 0.201985 0.332597
514 2 0.481261 0.180627 0.345127
451 2 0.496399 0.23821 0.338724
406 2 0.0276509 0.315665 0.346962
408 4 0.0339056 0.306687 0.369444
275 4 0.141616 0.307585 0.348638
617 4 0.125575 0.31922 0.344393
616 2 0.112312 0.330825 0.36213
435 4 0.21122 0.34397 0.321509
274 2 0.166237 0.303997 0.351116
276 4 0.190857 0.300409 0.353593
373 2 0.206772 0.28942 0.393712
375 4 0.198008 0.296437 0.371371
615 4 0.41438 0.316988 0.338188
267 4 0.366426 0.266991 0.424306
468 4 0.35604 0.252817 0.413484
752 4 0.493948 0.329814 0.355752
777 4 0.0345911 0.400385 0.340639
347 4 0.078716 0.336107 0.38242
346 2 0.0638145 0.335115 0.402473
775 2 0.0549254 0.413585 0.346759
618 4 0.0990484 0.342429 0.379866
433 2 0.209295 0.351774 0.345185
434 4 0.20737 0.359579 0.368862
504 4 0.310542 0.384776 0.40474
613 2 0.426381 0.335795 0.349477
614 4 0.438383 0.354602 0.360766
1544 4 0.131264 0.481506 0.333058
776 4 0.0752597 0.426785 0.352879
414 4 0.0808536 0.444366 0.343042
413 4 0.114637 0.481228 0.34228
412 2 0.0977455 0.462797 0.342661
502 2 0.318108 0.408421 0.401764
503 4 0.325673 0.432066 0.398788
667 2 0.332792 0.464013 0.415908
436 2 0.369815 0.455173 0.330292
438 4 0.354656 0.470269 0.343235
669 4 0.338876 0.446188 0.399463
240 4 0.399931 0.436179 0.398121
335 4 0.389714 0.42626 0.384025
336 4 0.340189 0.433107 0.385067
334 2 0.364951 0.429683 0.384546
3990 4 0.498996 0.489085 0.367118
2236 2 0.00391364 0.0551147 0.414706
1127 4 0.010502 0.0555898 0.455933
2237 4 0.00824119 0.0636411 0.437809
720 4 0.0235237 0.0680867 0.448511
1523 4 0.0861249 0.984911 0.472661
606 4 0.158752 0.0153927 0.420839
1780 2 0.0954203 0.998554 0.430885
368 4 0.0886988 0.022559 0.410827
1782 4 0.099593 0.0052607 0.407162
2428 2 0.219653 0.0142168 0.502147
2429 4 0.238054 0.0111929 0.48549
961 2 0.267228 0.00483679 0.477467
724 2 0.293403 0.0533792 0.480577
726 4 0.28425 0.0765888 0.478929
725 4 0.302556 0.0301696 0.482225
963 4 0.289823 0.0149254 0.481051
432 4 0.30065 0.0170331 0.49694
1579 2 0.389529 0.0213471 0.415506
1581 4 0.382099 0.999028 0.423982
2879 4 0.418198 0.0357702 0.473858
642 4 0.469551 0.0690724 0.452636
2878 2 0.439983 0.047891 0.47194
2880 4 0.461768 0.0600118 0.470023
718 2 0.0311829 0.0916526 0.451853
719 4 0.038842 0.115218 0.455194
939 4 0.0998923 0.119072 0.497779
1033 2 0.131964 0.122855 0.470646
1035 4 0.155921 0.124918 0.463795
261 4 0.157893 0.143763 0.458729
1034 4 0.108006 0.120791 0.477497
259 2 0.167268 0.166923 0.459667
1182 4 0.287184 0.0901238 0.463462
1180 2 0.294715 0.102251 0.442934
576 4 0.466558 0.127227 0.417649
640 2 0.467085 0.0915432 0.441951
641 4 0.464618 0.114014 0.431267
306 4 0.463982 0.134141 0.434435
304 2 0.460623 0.143087 0.457541
3158 4 0.449829 0.149101 0.498417
305 4 0.457264 0.152034 0.480646
694 2 0.169461 0.222272 0.4822
696 4 0.15516 0.240505 0.491593
695 4 0.183761 0.204039 0.472808
260 4 0.176643 0.190084 0.460605
472 2 0.232886 0.245667 0.432644
599 4 0.253192 0.211996 0.438812
687 4 0.237904 0.211475 0.449389
686 4 0.19557 0.190676 0.466003
685 2 0.216737 0.201075 0.457696
474 4 0.247385 0.227726 0.442291
411 4 0.255634 0.216787 0.454956
598 2 0.255976 0.19232 0.423637
409 2 0.262885 0.221646 0.478386
488 4 0.266765 0.224384 0.4408
487 2 0.286472 0.23731 0.432448
410 4 0.270137 0.226505 0.501817
467 4 0.373615 0.206508 0.42036
374 4 0.215536 0.282403 0.416054
473 4 0.218388 0.263609 0.422996
813 4 0.238328 0.30551 0.471286
811 2 0.245177 0.31719 0.492306
266 4 0.333638 0.304367 0.429669
265 2 0.350032 0.285679 0.426988
584 4 0.501406 0.300648 0.468584
2812 2 0.0112214 0.335639 0.438791
348 4 0.048913 0.334123 0.422527
2813 4 0.0360656 0.336995 0.43632
326 4 0.0528945 0.344967 0.439147
325 2 0.0666756 0.359149 0.454448
327 4 0.0804566 0.37333 0.46975
7 3 0.0938185 0.386887 0.474394
6 1 0.11143 0.38455 0.489006
711 4 0.142492 0.411254 0.490279
8 3 0.126859 0.401391 0.484913
709 2 0.165868 0.41596 0.482754
10 3 0.121135 0.364189 0.48586
1383 4 0.0674964 0.466666 0.467468
680 4 0.0503899 0.457788 0.473374
1381 2 0.0694355 0.485508 0.451147
679 2 0.06586 0.448253 0.490548
710 4 0.189243 0.420666 0.47523
774 4 0.208254 0.422848 0.477954
635 4 0.196299 0.43739 0.470351
636 4 0.206007 0.484662 0.457245
634 2 0.201153 0.461026 0.463798
668 4 0.326709 0.481838 0.432353
4 3 0.326241 0.500825 0.427548
239 4 0.419939 0.450063 0.441797
238 2 0.409935 0.443121 0.419959
588 4 0.406412 0.44141 0.452358
586 2 0.403003 0.43335 0.47578
587 4 0.399593 0.425289 0.499202
1184 4 0.00307102 0.0135297 0.561497
342 4 0.151846 0.0446624 0.52804
1152 4 0.160617 0.0625475 0.533513
1150 2 0.157298 0.0714548 0.556639
1151 4 0.153979 0.0803622 0.579766
340 2 0.167297 0.0260411 0.521739
341 4 0.182747 0.00741973 0.515438
2430 4 0.201252 0.0172407 0.518804
430 2 0.316778 0.00660053 0.512948
841 2 0.357633 0.0266108 0.546866
842 4 0.371609 0.0411396 0.561657
1216 2 0.408737 0.0193835 0.565098
1217 4 0.390182 0.0360786 0.563624
843 4 0.343658 0.0120819 0.532076
3009 4 0.493556 0.0549501 0.578459
879 4 0.0520866 0.159652 0.52633
877 2 0.0285419 0.154396 0.532901
878 4 0.00499716 0.149139 0.539473
938 4 0.0676415 0.150666 0.519282
937 2 0.0837669 0.134869 0.508531
1272 4 0.0710128 0.166357 0.529536
1199 4 0.995346 0.143614 0.557122
3159 4 0.460499 0.127775 0.542372
3157 2 0.455164 0.138438 0.520395
1062 4 0.467733 0.110295 0.532124
1060 2 0.482422 0.0905548 0.527682
1270 2 0.0734026 0.183769 0.547321
1271 4 0.0757924 0.201181 0.565106
1258 2 0.13459 0.21953 0.524081
1259 4 0.123157 0.210569 0.544432
1260 4 0.146023 0.228492 0.50373
1244 4 0.0897722 0.20442 0.579863
898 2 0.291845 0.212512 0.534696
899 4 0.310189 0.201124 0.547305
857 4 0.315087 0.183962 0.554305
856 2 0.307835 0.18408 0.578234
791 4 0.328743 0.19605 0.549165
900 4 0.2735 0.2239 0.522088
790 2 0.343381 0.215737 0.553993
792 4 0.358019 0.235425 0.558821
872 4 0.372147 0.248804 0.562279
1238 4 0.353405 0.253202 0.566201
651 4 0.294109 0.325219 0.565886
806 4 0.285954 0.317608 0.583681
649 2 0.278599 0.329917 0.546845
650 4 0.263089 0.334615 0.527805
871 2 0.382636 0.255011 0.540447
1237 2 0.345566 0.268651 0.584229
873 4 0.393125 0.261219 0.518615
1135 2 0.12945 0.363265 0.565115
1136 4 0.116708 0.341771 0.564195
897 4 0.1576 0.378076 0.577885
9 3 0.103434 0.386239 0.510722
384 4 0.141035 0.428788 0.501472
1137 4 0.142191 0.384758 0.566036
773 4 0.231263 0.408266 0.51989
1189 2 0.225195 0.408516 0.561014
1190 4 0.236037 0.410151 0.538543
803 4 0.238699 0.392713 0.529471
802 2 0.242136 0.368112 0.526616
930 4 0.250255 0.407925 0.525927
804 4 0.245572 0.34351 0.523761
812 4 0.252027 0.328871 0.513326
926 4 0.408846 0.418081 0.515088
925 2 0.410332 0.393936 0.521411
927 4 0.411819 0.369791 0.527734
539 4 0.0796634 0.490652 0.507979
1161 4 0.152478 0.492418 0.58032
681 4 0.08133 0.438717 0.507721
383 4 0.0964012 0.449993 0.509146
382 2 0.118718 0.439391 0.505309
569 4 0.156035 0.435627 0.511761
538 2 0.0957853 0.508554 0.514671
568 2 0.172587 0.447233 0.526474
570 4 0.189139 0.45884 0.541188
772 2 0.219759 0.415557 0.498922
928 2 0.270343 0.422776 0.526976
929 4 0.29043 0.437627 0.528025
1951 2 0.303664 0.47099 0.532549
1953 4 0.303841 0.447099 0.539924
1952 4 0.303488 0.49488 0.525173
663 4 0.404264 0.436855 0.513791
1000 2 0.406371 0.499043 0.557349
1001 4 0.426363 0.485103 0.551762
661 2 0.417295 0.454383 0.525962
662 4 0.430327 0.471911 0.538133
1911 4 0.429109 0.466842 0.557707
1332 4 0.444285 0.475744 0.550426
1330 2 0.456575 0.494683 0.539683
1909 2 0.430447 0.454901 0.579634
2375 4 0.164342 0.00694721 0.625615
1155 4 0.149707 0.0867806 0.597988
1059 4 0.148871 0.067633 0.59402
1057 2 0.154835 0.0477858 0.608009
1058 4 0.160799 0.0279386 0.621998
949 2 0.278944 0.0259412 0.627384
951 4 0.294735 0.031992 0.645801
1031 4 0.288905 0.0483113 0.654824
1030 2 0.292296 0.0616757 0.675682
950 4 0.263153 0.0198904 0.608967
3007 2 0.495614 0.075693 0.592267
43 3 0.44462 0.057273 0.662545
1154 4 0.146479 0.136344 0.603799
1153 2 0.148093 0.111562 0.600893
1221 4 0.1646 0.143596 0.610275
1219 2 0.176169 0.164772 0.616825
808 2 0.483042 0.0946758 0.645461
809 4 0.489294 0.102577 0.622578
3252 4 0.50841 0.104808 0.620312
1245 4 0.115579 0.193623 0.621313
1243 2 0.102676 0.199021 0.600588
1209 4 0.111727 0.18572 0.639392
1210 2 0.224504 0.18195 0.639577
1212 4 0.205625 0.19271 0.627209
1220 4 0.187739 0.185948 0.623375
797 4 0.192372 0.243452 0.604892
796 2 0.195085 0.218678 0.60691
798 4 0.197798 0.193904 0.608927
1211 4 0.243383 0.17119 0.651945
858 4 0.300584 0.184198 0.602162
3121 2 0.470898 0.219093 0.625165
3122 4 0.476555 0.199738 0.639949
3357 4 0.474619 0.18132 0.647454
3355 2 0.487985 0.169101 0.664695
3123 4 0.465242 0.238447 0.61038
983 4 5.72717e-05 0.311767 0.630406
982 2 0.0200045 0.317788 0.644228
984 4 0.0399517 0.323809 0.658049
3263 4 0.0540964 0.325679 0.67097
805 2 0.30864 0.310433 0.591364
807 4 0.331326 0.303257 0.599047
1239 4 0.337727 0.284101 0.602258
906 4 0.458025 0.298663 0.627148
905 4 0.474539 0.251649 0.622937
904 2 0.466282 0.275156 0.625042
953 4 0.464493 0.318188 0.62165
952 2 0.480663 0.332026 0.608528
1041 4 0.0548775 0.336783 0.655144
1039 2 0.0546699 0.358775 0.643248
1040 4 0.0544624 0.380766 0.631351
993 4 0.054289 0.391492 0.615123
991 2 0.0368432 0.409214 0.612524
1191 4 0.214353 0.406881 0.583485
895 2 0.178659 0.389102 0.58564
896 4 0.199717 0.400129 0.593395
1028 4 0.194563 0.391507 0.660768
1027 2 0.198299 0.397472 0.636775
1029 4 0.202035 0.403437 0.612783
1172 4 0.209599 0.415932 0.600356
1206 4 0.493388 0.420136 0.614126
992 4 0.0193974 0.426935 0.609924
1159 2 0.173134 0.486784 0.593233
1160 4 0.193791 0.48115 0.606146
1171 2 0.206992 0.440449 0.604515
1173 4 0.204385 0.464966 0.608674
1187 4 0.198312 0.475175 0.624516
1186 2 0.184359 0.47234 0.645069
1268 4 0.441747 0.480984 0.659465
1267 2 0.439202 0.467088 0.638835
2168 4 0.459102 0.488392 0.665144
1204 2 0.469994 0.428926 0.613323
1910 4 0.431786 0.442959 0.601561
1269 4 0.436658 0.453192 0.618204
1205 4 0.4466 0.437716 0.612521
1284 4 0.094097 0.0476123 0.692048
1282 2 0.106848 0.0691148 0.69254
2256 4 0.191842 0.00243935 0.72909
2049 4 0.172163 0.00373223 0.731246
1201 2 0.186694 0.0410294 0.717284
1202 4 0.181657 0.0166638 0.719757
1203 4 0.191732 0.0653951 0.71481
1148 4 0.197586 0.0835118 0.708781
1226 4 0.182175 0.0742204 0.701023
1032 4 0.295687 0.0750401 0.696541
1005 4 0.332351 0.0150552 0.708997
1003 2 0.339706 0.0045665 0.687524
810 4 0.47679 0.0867742 0.668345
45 3 0.451686 0.047367 0.698176
41 1 0.449283 0.0649725 0.683931
1163 4 0.487868 0.0749155 0.679507
44 3 0.468691 0.0776888 0.683716
42 3 0.431832 0.0781573 0.691057
1077 4 0.0341021 0.107422 0.734329
1075 2 0.0153027 0.0957571 0.722681
864 4 0.0511797 0.110632 0.74456
909 4 0.106986 0.154554 0.693825
907 2 0.115512 0.131385 0.689862
908 4 0.124038 0.108217 0.6859
1283 4 0.119598 0.0906174 0.693031
1227 4 0.138339 0.0952565 0.689336
1225 2 0.160257 0.0847385 0.69518
851 4 0.0949062 0.166149 0.703824
1147 2 0.214277 0.0933929 0.724559
1149 4 0.230967 0.103274 0.740338
829 2 0.319041 0.15247 0.709294
830 4 0.296658 0.163222 0.706365
831 4 0.341424 0.141719 0.712222
1142 4 0.356179 0.153817 0.704362
1141 2 0.379033 0.160147 0.712287
1025 4 0.459632 0.136477 0.713214
3424 2 0.479077 0.114597 0.695813
3426 4 0.481747 0.0913056 0.687119
3425 4 0.476408 0.137888 0.704507
3269 4 0.475309 0.131678 0.723655
1024 2 0.440063 0.152034 0.713676
3268 2 0.484006 0.142989 0.744188
852 4 0.0506848 0.177533 0.72421
1214 4 0.0357227 0.172063 0.735507
850 2 0.0727955 0.171841 0.714017
1213 2 0.0150143 0.185919 0.733414
1208 4 0.100354 0.171344 0.685918
1207 2 0.10604 0.178532 0.662655
1107 4 0.113421 0.171713 0.700545
1105 2 0.133558 0.183115 0.710015
1106 4 0.153695 0.194517 0.719485
1130 4 0.155791 0.200802 0.739508
888 4 0.25024 0.160484 0.667494
887 4 0.282763 0.176035 0.702151
978 4 0.293763 0.177469 0.719127
886 2 0.266502 0.168259 0.684823
976 2 0.295847 0.192837 0.73874
916 2 0.292208 0.246 0.747548
1193 4 0.422882 0.21377 0.673801
1143 4 0.401887 0.166477 0.720213
1192 2 0.415413 0.197857 0.691582
1194 4 0.407944 0.181944 0.709363
1262 4 0.414508 0.179771 0.727492
1261 2 0.42363 0.189921 0.748442
1026 4 0.420494 0.167591 0.714138
3262 2 0.0701338 0.325296 0.690149
3264 4 0.0861711 0.324912 0.709328
893 4 0.0770041 0.326575 0.726761
779 4 0.0962841 0.321703 0.725692
778 2 0.106965 0.299309 0.728793
780 4 0.117645 0.276916 0.731894
1065 4 0.212503 0.313 0.693377
1063 2 0.237342 0.312307 0.690596
1064 4 0.262181 0.311614 0.687815
947 4 0.292976 0.268038 0.713223
946 2 0.286289 0.290535 0.704598
948 4 0.279602 0.313031 0.695974
917 4 0.287304 0.264847 0.731866
1008 4 0.474822 0.283518 0.701791
1006 2 0.476245 0.271541 0.723693
1007 4 0.477667 0.259564 0.745595
892 2 0.0697897 0.341474 0.745501
1067 4 0.169886 0.375583 0.71731
941 4 0.156469 0.370854 0.73105
1066 2 0.176949 0.387838 0.696692
1068 4 0.184013 0.400092 0.676074
1236 4 0.251263 0.342631 0.756682
1019 4 0.392727 0.412054 0.743035
1176 4 0.133716 0.461571 0.705234
1174 2 0.155988 0.46421 0.69418
1188 4 0.170405 0.469505 0.665622
1175 4 0.17826 0.466848 0.683125
1139 4 0.29868 0.47676 0.691825
1138 2 0.309099 0.464048 0.710668
1140 4 0.319518 0.451337 0.72951
1229 4 0.333474 0.437923 0.726314
1989 4 0.332142 0.446327 0.744078
1100 4 0.394142 0.429995 0.735367
1228 2 0.356368 0.428211 0.728907
1230 4 0.379262 0.418499 0.7315
1099 2 0.411115 0.447717 0.73057
1101 4 0.428089 0.465439 0.725773
3330 4 0.443567 0.467881 0.713744
3328 2 0.459921 0.454018 0.700878
1251 4 0.444548 0.473783 0.732154
3329 4 0.476276 0.440155 0.688012
785 4 0.0269471 0.0663025 0.826904
834 4 0.0464702 0.0697033 0.831901
1113 4 0.365321 0.0639331 0.78618
980 4 0.435702 0.9967 0.808082
2321 4 0.438782 0.00978182 0.792781
2322 4 0.439729 0.0552573 0.772001
2320 2 0.439256 0.0325196 0.782391
846 4 0.444514 0.0730268 0.777977
862 2 0.0573095 0.115866 0.768229
863 4 0.0634392 0.1211 0.791897
833 4 0.0620343 0.111251 0.80883
1125 4 0.0686795 0.129771 0.808736
1123 2 0.0778936 0.148613 0.822346
832 2 0.0542523 0.0904771 0.820365
911 4 0.113172 0.0890953 0.828667
910 2 0.118553 0.111854 0.837513
1257 4 0.223007 0.101913 0.75823
1255 2 0.221593 0.110007 0.781845
921 4 0.213465 0.132424 0.817697
919 2 0.203533 0.153572 0.826601
840 4 0.228461 0.120417 0.823162
1256 4 0.220179 0.118102 0.80546
838 2 0.249579 0.124958 0.835754
1111 2 0.365459 0.0824761 0.802952
1112 4 0.365597 0.101019 0.819725
845 4 0.465994 0.102494 0.743757
844 2 0.455254 0.0877604 0.760867
3270 4 0.492703 0.1543 0.764721
1129 2 0.167916 0.205255 0.760917
1124 4 0.0871076 0.167456 0.835956
34 3 0.140268 0.184152 0.831033
35 3 0.103159 0.177914 0.83233
1131 4 0.18004 0.209708 0.782325
1277 4 0.169828 0.21672 0.797895
1276 2 0.172787 0.199295 0.815581
920 4 0.193602 0.174721 0.835505
822 4 0.178147 0.228943 0.785014
977 4 0.29793 0.208204 0.758353
918 4 0.297111 0.227153 0.76323
1298 4 0.289079 0.213826 0.77502
1297 2 0.301206 0.206136 0.795488
1299 4 0.313333 0.198446 0.815957
1086 4 0.332431 0.203548 0.821399
50 3 0.400273 0.202913 0.795201
46 1 0.422696 0.203803 0.799077
49 3 0.430729 0.22503 0.794252
1043 4 0.439888 0.216444 0.776903
48 3 0.427117 0.198508 0.821232
47 3 0.43334 0.188566 0.785524
1263 4 0.432753 0.200071 0.769393
1146 4 0.489661 0.170385 0.774164
1145 4 0.448905 0.198852 0.77958
1144 2 0.469283 0.184618 0.776872
1042 2 0.4507 0.235896 0.765506
1022 4 0.443735 0.191758 0.831382
821 4 0.192953 0.275725 0.794651
820 2 0.18555 0.252334 0.789832
1044 4 0.461512 0.255348 0.75411
1165 2 0.493618 0.273539 0.775353
1166 4 0.473255 0.267303 0.762253
3275 4 0.015965 0.349224 0.795448
894 4 0.0625753 0.356372 0.76424
3276 4 0.0640933 0.356453 0.783953
3274 2 0.0400292 0.352839 0.789701
816 4 0.0739774 0.369269 0.77231
3228 4 0.00604171 0.414732 0.829052
940 2 0.146233 0.382032 0.750936
814 2 0.0952408 0.382416 0.772747