ITEM: TIMESTEP
2370000
ITEM: NUMBER OF ATOMS
4590
ITEM: BOX BOUNDS pp pp pp
-9.9985700000000008e+00 9.9985700000000008e+00
-9.9985700000000008e+00 9.9985700000000008e+00
-9.9985700000000008e+00 9.9985700000000008e+00
ITEM: ATOMS id type xs ys zs
465 4 0.0758466 0.062421 0.0407129
463 2 0.0642567 0.0806179 0.0533511
701 4 0.0844445 0.0490854 0.0287881
700 2 0.10751 0.0529568 0.0199467
702 4 0.130576 0.0568283 0.0111053
566 4 0.148392 0.0674608 0.0162767
565 2 0.168847 0.0745531 0.0287848
567 4 0.189303 0.0816453 0.0412929
746 4 0.487145 0.0480819 0.0173491
464 4 0.0526669 0.0988149 0.0659893
590 4 0.0486274 0.113393 0.0804155
589 2 0.0238305 0.110198 0.0801268
558 4 0.333727 0.12833 0.0701246
556 2 0.348135 0.11186 0.0822218
865 2 0.356685 0.165888 0.0101395
866 4 0.356494 0.143812 0.998401
769 2 0.480109 0.155937 0.0734535
771 4 0.484858 0.132202 0.0671843
553 2 0.0594176 0.227904 0.00538166
555 4 0.0811784 0.224119 0.0171002
835 2 0.122014 0.212681 0.0154598
836 4 0.097092 0.21212 0.0135219
837 4 0.146936 0.213243 0.0173978
738 4 0.171211 0.19186 0.0843025
573 4 0.32092 0.247094 0.0620191
666 4 0.322695 0.229601 0.0533308
461 4 0.328536 0.2318 0.0717628
664 2 0.332246 0.208313 0.0443433
665 4 0.341798 0.187025 0.0353558
867 4 0.356875 0.187964 0.0218778
1070 4 0.440082 0.206377 0.0563588
1069 2 0.441947 0.230595 0.0622907
2808 4 0.0230712 0.324128 0.0125269
2806 2 0.00573641 0.308044 0.0206488
294 4 0.10231 0.315504 0.0478022
292 2 0.126399 0.319564 0.0424682
293 4 0.150487 0.323623 0.0371341
507 4 0.157872 0.32674 0.0188352
356 4 0.306685 0.302843 0.0428107
572 4 0.308792 0.285851 0.0328382
571 2 0.314856 0.266473 0.0474287
355 2 0.307107 0.319298 0.0239901
1071 4 0.443813 0.254813 0.0682227
324 4 0.455275 0.270627 0.0679379
322 2 0.451397 0.29228 0.0798247
647 4 0.021635 0.356668 0.0713215
646 2 0.0448084 0.355026 0.080567
620 4 0.00895512 0.371092 0.0691148
456 4 0.0872332 0.359071 0.0842069
505 2 0.177432 0.340204 0.0110033
506 4 0.196991 0.353667 0.00317134
481 2 0.216977 0.38114 0.0134087
482 4 0.237282 0.387577 0.0265019
537 4 0.208268 0.358536 0.0852251
609 4 0.254876 0.396595 0.0285207
357 4 0.307529 0.335754 0.00516937
902 4 0.291814 0.346389 0.00898913
607 2 0.273311 0.412299 0.034743
957 4 0.371487 0.386547 0.0340888
955 2 0.374054 0.379985 0.0100985
280 2 0.480329 0.405231 0.0544706
281 4 0.481301 0.384144 0.0678708
671 4 0.471805 0.367564 0.0746197
2651 4 0.490739 0.370039 0.076825
1465 2 0.0138657 0.482525 0.0762705
1467 4 0.996061 0.465674 0.0713529
1787 4 0.0985438 0.459394 0.0717213
1786 2 0.101293 0.465787 0.0477057
1788 4 0.104043 0.47218 0.0236901
242 4 0.0947109 0.475937 0.0809825
246 4 0.235265 0.479258 0.0342673
244 2 0.221047 0.471704 0.0533971
245 4 0.206829 0.464149 0.072527
627 4 0.196596 0.451879 0.0594294
625 2 0.186414 0.433704 0.0732559
272 4 0.247073 0.490247 0.0229606
1778 4 0.244281 0.495133 0.0414518
271 2 0.25442 0.469105 0.0118147
608 4 0.291746 0.428003 0.0409653
252 4 0.297986 0.44228 0.0275883
250 2 0.321168 0.447615 0.0198852
273 4 0.261766 0.447964 0.000668753
523 2 0.370615 0.475072 0.0628408
524 4 0.366194 0.450833 0.0670913
2287 2 0.347057 0.493544 0.999563
2289 4 0.33852 0.470273 0.00284343
251 4 0.344349 0.452949 0.0121821
282 4 0.479356 0.426318 0.0410704
226 2 0.480338 0.462197 0.0616245
227 4 0.481334 0.437511 0.0577793
228 4 0.479341 0.486883 0.0654696
563 4 0.468333 0.496606 0.0515233
16 1 0.0652477 0.0671549 0.144251
20 3 0.0641989 0.085386 0.130643
1806 4 0.0664278 0.0272979 0.136655
18 3 0.0654636 0.0477654 0.131507
19 3 0.0470544 0.0669671 0.158651
1804 2 0.0548854 0.013375 0.11939
17 3 0.0845719 0.0680903 0.156695
673 2 0.121413 0.0649727 0.158256
674 4 0.143249 0.0560146 0.150001
1505 4 0.156707 0.044626 0.15778
450 4 0.162589 0.0583689 0.145633
448 2 0.176588 0.0787736 0.149222
654 4 0.307849 0.0153492 0.154054
484 2 0.354615 0.0154452 0.139071
295 2 0.366602 0.0682505 0.112841
297 4 0.362027 0.0436705 0.1131
485 4 0.348595 0.0298165 0.119516
579 4 0.0962137 0.137684 0.0907007
237 4 0.155928 0.150565 0.121631
578 4 0.137291 0.146238 0.117907
577 2 0.116752 0.141961 0.104304
476 4 0.14144 0.15678 0.133234
737 4 0.14315 0.164357 0.115237
475 2 0.131294 0.166175 0.154066
235 2 0.168197 0.131338 0.131878
236 4 0.180466 0.112112 0.142124
693 4 0.197495 0.117565 0.149535
449 4 0.190586 0.0991783 0.15281
691 2 0.222026 0.112783 0.148804
692 4 0.246558 0.108001 0.148074
582 4 0.263866 0.101857 0.137058
580 2 0.278084 0.120435 0.145881
581 4 0.292303 0.139014 0.154705
557 4 0.362544 0.0953911 0.094319
296 4 0.371178 0.0928306 0.112582
736 2 0.157181 0.178109 0.0997696
283 2 0.321436 0.197185 0.136703
354 4 0.315388 0.236229 0.136689
285 4 0.31869 0.172762 0.141303
284 4 0.324182 0.221608 0.132102
462 4 0.32378 0.235468 0.121408
460 2 0.326158 0.233634 0.0965854
29 3 0.304076 0.17751 0.155502
255 4 0.333325 0.23609 0.135863
253 2 0.353645 0.243921 0.14815
770 4 0.475361 0.179671 0.0797226
1014 4 0.487491 0.179803 0.0948101
1013 4 0.476948 0.205382 0.136467
1012 2 0.48222 0.192592 0.115638
455 4 0.117844 0.320257 0.0917676
610 2 0.24021 0.333156 0.0947388
352 2 0.299241 0.253395 0.145042
353 4 0.283094 0.270561 0.153395
754 2 0.264144 0.294658 0.128445
755 4 0.269452 0.284707 0.150761
756 4 0.258837 0.304609 0.10613
612 4 0.259961 0.318017 0.0923084
254 4 0.373964 0.251753 0.160437
323 4 0.447518 0.313932 0.0917116
672 4 0.457135 0.327718 0.101035
648 4 0.0679818 0.353384 0.0898125
454 2 0.102539 0.339664 0.0879873
536 4 0.175368 0.396138 0.0831441
626 4 0.176233 0.415528 0.0870825
611 4 0.220459 0.348295 0.0971692
535 2 0.191818 0.377337 0.0841846
387 4 0.332899 0.40135 0.147052
741 4 0.403515 0.359611 0.107755
739 2 0.397807 0.367673 0.130725
740 4 0.3921 0.375735 0.153694
15 3 0.38196 0.363766 0.165259
385 2 0.354899 0.391957 0.154328
386 4 0.376899 0.382564 0.161605
493 2 0.406458 0.41269 0.160326
495 4 0.394766 0.391061 0.164873
670 2 0.46447 0.347641 0.0878273
551 4 0.0444406 0.436096 0.0873893
550 2 0.0665869 0.447685 0.0880211
552 4 0.0887332 0.459275 0.0886528
241 2 0.10844 0.486825 0.0988189
1438 2 0.151292 0.485326 0.141051
243 4 0.12217 0.497712 0.116655
1440 4 0.128754 0.494386 0.135122
1439 4 0.173829 0.476267 0.146981
637 2 0.216582 0.480427 0.140352
638 4 0.240831 0.478723 0.134499
639 4 0.192333 0.48213 0.146206
767 4 0.260766 0.47909 0.13766
303 4 0.321429 0.462861 0.134641
766 2 0.282117 0.466485 0.134427
768 4 0.303468 0.453881 0.131193
301 2 0.332092 0.440818 0.139699
302 4 0.342756 0.418775 0.144756
494 4 0.41815 0.434319 0.155779
660 4 0.420878 0.45237 0.164601
380 4 0.0362972 0.0743571 0.174615
675 4 0.0995781 0.0739308 0.166511
1504 2 0.161573 0.027974 0.175786
1506 4 0.166438 0.0113221 0.193792
689 4 0.16766 0.0118547 0.214152
652 2 0.300564 0.0361821 0.165806
653 4 0.29328 0.0570151 0.177558
1661 4 0.30802 0.000149737 0.167369
21 1 0.4144 0.0143474 0.213501
23 3 0.397768 0.0236482 0.200262
24 3 0.405074 0.999394 0.228595
757 2 0.445613 0.0578236 0.210497
25 3 0.425515 0.0307727 0.224696
759 4 0.44154 0.0406331 0.228191
350 4 0.437523 0.0247855 0.238804
758 4 0.449687 0.0750141 0.192804
379 2 0.0307405 0.0900654 0.193258
512 4 0.019773 0.126497 0.214721
381 4 0.0251837 0.105774 0.2119
511 2 0.0407356 0.140007 0.216521
513 4 0.0616982 0.153516 0.21832
339 4 0.0791845 0.143856 0.217298
337 2 0.0921132 0.154597 0.198787
30 3 0.288482 0.148087 0.173075
26 1 0.300322 0.167319 0.176007
27 3 0.320599 0.162337 0.185659
521 4 0.477338 0.137962 0.231477
477 4 0.121148 0.175569 0.174898
363 4 0.106025 0.184142 0.183002
338 4 0.105042 0.165338 0.180276
362 4 0.126021 0.22654 0.200416
361 2 0.116023 0.205341 0.191709
372 4 0.129102 0.228873 0.220725
370 2 0.115998 0.241827 0.237626
28 3 0.288691 0.181721 0.189998
630 4 0.388195 0.243503 0.170142
628 2 0.394017 0.220298 0.177408
629 4 0.399839 0.197093 0.184675
312 4 0.404005 0.181554 0.197616
311 4 0.45203 0.186645 0.210591
310 2 0.428017 0.1841 0.204103
749 4 0.0630969 0.309775 0.176324
750 4 0.036029 0.275475 0.200646
395 4 0.027443 0.272677 0.219358
748 2 0.0495629 0.292625 0.188485
394 2 0.0189427 0.276673 0.24253
300 4 0.131699 0.295236 0.19316
298 2 0.122857 0.312525 0.20891
299 4 0.114016 0.329815 0.224661
279 4 0.234151 0.25739 0.191526
278 4 0.273132 0.277959 0.167901
277 2 0.253642 0.267674 0.179714
307 2 0.297865 0.312488 0.200664
308 4 0.290136 0.31202 0.224439
497 4 0.288557 0.316168 0.243497
309 4 0.305594 0.312957 0.17689
765 4 0.385189 0.262928 0.172156
763 2 0.399617 0.281472 0.180709
764 4 0.414044 0.300016 0.189263
528 4 0.493998 0.323366 0.17865
624 4 0.474815 0.320043 0.18534
623 4 0.424925 0.316708 0.186095
622 2 0.44987 0.318375 0.185717
262 2 0.0309367 0.385777 0.223655
601 2 0.0761992 0.350255 0.228356
264 4 0.0195776 0.407342 0.229233
2618 4 0.00309777 0.405852 0.239406
263 4 0.0422958 0.364212 0.218078
602 4 0.0579307 0.367225 0.230212
603 4 0.0944676 0.333284 0.2265
734 4 0.106004 0.335871 0.24109
291 4 0.185339 0.407355 0.230321
290 4 0.17276 0.369129 0.200635
289 2 0.17905 0.388242 0.215478
14 3 0.402871 0.388912 0.183915
11 1 0.393091 0.367885 0.184696
13 3 0.378427 0.366631 0.202635
12 3 0.409596 0.352104 0.187465
416 4 0.182807 0.420663 0.215556
415 2 0.192129 0.442585 0.207963
1430 4 0.200739 0.484427 0.204373
417 4 0.201452 0.464508 0.200369
658 2 0.431521 0.474523 0.169197
659 4 0.442164 0.496677 0.173792
595 2 0.475749 0.49162 0.199414
597 4 0.497027 0.483787 0.209953
232 2 0.00663857 0.0487912 0.300714
1799 4 0.0310656 0.0233792 0.322465
233 4 0.0256081 0.0342658 0.308086
1402 2 0.0671759 0.036797 0.324178
1403 4 0.0430628 0.0376516 0.31762
1404 4 0.091289 0.0359423 0.330736
633 4 0.377331 0.056332 0.293794
631 2 0.373431 0.0775336 0.281127
257 4 0.382865 0.0538075 0.312361
698 4 0.374208 0.0403222 0.3024
697 2 0.369658 0.0163923 0.308042
349 2 0.448905 0.0252886 0.261062
744 4 0.466544 0.0130684 0.29751
742 2 0.480108 0.0249854 0.314807
351 4 0.460287 0.0257917 0.283319
397 2 0.0615904 0.123835 0.323147
390 4 0.0714169 0.154938 0.300469
398 4 0.0728747 0.135863 0.304354
393 4 0.0882881 0.146092 0.307594
545 4 0.141781 0.14223 0.264743
392 4 0.129413 0.139389 0.279944
391 2 0.10885 0.142741 0.293769
544 2 0.161771 0.154965 0.272705
632 4 0.369531 0.0987351 0.268459
444 4 0.0413995 0.237775 0.301152
388 2 0.0655753 0.178826 0.295948
389 4 0.0597336 0.202713 0.291427
723 4 0.21472 0.222428 0.255938
721 2 0.204317 0.201216 0.264124
546 4 0.181761 0.167699 0.280667
403 2 0.198214 0.174461 0.316317
405 4 0.195282 0.177196 0.291637
722 4 0.193914 0.180004 0.27231
420 4 0.393703 0.22233 0.258588
717 4 0.385 0.23653 0.269646
331 2 0.455673 0.201119 0.303096
332 4 0.454842 0.20175 0.278114
418 2 0.41716 0.214684 0.26265
419 4 0.440616 0.207037 0.266711
760 2 0.480935 0.224612 0.259717
762 4 0.45826 0.21598 0.26576
333 4 0.456503 0.200488 0.328078
364 2 0.00235963 0.306983 0.289168
442 2 0.025477 0.254643 0.291819
396 4 0.0104424 0.280669 0.265703
443 4 0.00955447 0.271512 0.282486
366 4 0.00874134 0.329076 0.298984
407 4 0.0128773 0.331326 0.318058
371 4 0.102893 0.25478 0.254528
677 4 0.132119 0.31689 0.298966
676 2 0.152369 0.321258 0.312967
735 4 0.127061 0.330663 0.286148
401 4 0.248316 0.284384 0.256747
510 4 0.232571 0.29323 0.322597
508 2 0.212228 0.307764 0.322947
400 2 0.239266 0.287011 0.279906
402 4 0.230216 0.289638 0.303066
509 4 0.191886 0.322298 0.323296
345 4 0.245306 0.282007 0.31366
678 4 0.172619 0.325627 0.326968
343 2 0.262093 0.270073 0.327836
496 2 0.268738 0.325418 0.255615
715 2 0.376311 0.258301 0.278345
716 4 0.367621 0.280072 0.287045
542 4 0.384428 0.288474 0.294262
541 2 0.391629 0.309888 0.304976
543 4 0.398829 0.331301 0.315691
548 4 0.019205 0.344774 0.305384
547 2 0.0273883 0.368395 0.304851
549 4 0.0355717 0.392015 0.304319
777 4 0.0498532 0.399769 0.317178
775 2 0.0717259 0.410442 0.32291
733 2 0.116533 0.333267 0.263619
435 4 0.185354 0.340309 0.326774
498 4 0.248919 0.334667 0.267733
728 4 0.379398 0.370617 0.282781
727 2 0.380621 0.3912 0.296924
729 4 0.381845 0.411783 0.311066
437 4 0.374475 0.420857 0.327995
2862 4 0.496412 0.395089 0.262522
2538 4 0.473934 0.348314 0.285969
2536 2 0.489017 0.362818 0.272283
753 4 0.483403 0.33493 0.29673
751 2 0.49497 0.33336 0.318842
776 4 0.0935985 0.421115 0.328642
414 4 0.0985314 0.439276 0.335852
1543 2 0.170511 0.485144 0.32752
1545 4 0.19295 0.486967 0.31664
1436 4 0.194531 0.486231 0.296257
2861 4 0.48056 0.441793 0.270778
2860 2 0.488486 0.418441 0.26665
1798 2 0.0167984 0.0116469 0.339316
1771 2 0.00730026 0.00722199 0.393354
1772 4 0.0121155 0.0226422 0.412438
2238 4 0.0207826 0.0372117 0.402399
732 4 0.0836602 0.071306 0.370925
369 4 0.0826141 0.0581666 0.386095
367 2 0.0861998 0.0471074 0.408231
606 4 0.136087 0.0515223 0.41413
604 2 0.160369 0.0574656 0.414641
605 4 0.18465 0.063409 0.415153
1701 4 0.179257 0.0746136 0.398437
256 2 0.381961 0.0647681 0.334816
258 4 0.381057 0.0757287 0.357271
426 4 0.373346 0.0687927 0.375345
424 2 0.378103 0.0563537 0.396506
743 4 0.493672 0.0369023 0.332104
479 4 0.49004 0.0534454 0.341953
478 2 0.480922 0.0671284 0.36079
480 4 0.471804 0.0808113 0.379627
399 4 0.050306 0.111807 0.34194
317 4 0.0321177 0.111162 0.349059
731 4 0.0443019 0.0962064 0.352715
730 2 0.063981 0.0837562 0.36182
316 2 0.0153853 0.127735 0.35746
247 2 0.203009 0.137583 0.356276
248 4 0.201007 0.112715 0.354612
1699 2 0.190663 0.0840973 0.378309
1700 4 0.202069 0.093581 0.358181
249 4 0.205012 0.16245 0.357941
683 4 0.241027 0.141672 0.410821
319 2 0.312771 0.117978 0.397044
320 4 0.295159 0.113036 0.414089
706 2 0.319884 0.158841 0.357347
321 4 0.330384 0.12292 0.379998
708 4 0.324484 0.13617 0.366837
684 4 0.276878 0.107513 0.417794
682 2 0.258952 0.124592 0.414308
516 4 0.445987 0.149065 0.371134
575 4 0.437711 0.136898 0.384099
574 2 0.44733 0.123246 0.402707
458 4 0.00582667 0.162422 0.362724
2654 4 0.0149976 0.223675 0.367947
459 4 0.00482581 0.211968 0.356022
457 2 0.00532624 0.187195 0.359373
404 4 0.201145 0.171726 0.340997
472 2 0.246452 0.24282 0.398419
378 4 0.279831 0.23861 0.335071
376 2 0.293704 0.218014 0.337993
377 4 0.307577 0.197419 0.340915
707 4 0.315285 0.181511 0.347857
452 4 0.497692 0.236594 0.364874
514 2 0.452412 0.167313 0.355294
515 4 0.458838 0.18556 0.339453
453 4 0.467565 0.202645 0.343884
451 2 0.482629 0.21962 0.354379
406 2 0.0190614 0.323785 0.341082
408 4 0.0252455 0.316245 0.364105
275 4 0.134603 0.316638 0.35473
274 2 0.15265 0.303226 0.365664
276 4 0.170698 0.289813 0.376599
473 4 0.230908 0.253335 0.381896
374 4 0.232214 0.272844 0.380875
373 2 0.209046 0.2812 0.385185
375 4 0.185877 0.289556 0.389496
344 4 0.27888 0.258139 0.342013
615 4 0.405423 0.323155 0.332109
267 4 0.381451 0.265323 0.409003
265 2 0.366422 0.285295 0.409656
266 4 0.351394 0.305267 0.410309
613 2 0.428616 0.326778 0.340721
614 4 0.451808 0.3304 0.349332
346 2 0.0725584 0.348224 0.400261
618 4 0.0992003 0.358362 0.370587
617 4 0.133209 0.332968 0.344143
616 2 0.116204 0.345665 0.357365
347 4 0.083633 0.347101 0.377872
433 2 0.190515 0.354337 0.346818
434 4 0.195676 0.368365 0.366861
334 2 0.340443 0.417966 0.388087
335 4 0.364774 0.412821 0.385495
412 2 0.114179 0.458777 0.335956
413 4 0.129827 0.478279 0.33606
1544 4 0.148073 0.483322 0.3384
500 4 0.135571 0.497624 0.339322
503 4 0.308923 0.422459 0.409033
336 4 0.316113 0.423112 0.39068
669 4 0.308098 0.438919 0.398503
667 2 0.313038 0.460217 0.410635
436 2 0.38823 0.439823 0.336727
240 4 0.366958 0.421282 0.404331
438 4 0.401984 0.45879 0.34546
594 4 0.437741 0.480129 0.372829
592 2 0.420935 0.497697 0.378669
3990 4 0.494018 0.492019 0.36529
2236 2 0.02062 0.0559202 0.418986
1127 4 0.0135368 0.0722995 0.453096
2237 4 0.0204574 0.0746287 0.435574
1780 2 0.0794586 0.0165336 0.454138
719 4 0.0780778 0.0701273 0.46853
720 4 0.0324237 0.0780865 0.44974
718 2 0.0552507 0.0741069 0.459135
368 4 0.0897855 0.0360482 0.430367
1782 4 0.0889423 0.0393364 0.45023
341 4 0.154497 0.00660932 0.500546
961 2 0.262144 0.00252307 0.502535
963 4 0.283879 0.00817403 0.491543
724 2 0.295191 0.0473752 0.474567
726 4 0.297764 0.0703622 0.465072
725 4 0.292617 0.0243882 0.484062
432 4 0.303353 0.00853975 0.489072
425 4 0.38286 0.0439147 0.417668
1579 2 0.380469 0.0112356 0.429421
1580 4 0.394443 0.0262493 0.415121
642 4 0.453879 0.0579849 0.458093
2878 2 0.454236 0.061638 0.495132
2880 4 0.467194 0.0598643 0.473822
640 2 0.459345 0.0750968 0.440701
470 4 0.00223212 0.152739 0.489204
1033 2 0.119112 0.138356 0.480545
1035 4 0.140619 0.141874 0.468287
261 4 0.160414 0.144971 0.464179
1034 4 0.0976055 0.134838 0.492803
600 4 0.247044 0.16096 0.416129
1182 4 0.302079 0.0871675 0.475392
1180 2 0.295988 0.0985985 0.454005
1181 4 0.289897 0.11003 0.432618
576 4 0.456949 0.109593 0.421316
641 4 0.464812 0.0922087 0.423309
306 4 0.475553 0.108132 0.42828
304 2 0.481874 0.125697 0.444914
3158 4 0.47677 0.146509 0.477262
305 4 0.488196 0.143262 0.461547
3157 2 0.49107 0.150031 0.497468
259 2 0.164436 0.169612 0.462832
694 2 0.150838 0.219539 0.483116
695 4 0.160875 0.211581 0.461643
260 4 0.168459 0.194253 0.461485
598 2 0.246438 0.178675 0.433764
599 4 0.245833 0.196391 0.451398
687 4 0.228553 0.206427 0.449867
686 4 0.179205 0.210028 0.457115
685 2 0.203879 0.208228 0.453491
411 4 0.244812 0.214706 0.457715
409 2 0.258565 0.216893 0.478481
474 4 0.261996 0.232305 0.414942
488 4 0.275927 0.239863 0.425382
489 4 0.320856 0.217906 0.425445
487 2 0.298391 0.228884 0.425413
468 4 0.380985 0.249536 0.422294
466 2 0.380673 0.22518 0.427938
467 4 0.380361 0.200823 0.433581
813 4 0.252117 0.277246 0.491059
584 4 0.488424 0.301032 0.500831
348 4 0.0614838 0.349347 0.42265
2812 2 0.0196496 0.33792 0.426442
2813 4 0.0432432 0.346173 0.425798
326 4 0.0532984 0.358757 0.437131
325 2 0.0677773 0.369441 0.454492
327 4 0.0822562 0.380126 0.471852
10 3 0.122242 0.36862 0.468173
7 3 0.092429 0.378162 0.488496
6 1 0.114927 0.373421 0.489199
711 4 0.143231 0.401397 0.492054
8 3 0.126234 0.391912 0.497485
709 2 0.167834 0.402208 0.487674
774 4 0.212062 0.40325 0.480097
710 4 0.192438 0.403019 0.483294
635 4 0.201479 0.419933 0.479585
502 2 0.294176 0.409649 0.424642
504 4 0.27943 0.396839 0.44025
1383 4 0.0581893 0.487399 0.464313
680 4 0.05928 0.479747 0.483992
679 2 0.0752407 0.463243 0.493895
384 4 0.137979 0.421483 0.492986
569 4 0.150513 0.436415 0.497501
634 2 0.209387 0.423911 0.4562
636 4 0.217294 0.427888 0.432816
4 3 0.310621 0.491052 0.438684
668 4 0.317977 0.481514 0.422768
586 2 0.390754 0.429669 0.481432
239 4 0.392068 0.439483 0.44356
588 4 0.380217 0.432562 0.458943
238 2 0.379513 0.430383 0.423946
3077 4 0.00662772 0.00536469 0.53098
1184 4 0.00962135 0.0181961 0.545418
1150 2 0.144657 0.0658897 0.559495
342 4 0.136866 0.0465527 0.524926
1152 4 0.13285 0.0601879 0.538205
340 2 0.145682 0.026581 0.512736
1151 4 0.156464 0.0715915 0.580785
430 2 0.325231 0.00319318 0.499932
841 2 0.34617 0.00978476 0.554851
842 4 0.350774 0.0166021 0.578463
1216 2 0.395547 0.00831832 0.581995
1217 4 0.370717 0.010851 0.580488
843 4 0.341566 0.00296739 0.531239
2879 4 0.441278 0.0634116 0.516443
3009 4 0.477987 0.058194 0.575776
879 4 0.0632765 0.15632 0.559591
877 2 0.0387783 0.151413 0.560561
878 4 0.01428 0.146507 0.561532
938 4 0.0695688 0.15757 0.541101
1272 4 0.0811554 0.163377 0.556215
937 2 0.0754249 0.143085 0.521581
939 4 0.0812811 0.128599 0.50206
1270 2 0.0818986 0.181932 0.572958
1258 2 0.115642 0.221879 0.528698
1260 4 0.121132 0.228579 0.505242
1259 4 0.110152 0.21518 0.552153
696 4 0.140801 0.227497 0.50459
898 2 0.293321 0.208108 0.533855
899 4 0.310815 0.207486 0.551709
900 4 0.275828 0.208729 0.516
791 4 0.327222 0.196155 0.549973
857 4 0.314675 0.19352 0.563977
410 4 0.272318 0.21908 0.499248
790 2 0.343881 0.21431 0.554225
792 4 0.360539 0.232465 0.558477
872 4 0.357859 0.247621 0.545732
811 2 0.255133 0.298179 0.504397
812 4 0.25815 0.319111 0.517735
650 4 0.252261 0.321387 0.537104
649 2 0.264368 0.313039 0.557326
871 2 0.374545 0.256277 0.529245
1238 4 0.365659 0.250073 0.56359
873 4 0.391232 0.264933 0.512759
1237 2 0.3539 0.263596 0.581027
583 2 0.491826 0.278183 0.510397
1135 2 0.11419 0.406092 0.570873
897 4 0.153647 0.385155 0.576393
1137 4 0.13356 0.390283 0.571152
9 3 0.118316 0.35517 0.50312
773 4 0.236558 0.393232 0.522526
1189 2 0.224082 0.410238 0.554278
895 2 0.171524 0.402636 0.576292
1190 4 0.241586 0.398575 0.540759
803 4 0.252066 0.385833 0.530154
772 2 0.22431 0.398241 0.501311
804 4 0.257354 0.336225 0.526712
802 2 0.25471 0.361029 0.528433
930 4 0.251439 0.40457 0.524979
928 2 0.274309 0.412021 0.518152
926 4 0.411649 0.411299 0.500073
925 2 0.411656 0.391788 0.515709
927 4 0.411662 0.372277 0.531345
1136 4 0.0948196 0.4219 0.570594
382 2 0.119003 0.430327 0.506656
383 4 0.100027 0.439171 0.520325
681 4 0.0912014 0.446739 0.503797
1191 4 0.206578 0.421902 0.567796
896 4 0.189401 0.420117 0.576191
568 2 0.166879 0.455195 0.49965
570 4 0.183246 0.473976 0.501799
929 4 0.297179 0.419472 0.511324
1952 4 0.293563 0.486022 0.513515
1951 2 0.299664 0.461775 0.513261
1953 4 0.305765 0.437529 0.513008
1000 2 0.40312 0.495521 0.548624
1001 4 0.418131 0.476019 0.553045
587 4 0.40129 0.426776 0.503922
663 4 0.420629 0.424992 0.510131
661 2 0.423437 0.444885 0.525015
662 4 0.426244 0.464779 0.5399
1911 4 0.434223 0.465602 0.557529
1332 4 0.435365 0.481014 0.545738
1330 2 0.458053 0.488856 0.538744
1909 2 0.433884 0.456767 0.580917
1331 4 0.480742 0.496698 0.531749
1155 4 0.161486 0.0759864 0.598908
1059 4 0.174196 0.0662527 0.588288
1058 4 0.200165 0.024675 0.598167
1057 2 0.18718 0.0454638 0.593228
2375 4 0.195534 0.00855209 0.586139
950 4 0.25632 0.00566125 0.657
949 2 0.268422 0.0274359 0.654858
951 4 0.280524 0.0492106 0.652716
1031 4 0.295804 0.0552939 0.641864
1030 2 0.313765 0.0701427 0.650925
1004 4 0.349789 0.998684 0.661872
1218 4 0.420376 0.00578563 0.583502
3007 2 0.482829 0.0727928 0.595489
43 3 0.437956 0.0718272 0.648504
808 2 0.489262 0.0787487 0.649209
3008 4 0.487672 0.0873916 0.615202
1153 2 0.165276 0.100691 0.598219
1154 4 0.169067 0.125396 0.59753
1221 4 0.18173 0.128721 0.61205
1219 2 0.188559 0.151185 0.620648
1032 4 0.331726 0.0849915 0.659986
858 4 0.300056 0.159001 0.597074
3252 4 0.500839 0.100892 0.619734
1271 4 0.0826418 0.200488 0.589701
1244 4 0.0990742 0.197945 0.601866
1209 4 0.0899113 0.19223 0.654829
1245 4 0.10044 0.208103 0.650811
1243 2 0.0997573 0.203024 0.626338
1210 2 0.230998 0.181597 0.64475
1212 4 0.208808 0.186665 0.634401
1220 4 0.195387 0.173648 0.629247
797 4 0.175214 0.237529 0.622687
796 2 0.182318 0.214372 0.62889
798 4 0.189423 0.191216 0.635093
856 2 0.307366 0.17626 0.580526
1211 4 0.253188 0.176529 0.6551
888 4 0.268475 0.189206 0.664336
1193 4 0.399197 0.215998 0.652261
3121 2 0.473544 0.232326 0.61729
3122 4 0.478297 0.208056 0.620973
3357 4 0.492814 0.202245 0.634085
983 4 0.0421427 0.285788 0.599391
982 2 0.0524313 0.296475 0.619518
984 4 0.06272 0.307161 0.639646
3263 4 0.0602783 0.315249 0.65677
1041 4 0.0687815 0.325878 0.642783
651 4 0.276476 0.304692 0.577547
805 2 0.304362 0.285892 0.602583
806 4 0.282299 0.293862 0.593931
807 4 0.326426 0.277922 0.611234
1239 4 0.342141 0.277119 0.598463
3123 4 0.468791 0.256596 0.613607
906 4 0.463615 0.310988 0.608949
905 4 0.474309 0.264218 0.594846
904 2 0.468962 0.287603 0.601897
953 4 0.463143 0.326168 0.595025
1039 2 0.0673063 0.349382 0.634383
1040 4 0.0658311 0.372886 0.625983
993 4 0.0647078 0.373024 0.606258
991 2 0.0495391 0.39232 0.601488
992 4 0.0343703 0.411616 0.596718
1028 4 0.206314 0.377058 0.662336
1027 2 0.226374 0.389659 0.654335
1029 4 0.246433 0.40226 0.646334
952 2 0.482705 0.341169 0.590847
3309 4 0.498124 0.410052 0.617292
1160 4 0.197225 0.493074 0.592519
1172 4 0.203571 0.427897 0.586768
1171 2 0.196604 0.451874 0.588088
1173 4 0.189636 0.47585 0.589407
1187 4 0.198591 0.480652 0.606833
1186 2 0.194678 0.484385 0.631245
1175 4 0.186391 0.468893 0.657443
1188 4 0.190765 0.488119 0.655656
1268 4 0.410292 0.472938 0.651935
1267 2 0.416989 0.455556 0.635256
1206 4 0.488477 0.421334 0.629361
2168 4 0.416685 0.491693 0.653958
1204 2 0.465523 0.429532 0.623784
1910 4 0.433546 0.447932 0.604305
1269 4 0.423686 0.438174 0.618577
1205 4 0.442569 0.437729 0.618207
825 4 0.0970754 0.993821 0.681927
1284 4 0.0974216 0.0643839 0.681832
1282 2 0.10956 0.0815362 0.695383
2256 4 0.185682 0.0108588 0.739303
2049 4 0.168456 0.0186377 0.736197
1201 2 0.18331 0.051236 0.729266
1202 4 0.183727 0.0263029 0.727438
1203 4 0.182893 0.0761692 0.731095
1005 4 0.36164 0.0453885 0.675249
1003 2 0.355714 0.0220362 0.66856
45 3 0.443366 0.0424256 0.671394
41 1 0.440873 0.0650449 0.670502
810 4 0.476531 0.0729606 0.669936
42 3 0.422319 0.0711077 0.682674
1162 2 0.490482 0.056463 0.698907
1163 4 0.476119 0.0746702 0.689559
44 3 0.459527 0.0754311 0.679586
1077 4 0.0354142 0.106495 0.735916
1075 2 0.0162931 0.0993442 0.721479
864 4 0.0437957 0.1114 0.752362
852 4 0.0459294 0.171871 0.746035
909 4 0.100158 0.157739 0.709857
907 2 0.106018 0.134003 0.715097
908 4 0.111878 0.110267 0.720337
1283 4 0.121699 0.0986884 0.708934
1227 4 0.130495 0.106859 0.724962
1225 2 0.152281 0.0981439 0.733599
1208 4 0.088361 0.166924 0.697932
1226 4 0.174067 0.0894287 0.742235
1148 4 0.190549 0.0930828 0.732614
1147 2 0.206625 0.105286 0.747372
829 2 0.31822 0.144818 0.714688
830 4 0.293991 0.150953 0.715365
831 4 0.34245 0.138682 0.71401
1142 4 0.353049 0.155705 0.711363
1025 4 0.458288 0.153671 0.697081
3424 2 0.467436 0.112149 0.689111
3426 4 0.472675 0.0900123 0.678734
3425 4 0.462197 0.134286 0.699489
3269 4 0.475015 0.148003 0.706156
3268 2 0.483413 0.16045 0.726149
845 4 0.454176 0.106759 0.743828
1024 2 0.43713 0.166705 0.699846
1214 4 0.0320436 0.178591 0.73373
850 2 0.0661438 0.170932 0.731349
1213 2 0.0107435 0.191412 0.731065
851 4 0.0863581 0.169992 0.716663
1207 2 0.0891361 0.179577 0.67638
1107 4 0.10209 0.177075 0.7069
1105 2 0.119175 0.189638 0.720146
1106 4 0.13626 0.202201 0.733391
887 4 0.289751 0.164948 0.70254
886 2 0.279113 0.177077 0.683438
978 4 0.289626 0.168308 0.722391
976 2 0.29 0.18856 0.737051
977 4 0.290373 0.208811 0.751711
916 2 0.309128 0.244157 0.742243
1141 2 0.375675 0.166315 0.710561
1194 4 0.402057 0.18891 0.694199
1192 2 0.400627 0.202454 0.67323
1143 4 0.398302 0.176926 0.70976
1262 4 0.407002 0.19398 0.712548
1026 4 0.415973 0.179739 0.70261
3270 4 0.491811 0.172898 0.746142
1261 2 0.415028 0.204601 0.733713
3262 2 0.0654469 0.309912 0.680644
3264 4 0.0706156 0.304575 0.704518
779 4 0.075877 0.298366 0.722029
893 4 0.0685353 0.316663 0.719402
892 2 0.0648043 0.328838 0.74092
778 2 0.0907228 0.278634 0.725955
780 4 0.105569 0.258901 0.729881
1065 4 0.214841 0.313679 0.704435
1063 2 0.232637 0.296304 0.701869
1064 4 0.250433 0.278929 0.699303
947 4 0.304263 0.271003 0.715979
946 2 0.284359 0.272631 0.700932
948 4 0.264456 0.274259 0.685886
917 4 0.317363 0.263353 0.728499
1008 4 0.425971 0.283267 0.712215
1006 2 0.434416 0.279106 0.735378
1067 4 0.162281 0.384451 0.711778
940 2 0.12935 0.388049 0.742757
941 4 0.146031 0.386299 0.724214
1068 4 0.187109 0.379276 0.66868
1066 2 0.174695 0.381863 0.690229
1176 4 0.18546 0.442835 0.700114
1174 2 0.185925 0.455864 0.678779
1139 4 0.296637 0.485698 0.704611
1138 2 0.307626 0.466324 0.715972
1140 4 0.318614 0.44695 0.727333
1229 4 0.330937 0.436331 0.738023
1989 4 0.316176 0.444893 0.746517
1100 4 0.399459 0.437761 0.74661
1228 2 0.355652 0.438652 0.741018
1230 4 0.380366 0.440972 0.744014
1101 4 0.444911 0.453549 0.732988
1099 2 0.422185 0.445655 0.739799
3330 4 0.464048 0.451252 0.732535
3328 2 0.481389 0.454446 0.714807
1251 4 0.457192 0.466162 0.742354
2047 2 0.152568 0.0146229 0.755081
2048 4 0.136679 0.0106081 0.773966
1113 4 0.37551 0.0676764 0.825228
980 4 0.428356 0.00150469 0.813114
2321 4 0.441036 0.0138575 0.806755
2322 4 0.438506 0.0619134 0.793156
2320 2 0.439771 0.0378854 0.799955
846 4 0.44963 0.074303 0.781599
862 2 0.0555439 0.116785 0.773767
863 4 0.0672922 0.122169 0.795171
833 4 0.056325 0.113295 0.808429
1125 4 0.0699525 0.125118 0.814166
1123 2 0.0759169 0.14884 0.819348
832 2 0.051755 0.100495 0.829417
911 4 0.109699 0.0986598 0.835612
1149 4 0.222702 0.117488 0.762131
1257 4 0.240019 0.126458 0.763681
1255 2 0.239759 0.122662 0.788393
921 4 0.22471 0.130262 0.819589
919 2 0.208452 0.147706 0.827112
1256 4 0.239499 0.118866 0.813105
840 4 0.240998 0.128244 0.830578
1111 2 0.377635 0.0923877 0.828393
1112 4 0.37976 0.117099 0.831557
844 2 0.451903 0.0905307 0.762714
3187 2 0.0336381 0.2461 0.791204
3189 4 0.045756 0.234503 0.809747
1124 4 0.0818812 0.172562 0.824531
1130 4 0.143127 0.207115 0.751874
34 3 0.132722 0.193268 0.830183
1129 2 0.151861 0.215495 0.773753
1131 4 0.160595 0.223876 0.795631
822 4 0.163854 0.241327 0.801767
35 3 0.09578 0.186186 0.82852
1277 4 0.168368 0.224677 0.812979
1276 2 0.175066 0.202836 0.823144
1278 4 0.181763 0.180996 0.833309
918 4 0.300894 0.224962 0.755987
1298 4 0.305736 0.207242 0.76386
1297 2 0.302018 0.205251 0.788506
1299 4 0.298301 0.20326 0.813151
1086 4 0.305703 0.20599 0.832653
50 3 0.395033 0.20079 0.786603
46 1 0.415679 0.208155 0.79278
49 3 0.413655 0.225391 0.808183
1043 4 0.412778 0.244249 0.802084
48 3 0.427885 0.190699 0.801985
47 3 0.42678 0.216022 0.774233
1263 4 0.423055 0.215223 0.754878
1146 4 0.481993 0.184496 0.758717
1145 4 0.439852 0.211238 0.761837
1144 2 0.460922 0.197867 0.760277
1022 4 0.436635 0.181219 0.819031
3188 4 0.0215203 0.257697 0.772661
1179 4 0.00579642 0.260668 0.761024
821 4 0.176874 0.28929 0.807311
820 2 0.170364 0.265309 0.804539
1096 2 0.242876 0.309712 0.832429
1235 4 0.228071 0.314721 0.79079
1098 4 0.231875 0.317758 0.811467
1042 2 0.427007 0.26085 0.789954
1044 4 0.441236 0.277451 0.777825
1007 4 0.442862 0.274945 0.758541
1165 2 0.481531 0.269059 0.776277
1166 4 0.459215 0.277828 0.769186
3275 4 0.00192501 0.344859 0.793991
894 4 0.0610732 0.341012 0.762438
3276 4 0.0486133 0.341889 0.776325
3274 2 0.0252692 0.343374 0.785158
816 4 0.0612436 0.356753 0.774955
814 2 0.0814925 0.371345 0.776457
942 4 0.112668 0.3898 0.7613
815 4 0.101741 0.385936 0.777959