ITEM: TIMESTEP
3380000
ITEM: NUMBER OF ATOMS
4590
ITEM: BOX BOUNDS pp pp pp
-9.9985700000000008e+00 9.9985700000000008e+00
-9.9985700000000008e+00 9.9985700000000008e+00
-9.9985700000000008e+00 9.9985700000000008e+00
ITEM: ATOMS id type xs ys zs
1805 4 0.0599779 0.999741 0.086785
702 4 0.123287 0.0531051 0.0167875
566 4 0.137686 0.0591513 0.00512278
986 4 0.403727 0.0841496 0.00389964
746 4 0.484326 0.0446185 0.0489898
2469 4 0.496835 0.0351051 0.0625959
745 2 0.473637 0.0487786 0.0267721
747 4 0.462949 0.0529387 0.00455444
985 2 0.42524 0.0714849 0.00249066
465 4 0.0945889 0.109821 0.043197
463 2 0.0702012 0.105015 0.0459029
464 4 0.0458135 0.100209 0.0486087
590 4 0.0273428 0.105681 0.0549655
589 2 0.00715978 0.105507 0.0697233
700 2 0.115012 0.0744861 0.0267649
701 4 0.106736 0.0958671 0.0367422
579 4 0.112336 0.142657 0.0867013
558 4 0.351124 0.129829 0.0586246
556 2 0.33898 0.110626 0.0690619
866 4 0.362746 0.140315 0.0464047
865 2 0.358902 0.164856 0.0492597
827 4 0.365994 0.121117 0.0501793
826 2 0.381318 0.108698 0.0348131
828 4 0.396641 0.0962785 0.0194468
554 4 0.0287715 0.21171 0.0471109
553 2 0.0450369 0.214744 0.028365
555 4 0.0613022 0.217779 0.00961911
835 2 0.103662 0.211036 0.00290791
836 4 0.0794095 0.210047 0.00890966
666 4 0.341696 0.248079 0.0695751
664 2 0.353277 0.226852 0.0632154
665 4 0.364858 0.205624 0.0568556
867 4 0.355058 0.189397 0.0521148
2808 4 0.0495352 0.311253 0.0432196
2806 2 0.0282445 0.299953 0.049868
2807 4 0.00695379 0.288653 0.0565163
573 4 0.328786 0.261413 0.0734333
356 4 0.30979 0.315624 0.0570737
572 4 0.301658 0.303342 0.0708517
355 2 0.302801 0.328021 0.0365155
571 2 0.315222 0.282378 0.0721425
1070 4 0.422285 0.2559 0.0765911
1069 2 0.442393 0.269151 0.0833206
1071 4 0.4625 0.282402 0.09005
647 4 0.0343335 0.381711 0.107815
507 4 0.128864 0.346313 0.0724884
505 2 0.140785 0.36139 0.0564963
506 4 0.152706 0.376467 0.0405042
483 4 0.159281 0.387691 0.0253652
481 2 0.182191 0.397663 0.0244444
482 4 0.205102 0.407634 0.0235236
357 4 0.295812 0.340418 0.0159572
902 4 0.28657 0.349429 0.999504
741 4 0.408976 0.370633 0.0823278
552 4 0.0666951 0.48165 0.091633
1787 4 0.0714258 0.483916 0.0723998
550 2 0.0540766 0.460096 0.0928015
551 4 0.041458 0.438542 0.09397
609 4 0.22375 0.411602 0.0201023
244 2 0.230596 0.480566 0.0441109
245 4 0.213189 0.478535 0.0619444
627 4 0.211329 0.460832 0.072663
625 2 0.208104 0.436886 0.0790957
607 2 0.240697 0.421173 0.0357979
246 4 0.248004 0.482597 0.0262773
608 4 0.257645 0.430745 0.0514935
272 4 0.249224 0.49333 0.00995528
252 4 0.270239 0.442285 0.0396077
250 2 0.291666 0.441825 0.0267287
251 4 0.313093 0.441366 0.0138496
2289 4 0.323208 0.458346 0.010739
2287 2 0.332819 0.477211 0.997438
957 4 0.407702 0.40476 0.0195556
280 2 0.502333 0.429888 0.0827994
226 2 0.477431 0.475884 0.0619874
227 4 0.499101 0.464005 0.0581839
228 4 0.45576 0.487763 0.0657909
282 4 0.497062 0.453069 0.0750538
16 1 0.0566669 0.0437996 0.152368
20 3 0.0570051 0.0576037 0.134257
18 3 0.0519644 0.0220832 0.145683
19 3 0.0406886 0.0510495 0.167551
1806 4 0.0539733 0.0287815 0.12705
1804 2 0.0569756 0.0142611 0.106918
17 3 0.0772937 0.044146 0.162544
652 2 0.333989 0.025474 0.149467
654 4 0.315124 0.0165381 0.163231
1661 4 0.315444 0.996798 0.164785
296 4 0.334927 0.08475 0.0960438
653 4 0.352854 0.0344099 0.135704
484 2 0.38555 0.0210719 0.11554
297 4 0.346767 0.0418643 0.118877
485 4 0.36462 0.033994 0.120026
295 2 0.340847 0.0633072 0.10746
486 4 0.40648 0.0081498 0.111053
237 4 0.158668 0.142742 0.136416
577 2 0.129199 0.145605 0.104926
578 4 0.146062 0.148554 0.12315
235 2 0.168408 0.120936 0.143817
476 4 0.153467 0.162093 0.134467
737 4 0.165279 0.154167 0.122539
236 4 0.178148 0.0991289 0.151219
691 2 0.215765 0.0877314 0.158021
692 4 0.239343 0.0813184 0.152717
693 4 0.192187 0.0941444 0.163324
736 2 0.184671 0.166998 0.113348
557 4 0.326837 0.0914228 0.0794992
582 4 0.251348 0.0913356 0.14093
580 2 0.274779 0.100062 0.141156
581 4 0.298209 0.108788 0.141382
29 3 0.294982 0.162402 0.154699
27 3 0.323239 0.146065 0.173336
30 3 0.298954 0.124961 0.154421
771 4 0.429959 0.124704 0.102312
769 2 0.43406 0.14936 0.101672
475 2 0.144368 0.175624 0.153423
738 4 0.204063 0.17983 0.104158
285 4 0.293963 0.17829 0.142852
354 4 0.317248 0.240601 0.150495
462 4 0.322454 0.235373 0.134498
460 2 0.327943 0.242096 0.111049
352 2 0.296978 0.252874 0.158474
283 2 0.303418 0.201425 0.143608
284 4 0.312873 0.224559 0.144364
255 4 0.329531 0.228252 0.148932
253 2 0.34929 0.229915 0.164163
770 4 0.438161 0.174017 0.101031
1014 4 0.450017 0.179671 0.115948
1013 4 0.466432 0.226609 0.110646
1012 2 0.458225 0.20314 0.113297
461 4 0.333433 0.24882 0.0876006
756 4 0.2464 0.298074 0.117461
612 4 0.254359 0.315697 0.124352
754 2 0.253685 0.285567 0.137849
755 4 0.260969 0.27306 0.158238
353 4 0.276708 0.265146 0.166454
322 2 0.457185 0.324118 0.0898607
324 4 0.452751 0.300368 0.0834217
519 4 0.469412 0.246553 0.11224
517 2 0.482739 0.252472 0.132551
518 4 0.496066 0.258391 0.152862
620 4 0.0191192 0.376642 0.0964037
454 2 0.0699752 0.331043 0.149592
456 4 0.0810902 0.349483 0.13688
648 4 0.0776076 0.360741 0.121539
646 2 0.0559705 0.371226 0.114677
294 4 0.0940396 0.350983 0.121969
293 4 0.127795 0.335028 0.0887017
292 2 0.110917 0.343006 0.105336
610 2 0.243885 0.335015 0.112424
626 4 0.204879 0.41294 0.0855285
536 4 0.220747 0.407458 0.0953675
611 4 0.233411 0.354333 0.100496
535 2 0.218315 0.382633 0.0936352
537 4 0.215884 0.357808 0.0919028
387 4 0.33056 0.410272 0.110436
739 2 0.400327 0.380192 0.103752
740 4 0.391678 0.389752 0.125176
385 2 0.352595 0.403348 0.120012
386 4 0.374629 0.396425 0.129589
495 4 0.390443 0.404603 0.137639
15 3 0.378528 0.377715 0.133872
11 1 0.385911 0.380297 0.15526
12 3 0.401143 0.363744 0.160069
14 3 0.396259 0.40093 0.157627
309 4 0.35799 0.36409 0.159139
323 4 0.461618 0.347868 0.0962998
670 2 0.473323 0.38119 0.10205
672 4 0.455683 0.364203 0.107092
242 4 0.0821259 0.492853 0.0858418
241 2 0.102838 0.491873 0.0998144
243 4 0.12355 0.490893 0.113787
1440 4 0.135342 0.474885 0.114628
1438 2 0.158865 0.482959 0.112045
1439 4 0.182387 0.491033 0.109462
639 4 0.190211 0.48393 0.0908606
637 2 0.21307 0.487538 0.100328
638 4 0.235929 0.491147 0.109795
767 4 0.252404 0.485196 0.102207
303 4 0.309423 0.462762 0.0939018
768 4 0.301225 0.48053 0.092437
301 2 0.311037 0.440004 0.104133
302 4 0.312651 0.417247 0.114363
766 2 0.276814 0.482863 0.0973218
493 2 0.399456 0.42736 0.132532
494 4 0.408468 0.450116 0.127426
660 4 0.409445 0.467877 0.135732
525 4 0.443493 0.484986 0.0806645
524 4 0.417689 0.465125 0.118617
523 2 0.430591 0.475055 0.099641
658 2 0.421445 0.48073 0.153508
380 4 0.0537788 0.0553063 0.182687
379 2 0.0447037 0.0738467 0.196797
675 4 0.0739847 0.0502024 0.181856
673 2 0.098245 0.0497134 0.187887
674 4 0.122505 0.0492243 0.193918
450 4 0.136418 0.0619541 0.187389
1505 4 0.140824 0.0461547 0.19829
1504 2 0.148166 0.0235357 0.206014
448 2 0.155371 0.0744539 0.176915
632 4 0.410099 0.0284773 0.254978
22 3 0.3847 0.00297411 0.21748
757 2 0.430644 0.0403446 0.220345
759 4 0.419955 0.0276448 0.239044
758 4 0.441333 0.0530444 0.201647
350 4 0.425554 0.0162744 0.254
512 4 0.0372 0.107876 0.22225
381 4 0.0356286 0.092387 0.210906
511 2 0.051284 0.125371 0.211263
513 4 0.0653681 0.142867 0.200276
339 4 0.0839078 0.152908 0.200325
449 4 0.174325 0.0869537 0.166441
26 1 0.30123 0.143777 0.167048
28 3 0.288111 0.14215 0.186117
477 4 0.135269 0.189155 0.172378
337 2 0.101064 0.167495 0.189459
363 4 0.122456 0.201881 0.179827
338 4 0.118219 0.182083 0.178594
362 4 0.128977 0.24668 0.201069
361 2 0.125717 0.22428 0.190448
372 4 0.143336 0.247623 0.2162
723 4 0.241898 0.215757 0.247598
721 2 0.223982 0.204024 0.260504
628 2 0.402299 0.212745 0.177387
630 4 0.388906 0.233843 0.178215
254 4 0.369049 0.231578 0.179395
765 4 0.377187 0.249314 0.180794
629 4 0.415693 0.191648 0.176559
311 4 0.478139 0.211275 0.180955
312 4 0.434456 0.187002 0.182768
310 2 0.456297 0.199139 0.181861
761 4 0.456552 0.198958 0.226418
760 2 0.453413 0.204659 0.25056
455 4 0.0588601 0.312603 0.162304
749 4 0.0435482 0.318396 0.175003
750 4 0.0514323 0.298309 0.220115
395 4 0.0375136 0.295942 0.235802
748 2 0.0474902 0.308353 0.197559
300 4 0.136977 0.298345 0.174359
370 2 0.148152 0.24466 0.240556
298 2 0.131135 0.313447 0.193411
733 2 0.120729 0.331435 0.253169
278 4 0.259616 0.264231 0.175894
277 2 0.261328 0.278879 0.196085
279 4 0.26304 0.293527 0.216276
401 4 0.278533 0.30163 0.223607
496 2 0.304913 0.330811 0.209059
498 4 0.295598 0.310423 0.220138
763 2 0.382266 0.273796 0.18099
764 4 0.387346 0.298277 0.181186
623 4 0.406197 0.303162 0.185373
528 4 0.468987 0.289488 0.208157
624 4 0.454202 0.29863 0.198628
622 2 0.430199 0.300896 0.192
526 2 0.479102 0.27849 0.188109
262 2 0.0582477 0.395549 0.201149
263 4 0.0786463 0.39004 0.18778
264 4 0.0378491 0.401057 0.214518
2618 4 0.0213725 0.399102 0.22621
2617 2 0.00105193 0.408259 0.237542
299 4 0.125292 0.328549 0.212463
734 4 0.115713 0.33307 0.228728
602 4 0.0901506 0.373449 0.192625
601 2 0.107136 0.360491 0.205615
603 4 0.124122 0.347533 0.218606
497 4 0.314228 0.351199 0.19798
308 4 0.327713 0.338022 0.189214
307 2 0.342852 0.351056 0.174176
13 3 0.368101 0.378626 0.170039
290 4 0.15753 0.424699 0.23589
289 2 0.170198 0.428849 0.214736
291 4 0.182866 0.433 0.193583
416 4 0.179422 0.43892 0.174633
415 2 0.191399 0.460844 0.175669
1430 4 0.204181 0.490875 0.195349
417 4 0.203375 0.482768 0.176705
713 4 0.367556 0.494165 0.246737
597 4 0.484595 0.470961 0.207729
659 4 0.433445 0.493583 0.171285
595 2 0.464982 0.4824 0.197257
596 4 0.445369 0.493838 0.186785
234 4 0.0102126 0.0765279 0.305502
232 2 0.0185969 0.0530012 0.306675
1799 4 0.0206544 0.0115147 0.312742
233 4 0.0269813 0.0294745 0.307847
1402 2 0.0638951 0.00961424 0.313486
1403 4 0.0398389 0.014203 0.308445
1404 4 0.0879514 0.00502547 0.318528
1798 2 0.00650998 0.00163962 0.330841
633 4 0.372317 0.0304438 0.287678
631 2 0.391208 0.0294606 0.271328
257 4 0.358888 0.0324134 0.301937
698 4 0.363477 0.014777 0.294737
256 2 0.358909 0.0463252 0.322713
349 2 0.448009 0.0112443 0.263782
744 4 0.47787 0.0145416 0.288838
742 2 0.491943 0.0238702 0.30728
351 4 0.470463 0.00621428 0.273564
397 2 0.0811951 0.138086 0.31847
398 4 0.0888654 0.159544 0.308179
249 4 0.208556 0.117655 0.318209
404 4 0.216177 0.131725 0.303447
403 2 0.210184 0.154061 0.293941
393 4 0.100732 0.173142 0.302263
390 4 0.0880203 0.176733 0.317162
392 4 0.137677 0.182428 0.269866
391 2 0.119204 0.177785 0.286064
388 2 0.0912753 0.198155 0.32964
545 4 0.146 0.185665 0.251424
544 2 0.169244 0.182572 0.260102
546 4 0.192489 0.179479 0.26878
405 4 0.204191 0.176397 0.284436
722 4 0.206067 0.192291 0.273409
377 4 0.309421 0.212644 0.322816
420 4 0.39327 0.215967 0.304372
717 4 0.381416 0.228699 0.295341
418 2 0.417309 0.213767 0.297855
331 2 0.469991 0.197225 0.312839
332 4 0.458171 0.202148 0.291362
419 4 0.441348 0.211566 0.291339
762 4 0.450274 0.210359 0.274702
333 4 0.481811 0.192302 0.334315
394 2 0.0397353 0.292494 0.260466
442 2 0.0249689 0.26496 0.316818
364 2 0.026468 0.322462 0.302743
396 4 0.041957 0.289046 0.285131
443 4 0.0301678 0.280676 0.298079
365 4 0.0287844 0.299295 0.293626
371 4 0.152967 0.241698 0.264911
735 4 0.125744 0.329799 0.27761
677 4 0.144125 0.324205 0.28372
508 2 0.231658 0.321179 0.290248
676 2 0.167811 0.330414 0.288777
510 4 0.253944 0.312606 0.282831
400 2 0.274104 0.305923 0.247838
402 4 0.269675 0.310216 0.272068
345 4 0.270216 0.304327 0.290463
343 2 0.278888 0.28208 0.297882
344 4 0.287561 0.259834 0.305301
715 2 0.380848 0.253503 0.292237
716 4 0.380279 0.278306 0.289133
542 4 0.377318 0.291093 0.304109
541 2 0.385117 0.305642 0.322889
751 2 0.496538 0.322805 0.330381
753 4 0.4946 0.328452 0.306101
407 4 0.0209844 0.359214 0.325903
366 4 0.0241516 0.345629 0.311859
548 4 0.0224015 0.364326 0.307109
547 2 0.0276018 0.385074 0.294162
549 4 0.0328022 0.405822 0.281214
2493 4 0.00730734 0.353598 0.313435
678 4 0.191498 0.336622 0.293835
509 4 0.209372 0.329752 0.297664
435 4 0.204766 0.349068 0.299118
433 2 0.20245 0.36943 0.313444
434 4 0.200134 0.389791 0.32777
2538 4 0.487355 0.337091 0.289345
777 4 0.0441374 0.417291 0.293335
775 2 0.0627475 0.427865 0.30626
776 4 0.0813577 0.438438 0.319185
1543 2 0.159572 0.479068 0.333884
1545 4 0.183469 0.472934 0.329823
1436 4 0.186016 0.482105 0.310818
728 4 0.358603 0.410453 0.303067
727 2 0.363941 0.43229 0.314015
2238 4 0.0299061 0.0276815 0.405194
1772 4 0.0138932 0.0152044 0.406251
2236 2 0.0197761 0.0432543 0.421928
1782 4 0.0760837 0.0088869 0.412152
732 4 0.101017 0.0819353 0.379525
369 4 0.097011 0.0622969 0.384148
367 2 0.095027 0.0407378 0.396656
368 4 0.093043 0.0191787 0.409164
604 2 0.171519 0.0248281 0.39606
1701 4 0.193249 0.058725 0.396702
1699 2 0.202967 0.0749251 0.380322
605 4 0.1818 0.045167 0.406346
1700 4 0.212686 0.0911252 0.363943
258 4 0.358931 0.060237 0.343489
424 2 0.343789 0.0556606 0.374737
425 4 0.345349 0.0451102 0.397352
1580 4 0.362926 0.0359691 0.403193
426 4 0.342229 0.0662109 0.352122
1579 2 0.375301 0.0143253 0.405084
399 4 0.0735248 0.116629 0.328761
730 2 0.0888712 0.0916296 0.359937
317 4 0.0584314 0.107113 0.337161
731 4 0.0767256 0.101324 0.340349
316 2 0.0360921 0.113203 0.346598
318 4 0.0137527 0.119292 0.356035
458 4 0.00406535 0.13697 0.360756
457 2 0.00494174 0.158388 0.373628
247 2 0.219766 0.107225 0.337977
248 4 0.230975 0.0967956 0.357744
319 2 0.323297 0.151335 0.389732
321 4 0.334375 0.166179 0.372936
320 4 0.312219 0.136492 0.406529
516 4 0.459727 0.152877 0.382514
575 4 0.474211 0.140964 0.390385
574 2 0.468298 0.127276 0.410457
2653 2 0.00496191 0.21735 0.384071
459 4 0.00581812 0.179806 0.386499
389 4 0.0945304 0.219576 0.342118
2654 4 0.0166385 0.195672 0.388414
376 2 0.308684 0.236341 0.314872
708 4 0.33439 0.185619 0.369523
707 4 0.30152 0.210947 0.341616
706 2 0.317955 0.198283 0.355569
453 4 0.493372 0.197564 0.34908
514 2 0.472976 0.166194 0.366013
515 4 0.486224 0.17951 0.349511
444 4 0.0197699 0.249243 0.335557
274 2 0.135634 0.320276 0.367943
276 4 0.154001 0.310791 0.382009
275 4 0.117267 0.329761 0.353877
375 4 0.155321 0.295313 0.393824
373 2 0.177727 0.284379 0.395719
374 4 0.200134 0.273446 0.397615
473 4 0.211812 0.257763 0.403417
378 4 0.307947 0.260038 0.306928
267 4 0.334651 0.273208 0.420797
543 4 0.392916 0.320191 0.341668
467 4 0.363919 0.261608 0.361294
466 2 0.353791 0.269497 0.38275
468 4 0.343664 0.277387 0.404206
615 4 0.407613 0.315718 0.354092
613 2 0.417125 0.314881 0.3772
561 4 0.493263 0.314416 0.372849
752 4 0.498475 0.317157 0.354661
614 4 0.426638 0.314044 0.400309
406 2 0.0342561 0.359212 0.347094
408 4 0.0475279 0.35921 0.368284
347 4 0.0545864 0.364294 0.385831
346 2 0.0476622 0.369882 0.409198
618 4 0.0635409 0.350385 0.375685
617 4 0.107379 0.347481 0.3518
616 2 0.0854601 0.348933 0.363742
504 4 0.292844 0.395061 0.412724
502 2 0.310898 0.412292 0.411193
335 4 0.385026 0.418001 0.409132
414 4 0.0966405 0.434433 0.331327
1544 4 0.135675 0.485203 0.337945
413 4 0.12124 0.475373 0.346143
412 2 0.10894 0.454903 0.338735
500 4 0.120164 0.494639 0.347214
669 4 0.326818 0.448989 0.411607
334 2 0.363361 0.429871 0.405268
729 4 0.36928 0.454126 0.324963
437 4 0.376034 0.468897 0.335891
336 4 0.341697 0.441742 0.401404
436 2 0.386391 0.481297 0.354974
438 4 0.396748 0.493696 0.374057
593 4 0.412635 0.492134 0.362586
3990 4 0.506586 0.490206 0.38582
3111 4 0.0123342 0.0130282 0.504369
1126 2 0.014643 0.0454762 0.47665
1127 4 0.0150659 0.0611776 0.457196
2237 4 0.00964614 0.0588271 0.438663
720 4 0.025223 0.0700999 0.443716
1128 4 0.0142202 0.0297748 0.496104
724 2 0.320563 0.0539512 0.469521
963 4 0.303179 0.0225936 0.485342
725 4 0.315122 0.0295938 0.471036
432 4 0.322476 0.0193577 0.485844
726 4 0.326004 0.0783086 0.468005
430 2 0.337631 0.0120849 0.504354
642 4 0.44408 0.0595915 0.449554
2878 2 0.443504 0.0192812 0.440739
2880 4 0.443927 0.0438895 0.436331
640 2 0.447173 0.0843334 0.447696
469 2 0.00338035 0.137469 0.465084
470 4 0.019842 0.120747 0.456449
718 2 0.0308045 0.0944657 0.444293
719 4 0.036386 0.118831 0.44487
939 4 0.0937409 0.14369 0.478048
1033 2 0.128805 0.146355 0.45287
1035 4 0.151771 0.144069 0.443253
1034 4 0.105838 0.148642 0.462487
261 4 0.171901 0.146603 0.446651
259 2 0.18092 0.165398 0.460457
684 4 0.293932 0.134449 0.411056
682 2 0.275346 0.144724 0.424253
1181 4 0.307389 0.124003 0.419924
1182 4 0.320051 0.0954209 0.458956
1180 2 0.31372 0.109712 0.43944
576 4 0.462386 0.113589 0.430528
641 4 0.450266 0.109075 0.445838
306 4 0.455451 0.127258 0.442524
304 2 0.44113 0.136175 0.460979
305 4 0.426809 0.145093 0.479433
694 2 0.162893 0.213161 0.492587
695 4 0.181379 0.198904 0.483634
260 4 0.189939 0.184192 0.474264
687 4 0.230948 0.220998 0.449839
686 4 0.187649 0.201502 0.465518
685 2 0.209299 0.21125 0.457679
474 4 0.237051 0.233607 0.439197
599 4 0.246209 0.218937 0.441243
411 4 0.245247 0.230255 0.454402
409 2 0.251209 0.235231 0.478169
472 2 0.224431 0.245685 0.421307
600 4 0.266285 0.173397 0.436366
683 4 0.25676 0.155 0.43745
598 2 0.256247 0.196167 0.438805
488 4 0.254969 0.234941 0.440709
487 2 0.276538 0.245609 0.433918
489 4 0.298108 0.256277 0.427127
265 2 0.331323 0.296476 0.429322
266 4 0.327994 0.319745 0.437848
348 4 0.040738 0.37547 0.432565
2812 2 0.00137305 0.359465 0.437255
2813 4 0.0208331 0.374343 0.432244
326 4 0.0297023 0.385852 0.44545
325 2 0.0441738 0.384664 0.465805
327 4 0.0586453 0.383476 0.486161
7 3 0.0765484 0.390529 0.487887
6 1 0.0956939 0.380113 0.495243
10 3 0.104417 0.367625 0.478313
8 3 0.110972 0.396284 0.501836
774 4 0.180774 0.425846 0.491898
813 4 0.261729 0.34633 0.456691
811 2 0.252121 0.345518 0.47976
240 4 0.40364 0.426044 0.410642
680 4 0.0432436 0.497032 0.508125
679 2 0.0429904 0.473007 0.501205
681 4 0.0427371 0.448982 0.494284
709 2 0.141496 0.422249 0.495662
710 4 0.162963 0.430679 0.486003
634 2 0.17329 0.444134 0.455886
635 4 0.176759 0.426169 0.472928
636 4 0.169821 0.462098 0.438843
503 4 0.328952 0.429522 0.409661
4 3 0.330053 0.502155 0.458898
667 2 0.327318 0.466409 0.429536
668 4 0.327818 0.48383 0.447465
586 2 0.438199 0.448766 0.473315
588 4 0.436197 0.46157 0.451932
238 2 0.41979 0.441769 0.421462
239 4 0.435939 0.457495 0.432282
1184 4 0.063165 0.0216871 0.560343
3077 4 0.04982 0.0149485 0.547871
3076 2 0.0399952 0.0175664 0.525028
1183 2 0.0655368 0.998739 0.569982
3078 4 0.0301703 0.0201843 0.502185
1152 4 0.144428 0.0591906 0.538294
1150 2 0.138171 0.0662858 0.561439
1151 4 0.131913 0.073381 0.584584
342 4 0.158432 0.0452767 0.534486
340 2 0.178867 0.0323006 0.540746
2430 4 0.214032 0.00569388 0.547068
341 4 0.199303 0.0193246 0.547006
2428 2 0.232569 0.00812479 0.530465
2429 4 0.251105 0.0105557 0.513862
962 4 0.262416 0.999668 0.503047
961 2 0.282798 0.0111308 0.494194
841 2 0.392211 0.0196933 0.532982
843 4 0.371301 0.00882697 0.524622
431 4 0.352786 0.00481199 0.522864
842 4 0.413121 0.0305596 0.541342
1217 4 0.433429 0.0225457 0.54527
1061 4 0.502608 0.0880989 0.526963
877 2 0.0368855 0.148494 0.541789
878 4 0.0159313 0.146882 0.555336
938 4 0.0736148 0.158109 0.521496
1272 4 0.0671279 0.161918 0.540373
879 4 0.0578398 0.150105 0.528243
1199 4 0.0101301 0.163603 0.547431
937 2 0.0836778 0.1509 0.499772
1154 4 0.154635 0.139057 0.585557
1221 4 0.170388 0.14943 0.582287
3159 4 0.457247 0.137849 0.531024
3157 2 0.440203 0.145238 0.514289
1062 4 0.464984 0.121026 0.527952
1060 2 0.483796 0.104562 0.527458
3158 4 0.423159 0.152628 0.497553
1270 2 0.0874498 0.168738 0.553245
1258 2 0.115407 0.233304 0.534799
1260 4 0.130399 0.227954 0.515518
1271 4 0.107772 0.175558 0.566117
696 4 0.144406 0.227418 0.501539
1259 4 0.100414 0.238654 0.554081
898 2 0.298663 0.230461 0.517593
899 4 0.319734 0.224321 0.529574
857 4 0.323335 0.217137 0.546991
791 4 0.338195 0.22557 0.537969
856 2 0.326232 0.193763 0.555384
900 4 0.277593 0.2366 0.505613
410 4 0.25717 0.240206 0.501936
651 4 0.283757 0.331073 0.552701
649 2 0.264804 0.337301 0.537628
790 2 0.352014 0.244371 0.546955
792 4 0.365832 0.263172 0.55594
872 4 0.380056 0.274007 0.550178
1238 4 0.366719 0.281583 0.561463
871 2 0.398204 0.280229 0.534143
1237 2 0.354609 0.300517 0.572419
873 4 0.416351 0.286451 0.518108
9 3 0.0903651 0.36645 0.513224
1137 4 0.130337 0.381266 0.586148
773 4 0.212985 0.415738 0.528789
1189 2 0.210906 0.414042 0.565666
1190 4 0.2234 0.410224 0.544347
803 4 0.216512 0.396672 0.533172
802 2 0.223432 0.374353 0.524276
804 4 0.230353 0.352033 0.51538
930 4 0.230786 0.408318 0.526396
772 2 0.19688 0.420792 0.510343
650 4 0.245852 0.343529 0.522554
805 2 0.311575 0.335818 0.568701
806 4 0.298307 0.344708 0.549463
812 4 0.242512 0.344706 0.502829
927 4 0.400284 0.382132 0.484804
925 2 0.414803 0.401109 0.492167
383 4 0.0607287 0.442568 0.502231
711 4 0.120029 0.41382 0.505321
384 4 0.108317 0.429453 0.510235
382 2 0.0845228 0.43601 0.506233
569 4 0.115908 0.440997 0.525053
568 2 0.121627 0.434326 0.548462
570 4 0.127346 0.427655 0.571871
538 2 0.127061 0.482975 0.520637
539 4 0.114991 0.461256 0.523428
928 2 0.249523 0.424875 0.52644
929 4 0.268259 0.441431 0.526485
1951 2 0.267218 0.475775 0.534266
1953 4 0.262646 0.452326 0.541643
1001 4 0.415868 0.474806 0.561295
1000 2 0.393073 0.484945 0.559634
662 4 0.427917 0.460653 0.554792
661 2 0.430883 0.447384 0.533808
663 4 0.433848 0.434116 0.512824
926 4 0.429323 0.420086 0.499531
1911 4 0.430912 0.468614 0.572586
1332 4 0.434657 0.479249 0.556615
587 4 0.440201 0.435962 0.494698
2374 2 0.140854 0.00667108 0.637069
2375 4 0.145619 0.0305727 0.642653
1057 2 0.139544 0.0620483 0.617816
1058 4 0.134229 0.0463907 0.636571
1059 4 0.144858 0.0777059 0.59906
950 4 0.227605 0.0103781 0.64739
949 2 0.243573 0.0272327 0.656671
951 4 0.25954 0.0440873 0.665952
1031 4 0.269912 0.055607 0.651454
1030 2 0.290002 0.0677264 0.64281
2400 4 0.332964 0.0148952 0.633984
43 3 0.444003 0.0687644 0.635169
45 3 0.471355 0.0456579 0.646814
41 1 0.457277 0.0624154 0.65311
44 3 0.469518 0.0805947 0.660732
1155 4 0.137445 0.0921939 0.588574
1153 2 0.14604 0.115625 0.587066
1209 4 0.110569 0.173712 0.634922
1207 2 0.10444 0.167483 0.658348
1032 4 0.310091 0.0798457 0.634167
810 4 0.480325 0.0968742 0.656776
808 2 0.481995 0.105288 0.633289
809 4 0.483665 0.113702 0.609803
3252 4 0.500629 0.122266 0.603693
3426 4 0.471086 0.0953099 0.672907
3008 4 0.491794 0.1094 0.592054
1244 4 0.1034 0.188481 0.580639
1245 4 0.0913601 0.181398 0.628656
1243 2 0.0973803 0.184939 0.604647
1211 4 0.240986 0.160252 0.647533
1219 2 0.18659 0.166338 0.591051
1220 4 0.202791 0.183247 0.599814
1210 2 0.227416 0.173789 0.631477
1212 4 0.213846 0.187325 0.615421
796 2 0.213076 0.219335 0.591335
798 4 0.21682 0.195477 0.597813
888 4 0.244728 0.158053 0.667301
858 4 0.329128 0.17039 0.563778
3121 2 0.505714 0.208013 0.602752
3123 4 0.489911 0.227074 0.599269
905 4 0.490417 0.245314 0.607831
982 2 0.0308349 0.335961 0.658279
983 4 0.00701467 0.328379 0.658819
797 4 0.209331 0.243192 0.584856
807 4 0.324843 0.326927 0.587939
1239 4 0.342498 0.319451 0.583374
906 4 0.458069 0.281469 0.595702
904 2 0.474243 0.263391 0.601766
953 4 0.455572 0.299208 0.587476
952 2 0.473003 0.317111 0.588396
1041 4 0.0655056 0.358525 0.663893
1039 2 0.0678151 0.377293 0.647534
1040 4 0.0701246 0.396061 0.631175
993 4 0.0548014 0.407301 0.627673
897 4 0.147995 0.375405 0.577382
1135 2 0.114349 0.363143 0.592562
1136 4 0.098362 0.34502 0.598976
895 2 0.165426 0.391461 0.585352
1028 4 0.192778 0.400844 0.65417
1027 2 0.194383 0.407634 0.63016
1029 4 0.195988 0.414423 0.606149
1191 4 0.198412 0.41786 0.586985
1068 4 0.178302 0.389462 0.664655
896 4 0.182858 0.407517 0.593321
1206 4 0.482896 0.403384 0.619158
3309 4 0.500055 0.395273 0.621482
954 4 0.490433 0.335014 0.589316
3307 2 0.497581 0.373363 0.609691
3308 4 0.495107 0.351454 0.5979
991 2 0.0386517 0.424319 0.619028
992 4 0.022502 0.441338 0.610383
1188 4 0.158557 0.505482 0.653499
1175 4 0.138802 0.502533 0.648842
1172 4 0.183621 0.42667 0.596589
1160 4 0.190219 0.49104 0.604528
1171 2 0.182311 0.451632 0.596014
1173 4 0.181001 0.476595 0.595438
1187 4 0.177526 0.480859 0.614325
1186 2 0.168042 0.493171 0.633912
1909 2 0.429856 0.4551 0.593597
1268 4 0.460212 0.484913 0.655268
1267 2 0.446947 0.467184 0.643654
1204 2 0.46354 0.419021 0.621605
1910 4 0.4288 0.441587 0.614607
1269 4 0.433682 0.449454 0.632041
1205 4 0.444184 0.434659 0.624052
2168 4 0.478155 0.493783 0.65581
3182 4 0.498297 0.415312 0.620038
1284 4 0.108685 0.0513681 0.742996
1282 2 0.11805 0.0693713 0.728389
1201 2 0.201494 0.0461841 0.732669
1203 4 0.200676 0.0683435 0.721116
1226 4 0.190329 0.078732 0.708688
1148 4 0.208557 0.0824735 0.710934
1202 4 0.202312 0.0240247 0.744222
42 3 0.443713 0.0549285 0.670114
1075 2 0.00776716 0.123244 0.721501
1077 4 0.0268977 0.138363 0.727036
850 2 0.0628756 0.150962 0.70532
852 4 0.0412418 0.147813 0.717454
864 4 0.0416572 0.145771 0.736797
851 4 0.0845093 0.15411 0.693185
1214 4 0.0290031 0.157634 0.729571
1283 4 0.127414 0.0873746 0.713782
1227 4 0.144161 0.0973771 0.713336
909 4 0.102364 0.145641 0.693375
907 2 0.115578 0.125171 0.698993
908 4 0.128793 0.104702 0.704611
1208 4 0.0983108 0.161254 0.681775
1107 4 0.0996367 0.163046 0.701619
1225 2 0.167245 0.0880546 0.711012
1147 2 0.223818 0.0983373 0.722792
1149 4 0.239078 0.114201 0.734651
829 2 0.317817 0.147947 0.693036
831 4 0.337851 0.133417 0.689473
1142 4 0.351901 0.144855 0.699599
1141 2 0.371918 0.153909 0.711537
1026 4 0.407874 0.152597 0.727222
1143 4 0.391936 0.162963 0.723475
1163 4 0.48685 0.0840336 0.669223
1025 4 0.443572 0.117766 0.730843
3424 2 0.463361 0.101819 0.695779
3425 4 0.455637 0.108329 0.718651
3269 4 0.462407 0.120147 0.732693
1024 2 0.425723 0.135182 0.729032
3268 2 0.476777 0.134071 0.747686
845 4 0.454045 0.103109 0.73775
844 2 0.443756 0.085298 0.751966
1215 4 0.999966 0.198094 0.72504
1213 2 0.0144847 0.177864 0.727305
1105 2 0.113404 0.17811 0.716066
1106 4 0.127171 0.193174 0.730513
1130 4 0.14394 0.201252 0.725105
1129 2 0.153604 0.212258 0.74537
830 4 0.297783 0.162477 0.696599
887 4 0.279434 0.161651 0.703124
886 2 0.262081 0.159852 0.685213
978 4 0.292568 0.174867 0.710096
976 2 0.303421 0.191136 0.725675
977 4 0.314273 0.207404 0.741255
918 4 0.325468 0.220432 0.751299
916 2 0.332315 0.241331 0.739402
1262 4 0.403996 0.168189 0.738257
1194 4 0.410005 0.169904 0.719837
1192 2 0.418157 0.181181 0.699063
1193 4 0.426309 0.192457 0.678289
3262 2 0.0804175 0.330064 0.683881
893 4 0.072772 0.316821 0.717152
3264 4 0.0870306 0.31883 0.705218
892 2 0.0672246 0.327362 0.739137
779 4 0.0906076 0.309941 0.722228
778 2 0.102278 0.287838 0.722871
780 4 0.113949 0.265734 0.723515
1065 4 0.245763 0.317289 0.691483
1064 4 0.295482 0.314804 0.696228
1063 2 0.270623 0.316046 0.693855
946 2 0.320979 0.28585 0.706295
948 4 0.312713 0.309256 0.70329
947 4 0.329246 0.262445 0.709299
917 4 0.339162 0.26223 0.727506
1008 4 0.458278 0.278143 0.694933
1006 2 0.461679 0.270039 0.718341
1007 4 0.46508 0.261936 0.74175
984 4 0.0546552 0.343543 0.65774
3263 4 0.0738045 0.341298 0.662545
941 4 0.145572 0.381792 0.715291
1067 4 0.141169 0.376769 0.695651
940 2 0.13029 0.379776 0.734978
1066 2 0.159736 0.383115 0.680153
884 4 0.0623066 0.466531 0.741734
1139 4 0.300637 0.460427 0.701357
1138 2 0.314443 0.452677 0.720709
1140 4 0.328248 0.444927 0.740062
1989 4 0.318521 0.439571 0.756382
1229 4 0.337567 0.443376 0.757587
1230 4 0.385956 0.431664 0.75289
1228 2 0.361762 0.43752 0.755239
1099 2 0.421572 0.445597 0.738385
1101 4 0.4403 0.461257 0.732978
3330 4 0.448417 0.467455 0.717023
3328 2 0.465578 0.4542 0.704575
1251 4 0.454139 0.475706 0.733105
3329 4 0.48274 0.440944 0.692127
834 4 0.0271582 0.072098 0.805736
785 4 0.0220771 0.0713865 0.825605
2390 4 0.133858 0.0139785 0.773332
2048 4 0.15248 0.00394245 0.768888
2047 2 0.176671 0.00788373 0.763948
2049 4 0.200863 0.011825 0.759009
2254 2 0.234657 0.0114797 0.771187
2255 4 0.251142 0.00389773 0.78839
2256 4 0.218172 0.0190616 0.753984
1113 4 0.353545 0.0468481 0.812126
1111 2 0.366356 0.0682601 0.810513
979 2 0.412476 0.0203072 0.831235
2442 4 0.447408 0.00937269 0.817871
2321 4 0.446383 0.0215906 0.802991
2322 4 0.445884 0.0515603 0.762963
2320 2 0.446134 0.0365754 0.782977
846 4 0.433468 0.0674871 0.766182
980 4 0.432564 0.022527 0.816514
832 2 0.0352498 0.0943975 0.797834
862 2 0.0444794 0.140497 0.761074
863 4 0.0473017 0.135223 0.785352
833 4 0.0433414 0.116697 0.789932
1125 4 0.0542077 0.126982 0.802173
1123 2 0.0645473 0.144136 0.817139
911 4 0.140832 0.116449 0.836678
1257 4 0.242075 0.113114 0.754379
1255 2 0.235815 0.118042 0.778079
921 4 0.222898 0.140989 0.805616
919 2 0.205775 0.157339 0.813658
840 4 0.234235 0.132151 0.818715
1256 4 0.229556 0.12297 0.80178
838 2 0.254742 0.137729 0.831887
1112 4 0.379166 0.089672 0.8089
3270 4 0.491147 0.147994 0.76268
1124 4 0.0748869 0.161291 0.832106
34 3 0.113786 0.181103 0.818851
1131 4 0.163268 0.223264 0.765635
822 4 0.173135 0.233824 0.779661
1277 4 0.164986 0.216379 0.782997
1276 2 0.170819 0.202396 0.802887
920 4 0.188653 0.173689 0.821701
1278 4 0.176653 0.188413 0.822778
1298 4 0.3222 0.202642 0.75751
1297 2 0.33432 0.196607 0.778531
1299 4 0.346441 0.190572 0.799552
1086 4 0.334575 0.187599 0.81524
50 3 0.40383 0.207181 0.807409
1084 2 0.35436 0.175191 0.824171
1261 2 0.415984 0.181181 0.75594
1146 4 0.484605 0.163255 0.774156
46 1 0.426151 0.204393 0.803853
49 3 0.434741 0.222798 0.792634
1043 4 0.437434 0.210907 0.777292
48 3 0.437114 0.201643 0.824119
47 3 0.429487 0.185618 0.790987
1263 4 0.427971 0.194173 0.773623
1145 4 0.445499 0.193327 0.782348
1144 2 0.465052 0.178291 0.778252
1042 2 0.446718 0.229716 0.763682
820 2 0.171731 0.256016 0.791095
821 4 0.170328 0.278208 0.802529
1236 4 0.200753 0.311695 0.781929
1234 2 0.21837 0.321596 0.796652
1235 4 0.235988 0.331498 0.811375
1044 4 0.456002 0.248525 0.750073
1166 4 0.46535 0.260378 0.761399
1165 2 0.487284 0.263818 0.772897
894 4 0.0616773 0.337902 0.761121
3275 4 0.00543951 0.349606 0.797602
3276 4 0.047902 0.346762 0.771343