ITEM: TIMESTEP
950000
ITEM: NUMBER OF ATOMS
4590
ITEM: BOX BOUNDS pp pp pp
-9.9985700000000008e+00 9.9985700000000008e+00
-9.9985700000000008e+00 9.9985700000000008e+00
-9.9985700000000008e+00 9.9985700000000008e+00
ITEM: ATOMS id type xs ys zs
464 4 0.00853785 0.080806 0.0236054
701 4 0.0621743 0.0816846 0.0452875
567 4 0.160722 0.0668445 0.0755725
1668 4 0.0904103 0.001331 0.0634788
565 2 0.137834 0.0665119 0.0655125
566 4 0.114946 0.0661794 0.0554524
491 4 0.285789 0.0130869 0.0372375
2264 4 0.28302 0.0342033 0.00936383
558 4 0.361219 0.0533922 0.0238912
556 2 0.361614 0.0458754 0.0477349
557 4 0.362008 0.0383587 0.0715786
745 2 0.476685 0.0510319 0.00596017
746 4 0.489287 0.046936 0.0271638
2467 2 0.496221 0.00598789 0.0426705
2469 4 0.490173 0.0294408 0.0364602
463 2 0.0332634 0.0840694 0.0253871
465 4 0.057989 0.0873329 0.0271687
589 2 0.0101076 0.138212 0.0715575
590 4 0.0308315 0.135415 0.0578506
554 4 0.0611613 0.162289 0.00345785
700 2 0.0866019 0.0838552 0.0501617
423 4 0.100877 0.11802 0.00605734
421 2 0.101831 0.142689 0.0100206
702 4 0.11103 0.0860258 0.055036
422 4 0.102784 0.167358 0.0139839
359 4 0.269521 0.162796 0.00368659
770 4 0.449481 0.143947 0.0734801
553 2 0.065285 0.186894 0.00512839
836 4 0.081561 0.219083 0.0216272
555 4 0.0694088 0.211498 0.00679893
835 2 0.0990306 0.236818 0.0239684
666 4 0.314628 0.221771 0.0249091
664 2 0.323182 0.206134 0.00737293
573 4 0.325959 0.2331 0.0349596
461 4 0.321155 0.216245 0.04236
460 2 0.328644 0.212562 0.0659296
769 2 0.441169 0.167525 0.0739015
1012 2 0.488876 0.196759 0.0374166
771 4 0.432858 0.191103 0.0743229
1014 4 0.480131 0.212053 0.0551592
1013 4 0.497621 0.181466 0.0196739
837 4 0.1165 0.254552 0.0263095
915 4 0.133274 0.251797 0.0150033
292 2 0.106199 0.298397 0.0619306
294 4 0.0822825 0.303339 0.0565667
507 4 0.14891 0.287469 0.0738233
293 4 0.130115 0.293455 0.0672945
505 2 0.173831 0.285459 0.0740664
481 2 0.229951 0.315728 0.0655767
506 4 0.198753 0.28345 0.0743095
483 4 0.214658 0.296889 0.0716089
482 4 0.245244 0.334567 0.0595446
355 2 0.273946 0.299559 0.00803864
571 2 0.315237 0.25528 0.0306848
356 4 0.289374 0.291119 0.0258128
572 4 0.304514 0.27746 0.02641
1069 2 0.416136 0.256842 0.0359103
1070 4 0.407247 0.255013 0.0126117
957 4 0.373297 0.305561 0.0230189
1071 4 0.425024 0.258671 0.0592089
324 4 0.424161 0.278447 0.0538741
322 2 0.436629 0.29476 0.068143
672 4 0.443768 0.326462 0.0710998
323 4 0.449097 0.311073 0.0824119
620 4 0.0200261 0.353274 0.0695083
455 4 0.113373 0.369338 0.0802477
609 4 0.249002 0.348234 0.0750501
252 4 0.280658 0.405886 0.0578518
608 4 0.276936 0.386055 0.0580202
607 2 0.262969 0.367144 0.0665352
670 2 0.459984 0.344854 0.0759937
671 4 0.4762 0.363246 0.0808875
281 4 0.468174 0.377685 0.0673737
280 2 0.487034 0.391506 0.0585147
551 4 0.0736042 0.439837 0.0695193
550 2 0.0881057 0.459982 0.0665132
552 4 0.102607 0.480128 0.0635072
1787 4 0.100733 0.495681 0.0528354
242 4 0.118178 0.489934 0.0612176
241 2 0.139769 0.491945 0.0736659
250 2 0.286443 0.425865 0.0439748
244 2 0.260741 0.475332 0.0654494
251 4 0.292228 0.445843 0.0300978
271 2 0.273309 0.479065 0.00945218
246 4 0.264752 0.493634 0.048893
272 4 0.266394 0.491779 0.0298416
245 4 0.256729 0.457029 0.0820057
525 4 0.35104 0.498866 0.0750695
226 2 0.483149 0.472603 0.0593381
228 4 0.467158 0.458478 0.0723748
563 4 0.448232 0.473738 0.0100056
562 2 0.445392 0.496271 0.999548
2576 4 0.0108795 0.0402186 0.096188
16 1 0.0569417 0.0618213 0.167384
17 3 0.0705784 0.068699 0.150183
1804 2 0.0702286 0.00203207 0.144136
20 3 0.037288 0.0541824 0.15878
1667 4 0.0862648 0.00394894 0.113245
1666 2 0.0883376 0.00263997 0.0883619
448 2 0.18528 0.0764361 0.152877
450 4 0.177834 0.0533108 0.146965
1505 4 0.176098 0.0397419 0.162506
652 2 0.309028 0.0170923 0.135354
653 4 0.292508 0.0355847 0.132144
296 4 0.356833 0.0439611 0.0901035
295 2 0.369057 0.031831 0.108231
297 4 0.381281 0.0197008 0.126359
485 4 0.382034 0.00145115 0.117791
579 4 0.102885 0.101513 0.156151
237 4 0.135122 0.134151 0.152331
235 2 0.156879 0.123226 0.158029
236 4 0.178636 0.112301 0.163726
693 4 0.195078 0.119091 0.157189
449 4 0.192726 0.0995614 0.15879
284 4 0.277209 0.155018 0.164407
312 4 0.439121 0.147112 0.150086
337 2 0.0549005 0.209123 0.15211
339 4 0.0304191 0.205253 0.148814
338 4 0.079382 0.212993 0.155405
476 4 0.137683 0.196006 0.12636
475 2 0.117158 0.199867 0.140107
477 4 0.0966329 0.203728 0.153855
737 4 0.150655 0.210679 0.128227
738 4 0.199377 0.221941 0.12857
736 2 0.175016 0.21631 0.128399
283 2 0.278816 0.171725 0.145874
285 4 0.280423 0.188432 0.127341
255 4 0.330772 0.206701 0.108256
462 4 0.336134 0.20888 0.0894993
254 4 0.372181 0.199894 0.135453
253 2 0.351477 0.203297 0.121854
630 4 0.385821 0.214181 0.140835
628 2 0.409748 0.219884 0.136347
518 4 0.483369 0.246616 0.134033
629 4 0.433676 0.225587 0.131859
352 2 0.321104 0.2766 0.131416
353 4 0.303329 0.283522 0.147582
754 2 0.284298 0.31784 0.149122
755 4 0.286465 0.292946 0.148247
278 4 0.29583 0.285742 0.164781
354 4 0.338879 0.269677 0.115251
2895 4 0.496914 0.255661 0.145545
519 4 0.478387 0.291389 0.112325
517 2 0.480878 0.269003 0.123179
647 4 0.0208348 0.360177 0.0884006
646 2 0.0402742 0.351185 0.101301
648 4 0.0597137 0.342193 0.114202
456 4 0.0739763 0.356068 0.108041
454 2 0.0936748 0.362703 0.0941443
537 4 0.212257 0.386129 0.146073
535 2 0.199438 0.377064 0.126614
536 4 0.186618 0.367998 0.107155
611 4 0.233359 0.386386 0.141299
756 4 0.282132 0.342735 0.149997
612 4 0.274121 0.360889 0.155051
610 2 0.25374 0.373638 0.148175
387 4 0.321803 0.391141 0.15442
741 4 0.36513 0.339531 0.0865572
739 2 0.365365 0.353034 0.107599
740 4 0.365601 0.366538 0.128642
15 3 0.381484 0.365511 0.140119
385 2 0.34258 0.377762 0.150607
386 4 0.363356 0.364384 0.146795
11 1 0.40344 0.36942 0.144736
14 3 0.409212 0.390907 0.138148
495 4 0.412516 0.410505 0.139134
12 3 0.416414 0.354356 0.133163
2651 4 0.493504 0.364412 0.0899532
1467 4 0.0141906 0.460351 0.114276
1465 2 0.0268002 0.477687 0.127145
1466 4 0.0394097 0.495024 0.140015
243 4 0.16136 0.493956 0.0861141
625 2 0.219289 0.456196 0.100613
626 4 0.199506 0.464197 0.113644
627 4 0.239073 0.448195 0.0875832
638 4 0.242978 0.49863 0.153552
523 2 0.353732 0.476092 0.0850327
524 4 0.356424 0.453318 0.0949958
493 2 0.40367 0.432067 0.148189
660 4 0.402785 0.465517 0.143558
494 4 0.394823 0.453629 0.157244
658 2 0.414568 0.485825 0.152157
1673 4 0.426017 0.497857 0.0831283
18 3 0.0675966 0.0448441 0.179074
2480 4 0.0119285 0.0201812 0.178771
19 3 0.0529539 0.0798346 0.181456
380 4 0.0355372 0.0803172 0.191201
1806 4 0.0702201 0.0075088 0.168532
673 2 0.131481 0.0727663 0.201106
674 4 0.117082 0.0698949 0.221344
675 4 0.14588 0.0756377 0.180867
1506 4 0.184249 0.0119555 0.203276
1504 2 0.180174 0.0258487 0.182891
689 4 0.203268 0.00671778 0.203193
21 1 0.394294 0.0194048 0.239133
25 3 0.412495 0.0314858 0.232698
759 4 0.407708 0.0492506 0.222544
757 2 0.394271 0.0649696 0.208488
22 3 0.376689 0.024183 0.22512
758 4 0.380835 0.0806886 0.194432
744 4 0.471136 0.0130016 0.232761
351 4 0.46669 0.0325654 0.230829
349 2 0.445988 0.0441744 0.222964
350 4 0.425286 0.0557834 0.2151
512 4 0.0374957 0.149028 0.195692
379 2 0.0352727 0.105132 0.194254
381 4 0.0350082 0.129947 0.197308
511 2 0.0577352 0.157647 0.207577
578 4 0.0934658 0.139627 0.187125
577 2 0.0981756 0.12057 0.171638
546 4 0.161653 0.159138 0.247555
691 2 0.212315 0.128789 0.172487
692 4 0.229552 0.138486 0.187785
723 4 0.206151 0.151405 0.204809
721 2 0.189908 0.161457 0.220943
582 4 0.246784 0.127488 0.189294
580 2 0.263785 0.116361 0.203867
581 4 0.280785 0.105234 0.218439
30 3 0.291574 0.0923326 0.228272
26 1 0.30859 0.104036 0.23787
28 3 0.328695 0.0986004 0.22764
27 3 0.304742 0.126559 0.235207
310 2 0.434053 0.137282 0.17251
311 4 0.428986 0.127451 0.194935
513 4 0.0779747 0.166266 0.219462
363 4 0.0909579 0.212214 0.170752
362 4 0.116317 0.231857 0.209115
361 2 0.103638 0.222036 0.189933
372 4 0.134866 0.23029 0.212275
370 2 0.159262 0.225891 0.215541
722 4 0.173664 0.171508 0.237077
371 4 0.183657 0.221492 0.218807
279 4 0.272313 0.248385 0.188278
765 4 0.373047 0.216818 0.170881
763 2 0.378315 0.240218 0.177944
308 4 0.343186 0.235635 0.217634
520 2 0.495937 0.208632 0.236859
521 4 0.485979 0.229511 0.246351
395 4 0.0408855 0.275343 0.21859
750 4 0.0591611 0.284809 0.218298
748 2 0.0639663 0.295162 0.196052
749 4 0.0687716 0.305516 0.173806
394 2 0.0240564 0.274503 0.237063
277 2 0.284071 0.267064 0.176529
309 4 0.327486 0.282781 0.212022
307 2 0.335336 0.259208 0.214828
764 4 0.383583 0.263617 0.185007
623 4 0.393301 0.278806 0.180432
622 2 0.416962 0.285519 0.184933
624 4 0.440624 0.292232 0.189435
528 4 0.459132 0.297487 0.185553
527 4 0.492719 0.260505 0.183334
526 2 0.475926 0.278996 0.184443
262 2 0.0703779 0.402033 0.217623
264 4 0.0656146 0.395962 0.19384
263 4 0.0751411 0.408103 0.241406
300 4 0.13281 0.334016 0.231756
298 2 0.1393 0.357178 0.23858
603 4 0.135246 0.395763 0.252091
299 4 0.145791 0.38034 0.245404
290 4 0.212401 0.393701 0.220781
289 2 0.198368 0.413217 0.213898
302 4 0.310039 0.382795 0.169333
301 2 0.297704 0.40449 0.170874
13 3 0.407344 0.366782 0.167456
645 4 0.467836 0.411821 0.172189
643 2 0.480278 0.395103 0.186005
644 4 0.49272 0.378384 0.199821
447 4 0.482608 0.380814 0.216101
445 2 0.498783 0.372726 0.233367
417 4 0.181986 0.493613 0.206921
415 2 0.175672 0.469456 0.208241
291 4 0.184335 0.432733 0.207014
416 4 0.169359 0.445298 0.209562
767 4 0.253776 0.489558 0.166289
303 4 0.28537 0.426184 0.172416
766 2 0.26287 0.466359 0.168352
768 4 0.271964 0.443159 0.170415
597 4 0.461061 0.427957 0.181739
595 2 0.465115 0.45257 0.180025
596 4 0.46917 0.477183 0.17831
1568 4 0.489909 0.482491 0.180185
2861 4 0.453937 0.451815 0.242451
1799 4 0.0273963 0.0264762 0.317388
233 4 0.0221057 0.0247599 0.299531
1402 2 0.0619488 0.0274179 0.294308
1403 4 0.0396621 0.0325608 0.304409
232 2 0.00516895 0.0355675 0.284648
1404 4 0.0842354 0.0222751 0.284207
1699 2 0.211279 0.0694217 0.305548
1701 4 0.193759 0.0516107 0.304548
23 3 0.388337 0.0250194 0.260845
1516 2 0.376709 0.00314939 0.306871
697 2 0.391592 0.0522759 0.327161
699 4 0.400904 0.0379139 0.308935
1518 4 0.385695 0.0264525 0.30569
742 2 0.486191 0.012143 0.252706
478 2 0.465822 0.0420344 0.327416
479 4 0.465893 0.0170721 0.325982
480 4 0.465751 0.0669968 0.32885
545 4 0.113645 0.159716 0.26154
398 4 0.0943308 0.134406 0.315535
544 2 0.137649 0.159427 0.254548
1700 4 0.228799 0.0872326 0.306548
248 4 0.231158 0.106964 0.309378
249 4 0.199261 0.144241 0.299695
247 2 0.21521 0.125602 0.304537
404 4 0.20523 0.163369 0.296895
403 2 0.191686 0.16467 0.275917
405 4 0.178142 0.165971 0.25494
29 3 0.309691 0.0992446 0.260547
632 4 0.335729 0.11169 0.323903
631 2 0.354645 0.0974481 0.331937
333 4 0.451694 0.110492 0.308307
331 2 0.455392 0.135014 0.305115
332 4 0.45909 0.159536 0.301924
393 4 0.0869431 0.210351 0.291534
444 4 0.0364791 0.248876 0.304483
392 4 0.11548 0.171557 0.278066
391 2 0.101212 0.190954 0.2848
390 4 0.105304 0.227705 0.31148
378 4 0.283815 0.210719 0.324126
376 2 0.308536 0.206988 0.324489
707 4 0.35265 0.201845 0.326742
377 4 0.333257 0.203258 0.324853
420 4 0.420113 0.22043 0.323969
418 2 0.420037 0.195435 0.323324
419 4 0.41996 0.17044 0.322678
760 2 0.482527 0.191347 0.290028
762 4 0.464035 0.174524 0.290486
396 4 0.00722728 0.273664 0.255536
442 2 0.0222325 0.263244 0.289794
443 4 0.00798584 0.277612 0.275105
364 2 0.00256357 0.313878 0.27241
365 4 0.00758166 0.29201 0.261373
401 4 0.191989 0.258013 0.278838
345 4 0.235928 0.307975 0.295335
400 2 0.2072 0.277209 0.28387
402 4 0.222411 0.296405 0.288902
510 4 0.217038 0.314322 0.293533
343 2 0.257625 0.296986 0.301142
344 4 0.279321 0.285998 0.306949
498 4 0.382033 0.298938 0.294195
496 2 0.365473 0.288736 0.278483
497 4 0.348914 0.278535 0.26277
543 4 0.411116 0.332194 0.305044
541 2 0.423771 0.313142 0.315147
542 4 0.436426 0.29409 0.32525
2493 4 0.999715 0.354427 0.289486
602 4 0.0893488 0.415508 0.254153
601 2 0.112298 0.405635 0.253122
734 4 0.143529 0.383353 0.264808
733 2 0.159745 0.384603 0.283799
508 2 0.2189 0.333816 0.30908
735 4 0.175961 0.385854 0.30279
677 4 0.180019 0.396311 0.319341
676 2 0.201191 0.384199 0.324837
509 4 0.220762 0.35331 0.324626
678 4 0.222364 0.372088 0.330333
728 4 0.309803 0.402552 0.282281
438 4 0.255805 0.414776 0.267167
727 2 0.333818 0.395957 0.280054
729 4 0.357833 0.389361 0.277827
615 4 0.396291 0.346317 0.299441
613 2 0.394005 0.362634 0.318248
2536 2 0.496614 0.399088 0.301625
2537 4 0.492777 0.413856 0.281817
2862 4 0.481925 0.416458 0.264067
753 4 0.487819 0.378927 0.335
549 4 0.0299067 0.448085 0.326285
777 4 0.0946782 0.425857 0.297978
775 2 0.105956 0.446398 0.306697
776 4 0.117234 0.46694 0.315417
414 4 0.132767 0.476888 0.32314
437 4 0.252703 0.453781 0.298308
436 2 0.254254 0.434279 0.282738
713 4 0.356877 0.490841 0.256431
2860 2 0.467931 0.434136 0.253259
593 4 0.443114 0.457412 0.303567
592 2 0.431016 0.473555 0.318338
1798 2 0.0240523 0.0137354 0.33864
369 4 0.0694857 0.0495547 0.39273
1800 4 0.0207082 0.000994657 0.359893
367 2 0.087836 0.0326844 0.39469
368 4 0.106186 0.0158141 0.396649
605 4 0.148472 0.0627938 0.360327
604 2 0.167267 0.0534252 0.373898
606 4 0.186061 0.0440566 0.387469
698 4 0.38228 0.0666379 0.345387
256 2 0.385272 0.0674253 0.377987
257 4 0.371875 0.0755077 0.358483
633 4 0.37356 0.083206 0.339971
258 4 0.398668 0.0593429 0.39749
426 4 0.416134 0.0475451 0.393937
424 2 0.424023 0.0283104 0.407828
318 4 0.0142275 0.117508 0.36849
316 2 0.0364846 0.128895 0.368866
317 4 0.0587418 0.140281 0.369242
397 2 0.0909538 0.11966 0.335443
730 2 0.0955206 0.0971337 0.394312
399 4 0.0875769 0.104914 0.355351
731 4 0.0929459 0.0927326 0.369833
600 4 0.212363 0.153509 0.366247
598 2 0.198757 0.166907 0.382388
683 4 0.280803 0.093267 0.366833
682 2 0.276729 0.103624 0.389223
684 4 0.272656 0.113982 0.411613
516 4 0.398397 0.144703 0.374551
575 4 0.390972 0.142422 0.393324
574 2 0.401583 0.151957 0.413859
451 2 0.486107 0.141538 0.357521
514 2 0.42085 0.146985 0.363788
453 4 0.461144 0.142861 0.358036
515 4 0.443302 0.149268 0.353025
2653 2 0.0018673 0.217697 0.378987
459 4 0.0273635 0.189878 0.404353
2654 4 0.0161904 0.201966 0.392123
457 2 0.0125568 0.16975 0.40526
388 2 0.0951306 0.225019 0.334161
389 4 0.0849574 0.222333 0.356843
685 2 0.154791 0.21111 0.406739
687 4 0.167352 0.189534 0.405383
686 4 0.14223 0.232687 0.408095
599 4 0.185151 0.180305 0.398529
473 4 0.230655 0.200142 0.382514
472 2 0.253082 0.18979 0.38639
474 4 0.27551 0.179439 0.390266
488 4 0.294063 0.188723 0.390617
487 2 0.304904 0.209723 0.398781
489 4 0.315745 0.230723 0.406945
706 2 0.36818 0.193759 0.344591
708 4 0.38371 0.185672 0.362441
715 2 0.39877 0.242136 0.356441
717 4 0.408276 0.229261 0.33723
347 4 0.0717634 0.305995 0.40905
618 4 0.0725238 0.326315 0.404219
275 4 0.135606 0.30797 0.391843
274 2 0.156824 0.299537 0.381651
276 4 0.178041 0.291103 0.371458
373 2 0.212961 0.272505 0.384129
374 4 0.233472 0.258333 0.382231
375 4 0.192449 0.286677 0.386027
716 4 0.389263 0.255011 0.375651
406 2 0.0493456 0.387856 0.394724
407 4 0.042218 0.406445 0.379597
408 4 0.0564733 0.369268 0.409852
616 2 0.0836709 0.337866 0.385049
617 4 0.094818 0.349417 0.365879
435 4 0.232193 0.358533 0.339785
434 4 0.27914 0.372371 0.350043
433 2 0.255666 0.365452 0.344914
503 4 0.270767 0.411568 0.414059
614 4 0.391719 0.378952 0.337055
561 4 0.454676 0.363812 0.391591
752 4 0.469878 0.369305 0.380675
559 2 0.468973 0.366826 0.411881
751 2 0.478849 0.374116 0.357838
548 4 0.0397517 0.421134 0.367241
547 2 0.0348292 0.43461 0.346763
412 2 0.154384 0.483454 0.333854
499 2 0.161837 0.496215 0.391021
501 4 0.14337 0.485701 0.404197
413 4 0.176001 0.490019 0.344568
668 4 0.299118 0.467743 0.416238
1 1 0.323374 0.490196 0.405829
3 3 0.334994 0.48602 0.386183
594 4 0.418917 0.489699 0.33311
1524 4 0.0645238 0.999472 0.4916
718 2 0.0250553 0.0720332 0.448538
720 4 0.0208093 0.0506126 0.460716
2237 4 0.0350516 0.0416646 0.470901
2236 2 0.0325752 0.0175079 0.464943
1127 4 0.0192565 0.0493234 0.480147
1522 2 0.0886184 0.00594639 0.489952
1523 4 0.112713 0.0124203 0.488303
340 2 0.186051 0.0517512 0.499113
2430 4 0.190992 0.00718783 0.499808
341 4 0.185237 0.0267794 0.500075
1182 4 0.260431 0.0729257 0.483341
726 4 0.311128 0.0413486 0.437661
724 2 0.298831 0.0363231 0.458844
725 4 0.286535 0.0312977 0.480027
432 4 0.300175 0.0407602 0.491231
963 4 0.291934 0.0242483 0.497376
425 4 0.431912 0.00907579 0.42172
2878 2 0.469328 0.0763641 0.481706
2879 4 0.459659 0.0578629 0.495468
719 4 0.0293012 0.0934538 0.43636
732 4 0.0980953 0.101535 0.41879
1033 2 0.122668 0.144343 0.477002
1034 4 0.108401 0.13385 0.494652
1035 4 0.136935 0.154837 0.459352
1152 4 0.176174 0.0925569 0.500108
320 4 0.272843 0.11571 0.431876
1180 2 0.262565 0.0898072 0.465021
1181 4 0.264699 0.106689 0.4467
321 4 0.317894 0.1335 0.44431
319 2 0.295368 0.124605 0.438093
576 4 0.412194 0.161491 0.434394
2880 4 0.478996 0.0948653 0.467943
642 4 0.470939 0.108888 0.45783
640 2 0.456133 0.124989 0.445717
641 4 0.441328 0.14109 0.433603
306 4 0.432486 0.15911 0.430848
471 4 0.0102662 0.218344 0.479328
469 2 0.0210263 0.19867 0.468268
470 4 0.0317864 0.178995 0.457208
260 4 0.10878 0.216246 0.454519
261 4 0.132468 0.172395 0.450441
259 2 0.120624 0.19432 0.45248
695 4 0.0987462 0.234018 0.451869
411 4 0.257209 0.172578 0.457385
409 2 0.271974 0.190628 0.466404
410 4 0.28674 0.208679 0.475424
900 4 0.283408 0.212894 0.494174
265 2 0.330596 0.245558 0.464089
468 4 0.380694 0.225806 0.421741
466 2 0.379036 0.205676 0.43648
467 4 0.377378 0.185546 0.451218
267 4 0.353243 0.239092 0.455695
3157 2 0.499957 0.178746 0.479678
3159 4 0.493713 0.193789 0.498649
305 4 0.465196 0.19648 0.4367
304 2 0.448841 0.177795 0.433774
346 2 0.0766747 0.308073 0.433479
326 4 0.0781922 0.329335 0.461323
348 4 0.0815859 0.310151 0.457907
694 2 0.102283 0.255553 0.464072
1260 4 0.0981273 0.278378 0.494865
696 4 0.105819 0.277088 0.476275
266 4 0.307949 0.252024 0.472484
811 2 0.278127 0.306842 0.486661
813 4 0.290552 0.302236 0.465458
584 4 0.485653 0.262696 0.486994
583 2 0.466304 0.264791 0.471297
585 4 0.446955 0.266886 0.4556
2812 2 0.00214909 0.360654 0.447862
2813 4 0.023971 0.358101 0.459798
325 2 0.0934919 0.344767 0.47369
327 4 0.108792 0.3602 0.486056
10 3 0.147737 0.338584 0.461696
7 3 0.128084 0.358334 0.486527
6 1 0.149105 0.351001 0.480738
8 3 0.162769 0.36942 0.477214
681 4 0.0844723 0.406263 0.444384
383 4 0.101894 0.411231 0.451535
9 3 0.157563 0.338058 0.49804
711 4 0.170203 0.379517 0.462228
635 4 0.21825 0.411951 0.477164
504 4 0.231324 0.392631 0.438274
709 2 0.192109 0.386925 0.471736
710 4 0.214016 0.394332 0.481244
774 4 0.222187 0.40534 0.495639
336 4 0.288375 0.407457 0.423468
502 2 0.251045 0.402099 0.426166
334 2 0.307703 0.391618 0.424319
335 4 0.327032 0.375779 0.42517
239 4 0.392114 0.38552 0.440942
238 2 0.369351 0.381247 0.431518
240 4 0.346589 0.376974 0.422095
588 4 0.410652 0.389782 0.445065
587 4 0.434101 0.392679 0.489138
560 4 0.483269 0.36984 0.432172
586 2 0.422376 0.391231 0.467102
1382 4 0.0611096 0.500655 0.426032
680 4 0.0459822 0.437922 0.440274
1383 4 0.0403638 0.455692 0.433007
1381 2 0.0507367 0.478173 0.429519
679 2 0.0652272 0.422093 0.442329
539 4 0.0911311 0.488804 0.467798
568 2 0.159255 0.480325 0.447421
382 2 0.119527 0.428381 0.45602
384 4 0.13716 0.445532 0.460505
569 4 0.142533 0.461982 0.45044
634 2 0.221222 0.435443 0.469134
570 4 0.175976 0.498667 0.444402
636 4 0.224194 0.458935 0.461104
4 3 0.318853 0.470231 0.416755
669 4 0.278399 0.423504 0.426931
667 2 0.288758 0.445624 0.421585
880 2 0.34156 0.498859 0.485777
882 4 0.343268 0.489303 0.462735
1002 4 0.394909 0.495816 0.497307
663 4 0.464412 0.435073 0.495552
1057 2 0.157756 0.0663611 0.565588
1058 4 0.153137 0.0448447 0.577457
342 4 0.186865 0.0767231 0.498151
430 2 0.309932 0.0542026 0.50992
431 4 0.319689 0.0676451 0.52861
961 2 0.271998 0.0137607 0.508227
962 4 0.252062 0.00327305 0.519077
843 4 0.331935 0.0683446 0.544034
1217 4 0.392578 0.0401568 0.53339
1216 2 0.395022 0.0194187 0.547143
842 4 0.379009 0.0521999 0.539121
841 2 0.355472 0.0602723 0.541578
1218 4 0.397467 0.998681 0.560895
938 4 0.0947863 0.163514 0.548436
937 2 0.0990583 0.157989 0.524428
1151 4 0.159526 0.105732 0.545385
1059 4 0.162376 0.0878774 0.553718
1155 4 0.164574 0.103891 0.564145
939 4 0.10333 0.152463 0.50042
1150 2 0.16785 0.0991444 0.522746
1153 2 0.171013 0.125217 0.575501
878 4 0.0292912 0.206808 0.54616
1199 4 0.0187321 0.222475 0.554555
877 2 0.0493391 0.196121 0.556603
879 4 0.0693871 0.185434 0.567045
858 4 0.256975 0.205038 0.559508
857 4 0.306026 0.209431 0.568192
856 2 0.2815 0.207235 0.56385
898 2 0.301396 0.216798 0.511097
791 4 0.319114 0.223527 0.563037
899 4 0.319384 0.220703 0.528019
790 2 0.319532 0.24849 0.564414
3353 4 0.00552727 0.285147 0.537055
1258 2 0.11448 0.290407 0.509462
1259 4 0.130834 0.302435 0.52406
649 2 0.227012 0.290487 0.503498
651 4 0.206023 0.276912 0.504085
650 4 0.248002 0.304061 0.50291
804 4 0.250994 0.322942 0.50506
792 4 0.319951 0.273452 0.565792
1238 4 0.325845 0.29003 0.577219
812 4 0.265702 0.311448 0.507865
873 4 0.40891 0.273965 0.547053
1239 4 0.342966 0.330544 0.553424
871 2 0.394423 0.26909 0.527266
1237 2 0.334405 0.310287 0.565321
872 4 0.379936 0.264215 0.507478
935 4 0.0091491 0.403788 0.511287
1137 4 0.142025 0.384878 0.578254
1189 2 0.23364 0.384052 0.569267
773 4 0.243899 0.379434 0.532492
1190 4 0.244808 0.372711 0.549984
772 2 0.233043 0.392387 0.514065
803 4 0.253023 0.361479 0.536865
802 2 0.252008 0.342211 0.520962
930 4 0.292461 0.346167 0.564358
928 2 0.28663 0.369756 0.558463
929 4 0.280799 0.393345 0.552568
927 4 0.420869 0.379081 0.552243
925 2 0.421838 0.387664 0.528778
926 4 0.422807 0.396246 0.505314
1161 4 0.162284 0.497825 0.55545
1159 2 0.178134 0.487094 0.571537
889 2 0.309812 0.473289 0.538945
890 4 0.321996 0.491521 0.526932
891 4 0.297629 0.455057 0.550959
1000 2 0.412043 0.487359 0.513434
1953 4 0.368396 0.473978 0.550287
1951 2 0.360506 0.493929 0.537446
1001 4 0.429177 0.478902 0.529562
662 4 0.445276 0.46983 0.525991
661 2 0.454844 0.452452 0.510772
1911 4 0.441827 0.477583 0.543959
1909 2 0.433826 0.470008 0.566405
1332 4 0.446795 0.488138 0.528821
2319 4 0.045685 0.0126734 0.638872
945 4 0.0633566 0.0158083 0.646263
2375 4 0.100441 0.00949316 0.593086
943 2 0.0858719 0.0254061 0.651374
944 4 0.108387 0.0350038 0.656485
825 4 0.127525 0.0303022 0.653485
823 2 0.140821 0.0111286 0.644497
1030 2 0.246156 0.0773255 0.604534
950 4 0.320525 0.0354464 0.589538
949 2 0.301863 0.0463896 0.602074
951 4 0.283201 0.0573328 0.61461
1031 4 0.26351 0.0619298 0.613861
43 3 0.441219 0.0847134 0.655287
810 4 0.476668 0.083523 0.664338
1081 2 0.0306066 0.117472 0.659489
3179 4 0.0328511 0.15801 0.643542
1083 4 0.0386961 0.1384 0.648454
3178 2 0.0090044 0.165459 0.642527
1282 2 0.159643 0.105803 0.657546
1154 4 0.177451 0.146542 0.586856
1032 4 0.228802 0.0927211 0.595206
1284 4 0.171602 0.100902 0.636142
1221 4 0.194931 0.154639 0.594695
808 2 0.487968 0.0884148 0.642576
809 4 0.499268 0.0933067 0.620815
1272 4 0.0681544 0.192641 0.584611
1243 2 0.0773436 0.239035 0.621708
1244 4 0.0585075 0.244084 0.606059
1270 2 0.0923831 0.193778 0.590682
1271 4 0.116612 0.194915 0.596753
1209 4 0.100108 0.236451 0.656945
1245 4 0.0961796 0.233987 0.637357
1210 2 0.22927 0.188022 0.664977
1212 4 0.20969 0.189793 0.649529
1219 2 0.204363 0.168129 0.613517
1220 4 0.213794 0.181619 0.632338
796 2 0.187112 0.216926 0.630838
798 4 0.202532 0.197343 0.632819
797 4 0.171692 0.236508 0.628857
888 4 0.260632 0.177033 0.66721
906 4 0.476866 0.241534 0.588132
904 2 0.469061 0.234323 0.610765
905 4 0.461256 0.227112 0.633398
3123 4 0.472926 0.237621 0.646286
3121 2 0.492221 0.240211 0.661976
983 4 0.0210814 0.322464 0.604986
982 2 0.0385875 0.325951 0.622494
3263 4 0.0636285 0.321437 0.656175
984 4 0.0560937 0.329438 0.640003
947 4 0.195258 0.283321 0.636758
946 2 0.193929 0.266828 0.655504
952 2 0.486441 0.322503 0.595117
953 4 0.470458 0.321632 0.614325
1041 4 0.0670341 0.339899 0.651573
1039 2 0.0783293 0.362153 0.650032
897 4 0.157927 0.373606 0.583331
1135 2 0.123843 0.400421 0.585535
1040 4 0.0896244 0.384406 0.648491
993 4 0.0873642 0.403582 0.644604
1136 4 0.105662 0.415964 0.592817
896 4 0.203088 0.39351 0.591394
895 2 0.180507 0.383558 0.587363
1191 4 0.222473 0.395393 0.588551
1172 4 0.210892 0.411036 0.589245
807 4 0.351725 0.33763 0.665172
1206 4 0.483421 0.410242 0.662139
3309 4 0.494453 0.398043 0.587352
991 2 0.0934854 0.427825 0.64464
992 4 0.0996066 0.452067 0.644675
1160 4 0.193984 0.476362 0.587624
1175 4 0.221274 0.495669 0.661574
1173 4 0.191412 0.457089 0.588646
1171 2 0.201152 0.434063 0.588946
1188 4 0.211446 0.494914 0.642448
1187 4 0.195083 0.46665 0.604578
1186 2 0.203264 0.480782 0.623513
1910 4 0.425826 0.462433 0.58885
1204 2 0.471595 0.429417 0.651292
1205 4 0.459769 0.448591 0.640446
1269 4 0.45169 0.459014 0.654352
1267 2 0.437357 0.478627 0.648429
2255 4 0.227404 0.99695 0.743608
2254 2 0.207947 0.0102104 0.735195
2256 4 0.18849 0.0234703 0.726782
1003 2 0.316274 0.0530501 0.707182
1005 4 0.307914 0.0687381 0.689599
1004 4 0.324634 0.037362 0.724765
45 3 0.443029 0.0512628 0.672475
42 3 0.43204 0.0813807 0.691581
41 1 0.446115 0.0736735 0.6751
1163 4 0.484101 0.0687696 0.674814
44 3 0.468045 0.0779672 0.68135
1162 2 0.498099 0.0510507 0.68555
1082 4 0.022517 0.0965447 0.670524
1076 4 0.0204495 0.0964214 0.690101
1075 2 0.0293895 0.0999534 0.713183
1077 4 0.0383295 0.103485 0.736265
850 2 0.0703033 0.157015 0.712032
852 4 0.0478915 0.166508 0.717757
909 4 0.0937734 0.141274 0.68655
907 2 0.113949 0.126909 0.689983
908 4 0.134124 0.112544 0.693416
1283 4 0.147683 0.110704 0.67895
1227 4 0.153169 0.113535 0.696921
851 4 0.0927152 0.147522 0.706308
1225 2 0.165246 0.0989545 0.713253
1107 4 0.108946 0.156452 0.715039
1226 4 0.177323 0.0843745 0.729586
1148 4 0.193007 0.0978365 0.726396
1147 2 0.21677 0.0965408 0.734066
1149 4 0.240532 0.0952452 0.741737
887 4 0.299818 0.164473 0.695626
831 4 0.365934 0.15183 0.69395
1141 2 0.400252 0.166431 0.709345
829 2 0.342399 0.160262 0.693518
1025 4 0.4807 0.143337 0.687823
3424 2 0.493703 0.10474 0.69689
3426 4 0.48522 0.0874927 0.680898
1024 2 0.461122 0.153795 0.699335
1143 4 0.42374 0.165244 0.717835
1026 4 0.441545 0.164252 0.710847
1215 4 0.00523122 0.203193 0.726118
1213 2 0.027548 0.194437 0.719012
1214 4 0.0498647 0.185682 0.711907
1074 4 0.0782878 0.242796 0.72987
1178 4 0.00415115 0.220913 0.734462
1177 2 0.000293935 0.245417 0.737604
1207 2 0.112087 0.230852 0.678166
1208 4 0.124067 0.225254 0.699387
1106 4 0.134934 0.184269 0.747466
1105 2 0.12194 0.17036 0.731252
1130 4 0.153244 0.184941 0.739752
1211 4 0.24885 0.186251 0.680425
948 4 0.1926 0.250334 0.674249
830 4 0.318864 0.168694 0.693086
886 2 0.280225 0.170753 0.681418
976 2 0.302148 0.180834 0.732179
978 4 0.310456 0.173796 0.70967
1194 4 0.328616 0.229804 0.671252
1142 4 0.376764 0.167618 0.700855
1193 4 0.368205 0.218173 0.699503
1192 2 0.34841 0.223988 0.685378
1261 2 0.448365 0.197748 0.735525
1262 4 0.436957 0.179056 0.723457
1263 4 0.459773 0.21644 0.747593
3262 2 0.0526115 0.322181 0.678608
3264 4 0.0415946 0.322925 0.701041
893 4 0.0258263 0.320466 0.713471
821 4 0.164646 0.272056 0.723653
820 2 0.174485 0.256708 0.740764
1064 4 0.202544 0.252137 0.691814
1065 4 0.226129 0.285449 0.720707
1063 2 0.214336 0.268793 0.706261
805 2 0.329405 0.326625 0.667596
806 4 0.307085 0.315619 0.670019
3274 2 0.0116994 0.405422 0.749642
892 2 0.0243363 0.34293 0.724349
894 4 0.0228464 0.365394 0.735226
3276 4 0.0190443 0.384865 0.73745
814 2 0.0601119 0.385193 0.731319
816 4 0.0360434 0.37842 0.731252
815 4 0.0841804 0.391967 0.731386
941 4 0.137431 0.412036 0.744427
940 2 0.118722 0.396403 0.738881
1066 2 0.161719 0.415564 0.70996
942 4 0.100013 0.38077 0.733335
1068 4 0.17579 0.41037 0.689954
1019 4 0.382249 0.399741 0.715064
1018 2 0.368801 0.387096 0.731929
1020 4 0.355354 0.37445 0.748794
1280 4 0.0619515 0.488978 0.698958
1279 2 0.0392869 0.493604 0.70845
1067 4 0.147649 0.420757 0.729965
1029 4 0.235285 0.420784 0.687622
1027 2 0.210522 0.422522 0.68463
1028 4 0.185759 0.424259 0.681639
1140 4 0.268912 0.468211 0.69908
1138 2 0.263868 0.46778 0.723565
1139 4 0.258824 0.46735 0.748051
1230 4 0.408486 0.436387 0.729459
3328 2 0.497448 0.458838 0.699013
1100 4 0.42415 0.437708 0.718123
1101 4 0.468794 0.460238 0.718305
1099 2 0.446472 0.448973 0.718214
1251 4 0.474096 0.476552 0.725493
3330 4 0.478492 0.472957 0.70717
1249 2 0.471875 0.488412 0.747392
1294 2 0.00263314 0.0210525 0.795935
1296 4 0.0248044 0.0176223 0.806973
2047 2 0.158647 0.00649578 0.772037
1203 4 0.12087 0.0758298 0.775642
1201 2 0.136352 0.0586206 0.766191
1202 4 0.151834 0.0414114 0.756739
2049 4 0.164476 0.0271945 0.759279
1255 2 0.26439 0.083645 0.776636
1256 4 0.277517 0.0735733 0.795382
1113 4 0.409346 0.0502231 0.83576
1111 2 0.394216 0.0698673 0.832541
2321 4 0.452117 0.999892 0.778829
2322 4 0.463888 0.0481553 0.784559
2320 2 0.458002 0.0240239 0.781694
846 4 0.46908 0.0658354 0.774104
864 4 0.0296739 0.114911 0.749811
862 2 0.0345946 0.106189 0.772721
863 4 0.0395153 0.0974677 0.795632
832 2 0.0143756 0.0956791 0.829796
833 4 0.0327011 0.10278 0.814339
1125 4 0.0285251 0.121463 0.821607
1123 2 0.036928 0.144979 0.82285
31 1 0.125288 0.147106 0.80748
35 3 0.144081 0.135484 0.801966
33 3 0.106629 0.136792 0.798323
32 3 0.123076 0.147513 0.830373
1257 4 0.251263 0.0937167 0.75789
840 4 0.277213 0.0875776 0.808994
838 2 0.288995 0.0978152 0.828528
1112 4 0.379086 0.0895116 0.829322
844 2 0.461397 0.0891789 0.769496
845 4 0.453715 0.112522 0.764887
1072 2 0.0645804 0.249006 0.749838
1124 4 0.0453309 0.168496 0.824092
34 3 0.126899 0.16891 0.799711
822 4 0.184324 0.241361 0.757876
1129 2 0.166153 0.203766 0.749959
1131 4 0.179061 0.22259 0.760167
920 4 0.217801 0.197915 0.828661
1277 4 0.190526 0.230957 0.773767
1276 2 0.20085 0.241995 0.793686
919 2 0.194772 0.188587 0.825861