ITEM: TIMESTEP
1540000
ITEM: NUMBER OF ATOMS
4590
ITEM: BOX BOUNDS pp pp pp
-9.9985700000000008e+00 9.9985700000000008e+00
-9.9985700000000008e+00 9.9985700000000008e+00
-9.9985700000000008e+00 9.9985700000000008e+00
ITEM: ATOMS id type xs ys zs
463 2 0.0414031 0.0757115 0.013279
465 4 0.0598145 0.0589228 0.011196
701 4 0.0678023 0.0455923 0.023744
2576 4 0.0417262 0.0183653 0.071867
700 2 0.090546 0.0528079 0.0312163
702 4 0.11329 0.0600235 0.0386886
566 4 0.119162 0.0710441 0.0227604
565 2 0.143221 0.0766413 0.0266327
491 4 0.265853 0.00546531 0.0501006
2264 4 0.255941 0.0197898 0.0374948
2263 2 0.260268 0.0356304 0.0186394
2265 4 0.264596 0.0514709 0.999784
653 4 0.331018 0.00563893 0.0749143
557 4 0.337118 0.0781707 0.0727162
745 2 0.465228 0.041796 0.00951223
746 4 0.467985 0.036004 0.033679
2469 4 0.484942 0.0253017 0.0284876
2467 2 0.495515 0.00512843 0.0388031
464 4 0.0229917 0.0925002 0.0153619
590 4 0.00850123 0.125769 0.036175
589 2 0.997023 0.126068 0.0583861
422 4 0.117354 0.110922 9.7214e-05
567 4 0.16728 0.0822385 0.0305051
558 4 0.318352 0.118115 0.0492004
556 2 0.327735 0.0981429 0.0609583
865 2 0.34977 0.147501 0.0131717
866 4 0.353094 0.123757 0.00607546
827 4 0.367576 0.127121 0.992025
771 4 0.445744 0.145324 0.0681041
769 2 0.463106 0.162338 0.0739577
554 4 0.0391587 0.214524 0.0244068
553 2 0.0558638 0.231217 0.016194
555 4 0.072569 0.24791 0.00798123
665 4 0.328851 0.180615 0.0235043
666 4 0.332482 0.223959 0.0481796
664 2 0.330667 0.202287 0.0358419
573 4 0.337953 0.24227 0.0511753
461 4 0.328926 0.232607 0.0655467
867 4 0.346445 0.171244 0.020268
1070 4 0.375785 0.227093 0.0742948
1069 2 0.39233 0.239143 0.0599338
1071 4 0.408875 0.251193 0.0455728
1012 2 0.502507 0.217054 0.0809811
770 4 0.480469 0.179351 0.0798114
1014 4 0.490284 0.195475 0.0841644
294 4 0.0723974 0.286012 0.0521279
2808 4 0.00179329 0.283948 0.0131988
836 4 0.089089 0.250743 0.997379
292 2 0.0917404 0.28187 0.036835
507 4 0.125777 0.290291 0.0139515
293 4 0.111083 0.277728 0.0215421
505 2 0.142141 0.301922 0.0288544
506 4 0.158506 0.313553 0.0437572
483 4 0.165676 0.331917 0.0409479
571 2 0.328414 0.263242 0.041461
356 4 0.316618 0.303247 0.037592
572 4 0.318875 0.284214 0.0317467
355 2 0.298164 0.310566 0.022392
324 4 0.413204 0.268724 0.0549859
322 2 0.430416 0.281583 0.0677763
672 4 0.443518 0.315129 0.0793234
323 4 0.447628 0.294441 0.0805666
670 2 0.457037 0.336019 0.0768679
620 4 0.00749713 0.371434 0.070011
647 4 0.0252728 0.369173 0.0816901
646 2 0.0423268 0.351008 0.0795939
648 4 0.0593807 0.332844 0.0774976
481 2 0.186937 0.344546 0.0446389
609 4 0.219629 0.370125 0.0381053
607 2 0.237646 0.385637 0.0458479
482 4 0.208198 0.357176 0.0483299
608 4 0.255664 0.401148 0.0535906
252 4 0.270606 0.415343 0.058977
957 4 0.372864 0.36351 0.0101283
671 4 0.470557 0.356908 0.0744124
280 2 0.479816 0.393258 0.0693384
2651 4 0.488746 0.354589 0.0819744
281 4 0.484958 0.368793 0.0698128
552 4 0.111345 0.487019 0.0710551
1787 4 0.103228 0.500996 0.0611591
551 4 0.0924948 0.44852 0.0968077
550 2 0.10192 0.46777 0.0839314
244 2 0.249795 0.488314 0.0489514
245 4 0.247065 0.468602 0.0640892
627 4 0.243112 0.448214 0.0650058
625 2 0.230897 0.442691 0.086112
626 4 0.218682 0.437167 0.107218
250 2 0.284389 0.43226 0.0467695
251 4 0.298172 0.449177 0.0345621
523 2 0.362707 0.493312 0.0389294
525 4 0.372471 0.483101 0.0595591
282 4 0.474673 0.417722 0.0688639
226 2 0.459408 0.455218 0.0509107
228 4 0.449378 0.477151 0.0443125
227 4 0.469439 0.433286 0.0575088
563 4 0.448228 0.492963 0.0335576
2575 2 0.0204705 0.0187329 0.085029
16 1 0.0587577 0.0579179 0.135861
20 3 0.0404954 0.0675074 0.126208
1806 4 0.0560588 0.0178776 0.126109
18 3 0.0570738 0.0348017 0.134761
17 3 0.0776622 0.0645435 0.124553
1804 2 0.0685142 0.00163318 0.111751
19 3 0.0604915 0.0646899 0.157987
1505 4 0.170672 0.0467411 0.155407
450 4 0.177038 0.0574713 0.140358
448 2 0.184682 0.0812349 0.138933
652 2 0.323194 0.00701617 0.0986225
654 4 0.315371 0.00839341 0.122331
484 2 0.393499 0.000216879 0.105439
296 4 0.345533 0.0766072 0.090863
295 2 0.362083 0.0579582 0.0927352
297 4 0.378632 0.0393093 0.0946074
485 4 0.390201 0.0249871 0.104581
237 4 0.151727 0.152113 0.115197
578 4 0.134995 0.139555 0.118446
577 2 0.11418 0.127118 0.12455
579 4 0.0933658 0.114681 0.130654
235 2 0.168294 0.137402 0.126786
236 4 0.184861 0.122692 0.138376
693 4 0.20482 0.119609 0.137202
449 4 0.192326 0.104999 0.137508
691 2 0.219808 0.124053 0.156715
310 2 0.429753 0.146648 0.158295
312 4 0.415853 0.16473 0.148046
337 2 0.084884 0.198649 0.153794
339 4 0.0645859 0.198442 0.139195
476 4 0.152659 0.168631 0.128288
475 2 0.136672 0.178627 0.14471
477 4 0.120685 0.188622 0.161133
737 4 0.165449 0.184332 0.125834
736 2 0.178827 0.203246 0.116429
738 4 0.192205 0.222161 0.107023
460 2 0.328643 0.235632 0.090365
283 2 0.323429 0.207679 0.140902
462 4 0.32836 0.238657 0.115183
354 4 0.327327 0.246822 0.130628
285 4 0.317379 0.185912 0.151615
284 4 0.329479 0.229446 0.130189
255 4 0.342653 0.240019 0.125187
254 4 0.388387 0.246084 0.144483
253 2 0.36552 0.243051 0.134835
630 4 0.395392 0.228698 0.147377
628 2 0.405966 0.206154 0.145107
765 4 0.402661 0.244727 0.156902
629 4 0.416539 0.183611 0.142837
749 4 0.0726803 0.30021 0.157279
456 4 0.0761214 0.332241 0.0878923
612 4 0.259591 0.348085 0.15978
353 4 0.292424 0.276551 0.150596
754 2 0.275482 0.315139 0.150455
755 4 0.282778 0.292217 0.157275
278 4 0.281391 0.275179 0.166379
352 2 0.309876 0.261686 0.140612
756 4 0.268186 0.338062 0.143636
519 4 0.481428 0.292987 0.0954834
517 2 0.493651 0.285789 0.116074
455 4 0.107713 0.332778 0.126653
454 2 0.091917 0.332509 0.107273
537 4 0.205991 0.37424 0.129412
535 2 0.207944 0.397157 0.119605
611 4 0.214179 0.360209 0.142707
610 2 0.236885 0.354147 0.151243
741 4 0.384266 0.365715 0.0920942
739 2 0.391135 0.374728 0.114383
740 4 0.398003 0.383742 0.136671
15 3 0.391205 0.370556 0.149301
385 2 0.361728 0.397587 0.15108
386 4 0.385293 0.389395 0.149418
495 4 0.402748 0.398922 0.148524
11 1 0.407618 0.372846 0.164922
493 2 0.412486 0.420603 0.140762
387 4 0.338163 0.405778 0.152742
12 3 0.424238 0.357497 0.160754
14 3 0.416668 0.394184 0.163828
1467 4 0.989219 0.474386 0.1248
1465 2 0.00762309 0.484493 0.138377
536 4 0.209897 0.420074 0.109797
637 2 0.233955 0.504632 0.146366
767 4 0.245659 0.475096 0.141161
638 4 0.255247 0.494134 0.138516
766 2 0.254955 0.452358 0.145824
301 2 0.301212 0.423457 0.164044
768 4 0.264251 0.42962 0.150488
303 4 0.277031 0.429516 0.165969
494 4 0.422225 0.442285 0.133
660 4 0.422145 0.451124 0.150556
658 2 0.435686 0.469443 0.160863
2480 4 0.00874534 0.999859 0.215357
380 4 0.0447568 0.0675518 0.168339
379 2 0.0417036 0.0840288 0.186897
673 2 0.114287 0.0640017 0.188827
675 4 0.0953279 0.0753858 0.17716
674 4 0.133247 0.0526176 0.200495
1504 2 0.175631 0.031603 0.17468
689 4 0.188821 0.00562796 0.209442
1506 4 0.18059 0.016465 0.193952
688 2 0.199593 0.98448 0.21731
21 1 0.393365 0.0071519 0.226195
25 3 0.411165 0.0213566 0.226
22 3 0.375217 0.0176152 0.216692
23 3 0.388096 0.00136175 0.248038
757 2 0.416348 0.0551594 0.203128
759 4 0.421737 0.0344129 0.216001
351 4 0.476999 0.0242454 0.245513
349 2 0.453841 0.0227511 0.236205
350 4 0.430682 0.0212569 0.226897
758 4 0.410959 0.0759059 0.190255
512 4 0.0369499 0.114127 0.218154
381 4 0.0386504 0.100506 0.205454
511 2 0.057478 0.124701 0.227744
513 4 0.0780061 0.135276 0.237333
692 4 0.234797 0.128496 0.176229
721 2 0.189799 0.14067 0.239374
723 4 0.18933 0.125377 0.219598
582 4 0.241632 0.109898 0.176198
580 2 0.265181 0.109028 0.184557
581 4 0.28873 0.108158 0.192915
30 3 0.291196 0.127513 0.198846
26 1 0.304818 0.14503 0.20397
29 3 0.319333 0.139038 0.221053
27 3 0.292001 0.162794 0.210992
28 3 0.316877 0.151433 0.185209
311 4 0.443653 0.128567 0.168544
338 4 0.105182 0.198857 0.168392
363 4 0.119239 0.193091 0.180469
362 4 0.129023 0.218588 0.22236
361 2 0.124131 0.20584 0.201414
372 4 0.131845 0.23907 0.221068
370 2 0.155354 0.243482 0.228352
371 4 0.178863 0.247894 0.235636
279 4 0.256508 0.257925 0.206176
521 4 0.471573 0.176418 0.234266
520 2 0.495047 0.174308 0.225918
394 2 0.0606728 0.306821 0.233728
396 4 0.0445732 0.309932 0.252604
750 4 0.0772012 0.28639 0.205126
748 2 0.0749407 0.2933 0.181203
395 4 0.0767723 0.303711 0.214852
300 4 0.127284 0.315103 0.207328
277 2 0.268949 0.266552 0.186277
307 2 0.326839 0.29204 0.226335
309 4 0.317364 0.298087 0.204
763 2 0.406162 0.260158 0.176262
308 4 0.336314 0.285992 0.24867
764 4 0.409662 0.275589 0.195622
623 4 0.417638 0.294289 0.192603
526 2 0.492678 0.288532 0.174449
528 4 0.47938 0.299096 0.1928
622 2 0.441855 0.29204 0.198403
624 4 0.466073 0.289791 0.204203
262 2 0.0444107 0.3958 0.243877
264 4 0.0242245 0.381803 0.239209
263 4 0.064597 0.409796 0.248544
298 2 0.127498 0.333398 0.22437
299 4 0.127712 0.351694 0.241411
602 4 0.0810629 0.400905 0.241871
603 4 0.112652 0.36255 0.2475
601 2 0.0968575 0.381727 0.244685
290 4 0.171659 0.385905 0.233058
289 2 0.173358 0.403751 0.215627
302 4 0.325394 0.417398 0.162119
13 3 0.39898 0.368982 0.186108
2860 2 0.455411 0.420208 0.248634
2618 4 0.000587617 0.418326 0.217617
1757 4 0.0769462 0.500403 0.234865
416 4 0.176024 0.433635 0.213494
291 4 0.175056 0.421597 0.198197
1430 4 0.194032 0.492646 0.20858
417 4 0.176715 0.482936 0.20515
415 2 0.17637 0.458286 0.209322
713 4 0.351474 0.491363 0.236435
659 4 0.449228 0.487762 0.171169
597 4 0.495739 0.467634 0.214252
595 2 0.47731 0.478338 0.201175
596 4 0.458882 0.489041 0.188098
2861 4 0.443694 0.433583 0.231055
231 4 0.440506 0.496106 0.186576
1799 4 0.017114 0.0213042 0.30254
233 4 0.0247756 0.019609 0.284572
1402 2 0.0585589 0.00564141 0.29979
1403 4 0.0350724 0.0141907 0.30048
232 2 0.0132983 0.0403208 0.276543
234 4 0.001821 0.0610326 0.268513
1404 4 0.0820454 0.997092 0.299101
697 2 0.358574 0.0244481 0.330491
699 4 0.352553 0.000647627 0.325752
633 4 0.372723 0.061434 0.32415
698 4 0.364596 0.0482487 0.335229
743 4 0.480369 0.029359 0.311202
744 4 0.469149 0.0318861 0.262535
742 2 0.474759 0.0306225 0.286868
479 4 0.475959 0.0419836 0.324329
2664 4 0.495317 0.0394114 0.31844
399 4 0.0734554 0.0949937 0.311297
398 4 0.0998067 0.136397 0.301699
397 2 0.086631 0.115695 0.306498
393 4 0.0961836 0.154833 0.305415
390 4 0.10219 0.143815 0.320223
391 2 0.104243 0.164671 0.283888
722 4 0.190267 0.155962 0.25915
248 4 0.212539 0.101609 0.33305
249 4 0.200558 0.147496 0.317191
247 2 0.206549 0.124553 0.325121
404 4 0.191396 0.164207 0.320809
403 2 0.189491 0.167406 0.296085
632 4 0.377786 0.0921752 0.285034
631 2 0.375254 0.0768046 0.304592
333 4 0.460376 0.141352 0.314187
331 2 0.456653 0.163596 0.303393
544 2 0.152763 0.177062 0.255835
545 4 0.129271 0.185607 0.256386
392 4 0.112302 0.174509 0.26236
546 4 0.176255 0.168518 0.255285
405 4 0.187586 0.170606 0.27136
420 4 0.400894 0.212533 0.282116
717 4 0.407368 0.232614 0.281567
332 4 0.45293 0.18584 0.292598
418 2 0.423903 0.203235 0.27907
419 4 0.446913 0.193936 0.276025
760 2 0.481168 0.211541 0.291554
762 4 0.465687 0.195179 0.280699
761 4 0.496648 0.227903 0.302409
444 4 0.0396188 0.249672 0.284459
443 4 0.0370938 0.293462 0.260442
365 4 0.0283241 0.310487 0.263412
364 2 0.0108543 0.326824 0.270698
442 2 0.0383563 0.271567 0.272451
401 4 0.203501 0.265266 0.272387
400 2 0.220012 0.274275 0.288861
402 4 0.236523 0.283283 0.305336
345 4 0.238347 0.277482 0.324801
510 4 0.241203 0.295696 0.318895
508 2 0.229017 0.317091 0.323248
496 2 0.309889 0.283421 0.280544
498 4 0.292582 0.273734 0.295769
343 2 0.252421 0.263341 0.339872
497 4 0.327197 0.293109 0.26532
715 2 0.409841 0.256201 0.289485
716 4 0.412315 0.279788 0.297403
542 4 0.418774 0.286822 0.314784
541 2 0.419422 0.31093 0.321387
366 4 0.993385 0.343161 0.277984
549 4 0.0437055 0.407668 0.314179
734 4 0.125102 0.354479 0.26044
733 2 0.136629 0.350103 0.282193
735 4 0.148156 0.345728 0.303945
677 4 0.158811 0.348429 0.321175
509 4 0.21683 0.338485 0.327601
676 2 0.180982 0.343659 0.331705
678 4 0.203152 0.338889 0.342235
728 4 0.37538 0.372188 0.311069
727 2 0.363015 0.39386 0.312687
729 4 0.35065 0.415532 0.314304
437 4 0.337971 0.414653 0.300046
615 4 0.410637 0.350197 0.333731
543 4 0.42007 0.335037 0.32799
613 2 0.420143 0.370331 0.322355
2538 4 0.469614 0.376852 0.318551
2536 2 0.467396 0.381695 0.294121
614 4 0.42965 0.390465 0.310979
2537 4 0.465178 0.386537 0.269691
2862 4 0.467128 0.406834 0.266213
777 4 0.0630398 0.410593 0.309335
775 2 0.0766159 0.431488 0.311399
414 4 0.108641 0.459102 0.315256
776 4 0.090192 0.452383 0.313464
438 4 0.3212 0.454731 0.275283
436 2 0.329585 0.434692 0.287664
594 4 0.400207 0.480301 0.318431
1798 2 0.00675653 0.00887896 0.321606
1772 4 0.0219973 0.0209251 0.398304
1771 2 0.0112735 0.00956209 0.378783
732 4 0.084154 0.0641616 0.362901
730 2 0.0736825 0.0794001 0.346069
1782 4 0.103835 0.0134967 0.411751
369 4 0.0873026 0.0470905 0.372677
367 2 0.0960399 0.0262598 0.383397
368 4 0.104777 0.00542907 0.394117
604 2 0.13624 0.0837521 0.3937
605 4 0.158907 0.0770399 0.385558
1701 4 0.174517 0.0658878 0.379796
1699 2 0.188052 0.0773037 0.362142
1700 4 0.201587 0.0887195 0.344488
256 2 0.396199 0.0542068 0.360077
257 4 0.378024 0.0588925 0.343558
258 4 0.414375 0.049521 0.376596
426 4 0.422021 0.0452846 0.395094
1428 4 0.473344 0.995838 0.388383
478 2 0.467814 0.0636646 0.333752
480 4 0.45967 0.0853455 0.343175
458 4 0.0207403 0.15395 0.36631
318 4 0.0344949 0.155237 0.349796
316 2 0.0453618 0.134954 0.340014
317 4 0.0562288 0.114671 0.330232
731 4 0.0632109 0.0946386 0.329237
388 2 0.104824 0.157674 0.340867
606 4 0.113572 0.0904642 0.401843
600 4 0.227817 0.142199 0.40073
683 4 0.232877 0.12418 0.406204
682 2 0.256769 0.121127 0.412912
319 2 0.305708 0.115197 0.391491
320 4 0.291117 0.105603 0.409386
321 4 0.320299 0.124792 0.373596
708 4 0.318651 0.143613 0.374755
706 2 0.313986 0.163181 0.359905
516 4 0.413744 0.125876 0.356698
515 4 0.452594 0.147018 0.333365
575 4 0.420036 0.115197 0.373099
574 2 0.427458 0.118543 0.39674
514 2 0.433169 0.136447 0.345032
453 4 0.460691 0.159163 0.347567
457 2 0.0099502 0.173319 0.37787
389 4 0.107457 0.171532 0.361511
598 2 0.217281 0.162447 0.410938
599 4 0.206746 0.182695 0.421145
473 4 0.215483 0.231816 0.393179
374 4 0.213018 0.252769 0.391194
472 2 0.239628 0.22549 0.394654
378 4 0.265106 0.229429 0.353125
376 2 0.283624 0.212709 0.354763
377 4 0.302143 0.195989 0.356402
707 4 0.309322 0.182749 0.345056
474 4 0.263773 0.219164 0.39613
344 4 0.266495 0.2492 0.354942
451 2 0.480196 0.169922 0.358924
452 4 0.499701 0.180681 0.370281
347 4 0.0605507 0.31596 0.401731
618 4 0.0802037 0.310802 0.403526
275 4 0.137093 0.315684 0.386247
617 4 0.12917 0.301573 0.399306
616 2 0.104687 0.306188 0.401416
274 2 0.159332 0.308475 0.377379
276 4 0.181571 0.301266 0.368512
373 2 0.199944 0.273958 0.388894
375 4 0.186869 0.295146 0.386593
548 4 0.0115169 0.379065 0.339606
547 2 0.0276112 0.393366 0.326893
406 2 0.00989251 0.352854 0.361759
407 4 0.0153466 0.359767 0.338358
435 4 0.210548 0.355486 0.335388
433 2 0.22853 0.366928 0.348461
434 4 0.246512 0.37837 0.361534
334 2 0.328912 0.413071 0.403334
502 2 0.272895 0.402843 0.404388
504 4 0.251621 0.39199 0.41179
335 4 0.351123 0.403833 0.396516
240 4 0.361939 0.396426 0.41251
753 4 0.46906 0.363861 0.333285
561 4 0.478946 0.33314 0.386766
559 2 0.499805 0.334028 0.400525
752 4 0.46635 0.346441 0.380082
751 2 0.467705 0.355151 0.356683
2463 4 0.0375252 0.52318 0.358987
412 2 0.118385 0.471049 0.334941
413 4 0.128129 0.482997 0.354626
500 4 0.136426 0.495854 0.367501
1544 4 0.146683 0.487089 0.353723
1545 4 0.193651 0.494417 0.3382
1543 2 0.170167 0.490753 0.345962
636 4 0.203387 0.425962 0.408035
669 4 0.297864 0.432902 0.396335
336 4 0.306701 0.42231 0.410153
503 4 0.29417 0.413696 0.396987
667 2 0.293727 0.454718 0.407829
592 2 0.399321 0.492846 0.340041
3990 4 0.470981 0.49562 0.359182
2238 4 0.0192804 0.0311773 0.415397
1126 2 0.996025 0.0553359 0.480934
2237 4 0.00934379 0.0716712 0.443005
2236 2 0.0143121 0.0514242 0.429201
1127 4 0.00824234 0.063544 0.460722
1780 2 0.0975011 0.999646 0.43158
726 4 0.291817 0.0832537 0.486262
724 2 0.29703 0.0587999 0.486401
725 4 0.302242 0.034346 0.48654
424 2 0.407825 0.0419098 0.415398
1580 4 0.386437 0.0204596 0.4422
425 4 0.393629 0.038535 0.435702
2878 2 0.479488 0.0689708 0.486967
2880 4 0.484528 0.0710005 0.46256
642 4 0.475448 0.0872285 0.459514
720 4 0.0187163 0.0801526 0.458378
718 2 0.0354437 0.0972208 0.46573
719 4 0.052171 0.114289 0.473082
1033 2 0.115676 0.133457 0.460409
1035 4 0.125829 0.149716 0.444355
1034 4 0.105522 0.117198 0.476463
261 4 0.138232 0.158198 0.457515
939 4 0.10341 0.116589 0.495929
1182 4 0.28543 0.0857105 0.468788
684 4 0.280661 0.118074 0.419621
1180 2 0.291544 0.0980108 0.447895
1181 4 0.297659 0.110311 0.427003
641 4 0.441274 0.116371 0.437525
576 4 0.43488 0.12189 0.420381
640 2 0.458361 0.1018 0.448519
306 4 0.450374 0.131345 0.428375
304 2 0.459503 0.154278 0.424385
471 4 0.0140283 0.195625 0.471055
260 4 0.16497 0.19993 0.450863
259 2 0.151601 0.179064 0.454189
695 4 0.164101 0.213358 0.464535
694 2 0.149501 0.231667 0.473297
687 4 0.217169 0.199876 0.42277
686 4 0.177889 0.213932 0.450341
685 2 0.197529 0.206904 0.436556
488 4 0.279287 0.224647 0.407209
487 2 0.295097 0.216234 0.424657
489 4 0.310907 0.207821 0.442105
467 4 0.385719 0.201301 0.433597
466 2 0.381661 0.225898 0.431676
468 4 0.377602 0.250495 0.429755
873 4 0.386895 0.244034 0.490641
305 4 0.468632 0.177211 0.420395
585 4 0.434434 0.24332 0.483406
1260 4 0.116953 0.258776 0.479967
696 4 0.1349 0.249977 0.482059
1259 4 0.0830549 0.283045 0.507584
1258 2 0.100004 0.270911 0.493775
813 4 0.246998 0.281634 0.471741
811 2 0.251783 0.302435 0.484764
266 4 0.329612 0.269774 0.465947
812 4 0.256568 0.323236 0.497787
267 4 0.369246 0.267315 0.435553
265 2 0.349429 0.268544 0.45075
2456 4 0.466051 0.304458 0.476133
584 4 0.460029 0.285763 0.476757
583 2 0.447231 0.264542 0.480082
346 2 0.0537611 0.336203 0.414743
348 4 0.0469715 0.356446 0.427755
326 4 0.0493235 0.361316 0.447122
325 2 0.0694257 0.366861 0.460918
681 4 0.0612502 0.415912 0.460159
383 4 0.0791524 0.406471 0.462954
382 2 0.103372 0.411254 0.466917
10 3 0.138021 0.350471 0.488476
327 4 0.0895279 0.372407 0.474714
7 3 0.108508 0.372416 0.482131
6 1 0.127924 0.370054 0.494238
711 4 0.161034 0.383459 0.494164
8 3 0.14196 0.387903 0.489463
635 4 0.209445 0.414509 0.456335
709 2 0.179016 0.393031 0.479666
772 2 0.233081 0.402525 0.489504
710 4 0.196998 0.402603 0.465168
238 2 0.38305 0.402786 0.424302
588 4 0.415686 0.404719 0.45147
679 2 0.0533434 0.435564 0.446874
680 4 0.0454366 0.455215 0.43359
1381 2 0.0617301 0.491032 0.428346
1383 4 0.0453244 0.474326 0.437118
538 2 0.119863 0.48476 0.482628
568 2 0.158585 0.445222 0.473058
384 4 0.127592 0.416037 0.47088
539 4 0.110918 0.467415 0.466998
569 4 0.142468 0.426627 0.477492
634 2 0.206416 0.420236 0.432185
570 4 0.174701 0.463817 0.468624
774 4 0.215488 0.405004 0.471912
668 4 0.289591 0.476534 0.419322
4 3 0.302159 0.486268 0.43049
5 3 0.290158 0.485315 0.466165
586 2 0.418906 0.414872 0.474092
239 4 0.404162 0.409146 0.436093
1059 4 0.14621 0.0727505 0.570921
340 2 0.195068 0.0491823 0.522115
342 4 0.182504 0.0705413 0.52545
2430 4 0.194645 0.0132347 0.513239
341 4 0.207631 0.0278232 0.51878
2428 2 0.215182 0.999052 0.511731
430 2 0.322479 0.0280133 0.524972
432 4 0.308004 0.0278645 0.504585
963 4 0.290985 0.0224352 0.497529
961 2 0.268753 0.0112768 0.50006
431 4 0.336955 0.0281621 0.545359
843 4 0.348765 0.0421757 0.537991
1217 4 0.412223 0.0503062 0.562782
842 4 0.393729 0.0429708 0.559861
841 2 0.371247 0.0425733 0.548926
1216 2 0.4252 0.0289725 0.564075
1218 4 0.438176 0.00763874 0.565367
2879 4 0.474449 0.0669411 0.511373
1272 4 0.0914387 0.15613 0.54979
938 4 0.09125 0.149687 0.531389
1150 2 0.162254 0.0890026 0.540888
937 2 0.0973299 0.133138 0.513659
1151 4 0.15034 0.089863 0.562854
1270 2 0.103776 0.155727 0.571534
1271 4 0.116114 0.155324 0.593278
1152 4 0.174167 0.0881421 0.518922
879 4 0.0793144 0.164824 0.536658
877 2 0.0549394 0.165575 0.542179
878 4 0.0305645 0.166325 0.547699
1199 4 0.0254252 0.182601 0.538246
409 2 0.263064 0.198585 0.512652
411 4 0.243628 0.193506 0.497765
898 2 0.291302 0.221478 0.552144
791 4 0.320658 0.229493 0.581131
899 4 0.306259 0.220956 0.572174
900 4 0.276344 0.222001 0.532115
410 4 0.2825 0.203664 0.527539
871 2 0.372629 0.248123 0.510763
872 4 0.358363 0.252213 0.530886
790 2 0.332021 0.251687 0.579265
906 4 0.432167 0.237986 0.575326
649 2 0.275262 0.309752 0.534988
651 4 0.28316 0.304375 0.558093
650 4 0.267363 0.31513 0.511882
792 4 0.343384 0.273881 0.577398
2455 2 0.48057 0.31465 0.493755
935 4 0.998324 0.37576 0.523551
9 3 0.122697 0.369915 0.516845
1137 4 0.148466 0.383137 0.586614
1135 2 0.134834 0.396388 0.570373
897 4 0.167185 0.393051 0.585094
1189 2 0.238371 0.40227 0.548425
895 2 0.1886 0.403208 0.577132
896 4 0.210015 0.413365 0.569171
1190 4 0.247187 0.395073 0.526161
1191 4 0.229556 0.409467 0.570689
804 4 0.262411 0.334189 0.512315
803 4 0.258388 0.383961 0.514999
802 2 0.260399 0.359075 0.513657
773 4 0.250675 0.400046 0.507096
930 4 0.264615 0.401225 0.520545
928 2 0.287329 0.411363 0.523093
929 4 0.310043 0.4215 0.52564
927 4 0.405259 0.385863 0.541437
925 2 0.415753 0.404724 0.528814
2457 4 0.495088 0.324843 0.511376
1136 4 0.121203 0.409638 0.554132
1172 4 0.222723 0.427814 0.57379
889 2 0.312118 0.48535 0.558986
891 4 0.323184 0.492151 0.537621
587 4 0.422126 0.425024 0.496714
1953 4 0.369306 0.441317 0.534392
1951 2 0.351883 0.4591 0.532079
1952 4 0.334459 0.476884 0.529767
881 4 0.343221 0.489 0.515106
926 4 0.426247 0.423585 0.516192
663 4 0.425821 0.440988 0.50671
1001 4 0.42684 0.496198 0.543308
662 4 0.434817 0.478594 0.53842
661 2 0.430319 0.459791 0.522565
1911 4 0.43497 0.484294 0.556115
1909 2 0.43725 0.474673 0.579081
1332 4 0.446075 0.493706 0.542583
2319 4 0.0598935 0.999495 0.627207
945 4 0.0686697 0.00701151 0.643944
1057 2 0.144604 0.0487181 0.577632
2375 4 0.137162 0.0179974 0.602154
1058 4 0.142997 0.0246858 0.584344
943 2 0.0926005 0.011646 0.649513
1284 4 0.144504 0.0515898 0.658409
825 4 0.131551 0.00751785 0.66336
950 4 0.244638 0.0100609 0.640873
949 2 0.263252 0.0264263 0.637574
951 4 0.281866 0.0427917 0.634275
1031 4 0.271067 0.0587853 0.629379
1030 2 0.276556 0.0802454 0.640977
45 3 0.440662 0.0618677 0.661258
3009 4 0.505917 0.0360106 0.580849
3178 2 0.00415414 0.150168 0.654378
1155 4 0.155657 0.0851634 0.581451
1153 2 0.165239 0.101448 0.597827
1154 4 0.174821 0.117733 0.614203
1221 4 0.166547 0.122219 0.632724
1219 2 0.182666 0.140706 0.637584
1032 4 0.282044 0.101705 0.652576
808 2 0.491598 0.0897272 0.641941
810 4 0.483045 0.0853217 0.665019
1243 2 0.085137 0.2069 0.636787
1244 4 0.0873975 0.218423 0.614713
1245 4 0.0828766 0.195376 0.658861
797 4 0.171473 0.217169 0.627636
1220 4 0.198784 0.159192 0.642445
1212 4 0.204841 0.177116 0.645841
1210 2 0.226374 0.169027 0.655643
796 2 0.182976 0.194993 0.628675
798 4 0.19448 0.172817 0.629714
857 4 0.305337 0.221283 0.590879
856 2 0.289832 0.208559 0.605809
858 4 0.274327 0.195836 0.620739
905 4 0.4577 0.222402 0.6154
3123 4 0.475619 0.229013 0.621379
904 2 0.444934 0.230194 0.595363
983 4 0.0466532 0.29421 0.5925
982 2 0.0452858 0.308258 0.61314
3263 4 0.0366377 0.326195 0.650957
984 4 0.0439183 0.322305 0.633779
947 4 0.299881 0.306499 0.675945
805 2 0.326341 0.32577 0.656782
807 4 0.334201 0.304718 0.645818
1238 4 0.351314 0.287031 0.592123
1237 2 0.338929 0.299075 0.610199
1239 4 0.326545 0.311119 0.628276
952 2 0.486595 0.327166 0.599146
953 4 0.468834 0.313695 0.610471
1041 4 0.0492229 0.338499 0.642381
1039 2 0.0522469 0.363212 0.640086
1040 4 0.055271 0.387926 0.637791
993 4 0.0474882 0.40485 0.644836
991 2 0.0576851 0.416257 0.62506
1029 4 0.22229 0.392038 0.647328
1027 2 0.214373 0.401945 0.668877
1206 4 0.473373 0.410827 0.624465
992 4 0.067882 0.427664 0.605284
1159 2 0.178242 0.496554 0.586664
1171 2 0.216656 0.450593 0.582127
1160 4 0.193774 0.480118 0.59733
1173 4 0.210589 0.473371 0.590464
1188 4 0.21148 0.477927 0.655789
1187 4 0.210521 0.484126 0.606176
1186 2 0.211001 0.481027 0.630982
890 4 0.301052 0.478549 0.580351
1204 2 0.460268 0.431518 0.619434
1910 4 0.43953 0.465052 0.602046
1269 4 0.436973 0.467569 0.620885
1267 2 0.434073 0.472717 0.645181
1205 4 0.447162 0.452209 0.614402
1282 2 0.135628 0.0701327 0.672641
1203 4 0.16897 0.0788965 0.760213
1148 4 0.181402 0.0879929 0.747571
1004 4 0.324929 0.019811 0.722726
1003 2 0.319617 0.0386896 0.707216
1005 4 0.314304 0.0575683 0.691706
1162 2 0.496018 0.0594974 0.692347
42 3 0.442873 0.0676838 0.698058
1163 4 0.479716 0.0728184 0.678856
1083 4 0.0314468 0.138221 0.678059
1081 2 0.0265689 0.120136 0.694622
1082 4 0.021691 0.102052 0.711185
1076 4 0.042366 0.0973311 0.709977
1075 2 0.0468 0.0864907 0.732068
850 2 0.0680177 0.15677 0.719323
1214 4 0.0358188 0.158415 0.749118
3179 4 0.0215713 0.153641 0.671978
852 4 0.0470526 0.155253 0.732863
909 4 0.106121 0.151224 0.700971
907 2 0.117358 0.12976 0.694789
908 4 0.128595 0.108296 0.688607
1283 4 0.126753 0.0886756 0.686874
1227 4 0.135078 0.0957371 0.702069
851 4 0.0889828 0.158287 0.705782
1225 2 0.148726 0.0907439 0.722415
1107 4 0.103696 0.170815 0.702492
1226 4 0.162375 0.0857507 0.742761
1211 4 0.247907 0.160939 0.665445
888 4 0.261669 0.158027 0.678897
887 4 0.295164 0.172111 0.713255
886 2 0.278417 0.165069 0.696076
831 4 0.357983 0.154135 0.695991
1141 2 0.391443 0.157638 0.711575
829 2 0.336528 0.162902 0.705371
1142 4 0.370534 0.144175 0.708973
44 3 0.466024 0.0861262 0.674894
41 1 0.444618 0.0775089 0.677332
43 3 0.428982 0.0945827 0.675783
1025 4 0.470431 0.146341 0.699318
3424 2 0.48507 0.114597 0.693271
3426 4 0.482158 0.0917821 0.683463
3425 4 0.487981 0.137412 0.703079
3269 4 0.481061 0.151327 0.714412
3268 2 0.488324 0.161806 0.73592
1024 2 0.449113 0.159314 0.700872
1209 4 0.0935692 0.206359 0.671787
1207 2 0.0916783 0.222141 0.691088
1213 2 0.0204538 0.178141 0.749002
1215 4 0.00508884 0.197866 0.748887
1208 4 0.0897874 0.237923 0.710389
1105 2 0.123182 0.181774 0.713689
1106 4 0.142668 0.192734 0.724886
1130 4 0.136059 0.212844 0.724808
1129 2 0.148404 0.223525 0.743748
830 4 0.315073 0.171669 0.714752
978 4 0.303945 0.179264 0.729106
976 2 0.299907 0.189166 0.751708
1194 4 0.3717 0.225194 0.689488
1192 2 0.356419 0.222383 0.709078
1262 4 0.420233 0.188596 0.708943
1193 4 0.341139 0.219573 0.728669
1143 4 0.412352 0.1711 0.714178
1026 4 0.427794 0.172287 0.702426
1261 2 0.425484 0.200825 0.73011
1263 4 0.430736 0.213053 0.751278
3262 2 0.0421677 0.320802 0.674738
3264 4 0.0476977 0.315409 0.698518
779 4 0.0522847 0.306118 0.715356
893 4 0.04342 0.323669 0.716088
778 2 0.0652498 0.291532 0.730987
780 4 0.0782149 0.276947 0.746619
1065 4 0.220731 0.274124 0.725871
1063 2 0.243452 0.276655 0.715747
946 2 0.288269 0.286152 0.684682
948 4 0.276657 0.265805 0.693419
1064 4 0.266174 0.279186 0.705622
1008 4 0.44276 0.304682 0.722765
1006 2 0.443545 0.296162 0.746259
892 2 0.0411788 0.346766 0.725399
894 4 0.0389376 0.369862 0.73471
816 4 0.0384517 0.383021 0.748991
3276 4 0.0240077 0.370548 0.746809
1066 2 0.163937 0.400625 0.695005
1067 4 0.138958 0.399563 0.695275
940 2 0.1133 0.413767 0.724944
941 4 0.133828 0.411372 0.710872
942 4 0.0927713 0.416162 0.739016
1068 4 0.188917 0.401688 0.694734
1028 4 0.206456 0.411853 0.690425
806 4 0.31848 0.346822 0.667745
1019 4 0.41335 0.414834 0.739635
1176 4 0.156414 0.466954 0.682469
1175 4 0.204562 0.465713 0.669016
1174 2 0.180488 0.466333 0.675742
1140 4 0.292434 0.471404 0.70139
1138 2 0.312711 0.483391 0.693005
1139 4 0.332989 0.495379 0.68462
1230 4 0.399661 0.448818 0.739649
1228 2 0.380861 0.4593 0.752372
1100 4 0.412282 0.434178 0.737109
1268 4 0.431174 0.477864 0.669476
1101 4 0.461 0.444096 0.731737
1099 2 0.436641 0.439137 0.734423
3330 4 0.477056 0.446126 0.742301
1251 4 0.464785 0.460602 0.741331
3328 2 0.490181 0.433498 0.725171
1295 4 0.0189492 0.00322024 0.788486
1296 4 0.0353372 0.0503914 0.791139
1294 2 0.0271432 0.0268058 0.789813
1077 4 0.0512339 0.0756503 0.754159
2049 4 0.176486 0.0100214 0.765405
2255 4 0.241554 0.0182805 0.766542
1201 2 0.17141 0.0540785 0.762028
1202 4 0.173849 0.0292605 0.763843
2254 2 0.216677 0.0197857 0.764532
2256 4 0.1918 0.0212908 0.762523
1113 4 0.375194 0.0477419 0.836307
1111 2 0.38372 0.0711426 0.834092
2442 4 0.472867 0.00322126 0.783299
980 4 0.469767 0.998378 0.811606
2321 4 0.458402 0.00446297 0.797105
2322 4 0.448488 0.0534768 0.797403
2320 2 0.453445 0.0289699 0.797254
846 4 0.464307 0.0668106 0.79695
864 4 0.0560586 0.0853098 0.771381
862 2 0.0552921 0.106505 0.784623
863 4 0.0545257 0.1277 0.797865
832 2 0.0332023 0.130007 0.82868
833 4 0.0408033 0.138285 0.806344
1125 4 0.058619 0.145669 0.804691
1123 2 0.0695472 0.168075 0.806613
31 1 0.12875 0.130175 0.836355
35 3 0.12262 0.124522 0.815163
32 3 0.142089 0.11358 0.845065
34 3 0.140714 0.150055 0.836099
1149 4 0.230876 0.0951101 0.746029
1147 2 0.206139 0.0915515 0.7468
1257 4 0.236166 0.0879299 0.763661
1255 2 0.258319 0.0925802 0.774282
1256 4 0.280472 0.0972304 0.784902
840 4 0.290299 0.104581 0.800034
838 2 0.283604 0.124249 0.813946
839 4 0.276909 0.143916 0.827858
844 2 0.4684 0.0889275 0.807871
845 4 0.472492 0.111044 0.818792
1124 4 0.0804753 0.190482 0.808535
1072 2 0.0715609 0.228321 0.810725
1073 4 0.086146 0.208801 0.816331
1074 4 0.0569758 0.247841 0.805119
1131 4 0.160749 0.234205 0.762687
1277 4 0.174532 0.237253 0.775628
1276 2 0.177123 0.228454 0.798888
1278 4 0.179714 0.219656 0.822148
920 4 0.179198 0.200052 0.822143
977 4 0.295869 0.199068 0.774309
916 2 0.290887 0.23967 0.76035
918 4 0.297747 0.218564 0.771867
1298 4 0.309454 0.209381 0.783573
1297 2 0.332044 0.206701 0.793949
1299 4 0.354635 0.204022 0.804325
50 3 0.39716 0.197715 0.783078
1086 4 0.364648 0.18633 0.805167
1043 4 0.396049 0.248279 0.790206
49 3 0.410974 0.232345 0.78833
1084 2 0.363561 0.175026 0.827443
3468 4 0.506185 0.188198 0.760613
1146 4 0.487345 0.188186 0.765765