ITEM: TIMESTEP
2150000
ITEM: NUMBER OF ATOMS
4590
ITEM: BOX BOUNDS pp pp pp
-9.9985700000000008e+00 9.9985700000000008e+00
-9.9985700000000008e+00 9.9985700000000008e+00
-9.9985700000000008e+00 9.9985700000000008e+00
ITEM: ATOMS id type xs ys zs
465 4 0.075669 0.0629603 0.0164906
463 2 0.0621065 0.0811787 0.0269467
701 4 0.0821071 0.0460522 0.00969997
700 2 0.104854 0.039951 0.0180974
702 4 0.127602 0.0338498 0.0264948
566 4 0.147269 0.041481 0.0249988
565 2 0.158354 0.0628117 0.0318768
567 4 0.169439 0.0841424 0.0387547
2264 4 0.289897 0.00386068 0.0414899
2263 2 0.289449 0.0057691 0.0165633
491 4 0.289567 0.00204961 0.0607324
746 4 0.486304 0.0682022 0.015621
2469 4 0.491094 0.0512993 0.027118
2467 2 0.49787 0.0292129 0.0366816
2468 4 0.504645 0.00712644 0.0462452
464 4 0.0485441 0.0993971 0.0374028
590 4 0.0359087 0.0895146 0.0487487
589 2 0.0160474 0.0990926 0.0605372
865 2 0.363418 0.168957 0.0114174
770 4 0.484443 0.161987 0.0735332
769 2 0.485243 0.137512 0.0684819
771 4 0.486044 0.113037 0.0634306
554 4 0.038215 0.198643 0.0206453
553 2 0.0578917 0.21267 0.0270669
555 4 0.0775684 0.226698 0.0334885
835 2 0.115503 0.208166 0.0203462
836 4 0.0920796 0.2132 0.0274994
738 4 0.156402 0.174931 0.0654148
837 4 0.138927 0.203132 0.013193
573 4 0.328043 0.252174 0.0559923
664 2 0.340087 0.217689 0.0421284
665 4 0.3569 0.201891 0.032489
666 4 0.323274 0.233487 0.0517679
867 4 0.34846 0.182786 0.0259159
461 4 0.324421 0.239992 0.0706233
1070 4 0.447475 0.207527 0.0536476
1069 2 0.442629 0.231713 0.0577392
2806 2 0.00563197 0.301707 0.0186916
2808 4 0.0197412 0.316283 0.00407442
294 4 0.109741 0.312871 0.031484
292 2 0.13166 0.315057 0.0433149
293 4 0.153578 0.317242 0.0551458
507 4 0.165644 0.31875 0.0377042
356 4 0.298181 0.301173 0.0375592
572 4 0.291071 0.282767 0.0419238
571 2 0.309557 0.26747 0.0489581
355 2 0.296873 0.324724 0.0292648
1071 4 0.437784 0.255899 0.0618308
324 4 0.428728 0.272491 0.0673045
322 2 0.430008 0.297279 0.0642891
323 4 0.431287 0.322067 0.0612737
647 4 0.030734 0.373131 0.0531986
646 2 0.0515806 0.366234 0.0651581
620 4 0.0176277 0.372096 0.0689993
648 4 0.0724271 0.359336 0.0771176
456 4 0.0863336 0.345241 0.0810322
505 2 0.18089 0.335661 0.0273716
506 4 0.196136 0.352572 0.0170389
483 4 0.214562 0.350886 0.00969328
481 2 0.224382 0.373071 0.0157382
482 4 0.234202 0.395257 0.021783
536 4 0.185068 0.389119 0.0936542
609 4 0.250346 0.402164 0.0137128
357 4 0.295566 0.348276 0.0209704
902 4 0.279381 0.350205 0.00835029
607 2 0.266807 0.418371 0.023282
957 4 0.39219 0.405489 0.0146103
672 4 0.428579 0.340052 0.0686248
670 2 0.444377 0.358032 0.0758576
281 4 0.469764 0.392652 0.0797307
671 4 0.460175 0.376013 0.0830905
280 2 0.472993 0.417436 0.0790289
2651 4 0.479905 0.377248 0.0855262
552 4 0.0805571 0.472684 0.0746161
1787 4 0.0933508 0.487803 0.07295
1786 2 0.100387 0.495148 0.0501087
246 4 0.237987 0.477601 0.0377928
244 2 0.221856 0.461339 0.0478192
245 4 0.205725 0.445077 0.0578456
627 4 0.209925 0.446915 0.0774355
272 4 0.244268 0.478409 0.0199947
1778 4 0.255204 0.486482 0.0346237
608 4 0.283269 0.434577 0.0328511
252 4 0.300185 0.438002 0.0232511
250 2 0.316578 0.454455 0.0139932
251 4 0.332972 0.470908 0.00473531
525 4 0.390917 0.489526 0.061989
2289 4 0.342926 0.485426 0.0147118
523 2 0.386322 0.493015 0.0376603
282 4 0.476222 0.44222 0.0783272
226 2 0.496595 0.469371 0.0653177
227 4 0.493857 0.444606 0.067412
16 1 0.0609209 0.0554424 0.136578
20 3 0.0612186 0.0516127 0.11413
1806 4 0.0512098 0.0166314 0.143191
18 3 0.0549139 0.0360629 0.147836
19 3 0.0459188 0.0724427 0.141511
380 4 0.0257213 0.0762258 0.143961
17 3 0.0819225 0.0618307 0.143453
673 2 0.109273 0.0494306 0.163572
675 4 0.0847324 0.0532814 0.160723
450 4 0.15063 0.0533533 0.163301
448 2 0.164183 0.0724028 0.154434
652 2 0.289392 0.0361581 0.160408
653 4 0.287317 0.0595614 0.151855
484 2 0.363438 0.0132734 0.12341
295 2 0.342268 0.0556964 0.0968042
297 4 0.336613 0.0334657 0.106754
485 4 0.355994 0.0317262 0.108269
379 2 0.0217207 0.0932027 0.161876
2623 2 0.996195 0.12605 0.108805
2625 4 0.00423389 0.131703 0.131797
579 4 0.0946673 0.103347 0.115203
237 4 0.146025 0.143208 0.121852
578 4 0.128539 0.14006 0.112834
577 2 0.111603 0.121703 0.114018
476 4 0.130507 0.154944 0.125281
737 4 0.139709 0.155364 0.108301
235 2 0.161839 0.126627 0.131861
692 4 0.241664 0.0967519 0.147083
236 4 0.177652 0.110046 0.141869
693 4 0.192823 0.0989562 0.136578
449 4 0.177736 0.0914523 0.145568
691 2 0.217243 0.0978541 0.141831
582 4 0.248426 0.0835298 0.160585
558 4 0.330545 0.143989 0.0837531
556 2 0.338728 0.120429 0.0819797
557 4 0.34691 0.0968683 0.0802063
296 4 0.347924 0.0779271 0.0868548
311 4 0.47541 0.156154 0.167702
475 2 0.11815 0.169061 0.14181
736 2 0.148055 0.165147 0.0868577
477 4 0.105793 0.183178 0.158338
283 2 0.326839 0.20277 0.142395
354 4 0.323576 0.237913 0.133348
285 4 0.318573 0.180965 0.151417
284 4 0.335105 0.224575 0.133373
462 4 0.333855 0.235142 0.119493
460 2 0.329138 0.237567 0.0950579
255 4 0.340792 0.241713 0.134161
253 2 0.362114 0.244966 0.146808
254 4 0.383437 0.248219 0.159455
1014 4 0.487656 0.173942 0.0886476
310 2 0.461049 0.176546 0.165934
628 2 0.416632 0.223438 0.160539
629 4 0.436985 0.210542 0.153857
1013 4 0.499676 0.214097 0.11592
1012 2 0.493666 0.19402 0.102284
455 4 0.117464 0.318221 0.109344
454 2 0.101899 0.331731 0.0951881
352 2 0.307504 0.254387 0.14312
353 4 0.291432 0.270861 0.152892
754 2 0.287105 0.309885 0.133801
755 4 0.290244 0.286388 0.141752
278 4 0.281826 0.285998 0.159922
626 4 0.200683 0.40134 0.0958275
611 4 0.2276 0.338308 0.0954818
537 4 0.21064 0.346637 0.0871641
535 2 0.197854 0.367878 0.0904091
756 4 0.283965 0.333382 0.125851
612 4 0.27626 0.333114 0.105774
610 2 0.25193 0.335711 0.100628
387 4 0.332378 0.401675 0.161376
741 4 0.393633 0.37432 0.102798
739 2 0.392623 0.377031 0.127634
740 4 0.391613 0.379742 0.152469
15 3 0.383403 0.36618 0.164422
385 2 0.355934 0.393586 0.163582
386 4 0.37949 0.385497 0.165788
495 4 0.398637 0.391 0.166153
493 2 0.406703 0.414643 0.167231
551 4 0.0497114 0.436999 0.0912252
1465 2 0.00939286 0.471712 0.081956
1466 4 0.0237572 0.48882 0.0931877
1791 4 0.0340868 0.496533 0.108558
550 2 0.0651342 0.454842 0.0829207
1467 4 0.995028 0.454604 0.0707243
242 4 0.089171 0.480176 0.0900272
241 2 0.105258 0.490505 0.106142
1438 2 0.152918 0.491793 0.14969
243 4 0.121346 0.500834 0.122257
1440 4 0.131085 0.494065 0.137717
625 2 0.205304 0.424128 0.0866315
637 2 0.209367 0.490462 0.163552
638 4 0.230617 0.48255 0.153016
767 4 0.248288 0.478767 0.143183
303 4 0.300754 0.461535 0.142954
766 2 0.270169 0.470278 0.134562
768 4 0.29205 0.461789 0.125941
301 2 0.314995 0.442949 0.151723
494 4 0.414769 0.438285 0.168308
660 4 0.419031 0.455617 0.16129
658 2 0.430995 0.476046 0.169333
2480 4 0.0057062 0.00601566 0.228444
674 4 0.133813 0.0455799 0.16642
1505 4 0.149314 0.0385057 0.176145
1504 2 0.16201 0.021954 0.189931
1506 4 0.174705 0.00540232 0.203717
654 4 0.291466 0.0127547 0.168961
1661 4 0.30437 0.997525 0.175229
22 3 0.406698 0.996315 0.20974
21 1 0.406041 0.0120559 0.226501
23 3 0.389682 0.0277166 0.221447
24 3 0.400969 0.00148464 0.246525
757 2 0.436844 0.0587743 0.219243
25 3 0.42635 0.0222475 0.228021
759 4 0.440919 0.0358657 0.228396
350 4 0.444047 0.0166439 0.231791
349 2 0.46379 0.0142045 0.246938
512 4 0.0312316 0.118068 0.192537
381 4 0.0177201 0.110179 0.179792
511 2 0.0501496 0.133369 0.198296
513 4 0.0690677 0.14867 0.204054
339 4 0.0814672 0.159388 0.216552
580 2 0.268641 0.0961207 0.1682
581 4 0.288857 0.108712 0.175814
30 3 0.284046 0.123299 0.189039
26 1 0.28132 0.145703 0.185998
27 3 0.26591 0.153586 0.201149
28 3 0.273558 0.149893 0.164536
29 3 0.301482 0.156668 0.189411
758 4 0.43277 0.0816829 0.21009
521 4 0.461914 0.137089 0.230255
520 2 0.482546 0.150489 0.225787
363 4 0.118902 0.191585 0.170307
337 2 0.0932943 0.169493 0.196977
338 4 0.105121 0.179597 0.177401
362 4 0.152552 0.221511 0.192052
361 2 0.135727 0.206548 0.18118
372 4 0.153456 0.226164 0.211432
370 2 0.145162 0.243966 0.226908
723 4 0.213026 0.217252 0.235263
630 4 0.39628 0.236335 0.16722
312 4 0.446688 0.196937 0.164166
761 4 0.499023 0.231583 0.250486
750 4 0.0688362 0.291921 0.216242
395 4 0.0503482 0.286309 0.217518
748 2 0.0685355 0.296432 0.19165
394 2 0.031276 0.288986 0.233463
749 4 0.0682349 0.300943 0.167059
300 4 0.155648 0.323001 0.196612
298 2 0.140807 0.324287 0.216694
371 4 0.136869 0.261768 0.242383
299 4 0.125965 0.325574 0.236775
401 4 0.210587 0.284488 0.249061
279 4 0.245181 0.270832 0.190383
277 2 0.263504 0.278415 0.175153
307 2 0.319622 0.301847 0.203696
309 4 0.335 0.287286 0.190406
308 4 0.304243 0.316409 0.216987
497 4 0.290568 0.329406 0.22568
765 4 0.390182 0.251753 0.177901
763 2 0.402902 0.270855 0.187824
764 4 0.415622 0.289957 0.197748
623 4 0.432992 0.298561 0.198963
622 2 0.457122 0.304213 0.195647
624 4 0.481252 0.309865 0.192332
528 4 0.491815 0.299398 0.178945
262 2 0.0429834 0.381339 0.226047
263 4 0.0545013 0.360027 0.232237
602 4 0.0666628 0.35272 0.218022
264 4 0.0314655 0.402651 0.219858
601 2 0.0898286 0.345902 0.224505
603 4 0.112994 0.339083 0.230989
291 4 0.174262 0.402633 0.213192
290 4 0.175037 0.36854 0.176617
289 2 0.17465 0.385586 0.194905
14 3 0.411426 0.384633 0.181506
11 1 0.398648 0.365266 0.181316
12 3 0.412535 0.347226 0.178022
13 3 0.387778 0.362748 0.201661
2860 2 0.463175 0.410973 0.244651
2618 4 0.0299133 0.422137 0.224682
2617 2 0.00785387 0.430606 0.232858
1439 4 0.17475 0.489521 0.161664
639 4 0.188117 0.498373 0.174088
416 4 0.176752 0.422733 0.211629
415 2 0.172994 0.447415 0.212985
1430 4 0.185369 0.483721 0.214966
417 4 0.169235 0.472097 0.214341
302 4 0.329236 0.424362 0.160493
2861 4 0.443734 0.426267 0.241001
659 4 0.442959 0.496475 0.177375
595 2 0.481878 0.488082 0.195242
596 4 0.458261 0.492544 0.18835
232 2 0.00192858 0.0536209 0.29223
1799 4 0.0168906 0.0136657 0.29955
233 4 0.0153216 0.032649 0.294677
1402 2 0.0577604 0.0247387 0.291713
1403 4 0.0328982 0.0232715 0.293925
1404 4 0.0826227 0.0262059 0.2895
633 4 0.378436 0.0496094 0.301882
631 2 0.37738 0.0656371 0.28272
257 4 0.384001 0.0561195 0.319762
698 4 0.366683 0.0468349 0.317044
697 2 0.353713 0.0262262 0.322721
699 4 0.340743 0.00561744 0.328398
744 4 0.493847 0.00768729 0.279109
742 2 0.499155 0.021244 0.299437
351 4 0.483533 0.0117651 0.262085
478 2 0.492989 0.0728631 0.326418
399 4 0.0498561 0.102654 0.32193
397 2 0.0640381 0.120219 0.311181
390 4 0.0760432 0.152992 0.288148
317 4 0.0373729 0.104609 0.336332
731 4 0.0465045 0.0878388 0.335814
545 4 0.141702 0.145776 0.254203
398 4 0.0782201 0.137783 0.300433
393 4 0.0886465 0.138918 0.283861
392 4 0.127553 0.159761 0.260353
391 2 0.1081 0.14934 0.272107
544 2 0.162042 0.159823 0.257965
249 4 0.218498 0.156711 0.327206
404 4 0.208123 0.174068 0.325105
632 4 0.376324 0.0816649 0.263558
480 4 0.482466 0.0953334 0.32333
444 4 0.0151889 0.238847 0.29358
388 2 0.0672679 0.174398 0.297631
389 4 0.0584926 0.195805 0.307114
721 2 0.205603 0.200375 0.252152
403 2 0.196767 0.174242 0.302829
405 4 0.18541 0.174416 0.280554
546 4 0.182382 0.173869 0.261727
722 4 0.19818 0.183498 0.269041
378 4 0.29335 0.239197 0.318309
420 4 0.406599 0.217017 0.26398
717 4 0.39258 0.232484 0.269486
331 2 0.46256 0.199626 0.309903
332 4 0.456206 0.198259 0.285759
418 2 0.427306 0.203375 0.267184
419 4 0.448013 0.189732 0.270387
760 2 0.481746 0.215848 0.25938
762 4 0.46447 0.200112 0.268273
333 4 0.468915 0.200993 0.334047
442 2 0.0124484 0.259099 0.279174
396 4 0.0122037 0.291663 0.249409
443 4 0.00970789 0.27935 0.264767
406 2 0.00412764 0.329004 0.332943
677 4 0.134188 0.305418 0.306746
676 2 0.155931 0.316555 0.312075
733 2 0.115683 0.317674 0.268061
735 4 0.122493 0.307749 0.289976
510 4 0.230763 0.297662 0.308223
508 2 0.213584 0.314137 0.315878
400 2 0.22089 0.283884 0.271835
402 4 0.231193 0.283281 0.294609
509 4 0.196405 0.330613 0.323533
345 4 0.242327 0.281745 0.310633
678 4 0.177673 0.327693 0.317404
496 2 0.283507 0.33368 0.249282
343 2 0.263045 0.268718 0.315754
344 4 0.283763 0.255691 0.320875
498 4 0.276445 0.337954 0.272884
715 2 0.394498 0.253937 0.282184
716 4 0.396417 0.275391 0.294882
542 4 0.378014 0.275584 0.299954
541 2 0.378007 0.299671 0.306663
543 4 0.378 0.323758 0.313371
547 2 0.0145288 0.383018 0.30438
549 4 0.0288671 0.403464 0.30312
777 4 0.0474209 0.404992 0.301525
734 4 0.108872 0.3276 0.246145
435 4 0.182625 0.343694 0.326915
433 2 0.18114 0.367957 0.332766
728 4 0.380101 0.381906 0.286694
615 4 0.387131 0.339425 0.321873
727 2 0.378443 0.402673 0.30052
613 2 0.408713 0.350896 0.316601
2862 4 0.482615 0.395679 0.248302
2537 4 0.490873 0.3851 0.263127
2538 4 0.470155 0.362988 0.302908
2536 2 0.480514 0.374044 0.283017
753 4 0.476892 0.345178 0.308845
751 2 0.48082 0.338215 0.332536
614 4 0.430296 0.362367 0.31133
775 2 0.0609757 0.419443 0.316776
1776 4 0.15871 0.492707 0.27323
776 4 0.0745305 0.433894 0.332028
1543 2 0.163674 0.486333 0.329497
1545 4 0.18683 0.481778 0.321236
1435 2 0.19902 0.505927 0.289925
1436 4 0.200002 0.495372 0.31257
729 4 0.376785 0.42344 0.314345
438 4 0.370698 0.473188 0.33621
436 2 0.364269 0.451845 0.324882
437 4 0.357841 0.430502 0.313554
1771 2 0.0219854 0.00471774 0.372898
1772 4 0.0305298 0.0241592 0.386097
2238 4 0.0221825 0.0416423 0.379541
730 2 0.0663113 0.0778717 0.347369
2236 2 0.0150057 0.0499051 0.402022
732 4 0.0861182 0.0679046 0.358924
367 2 0.0901517 0.0517229 0.397729
369 4 0.0947153 0.0589832 0.374242
256 2 0.391088 0.0669198 0.34117
258 4 0.398174 0.07772 0.362579
426 4 0.403437 0.0636607 0.376516
424 2 0.390649 0.0528909 0.395108
425 4 0.377861 0.0421211 0.4137
318 4 0.00905054 0.13612 0.362897
458 4 0.016344 0.142076 0.380601
316 2 0.0232117 0.120365 0.349615
1701 4 0.171097 0.0868843 0.387964
604 2 0.135321 0.0880386 0.404431
605 4 0.159341 0.094448 0.401761
606 4 0.111301 0.0816291 0.407101
247 2 0.212868 0.136422 0.34069
248 4 0.207237 0.116133 0.354175
1699 2 0.183597 0.0941283 0.367557
1700 4 0.196097 0.101372 0.34715
600 4 0.241884 0.160565 0.396561
683 4 0.244059 0.141551 0.402396
682 2 0.260918 0.123827 0.407578
319 2 0.315105 0.120638 0.395685
320 4 0.296538 0.111865 0.409949
708 4 0.320986 0.142643 0.37237
706 2 0.314634 0.16494 0.363005
684 4 0.277776 0.106103 0.41276
321 4 0.333672 0.129412 0.381421
516 4 0.443823 0.13972 0.355809
575 4 0.448621 0.129769 0.371926
574 2 0.454789 0.121808 0.394812
457 2 0.00828548 0.165569 0.37772
598 2 0.23049 0.174033 0.41428
376 2 0.297277 0.222267 0.336286
377 4 0.301203 0.205337 0.354262
707 4 0.308282 0.187237 0.353641
474 4 0.259814 0.233036 0.402181
489 4 0.309898 0.194913 0.426046
487 2 0.291155 0.210769 0.421305
267 4 0.35427 0.236255 0.422735
514 2 0.453079 0.161874 0.348831
515 4 0.462334 0.184029 0.341853
453 4 0.465456 0.199802 0.3532
451 2 0.486089 0.206602 0.365579
347 4 0.0719613 0.315959 0.390436
408 4 0.0114664 0.310956 0.348614
618 4 0.075578 0.328985 0.375871
275 4 0.12582 0.31063 0.369733
617 4 0.122808 0.328205 0.359457
616 2 0.0991932 0.328595 0.367664
274 2 0.150672 0.312563 0.371693
473 4 0.231629 0.272697 0.390635
374 4 0.219673 0.285479 0.380359
276 4 0.175523 0.314495 0.373654
373 2 0.204887 0.305642 0.380173
375 4 0.190101 0.325804 0.379987
472 2 0.245721 0.252867 0.396408
561 4 0.495801 0.319949 0.36872
346 2 0.0596494 0.333145 0.403787
434 4 0.179654 0.392221 0.338617
502 2 0.301599 0.387473 0.401358
503 4 0.311035 0.408845 0.39245
336 4 0.32596 0.409846 0.37963
504 4 0.292163 0.3661 0.410266
238 2 0.390956 0.412203 0.411138
334 2 0.349638 0.401927 0.378281
335 4 0.373316 0.394007 0.376932
240 4 0.38823 0.39542 0.392805
752 4 0.484747 0.331252 0.356227
414 4 0.0861782 0.450802 0.333832
412 2 0.103665 0.468539 0.336019
413 4 0.121152 0.486276 0.338206
1544 4 0.140518 0.490888 0.337757
668 4 0.313026 0.471026 0.40636
669 4 0.323176 0.423887 0.393111
667 2 0.318101 0.447456 0.399735
3990 4 0.495475 0.497 0.341555
1781 4 0.0627892 0.00526923 0.455068
1127 4 0.00137497 0.0607793 0.442672
2237 4 0.00782889 0.0581679 0.424503
720 4 0.0181122 0.068828 0.43682
718 2 0.0418289 0.0722106 0.443979
719 4 0.0655457 0.0755933 0.451138
1780 2 0.0753748 0.0153242 0.435945
368 4 0.0855882 0.0444627 0.421216
1782 4 0.0879603 0.0253791 0.416822
724 2 0.301612 0.0373752 0.46684
726 4 0.308385 0.0590579 0.456392
725 4 0.294838 0.0156925 0.477288
1182 4 0.306937 0.0789602 0.46084
963 4 0.281348 0.0029867 0.48375
432 4 0.298401 0.00413381 0.492623
1579 2 0.369166 0.0135416 0.439144
1580 4 0.3826 0.033257 0.431661
1581 4 0.355731 0.993826 0.446627
642 4 0.464509 0.0611499 0.460237
2878 2 0.458484 0.0454782 0.487209
2880 4 0.449407 0.0486983 0.464135
640 2 0.463101 0.0822954 0.446968
1033 2 0.119019 0.141631 0.477857
1035 4 0.135516 0.137131 0.459615
261 4 0.146286 0.143783 0.443924
1034 4 0.102522 0.146132 0.496099
259 2 0.160479 0.163659 0.449279
1180 2 0.298033 0.095396 0.444234
1181 4 0.28913 0.111832 0.427627
576 4 0.460958 0.113846 0.417697
641 4 0.461693 0.103441 0.433699
306 4 0.462383 0.123565 0.434353
304 2 0.463178 0.143463 0.449474
3158 4 0.463208 0.158219 0.48434
305 4 0.463973 0.16336 0.464594
470 4 0.00184435 0.18147 0.487708
694 2 0.150235 0.203261 0.486055
695 4 0.16287 0.193828 0.466649
260 4 0.174672 0.183535 0.454635
599 4 0.219096 0.1875 0.432
687 4 0.224667 0.204336 0.440938
686 4 0.177328 0.202615 0.45696
685 2 0.200998 0.203475 0.448949
411 4 0.242292 0.206973 0.452875
488 4 0.272412 0.226625 0.416565
409 2 0.247695 0.211149 0.476928
410 4 0.253097 0.215326 0.500981
468 4 0.336587 0.224804 0.416301
466 2 0.351585 0.205748 0.422391
467 4 0.366584 0.186693 0.428482
813 4 0.245777 0.290764 0.496357
265 2 0.364239 0.259178 0.423304
266 4 0.374208 0.282101 0.423874
583 2 0.500516 0.263232 0.489649
584 4 0.491936 0.286586 0.48717
2456 4 0.508384 0.297582 0.492524
348 4 0.0473376 0.350331 0.417137
2812 2 0.0140836 0.345994 0.4378
2813 4 0.0357962 0.356436 0.431114
326 4 0.0544863 0.362886 0.429329
325 2 0.069841 0.378313 0.441634
10 3 0.133146 0.371324 0.456461
327 4 0.0851956 0.39374 0.453939
7 3 0.101104 0.388375 0.465151
6 1 0.121495 0.381426 0.473219
711 4 0.142962 0.407841 0.496464
8 3 0.133189 0.399909 0.480967
9 3 0.11798 0.366431 0.490574
709 2 0.167471 0.40649 0.491703
774 4 0.209873 0.411403 0.490225
635 4 0.20355 0.407138 0.471689
710 4 0.19198 0.405138 0.486942
634 2 0.208859 0.413303 0.448046
1383 4 0.0653759 0.488326 0.453076
680 4 0.0608886 0.471056 0.462865
679 2 0.0731007 0.464872 0.483788
636 4 0.214169 0.419468 0.424403
5 3 0.287594 0.490073 0.445883
4 3 0.314201 0.472155 0.426169
1 1 0.307144 0.492634 0.434486
587 4 0.413403 0.420562 0.495603
588 4 0.395522 0.429642 0.449794
239 4 0.393682 0.428986 0.429471
586 2 0.404463 0.425102 0.472699
3077 4 0.0135557 0.02539 0.536853
1184 4 0.0144522 0.0132216 0.552435
3076 2 0.000949891 0.0265062 0.515289
1150 2 0.154322 0.0634732 0.545088
342 4 0.144491 0.0353751 0.519076
1152 4 0.140718 0.0528302 0.52701
340 2 0.157302 0.0145382 0.513892
1059 4 0.17329 0.0650125 0.5796
1151 4 0.167925 0.0741162 0.563167
341 4 0.170113 0.993701 0.508707
430 2 0.316853 0.00351477 0.509485
843 4 0.322774 0.0158363 0.537505
841 2 0.334819 0.0264679 0.556664
431 4 0.335305 0.00289573 0.526347
842 4 0.346864 0.0370995 0.575823
1216 2 0.388687 0.0243606 0.583656
1218 4 0.410583 0.0138304 0.58956
90 3 0.418979 0.00598912 0.57213
2879 4 0.467561 0.0422581 0.510283
879 4 0.0630454 0.150143 0.554116
877 2 0.0393468 0.144023 0.549007
1199 4 0.000883676 0.132977 0.55902
878 4 0.0156482 0.137903 0.543898
938 4 0.0817985 0.15588 0.556588
1272 4 0.0674879 0.16328 0.567384
937 2 0.0938342 0.148883 0.535818
939 4 0.10587 0.141887 0.515049
1155 4 0.169075 0.0839175 0.58064
3159 4 0.496267 0.150587 0.521077
3157 2 0.479738 0.154403 0.502708
3044 4 0.99878 0.223526 0.53309
1270 2 0.0802272 0.181097 0.579444
696 4 0.137601 0.212693 0.505461
1258 2 0.108052 0.227566 0.523907
1260 4 0.119858 0.207542 0.514696
898 2 0.278457 0.205464 0.530132
899 4 0.292645 0.210074 0.550197
900 4 0.26427 0.200854 0.510066
791 4 0.310524 0.214042 0.557042
790 2 0.33037 0.227616 0.563902
857 4 0.297125 0.205229 0.568175
856 2 0.293633 0.188387 0.586323
1259 4 0.0962469 0.24759 0.533119
811 2 0.249168 0.304468 0.516994
812 4 0.252559 0.318172 0.537631
650 4 0.240707 0.326001 0.55161
649 2 0.255035 0.318545 0.570697
792 4 0.350216 0.24119 0.570762
871 2 0.361312 0.271791 0.54031
872 4 0.353928 0.255063 0.557364
1238 4 0.361423 0.256542 0.574868
873 4 0.368696 0.288518 0.523256
1136 4 0.116056 0.372771 0.543294
1135 2 0.130345 0.378445 0.563012
897 4 0.161458 0.388238 0.573157
1137 4 0.144634 0.384118 0.582731
773 4 0.242215 0.398177 0.525999
1189 2 0.238127 0.408884 0.562758
772 2 0.226044 0.40479 0.508112
1191 4 0.224456 0.413431 0.583194
895 2 0.184857 0.396266 0.576793
896 4 0.208256 0.404294 0.580428
804 4 0.247877 0.337217 0.537921
803 4 0.254873 0.386623 0.534638
1190 4 0.251798 0.404337 0.542323
802 2 0.251375 0.36192 0.536279
930 4 0.261208 0.402478 0.525595
928 2 0.284712 0.410471 0.522618
925 2 0.431917 0.3919 0.523294
927 4 0.440634 0.373314 0.537569
992 4 0.0520857 0.420534 0.568779
681 4 0.0853128 0.458687 0.504712
384 4 0.140018 0.426113 0.502988
382 2 0.116042 0.433022 0.504598
569 4 0.154607 0.439222 0.502735
383 4 0.0920662 0.439931 0.506209
568 2 0.164306 0.462254 0.501915
570 4 0.174004 0.485285 0.501095
1160 4 0.184132 0.483121 0.586725
1172 4 0.207174 0.423452 0.583162
1159 2 0.17217 0.501535 0.574767
889 2 0.278708 0.489636 0.5269
929 4 0.308215 0.418464 0.519641
891 4 0.303705 0.489203 0.527245
1952 4 0.317893 0.476959 0.525021
881 4 0.31556 0.490695 0.511324
1951 2 0.317045 0.452652 0.530822
1953 4 0.316196 0.428345 0.536623
1000 2 0.412352 0.499849 0.555065
926 4 0.423199 0.410485 0.50902
663 4 0.421797 0.430283 0.510812
1001 4 0.429992 0.482511 0.551401
661 2 0.425498 0.447176 0.528871
662 4 0.429198 0.464069 0.54693
1911 4 0.436659 0.46867 0.563724
1332 4 0.446729 0.47256 0.54741
1330 2 0.465871 0.485673 0.538094
1058 4 0.164157 0.0250919 0.6083
1057 2 0.168723 0.0450522 0.59395
1284 4 0.136659 0.0775266 0.653255
2375 4 0.173097 0.00739606 0.611162
950 4 0.251244 0.0184857 0.651825
949 2 0.264667 0.0392173 0.647924
951 4 0.27809 0.059949 0.644024
1031 4 0.288151 0.0762417 0.638505
1217 4 0.36679 0.0348908 0.577753
43 3 0.436846 0.061449 0.649488
810 4 0.481932 0.0735871 0.671494
808 2 0.496241 0.0755481 0.651083
1083 4 0.0210099 0.137685 0.651657
3179 4 0.0174966 0.151934 0.638272
1081 2 0.011992 0.123976 0.670522
1221 4 0.16848 0.138279 0.622043
1153 2 0.166429 0.105649 0.59272
1154 4 0.163784 0.127381 0.604799
1219 2 0.179842 0.159425 0.629038
1211 4 0.246928 0.162527 0.664013
1030 2 0.304521 0.092067 0.648839
1032 4 0.32089 0.107892 0.659172
888 4 0.264743 0.171671 0.664084
3178 2 0.00144204 0.171044 0.636766
1209 4 0.100009 0.193425 0.651952
1245 4 0.102303 0.213434 0.653425
1271 4 0.0929664 0.198914 0.591504
1243 2 0.104179 0.210096 0.628716
1244 4 0.106056 0.206758 0.604008
1210 2 0.226296 0.173857 0.655579
1212 4 0.205663 0.185187 0.647146
1220 4 0.191205 0.18057 0.636032
797 4 0.174465 0.237899 0.620516
796 2 0.187549 0.217441 0.626471
798 4 0.200633 0.196983 0.632426
858 4 0.290141 0.171545 0.604471
1193 4 0.375753 0.216513 0.666231
3121 2 0.48556 0.220783 0.630273
3122 4 0.493609 0.198493 0.638246
3123 4 0.477512 0.243072 0.6223
905 4 0.479116 0.244972 0.6022
983 4 0.0365136 0.294654 0.595006
982 2 0.0415391 0.310883 0.613352
984 4 0.0465646 0.327111 0.631697
651 4 0.269362 0.311088 0.589784
805 2 0.300829 0.290848 0.607786
806 4 0.277758 0.300225 0.605561
807 4 0.323901 0.281471 0.610012
1239 4 0.343235 0.279779 0.61524
1237 2 0.352329 0.26816 0.595054
906 4 0.475351 0.292866 0.588316
904 2 0.477233 0.268919 0.595258
952 2 0.482328 0.325735 0.594761
953 4 0.464783 0.307934 0.595458
3263 4 0.0548224 0.333609 0.647312
1041 4 0.0510104 0.34676 0.634535
1039 2 0.0529761 0.371064 0.629003
1040 4 0.0549419 0.395368 0.623471
993 4 0.0431388 0.409846 0.616804
991 2 0.0476123 0.41519 0.592791
1068 4 0.1722 0.39828 0.673906
1028 4 0.185463 0.40762 0.660346
3309 4 0.489183 0.400868 0.615589
3307 2 0.497982 0.381159 0.602967
1027 2 0.204503 0.422832 0.654752
1171 2 0.201096 0.446861 0.589507
1029 4 0.223542 0.438043 0.649159
1173 4 0.195017 0.47027 0.595852
1187 4 0.195981 0.48912 0.601693
1186 2 0.197766 0.49647 0.625525
1175 4 0.186737 0.489562 0.65709
1268 4 0.41196 0.479332 0.653245
2168 4 0.408918 0.499941 0.657278
1206 4 0.491938 0.417384 0.625267
1909 2 0.434737 0.457691 0.586105
1267 2 0.421262 0.460283 0.639987
1204 2 0.468918 0.426322 0.621346
1910 4 0.432815 0.446712 0.608487
1269 4 0.430564 0.441233 0.626729
1205 4 0.445898 0.435261 0.617425
1296 4 0.00958109 0.0279865 0.736378
1201 2 0.182773 0.0513662 0.74563
2256 4 0.19464 0.00834775 0.739291
2049 4 0.184106 0.0132531 0.754845
1203 4 0.177866 0.0755436 0.749698
2254 2 0.214313 0.99943 0.726697
1003 2 0.334729 0.0212021 0.678697
1005 4 0.331532 0.0430257 0.666921
1164 4 0.499242 0.0420168 0.720498
45 3 0.443385 0.0450457 0.682741
1162 2 0.485881 0.0559116 0.704574
41 1 0.442459 0.0649572 0.671727
1163 4 0.47252 0.0698063 0.688649
44 3 0.462961 0.0757348 0.673117
42 3 0.426396 0.0782507 0.681443
1077 4 0.0269025 0.114821 0.74326
1075 2 0.0119652 0.108227 0.724323
1076 4 0.997028 0.101634 0.705387
1082 4 0.00297419 0.110267 0.689388
864 4 0.04401 0.125799 0.742045
1282 2 0.132685 0.0890757 0.675072
909 4 0.0970066 0.156049 0.708136
907 2 0.104621 0.132272 0.70677
908 4 0.112235 0.108495 0.705404
1283 4 0.128711 0.100625 0.69689
1227 4 0.126344 0.1003 0.715559
1225 2 0.144079 0.0935532 0.731842
1226 4 0.161814 0.0868059 0.748124
1148 4 0.179122 0.0948745 0.745652
1147 2 0.201183 0.106256 0.748642
1149 4 0.223245 0.117637 0.751632
886 2 0.272778 0.167388 0.68737
829 2 0.322454 0.148777 0.712929
830 4 0.300513 0.160092 0.708961
887 4 0.280813 0.163104 0.710657
831 4 0.344395 0.137462 0.716897
1142 4 0.354729 0.151522 0.727659
1141 2 0.375846 0.163173 0.721064
1025 4 0.453332 0.14738 0.699033
3424 2 0.471888 0.111387 0.691272
3426 4 0.475265 0.0881857 0.682584
3425 4 0.468511 0.134588 0.69996
3269 4 0.470928 0.153391 0.703548
3268 2 0.480628 0.161132 0.725254
1024 2 0.432542 0.161158 0.700808
3038 4 0.994421 0.209984 0.729998
852 4 0.044837 0.157863 0.742122
850 2 0.0644351 0.163703 0.727735
851 4 0.0840332 0.169543 0.713348
1208 4 0.0920525 0.169257 0.695002
1207 2 0.096031 0.181341 0.673477
1107 4 0.102392 0.174195 0.710632
1105 2 0.115695 0.187025 0.727473
1106 4 0.128999 0.199854 0.744313
1130 4 0.126406 0.219032 0.752533
978 4 0.292852 0.168647 0.725016
976 2 0.289597 0.18879 0.739468
916 2 0.306037 0.239116 0.752585
1194 4 0.398193 0.189453 0.701796
1192 2 0.386973 0.202983 0.684013
1143 4 0.396963 0.174824 0.714468
1262 4 0.410991 0.188654 0.716264
1026 4 0.411753 0.174935 0.702584
1261 2 0.417877 0.200168 0.737363
3270 4 0.490329 0.168872 0.746961
3262 2 0.0598727 0.31872 0.666754
3264 4 0.0649231 0.303831 0.686196
779 4 0.0750482 0.293548 0.69893
893 4 0.0689454 0.311706 0.703588
892 2 0.0577391 0.320837 0.72399
894 4 0.0465328 0.329969 0.744391
780 4 0.0951909 0.249512 0.711413
778 2 0.0851196 0.27153 0.705172
947 4 0.308062 0.260476 0.721201
1063 2 0.257924 0.311377 0.697987
946 2 0.288617 0.265478 0.706299
948 4 0.269172 0.270479 0.691398
1064 4 0.267639 0.290845 0.687535
917 4 0.31433 0.258693 0.739428
1008 4 0.423405 0.269524 0.708053
1006 2 0.438644 0.26635 0.72762
1067 4 0.13853 0.392409 0.710411
940 2 0.118341 0.392434 0.748409
941 4 0.133731 0.395381 0.728925
1066 2 0.155365 0.395345 0.692158
1065 4 0.248209 0.331909 0.708439
1280 4 0.0075345 0.485724 0.719981
1176 4 0.150301 0.462384 0.677934
1174 2 0.168519 0.475973 0.667512
1139 4 0.297726 0.467926 0.708782
1138 2 0.314788 0.46442 0.72672
1140 4 0.33185 0.460915 0.744658
1230 4 0.379884 0.428832 0.74427
1100 4 0.398317 0.434603 0.746139
1228 2 0.364882 0.448796 0.745531
1229 4 0.34988 0.468759 0.746793
1101 4 0.442242 0.454913 0.733537
1099 2 0.42028 0.444758 0.739838
3330 4 0.457188 0.442228 0.737429
1251 4 0.457197 0.459436 0.745249
3328 2 0.472047 0.442833 0.717329
3329 4 0.486906 0.443438 0.697229
1294 2 0.00829836 0.00666049 0.749368
2047 2 0.163333 0.0011178 0.761655
1202 4 0.187681 0.0271887 0.741563
1111 2 0.370696 0.0832291 0.834972
2321 4 0.449418 0.00451634 0.812719
2322 4 0.446116 0.0406189 0.778275
2320 2 0.447767 0.0225676 0.795497
846 4 0.439875 0.0593889 0.775748
844 2 0.436993 0.078461 0.759838
1214 4 0.0356927 0.168795 0.756401
862 2 0.0455347 0.12829 0.766877
863 4 0.0470594 0.130781 0.79171
833 4 0.0405803 0.119807 0.806295
1125 4 0.046445 0.138519 0.809791
1123 2 0.0660781 0.151155 0.818738
832 2 0.0386111 0.101213 0.822895
34 3 0.122669 0.154126 0.818466
1257 4 0.227222 0.110112 0.770625
1255 2 0.240951 0.117226 0.790274
921 4 0.213398 0.141375 0.802112
919 2 0.213473 0.163829 0.813113
1256 4 0.254679 0.124341 0.809924
840 4 0.273631 0.120964 0.815738
1112 4 0.371251 0.107523 0.829081
818 4 0.352095 0.114562 0.823767
817 2 0.358577 0.137435 0.831511
845 4 0.434111 0.097533 0.743928
1215 4 0.997908 0.199798 0.745827
1213 2 0.0168004 0.184296 0.751114
1124 4 0.0857113 0.163791 0.827685
1129 2 0.149884 0.219918 0.761087
822 4 0.172563 0.237742 0.778715
1131 4 0.173362 0.220803 0.769641
1277 4 0.168479 0.221969 0.78869
1276 2 0.183003 0.208976 0.804356
1278 4 0.197527 0.195984 0.820022
920 4 0.213547 0.186283 0.824113
977 4 0.286343 0.208933 0.75392
918 4 0.297744 0.219538 0.765742
1298 4 0.2925 0.202522 0.771715
1297 2 0.303113 0.200791 0.794288
1299 4 0.313726 0.199059 0.816862
1086 4 0.327612 0.207004 0.829925
50 3 0.395281 0.204545 0.792498
46 1 0.415966 0.213287 0.796288
49 3 0.414076 0.235277 0.803449
48 3 0.427082 0.200676 0.812282
3468 4 0.494198 0.172559 0.765283
47 3 0.428076 0.212848 0.776736
1263 4 0.424763 0.211683 0.758463
1146 4 0.485416 0.186613 0.755231
1145 4 0.443475 0.212183 0.764605
1144 2 0.464446 0.199398 0.759918
1022 4 0.428852 0.182502 0.820861
3188 4 0.0113634 0.251509 0.786907
3187 2 0.0362559 0.253017 0.788716
3189 4 0.0611483 0.254524 0.790526