ITEM: TIMESTEP
1270000
ITEM: NUMBER OF ATOMS
4590
ITEM: BOX BOUNDS pp pp pp
-9.9985700000000008e+00 9.9985700000000008e+00
-9.9985700000000008e+00 9.9985700000000008e+00
-9.9985700000000008e+00 9.9985700000000008e+00
ITEM: ATOMS id type xs ys zs
463 2 0.0491054 0.0729075 0.0232234
465 4 0.0607048 0.0571009 0.0387406
701 4 0.0742656 0.0701699 0.0443642
700 2 0.0973779 0.074328 0.0529499
702 4 0.12049 0.078486 0.0615356
566 4 0.132514 0.0688447 0.0734887
565 2 0.152548 0.0831271 0.0779387
491 4 0.271888 0.0218141 0.0398052
2264 4 0.283641 0.0362111 0.0341188
2263 2 0.289526 0.0493402 0.0136694
745 2 0.471194 0.049095 0.00596335
746 4 0.478335 0.0508222 0.0298632
2469 4 0.48517 0.0335006 0.0354095
2467 2 0.495671 0.013218 0.0455842
464 4 0.0375059 0.0887142 0.00770631
590 4 0.0246303 0.100291 0.07243
421 2 0.110696 0.113828 0.00245587
422 4 0.0925641 0.0991222 0.011408
360 4 0.215209 0.165837 0.995714
827 4 0.379738 0.12039 0.994766
865 2 0.368139 0.152897 0.00979642
867 4 0.352987 0.165444 0.0252282
826 2 0.404157 0.11502 0.994597
771 4 0.438807 0.145009 0.0776973
554 4 0.0534909 0.18853 0.0166883
553 2 0.058983 0.211851 0.00953832
835 2 0.105491 0.240288 0.00914224
837 4 0.129395 0.247537 0.00804143
836 4 0.0815868 0.233039 0.010243
915 4 0.147593 0.241763 0.00968659
666 4 0.307652 0.213687 0.0303015
664 2 0.320955 0.192638 0.028037
573 4 0.296964 0.229236 0.0355954
461 4 0.310781 0.220882 0.0477711
460 2 0.320223 0.225505 0.0704572
665 4 0.334258 0.171589 0.0257726
1070 4 0.407233 0.209776 0.0348135
1069 2 0.41094 0.229718 0.0494328
1071 4 0.414647 0.249661 0.0640521
1012 2 0.488999 0.210162 0.0662638
769 2 0.445695 0.168161 0.071239
770 4 0.452584 0.191313 0.0647806
1014 4 0.466491 0.203078 0.074532
294 4 0.0610804 0.306231 0.0370691
292 2 0.0855991 0.308293 0.0415146
507 4 0.12625 0.302776 0.0536576
293 4 0.110118 0.310355 0.0459601
505 2 0.150085 0.305803 0.046734
506 4 0.173919 0.30883 0.0398104
483 4 0.193174 0.312894 0.040393
355 2 0.291469 0.320366 0.0160974
571 2 0.298066 0.253184 0.0284929
356 4 0.294818 0.295588 0.0162079
572 4 0.299168 0.277133 0.0213904
957 4 0.393916 0.307552 0.00698087
324 4 0.433456 0.253664 0.059217
322 2 0.438979 0.277792 0.0556746
672 4 0.454907 0.31305 0.0386791
323 4 0.444501 0.301919 0.0521322
620 4 0.0110152 0.351648 0.0775404
481 2 0.201032 0.334437 0.0503598
609 4 0.228989 0.357963 0.0621642
607 2 0.235524 0.381249 0.055821
482 4 0.20889 0.35598 0.0603266
608 4 0.242059 0.404535 0.0494779
357 4 0.28812 0.345144 0.0159868
252 4 0.25845 0.413194 0.0406599
250 2 0.282022 0.413703 0.0323342
741 4 0.398537 0.373945 0.0757398
670 2 0.461355 0.33491 0.0489623
671 4 0.467804 0.35677 0.0592454
281 4 0.471759 0.372824 0.069641
280 2 0.479344 0.396637 0.0704248
282 4 0.48693 0.420449 0.0712085
2651 4 0.484855 0.357311 0.0681095
551 4 0.0939285 0.444178 0.0578553
550 2 0.0960007 0.465698 0.0704169
552 4 0.098073 0.487217 0.0829784
244 2 0.244519 0.490411 0.0574627
245 4 0.240233 0.475375 0.0769749
251 4 0.305593 0.414212 0.0240086
246 4 0.248806 0.505447 0.0379505
272 4 0.263823 0.496752 0.0302069
271 2 0.270275 0.48348 0.0100224
523 2 0.344733 0.488061 0.0434046
524 4 0.323223 0.492935 0.0316265
525 4 0.366244 0.483187 0.0551826
226 2 0.464894 0.461745 0.0356826
228 4 0.460942 0.475537 0.0152051
227 4 0.468846 0.447952 0.0561601
563 4 0.440242 0.478246 0.0188815
562 2 0.43259 0.502029 0.0178736
16 1 0.0568016 0.0622802 0.148059
20 3 0.0361331 0.0538089 0.143621
1806 4 0.0783424 0.0273969 0.146786
18 3 0.0721008 0.0449963 0.150427
2576 4 0.0289465 0.0207251 0.0896804
2575 2 0.00469651 0.0228048 0.0954066
1804 2 0.0827924 0.00973561 0.129655
450 4 0.169562 0.0519959 0.132392
1505 4 0.17622 0.0428947 0.147868
448 2 0.175939 0.075783 0.136715
652 2 0.309202 0.0208301 0.115751
653 4 0.319937 0.0273181 0.0941212
654 4 0.298468 0.0143421 0.137381
557 4 0.35002 0.0707602 0.0966297
296 4 0.369587 0.0659276 0.0910078
295 2 0.376595 0.0466321 0.105282
297 4 0.383602 0.0273367 0.119556
485 4 0.401548 0.015551 0.121846
589 2 0.00697454 0.102441 0.0900036
17 3 0.0633979 0.075709 0.130586
567 4 0.172583 0.0974095 0.0823887
237 4 0.156122 0.149181 0.148649
578 4 0.139509 0.151897 0.136214
577 2 0.118862 0.140159 0.14403
579 4 0.0982143 0.128421 0.151845
235 2 0.173212 0.132645 0.140926
236 4 0.190303 0.116108 0.133203
693 4 0.201395 0.103392 0.14379
449 4 0.182316 0.09957 0.141039
691 2 0.21752 0.107903 0.162359
558 4 0.330212 0.116677 0.096717
556 2 0.340116 0.0937186 0.0966733
337 2 0.0631057 0.193112 0.157529
339 4 0.0412682 0.187636 0.146652
338 4 0.0849433 0.198589 0.168406
476 4 0.136505 0.202645 0.12467
475 2 0.116984 0.204893 0.140132
477 4 0.0974632 0.207141 0.155594
737 4 0.153627 0.202293 0.117165
736 2 0.175275 0.213909 0.112514
738 4 0.196923 0.225525 0.107863
462 4 0.329665 0.230128 0.0931434
284 4 0.301718 0.193352 0.148458
255 4 0.332599 0.231902 0.113124
254 4 0.377545 0.232612 0.135035
253 2 0.355072 0.232257 0.12408
630 4 0.395016 0.224077 0.137524
628 2 0.409306 0.20366 0.139551
765 4 0.385817 0.231856 0.152692
629 4 0.423596 0.183243 0.141578
352 2 0.329148 0.288013 0.134762
353 4 0.306263 0.289526 0.144721
754 2 0.289704 0.326934 0.152132
755 4 0.301328 0.305006 0.155166
278 4 0.299853 0.286624 0.162753
354 4 0.352032 0.286499 0.124803
763 2 0.395427 0.250549 0.166235
519 4 0.506987 0.282896 0.0859215
526 2 0.4925 0.289543 0.166199
647 4 0.0309672 0.347572 0.0728017
646 2 0.0507249 0.348817 0.0880746
648 4 0.0704825 0.350062 0.103348
456 4 0.0886308 0.34411 0.108823
455 4 0.119869 0.383131 0.110327
454 2 0.10425 0.363621 0.109575
537 4 0.20738 0.367615 0.125287
535 2 0.19976 0.387071 0.111554
536 4 0.19214 0.406527 0.0978222
611 4 0.227684 0.365205 0.124479
610 2 0.246717 0.363815 0.140633
302 4 0.330327 0.419051 0.153411
387 4 0.338452 0.401763 0.144994
739 2 0.394571 0.371472 0.100303
740 4 0.390605 0.369 0.124866
15 3 0.392682 0.368195 0.144291
385 2 0.35648 0.385026 0.140517
386 4 0.374508 0.36829 0.136041
11 1 0.413055 0.371018 0.154069
12 3 0.424431 0.351026 0.153786
14 3 0.425351 0.386811 0.142331
495 4 0.42811 0.399007 0.125749
1465 2 0.0212742 0.47594 0.139786
1466 4 0.0426164 0.487506 0.133792
242 4 0.115424 0.489839 0.0741956
627 4 0.224409 0.46673 0.0865013
625 2 0.213919 0.444853 0.0925428
626 4 0.203428 0.422975 0.0985842
637 2 0.226502 0.501111 0.15022
767 4 0.241084 0.473091 0.154261
638 4 0.248564 0.4903 0.145577
766 2 0.258806 0.456792 0.161005
768 4 0.276527 0.440493 0.167749
301 2 0.312205 0.433482 0.162821
303 4 0.294084 0.447913 0.172231
660 4 0.421986 0.465322 0.134622
494 4 0.419327 0.446152 0.139924
493 2 0.423719 0.42258 0.132836
658 2 0.431379 0.478422 0.153736
2480 4 0.0195369 0.0137934 0.20272
19 3 0.0561487 0.0749938 0.167459
1422 4 0.00721207 0.99777 0.201611
673 2 0.145397 0.0537903 0.22028
675 4 0.131679 0.0458181 0.200956
674 4 0.159115 0.0617625 0.239605
1504 2 0.172295 0.0308736 0.169438
689 4 0.184976 0.0158447 0.203318
1506 4 0.16837 0.0188525 0.191008
688 2 0.201546 0.999626 0.212676
21 1 0.396611 0.0156513 0.230549
25 3 0.406998 0.033498 0.220944
759 4 0.417833 0.043415 0.208053
757 2 0.406386 0.0656417 0.208411
22 3 0.375176 0.021606 0.236398
351 4 0.468392 0.0347036 0.248379
349 2 0.447417 0.0335685 0.234816
350 4 0.426442 0.0324334 0.221253
380 4 0.0509648 0.0950769 0.163213
2483 4 0.995105 0.141355 0.175381
512 4 0.0462629 0.12831 0.209041
379 2 0.0406349 0.107591 0.182236
381 4 0.030305 0.120106 0.201259
511 2 0.0441063 0.151604 0.217869
392 4 0.104408 0.176276 0.246096
544 2 0.147946 0.17447 0.252915
545 4 0.124149 0.179748 0.247342
692 4 0.233646 0.112415 0.180927
582 4 0.252328 0.113517 0.18635
722 4 0.183352 0.162591 0.244676
721 2 0.193348 0.159278 0.221999
580 2 0.272606 0.122807 0.19765
581 4 0.292884 0.132097 0.20895
30 3 0.310525 0.135017 0.217787
26 1 0.330964 0.137523 0.227515
29 3 0.330639 0.128749 0.248993
27 3 0.336093 0.159915 0.228706
28 3 0.347146 0.126787 0.214815
758 4 0.39494 0.0878683 0.208769
312 4 0.453583 0.171761 0.175841
310 2 0.448813 0.147491 0.179504
311 4 0.444044 0.123222 0.183167
513 4 0.0419497 0.174898 0.226697
363 4 0.103084 0.204508 0.173825
362 4 0.10845 0.23595 0.212339
361 2 0.105767 0.220229 0.193082
372 4 0.126288 0.239752 0.21925
370 2 0.146154 0.247297 0.232425
371 4 0.166021 0.254842 0.2456
723 4 0.203344 0.155964 0.199321
283 2 0.322046 0.189593 0.162522
285 4 0.342374 0.185835 0.176587
521 4 0.465916 0.194556 0.223552
520 2 0.486088 0.180821 0.21811
395 4 0.0714139 0.284753 0.216525
394 2 0.0517993 0.289072 0.231417
396 4 0.0321846 0.293392 0.24631
749 4 0.102962 0.314005 0.169748
750 4 0.0746652 0.28248 0.196321
748 2 0.0888137 0.298243 0.183035
300 4 0.108334 0.329721 0.221263
279 4 0.277728 0.252605 0.191974
277 2 0.28879 0.269614 0.177364
308 4 0.328829 0.270041 0.234097
307 2 0.33307 0.271887 0.209525
497 4 0.329026 0.285152 0.247645
309 4 0.337311 0.273733 0.184952
764 4 0.405037 0.269242 0.179777
623 4 0.408519 0.288262 0.187531
528 4 0.476416 0.302914 0.1799
622 2 0.432812 0.293992 0.18605
624 4 0.457105 0.299722 0.184569
262 2 0.067104 0.388157 0.229244
264 4 0.0516654 0.376938 0.21309
263 4 0.0825426 0.399376 0.245398
298 2 0.118348 0.349699 0.232477
299 4 0.128363 0.369678 0.243691
290 4 0.207148 0.402947 0.216007
612 4 0.265751 0.362424 0.156788
756 4 0.278079 0.348862 0.149098
13 3 0.410392 0.377821 0.176092
643 2 0.493582 0.406164 0.20629
1757 4 0.0790615 0.500787 0.218249
416 4 0.172378 0.447032 0.19791
289 2 0.188357 0.419419 0.215123
417 4 0.167816 0.495365 0.209902
415 2 0.170097 0.471198 0.203906
291 4 0.169567 0.435891 0.21424
645 4 0.486792 0.430108 0.203889
597 4 0.480197 0.448355 0.20688
595 2 0.466929 0.466606 0.196108
596 4 0.453661 0.484857 0.185337
659 4 0.440773 0.491522 0.17285
231 4 0.43665 0.491018 0.192055
1799 4 0.0328353 0.0240889 0.320215
233 4 0.0355823 0.028896 0.301354
1402 2 0.0742701 0.0172845 0.305287
1403 4 0.0503314 0.0212092 0.311346
232 2 0.017884 0.0416335 0.289119
1404 4 0.0982088 0.0133598 0.299228
1701 4 0.171811 0.0480432 0.311157
1699 2 0.187483 0.0672946 0.314153
1700 4 0.203154 0.0865459 0.317149
23 3 0.408071 0.00916137 0.249653
697 2 0.366793 0.0335465 0.308689
699 4 0.355572 0.0204785 0.290565
1518 4 0.349305 0.00782114 0.275927
633 4 0.383754 0.065623 0.325326
698 4 0.378015 0.0466144 0.326813
743 4 0.488979 0.0422839 0.304753
744 4 0.485453 0.0435851 0.254887
742 2 0.487216 0.0429345 0.27982
478 2 0.467478 0.0455167 0.331671
479 4 0.489238 0.052446 0.321488
398 4 0.0885619 0.155776 0.301638
397 2 0.0879324 0.134912 0.315404
546 4 0.171742 0.169193 0.258488
248 4 0.221892 0.0908976 0.322837
249 4 0.2139 0.140246 0.321594
247 2 0.217896 0.115572 0.322215
404 4 0.214046 0.144871 0.302824
403 2 0.201884 0.154401 0.283165
405 4 0.189722 0.16393 0.263507
632 4 0.381338 0.115338 0.320497
631 2 0.382546 0.0904804 0.322912
333 4 0.471247 0.1418 0.267777
331 2 0.468117 0.166252 0.271962
390 4 0.0981824 0.173018 0.304375
393 4 0.0836263 0.171599 0.291339
391 2 0.0940174 0.173938 0.268718
388 2 0.107122 0.185462 0.324134
344 4 0.275987 0.244469 0.336228
717 4 0.410917 0.229369 0.314864
420 4 0.406252 0.212775 0.305927
332 4 0.464988 0.190703 0.276146
418 2 0.427809 0.20457 0.296275
419 4 0.449366 0.196365 0.286623
760 2 0.482582 0.220616 0.294114
762 4 0.467955 0.200382 0.292773
444 4 0.0422303 0.256042 0.298712
364 2 0.996785 0.313763 0.263959
442 2 0.0329762 0.269904 0.280073
443 4 0.0237221 0.283765 0.261435
365 4 0.0157558 0.300159 0.255003
401 4 0.219505 0.275851 0.269698
400 2 0.227987 0.280127 0.292827
402 4 0.236469 0.284404 0.315956
510 4 0.234926 0.299916 0.327915
508 2 0.229776 0.32438 0.327517
345 4 0.247324 0.285298 0.332741
343 2 0.261656 0.264884 0.334485
496 2 0.336355 0.302063 0.264541
715 2 0.416806 0.253147 0.319877
498 4 0.343684 0.318975 0.281437
543 4 0.428602 0.329485 0.284412
716 4 0.422695 0.276924 0.32489
541 2 0.424367 0.312566 0.302328
542 4 0.420132 0.295647 0.320244
601 2 0.113569 0.399703 0.253915
603 4 0.134887 0.387212 0.250086
602 4 0.0922504 0.412195 0.257744
734 4 0.145252 0.371314 0.253409
733 2 0.152667 0.367852 0.277035
735 4 0.160082 0.36439 0.300661
677 4 0.157742 0.362482 0.319689
676 2 0.182048 0.356854 0.321346
509 4 0.224626 0.348844 0.327118
435 4 0.218649 0.36508 0.317274
433 2 0.236708 0.381922 0.321197
434 4 0.254767 0.398765 0.32512
728 4 0.370835 0.383978 0.307138
727 2 0.35061 0.398255 0.303636
615 4 0.436729 0.347567 0.285664
613 2 0.431928 0.366226 0.3016
2538 4 0.477251 0.383226 0.320054
2536 2 0.486728 0.392218 0.298735
614 4 0.427126 0.384885 0.317536
2537 4 0.496205 0.401211 0.277417
2862 4 0.481931 0.414536 0.271942
777 4 0.0648614 0.440488 0.307276
549 4 0.0489319 0.436731 0.319197
775 2 0.0898002 0.442173 0.307905
414 4 0.13241 0.450658 0.315631
776 4 0.114739 0.443858 0.308533
412 2 0.145015 0.462479 0.333702
438 4 0.283444 0.451482 0.287764
436 2 0.305728 0.440165 0.288499
729 4 0.330384 0.412533 0.300134
437 4 0.328011 0.428848 0.289234
2861 4 0.443967 0.442672 0.255578
2860 2 0.462949 0.428604 0.26376
593 4 0.442924 0.466812 0.330454
1772 4 0.0270236 0.997871 0.412251
1798 2 0.0207982 0.0109281 0.337738
369 4 0.0802267 0.055322 0.378501
367 2 0.0794025 0.0313077 0.385416
368 4 0.0785783 0.00729338 0.39233
732 4 0.0963531 0.0649103 0.375255
605 4 0.16859 0.0756869 0.358644
604 2 0.165653 0.0840713 0.382016
256 2 0.399398 0.0527224 0.362667
257 4 0.391658 0.0532066 0.338896
258 4 0.407139 0.0522381 0.386437
426 4 0.413123 0.0548311 0.405113
480 4 0.445718 0.0385874 0.341853
458 4 0.0259554 0.144948 0.379927
318 4 0.0454938 0.138969 0.373678
316 2 0.0452451 0.114265 0.377532
317 4 0.0449965 0.0895617 0.381385
606 4 0.162716 0.0924557 0.405388
730 2 0.0897737 0.0836928 0.360119
399 4 0.0873029 0.114049 0.32917
731 4 0.0831942 0.102475 0.344982
600 4 0.221038 0.147676 0.393857
598 2 0.204649 0.166556 0.394218
683 4 0.261351 0.111503 0.368563
682 2 0.271276 0.113611 0.391416
684 4 0.2812 0.115719 0.414269
575 4 0.409068 0.131943 0.381422
516 4 0.409897 0.139026 0.363198
321 4 0.339136 0.144283 0.408148
574 2 0.416846 0.135368 0.404937
451 2 0.486214 0.149592 0.342803
514 2 0.428796 0.139002 0.346827
453 4 0.461553 0.145556 0.34194
515 4 0.447695 0.138978 0.330457
457 2 0.0211357 0.166473 0.391701
2654 4 0.00701859 0.20546 0.405816
459 4 0.016316 0.187998 0.403475
389 4 0.116062 0.197907 0.343893
687 4 0.177016 0.195046 0.408701
599 4 0.18826 0.185436 0.394579
473 4 0.231691 0.2325 0.396058
472 2 0.252957 0.22036 0.401111
374 4 0.230967 0.252584 0.393624
378 4 0.284987 0.227494 0.330319
376 2 0.300865 0.216186 0.345978
377 4 0.316743 0.204877 0.361636
474 4 0.274224 0.208219 0.406165
708 4 0.366486 0.156671 0.374599
707 4 0.333322 0.19294 0.365358
706 2 0.349904 0.174805 0.369978
467 4 0.381288 0.204299 0.416802
305 4 0.476234 0.185478 0.425078
275 4 0.170755 0.333231 0.408997
616 2 0.12674 0.323651 0.411752
617 4 0.150635 0.329358 0.416406
618 4 0.102845 0.317945 0.407098
274 2 0.179703 0.312653 0.397965
276 4 0.18865 0.292076 0.386934
373 2 0.210985 0.26437 0.384297
375 4 0.191003 0.276155 0.37497
406 2 0.0229076 0.37763 0.372765
407 4 0.0445701 0.381647 0.360942
548 4 0.0482858 0.401768 0.354946
408 4 0.00124503 0.373613 0.384587
347 4 0.0926556 0.327064 0.422225
678 4 0.206353 0.351226 0.323004
504 4 0.257401 0.386831 0.376011
503 4 0.287489 0.404589 0.411789
334 2 0.326889 0.404451 0.401839
502 2 0.272445 0.39571 0.3939
336 4 0.303777 0.413625 0.404463
335 4 0.35 0.395277 0.399214
240 4 0.368102 0.388139 0.40259
561 4 0.478939 0.332394 0.380089
753 4 0.47124 0.365198 0.327573
752 4 0.468096 0.330187 0.363141
751 2 0.469668 0.347692 0.345357
547 2 0.0486088 0.41925 0.337072
413 4 0.157621 0.474299 0.351772
500 4 0.161857 0.491014 0.360973
1545 4 0.222199 0.492036 0.340579
1543 2 0.199203 0.485307 0.347726
1544 4 0.176206 0.478578 0.354872
667 2 0.294769 0.448023 0.416345
669 4 0.289482 0.423919 0.412317
594 4 0.395911 0.483339 0.334628
592 2 0.419418 0.475076 0.332541
1524 4 0.0382753 0.00993158 0.465604
720 4 0.0215637 0.0685481 0.454917
2237 4 0.011782 0.0514986 0.4538
2236 2 0.0155923 0.0311752 0.439742
1127 4 0.0180832 0.0582778 0.470661
2238 4 0.0194026 0.0108519 0.425685
1522 2 0.0511179 0.0100539 0.487057
2428 2 0.227115 0.00882494 0.49467
2430 4 0.20614 0.0199574 0.486839
726 4 0.297222 0.0558779 0.448594
724 2 0.302986 0.0411971 0.467996
725 4 0.30875 0.0265163 0.487398
424 2 0.407284 0.0359669 0.42045
425 4 0.401444 0.0171028 0.435787
1580 4 0.390259 0.00395674 0.425188
2878 2 0.475147 0.0628964 0.46367
2880 4 0.470561 0.0747005 0.44211
2879 4 0.479733 0.0510923 0.485229
718 2 0.0220166 0.0935457 0.455225
719 4 0.0224695 0.118543 0.455534
1033 2 0.114929 0.141585 0.483281
1035 4 0.124662 0.156754 0.465949
1182 4 0.286624 0.114192 0.481267
320 4 0.297631 0.120436 0.422617
1180 2 0.285315 0.111353 0.456459
1181 4 0.284007 0.108513 0.431652
319 2 0.318383 0.13236 0.415382
411 4 0.270275 0.160702 0.468615
3157 2 0.495649 0.158111 0.468357
642 4 0.466139 0.0934409 0.446949
640 2 0.454049 0.114725 0.44185
641 4 0.441959 0.136009 0.43675
306 4 0.439253 0.151817 0.425154
576 4 0.424625 0.138793 0.428452
3159 4 0.505343 0.136037 0.474987
304 2 0.457743 0.168647 0.425116
469 2 0.0378978 0.215275 0.494668
470 4 0.0371349 0.194901 0.480194
685 2 0.165571 0.208881 0.426102
686 4 0.154125 0.222716 0.443502
260 4 0.145357 0.207851 0.453042
261 4 0.11415 0.17259 0.46988
259 2 0.129753 0.190221 0.461461
695 4 0.137879 0.225926 0.454453
694 2 0.129256 0.248692 0.460157
488 4 0.284374 0.203113 0.42245
487 2 0.29365 0.215365 0.442174
489 4 0.302926 0.227616 0.461898
409 2 0.26478 0.183547 0.477162
410 4 0.259284 0.206393 0.48571
900 4 0.265718 0.214196 0.503216
468 4 0.357199 0.244687 0.433809
466 2 0.369244 0.224493 0.425305
3158 4 0.485955 0.180184 0.461726
585 4 0.437314 0.234899 0.479478
348 4 0.0554536 0.33993 0.453067
1260 4 0.126697 0.272429 0.48661
696 4 0.120634 0.271458 0.465861
811 2 0.261885 0.289985 0.484183
813 4 0.268757 0.2744 0.465878
266 4 0.313066 0.262747 0.460306
265 2 0.336646 0.262455 0.451994
267 4 0.360225 0.262163 0.443682
2455 2 0.489571 0.295114 0.491991
2456 4 0.474735 0.29107 0.472275
584 4 0.467693 0.274603 0.480662
583 2 0.452503 0.254751 0.48007
326 4 0.0637484 0.338055 0.471257
346 2 0.0740546 0.333497 0.437646
325 2 0.0767224 0.349257 0.489461
383 4 0.083724 0.406409 0.43981
10 3 0.132682 0.362872 0.472162
7 3 0.108488 0.361402 0.500541
6 1 0.129638 0.367833 0.494179
711 4 0.14187 0.40678 0.492886
709 2 0.165867 0.413622 0.491299
774 4 0.206373 0.411905 0.484113
239 4 0.389131 0.406853 0.443921
238 2 0.378617 0.397496 0.423256
588 4 0.383072 0.412123 0.462476
586 2 0.388712 0.418771 0.48591
681 4 0.0695642 0.418126 0.443183
680 4 0.0341018 0.451402 0.431526
1381 2 0.0514614 0.49174 0.439464
1383 4 0.0375801 0.470945 0.439627
679 2 0.051833 0.434764 0.437355
382 2 0.106246 0.415761 0.445331
570 4 0.168958 0.478982 0.468624
569 4 0.13867 0.440906 0.457065
568 2 0.153814 0.459944 0.462844
384 4 0.128768 0.425113 0.450851
539 4 0.0908118 0.474471 0.476421
538 2 0.104612 0.488604 0.49175
636 4 0.203936 0.443529 0.426967
634 2 0.201549 0.435355 0.450476
635 4 0.199163 0.42718 0.473985
710 4 0.189864 0.420463 0.489712
4 3 0.313472 0.485646 0.420539
668 4 0.300056 0.472127 0.420373
880 2 0.336422 0.497345 0.486635
881 4 0.344798 0.48272 0.505105
1523 4 0.0639604 0.0101761 0.50851
1057 2 0.126325 0.0636947 0.577542
2374 2 0.117994 0.00769161 0.567369
1152 4 0.171258 0.074114 0.517734
1059 4 0.140299 0.0823982 0.568593
1150 2 0.155572 0.0837869 0.534633
2375 4 0.107191 0.0294063 0.573448
340 2 0.200727 0.0570658 0.510371
342 4 0.191165 0.076228 0.523277
341 4 0.210289 0.0379036 0.497465
430 2 0.319289 0.0367118 0.52167
432 4 0.302445 0.0356836 0.50322
963 4 0.297421 0.0175243 0.500887
431 4 0.336133 0.0377401 0.54012
843 4 0.35078 0.04739 0.529066
1217 4 0.412006 0.0456687 0.543088
842 4 0.400059 0.0558827 0.529555
841 2 0.37542 0.0516363 0.529311
1216 2 0.41821 0.0216877 0.546493
879 4 0.0663286 0.155798 0.562716
1272 4 0.0763319 0.139705 0.566346
938 4 0.0715769 0.143425 0.548022
937 2 0.0894802 0.132949 0.534061
1151 4 0.139885 0.0934597 0.551531
1155 4 0.141541 0.101967 0.568778
939 4 0.107383 0.122473 0.5201
1153 2 0.157887 0.109767 0.586017
1034 4 0.105197 0.126416 0.500612
878 4 0.0337225 0.188219 0.543058
1199 4 0.0157766 0.181684 0.549532
877 2 0.0500255 0.172009 0.552887
471 4 0.0386606 0.235648 0.509142
857 4 0.293212 0.218244 0.562151
856 2 0.274181 0.213557 0.577676
898 2 0.280566 0.217427 0.523073
791 4 0.305986 0.230911 0.555107
899 4 0.295414 0.220657 0.542929
871 2 0.380785 0.233918 0.541863
872 4 0.377394 0.230306 0.517355
873 4 0.384176 0.23753 0.566371
3352 2 0.995377 0.277066 0.520331
3354 4 0.00645319 0.297768 0.511732
1259 4 0.111828 0.284813 0.532722
1258 2 0.119263 0.278621 0.509666
649 2 0.240157 0.299529 0.538119
651 4 0.224859 0.289893 0.555391
650 4 0.255455 0.309165 0.520848
804 4 0.24944 0.323453 0.510487
790 2 0.312115 0.254329 0.56137
812 4 0.255013 0.305569 0.502488
792 4 0.318245 0.277746 0.567633
1238 4 0.329961 0.291897 0.575163
1237 2 0.332448 0.316773 0.575609
1010 4 0.498245 0.302156 0.530776
935 4 0.0132135 0.395494 0.528867
1135 2 0.138578 0.41756 0.550677
9 3 0.145158 0.356395 0.507091
897 4 0.152523 0.381118 0.570247
1137 4 0.140715 0.394846 0.560909
8 3 0.131854 0.390687 0.497525
327 4 0.0896965 0.360459 0.507665
1189 2 0.227131 0.384284 0.554754
773 4 0.24007 0.391248 0.514748
1190 4 0.239667 0.383942 0.533123
772 2 0.223221 0.401577 0.499431
1191 4 0.214596 0.384626 0.576386
803 4 0.24602 0.372808 0.517771
895 2 0.175763 0.388112 0.576261
802 2 0.24773 0.34813 0.514129
930 4 0.256846 0.387609 0.524147
928 2 0.277586 0.400834 0.528633
929 4 0.298326 0.414058 0.533118
1239 4 0.334936 0.341648 0.576055
927 4 0.387341 0.380998 0.558464
925 2 0.394604 0.397351 0.541
926 4 0.401867 0.413704 0.523535
1136 4 0.136441 0.440274 0.540446
1161 4 0.159209 0.485048 0.570311
2243 4 0.140825 0.493669 0.565069
1159 2 0.177692 0.472846 0.581917
889 2 0.308237 0.467075 0.557029
890 4 0.311612 0.475363 0.580376
891 4 0.304862 0.458787 0.533681
1953 4 0.377634 0.47807 0.546915
1951 2 0.359712 0.471928 0.530598
1000 2 0.408449 0.498165 0.536024
1952 4 0.34179 0.465785 0.514281
663 4 0.41331 0.424075 0.511759
587 4 0.394352 0.42542 0.509344
1001 4 0.427238 0.481783 0.537974
662 4 0.433465 0.463408 0.535155
661 2 0.423387 0.443742 0.523457
1911 4 0.431487 0.470764 0.553582
1909 2 0.435769 0.458125 0.574726
1332 4 0.445734 0.477069 0.541746
1330 2 0.464199 0.493794 0.539625
945 4 0.0598138 0.00992686 0.644157
2319 4 0.0514103 0.00852218 0.624926
943 2 0.0809401 0.0053249 0.656714
1058 4 0.112351 0.0449911 0.586491
1284 4 0.164047 0.0876949 0.639787
944 4 0.102066 0.000722943 0.669272
950 4 0.294198 0.0179653 0.631894
949 2 0.288765 0.0379296 0.617855
951 4 0.283331 0.0578939 0.603817
1031 4 0.282493 0.0738164 0.615848
3179 4 0.0278679 0.160388 0.66191
1083 4 0.014165 0.1467 0.669697
3178 2 0.0162223 0.164961 0.640261
1270 2 0.0829338 0.142941 0.590244
1271 4 0.0895357 0.146178 0.614142
1282 2 0.149557 0.0931862 0.65941
1154 4 0.174233 0.117566 0.603255
1221 4 0.18 0.136427 0.598794
1219 2 0.193766 0.151126 0.613613
1032 4 0.247399 0.106548 0.629913
1030 2 0.264946 0.0901823 0.622881
888 4 0.281829 0.175319 0.662882
45 3 0.425076 0.0756199 0.65283
808 2 0.488152 0.0912244 0.643536
810 4 0.475951 0.0864184 0.664825
809 4 0.500354 0.0960304 0.622247
1243 2 0.0649024 0.20824 0.637915
1244 4 0.0637189 0.210073 0.613006
1245 4 0.0660859 0.206407 0.662823
3180 4 0.00457675 0.169534 0.618613
1212 4 0.225725 0.173497 0.629636
1220 4 0.207532 0.165825 0.628433
796 2 0.20756 0.204583 0.610005
798 4 0.211004 0.182579 0.621369
797 4 0.204116 0.226587 0.598642
1210 2 0.24455 0.170804 0.64587
858 4 0.25515 0.20887 0.593202
1211 4 0.263376 0.168111 0.662104
3121 2 0.489615 0.231378 0.659627
905 4 0.458647 0.245616 0.631425
3123 4 0.473104 0.237753 0.641965
904 2 0.446804 0.252806 0.610611
983 4 0.0419245 0.306427 0.598299
982 2 0.0427581 0.317309 0.620795
3263 4 0.0494526 0.328199 0.662343
984 4 0.0435918 0.32819 0.643291
947 4 0.236136 0.28698 0.641145
946 2 0.242045 0.281658 0.66485
805 2 0.328655 0.316079 0.65603
906 4 0.434962 0.259995 0.589796
952 2 0.483051 0.325872 0.604733
953 4 0.467181 0.316321 0.621529
1041 4 0.0449073 0.344889 0.652982
1039 2 0.0574689 0.365845 0.64767
1040 4 0.0700304 0.386801 0.642358
993 4 0.0579151 0.398786 0.63432
896 4 0.199003 0.395107 0.582275
1172 4 0.217385 0.401706 0.585398
1029 4 0.234858 0.417629 0.667196
807 4 0.330511 0.323021 0.632082
1206 4 0.464177 0.411148 0.653826
992 4 0.0567173 0.447174 0.621754
991 2 0.0573162 0.42298 0.628037
1175 4 0.200198 0.499383 0.665786
1160 4 0.196175 0.460644 0.593522
1173 4 0.211485 0.449896 0.597384
1171 2 0.214435 0.425801 0.591391
1188 4 0.198156 0.480356 0.657191
1187 4 0.205715 0.461636 0.61144
1186 2 0.201936 0.470996 0.634315
1204 2 0.45816 0.435374 0.65526
1910 4 0.44005 0.445486 0.595871
1269 4 0.455098 0.467012 0.63772
1267 2 0.442724 0.488452 0.641241
1205 4 0.452144 0.459601 0.656694
1077 4 0.0463091 0.0847309 0.751473
2255 4 0.22584 0.0326725 0.731934
2254 2 0.207339 0.0262141 0.747465
1004 4 0.322554 0.00975417 0.735707
1003 2 0.335783 0.0302587 0.741162
1163 4 0.472928 0.0741893 0.678863
1162 2 0.490458 0.0601539 0.689858
42 3 0.433805 0.0574277 0.684227
44 3 0.457671 0.0828661 0.670229
1081 2 0.0253394 0.126902 0.680106
1082 4 0.0365138 0.107103 0.690514
1076 4 0.0290799 0.0972151 0.706218
1075 2 0.0376945 0.090973 0.728845
850 2 0.0624238 0.148401 0.728601
852 4 0.0401365 0.139906 0.736104
1214 4 0.028573 0.155956 0.742658
909 4 0.0939214 0.145294 0.709368
907 2 0.109841 0.128502 0.699894
908 4 0.125761 0.11171 0.69042
1283 4 0.135067 0.0986776 0.679033
1227 4 0.143302 0.104397 0.695481
851 4 0.084711 0.156896 0.721099
1225 2 0.153852 0.0965896 0.716763
1107 4 0.104692 0.158232 0.718305
1226 4 0.164402 0.0887818 0.738045
830 4 0.321194 0.145956 0.709214
978 4 0.309968 0.158898 0.718517
887 4 0.304776 0.152061 0.700739
886 2 0.293302 0.16369 0.68181
831 4 0.366996 0.125952 0.710844
1141 2 0.395367 0.155382 0.714768
829 2 0.344095 0.135954 0.710029
1142 4 0.377107 0.13935 0.720663
41 1 0.435278 0.0775087 0.673103
43 3 0.424777 0.0938807 0.685756
1025 4 0.473708 0.149938 0.70249
3424 2 0.475839 0.113295 0.695269
3426 4 0.469811 0.0931578 0.681729
1024 2 0.452045 0.162376 0.701401
3425 4 0.481867 0.133433 0.708809
3269 4 0.491056 0.149975 0.710657
1209 4 0.0760382 0.21482 0.677364
1215 4 0.00251396 0.198636 0.742991
1213 2 0.0155435 0.177296 0.742824
1207 2 0.0920979 0.230413 0.688505
1105 2 0.117717 0.166534 0.737967
1208 4 0.108158 0.246006 0.699646
976 2 0.306866 0.177577 0.734846
916 2 0.287442 0.228443 0.754998
918 4 0.308509 0.215322 0.751965
1194 4 0.393397 0.225321 0.721108
1193 4 0.348572 0.226391 0.698964
1192 2 0.370984 0.225856 0.710036
1143 4 0.413626 0.171414 0.708873
1026 4 0.430382 0.174814 0.700311
1261 2 0.429924 0.198634 0.73569
1262 4 0.423874 0.18741 0.714182
1179 4 0.996967 0.261097 0.769574
3262 2 0.0421806 0.32205 0.685462
3264 4 0.0349087 0.315901 0.708581
779 4 0.0462358 0.314422 0.7249
893 4 0.0308781 0.326671 0.724684
778 2 0.0647134 0.306784 0.739914
780 4 0.083191 0.299147 0.754929
821 4 0.126329 0.278641 0.744274
1064 4 0.228879 0.281269 0.695501
1065 4 0.22447 0.274058 0.744788
1063 2 0.226674 0.277663 0.720144
948 4 0.247955 0.276336 0.688556
806 4 0.326798 0.309136 0.679979
1008 4 0.420111 0.328376 0.726661
1006 2 0.428361 0.313697 0.745145
892 2 0.0251308 0.350808 0.727776
894 4 0.0193835 0.374944 0.730867
3276 4 0.00932136 0.385154 0.744278
814 2 0.0505897 0.394685 0.747825
816 4 0.0273273 0.390808 0.739518
1066 2 0.162738 0.407777 0.705863
1068 4 0.179217 0.394858 0.692199
1027 2 0.211034 0.414479 0.674099
1028 4 0.187209 0.411329 0.681003
1019 4 0.401167 0.40897 0.737106
1280 4 0.0618813 0.491514 0.690727
1067 4 0.146259 0.420697 0.719527
940 2 0.109026 0.414455 0.738055
941 4 0.131365 0.424468 0.732966
1174 2 0.182463 0.493778 0.682497
1176 4 0.164729 0.488173 0.699208
1140 4 0.307036 0.474717 0.689605
1138 2 0.308155 0.455585 0.705663
1139 4 0.309275 0.436452 0.721721
1230 4 0.399292 0.481901 0.727134
1228 2 0.38196 0.468106 0.738731
1100 4 0.411201 0.468979 0.717435
1101 4 0.457905 0.45318 0.725791
1099 2 0.434553 0.46108 0.721613
1251 4 0.468916 0.45226 0.741735
3330 4 0.473135 0.440601 0.726346
3328 2 0.491468 0.437665 0.709599
1201 2 0.156203 0.0558132 0.762627
2047 2 0.160549 0.997387 0.769144
1202 4 0.155993 0.0329094 0.772655
1203 4 0.156414 0.0787169 0.7526
2049 4 0.169043 0.0204982 0.764795
2256 4 0.188838 0.0197556 0.762995
1005 4 0.349011 0.0507633 0.746617
2321 4 0.465433 0.011089 0.774661
2322 4 0.467435 0.0520476 0.803281
2320 2 0.466434 0.0315683 0.788971
846 4 0.468934 0.07093 0.795222
980 4 0.461595 0.0155884 0.820485
864 4 0.044249 0.0846166 0.771178
862 2 0.0392943 0.106472 0.782268
863 4 0.0343395 0.128327 0.793357
832 2 0.00633348 0.121073 0.822475
833 4 0.0227563 0.1328 0.807712
1125 4 0.0383321 0.144045 0.804848
1123 2 0.0340472 0.16852 0.802052
31 1 0.124218 0.155024 0.819577
35 3 0.1384 0.145823 0.804318
33 3 0.102351 0.153559 0.811953
1147 2 0.19774 0.0943526 0.7548
1149 4 0.222173 0.0996397 0.754335
1148 4 0.173306 0.0890654 0.755265
1257 4 0.242319 0.0961093 0.755117
921 4 0.194542 0.156952 0.828155
1255 2 0.263453 0.0999238 0.767923
1256 4 0.284586 0.103738 0.78073
840 4 0.283459 0.122282 0.790966
838 2 0.297737 0.133668 0.808044
844 2 0.47715 0.093191 0.803104
845 4 0.485366 0.115452 0.810986
1124 4 0.0297622 0.192994 0.799256
1072 2 0.0570546 0.234357 0.767193
1073 4 0.0332891 0.226693 0.768473
1106 4 0.130742 0.174835 0.75763
1130 4 0.145299 0.188139 0.751946
1129 2 0.150658 0.208628 0.765237
1131 4 0.156018 0.229118 0.778528
1277 4 0.162791 0.245432 0.788568
1074 4 0.08082 0.242022 0.765912
920 4 0.186518 0.205254 0.838312
1276 2 0.173825 0.233954 0.807847
1278 4 0.184859 0.222475 0.827126
919 2 0.19053 0.181103 0.833234
977 4 0.303764 0.196256 0.751175
1298 4 0.320223 0.202206 0.760303