ITEM: TIMESTEP
2070000
ITEM: NUMBER OF ATOMS
4590
ITEM: BOX BOUNDS pp pp pp
-9.9985700000000008e+00 9.9985700000000008e+00
-9.9985700000000008e+00 9.9985700000000008e+00
-9.9985700000000008e+00 9.9985700000000008e+00
ITEM: ATOMS id type xs ys zs
701 4 0.0808928 0.04834 0.0145348
465 4 0.0705464 0.0659107 0.0116235
463 2 0.0648304 0.0802915 0.0312627
700 2 0.104425 0.0441775 0.0218889
702 4 0.127957 0.040015 0.0292429
566 4 0.137892 0.0564813 0.0320005
565 2 0.158932 0.0699783 0.0325739
2264 4 0.253394 0.00438486 0.0339153
2263 2 0.269336 0.0109965 0.0158235
746 4 0.47606 0.0498707 0.0200478
2469 4 0.492037 0.0460531 0.032955
2467 2 0.497797 0.0237811 0.0427511
2468 4 0.503557 0.00150916 0.0525472
464 4 0.0591144 0.0946723 0.0509019
590 4 0.039015 0.0964265 0.0531856
589 2 0.016828 0.0972936 0.0646817
591 4 0.994641 0.0981607 0.0761779
567 4 0.179972 0.0834753 0.0331474
558 4 0.330482 0.126419 0.0593516
556 2 0.338311 0.117084 0.0811857
865 2 0.349296 0.167236 0.00118791
771 4 0.502403 0.128915 0.0553764
769 2 0.498544 0.147617 0.071517
554 4 0.0466697 0.209534 0.0496755
553 2 0.0624129 0.217142 0.0318022
555 4 0.0781561 0.22475 0.013929
835 2 0.114123 0.221197 0.0224073
836 4 0.0929601 0.234433 0.0209578
738 4 0.139632 0.176501 0.0650396
837 4 0.135287 0.207961 0.0238567
664 2 0.345745 0.220577 0.0452984
665 4 0.344488 0.200877 0.0299512
666 4 0.347003 0.240276 0.0606457
461 4 0.34236 0.252406 0.0751115
867 4 0.342646 0.183575 0.0189073
1070 4 0.454453 0.198977 0.0487315
1069 2 0.445753 0.222344 0.0505924
1014 4 0.494812 0.186379 0.0871588
770 4 0.494684 0.166319 0.0876576
2806 2 0.00600899 0.302962 0.0339034
2808 4 0.0258256 0.316269 0.0264607
294 4 0.0998392 0.32217 0.0530008
292 2 0.124589 0.318767 0.0519864
507 4 0.166985 0.305295 0.048708
293 4 0.149339 0.315363 0.0509719
505 2 0.179645 0.326356 0.0440918
506 4 0.192305 0.347418 0.0394756
356 4 0.308381 0.303943 0.0338093
572 4 0.307995 0.284573 0.0307795
571 2 0.324613 0.271622 0.0442437
573 4 0.341232 0.258672 0.057708
355 2 0.298202 0.325 0.0249683
1071 4 0.437053 0.245712 0.0524533
324 4 0.423889 0.260946 0.0523288
322 2 0.42657 0.285674 0.0548878
323 4 0.42925 0.310401 0.0574468
647 4 0.0236057 0.364702 0.0548488
646 2 0.0435025 0.365163 0.0699844
648 4 0.0633992 0.365624 0.0851199
483 4 0.20593 0.35745 0.0286424
481 2 0.228887 0.36635 0.0242873
609 4 0.256384 0.396003 0.0218556
482 4 0.251843 0.37525 0.0199322
625 2 0.212045 0.409657 0.0785686
626 4 0.193818 0.394876 0.0871988
607 2 0.268921 0.416811 0.0159354
357 4 0.288022 0.346057 0.0161273
902 4 0.2838 0.359778 0.00204279
957 4 0.384478 0.393425 0.00780096
955 2 0.382483 0.373219 0.993209
672 4 0.437417 0.327503 0.0662741
670 2 0.451359 0.347131 0.073023
281 4 0.46628 0.385402 0.0727306
671 4 0.4653 0.366759 0.079772
2651 4 0.479287 0.378929 0.0850731
280 2 0.471941 0.409113 0.0671667
552 4 0.0906674 0.478199 0.0830874
1787 4 0.106134 0.478604 0.0718647
1786 2 0.107862 0.491859 0.0507345
246 4 0.229419 0.478621 0.030632
244 2 0.226165 0.460524 0.0475752
245 4 0.222911 0.442426 0.0645184
627 4 0.230272 0.424437 0.0699384
272 4 0.244511 0.474572 0.0189123
608 4 0.281457 0.437619 0.0100152
252 4 0.300894 0.433567 0.0110629
250 2 0.314842 0.453849 0.0154527
1778 4 0.244733 0.491006 0.0282225
251 4 0.32879 0.474131 0.0198425
525 4 0.39947 0.500101 0.0580129
2289 4 0.343759 0.482712 0.00797472
282 4 0.477601 0.432823 0.0616029
226 2 0.487273 0.47367 0.0495941
228 4 0.494836 0.497368 0.0470711
227 4 0.47971 0.449972 0.0521172
16 1 0.0674482 0.0461793 0.135635
20 3 0.0605184 0.043819 0.114069
1806 4 0.0639727 0.00695372 0.147742
18 3 0.0706812 0.0253066 0.145241
19 3 0.0516737 0.0581213 0.147757
380 4 0.0524771 0.0778415 0.149769
17 3 0.0873625 0.0576882 0.135977
673 2 0.11976 0.0479594 0.155929
675 4 0.1033 0.0449123 0.137356
448 2 0.164252 0.0804865 0.165291
484 2 0.362834 0.0167426 0.125109
295 2 0.354584 0.0655567 0.101055
297 4 0.356738 0.0409292 0.1048
485 4 0.351591 0.0390482 0.123996
379 2 0.0400724 0.0916756 0.1665
579 4 0.092751 0.101052 0.107007
237 4 0.141195 0.138802 0.11526
578 4 0.12586 0.13836 0.103456
577 2 0.109305 0.119706 0.105232
476 4 0.123453 0.144489 0.121788
737 4 0.133944 0.155791 0.1102
235 2 0.158873 0.126343 0.127808
475 2 0.11654 0.161287 0.13897
692 4 0.240075 0.10485 0.138837
236 4 0.176552 0.113885 0.140355
693 4 0.190265 0.100434 0.139322
449 4 0.1761 0.0989019 0.153221
691 2 0.21517 0.102642 0.139079
582 4 0.253751 0.0971741 0.148842
557 4 0.34614 0.107748 0.10302
296 4 0.352431 0.0901843 0.0973101
736 2 0.136788 0.166146 0.0876199
477 4 0.109627 0.178085 0.156152
283 2 0.326549 0.204592 0.13051
354 4 0.327674 0.242595 0.137982
285 4 0.316325 0.181855 0.128595
284 4 0.336773 0.22733 0.132425
462 4 0.342002 0.244147 0.124431
460 2 0.342181 0.248276 0.0997711
255 4 0.345306 0.23796 0.142799
311 4 0.441835 0.167909 0.124446
310 2 0.442582 0.181035 0.145714
312 4 0.443328 0.194161 0.166982
455 4 0.0986895 0.319436 0.102129
352 2 0.308434 0.257809 0.142833
353 4 0.289194 0.273023 0.147684
754 2 0.282212 0.306213 0.140388
755 4 0.289684 0.290013 0.157907
278 4 0.276164 0.276876 0.161768
756 4 0.274739 0.322413 0.12287
612 4 0.279164 0.330206 0.104639
254 4 0.388753 0.257194 0.158391
253 2 0.367029 0.247577 0.150595
765 4 0.402466 0.262528 0.170759
456 4 0.0831839 0.36369 0.0847546
454 2 0.0909367 0.341563 0.0934418
611 4 0.231415 0.345 0.106023
537 4 0.213698 0.33521 0.103643
535 2 0.203441 0.357985 0.102524
536 4 0.193184 0.380761 0.101406
610 2 0.25529 0.337603 0.105331
741 4 0.390716 0.354865 0.103133
739 2 0.389901 0.367406 0.124749
740 4 0.389085 0.379946 0.146365
15 3 0.377918 0.375744 0.16197
385 2 0.359564 0.407716 0.149324
386 4 0.379162 0.393567 0.155721
495 4 0.398834 0.396019 0.15323
551 4 0.0603231 0.43874 0.0878784
1465 2 0.0163886 0.467317 0.0932991
1466 4 0.031514 0.485377 0.101679
1791 4 0.0326153 0.487717 0.121444
550 2 0.0754953 0.458469 0.0854829
242 4 0.108015 0.476757 0.0916532
241 2 0.123342 0.492021 0.104194
637 2 0.222092 0.489168 0.164673
767 4 0.239513 0.465875 0.136892
1439 4 0.189853 0.499999 0.162208
638 4 0.24105 0.477857 0.152933
303 4 0.303801 0.463768 0.123571
766 2 0.26368 0.460872 0.13288
768 4 0.287847 0.455868 0.128868
301 2 0.317869 0.450269 0.139224
493 2 0.414027 0.414607 0.146242
387 4 0.339967 0.421866 0.142927
302 4 0.331937 0.436769 0.154878
494 4 0.42922 0.433195 0.139253
660 4 0.437305 0.449901 0.146526
658 2 0.443958 0.469497 0.160559
450 4 0.152405 0.0620711 0.177361
674 4 0.136219 0.0510065 0.174503
1505 4 0.151718 0.0434052 0.184286
1504 2 0.161095 0.0273518 0.201006
689 4 0.183299 0.997324 0.211387
1506 4 0.170472 0.0112983 0.217725
652 2 0.297042 0.0353013 0.178484
654 4 0.297378 0.0153722 0.163387
653 4 0.296706 0.0552304 0.19358
22 3 0.399014 0.0223559 0.196265
21 1 0.404981 0.0179156 0.218032
23 3 0.38964 0.0280005 0.232222
757 2 0.440552 0.0590172 0.211598
25 3 0.425819 0.0262318 0.221944
759 4 0.442843 0.0366671 0.222571
350 4 0.440964 0.0210397 0.233042
349 2 0.462196 0.0140674 0.244256
512 4 0.0339083 0.125539 0.182021
381 4 0.0276678 0.10551 0.183231
511 2 0.0518396 0.139255 0.192769
513 4 0.0697709 0.152971 0.203516
580 2 0.270847 0.105735 0.164955
581 4 0.287943 0.114296 0.181067
30 3 0.277735 0.130619 0.185558
26 1 0.293916 0.144282 0.193935
27 3 0.285448 0.155946 0.211863
28 3 0.300711 0.159391 0.17769
29 3 0.312024 0.131654 0.201079
758 4 0.438261 0.0813673 0.200625
521 4 0.468475 0.130785 0.221093
520 2 0.487749 0.146608 0.219272
337 2 0.0836078 0.182108 0.179007
339 4 0.0671064 0.170895 0.194078
338 4 0.100109 0.193321 0.163935
363 4 0.119497 0.194142 0.162161
362 4 0.138776 0.232735 0.187451
361 2 0.129136 0.213438 0.174806
372 4 0.150569 0.221024 0.200597
370 2 0.151728 0.24006 0.216767
723 4 0.232979 0.200149 0.234562
628 2 0.412112 0.221194 0.165538
630 4 0.400257 0.243209 0.165473
629 4 0.423966 0.19918 0.165603
750 4 0.0722763 0.295884 0.222076
395 4 0.0547806 0.295745 0.230895
748 2 0.075948 0.30265 0.198287
394 2 0.0338854 0.290713 0.243672
749 4 0.0796197 0.309415 0.174498
300 4 0.143737 0.307028 0.196409
298 2 0.134882 0.318312 0.216889
299 4 0.126027 0.329596 0.237369
371 4 0.152887 0.259096 0.232937
279 4 0.233788 0.270251 0.187478
401 4 0.227228 0.279237 0.247663
277 2 0.254976 0.273564 0.174623
307 2 0.304181 0.284416 0.203258
309 4 0.314716 0.268811 0.186805
308 4 0.293646 0.300021 0.21971
497 4 0.293466 0.29759 0.239792
496 2 0.289707 0.31672 0.255447
763 2 0.420022 0.274032 0.184346
764 4 0.437579 0.285535 0.197934
623 4 0.442086 0.304916 0.19744
622 2 0.467052 0.306073 0.198165
624 4 0.492018 0.307229 0.198891
262 2 0.0483789 0.390838 0.21898
263 4 0.0620646 0.370687 0.21334
602 4 0.0681814 0.352042 0.217109
601 2 0.0902394 0.347587 0.228008
603 4 0.112297 0.343133 0.238906
290 4 0.169608 0.371451 0.19951
289 2 0.172011 0.396258 0.197506
291 4 0.174414 0.421065 0.195502
14 3 0.410212 0.393027 0.17069
11 1 0.393743 0.378468 0.17812
12 3 0.403375 0.35811 0.1828
13 3 0.383971 0.386767 0.19746
2860 2 0.459765 0.404137 0.243327
2861 4 0.441725 0.416564 0.231273
264 4 0.0346933 0.410989 0.22462
2618 4 0.0299004 0.418698 0.241335
2617 2 0.00515661 0.4215 0.243586
639 4 0.203134 0.50048 0.176412
416 4 0.189983 0.433902 0.19797
415 2 0.182513 0.456906 0.20431
1430 4 0.184723 0.494695 0.217322
417 4 0.175042 0.479909 0.210651
713 4 0.357704 0.494151 0.228514
659 4 0.45061 0.489092 0.174592
595 2 0.485534 0.483182 0.195414
596 4 0.463598 0.493171 0.188762
231 4 0.449339 0.505596 0.184358
232 2 0.0110004 0.0447859 0.292089
1799 4 0.0256896 0.0091419 0.301095
233 4 0.0242413 0.0239396 0.288179
1402 2 0.0636111 0.0177278 0.27981
1403 4 0.0419153 0.0158205 0.292091
1798 2 0.0190677 0.000411546 0.323569
1404 4 0.085307 0.0196351 0.267529
1479 4 0.140286 0.988658 0.304191
633 4 0.382486 0.0498412 0.305329
631 2 0.373939 0.0653226 0.287653
632 4 0.365391 0.080804 0.269977
257 4 0.381038 0.061194 0.321606
698 4 0.371587 0.0440923 0.320747
744 4 0.488342 0.0136489 0.272839
742 2 0.496107 0.0208697 0.295482
351 4 0.483429 0.00709509 0.255471
478 2 0.481971 0.0615557 0.334548
399 4 0.0632982 0.105244 0.328458
397 2 0.0745127 0.124697 0.317458
317 4 0.0484058 0.11147 0.339281
545 4 0.14402 0.145115 0.24807
398 4 0.0857273 0.14415 0.306459
393 4 0.0862981 0.139938 0.287287
392 4 0.130537 0.144136 0.264351
390 4 0.0754979 0.154098 0.293406
391 2 0.108417 0.142037 0.275819
544 2 0.163234 0.160041 0.253831
249 4 0.217177 0.155785 0.328713
404 4 0.202735 0.165086 0.319761
444 4 0.0176816 0.233343 0.297093
388 2 0.0699618 0.176529 0.302967
389 4 0.0644257 0.198959 0.312527
721 2 0.212324 0.195459 0.247849
403 2 0.193139 0.173949 0.29844
405 4 0.183544 0.182811 0.277119
546 4 0.182449 0.174968 0.259592
722 4 0.191668 0.190768 0.261135
378 4 0.290061 0.238339 0.321933
420 4 0.40643 0.217541 0.263218
717 4 0.38895 0.226674 0.266528
331 2 0.460645 0.191326 0.305298
332 4 0.455739 0.203269 0.283886
418 2 0.431159 0.214028 0.264357
419 4 0.455889 0.210516 0.265495
760 2 0.487158 0.203747 0.256494
762 4 0.467806 0.195732 0.270147
442 2 0.0127852 0.254362 0.284468
396 4 0.0129901 0.285681 0.256449
443 4 0.00788873 0.275382 0.271843
365 4 0.009832 0.294591 0.274478
677 4 0.128552 0.32954 0.315849
676 2 0.152709 0.32893 0.322273
733 2 0.11588 0.327726 0.279174
735 4 0.113892 0.323236 0.303691
510 4 0.228505 0.292126 0.315869
508 2 0.212321 0.310378 0.321356
400 2 0.229431 0.282834 0.272308
402 4 0.231633 0.286431 0.296954
509 4 0.196136 0.32863 0.326842
345 4 0.245584 0.285458 0.310148
343 2 0.265433 0.270407 0.312308
344 4 0.285282 0.255357 0.314468
715 2 0.390262 0.248948 0.27781
716 4 0.391575 0.271223 0.289093
542 4 0.380367 0.285344 0.295163
541 2 0.374032 0.305953 0.307823
547 2 0.0279455 0.375579 0.308033
548 4 0.00919033 0.359884 0.313239
549 4 0.0467006 0.391273 0.302828
777 4 0.0567181 0.403807 0.292769
407 4 0.00197753 0.355156 0.330582
734 4 0.117867 0.332217 0.254658
678 4 0.176866 0.328321 0.328696
498 4 0.285947 0.335851 0.271102
543 4 0.367697 0.326563 0.320483
728 4 0.369533 0.383493 0.268863
615 4 0.373537 0.344733 0.319804
727 2 0.369743 0.401653 0.286047
613 2 0.394186 0.353449 0.330886
2862 4 0.477805 0.39171 0.255382
2537 4 0.494828 0.389918 0.264492
2538 4 0.483367 0.372225 0.309839
2536 2 0.489097 0.381072 0.287165
753 4 0.479791 0.351802 0.308707
751 2 0.490431 0.343226 0.329646
775 2 0.0699148 0.420239 0.306222
776 4 0.0831114 0.436672 0.319676
414 4 0.0958452 0.451451 0.321909
412 2 0.109444 0.471973 0.326279
413 4 0.123042 0.492495 0.330649
438 4 0.351118 0.48018 0.311648
436 2 0.359158 0.456671 0.314443
729 4 0.369953 0.419814 0.303232
437 4 0.367199 0.433161 0.317237
1773 4 0.0118502 0.985731 0.363958
1771 2 0.0204112 0.00451547 0.378067
1772 4 0.0289722 0.0232995 0.392175
732 4 0.0722352 0.0632772 0.367163
2238 4 0.0264381 0.0434781 0.397261
730 2 0.0608701 0.0778186 0.350294
367 2 0.0851344 0.0464052 0.391346
368 4 0.0842829 0.0237248 0.401837
369 4 0.0859858 0.0690855 0.380855
1701 4 0.156247 0.0805659 0.375878
697 2 0.363898 0.0208211 0.325698
256 2 0.387792 0.0678507 0.344742
258 4 0.394545 0.0745075 0.367877
426 4 0.384347 0.0594375 0.376226
424 2 0.379499 0.0540763 0.400162
480 4 0.473195 0.0835567 0.342556
1428 4 0.459092 0.995954 0.402926
318 4 0.0175893 0.141214 0.365095
458 4 0.00442721 0.153787 0.374947
731 4 0.0495049 0.0923599 0.333425
316 2 0.0329976 0.126342 0.352188
604 2 0.131074 0.10607 0.39879
605 4 0.144085 0.0959747 0.379976
606 4 0.118063 0.116166 0.417604
247 2 0.21039 0.132655 0.335354
248 4 0.203604 0.109525 0.341995
1699 2 0.172294 0.0966493 0.365438
1700 4 0.188341 0.112733 0.354998
600 4 0.238016 0.155411 0.395842
683 4 0.253477 0.146064 0.404311
682 2 0.27301 0.131399 0.409654
319 2 0.327071 0.124762 0.402857
708 4 0.345169 0.15608 0.378416
321 4 0.343367 0.137397 0.388717
2642 4 0.500681 0.0958319 0.368962
516 4 0.454331 0.135046 0.354132
575 4 0.44757 0.134218 0.373072
574 2 0.453847 0.125777 0.395755
514 2 0.455093 0.159351 0.348315
576 4 0.460124 0.117337 0.418439
598 2 0.232534 0.176657 0.407831
376 2 0.297279 0.217322 0.333394
377 4 0.304498 0.196305 0.344856
707 4 0.311651 0.189422 0.36212
474 4 0.267638 0.233079 0.405656
706 2 0.32841 0.172751 0.370268
488 4 0.280585 0.229389 0.419695
466 2 0.348865 0.210773 0.417444
468 4 0.346267 0.234666 0.410549
333 4 0.465551 0.179382 0.32671
515 4 0.455854 0.183657 0.342498
453 4 0.47442 0.189949 0.3405
451 2 0.487993 0.20386 0.35623
347 4 0.0695794 0.315258 0.394717
408 4 0.0110684 0.314765 0.358629
618 4 0.0811731 0.302089 0.386172
275 4 0.131 0.31618 0.370394
617 4 0.116263 0.327045 0.360743
616 2 0.0987182 0.314567 0.373457
274 2 0.15553 0.314697 0.375001
473 4 0.234047 0.267823 0.392801
374 4 0.222386 0.268101 0.376482
276 4 0.180061 0.313215 0.379609
373 2 0.208898 0.287992 0.383381
375 4 0.19541 0.307884 0.39028
472 2 0.250843 0.250451 0.399229
267 4 0.331161 0.244796 0.420124
561 4 0.502684 0.319753 0.364809
752 4 0.501071 0.33465 0.350584
346 2 0.0593674 0.335647 0.404973
406 2 0.00652296 0.334961 0.344606
435 4 0.186162 0.345738 0.329365
433 2 0.187684 0.369288 0.337627
434 4 0.189206 0.392838 0.345889
502 2 0.289914 0.386732 0.393628
503 4 0.305364 0.406384 0.393106
336 4 0.324064 0.401712 0.390429
504 4 0.274464 0.36708 0.39415
334 2 0.348751 0.398541 0.392804
335 4 0.373439 0.395371 0.395179
240 4 0.389408 0.403097 0.404276
614 4 0.414835 0.362165 0.341969
669 4 0.320406 0.420064 0.394471
667 2 0.312039 0.442096 0.402823
3990 4 0.479753 0.495096 0.346063
1127 4 0.0025383 0.0674839 0.450384
2237 4 0.0169722 0.0704478 0.438294
2236 2 0.0217052 0.056963 0.417777
720 4 0.0216232 0.0696 0.457124
718 2 0.0433541 0.0688251 0.469467
1782 4 0.0907853 0.021393 0.421212
724 2 0.293739 0.0392359 0.471774
726 4 0.300517 0.0596985 0.459104
725 4 0.286962 0.0187733 0.484444
1182 4 0.317633 0.0696328 0.458965
1579 2 0.357898 0.0160512 0.441292
1580 4 0.377657 0.0286379 0.432556
425 4 0.374651 0.0487151 0.424098
642 4 0.444663 0.0736642 0.462742
2878 2 0.463051 0.0502576 0.497837
2880 4 0.453519 0.0623994 0.478168
719 4 0.0650849 0.0680502 0.48181
1033 2 0.126949 0.135591 0.477339
1035 4 0.147025 0.135892 0.462438
261 4 0.15724 0.152459 0.454967
320 4 0.310774 0.112126 0.416997
684 4 0.292543 0.116733 0.414997
1180 2 0.308528 0.0885439 0.445376
1181 4 0.299423 0.107455 0.431788
640 2 0.452554 0.0938066 0.450204
641 4 0.460445 0.113949 0.437666
306 4 0.457915 0.132083 0.430704
304 2 0.451355 0.151338 0.445243
3157 2 0.471348 0.159124 0.495263
470 4 0.0143257 0.177556 0.490417
259 2 0.166062 0.175753 0.45279
694 2 0.155252 0.222126 0.480192
696 4 0.142185 0.230478 0.499805
260 4 0.174885 0.199047 0.450612
1259 4 0.0798927 0.234771 0.498241
599 4 0.227052 0.197903 0.41982
695 4 0.16832 0.213774 0.46058
687 4 0.232599 0.202653 0.439642
686 4 0.186064 0.215177 0.453
685 2 0.209331 0.208915 0.446321
411 4 0.249517 0.224384 0.461136
489 4 0.280729 0.18187 0.40412
487 2 0.280657 0.205629 0.411907
409 2 0.263926 0.211816 0.477248
467 4 0.351462 0.18688 0.42434
3158 4 0.455554 0.165402 0.476924
305 4 0.444795 0.170592 0.459783
813 4 0.235469 0.291396 0.488173
265 2 0.345991 0.264855 0.421822
266 4 0.360821 0.284914 0.42352
585 4 0.497332 0.246427 0.450002
583 2 0.489465 0.259106 0.470066
2456 4 0.493707 0.280076 0.504814
584 4 0.481597 0.271784 0.490129
348 4 0.0491554 0.356036 0.415229
2812 2 0.017237 0.353427 0.436739
2813 4 0.0403475 0.361809 0.432176
326 4 0.0540416 0.372322 0.424576
325 2 0.0721433 0.377516 0.441023
10 3 0.130129 0.368488 0.456942
327 4 0.0902451 0.38271 0.457471
7 3 0.102131 0.387167 0.47307
6 1 0.121164 0.374827 0.476895
711 4 0.145609 0.405516 0.495868
8 3 0.136349 0.387895 0.488602
9 3 0.11557 0.356082 0.489374
709 2 0.168621 0.406396 0.486127
774 4 0.207037 0.403104 0.487402
635 4 0.20982 0.409271 0.469346
772 2 0.226629 0.400309 0.502683
710 4 0.191632 0.407276 0.476386
587 4 0.401496 0.417793 0.500803
681 4 0.07548 0.439503 0.496913
1383 4 0.0606777 0.4748 0.453833
1381 2 0.0623663 0.497138 0.442726
680 4 0.0619768 0.45539 0.45146
679 2 0.0687284 0.447446 0.474187
636 4 0.201176 0.439878 0.430756
634 2 0.205498 0.424575 0.450051
4 3 0.316394 0.478165 0.418702
5 3 0.293073 0.485528 0.447331
1 1 0.30788 0.494655 0.432631
668 4 0.303672 0.464129 0.411174
588 4 0.382502 0.437517 0.458959
239 4 0.395538 0.433275 0.443678
238 2 0.392473 0.418186 0.423977
586 2 0.391999 0.427655 0.479881
3077 4 0.00741553 0.00212566 0.528606
1183 2 0.0160136 0.993645 0.562191
1184 4 0.00856771 0.0115781 0.546439
1150 2 0.156444 0.0674694 0.537175
342 4 0.15157 0.0415642 0.507863
1152 4 0.151715 0.0603356 0.513682
340 2 0.161162 0.0193176 0.514049
1151 4 0.161173 0.0746033 0.560668
341 4 0.170754 0.997071 0.520234
430 2 0.312699 0.00530207 0.514043
843 4 0.31602 0.00491606 0.547477
432 4 0.296352 0.00595795 0.495134
842 4 0.33955 0.0250158 0.586758
841 2 0.327785 0.0149659 0.567118
2879 4 0.472584 0.0381158 0.517507
879 4 0.0749964 0.153706 0.561018
877 2 0.0505241 0.148596 0.560598
1199 4 0.00610734 0.137374 0.56683
878 4 0.0260519 0.143486 0.560178
938 4 0.0943747 0.155118 0.557016
937 2 0.098734 0.150736 0.532788
1272 4 0.0846509 0.170096 0.564862
939 4 0.103093 0.146355 0.508561
1034 4 0.106873 0.13529 0.492241
1155 4 0.16259 0.0864617 0.575924
3159 4 0.487142 0.152846 0.513602
1270 2 0.10229 0.181447 0.578472
1258 2 0.103292 0.225965 0.498588
1260 4 0.126691 0.217159 0.498935
898 2 0.28158 0.202442 0.535625
899 4 0.288106 0.20221 0.559761
900 4 0.275055 0.202674 0.511489
410 4 0.278335 0.199248 0.49336
791 4 0.30477 0.208709 0.565919
790 2 0.323114 0.225697 0.56624
857 4 0.296818 0.191426 0.573295
792 4 0.341457 0.242685 0.566561
811 2 0.243022 0.305112 0.507667
812 4 0.250575 0.318828 0.527161
650 4 0.268136 0.315928 0.535533
649 2 0.271518 0.313477 0.560185
804 4 0.263086 0.333976 0.530299
871 2 0.358331 0.276105 0.543172
872 4 0.348335 0.256611 0.555224
1238 4 0.349974 0.258355 0.574811
873 4 0.368327 0.295599 0.531121
2455 2 0.496221 0.304299 0.51048
2457 4 0.498735 0.328522 0.516147
1136 4 0.118353 0.369466 0.569151
897 4 0.165569 0.389627 0.57671
773 4 0.246222 0.397514 0.517963
1190 4 0.249996 0.397202 0.537259
1189 2 0.238576 0.407094 0.557181
1191 4 0.227155 0.416986 0.577104
895 2 0.187477 0.401128 0.58031
896 4 0.209384 0.412629 0.583909
802 2 0.254598 0.357468 0.529191
803 4 0.246109 0.380961 0.528082
930 4 0.263198 0.390171 0.524248
928 2 0.282656 0.40532 0.520116
926 4 0.415492 0.409675 0.511324
925 2 0.432854 0.393468 0.519137
927 4 0.450216 0.37726 0.52695
384 4 0.138069 0.422548 0.502532
382 2 0.113424 0.426106 0.504806
383 4 0.0887798 0.429663 0.507079
569 4 0.143404 0.439368 0.511278
568 2 0.155334 0.461293 0.509803
1172 4 0.215809 0.430859 0.585247
1171 2 0.205251 0.453475 0.586742
570 4 0.167265 0.483217 0.508329
929 4 0.302114 0.420469 0.515984
891 4 0.312374 0.491634 0.524788
1952 4 0.322476 0.475633 0.520349
881 4 0.326673 0.492168 0.511147
1951 2 0.320807 0.451528 0.51392
1953 4 0.319139 0.427423 0.50749
1000 2 0.411427 0.492896 0.564562
663 4 0.413422 0.428879 0.510755
1001 4 0.428198 0.476238 0.556412
661 2 0.422253 0.445729 0.526981
662 4 0.431083 0.462578 0.543207
1911 4 0.436895 0.459785 0.562132
1909 2 0.440094 0.450508 0.58513
1332 4 0.445777 0.472815 0.550454
1330 2 0.464021 0.486492 0.540195
945 4 0.0578922 0.0106698 0.648762
2374 2 0.15252 0.993389 0.592086
1058 4 0.14599 0.0307314 0.605822
2375 4 0.154157 0.0132982 0.607122
1057 2 0.155669 0.0492197 0.59205
1059 4 0.165349 0.0677081 0.578278
950 4 0.236542 0.0311408 0.628529
949 2 0.257201 0.0410031 0.638585
951 4 0.27786 0.0508655 0.64864
1031 4 0.292572 0.0618709 0.637193
1217 4 0.358158 0.0274848 0.591225
1216 2 0.381133 0.0178795 0.588978
1218 4 0.404108 0.00827432 0.586731
43 3 0.43048 0.0672905 0.649852
808 2 0.486809 0.0820845 0.640117
1083 4 0.0231641 0.135291 0.640774
3179 4 0.0150755 0.149771 0.651093
1284 4 0.142476 0.0938761 0.650476
1221 4 0.169845 0.148521 0.605647
1153 2 0.164128 0.108438 0.587751
1154 4 0.165666 0.130414 0.599578
1219 2 0.176423 0.164127 0.624042
1030 2 0.289928 0.085849 0.643768
1032 4 0.287283 0.109827 0.650344
858 4 0.271869 0.174148 0.613041
810 4 0.469343 0.0829279 0.657989
1209 4 0.0805761 0.205515 0.654488
1245 4 0.0884902 0.216438 0.640306
1271 4 0.119928 0.192797 0.592081
1243 2 0.106361 0.211769 0.623453
1244 4 0.124232 0.207101 0.6066
1210 2 0.222257 0.173149 0.660512
1212 4 0.201522 0.180832 0.648841
1220 4 0.183 0.179734 0.642437
797 4 0.217519 0.22608 0.607593
796 2 0.205292 0.211203 0.623541
798 4 0.193065 0.196326 0.63949
856 2 0.284343 0.182787 0.593168
905 4 0.463929 0.252275 0.604234
3121 2 0.478401 0.216714 0.622532
3122 4 0.492523 0.198846 0.632852
3357 4 0.503142 0.200369 0.649411
3123 4 0.464279 0.234581 0.612211
983 4 0.0498531 0.308391 0.583786
982 2 0.0496084 0.320327 0.605756
984 4 0.0493636 0.332263 0.627725
3263 4 0.0460803 0.330727 0.64695
651 4 0.274899 0.311026 0.584837
805 2 0.296795 0.301344 0.610575
806 4 0.278708 0.317368 0.604151
807 4 0.314882 0.28532 0.616999
1239 4 0.334307 0.287047 0.612654
1237 2 0.342141 0.272701 0.593732
906 4 0.475751 0.300762 0.601065
904 2 0.46984 0.276519 0.60265
952 2 0.481526 0.329883 0.591195
953 4 0.462667 0.315092 0.598317
1041 4 0.0545688 0.346831 0.639639
1039 2 0.0492494 0.370544 0.633758
1040 4 0.04393 0.394256 0.627877
993 4 0.0378025 0.402507 0.612213
991 2 0.0414583 0.412909 0.589772
1135 2 0.139978 0.374034 0.580842
1137 4 0.161602 0.378601 0.592533
1027 2 0.194238 0.412228 0.651982
1028 4 0.174946 0.403934 0.665556
1206 4 0.496465 0.412492 0.618996
3309 4 0.492182 0.404641 0.601298
992 4 0.0451142 0.42331 0.56733
1029 4 0.213529 0.420521 0.638408
1160 4 0.198248 0.494512 0.582539
1173 4 0.194693 0.476091 0.588236
1188 4 0.170527 0.483461 0.645176
1187 4 0.188872 0.490897 0.599253
1186 2 0.1797 0.487179 0.622214
1268 4 0.404575 0.471766 0.653853
2168 4 0.404493 0.490633 0.660666
1267 2 0.421258 0.459814 0.639569
1204 2 0.473588 0.422334 0.621232
1910 4 0.443292 0.441231 0.608127
1269 4 0.437941 0.447862 0.625286
1205 4 0.450712 0.432176 0.623468
943 2 0.0758806 0.00191728 0.663761
1296 4 0.0258997 0.0353862 0.750654
1226 4 0.158407 0.077475 0.746192
1203 4 0.17641 0.0691238 0.749275
1148 4 0.174534 0.0867747 0.742262
1201 2 0.183579 0.0452091 0.750641
1202 4 0.190748 0.0212944 0.752007
1003 2 0.332692 0.0279734 0.685661
1005 4 0.326352 0.0514471 0.679833
1049 4 0.350309 0.989771 0.697182
1004 4 0.339032 0.00449977 0.691489
45 3 0.434933 0.0510552 0.68353
1162 2 0.48728 0.0671921 0.694573
41 1 0.436691 0.0705939 0.671963
1163 4 0.477863 0.080249 0.675441
44 3 0.458497 0.0784595 0.672976
1077 4 0.0316522 0.0895301 0.747442
1081 2 0.0244541 0.121728 0.66174
1075 2 0.0254477 0.0955814 0.723989
1076 4 0.0192431 0.101633 0.700535
1082 4 0.0257441 0.108166 0.682706
864 4 0.0397089 0.107226 0.75074
1282 2 0.13389 0.0988746 0.673421
909 4 0.100415 0.160877 0.699029
907 2 0.106877 0.137183 0.703721
908 4 0.113339 0.113489 0.708412
1283 4 0.125303 0.103873 0.696366
1227 4 0.128907 0.104177 0.715903
1225 2 0.143657 0.090826 0.731048
888 4 0.260152 0.156726 0.677971
886 2 0.278925 0.158245 0.694417
829 2 0.324956 0.14069 0.726162
830 4 0.300823 0.147143 0.7251
887 4 0.297697 0.159764 0.710864
978 4 0.297299 0.165731 0.729719
831 4 0.34909 0.134237 0.727225
1142 4 0.356748 0.153521 0.728454
1141 2 0.376116 0.166706 0.719723
42 3 0.422696 0.0862466 0.681359
1025 4 0.455948 0.153938 0.700565
3424 2 0.467853 0.118689 0.682883
3426 4 0.466517 0.0960912 0.672266
3425 4 0.46919 0.141287 0.6935
3269 4 0.471964 0.151454 0.710342
852 4 0.0433203 0.174248 0.735543
850 2 0.0642163 0.170182 0.722428
780 4 0.0749982 0.247682 0.715505
1214 4 0.0286891 0.169402 0.749908
1213 2 0.0134268 0.188244 0.743808
851 4 0.0851124 0.166117 0.709313
1208 4 0.0903631 0.176408 0.693955
1207 2 0.0854696 0.190961 0.674222
1107 4 0.101507 0.177329 0.710026
1105 2 0.116784 0.187484 0.727015
1106 4 0.132061 0.19764 0.744005
1130 4 0.145132 0.204691 0.730827
1211 4 0.242992 0.165465 0.672182
976 2 0.293422 0.183942 0.746407
1193 4 0.402449 0.229947 0.667557
1194 4 0.404771 0.19543 0.703666
1192 2 0.40361 0.212688 0.685611
1143 4 0.395483 0.179891 0.710992
1262 4 0.404599 0.191981 0.723018
1026 4 0.414814 0.180396 0.710991
3268 2 0.483269 0.158634 0.731457
1261 2 0.416095 0.198323 0.744297
1024 2 0.435381 0.167167 0.705778
3270 4 0.494574 0.165813 0.752572
3262 2 0.050059 0.319649 0.66901
3264 4 0.0540377 0.308571 0.691069
779 4 0.0636459 0.291919 0.695136
778 2 0.0693221 0.269801 0.705321
893 4 0.0628964 0.30606 0.70829
892 2 0.0598332 0.31851 0.729756
1065 4 0.242409 0.336904 0.710631
947 4 0.311367 0.265279 0.720315
1063 2 0.25794 0.317762 0.706441
946 2 0.29419 0.274617 0.704728
948 4 0.277014 0.283954 0.689141
1064 4 0.273471 0.29862 0.702252
917 4 0.30845 0.258128 0.738853
1008 4 0.427942 0.270246 0.718513
1006 2 0.437083 0.27292 0.741632
894 4 0.0567699 0.33096 0.751222
1067 4 0.137071 0.394673 0.71667
940 2 0.112783 0.390888 0.736549
941 4 0.117877 0.391778 0.712087
1066 2 0.148439 0.392952 0.694467
1068 4 0.159807 0.391231 0.672264
1019 4 0.397011 0.414204 0.747129
1176 4 0.170204 0.442737 0.686539
1174 2 0.178588 0.460927 0.671573
1175 4 0.186971 0.479118 0.656606
1139 4 0.317261 0.482275 0.70866
1138 2 0.329685 0.474263 0.728825
1140 4 0.342109 0.46625 0.74899
1230 4 0.387803 0.430645 0.743447
1100 4 0.401057 0.424513 0.731344
1228 2 0.370085 0.444947 0.753776
1101 4 0.447171 0.44239 0.738732
1099 2 0.424114 0.433451 0.735038
3330 4 0.456161 0.451808 0.724227
1251 4 0.452227 0.460332 0.741677
3328 2 0.475184 0.458934 0.709649
3329 4 0.494207 0.46606 0.695071
1294 2 0.0166703 0.0124991 0.754676
911 4 0.118801 0.0779991 0.83664
2256 4 0.197943 0.0038263 0.749172
2049 4 0.178431 0.00576692 0.750093
1113 4 0.379234 0.0494915 0.845063
2322 4 0.442084 0.0490527 0.774178
2320 2 0.447982 0.0281646 0.786591
846 4 0.460924 0.0563765 0.77677
844 2 0.463248 0.0789896 0.766357
862 2 0.0453029 0.120624 0.771096
863 4 0.0508969 0.134022 0.791453
833 4 0.0445529 0.123762 0.806692
1125 4 0.0470754 0.143456 0.808229
1123 2 0.0679336 0.155691 0.814586
832 2 0.0367075 0.111089 0.826767
34 3 0.134485 0.156333 0.833428
1147 2 0.193511 0.100548 0.750942
1149 4 0.212488 0.114321 0.759622
1257 4 0.231364 0.121993 0.762813
1255 2 0.24704 0.125266 0.782016
921 4 0.216625 0.140433 0.793162
919 2 0.207656 0.160505 0.805071
1256 4 0.262716 0.12854 0.801218
840 4 0.263547 0.121339 0.820797
818 4 0.366979 0.106791 0.837685
845 4 0.465571 0.101603 0.755944
1129 2 0.160436 0.216333 0.74681
1124 4 0.0887919 0.167926 0.820944
35 3 0.0994662 0.169603 0.837336
822 4 0.178938 0.244294 0.773189
1131 4 0.175739 0.227974 0.762793
1277 4 0.179456 0.227873 0.781649
1276 2 0.188755 0.213964 0.80023
1278 4 0.198055 0.200055 0.818811
1241 4 0.194032 0.189681 0.833635
920 4 0.198686 0.180577 0.81698
916 2 0.296999 0.239589 0.751115
977 4 0.289545 0.202154 0.763095
918 4 0.285548 0.22105 0.763377
1298 4 0.291917 0.212764 0.779662
1297 2 0.306319 0.203357 0.797809
1299 4 0.32072 0.193949 0.815955
1086 4 0.331209 0.205895 0.827297
50 3 0.390859 0.21953 0.781618
46 1 0.408998 0.218763 0.795367
49 3 0.412241 0.239454 0.805356
48 3 0.405918 0.202508 0.811637
47 3 0.427659 0.213467 0.783003
1263 4 0.427591 0.204664 0.765576
1146 4 0.48555 0.181552 0.760807
1145 4 0.443967 0.204774 0.776049
1144 2 0.464759 0.193163 0.768428
1022 4 0.418094 0.188878 0.817767
1043 4 0.416892 0.257965 0.811836
1179 4 0.994529 0.256279 0.778954
3188 4 0.0100545 0.252111 0.790741
3187 2 0.0320586 0.2591 0.80034
3189 4 0.0540627 0.26609 0.809939
821 4 0.161716 0.286376 0.794003
820 2 0.170327 0.265335 0.783596
1098 4 0.238964 0.320748 0.817895
1235 4 0.225947 0.320151 0.801706
1042 2 0.433885 0.269215 0.79735
1044 4 0.450878 0.280466 0.782864
1007 4 0.446223 0.275593 0.76475
1165 2 0.486432 0.274526 0.778459
1166 4 0.464255 0.282289 0.769912
3276 4 0.0435046 0.332754 0.764153
814 2 0.0721886 0.365038 0.762601
815 4 0.0909798 0.381342 0.765105
3274 2 0.0217188 0.344359 0.760169
816 4 0.0533974 0.348735 0.760097
942 4 0.107689 0.389999 0.761012