ITEM: TIMESTEP
2780000
ITEM: NUMBER OF ATOMS
4590
ITEM: BOX BOUNDS pp pp pp
-9.9985700000000008e+00 9.9985700000000008e+00
-9.9985700000000008e+00 9.9985700000000008e+00
-9.9985700000000008e+00 9.9985700000000008e+00
ITEM: ATOMS id type xs ys zs
463 2 0.0625577 0.0837558 0.028316
464 4 0.0385042 0.0819579 0.0349018
701 4 0.10314 0.077952 0.01253
700 2 0.121884 0.0614557 0.0138418
702 4 0.140628 0.0449593 0.0151536
566 4 0.155425 0.0589981 0.0131288
565 2 0.176562 0.0688252 0.00408232
746 4 0.480652 0.0608683 0.0288847
2469 4 0.488923 0.052763 0.0453295
745 2 0.468733 0.0613158 0.00690932
590 4 0.0319505 0.0955754 0.0481583
589 2 0.0119984 0.0881592 0.0612767
465 4 0.0866113 0.0855538 0.0217302
558 4 0.358096 0.116247 0.0395973
556 2 0.354432 0.110888 0.0637431
865 2 0.368047 0.164365 0.0116137
771 4 0.450655 0.126238 0.0629341
769 2 0.463113 0.142358 0.0774295
554 4 0.0542493 0.209327 0.00689102
553 2 0.0713148 0.203265 0.0241305
555 4 0.0883803 0.197203 0.04137
835 2 0.12776 0.200772 0.0225728
836 4 0.107735 0.19318 0.0354775
837 4 0.147785 0.208364 0.00966798
573 4 0.326231 0.242204 0.0558183
461 4 0.323014 0.237325 0.0742626
666 4 0.334071 0.225918 0.0625767
664 2 0.339026 0.206263 0.0479367
665 4 0.34398 0.186609 0.0332966
867 4 0.362032 0.177519 0.0320091
1070 4 0.427117 0.229133 0.0704725
2808 4 0.032807 0.315793 0.00784444
2806 2 0.016177 0.309585 0.0254535
2807 4 0.999547 0.303377 0.0430625
294 4 0.116111 0.324606 0.0841696
292 2 0.1279 0.327897 0.0623662
293 4 0.139688 0.331187 0.0405628
356 4 0.308851 0.294306 0.0313496
572 4 0.321944 0.290973 0.045626
355 2 0.296094 0.313902 0.0224938
571 2 0.324088 0.266588 0.0507222
1069 2 0.431206 0.253218 0.0757999
322 2 0.449694 0.317628 0.0772611
1071 4 0.435294 0.277302 0.0811273
647 4 0.0140469 0.359943 0.071755
646 2 0.0312937 0.344828 0.0817179
620 4 0.00696079 0.376943 0.0718837
507 4 0.139505 0.344362 0.0256319
505 2 0.164012 0.349172 0.0268226
481 2 0.213094 0.390417 0.0279607
482 4 0.227647 0.410316 0.0237907
483 4 0.198541 0.370517 0.0321307
506 4 0.18852 0.353983 0.0280133
609 4 0.243582 0.404408 0.0341037
357 4 0.283337 0.333498 0.013638
902 4 0.281868 0.352057 0.00879283
957 4 0.353634 0.388332 0.0108149
323 4 0.462162 0.338646 0.0719703
671 4 0.491245 0.385555 0.0657643
670 2 0.472077 0.370448 0.0712003
280 2 0.49457 0.410817 0.0422402
551 4 0.0325274 0.450674 0.0765261
550 2 0.0567891 0.456691 0.0759379
552 4 0.0810508 0.462708 0.0753497
1787 4 0.0989285 0.46992 0.0711844
1786 2 0.104121 0.470482 0.0467323
1788 4 0.109313 0.471044 0.0222803
242 4 0.0970064 0.450822 0.0762206
246 4 0.234849 0.485025 0.0391139
244 2 0.2237 0.465466 0.0499929
245 4 0.212552 0.445908 0.060872
272 4 0.24353 0.481558 0.0215063
1778 4 0.244834 0.499238 0.0296447
627 4 0.200738 0.444645 0.0782423
607 2 0.261544 0.420762 0.0281773
608 4 0.279505 0.437116 0.0222509
252 4 0.292032 0.448761 0.0331272
250 2 0.310432 0.465379 0.0363615
251 4 0.328832 0.481998 0.0395957
2289 4 0.343233 0.494235 0.0357583
525 4 0.436546 0.480931 0.0693153
282 4 0.483048 0.425458 0.0255648
226 2 0.463333 0.459017 0.0483335
227 4 0.475649 0.438608 0.0407868
228 4 0.451018 0.479427 0.0558802
563 4 0.445177 0.496745 0.0633306
16 1 0.0629216 0.0380486 0.148555
20 3 0.0571488 0.0426657 0.127014
1806 4 0.0426889 0.0162031 0.138028
18 3 0.0519397 0.0189237 0.155769
1804 2 0.0400738 0.999145 0.119935
450 4 0.149807 0.0656329 0.16986
17 3 0.0856162 0.0344778 0.149717
448 2 0.166259 0.0838838 0.165234
1661 4 0.300167 0.0022819 0.163582
654 4 0.28829 0.0194705 0.167475
652 2 0.30432 0.03513 0.156384
653 4 0.320349 0.0507894 0.145293
484 2 0.364737 0.0151095 0.108446
297 4 0.351863 0.0470165 0.112225
485 4 0.366506 0.0364524 0.12135
295 2 0.356827 0.0709664 0.107035
579 4 0.103691 0.141165 0.0979632
237 4 0.150053 0.155831 0.137027
578 4 0.138552 0.165567 0.12423
577 2 0.121122 0.153366 0.111096
235 2 0.162687 0.134984 0.142593
236 4 0.175322 0.114138 0.148159
693 4 0.194823 0.114611 0.152126
449 4 0.182711 0.102135 0.160607
691 2 0.218181 0.107647 0.14655
692 4 0.241539 0.100683 0.140974
582 4 0.259896 0.102683 0.130487
580 2 0.282481 0.110326 0.138015
581 4 0.305066 0.11797 0.145543
30 3 0.31251 0.126572 0.16131
29 3 0.325378 0.161919 0.162926
557 4 0.350767 0.105528 0.087889
296 4 0.361792 0.0949163 0.101845
770 4 0.475571 0.158478 0.091925
1014 4 0.460207 0.165959 0.100994
476 4 0.148708 0.174805 0.138088
737 4 0.158372 0.166472 0.123075
475 2 0.137966 0.184389 0.158531
736 2 0.175835 0.177728 0.109163
738 4 0.193298 0.188983 0.0952507
354 4 0.315855 0.243047 0.139524
283 2 0.3217 0.203533 0.146103
285 4 0.319858 0.179776 0.153678
284 4 0.323543 0.22729 0.138528
462 4 0.322636 0.237751 0.124267
460 2 0.322825 0.237538 0.0992646
255 4 0.333105 0.242059 0.137759
253 2 0.353113 0.249793 0.150608
1013 4 0.48708 0.203573 0.120065
1012 2 0.473644 0.184766 0.11053
456 4 0.0664445 0.327471 0.103898
455 4 0.0497853 0.320631 0.15055
454 2 0.0581149 0.324051 0.127224
648 4 0.0485404 0.329713 0.0916807
610 2 0.233401 0.328593 0.111105
612 4 0.237126 0.303872 0.11155
756 4 0.230483 0.298115 0.130124
754 2 0.245405 0.282657 0.142914
352 2 0.295939 0.251298 0.15219
353 4 0.276022 0.259549 0.164857
755 4 0.260327 0.2672 0.155704
278 4 0.258134 0.255369 0.171628
254 4 0.37312 0.257526 0.163456
324 4 0.437225 0.296611 0.0825518
626 4 0.17852 0.403698 0.0964206
611 4 0.229676 0.353313 0.110661
536 4 0.179029 0.385464 0.087831
535 2 0.194224 0.369062 0.0990217
537 4 0.20942 0.352659 0.110212
387 4 0.336167 0.413601 0.137717
739 2 0.406254 0.380519 0.12573
740 4 0.397621 0.389951 0.147217
385 2 0.358312 0.404912 0.145416
386 4 0.380457 0.396223 0.153115
495 4 0.397186 0.403341 0.161425
15 3 0.386185 0.377661 0.157521
672 4 0.452909 0.355341 0.0766363
741 4 0.414887 0.371088 0.104243
241 2 0.108539 0.449647 0.0983748
1438 2 0.162698 0.455215 0.122573
243 4 0.120071 0.448471 0.120529
1440 4 0.138059 0.452687 0.125993
625 2 0.189629 0.424171 0.0873314
1439 4 0.187338 0.457743 0.119152
637 2 0.221951 0.485685 0.117133
638 4 0.243386 0.498351 0.119428
639 4 0.200515 0.473019 0.114838
303 4 0.291159 0.450803 0.108435
766 2 0.277369 0.487483 0.121885
768 4 0.294791 0.470948 0.114937
301 2 0.312117 0.440579 0.117459
302 4 0.333074 0.430355 0.126484
524 4 0.401558 0.460932 0.0989226
493 2 0.406256 0.426508 0.158939
494 4 0.415326 0.449676 0.156452
660 4 0.415745 0.467618 0.146916
523 2 0.419052 0.470931 0.084119
658 2 0.429247 0.478209 0.165101
19 3 0.057437 0.0559692 0.162236
380 4 0.0473607 0.0562638 0.178834
675 4 0.0883796 0.0447723 0.166374
673 2 0.112228 0.0496237 0.172111
1505 4 0.153945 0.0477556 0.177982
674 4 0.136076 0.054475 0.177848
1504 2 0.162235 0.0346241 0.197578
689 4 0.17969 0.00490043 0.213558
1506 4 0.170526 0.0214927 0.217175
23 3 0.404502 0.00922377 0.23096
22 3 0.416632 0.0198327 0.197004
21 1 0.423242 0.0118063 0.217523
757 2 0.476484 0.0238455 0.214458
25 3 0.437672 0.0266116 0.227075
759 4 0.455317 0.0332685 0.223857
350 4 0.445364 0.0396512 0.239938
758 4 0.497651 0.0144225 0.205059
379 2 0.040959 0.0797453 0.184562
512 4 0.0497343 0.112744 0.180927
381 4 0.0345573 0.103227 0.190291
511 2 0.0609348 0.12902 0.196251
513 4 0.0721352 0.145296 0.211576
339 4 0.0835899 0.162792 0.21235
26 1 0.321553 0.142431 0.174925
28 3 0.307231 0.146734 0.192667
27 3 0.341585 0.134758 0.18323
311 4 0.444644 0.153463 0.190961
337 2 0.100972 0.178994 0.20457
477 4 0.127224 0.193973 0.178974
363 4 0.131733 0.208158 0.192134
338 4 0.118355 0.195196 0.196791
362 4 0.131957 0.244672 0.226302
361 2 0.131845 0.226415 0.209218
628 2 0.396099 0.229868 0.188685
629 4 0.406386 0.212137 0.203002
630 4 0.385813 0.247598 0.174367
312 4 0.421052 0.195943 0.202775
717 4 0.37586 0.241868 0.247811
310 2 0.432848 0.174703 0.196868
761 4 0.482275 0.234944 0.238131
749 4 0.0427653 0.309947 0.16612
750 4 0.0170854 0.290082 0.204155
395 4 0.00747279 0.296792 0.220809
748 2 0.0299254 0.300015 0.185138
394 2 0.0139625 0.285414 0.242107
372 4 0.146191 0.255111 0.235542
370 2 0.153213 0.277218 0.244877
300 4 0.11454 0.281052 0.207567
298 2 0.110856 0.303671 0.217567
299 4 0.107172 0.32629 0.227567
734 4 0.112754 0.328386 0.246297
279 4 0.227797 0.258256 0.211277
277 2 0.242966 0.256813 0.191452
401 4 0.283245 0.302653 0.244415
498 4 0.282309 0.303838 0.224516
496 2 0.290198 0.316556 0.204487
764 4 0.406138 0.311344 0.181241
765 4 0.383573 0.266864 0.177629
763 2 0.394856 0.289104 0.179435
624 4 0.473611 0.30729 0.176493
622 2 0.449227 0.31282 0.176608
528 4 0.491533 0.300081 0.178743
623 4 0.424843 0.318351 0.176722
262 2 0.0405943 0.38906 0.214417
263 4 0.0517622 0.367572 0.220639
602 4 0.070339 0.370026 0.211619
264 4 0.0294263 0.410549 0.208195
601 2 0.0867088 0.356369 0.224684
603 4 0.103079 0.342712 0.237748
290 4 0.170536 0.392413 0.231688
289 2 0.179241 0.41279 0.220104
308 4 0.314934 0.340078 0.179673
497 4 0.298088 0.329274 0.184457
307 2 0.339071 0.345258 0.183637
309 4 0.363209 0.350438 0.187601
14 3 0.40157 0.401311 0.182454
11 1 0.392075 0.380367 0.179353
13 3 0.373407 0.378043 0.192936
12 3 0.407494 0.364289 0.185089
2618 4 0.0263056 0.429753 0.213513
2617 2 0.00605809 0.437374 0.226048
291 4 0.187945 0.433166 0.20852
416 4 0.174509 0.447335 0.212264
415 2 0.190668 0.466273 0.21459
1430 4 0.206814 0.490903 0.196817
417 4 0.206827 0.485211 0.216916
597 4 0.484484 0.464493 0.21393
596 4 0.450379 0.497847 0.198928
659 4 0.442749 0.4888 0.183286
595 2 0.467432 0.48117 0.206429
645 4 0.493492 0.453713 0.199681
1799 4 0.0113977 0.0229853 0.296261
233 4 0.00744954 0.0414463 0.293316
1402 2 0.0476383 0.0413001 0.306322
1403 4 0.0231503 0.0373086 0.303226
1404 4 0.0721264 0.0452915 0.309418
1798 2 0.00410152 0.00889868 0.315587
633 4 0.383255 0.0383124 0.298715
631 2 0.385289 0.0459037 0.274979
257 4 0.373322 0.0526715 0.306756
698 4 0.368435 0.034563 0.311581
697 2 0.36488 0.010154 0.315673
632 4 0.387322 0.053495 0.251243
256 2 0.373014 0.0690485 0.325648
349 2 0.444211 0.0368583 0.264758
744 4 0.459405 0.0315159 0.301123
742 2 0.475048 0.0302421 0.320586
351 4 0.443057 0.0340654 0.289579
398 4 0.0747854 0.149465 0.30908
397 2 0.064322 0.129896 0.320603
393 4 0.0860064 0.155314 0.294766
399 4 0.0538586 0.110328 0.332125
545 4 0.135596 0.15651 0.254444
392 4 0.115692 0.153785 0.254552
391 2 0.100849 0.15455 0.274659
404 4 0.19257 0.153478 0.329979
521 4 0.491735 0.133328 0.244637
390 4 0.0835501 0.166027 0.311009
444 4 0.028488 0.222016 0.30507
442 2 0.0281957 0.243242 0.291857
388 2 0.0803728 0.188854 0.320705
389 4 0.0771955 0.211682 0.3304
544 2 0.151679 0.172195 0.265419
723 4 0.212357 0.223193 0.250572
403 2 0.186068 0.167072 0.310027
721 2 0.199271 0.204937 0.261556
546 4 0.167763 0.187881 0.276395
405 4 0.179565 0.180667 0.290075
722 4 0.186185 0.186681 0.272541
378 4 0.292639 0.242076 0.323449
376 2 0.309464 0.223824 0.326439
377 4 0.32629 0.205572 0.329429
420 4 0.383065 0.223441 0.252701
418 2 0.405685 0.214973 0.259167
331 2 0.451983 0.208699 0.303263
332 4 0.437654 0.209606 0.282792
419 4 0.428305 0.206504 0.265632
760 2 0.4639 0.225683 0.252336
762 4 0.445525 0.216422 0.266541
333 4 0.466312 0.207792 0.323733
453 4 0.482844 0.216453 0.328334
515 4 0.47964 0.19715 0.332425
364 2 0.0187002 0.303708 0.293602
396 4 0.0204523 0.274036 0.263405
443 4 0.0279033 0.264467 0.278644
365 4 0.0217537 0.282466 0.280772
366 4 0.0156468 0.324951 0.306432
407 4 0.0211005 0.323206 0.325525
371 4 0.160235 0.299325 0.254213
735 4 0.143343 0.334412 0.285396
733 2 0.128049 0.331399 0.265846
676 2 0.183 0.329125 0.293498
508 2 0.24298 0.317653 0.310916
509 4 0.220755 0.327738 0.316349
678 4 0.203345 0.324894 0.307403
510 4 0.265205 0.307567 0.305483
400 2 0.276726 0.298835 0.26825
402 4 0.270207 0.295017 0.292085
345 4 0.274145 0.292145 0.311565
343 2 0.290325 0.27364 0.316142
344 4 0.306505 0.255135 0.320718
715 2 0.380478 0.263949 0.258594
716 4 0.385097 0.286031 0.269376
542 4 0.379693 0.291394 0.288115
541 2 0.392871 0.299739 0.307657
543 4 0.406048 0.308084 0.327199
2493 4 0.00459778 0.332146 0.32047
548 4 0.0218691 0.340594 0.316106
547 2 0.0276226 0.364717 0.319299
549 4 0.0333761 0.388839 0.322491
677 4 0.162654 0.333356 0.279593
435 4 0.204186 0.330525 0.326183
728 4 0.351022 0.393831 0.28439
727 2 0.361904 0.407938 0.301934
2538 4 0.479605 0.349801 0.302535
753 4 0.469992 0.334779 0.310755
2536 2 0.49395 0.361787 0.28593
1543 2 0.141811 0.472871 0.322318
1545 4 0.162325 0.465165 0.310278
1544 4 0.121297 0.480576 0.334359
1436 4 0.171848 0.482361 0.306598
729 4 0.372785 0.422045 0.319477
437 4 0.38659 0.434876 0.32714
730 2 0.0644299 0.0752595 0.348149
1772 4 0.0157243 0.0372539 0.384646
1771 2 0.00765413 0.0197497 0.36872
2238 4 0.999579 0.037715 0.39759
732 4 0.0791482 0.05658 0.355871
369 4 0.088072 0.04059 0.364533
367 2 0.0934902 0.0301771 0.38661
606 4 0.16109 0.0205638 0.418168
368 4 0.0989083 0.0197641 0.408687
1782 4 0.0966763 0.998775 0.406284
605 4 0.203355 0.0464741 0.411607
604 2 0.182223 0.033519 0.414888
1701 4 0.200194 0.0572092 0.395794
424 2 0.388997 0.0690667 0.379614
425 4 0.396011 0.0519734 0.396461
1580 4 0.396801 0.0340151 0.406112
2664 4 0.499367 0.0169486 0.353518
743 4 0.490692 0.0289683 0.34005
479 4 0.488107 0.0311348 0.358806
478 2 0.486286 0.0524627 0.371729
480 4 0.484466 0.0737906 0.384651
458 4 0.00688776 0.141454 0.375388
318 4 0.0136664 0.124353 0.384761
317 4 0.0474083 0.11042 0.350584
731 4 0.0497115 0.093939 0.340428
316 2 0.0305374 0.117386 0.367673
249 4 0.200558 0.143843 0.344782
1699 2 0.202516 0.0820328 0.397686
247 2 0.198475 0.127301 0.363416
248 4 0.196391 0.110759 0.382049
1700 4 0.204838 0.106856 0.399578
319 2 0.327691 0.134531 0.393833
320 4 0.311894 0.122128 0.408727
682 2 0.27458 0.142749 0.402307
683 4 0.255104 0.158421 0.401821
684 4 0.294057 0.127078 0.402792
426 4 0.381983 0.08616 0.362768
258 4 0.372706 0.0854255 0.344539
321 4 0.343488 0.146933 0.37894
708 4 0.337275 0.147099 0.360115
516 4 0.480888 0.163927 0.369781
575 4 0.474705 0.151079 0.383579
574 2 0.465684 0.143243 0.405543
459 4 0.00868263 0.190689 0.383955
457 2 0.00778519 0.166071 0.379672
600 4 0.261961 0.167439 0.416948
707 4 0.320146 0.189605 0.340101
706 2 0.328711 0.168352 0.350108
466 2 0.359956 0.232502 0.415465
467 4 0.370617 0.209886 0.415606
514 2 0.480264 0.180539 0.351103
406 2 0.0264109 0.314144 0.348216
408 4 0.0317213 0.305081 0.370906
347 4 0.0802118 0.324566 0.391542
275 4 0.13877 0.309616 0.359546
617 4 0.128474 0.325082 0.354845
274 2 0.163124 0.314716 0.362014
276 4 0.187477 0.319816 0.364482
373 2 0.208513 0.289335 0.389805
375 4 0.195982 0.305425 0.37534
374 4 0.221045 0.273244 0.404269
615 4 0.408769 0.320351 0.343039
267 4 0.359836 0.270451 0.408002
468 4 0.349294 0.255119 0.415324
265 2 0.342846 0.286716 0.416485
751 2 0.477818 0.332733 0.334414
752 4 0.485644 0.330686 0.358073
777 4 0.035352 0.396142 0.340301
346 2 0.0624066 0.331853 0.407513
775 2 0.053733 0.412749 0.343694
616 2 0.108648 0.332624 0.368081
618 4 0.0888212 0.340167 0.381317
433 2 0.209536 0.348526 0.342692
434 4 0.214886 0.366526 0.3592
502 2 0.310994 0.416276 0.415407
613 2 0.423945 0.340102 0.345218
614 4 0.439121 0.359854 0.347397
776 4 0.072114 0.429357 0.347087
414 4 0.0711147 0.449889 0.346754
413 4 0.102468 0.486011 0.332164
412 2 0.0867914 0.46795 0.339459
503 4 0.321298 0.436294 0.404531
594 4 0.400865 0.505921 0.400698
436 2 0.372967 0.454928 0.333263
438 4 0.359343 0.47498 0.339385
669 4 0.331941 0.45147 0.39897
240 4 0.399012 0.435249 0.399053
335 4 0.386933 0.422117 0.389574
336 4 0.338715 0.432578 0.397714
334 2 0.362824 0.427348 0.393644
3990 4 0.494447 0.491342 0.375464
2236 2 0.00380767 0.0515463 0.417986
1127 4 0.0141664 0.0640347 0.456774
2237 4 0.0080368 0.0653775 0.438382
720 4 0.0273544 0.064973 0.442441
2429 4 0.231338 0.00320074 0.478888
961 2 0.269142 0.00132694 0.481268
724 2 0.295543 0.0535931 0.477159
726 4 0.292367 0.0781085 0.473406
725 4 0.29872 0.0290778 0.480912
963 4 0.29135 0.0119282 0.485694
432 4 0.300583 0.0227896 0.49925
1579 2 0.387512 0.0157407 0.420428
2879 4 0.415768 0.0308991 0.465805
642 4 0.456291 0.0762779 0.455761
2878 2 0.435957 0.0456485 0.466024
2880 4 0.456146 0.0603979 0.466243
718 2 0.034945 0.088546 0.445887
719 4 0.0425356 0.112119 0.449333
939 4 0.0950078 0.132766 0.487472
1033 2 0.129936 0.123951 0.46811
1035 4 0.154297 0.124802 0.462543
261 4 0.155153 0.144657 0.465176
1034 4 0.105575 0.123099 0.473676
259 2 0.168816 0.165239 0.461323
1181 4 0.296904 0.125337 0.421977
1182 4 0.293793 0.0929045 0.459913
1180 2 0.295348 0.109121 0.440945
576 4 0.456664 0.135407 0.427507
640 2 0.461395 0.098725 0.446001
641 4 0.466499 0.121172 0.436241
306 4 0.46472 0.139102 0.444256
304 2 0.46257 0.153788 0.464378
3158 4 0.455595 0.151049 0.494443
305 4 0.460421 0.168474 0.4845
694 2 0.164795 0.221413 0.473089
696 4 0.152111 0.237683 0.487216
695 4 0.17748 0.205143 0.458963
260 4 0.182479 0.185822 0.45747
472 2 0.239958 0.246621 0.432755
687 4 0.240618 0.213812 0.45256
686 4 0.194638 0.198979 0.465462
685 2 0.217628 0.206396 0.459011
489 4 0.315082 0.240117 0.428022
599 4 0.255815 0.210437 0.44173
474 4 0.250304 0.226531 0.443457
411 4 0.259883 0.217992 0.456575
598 2 0.258888 0.188938 0.429339
409 2 0.266249 0.21849 0.480749
488 4 0.269673 0.223098 0.440233
487 2 0.292378 0.231607 0.434128
2812 2 0.0188756 0.332161 0.444862
473 4 0.229612 0.266711 0.422053
813 4 0.236769 0.322928 0.467846
811 2 0.246693 0.326728 0.490479
266 4 0.325856 0.302982 0.424967
348 4 0.0446015 0.339139 0.423483
2813 4 0.0428325 0.338955 0.442606
326 4 0.0481877 0.355311 0.434388
325 2 0.0625938 0.367277 0.450954
327 4 0.0769999 0.379244 0.467521
7 3 0.0917505 0.389939 0.472935
6 1 0.109488 0.3827 0.485668
711 4 0.137796 0.413537 0.4869
8 3 0.122405 0.401026 0.491644
709 2 0.161005 0.419817 0.480036
10 3 0.121963 0.368035 0.473504
504 4 0.30069 0.396257 0.426282
1383 4 0.0532919 0.474424 0.468089
680 4 0.0514187 0.466336 0.485689
1381 2 0.0693373 0.490116 0.457067
679 2 0.0643606 0.447982 0.49668
384 4 0.139454 0.427162 0.502355
634 2 0.200362 0.457757 0.461576
636 4 0.199531 0.480817 0.451946
635 4 0.201194 0.434697 0.471205
710 4 0.184213 0.426097 0.473171
774 4 0.200137 0.418536 0.482143
4 3 0.311648 0.492931 0.433968
668 4 0.328623 0.484213 0.436621
667 2 0.330282 0.467842 0.417795
587 4 0.399949 0.429789 0.496305
586 2 0.4076 0.438578 0.474183
588 4 0.415251 0.447368 0.452061
238 2 0.414032 0.441272 0.418113
239 4 0.429052 0.447295 0.437174
1184 4 0.0021864 0.0251227 0.56885
342 4 0.152064 0.0517839 0.517099
1152 4 0.153075 0.0667693 0.529519
1150 2 0.153835 0.0729008 0.553747
1151 4 0.154595 0.0790322 0.577976
340 2 0.17118 0.0360892 0.513434
341 4 0.190296 0.0203945 0.509768
2430 4 0.205158 0.0129068 0.520374
2428 2 0.218248 0.00805376 0.499631
430 2 0.317831 0.00891323 0.510875
841 2 0.356932 0.0235942 0.548503
842 4 0.369338 0.0406968 0.561873
1216 2 0.408446 0.019461 0.566584
1217 4 0.387601 0.0331831 0.56813
843 4 0.344525 0.00649166 0.535133
3009 4 0.490488 0.051616 0.57259
1061 4 0.490581 0.0698049 0.527112
1218 4 0.42929 0.00573893 0.565038
879 4 0.0586335 0.155308 0.536605
877 2 0.0345644 0.148618 0.535556
878 4 0.0104954 0.141928 0.534507
938 4 0.0723663 0.158942 0.523568
937 2 0.083687 0.145854 0.50552
1199 4 0.998959 0.147753 0.55065
3159 4 0.445037 0.120982 0.532982
3157 2 0.450316 0.136016 0.513712
1062 4 0.45703 0.105549 0.536981
1060 2 0.473806 0.0876772 0.532046
1272 4 0.0671298 0.172994 0.535908
1270 2 0.0693229 0.189709 0.554374
1271 4 0.0715161 0.206423 0.57284
1258 2 0.142145 0.227807 0.525947
1259 4 0.136068 0.231948 0.549845
1260 4 0.148222 0.223667 0.502049
898 2 0.292084 0.218133 0.530948
899 4 0.306971 0.203221 0.544409
857 4 0.30888 0.19323 0.561404
856 2 0.308617 0.185721 0.585253
791 4 0.323704 0.204355 0.554563
900 4 0.277196 0.233045 0.517488
410 4 0.272616 0.218987 0.504923
790 2 0.340062 0.222167 0.560913
792 4 0.35642 0.239979 0.567263
872 4 0.371693 0.250851 0.561339
651 4 0.291563 0.329468 0.570647
806 4 0.304437 0.334138 0.584341
649 2 0.275507 0.329817 0.551483
650 4 0.25945 0.330165 0.532319
812 4 0.256617 0.330528 0.513112
1238 4 0.365874 0.251243 0.580385
871 2 0.372617 0.255903 0.536868
873 4 0.37354 0.260956 0.512398
1135 2 0.125042 0.366892 0.574294
1136 4 0.108022 0.352404 0.585499
897 4 0.156107 0.38046 0.577565
9 3 0.101293 0.372244 0.504692
1137 4 0.142063 0.38138 0.563088
773 4 0.232257 0.408459 0.519123
1189 2 0.222771 0.409464 0.561509
1190 4 0.233184 0.408974 0.538783
803 4 0.238679 0.392981 0.528775
802 2 0.243329 0.368488 0.526863
804 4 0.247979 0.343995 0.524951
772 2 0.216197 0.413498 0.500633
1191 4 0.212358 0.409953 0.584236
930 4 0.249378 0.409444 0.527791
925 2 0.413832 0.396429 0.519696
927 4 0.423447 0.375025 0.528334
539 4 0.0797351 0.49218 0.510441
681 4 0.0773026 0.429628 0.507672
1161 4 0.158023 0.506737 0.583586
383 4 0.0934419 0.439601 0.517483
382 2 0.116448 0.433382 0.509919
569 4 0.156845 0.435602 0.508432
2243 4 0.15312 0.496237 0.566502
568 2 0.171239 0.447693 0.524918
570 4 0.185633 0.459784 0.541404
928 2 0.269753 0.422745 0.533546
929 4 0.290128 0.436046 0.539302
1951 2 0.305261 0.475199 0.540113
1953 4 0.297982 0.452502 0.547664
1952 4 0.31254 0.497897 0.532561
926 4 0.404218 0.417833 0.511058
663 4 0.404328 0.437448 0.513817
1000 2 0.400297 0.500272 0.561739
661 2 0.411401 0.455118 0.530031
1001 4 0.419696 0.484497 0.56176
662 4 0.418475 0.472789 0.546245
1911 4 0.426531 0.466441 0.562758
1332 4 0.43602 0.480003 0.551732
1330 2 0.453825 0.496372 0.545391
2375 4 0.154637 0.0127478 0.612849
1155 4 0.149343 0.0829933 0.596
1059 4 0.162591 0.0696165 0.593335
1057 2 0.159019 0.0497509 0.608092
1058 4 0.155447 0.0298854 0.62285
949 2 0.285397 0.0263105 0.61839
951 4 0.294053 0.0412526 0.636472
1031 4 0.299495 0.044861 0.655226
950 4 0.27674 0.0113683 0.600307
3007 2 0.491981 0.0688407 0.590653
43 3 0.442487 0.0607829 0.660222
1154 4 0.152491 0.132466 0.602573
1153 2 0.150917 0.10773 0.599287
1221 4 0.156267 0.149467 0.611904
888 4 0.254843 0.169742 0.663164
808 2 0.484568 0.089786 0.644942
809 4 0.492403 0.0991298 0.623114
3008 4 0.493473 0.0860654 0.608715
1244 4 0.0869494 0.197074 0.582334
1245 4 0.112758 0.195584 0.62514
1243 2 0.0998539 0.196329 0.603737
1209 4 0.106105 0.183777 0.6395
1207 2 0.103595 0.177644 0.663609
1219 2 0.174677 0.166344 0.610718
1210 2 0.223687 0.180434 0.635486
1212 4 0.210864 0.189049 0.615825
1220 4 0.193087 0.183221 0.609532
797 4 0.181955 0.238604 0.614189
796 2 0.192482 0.217186 0.606731
798 4 0.203008 0.195767 0.599274
1211 4 0.236511 0.171819 0.655146
858 4 0.308355 0.178213 0.609101
3121 2 0.470577 0.216573 0.626047
3122 4 0.481809 0.194834 0.63119
3357 4 0.477973 0.180641 0.643828
3355 2 0.49045 0.167893 0.661349
3123 4 0.459346 0.238312 0.620903
982 2 0.0232276 0.314338 0.642666
984 4 0.0434636 0.324514 0.653255
805 2 0.319996 0.314977 0.588336
1237 2 0.356675 0.270403 0.593556
807 4 0.335556 0.295817 0.592332
1239 4 0.347476 0.289562 0.606727
906 4 0.455627 0.301439 0.617991
905 4 0.472284 0.254288 0.618227
904 2 0.463955 0.277863 0.618109
953 4 0.470213 0.314902 0.620848
952 2 0.483608 0.33094 0.607116
1041 4 0.0593566 0.334512 0.647338
1039 2 0.0657444 0.356499 0.637292
1040 4 0.0721322 0.378487 0.627247
993 4 0.0552418 0.388896 0.624674
991 2 0.0393679 0.404224 0.612917
895 2 0.175921 0.393149 0.586026
896 4 0.195734 0.405837 0.594488
1028 4 0.198412 0.39485 0.662249
1027 2 0.199478 0.399767 0.637756
1029 4 0.200544 0.404684 0.613264
954 4 0.497002 0.346978 0.593384
992 4 0.023494 0.419553 0.60116
1172 4 0.208259 0.418716 0.601647
1159 2 0.177242 0.496082 0.595514
1160 4 0.196461 0.485426 0.607442
1171 2 0.206276 0.443266 0.605957
1173 4 0.204292 0.467815 0.610267
1187 4 0.202311 0.481015 0.62531
1186 2 0.192264 0.476362 0.647728
1909 2 0.42994 0.452825 0.58345
1206 4 0.498166 0.424166 0.603724
1268 4 0.445567 0.477488 0.659951
1267 2 0.44076 0.463141 0.640045
1204 2 0.47495 0.432613 0.607581
1910 4 0.433349 0.43921 0.604143
1269 4 0.435952 0.448794 0.620139
1205 4 0.451735 0.441059 0.611437
1284 4 0.0960061 0.0475949 0.693676
1282 2 0.108251 0.0693821 0.694417
2047 2 0.143726 0.00706897 0.735124
2048 4 0.120517 0.997909 0.736742
2256 4 0.18339 0.00861112 0.741625
2049 4 0.166935 0.016229 0.733506
1201 2 0.190478 0.0445702 0.719079
1202 4 0.183569 0.0250683 0.733119
1203 4 0.197386 0.0640721 0.705039
1226 4 0.184844 0.0784114 0.701259
1030 2 0.297894 0.0541216 0.678396
1032 4 0.296293 0.0633822 0.701566
1005 4 0.317799 0.0154409 0.706888
1003 2 0.328356 8.08957e-05 0.690221
810 4 0.476733 0.0804423 0.666771
45 3 0.447809 0.0440155 0.693512
41 1 0.44973 0.0636201 0.682083
1163 4 0.490234 0.0775872 0.680002
44 3 0.471811 0.0707499 0.68225
42 3 0.436674 0.0796143 0.692226
1077 4 0.0335883 0.106488 0.738176
1075 2 0.0143111 0.0955552 0.726599
864 4 0.039577 0.125585 0.74366
909 4 0.109333 0.156593 0.697873
907 2 0.117527 0.133059 0.695824
908 4 0.125721 0.109525 0.693776
1283 4 0.120497 0.0911693 0.695158
1227 4 0.138583 0.0944499 0.691091
1225 2 0.161713 0.0864306 0.696175
851 4 0.0914498 0.163406 0.702387
1148 4 0.202138 0.0821094 0.709908
1147 2 0.214117 0.0947679 0.727837
1149 4 0.226095 0.107426 0.745766
829 2 0.319851 0.150239 0.713082
830 4 0.297823 0.161511 0.71667
831 4 0.34188 0.138968 0.709495
1142 4 0.3612 0.138348 0.703985
1141 2 0.38016 0.152119 0.712709
1143 4 0.399119 0.165889 0.721433
1025 4 0.457679 0.134819 0.710792
3424 2 0.475519 0.11247 0.694411
3426 4 0.475525 0.0897412 0.683991
3425 4 0.475513 0.135199 0.704831
3269 4 0.471998 0.129221 0.723045
1024 2 0.437522 0.149481 0.712773
3268 2 0.480481 0.140423 0.743726
1026 4 0.417366 0.164143 0.714755
845 4 0.468117 0.0987509 0.7389
852 4 0.0475637 0.18251 0.71687
1214 4 0.0290145 0.175273 0.713854
850 2 0.0695068 0.172958 0.709629
1213 2 0.00718235 0.182769 0.723464
1208 4 0.101085 0.17151 0.687719
1107 4 0.108115 0.173884 0.705732
1105 2 0.126034 0.187615 0.716481
1106 4 0.143953 0.201346 0.727231
1130 4 0.156711 0.211564 0.738912
887 4 0.286001 0.167579 0.702218
978 4 0.291898 0.180403 0.716242
886 2 0.270422 0.16866 0.682691
976 2 0.292651 0.193178 0.737722
916 2 0.291225 0.247973 0.746326
1192 2 0.415137 0.19727 0.694965
1194 4 0.407451 0.180469 0.711811
1262 4 0.412904 0.176296 0.730028
1193 4 0.422822 0.214072 0.678118
1261 2 0.422612 0.186356 0.750758
3263 4 0.0538148 0.335059 0.6658
3262 2 0.0668968 0.327679 0.68579
3264 4 0.0799788 0.3203 0.705779
893 4 0.0770424 0.324008 0.724577
779 4 0.0945116 0.317302 0.718328
778 2 0.113232 0.301212 0.722308
780 4 0.131952 0.285121 0.726288
1065 4 0.214254 0.31994 0.691478
1063 2 0.236871 0.309961 0.687723
1064 4 0.259488 0.299983 0.683969
947 4 0.303199 0.280405 0.726504
946 2 0.2877 0.293806 0.712173
948 4 0.272201 0.307208 0.697843
917 4 0.290324 0.271664 0.73838
1008 4 0.488738 0.276357 0.702364
1006 2 0.478578 0.27063 0.724481
1007 4 0.468419 0.264903 0.746598
892 2 0.0723899 0.340735 0.74257
941 4 0.159434 0.377069 0.727763
940 2 0.14645 0.379649 0.748975
1067 4 0.160907 0.396107 0.720402
1066 2 0.172274 0.395174 0.698152
1068 4 0.183641 0.394242 0.675901
1019 4 0.3882 0.415018 0.739389
1176 4 0.136747 0.469632 0.722978
1174 2 0.152989 0.467837 0.704053
1188 4 0.182217 0.471708 0.670147
1175 4 0.169231 0.466042 0.685128
1139 4 0.296371 0.484108 0.694858
1138 2 0.307115 0.467397 0.71004
1140 4 0.317859 0.450686 0.725222
1989 4 0.328564 0.443997 0.740364
1229 4 0.332221 0.437367 0.722693
1100 4 0.390076 0.425536 0.72294
1228 2 0.353859 0.424887 0.723816
1230 4 0.375496 0.412407 0.724939
1099 2 0.406171 0.444617 0.721496
2168 4 0.460328 0.491037 0.658387
1101 4 0.422266 0.463697 0.720053
3330 4 0.435626 0.465904 0.706631
3328 2 0.454635 0.451795 0.698584
1251 4 0.431295 0.480713 0.71871
3329 4 0.473644 0.437686 0.690537
1249 2 0.444582 0.487486 0.738779
785 4 0.024975 0.0625047 0.823245
834 4 0.039033 0.076228 0.828626
1113 4 0.375257 0.0746042 0.781678
974 4 0.339036 0.0334549 0.829513
979 2 0.411159 0.999272 0.819661
980 4 0.427573 0.000901821 0.800871
2321 4 0.441886 0.0088956 0.790251
2322 4 0.451165 0.0569186 0.77984
2320 2 0.446525 0.0329071 0.785045
846 4 0.442972 0.0743014 0.774546
862 2 0.0489508 0.125512 0.76684
863 4 0.0583245 0.125439 0.79002
833 4 0.0440759 0.117588 0.800975
1125 4 0.0545942 0.131949 0.80801
1123 2 0.0663734 0.147996 0.82314
832 2 0.0415544 0.0969082 0.814801
1257 4 0.215268 0.0964245 0.75868
1255 2 0.213327 0.106112 0.781649
921 4 0.211016 0.131905 0.814571
919 2 0.20152 0.152662 0.824775
840 4 0.225849 0.120014 0.816722
1256 4 0.211386 0.115799 0.804618
838 2 0.248014 0.125142 0.827093
1111 2 0.369562 0.0934508 0.79709
1112 4 0.363866 0.112297 0.812503
818 4 0.351931 0.112464 0.829518
844 2 0.455545 0.0865262 0.756723
3270 4 0.488965 0.151626 0.764407
1146 4 0.486799 0.164199 0.779365
1129 2 0.1675 0.211948 0.761465
34 3 0.129356 0.177249 0.8294
1131 4 0.17829 0.212333 0.784017
1277 4 0.16481 0.212572 0.798509
1276 2 0.170786 0.199064 0.818684
822 4 0.177233 0.227301 0.796688
977 4 0.293405 0.205952 0.759203
918 4 0.292126 0.224283 0.754272
1298 4 0.292705 0.21922 0.77317
1297 2 0.309189 0.213808 0.791176
1299 4 0.325672 0.208396 0.809181
1086 4 0.33157 0.205409 0.827518
50 3 0.400929 0.201803 0.801971
46 1 0.423664 0.200666 0.802659
49 3 0.432783 0.221405 0.797644
1043 4 0.439974 0.212064 0.779568
48 3 0.430617 0.193838 0.823717
47 3 0.43096 0.185376 0.787098
1263 4 0.432321 0.196416 0.771487
1145 4 0.447085 0.194585 0.779822
1144 2 0.466942 0.179392 0.779594
1042 2 0.453003 0.230202 0.768323
3275 4 0.0137861 0.343907 0.790716
3188 4 0.998217 0.266089 0.761275
3187 2 0.999284 0.273589 0.785103
1236 4 0.248219 0.324765 0.754729
821 4 0.183806 0.276772 0.799868
820 2 0.18052 0.252037 0.798278
1044 4 0.466033 0.248339 0.757078
1165 2 0.494086 0.265612 0.776293
1166 4 0.471594 0.265216 0.765376
894 4 0.0677375 0.357462 0.760563
3276 4 0.0581336 0.362395 0.776852
3274 2 0.0359598 0.353151 0.783784
816 4 0.0775035 0.365866 0.774693
814 2 0.0981808 0.379921 0.774977
942 4 0.133466 0.382229 0.770186
815 4 0.118858 0.393976 0.775261
1080 4 0.133136 0.388916 0.787707