ITEM: TIMESTEP
2100000
ITEM: NUMBER OF ATOMS
4590
ITEM: BOX BOUNDS pp pp pp
-9.9985700000000008e+00 9.9985700000000008e+00
-9.9985700000000008e+00 9.9985700000000008e+00
-9.9985700000000008e+00 9.9985700000000008e+00
ITEM: ATOMS id type xs ys zs
465 4 0.0811481 0.0674178 0.0200592
463 2 0.0685114 0.0848597 0.0327585
701 4 0.0838897 0.0498421 0.0102438
700 2 0.105262 0.0424469 0.0209081
702 4 0.126634 0.0350518 0.0315725
566 4 0.137443 0.0506659 0.0281405
565 2 0.15523 0.0682334 0.0285467
2264 4 0.26194 0.00360775 0.0328389
2263 2 0.273622 0.0133621 0.0130006
491 4 0.2739 0.999983 0.0475902
746 4 0.468916 0.0497675 0.0244122
2469 4 0.485225 0.0451981 0.0350781
2467 2 0.49304 0.0227008 0.0426923
464 4 0.0558746 0.102302 0.0454577
590 4 0.038407 0.0937442 0.048132
589 2 0.0218054 0.0980614 0.0663234
567 4 0.173018 0.0858008 0.028953
558 4 0.327397 0.128839 0.0670702
556 2 0.344336 0.119201 0.082734
554 4 0.0403082 0.197022 0.0485324
553 2 0.0559562 0.210178 0.0341369
555 4 0.0716043 0.223335 0.0197414
835 2 0.11364 0.214208 0.0169543
836 4 0.0910397 0.224217 0.0207253
738 4 0.151252 0.180866 0.0691675
837 4 0.136241 0.204199 0.0131834
915 4 0.155408 0.210752 0.0113897
865 2 0.354401 0.16348 0.00765142
664 2 0.347226 0.214462 0.0501777
665 4 0.348853 0.194333 0.0354341
666 4 0.3456 0.23459 0.0649212
867 4 0.343389 0.182729 0.0192015
1070 4 0.461144 0.209924 0.0552155
1069 2 0.443488 0.22757 0.0566505
770 4 0.496051 0.17759 0.0723413
1071 4 0.425832 0.245216 0.0580855
2806 2 0.00844194 0.300511 0.0271659
2808 4 0.0211756 0.311451 0.00863615
294 4 0.107908 0.311032 0.0450577
292 2 0.132841 0.309747 0.0464263
293 4 0.157774 0.308461 0.0477949
507 4 0.178296 0.305889 0.0445483
505 2 0.185685 0.327845 0.0351399
356 4 0.305771 0.302111 0.0405694
572 4 0.304958 0.282444 0.0385102
571 2 0.322062 0.267195 0.0485162
355 2 0.295347 0.323609 0.0331986
461 4 0.351665 0.250469 0.0738899
573 4 0.339165 0.251946 0.0585221
324 4 0.424971 0.263224 0.0517178
322 2 0.429684 0.287777 0.0513636
323 4 0.434397 0.31233 0.0510094
672 4 0.442064 0.325449 0.0638927
647 4 0.0231245 0.372475 0.0609255
646 2 0.0466879 0.371142 0.069182
620 4 0.0038994 0.363866 0.0606306
506 4 0.193074 0.349801 0.0257315
483 4 0.208539 0.350188 0.0137574
481 2 0.225202 0.36821 0.0185199
482 4 0.241866 0.386233 0.0232824
625 2 0.215135 0.405914 0.0811922
609 4 0.249623 0.398517 0.0368381
357 4 0.284924 0.345108 0.0258278
902 4 0.285942 0.350949 0.00622329
957 4 0.383005 0.397774 0.0119171
670 2 0.454561 0.346705 0.0680414
281 4 0.465676 0.386162 0.0792498
671 4 0.467057 0.367961 0.0721901
280 2 0.47161 0.409845 0.0738563
1787 4 0.0927653 0.496084 0.0711909
1786 2 0.0906091 0.506571 0.0485954
246 4 0.23705 0.477471 0.0423518
244 2 0.224565 0.458272 0.0523868
245 4 0.21208 0.439072 0.0624217
627 4 0.223217 0.42878 0.0751111
272 4 0.250578 0.472546 0.0291844
1778 4 0.253429 0.488039 0.0404788
607 2 0.266522 0.415188 0.0289821
608 4 0.28342 0.431858 0.021126
252 4 0.298856 0.433092 0.00879997
250 2 0.315833 0.450882 0.0133277
251 4 0.33281 0.468671 0.0178555
271 2 0.255271 0.470549 0.00470661
525 4 0.379622 0.503346 0.0604418
2289 4 0.343147 0.485607 0.012326
282 4 0.477545 0.433528 0.0684629
226 2 0.490031 0.474681 0.0581084
228 4 0.499406 0.496089 0.0492214
227 4 0.480656 0.453273 0.0669955
16 1 0.0656201 0.049038 0.1418
20 3 0.0620764 0.0467771 0.119417
1806 4 0.0665027 0.00613185 0.152824
18 3 0.0669664 0.0281218 0.151755
19 3 0.0483649 0.0612615 0.151352
380 4 0.0381318 0.0784285 0.148739
17 3 0.0854354 0.0602024 0.145244
673 2 0.116209 0.0492687 0.164995
675 4 0.0969515 0.0454034 0.149523
448 2 0.166905 0.0719775 0.160063
654 4 0.301234 0.00462892 0.171099
484 2 0.363024 0.0167613 0.123987
295 2 0.35359 0.0672388 0.101136
297 4 0.356503 0.0424082 0.100765
485 4 0.35811 0.0409712 0.120125
379 2 0.0285352 0.092466 0.167071
579 4 0.0933505 0.102465 0.108025
237 4 0.14416 0.135801 0.118056
578 4 0.125035 0.139982 0.117474
577 2 0.109193 0.121223 0.112749
476 4 0.138263 0.15382 0.123011
737 4 0.137041 0.148645 0.104672
235 2 0.159744 0.120025 0.129607
475 2 0.123872 0.165305 0.139928
736 2 0.144146 0.164756 0.0869197
692 4 0.234758 0.118929 0.144031
236 4 0.175328 0.104249 0.141158
693 4 0.191412 0.0964086 0.133325
449 4 0.179391 0.0847376 0.142557
691 2 0.213085 0.107669 0.138678
582 4 0.244547 0.103224 0.152483
580 2 0.265597 0.106043 0.16568
557 4 0.361275 0.109562 0.0983977
296 4 0.350678 0.0920693 0.101507
477 4 0.109481 0.176789 0.156846
363 4 0.112055 0.195404 0.161812
283 2 0.320205 0.206946 0.128049
354 4 0.324489 0.245929 0.13253
285 4 0.310368 0.184591 0.122696
284 4 0.330042 0.229301 0.133402
462 4 0.335264 0.23995 0.119945
460 2 0.343464 0.245209 0.0969174
255 4 0.341407 0.241488 0.136177
253 2 0.361105 0.245438 0.151062
1014 4 0.485518 0.193768 0.0781455
311 4 0.465154 0.156889 0.143119
310 2 0.454483 0.177214 0.153029
455 4 0.091374 0.317343 0.111748
352 2 0.306573 0.259873 0.143007
353 4 0.288657 0.273816 0.153484
754 2 0.288193 0.314069 0.139094
755 4 0.291889 0.292803 0.151716
278 4 0.277503 0.287175 0.163426
756 4 0.284497 0.335334 0.126473
612 4 0.273866 0.331241 0.108894
610 2 0.249816 0.337029 0.105245
254 4 0.380804 0.249388 0.165947
648 4 0.0702512 0.369809 0.0774386
456 4 0.0837073 0.356684 0.081844
454 2 0.0875406 0.337014 0.0967961
626 4 0.207054 0.383047 0.0872733
611 4 0.225767 0.342817 0.101597
537 4 0.207282 0.33386 0.105147
535 2 0.198746 0.354791 0.0944617
536 4 0.190209 0.375723 0.0837764
741 4 0.398158 0.363971 0.10431
739 2 0.397263 0.37154 0.128123
740 4 0.396367 0.379109 0.151936
15 3 0.382233 0.371951 0.163273
385 2 0.364171 0.404828 0.155001
386 4 0.38442 0.390609 0.158603
495 4 0.40406 0.393616 0.162519
493 2 0.419031 0.413261 0.158631
2651 4 0.481752 0.376034 0.0802215
551 4 0.0552259 0.446373 0.0976951
1465 2 0.0162606 0.469238 0.091056
1466 4 0.0315386 0.486766 0.10025
1791 4 0.0420893 0.490289 0.116046
550 2 0.0714118 0.463655 0.0896624
1789 2 0.0461134 0.495873 0.140084
552 4 0.0875976 0.480938 0.0816297
242 4 0.103956 0.490117 0.0866854
241 2 0.114907 0.499066 0.107305
637 2 0.218654 0.487851 0.168269
767 4 0.245003 0.476704 0.140207
1439 4 0.185905 0.494745 0.162292
638 4 0.241425 0.486529 0.158028
303 4 0.294548 0.451043 0.134836
766 2 0.268988 0.47361 0.133859
768 4 0.292974 0.470516 0.127511
301 2 0.313313 0.440744 0.147758
302 4 0.332078 0.430445 0.16068
387 4 0.343923 0.419047 0.151398
494 4 0.434002 0.432906 0.154742
660 4 0.432767 0.451548 0.148694
658 2 0.439431 0.471424 0.162321
2480 4 0.00246116 0.000990266 0.232505
450 4 0.154419 0.0592175 0.177569
674 4 0.135465 0.053134 0.180468
1505 4 0.150818 0.0422632 0.185005
1504 2 0.161503 0.0235085 0.197625
1506 4 0.172189 0.00475374 0.210244
652 2 0.291785 0.0272848 0.175854
653 4 0.282336 0.0499407 0.180609
22 3 0.414689 0.0184052 0.195847
21 1 0.411359 0.0169597 0.218562
23 3 0.390883 0.0265536 0.223767
757 2 0.441856 0.0642331 0.217145
25 3 0.428094 0.0280473 0.229317
759 4 0.441361 0.0393499 0.219545
350 4 0.447108 0.0280011 0.233061
349 2 0.467774 0.0214068 0.245495
512 4 0.0304584 0.113598 0.199757
381 4 0.0189386 0.106504 0.185402
511 2 0.0463619 0.132297 0.204512
513 4 0.0622655 0.150995 0.209267
545 4 0.141646 0.149729 0.243407
581 4 0.286646 0.108862 0.178876
30 3 0.286447 0.128277 0.182708
26 1 0.292087 0.148612 0.191271
27 3 0.280132 0.152284 0.210577
28 3 0.286992 0.165323 0.176
29 3 0.314741 0.149089 0.196271
758 4 0.442351 0.0891162 0.214744
521 4 0.470166 0.132494 0.221328
520 2 0.487746 0.150213 0.222809
339 4 0.0633969 0.169396 0.202578
337 2 0.0822181 0.176317 0.187643
338 4 0.101039 0.183239 0.172709
362 4 0.144861 0.228153 0.180574
361 2 0.128458 0.211778 0.171193
372 4 0.145218 0.223624 0.200753
370 2 0.152517 0.244032 0.213219
723 4 0.220872 0.222626 0.23893
721 2 0.205312 0.208477 0.252454
628 2 0.411558 0.221194 0.167623
630 4 0.39801 0.242056 0.170149
312 4 0.443812 0.197539 0.162939
629 4 0.425106 0.200331 0.165097
750 4 0.0521451 0.299509 0.214495
395 4 0.05081 0.30337 0.234312
748 2 0.0662124 0.304001 0.194318
394 2 0.0301528 0.295387 0.245919
749 4 0.0802797 0.308493 0.174141
300 4 0.164325 0.329381 0.209563
298 2 0.144164 0.336828 0.22234
371 4 0.159817 0.264441 0.225685
279 4 0.238501 0.272752 0.191204
277 2 0.258002 0.279964 0.177315
307 2 0.312106 0.286063 0.200841
309 4 0.32186 0.276571 0.179867
308 4 0.302351 0.295556 0.221816
497 4 0.286246 0.306222 0.22924
765 4 0.394485 0.259593 0.176838
763 2 0.408342 0.278343 0.185872
764 4 0.422198 0.297093 0.194905
623 4 0.441804 0.29918 0.189986
622 2 0.466784 0.299341 0.188901
624 4 0.491763 0.299503 0.187816
528 4 0.496913 0.305946 0.169813
262 2 0.046864 0.387856 0.212082
263 4 0.0563777 0.366897 0.202316
602 4 0.0736021 0.356403 0.205527
264 4 0.0373503 0.408816 0.221848
299 4 0.124003 0.344275 0.235117
601 2 0.089822 0.346202 0.22159
603 4 0.106042 0.336 0.237653
290 4 0.181532 0.362836 0.178498
289 2 0.178004 0.384256 0.190905
14 3 0.411697 0.387197 0.18108
11 1 0.39565 0.370445 0.181613
12 3 0.406224 0.350016 0.181608
13 3 0.382909 0.372292 0.200917
2860 2 0.464822 0.406656 0.247539
2618 4 0.0249361 0.420068 0.233561
2617 2 0.00228909 0.425607 0.242595
291 4 0.174476 0.405676 0.203311
639 4 0.195882 0.489172 0.17851
416 4 0.181004 0.424922 0.205436
415 2 0.17971 0.449887 0.205951
1430 4 0.185637 0.491611 0.216724
417 4 0.178415 0.474852 0.206466
2861 4 0.45079 0.4207 0.23234
645 4 0.498684 0.456474 0.196648
659 4 0.446094 0.491301 0.175948
595 2 0.480922 0.484644 0.194118
596 4 0.464071 0.496378 0.179852
232 2 0.998629 0.0467701 0.294937
1799 4 0.0194375 0.00986253 0.300442
233 4 0.0126193 0.0260795 0.293773
1402 2 0.0560012 0.0210158 0.286077
1403 4 0.0312737 0.0210034 0.289782
1798 2 0.0171198 0.997907 0.322279
1404 4 0.0807287 0.0210281 0.282372
633 4 0.382819 0.0605869 0.30435
631 2 0.374002 0.0726036 0.284274
632 4 0.365185 0.0846203 0.264198
257 4 0.381156 0.0616836 0.323593
698 4 0.367533 0.0515055 0.313244
697 2 0.360722 0.0282209 0.319295
699 4 0.353911 0.00493631 0.325346
479 4 0.489581 0.0441947 0.329292
744 4 0.496485 0.00968241 0.275972
742 2 0.498994 0.0207854 0.298234
351 4 0.48844 0.0148126 0.25793
399 4 0.0537237 0.10958 0.324643
397 2 0.0715269 0.122419 0.312669
390 4 0.0836439 0.152582 0.305056
398 4 0.0893302 0.135259 0.300695
393 4 0.0881456 0.149482 0.287104
392 4 0.129997 0.149317 0.259734
391 2 0.109071 0.149399 0.273419
544 2 0.158254 0.166613 0.251426
249 4 0.213549 0.15505 0.32991
404 4 0.211507 0.169279 0.316524
444 4 0.0161532 0.234827 0.288347
388 2 0.0783464 0.175115 0.314511
389 4 0.0730489 0.197647 0.323967
403 2 0.198065 0.173444 0.295857
405 4 0.184622 0.17761 0.27519
546 4 0.174861 0.183497 0.259445
722 4 0.189753 0.194328 0.265977
378 4 0.289901 0.23791 0.316796
420 4 0.404863 0.217272 0.258514
717 4 0.394539 0.232822 0.2652
715 2 0.393016 0.253444 0.279257
331 2 0.462044 0.196452 0.309102
332 4 0.459833 0.204439 0.285513
418 2 0.429119 0.213134 0.262954
419 4 0.453375 0.208997 0.267394
760 2 0.488684 0.209923 0.25772
762 4 0.469653 0.19859 0.269321
333 4 0.464256 0.188464 0.332692
442 2 0.00766591 0.256672 0.279632
396 4 0.00949571 0.287403 0.257526
443 4 0.999179 0.278517 0.270918
365 4 0.00454258 0.297629 0.272858
677 4 0.129546 0.320155 0.315051
676 2 0.154387 0.320706 0.317849
733 2 0.121206 0.324586 0.273433
735 4 0.12223 0.317406 0.297362
401 4 0.216276 0.285681 0.253099
510 4 0.231995 0.300752 0.318119
508 2 0.212382 0.314328 0.325615
400 2 0.224331 0.291265 0.276101
402 4 0.232386 0.296848 0.299104
509 4 0.192769 0.327904 0.333111
345 4 0.239505 0.283668 0.312448
678 4 0.179227 0.321257 0.320647
496 2 0.28058 0.317097 0.251031
343 2 0.259852 0.269179 0.311337
344 4 0.2802 0.25469 0.310226
716 4 0.391494 0.274066 0.293313
542 4 0.372582 0.281611 0.29274
541 2 0.372098 0.303304 0.305164
543 4 0.371615 0.324998 0.317588
547 2 0.0227854 0.377214 0.305023
548 4 0.00447094 0.360498 0.308235
549 4 0.0410999 0.393931 0.301811
777 4 0.0605501 0.398594 0.304421
407 4 0.999975 0.357969 0.328448
734 4 0.120181 0.331765 0.249504
435 4 0.182048 0.339841 0.322433
498 4 0.274913 0.327972 0.272821
728 4 0.37042 0.384259 0.270501
615 4 0.370976 0.342383 0.326606
727 2 0.370563 0.398211 0.29125
729 4 0.370707 0.412164 0.311998
2862 4 0.478855 0.392612 0.262739
2537 4 0.496129 0.382851 0.263676
2538 4 0.485478 0.369271 0.310611
2536 2 0.490803 0.376061 0.287143
753 4 0.475727 0.351135 0.308
775 2 0.0739126 0.415639 0.316915
776 4 0.0872752 0.432684 0.329408
414 4 0.0948925 0.450233 0.338158
412 2 0.112557 0.467645 0.335004
413 4 0.130222 0.485057 0.33185
1543 2 0.17194 0.490371 0.329457
1545 4 0.196635 0.486456 0.329443
1435 2 0.21048 0.496544 0.291175
1436 4 0.209613 0.486667 0.314129
438 4 0.354763 0.478361 0.320491
436 2 0.3609 0.454863 0.314546
437 4 0.367037 0.431364 0.308602
1771 2 0.0214661 0.00776516 0.378306
1772 4 0.0311644 0.024979 0.393629
732 4 0.0726958 0.0567106 0.365032
2238 4 0.020611 0.0413335 0.396076
730 2 0.0646186 0.0750144 0.350036
367 2 0.0867595 0.0504476 0.392402
368 4 0.0890395 0.0322228 0.409368
369 4 0.0844794 0.0686725 0.375436
1701 4 0.161429 0.0878696 0.381524
256 2 0.387086 0.0698033 0.346486
258 4 0.393016 0.077923 0.369378
426 4 0.385505 0.0705488 0.385653
424 2 0.385071 0.0488971 0.398151
478 2 0.483011 0.0677401 0.334548
317 4 0.0397516 0.104329 0.336913
318 4 0.00887735 0.138417 0.356548
458 4 0.00428151 0.154952 0.36837
731 4 0.0565413 0.0933182 0.335039
316 2 0.0243145 0.121373 0.34673
604 2 0.128523 0.0968853 0.406587
605 4 0.146808 0.0841042 0.395296
247 2 0.214466 0.131326 0.337751
248 4 0.215384 0.107601 0.345593
1699 2 0.178484 0.0950687 0.364717
1700 4 0.195539 0.102268 0.34791
600 4 0.240112 0.158964 0.392533
683 4 0.247475 0.139747 0.389702
682 2 0.267937 0.130136 0.400384
319 2 0.322915 0.122518 0.397
320 4 0.305006 0.111206 0.410284
708 4 0.331309 0.15121 0.380688
321 4 0.340825 0.133831 0.383716
480 4 0.476441 0.0912855 0.339805
516 4 0.44514 0.13219 0.354107
575 4 0.458977 0.130037 0.370528
574 2 0.458824 0.122293 0.394301
514 2 0.450654 0.156407 0.351223
598 2 0.233236 0.177929 0.407306
376 2 0.295961 0.217616 0.330086
377 4 0.30202 0.197322 0.343376
707 4 0.310673 0.19214 0.360698
474 4 0.263454 0.234992 0.404497
706 2 0.320991 0.171675 0.370693
489 4 0.298012 0.189887 0.404062
487 2 0.285391 0.209883 0.412186
468 4 0.336601 0.224876 0.425313
515 4 0.456168 0.180624 0.348338
453 4 0.464914 0.197673 0.349922
451 2 0.482805 0.204211 0.366119
347 4 0.07267 0.322621 0.390367
408 4 0.0148778 0.315457 0.350158
618 4 0.0717224 0.319043 0.370134
275 4 0.128376 0.310483 0.367302
617 4 0.119884 0.327282 0.359491
616 2 0.0958033 0.323163 0.364812
274 2 0.15206 0.309416 0.375249
473 4 0.234223 0.271878 0.387595
374 4 0.216124 0.270159 0.377676
276 4 0.175743 0.308348 0.383195
373 2 0.205037 0.291515 0.384471
375 4 0.19395 0.312871 0.391266
472 2 0.248838 0.253435 0.396046
561 4 0.497157 0.329606 0.369759
752 4 0.48518 0.329899 0.352277
346 2 0.0608465 0.338077 0.406066
406 2 0.00742625 0.336713 0.339303
433 2 0.184977 0.362834 0.33181
434 4 0.187906 0.385826 0.341187
502 2 0.299868 0.3858 0.396441
503 4 0.305029 0.404765 0.380985
336 4 0.32444 0.409115 0.380363
504 4 0.294707 0.366836 0.411898
613 2 0.393302 0.353636 0.326292
334 2 0.348819 0.404574 0.383565
335 4 0.373197 0.400034 0.386767
240 4 0.387495 0.402443 0.399503
751 2 0.480453 0.340517 0.330139
614 4 0.415628 0.364889 0.325978
1544 4 0.147245 0.494286 0.329471
668 4 0.311126 0.459603 0.418384
669 4 0.311792 0.423171 0.384135
667 2 0.311459 0.441387 0.40126
3990 4 0.486614 0.495556 0.34018
1127 4 0.0109169 0.0639197 0.456067
2237 4 0.0116713 0.0685127 0.43709
2236 2 0.0161412 0.0549231 0.416583
720 4 0.0201771 0.0800796 0.450594
718 2 0.0420265 0.0777945 0.462534
719 4 0.0638759 0.0755095 0.474474
1780 2 0.085457 0.00773588 0.438344
1782 4 0.0983196 0.0165072 0.418778
724 2 0.29937 0.0383811 0.465725
726 4 0.30012 0.0603862 0.453876
725 4 0.298621 0.016376 0.477574
1182 4 0.31111 0.0769239 0.458777
963 4 0.287152 0.999572 0.477553
432 4 0.294954 0.00629944 0.49366
1579 2 0.362936 0.0127987 0.436694
1580 4 0.38349 0.0254735 0.430207
425 4 0.384637 0.0272454 0.410648
1581 4 0.342383 0.00012395 0.44318
642 4 0.455735 0.07447 0.469778
2878 2 0.461071 0.0423302 0.494964
2880 4 0.453314 0.0649227 0.487576
606 4 0.110238 0.109666 0.417877
1033 2 0.12067 0.136221 0.476278
1035 4 0.133881 0.141183 0.455638
261 4 0.152337 0.1433 0.449956
1034 4 0.107458 0.13126 0.496918
684 4 0.2884 0.120525 0.411065
1180 2 0.303079 0.0947516 0.443193
1181 4 0.295048 0.112579 0.427609
576 4 0.458671 0.11455 0.418075
640 2 0.461395 0.0902787 0.451251
641 4 0.467055 0.106087 0.432725
306 4 0.461411 0.125242 0.434147
304 2 0.45764 0.145039 0.448947
3157 2 0.472041 0.163218 0.500065
3158 4 0.45679 0.172234 0.482421
470 4 0.0158808 0.16554 0.48785
1259 4 0.0922239 0.257229 0.510939
259 2 0.159919 0.167124 0.45024
694 2 0.152074 0.208942 0.484632
695 4 0.164683 0.204736 0.463454
1258 2 0.105407 0.236056 0.509179
1260 4 0.118591 0.214884 0.507419
260 4 0.167501 0.190949 0.450523
599 4 0.226359 0.196894 0.422079
687 4 0.22853 0.209792 0.436518
686 4 0.182356 0.203366 0.454613
685 2 0.205443 0.206579 0.445566
411 4 0.237619 0.210094 0.453958
488 4 0.272769 0.22988 0.420311
267 4 0.340509 0.244787 0.418096
409 2 0.253281 0.20992 0.473447
410 4 0.268944 0.209746 0.492936
466 2 0.349801 0.204245 0.420284
467 4 0.363002 0.183614 0.415255
305 4 0.453869 0.164836 0.463747
585 4 0.493291 0.238621 0.472287
813 4 0.227754 0.285475 0.495037
265 2 0.347007 0.265956 0.429707
266 4 0.353504 0.287125 0.441319
583 2 0.488322 0.26077 0.482769
584 4 0.483353 0.28292 0.493252
348 4 0.049023 0.353534 0.421766
2812 2 0.0182673 0.3515 0.437928
2813 4 0.0369508 0.366754 0.431337
326 4 0.0559047 0.366275 0.434818
325 2 0.0770581 0.377809 0.441501
10 3 0.141151 0.369972 0.460024
327 4 0.0982115 0.389344 0.448184
7 3 0.104502 0.376441 0.462828
6 1 0.124076 0.373756 0.47461
711 4 0.141986 0.405796 0.493715
8 3 0.128205 0.393065 0.486796
9 3 0.121771 0.355671 0.488963
709 2 0.166561 0.40665 0.489186
774 4 0.210565 0.407857 0.486254
635 4 0.203074 0.403251 0.469171
710 4 0.191136 0.407504 0.484657
681 4 0.0846693 0.45246 0.496636
1383 4 0.0736426 0.472511 0.441589
1381 2 0.0660198 0.49421 0.431779
680 4 0.0636276 0.477611 0.458881
679 2 0.0741485 0.465035 0.477758
383 4 0.0888198 0.433169 0.50036
636 4 0.204623 0.441398 0.436874
634 2 0.203849 0.422324 0.453023
1 1 0.30382 0.494001 0.436206
4 3 0.315238 0.474482 0.431002
5 3 0.286964 0.489478 0.450837
586 2 0.403786 0.42698 0.472272
238 2 0.392544 0.418082 0.418347
239 4 0.397593 0.433721 0.437191
588 4 0.386805 0.428705 0.454
587 4 0.420766 0.425256 0.490544
3077 4 0.00779029 0.00559075 0.533203
1184 4 0.0057706 0.0102663 0.552414
1150 2 0.15625 0.0693874 0.533606
342 4 0.14657 0.0424906 0.503108
1152 4 0.154045 0.0604178 0.510371
340 2 0.160189 0.0222227 0.508486
1151 4 0.158456 0.078357 0.556841
1155 4 0.16267 0.0860744 0.574524
1059 4 0.158664 0.0666794 0.572177
341 4 0.173807 0.00195481 0.513864
430 2 0.313029 0.0103382 0.510457
843 4 0.323884 0.00901981 0.544483
841 2 0.33449 0.0152115 0.566262
431 4 0.331105 0.014377 0.527254
2879 4 0.468828 0.0197377 0.502353
879 4 0.0671839 0.15027 0.561655
877 2 0.0433142 0.14297 0.563111
1199 4 0.000290568 0.133527 0.564434
878 4 0.0194445 0.13567 0.564568
938 4 0.078231 0.162656 0.55086
937 2 0.0899999 0.153785 0.530662
939 4 0.101769 0.144914 0.510464
3159 4 0.487292 0.154201 0.517708
1272 4 0.0764273 0.165459 0.569678
1270 2 0.091887 0.182496 0.579472
696 4 0.139465 0.213147 0.50581
898 2 0.288629 0.201066 0.525369
899 4 0.298014 0.206748 0.547837
900 4 0.279245 0.195383 0.502901
791 4 0.307054 0.213286 0.563652
790 2 0.325504 0.230143 0.562857
857 4 0.291478 0.202075 0.566135
792 4 0.343954 0.247 0.562062
811 2 0.237916 0.30303 0.509657
812 4 0.248079 0.320584 0.524277
650 4 0.256558 0.324684 0.54177
649 2 0.262388 0.313748 0.563486
804 4 0.241739 0.335241 0.534862
651 4 0.268217 0.302812 0.585203
871 2 0.352649 0.282459 0.539846
872 4 0.354142 0.261733 0.553753
1238 4 0.3481 0.263471 0.5721
873 4 0.351157 0.303185 0.52594
2455 2 0.495409 0.304407 0.516021
2457 4 0.498896 0.3283 0.522513
2456 4 0.491922 0.280515 0.509529
1136 4 0.115743 0.384733 0.557417
1135 2 0.135814 0.37907 0.571211
897 4 0.169818 0.384774 0.576522
773 4 0.247729 0.40028 0.518845
1189 2 0.240434 0.408246 0.558245
803 4 0.250865 0.383781 0.527036
772 2 0.229147 0.404069 0.502549
1190 4 0.251165 0.40035 0.537086
802 2 0.246302 0.359511 0.530949
930 4 0.266063 0.396502 0.525473
928 2 0.285911 0.41019 0.51885
926 4 0.424906 0.412014 0.504157
925 2 0.431441 0.391596 0.517025
927 4 0.437976 0.371178 0.529894
992 4 0.04225 0.430146 0.569302
384 4 0.137983 0.424873 0.496499
382 2 0.113401 0.429021 0.498429
569 4 0.143163 0.443284 0.491451
568 2 0.159345 0.460549 0.499529
1191 4 0.229703 0.416142 0.579403
570 4 0.175527 0.477814 0.507607
1160 4 0.193647 0.491708 0.579141
889 2 0.28828 0.490664 0.52966
929 4 0.30576 0.423877 0.512227
891 4 0.311879 0.482602 0.527845
1952 4 0.326675 0.476459 0.51676
881 4 0.316337 0.492632 0.511418
1951 2 0.325809 0.451484 0.515922
1953 4 0.324942 0.42651 0.515085
1000 2 0.40755 0.494881 0.562344
663 4 0.422569 0.431152 0.509052
1001 4 0.425027 0.477676 0.55747
661 2 0.427363 0.449104 0.525782
662 4 0.432157 0.467057 0.542513
1911 4 0.437555 0.463689 0.56092
1332 4 0.443948 0.479862 0.551761
1330 2 0.460826 0.492949 0.538759
945 4 0.0491289 0.00146261 0.652462
1058 4 0.159736 0.0353917 0.611172
2375 4 0.159528 0.0134323 0.611007
1057 2 0.1592 0.0510356 0.591674
950 4 0.244744 0.0220606 0.647054
949 2 0.263789 0.0381264 0.649137
951 4 0.282834 0.0541923 0.65122
1031 4 0.27826 0.0706467 0.641349
842 4 0.345096 0.0214033 0.588042
1217 4 0.360995 0.0328074 0.589627
1216 2 0.384884 0.0259829 0.586811
1218 4 0.408773 0.0191584 0.583994
43 3 0.432177 0.0692674 0.650953
810 4 0.471914 0.0818017 0.665442
1083 4 0.0257378 0.137181 0.653022
3179 4 0.0218053 0.155326 0.648259
1081 2 0.0221843 0.118722 0.669509
1284 4 0.136921 0.0918794 0.64925
1221 4 0.166962 0.142887 0.615037
1153 2 0.163614 0.105806 0.589852
1154 4 0.164558 0.125537 0.605181
1219 2 0.17967 0.16224 0.624478
1030 2 0.287556 0.0934563 0.645648
1032 4 0.296852 0.116266 0.649948
808 2 0.486499 0.0809978 0.645149
1209 4 0.0877349 0.204251 0.652918
1245 4 0.0921353 0.219593 0.641656
1271 4 0.107347 0.199533 0.589265
1243 2 0.10635 0.209871 0.623529
1244 4 0.120565 0.200149 0.605401
1210 2 0.231488 0.179302 0.654083
1212 4 0.208606 0.178281 0.644056
1220 4 0.192378 0.181593 0.633919
797 4 0.194912 0.233216 0.61094
796 2 0.19837 0.21471 0.627395
798 4 0.201828 0.196205 0.64385
858 4 0.281087 0.177273 0.608297
856 2 0.286283 0.189674 0.587216
1193 4 0.39107 0.232426 0.671386
3121 2 0.478035 0.215237 0.626369
3122 4 0.489241 0.195007 0.635873
3123 4 0.46683 0.235468 0.616864
983 4 0.04402 0.301186 0.592412
982 2 0.0528064 0.314407 0.61173
3263 4 0.0621349 0.333311 0.649426
805 2 0.291294 0.296936 0.611461
806 4 0.270957 0.309398 0.60396
807 4 0.311632 0.284473 0.618962
1239 4 0.331082 0.286603 0.613039
1237 2 0.339591 0.275037 0.59257
905 4 0.477018 0.249986 0.608905
906 4 0.471867 0.297574 0.594428
904 2 0.474442 0.27378 0.601666
952 2 0.480525 0.330364 0.593855
953 4 0.464914 0.314228 0.604861
984 4 0.0615928 0.327628 0.631048
1041 4 0.0620002 0.347022 0.635853
1039 2 0.0520315 0.369573 0.631698
1040 4 0.0420629 0.392124 0.627543
993 4 0.0441426 0.399152 0.608501
991 2 0.0431963 0.414649 0.588902
1137 4 0.155885 0.373407 0.585005
895 2 0.19107 0.397167 0.580984
896 4 0.212322 0.409561 0.585447
1027 2 0.200406 0.416337 0.655892
1206 4 0.493374 0.412097 0.620874
3309 4 0.498306 0.409665 0.602178
1172 4 0.216735 0.428336 0.588105
1171 2 0.206789 0.451255 0.587112
1029 4 0.217835 0.429833 0.644092
1173 4 0.196842 0.474173 0.586119
1188 4 0.186764 0.495175 0.64776
1187 4 0.195536 0.488183 0.599027
1186 2 0.19115 0.491679 0.623393
1175 4 0.196621 0.491799 0.666549
1268 4 0.407276 0.478992 0.643119
2168 4 0.414856 0.485831 0.660794
1909 2 0.441701 0.452738 0.583012
1267 2 0.421326 0.461575 0.631965
1204 2 0.469877 0.420634 0.620468
1910 4 0.445847 0.441787 0.605105
1269 4 0.435376 0.444158 0.620811
1205 4 0.446379 0.429171 0.620063
1296 4 0.024224 0.0223363 0.725969
1226 4 0.164231 0.0818672 0.737628
1201 2 0.180228 0.0455783 0.749507
1202 4 0.185904 0.0212298 0.749843
2256 4 0.201796 0.0102147 0.752053
2049 4 0.184085 0.00174077 0.750825
1003 2 0.335539 0.0212819 0.6786
1005 4 0.335618 0.04577 0.67355
1004 4 0.335461 0.996794 0.68365
1164 4 0.499384 0.0474324 0.716646
45 3 0.438848 0.0487591 0.681816
1162 2 0.4858 0.0588188 0.69901
41 1 0.437136 0.0699341 0.67361
1163 4 0.472217 0.0702052 0.681374
44 3 0.457026 0.0813833 0.677032
1077 4 0.0296472 0.101141 0.745194
1075 2 0.0190558 0.105604 0.722988
1076 4 0.00846453 0.110066 0.700783
1082 4 0.0186309 0.100263 0.685996
864 4 0.0376683 0.119136 0.746457
851 4 0.0827573 0.172125 0.7045
1282 2 0.127594 0.0956165 0.672146
909 4 0.0930257 0.157293 0.698195
907 2 0.101851 0.134434 0.703173
908 4 0.110676 0.111575 0.70815
1283 4 0.118268 0.0993537 0.695042
1227 4 0.123801 0.097861 0.712922
1225 2 0.144016 0.0898641 0.725275
1148 4 0.180837 0.088656 0.744442
888 4 0.26642 0.164212 0.666851
886 2 0.275715 0.164236 0.690063
829 2 0.32154 0.146795 0.729293
830 4 0.29838 0.152404 0.72172
887 4 0.28501 0.16426 0.713274
978 4 0.282266 0.158187 0.731424
831 4 0.3447 0.141185 0.736865
1142 4 0.362784 0.143694 0.73063
1141 2 0.377627 0.160787 0.720013
42 3 0.420214 0.0809753 0.684605
1025 4 0.454871 0.15285 0.699831
3424 2 0.469486 0.112947 0.691083
3426 4 0.473017 0.0892411 0.683958
3425 4 0.465956 0.136652 0.698208
3269 4 0.47218 0.152523 0.708006
3268 2 0.478725 0.164722 0.728827
1215 4 0.999967 0.202494 0.745192
852 4 0.039881 0.169463 0.730098
850 2 0.0613192 0.170794 0.717299
780 4 0.0941279 0.243406 0.70353
1214 4 0.0339376 0.165918 0.748182
1213 2 0.016952 0.184206 0.746687
1208 4 0.0973122 0.175777 0.692895
1207 2 0.0925235 0.190014 0.672906
1107 4 0.101436 0.16947 0.711015
1105 2 0.119226 0.183798 0.721184
1106 4 0.137016 0.198126 0.731353
1130 4 0.130993 0.21516 0.735609
1129 2 0.150333 0.218511 0.751098
1211 4 0.25437 0.180323 0.664111
976 2 0.282359 0.179549 0.744418
1194 4 0.400252 0.193083 0.700857
1192 2 0.395661 0.212754 0.686122
1143 4 0.39247 0.17788 0.709397
1262 4 0.406125 0.188237 0.718654
1026 4 0.411117 0.176734 0.703814
1261 2 0.413047 0.19637 0.741262
1024 2 0.432994 0.164792 0.701822
3262 2 0.0624521 0.316482 0.667916
3264 4 0.0627692 0.299653 0.686406
779 4 0.0641231 0.282461 0.694862
778 2 0.0791255 0.262933 0.699196
893 4 0.061583 0.298558 0.706265
892 2 0.058806 0.314781 0.725087
894 4 0.0560289 0.331005 0.743909
947 4 0.312872 0.258901 0.714565
1063 2 0.254031 0.318246 0.701544
946 2 0.292964 0.272461 0.707859
948 4 0.273056 0.286022 0.701153
1064 4 0.254622 0.29325 0.701363
917 4 0.30813 0.250851 0.731377
1008 4 0.418778 0.260668 0.716715
1006 2 0.43122 0.26662 0.737571
1067 4 0.147265 0.399027 0.708216
940 2 0.121787 0.395279 0.739196
941 4 0.13221 0.405177 0.718737
1066 2 0.155678 0.395988 0.684868
1068 4 0.164091 0.392948 0.661519
1028 4 0.182976 0.402841 0.667692
1065 4 0.253441 0.343242 0.701726
1019 4 0.398574 0.408798 0.752219
1280 4 0.0119263 0.485506 0.71045
1176 4 0.16736 0.458643 0.689898
1174 2 0.18199 0.475221 0.678223
1139 4 0.309657 0.483891 0.711571
1138 2 0.32424 0.474815 0.72974
1140 4 0.338823 0.465739 0.74791
1230 4 0.388826 0.425152 0.747773
1100 4 0.406538 0.420501 0.739979
1101 4 0.444524 0.452962 0.737976
1099 2 0.425531 0.436731 0.738977
3330 4 0.464279 0.451212 0.733098
1251 4 0.457884 0.461657 0.747841
3328 2 0.482765 0.445981 0.717095
3329 4 0.501251 0.44075 0.701092
1294 2 0.0154207 0.0103044 0.746042
911 4 0.108239 0.0773912 0.838775
1203 4 0.174553 0.0699268 0.749171
1111 2 0.360481 0.0770267 0.834999
2321 4 0.445515 0.996779 0.80111
2322 4 0.443581 0.0434805 0.783336
2320 2 0.444548 0.0201296 0.792223
846 4 0.458519 0.0532494 0.772149
844 2 0.457878 0.0754623 0.760688
862 2 0.0472332 0.123008 0.769232
863 4 0.0567981 0.12688 0.792007
833 4 0.0449747 0.122541 0.806471
1125 4 0.0492175 0.141736 0.801865
1123 2 0.0648161 0.156914 0.814174
832 2 0.0425263 0.107212 0.826072
34 3 0.12884 0.161035 0.819352
1124 4 0.0804146 0.172091 0.826482
1147 2 0.199855 0.104028 0.749655
1149 4 0.218874 0.119401 0.754867
1257 4 0.237616 0.119796 0.763647
1255 2 0.245613 0.117569 0.787232
921 4 0.221126 0.143164 0.796954
919 2 0.215279 0.162155 0.812131
1256 4 0.25361 0.115342 0.810818
840 4 0.254799 0.113428 0.831285
1112 4 0.353408 0.0947696 0.818864
3270 4 0.48527 0.176921 0.749649
845 4 0.457237 0.0976752 0.749227
822 4 0.170721 0.235546 0.78102
1131 4 0.169674 0.221862 0.766586
1277 4 0.166732 0.216568 0.785287
1276 2 0.182231 0.205045 0.801167
1278 4 0.197731 0.193523 0.817047
920 4 0.209433 0.181146 0.827308
916 2 0.299343 0.233912 0.747534
977 4 0.282452 0.20091 0.757412
918 4 0.290557 0.216974 0.763691
1298 4 0.292718 0.200332 0.773153
1297 2 0.306231 0.200477 0.79419
1299 4 0.319744 0.200621 0.815227
1086 4 0.339558 0.200591 0.820321
50 3 0.385238 0.214264 0.791411
46 1 0.406574 0.211839 0.798995
49 3 0.416213 0.232682 0.802318
48 3 0.4066 0.199842 0.818857
3468 4 0.498044 0.178725 0.763876
47 3 0.418916 0.200347 0.78335
1263 4 0.419969 0.204502 0.76387
1146 4 0.479352 0.183312 0.767635
1145 4 0.435126 0.205677 0.774314
1144 2 0.457239 0.194494 0.770975
1022 4 0.412229 0.181335 0.823296
3188 4 0.00472204 0.266279 0.785645
3187 2 0.0288308 0.259892 0.787422
3189 4 0.0529395 0.253506 0.789199
3276 4 0.0419383 0.335224 0.756371
821 4 0.18625 0.282807 0.786119
820 2 0.178485 0.259177 0.783569
1098 4 0.234828 0.306979 0.804291
1235 4 0.221564 0.322413 0.80191
1043 4 0.410144 0.25157 0.805984
1042 2 0.42684 0.263631 0.791809
1044 4 0.443537 0.275692 0.777634
1007 4 0.443663 0.272571 0.758426
1165 2 0.482799 0.270686 0.774748
1166 4 0.460175 0.278029 0.76704
814 2 0.0750079 0.364994 0.756297