ITEM: TIMESTEP
1900000
ITEM: NUMBER OF ATOMS
4590
ITEM: BOX BOUNDS pp pp pp
-9.9985700000000008e+00 9.9985700000000008e+00
-9.9985700000000008e+00 9.9985700000000008e+00
-9.9985700000000008e+00 9.9985700000000008e+00
ITEM: ATOMS id type xs ys zs
701 4 0.0720764 0.0587065 0.0268927
465 4 0.0582355 0.0542754 0.0130257
463 2 0.0480569 0.0761017 0.0197479
700 2 0.0951317 0.0574302 0.0364845
702 4 0.118187 0.0561538 0.0460763
566 4 0.135206 0.0529261 0.0367281
565 2 0.153634 0.0684447 0.0300386
2264 4 0.267255 0.0113271 0.0419545
2263 2 0.261489 0.0289604 0.0251916
2265 4 0.255723 0.0465937 0.00842872
746 4 0.463833 0.061538 0.0229427
2469 4 0.472033 0.0475089 0.0339359
2467 2 0.477606 0.0243874 0.041651
745 2 0.456852 0.0606458 0.99895
464 4 0.0378782 0.0979279 0.0264702
590 4 0.0258332 0.100101 0.0425722
589 2 0.0122595 0.102204 0.063465
567 4 0.172062 0.0839633 0.023349
558 4 0.315189 0.115399 0.0422708
556 2 0.32229 0.110352 0.0657076
865 2 0.364569 0.161931 0.018538
771 4 0.473761 0.131718 0.0615956
769 2 0.486616 0.149491 0.0735978
554 4 0.0327905 0.219564 0.0389722
553 2 0.0538283 0.231677 0.0329835
555 4 0.0748661 0.24379 0.0269948
837 4 0.133132 0.219783 0.00512164
835 2 0.110545 0.22994 0.00855817
836 4 0.087957 0.240097 0.0119947
666 4 0.335338 0.234142 0.0519803
461 4 0.34007 0.237327 0.0710674
867 4 0.369551 0.175782 0.0387499
573 4 0.332599 0.251428 0.0605353
664 2 0.345499 0.211712 0.0476408
665 4 0.355661 0.189283 0.0433013
1070 4 0.409177 0.21592 0.0257895
1069 2 0.409073 0.23462 0.0423871
770 4 0.49947 0.167265 0.0856001
2808 4 0.00265775 0.287754 0.998501
294 4 0.0882622 0.303822 0.055467
292 2 0.10891 0.31515 0.0470693
293 4 0.129557 0.326479 0.0386715
356 4 0.313124 0.307798 0.0360337
572 4 0.326 0.292066 0.0321491
355 2 0.308416 0.323739 0.0173548
571 2 0.3293 0.271747 0.0463422
1071 4 0.408969 0.25332 0.0589847
324 4 0.411696 0.27382 0.0590642
322 2 0.422788 0.296085 0.0615999
672 4 0.430248 0.338504 0.0648365
323 4 0.433879 0.31835 0.0641357
620 4 0.0072397 0.37751 0.0642431
647 4 0.0230916 0.36765 0.0736341
646 2 0.0397154 0.350718 0.081517
507 4 0.142719 0.324455 0.0533147
505 2 0.165075 0.335602 0.0543833
483 4 0.181036 0.365184 0.0509733
506 4 0.187431 0.346749 0.0554519
481 2 0.202559 0.372703 0.0407061
609 4 0.232676 0.397229 0.0261244
482 4 0.224082 0.380222 0.030439
607 2 0.254352 0.409396 0.0288251
357 4 0.303709 0.33968 0.998676
608 4 0.276028 0.421564 0.0315259
957 4 0.391204 0.403255 0.0071497
670 2 0.447963 0.355907 0.067752
281 4 0.471948 0.392092 0.0719861
671 4 0.465678 0.373309 0.0706674
2651 4 0.4845 0.376874 0.0722375
1467 4 0.00617862 0.444225 0.0852196
551 4 0.0708849 0.438032 0.0797675
552 4 0.0979085 0.478482 0.0681825
1787 4 0.111546 0.492027 0.0633738
550 2 0.0843967 0.458257 0.073975
1788 4 0.122488 0.491996 0.0145784
1786 2 0.117017 0.492012 0.0389761
242 4 0.103946 0.490613 0.0816086
246 4 0.244803 0.481126 0.0340119
244 2 0.243428 0.465966 0.0538477
245 4 0.242053 0.450806 0.0736835
272 4 0.248719 0.482093 0.0151584
627 4 0.23779 0.432566 0.0696418
252 4 0.283591 0.43229 0.0166638
250 2 0.300673 0.447227 0.00616288
280 2 0.470451 0.41705 0.071865
282 4 0.468955 0.442009 0.071744
226 2 0.477797 0.481104 0.0537886
228 4 0.486907 0.498995 0.0388847
227 4 0.468687 0.463214 0.0686924
16 1 0.0734311 0.057751 0.137556
20 3 0.0731386 0.0583884 0.114793
1806 4 0.0471614 0.0261971 0.149444
18 3 0.0583272 0.0418943 0.145227
1804 2 0.049238 0.0115 0.129322
19 3 0.0680388 0.0786269 0.14613
380 4 0.0566413 0.0736304 0.161279
17 3 0.0945252 0.0519981 0.144704
450 4 0.163628 0.0428027 0.164785
673 2 0.120757 0.0386795 0.162563
675 4 0.0959389 0.0403627 0.160027
448 2 0.170352 0.064819 0.155026
652 2 0.316965 0.0316758 0.149982
654 4 0.303747 0.0118293 0.157504
653 4 0.330183 0.0515223 0.14246
484 2 0.377382 0.00519873 0.115568
295 2 0.344579 0.0663065 0.103831
297 4 0.354421 0.0440203 0.109455
485 4 0.368496 0.0283888 0.112663
579 4 0.0851984 0.10789 0.100969
237 4 0.142621 0.137279 0.12263
578 4 0.126904 0.132522 0.113402
577 2 0.106051 0.120206 0.107186
476 4 0.126169 0.147135 0.125138
737 4 0.136698 0.14909 0.10933
736 2 0.144495 0.16468 0.0914042
235 2 0.159956 0.120333 0.128758
475 2 0.115592 0.163253 0.141061
236 4 0.17729 0.103388 0.134885
693 4 0.193047 0.0916066 0.134476
449 4 0.177077 0.0868353 0.145266
691 2 0.217077 0.0933953 0.141152
692 4 0.241106 0.0951841 0.147827
582 4 0.26099 0.089324 0.147589
557 4 0.329391 0.105305 0.0891444
296 4 0.334736 0.0885927 0.0982068
311 4 0.417766 0.146321 0.126574
310 2 0.429743 0.163574 0.140141
339 4 0.0419591 0.18952 0.166285
337 2 0.066951 0.189413 0.167041
738 4 0.152292 0.180271 0.0734789
477 4 0.105016 0.17937 0.156985
338 4 0.091943 0.189307 0.167797
283 2 0.315605 0.201865 0.139097
354 4 0.326902 0.241537 0.13353
285 4 0.306947 0.179419 0.145909
284 4 0.324263 0.22431 0.132285
460 2 0.337429 0.234467 0.0957661
462 4 0.334789 0.231607 0.120465
255 4 0.340008 0.230458 0.137059
254 4 0.383391 0.242891 0.1586
253 2 0.3617 0.236674 0.147829
630 4 0.395303 0.229284 0.164619
1012 2 0.49468 0.197461 0.103167
1013 4 0.478709 0.214209 0.112633
312 4 0.441719 0.180827 0.153708
352 2 0.307449 0.256328 0.138819
353 4 0.287995 0.271118 0.144109
754 2 0.281327 0.305289 0.149465
755 4 0.286602 0.282975 0.159435
278 4 0.275758 0.266247 0.158821
756 4 0.276052 0.327604 0.139495
277 2 0.252361 0.257644 0.156892
456 4 0.075671 0.33206 0.0965775
648 4 0.0563392 0.333786 0.0893999
454 2 0.0961911 0.346344 0.0968479
455 4 0.116711 0.360628 0.0971182
626 4 0.206654 0.403191 0.0954951
537 4 0.214569 0.344256 0.0933999
535 2 0.205663 0.366818 0.0994673
611 4 0.231263 0.339903 0.103102
610 2 0.253897 0.339142 0.1137
536 4 0.196757 0.38938 0.105535
612 4 0.276531 0.33838 0.124297
741 4 0.39115 0.35699 0.101847
739 2 0.390759 0.369501 0.123492
740 4 0.390368 0.382012 0.145137
15 3 0.383043 0.372522 0.160901
385 2 0.357117 0.400972 0.157026
386 4 0.380145 0.391348 0.158539
495 4 0.398235 0.397677 0.155355
387 4 0.334089 0.410596 0.155512
1465 2 0.0210603 0.463165 0.0919258
1466 4 0.0359419 0.482106 0.098632
1791 4 0.0339886 0.488593 0.119107
625 2 0.222222 0.417879 0.0825685
637 2 0.216254 0.482668 0.154662
638 4 0.237239 0.469157 0.156155
639 4 0.195268 0.49618 0.15317
1439 4 0.175101 0.49334 0.161012
303 4 0.296697 0.444068 0.136085
766 2 0.265794 0.457491 0.150067
768 4 0.28421 0.45915 0.133236
301 2 0.317843 0.437059 0.147439
302 4 0.338988 0.430051 0.158793
493 2 0.408038 0.417887 0.144373
494 4 0.41784 0.438098 0.133391
660 4 0.425989 0.456722 0.130429
658 2 0.434426 0.4706 0.14944
2480 4 0.0123786 0.0092982 0.21144
379 2 0.0548911 0.0887506 0.181116
1505 4 0.155991 0.0361775 0.181694
674 4 0.145574 0.0369964 0.165098
1504 2 0.167908 0.0336474 0.203528
689 4 0.187362 0.0136963 0.226704
1506 4 0.179825 0.0311173 0.225363
1661 4 0.315247 0.00073281 0.168744
22 3 0.397176 0.00950617 0.202084
21 1 0.40812 0.0072067 0.222185
23 3 0.394073 0.0143166 0.23923
758 4 0.417375 0.0839687 0.214801
757 2 0.424158 0.0608978 0.22165
25 3 0.427042 0.0198769 0.221917
759 4 0.43094 0.0378269 0.228499
350 4 0.444263 0.0240426 0.230894
349 2 0.461055 0.0149971 0.247061
512 4 0.0427147 0.117747 0.209796
381 4 0.0531409 0.103871 0.200953
511 2 0.0556646 0.138715 0.205574
513 4 0.0686144 0.159683 0.201353
545 4 0.135955 0.153059 0.248714
580 2 0.27485 0.0962983 0.167195
581 4 0.288711 0.103273 0.186802
30 3 0.298526 0.119114 0.196401
26 1 0.310844 0.138247 0.197318
29 3 0.333409 0.13324 0.195287
27 3 0.307311 0.14857 0.217569
28 3 0.304366 0.152656 0.180323
521 4 0.468032 0.143258 0.212321
520 2 0.488925 0.156523 0.215886
363 4 0.108791 0.183379 0.175925
362 4 0.122882 0.21349 0.213281
361 2 0.115836 0.198434 0.194603
372 4 0.136152 0.227038 0.205065
370 2 0.147325 0.247581 0.213915
723 4 0.224175 0.196094 0.230752
721 2 0.209993 0.185391 0.248344
628 2 0.412975 0.211595 0.164714
765 4 0.400253 0.247815 0.167492
420 4 0.40747 0.232782 0.24563
629 4 0.430647 0.193907 0.164808
394 2 0.0458994 0.309132 0.24635
750 4 0.0718316 0.324619 0.215479
395 4 0.0638466 0.319096 0.232075
748 2 0.0786052 0.30781 0.198253
749 4 0.0853788 0.291001 0.181026
300 4 0.148481 0.321948 0.211375
371 4 0.158497 0.268124 0.222766
279 4 0.228963 0.24904 0.154963
307 2 0.308337 0.296135 0.205365
309 4 0.307148 0.278793 0.187392
308 4 0.309526 0.313476 0.223338
497 4 0.299485 0.323797 0.235666
763 2 0.411188 0.268286 0.176797
764 4 0.422123 0.288756 0.186102
623 4 0.436992 0.298243 0.195152
622 2 0.461794 0.298638 0.19201
624 4 0.486596 0.299033 0.188868
2617 2 0.0104277 0.41884 0.248373
2618 4 0.0189688 0.407019 0.228063
262 2 0.0438074 0.393686 0.208006
263 4 0.0644162 0.379563 0.206996
602 4 0.070224 0.371817 0.223151
264 4 0.0231985 0.407808 0.209017
298 2 0.13822 0.334245 0.230576
299 4 0.12796 0.346542 0.249777
601 2 0.0906894 0.363146 0.234604
290 4 0.183259 0.370163 0.202576
289 2 0.175709 0.391625 0.212947
291 4 0.168159 0.413087 0.223319
11 1 0.400317 0.374773 0.175571
12 3 0.414126 0.356454 0.173882
14 3 0.412525 0.393858 0.170557
13 3 0.392169 0.376051 0.197259
2861 4 0.448898 0.415328 0.242512
416 4 0.18543 0.421032 0.215704
415 2 0.187157 0.445941 0.214389
1430 4 0.196739 0.477868 0.230023
417 4 0.188883 0.47085 0.213075
767 4 0.247379 0.455831 0.166898
713 4 0.35062 0.498981 0.217655
659 4 0.442863 0.484478 0.16845
597 4 0.490573 0.452307 0.200965
595 2 0.474419 0.468278 0.190517
596 4 0.458265 0.484249 0.18007
231 4 0.441151 0.49159 0.186585
1568 4 0.451234 0.501262 0.174309
232 2 0.0072583 0.0634687 0.29896
1799 4 0.0218403 0.025242 0.302479
233 4 0.0221904 0.0437836 0.295125
1402 2 0.0561407 0.0353118 0.287862
1403 4 0.037671 0.0368305 0.304648
1798 2 0.00940873 0.0117677 0.319481
1404 4 0.0746104 0.033793 0.271077
633 4 0.378402 0.0528445 0.313734
631 2 0.39267 0.054088 0.293239
632 4 0.406938 0.0553314 0.272743
698 4 0.374171 0.0375872 0.325144
351 4 0.477848 0.00595162 0.263228
744 4 0.483894 0.0247053 0.267591
742 2 0.491545 0.02765 0.291212
399 4 0.0551335 0.107996 0.326792
397 2 0.070421 0.126712 0.320375
398 4 0.0857086 0.145428 0.313958
393 4 0.087254 0.156849 0.297875
317 4 0.0361178 0.109068 0.331917
731 4 0.0453835 0.0917681 0.3311
392 4 0.118102 0.14842 0.259429
390 4 0.0938139 0.163119 0.3148
391 2 0.102678 0.152635 0.278652
404 4 0.205431 0.16798 0.319552
249 4 0.212663 0.150633 0.327026
403 2 0.195323 0.164283 0.296983
444 4 0.0244069 0.23999 0.269173
544 2 0.156193 0.164515 0.257899
546 4 0.176431 0.175971 0.267084
722 4 0.195812 0.174688 0.265937
405 4 0.185216 0.160587 0.274415
717 4 0.412024 0.249723 0.254747
331 2 0.454038 0.196651 0.302696
332 4 0.452148 0.203686 0.278777
418 2 0.424031 0.216366 0.254653
419 4 0.440592 0.199949 0.263675
760 2 0.483672 0.209805 0.255768
762 4 0.460099 0.20317 0.260814
333 4 0.455928 0.189615 0.326615
396 4 0.0279521 0.299167 0.260626
443 4 0.0154931 0.289118 0.271956
365 4 0.0118731 0.308059 0.266787
442 2 0.01995 0.264554 0.270565
510 4 0.235505 0.297302 0.302252
508 2 0.220779 0.313426 0.314432
400 2 0.236918 0.273857 0.267842
402 4 0.243951 0.28806 0.287181
401 4 0.229885 0.259654 0.248503
509 4 0.206053 0.32955 0.326612
345 4 0.247233 0.282883 0.306372
496 2 0.284622 0.333829 0.253091
498 4 0.26976 0.343862 0.270516
343 2 0.264316 0.268636 0.31779
715 2 0.404472 0.265277 0.272809
716 4 0.396921 0.28083 0.290871
542 4 0.407623 0.290568 0.305206
541 2 0.399167 0.309853 0.318687
543 4 0.390711 0.329139 0.332168
547 2 0.0315345 0.384944 0.308557
548 4 0.019686 0.362982 0.306996
549 4 0.0433831 0.406907 0.310118
777 4 0.056373 0.409719 0.325618
407 4 0.0159151 0.359743 0.326432
603 4 0.111155 0.354475 0.246056
734 4 0.117151 0.354155 0.264563
733 2 0.120028 0.351314 0.289237
735 4 0.122906 0.348474 0.313912
677 4 0.138648 0.3423 0.324978
676 2 0.162969 0.336842 0.32301
435 4 0.199595 0.346528 0.320533
678 4 0.187291 0.331384 0.321042
728 4 0.36634 0.402941 0.267909
727 2 0.361866 0.414294 0.289733
2537 4 0.4986 0.376293 0.270601
2860 2 0.466742 0.402617 0.254562
615 4 0.407824 0.338787 0.335281
2538 4 0.489667 0.37001 0.319401
2536 2 0.494133 0.373151 0.295001
2862 4 0.484586 0.389906 0.266612
753 4 0.479006 0.353408 0.313811
775 2 0.0709804 0.42978 0.322564
776 4 0.0855878 0.449842 0.31951
414 4 0.093946 0.457664 0.303009
412 2 0.1075 0.476676 0.311954
413 4 0.121053 0.495688 0.320899
1545 4 0.188787 0.499674 0.324143
1543 2 0.164162 0.499765 0.319809
438 4 0.318444 0.483861 0.313073
436 2 0.32971 0.461564 0.31204
729 4 0.357392 0.425646 0.311557
437 4 0.340976 0.439266 0.311006
1771 2 0.0181985 0.00712865 0.374883
1772 4 0.0281505 0.0119737 0.397303
732 4 0.0643964 0.0601339 0.364842
2238 4 0.0302186 0.0312418 0.403345
369 4 0.0771165 0.0602275 0.379276
367 2 0.0902595 0.0486276 0.397105
730 2 0.0548899 0.075951 0.347971
1701 4 0.157533 0.0845567 0.373061
257 4 0.381343 0.0532848 0.333423
697 2 0.364659 0.0172452 0.33614
256 2 0.393364 0.0610556 0.353924
258 4 0.405386 0.0688264 0.374424
426 4 0.400709 0.0563798 0.38961
424 2 0.390231 0.0516692 0.411818
478 2 0.482323 0.0541294 0.338759
480 4 0.465648 0.07214 0.343529
1428 4 0.472821 0.0121299 0.414867
318 4 0.00409616 0.132489 0.36236
316 2 0.020107 0.120779 0.347138
604 2 0.129724 0.0997044 0.405852
605 4 0.146846 0.0927048 0.389029
247 2 0.214078 0.127514 0.336442
1699 2 0.178952 0.0951245 0.365662
1700 4 0.200371 0.105692 0.358263
248 4 0.215493 0.104394 0.345859
600 4 0.226389 0.143689 0.401596
683 4 0.239951 0.128268 0.40051
682 2 0.263452 0.120508 0.404066
319 2 0.324668 0.124325 0.389647
320 4 0.305299 0.118627 0.404397
684 4 0.286954 0.112747 0.407621
708 4 0.334703 0.145711 0.365461
321 4 0.344036 0.130023 0.374897
516 4 0.446355 0.130854 0.360488
575 4 0.44667 0.121983 0.378621
574 2 0.445162 0.116848 0.403045
514 2 0.451375 0.153033 0.350094
459 4 0.00499992 0.192292 0.385764
388 2 0.100643 0.169463 0.338001
389 4 0.107471 0.175808 0.361203
598 2 0.224508 0.166648 0.41132
378 4 0.292007 0.237198 0.327834
376 2 0.299484 0.218108 0.342147
377 4 0.306962 0.199019 0.35646
707 4 0.325857 0.192876 0.351389
474 4 0.269727 0.23689 0.401512
488 4 0.27387 0.223226 0.41529
487 2 0.281037 0.199279 0.415891
472 2 0.253559 0.249888 0.387555
706 2 0.33028 0.169293 0.358425
267 4 0.358189 0.246523 0.406047
515 4 0.456396 0.175213 0.339699
453 4 0.4677 0.190388 0.342542
451 2 0.490117 0.194088 0.352981
347 4 0.064711 0.327076 0.38143
618 4 0.0830724 0.329664 0.389164
275 4 0.150801 0.323393 0.372963
617 4 0.130782 0.322486 0.376012
616 2 0.106927 0.326075 0.382588
274 2 0.164691 0.308438 0.387405
473 4 0.23739 0.262887 0.373598
374 4 0.224097 0.261068 0.38878
276 4 0.178582 0.293483 0.401847
373 2 0.20044 0.267086 0.394196
375 4 0.176784 0.273103 0.399612
344 4 0.281399 0.25439 0.329208
265 2 0.357757 0.269671 0.41549
752 4 0.483374 0.323651 0.353763
346 2 0.0540585 0.338924 0.4007
408 4 0.0279681 0.327986 0.363133
406 2 0.0219416 0.343865 0.344782
348 4 0.043406 0.350772 0.41997
433 2 0.208356 0.36525 0.334601
434 4 0.217116 0.383972 0.348669
502 2 0.279833 0.390979 0.382572
503 4 0.295054 0.408933 0.391006
336 4 0.312526 0.405096 0.395691
504 4 0.264612 0.373024 0.374139
334 2 0.336965 0.401394 0.391924
335 4 0.361404 0.397691 0.388158
240 4 0.374188 0.413244 0.39418
238 2 0.387275 0.413299 0.415485
751 2 0.48119 0.338529 0.333787
613 2 0.419085 0.351434 0.353677
614 4 0.430346 0.364082 0.372072
668 4 0.308626 0.470937 0.413372
669 4 0.30653 0.423644 0.397257
667 2 0.307578 0.447291 0.405314
3990 4 0.484405 0.491815 0.353155
2237 4 0.00912826 0.0625945 0.436101
2236 2 0.0196734 0.0469182 0.419723
720 4 0.0144114 0.0644599 0.455284
718 2 0.0306119 0.0794549 0.467026
1781 4 0.0927014 0.990071 0.463949
368 4 0.103403 0.0370276 0.414934
1782 4 0.0942839 0.0235339 0.426822
1780 2 0.0934926 0.00680227 0.445386
341 4 0.177354 0.01204 0.487348
961 2 0.259754 0.00198607 0.49985
724 2 0.295861 0.0454395 0.478829
963 4 0.284029 0.00728506 0.49705
726 4 0.299211 0.0666713 0.466055
725 4 0.292512 0.0242077 0.491603
1182 4 0.312745 0.0778547 0.457785
1579 2 0.355176 0.0107558 0.432496
1580 4 0.373376 0.0277719 0.430401
425 4 0.379753 0.0469586 0.434026
2880 4 0.468009 0.0798866 0.491543
642 4 0.452329 0.0841461 0.481336
719 4 0.0468123 0.0944499 0.478768
606 4 0.112602 0.106704 0.422675
1033 2 0.121224 0.145654 0.46385
1035 4 0.131407 0.154394 0.442753
1034 4 0.111041 0.136914 0.484948
261 4 0.146382 0.162753 0.433047
1180 2 0.306503 0.0940152 0.439756
1181 4 0.30026 0.110176 0.421727
640 2 0.442093 0.0966078 0.462228
3157 2 0.483581 0.160003 0.488305
641 4 0.431857 0.10907 0.44312
576 4 0.443653 0.111713 0.427469
306 4 0.438308 0.126997 0.438462
304 2 0.446627 0.148639 0.447821
470 4 0.0108381 0.1689 0.48518
259 2 0.159891 0.180243 0.444743
694 2 0.155696 0.227583 0.481677
696 4 0.142615 0.240785 0.498404
1260 4 0.123187 0.236982 0.499786
599 4 0.222628 0.189606 0.421044
260 4 0.173399 0.197733 0.456439
695 4 0.168777 0.214381 0.464951
687 4 0.224485 0.210382 0.425522
686 4 0.186991 0.211999 0.458572
685 2 0.205738 0.211191 0.442047
489 4 0.288204 0.175332 0.416492
411 4 0.252942 0.204859 0.467189
409 2 0.266905 0.20108 0.487583
467 4 0.355162 0.182019 0.42801
466 2 0.354658 0.206755 0.424399
468 4 0.354154 0.231492 0.420787
305 4 0.454947 0.170281 0.457179
3158 4 0.467403 0.169463 0.471754
585 4 0.477175 0.244558 0.463954
266 4 0.357324 0.292818 0.424934
584 4 0.471547 0.286021 0.491338
583 2 0.474361 0.26529 0.477646
2456 4 0.46188 0.296257 0.504619
2812 2 0.0127223 0.356149 0.432829
2813 4 0.0349585 0.366605 0.428203
326 4 0.0542435 0.366515 0.42437
325 2 0.0708832 0.372788 0.441947
10 3 0.131038 0.345816 0.46903
327 4 0.0875229 0.379061 0.459524
7 3 0.105639 0.372647 0.463749
6 1 0.123204 0.365707 0.476881
711 4 0.148354 0.397798 0.483166
8 3 0.139983 0.381712 0.476038
9 3 0.115726 0.363212 0.498705
774 4 0.208582 0.397263 0.473647
635 4 0.211112 0.407893 0.457002
709 2 0.171351 0.40243 0.474516
772 2 0.224692 0.392073 0.492051
710 4 0.194349 0.407063 0.465866
239 4 0.400362 0.413354 0.436791
588 4 0.384031 0.418337 0.446433
1383 4 0.0539188 0.466096 0.4393
1381 2 0.0639791 0.488873 0.43703
680 4 0.0668295 0.450218 0.44012
679 2 0.0812838 0.438524 0.456838
384 4 0.143116 0.41284 0.494942
681 4 0.0957382 0.426831 0.473557
383 4 0.0944112 0.424152 0.494157
568 2 0.162049 0.452289 0.488242
569 4 0.157366 0.427859 0.490777
382 2 0.118763 0.418496 0.494549
634 2 0.225292 0.421001 0.441118
570 4 0.166732 0.476719 0.485706
636 4 0.239473 0.434108 0.425235
2 3 0.330266 0.503566 0.447189
4 3 0.320446 0.485967 0.415464
880 2 0.32562 0.49415 0.488363
5 3 0.301423 0.479881 0.447382
1 1 0.312463 0.49552 0.435045
586 2 0.385644 0.424462 0.470621
1184 4 0.00479587 0.0201306 0.557482
3077 4 0.00423974 0.0307308 0.540181
1183 2 0.999321 0.00795033 0.57862
1150 2 0.148029 0.0732534 0.546228
1151 4 0.150352 0.0834795 0.568927
342 4 0.157084 0.0492208 0.513945
1152 4 0.145706 0.0630274 0.52353
340 2 0.167219 0.0306304 0.500646
430 2 0.321482 0.0114404 0.5179
432 4 0.302916 0.0106061 0.501173
431 4 0.340048 0.0122747 0.534626
843 4 0.342116 0.0302496 0.538621
842 4 0.374201 0.0515036 0.570551
841 2 0.358159 0.0408766 0.554586
1217 4 0.3914 0.0429059 0.5762
2879 4 0.466577 0.0336992 0.510658
2878 2 0.467293 0.0567929 0.501101
3009 4 0.483696 0.0678077 0.5754
879 4 0.0779777 0.144109 0.552233
877 2 0.0566498 0.154262 0.544035
1199 4 0.0200109 0.155798 0.545411
878 4 0.0353219 0.164416 0.535837
938 4 0.0965433 0.139939 0.547676
937 2 0.108133 0.139367 0.525528
939 4 0.119723 0.138796 0.503381
1272 4 0.092967 0.152781 0.562189
1155 4 0.160245 0.0918796 0.58383
3159 4 0.49976 0.150542 0.504856
1259 4 0.0894881 0.200993 0.508148
1270 2 0.100199 0.173175 0.574718
1258 2 0.106337 0.218987 0.503967
898 2 0.293228 0.206208 0.548046
899 4 0.296704 0.217575 0.570043
900 4 0.289751 0.194841 0.526048
410 4 0.280867 0.197301 0.507978
791 4 0.310757 0.21921 0.583726
790 2 0.325411 0.238397 0.577224
811 2 0.238457 0.301035 0.510787
813 4 0.223722 0.289776 0.494015
812 4 0.253192 0.312295 0.527558
650 4 0.270759 0.311198 0.535689
649 2 0.261656 0.308127 0.558774
651 4 0.252552 0.305055 0.581858
871 2 0.363818 0.272991 0.545087
872 4 0.350936 0.272671 0.566513
792 4 0.340066 0.257584 0.570722
1238 4 0.340039 0.273973 0.581835
873 4 0.376701 0.273311 0.52366
2455 2 0.478448 0.314032 0.510511
2457 4 0.495015 0.331808 0.516404
935 4 0.0067631 0.341143 0.500209
1136 4 0.111892 0.375396 0.572754
1135 2 0.136735 0.376971 0.570404
1137 4 0.161578 0.378545 0.568054
773 4 0.240802 0.386883 0.510455
1190 4 0.242577 0.386447 0.53019
1189 2 0.233836 0.397924 0.550612
1191 4 0.225096 0.409401 0.571035
804 4 0.261884 0.328379 0.533521
802 2 0.257999 0.352099 0.526632
803 4 0.254113 0.375819 0.519744
930 4 0.255218 0.395711 0.519256
927 4 0.415014 0.3768 0.527529
925 2 0.40502 0.397213 0.517109
1161 4 0.157148 0.500063 0.565136
2243 4 0.150572 0.500524 0.546213
1172 4 0.218853 0.427463 0.575143
1159 2 0.177425 0.490622 0.576312
896 4 0.206089 0.41359 0.572612
928 2 0.275691 0.409929 0.51729
929 4 0.296164 0.424147 0.515324
891 4 0.322646 0.487915 0.528341
1952 4 0.318685 0.469265 0.523668
881 4 0.324518 0.482099 0.510244
1951 2 0.323893 0.444956 0.526343
889 2 0.301827 0.498167 0.537652
926 4 0.395026 0.417627 0.506689
1953 4 0.329101 0.420648 0.529019
587 4 0.387257 0.430588 0.494809
1001 4 0.41409 0.488947 0.548474
662 4 0.411925 0.469615 0.544869
661 2 0.405553 0.453224 0.527094
663 4 0.399182 0.436833 0.50932
1911 4 0.420577 0.475572 0.561604
1909 2 0.428004 0.460531 0.580146
1332 4 0.4302 0.477701 0.544642
1330 2 0.449818 0.492431 0.539809
945 4 0.0522486 0.000720299 0.642156
1057 2 0.158369 0.0543702 0.597474
1058 4 0.15554 0.0358139 0.613992
2375 4 0.148698 0.0183243 0.610038
1284 4 0.138377 0.0938654 0.65197
1059 4 0.161198 0.0729265 0.580956
950 4 0.230845 0.0385158 0.596378
949 2 0.249529 0.0391651 0.612981
951 4 0.268213 0.0398145 0.629584
1031 4 0.269463 0.0578189 0.639271
1030 2 0.268886 0.0810326 0.648543
1216 2 0.405194 0.023927 0.584843
1218 4 0.418988 0.0049481 0.593485
3007 2 0.497468 0.0747403 0.595083
808 2 0.48624 0.077755 0.65036
1083 4 0.0439422 0.143771 0.653336
3179 4 0.0356452 0.162081 0.649292
1153 2 0.162698 0.11539 0.591981
1154 4 0.165151 0.138899 0.600132
1221 4 0.153725 0.147084 0.614954
1219 2 0.171569 0.161232 0.625277
1211 4 0.247382 0.163805 0.663628
1032 4 0.26831 0.104246 0.657815
3178 2 0.0124209 0.170224 0.644876
1245 4 0.0743907 0.211335 0.641283
1271 4 0.107431 0.193569 0.587247
1243 2 0.082543 0.206432 0.61816
1244 4 0.0906954 0.201529 0.595037
1209 4 0.0824303 0.20542 0.658531
1210 2 0.225502 0.172791 0.655523
1212 4 0.203621 0.181777 0.647419
1220 4 0.189414 0.17538 0.6356
797 4 0.191963 0.240451 0.618048
796 2 0.194654 0.216566 0.624935
798 4 0.197344 0.19268 0.631822
857 4 0.292103 0.222674 0.588184
856 2 0.290056 0.216154 0.612236
858 4 0.288008 0.209633 0.636287
905 4 0.449399 0.248707 0.626078
3123 4 0.453454 0.234657 0.641085
3121 2 0.474074 0.220522 0.641516
3122 4 0.494694 0.206386 0.641947
983 4 0.0342273 0.290595 0.593642
982 2 0.0428168 0.309383 0.607727
984 4 0.0514064 0.328172 0.621812
3263 4 0.0502986 0.333068 0.641111
3262 2 0.0524176 0.325203 0.66475
805 2 0.302411 0.310415 0.638949
806 4 0.284745 0.32443 0.64975
807 4 0.320078 0.2964 0.628148
1239 4 0.34105 0.296212 0.626614
1237 2 0.340544 0.285092 0.604224
906 4 0.456451 0.288167 0.59618
904 2 0.452925 0.268437 0.611129
952 2 0.489871 0.314304 0.59621
953 4 0.472644 0.29771 0.603493
1041 4 0.0560699 0.346573 0.627975
1039 2 0.0533083 0.371424 0.627931
1040 4 0.0505467 0.396275 0.627887
993 4 0.0468781 0.399709 0.608465
897 4 0.158717 0.397693 0.57458
895 2 0.182403 0.405641 0.573596
1027 2 0.200156 0.417652 0.654431
1206 4 0.485878 0.410762 0.609134
3309 4 0.496774 0.398104 0.599813
3307 2 0.502708 0.374432 0.594371
991 2 0.0423983 0.424195 0.610812
992 4 0.0379184 0.448682 0.613158
1029 4 0.213332 0.409507 0.634804
1171 2 0.217091 0.45102 0.583337
1160 4 0.197702 0.481181 0.587488
1173 4 0.215329 0.474577 0.591531
1188 4 0.185568 0.480539 0.652773
1187 4 0.203349 0.479393 0.606048
1186 2 0.194458 0.479966 0.629411
1175 4 0.170484 0.492424 0.659717
1204 2 0.465706 0.425358 0.611415
1910 4 0.435432 0.445491 0.598687
1269 4 0.428064 0.448226 0.616436
1267 2 0.421214 0.464732 0.633923
1205 4 0.445533 0.439955 0.613696
1268 4 0.414365 0.481239 0.65141
1226 4 0.170362 0.0804547 0.739884
1148 4 0.187871 0.0753386 0.73352
1203 4 0.176236 0.0621201 0.742862
1201 2 0.18055 0.0381314 0.748439
2256 4 0.201807 0.00485462 0.755191
1003 2 0.324628 0.0305961 0.704941
1005 4 0.308766 0.049643 0.701655
1049 4 0.35605 0.00205168 0.701575
1004 4 0.34049 0.0115493 0.708227
1050 4 0.404047 0.996071 0.71427
1048 2 0.380049 0.999061 0.707923
45 3 0.435512 0.0465554 0.689271
1162 2 0.498967 0.0677491 0.701421
42 3 0.428229 0.0789114 0.706386
41 1 0.437497 0.0691889 0.687712
1163 4 0.478846 0.0749018 0.688415
44 3 0.459901 0.075107 0.68651
810 4 0.471157 0.0761911 0.670241
43 3 0.426262 0.076846 0.668909
1081 2 0.0412224 0.123748 0.668062
1075 2 0.0436582 0.0956014 0.721377
1076 4 0.0301333 0.101463 0.701181
1082 4 0.0385025 0.103725 0.682788
1077 4 0.0571831 0.0897397 0.741574
1282 2 0.133461 0.0978291 0.676162
909 4 0.101952 0.162969 0.71034
907 2 0.110368 0.139425 0.710417
908 4 0.118785 0.115881 0.710493
1283 4 0.128544 0.101793 0.700355
1227 4 0.130579 0.103205 0.719874
1225 2 0.150471 0.0918297 0.729879
851 4 0.0856971 0.174127 0.713301
1149 4 0.2225 0.101124 0.758753
1147 2 0.205185 0.088231 0.746137
888 4 0.252784 0.148107 0.674317
886 2 0.269393 0.146955 0.692972
829 2 0.325146 0.153843 0.698169
830 4 0.301631 0.155567 0.706491
887 4 0.286001 0.145802 0.711627
978 4 0.28747 0.164837 0.71686
831 4 0.348661 0.152118 0.689847
1142 4 0.366537 0.148307 0.69528
1141 2 0.383506 0.166026 0.700105
1025 4 0.458331 0.148377 0.698134
3424 2 0.472298 0.11505 0.689347
3426 4 0.469955 0.0912708 0.681982
3425 4 0.474641 0.138829 0.696713
3269 4 0.474153 0.154706 0.707378
3268 2 0.487636 0.164007 0.72627
1024 2 0.438513 0.163392 0.700769
1214 4 0.0273045 0.16658 0.750834
850 2 0.0649703 0.171452 0.727028
852 4 0.0442434 0.168777 0.740754
1213 2 0.00905458 0.183028 0.746188
1178 4 0.000198519 0.216622 0.741746
1208 4 0.0945311 0.1739 0.69542
1207 2 0.0884807 0.18966 0.676976
1107 4 0.103795 0.182075 0.710494
1105 2 0.123989 0.192548 0.720871
1106 4 0.144184 0.203021 0.731247
1130 4 0.161762 0.203309 0.720361
1129 2 0.17311 0.21796 0.737146
976 2 0.29414 0.182562 0.733186
916 2 0.283712 0.237542 0.744772
1193 4 0.367188 0.238469 0.695688
1194 4 0.40152 0.2034 0.70529
1192 2 0.384354 0.220935 0.700489
1143 4 0.400474 0.183745 0.70493
1262 4 0.413816 0.193589 0.71548
1261 2 0.422834 0.197912 0.738397
1026 4 0.418694 0.178408 0.703403
3264 4 0.0545367 0.317337 0.68839
779 4 0.0439201 0.302612 0.695279
778 2 0.0522126 0.279136 0.697581
780 4 0.0605052 0.25566 0.699884
893 4 0.0483773 0.31723 0.706949
892 2 0.037772 0.329011 0.726286
1065 4 0.249318 0.333117 0.693904
947 4 0.325785 0.269302 0.677767
1063 2 0.255968 0.309059 0.692439
946 2 0.303143 0.274944 0.68675
948 4 0.280502 0.280586 0.695733
1064 4 0.262618 0.285 0.690974
917 4 0.278225 0.259971 0.735179
1008 4 0.43947 0.282622 0.716
1006 2 0.443855 0.283622 0.740596
894 4 0.0271666 0.340792 0.745623
3276 4 0.0161994 0.354112 0.753147
942 4 0.0897847 0.395147 0.749341
1067 4 0.145246 0.394037 0.708124
940 2 0.109952 0.392578 0.734786
941 4 0.13012 0.39001 0.720231
1066 2 0.157257 0.40632 0.689957
1028 4 0.18698 0.425797 0.674058
1019 4 0.387694 0.406574 0.738895
1068 4 0.169268 0.418604 0.671791
1176 4 0.164612 0.469929 0.703991
1174 2 0.167548 0.481176 0.681854
2168 4 0.402644 0.488937 0.66587
1140 4 0.360034 0.471731 0.715491
1230 4 0.384082 0.424129 0.743747
1100 4 0.400959 0.42046 0.73372
1138 2 0.35429 0.477819 0.69193
1139 4 0.348547 0.483907 0.668369
1101 4 0.444327 0.444934 0.729145
1099 2 0.422643 0.432697 0.731432
3330 4 0.460072 0.456998 0.728568
1251 4 0.448085 0.457053 0.743752
3328 2 0.484863 0.456136 0.725432
1296 4 0.0147567 0.0452302 0.755589
1294 2 0.0029992 0.0249804 0.764358
864 4 0.0501218 0.0847849 0.759182
1295 4 0.991242 0.00473062 0.773126
1202 4 0.184865 0.0141426 0.754016
975 4 0.330902 0.0326427 0.82469
2322 4 0.468286 0.0466959 0.784221
2320 2 0.469857 0.0217481 0.784786
846 4 0.45979 0.0647677 0.77869
862 2 0.053838 0.104081 0.774643
863 4 0.0575542 0.123376 0.790104
833 4 0.047254 0.130615 0.805029
1125 4 0.0640712 0.139481 0.799725
1123 2 0.0766186 0.160919 0.796866
832 2 0.0415403 0.126946 0.829093
34 3 0.126303 0.141054 0.829886
1257 4 0.236046 0.107772 0.770491
1255 2 0.24857 0.123263 0.785603
921 4 0.214943 0.147929 0.82811
1256 4 0.261094 0.138753 0.800715
840 4 0.27124 0.13308 0.81902
844 2 0.474886 0.0845492 0.781135
845 4 0.489982 0.104331 0.783581
1072 2 0.0753237 0.207086 0.82864
1073 4 0.0820541 0.194318 0.808224
1177 2 0.000991091 0.238982 0.752908
1124 4 0.089166 0.182356 0.794007
919 2 0.203024 0.169877 0.829303
1131 4 0.184458 0.232612 0.753931
1277 4 0.186351 0.230576 0.773527
1276 2 0.188791 0.217946 0.794968
1278 4 0.191232 0.205317 0.816409
822 4 0.178196 0.246875 0.766464
1241 4 0.179626 0.207126 0.832778
977 4 0.300809 0.200286 0.749513
918 4 0.289198 0.215114 0.754366
1298 4 0.295087 0.20164 0.768032
1297 2 0.312644 0.205537 0.785403
1299 4 0.330202 0.209434 0.802773
1086 4 0.342699 0.201068 0.81674
50 3 0.395 0.207216 0.781923
46 1 0.414673 0.21198 0.79236
1084 2 0.34429 0.180369 0.830675
49 3 0.417335 0.234962 0.794127
48 3 0.414983 0.202325 0.813458
47 3 0.432076 0.203405 0.780002
1263 4 0.431851 0.202235 0.761314
1146 4 0.489978 0.182814 0.758453
1145 4 0.448384 0.207477 0.771195
1144 2 0.469181 0.195146 0.764824
1022 4 0.422514 0.185163 0.822536
1021 2 0.443964 0.181624 0.834888
1306 2 0.500809 0.249994 0.830654
3270 4 0.501118 0.173307 0.745162
3188 4 0.0127557 0.271083 0.777896
3187 2 0.014958 0.275418 0.802422
3189 4 0.0171603 0.279754 0.826948
1179 4 0.00178366 0.261342 0.76407
821 4 0.163648 0.29335 0.777831
820 2 0.170922 0.270113 0.772147