ITEM: TIMESTEP
290000
ITEM: NUMBER OF ATOMS
4590
ITEM: BOX BOUNDS pp pp pp
-9.9985700000000008e+00 9.9985700000000008e+00
-9.9985700000000008e+00 9.9985700000000008e+00
-9.9985700000000008e+00 9.9985700000000008e+00
ITEM: ATOMS id type xs ys zs
463 2 0.0319989 0.0553761 0.0343152
465 4 0.0328547 0.0798904 0.039162
464 4 0.031143 0.0308617 0.0294683
1667 4 0.0557074 0.00794081 0.0725299
534 4 0.194432 0.0793248 0.00637983
490 2 0.277175 0.0371556 0.0412245
491 4 0.279567 0.0619688 0.0392837
492 4 0.274784 0.0123425 0.0431654
296 4 0.372244 0.0527328 0.0619371
557 4 0.384241 0.067506 0.0564538
295 2 0.364155 0.0424449 0.0832421
745 2 0.45887 0.0643298 0.0304669
746 4 0.442923 0.0702875 0.0487809
747 4 0.474816 0.0583721 0.012153
589 2 0.0219556 0.122691 0.0764644
590 4 0.0180736 0.141909 0.0609474
3233 4 0.998935 0.126025 0.0047548
701 4 0.0661696 0.0850867 0.0453414
702 4 0.114531 0.0968891 0.0405829
700 2 0.0903501 0.0909879 0.0429622
422 4 0.125679 0.135511 0.981809
421 2 0.10384 0.130557 0.99293
565 2 0.188331 0.106562 0.0437053
566 4 0.164676 0.100412 0.0384301
567 4 0.211985 0.112712 0.0489805
358 2 0.279633 0.12015 0.0122988
359 4 0.270458 0.122932 0.989206
360 4 0.288808 0.117368 0.0353911
556 2 0.375487 0.0905626 0.0605698
558 4 0.366733 0.113619 0.0646858
553 2 0.0542218 0.223776 0.0146333
554 4 0.0389784 0.223049 0.0344396
666 4 0.31187 0.221675 0.0181491
664 2 0.328217 0.20408 0.0111946
572 4 0.342296 0.246448 0.0424293
324 4 0.406521 0.248106 0.0527196
322 2 0.415785 0.243069 0.0753908
771 4 0.462578 0.183975 0.0736022
770 4 0.49146 0.167512 0.0362455
769 2 0.477019 0.175744 0.0549239
1013 4 0.497674 0.193402 0.00333671
292 2 0.124986 0.316693 0.0220364
294 4 0.109835 0.32359 0.00337964
293 4 0.140137 0.309797 0.0406932
506 4 0.187883 0.263115 0.0333945
483 4 0.219859 0.303147 0.0756915
505 2 0.173208 0.283329 0.0344882
507 4 0.158533 0.303544 0.0355818
481 2 0.24073 0.31245 0.0655419
357 4 0.223224 0.269816 0.00341025
571 2 0.317995 0.252305 0.0429819
573 4 0.293693 0.258162 0.0435345
482 4 0.261602 0.321754 0.0553923
1071 4 0.383978 0.256319 0.0213651
1069 2 0.407021 0.266026 0.0212948
956 4 0.372802 0.322108 0.999378
955 2 0.355514 0.337858 0.990533
1070 4 0.430064 0.275732 0.0212244
280 2 0.473149 0.335424 0.0220709
281 4 0.457919 0.330648 0.0413175
330 4 0.0343068 0.396182 0.0479557
328 2 0.0231239 0.3901 0.0264352
455 4 0.108004 0.347511 0.0806995
286 2 0.157037 0.391489 0.00997984
287 4 0.15884 0.366587 0.011334
552 4 0.101991 0.425038 0.044428
252 4 0.289294 0.391053 0.0698502
250 2 0.282328 0.396602 0.0464863
251 4 0.275362 0.40215 0.0231225
608 4 0.306668 0.391698 0.0817286
671 4 0.452238 0.337176 0.0602157
550 2 0.0786914 0.433895 0.0424612
551 4 0.0553916 0.442751 0.0404944
315 4 0.994942 0.418008 0.0799948
1788 4 0.0760857 0.502228 0.0857881
288 4 0.155234 0.41639 0.00862569
242 4 0.137668 0.499803 0.064453
1786 2 0.097234 0.499873 0.0726586
1787 4 0.118382 0.497519 0.059529
1224 4 0.141758 0.460104 0.986032
245 4 0.227707 0.446251 0.0616338
244 2 0.24329 0.461653 0.0495859
246 4 0.258873 0.477054 0.0375381
272 4 0.27235 0.480148 0.0236084
271 2 0.295618 0.474569 0.0163526
273 4 0.318886 0.46899 0.00909675
227 4 0.477105 0.452958 0.0420824
562 2 0.443206 0.494366 0.0143549
563 4 0.46214 0.486969 0.999796
226 2 0.497786 0.467008 0.0422872
564 4 0.424272 0.501763 0.0289142
1666 2 0.0788701 0.012671 0.0806719
19 3 0.0298264 0.0609023 0.158937
20 3 0.0657568 0.0544747 0.149698
1422 4 0.990698 0.00589751 0.167235
1668 4 0.102033 0.0174013 0.0888138
450 4 0.15315 0.0648776 0.137802
448 2 0.168754 0.0823898 0.146463
1506 4 0.230467 0.00293464 0.158369
652 2 0.301058 0.0339668 0.148934
653 4 0.311009 0.0477638 0.13061
297 4 0.356066 0.0321569 0.104547
758 4 0.419701 0.05856 0.158445
1760 4 0.492197 0.00262416 0.147711
591 4 0.0258376 0.103473 0.0919813
476 4 0.131075 0.173389 0.115081
237 4 0.177642 0.164106 0.153166
449 4 0.184358 0.099902 0.155124
235 2 0.17501 0.139284 0.151699
236 4 0.172378 0.114463 0.150232
693 4 0.203893 0.100603 0.158041
582 4 0.293755 0.0982936 0.156094
312 4 0.41332 0.130455 0.168263
475 2 0.113297 0.181032 0.130914
477 4 0.0955188 0.188676 0.146747
737 4 0.188474 0.208321 0.112693
736 2 0.206991 0.196679 0.100578
738 4 0.225508 0.185038 0.088463
354 4 0.261094 0.218575 0.123668
352 2 0.268815 0.239793 0.112927
460 2 0.334957 0.208241 0.0904031
461 4 0.321247 0.228805 0.0866169
255 4 0.35692 0.170756 0.100397
462 4 0.348667 0.187677 0.0941892
630 4 0.410678 0.183973 0.0980194
254 4 0.403399 0.174445 0.0823195
253 2 0.38016 0.172601 0.0913583
629 4 0.451894 0.169448 0.122329
628 2 0.431286 0.17671 0.110174
517 2 0.492293 0.243237 0.100938
518 4 0.492717 0.220005 0.110173
339 4 0.0569818 0.248742 0.126342
620 4 0.0177689 0.328215 0.143258
337 2 0.0729628 0.249141 0.145568
353 4 0.276537 0.26101 0.102185
754 2 0.270634 0.295274 0.108466
755 4 0.272743 0.276499 0.092088
756 4 0.268525 0.314049 0.124843
278 4 0.271393 0.282736 0.161116
612 4 0.284386 0.323803 0.131756
741 4 0.344055 0.310337 0.0943652
622 2 0.39172 0.267754 0.155205
624 4 0.416079 0.262269 0.156524
739 2 0.348657 0.332874 0.104167
623 4 0.367361 0.27324 0.153885
323 4 0.425049 0.238032 0.098062
672 4 0.453878 0.333902 0.110089
670 2 0.453058 0.335539 0.0851521
621 4 0.00915051 0.35437 0.101517
619 2 0.0134597 0.341293 0.122388
647 4 0.0587921 0.374493 0.140776
454 2 0.118834 0.362797 0.0972585
456 4 0.129664 0.378084 0.113817
537 4 0.163218 0.345429 0.124788
535 2 0.183415 0.352514 0.137713
626 4 0.21564 0.413086 0.119324
536 4 0.203612 0.359598 0.150638
609 4 0.298755 0.344334 0.0956843
607 2 0.302711 0.368016 0.0887064
610 2 0.269903 0.338191 0.146192
740 4 0.353259 0.355411 0.11397
387 4 0.336487 0.393716 0.149283
15 3 0.384416 0.351996 0.131351
385 2 0.352164 0.377637 0.138287
386 4 0.367841 0.361558 0.127292
11 1 0.406121 0.358072 0.134609
13 3 0.412211 0.354167 0.156656
12 3 0.419641 0.34556 0.120832
302 4 0.343586 0.400879 0.165422
14 3 0.408913 0.380528 0.129478
495 4 0.423754 0.391819 0.138184
493 2 0.43238 0.415091 0.135149
595 2 0.482391 0.409975 0.157985
313 2 0.0022385 0.441064 0.0863449
314 4 0.00953534 0.464121 0.092695
625 2 0.220706 0.421359 0.096279
627 4 0.225771 0.429633 0.0732339
637 2 0.25354 0.488883 0.134309
638 4 0.263843 0.471637 0.149196
525 4 0.348097 0.478991 0.116069
523 2 0.336228 0.487444 0.0957497
658 2 0.395483 0.468236 0.14129
659 4 0.378078 0.483805 0.150225
660 4 0.412889 0.452667 0.132356
494 4 0.441006 0.438363 0.132115
16 1 0.0504872 0.0536063 0.166572
17 3 0.057349 0.0673268 0.183713
18 3 0.0487586 0.0318956 0.174576
2480 4 0.00112138 0.0236242 0.171009
673 2 0.131353 0.0540245 0.215671
674 4 0.147902 0.0720467 0.220821
675 4 0.114805 0.0360024 0.210521
1505 4 0.227635 0.0486775 0.178376
1504 2 0.229051 0.025806 0.168372
689 4 0.211508 0.0055985 0.210577
688 2 0.196272 0.00687817 0.230361
692 4 0.234476 0.0899479 0.196144
654 4 0.291107 0.0201698 0.167259
1784 4 0.431044 0.968295 0.183454
21 1 0.376209 0.0436937 0.237289
23 3 0.37746 0.0230545 0.247818
24 3 0.354785 0.0471 0.229055
25 3 0.391319 0.0446668 0.220277
759 4 0.398859 0.0477319 0.202593
22 3 0.38099 0.0601644 0.25262
757 2 0.40928 0.053146 0.180519
742 2 0.475003 0.0560914 0.228121
743 4 0.48592 0.078069 0.232917
744 4 0.464087 0.0341138 0.223325
379 2 0.0182548 0.136831 0.172372
381 4 0.0164017 0.151229 0.19273
511 2 0.0377447 0.148105 0.231048
513 4 0.045247 0.146845 0.254866
579 4 0.0833564 0.0996717 0.202739
577 2 0.0895363 0.123703 0.20582
578 4 0.0957162 0.147734 0.208901
723 4 0.202021 0.109111 0.240508
691 2 0.219184 0.0952755 0.177093
721 2 0.184956 0.127368 0.241309
722 4 0.167891 0.145625 0.242111
580 2 0.295382 0.0979506 0.181042
581 4 0.297009 0.0976076 0.20599
30 3 0.30137 0.115842 0.210409
26 1 0.307935 0.112367 0.231937
28 3 0.291266 0.1012 0.243592
27 3 0.326998 0.0994939 0.232061
29 3 0.312527 0.13267 0.242189
333 4 0.419736 0.156328 0.237408
310 2 0.43125 0.121989 0.183496
311 4 0.449179 0.113524 0.19873
512 4 0.0302423 0.149365 0.20723
338 4 0.0889438 0.24954 0.164793
284 4 0.272956 0.226855 0.174685
283 2 0.263733 0.204442 0.168537
285 4 0.254511 0.182029 0.16239
764 4 0.35507 0.209574 0.196477
763 2 0.374108 0.222723 0.205955
765 4 0.393146 0.235872 0.215432
520 2 0.475361 0.219758 0.250541
521 4 0.454284 0.230677 0.258398
522 4 0.496438 0.20884 0.242684
395 4 0.0352111 0.277142 0.20855
394 2 0.0264396 0.276357 0.231951
750 4 0.0736541 0.296613 0.231864
396 4 0.0176681 0.275571 0.255352
363 4 0.0937523 0.254822 0.183021
361 2 0.113567 0.251554 0.197916
362 4 0.133382 0.248286 0.212811
372 4 0.148893 0.259854 0.218718
300 4 0.115235 0.334203 0.219297
277 2 0.24659 0.281732 0.164118
370 2 0.173334 0.260215 0.223981
371 4 0.197774 0.260575 0.229245
279 4 0.221788 0.280727 0.167121
343 2 0.249627 0.278986 0.246262
344 4 0.261114 0.263215 0.230625
307 2 0.319853 0.275169 0.216572
309 4 0.310472 0.291818 0.200448
308 4 0.329234 0.25852 0.232697
528 4 0.464333 0.24757 0.199892
526 2 0.474818 0.262854 0.18311
263 4 0.0792674 0.442188 0.218417
646 2 0.0742535 0.362175 0.156085
648 4 0.089715 0.349857 0.171395
298 2 0.126686 0.350686 0.234209
611 4 0.255421 0.352579 0.160629
303 4 0.329991 0.39499 0.213184
301 2 0.336789 0.397934 0.189303
729 4 0.325274 0.367406 0.257812
597 4 0.458608 0.403821 0.153333
643 2 0.453529 0.373655 0.185473
644 4 0.452795 0.359812 0.206282
645 4 0.454263 0.387497 0.164664
447 4 0.463366 0.361947 0.224121
262 2 0.0555622 0.449314 0.221948
264 4 0.0318569 0.45644 0.225478
417 4 0.133992 0.447965 0.205385
415 2 0.158251 0.442288 0.207494
416 4 0.18251 0.436611 0.209602
291 4 0.194787 0.428863 0.195861
289 2 0.217957 0.428935 0.20526
290 4 0.241126 0.429007 0.21466
768 4 0.242662 0.482594 0.210838
766 2 0.254892 0.480548 0.189126
767 4 0.267123 0.478502 0.167414
229 2 0.40797 0.497412 0.215365
231 4 0.417942 0.486795 0.195043
108 3 0.491266 0.419389 0.225164
232 2 0.0262468 0.0490425 0.291678
233 4 0.0427536 0.0322234 0.300034
1402 2 0.0665502 0.0124917 0.278448
1403 4 0.0617879 0.0276974 0.297717
234 4 0.00973992 0.0658616 0.283322
429 4 0.101971 0.999021 0.333248
731 4 0.118949 0.077371 0.314869
690 4 0.181037 0.00815785 0.250145
1701 4 0.228695 0.0266808 0.332501
1699 2 0.240998 0.0339972 0.312
1700 4 0.253301 0.0413137 0.291499
257 4 0.387716 0.062834 0.342265
698 4 0.384534 0.0432652 0.337811
478 2 0.479555 0.0557259 0.32807
480 4 0.472033 0.0347293 0.316768
351 4 0.439902 0.0558895 0.269555
349 2 0.446478 0.0739855 0.285507
529 2 0.98582 0.126368 0.261752
530 4 0.00504689 0.118587 0.275716
398 4 0.0510234 0.1139 0.314752
397 2 0.0748655 0.111139 0.32176
546 4 0.170762 0.148371 0.263371
544 2 0.15868 0.170125 0.260926
399 4 0.0987077 0.108378 0.328768
248 4 0.237528 0.0840456 0.291841
249 4 0.228832 0.131974 0.303153
247 2 0.23318 0.10801 0.297497
403 2 0.224262 0.166671 0.2949
600 4 0.194694 0.135291 0.32991
404 4 0.231873 0.143944 0.287777
632 4 0.36408 0.114025 0.301572
631 2 0.37195 0.096126 0.317157
633 4 0.379819 0.0782271 0.332741
331 2 0.438358 0.159309 0.253824
332 4 0.45698 0.162289 0.270241
350 4 0.453054 0.0920816 0.301459
444 4 0.00751536 0.263803 0.310337
392 4 0.127308 0.190502 0.26522
391 2 0.10564 0.194204 0.277134
393 4 0.083971 0.197906 0.289049
545 4 0.146598 0.191878 0.258481
405 4 0.216651 0.189398 0.302022
401 4 0.187291 0.255885 0.28052
706 2 0.315848 0.181337 0.321403
708 4 0.3114 0.177957 0.345775
707 4 0.320296 0.184717 0.297032
762 4 0.474692 0.171652 0.272227
418 2 0.429041 0.212061 0.311343
419 4 0.445996 0.21032 0.329637
761 4 0.481932 0.181176 0.320782
760 2 0.478312 0.176414 0.296505
420 4 0.412086 0.213802 0.293048
443 4 0.0219123 0.259341 0.262656
442 2 0.0147138 0.261572 0.286497
390 4 0.057249 0.274668 0.31989
748 2 0.0852587 0.28041 0.246962
749 4 0.0968632 0.264206 0.26206
388 2 0.0794132 0.264888 0.326077
345 4 0.23814 0.294756 0.2619
400 2 0.202529 0.263538 0.298806
402 4 0.217768 0.271191 0.317092
508 2 0.242966 0.30879 0.323714
510 4 0.227184 0.289662 0.320523
496 2 0.315016 0.307903 0.289713
497 4 0.333028 0.291249 0.284876
498 4 0.297004 0.324556 0.294551
543 4 0.40926 0.325559 0.320647
615 4 0.388871 0.323373 0.321885
541 2 0.433161 0.328924 0.314124
542 4 0.457063 0.332289 0.3076
366 4 0.0141178 0.350639 0.2693
364 2 0.0221509 0.339685 0.290292
365 4 0.030184 0.328732 0.311284
602 4 0.0638703 0.398574 0.285039
601 2 0.0880867 0.393195 0.281906
299 4 0.138137 0.367169 0.24912
603 4 0.112303 0.387817 0.278774
734 4 0.15382 0.366567 0.261468
733 2 0.163924 0.365014 0.284286
735 4 0.174029 0.363462 0.307105
677 4 0.170227 0.37742 0.321611
509 4 0.258749 0.327919 0.326905
433 2 0.319608 0.388517 0.328904
613 2 0.368778 0.337139 0.327537
727 2 0.331378 0.389707 0.26733
728 4 0.337482 0.412008 0.276848
434 4 0.334527 0.39455 0.309768
445 2 0.468743 0.371172 0.24673
446 4 0.474121 0.380396 0.269339
549 4 0.0361652 0.438356 0.325835
547 2 0.0573809 0.430088 0.336165
777 4 0.0859179 0.460826 0.277788
775 2 0.0979065 0.455017 0.298947
776 4 0.109895 0.449208 0.320106
414 4 0.134791 0.470701 0.297677
412 2 0.153372 0.45578 0.305246
413 4 0.171953 0.440859 0.312815
436 2 0.298879 0.450384 0.278577
437 4 0.304792 0.461276 0.256862
438 4 0.292966 0.439491 0.300293
230 4 0.397998 0.508029 0.235688
713 4 0.396386 0.466049 0.278146
2861 4 0.490743 0.48467 0.279585
712 2 0.42083 0.470049 0.281555
714 4 0.445275 0.47405 0.284964
316 2 0.0431901 0.0704034 0.336566
317 4 0.053982 0.0638697 0.358154
428 4 0.0688279 0.00839514 0.369502
427 2 0.0853995 0.00370807 0.351375
1782 4 0.125896 0.021304 0.393415
1780 2 0.119928 0.000386682 0.405745
606 4 0.166812 0.0702785 0.378686
604 2 0.18362 0.0662275 0.360624
605 4 0.200428 0.0621764 0.342562
683 4 0.296304 0.0797149 0.36728
682 2 0.289599 0.0948414 0.386026
697 2 0.367444 0.026336 0.344631
699 4 0.350355 0.00940681 0.351452
256 2 0.407327 0.060542 0.357606
424 2 0.406912 0.0304732 0.403889
479 4 0.487077 0.0767225 0.339373
258 4 0.426938 0.05825 0.372946
426 4 0.420058 0.0452746 0.388616
318 4 0.0323982 0.076937 0.314979
732 4 0.128903 0.0935768 0.361118
730 2 0.123926 0.0854739 0.337993
685 2 0.152593 0.158492 0.408555
598 2 0.183804 0.15518 0.340446
686 4 0.172071 0.168175 0.396225
684 4 0.282895 0.109968 0.404772
452 4 0.503574 0.149823 0.363762
451 2 0.48218 0.155019 0.375614
453 4 0.460786 0.160215 0.387466
514 2 0.428314 0.151994 0.414018
515 4 0.447143 0.1494 0.397772
2653 2 0.0201658 0.219963 0.372228
2654 4 0.0423455 0.208447 0.37145
599 4 0.172915 0.17507 0.350982
474 4 0.227757 0.220088 0.359112
274 2 0.197419 0.255995 0.395936
275 4 0.173609 0.260458 0.389744
472 2 0.248513 0.209782 0.349724
473 4 0.269269 0.199476 0.340335
488 4 0.297744 0.220743 0.388057
487 2 0.286851 0.239025 0.401183
715 2 0.351837 0.250487 0.352605
716 4 0.336879 0.242992 0.371186
304 2 0.491388 0.204039 0.418322
305 4 0.492797 0.183535 0.404082
616 2 0.0705204 0.319295 0.37046
618 4 0.061496 0.301974 0.386071
347 4 0.05906 0.315216 0.401288
389 4 0.101577 0.255108 0.332264
375 4 0.168082 0.32507 0.387494
276 4 0.221229 0.251532 0.402128
373 2 0.190756 0.319514 0.39645
374 4 0.21343 0.313958 0.405405
376 2 0.297412 0.277479 0.343249
377 4 0.320847 0.272829 0.335877
378 4 0.273976 0.282129 0.350621
489 4 0.275958 0.257307 0.414309
717 4 0.366794 0.257982 0.334023
268 2 0.499227 0.268954 0.398066
408 4 0.0715225 0.431184 0.408104
548 4 0.0785966 0.42182 0.346495
617 4 0.0795448 0.336616 0.354849
676 2 0.186247 0.366834 0.337627
678 4 0.202267 0.356248 0.353642
503 4 0.272911 0.416823 0.409212
435 4 0.304688 0.382485 0.34804
614 4 0.348685 0.350904 0.33319
336 4 0.365188 0.386055 0.387597
561 4 0.474326 0.394175 0.392757
752 4 0.480064 0.399252 0.375093
559 2 0.473742 0.382599 0.414911
751 2 0.459418 0.400042 0.361011
406 2 0.0805436 0.425003 0.385619
407 4 0.0895646 0.418822 0.363133
499 2 0.0944612 0.47676 0.370451
500 4 0.108086 0.476625 0.349486
501 4 0.0808368 0.476895 0.391416
570 4 0.163429 0.479638 0.427095
5 3 0.295715 0.445588 0.372368
1 1 0.313065 0.460202 0.374385
2 3 0.304779 0.481325 0.378168
4 3 0.326514 0.454103 0.392283
3 3 0.325538 0.46043 0.35482
594 4 0.37577 0.470694 0.361244
592 2 0.397572 0.47313 0.349247
117 3 0.486327 0.440912 0.348534
593 4 0.419374 0.475567 0.337251
753 4 0.438773 0.400833 0.346928
718 2 0.0485324 0.0588889 0.479719
720 4 0.0363638 0.0444241 0.496085
719 4 0.0607011 0.0733537 0.463352
367 2 0.128052 0.0518982 0.434606
369 4 0.127707 0.0756099 0.442531
368 4 0.128397 0.0281864 0.42668
340 2 0.185191 0.056919 0.49284
341 4 0.19492 0.0359862 0.483231
1181 4 0.249747 0.0548037 0.481076
2430 4 0.194772 0.0243602 0.500852
1180 2 0.251706 0.0779218 0.490397
441 4 0.279568 0.0298472 0.40983
439 2 0.282815 0.00510013 0.40834
726 4 0.325119 0.0642618 0.464188
425 4 0.393765 0.0156718 0.419162
2878 2 0.488206 0.0767262 0.446008
458 4 0.0359916 0.159289 0.437069
687 4 0.133116 0.148809 0.420886
1152 4 0.182895 0.0878404 0.519687
320 4 0.296444 0.109053 0.420714
321 4 0.268613 0.144667 0.442109
319 2 0.282528 0.12686 0.431412
1182 4 0.253665 0.10104 0.499719
724 2 0.337739 0.0836254 0.454651
725 4 0.35036 0.102989 0.445115
574 2 0.396442 0.14897 0.467775
575 4 0.400407 0.160393 0.445889
516 4 0.409485 0.154587 0.430264
576 4 0.392477 0.137547 0.48966
642 4 0.475814 0.11498 0.465776
2880 4 0.483092 0.0960714 0.461001
640 2 0.46794 0.121562 0.488576
457 2 0.0141755 0.170718 0.432754
471 4 0.0193472 0.165806 0.492214
469 2 0.023877 0.189807 0.486861
470 4 0.0284069 0.213807 0.481509
260 4 0.116391 0.20256 0.429945
261 4 0.129152 0.178537 0.471907
259 2 0.122771 0.190549 0.450926
1035 4 0.116513 0.182927 0.48702
695 4 0.102333 0.247558 0.467413
468 4 0.330865 0.164021 0.422477
411 4 0.260985 0.197665 0.47059
409 2 0.283479 0.196166 0.481404
410 4 0.305973 0.194666 0.492218
467 4 0.377586 0.181547 0.425756
466 2 0.354226 0.172784 0.424117
872 4 0.39975 0.232718 0.485798
306 4 0.489978 0.224543 0.432562
346 2 0.0433484 0.308332 0.41948
348 4 0.0276368 0.301449 0.437672
327 4 0.114422 0.34153 0.475975
694 2 0.108464 0.262462 0.486529
696 4 0.114595 0.277366 0.505646
10 3 0.177092 0.320427 0.483248
651 4 0.260497 0.268678 0.446911
649 2 0.255313 0.290698 0.45756
650 4 0.25013 0.312719 0.46821
266 4 0.316242 0.275437 0.45708
812 4 0.306935 0.313505 0.503989
267 4 0.36435 0.26179 0.457381
265 2 0.340296 0.268614 0.457231
270 4 0.487304 0.247032 0.396509
583 2 0.461452 0.280018 0.452487
584 4 0.485218 0.287484 0.45034
585 4 0.437686 0.272552 0.454635
681 4 0.0560674 0.419718 0.447906
383 4 0.0758582 0.424168 0.45334
325 2 0.0989438 0.335539 0.457275
6 1 0.163238 0.334277 0.494863
326 4 0.0834655 0.329549 0.438574
7 3 0.141454 0.327596 0.491701
711 4 0.15866 0.375072 0.485114
504 4 0.242866 0.389636 0.438518
709 2 0.175124 0.388334 0.471763
710 4 0.191588 0.401595 0.458412
774 4 0.225916 0.414391 0.497116
8 3 0.165589 0.356058 0.487218
502 2 0.257889 0.40323 0.423865
334 2 0.366556 0.385552 0.412558
238 2 0.388181 0.375179 0.46843
240 4 0.36801 0.374176 0.453689
335 4 0.367925 0.385048 0.437519
239 4 0.408352 0.376183 0.483171
560 4 0.473157 0.371023 0.437066
934 2 0.997381 0.458346 0.507463
680 4 0.029133 0.458161 0.430663
1381 2 0.019259 0.4933 0.450585
1383 4 0.0234419 0.477574 0.431602
679 2 0.0426002 0.438939 0.439285
539 4 0.0683593 0.496546 0.496991
540 4 0.118267 0.493726 0.495587
568 2 0.149384 0.462771 0.439071
569 4 0.135339 0.445904 0.451048
382 2 0.0961324 0.438041 0.448685
384 4 0.116407 0.451914 0.44403
538 2 0.0933132 0.495136 0.496289
1557 4 0.252099 0.498892 0.410566
636 4 0.249512 0.473719 0.473898
634 2 0.23909 0.451392 0.478146
635 4 0.228668 0.429064 0.482394
669 4 0.300363 0.413637 0.465954
667 2 0.297224 0.435666 0.45455
668 4 0.294084 0.457695 0.443146
1401 4 0.326721 0.499834 0.430213
586 2 0.398689 0.438254 0.449044
588 4 0.375284 0.440475 0.440533
663 4 0.468355 0.460622 0.469927
587 4 0.422094 0.436033 0.457556
661 2 0.48057 0.475982 0.48542
1126 2 0.0333893 0.046873 0.533627
1127 4 0.0330041 0.0340675 0.512155
1128 4 0.0337744 0.0596784 0.555099
2237 4 0.0281349 0.0263233 0.495185
2236 2 0.0227119 0.00207103 0.497941
1058 4 0.12849 0.0731059 0.551438
2428 2 0.202604 0.00668848 0.516713
342 4 0.175461 0.0778518 0.502448
1030 2 0.251666 0.0774659 0.567026
961 2 0.280006 0.030192 0.511234
963 4 0.303734 0.0376884 0.513672
962 4 0.256277 0.0226955 0.508796
432 4 0.308233 0.0492171 0.499113
430 2 0.326608 0.0640266 0.507372
1217 4 0.407608 0.0426576 0.551464
1216 2 0.40995 0.0194235 0.560401
841 2 0.385038 0.0660935 0.527193
842 4 0.40544 0.0536964 0.534626
1218 4 0.412292 0.996189 0.569338
1062 4 0.487986 0.0191047 0.517291
938 4 0.0852361 0.112101 0.543396
1057 2 0.130289 0.0899421 0.569836
937 2 0.101636 0.1301 0.549077
939 4 0.118036 0.148098 0.554758
1151 4 0.190686 0.137205 0.52147
1150 2 0.18679 0.112522 0.520578
1032 4 0.259293 0.0975409 0.55422
899 4 0.326564 0.157224 0.549444
843 4 0.364636 0.0784906 0.519759
431 4 0.344983 0.0788361 0.51563
641 4 0.460066 0.128144 0.511377
877 2 0.0552594 0.215984 0.58161
878 4 0.0351697 0.204242 0.57246
1199 4 0.0210104 0.19432 0.581964
1034 4 0.103927 0.18506 0.53537
879 4 0.075349 0.227725 0.590759
1033 2 0.11022 0.183994 0.511195
856 2 0.236664 0.211801 0.540704
1221 4 0.176413 0.179991 0.588761
857 4 0.212869 0.217241 0.535282
797 4 0.225192 0.23485 0.58862
898 2 0.326769 0.179547 0.538183
858 4 0.260458 0.20636 0.546126
900 4 0.326974 0.201871 0.526923
791 4 0.296365 0.228233 0.560297
871 2 0.390299 0.243798 0.506123
905 4 0.483908 0.223564 0.561821
1258 2 0.139032 0.284471 0.531425
1260 4 0.115437 0.285486 0.523212
1259 4 0.162626 0.283456 0.539637
9 3 0.168186 0.333253 0.51751
811 2 0.327465 0.299237 0.503645
804 4 0.294166 0.331143 0.523618
792 4 0.312062 0.272684 0.576982
790 2 0.304213 0.250458 0.56864
813 4 0.347995 0.284968 0.5033
873 4 0.380848 0.254878 0.526448
983 4 0.0256047 0.335091 0.558214
982 2 0.0346523 0.344262 0.579643
1189 2 0.224411 0.36875 0.554997
773 4 0.249396 0.376274 0.519398
1190 4 0.24109 0.373654 0.537026
1191 4 0.207731 0.363847 0.572967
772 2 0.237656 0.395333 0.508257
802 2 0.275701 0.347551 0.527491
803 4 0.257236 0.363959 0.531364
930 4 0.33983 0.391964 0.58064
928 2 0.34211 0.384019 0.557042
929 4 0.34439 0.376075 0.533444
925 2 0.46269 0.399717 0.524471
927 4 0.482414 0.411379 0.534479
926 4 0.442967 0.388056 0.514462
936 4 0.00263957 0.474856 0.52549
1161 4 0.168077 0.448334 0.560149
1171 2 0.234119 0.448135 0.58078
1173 4 0.209677 0.450058 0.575876
1172 4 0.258561 0.446212 0.585684
882 4 0.314036 0.449747 0.538767
880 2 0.337363 0.457353 0.533953
881 4 0.360691 0.464958 0.52914
1952 4 0.362913 0.477743 0.543878
1951 2 0.369396 0.490281 0.564517
1000 2 0.427662 0.431814 0.573859
1001 4 0.443075 0.445535 0.559739
662 4 0.492784 0.491343 0.500914
1083 4 0.0741896 0.109898 0.624468
945 4 0.0568689 0.0123137 0.671216
825 4 0.137361 0.0241855 0.63035
823 2 0.1547 0.00854039 0.63928
951 4 0.246956 0.0423793 0.592388
1031 4 0.24404 0.0573909 0.579833
949 2 0.267997 0.028901 0.591497
950 4 0.289038 0.0154228 0.590606
1092 4 0.33417 0.0151773 0.65372
809 4 0.483876 0.082362 0.618215
808 2 0.473136 0.0767405 0.640084
810 4 0.462396 0.071119 0.661952
1082 4 0.0348588 0.111227 0.655323
1081 2 0.0545242 0.110563 0.639896
1154 4 0.177357 0.151499 0.56078
1059 4 0.132088 0.106778 0.588234
1153 2 0.160879 0.135799 0.571132
1155 4 0.144401 0.120099 0.581483
909 4 0.139832 0.132975 0.653784
1284 4 0.167875 0.0894914 0.633922
1283 4 0.2089 0.0998186 0.660586
1282 2 0.188387 0.094655 0.647254
1272 4 0.0953385 0.223849 0.593232
1270 2 0.120086 0.226785 0.59526
1271 4 0.144834 0.22972 0.597287
1210 2 0.230189 0.192966 0.648446
1212 4 0.208441 0.197386 0.636927
1219 2 0.195162 0.186334 0.604039
1220 4 0.213912 0.192677 0.619317
796 2 0.24509 0.232059 0.603502
798 4 0.264988 0.229268 0.618384
947 4 0.190795 0.245995 0.620236
1211 4 0.251936 0.188546 0.659964
888 4 0.268535 0.19912 0.656499
1193 4 0.366201 0.228391 0.661542
904 2 0.461929 0.2163 0.571273
906 4 0.43995 0.209037 0.580725
1024 2 0.442288 0.191947 0.675532
1025 4 0.441297 0.194299 0.650659
1243 2 0.0581681 0.252397 0.63307
1244 4 0.0495684 0.253499 0.609618
1245 4 0.0667677 0.251294 0.656522
946 2 0.183946 0.267479 0.631037
948 4 0.177096 0.288964 0.641838
1238 4 0.3144 0.292494 0.580708
1237 2 0.303745 0.309405 0.595731
954 4 0.427231 0.274992 0.596379
952 2 0.451411 0.27839 0.601762
953 4 0.475591 0.281788 0.607145
984 4 0.0436999 0.353433 0.601072
1040 4 0.0891602 0.3774 0.636984
1039 2 0.065538 0.377126 0.628792
1041 4 0.0419158 0.376853 0.620601
3263 4 0.0293543 0.362805 0.61224
3262 2 0.0129381 0.364805 0.630993
1137 4 0.127945 0.396862 0.583283
897 4 0.160015 0.384557 0.593146
1136 4 0.0976396 0.361484 0.601469
1135 2 0.112792 0.379173 0.592376
991 2 0.129467 0.38895 0.655932
993 4 0.10712 0.382563 0.646715
896 4 0.208995 0.375172 0.589461
895 2 0.184505 0.379864 0.591304
1239 4 0.293089 0.326315 0.610753
806 4 0.322121 0.360317 0.654297
1029 4 0.249631 0.385472 0.661172
1204 2 0.408424 0.398286 0.652719
1205 4 0.431789 0.391922 0.646492
992 4 0.151815 0.395337 0.66515
1159 2 0.176295 0.44772 0.583755
1187 4 0.227315 0.47791 0.593149
1160 4 0.184513 0.447107 0.607362
1186 2 0.218861 0.494128 0.610198
889 2 0.315592 0.452266 0.598718
891 4 0.29144 0.450983 0.592377
1206 4 0.38506 0.404651 0.658945
890 4 0.339744 0.45355 0.60506
1002 4 0.412249 0.418094 0.587978
1269 4 0.454466 0.461858 0.653029
944 4 0.0831095 0.0537671 0.680899
943 2 0.0699892 0.0330404 0.676057
1147 2 0.20515 0.061352 0.738329
1090 2 0.340062 0.0243172 0.676234
1091 4 0.345955 0.0334572 0.698749
1003 2 0.331733 0.0789165 0.692499
1004 4 0.33231 0.06964 0.715711
1163 4 0.47619 0.0618235 0.673663
1162 2 0.491097 0.0422775 0.678233
42 3 0.417264 0.0677628 0.697265
2320 2 0.484073 0.00763442 0.738358
2283 4 0.417483 0.00281408 0.682773
1076 4 0.0476023 0.11155 0.671503
864 4 0.0611709 0.120373 0.72744
1075 2 0.0454259 0.114143 0.696276
1077 4 0.0432494 0.116736 0.721049
907 2 0.150862 0.138105 0.675629
908 4 0.161892 0.143234 0.697474
1227 4 0.166957 0.132876 0.713039
1148 4 0.202368 0.0821828 0.724782
1225 2 0.180257 0.115005 0.724393
1226 4 0.193557 0.097134 0.735746
1005 4 0.331155 0.088193 0.669287
829 2 0.336561 0.170828 0.705608
831 4 0.357086 0.156549 0.705504
45 3 0.415868 0.0893067 0.666821
43 3 0.440632 0.097031 0.694111
41 1 0.429708 0.0802055 0.68245
1142 4 0.394272 0.15678 0.718175
44 3 0.445214 0.0663336 0.672177
3425 4 0.494139 0.133839 0.721353
851 4 0.0826043 0.19296 0.705639
852 4 0.0382217 0.176216 0.689811
850 2 0.060413 0.184588 0.697725
1213 2 0.0182293 0.223836 0.74127
1215 4 0.998643 0.237888 0.734629
1209 4 0.0723672 0.236047 0.66889
1107 4 0.0836758 0.181162 0.721277
1105 2 0.101675 0.174443 0.73728
1207 2 0.0958809 0.239676 0.676579
1208 4 0.119395 0.243305 0.684267
1130 4 0.183298 0.183506 0.74523
830 4 0.316036 0.185108 0.705712
886 2 0.286027 0.192216 0.672977
887 4 0.30352 0.185313 0.689455
976 2 0.289561 0.1986 0.740626
978 4 0.296549 0.176585 0.73105
977 4 0.282574 0.220615 0.750202
1192 2 0.36529 0.214289 0.682169
1194 4 0.364378 0.200187 0.702796
1143 4 0.432122 0.189419 0.716508
1141 2 0.413197 0.173099 0.717342
1026 4 0.443279 0.189596 0.700405
1261 2 0.451575 0.22766 0.7181
1263 4 0.461269 0.24986 0.724292
1262 4 0.44188 0.20546 0.711908
820 2 0.187911 0.269994 0.738605
821 4 0.180202 0.290448 0.726464
1065 4 0.223473 0.261073 0.704866
1063 2 0.223308 0.27934 0.687793
1064 4 0.223142 0.297607 0.670721
3123 4 0.467118 0.289936 0.672081
3121 2 0.479362 0.268293 0.6747
3274 2 0.0104029 0.391119 0.736881
892 2 0.0572586 0.372732 0.712156
893 4 0.0699917 0.360856 0.694211
894 4 0.0445255 0.384608 0.7301
3276 4 0.0319207 0.382519 0.746272
940 2 0.132536 0.395728 0.747513
941 4 0.151649 0.399698 0.731889
942 4 0.113423 0.391758 0.763137
1067 4 0.155415 0.401328 0.711645
1028 4 0.216874 0.413654 0.68634
1066 2 0.176607 0.404005 0.698647
1068 4 0.197798 0.406681 0.68565
1027 2 0.233252 0.399563 0.673756
805 2 0.32938 0.356512 0.677919
807 4 0.336639 0.352707 0.701542
1019 4 0.369809 0.371509 0.730796
1018 2 0.372459 0.371943 0.755655
1281 4 0.0302532 0.471942 0.697917
1280 4 0.0705349 0.44405 0.687909
1279 2 0.0503941 0.457996 0.692913
1983 4 0.0344032 0.481117 0.722472
1981 2 0.0255387 0.479582 0.745801
1176 4 0.210982 0.481699 0.725872
1174 2 0.219539 0.489918 0.703863
1139 4 0.268853 0.413275 0.702057
1138 2 0.282588 0.434119 0.700622
1140 4 0.296324 0.454963 0.699187
1228 2 0.369178 0.458332 0.714733
1229 4 0.362038 0.482291 0.714337
1230 4 0.376318 0.434373 0.715128
1989 4 0.350465 0.493052 0.727102
1268 4 0.444472 0.500021 0.68376
1267 2 0.449469 0.480939 0.668394
1100 4 0.438524 0.444159 0.725903
1099 2 0.452041 0.42856 0.711791
1101 4 0.465559 0.412962 0.697679
1294 2 0.0181425 0.0198672 0.793113
911 4 0.0575496 0.053879 0.815563
1296 4 0.0127574 0.0295078 0.815546
1295 4 0.0235276 0.0102266 0.77068
1203 4 0.124371 0.0756748 0.766149
1201 2 0.110617 0.0556268 0.771989
1202 4 0.0968642 0.0355789 0.777829
2049 4 0.0966273 0.0184824 0.786807
910 2 0.0720725 0.0726874 0.823342
1149 4 0.207932 0.0405211 0.751876
1255 2 0.267773 0.0660231 0.824454
1257 4 0.254223 0.054077 0.807166
975 4 0.366468 0.00517709 0.814941
1113 4 0.419429 0.0362669 0.785349
1112 4 0.415385 0.039787 0.835068
844 2 0.467641 0.0721086 0.760415
1111 2 0.417407 0.038027 0.810208
845 4 0.449593 0.0606668 0.773396
862 2 0.0531059 0.11573 0.750647
863 4 0.0450408 0.111087 0.773855
832 2 0.00934974 0.117281 0.788549
833 4 0.0251293 0.104462 0.773993
34 3 0.0843061 0.146122 0.821088
31 1 0.0995934 0.157805 0.808118
33 3 0.120181 0.147112 0.808581
35 3 0.0920758 0.159265 0.786671
912 4 0.0865955 0.0914958 0.831121
839 4 0.240733 0.112129 0.811817
838 2 0.261524 0.123245 0.820145
840 4 0.282315 0.134361 0.828474
1086 4 0.320008 0.150284 0.801734
1084 2 0.336935 0.134257 0.810779
1085 4 0.353861 0.11823 0.819824
3468 4 0.493863 0.1587 0.822997
1214 4 0.0378155 0.209785 0.747912
1073 4 0.0887012 0.222249 0.778303
32 3 0.10202 0.178987 0.816755
1106 4 0.119673 0.167724 0.753282