ITEM: TIMESTEP
3310000
ITEM: NUMBER OF ATOMS
4590
ITEM: BOX BOUNDS pp pp pp
-9.9985700000000008e+00 9.9985700000000008e+00
-9.9985700000000008e+00 9.9985700000000008e+00
-9.9985700000000008e+00 9.9985700000000008e+00
ITEM: ATOMS id type xs ys zs
1805 4 0.0595818 0.00811882 0.0753336
465 4 0.0806404 0.0827896 0.0360867
2576 4 0.0443604 0.000549002 0.0645969
700 2 0.119157 0.0776485 0.0308653
702 4 0.1398 0.0732011 0.0174764
566 4 0.15365 0.0619318 0.0101461
701 4 0.0985141 0.0820959 0.0442543
2265 4 0.298306 0.998763 0.00991057
296 4 0.342369 0.07923 0.0883235
746 4 0.483889 0.0493334 0.0460703
2469 4 0.496538 0.0409905 0.0588347
745 2 0.474291 0.0544036 0.0235458
747 4 0.464694 0.0594737 0.00102119
463 2 0.0620172 0.0957544 0.0465876
464 4 0.0433939 0.108719 0.0570885
590 4 0.0249197 0.101126 0.0602523
558 4 0.346986 0.126719 0.0489596
556 2 0.338929 0.111369 0.0669775
866 4 0.352301 0.138326 0.0348708
865 2 0.352741 0.161501 0.0442469
827 4 0.365146 0.126205 0.0435417
826 2 0.380954 0.113962 0.0285295
986 4 0.408405 0.0862633 0.0120477
828 4 0.396762 0.101718 0.0135172
554 4 0.0309773 0.205421 0.0482816
553 2 0.0544009 0.202445 0.0400561
555 4 0.0778245 0.199469 0.0318307
835 2 0.11285 0.210363 0.0116779
836 4 0.0969174 0.204664 0.0300853
666 4 0.329444 0.240388 0.0665149
664 2 0.342195 0.221486 0.0562519
665 4 0.354946 0.202585 0.045989
867 4 0.353181 0.184675 0.053623
2808 4 0.0479537 0.32192 0.0499469
2806 2 0.0296442 0.305922 0.0557775
2807 4 0.0113347 0.289924 0.0616082
573 4 0.316015 0.251995 0.0723782
356 4 0.29796 0.316898 0.0665608
572 4 0.295119 0.296929 0.065667
355 2 0.297338 0.328617 0.0444825
571 2 0.305567 0.274462 0.0690226
357 4 0.296716 0.340336 0.0224042
1070 4 0.394684 0.263899 0.0727145
1069 2 0.419324 0.268141 0.0729487
1071 4 0.443964 0.272383 0.073183
507 4 0.123998 0.334016 0.0729813
505 2 0.137634 0.352169 0.0625071
506 4 0.15127 0.370322 0.052033
483 4 0.169423 0.374091 0.0431873
481 2 0.186706 0.391112 0.0371259
482 4 0.20399 0.408133 0.0310646
902 4 0.290659 0.348266 0.00566581
608 4 0.259454 0.424945 0.0273786
741 4 0.407539 0.380407 0.0792032
671 4 0.495191 0.379464 0.0849465
280 2 0.49711 0.417345 0.0682766
281 4 0.502838 0.393527 0.0732816
552 4 0.073485 0.468569 0.0771395
1787 4 0.0748171 0.488 0.0740304
609 4 0.20978 0.423367 0.0218328
244 2 0.236404 0.480358 0.0405262
245 4 0.226008 0.465697 0.0579091
627 4 0.212034 0.451235 0.0551942
625 2 0.206277 0.433978 0.0723471
272 4 0.25033 0.488521 0.00457792
607 2 0.234617 0.424156 0.0246057
252 4 0.27022 0.439533 0.0196698
250 2 0.292793 0.446687 0.0276966
251 4 0.315367 0.453842 0.0357234
2289 4 0.320956 0.472838 0.0281562
2287 2 0.330349 0.486688 0.00957866
226 2 0.467688 0.474469 0.0691043
227 4 0.480077 0.457022 0.05617
228 4 0.455299 0.491916 0.0820387
282 4 0.491381 0.441164 0.0632716
563 4 0.439724 0.503118 0.0857713
525 4 0.438089 0.483237 0.0828404
16 1 0.0657605 0.0575989 0.143122
20 3 0.0663951 0.0723272 0.125763
18 3 0.0559186 0.037728 0.136289
19 3 0.0537908 0.0667005 0.160794
1806 4 0.0625976 0.0262152 0.121854
1804 2 0.0610897 0.017167 0.0985937
17 3 0.0872266 0.0532355 0.150145
652 2 0.324586 0.0198428 0.141977
654 4 0.30605 0.0139775 0.1577
653 4 0.343121 0.0257081 0.126254
484 2 0.369459 0.0102833 0.0998599
297 4 0.335814 0.0360801 0.112733
485 4 0.348867 0.0220857 0.107726
295 2 0.339092 0.0576551 0.100528
579 4 0.108683 0.148266 0.0887692
237 4 0.155607 0.143734 0.134182
577 2 0.126772 0.151361 0.105751
578 4 0.144861 0.154456 0.122733
235 2 0.162386 0.1232 0.146735
476 4 0.156659 0.163064 0.136168
236 4 0.169164 0.102666 0.159288
691 2 0.211387 0.0969385 0.154719
692 4 0.234738 0.092484 0.146969
737 4 0.164163 0.154555 0.120403
693 4 0.188036 0.101393 0.162469
557 4 0.330871 0.0960193 0.0849954
582 4 0.253375 0.0897908 0.139656
580 2 0.271088 0.106967 0.143705
581 4 0.288801 0.124143 0.147755
29 3 0.296586 0.163476 0.153958
26 1 0.303651 0.145408 0.166686
27 3 0.322429 0.136351 0.156963
771 4 0.429419 0.138239 0.102431
769 2 0.433251 0.162946 0.102194
475 2 0.144321 0.177025 0.152842
736 2 0.182339 0.160694 0.104368
738 4 0.200515 0.166833 0.088333
285 4 0.307661 0.17057 0.138684
461 4 0.330331 0.246731 0.0845563
354 4 0.315101 0.236821 0.141208
462 4 0.324125 0.226722 0.129964
460 2 0.327228 0.236727 0.10726
352 2 0.2997 0.251317 0.154544
283 2 0.312112 0.195024 0.141396
284 4 0.316562 0.219478 0.144108
255 4 0.330629 0.230353 0.145707
253 2 0.349319 0.231556 0.162272
770 4 0.437084 0.187653 0.101958
1014 4 0.451481 0.196251 0.113174
1013 4 0.465007 0.244246 0.116945
1012 2 0.458244 0.220249 0.11506
455 4 0.0738758 0.328233 0.170173
300 4 0.117399 0.31257 0.166529
610 2 0.238258 0.32811 0.115378
756 4 0.248984 0.302455 0.128473
612 4 0.252219 0.308303 0.10922
754 2 0.257396 0.28592 0.145236
755 4 0.265807 0.269385 0.162
323 4 0.460886 0.333158 0.101914
322 2 0.451796 0.312823 0.0905533
324 4 0.442707 0.292489 0.0791922
519 4 0.472882 0.262181 0.112025
517 2 0.484077 0.266336 0.133993
518 4 0.495272 0.27049 0.155961
620 4 0.015883 0.371191 0.0879559
647 4 0.0343678 0.375048 0.0804494
454 2 0.0695675 0.341362 0.149334
456 4 0.0652591 0.35449 0.128495
648 4 0.0705216 0.357782 0.110374
646 2 0.0524447 0.366415 0.0954119
294 4 0.0822747 0.347717 0.121538
293 4 0.121865 0.339999 0.0919793
292 2 0.10207 0.343858 0.106759
626 4 0.200519 0.416721 0.0895001
536 4 0.204733 0.406668 0.108048
611 4 0.224297 0.347918 0.121536
535 2 0.212605 0.382968 0.106803
537 4 0.220478 0.359269 0.105557
739 2 0.39828 0.386128 0.101713
740 4 0.38902 0.391849 0.124224
385 2 0.352551 0.407699 0.12646
386 4 0.375826 0.401673 0.133328
495 4 0.394268 0.405919 0.137166
15 3 0.376434 0.382358 0.136484
11 1 0.389661 0.382241 0.155023
12 3 0.402998 0.363501 0.154695
14 3 0.403201 0.401083 0.155208
670 2 0.475642 0.364372 0.0888505
672 4 0.456093 0.34928 0.0927545
550 2 0.0594302 0.449437 0.084989
551 4 0.0453754 0.430306 0.0928385
242 4 0.0829822 0.479311 0.0899206
241 2 0.10215 0.487737 0.103587
243 4 0.121317 0.496164 0.117254
1440 4 0.140052 0.49517 0.125484
1438 2 0.158661 0.490942 0.109329
1439 4 0.177271 0.486713 0.0931743
639 4 0.194323 0.479942 0.101966
637 2 0.218968 0.483907 0.100524
638 4 0.243613 0.487873 0.0990814
767 4 0.252302 0.505958 0.100327
387 4 0.329277 0.413726 0.119592
303 4 0.288931 0.459334 0.0843282
768 4 0.292467 0.47646 0.0961607
301 2 0.302969 0.443239 0.0973306
302 4 0.317007 0.427144 0.110333
766 2 0.272385 0.491209 0.0982438
493 2 0.402258 0.429456 0.134458
494 4 0.410249 0.452994 0.13175
524 4 0.413046 0.471118 0.124394
660 4 0.412775 0.468128 0.143341
523 2 0.425567 0.477178 0.103617
658 2 0.424944 0.483653 0.158705
675 4 0.0827996 0.0547861 0.170145
380 4 0.0693667 0.0681235 0.17528
379 2 0.0617366 0.0841393 0.1929
673 2 0.104546 0.0502605 0.181625
674 4 0.126293 0.0457348 0.193105
450 4 0.143411 0.0552626 0.189359
1505 4 0.141555 0.0420386 0.203764
1504 2 0.147049 0.020774 0.215715
448 2 0.159232 0.0706938 0.177664
1506 4 0.152542 0.999509 0.227666
689 4 0.171758 0.993312 0.223706
632 4 0.379539 0.0383109 0.24029
22 3 0.385264 0.00702677 0.209619
25 3 0.413809 0.00894849 0.233585
757 2 0.433729 0.038703 0.214355
759 4 0.426802 0.023423 0.232894
758 4 0.440656 0.053983 0.195815
350 4 0.427678 0.0110035 0.247441
512 4 0.0400471 0.115623 0.211579
381 4 0.0541065 0.100155 0.21052
511 2 0.0573295 0.133679 0.210895
513 4 0.0746119 0.151735 0.210211
449 4 0.175052 0.086125 0.165969
30 3 0.287271 0.129608 0.167515
28 3 0.308966 0.152435 0.188152
339 4 0.0756132 0.166338 0.197432
477 4 0.131982 0.190986 0.169516
337 2 0.0941689 0.176731 0.184285
363 4 0.119654 0.2046 0.176561
338 4 0.112725 0.187124 0.171138
362 4 0.12641 0.240451 0.210763
361 2 0.123032 0.222526 0.193662
370 2 0.151373 0.249046 0.237723
723 4 0.232346 0.217476 0.241394
628 2 0.402827 0.213306 0.188526
630 4 0.379331 0.221526 0.190881
254 4 0.36801 0.232758 0.178837
765 4 0.378562 0.24104 0.193067
629 4 0.426323 0.205086 0.18617
311 4 0.477499 0.212894 0.17806
312 4 0.436678 0.197214 0.202317
310 2 0.457089 0.205054 0.190189
761 4 0.467337 0.192467 0.228281
760 2 0.457467 0.200156 0.24993
749 4 0.0573703 0.322726 0.178066
750 4 0.044274 0.287597 0.211159
395 4 0.0424977 0.292839 0.230648
748 2 0.0508221 0.305162 0.194613
372 4 0.137015 0.255024 0.218146
298 2 0.120441 0.325804 0.187524
733 2 0.129307 0.333606 0.252234
353 4 0.284299 0.265813 0.16788
278 4 0.269098 0.259309 0.177809
277 2 0.26591 0.274028 0.197768
279 4 0.262722 0.288748 0.217727
401 4 0.278238 0.296738 0.228144
496 2 0.305924 0.324844 0.209605
498 4 0.293188 0.306959 0.221566
763 2 0.384773 0.265073 0.190062
764 4 0.390984 0.289106 0.187057
623 4 0.40917 0.294439 0.188157
528 4 0.473823 0.293392 0.206218
624 4 0.458201 0.300834 0.195629
622 2 0.433686 0.297636 0.191893
526 2 0.489721 0.284033 0.189341
527 4 0.505618 0.274673 0.172463
262 2 0.0587517 0.399394 0.206615
263 4 0.0818128 0.393304 0.199113
264 4 0.0356905 0.405483 0.214118
2618 4 0.0189407 0.39901 0.222989
2617 2 0.00377607 0.412425 0.23766
299 4 0.123483 0.339038 0.208518
734 4 0.126751 0.339547 0.228081
602 4 0.0993694 0.39872 0.209775
601 2 0.111711 0.377367 0.213891
603 4 0.124052 0.356015 0.218006
290 4 0.17175 0.419598 0.237922
497 4 0.31866 0.34273 0.197643
308 4 0.314906 0.361118 0.191652
307 2 0.336039 0.368492 0.180508
309 4 0.357172 0.375866 0.169364
13 3 0.376505 0.381752 0.17413
289 2 0.181894 0.424 0.215497
291 4 0.192039 0.428402 0.193071
416 4 0.202976 0.437008 0.17857
415 2 0.202392 0.461632 0.174264
1430 4 0.204473 0.491053 0.189222
417 4 0.201808 0.486255 0.169959
597 4 0.488453 0.478887 0.215278
659 4 0.437113 0.499177 0.17407
595 2 0.468649 0.486439 0.202014
645 4 0.495698 0.461088 0.207246
232 2 0.00569615 0.0557334 0.307913
1799 4 0.0145855 0.0150768 0.307724
233 4 0.0147859 0.0333424 0.314332
1402 2 0.0541441 0.019474 0.314598
1403 4 0.0294497 0.0218902 0.317685
1404 4 0.0788385 0.0170577 0.311511
633 4 0.369521 0.0248064 0.287385
631 2 0.37453 0.0315587 0.263837
257 4 0.359599 0.0319039 0.303027
698 4 0.366457 0.0136711 0.303348
256 2 0.353271 0.0487976 0.32034
349 2 0.441533 0.00553141 0.267523
744 4 0.469468 0.00471563 0.301703
742 2 0.487259 0.0132222 0.317075
399 4 0.0770064 0.117375 0.333136
393 4 0.0930727 0.171946 0.30036
398 4 0.0960614 0.159815 0.314792
397 2 0.0865339 0.138595 0.323964
390 4 0.092162 0.177468 0.3194
249 4 0.201999 0.131569 0.324512
404 4 0.203582 0.142934 0.309389
444 4 0.041238 0.250917 0.334148
389 4 0.077729 0.221268 0.338738
392 4 0.111881 0.185858 0.256163
391 2 0.102477 0.178902 0.278261
388 2 0.0849455 0.199368 0.329069
545 4 0.132137 0.181793 0.258184
544 2 0.157139 0.181459 0.258133
371 4 0.165732 0.243067 0.257301
403 2 0.1968 0.160097 0.292518
546 4 0.18214 0.181124 0.258081
721 2 0.216843 0.200417 0.251081
405 4 0.190018 0.17726 0.275648
722 4 0.20134 0.183359 0.260767
376 2 0.297838 0.239968 0.325677
377 4 0.296216 0.215571 0.320449
420 4 0.3865 0.215497 0.290207
717 4 0.387635 0.234077 0.281392
418 2 0.409546 0.207294 0.285031
331 2 0.466046 0.194224 0.307636
332 4 0.450991 0.199116 0.288281
419 4 0.432591 0.19909 0.279855
762 4 0.447597 0.207845 0.271578
333 4 0.481101 0.189333 0.326991
453 4 0.498252 0.195858 0.333992
394 2 0.0427362 0.292901 0.25565
442 2 0.0395721 0.26848 0.31643
364 2 0.0221454 0.320456 0.302311
396 4 0.0429747 0.292962 0.280653
443 4 0.0379061 0.286044 0.298712
365 4 0.0275234 0.299293 0.290129
735 4 0.131864 0.327665 0.276386
677 4 0.151166 0.318907 0.275778
508 2 0.229435 0.324738 0.289953
676 2 0.173756 0.324404 0.284977
678 4 0.196347 0.329902 0.294175
510 4 0.247527 0.307539 0.288527
400 2 0.268043 0.302568 0.250218
402 4 0.257847 0.308397 0.272291
345 4 0.266097 0.300528 0.287646
343 2 0.283268 0.289234 0.301885
344 4 0.30044 0.27794 0.316125
715 2 0.38385 0.254069 0.295923
716 4 0.380064 0.274062 0.310454
542 4 0.376374 0.293533 0.309835
541 2 0.387027 0.30415 0.329809
751 2 0.484588 0.313489 0.329884
753 4 0.478237 0.322474 0.307431
407 4 0.0246481 0.356439 0.323762
366 4 0.0167673 0.341619 0.314492
548 4 0.0154663 0.360047 0.30741
547 2 0.0217389 0.382818 0.299206
549 4 0.0280115 0.405589 0.291001
2493 4 0.00478113 0.354462 0.323111
777 4 0.0406023 0.413701 0.301412
509 4 0.211342 0.341937 0.29138
435 4 0.194462 0.34878 0.299391
433 2 0.191356 0.367042 0.316185
728 4 0.360817 0.413889 0.310393
2536 2 0.499674 0.356042 0.289748
2538 4 0.485005 0.336957 0.296514
2463 4 0.993114 0.486617 0.308044
775 2 0.0589838 0.421279 0.316573
776 4 0.0773653 0.428857 0.331734
1543 2 0.154272 0.483513 0.325947
1545 4 0.175783 0.481622 0.313342
1436 4 0.191499 0.490949 0.319391
727 2 0.361052 0.432995 0.326521
1771 2 0.997779 0.00310988 0.380234
1772 4 0.00506673 0.0189791 0.398129
2236 2 0.00449755 0.0462446 0.413449
606 4 0.15594 0.000232039 0.36362
732 4 0.0839279 0.0786058 0.389146
369 4 0.0919466 0.0626251 0.380068
367 2 0.0885959 0.0424407 0.39444
368 4 0.0852452 0.0222562 0.408811
604 2 0.167463 0.0198197 0.374048
1701 4 0.193039 0.0521246 0.38961
1699 2 0.20365 0.0641358 0.370418
605 4 0.178986 0.0394073 0.384475
1700 4 0.21426 0.0761469 0.351226
258 4 0.346942 0.0656912 0.337653
424 2 0.345622 0.0677415 0.370479
425 4 0.354617 0.0574314 0.391407
1580 4 0.369114 0.0473482 0.40077
426 4 0.336627 0.0780516 0.349551
1579 2 0.380561 0.0251364 0.401656
730 2 0.0793482 0.0925315 0.36889
317 4 0.0594782 0.116609 0.342378
731 4 0.0747685 0.106457 0.348635
316 2 0.0355535 0.122854 0.346091
318 4 0.0116289 0.129099 0.349805
458 4 0.00783302 0.132447 0.368199
457 2 0.00379749 0.155614 0.376696
247 2 0.199751 0.109187 0.33543
248 4 0.197504 0.0868059 0.346348
319 2 0.317813 0.14181 0.39051
321 4 0.32561 0.156462 0.371809
320 4 0.310015 0.127158 0.40921
2642 4 0.49459 0.122133 0.332388
516 4 0.463625 0.158047 0.380279
575 4 0.459955 0.143311 0.39247
574 2 0.45921 0.129243 0.413127
2654 4 0.0110508 0.195439 0.385024
708 4 0.31593 0.174491 0.369057
707 4 0.308708 0.210703 0.335333
706 2 0.312319 0.192597 0.352195
600 4 0.26294 0.179439 0.425083
514 2 0.474866 0.172219 0.363017
515 4 0.486107 0.18639 0.345754
274 2 0.142722 0.313765 0.378963
276 4 0.16025 0.301013 0.391426
275 4 0.125193 0.326518 0.366501
375 4 0.161142 0.280853 0.386774
617 4 0.11072 0.337213 0.355807
373 2 0.185324 0.275758 0.390573
374 4 0.209507 0.270663 0.394371
473 4 0.207959 0.266537 0.414284
378 4 0.299461 0.264365 0.330905
267 4 0.341175 0.280106 0.406145
543 4 0.397681 0.314767 0.349783
467 4 0.390466 0.25587 0.372562
466 2 0.369042 0.266054 0.380465
468 4 0.347617 0.276238 0.388367
615 4 0.41181 0.318041 0.364602
613 2 0.422776 0.307453 0.384422
561 4 0.490389 0.319338 0.365306
752 4 0.49094 0.304503 0.352336
614 4 0.433741 0.296865 0.404242
406 2 0.0372275 0.357388 0.34535
408 4 0.0498068 0.358337 0.366938
347 4 0.0639629 0.359193 0.379603
346 2 0.0548158 0.360789 0.402819
618 4 0.0624108 0.343529 0.367077
616 2 0.0865655 0.340371 0.361442
434 4 0.188251 0.385304 0.332978
504 4 0.293017 0.399849 0.39946
335 4 0.391106 0.402846 0.408257
334 2 0.368572 0.413595 0.40689
240 4 0.40498 0.405641 0.423017
414 4 0.0883821 0.436905 0.346373
1544 4 0.132761 0.485403 0.338551
413 4 0.11888 0.476359 0.350108
412 2 0.103631 0.456632 0.348241
500 4 0.122834 0.494779 0.351322
502 2 0.312208 0.413 0.408621
729 4 0.361288 0.4521 0.342648
437 4 0.353263 0.467139 0.352512
336 4 0.346038 0.424343 0.405523
436 2 0.37471 0.477659 0.359898
438 4 0.396157 0.488179 0.367283
3990 4 0.498614 0.484321 0.38218
1126 2 0.0151904 0.0512457 0.471665
1127 4 0.0217047 0.0636247 0.45094
2237 4 0.0134998 0.0575135 0.433873
720 4 0.0202062 0.075527 0.436629
1128 4 0.00867616 0.0388667 0.492389
1782 4 0.0923846 0.0032875 0.40869
1780 2 0.0842498 0.995101 0.43087
724 2 0.31314 0.0585665 0.478857
963 4 0.302161 0.0231428 0.494461
725 4 0.312482 0.0336509 0.480846
432 4 0.321516 0.0210841 0.492066
430 2 0.343967 0.0143816 0.500796
642 4 0.429947 0.0513969 0.434863
2878 2 0.433862 0.0191739 0.444121
2880 4 0.433032 0.0425826 0.452868
640 2 0.439038 0.0746734 0.435727
469 2 0.0130858 0.148055 0.465945
470 4 0.0346281 0.139212 0.45684
718 2 0.0288915 0.097733 0.444155
719 4 0.0375769 0.119939 0.451681
939 4 0.0921326 0.146197 0.479598
1033 2 0.127143 0.141697 0.458003
1035 4 0.151065 0.146301 0.452373
1034 4 0.103221 0.137093 0.463633
261 4 0.166754 0.143427 0.465209
259 2 0.179431 0.163984 0.471681
726 4 0.313798 0.083482 0.476867
684 4 0.295306 0.134141 0.419313
682 2 0.282607 0.152657 0.430317
1181 4 0.309809 0.125098 0.428131
1182 4 0.324779 0.0933594 0.463758
1180 2 0.317294 0.109229 0.445945
576 4 0.458464 0.115174 0.433784
641 4 0.448128 0.0979498 0.436591
306 4 0.442245 0.113998 0.444603
304 2 0.43641 0.128523 0.464101
305 4 0.430575 0.143048 0.483599
695 4 0.176952 0.196085 0.482648
260 4 0.192107 0.184541 0.478154
687 4 0.229884 0.223897 0.451651
686 4 0.188365 0.20086 0.46734
685 2 0.209125 0.212378 0.459496
474 4 0.236836 0.237903 0.443386
599 4 0.245266 0.222527 0.443296
411 4 0.244197 0.231749 0.458071
683 4 0.269908 0.171173 0.44132
598 2 0.254103 0.200983 0.43419
409 2 0.251455 0.232006 0.481997
488 4 0.254085 0.23782 0.44486
487 2 0.274801 0.250157 0.43824
472 2 0.222397 0.25222 0.428835
489 4 0.295518 0.262493 0.431621
266 4 0.338521 0.312652 0.444019
265 2 0.339848 0.296379 0.425082
348 4 0.0456686 0.362384 0.426035
2812 2 0.00678258 0.35245 0.432468
2813 4 0.0260729 0.366472 0.424954
326 4 0.0383199 0.379312 0.432449
325 2 0.0506751 0.390644 0.450999
327 4 0.0630303 0.401977 0.469549
7 3 0.0824304 0.395844 0.473033
6 1 0.101234 0.38507 0.480746
10 3 0.10938 0.371531 0.464345
8 3 0.117136 0.400947 0.48653
709 2 0.142003 0.416758 0.496965
813 4 0.277549 0.344958 0.464556
811 2 0.264868 0.341548 0.485834
680 4 0.0410744 0.497097 0.499752
679 2 0.046279 0.473267 0.494253
681 4 0.0514836 0.449438 0.488754
383 4 0.0677 0.446702 0.499978
710 4 0.163748 0.425839 0.488606
774 4 0.183391 0.426204 0.486535
635 4 0.171724 0.42735 0.470834
636 4 0.182698 0.458867 0.433592
634 2 0.177211 0.443108 0.452213
668 4 0.333932 0.477053 0.448789
4 3 0.320401 0.491563 0.444423
503 4 0.331399 0.426152 0.417781
667 2 0.340093 0.45791 0.433931
669 4 0.346253 0.438767 0.419072
239 4 0.43778 0.44093 0.436419
238 2 0.42138 0.423285 0.429718
588 4 0.444414 0.447316 0.453639
586 2 0.439891 0.440149 0.477163
1184 4 0.0578026 0.0277182 0.560681
3077 4 0.0463253 0.0224329 0.545479
3076 2 0.0322751 0.0244038 0.52489
1183 2 0.0634587 0.00564178 0.570968
3078 4 0.0182248 0.0263746 0.504302
1152 4 0.147568 0.0529714 0.541083
1150 2 0.139156 0.067479 0.559629
1151 4 0.130744 0.0819867 0.578174
342 4 0.149331 0.0392216 0.527979
340 2 0.167697 0.0234171 0.534151
2430 4 0.205458 0.0144621 0.542358
341 4 0.186062 0.00761269 0.540323
2428 2 0.225919 0.0164255 0.528122
2429 4 0.246381 0.0183889 0.513886
962 4 0.260769 0.0062318 0.516855
961 2 0.281465 0.0146873 0.505658
841 2 0.400815 0.0236843 0.529765
842 4 0.423462 0.031293 0.537138
843 4 0.378167 0.0160757 0.522391
431 4 0.366417 0.00767914 0.509526
1217 4 0.435737 0.0186395 0.545176
1061 4 0.496061 0.0784781 0.532986
877 2 0.0368032 0.147899 0.549842
878 4 0.0157306 0.148653 0.563279
938 4 0.0739216 0.150418 0.52598
1272 4 0.0727289 0.157354 0.543598
937 2 0.0830271 0.148307 0.502789
879 4 0.0578757 0.147145 0.536405
1199 4 0.00626046 0.15887 0.549581
1154 4 0.16418 0.13775 0.586527
1221 4 0.169302 0.155401 0.579211
3159 4 0.460916 0.13613 0.541902
3157 2 0.447518 0.143042 0.521955
1062 4 0.476756 0.123999 0.540461
1060 2 0.486409 0.101239 0.536724
3158 4 0.434121 0.149954 0.502007
1270 2 0.0906923 0.163962 0.559686
1258 2 0.123807 0.240784 0.536758
1260 4 0.138661 0.227079 0.522037
1271 4 0.108656 0.17057 0.575774
1244 4 0.114576 0.186851 0.584974
696 4 0.157972 0.228955 0.515207
694 2 0.167462 0.21252 0.498928
898 2 0.293333 0.23456 0.527739
899 4 0.30968 0.228849 0.545777
857 4 0.32712 0.226234 0.553101
791 4 0.323534 0.239718 0.539069
856 2 0.319146 0.206676 0.566483
900 4 0.276986 0.240271 0.509702
410 4 0.258713 0.232263 0.505922
858 4 0.311172 0.187117 0.579864
790 2 0.344152 0.252077 0.54595
1259 4 0.108953 0.254488 0.55148
651 4 0.293854 0.332469 0.552221
649 2 0.272658 0.333375 0.53899
650 4 0.251462 0.334282 0.525758
792 4 0.36477 0.264437 0.55283
872 4 0.372173 0.281511 0.559156
1238 4 0.359497 0.27242 0.570279
871 2 0.386191 0.286595 0.539086
1237 2 0.350596 0.292126 0.582833
873 4 0.400209 0.291679 0.519016
897 4 0.134962 0.380174 0.585571
9 3 0.0955355 0.372424 0.499347
711 4 0.120258 0.407677 0.505324
773 4 0.212327 0.408232 0.523147
1189 2 0.205204 0.409668 0.565578
1190 4 0.214799 0.407974 0.542551
803 4 0.220513 0.392794 0.532245
802 2 0.233888 0.372508 0.52635
804 4 0.247264 0.352222 0.520456
930 4 0.2301 0.40998 0.530911
772 2 0.197859 0.417218 0.504841
805 2 0.318007 0.335534 0.576102
806 4 0.310224 0.345669 0.55461
812 4 0.252187 0.338137 0.507112
925 2 0.414522 0.398263 0.501873
927 4 0.396757 0.381677 0.495999
2457 4 0.504652 0.343125 0.518135
1010 4 0.500316 0.355246 0.53409
384 4 0.11219 0.42593 0.509459
382 2 0.0899451 0.436316 0.504719
569 4 0.120693 0.434654 0.526561
568 2 0.13195 0.437284 0.548731
570 4 0.143208 0.439913 0.570901
538 2 0.123741 0.481252 0.51834
539 4 0.106961 0.463191 0.522511
928 2 0.249791 0.424265 0.536687
929 4 0.269482 0.438551 0.542463
1951 2 0.259683 0.476104 0.524139
1953 4 0.259819 0.451971 0.530677
1952 4 0.259547 0.500237 0.517601
1001 4 0.413523 0.481756 0.560349
662 4 0.420283 0.464646 0.553586
1000 2 0.392614 0.494233 0.554665
1330 2 0.449205 0.495726 0.544145
661 2 0.422411 0.447659 0.535363
663 4 0.424539 0.430671 0.51714
926 4 0.432287 0.414849 0.507746
1911 4 0.429858 0.473807 0.567987
1332 4 0.430333 0.480588 0.550459
587 4 0.435368 0.432983 0.500687
2374 2 0.137468 0.999358 0.632779
2375 4 0.125399 0.0212244 0.631605
1057 2 0.13048 0.0593772 0.614276
1058 4 0.127326 0.0414249 0.631391
1059 4 0.133634 0.0773295 0.59716
950 4 0.243142 0.00336343 0.61744
949 2 0.252287 0.0204279 0.633262
2400 4 0.33681 0.0150584 0.642613
951 4 0.261432 0.0374923 0.649085
1031 4 0.265341 0.0558615 0.644425
1030 2 0.289846 0.0589847 0.64829
1032 4 0.31435 0.0621079 0.652155
43 3 0.456902 0.0585858 0.630469
45 3 0.4756 0.0369143 0.654931
41 1 0.462718 0.0555648 0.652728
44 3 0.474273 0.0741304 0.660486
1163 4 0.486019 0.0855774 0.67064
1155 4 0.138758 0.0948609 0.590395
1153 2 0.151469 0.116306 0.588461
810 4 0.481549 0.0897801 0.651952
808 2 0.484745 0.100625 0.629651
809 4 0.487941 0.111469 0.607349
3252 4 0.4923 0.12579 0.594382
1245 4 0.102163 0.190012 0.633313
1209 4 0.0998679 0.172005 0.641155
1243 2 0.10837 0.188432 0.609143
1211 4 0.241488 0.170983 0.647847
1219 2 0.18438 0.172645 0.589234
1220 4 0.199459 0.189888 0.599257
1210 2 0.228339 0.181325 0.629264
1212 4 0.21519 0.191667 0.610681
796 2 0.213079 0.22759 0.599588
798 4 0.213629 0.203001 0.595085
888 4 0.248909 0.174058 0.666278
3121 2 0.494846 0.204073 0.60536
3123 4 0.479021 0.222854 0.610055
905 4 0.478494 0.23995 0.599786
982 2 0.0341821 0.333866 0.649989
983 4 0.0118094 0.32835 0.640283
797 4 0.21253 0.252178 0.60409
807 4 0.32579 0.325398 0.597593
1239 4 0.341694 0.311832 0.595387
906 4 0.455577 0.284118 0.594814
904 2 0.467036 0.262034 0.5973
953 4 0.455702 0.302385 0.60335
952 2 0.473946 0.319213 0.600324
984 4 0.0565549 0.339383 0.659695
1041 4 0.0674098 0.355387 0.656211
1039 2 0.067109 0.379043 0.648119
1040 4 0.0668082 0.402699 0.640028
1137 4 0.11652 0.386183 0.589733
1135 2 0.102881 0.365406 0.592467
1136 4 0.0892414 0.344629 0.595201
895 2 0.155758 0.393588 0.589145
1028 4 0.195283 0.391525 0.65305
1027 2 0.192361 0.401087 0.630133
1029 4 0.189439 0.410649 0.607215
1191 4 0.195608 0.411362 0.588604
1068 4 0.181086 0.380691 0.660973
896 4 0.176554 0.407002 0.59272
1206 4 0.481819 0.411722 0.623339
3309 4 0.494238 0.396591 0.620454
954 4 0.49219 0.336041 0.597297
3307 2 0.498874 0.37399 0.610816
993 4 0.0548914 0.416981 0.633204
991 2 0.0448225 0.438284 0.624838
992 4 0.0347536 0.459586 0.616471
1172 4 0.183234 0.424937 0.594707
1160 4 0.194165 0.488908 0.598225
1171 2 0.183277 0.449344 0.600138
1173 4 0.18332 0.47375 0.605569
1187 4 0.187274 0.489842 0.616366
1186 2 0.17656 0.491111 0.638921
1909 2 0.428812 0.462619 0.590324
1268 4 0.443378 0.488279 0.656599
1267 2 0.436307 0.46776 0.644184
1204 2 0.460114 0.423962 0.621281
1910 4 0.427767 0.451432 0.61266
1269 4 0.429236 0.44724 0.631768
1205 4 0.438409 0.436203 0.619222
2168 4 0.464961 0.489174 0.656014
1284 4 0.0954244 0.0465692 0.733495
1282 2 0.111635 0.0643706 0.726749
1225 2 0.168285 0.0832665 0.710541
1283 4 0.127845 0.0821721 0.720003
1201 2 0.20037 0.0406895 0.724295
1203 4 0.203252 0.0626728 0.712736
1226 4 0.19279 0.0785469 0.708986
1148 4 0.211868 0.0796618 0.708829
1202 4 0.197488 0.0187063 0.735854
2049 4 0.189924 0.017249 0.753977
42 3 0.443524 0.0530267 0.66515
1075 2 0.00721997 0.124126 0.720485
1077 4 0.0298117 0.133968 0.72472
850 2 0.0626649 0.147603 0.712617
852 4 0.0409685 0.149522 0.724895
864 4 0.0433167 0.136486 0.739247
1207 2 0.0983282 0.163393 0.664578
1227 4 0.143781 0.0879862 0.712096
909 4 0.0996603 0.13576 0.692819
907 2 0.113779 0.117753 0.702898
908 4 0.127897 0.0997455 0.712977
851 4 0.0843613 0.145684 0.700338
1208 4 0.0967884 0.154781 0.688001
1107 4 0.102899 0.149639 0.705925
1147 2 0.221421 0.0954706 0.725681
1149 4 0.230975 0.111279 0.742534
829 2 0.317993 0.144349 0.703106
830 4 0.297499 0.158174 0.706859
831 4 0.338486 0.130525 0.699353
1142 4 0.348614 0.143961 0.710767
1141 2 0.370894 0.154614 0.714672
1026 4 0.408911 0.155911 0.724392
1143 4 0.393175 0.165268 0.718577
3426 4 0.468019 0.0918945 0.666394
1025 4 0.444203 0.120607 0.721431
3424 2 0.463481 0.103309 0.688172
3425 4 0.458942 0.114723 0.709951
3269 4 0.462521 0.119569 0.728079
1024 2 0.426557 0.138259 0.722911
3268 2 0.475351 0.133009 0.744809
845 4 0.451883 0.103059 0.724518
844 2 0.443063 0.0854389 0.73991
1214 4 0.0279184 0.164454 0.72111
1213 2 0.0104228 0.181613 0.716143
1105 2 0.112618 0.168762 0.718772
1106 4 0.122336 0.187885 0.731619
1130 4 0.140471 0.197034 0.727524
1129 2 0.15449 0.206778 0.745791
887 4 0.288362 0.171833 0.696924
886 2 0.268636 0.172945 0.681601
978 4 0.295583 0.175948 0.714725
976 2 0.307985 0.191878 0.729476
916 2 0.339394 0.24069 0.73517
977 4 0.320388 0.207808 0.744227
1262 4 0.404027 0.173196 0.732591
1194 4 0.411306 0.172335 0.714211
1193 4 0.421488 0.205073 0.677807
1192 2 0.416397 0.188704 0.696009
1261 2 0.417414 0.18455 0.750397
3262 2 0.0746721 0.33099 0.691793
893 4 0.0694055 0.310524 0.723513
3264 4 0.0821556 0.314837 0.709349
892 2 0.0653659 0.322453 0.745113
779 4 0.0881109 0.308895 0.726945
778 2 0.103844 0.289533 0.725282
780 4 0.119578 0.270172 0.723619
1065 4 0.248994 0.300761 0.682514
1064 4 0.289321 0.322514 0.702545
1063 2 0.269158 0.311637 0.69253
946 2 0.316269 0.289241 0.715869
948 4 0.302499 0.307593 0.70593
947 4 0.330039 0.27089 0.725808
917 4 0.346533 0.259531 0.720363
1008 4 0.454133 0.282414 0.692878
1006 2 0.455397 0.274501 0.716563
1007 4 0.456661 0.266588 0.740248
3263 4 0.0671887 0.347144 0.674236
941 4 0.137859 0.382212 0.712405
1067 4 0.153813 0.388159 0.702218
940 2 0.126191 0.379556 0.734359
1066 2 0.167449 0.384425 0.681596
884 4 0.0567733 0.475169 0.742735
1139 4 0.302135 0.446662 0.683168
1138 2 0.31011 0.449591 0.706684
1140 4 0.318085 0.452521 0.7302
1989 4 0.322403 0.446444 0.747938
1229 4 0.333032 0.439887 0.73316
1230 4 0.380357 0.43446 0.748379
1100 4 0.399525 0.43437 0.748411
1228 2 0.356695 0.437173 0.74077
1099 2 0.42162 0.442786 0.740278
1101 4 0.443716 0.451202 0.732145
3330 4 0.455404 0.466035 0.726437
3328 2 0.464868 0.460115 0.704063
1251 4 0.44646 0.465465 0.744004
3329 4 0.474331 0.454195 0.68169
1249 2 0.451364 0.489431 0.749177
834 4 0.0317739 0.0760624 0.815547
785 4 0.0176671 0.068629 0.828813
2048 4 0.141895 0.0124659 0.767059
2047 2 0.16591 0.0148575 0.760518
2254 2 0.225466 0.0187919 0.76852
2255 4 0.242764 0.024446 0.785666
2256 4 0.208168 0.0131377 0.751373
1113 4 0.354066 0.0699726 0.795625
1111 2 0.368283 0.0835293 0.811093
1112 4 0.382501 0.097086 0.826561
2442 4 0.446666 0.0014029 0.811121
2321 4 0.442514 0.0121418 0.794631
2322 4 0.438194 0.0488648 0.760964
2320 2 0.440354 0.0305033 0.777797
846 4 0.434243 0.0678186 0.755302
980 4 0.432979 0.015335 0.81068
979 2 0.414218 0.0162168 0.827185
832 2 0.0470158 0.0944967 0.808264
862 2 0.0501494 0.126085 0.760933
863 4 0.056982 0.115684 0.78262
833 4 0.0622577 0.112931 0.800981
1125 4 0.0592712 0.131363 0.79415
1123 2 0.0666084 0.149919 0.809217
1124 4 0.0739456 0.168475 0.824284
34 3 0.113369 0.178636 0.813235
1257 4 0.23661 0.102269 0.759122
1255 2 0.227439 0.115813 0.778033
921 4 0.207977 0.134207 0.811222
919 2 0.195004 0.15455 0.817783
840 4 0.228126 0.133233 0.812921
1256 4 0.218269 0.129358 0.796944
838 2 0.248997 0.141347 0.824045
839 4 0.269868 0.149461 0.835169
818 4 0.393966 0.104644 0.842084
817 2 0.390031 0.129169 0.839222
819 4 0.386097 0.153695 0.83636
3270 4 0.488181 0.14645 0.76154
1146 4 0.485171 0.162407 0.771449
33 3 0.105193 0.205168 0.839189
1131 4 0.168509 0.216523 0.764058
822 4 0.179219 0.232702 0.768148
1277 4 0.180772 0.217054 0.7796
1276 2 0.176222 0.20381 0.800314
920 4 0.182032 0.174893 0.824345
1278 4 0.171673 0.190567 0.821029
918 4 0.332256 0.22185 0.749977
1298 4 0.328207 0.207618 0.762561
1297 2 0.33193 0.189627 0.779521
1299 4 0.335654 0.171636 0.796481
1086 4 0.33686 0.173681 0.817793
50 3 0.403429 0.200804 0.80703
1084 2 0.356985 0.170975 0.832383
46 1 0.42559 0.20123 0.801799
49 3 0.431553 0.222368 0.794316
1043 4 0.439616 0.211557 0.77754
48 3 0.438228 0.195559 0.820414
47 3 0.429723 0.185982 0.785079
1263 4 0.4308 0.195905 0.768203
1145 4 0.446601 0.193591 0.777819
1144 2 0.465886 0.177999 0.774634
1042 2 0.446443 0.231163 0.763604
820 2 0.168221 0.254549 0.773338
821 4 0.157223 0.276395 0.778528
1236 4 0.236549 0.312134 0.772263
1234 2 0.238268 0.327181 0.792158
1044 4 0.45327 0.250768 0.749669
1166 4 0.464595 0.26489 0.757504
1165 2 0.485842 0.268506 0.77018
894 4 0.0613262 0.334381 0.766713
3275 4 0.00641545 0.347735 0.802443