ITEM: TIMESTEP
1950000
ITEM: NUMBER OF ATOMS
4590
ITEM: BOX BOUNDS pp pp pp
-9.9985700000000008e+00 9.9985700000000008e+00
-9.9985700000000008e+00 9.9985700000000008e+00
-9.9985700000000008e+00 9.9985700000000008e+00
ITEM: ATOMS id type xs ys zs
701 4 0.0788407 0.0612424 0.0176061
465 4 0.0671113 0.0668148 0.00260341
463 2 0.0534671 0.0828062 0.0161419
700 2 0.102267 0.0613187 0.0263468
702 4 0.125693 0.061395 0.0350875
566 4 0.134713 0.0782692 0.0418411
2264 4 0.275598 0.021306 0.0387054
2263 2 0.280824 0.0342236 0.0179447
491 4 0.278065 0.00337843 0.0476893
746 4 0.465391 0.0614063 0.0252437
2469 4 0.475725 0.04777 0.0368962
2467 2 0.47958 0.0232858 0.0401893
745 2 0.460333 0.0622568 0.000771733
464 4 0.039823 0.0987977 0.0296803
590 4 0.0261744 0.112567 0.034321
589 2 0.0150334 0.11035 0.0565953
591 4 0.00389236 0.108134 0.0788696
565 2 0.152294 0.0863477 0.0260034
567 4 0.169875 0.0944262 0.0101657
558 4 0.321237 0.120307 0.0423289
556 2 0.326997 0.111291 0.0649278
865 2 0.352197 0.159914 0.0103329
771 4 0.486956 0.124871 0.0758493
554 4 0.0436214 0.217924 0.052818
553 2 0.060676 0.228362 0.0378054
555 4 0.0777307 0.238799 0.0227927
835 2 0.115896 0.219851 0.00702376
836 4 0.0930214 0.227424 0.0137018
738 4 0.14445 0.192059 0.0807264
915 4 0.158082 0.217043 0.00389734
573 4 0.331546 0.246305 0.0554019
666 4 0.343827 0.232673 0.0621259
461 4 0.336763 0.247265 0.0738194
867 4 0.347706 0.179222 0.0255709
664 2 0.3394 0.212719 0.0477237
665 4 0.334974 0.192765 0.0333214
1070 4 0.427662 0.211421 0.0470556
1069 2 0.418971 0.234499 0.0429262
294 4 0.0924557 0.312896 0.040017
292 2 0.115478 0.320423 0.0462221
507 4 0.154614 0.317522 0.0460147
293 4 0.1385 0.32795 0.0524272
505 2 0.175437 0.329124 0.0535629
356 4 0.327392 0.301247 0.0263968
355 2 0.318973 0.322274 0.015805
572 4 0.339658 0.292533 0.0381429
571 2 0.335602 0.269419 0.0467724
1071 4 0.41028 0.257577 0.0387968
324 4 0.416204 0.275239 0.0466178
322 2 0.417695 0.296315 0.0599876
323 4 0.419185 0.317391 0.0733574
672 4 0.437183 0.326367 0.0790688
620 4 0.00135222 0.358243 0.0613032
647 4 0.0187093 0.358072 0.0707581
646 2 0.0422075 0.356381 0.0791339
483 4 0.19664 0.359141 0.0536163
506 4 0.19626 0.340726 0.0611111
481 2 0.214739 0.370991 0.0410788
609 4 0.247017 0.395575 0.0316963
482 4 0.232838 0.38284 0.0285414
607 2 0.263148 0.414121 0.0271131
357 4 0.310555 0.3433 0.00521323
670 2 0.453376 0.343777 0.0713314
281 4 0.467143 0.380569 0.0634812
671 4 0.469568 0.361187 0.063594
2651 4 0.483842 0.37291 0.0703812
280 2 0.469993 0.405396 0.0626582
551 4 0.0624987 0.441983 0.0634803
550 2 0.0789148 0.460294 0.0679978
552 4 0.095331 0.478604 0.0725154
1787 4 0.0996189 0.493992 0.0622685
242 4 0.10333 0.493169 0.0819239
246 4 0.240555 0.479581 0.034396
244 2 0.238377 0.463815 0.0536805
245 4 0.2362 0.44805 0.072965
627 4 0.238903 0.430699 0.0811058
272 4 0.250707 0.476946 0.0176374
608 4 0.279279 0.432667 0.0225299
252 4 0.294946 0.434822 0.00973545
250 2 0.314701 0.450148 0.00973388
1778 4 0.257072 0.489764 0.0314339
2289 4 0.330338 0.48372 0.000708134
251 4 0.334456 0.465475 0.00973232
282 4 0.472843 0.430223 0.0618352
226 2 0.477437 0.469231 0.0527154
228 4 0.489784 0.490148 0.0467835
227 4 0.46509 0.448313 0.0586472
16 1 0.0661031 0.0536686 0.140313
20 3 0.0549813 0.0640292 0.123354
1806 4 0.0626398 0.0160876 0.150891
18 3 0.0546791 0.0345219 0.14674
1804 2 0.0571028 0.00151637 0.131341
19 3 0.0681971 0.0680817 0.158377
17 3 0.0871109 0.0477166 0.133075
673 2 0.117629 0.0534022 0.161904
675 4 0.0974313 0.0552649 0.147282
448 2 0.167957 0.0776181 0.159171
692 4 0.238759 0.0793109 0.151074
652 2 0.316438 0.0366754 0.153433
654 4 0.314988 0.0129599 0.161221
653 4 0.317889 0.0603908 0.145646
582 4 0.256623 0.0812448 0.162055
484 2 0.365073 0.00655564 0.114739
295 2 0.341845 0.0699479 0.104835
297 4 0.351414 0.0468485 0.104685
485 4 0.354141 0.0289672 0.112897
380 4 0.0733515 0.0854177 0.16523
2624 4 0.000674863 0.107877 0.0985357
579 4 0.0896527 0.108162 0.102111
237 4 0.138741 0.135748 0.12021
578 4 0.122705 0.1437 0.114166
577 2 0.106179 0.125931 0.108139
476 4 0.133388 0.150906 0.130241
737 4 0.13835 0.153627 0.112135
235 2 0.158726 0.122731 0.127717
475 2 0.120243 0.16402 0.146986
236 4 0.178711 0.109714 0.135223
693 4 0.197079 0.104308 0.139297
449 4 0.182158 0.0949437 0.148065
691 2 0.217919 0.0918094 0.145185
557 4 0.332758 0.102275 0.0875266
296 4 0.332275 0.0930474 0.104985
311 4 0.429272 0.149046 0.135187
736 2 0.1414 0.172843 0.0964309
477 4 0.107098 0.177133 0.163731
283 2 0.324689 0.198863 0.137044
354 4 0.328067 0.239496 0.136943
285 4 0.317038 0.175089 0.138228
284 4 0.33234 0.222638 0.135859
462 4 0.333356 0.232886 0.121594
460 2 0.33506 0.240075 0.0977065
255 4 0.344818 0.23479 0.134743
254 4 0.386135 0.240672 0.162294
253 2 0.365476 0.237731 0.148519
310 2 0.438275 0.170018 0.1454
1012 2 0.497832 0.196157 0.106683
1013 4 0.481092 0.214641 0.104877
312 4 0.447278 0.19099 0.155613
629 4 0.433035 0.203269 0.161208
279 4 0.234497 0.257293 0.160198
352 2 0.31269 0.257873 0.144087
353 4 0.297314 0.27625 0.15123
754 2 0.283729 0.313449 0.150351
755 4 0.29042 0.291988 0.161298
278 4 0.281498 0.274257 0.162159
277 2 0.257998 0.265775 0.161179
456 4 0.0698238 0.344243 0.104288
648 4 0.0657056 0.354689 0.0875097
454 2 0.0931797 0.352412 0.10069
455 4 0.116536 0.360581 0.097091
625 2 0.225455 0.411642 0.0901148
626 4 0.212007 0.392585 0.0991238
537 4 0.209837 0.339637 0.0989671
535 2 0.201418 0.363144 0.0976624
611 4 0.227662 0.346014 0.106034
536 4 0.192999 0.386652 0.0963578
756 4 0.277038 0.33491 0.139404
610 2 0.25098 0.340535 0.113204
612 4 0.274299 0.335055 0.120374
741 4 0.387943 0.355801 0.100905
739 2 0.389302 0.368505 0.122398
740 4 0.39066 0.381209 0.14389
15 3 0.379684 0.376353 0.159817
385 2 0.359421 0.40633 0.149864
386 4 0.381371 0.395155 0.154163
495 4 0.400955 0.39635 0.151763
493 2 0.413195 0.415142 0.140708
14 3 0.414656 0.389371 0.164831
1467 4 0.00580336 0.456893 0.0896523
1465 2 0.0231829 0.474549 0.0930289
1466 4 0.0405624 0.492205 0.0964056
1791 4 0.0440251 0.498264 0.115112
243 4 0.132945 0.48928 0.122031
241 2 0.118137 0.491225 0.101977
1438 2 0.164837 0.496757 0.141568
637 2 0.223225 0.483758 0.162074
639 4 0.200108 0.48682 0.153053
1439 4 0.1819 0.492185 0.159264
303 4 0.300419 0.457147 0.131929
766 2 0.268919 0.465716 0.135034
768 4 0.284929 0.456072 0.118425
301 2 0.32094 0.446746 0.14172
767 4 0.25291 0.47536 0.151643
387 4 0.337471 0.417505 0.145564
302 4 0.341461 0.436344 0.151511
494 4 0.425434 0.433934 0.129652
660 4 0.42994 0.451972 0.136566
658 2 0.438235 0.468712 0.153184
1422 4 0.0332577 0.00209041 0.221752
2480 4 0.0133976 0.00462197 0.22449
450 4 0.153757 0.0602924 0.170277
674 4 0.137826 0.0515395 0.176525
1505 4 0.15527 0.0437052 0.18063
1504 2 0.169503 0.0338853 0.19869
689 4 0.187162 0.00904964 0.229009
1506 4 0.183736 0.0240653 0.21675
22 3 0.406447 0.0179975 0.199874
21 1 0.40738 0.0103874 0.221562
23 3 0.388365 0.0174671 0.23282
758 4 0.439376 0.0793418 0.208634
757 2 0.435526 0.058168 0.221363
25 3 0.425976 0.0187946 0.231669
759 4 0.431676 0.0369942 0.234092
350 4 0.44207 0.0234789 0.241682
379 2 0.0569829 0.0991308 0.178238
512 4 0.0537581 0.120854 0.204447
381 4 0.0406144 0.112844 0.191245
511 2 0.0549978 0.145218 0.209928
580 2 0.274619 0.0962343 0.170809
581 4 0.292615 0.111224 0.179564
30 3 0.293366 0.125259 0.19362
26 1 0.305799 0.143841 0.197952
27 3 0.299444 0.152652 0.218229
28 3 0.302286 0.159748 0.181429
29 3 0.328301 0.138262 0.198921
521 4 0.464227 0.158613 0.213153
337 2 0.0664259 0.183557 0.17212
513 4 0.0562375 0.169582 0.21541
339 4 0.0425458 0.179565 0.178363
338 4 0.090306 0.18755 0.165877
363 4 0.10773 0.195594 0.170221
362 4 0.128626 0.224878 0.204957
361 2 0.118178 0.210236 0.187589
372 4 0.141334 0.236196 0.214823
723 4 0.230041 0.20856 0.244184
630 4 0.39872 0.235996 0.177088
628 2 0.415877 0.219632 0.169148
520 2 0.486876 0.168964 0.2154
420 4 0.421048 0.227365 0.247888
394 2 0.0501578 0.29801 0.248769
750 4 0.0774649 0.300322 0.214845
395 4 0.069145 0.304635 0.233911
748 2 0.0709468 0.296869 0.190954
749 4 0.0644287 0.293415 0.167063
370 2 0.158178 0.254622 0.216224
300 4 0.147383 0.324222 0.212052
298 2 0.131042 0.332718 0.228964
371 4 0.175022 0.273047 0.217624
401 4 0.218018 0.27256 0.243854
307 2 0.312758 0.29571 0.214123
309 4 0.311106 0.286352 0.190996
308 4 0.314411 0.305068 0.237251
497 4 0.298675 0.316079 0.244713
765 4 0.394302 0.254851 0.173248
763 2 0.412106 0.27081 0.180563
764 4 0.42991 0.286769 0.187879
623 4 0.438614 0.279835 0.203136
622 2 0.462217 0.287821 0.201061
624 4 0.48582 0.295808 0.198987
528 4 0.499617 0.308052 0.190974
2618 4 0.0213765 0.410467 0.237906
262 2 0.0447272 0.396319 0.217235
263 4 0.0693771 0.392917 0.214788
602 4 0.0700663 0.374631 0.22238
264 4 0.0200774 0.399721 0.219682
601 2 0.084242 0.361583 0.238317
290 4 0.149938 0.378701 0.192953
289 2 0.164613 0.393329 0.206947
299 4 0.114702 0.341213 0.245875
291 4 0.179288 0.407958 0.220941
11 1 0.397767 0.376134 0.173659
12 3 0.405507 0.354566 0.175672
13 3 0.39175 0.383935 0.194668
1775 4 0.139032 0.497836 0.240267
638 4 0.246343 0.480695 0.171095
416 4 0.186501 0.423922 0.212309
415 2 0.183677 0.44803 0.206307
1430 4 0.193915 0.485133 0.208901
417 4 0.180854 0.472137 0.200304
659 4 0.44653 0.485451 0.169802
595 2 0.482581 0.478015 0.186863
596 4 0.462058 0.48998 0.179062
231 4 0.444988 0.491558 0.188186
232 2 0.0037211 0.0596886 0.299601
1799 4 0.0239293 0.0250985 0.307459
233 4 0.0199998 0.0410505 0.296023
1402 2 0.0580411 0.0255221 0.292136
1403 4 0.0377546 0.0372279 0.300889
1798 2 0.0136726 0.0145744 0.327688
1404 4 0.0783275 0.0138163 0.283384
1464 4 0.149069 0.00285122 0.290085
633 4 0.3834 0.039593 0.319394
631 2 0.385777 0.048577 0.296182
632 4 0.388155 0.057561 0.27297
257 4 0.388094 0.0552604 0.329187
349 2 0.46408 0.0212781 0.25334
351 4 0.486091 0.0190773 0.264997
399 4 0.0507407 0.101302 0.329468
397 2 0.069786 0.116654 0.324295
317 4 0.0322285 0.10372 0.333569
545 4 0.135192 0.151777 0.255174
398 4 0.0888314 0.132006 0.319121
393 4 0.0860652 0.138308 0.300907
392 4 0.116905 0.145562 0.262216
390 4 0.0929306 0.150969 0.31471
391 2 0.101485 0.141935 0.281562
544 2 0.158207 0.159945 0.260538
249 4 0.218267 0.15023 0.326394
444 4 0.0241179 0.230839 0.265209
388 2 0.09565 0.17128 0.329037
721 2 0.213442 0.194402 0.256399
404 4 0.211302 0.169605 0.326746
403 2 0.198889 0.171665 0.305139
405 4 0.186476 0.173724 0.283532
546 4 0.181222 0.168113 0.265903
722 4 0.196844 0.180243 0.268613
378 4 0.286192 0.239316 0.320818
376 2 0.291398 0.216467 0.329535
717 4 0.417442 0.244646 0.255811
331 2 0.460367 0.201258 0.31105
332 4 0.463166 0.212762 0.289027
418 2 0.439641 0.21597 0.260121
419 4 0.458234 0.204576 0.272354
760 2 0.493862 0.201875 0.261715
762 4 0.476891 0.202941 0.280046
364 2 0.00358362 0.318527 0.28143
396 4 0.0311706 0.291384 0.263627
443 4 0.0178718 0.27984 0.272993
365 4 0.0177065 0.299014 0.274725
442 2 0.0209949 0.25534 0.269101
510 4 0.234974 0.29848 0.301031
508 2 0.215645 0.311838 0.309582
400 2 0.228589 0.27865 0.265678
402 4 0.239161 0.28474 0.287503
509 4 0.196316 0.325197 0.318134
345 4 0.253572 0.293435 0.298056
343 2 0.268006 0.276268 0.309107
344 4 0.282441 0.259102 0.320159
496 2 0.284143 0.332388 0.256879
715 2 0.408635 0.263547 0.269609
716 4 0.399829 0.282447 0.283408
542 4 0.397052 0.287305 0.303002
541 2 0.389545 0.31024 0.309546
543 4 0.382038 0.333175 0.31609
547 2 0.0281451 0.393381 0.306237
548 4 0.0100035 0.376691 0.310422
549 4 0.0462868 0.41007 0.302052
777 4 0.0584585 0.405705 0.31615
2617 2 0.00435645 0.410881 0.256218
603 4 0.0984177 0.348535 0.254254
734 4 0.112961 0.342984 0.264923
733 2 0.117641 0.339797 0.289277
735 4 0.122322 0.33661 0.313631
677 4 0.132506 0.334136 0.330405
676 2 0.157115 0.33601 0.326396
678 4 0.181724 0.337883 0.322387
435 4 0.199536 0.34416 0.318507
498 4 0.269611 0.348697 0.269044
728 4 0.374017 0.415582 0.260978
615 4 0.391417 0.350016 0.321378
2537 4 0.498999 0.384101 0.26232
2860 2 0.461376 0.402706 0.250408
2538 4 0.49664 0.369513 0.310094
2536 2 0.49782 0.376807 0.286207
2862 4 0.479703 0.385701 0.25001
753 4 0.489106 0.351232 0.31157
751 2 0.490925 0.337414 0.332329
775 2 0.0721381 0.42657 0.317798
776 4 0.0858176 0.447435 0.319445
414 4 0.0974507 0.45467 0.304017
412 2 0.109836 0.473364 0.315077
413 4 0.122221 0.492058 0.326137
438 4 0.33675 0.476732 0.330046
436 2 0.348233 0.457111 0.319637
727 2 0.368249 0.416869 0.285273
729 4 0.362481 0.418157 0.309568
437 4 0.359716 0.437491 0.309228
2861 4 0.44305 0.419711 0.250805
1800 4 0.00341597 0.0040503 0.347917
1771 2 0.0172503 0.00831176 0.383742
1772 4 0.027671 0.0213437 0.402363
732 4 0.0569663 0.050635 0.369747
2238 4 0.0345422 0.0402753 0.396772
369 4 0.0663205 0.0478485 0.387773
730 2 0.0490197 0.0687719 0.35448
367 2 0.0816179 0.0325443 0.400301
368 4 0.0969154 0.0172402 0.412829
699 4 0.349096 0.00235572 0.342777
698 4 0.382179 0.0396352 0.338723
697 2 0.365638 0.0209955 0.34075
256 2 0.395705 0.0644088 0.351177
258 4 0.403316 0.0735571 0.373167
426 4 0.384698 0.0714979 0.382404
424 2 0.374046 0.0638282 0.403685
479 4 0.497868 0.0426671 0.332978
478 2 0.478356 0.0566951 0.339881
480 4 0.458843 0.0707231 0.346785
731 4 0.041073 0.0869088 0.339213
318 4 0.000444644 0.138661 0.349988
316 2 0.0163366 0.12119 0.341779
1701 4 0.155467 0.0999554 0.374769
604 2 0.138612 0.105522 0.405734
605 4 0.160477 0.100657 0.394625
247 2 0.21598 0.127248 0.335973
1699 2 0.1767 0.0968346 0.36194
1700 4 0.197933 0.0937139 0.349111
248 4 0.213693 0.104265 0.345552
600 4 0.23096 0.140905 0.395162
683 4 0.24791 0.133262 0.403589
598 2 0.226741 0.162976 0.406128
682 2 0.269559 0.121846 0.408705
319 2 0.322013 0.133096 0.398051
320 4 0.310171 0.115154 0.410819
684 4 0.291209 0.110431 0.413821
708 4 0.345972 0.158394 0.370903
321 4 0.333855 0.151039 0.385283
516 4 0.44072 0.129691 0.360228
575 4 0.445364 0.114048 0.372613
574 2 0.444194 0.111863 0.397493
514 2 0.449224 0.151928 0.352588
389 4 0.0983693 0.19159 0.343364
377 4 0.296605 0.193618 0.338253
707 4 0.314027 0.18722 0.345422
474 4 0.268955 0.24102 0.408599
706 2 0.33 0.172807 0.358163
488 4 0.265796 0.221514 0.410968
333 4 0.457568 0.189754 0.333073
515 4 0.457729 0.174165 0.344947
453 4 0.47077 0.188241 0.347396
451 2 0.491416 0.195444 0.359522
347 4 0.070324 0.314738 0.394852
618 4 0.0798545 0.319156 0.3782
275 4 0.139122 0.321665 0.362025
617 4 0.127947 0.308333 0.369789
616 2 0.1039 0.313744 0.373995
274 2 0.156879 0.312919 0.377301
473 4 0.234357 0.266747 0.383264
374 4 0.216898 0.263657 0.39075
276 4 0.174636 0.304173 0.392578
373 2 0.194127 0.273854 0.392382
375 4 0.171356 0.284051 0.394015
472 2 0.251656 0.253883 0.395932
561 4 0.49476 0.325816 0.37213
752 4 0.492744 0.323595 0.353088
408 4 0.0136153 0.346466 0.362678
346 2 0.0620225 0.336196 0.404642
406 2 0.00587829 0.35443 0.340275
348 4 0.0537211 0.357653 0.414432
433 2 0.207775 0.358891 0.336954
434 4 0.216013 0.373622 0.355401
502 2 0.293218 0.39954 0.381736
503 4 0.309036 0.416551 0.390989
336 4 0.326415 0.410503 0.3983
504 4 0.2774 0.38253 0.372483
334 2 0.349584 0.406473 0.389809
335 4 0.372754 0.402444 0.381317
240 4 0.386128 0.409753 0.395056
613 2 0.404045 0.354081 0.342572
614 4 0.416673 0.358146 0.363766
4 3 0.32742 0.493447 0.415157
668 4 0.316767 0.477012 0.409814
669 4 0.323159 0.429451 0.395749
667 2 0.319963 0.453232 0.402782
3990 4 0.472962 0.493822 0.355429
1127 4 0.00972629 0.0623623 0.456567
2237 4 0.0196556 0.0556179 0.441979
2236 2 0.0270989 0.0479466 0.419376
720 4 0.0287779 0.0678412 0.454263
718 2 0.043442 0.0807213 0.469892
1782 4 0.0797655 0.0129743 0.423407
1780 2 0.0853956 0.00281742 0.44555
724 2 0.304573 0.0419184 0.481554
963 4 0.285799 0.00761079 0.493325
726 4 0.30745 0.0651953 0.472889
725 4 0.301696 0.0186416 0.49022
1182 4 0.296862 0.0670256 0.455669
961 2 0.262016 0.000494372 0.496312
1579 2 0.347095 0.0173101 0.418846
1580 4 0.361033 0.0380365 0.417701
425 4 0.363394 0.0561585 0.424966
1428 4 0.472012 0.00399141 0.423063
2880 4 0.469601 0.0827647 0.493578
642 4 0.455614 0.0762226 0.481345
719 4 0.0581061 0.0936014 0.48552
606 4 0.116746 0.110387 0.416842
1033 2 0.120823 0.146475 0.469362
1035 4 0.137279 0.160431 0.456729
1034 4 0.104366 0.13252 0.481996
261 4 0.147995 0.161577 0.439098
939 4 0.102965 0.148194 0.495018
1180 2 0.300765 0.0873114 0.441583
1181 4 0.304668 0.107597 0.427496
640 2 0.452197 0.0903447 0.460997
3157 2 0.479073 0.159846 0.489938
641 4 0.448781 0.104467 0.440648
576 4 0.443024 0.109678 0.422374
306 4 0.443591 0.123079 0.436383
304 2 0.448644 0.145807 0.445497
3158 4 0.461185 0.162227 0.472632
470 4 0.0134761 0.180145 0.498954
259 2 0.159541 0.181766 0.448275
694 2 0.163427 0.228627 0.477324
696 4 0.145339 0.23994 0.490364
1258 2 0.110279 0.217575 0.500215
1260 4 0.126278 0.234647 0.491397
599 4 0.222522 0.185046 0.417094
260 4 0.171088 0.201956 0.457453
695 4 0.181514 0.217315 0.464283
687 4 0.227775 0.202231 0.424777
686 4 0.190987 0.202058 0.45865
685 2 0.209381 0.202144 0.441714
487 2 0.269091 0.199457 0.422272
489 4 0.272387 0.177399 0.433576
411 4 0.264527 0.210162 0.453833
409 2 0.270027 0.209736 0.47822
267 4 0.354065 0.245632 0.41669
467 4 0.359755 0.18608 0.422865
466 2 0.359281 0.210581 0.427833
468 4 0.358807 0.235081 0.4328
305 4 0.453696 0.168536 0.454611
585 4 0.468871 0.24555 0.465992
813 4 0.24265 0.295244 0.481613
265 2 0.358984 0.268347 0.42591
266 4 0.363904 0.291062 0.43513
584 4 0.487199 0.283024 0.49357
583 2 0.478035 0.264287 0.479781
2456 4 0.474699 0.297908 0.48945
2812 2 0.0173739 0.354995 0.436174
2813 4 0.0393744 0.361786 0.426425
326 4 0.0582889 0.368305 0.42966
325 2 0.0780194 0.380685 0.43875
10 3 0.126122 0.350949 0.463624
327 4 0.09775 0.393064 0.447841
7 3 0.103639 0.380678 0.461727
6 1 0.118237 0.368969 0.475103
711 4 0.146996 0.392088 0.493837
8 3 0.135823 0.382906 0.48101
9 3 0.106976 0.361927 0.494129
774 4 0.212067 0.391097 0.472224
635 4 0.204954 0.407716 0.464873
709 2 0.169608 0.393746 0.483295
772 2 0.229171 0.38918 0.490362
710 4 0.19222 0.395405 0.472753
588 4 0.396193 0.411997 0.452885
586 2 0.393802 0.412046 0.477774
1383 4 0.0754177 0.465146 0.435161
1381 2 0.0707125 0.488969 0.4292
680 4 0.0722376 0.448318 0.444193
679 2 0.0820859 0.437669 0.464559
681 4 0.0919342 0.42702 0.484925
568 2 0.161222 0.449377 0.49861
636 4 0.229185 0.442016 0.437724
570 4 0.169228 0.472893 0.495764
634 2 0.217069 0.424866 0.451299
880 2 0.323512 0.497501 0.491621
5 3 0.295449 0.490888 0.434879
239 4 0.401194 0.425853 0.43994
238 2 0.393661 0.417803 0.417498
3077 4 0.0118623 0.0297352 0.537455
1183 2 0.00825704 0.00626248 0.566706
1150 2 0.159431 0.0725569 0.550751
1151 4 0.165212 0.0828245 0.572804
342 4 0.144003 0.0519487 0.513727
1152 4 0.15365 0.0622893 0.528698
340 2 0.157362 0.0319821 0.506795
341 4 0.170722 0.0120156 0.499863
430 2 0.319592 0.000261446 0.514927
843 4 0.329599 0.0153209 0.54367
431 4 0.336132 0.000561862 0.533675
842 4 0.363846 0.0417768 0.568729
841 2 0.346722 0.0285488 0.556199
1217 4 0.378426 0.0364365 0.581291
1216 2 0.395954 0.0187678 0.578891
1218 4 0.413482 0.00109905 0.57649
2879 4 0.473449 0.0373202 0.514089
3009 4 0.497219 0.0629823 0.57109
2878 2 0.471525 0.0600425 0.503833
879 4 0.0737661 0.14495 0.548911
877 2 0.0492929 0.149516 0.546588
1199 4 0.00908583 0.143631 0.541588
878 4 0.0248197 0.154082 0.544265
938 4 0.0917566 0.141683 0.543316
937 2 0.0973608 0.144938 0.519167
1272 4 0.0872623 0.156868 0.55548
3159 4 0.496962 0.157465 0.507244
1259 4 0.0942797 0.200503 0.509034
1270 2 0.100283 0.168213 0.573561
898 2 0.293478 0.205434 0.542398
899 4 0.30004 0.207788 0.56641
900 4 0.286916 0.20308 0.518386
410 4 0.275528 0.20931 0.502607
791 4 0.318589 0.209137 0.571475
790 2 0.329741 0.231509 0.572034
811 2 0.24367 0.306289 0.504022
812 4 0.24469 0.317334 0.526431
650 4 0.260955 0.312262 0.536483
649 2 0.261867 0.305203 0.560452
804 4 0.258336 0.330848 0.530943
871 2 0.368258 0.271556 0.54918
872 4 0.354708 0.267433 0.569786
792 4 0.340892 0.253881 0.572593
1238 4 0.336261 0.273074 0.571326
873 4 0.381807 0.275679 0.528574
2455 2 0.484565 0.314167 0.505682
2457 4 0.494431 0.330426 0.521914
935 4 0.00190035 0.334106 0.520061
1136 4 0.109621 0.382775 0.58019
1135 2 0.130769 0.387548 0.567734
1137 4 0.151918 0.392321 0.555279
897 4 0.167436 0.389088 0.567482
384 4 0.140602 0.409138 0.504048
382 2 0.116618 0.416203 0.504182
773 4 0.246274 0.387264 0.508499
1190 4 0.246936 0.396914 0.524872
1189 2 0.237451 0.403984 0.5469
1191 4 0.227967 0.411055 0.568928
896 4 0.211005 0.410906 0.578726
895 2 0.189221 0.399997 0.573104
802 2 0.257684 0.355539 0.527061
803 4 0.257032 0.380231 0.523179
930 4 0.263415 0.39507 0.514534
928 2 0.286587 0.404319 0.5129
929 4 0.30976 0.413568 0.511267
926 4 0.401283 0.403541 0.51718
587 4 0.391412 0.412095 0.502663
925 2 0.419822 0.389321 0.526083
927 4 0.438361 0.375101 0.534986
1161 4 0.162018 0.497497 0.561098
383 4 0.0926335 0.423268 0.504316
569 4 0.153217 0.425862 0.501455
1172 4 0.219219 0.427651 0.574236
1159 2 0.174375 0.486005 0.579548
891 4 0.309737 0.49182 0.531169
1952 4 0.313518 0.473391 0.525721
881 4 0.318669 0.488826 0.514566
1951 2 0.322939 0.450485 0.522293
1953 4 0.332361 0.42758 0.518865
1000 2 0.398975 0.492115 0.557323
1001 4 0.412425 0.47104 0.557673
661 2 0.40688 0.443575 0.528477
663 4 0.397699 0.423203 0.517258
662 4 0.416061 0.463947 0.539697
1911 4 0.427835 0.459187 0.554521
1909 2 0.430811 0.450611 0.577818
1332 4 0.428243 0.477517 0.54739
1330 2 0.448714 0.488314 0.537926
2374 2 0.145062 0.000193271 0.604734
1058 4 0.161656 0.0388459 0.621422
2375 4 0.155392 0.0206849 0.614663
1057 2 0.167793 0.0563774 0.604684
1059 4 0.17393 0.0739089 0.587947
950 4 0.239007 0.034478 0.584977
949 2 0.246874 0.0394994 0.608173
951 4 0.254742 0.0445208 0.631369
1031 4 0.264038 0.0566704 0.645558
1030 2 0.264032 0.0816661 0.646184
43 3 0.42917 0.0766856 0.658759
810 4 0.472282 0.082996 0.665315
1083 4 0.0468011 0.141492 0.653445
3179 4 0.0322586 0.156008 0.651368
1155 4 0.160829 0.0883432 0.590863
1284 4 0.148467 0.102967 0.648779
1153 2 0.167999 0.112251 0.589386
1154 4 0.17517 0.136159 0.587909
1221 4 0.171424 0.142299 0.606662
1219 2 0.181886 0.159856 0.621065
1032 4 0.264027 0.106662 0.64681
808 2 0.488484 0.0835321 0.646279
3178 2 0.0137432 0.172075 0.646445
1245 4 0.0821235 0.209746 0.641591
1271 4 0.113305 0.179558 0.591641
1243 2 0.0905602 0.199911 0.620206
1244 4 0.0989968 0.190077 0.598822
1209 4 0.0867822 0.198813 0.656462
1210 2 0.2203 0.176934 0.662298
1212 4 0.206271 0.187227 0.644341
1220 4 0.192349 0.177414 0.635468
797 4 0.185358 0.237074 0.609727
796 2 0.19301 0.214731 0.617935
798 4 0.200663 0.192387 0.626142
857 4 0.305331 0.203319 0.584974
856 2 0.292584 0.195485 0.605007
858 4 0.279836 0.187651 0.62504
905 4 0.452337 0.248492 0.612782
3121 2 0.478734 0.229257 0.630839
3122 4 0.484895 0.208924 0.644022
3357 4 0.494323 0.196496 0.656515
983 4 0.0334605 0.28762 0.603969
982 2 0.0431983 0.307128 0.616209
984 4 0.0529361 0.326635 0.628448
3263 4 0.0512273 0.329145 0.647508
651 4 0.262778 0.298145 0.584421
805 2 0.303695 0.31322 0.633444
806 4 0.279261 0.31682 0.637342
807 4 0.328129 0.309621 0.629546
1239 4 0.325808 0.297213 0.613855
1237 2 0.331034 0.285144 0.59259
3123 4 0.472573 0.24959 0.617657
906 4 0.448564 0.298236 0.60932
904 2 0.45045 0.273364 0.611051
952 2 0.485025 0.317835 0.591669
953 4 0.46286 0.307341 0.596542
1041 4 0.059653 0.343004 0.636501
1039 2 0.0568052 0.366256 0.627761
1040 4 0.0539575 0.389509 0.619021
993 4 0.0418813 0.401965 0.60782
1028 4 0.186068 0.41265 0.665254
1206 4 0.485856 0.411255 0.603849
3309 4 0.495776 0.39477 0.60394
3307 2 0.499272 0.37091 0.597331
991 2 0.037696 0.426613 0.607453
992 4 0.0335108 0.451261 0.607087
1029 4 0.203851 0.424075 0.619933
1027 2 0.194959 0.418362 0.642594
1171 2 0.212251 0.448437 0.586258
1160 4 0.186732 0.474513 0.597998
1173 4 0.205283 0.469224 0.598281
1188 4 0.166488 0.47898 0.653864
1187 4 0.197568 0.472871 0.615167
1186 2 0.182028 0.475925 0.634516
1268 4 0.408554 0.482169 0.639852
2168 4 0.400193 0.4933 0.654324
1267 2 0.417006 0.461019 0.629535
1204 2 0.463269 0.420525 0.609241
1910 4 0.433787 0.442034 0.601116
1269 4 0.425457 0.43987 0.619218
1205 4 0.440682 0.429794 0.614634
1077 4 0.052197 0.0831253 0.739769
1296 4 0.014485 0.0405336 0.743931
1226 4 0.16464 0.0807132 0.738939
1148 4 0.183332 0.077136 0.741869
1003 2 0.326788 0.0306467 0.685457
1005 4 0.325886 0.0531992 0.674698
1004 4 0.32769 0.00809414 0.696215
1049 4 0.344139 0.0054865 0.705812
45 3 0.44182 0.0466481 0.677611
1162 2 0.493262 0.0675371 0.700702
42 3 0.426396 0.0750935 0.696208
41 1 0.439471 0.069293 0.678192
1163 4 0.479 0.0760881 0.68203
44 3 0.460256 0.0793535 0.68046
1081 2 0.0421495 0.121866 0.668221
1075 2 0.040717 0.0935116 0.720135
1076 4 0.0292369 0.103898 0.7005
1082 4 0.0374979 0.102239 0.682997
851 4 0.0807654 0.164944 0.715234
1282 2 0.140486 0.106416 0.672222
909 4 0.0993536 0.166068 0.710063
907 2 0.110916 0.143935 0.708797
908 4 0.122478 0.121801 0.707532
1283 4 0.132504 0.109864 0.695665
1227 4 0.128196 0.103112 0.713038
1225 2 0.146418 0.0919126 0.725988
1211 4 0.234328 0.166641 0.680254
1147 2 0.204312 0.0897507 0.746955
888 4 0.251907 0.158572 0.671933
886 2 0.269523 0.155701 0.689444
829 2 0.322112 0.149322 0.711589
830 4 0.299405 0.153666 0.721114
887 4 0.287138 0.15283 0.706955
978 4 0.28334 0.164994 0.72213
831 4 0.344818 0.144978 0.702064
1142 4 0.361468 0.142143 0.713937
1141 2 0.378705 0.159771 0.709772
1025 4 0.459418 0.157291 0.693145
3424 2 0.472706 0.118708 0.684711
3426 4 0.472579 0.0940634 0.680494
3425 4 0.472833 0.143354 0.688928
3269 4 0.475933 0.155577 0.704229
3268 2 0.48534 0.166341 0.724744
850 2 0.0574162 0.170644 0.722126
852 4 0.034067 0.176344 0.729018
780 4 0.0722514 0.248908 0.704315
1214 4 0.0262742 0.168605 0.745758
1213 2 0.00688155 0.18362 0.740892
1208 4 0.0853169 0.176845 0.701362
1207 2 0.0860496 0.187829 0.678912
1107 4 0.0914798 0.180854 0.719866
1105 2 0.108369 0.193 0.733737
1106 4 0.125258 0.205147 0.747608
1130 4 0.141009 0.211648 0.738547
976 2 0.288074 0.182122 0.73972
916 2 0.290649 0.237145 0.747008
947 4 0.302931 0.245008 0.707167
1193 4 0.388215 0.233697 0.675019
1194 4 0.405663 0.192546 0.697445
1192 2 0.396939 0.213122 0.686232
1143 4 0.395941 0.177398 0.705607
1262 4 0.405006 0.189789 0.717023
1026 4 0.415273 0.17716 0.705681
1261 2 0.41535 0.197497 0.738442
1024 2 0.437345 0.167226 0.699413
3270 4 0.494747 0.177104 0.745258
3262 2 0.0496091 0.319986 0.670718
3264 4 0.0479909 0.310828 0.693928
779 4 0.0604154 0.297326 0.700271
778 2 0.0663334 0.273117 0.702293
893 4 0.0459834 0.303555 0.711907
892 2 0.0407033 0.322219 0.727685
1065 4 0.242611 0.324538 0.705846
1063 2 0.256678 0.305219 0.698493
946 2 0.296452 0.26828 0.700714
948 4 0.289973 0.291551 0.694261
1064 4 0.270746 0.2859 0.691141
917 4 0.282302 0.256856 0.734085
1008 4 0.438827 0.27383 0.72034
1006 2 0.44274 0.281895 0.743681
894 4 0.0354232 0.340883 0.743464
3276 4 0.0251069 0.35709 0.745909
814 2 0.0604017 0.370082 0.749498
815 4 0.0792486 0.385265 0.743218
3274 2 0.00145967 0.365156 0.744939
1067 4 0.150786 0.393171 0.713207
940 2 0.113874 0.392797 0.737601
941 4 0.134308 0.39013 0.72344
1066 2 0.168413 0.404295 0.699397
1068 4 0.18604 0.415418 0.685586
1019 4 0.396358 0.408721 0.737742
1176 4 0.149823 0.450478 0.701835
1174 2 0.162794 0.465985 0.687122
1175 4 0.175764 0.481492 0.672409
1139 4 0.328146 0.470225 0.69105
1140 4 0.344312 0.465707 0.738155
1230 4 0.390837 0.426374 0.741669
1100 4 0.403189 0.423678 0.726524
1138 2 0.336229 0.467966 0.714602
1228 2 0.37172 0.441038 0.748355
1101 4 0.442959 0.453923 0.724458
1099 2 0.423074 0.438801 0.725491
3330 4 0.459108 0.464577 0.729042
1251 4 0.447366 0.456897 0.742908
3328 2 0.482249 0.468137 0.720265
1294 2 0.00258511 0.0227538 0.756871
1203 4 0.170305 0.0656372 0.750462
1201 2 0.17623 0.0414106 0.752239
2256 4 0.197674 0.00580067 0.754606
1202 4 0.182154 0.0171841 0.754016
975 4 0.336633 0.041126 0.822719
2322 4 0.467831 0.0430969 0.785212
2320 2 0.465919 0.0183699 0.782035
846 4 0.473982 0.0599642 0.774934
844 2 0.482381 0.0825194 0.781709
864 4 0.061457 0.0911919 0.755655
862 2 0.0561048 0.105127 0.775714
863 4 0.0507525 0.119062 0.795772
833 4 0.0494574 0.125181 0.814308
1125 4 0.0532202 0.138222 0.80014
1123 2 0.0718815 0.153359 0.807054
34 3 0.13612 0.153719 0.832691
1149 4 0.225292 0.102365 0.752042
1257 4 0.241468 0.104189 0.76306
1255 2 0.246036 0.116136 0.784545
921 4 0.211438 0.135624 0.824033
919 2 0.205816 0.159695 0.820269
1256 4 0.250605 0.128083 0.806029
840 4 0.263796 0.134168 0.821344
1112 4 0.379145 0.0996475 0.825604
845 4 0.49078 0.105075 0.788484
1129 2 0.159297 0.223959 0.750343
1073 4 0.0941062 0.187197 0.819824
1124 4 0.0905428 0.168496 0.813968
35 3 0.106339 0.176652 0.83049
1131 4 0.177586 0.23627 0.762139
1277 4 0.175189 0.232617 0.780996
1276 2 0.187283 0.21821 0.797469
1278 4 0.199378 0.203803 0.813941
1241 4 0.194105 0.195449 0.830288
920 4 0.200195 0.183766 0.816505
977 4 0.292808 0.199249 0.75731
918 4 0.298995 0.217434 0.75993
1298 4 0.295183 0.207463 0.775557
1297 2 0.306732 0.209765 0.797614
1299 4 0.318282 0.212068 0.81967
1086 4 0.336381 0.202481 0.816125
50 3 0.39528 0.205096 0.787274
46 1 0.414601 0.215846 0.79273
49 3 0.409873 0.237244 0.800358
48 3 0.425944 0.203929 0.809092
47 3 0.427946 0.217389 0.774056
1263 4 0.425694 0.205204 0.759861
1146 4 0.487021 0.191181 0.755109
1145 4 0.441447 0.203446 0.771642
1144 2 0.464234 0.197314 0.763376
1022 4 0.428642 0.184887 0.817238
3188 4 0.0109545 0.276384 0.770911
3187 2 0.0156043 0.276372 0.795478
3189 4 0.0202542 0.27636 0.820046
1179 4 0.0069398 0.259291 0.760519
822 4 0.171208 0.250357 0.774309
821 4 0.181228 0.299298 0.776567
820 2 0.176218 0.274827 0.775438
1098 4 0.224723 0.317765 0.826521
1235 4 0.232828 0.324678 0.809171
1043 4 0.418482 0.254225 0.805541
1042 2 0.433322 0.272082 0.796261
1044 4 0.448161 0.289938 0.786981
1007 4 0.446653 0.28996 0.767023
1165 2 0.486042 0.278412 0.782671