ITEM: TIMESTEP
920000
ITEM: NUMBER OF ATOMS
4590
ITEM: BOX BOUNDS pp pp pp
-9.9985700000000008e+00 9.9985700000000008e+00
-9.9985700000000008e+00 9.9985700000000008e+00
-9.9985700000000008e+00 9.9985700000000008e+00
ITEM: ATOMS id type xs ys zs
463 2 0.0330709 0.0765374 0.0271372
464 4 0.0101892 0.0690605 0.0203769
701 4 0.0661434 0.0739728 0.047279
465 4 0.0559526 0.0840144 0.0338974
567 4 0.163585 0.0584155 0.0685561
1668 4 0.09311 0.0223543 0.0605263
700 2 0.0900982 0.0804939 0.0443094
565 2 0.142775 0.0716107 0.0643119
491 4 0.275368 0.0208088 0.0503318
2264 4 0.290013 0.0297642 0.0034093
558 4 0.350951 0.050594 0.028817
556 2 0.353888 0.0416819 0.0519932
557 4 0.356824 0.0327698 0.0751693
745 2 0.47788 0.0443504 0.00747333
746 4 0.491177 0.0405309 0.0283004
589 2 0.0100221 0.14134 0.0722468
590 4 0.0333934 0.135381 0.0656545
554 4 0.0629005 0.159053 0.00954648
423 4 0.0993302 0.112967 0.996533
421 2 0.102254 0.135485 0.00700245
702 4 0.114053 0.0870151 0.0413398
566 4 0.121966 0.0848058 0.0600677
422 4 0.105178 0.158002 0.0174717
359 4 0.282389 0.157132 0.00669576
770 4 0.441115 0.13626 0.0678317
769 2 0.444336 0.161055 0.0676869
553 2 0.061917 0.183992 0.00804769
836 4 0.075925 0.21392 0.0178699
555 4 0.0609335 0.208931 0.00654889
835 2 0.0957556 0.228729 0.0143157
837 4 0.115586 0.243537 0.0107615
666 4 0.321166 0.215994 0.0318696
664 2 0.315551 0.203542 0.0109271
573 4 0.32425 0.235424 0.0332242
461 4 0.328246 0.224211 0.0481412
460 2 0.327772 0.214399 0.071134
1012 2 0.490965 0.192217 0.0402648
771 4 0.447557 0.185849 0.0675421
1014 4 0.479285 0.21256 0.0489199
915 4 0.134306 0.248454 0.00591454
292 2 0.113921 0.295976 0.0625347
294 4 0.0938188 0.294704 0.0477199
507 4 0.15004 0.285175 0.0715463
505 2 0.175018 0.286275 0.0713283
481 2 0.232255 0.31614 0.062626
506 4 0.199996 0.287375 0.0711103
483 4 0.21701 0.296504 0.0653159
355 2 0.272155 0.295674 0.00615362
571 2 0.311483 0.256919 0.0328342
356 4 0.28166 0.278063 0.0211432
572 4 0.298715 0.278413 0.0324442
1069 2 0.417582 0.254711 0.0262889
1070 4 0.409245 0.248831 0.00346116
957 4 0.387985 0.298709 0.0174594
1071 4 0.425919 0.26059 0.0491166
324 4 0.41543 0.272962 0.0614291
322 2 0.426659 0.295213 0.0634207
672 4 0.457361 0.314936 0.0696109
323 4 0.437889 0.317464 0.0654122
620 4 0.0104658 0.352583 0.0804367
619 2 0.999447 0.345175 0.0592497
455 4 0.117454 0.365606 0.0713967
482 4 0.2475 0.335775 0.0599361
609 4 0.243795 0.351227 0.0719409
252 4 0.283282 0.401275 0.0557371
608 4 0.281124 0.383707 0.064706
607 2 0.262459 0.367467 0.0683235
670 2 0.462666 0.339331 0.0709946
671 4 0.46797 0.363727 0.0723783
281 4 0.468418 0.37963 0.058599
280 2 0.48979 0.391459 0.0532597
551 4 0.0673024 0.440804 0.0510736
550 2 0.0843149 0.458273 0.0566052
552 4 0.101327 0.475742 0.0621369
1787 4 0.0933998 0.493065 0.0666293
242 4 0.112055 0.490187 0.0684713
241 2 0.133962 0.494183 0.0798419
250 2 0.290983 0.424195 0.0493693
244 2 0.257811 0.473878 0.0656484
251 4 0.298684 0.447115 0.0430015
271 2 0.277075 0.485626 0.00450911
246 4 0.26632 0.486673 0.0459236
272 4 0.274499 0.491227 0.0287407
525 4 0.357424 0.507127 0.075984
226 2 0.484108 0.464419 0.0662943
228 4 0.46703 0.450616 0.078253
563 4 0.457946 0.479611 0.00610316
2576 4 0.0115459 0.0374391 0.0904905
16 1 0.0488531 0.065086 0.16113
17 3 0.0656069 0.0709943 0.146517
1804 2 0.0698228 0.00259235 0.140713
20 3 0.0339366 0.0516339 0.150398
1805 4 0.0777908 0.00467953 0.117105
1667 4 0.0893806 0.996288 0.103039
1666 2 0.0912453 0.00932114 0.0817828
448 2 0.190254 0.0751991 0.157221
652 2 0.31153 0.016446 0.137686
653 4 0.311322 0.0414487 0.137677
296 4 0.358352 0.046411 0.0906111
295 2 0.365622 0.029168 0.107194
297 4 0.372892 0.011925 0.123777
579 4 0.102814 0.108896 0.151892
237 4 0.13809 0.137911 0.165134
235 2 0.159489 0.125113 0.163276
236 4 0.180888 0.112315 0.161418
693 4 0.19999 0.116965 0.15723
449 4 0.193565 0.0996916 0.153434
283 2 0.275254 0.160515 0.153946
284 4 0.286963 0.142846 0.167208
312 4 0.443878 0.146623 0.15525
337 2 0.0532015 0.215988 0.15624
339 4 0.0288878 0.221466 0.154237
338 4 0.0775152 0.21051 0.158243
476 4 0.138032 0.195031 0.128343
475 2 0.11603 0.198896 0.139574
477 4 0.0940276 0.202762 0.150805
737 4 0.15714 0.198299 0.123931
738 4 0.191476 0.234222 0.129522
736 2 0.174308 0.216261 0.126727
285 4 0.263544 0.178184 0.140685
462 4 0.327298 0.204586 0.0941268
254 4 0.379889 0.195541 0.128383
255 4 0.338053 0.21367 0.107845
253 2 0.358971 0.204605 0.118114
630 4 0.391921 0.208997 0.135776
628 2 0.409629 0.226093 0.140173
2895 4 0.4939 0.243832 0.142659
518 4 0.474836 0.243119 0.135777
293 4 0.134022 0.297247 0.0773495
354 4 0.32603 0.260947 0.11454
352 2 0.312312 0.270515 0.133127
353 4 0.298594 0.280082 0.151713
754 2 0.287593 0.322829 0.147694
755 4 0.294785 0.29917 0.151395
519 4 0.470107 0.267667 0.0924668
629 4 0.427337 0.243188 0.14457
517 2 0.472471 0.255393 0.114122
647 4 0.0163809 0.363902 0.0959573
646 2 0.0399703 0.363919 0.104247
648 4 0.0635596 0.363936 0.112537
456 4 0.083618 0.363456 0.108156
454 2 0.100536 0.364531 0.0897763
537 4 0.204964 0.376838 0.150642
535 2 0.192583 0.37242 0.129373
536 4 0.180202 0.368002 0.108104
611 4 0.22421 0.380161 0.150829
756 4 0.280401 0.346488 0.143993
612 4 0.268735 0.35801 0.156085
610 2 0.246473 0.369086 0.153457
387 4 0.331633 0.398528 0.15652
741 4 0.362475 0.342365 0.08752
739 2 0.365288 0.349297 0.111378
740 4 0.3681 0.356228 0.135237
15 3 0.384826 0.364975 0.139685
385 2 0.350487 0.382242 0.154395
386 4 0.36934 0.365957 0.15227
11 1 0.405186 0.367625 0.14954
14 3 0.414089 0.388293 0.143885
495 4 0.403753 0.403071 0.148873
12 3 0.419397 0.351126 0.142126
1467 4 0.0130476 0.461465 0.119804
1465 2 0.0293008 0.478819 0.127539
243 4 0.155869 0.498179 0.0912124
625 2 0.21612 0.455691 0.0962074
626 4 0.192346 0.463348 0.095063
627 4 0.239895 0.448034 0.0973518
245 4 0.249303 0.461083 0.0853733
767 4 0.25416 0.496454 0.167765
523 2 0.354952 0.484555 0.0864533
524 4 0.352481 0.461984 0.0969227
493 2 0.401294 0.427377 0.143549
660 4 0.411846 0.465021 0.132369
494 4 0.398835 0.451684 0.138225
658 2 0.418449 0.479559 0.15161
1673 4 0.423549 0.500964 0.0802125
597 4 0.455789 0.427499 0.165951
18 3 0.0582146 0.0537741 0.179097
2480 4 0.00993715 0.0162176 0.178576
673 2 0.136174 0.0697781 0.209096
674 4 0.13398 0.0632456 0.233131
675 4 0.138367 0.0763106 0.185061
450 4 0.186943 0.0507067 0.161007
1506 4 0.187719 0.00811312 0.197412
1504 2 0.181864 0.0302448 0.187358
1505 4 0.17601 0.0523765 0.177304
689 4 0.20489 0.00690371 0.207547
21 1 0.395632 0.0252042 0.238211
25 3 0.413994 0.0356147 0.229661
759 4 0.412656 0.0551948 0.223915
757 2 0.399581 0.0751971 0.216558
22 3 0.377684 0.0288577 0.224294
24 3 0.39945 0.00236473 0.239689
744 4 0.464159 0.0148845 0.237511
351 4 0.466923 0.0330611 0.230614
349 2 0.448116 0.0493693 0.228264
350 4 0.429309 0.0656774 0.225915
19 3 0.0382382 0.0843382 0.168552
380 4 0.0313403 0.0863141 0.187226
512 4 0.0319104 0.152966 0.199405
379 2 0.0334537 0.109809 0.195513
381 4 0.0355671 0.133304 0.203801
578 4 0.083836 0.140681 0.185511
511 2 0.0534932 0.157711 0.211103
513 4 0.0750761 0.162457 0.222801
577 2 0.0933252 0.124788 0.168701
691 2 0.215224 0.121268 0.176584
692 4 0.230458 0.12557 0.195938
723 4 0.212024 0.157254 0.20744
721 2 0.193448 0.163641 0.22291
582 4 0.248792 0.128392 0.189845
580 2 0.265311 0.11273 0.200189
581 4 0.281829 0.0970673 0.210534
30 3 0.293436 0.102924 0.22593
26 1 0.312316 0.10218 0.238643
758 4 0.386506 0.0951994 0.2092
28 3 0.330163 0.0946321 0.225879
310 2 0.43604 0.135483 0.176218
311 4 0.428202 0.124344 0.197186
363 4 0.094752 0.219898 0.160753
362 4 0.110715 0.229405 0.20718
361 2 0.102733 0.224651 0.183967
372 4 0.12967 0.226106 0.212964
370 2 0.154598 0.225708 0.211061
722 4 0.174872 0.170028 0.23838
371 4 0.179526 0.225309 0.209158
765 4 0.361055 0.21952 0.174052
763 2 0.369842 0.241458 0.182217
308 4 0.330732 0.234117 0.235376
520 2 0.488309 0.195354 0.232155
521 4 0.471873 0.211379 0.242067
395 4 0.0511573 0.275227 0.220419
750 4 0.0658473 0.286569 0.217857
748 2 0.0683473 0.302068 0.198397
749 4 0.0708472 0.317567 0.178937
394 2 0.0318348 0.277537 0.236119
300 4 0.142501 0.327523 0.228326
278 4 0.296444 0.290746 0.168196
279 4 0.268244 0.261364 0.197215
277 2 0.282344 0.276055 0.182705
307 2 0.327293 0.252456 0.218732
309 4 0.323855 0.270795 0.202088
764 4 0.37863 0.263397 0.190382
623 4 0.390611 0.273048 0.176304
622 2 0.413035 0.277594 0.186386
624 4 0.435459 0.282141 0.196469
528 4 0.450591 0.295059 0.19503
527 4 0.487155 0.274976 0.167453
526 2 0.468873 0.285018 0.181241
262 2 0.0676189 0.40493 0.220614
264 4 0.0579132 0.401861 0.197777
263 4 0.0773245 0.407999 0.243452
298 2 0.143931 0.350543 0.23798
290 4 0.220169 0.40167 0.226112
302 4 0.32738 0.400528 0.175909
301 2 0.304494 0.410472 0.177499
13 3 0.403105 0.365934 0.172588
645 4 0.454784 0.409994 0.174494
643 2 0.46672 0.390117 0.183853
644 4 0.478656 0.37024 0.193213
447 4 0.487133 0.366943 0.211121
445 2 0.502735 0.364888 0.230552
1430 4 0.179647 0.502633 0.215339
417 4 0.183604 0.489884 0.20104
415 2 0.179179 0.466466 0.208603
289 2 0.207355 0.422631 0.221461
291 4 0.194541 0.443592 0.21681
416 4 0.174754 0.443048 0.216166
303 4 0.281608 0.420415 0.179088
766 2 0.258321 0.472448 0.173382
768 4 0.262483 0.448441 0.178999
713 4 0.363449 0.483392 0.24969
659 4 0.425053 0.494097 0.170851
595 2 0.459287 0.450314 0.175564
596 4 0.462784 0.473129 0.185177
1568 4 0.479548 0.484869 0.186507
2860 2 0.462316 0.437126 0.251215
2861 4 0.44757 0.451452 0.236985
1799 4 0.0341797 0.0311559 0.32021
233 4 0.0311426 0.0260072 0.301845
1402 2 0.0676976 0.0207891 0.302774
1403 4 0.0445973 0.0162492 0.311197
232 2 0.0166768 0.0368685 0.284584
1404 4 0.0907979 0.025329 0.294351
1699 2 0.210437 0.0683855 0.312358
1701 4 0.191517 0.0522633 0.309655
23 3 0.390719 0.0337891 0.2592
1516 2 0.381847 0.00233062 0.30391
697 2 0.395976 0.0544928 0.323185
699 4 0.400038 0.0429783 0.301365
1518 4 0.385849 0.0269121 0.301693
742 2 0.483592 0.0173677 0.253047
478 2 0.466436 0.0356111 0.315693
479 4 0.480824 0.0153953 0.318775
480 4 0.452049 0.055827 0.312611
545 4 0.117566 0.164736 0.260222
398 4 0.0916836 0.135624 0.308853
544 2 0.142267 0.162797 0.256862
397 2 0.0968755 0.122852 0.329712
1700 4 0.229356 0.0845077 0.31506
248 4 0.233707 0.105343 0.313497
249 4 0.206592 0.143876 0.296742
247 2 0.220149 0.12461 0.30512
546 4 0.166968 0.160857 0.253502
404 4 0.206132 0.16345 0.300675
27 3 0.317099 0.123319 0.24635
29 3 0.309073 0.0881253 0.256819
632 4 0.341868 0.109301 0.32639
333 4 0.463758 0.111268 0.3347
331 2 0.457947 0.130402 0.31969
332 4 0.452137 0.149536 0.304679
393 4 0.0793419 0.205463 0.283261
444 4 0.00924137 0.248918 0.310553
392 4 0.1197 0.176905 0.275752
391 2 0.0995209 0.191184 0.279506
390 4 0.117609 0.225335 0.313558
403 2 0.195225 0.165569 0.278277
405 4 0.184317 0.167688 0.255878
707 4 0.351388 0.199951 0.328476
761 4 0.48577 0.207962 0.289799
420 4 0.426529 0.219863 0.331115
418 2 0.424509 0.196133 0.323501
419 4 0.422489 0.172403 0.315887
760 2 0.471333 0.188567 0.296173
762 4 0.456897 0.169172 0.302547
396 4 0.0125123 0.279847 0.251819
442 2 0.0132597 0.263096 0.290354
443 4 0.0172779 0.277275 0.270155
364 2 0.00357178 0.317082 0.273435
365 4 0.00750151 0.293578 0.265865
401 4 0.194432 0.2574 0.29507
345 4 0.233833 0.296337 0.30724
400 2 0.20555 0.279689 0.297252
402 4 0.216668 0.301978 0.299434
510 4 0.227942 0.315064 0.308771
508 2 0.215155 0.33487 0.3171
343 2 0.258527 0.299891 0.305588
344 4 0.283222 0.303445 0.303935
498 4 0.383942 0.288351 0.283061
496 2 0.360776 0.288941 0.273672
497 4 0.337609 0.28953 0.264283
541 2 0.429189 0.309941 0.320664
542 4 0.44311 0.291717 0.330626
366 4 0.999642 0.340586 0.281006
2493 4 0.00445956 0.354591 0.294263
603 4 0.133041 0.386281 0.256316
602 4 0.0879301 0.407143 0.261843
299 4 0.145361 0.373564 0.247635
601 2 0.110485 0.396712 0.25908
734 4 0.15178 0.386182 0.261512
733 2 0.161755 0.392578 0.28353
735 4 0.17173 0.398974 0.305548
677 4 0.190125 0.405881 0.310693
676 2 0.202066 0.387183 0.322225
509 4 0.202368 0.354677 0.325428
727 2 0.327056 0.392463 0.290786
728 4 0.303452 0.384663 0.293465
434 4 0.283467 0.364543 0.328817
543 4 0.415267 0.328166 0.310703
729 4 0.350661 0.400262 0.288107
615 4 0.406063 0.339816 0.297368
613 2 0.393614 0.355791 0.312032
614 4 0.381166 0.371765 0.326696
2538 4 0.482367 0.387394 0.314358
2536 2 0.487885 0.402308 0.295063
549 4 0.0421828 0.442672 0.326713
777 4 0.0982188 0.426551 0.30809
775 2 0.108705 0.447393 0.317081
776 4 0.119192 0.468235 0.326071
414 4 0.134124 0.479893 0.316168
437 4 0.252988 0.452145 0.295066
438 4 0.248114 0.413896 0.263223
436 2 0.250551 0.433021 0.279144
2537 4 0.493403 0.417222 0.275768
2862 4 0.477062 0.422801 0.265446
593 4 0.43204 0.455407 0.306184
592 2 0.425618 0.461028 0.329686
1798 2 0.0239834 0.0181671 0.338985
1377 4 0.00153218 0.0021961 0.373097
369 4 0.069333 0.0496086 0.403404
367 2 0.0857673 0.0322872 0.395983
368 4 0.102202 0.0149659 0.388563
605 4 0.158361 0.053664 0.361889
604 2 0.180284 0.0524466 0.37385
606 4 0.202208 0.0512291 0.385811
698 4 0.391915 0.0660073 0.345005
256 2 0.395624 0.0671042 0.377522
257 4 0.385555 0.0791394 0.358056
633 4 0.375222 0.0754573 0.341972
258 4 0.405693 0.055069 0.396989
424 2 0.425783 0.0309001 0.408962
426 4 0.424333 0.0550124 0.402507
318 4 0.0178208 0.118894 0.361053
316 2 0.0417185 0.120483 0.353872
317 4 0.0656162 0.122072 0.346692
732 4 0.0950446 0.0834339 0.410005
730 2 0.0958965 0.0884419 0.385523
399 4 0.102067 0.11008 0.350571
731 4 0.0967484 0.0934499 0.36104
600 4 0.213706 0.150371 0.36331
683 4 0.262956 0.0825069 0.373762
682 2 0.266854 0.0996637 0.391528
684 4 0.270752 0.11682 0.409295
320 4 0.290781 0.116722 0.411923
631 2 0.358545 0.092379 0.334181
516 4 0.401875 0.142422 0.37384
575 4 0.396383 0.134516 0.392087
574 2 0.403147 0.144487 0.413996
451 2 0.483948 0.147811 0.364406
514 2 0.42336 0.144078 0.361159
453 4 0.459275 0.150383 0.361278
515 4 0.444845 0.145734 0.348477
459 4 0.0247299 0.192956 0.407818
2654 4 0.0184131 0.194716 0.388991
388 2 0.107198 0.22794 0.336141
389 4 0.0967877 0.230545 0.358725
685 2 0.154652 0.205376 0.40923
687 4 0.162212 0.18614 0.395158
598 2 0.195205 0.163799 0.373439
599 4 0.176705 0.177227 0.383568
473 4 0.222574 0.200572 0.382901
472 2 0.245814 0.191714 0.385472
378 4 0.285134 0.204121 0.332811
376 2 0.30998 0.206524 0.334238
377 4 0.334827 0.208928 0.335664
474 4 0.269054 0.182856 0.388043
488 4 0.287541 0.190211 0.387972
487 2 0.297956 0.210957 0.397262
489 4 0.308372 0.231703 0.406551
706 2 0.367883 0.185467 0.340447
708 4 0.384377 0.170982 0.352418
715 2 0.397142 0.234541 0.355121
717 4 0.407653 0.224359 0.334848
716 4 0.386631 0.244724 0.375395
468 4 0.379192 0.222038 0.415534
347 4 0.0716098 0.302791 0.404371
618 4 0.0794315 0.315765 0.39151
616 2 0.0891345 0.335928 0.380352
275 4 0.129493 0.308984 0.38012
274 2 0.152729 0.299752 0.379944
276 4 0.175965 0.290521 0.379769
373 2 0.204394 0.266404 0.390901
374 4 0.227457 0.256914 0.389109
375 4 0.181331 0.275894 0.392692
406 2 0.0463234 0.384835 0.393173
548 4 0.0438164 0.419617 0.371058
407 4 0.0445595 0.399635 0.373098
617 4 0.0988375 0.356091 0.369195
435 4 0.233992 0.368615 0.334847
678 4 0.214007 0.368486 0.333758
669 4 0.285457 0.42018 0.416625
433 2 0.25873 0.366579 0.331832
753 4 0.48479 0.386567 0.334932
561 4 0.457887 0.353841 0.38958
752 4 0.466786 0.368418 0.377911
559 2 0.469166 0.36419 0.40935
751 2 0.475788 0.377492 0.356422
547 2 0.0429996 0.431144 0.348885
412 2 0.15284 0.486212 0.331496
499 2 0.154922 0.499537 0.386923
501 4 0.133362 0.489815 0.395038
413 4 0.171556 0.492532 0.346825
1 1 0.318932 0.493243 0.403024
3 3 0.329084 0.476997 0.389932
594 4 0.419195 0.466649 0.353188
1524 4 0.0692988 0.0101612 0.484255
718 2 0.0337343 0.0714254 0.452931
720 4 0.0346185 0.0529356 0.46974
2237 4 0.0383848 0.0343931 0.475997
2236 2 0.0332115 0.0124076 0.465271
1127 4 0.026174 0.0461448 0.485888
1126 2 0.0074345 0.0550823 0.499821
1522 2 0.0939152 0.00581324 0.484808
1523 4 0.118532 0.00146524 0.485361
342 4 0.174905 0.0758872 0.499041
340 2 0.176408 0.0510051 0.49709
1182 4 0.262352 0.065286 0.476873
726 4 0.29277 0.0429379 0.439688
724 2 0.292801 0.0349444 0.46338
725 4 0.292832 0.0269509 0.487071
425 4 0.427233 0.00678787 0.415418
2878 2 0.467901 0.0819801 0.481618
2879 4 0.46578 0.0646623 0.499528
458 4 0.014796 0.147725 0.426692
719 4 0.0328501 0.0899152 0.436123
1033 2 0.12976 0.145 0.474658
1034 4 0.121599 0.130509 0.493328
1180 2 0.259337 0.0857459 0.46282
1181 4 0.256322 0.106206 0.448767
411 4 0.27012 0.165511 0.447893
321 4 0.305871 0.117044 0.459597
319 2 0.298326 0.116883 0.43576
576 4 0.40991 0.154458 0.435906
2880 4 0.470021 0.099298 0.463708
642 4 0.461403 0.100548 0.445361
640 2 0.451637 0.122169 0.437465
641 4 0.441871 0.143789 0.429569
306 4 0.429671 0.153557 0.44159
457 2 0.0197629 0.170341 0.417255
469 2 0.0149011 0.193892 0.471275
470 4 0.0381935 0.184802 0.471337
686 4 0.147092 0.224611 0.423302
1035 4 0.13792 0.159491 0.455987
260 4 0.104542 0.216609 0.44164
261 4 0.122877 0.170537 0.448119
259 2 0.113709 0.193573 0.444879
695 4 0.110646 0.232759 0.45131
409 2 0.274531 0.1846 0.463428
410 4 0.278942 0.203688 0.478964
900 4 0.279902 0.192598 0.496724
466 2 0.37675 0.208679 0.436528
467 4 0.374309 0.19532 0.457523
3159 4 0.502286 0.20725 0.497828
305 4 0.442544 0.201782 0.444632
304 2 0.436107 0.17767 0.443111
346 2 0.0730262 0.30708 0.428963
326 4 0.0691396 0.326639 0.465253
348 4 0.0744426 0.311369 0.453556
694 2 0.111095 0.255209 0.462309
1260 4 0.11384 0.279281 0.494355
696 4 0.111544 0.277658 0.473309
266 4 0.311936 0.254886 0.477754
811 2 0.290771 0.305151 0.486929
813 4 0.312155 0.295355 0.478449
812 4 0.269386 0.314947 0.495409
650 4 0.252197 0.306523 0.491323
265 2 0.333278 0.250315 0.465555
267 4 0.35462 0.245743 0.453357
584 4 0.490814 0.266999 0.470694
583 2 0.466909 0.271901 0.465246
585 4 0.443004 0.276803 0.459798
408 4 0.0480874 0.370035 0.413248
935 4 0.00749236 0.40236 0.502209
2812 2 0.00609083 0.36467 0.443604
2813 4 0.030279 0.368839 0.448372
325 2 0.0855974 0.344418 0.471438
327 4 0.102055 0.362196 0.477623
10 3 0.15197 0.33487 0.468351
7 3 0.121508 0.356305 0.470709
6 1 0.142815 0.352967 0.478712
8 3 0.155525 0.371876 0.47432
711 4 0.174687 0.369317 0.471403
635 4 0.223166 0.407864 0.484515
504 4 0.235325 0.397162 0.449367
709 2 0.189236 0.388281 0.478743
710 4 0.203786 0.407244 0.486083
336 4 0.287686 0.402986 0.425909
502 2 0.253351 0.40223 0.432797
334 2 0.31008 0.392728 0.43021
503 4 0.271377 0.407297 0.416227
335 4 0.332473 0.382471 0.434511
239 4 0.401963 0.386581 0.435043
238 2 0.376986 0.385562 0.434489
240 4 0.35201 0.384543 0.433936
587 4 0.426666 0.402356 0.495596
560 4 0.480446 0.374538 0.42912
2507 4 0.493025 0.389845 0.426504
588 4 0.415741 0.391155 0.448099
586 2 0.421203 0.396756 0.471847
680 4 0.0411109 0.450648 0.442586
681 4 0.0827452 0.425424 0.454034
1383 4 0.0303016 0.464923 0.433956
1381 2 0.0428988 0.484997 0.425985
679 2 0.0619281 0.438036 0.44831
382 2 0.116822 0.433775 0.45861
384 4 0.134776 0.450841 0.45521
569 4 0.143198 0.463313 0.441754
383 4 0.0988681 0.416708 0.46201
634 2 0.225721 0.431108 0.475664
570 4 0.184222 0.486283 0.458788
636 4 0.228275 0.454353 0.466813
568 2 0.16371 0.474798 0.450271
882 4 0.325048 0.490275 0.46701
667 2 0.291118 0.444089 0.421266
668 4 0.296778 0.467997 0.425907
4 3 0.308652 0.483376 0.421337
880 2 0.334181 0.503171 0.486387
663 4 0.461107 0.427527 0.50129
1057 2 0.146086 0.0657529 0.572845
1058 4 0.139137 0.042763 0.579799
2428 2 0.21409 0.0096854 0.504547
2430 4 0.189475 0.00978618 0.500155
341 4 0.17791 0.0261231 0.495139
2429 4 0.238704 0.00958463 0.508939
430 2 0.314511 0.0540999 0.514319
431 4 0.326158 0.0694959 0.530209
961 2 0.276742 0.012893 0.513008
950 4 0.320097 0.0310108 0.579426
432 4 0.302865 0.0387039 0.498429
962 4 0.254326 0.00505887 0.520842
963 4 0.299157 0.0207272 0.505174
1217 4 0.392892 0.0364412 0.526877
1216 2 0.395384 0.0166756 0.541986
842 4 0.381953 0.0489528 0.537825
841 2 0.360344 0.0610595 0.541241
843 4 0.338735 0.0731662 0.544657
938 4 0.102257 0.169934 0.544916
937 2 0.1093 0.159219 0.52345
1151 4 0.161636 0.0977725 0.551624
1059 4 0.153034 0.0887429 0.565891
1155 4 0.161717 0.106541 0.568852
939 4 0.116342 0.148503 0.501985
1150 2 0.166349 0.096868 0.527086
1152 4 0.171063 0.0959636 0.502547
1153 2 0.172082 0.129067 0.572066
1154 4 0.182446 0.151593 0.575281
878 4 0.0328728 0.216109 0.542163
1199 4 0.0208424 0.221662 0.557769
877 2 0.0511478 0.203651 0.553825
879 4 0.0694228 0.191193 0.565487
1272 4 0.0672516 0.18965 0.585501
858 4 0.249962 0.208109 0.559458
857 4 0.29978 0.211758 0.561824
856 2 0.274871 0.209933 0.560641
898 2 0.29878 0.20206 0.510112
791 4 0.31623 0.223121 0.55884
899 4 0.317659 0.211523 0.523499
790 2 0.32287 0.245501 0.567796
1258 2 0.124571 0.28982 0.514328
1259 4 0.135302 0.30036 0.534302
649 2 0.237608 0.28705 0.497079
651 4 0.223018 0.267578 0.502836
804 4 0.251869 0.323008 0.501885
873 4 0.394437 0.259088 0.55272
1239 4 0.329473 0.329226 0.556731
792 4 0.32951 0.267882 0.576751
871 2 0.396261 0.267909 0.529395
1238 4 0.340742 0.283041 0.572245
1237 2 0.335108 0.306134 0.564488
872 4 0.398085 0.27673 0.506071
9 3 0.14174 0.349285 0.501597
1189 2 0.229285 0.380869 0.570774
773 4 0.236332 0.376825 0.535154
1190 4 0.242009 0.369707 0.552371
803 4 0.2437 0.358791 0.535849
772 2 0.225901 0.392585 0.518784
774 4 0.215469 0.408346 0.502414
802 2 0.247784 0.340899 0.518867
930 4 0.308622 0.353848 0.5539
928 2 0.302951 0.378056 0.556544
929 4 0.29728 0.402264 0.559187
927 4 0.404821 0.37284 0.545207
925 2 0.413666 0.390023 0.529342
954 4 0.507276 0.334325 0.585327
926 4 0.422512 0.407206 0.513477
2243 4 0.138283 0.494466 0.560817
1159 2 0.174148 0.481582 0.568922
1160 4 0.190307 0.466651 0.580802
889 2 0.306687 0.455915 0.549021
890 4 0.310625 0.475162 0.533555
891 4 0.30275 0.436667 0.564487
1002 4 0.383076 0.483291 0.503974
1000 2 0.407027 0.484171 0.511101
1953 4 0.358609 0.484462 0.565216
1951 2 0.350628 0.497377 0.545349
1001 4 0.430977 0.485051 0.518228
662 4 0.445221 0.471052 0.520102
661 2 0.453164 0.44929 0.510696
1911 4 0.438458 0.481384 0.53529
1909 2 0.434798 0.472249 0.558275
1332 4 0.449469 0.489867 0.521553
1910 4 0.431137 0.463114 0.581261
2319 4 0.0449899 0.011227 0.62978
945 4 0.0609382 0.0146854 0.64037
943 2 0.084137 0.0223778 0.645645
944 4 0.107336 0.0300702 0.650919
825 4 0.127426 0.0343435 0.65394
823 2 0.138418 0.0123573 0.649361
1032 4 0.232733 0.0892202 0.598484
949 2 0.305701 0.0457448 0.593598
951 4 0.291304 0.0604788 0.60777
1030 2 0.254405 0.0768096 0.597267
1031 4 0.276077 0.0643991 0.596051
43 3 0.434946 0.0801271 0.65622
1081 2 0.0290605 0.118112 0.659097
3179 4 0.0255121 0.153608 0.65448
1083 4 0.0330545 0.137762 0.64416
3178 2 0.00899398 0.165426 0.639897
1282 2 0.159032 0.112817 0.654409
1284 4 0.169821 0.112796 0.631853
1221 4 0.195484 0.160278 0.588231
888 4 0.258541 0.165963 0.667396
808 2 0.490573 0.0881724 0.643462
1243 2 0.0780137 0.236112 0.626856
1244 4 0.0576353 0.230908 0.613335
1270 2 0.0905199 0.196973 0.590991
1271 4 0.113788 0.204296 0.596482
1209 4 0.106579 0.244702 0.659333
1245 4 0.0983921 0.241317 0.640377
1210 2 0.224701 0.185626 0.659239
1212 4 0.204259 0.188657 0.645163
1219 2 0.195604 0.175883 0.607766
1220 4 0.195723 0.191489 0.627302
796 2 0.187534 0.225501 0.630392
798 4 0.202225 0.206608 0.637635
906 4 0.477361 0.229708 0.590987
904 2 0.467201 0.230257 0.613827
905 4 0.457041 0.230805 0.636667
3123 4 0.467944 0.235174 0.650982
3121 2 0.487551 0.236898 0.666402
983 4 0.0261316 0.31684 0.603553
982 2 0.0436263 0.321848 0.620701
3263 4 0.0705587 0.327206 0.655859
984 4 0.0611211 0.326855 0.637849
797 4 0.172844 0.244393 0.62315
947 4 0.197134 0.292642 0.636795
946 2 0.200819 0.277767 0.656552
952 2 0.492504 0.326911 0.604088
953 4 0.477731 0.319497 0.62285
1041 4 0.0683234 0.342753 0.645194
1039 2 0.076737 0.366074 0.641954
897 4 0.151241 0.374254 0.585715
1137 4 0.14371 0.38615 0.601164
1135 2 0.123933 0.401108 0.597951
1040 4 0.0851505 0.389396 0.638714
993 4 0.0937385 0.397336 0.654209
1136 4 0.104157 0.416066 0.594737
896 4 0.196913 0.393785 0.591489
895 2 0.174077 0.384019 0.588602
1191 4 0.216561 0.392031 0.589178
1172 4 0.20739 0.408233 0.583838
805 2 0.320602 0.342388 0.663253
807 4 0.342285 0.35393 0.658582
1206 4 0.482523 0.42727 0.665965
3309 4 0.495598 0.398169 0.595331
991 2 0.0958376 0.420264 0.644458
992 4 0.0979367 0.443192 0.634707
1175 4 0.212275 0.494505 0.65911
1173 4 0.189654 0.453662 0.594901
1171 2 0.198522 0.430947 0.58937
1188 4 0.201069 0.481534 0.647586
1187 4 0.19026 0.473075 0.5995
1186 2 0.195664 0.477304 0.623543
1204 2 0.465739 0.437854 0.650751
1205 4 0.448955 0.448438 0.635538
1269 4 0.43627 0.45634 0.649664
1267 2 0.434398 0.47983 0.641302
1226 4 0.181467 0.0811349 0.720237
2254 2 0.210272 0.0137239 0.744136
2256 4 0.202931 0.0245449 0.722824
1003 2 0.314125 0.0489841 0.711549
1005 4 0.300251 0.0618139 0.695176
1004 4 0.327999 0.0361543 0.727922
45 3 0.451034 0.0485271 0.668879
42 3 0.434736 0.0719755 0.69291
41 1 0.447016 0.0704587 0.673518
1163 4 0.481035 0.0681868 0.680885
44 3 0.467082 0.0817365 0.676445
1162 2 0.495957 0.0499684 0.689289
1082 4 0.0250666 0.0984626 0.674034
1076 4 0.0145919 0.101941 0.690973
1075 2 0.0264785 0.102372 0.712967
1077 4 0.0383651 0.102802 0.73496
850 2 0.0680173 0.158501 0.712588
909 4 0.0886731 0.135064 0.70139
907 2 0.111183 0.125824 0.695636
908 4 0.133692 0.116583 0.689882
1283 4 0.148244 0.112837 0.676966
1227 4 0.15213 0.113464 0.695847
851 4 0.0918875 0.151092 0.711883
1148 4 0.194881 0.0914021 0.730039
1225 2 0.166798 0.0972996 0.708042
1147 2 0.215776 0.0937115 0.743575
830 4 0.318653 0.161765 0.695197
831 4 0.367176 0.149682 0.695707
1142 4 0.380553 0.164042 0.693069
1141 2 0.40139 0.163609 0.706882
829 2 0.342915 0.155724 0.695452
810 4 0.483171 0.0791065 0.665557
1025 4 0.473711 0.142946 0.687205
3424 2 0.491985 0.104561 0.698753
3426 4 0.484902 0.0858201 0.683793
1024 2 0.457503 0.154259 0.702519
3425 4 0.499068 0.123301 0.713713
1143 4 0.422227 0.163176 0.720696
1026 4 0.441296 0.165572 0.717833
1215 4 0.00472593 0.213995 0.728066
852 4 0.0441472 0.165911 0.713293
1213 2 0.0235572 0.20009 0.71928
1214 4 0.0423886 0.186184 0.710493
1207 2 0.105525 0.229798 0.679381
1208 4 0.10447 0.214893 0.699429
1106 4 0.144268 0.187607 0.730997
1105 2 0.122165 0.176801 0.726541
1107 4 0.100062 0.165995 0.722085
1130 4 0.156511 0.178679 0.743637
1211 4 0.245143 0.182594 0.673314
886 2 0.279375 0.167599 0.681123
887 4 0.30021 0.169234 0.69485
976 2 0.309616 0.185477 0.731011
978 4 0.310836 0.169889 0.711499
1194 4 0.321358 0.222864 0.66511
1193 4 0.357173 0.228936 0.699477
1192 2 0.339266 0.2259 0.682294
1261 2 0.444294 0.196912 0.734234
1262 4 0.429097 0.180497 0.723063
1263 4 0.459491 0.213327 0.745405
3262 2 0.0547829 0.321964 0.674536
1074 4 0.0768139 0.255408 0.731821
3264 4 0.0390072 0.316722 0.693213
893 4 0.0243917 0.317504 0.708148
1072 2 0.0593414 0.254852 0.749697
1179 4 0.997367 0.279834 0.735842
821 4 0.168782 0.277841 0.731002
948 4 0.204504 0.262893 0.67631
820 2 0.177164 0.257732 0.743272
1064 4 0.207798 0.26835 0.694912
1065 4 0.229815 0.298477 0.728203
1063 2 0.218807 0.283414 0.711557
892 2 0.022123 0.34073 0.717124
894 4 0.0198543 0.363956 0.7261
3276 4 0.0164065 0.382826 0.7306
814 2 0.0584565 0.377135 0.740113
816 4 0.0345446 0.375654 0.732957
815 4 0.0823684 0.378615 0.747269
941 4 0.12796 0.415439 0.737125
1067 4 0.14697 0.407223 0.732266
940 2 0.115417 0.394676 0.743187
1066 2 0.161702 0.411846 0.712599
942 4 0.102873 0.373913 0.749248
806 4 0.298919 0.330846 0.667923
1019 4 0.380539 0.396437 0.706565
1018 2 0.364876 0.391422 0.725398
1020 4 0.349213 0.386407 0.744232
1281 4 0.0140581 0.481193 0.698529
1983 4 0.994634 0.480688 0.693134
1280 4 0.0594616 0.494404 0.68226
1279 2 0.0367599 0.487799 0.690394
1029 4 0.243168 0.414697 0.68611
1027 2 0.218849 0.419984 0.688514
1068 4 0.176434 0.416468 0.692933
1028 4 0.194529 0.425272 0.690919
1140 4 0.262192 0.475195 0.712487
1138 2 0.25841 0.466323 0.735556
1228 2 0.39661 0.436247 0.74551
1230 4 0.411336 0.424267 0.729236
1100 4 0.424171 0.436367 0.721792
1101 4 0.467179 0.460272 0.712868
1099 2 0.445675 0.44832 0.71733
1251 4 0.479559 0.470237 0.724318
3330 4 0.483116 0.468698 0.705048
1249 2 0.477438 0.488265 0.741514
1296 4 0.0174551 0.0347176 0.800449
1203 4 0.123999 0.0747851 0.798568
1201 2 0.133188 0.0592242 0.781288
1202 4 0.142377 0.0436632 0.764008
2049 4 0.14582 0.024318 0.764141
1257 4 0.249279 0.0839655 0.749139
1255 2 0.266036 0.0799946 0.767267
1256 4 0.282792 0.0760236 0.785395
1113 4 0.392489 0.0550689 0.823332
1111 2 0.383949 0.0777369 0.817133
2321 4 0.466498 0.998221 0.780985
2322 4 0.46338 0.0481293 0.780566
2320 2 0.464939 0.0231752 0.780776
846 4 0.474786 0.0661202 0.777095
864 4 0.0267171 0.114263 0.748295
862 2 0.0320828 0.110564 0.772434
863 4 0.0374485 0.106865 0.796573
832 2 0.0204833 0.097033 0.829569
833 4 0.0361327 0.111498 0.816491
1125 4 0.0283814 0.127864 0.820756
1123 2 0.0263838 0.152437 0.824917
31 1 0.122848 0.149529 0.809686
34 3 0.128467 0.1695 0.799294
35 3 0.140508 0.135166 0.808982
33 3 0.104484 0.140017 0.799165
32 3 0.117447 0.153826 0.831629
1149 4 0.236671 0.0960209 0.757112
840 4 0.280722 0.0903575 0.79772
838 2 0.283631 0.101941 0.819687
1112 4 0.37541 0.100405 0.810935
818 4 0.386009 0.112051 0.822957
844 2 0.464757 0.0889375 0.775106
845 4 0.454727 0.111755 0.773117
1124 4 0.0243861 0.177011 0.829078
822 4 0.185545 0.237623 0.755542
1129 2 0.169923 0.198379 0.751201
1131 4 0.183335 0.218079 0.758765
920 4 0.214435 0.205204 0.819845
1277 4 0.18153 0.230661 0.773824
1276 2 0.191014 0.239629 0.79515
919 2 0.195983 0.190731 0.828519
1278 4 0.200498 0.248597 0.816476
977 4 0.308396 0.201064 0.750524
918 4 0.296579 0.208887 0.764188
1298 4 0.315062 0.203891 0.7679
916 2 0.289721 0.231845 0.757042
1297 2 0.33558 0.203972 0.782189
1084 2 0.354826 0.182897 0.833732