ITEM: TIMESTEP
2840000
ITEM: NUMBER OF ATOMS
4590
ITEM: BOX BOUNDS pp pp pp
-9.9985700000000008e+00 9.9985700000000008e+00
-9.9985700000000008e+00 9.9985700000000008e+00
-9.9985700000000008e+00 9.9985700000000008e+00
ITEM: ATOMS id type xs ys zs
465 4 0.0842535 0.0775998 0.0381483
701 4 0.0971379 0.0705022 0.0251059
700 2 0.118258 0.0593238 0.0177474
702 4 0.139379 0.0481454 0.010389
566 4 0.156467 0.0472263 0.998733
565 2 0.171997 0.065941 0.00454248
746 4 0.478882 0.0517552 0.0337918
2469 4 0.487105 0.0420284 0.0492116
745 2 0.471824 0.053122 0.00984418
463 2 0.0599062 0.0802844 0.0331304
464 4 0.0355589 0.0829689 0.0281124
590 4 0.0268559 0.0890096 0.0451112
589 2 0.007163 0.0885424 0.0605109
558 4 0.382716 0.112681 0.0309223
556 2 0.368698 0.110192 0.0514769
557 4 0.354681 0.107702 0.0720314
771 4 0.452699 0.125671 0.0613146
769 2 0.457912 0.146373 0.0743311
554 4 0.0517537 0.193077 0.00993373
553 2 0.0694687 0.195664 0.0273884
555 4 0.0871836 0.198252 0.0448431
835 2 0.124223 0.206101 0.0225999
836 4 0.102157 0.206302 0.0343585
837 4 0.146288 0.2059 0.0108413
573 4 0.324774 0.251979 0.0699943
461 4 0.327444 0.238529 0.0838142
666 4 0.328477 0.233627 0.0649078
865 2 0.367342 0.17098 0.00551357
664 2 0.339777 0.21919 0.0479059
665 4 0.351077 0.204753 0.0309041
867 4 0.35799 0.188783 0.0203722
1070 4 0.426985 0.248604 0.058756
2808 4 0.0355551 0.304577 0.0181045
2806 2 0.0153665 0.293444 0.0277822
292 2 0.112585 0.324011 0.0731831
293 4 0.118433 0.330813 0.049844
507 4 0.135742 0.331822 0.0388118
356 4 0.308396 0.306348 0.0477854
572 4 0.32609 0.298669 0.0521328
355 2 0.292518 0.317968 0.0323564
571 2 0.325432 0.275324 0.0610636
357 4 0.27664 0.329587 0.0169273
1069 2 0.43177 0.262196 0.0791895
322 2 0.446945 0.316652 0.0828999
647 4 0.0185197 0.355322 0.0662489
646 2 0.0366271 0.340065 0.0742797
620 4 0.00471136 0.369342 0.0734335
648 4 0.0547346 0.324807 0.0823106
505 2 0.153865 0.348035 0.0329919
481 2 0.205189 0.38862 0.0270681
482 4 0.228713 0.396302 0.0306443
483 4 0.181665 0.380938 0.023492
506 4 0.171988 0.364248 0.027172
609 4 0.243258 0.409058 0.0364964
626 4 0.172521 0.402136 0.0863012
902 4 0.279396 0.336631 0.997439
957 4 0.3688 0.394318 0.0035457
323 4 0.455027 0.338603 0.0740674
671 4 0.492539 0.374655 0.0671911
670 2 0.469355 0.365301 0.067556
280 2 0.496981 0.41177 0.0445809
672 4 0.44617 0.355946 0.0679208
550 2 0.0581253 0.449982 0.0805528
552 4 0.0790448 0.463636 0.0816163
1787 4 0.0953565 0.461652 0.0710101
1786 2 0.102471 0.467611 0.0477922
1788 4 0.109585 0.473569 0.0245744
246 4 0.230724 0.481105 0.0300512
244 2 0.219383 0.470264 0.0495201
245 4 0.208042 0.459423 0.068989
272 4 0.239259 0.483957 0.0137575
627 4 0.197273 0.442152 0.0693671
625 2 0.184897 0.422144 0.0778341
607 2 0.265176 0.421054 0.0355635
608 4 0.287095 0.433049 0.0346306
252 4 0.283903 0.451013 0.0428694
250 2 0.306115 0.459857 0.0355481
251 4 0.328327 0.468701 0.0282268
2289 4 0.337021 0.487194 0.0230938
525 4 0.437317 0.479612 0.0701043
282 4 0.4951 0.431304 0.0290865
226 2 0.468912 0.46127 0.0446184
227 4 0.48451 0.448521 0.0298073
228 4 0.453315 0.47402 0.0594296
563 4 0.448076 0.492382 0.0609726
16 1 0.0649767 0.0284822 0.148955
20 3 0.0668938 0.0336162 0.126851
1806 4 0.0539323 0.994134 0.135973
18 3 0.0591775 0.00615089 0.151422
19 3 0.0489064 0.0419797 0.158853
17 3 0.0851703 0.032114 0.159356
652 2 0.310553 0.0293817 0.16548
653 4 0.328208 0.0461956 0.15993
484 2 0.364517 0.0169783 0.103337
297 4 0.351726 0.0506779 0.110598
485 4 0.345169 0.03074 0.111177
295 2 0.354788 0.0714334 0.0969966
579 4 0.0980357 0.130414 0.104027
237 4 0.147743 0.154595 0.130024
578 4 0.137292 0.159623 0.114349
577 2 0.117664 0.145018 0.109188
235 2 0.163279 0.137131 0.1389
236 4 0.178815 0.119666 0.147777
693 4 0.195247 0.108592 0.150108
449 4 0.177928 0.102629 0.156456
691 2 0.219313 0.110391 0.143569
692 4 0.243379 0.11219 0.13703
582 4 0.262105 0.104507 0.134704
580 2 0.279784 0.115083 0.148874
581 4 0.297463 0.125659 0.163044
30 3 0.314818 0.137336 0.161806
296 4 0.357851 0.0921889 0.0833948
770 4 0.463124 0.167075 0.0873476
476 4 0.140702 0.172904 0.128585
737 4 0.154991 0.167295 0.11683
475 2 0.135915 0.18695 0.148709
736 2 0.163151 0.184335 0.100452
738 4 0.17131 0.201375 0.0840732
354 4 0.313996 0.242638 0.146308
283 2 0.318756 0.200497 0.151628
285 4 0.320262 0.175779 0.155084
284 4 0.31725 0.225215 0.148172
462 4 0.321038 0.233467 0.13315
460 2 0.324241 0.235998 0.108482
255 4 0.330237 0.237086 0.147873
352 2 0.291238 0.248016 0.155156
253 2 0.352113 0.246322 0.155702
1014 4 0.458232 0.181969 0.09884
1013 4 0.487 0.218626 0.116988
1012 2 0.472616 0.200297 0.107914
456 4 0.0621223 0.322471 0.102844
455 4 0.0434752 0.319467 0.149147
454 2 0.0527988 0.320969 0.125995
749 4 0.030176 0.31008 0.159032
294 4 0.106737 0.31721 0.0965223
610 2 0.235541 0.326107 0.106075
612 4 0.246977 0.304619 0.111789
756 4 0.242542 0.304354 0.130634
754 2 0.248282 0.28436 0.144507
353 4 0.268479 0.253395 0.164005
755 4 0.254021 0.264366 0.15838
254 4 0.37399 0.255557 0.163532
1071 4 0.436555 0.275789 0.099623
324 4 0.438864 0.294701 0.0917324
611 4 0.224104 0.347595 0.10036
536 4 0.180459 0.386559 0.0959844
535 2 0.201174 0.374959 0.103826
537 4 0.221889 0.363358 0.111668
387 4 0.341517 0.40571 0.12501
739 2 0.412811 0.38002 0.128038
740 4 0.398899 0.388797 0.146869
385 2 0.362034 0.399051 0.137655
386 4 0.382551 0.392392 0.1503
495 4 0.395352 0.401541 0.159756
15 3 0.388127 0.373964 0.154
741 4 0.426724 0.371243 0.109208
551 4 0.0372058 0.436328 0.0794892
242 4 0.096007 0.469793 0.0885096
241 2 0.115981 0.460622 0.10043
243 4 0.135956 0.451451 0.112351
1440 4 0.150067 0.464026 0.109238
1438 2 0.173968 0.466341 0.116207
1439 4 0.197869 0.468656 0.123177
637 2 0.22588 0.487021 0.111268
639 4 0.205875 0.473003 0.105933
303 4 0.298133 0.458991 0.115422
766 2 0.280038 0.487576 0.128936
768 4 0.30221 0.47636 0.126152
301 2 0.311921 0.438756 0.120483
302 4 0.325709 0.418521 0.125543
524 4 0.409624 0.4895 0.110553
493 2 0.40544 0.424416 0.159379
494 4 0.415529 0.447291 0.159002
660 4 0.413024 0.464529 0.151865
523 2 0.423471 0.484556 0.0903286
658 2 0.427443 0.481304 0.163521
380 4 0.0477439 0.0471519 0.178408
379 2 0.0469165 0.0696742 0.189236
450 4 0.147082 0.0693693 0.177505
675 4 0.0898049 0.0514085 0.165603
673 2 0.113482 0.0520305 0.173615
1505 4 0.157136 0.0531155 0.180564
674 4 0.137158 0.0526525 0.181628
1504 2 0.169308 0.0367785 0.19506
689 4 0.170515 0.00315504 0.208125
1506 4 0.181479 0.0204415 0.209555
1661 4 0.300575 0.999862 0.155714
654 4 0.292899 0.0125679 0.17103
23 3 0.404683 0.996884 0.242615
22 3 0.410016 0.0176558 0.211749
632 4 0.381981 0.0454136 0.246104
21 1 0.420447 0.00426053 0.22727
757 2 0.473909 0.0210625 0.216268
25 3 0.436608 0.0162808 0.237899
759 4 0.455332 0.0207275 0.233001
350 4 0.443569 0.0332397 0.239917
512 4 0.0470389 0.110804 0.190316
381 4 0.0460892 0.0921965 0.200064
511 2 0.0587819 0.132672 0.193327
513 4 0.0705249 0.15454 0.196338
448 2 0.162505 0.0859992 0.166981
26 1 0.318612 0.14926 0.180834
28 3 0.300646 0.146955 0.195336
27 3 0.337559 0.141261 0.191137
311 4 0.455317 0.169213 0.200654
339 4 0.0828568 0.170161 0.201195
337 2 0.100236 0.185703 0.192161
477 4 0.131127 0.200996 0.168832
363 4 0.135186 0.20958 0.186449
338 4 0.117614 0.201244 0.183127
362 4 0.150441 0.248494 0.213903
361 2 0.142813 0.229037 0.200176
29 3 0.32178 0.171653 0.175645
628 2 0.3987 0.228952 0.184406
629 4 0.407973 0.209052 0.196372
630 4 0.389426 0.248852 0.172441
420 4 0.391033 0.227893 0.244836
312 4 0.416109 0.198426 0.211144
310 2 0.435713 0.18382 0.205899
761 4 0.484215 0.225429 0.240998
750 4 0.0211351 0.292408 0.204931
395 4 0.0184886 0.286489 0.222319
748 2 0.0256555 0.301244 0.181982
394 2 0.0240402 0.282854 0.246426
372 4 0.135262 0.256491 0.225234
370 2 0.150491 0.270161 0.239601
300 4 0.106088 0.289251 0.185338
298 2 0.106353 0.306183 0.203735
299 4 0.106617 0.323114 0.222131
734 4 0.10674 0.321607 0.242259
279 4 0.232443 0.25546 0.211885
277 2 0.241239 0.251055 0.188898
371 4 0.165719 0.283831 0.253968
278 4 0.250034 0.246651 0.165911
401 4 0.276626 0.295109 0.231288
498 4 0.278138 0.31551 0.224827
496 2 0.288316 0.327526 0.205406
497 4 0.298495 0.339542 0.185985
764 4 0.419968 0.302303 0.1861
765 4 0.38654 0.268745 0.170065
763 2 0.403254 0.285524 0.178082
624 4 0.485881 0.312625 0.171065
622 2 0.461814 0.306593 0.174158
528 4 0.498257 0.30391 0.183322
623 4 0.437747 0.300561 0.177252
262 2 0.0446042 0.393411 0.212781
263 4 0.0684396 0.391332 0.220042
602 4 0.0843644 0.377926 0.218406
264 4 0.0207688 0.395489 0.205519
2618 4 0.0166672 0.412596 0.215292
601 2 0.0885814 0.354375 0.225667
603 4 0.0927983 0.330824 0.232929
290 4 0.18305 0.392696 0.219669
289 2 0.176069 0.416704 0.219397
308 4 0.317218 0.337323 0.180332
307 2 0.339673 0.347856 0.177165
309 4 0.362127 0.358389 0.173998
14 3 0.39256 0.399181 0.181606
11 1 0.391235 0.376607 0.176405
13 3 0.373709 0.366814 0.188038
12 3 0.410894 0.366385 0.182585
2617 2 0.00600374 0.429922 0.229828
291 4 0.169089 0.440712 0.219125
416 4 0.166681 0.459968 0.216442
415 2 0.184726 0.47721 0.21494
1430 4 0.220499 0.486122 0.209223
417 4 0.202771 0.494452 0.213437
597 4 0.489022 0.467063 0.208848
596 4 0.44737 0.488023 0.19078
659 4 0.441863 0.498078 0.175177
595 2 0.468196 0.477543 0.199814
645 4 0.493629 0.459623 0.191242
1799 4 0.0109135 0.0160741 0.295669
233 4 0.00264768 0.0320116 0.287714
1402 2 0.0432475 0.0411629 0.298395
1403 4 0.0217696 0.031063 0.290529
1404 4 0.0647255 0.0512628 0.306261
1798 2 0.00394009 0.00446683 0.316689
633 4 0.373125 0.0429215 0.295257
631 2 0.377553 0.0441675 0.270681
257 4 0.373362 0.0562344 0.309059
698 4 0.365074 0.0394494 0.313023
697 2 0.361729 0.0146707 0.313116
256 2 0.370941 0.0696227 0.330036
349 2 0.445737 0.0351488 0.264753
744 4 0.45172 0.0299748 0.308154
742 2 0.469068 0.0251608 0.325505
351 4 0.447905 0.0370578 0.289589
398 4 0.0657579 0.147302 0.310337
397 2 0.0577661 0.126904 0.322388
393 4 0.080876 0.150576 0.299114
390 4 0.0772218 0.162672 0.313456
392 4 0.115527 0.156736 0.263588
391 2 0.0982015 0.153656 0.281351
404 4 0.204071 0.150741 0.328473
403 2 0.188877 0.161936 0.312073
521 4 0.486324 0.129041 0.252101
444 4 0.0327342 0.22891 0.314926
442 2 0.0295725 0.249851 0.301635
388 2 0.0710978 0.1856 0.32133
389 4 0.0649739 0.208527 0.329205
545 4 0.124398 0.173098 0.258465
544 2 0.143602 0.180165 0.272834
546 4 0.162806 0.187231 0.287203
723 4 0.203023 0.226231 0.262895
721 2 0.192736 0.206006 0.273396
405 4 0.173683 0.173132 0.295672
722 4 0.182448 0.18578 0.283898
378 4 0.300961 0.249199 0.317376
717 4 0.380605 0.243946 0.241774
418 2 0.410448 0.219871 0.258397
331 2 0.449753 0.207139 0.310241
332 4 0.437934 0.20582 0.288247
419 4 0.429863 0.21185 0.271958
760 2 0.466665 0.220378 0.258077
762 4 0.449115 0.215328 0.275155
333 4 0.461572 0.208459 0.332235
453 4 0.478396 0.21908 0.333949
364 2 0.0165294 0.308732 0.295565
396 4 0.0295919 0.279218 0.270533
443 4 0.0264108 0.270793 0.288345
365 4 0.0169119 0.286919 0.28335
366 4 0.0161469 0.330545 0.307781
407 4 0.0167051 0.325171 0.326416
735 4 0.144232 0.322521 0.275338
733 2 0.125486 0.322064 0.258798
677 4 0.160393 0.316799 0.286139
676 2 0.183558 0.321436 0.294329
508 2 0.238135 0.311899 0.304141
509 4 0.217974 0.319398 0.316888
678 4 0.206723 0.326072 0.302519
510 4 0.258296 0.3044 0.291394
400 2 0.275168 0.300855 0.255578
402 4 0.273711 0.306601 0.279869
345 4 0.275913 0.296907 0.296679
343 2 0.290746 0.282038 0.310247
344 4 0.305578 0.267168 0.323815
715 2 0.3763 0.263433 0.256837
716 4 0.371994 0.28292 0.2719
542 4 0.381679 0.288587 0.287943
541 2 0.391033 0.299415 0.308447
543 4 0.400388 0.310244 0.328951
751 2 0.482711 0.333256 0.331213
548 4 0.0197778 0.343945 0.3216
547 2 0.0271626 0.367311 0.32657
549 4 0.0345473 0.390676 0.33154
435 4 0.209571 0.336805 0.317907
728 4 0.371756 0.380822 0.285725
727 2 0.371979 0.398649 0.303256
2538 4 0.474404 0.33903 0.287303
753 4 0.473414 0.339971 0.308995
2536 2 0.489492 0.35695 0.278561
2463 4 0.0116404 0.495417 0.332426
1543 2 0.149213 0.480378 0.320459
1545 4 0.169918 0.478483 0.306572
1436 4 0.178013 0.496863 0.308657
729 4 0.372202 0.416475 0.320787
437 4 0.376954 0.436377 0.319587
436 2 0.371274 0.456848 0.332772
2861 4 0.500986 0.434379 0.301378
730 2 0.0653908 0.0689749 0.348667
1772 4 0.0123914 0.0269879 0.390877
1771 2 0.00243467 0.0118008 0.37369
732 4 0.071492 0.0450199 0.352424
2236 2 0.00943537 0.0517565 0.412956
369 4 0.0876554 0.0337532 0.357656
367 2 0.0912487 0.0282233 0.381774
368 4 0.0948421 0.0226935 0.405893
1782 4 0.109674 0.0148677 0.416824
606 4 0.165703 0.00794155 0.408726
605 4 0.203337 0.0408473 0.409997
604 2 0.18452 0.0243944 0.409361
1701 4 0.189588 0.0554146 0.404095
1699 2 0.199884 0.0770344 0.3969
424 2 0.383931 0.058435 0.385603
425 4 0.393459 0.0463427 0.405305
1580 4 0.398346 0.0272678 0.40511
426 4 0.374403 0.0705272 0.365901
258 4 0.368519 0.0830111 0.351014
2664 4 0.504195 0.0287999 0.345153
743 4 0.486416 0.0203468 0.342856
479 4 0.488389 0.0355875 0.35518
478 2 0.488143 0.0572982 0.36758
480 4 0.487896 0.0790089 0.37998
399 4 0.0497743 0.106506 0.334439
458 4 0.996702 0.134445 0.388156
318 4 0.0141775 0.12485 0.386399
317 4 0.0473863 0.105826 0.354213
731 4 0.0592896 0.0929299 0.344911
316 2 0.0307819 0.115338 0.370306
457 2 0.995693 0.159418 0.387437
249 4 0.195565 0.135494 0.337962
247 2 0.199877 0.117221 0.354474
248 4 0.20419 0.0989479 0.370987
1700 4 0.21018 0.0986542 0.389706
320 4 0.313117 0.116785 0.406379
682 2 0.277953 0.129448 0.408424
683 4 0.261222 0.148019 0.409061
684 4 0.294683 0.110878 0.407787
319 2 0.330581 0.1286 0.39294
321 4 0.348045 0.140415 0.379501
708 4 0.341508 0.157211 0.368919
516 4 0.478067 0.157419 0.363773
575 4 0.466775 0.144809 0.3753
574 2 0.471353 0.13888 0.399156
459 4 0.994684 0.18439 0.386718
376 2 0.303978 0.22695 0.32838
377 4 0.306994 0.204702 0.339384
707 4 0.323747 0.194258 0.340409
706 2 0.332627 0.175734 0.354664
466 2 0.364115 0.245189 0.405588
467 4 0.363477 0.220351 0.402794
515 4 0.478334 0.199737 0.337131
514 2 0.478201 0.178578 0.350452
406 2 0.0216862 0.316329 0.349267
408 4 0.0266673 0.307487 0.372119
347 4 0.0818871 0.322408 0.388249
346 2 0.0663479 0.333484 0.404405
275 4 0.142098 0.327184 0.351607
274 2 0.161955 0.316347 0.362257
276 4 0.181813 0.30551 0.372907
373 2 0.201868 0.280726 0.395047
375 4 0.188968 0.28779 0.374826
374 4 0.214767 0.273662 0.415268
473 4 0.234825 0.267494 0.41965
615 4 0.410157 0.326827 0.328595
267 4 0.365788 0.28948 0.411403
468 4 0.364753 0.270028 0.408382
265 2 0.34166 0.295589 0.413794
752 4 0.492007 0.326542 0.353432
777 4 0.0311461 0.408572 0.336663
618 4 0.0871293 0.340244 0.380832
617 4 0.131367 0.343469 0.357738
616 2 0.109248 0.341857 0.369285
433 2 0.203701 0.343692 0.341216
434 4 0.19783 0.35058 0.364524
502 2 0.304607 0.41318 0.408101
504 4 0.282856 0.402034 0.413374
613 2 0.428413 0.337594 0.34186
614 4 0.446669 0.34836 0.355125
775 2 0.0463048 0.425655 0.346839
776 4 0.0614636 0.442738 0.357016
414 4 0.074003 0.455809 0.362943
1544 4 0.128507 0.482272 0.334347
413 4 0.114436 0.480946 0.347647
412 2 0.0942196 0.468378 0.355295
500 4 0.122935 0.497874 0.344068
503 4 0.326359 0.424327 0.402829
669 4 0.32474 0.44368 0.400968
667 2 0.326089 0.463674 0.415921
594 4 0.390312 0.500816 0.401653
438 4 0.365595 0.47732 0.345956
240 4 0.399495 0.417922 0.393092
335 4 0.379275 0.416245 0.391615
336 4 0.332355 0.432761 0.386473
334 2 0.355815 0.424503 0.389044
592 2 0.37819 0.497793 0.379995
593 4 0.366068 0.494769 0.358336
3990 4 0.502753 0.484199 0.37251
1127 4 0.0109221 0.0639151 0.450518
2237 4 0.0192923 0.0621109 0.43347
720 4 0.0256879 0.0765286 0.44472
1781 4 0.0929453 0.00899731 0.463583
1780 2 0.10131 0.0119325 0.440204
2429 4 0.243185 0.991077 0.489054
961 2 0.281082 0.000361578 0.488968
724 2 0.292702 0.0534881 0.477249
726 4 0.289268 0.0734711 0.462618
725 4 0.296136 0.0335051 0.49188
963 4 0.300949 0.0155428 0.488968
432 4 0.314811 0.0279566 0.49589
1579 2 0.388703 0.00778222 0.417459
2879 4 0.419238 0.0275898 0.488267
642 4 0.452004 0.077918 0.452655
2878 2 0.430824 0.0459355 0.475842
2880 4 0.44241 0.0642812 0.463416
470 4 0.0201209 0.140254 0.465774
718 2 0.0432361 0.0943398 0.444729
719 4 0.0607844 0.112151 0.444737
939 4 0.0943316 0.157217 0.485054
1033 2 0.120913 0.140002 0.470977
1035 4 0.145641 0.136465 0.472072
261 4 0.163258 0.145884 0.473798
1034 4 0.0961852 0.143539 0.469882
259 2 0.172831 0.166725 0.463838
600 4 0.259688 0.163418 0.421771
1181 4 0.308106 0.10637 0.421552
1182 4 0.30438 0.0874015 0.467672
1180 2 0.306243 0.0968855 0.444612
576 4 0.47593 0.132951 0.423011
640 2 0.464652 0.0969173 0.442446
641 4 0.477301 0.115916 0.432236
306 4 0.480936 0.132408 0.442006
304 2 0.476127 0.148257 0.460738
3158 4 0.46023 0.152608 0.49184
305 4 0.471319 0.164105 0.47947
694 2 0.158964 0.221396 0.470869
696 4 0.143627 0.23893 0.479952
1260 4 0.138927 0.238267 0.499062
695 4 0.174301 0.203862 0.461786
260 4 0.182403 0.187566 0.453878
472 2 0.24364 0.246953 0.430855
687 4 0.240687 0.215456 0.448978
686 4 0.193835 0.201913 0.460032
685 2 0.217261 0.208684 0.454505
489 4 0.314881 0.233397 0.429552
599 4 0.255652 0.20922 0.441433
474 4 0.252455 0.226412 0.44206
411 4 0.256142 0.218044 0.45662
598 2 0.25767 0.186319 0.431602
409 2 0.261151 0.221052 0.480931
488 4 0.268847 0.220573 0.444289
487 2 0.291864 0.226985 0.436921
813 4 0.266073 0.329548 0.472664
266 4 0.317532 0.301698 0.416184
2812 2 0.0213675 0.333934 0.443035
348 4 0.0508086 0.34456 0.420562
2813 4 0.041165 0.348061 0.437234
326 4 0.0526694 0.361565 0.43098
325 2 0.0642158 0.376046 0.447778
327 4 0.0757623 0.390526 0.464576
7 3 0.086105 0.379618 0.478323
6 1 0.108493 0.381166 0.483375
711 4 0.128743 0.414931 0.490989
8 3 0.112763 0.402213 0.492159
709 2 0.153042 0.414667 0.485101
10 3 0.120697 0.378042 0.464403
811 2 0.264756 0.334837 0.497066
1383 4 0.055472 0.478867 0.466575
680 4 0.0486492 0.461125 0.476028
1381 2 0.0678404 0.496373 0.4537
679 2 0.060109 0.450737 0.495673
634 2 0.197093 0.446772 0.459384
636 4 0.205702 0.468875 0.451477
635 4 0.188485 0.424669 0.467291
710 4 0.177341 0.414402 0.479213
774 4 0.196303 0.414423 0.481966
4 3 0.316694 0.48838 0.448182
668 4 0.327438 0.483668 0.430874
587 4 0.394742 0.430234 0.498069
238 2 0.409616 0.427371 0.413911
588 4 0.419652 0.438458 0.455494
586 2 0.407197 0.434346 0.476781
239 4 0.419738 0.43682 0.434731
1184 4 0.0132499 0.0297406 0.568987
1183 2 0.0242996 0.00734546 0.570228
342 4 0.153999 0.055797 0.504112
1152 4 0.146577 0.0598319 0.521857
1150 2 0.151766 0.0659465 0.54554
1151 4 0.156954 0.0720611 0.569223
340 2 0.172003 0.0384975 0.502785
341 4 0.190007 0.021198 0.501459
2430 4 0.206513 0.0160491 0.512125
2428 2 0.224849 0.00356318 0.500589
430 2 0.327606 0.0143746 0.512533
841 2 0.364327 0.0280203 0.553334
842 4 0.379141 0.041652 0.568163
1216 2 0.413161 0.0129223 0.568358
1217 4 0.393047 0.027602 0.566101
843 4 0.349513 0.0143885 0.538506
3009 4 0.494346 0.0512124 0.565543
1061 4 0.492501 0.0684603 0.519911
2657 4 0.503107 0.0552592 0.507861
879 4 0.0493358 0.158101 0.535689
877 2 0.0259236 0.149659 0.538094
878 4 0.00251137 0.141217 0.540498
938 4 0.0632029 0.1535 0.524015
937 2 0.0787673 0.155358 0.504535
3159 4 0.451496 0.120117 0.528837
3157 2 0.455863 0.136362 0.510338
1062 4 0.468455 0.109709 0.534779
1060 2 0.480478 0.0890847 0.527345
1272 4 0.0644575 0.170232 0.534355
1270 2 0.0681193 0.184865 0.554296
1271 4 0.0717811 0.199498 0.574237
1258 2 0.140386 0.229618 0.522477
1259 4 0.141845 0.22097 0.545892
1244 4 0.0821769 0.184201 0.583364
898 2 0.293238 0.222343 0.539543
899 4 0.304315 0.219017 0.561712
857 4 0.312574 0.205676 0.573773
856 2 0.310648 0.192887 0.595172
791 4 0.321791 0.211985 0.557861
900 4 0.282162 0.225669 0.517375
410 4 0.266161 0.22406 0.505242
790 2 0.342594 0.225009 0.562634
792 4 0.363398 0.238033 0.567408
872 4 0.371009 0.252648 0.556267
806 4 0.317578 0.329121 0.567464
805 2 0.328871 0.312641 0.5825
1238 4 0.37504 0.251725 0.575119
871 2 0.376839 0.25807 0.532565
873 4 0.382668 0.263491 0.508862
1135 2 0.12638 0.363443 0.578195
9 3 0.113807 0.36484 0.498985
1137 4 0.143007 0.380846 0.571422
773 4 0.225186 0.411473 0.522682
1189 2 0.219526 0.416453 0.563086
1190 4 0.23033 0.415559 0.540554
803 4 0.239146 0.400888 0.531894
802 2 0.245426 0.376745 0.530201
804 4 0.251705 0.352602 0.528508
651 4 0.299864 0.336973 0.572813
649 2 0.280691 0.338417 0.556828
650 4 0.261519 0.33986 0.540843
812 4 0.263439 0.340125 0.521469
925 2 0.414611 0.395488 0.51546
927 4 0.421902 0.373596 0.525092
926 4 0.40732 0.417379 0.505828
1010 4 0.505599 0.357782 0.530382
681 4 0.0715687 0.440348 0.515318
383 4 0.0899435 0.449997 0.518995
382 2 0.111144 0.438917 0.511719
569 4 0.147244 0.437557 0.514391
2243 4 0.167746 0.513755 0.564847
568 2 0.165971 0.449022 0.526349
384 4 0.132345 0.427837 0.504444
772 2 0.210745 0.412948 0.502324
930 4 0.242475 0.41971 0.526544
570 4 0.184699 0.460487 0.538308
928 2 0.265572 0.428947 0.524017
929 4 0.28867 0.438183 0.52149
1951 2 0.293018 0.474215 0.537453
1953 4 0.291192 0.449279 0.537594
1952 4 0.294845 0.499152 0.537312
663 4 0.404914 0.434928 0.514103
661 2 0.412665 0.455237 0.526458
1001 4 0.417119 0.48546 0.555004
662 4 0.420417 0.475546 0.538812
1911 4 0.424194 0.467305 0.556344
1332 4 0.435035 0.482352 0.549222
1330 2 0.455004 0.496722 0.544755
1909 2 0.428993 0.457416 0.578802
2375 4 0.156044 0.0179244 0.615267
1059 4 0.167207 0.0770405 0.584518
1057 2 0.162936 0.0580343 0.600192
1058 4 0.158665 0.039028 0.615867
949 2 0.280547 0.0168006 0.61791
951 4 0.292687 0.0358643 0.628606
1031 4 0.296319 0.0314965 0.648848
950 4 0.268408 0.997737 0.607214
3007 2 0.498992 0.0670346 0.584338
43 3 0.447699 0.0543661 0.663513
3008 4 0.503638 0.0828568 0.603133
1155 4 0.154866 0.0891281 0.577323
1154 4 0.149827 0.134469 0.597805
1153 2 0.152347 0.111799 0.587564
1221 4 0.151662 0.150124 0.61017
1219 2 0.171868 0.164624 0.607593
808 2 0.491364 0.085052 0.643073
809 4 0.500414 0.0917386 0.620745
1245 4 0.109671 0.178628 0.624762
1243 2 0.0959237 0.181414 0.604063
1209 4 0.112363 0.177519 0.645031
1207 2 0.109339 0.167094 0.667556
1210 2 0.224553 0.176726 0.631781
1212 4 0.208476 0.183539 0.613884
1220 4 0.192075 0.179123 0.605016
797 4 0.195546 0.247011 0.6013
796 2 0.197685 0.222123 0.602396
798 4 0.199824 0.197235 0.603492
1211 4 0.240631 0.169914 0.649677
858 4 0.308721 0.180098 0.61657
3121 2 0.478974 0.225314 0.631495
3122 4 0.484763 0.208986 0.649524
3357 4 0.475841 0.19078 0.651366
3355 2 0.496551 0.177366 0.655408
3123 4 0.473186 0.241642 0.613465
983 4 0.0120981 0.31324 0.618664
982 2 0.0309712 0.320803 0.633217
984 4 0.0498444 0.328366 0.647769
3263 4 0.0569517 0.336486 0.664261
1237 2 0.365673 0.268794 0.590806
807 4 0.340164 0.296162 0.597535
1239 4 0.356306 0.285864 0.606493
906 4 0.447537 0.304426 0.623327
905 4 0.466653 0.258242 0.62181
904 2 0.457095 0.281334 0.622569
953 4 0.457024 0.315411 0.609375
952 2 0.474988 0.331884 0.603798
1041 4 0.0630995 0.342662 0.646452
1039 2 0.0698358 0.363001 0.633564
1040 4 0.0765722 0.383341 0.620677
993 4 0.0586145 0.392888 0.617673
991 2 0.0393452 0.407795 0.612046
1136 4 0.109754 0.346039 0.584968
897 4 0.159593 0.379958 0.58574
1191 4 0.208722 0.417346 0.585617
895 2 0.178405 0.395239 0.59189
896 4 0.197216 0.410519 0.598041
1028 4 0.199023 0.406689 0.665134
1027 2 0.198701 0.411618 0.640623
1029 4 0.198379 0.416547 0.616112
954 4 0.492952 0.348357 0.598222
992 4 0.0200759 0.422702 0.60642
1172 4 0.203306 0.428555 0.601082
1159 2 0.17094 0.502832 0.596674
1160 4 0.187694 0.494329 0.613171
1171 2 0.200292 0.452896 0.605943
1173 4 0.197279 0.477236 0.610805
1187 4 0.189959 0.481926 0.628381
1186 2 0.175327 0.485969 0.648249
1206 4 0.493554 0.421643 0.61433
1268 4 0.446007 0.497983 0.644872
1267 2 0.441574 0.477267 0.631592
1204 2 0.472907 0.435455 0.611479
1910 4 0.433791 0.447526 0.60126
1269 4 0.43714 0.456551 0.618312
1205 4 0.452261 0.449267 0.608628
2168 4 0.463626 0.491792 0.653536
1284 4 0.10133 0.0504568 0.715374
1282 2 0.116954 0.0656453 0.703112
2047 2 0.148715 0.0145151 0.742506
2048 4 0.125449 0.00703802 0.747791
2256 4 0.185272 0.00894366 0.743691
2049 4 0.171982 0.0219922 0.73722
1201 2 0.194016 0.045842 0.721393
1202 4 0.191165 0.0248294 0.734642
1203 4 0.196867 0.0668545 0.708145
1226 4 0.19241 0.0816677 0.697304
1148 4 0.204438 0.0850626 0.712054
1030 2 0.296506 0.0401561 0.672303
1032 4 0.296693 0.0488156 0.695759
1005 4 0.312779 0.00223546 0.710963
810 4 0.482314 0.0783654 0.665402
45 3 0.463038 0.0385233 0.694031
41 1 0.456676 0.0582317 0.684557
1163 4 0.493657 0.077375 0.681534
44 3 0.474923 0.0724691 0.682892
42 3 0.440672 0.0681673 0.697759
1077 4 0.0264617 0.118878 0.736148
1075 2 0.00926921 0.105841 0.723514
864 4 0.0456105 0.124334 0.739901
909 4 0.108541 0.144236 0.70517
907 2 0.1167 0.120854 0.701722
908 4 0.124858 0.0974719 0.698274
1283 4 0.132579 0.0808339 0.69085
1227 4 0.144277 0.0952259 0.697054
851 4 0.096747 0.158952 0.706352
1208 4 0.106315 0.156668 0.69008
1225 2 0.168343 0.0884468 0.697179
1147 2 0.216767 0.0969023 0.730302
1149 4 0.229096 0.108742 0.74855
829 2 0.325006 0.15739 0.700912
830 4 0.300492 0.156223 0.705694
887 4 0.282491 0.16158 0.701446
831 4 0.34952 0.158557 0.696129
1142 4 0.363226 0.152674 0.710749
1141 2 0.386783 0.160627 0.708104
1025 4 0.468982 0.133384 0.714094
3424 2 0.483817 0.109921 0.696053
3426 4 0.479895 0.0914464 0.679667
3425 4 0.487738 0.128395 0.712439
3269 4 0.477683 0.122266 0.72817
1024 2 0.447527 0.14618 0.713029
3268 2 0.487647 0.135101 0.747174
1026 4 0.426072 0.158975 0.711964
845 4 0.440367 0.104025 0.734598
852 4 0.0483024 0.168517 0.714248
1214 4 0.0299633 0.169289 0.725067
850 2 0.0725247 0.163735 0.7103
1213 2 0.00890668 0.182588 0.727283
1107 4 0.115906 0.162247 0.706145
1105 2 0.130179 0.179554 0.717186
1106 4 0.144453 0.196861 0.728227
1130 4 0.160969 0.190954 0.738902
888 4 0.244753 0.169782 0.669677
978 4 0.291753 0.168337 0.717688
886 2 0.263622 0.165681 0.685562
976 2 0.293611 0.18526 0.736
916 2 0.30553 0.239773 0.747137
1143 4 0.41034 0.168579 0.705458
1192 2 0.426278 0.196981 0.690931
1194 4 0.428289 0.177589 0.706587
1262 4 0.417912 0.173667 0.722419
1193 4 0.424267 0.216372 0.675275
1261 2 0.424651 0.183608 0.744349
3262 2 0.0644704 0.325926 0.685642
3264 4 0.0719892 0.315367 0.707023
893 4 0.0689534 0.317799 0.725978
779 4 0.0869872 0.316312 0.71951
778 2 0.108323 0.303355 0.720945
780 4 0.12966 0.290398 0.722381
1065 4 0.238283 0.327464 0.662838
1063 2 0.245306 0.310601 0.679912
1064 4 0.252328 0.293738 0.696985
947 4 0.308252 0.271298 0.725826
946 2 0.288871 0.276656 0.710964
948 4 0.269491 0.282014 0.696102
917 4 0.301826 0.26421 0.743353
1008 4 0.463902 0.293793 0.704246
1006 2 0.466932 0.275519 0.721042
1007 4 0.469961 0.257246 0.737837
892 2 0.0678168 0.335337 0.743763
941 4 0.155576 0.371816 0.72792
1067 4 0.159836 0.388709 0.717551
1066 2 0.173939 0.390696 0.697001
1068 4 0.188043 0.392682 0.67645
1019 4 0.386836 0.411573 0.74312
884 4 0.0703373 0.452625 0.74687
1176 4 0.128696 0.465593 0.707154
1174 2 0.147266 0.468495 0.690665
1188 4 0.160695 0.490012 0.668117
1175 4 0.165837 0.471396 0.674176
1139 4 0.293204 0.467756 0.67409
1138 2 0.306787 0.460154 0.693658
1140 4 0.320369 0.452551 0.713225
1989 4 0.325524 0.452934 0.731649
1229 4 0.334291 0.440226 0.719916
1100 4 0.395866 0.424488 0.732069
1228 2 0.356425 0.429038 0.723095
1230 4 0.378559 0.417851 0.726274
1099 2 0.409679 0.444769 0.727266
1101 4 0.423492 0.46505 0.722463
3330 4 0.435932 0.462184 0.708102
3328 2 0.457516 0.450538 0.703236
1251 4 0.437105 0.478209 0.719974
3329 4 0.4791 0.438893 0.69837
1249 2 0.440313 0.490938 0.741255
834 4 0.0351031 0.0714462 0.820317
1113 4 0.389071 0.0824879 0.791797
979 2 0.416793 0.996153 0.830083
2321 4 0.441644 0.00621321 0.800024
2322 4 0.440065 0.0441475 0.767478
2320 2 0.440855 0.0251804 0.783751
846 4 0.446538 0.0618842 0.760805
862 2 0.0505011 0.12665 0.764312
863 4 0.0553918 0.128966 0.788723
833 4 0.0538897 0.111634 0.797236
1125 4 0.0642489 0.125635 0.806049
1123 2 0.0733736 0.141636 0.822958
832 2 0.0444964 0.09154 0.808776
911 4 0.13688 0.0963715 0.825673
1257 4 0.218585 0.123129 0.755814
1255 2 0.214535 0.120136 0.780305
921 4 0.210253 0.13349 0.815907
919 2 0.19335 0.148738 0.826251
840 4 0.225745 0.121531 0.815906
1256 4 0.210485 0.117143 0.804796
838 2 0.24252 0.125348 0.83405
920 4 0.176447 0.163985 0.836594
1111 2 0.372807 0.0946571 0.806376
1112 4 0.356542 0.106826 0.820956
844 2 0.443453 0.0829545 0.747702
3270 4 0.497611 0.147936 0.766179
1146 4 0.488855 0.161802 0.776938
1129 2 0.162341 0.204175 0.76008
34 3 0.133114 0.177157 0.828051
1277 4 0.163548 0.212718 0.800228
1276 2 0.16185 0.193751 0.816431
35 3 0.0968668 0.168533 0.833477
1131 4 0.163714 0.217395 0.781258
822 4 0.178047 0.224069 0.792918
820 2 0.178297 0.248582 0.797839
1278 4 0.160153 0.174784 0.832635
977 4 0.295469 0.202183 0.754312
918 4 0.309234 0.215337 0.75092
1298 4 0.31161 0.201871 0.765489
1297 2 0.319311 0.208236 0.78841
1299 4 0.327012 0.214602 0.81133
1086 4 0.340595 0.210121 0.825077
50 3 0.401507 0.195667 0.799989
46 1 0.424144 0.197202 0.798024
49 3 0.430107 0.218744 0.791796
1043 4 0.439837 0.208436 0.775836
48 3 0.434232 0.191706 0.818184
47 3 0.431358 0.18252 0.781852
1263 4 0.43139 0.193549 0.76628
1145 4 0.447829 0.190328 0.774961
1144 2 0.468342 0.176065 0.77595
1042 2 0.451441 0.22749 0.764546
1044 4 0.463044 0.246545 0.753256
1022 4 0.45143 0.190007 0.828849
1236 4 0.220292 0.343557 0.767243
821 4 0.178546 0.273095 0.802761
1165 2 0.494061 0.262819 0.773268
1166 4 0.477737 0.259646 0.754596
3275 4 0.0194171 0.353138 0.804439
894 4 0.0666803 0.352876 0.761547
3276 4 0.0517509 0.363325 0.767677
3274 2 0.035584 0.358231 0.786058
816 4 0.0673721 0.36341 0.778685
940 2 0.142687 0.375025 0.749103
814 2 0.0915263 0.369512 0.780811
942 4 0.129798 0.378233 0.770287
815 4 0.115681 0.375614 0.782937
1080 4 0.13195 0.386028 0.787415
1078 2 0.133317 0.394322 0.810963
1098 4 0.256069 0.345605 0.816639