ITEM: TIMESTEP
2800000
ITEM: NUMBER OF ATOMS
4590
ITEM: BOX BOUNDS pp pp pp
-9.9985700000000008e+00 9.9985700000000008e+00
-9.9985700000000008e+00 9.9985700000000008e+00
-9.9985700000000008e+00 9.9985700000000008e+00
ITEM: ATOMS id type xs ys zs
463 2 0.0611257 0.083539 0.0242256
464 4 0.0361632 0.0848919 0.0237549
701 4 0.101408 0.0723986 0.0159821
700 2 0.122446 0.0595482 0.0118035
702 4 0.143483 0.0466978 0.00762496
566 4 0.161084 0.0474997 0.0176204
565 2 0.175444 0.0624213 0.00360881
746 4 0.486989 0.0562957 0.028014
2469 4 0.488626 0.0476857 0.0465345
745 2 0.473998 0.0548884 0.00669668
590 4 0.0326439 0.0857928 0.0443202
589 2 0.013315 0.0882539 0.0599892
465 4 0.0860882 0.0821861 0.0246962
558 4 0.36913 0.123773 0.0360413
556 2 0.361849 0.113713 0.0577427
865 2 0.372609 0.170219 0.00362856
771 4 0.44885 0.144941 0.0546302
769 2 0.463345 0.150056 0.0743509
554 4 0.0506472 0.216841 0.0133006
553 2 0.068523 0.205 0.0261621
555 4 0.0863988 0.193158 0.0390235
835 2 0.124925 0.202217 0.0185866
836 4 0.105512 0.197421 0.0335966
837 4 0.144338 0.207013 0.00357654
573 4 0.329732 0.240628 0.0667966
461 4 0.324114 0.228063 0.0804005
666 4 0.325923 0.221105 0.0623054
664 2 0.340886 0.204191 0.0515719
665 4 0.355848 0.187276 0.0408383
867 4 0.362825 0.18171 0.0235642
1070 4 0.418032 0.231149 0.0637196
2808 4 0.0330731 0.315795 0.0165737
2806 2 0.0149916 0.304783 0.029877
2807 4 0.99691 0.293771 0.0431802
294 4 0.129833 0.321983 0.0890758
292 2 0.13315 0.323309 0.0643286
293 4 0.136466 0.324634 0.0395813
356 4 0.309721 0.300427 0.0465871
572 4 0.325017 0.28818 0.0520581
355 2 0.29608 0.31366 0.0303393
571 2 0.327375 0.264404 0.0594273
1069 2 0.425879 0.253977 0.0702377
322 2 0.442184 0.316418 0.07998
1071 4 0.433725 0.276805 0.0767559
647 4 0.0165076 0.361203 0.0676523
646 2 0.0352764 0.346924 0.0759613
620 4 0.00210093 0.373682 0.0723222
507 4 0.145329 0.337096 0.027472
505 2 0.167772 0.347841 0.0299382
481 2 0.213376 0.393627 0.0264321
482 4 0.231621 0.409428 0.0199017
483 4 0.195131 0.377827 0.0329625
506 4 0.190214 0.358585 0.0324044
609 4 0.246344 0.40996 0.0339797
357 4 0.28244 0.326893 0.0140915
902 4 0.276191 0.345268 0.00492175
957 4 0.358637 0.393688 0.00962727
323 4 0.453365 0.337737 0.0732217
671 4 0.492939 0.381008 0.0723881
670 2 0.470892 0.36932 0.0739663
280 2 0.494314 0.414451 0.0433496
551 4 0.0326977 0.445424 0.0806906
550 2 0.0552964 0.455116 0.076159
552 4 0.0778952 0.464808 0.0716273
1787 4 0.0966924 0.464454 0.0670176
1786 2 0.100526 0.463546 0.0423263
1788 4 0.104359 0.462639 0.017635
242 4 0.0910386 0.459762 0.0855823
246 4 0.232133 0.487413 0.0346341
244 2 0.220858 0.467402 0.0445137
245 4 0.209582 0.447391 0.0543933
272 4 0.243342 0.485469 0.0189086
1778 4 0.234905 0.502361 0.0218802
627 4 0.201486 0.448985 0.0737364
607 2 0.266216 0.421295 0.0238907
608 4 0.286088 0.43263 0.0138017
252 4 0.293983 0.447385 0.0243069
250 2 0.309153 0.467163 0.0223345
251 4 0.324323 0.486941 0.0203622
2289 4 0.341491 0.494712 0.0284204
525 4 0.441264 0.477174 0.0739501
282 4 0.492019 0.434592 0.028712
226 2 0.462548 0.458251 0.0449633
227 4 0.472766 0.439069 0.0326004
228 4 0.45233 0.477433 0.0573262
563 4 0.447092 0.494021 0.0656753
16 1 0.0640601 0.0392086 0.144563
20 3 0.0581505 0.0397486 0.122575
1806 4 0.0554937 0.00724798 0.136066
18 3 0.0578809 0.0188969 0.153925
1804 2 0.0483574 0.994526 0.115758
450 4 0.149847 0.0697541 0.179337
17 3 0.0868717 0.041582 0.146337
448 2 0.166656 0.0856685 0.169883
1661 4 0.299424 0.00178674 0.16783
654 4 0.300447 0.017313 0.181509
652 2 0.312311 0.0309107 0.164203
653 4 0.324175 0.0445085 0.146896
484 2 0.366609 0.0187314 0.103257
297 4 0.346158 0.0549314 0.117084
485 4 0.360418 0.04109 0.112581
295 2 0.355774 0.0750584 0.105787
579 4 0.106632 0.139006 0.0973951
237 4 0.15631 0.158727 0.133085
578 4 0.144421 0.164001 0.11856
577 2 0.125527 0.151504 0.107978
235 2 0.166465 0.138734 0.144147
236 4 0.17662 0.118742 0.155209
693 4 0.196077 0.115585 0.155718
449 4 0.183464 0.101583 0.160429
691 2 0.219412 0.108654 0.150008
692 4 0.242747 0.101724 0.144298
582 4 0.255904 0.110438 0.134657
580 2 0.275868 0.117632 0.14788
581 4 0.295832 0.124826 0.161104
30 3 0.315085 0.1314 0.159296
29 3 0.32524 0.165481 0.171664
557 4 0.354568 0.103652 0.079444
296 4 0.36539 0.0951854 0.0944902
770 4 0.47784 0.155171 0.0940717
1014 4 0.4666 0.171462 0.0971356
476 4 0.142436 0.170865 0.137004
737 4 0.157308 0.176412 0.126273
475 2 0.13711 0.181073 0.159199
736 2 0.170521 0.180913 0.105528
738 4 0.183733 0.185414 0.0847831
354 4 0.313842 0.23927 0.145558
283 2 0.321197 0.20255 0.151997
285 4 0.317502 0.179275 0.160353
284 4 0.324892 0.225824 0.143641
462 4 0.3194 0.235191 0.129672
460 2 0.321757 0.231627 0.105036
255 4 0.33082 0.242141 0.141419
253 2 0.3518 0.252138 0.150643
1013 4 0.486855 0.213581 0.114925
1012 2 0.476727 0.192521 0.10603
456 4 0.056949 0.324565 0.102485
455 4 0.0387654 0.318414 0.148661
454 2 0.0478572 0.321489 0.125573
648 4 0.0540453 0.332646 0.0842702
610 2 0.235298 0.330812 0.111166
612 4 0.241905 0.306897 0.108072
756 4 0.250118 0.305925 0.126066
754 2 0.253873 0.289258 0.144322
352 2 0.293519 0.250773 0.154493
353 4 0.273196 0.262276 0.163428
755 4 0.257628 0.272591 0.162578
278 4 0.260123 0.262139 0.178298
254 4 0.37278 0.262136 0.159868
324 4 0.431003 0.295099 0.0867383
626 4 0.179026 0.40502 0.0816938
611 4 0.228692 0.354728 0.114261
536 4 0.174586 0.388997 0.0935869
535 2 0.191906 0.373751 0.103218
537 4 0.209225 0.358504 0.112849
387 4 0.337345 0.408892 0.136072
739 2 0.406013 0.378033 0.126133
740 4 0.397711 0.388509 0.147263
385 2 0.359139 0.400247 0.144758
386 4 0.380933 0.391601 0.153445
495 4 0.394626 0.402863 0.159043
15 3 0.388648 0.373601 0.156529
672 4 0.448845 0.357632 0.0755444
741 4 0.414315 0.367556 0.105002
241 2 0.111202 0.454655 0.0994582
1438 2 0.173086 0.458528 0.123464
243 4 0.131366 0.449549 0.113334
1440 4 0.148567 0.453677 0.122787
625 2 0.190256 0.427002 0.0777151
1439 4 0.197605 0.463379 0.124141
637 2 0.220816 0.48752 0.112606
638 4 0.237218 0.505274 0.119005
639 4 0.204414 0.469766 0.106207
303 4 0.305782 0.459498 0.102881
766 2 0.274809 0.484504 0.119864
768 4 0.292042 0.467113 0.114789
301 2 0.318318 0.442933 0.116797
302 4 0.330853 0.426369 0.130712
524 4 0.393783 0.474786 0.0894598
493 2 0.406017 0.424979 0.156538
494 4 0.417408 0.447096 0.154033
660 4 0.409646 0.46645 0.15102
523 2 0.417524 0.47598 0.0817049
658 2 0.423428 0.483912 0.162435
19 3 0.0537977 0.0566281 0.155949
380 4 0.0503461 0.054496 0.174717
675 4 0.0888317 0.0471246 0.166072
673 2 0.113255 0.0520248 0.168233
1505 4 0.153826 0.0505394 0.178972
674 4 0.137678 0.0569249 0.170394
1504 2 0.159877 0.0363184 0.198627
689 4 0.16839 0.0041836 0.212865
1506 4 0.165929 0.0220974 0.218282
23 3 0.404481 0.00417633 0.23826
22 3 0.407425 0.0184366 0.203609
21 1 0.419359 0.0111066 0.221857
757 2 0.474888 0.0193922 0.219141
25 3 0.43223 0.0281586 0.229745
759 4 0.451294 0.0243059 0.225803
350 4 0.447052 0.0375696 0.23767
758 4 0.498482 0.0144785 0.21248
379 2 0.044863 0.0763456 0.185567
512 4 0.0501595 0.109335 0.184517
381 4 0.0393799 0.0981951 0.196416
511 2 0.0602925 0.131337 0.190715
513 4 0.0704255 0.153338 0.196913
339 4 0.0801541 0.168937 0.204351
26 1 0.322956 0.143064 0.177202
28 3 0.308425 0.140779 0.195147
27 3 0.343548 0.134751 0.183203
311 4 0.444574 0.161901 0.206001
337 2 0.102366 0.180156 0.201913
477 4 0.131784 0.191282 0.181393
363 4 0.131774 0.208104 0.191384
338 4 0.124578 0.191374 0.199474
362 4 0.129053 0.247571 0.221973
361 2 0.130414 0.227837 0.206679
628 2 0.393161 0.231184 0.184497
629 4 0.402409 0.212738 0.198618
630 4 0.383913 0.24963 0.170376
312 4 0.420007 0.205447 0.205021
717 4 0.373569 0.240593 0.254868
310 2 0.43229 0.183674 0.205511
761 4 0.484677 0.229014 0.240752
749 4 0.0402331 0.305335 0.164246
750 4 0.0183063 0.287261 0.205395
395 4 0.0160342 0.288265 0.226476
748 2 0.0292697 0.296298 0.184821
394 2 0.0238001 0.278656 0.248214
372 4 0.138441 0.261082 0.23412
370 2 0.153074 0.280658 0.239395
300 4 0.122252 0.293055 0.189312
298 2 0.113678 0.307282 0.208001
299 4 0.105105 0.321509 0.226689
734 4 0.106136 0.329877 0.244365
279 4 0.222496 0.259425 0.211124
277 2 0.24131 0.260782 0.194711
401 4 0.282194 0.307276 0.238506
498 4 0.283358 0.313335 0.219644
496 2 0.294392 0.317611 0.197618
764 4 0.414061 0.304711 0.18118
765 4 0.391572 0.264823 0.161082
763 2 0.402816 0.284767 0.171131
624 4 0.471684 0.301685 0.167378
622 2 0.449715 0.310352 0.175589
528 4 0.486663 0.295524 0.178486
623 4 0.427746 0.319019 0.183801
262 2 0.0347286 0.385258 0.215197
263 4 0.0471639 0.369109 0.22968
602 4 0.0648752 0.372137 0.220696
264 4 0.0222932 0.401407 0.200714
601 2 0.0840899 0.356716 0.22496
603 4 0.103305 0.341296 0.229224
290 4 0.174376 0.394437 0.23428
289 2 0.17748 0.415443 0.221078
308 4 0.321543 0.33283 0.181702
497 4 0.305426 0.321887 0.175592
307 2 0.341037 0.348458 0.180741
309 4 0.360531 0.364086 0.17978
14 3 0.394647 0.401493 0.181099
11 1 0.392644 0.378534 0.1784
13 3 0.375356 0.370482 0.191618
12 3 0.412295 0.368533 0.184956
2618 4 0.0198419 0.418026 0.211282
2617 2 0.00738556 0.433911 0.226036
291 4 0.180584 0.436448 0.207875
416 4 0.177633 0.449804 0.221881
415 2 0.193477 0.468833 0.218414
1430 4 0.221518 0.493567 0.20009
417 4 0.209321 0.487862 0.214947
597 4 0.486509 0.463637 0.204176
596 4 0.448028 0.488308 0.183895
659 4 0.437211 0.501374 0.173849
595 2 0.467269 0.475973 0.194036
645 4 0.492189 0.454519 0.186414
1799 4 0.0104575 0.023861 0.296501
233 4 0.00592627 0.0412998 0.289389
1402 2 0.0467412 0.0465836 0.298617
1403 4 0.0247052 0.036779 0.292024
1404 4 0.0687772 0.0563882 0.305209
1798 2 0.00342505 0.00903636 0.315368
633 4 0.376277 0.0406146 0.298822
631 2 0.378696 0.0466718 0.274684
257 4 0.364345 0.0540121 0.304666
698 4 0.365579 0.0370702 0.314817
697 2 0.360035 0.0126892 0.314712
632 4 0.381115 0.0527289 0.250546
256 2 0.372369 0.0672655 0.324291
349 2 0.443896 0.0397158 0.262381
744 4 0.449062 0.0406838 0.30586
742 2 0.46554 0.034183 0.323506
351 4 0.44074 0.041862 0.287092
398 4 0.0668871 0.149284 0.316011
397 2 0.0581065 0.127839 0.325403
393 4 0.0827874 0.15177 0.304676
399 4 0.0493258 0.106395 0.334795
545 4 0.127021 0.166808 0.256513
392 4 0.11038 0.15772 0.263397
391 2 0.0965837 0.154745 0.284037
404 4 0.201112 0.15652 0.331955
521 4 0.488751 0.137776 0.253224
390 4 0.0792977 0.162981 0.31964
444 4 0.0350167 0.227237 0.305509
442 2 0.026924 0.248562 0.295266
388 2 0.0704647 0.185938 0.324129
389 4 0.0616317 0.208894 0.328618
544 2 0.14621 0.175349 0.270077
723 4 0.206997 0.227745 0.25615
403 2 0.19153 0.166484 0.31112
721 2 0.194925 0.207867 0.265332
546 4 0.165399 0.183891 0.283642
405 4 0.181948 0.176447 0.290285
722 4 0.182853 0.187989 0.274514
378 4 0.299715 0.243771 0.329749
376 2 0.308923 0.220721 0.332761
377 4 0.318132 0.197671 0.335773
420 4 0.380814 0.220572 0.255684
418 2 0.404162 0.215117 0.262776
331 2 0.451517 0.208163 0.306878
332 4 0.439127 0.208311 0.285161
419 4 0.42751 0.209662 0.269868
760 2 0.465693 0.219633 0.254048
762 4 0.44671 0.210251 0.267344
333 4 0.463908 0.208014 0.328595
453 4 0.481133 0.215347 0.325999
515 4 0.478893 0.202151 0.340362
364 2 0.0221098 0.304687 0.29452
396 4 0.0315659 0.269048 0.269953
443 4 0.0188312 0.269887 0.285022
365 4 0.028929 0.285382 0.280168
366 4 0.0152906 0.323992 0.308872
407 4 0.0144958 0.322868 0.328138
371 4 0.167708 0.300234 0.244669
735 4 0.141608 0.320832 0.278434
733 2 0.123872 0.325355 0.261399
676 2 0.179781 0.32738 0.295208
508 2 0.240046 0.31072 0.306286
509 4 0.219142 0.321056 0.315308
678 4 0.20115 0.323855 0.307703
510 4 0.260949 0.300384 0.297265
400 2 0.279134 0.300872 0.262481
402 4 0.276075 0.294469 0.286456
345 4 0.277582 0.293324 0.305474
343 2 0.293767 0.275685 0.312691
344 4 0.309951 0.258046 0.319908
715 2 0.377642 0.263114 0.264937
716 4 0.381715 0.285635 0.275006
542 4 0.386786 0.286148 0.292982
541 2 0.394865 0.302138 0.310423
543 4 0.402945 0.318129 0.327865
2493 4 0.000359179 0.332194 0.318573
548 4 0.017762 0.340114 0.318766
547 2 0.0254683 0.3639 0.31884
549 4 0.0331745 0.387686 0.318914
677 4 0.158412 0.330906 0.282713
435 4 0.20681 0.334099 0.323347
728 4 0.359223 0.398099 0.283317
727 2 0.371016 0.406333 0.30377
2538 4 0.474809 0.342742 0.289811
753 4 0.476717 0.330597 0.307678
2536 2 0.491503 0.358101 0.279296
1543 2 0.143315 0.472287 0.324067
1545 4 0.16196 0.46475 0.30921
1544 4 0.12467 0.479824 0.338924
1436 4 0.169943 0.481405 0.298931
729 4 0.382808 0.414567 0.324223
437 4 0.37643 0.433716 0.323002
730 2 0.0646286 0.0712641 0.349555
1772 4 0.0181352 0.0325093 0.385548
1771 2 0.0098746 0.0156327 0.369052
2238 4 0.00158055 0.0347475 0.396722
732 4 0.0794879 0.0513172 0.352105
369 4 0.0852744 0.0348002 0.361344
367 2 0.0925435 0.0269482 0.383942
606 4 0.161806 0.0157651 0.421168
368 4 0.0998127 0.0190961 0.40654
1782 4 0.112615 0.00498782 0.410165
605 4 0.203935 0.039729 0.408856
604 2 0.182871 0.027747 0.415012
1701 4 0.202127 0.0560364 0.397916
424 2 0.387283 0.0640791 0.38399
425 4 0.389546 0.0501143 0.404606
1580 4 0.399199 0.0327636 0.406883
2664 4 0.500029 0.0210013 0.346389
743 4 0.482019 0.0276821 0.341152
479 4 0.494072 0.0377172 0.353168
478 2 0.485225 0.053255 0.370647
480 4 0.476378 0.0687929 0.388125
458 4 0.0120471 0.143792 0.389687
318 4 0.0077438 0.124798 0.38478
317 4 0.0423236 0.108325 0.35263
731 4 0.0497692 0.091211 0.347005
316 2 0.0250337 0.116561 0.368705
249 4 0.197108 0.141817 0.343223
1699 2 0.207641 0.0803804 0.396449
247 2 0.197965 0.124999 0.361706
248 4 0.198821 0.108182 0.380188
1700 4 0.213154 0.104724 0.394981
319 2 0.327951 0.137422 0.396152
320 4 0.308937 0.127978 0.40936
682 2 0.273792 0.13876 0.402987
683 4 0.25531 0.155562 0.404117
684 4 0.292274 0.121957 0.401856
426 4 0.385019 0.0780438 0.363373
258 4 0.380393 0.0805189 0.343916
321 4 0.346966 0.146865 0.382944
708 4 0.339997 0.154312 0.365508
516 4 0.467336 0.162966 0.369202
575 4 0.465173 0.144495 0.378056
574 2 0.465753 0.136527 0.401749
459 4 0.0144219 0.191655 0.375398
457 2 0.0132345 0.167723 0.382542
600 4 0.268135 0.16803 0.416899
707 4 0.330558 0.201483 0.351852
706 2 0.335277 0.177897 0.35868
466 2 0.36365 0.232543 0.403638
467 4 0.372234 0.209064 0.404135
514 2 0.473115 0.182559 0.354782
406 2 0.0195892 0.308158 0.347705
408 4 0.0246827 0.293448 0.367271
347 4 0.0728491 0.324068 0.379209
275 4 0.1367 0.316499 0.353688
617 4 0.129857 0.335807 0.356225
274 2 0.160306 0.318219 0.36175
276 4 0.183911 0.31994 0.369812
373 2 0.205515 0.28851 0.389513
375 4 0.197933 0.306014 0.373349
374 4 0.213098 0.271006 0.405678
615 4 0.400432 0.328298 0.345563
267 4 0.357323 0.275561 0.401067
468 4 0.355067 0.256021 0.403141
265 2 0.336494 0.28641 0.40965
751 2 0.480177 0.332203 0.332389
752 4 0.483636 0.33381 0.3571
777 4 0.0264766 0.400393 0.333796
346 2 0.0632898 0.334671 0.399736
775 2 0.0435852 0.417875 0.338978
616 2 0.108106 0.337376 0.368457
618 4 0.0863559 0.338945 0.380689
433 2 0.205955 0.347803 0.344243
434 4 0.2051 0.361508 0.365139
502 2 0.303547 0.417409 0.406234
613 2 0.41937 0.344579 0.346775
614 4 0.438308 0.360859 0.347987
776 4 0.0606937 0.435357 0.344161
414 4 0.0679684 0.453748 0.339285
413 4 0.107285 0.483234 0.330036
412 2 0.0876265 0.468491 0.33466
503 4 0.320728 0.434659 0.400539
594 4 0.394969 0.505433 0.395853
436 2 0.375397 0.455568 0.33511
438 4 0.374364 0.47742 0.347219
669 4 0.331164 0.450638 0.401625
240 4 0.405832 0.424535 0.398935
335 4 0.386552 0.423331 0.397743
336 4 0.338892 0.434381 0.408096
334 2 0.362722 0.428856 0.40292
3990 4 0.501653 0.488467 0.373793
2236 2 0.00570199 0.0473697 0.417908
1127 4 0.00999075 0.0625253 0.458238
2237 4 0.00982342 0.0599919 0.439095
720 4 0.0268163 0.0627748 0.448667
2429 4 0.242241 0.00103029 0.484943
961 2 0.273418 0.00435895 0.480904
724 2 0.291809 0.0570037 0.477074
726 4 0.287405 0.0806897 0.470384
725 4 0.296213 0.0333177 0.483764
963 4 0.293701 0.0153171 0.490584
432 4 0.307562 0.027223 0.498544
1579 2 0.386181 0.0131903 0.415404
2879 4 0.421518 0.0257236 0.476445
642 4 0.458066 0.0696559 0.452675
2878 2 0.433487 0.0472514 0.472147
2880 4 0.445456 0.0687792 0.467848
718 2 0.0322091 0.0871578 0.447415
719 4 0.037602 0.111541 0.446163
939 4 0.0877097 0.141746 0.482276
1033 2 0.119331 0.134725 0.465901
1035 4 0.144317 0.134217 0.466686
261 4 0.162198 0.140202 0.46266
1034 4 0.0943451 0.135233 0.465117
259 2 0.169932 0.163634 0.458622
1181 4 0.299646 0.113532 0.418346
1182 4 0.298026 0.0970162 0.465519
1180 2 0.298836 0.105274 0.441932
576 4 0.466333 0.12856 0.425442
640 2 0.464575 0.0928883 0.446113
641 4 0.471085 0.116121 0.439551
306 4 0.478859 0.134188 0.439239
304 2 0.470038 0.147982 0.458136
3158 4 0.459808 0.149317 0.493007
305 4 0.461218 0.161776 0.477034
694 2 0.166265 0.220406 0.475566
696 4 0.152405 0.239728 0.483297
695 4 0.180125 0.201085 0.467835
260 4 0.177667 0.187066 0.454584
472 2 0.239694 0.244255 0.427133
687 4 0.238281 0.213654 0.448966
686 4 0.195509 0.191484 0.462375
685 2 0.216895 0.202569 0.45567
489 4 0.314195 0.239539 0.429013
599 4 0.25477 0.209309 0.441762
474 4 0.249738 0.22559 0.440397
411 4 0.25721 0.218005 0.456126
598 2 0.261453 0.18867 0.42933
409 2 0.260906 0.224601 0.479959
488 4 0.269245 0.22164 0.441655
487 2 0.29172 0.230589 0.435334
2812 2 0.0202999 0.333478 0.441843
473 4 0.22965 0.26292 0.41387
813 4 0.2403 0.328265 0.470479
811 2 0.250692 0.332931 0.492737
266 4 0.315666 0.297258 0.418232
348 4 0.0537305 0.345274 0.420264
2813 4 0.0437028 0.340342 0.436332
326 4 0.0537137 0.357271 0.435166
325 2 0.0683514 0.373137 0.447783
327 4 0.0829891 0.389003 0.4604
7 3 0.0900211 0.391705 0.479173
6 1 0.110629 0.382861 0.484296
711 4 0.140734 0.412875 0.489119
8 3 0.126732 0.399363 0.48169
709 2 0.164441 0.416389 0.48199
10 3 0.11501 0.365447 0.470289
504 4 0.286366 0.400159 0.411929
1383 4 0.0646952 0.468796 0.471139
680 4 0.0467463 0.45925 0.475945
1381 2 0.0716268 0.488404 0.457259
679 2 0.0602423 0.448438 0.494005
384 4 0.140559 0.427742 0.501401
634 2 0.197621 0.452883 0.459671
636 4 0.19167 0.474784 0.449179
635 4 0.203572 0.430982 0.470164
710 4 0.188148 0.419902 0.474862
774 4 0.200249 0.42803 0.488985
4 3 0.312421 0.49057 0.442476
668 4 0.328047 0.481512 0.44084
667 2 0.329605 0.466075 0.421233
587 4 0.405414 0.431853 0.498966
586 2 0.411552 0.436722 0.475222
588 4 0.417689 0.441591 0.451477
238 2 0.415925 0.425037 0.421805
239 4 0.426018 0.42554 0.444675
1184 4 0.00515501 0.0237127 0.56647
342 4 0.149494 0.0505113 0.51438
1152 4 0.145111 0.0549825 0.532861
1150 2 0.151963 0.0668349 0.553784
1151 4 0.158814 0.0786872 0.574706
340 2 0.171137 0.0391921 0.50903
341 4 0.19278 0.027873 0.503679
2430 4 0.200009 0.0108001 0.509876
2428 2 0.221125 0.00591519 0.49741
430 2 0.322199 0.0111214 0.510859
841 2 0.359711 0.0246028 0.546667
842 4 0.373522 0.0420887 0.558011
1216 2 0.409955 0.0156854 0.568584
1217 4 0.391741 0.0320239 0.563438
843 4 0.345901 0.00711692 0.535323
3009 4 0.476099 0.041161 0.586733
1061 4 0.491086 0.0646067 0.530156
1218 4 0.428169 0.999347 0.57373
879 4 0.0558191 0.156018 0.531601
877 2 0.031809 0.149746 0.534661
878 4 0.00779887 0.143475 0.53772
938 4 0.0727268 0.162475 0.525247
937 2 0.0802183 0.152111 0.503761
1199 4 0.990674 0.149493 0.546082
3159 4 0.456107 0.117054 0.531035
3157 2 0.457958 0.133186 0.512021
1062 4 0.464305 0.104441 0.544183
1060 2 0.477695 0.0845239 0.53717
1272 4 0.0601243 0.174079 0.535416
1270 2 0.067647 0.187631 0.555036
1271 4 0.0751697 0.201184 0.574655
1258 2 0.145204 0.230225 0.5254
1259 4 0.143159 0.227589 0.55018
1260 4 0.147248 0.232861 0.50062
898 2 0.294722 0.215788 0.533526
899 4 0.312242 0.204933 0.547682
857 4 0.313371 0.194094 0.564249
856 2 0.310031 0.187482 0.58813
791 4 0.32855 0.204906 0.558309
900 4 0.277202 0.226644 0.51937
410 4 0.264601 0.231197 0.503792
790 2 0.348784 0.218714 0.56332
792 4 0.369018 0.232522 0.56833
872 4 0.376035 0.24816 0.557529
651 4 0.302691 0.336686 0.56814
806 4 0.308461 0.332082 0.587116
649 2 0.284559 0.336013 0.550937
650 4 0.266427 0.33534 0.533735
812 4 0.261083 0.337597 0.514995
1238 4 0.370408 0.25033 0.576182
871 2 0.379324 0.257458 0.534553
873 4 0.382613 0.266756 0.511577
1135 2 0.125034 0.363895 0.584201
1136 4 0.109333 0.35017 0.597997
897 4 0.154624 0.377183 0.584038
9 3 0.110359 0.375459 0.506286
1137 4 0.140734 0.377619 0.570406
773 4 0.230211 0.410196 0.524831
1189 2 0.220119 0.408741 0.565228
1190 4 0.231992 0.412421 0.543533
803 4 0.242083 0.397897 0.53449
802 2 0.247872 0.373766 0.531428
804 4 0.25366 0.349635 0.528367
772 2 0.21523 0.419113 0.506908
1191 4 0.208245 0.405061 0.586922
930 4 0.247049 0.416078 0.531885
925 2 0.416309 0.395504 0.520855
927 4 0.424607 0.374064 0.530685
539 4 0.0740406 0.499942 0.523548
681 4 0.0737383 0.437626 0.512064
1161 4 0.157111 0.508732 0.586752
383 4 0.0938122 0.442487 0.511302
382 2 0.117186 0.435115 0.506352
569 4 0.153593 0.440397 0.508125
2243 4 0.156581 0.501648 0.567933
568 2 0.164805 0.453007 0.526576
570 4 0.176017 0.465617 0.545028
928 2 0.269995 0.425812 0.533861
929 4 0.292941 0.435547 0.535837
1951 2 0.306354 0.476906 0.538567
1953 4 0.304612 0.452017 0.540196
1952 4 0.308096 0.501796 0.536938
926 4 0.408011 0.416945 0.511026
663 4 0.401392 0.433652 0.517955
1000 2 0.394891 0.501271 0.559166
661 2 0.40916 0.454188 0.529917
1001 4 0.413175 0.484223 0.558689
662 4 0.416928 0.474724 0.54188
1911 4 0.421673 0.467184 0.559007
1332 4 0.431681 0.482523 0.552346
1330 2 0.450794 0.496445 0.544218
2375 4 0.154701 0.0168604 0.612782
1155 4 0.159019 0.0871135 0.592084
1059 4 0.169396 0.0708514 0.589521
1057 2 0.169095 0.050295 0.603752
1058 4 0.168795 0.0297387 0.617983
949 2 0.282692 0.0184408 0.622167
951 4 0.281185 0.0351147 0.640738
1031 4 0.297581 0.0342029 0.653833
950 4 0.2842 0.00176699 0.603596
3007 2 0.486733 0.0607819 0.598007
43 3 0.440242 0.053711 0.661736
1154 4 0.149391 0.135678 0.59912
1153 2 0.154205 0.111396 0.595602
1221 4 0.157063 0.145361 0.615182
888 4 0.252906 0.173011 0.665406
808 2 0.484997 0.0890615 0.644662
809 4 0.492429 0.0939052 0.621285
3008 4 0.497368 0.0804029 0.609281
1244 4 0.0933198 0.194131 0.576762
1245 4 0.10729 0.19159 0.624711
1243 2 0.100305 0.19286 0.600736
1209 4 0.110566 0.184332 0.642052
1207 2 0.106533 0.172645 0.663786
1219 2 0.175668 0.161594 0.611241
1210 2 0.224436 0.17378 0.633439
1212 4 0.213421 0.178497 0.611494
1220 4 0.194273 0.177827 0.6073
797 4 0.187891 0.24301 0.608947
796 2 0.19566 0.219247 0.608565
798 4 0.203428 0.195484 0.608182
1211 4 0.23545 0.169063 0.655385
858 4 0.30669 0.18087 0.612011
3121 2 0.468358 0.220554 0.625142
3122 4 0.476513 0.196988 0.626959
3357 4 0.477529 0.191285 0.64621
3355 2 0.492708 0.173574 0.655218
3123 4 0.460203 0.244121 0.623324
982 2 0.0273794 0.319306 0.635072
984 4 0.0508352 0.318764 0.643716
805 2 0.320771 0.310471 0.589691
1237 2 0.358112 0.266593 0.590656
807 4 0.33308 0.288861 0.592267
1239 4 0.345816 0.282857 0.60513
906 4 0.45299 0.302557 0.620403
905 4 0.474051 0.257823 0.627889
904 2 0.463521 0.28019 0.624146
953 4 0.46373 0.312885 0.608216
952 2 0.478568 0.331924 0.601693
1041 4 0.061593 0.334791 0.643626
1039 2 0.0677127 0.358367 0.637978
1040 4 0.0738325 0.381943 0.63233
993 4 0.0594117 0.392262 0.622069
991 2 0.0375891 0.402031 0.614753
895 2 0.174658 0.389718 0.592204
896 4 0.194693 0.402252 0.600371
1028 4 0.196771 0.393551 0.663567
1027 2 0.197269 0.402373 0.640177
1029 4 0.197767 0.411195 0.616786
954 4 0.493406 0.350962 0.595169
992 4 0.0157665 0.411799 0.607437
1172 4 0.201093 0.419977 0.597986
1159 2 0.175297 0.496552 0.59884
1160 4 0.193482 0.484373 0.610928
1171 2 0.202444 0.443972 0.604884
1173 4 0.203795 0.467968 0.611782
1187 4 0.201467 0.479569 0.627945
1186 2 0.194864 0.477086 0.651932
1909 2 0.427201 0.454277 0.579696
1206 4 0.496445 0.42606 0.603926
1268 4 0.444235 0.48838 0.64867
1267 2 0.43963 0.469839 0.632539
1204 2 0.472318 0.431577 0.607484
1910 4 0.432728 0.441371 0.600385
1269 4 0.435025 0.451298 0.616408
1205 4 0.448192 0.437094 0.611042
1284 4 0.105368 0.0417998 0.709051
1282 2 0.112486 0.0654534 0.705176
2047 2 0.142558 0.00980921 0.739528
2048 4 0.118142 0.00444401 0.739038
2256 4 0.183878 0.00661811 0.741844
2049 4 0.166974 0.0151744 0.740018
1201 2 0.188825 0.0455465 0.721294
1202 4 0.181544 0.0237842 0.731222
1203 4 0.196105 0.0673088 0.711365
1226 4 0.185051 0.0829906 0.707014
1030 2 0.294118 0.0468456 0.675125
1032 4 0.290655 0.0594884 0.696417
1005 4 0.314004 0.0131095 0.705058
1003 2 0.327095 0.00106816 0.687485
810 4 0.477565 0.0842178 0.668039
45 3 0.44854 0.0452837 0.697482
41 1 0.448283 0.0618949 0.681905
1163 4 0.488722 0.075983 0.680704
44 3 0.469683 0.070393 0.679039
42 3 0.434464 0.0788177 0.689103
1077 4 0.0311163 0.104583 0.736678
1075 2 0.0111414 0.094059 0.725934
864 4 0.0467698 0.113706 0.743617
909 4 0.112788 0.153347 0.69986
907 2 0.118166 0.129438 0.694899
908 4 0.123545 0.105529 0.689939
1283 4 0.119604 0.089107 0.7013
1227 4 0.137429 0.0956039 0.698424
1225 2 0.16124 0.0892972 0.702719
851 4 0.0963091 0.163572 0.703196
1148 4 0.204959 0.0841216 0.707096
1147 2 0.215382 0.0977848 0.725257
1149 4 0.225806 0.111448 0.743419
829 2 0.31771 0.149953 0.708411
830 4 0.293845 0.154484 0.714334
831 4 0.341576 0.145422 0.702487
1142 4 0.361123 0.141926 0.705957
1141 2 0.38135 0.155739 0.710983
1143 4 0.401576 0.169552 0.716008
1025 4 0.45926 0.132728 0.712447
3424 2 0.476093 0.109477 0.698166
3426 4 0.473852 0.0870697 0.687299
3425 4 0.478334 0.131884 0.709033
3269 4 0.471639 0.12517 0.726029
1024 2 0.439371 0.147736 0.714543
3268 2 0.483322 0.136299 0.74513
1026 4 0.419483 0.162744 0.716638
845 4 0.453625 0.102253 0.734023
852 4 0.0527187 0.173391 0.72565
1214 4 0.0354083 0.1786 0.713753
850 2 0.0745139 0.168482 0.714423
1213 2 0.0122035 0.182744 0.722092
1208 4 0.102501 0.160959 0.685519
1107 4 0.112506 0.172747 0.698221
1105 2 0.127048 0.184994 0.714461
1106 4 0.14159 0.19724 0.730701
1130 4 0.161965 0.193583 0.735617
887 4 0.288051 0.167489 0.700549
978 4 0.28709 0.172413 0.719573
886 2 0.270479 0.17025 0.682977
976 2 0.291112 0.188111 0.738615
916 2 0.289543 0.242545 0.747596
1192 2 0.416511 0.199502 0.692564
1194 4 0.415911 0.178208 0.705656
1262 4 0.415222 0.180224 0.725191
1193 4 0.417111 0.220795 0.679472
1261 2 0.425956 0.189058 0.745974
3263 4 0.0618839 0.323344 0.659431
3262 2 0.0711985 0.326662 0.682396
3264 4 0.080513 0.32998 0.705361
893 4 0.0703229 0.322145 0.720932
779 4 0.0876883 0.315684 0.715972
778 2 0.107445 0.301179 0.720915
780 4 0.127203 0.286674 0.725858
1065 4 0.232393 0.332072 0.685131
1063 2 0.241852 0.308978 0.686664
1064 4 0.251311 0.285883 0.688197
947 4 0.30376 0.27596 0.72533
946 2 0.286338 0.284531 0.709576
948 4 0.268915 0.293102 0.693823
917 4 0.291464 0.264015 0.734926
1008 4 0.47745 0.274539 0.695785
1006 2 0.471178 0.268833 0.719307
1007 4 0.464905 0.263128 0.742829
892 2 0.066462 0.338148 0.739752
941 4 0.158183 0.374697 0.73677
940 2 0.14442 0.382364 0.756186
1067 4 0.160135 0.38787 0.721748
1066 2 0.170766 0.391425 0.699398
1068 4 0.181398 0.394979 0.677048
1019 4 0.383672 0.410745 0.740633
1176 4 0.138816 0.459986 0.721826
1174 2 0.155083 0.463495 0.703164
1188 4 0.188261 0.474603 0.67592
1175 4 0.17135 0.467004 0.684503
1139 4 0.304022 0.478274 0.683797
1138 2 0.308793 0.459345 0.699421
1140 4 0.313564 0.440416 0.715045
1989 4 0.319588 0.445566 0.732511
1229 4 0.329324 0.431659 0.723209
1100 4 0.393854 0.421672 0.728423
1228 2 0.352743 0.422902 0.723042
1230 4 0.376163 0.414146 0.722875
1099 2 0.406123 0.442963 0.723805
2168 4 0.463538 0.494322 0.649977
1101 4 0.418392 0.464255 0.719187
3330 4 0.431788 0.456965 0.706831
3328 2 0.453547 0.448718 0.69768
1251 4 0.434894 0.47391 0.7167
3329 4 0.475305 0.440471 0.688528
1249 2 0.440972 0.484207 0.738659
785 4 0.0289387 0.0609218 0.828525
834 4 0.0475082 0.0673787 0.826695
1113 4 0.378108 0.0730905 0.787373
974 4 0.345657 0.0354275 0.835237
979 2 0.414932 0.0014195 0.8185
980 4 0.428205 0.998966 0.797453
2321 4 0.443365 0.0103101 0.796762
2322 4 0.451809 0.0521989 0.770786
2320 2 0.447587 0.0312545 0.783774
846 4 0.440864 0.069105 0.769223
862 2 0.0539297 0.118199 0.767148
863 4 0.0610895 0.122691 0.79068
833 4 0.0502732 0.111554 0.803423
1125 4 0.0586795 0.127941 0.808902
1123 2 0.0718264 0.14366 0.823229
832 2 0.0488907 0.0894665 0.815059
1257 4 0.214295 0.103127 0.75872
1255 2 0.21533 0.10727 0.783356
921 4 0.212007 0.129534 0.814767
919 2 0.201233 0.151441 0.820167
840 4 0.229308 0.126328 0.807142
1256 4 0.216365 0.111413 0.807993
838 2 0.249175 0.127283 0.822294
1111 2 0.37009 0.0947738 0.796898
1112 4 0.362072 0.116457 0.806423
818 4 0.365269 0.118053 0.827117
844 2 0.447245 0.0856792 0.751623
3270 4 0.495005 0.147429 0.76423
1146 4 0.489131 0.163273 0.774145
1129 2 0.168017 0.205063 0.756989
34 3 0.132405 0.174674 0.826087
1131 4 0.17407 0.216543 0.778361
1277 4 0.166743 0.214028 0.796475
1276 2 0.170119 0.197166 0.814625
822 4 0.179386 0.228554 0.792746
977 4 0.295134 0.203808 0.757657
918 4 0.287622 0.221074 0.760266
1298 4 0.29819 0.212769 0.774726
1297 2 0.316417 0.21038 0.791675
1299 4 0.334644 0.207991 0.808623
1086 4 0.337792 0.205837 0.827319
50 3 0.401756 0.204128 0.796963
46 1 0.424025 0.199716 0.798774
49 3 0.436076 0.219542 0.798434
1043 4 0.444189 0.211586 0.779334
48 3 0.428241 0.18822 0.818484
47 3 0.430637 0.186688 0.781006
1263 4 0.436691 0.197891 0.766757
1145 4 0.448821 0.192244 0.780195
1144 2 0.468976 0.177758 0.77717
1042 2 0.455515 0.231497 0.769312
3275 4 0.0172225 0.336922 0.797687
3188 4 0.996541 0.266823 0.757453
3187 2 0.991396 0.277987 0.779226
1236 4 0.247177 0.320693 0.756385
821 4 0.183623 0.278213 0.796842
820 2 0.181504 0.253383 0.794794
1044 4 0.466841 0.251408 0.759289
1165 2 0.496062 0.269467 0.772719
1166 4 0.476134 0.267907 0.757699
894 4 0.0626011 0.35415 0.758572
3276 4 0.0490369 0.363485 0.769706
3274 2 0.0331297 0.350203 0.783696
816 4 0.0678339 0.362187 0.775547
814 2 0.0898382 0.374 0.77435
942 4 0.130658 0.39003 0.775603
815 4 0.111842 0.385813 0.773154
1080 4 0.117546 0.396132 0.788657