ITEM: TIMESTEP
1580000
ITEM: NUMBER OF ATOMS
4590
ITEM: BOX BOUNDS pp pp pp
-9.9985700000000008e+00 9.9985700000000008e+00
-9.9985700000000008e+00 9.9985700000000008e+00
-9.9985700000000008e+00 9.9985700000000008e+00
ITEM: ATOMS id type xs ys zs
463 2 0.0345316 0.0909269 0.00763119
465 4 0.0554908 0.0773442 0.00644655
701 4 0.0683366 0.0626057 0.0135338
2576 4 0.0345574 0.0159269 0.0762048
3290 4 0.978395 0.0522756 0.997351
700 2 0.0907245 0.0588553 0.0240168
702 4 0.113112 0.0551048 0.0344999
566 4 0.119546 0.069904 0.0227452
565 2 0.138375 0.0836316 0.0318126
567 4 0.157203 0.0973592 0.0408799
491 4 0.2557 0.0029757 0.0419606
2264 4 0.252291 0.0218743 0.0328812
2263 2 0.257075 0.0418389 0.0186086
2265 4 0.261859 0.0618035 0.00433604
653 4 0.342266 0.00764554 0.0789591
557 4 0.331131 0.0920379 0.090908
745 2 0.467501 0.0469415 0.0071342
746 4 0.47306 0.0416572 0.0309323
2469 4 0.485134 0.0267804 0.0381515
2467 2 0.493322 0.00497736 0.0472486
464 4 0.0135725 0.10451 0.00881583
590 4 0.998928 0.126862 0.0303645
422 4 0.119747 0.106817 0.00198889
558 4 0.30007 0.103938 0.0535677
556 2 0.3156 0.0979882 0.0722378
865 2 0.345168 0.157028 0.00760541
866 4 0.349684 0.132513 0.00956205
771 4 0.460391 0.133846 0.081364
769 2 0.464956 0.157218 0.0889873
554 4 0.0505793 0.214597 0.0405267
553 2 0.0626781 0.228466 0.0236014
837 4 0.137935 0.245626 0.99589
665 4 0.344973 0.184642 0.0258991
666 4 0.342809 0.227381 0.0517723
664 2 0.343891 0.206012 0.0388357
461 4 0.333629 0.230138 0.069539
573 4 0.343568 0.244222 0.0611588
867 4 0.340653 0.181543 0.00564876
1070 4 0.376391 0.221987 0.0667427
1069 2 0.39364 0.238828 0.0601087
555 4 0.0747768 0.242334 0.00667611
294 4 0.0825783 0.275239 0.0564557
2808 4 0.990339 0.287913 0.00604721
648 4 0.0651368 0.337929 0.0803545
2806 2 0.988012 0.279366 0.0294291
292 2 0.0991832 0.278899 0.0381238
507 4 0.134435 0.291586 0.0222904
293 4 0.115788 0.282559 0.0197919
505 2 0.146026 0.312533 0.0295051
506 4 0.157617 0.33348 0.0367198
571 2 0.329534 0.260571 0.048473
356 4 0.317767 0.295657 0.0310362
572 4 0.3155 0.276921 0.0357873
355 2 0.299217 0.30473 0.016938
357 4 0.280668 0.313804 0.00283984
1071 4 0.410889 0.25567 0.0534747
324 4 0.40764 0.275931 0.0554405
322 2 0.428574 0.284115 0.0663933
672 4 0.44362 0.310766 0.0791193
323 4 0.449508 0.2923 0.0773462
620 4 0.0129629 0.382676 0.0771078
646 2 0.0445657 0.352137 0.0799832
456 4 0.0757299 0.339865 0.097259
483 4 0.167534 0.351108 0.0354079
481 2 0.190846 0.358495 0.0406214
609 4 0.219463 0.37995 0.032187
607 2 0.239021 0.393367 0.0401027
482 4 0.214157 0.365882 0.045835
608 4 0.258579 0.406784 0.0480183
957 4 0.383439 0.352655 0.0174341
670 2 0.457785 0.33122 0.0766338
671 4 0.47195 0.351674 0.0741483
280 2 0.475806 0.39181 0.065693
281 4 0.482481 0.368186 0.0704418
282 4 0.469132 0.415434 0.0609442
552 4 0.104367 0.483111 0.0755647
550 2 0.0989468 0.461466 0.0868459
627 4 0.245525 0.461456 0.0769298
252 4 0.274487 0.415402 0.0555471
244 2 0.255802 0.490193 0.0511025
245 4 0.255216 0.478313 0.0730956
250 2 0.292842 0.432002 0.0591134
251 4 0.311196 0.448602 0.0626797
272 4 0.252994 0.495769 0.0114711
523 2 0.3689 0.5003 0.0418808
525 4 0.366829 0.485007 0.0615528
226 2 0.453191 0.452837 0.0490846
228 4 0.445819 0.472678 0.0357739
227 4 0.460562 0.432996 0.0623953
563 4 0.446244 0.488834 0.0223603
2575 2 0.0115463 0.0205983 0.0847982
16 1 0.0620325 0.0549583 0.133761
20 3 0.045578 0.0595709 0.118707
1806 4 0.0627168 0.0162473 0.126442
18 3 0.0604889 0.0328557 0.140653
17 3 0.0825219 0.0582381 0.123832
1804 2 0.0628459 0.998625 0.108705
19 3 0.060214 0.0691075 0.152061
1505 4 0.183274 0.0516464 0.15571
450 4 0.179976 0.0560557 0.136567
448 2 0.184932 0.0800919 0.131784
652 2 0.328008 0.00645473 0.0994647
654 4 0.31375 0.00526393 0.11997
484 2 0.385526 0.0074636 0.107817
295 2 0.361871 0.0628554 0.0935827
297 4 0.375356 0.0426089 0.0993618
485 4 0.368882 0.0260354 0.109619
237 4 0.143466 0.153272 0.134123
578 4 0.12813 0.148526 0.12135
577 2 0.107164 0.135374 0.117799
579 4 0.086198 0.122221 0.114247
235 2 0.162922 0.137809 0.131373
236 4 0.182377 0.122346 0.128624
693 4 0.197838 0.117238 0.139709
449 4 0.189888 0.104128 0.127002
691 2 0.214557 0.120223 0.158059
296 4 0.348385 0.0831018 0.0878036
310 2 0.421092 0.149856 0.145374
311 4 0.419197 0.129079 0.159154
339 4 0.0604375 0.18894 0.131026
337 2 0.0781995 0.193657 0.14798
476 4 0.151235 0.171923 0.132766
475 2 0.131157 0.18332 0.142367
477 4 0.11108 0.194716 0.151968
737 4 0.164317 0.178082 0.119057
338 4 0.0959616 0.198373 0.164934
736 2 0.182731 0.194984 0.118408
738 4 0.201145 0.211886 0.117758
460 2 0.333904 0.22849 0.0944867
283 2 0.320049 0.197609 0.140441
462 4 0.334178 0.226841 0.119434
354 4 0.321418 0.235663 0.127651
285 4 0.312837 0.174421 0.146398
284 4 0.32726 0.220797 0.134483
255 4 0.337722 0.234595 0.134637
254 4 0.385662 0.235438 0.148842
253 2 0.361692 0.235017 0.141739
630 4 0.404068 0.229117 0.151618
628 2 0.41275 0.209399 0.138929
765 4 0.397141 0.243314 0.162789
770 4 0.469521 0.180589 0.0966107
1014 4 0.479847 0.196847 0.103108
312 4 0.422987 0.170634 0.131594
629 4 0.421432 0.189681 0.12624
749 4 0.0690774 0.2861 0.15362
455 4 0.0976607 0.345679 0.141823
353 4 0.294731 0.270362 0.151829
754 2 0.268265 0.305357 0.149129
755 4 0.280891 0.283784 0.149736
278 4 0.281315 0.273748 0.166339
352 2 0.308074 0.253013 0.13974
519 4 0.502142 0.294717 0.0974679
517 2 0.501702 0.28581 0.120827
647 4 0.0239946 0.366345 0.079612
454 2 0.0866953 0.342772 0.119541
537 4 0.196777 0.380635 0.138688
535 2 0.200795 0.401584 0.125643
611 4 0.210618 0.364707 0.138746
610 2 0.23256 0.355213 0.146067
612 4 0.254503 0.34572 0.153388
756 4 0.255639 0.326931 0.148522
741 4 0.382995 0.377889 0.0832557
739 2 0.388318 0.382657 0.107216
740 4 0.39364 0.387425 0.131177
15 3 0.392609 0.372599 0.144088
385 2 0.366251 0.399324 0.157979
386 4 0.388026 0.391405 0.148583
495 4 0.404075 0.400341 0.141368
11 1 0.412901 0.372681 0.154427
387 4 0.344475 0.407243 0.167375
2651 4 0.487551 0.356666 0.085056
12 3 0.42685 0.357753 0.143857
14 3 0.422303 0.393861 0.153247
1465 2 0.0148203 0.475532 0.138467
1466 4 0.0339672 0.487629 0.149062
551 4 0.0935267 0.43982 0.0981271
625 2 0.227798 0.450667 0.0908774
626 4 0.210071 0.439879 0.104825
536 4 0.204814 0.422533 0.112598
767 4 0.254042 0.474537 0.141505
638 4 0.247091 0.492304 0.136144
766 2 0.259257 0.450759 0.147211
768 4 0.264473 0.42698 0.152916
493 2 0.410592 0.42367 0.135164
494 4 0.417109 0.446998 0.12896
660 4 0.420734 0.452648 0.149592
658 2 0.432372 0.472082 0.160176
2480 4 0.994352 0.00471731 0.220235
380 4 0.0461801 0.074577 0.164627
1422 4 0.0118469 0.999601 0.216531
673 2 0.116589 0.0617751 0.197011
675 4 0.0937481 0.0712917 0.193417
674 4 0.139429 0.0522585 0.200605
1504 2 0.188179 0.0363502 0.174871
689 4 0.192256 0.0112898 0.2145
1506 4 0.193083 0.021054 0.194032
21 1 0.392883 0.0113734 0.231407
25 3 0.41328 0.0208534 0.227836
22 3 0.378848 0.0168185 0.214015
23 3 0.383779 0.0193933 0.251186
757 2 0.420838 0.05494 0.204818
759 4 0.423706 0.036038 0.220932
351 4 0.473087 0.0319279 0.254836
349 2 0.453109 0.0258839 0.24107
350 4 0.433131 0.0198398 0.227303
758 4 0.417969 0.073842 0.188704
379 2 0.0456427 0.0944452 0.179797
512 4 0.0339483 0.109678 0.210238
381 4 0.0451053 0.114313 0.194968
511 2 0.0478865 0.118784 0.228892
513 4 0.0618247 0.127891 0.247546
692 4 0.231275 0.123209 0.17641
721 2 0.194818 0.14597 0.231897
723 4 0.20019 0.12558 0.218459
582 4 0.247302 0.119042 0.166042
580 2 0.267016 0.114031 0.180582
581 4 0.28673 0.109019 0.195123
30 3 0.299591 0.123395 0.192796
26 1 0.309922 0.142171 0.2005
29 3 0.31786 0.138582 0.222006
27 3 0.294799 0.159498 0.20095
28 3 0.327467 0.147892 0.186433
363 4 0.113079 0.191966 0.170841
362 4 0.12405 0.214631 0.214046
361 2 0.118565 0.203298 0.192444
372 4 0.129999 0.225282 0.230709
370 2 0.149956 0.237788 0.239106
371 4 0.169913 0.250293 0.247504
722 4 0.189446 0.16636 0.245335
521 4 0.462016 0.182802 0.227452
520 2 0.486574 0.179881 0.22377
394 2 0.0627023 0.303675 0.231784
396 4 0.0407402 0.30556 0.243586
750 4 0.0804574 0.293573 0.201738
748 2 0.0747674 0.289837 0.177679
395 4 0.0846644 0.301789 0.219982
300 4 0.125327 0.318861 0.198956
298 2 0.127207 0.330324 0.221098
279 4 0.254598 0.249773 0.201155
277 2 0.267957 0.26176 0.183747
307 2 0.319818 0.304544 0.232757
309 4 0.311852 0.311018 0.209957
763 2 0.403634 0.264396 0.174562
764 4 0.410128 0.285477 0.186334
623 4 0.417253 0.295753 0.201203
526 2 0.496109 0.287506 0.178324
528 4 0.48551 0.302964 0.194873
622 2 0.441888 0.300013 0.20156
624 4 0.466523 0.304273 0.201916
262 2 0.0485751 0.39883 0.236391
264 4 0.024253 0.393331 0.238229
263 4 0.0728972 0.404329 0.234553
602 4 0.0757827 0.384475 0.234986
299 4 0.129087 0.341786 0.243239
603 4 0.117496 0.358408 0.244
601 2 0.0966392 0.371441 0.239493
290 4 0.188995 0.386393 0.236031
289 2 0.183583 0.403762 0.218878
13 3 0.410509 0.3663 0.176608
416 4 0.175168 0.437267 0.212887
291 4 0.178171 0.42113 0.201725
1430 4 0.178682 0.501366 0.21271
417 4 0.189197 0.485059 0.217338
415 2 0.182182 0.461163 0.215113
301 2 0.306402 0.428284 0.161948
303 4 0.282706 0.434978 0.157602
302 4 0.330098 0.421591 0.166294
713 4 0.360277 0.489837 0.234361
2860 2 0.461315 0.415663 0.258902
659 4 0.444011 0.491516 0.170761
597 4 0.496237 0.467941 0.208911
595 2 0.478218 0.478875 0.195459
596 4 0.4602 0.48981 0.182008
2861 4 0.442251 0.429589 0.250666
231 4 0.44307 0.496514 0.189029
1568 4 0.453594 0.507032 0.176364
1799 4 0.0261305 0.0209215 0.309807
233 4 0.0301356 0.0297334 0.293396
1402 2 0.0633164 0.00500435 0.300115
1403 4 0.0443088 0.0207425 0.304139
232 2 0.0189834 0.0421081 0.27475
234 4 0.0078313 0.0544827 0.256104
1798 2 0.0125539 0.00967346 0.327537
697 2 0.363058 0.027202 0.331752
699 4 0.361608 0.00285332 0.326255
633 4 0.369728 0.060662 0.32179
631 2 0.375416 0.0746338 0.30185
743 4 0.481638 0.0547843 0.311543
744 4 0.461702 0.0363768 0.269538
742 2 0.47167 0.0455805 0.29054
479 4 0.492285 0.0598414 0.327307
2664 4 0.495529 0.0427926 0.319298
399 4 0.0612831 0.105076 0.321001
317 4 0.0515367 0.115036 0.335368
731 4 0.0513569 0.0954938 0.334024
398 4 0.100165 0.131354 0.303726
397 2 0.0807238 0.118215 0.312363
393 4 0.101203 0.143955 0.289444
390 4 0.105329 0.148472 0.309217
391 2 0.110341 0.16094 0.273532
249 4 0.208014 0.14335 0.321099
247 2 0.205879 0.121363 0.332811
404 4 0.191039 0.152938 0.31122
403 2 0.189063 0.161778 0.287915
632 4 0.381103 0.0886055 0.28191
333 4 0.467832 0.154378 0.326
331 2 0.465509 0.170218 0.306793
544 2 0.150938 0.182711 0.245652
545 4 0.126839 0.187189 0.240715
392 4 0.119478 0.177925 0.25762
546 4 0.175037 0.178233 0.25059
405 4 0.187087 0.170617 0.264609
420 4 0.402797 0.216437 0.277547
717 4 0.394897 0.233223 0.283035
332 4 0.463186 0.186059 0.287587
418 2 0.423792 0.203166 0.280422
419 4 0.444788 0.189895 0.283297
760 2 0.479749 0.216138 0.276082
762 4 0.459082 0.202139 0.277523
444 4 0.0196444 0.257756 0.286868
443 4 0.0364486 0.297123 0.261012
365 4 0.027503 0.313345 0.255512
364 2 0.0120604 0.331764 0.262401
442 2 0.0280465 0.27744 0.27394
401 4 0.205285 0.264772 0.26973
400 2 0.216654 0.272248 0.290707
402 4 0.228022 0.279725 0.311684
345 4 0.242575 0.275181 0.322997
510 4 0.237827 0.293641 0.321747
508 2 0.226944 0.314868 0.32924
308 4 0.327785 0.298071 0.255556
496 2 0.299462 0.302312 0.286888
498 4 0.283622 0.311122 0.304112
497 4 0.315301 0.293502 0.269664
715 2 0.403221 0.256056 0.288913
716 4 0.411545 0.278889 0.29479
542 4 0.42473 0.293153 0.299868
541 2 0.430442 0.312857 0.314161
549 4 0.0283214 0.412462 0.311436
777 4 0.0398669 0.427678 0.317556
547 2 0.0153129 0.396215 0.325291
734 4 0.122169 0.348577 0.260141
733 2 0.133037 0.349577 0.282637
735 4 0.143906 0.350576 0.305133
677 4 0.151861 0.347864 0.322328
509 4 0.216061 0.336096 0.336733
676 2 0.17497 0.345109 0.331469
435 4 0.213146 0.354887 0.336503
437 4 0.349447 0.436305 0.308345
728 4 0.371338 0.376603 0.317716
727 2 0.361635 0.397374 0.307736
729 4 0.351932 0.418145 0.297756
615 4 0.429094 0.348474 0.319193
543 4 0.436154 0.332561 0.328454
613 2 0.434984 0.372268 0.314263
2538 4 0.479079 0.362231 0.311483
2536 2 0.482525 0.372791 0.289083
614 4 0.440875 0.396063 0.309334
2537 4 0.48597 0.383352 0.266682
2862 4 0.480378 0.401737 0.267139
753 4 0.472079 0.36102 0.331242
775 2 0.0622312 0.438121 0.313561
414 4 0.102743 0.455173 0.313553
776 4 0.0845955 0.448564 0.309566
412 2 0.113897 0.472435 0.327795
438 4 0.306781 0.453954 0.289138
436 2 0.328114 0.44513 0.298742
594 4 0.397921 0.488229 0.3099
1772 4 0.022023 0.0141125 0.402858
1771 2 0.00895952 0.0050767 0.383548
732 4 0.072294 0.0592716 0.361416
730 2 0.0618254 0.0773827 0.34772
2238 4 0.0216305 0.0327749 0.41013
1782 4 0.106562 0.00368768 0.409239
369 4 0.0794593 0.0412696 0.36415
367 2 0.0949826 0.0290337 0.379463
368 4 0.110506 0.0167977 0.394776
604 2 0.132165 0.0950439 0.387191
605 4 0.153783 0.0824838 0.386916
1701 4 0.17003 0.0700301 0.384983
1699 2 0.188255 0.0754279 0.368738
1700 4 0.206479 0.0808257 0.352493
698 4 0.364509 0.0515506 0.337249
256 2 0.393534 0.0620624 0.358069
257 4 0.382147 0.060133 0.335892
258 4 0.404922 0.0639918 0.380245
426 4 0.404778 0.0500737 0.39531
424 2 0.403351 0.0333466 0.41384
478 2 0.474404 0.0728532 0.338974
458 4 0.018914 0.150998 0.374405
318 4 0.0292673 0.154079 0.357286
316 2 0.040402 0.134557 0.346327
388 2 0.110691 0.158423 0.331519
606 4 0.110547 0.107604 0.387465
248 4 0.203744 0.0993753 0.344524
600 4 0.228434 0.145646 0.398935
683 4 0.238955 0.128513 0.399323
598 2 0.227135 0.168112 0.409834
682 2 0.263062 0.124335 0.404477
319 2 0.318395 0.11809 0.392363
320 4 0.302007 0.10719 0.407785
321 4 0.334783 0.128989 0.376942
708 4 0.325779 0.14544 0.36903
706 2 0.313006 0.16181 0.3551
480 4 0.456522 0.0858649 0.350641
516 4 0.428668 0.114145 0.354513
515 4 0.456067 0.154069 0.342021
575 4 0.427629 0.109646 0.374657
574 2 0.436102 0.112958 0.397947
514 2 0.442367 0.134107 0.348267
453 4 0.473729 0.162842 0.342754
459 4 0.00023526 0.193075 0.393934
457 2 0.00957464 0.172037 0.384169
389 4 0.116054 0.168374 0.353822
473 4 0.224476 0.233814 0.387415
374 4 0.213769 0.249791 0.396152
472 2 0.248943 0.228711 0.388133
378 4 0.261441 0.220199 0.350361
376 2 0.282469 0.208683 0.34326
377 4 0.303496 0.197168 0.33616
707 4 0.300232 0.17818 0.341171
474 4 0.27341 0.223608 0.388851
488 4 0.279922 0.230313 0.407179
451 2 0.488599 0.167952 0.362195
452 4 0.503469 0.173062 0.381636
347 4 0.0671151 0.318163 0.406956
618 4 0.0758289 0.303069 0.415719
275 4 0.12877 0.300694 0.374276
617 4 0.119813 0.304219 0.391953
616 2 0.0978208 0.303644 0.403836
274 2 0.153379 0.302663 0.378242
343 2 0.252638 0.257525 0.337564
276 4 0.177987 0.304631 0.382208
373 2 0.198396 0.267901 0.38835
375 4 0.183022 0.286011 0.380549
344 4 0.262702 0.23987 0.352131
408 4 0.0153691 0.354754 0.392357
548 4 0.00230441 0.379967 0.339147
406 2 0.0177071 0.363974 0.369233
407 4 0.0200451 0.373194 0.34611
678 4 0.19808 0.342355 0.34061
433 2 0.233162 0.369721 0.33863
434 4 0.253177 0.384555 0.340758
334 2 0.329105 0.411654 0.395632
502 2 0.271687 0.402597 0.394747
504 4 0.256206 0.384191 0.401583
503 4 0.287167 0.421004 0.38791
335 4 0.352073 0.402801 0.400023
240 4 0.367585 0.394575 0.407208
561 4 0.482264 0.332279 0.386298
559 2 0.500718 0.338664 0.401913
752 4 0.478207 0.353306 0.380269
751 2 0.475143 0.357163 0.355755
413 4 0.12505 0.489697 0.342037
500 4 0.1225 0.506626 0.352623
1544 4 0.139665 0.498438 0.350952
1545 4 0.18761 0.498511 0.336741
1543 2 0.163637 0.498475 0.343847
636 4 0.218702 0.440218 0.417528
669 4 0.297701 0.437913 0.386297
336 4 0.306137 0.420507 0.391242
667 2 0.291621 0.454019 0.40443
592 2 0.40611 0.497591 0.331591
593 4 0.4143 0.506952 0.353281
3990 4 0.482711 0.496406 0.375299
2237 4 0.0141086 0.0685002 0.444303
2236 2 0.0178695 0.0506376 0.427217
1127 4 0.00443267 0.0759365 0.460133
720 4 0.0232304 0.0731959 0.46102
724 2 0.284719 0.0589423 0.489354
725 4 0.291284 0.0386034 0.502331
1182 4 0.290846 0.0886921 0.465454
1580 4 0.381841 0.0153135 0.432454
425 4 0.401924 0.0166195 0.432369
2878 2 0.475228 0.0649222 0.488881
2880 4 0.474284 0.0648166 0.463896
642 4 0.461901 0.0799234 0.466502
718 2 0.04417 0.0862754 0.464975
719 4 0.0651095 0.0993549 0.46893
1033 2 0.113683 0.139443 0.46674
1035 4 0.126038 0.146287 0.446108
1034 4 0.101328 0.1326 0.487373
261 4 0.129009 0.163067 0.45726
939 4 0.113715 0.129406 0.501961
726 4 0.278153 0.0792812 0.476377
684 4 0.287169 0.120157 0.409632
1180 2 0.295038 0.102798 0.445239
1181 4 0.299229 0.116904 0.425024
641 4 0.453815 0.120015 0.437728
576 4 0.444576 0.11627 0.421236
640 2 0.457858 0.0999695 0.452115
306 4 0.448481 0.134425 0.424916
304 2 0.460961 0.153758 0.434698
471 4 0.00754628 0.2091 0.474631
259 2 0.144855 0.182361 0.458619
694 2 0.147051 0.233018 0.479821
696 4 0.133681 0.25382 0.483523
599 4 0.225836 0.190577 0.420733
260 4 0.160701 0.201655 0.459977
695 4 0.16042 0.212216 0.47612
687 4 0.212996 0.196647 0.434986
686 4 0.176727 0.211753 0.465923
685 2 0.194862 0.2042 0.450455
411 4 0.238017 0.199157 0.484628
487 2 0.292103 0.217561 0.424904
489 4 0.304284 0.204809 0.442629
467 4 0.409412 0.213894 0.423795
466 2 0.390051 0.22877 0.429183
468 4 0.37069 0.243646 0.434572
873 4 0.370905 0.240803 0.507534
305 4 0.47344 0.17309 0.44448
585 4 0.427079 0.250317 0.484182
1260 4 0.117645 0.26166 0.473941
1258 2 0.100402 0.263613 0.491943
813 4 0.25803 0.279905 0.473742
811 2 0.255495 0.298377 0.490402
266 4 0.329561 0.280797 0.444076
812 4 0.252961 0.316848 0.507062
267 4 0.374114 0.263855 0.428953
265 2 0.351837 0.272326 0.436515
2456 4 0.456026 0.301968 0.494618
584 4 0.458858 0.288682 0.479827
583 2 0.442969 0.2695 0.482004
2455 2 0.474116 0.316856 0.503353
2813 4 0.997811 0.401896 0.428877
346 2 0.0565162 0.335488 0.421539
348 4 0.0459173 0.352814 0.436122
326 4 0.052789 0.36812 0.446989
325 2 0.0724225 0.369989 0.462358
383 4 0.0832395 0.408497 0.473515
384 4 0.1326 0.41631 0.4753
382 2 0.10792 0.412403 0.474408
10 3 0.142804 0.349501 0.487242
327 4 0.092056 0.371859 0.477727
7 3 0.111984 0.370452 0.485222
6 1 0.1331 0.36889 0.494211
711 4 0.162975 0.39675 0.481039
8 3 0.145659 0.387044 0.487062
774 4 0.224554 0.417718 0.471742
635 4 0.221957 0.40803 0.45566
709 2 0.187311 0.400024 0.476327
772 2 0.240029 0.408362 0.48901
710 4 0.211648 0.403299 0.471615
239 4 0.405115 0.397667 0.440113
586 2 0.414892 0.424521 0.469473
238 2 0.38635 0.396121 0.42366
588 4 0.403754 0.416023 0.448763
681 4 0.0683194 0.420245 0.46651
679 2 0.0631552 0.435024 0.447014
680 4 0.057991 0.449802 0.427517
1381 2 0.0698989 0.487654 0.426429
1383 4 0.0575148 0.468339 0.436365
569 4 0.149047 0.425394 0.467937
539 4 0.0983075 0.472681 0.476924
570 4 0.150625 0.475374 0.468478
538 2 0.109951 0.489602 0.491182
568 2 0.149836 0.450384 0.468207
634 2 0.220329 0.424124 0.436594
1 1 0.296097 0.49335 0.443035
5 3 0.277103 0.489181 0.454888
4 3 0.302388 0.474388 0.431234
668 4 0.28554 0.470124 0.422563
880 2 0.322889 0.488181 0.492659
587 4 0.42603 0.433019 0.490183
1184 4 0.997725 0.036765 0.577946
1059 4 0.15029 0.074247 0.565004
1057 2 0.142686 0.0530799 0.575927
1058 4 0.135083 0.0319128 0.586851
340 2 0.194903 0.0467735 0.521683
342 4 0.189114 0.0688373 0.531923
2430 4 0.199691 0.00666681 0.520643
341 4 0.200692 0.0247098 0.511443
430 2 0.320465 0.0264871 0.526602
432 4 0.303774 0.0243623 0.508107
963 4 0.289054 0.0199378 0.495871
961 2 0.270708 0.00306906 0.493862
431 4 0.337156 0.0286118 0.545097
843 4 0.353423 0.0369296 0.537186
1217 4 0.419825 0.0391552 0.546466
842 4 0.400586 0.0416182 0.553136
841 2 0.377004 0.0392739 0.545161
1216 2 0.432501 0.0186228 0.553017
1218 4 0.445177 0.99809 0.559568
2879 4 0.476171 0.0650277 0.513867
1272 4 0.0934537 0.164747 0.547339
938 4 0.0870123 0.147532 0.54016
1150 2 0.173379 0.0888228 0.547638
937 2 0.100364 0.138469 0.52106
1151 4 0.160952 0.0896324 0.56932
1270 2 0.107547 0.165067 0.56799
1155 4 0.148483 0.0827994 0.582428
1152 4 0.185806 0.0880132 0.525956
879 4 0.0764167 0.162974 0.537183
877 2 0.0520141 0.163045 0.542631
878 4 0.0276116 0.163115 0.54808
1199 4 0.0228346 0.182592 0.552469
1198 2 0.998851 0.181035 0.559363
409 2 0.255147 0.209196 0.499825
898 2 0.293898 0.222878 0.547609
791 4 0.316666 0.232796 0.5739
899 4 0.297059 0.230547 0.571197
900 4 0.290736 0.215209 0.524022
410 4 0.272277 0.219235 0.515023
871 2 0.378698 0.25314 0.527837
906 4 0.435565 0.233099 0.560265
1259 4 0.0831601 0.265565 0.509944
649 2 0.273722 0.310577 0.543488
651 4 0.289735 0.304585 0.561732
650 4 0.257708 0.316569 0.525244
872 4 0.386491 0.265478 0.54814
790 2 0.330564 0.253354 0.576966
792 4 0.344462 0.273912 0.580032
9 3 0.13143 0.369035 0.517354
1135 2 0.138103 0.399123 0.575068
1136 4 0.122706 0.418822 0.575307
897 4 0.172985 0.386599 0.57445
1189 2 0.242717 0.408233 0.545589
895 2 0.194448 0.399419 0.574812
896 4 0.215912 0.412239 0.575174
1191 4 0.232709 0.418145 0.566247
1190 4 0.252725 0.398322 0.52493
804 4 0.254076 0.333787 0.515916
803 4 0.260844 0.383334 0.515872
802 2 0.25746 0.358561 0.515894
773 4 0.255504 0.399006 0.506277
930 4 0.270886 0.399702 0.518504
928 2 0.292706 0.411824 0.519956
929 4 0.314527 0.423946 0.521407
927 4 0.412752 0.387829 0.541172
925 2 0.417995 0.402683 0.521754
2457 4 0.492206 0.331744 0.512087
1172 4 0.222553 0.430628 0.577686
1171 2 0.214442 0.453069 0.585155
889 2 0.304289 0.490315 0.555535
891 4 0.322092 0.478308 0.542725
890 4 0.286487 0.502322 0.568344
1953 4 0.366249 0.43861 0.542015
1951 2 0.349268 0.455476 0.534778
1952 4 0.332288 0.472342 0.52754
881 4 0.337475 0.476706 0.509415
926 4 0.423237 0.417538 0.502336
663 4 0.426047 0.435032 0.509416
1001 4 0.417535 0.487705 0.542381
662 4 0.432716 0.477836 0.534397
661 2 0.429381 0.456434 0.521906
1911 4 0.433281 0.482776 0.553455
1909 2 0.431257 0.472219 0.57603
1332 4 0.435348 0.496306 0.539924
945 4 0.0768199 0.00585321 0.629556
1185 4 0.0158888 0.007293 0.614032
1183 2 0.00680668 0.022029 0.595989
2375 4 0.136987 0.0159911 0.598918
943 2 0.0953413 0.99972 0.645193
1284 4 0.134657 0.0519095 0.663375
944 4 0.113863 0.993588 0.660831
950 4 0.2469 0.0081428 0.638961
949 2 0.259376 0.0290508 0.63327
951 4 0.271851 0.0499588 0.627578
1031 4 0.275876 0.0680631 0.633155
45 3 0.430898 0.0739286 0.661459
1271 4 0.121641 0.165387 0.588641
1153 2 0.155433 0.100346 0.598829
1221 4 0.166892 0.122882 0.634563
1154 4 0.162384 0.117893 0.615229
1219 2 0.181943 0.142818 0.635661
1220 4 0.196993 0.162754 0.636759
1030 2 0.282556 0.0921298 0.631987
1032 4 0.289235 0.116196 0.63082
808 2 0.485122 0.0923532 0.639754
810 4 0.476927 0.087453 0.662862
809 4 0.493318 0.0972534 0.616645
1245 4 0.0841674 0.207518 0.659278
1243 2 0.0818657 0.214335 0.635332
1244 4 0.079564 0.221153 0.611386
797 4 0.172007 0.22634 0.626206
1212 4 0.209522 0.177306 0.636576
1210 2 0.227436 0.176282 0.653988
796 2 0.181028 0.203613 0.631429
798 4 0.190049 0.180886 0.636652
857 4 0.305085 0.22949 0.589246
856 2 0.295046 0.223938 0.611462
858 4 0.285007 0.218385 0.633679
905 4 0.460314 0.233188 0.603718
3123 4 0.469379 0.228712 0.620558
904 2 0.44794 0.233144 0.581991
3121 2 0.488254 0.221094 0.63508
983 4 0.0464313 0.292831 0.584077
982 2 0.0477424 0.304651 0.606071
3263 4 0.0599752 0.326157 0.640535
984 4 0.0490535 0.316471 0.628066
947 4 0.311372 0.290729 0.670771
805 2 0.319243 0.320992 0.656479
1239 4 0.324485 0.314908 0.621091
807 4 0.334421 0.311491 0.639028
1238 4 0.350869 0.292865 0.584777
1237 2 0.337677 0.303887 0.602934
952 2 0.478317 0.325611 0.605149
953 4 0.455695 0.319207 0.613658
1041 4 0.0462161 0.335503 0.629868
1039 2 0.0455741 0.360412 0.627794
1040 4 0.0449321 0.385321 0.62572
993 4 0.0434543 0.405044 0.626385
1137 4 0.1535 0.379424 0.574828
1029 4 0.222312 0.417217 0.641663
1206 4 0.470602 0.408058 0.61181
991 2 0.056882 0.418001 0.609742
992 4 0.0703098 0.430958 0.593099
1159 2 0.172905 0.498372 0.586767
1160 4 0.195875 0.492219 0.594496
1173 4 0.206332 0.47551 0.592624
1188 4 0.205422 0.467503 0.657317
1187 4 0.20436 0.483317 0.609888
1186 2 0.204891 0.47541 0.633603
1204 2 0.456422 0.428373 0.608428
1910 4 0.429232 0.461661 0.598605
1269 4 0.433048 0.461381 0.61736
1267 2 0.433536 0.466901 0.641742
1205 4 0.442243 0.448687 0.605046
1075 2 0.0366381 0.0796648 0.732604
825 4 0.111033 0.986109 0.679862
1282 2 0.136167 0.0721428 0.677987
1004 4 0.314403 0.0160177 0.718832
1003 2 0.315825 0.0365077 0.704573
1005 4 0.317247 0.0569977 0.690314
2399 4 0.312759 0.000390133 0.730707
1162 2 0.490428 0.0626768 0.689316
42 3 0.443171 0.0686425 0.696306
1163 4 0.473899 0.0784593 0.679173
44 3 0.461351 0.0924448 0.6736
41 1 0.440519 0.0840613 0.679443
1083 4 0.0290321 0.142337 0.682253
1081 2 0.032536 0.119784 0.692465
1082 4 0.0360399 0.0972319 0.702677
1076 4 0.0439375 0.0797682 0.708689
850 2 0.0706499 0.154535 0.730408
1214 4 0.0360142 0.163175 0.728866
3179 4 0.013147 0.154255 0.682024
852 4 0.0497982 0.158115 0.743734
909 4 0.105309 0.153237 0.703373
907 2 0.117702 0.131909 0.699287
908 4 0.130095 0.110581 0.695201
1283 4 0.137676 0.0923762 0.692599
1227 4 0.139992 0.102322 0.709196
851 4 0.0915016 0.150955 0.717083
1225 2 0.158393 0.0935358 0.723666
1226 4 0.176794 0.0847493 0.738136
1149 4 0.23373 0.0982246 0.746973
888 4 0.253587 0.15728 0.673935
886 2 0.270658 0.159599 0.692056
831 4 0.352834 0.159761 0.701824
1141 2 0.392635 0.156771 0.705192
829 2 0.329206 0.164944 0.708151
1142 4 0.369478 0.147575 0.707283
43 3 0.426917 0.101247 0.687063
1025 4 0.468873 0.146582 0.704308
3424 2 0.482969 0.118897 0.691479
3426 4 0.479666 0.0971478 0.679594
3425 4 0.486273 0.140646 0.703364
3269 4 0.480225 0.147813 0.720447
3268 2 0.483783 0.160366 0.741777
1024 2 0.44972 0.162208 0.700544
1213 2 0.0188876 0.180432 0.7347
1107 4 0.103213 0.165526 0.718267
1209 4 0.0724128 0.216923 0.672845
1207 2 0.0796907 0.224169 0.695642
1208 4 0.0869687 0.231416 0.718439
1105 2 0.117707 0.185448 0.713999
1106 4 0.132201 0.20537 0.709731
1130 4 0.145196 0.216595 0.720301
1129 2 0.155259 0.228068 0.740107
1211 4 0.245351 0.175259 0.671401
887 4 0.287729 0.161917 0.710177
830 4 0.305578 0.170127 0.714477
978 4 0.291208 0.172332 0.72641
1194 4 0.368356 0.221403 0.699712
1192 2 0.348002 0.229636 0.711675
1193 4 0.327648 0.237869 0.723637
1143 4 0.415792 0.165968 0.703101
1262 4 0.416324 0.185087 0.708586
1026 4 0.430567 0.177834 0.696781
1261 2 0.42095 0.198675 0.72906
1263 4 0.425577 0.212262 0.749533
3262 2 0.0624085 0.325877 0.665419
3264 4 0.0648419 0.325598 0.690302
779 4 0.0677072 0.318504 0.708175
893 4 0.0556934 0.332847 0.706585
778 2 0.0653529 0.296127 0.71908
780 4 0.0629985 0.27375 0.729984
1065 4 0.215434 0.280643 0.726348
1063 2 0.239303 0.281484 0.718951
946 2 0.297417 0.285869 0.690941
948 4 0.283463 0.28101 0.711111
1064 4 0.263173 0.282325 0.711553
1008 4 0.425707 0.305724 0.725725
1006 2 0.431914 0.297835 0.748625
892 2 0.0448613 0.347334 0.723847
894 4 0.0340291 0.361822 0.741109
816 4 0.0440642 0.376178 0.749314
3276 4 0.0254643 0.373293 0.754746
814 2 0.0637192 0.391422 0.746773
1066 2 0.165491 0.400245 0.702264
1067 4 0.140554 0.401649 0.703441
940 2 0.106532 0.414744 0.714492
941 4 0.123202 0.408982 0.69677
942 4 0.0898617 0.420506 0.732215
1027 2 0.21241 0.412324 0.664095
1068 4 0.190427 0.398842 0.701088
1028 4 0.202509 0.407431 0.686527
806 4 0.304065 0.330494 0.673929
1280 4 0.0532025 0.49015 0.690111
1176 4 0.15951 0.473139 0.705714
1175 4 0.188628 0.463838 0.666137
1174 2 0.174069 0.468489 0.685926
1140 4 0.310304 0.476967 0.712598
1138 2 0.320406 0.488484 0.692837
1139 4 0.330508 0.500002 0.673077
1230 4 0.395985 0.445344 0.734193
1100 4 0.406018 0.431285 0.742578
1019 4 0.402363 0.412552 0.737309
1268 4 0.434025 0.472421 0.666123
1101 4 0.454144 0.444567 0.7397
1099 2 0.430081 0.437926 0.741139
3330 4 0.473225 0.444651 0.735294
1251 4 0.46592 0.456937 0.748824
3328 2 0.483544 0.431738 0.716534
2168 4 0.428819 0.491604 0.66981
1295 4 0.0265286 0.00551193 0.783826
1296 4 0.0454921 0.0489153 0.799865
1294 2 0.0360104 0.0272136 0.791845
1077 4 0.0293388 0.0795615 0.756518
1203 4 0.169206 0.0774366 0.754343
2049 4 0.167368 0.0101557 0.757333
2255 4 0.234755 0.0172981 0.770461
1201 2 0.169951 0.0529412 0.759303
1202 4 0.170695 0.0284458 0.764263
2254 2 0.210014 0.016148 0.767038
2256 4 0.185272 0.014998 0.763614
1113 4 0.372446 0.0492531 0.832529
2442 4 0.480344 0.996341 0.776052
2321 4 0.47388 0.00766366 0.790876
2322 4 0.453605 0.0530217 0.79656
2320 2 0.463743 0.0303427 0.793718
846 4 0.450461 0.0626915 0.812646
864 4 0.0425587 0.0830585 0.771308
862 2 0.0500241 0.105906 0.778194
863 4 0.0574895 0.128754 0.78508
832 2 0.0309049 0.131675 0.820634
833 4 0.0465845 0.132628 0.801181
1125 4 0.0590489 0.145881 0.79459
1123 2 0.0725392 0.164542 0.804335
911 4 0.074235 0.0783065 0.835996
35 3 0.111667 0.13304 0.818109
1148 4 0.186038 0.0861053 0.755881
1147 2 0.209884 0.0921649 0.751427
1257 4 0.242752 0.0905807 0.762611
921 4 0.193231 0.156776 0.834187
1255 2 0.258086 0.0887327 0.782273
1256 4 0.27342 0.0868847 0.801936
840 4 0.277445 0.106377 0.798657
838 2 0.285971 0.118686 0.818682
839 4 0.294497 0.130994 0.838707
844 2 0.451644 0.0876667 0.812507
845 4 0.452827 0.112642 0.812368
1215 4 0.00176089 0.19769 0.740533
1072 2 0.0810138 0.219767 0.811083
1073 4 0.0955766 0.199564 0.808862
1124 4 0.0860295 0.183203 0.814079
1131 4 0.165322 0.239541 0.759913
1277 4 0.175578 0.250368 0.771705
1276 2 0.180826 0.235086 0.790786
1278 4 0.186075 0.219804 0.809868
920 4 0.194601 0.203833 0.817322
919 2 0.193916 0.180305 0.825755
976 2 0.294748 0.186786 0.746503
977 4 0.298289 0.20124 0.766596
916 2 0.281608 0.242748 0.762936
918 4 0.289345 0.219012 0.764317
1298 4 0.298213 0.214133 0.78102
1297 2 0.320623 0.210767 0.791585
1299 4 0.343033 0.207401 0.802151
50 3 0.393267 0.191336 0.782262
1086 4 0.353885 0.193884 0.811529
1043 4 0.40292 0.247098 0.795681
49 3 0.396712 0.227204 0.793183
1084 2 0.362903 0.176613 0.8272
46 1 0.408102 0.2079 0.787183
3468 4 0.498297 0.188657 0.767155
1146 4 0.478856 0.189164 0.770632