ITEM: TIMESTEP
2120000
ITEM: NUMBER OF ATOMS
4590
ITEM: BOX BOUNDS pp pp pp
-9.9985700000000008e+00 9.9985700000000008e+00
-9.9985700000000008e+00 9.9985700000000008e+00
-9.9985700000000008e+00 9.9985700000000008e+00
ITEM: ATOMS id type xs ys zs
465 4 0.0732373 0.0643589 0.0132612
463 2 0.0674786 0.0841028 0.0274807
701 4 0.0758152 0.0473315 0.0259411
700 2 0.0998453 0.0405052 0.0248746
702 4 0.123875 0.0336789 0.0238081
566 4 0.131983 0.0518148 0.0189445
565 2 0.150628 0.0654209 0.0285592
2264 4 0.272347 0.0109266 0.044265
2263 2 0.278253 0.0159532 0.0204947
491 4 0.285095 0.00660278 0.0586722
746 4 0.483632 0.0577022 0.0230175
2469 4 0.500661 0.0493971 0.0317793
2467 2 0.495865 0.0269451 0.041683
464 4 0.0617199 0.103847 0.0417001
590 4 0.0463484 0.093567 0.0492322
589 2 0.0242606 0.0981755 0.0600057
567 4 0.169272 0.0790269 0.038174
558 4 0.334821 0.145091 0.0767336
556 2 0.339893 0.123104 0.0875043
554 4 0.0361027 0.19707 0.0368977
553 2 0.055068 0.213364 0.036931
555 4 0.0740333 0.229658 0.0369644
835 2 0.109105 0.213414 0.0165452
836 4 0.0874961 0.224051 0.0232614
738 4 0.155016 0.188991 0.0756972
837 4 0.130713 0.202777 0.00982893
915 4 0.15009 0.198096 0.00343207
865 2 0.361163 0.158359 0.00778796
664 2 0.35007 0.213694 0.0464934
665 4 0.354829 0.194279 0.0314739
666 4 0.345312 0.233109 0.0615129
867 4 0.352748 0.17512 0.0243236
1070 4 0.457403 0.21271 0.0460932
1069 2 0.445279 0.232873 0.0545568
770 4 0.500556 0.166421 0.0788318
1071 4 0.433155 0.253036 0.0630204
2806 2 0.0125901 0.303551 0.0273059
2808 4 0.0312215 0.313899 0.0142307
294 4 0.10929 0.310476 0.0386371
292 2 0.133183 0.307689 0.0454574
293 4 0.157077 0.304903 0.0522776
507 4 0.170737 0.308755 0.0384872
505 2 0.18412 0.328346 0.0305954
356 4 0.298585 0.304632 0.0381243
572 4 0.302754 0.284303 0.0415612
571 2 0.317518 0.265898 0.0498374
355 2 0.288338 0.326278 0.0309383
461 4 0.344486 0.248549 0.073336
573 4 0.332281 0.247494 0.0581137
324 4 0.425802 0.265234 0.0502922
322 2 0.428045 0.290014 0.0527667
323 4 0.430289 0.314793 0.0552412
672 4 0.433385 0.331352 0.0665881
647 4 0.0239807 0.376504 0.0518608
646 2 0.0436954 0.364446 0.0614061
620 4 0.00726058 0.370928 0.062612
506 4 0.197504 0.347936 0.0227036
483 4 0.211332 0.344864 0.00834301
481 2 0.223631 0.366384 0.011628
482 4 0.23593 0.387904 0.0149129
625 2 0.213183 0.412036 0.0821855
609 4 0.24864 0.399013 0.0250864
357 4 0.27809 0.347923 0.0237522
902 4 0.280051 0.349232 0.00288732
957 4 0.381091 0.396629 0.0130254
670 2 0.447584 0.351463 0.0709582
281 4 0.471633 0.386641 0.0817062
671 4 0.461783 0.371575 0.0753284
280 2 0.476964 0.410469 0.0763198
1787 4 0.098483 0.492037 0.0729469
1786 2 0.0986879 0.500985 0.0496
246 4 0.247293 0.472255 0.0405899
244 2 0.230001 0.459885 0.0537495
245 4 0.21271 0.447515 0.066909
627 4 0.217161 0.436703 0.0831367
272 4 0.252036 0.482029 0.0243935
1778 4 0.247235 0.491517 0.0412495
607 2 0.265366 0.417582 0.024314
608 4 0.282091 0.436152 0.0235415
252 4 0.301173 0.435769 0.0150545
250 2 0.31654 0.45544 0.0164969
251 4 0.331906 0.475112 0.0179392
271 2 0.254061 0.468334 0.00357196
525 4 0.394891 0.493279 0.0652235
2289 4 0.350039 0.483666 0.0155808
282 4 0.482294 0.434296 0.0709333
226 2 0.493352 0.471403 0.0560497
228 4 0.49238 0.495825 0.0507768
227 4 0.494323 0.446981 0.0613226
16 1 0.0592516 0.0538679 0.143565
20 3 0.0597599 0.0501102 0.121109
1806 4 0.0608489 0.0134688 0.152259
18 3 0.0555703 0.0339289 0.154847
19 3 0.0424826 0.0690711 0.148671
380 4 0.0249358 0.0789454 0.144057
17 3 0.079468 0.0625719 0.15025
673 2 0.114921 0.0476531 0.163815
675 4 0.0932616 0.0482706 0.151339
448 2 0.16179 0.0759073 0.157334
654 4 0.286713 0.005115 0.162357
484 2 0.361829 0.0112401 0.122926
295 2 0.351555 0.0595933 0.0977486
297 4 0.346861 0.0350396 0.0982627
485 4 0.359849 0.0344371 0.113807
379 2 0.0241518 0.0902408 0.16635
579 4 0.094981 0.102933 0.104258
237 4 0.147824 0.138269 0.115314
578 4 0.128566 0.138251 0.115458
577 2 0.111773 0.120592 0.109858
476 4 0.137686 0.152194 0.125439
737 4 0.139168 0.152412 0.105889
235 2 0.164639 0.123837 0.126897
475 2 0.122894 0.165182 0.140857
736 2 0.147092 0.170701 0.090793
692 4 0.237949 0.103472 0.13839
236 4 0.181454 0.109406 0.13848
693 4 0.189357 0.0916573 0.138338
449 4 0.170544 0.0945092 0.143103
691 2 0.213653 0.0975648 0.138364
582 4 0.244828 0.0932121 0.153365
580 2 0.264006 0.100231 0.167791
557 4 0.344964 0.101117 0.098275
296 4 0.356249 0.084147 0.0972344
477 4 0.108103 0.17817 0.156275
363 4 0.113922 0.195566 0.161999
283 2 0.318382 0.204715 0.134153
354 4 0.326451 0.241941 0.137649
285 4 0.307289 0.182765 0.13866
284 4 0.329474 0.226666 0.129646
462 4 0.333234 0.24208 0.121629
460 2 0.33886 0.245315 0.0974827
255 4 0.34306 0.236338 0.134922
253 2 0.362775 0.244154 0.148167
1014 4 0.486402 0.180312 0.0839688
311 4 0.468809 0.16167 0.149531
310 2 0.456014 0.18054 0.159799
455 4 0.100498 0.315257 0.110089
352 2 0.308707 0.257134 0.146567
353 4 0.290963 0.272326 0.155486
754 2 0.287937 0.309171 0.13974
755 4 0.292738 0.291581 0.156849
278 4 0.275442 0.282928 0.160567
756 4 0.283135 0.326761 0.122631
612 4 0.274519 0.344123 0.117157
610 2 0.251298 0.339377 0.109191
254 4 0.382489 0.25197 0.161412
648 4 0.06341 0.352388 0.0709514
456 4 0.0772854 0.351606 0.0847783
454 2 0.0888916 0.333431 0.0974334
626 4 0.209205 0.38737 0.0812344
611 4 0.228078 0.334632 0.101225
537 4 0.208309 0.338054 0.107596
535 2 0.199561 0.357416 0.0944128
536 4 0.190814 0.376777 0.08123
741 4 0.396082 0.371916 0.103628
739 2 0.395085 0.378738 0.127662
740 4 0.394088 0.38556 0.151697
15 3 0.383846 0.374065 0.163503
385 2 0.360241 0.402315 0.159777
386 4 0.383038 0.39346 0.164977
495 4 0.402653 0.394186 0.166564
493 2 0.414142 0.415416 0.160046
2651 4 0.481025 0.369119 0.0782069
551 4 0.0527134 0.442244 0.0860435
1465 2 0.0160761 0.471538 0.0922748
1466 4 0.0285805 0.492774 0.0964973
1791 4 0.043767 0.491155 0.108717
550 2 0.0711278 0.458889 0.0830338
1789 2 0.0470561 0.499614 0.132015
552 4 0.0895422 0.475533 0.0800241
242 4 0.101672 0.486777 0.0903481
241 2 0.112116 0.495673 0.111252
637 2 0.216214 0.483583 0.167561
767 4 0.25324 0.486775 0.142752
1439 4 0.176805 0.493014 0.171607
638 4 0.238386 0.483296 0.156005
303 4 0.298823 0.461081 0.143207
766 2 0.274217 0.477605 0.132699
768 4 0.295193 0.468435 0.122645
301 2 0.316239 0.445506 0.152112
302 4 0.333655 0.429932 0.161017
387 4 0.337443 0.41117 0.154578
494 4 0.425631 0.436646 0.153528
660 4 0.417016 0.454353 0.151353
658 2 0.429847 0.472053 0.163488
2480 4 0.00527267 0.00684887 0.218479
450 4 0.153037 0.0573054 0.171565
674 4 0.136581 0.0470355 0.176292
1505 4 0.153426 0.0408762 0.182599
1504 2 0.158335 0.0210904 0.197077
1506 4 0.163243 0.00130463 0.211554
652 2 0.290279 0.0298209 0.160915
653 4 0.293845 0.0545268 0.159472
22 3 0.41629 0.014167 0.200457
21 1 0.409176 0.0158861 0.222265
23 3 0.389801 0.0286403 0.222852
757 2 0.436379 0.0642388 0.220297
25 3 0.425435 0.0258772 0.234694
759 4 0.437199 0.0411274 0.229804
350 4 0.444177 0.0250569 0.235504
349 2 0.466594 0.0243102 0.246556
512 4 0.0397991 0.111839 0.191605
381 4 0.0233678 0.101536 0.188643
511 2 0.0495637 0.131206 0.204044
513 4 0.0593284 0.150574 0.216483
545 4 0.144786 0.152235 0.249663
581 4 0.283184 0.107249 0.182217
30 3 0.286071 0.126143 0.177907
26 1 0.287605 0.146037 0.188886
27 3 0.26758 0.150518 0.199281
28 3 0.292207 0.163065 0.17381
29 3 0.304316 0.144947 0.204948
758 4 0.435559 0.0873501 0.210791
521 4 0.461703 0.146358 0.216834
520 2 0.484321 0.156852 0.218695
339 4 0.0721749 0.163411 0.206852
337 2 0.0855117 0.17475 0.188999
338 4 0.0988484 0.186088 0.171145
362 4 0.143762 0.230443 0.181846
361 2 0.128842 0.213004 0.171922
372 4 0.139829 0.225575 0.200457
370 2 0.141664 0.245653 0.215245
723 4 0.214742 0.228798 0.236865
721 2 0.202692 0.212929 0.251969
628 2 0.412105 0.224861 0.167105
630 4 0.398761 0.245585 0.171306
312 4 0.44322 0.19941 0.170066
629 4 0.425448 0.204137 0.162904
750 4 0.0541078 0.287665 0.211684
395 4 0.055842 0.300701 0.227543
748 2 0.0633696 0.298305 0.19104
394 2 0.0347798 0.296437 0.240325
749 4 0.0726315 0.308946 0.170395
300 4 0.158952 0.31998 0.209571
298 2 0.14008 0.322609 0.225761
371 4 0.1435 0.265731 0.230033
279 4 0.248372 0.270347 0.200687
277 2 0.261907 0.276637 0.180627
307 2 0.312119 0.291421 0.200541
309 4 0.327591 0.278692 0.185582
308 4 0.296647 0.304149 0.2155
497 4 0.294103 0.314182 0.23334
765 4 0.386762 0.258407 0.179129
763 2 0.403331 0.273778 0.189824
764 4 0.419899 0.289149 0.200519
623 4 0.4398 0.286661 0.197
622 2 0.46216 0.297641 0.194849
624 4 0.484521 0.308621 0.192699
528 4 0.496313 0.300616 0.178471
262 2 0.0501702 0.386647 0.214196
263 4 0.0631065 0.365756 0.209572
602 4 0.0725255 0.349398 0.204985
264 4 0.0372339 0.407538 0.218821
299 4 0.121209 0.325238 0.241952
601 2 0.0885422 0.341959 0.222685
603 4 0.104559 0.334521 0.240386
290 4 0.191935 0.369065 0.184589
289 2 0.179236 0.388186 0.194505
14 3 0.414043 0.385709 0.182744
11 1 0.397631 0.369397 0.181019
12 3 0.40773 0.349032 0.177495
13 3 0.38537 0.368385 0.200692
2860 2 0.460043 0.403378 0.245434
2618 4 0.0244075 0.413638 0.233675
2617 2 0.00488463 0.428161 0.23943
291 4 0.166537 0.407306 0.204421
639 4 0.194043 0.48387 0.179117
416 4 0.174103 0.425062 0.20203
415 2 0.175251 0.448936 0.20937
1430 4 0.185265 0.488452 0.221138
417 4 0.176398 0.472811 0.216711
2861 4 0.442027 0.41935 0.23869
645 4 0.507849 0.465147 0.200118
659 4 0.442678 0.489752 0.175623
595 2 0.479673 0.487199 0.195465
596 4 0.461398 0.494868 0.18022
232 2 0.00254542 0.0481904 0.294469
1799 4 0.0200561 0.00934346 0.300591
233 4 0.0147307 0.0263681 0.295165
1402 2 0.0522069 0.0245416 0.284811
1403 4 0.0282921 0.0172457 0.284643
1798 2 0.0150623 0.996241 0.321293
1404 4 0.0761218 0.0318376 0.284978
633 4 0.37513 0.0566018 0.302094
631 2 0.371659 0.0737399 0.284221
632 4 0.368189 0.090878 0.266349
257 4 0.379354 0.0518664 0.32074
698 4 0.362428 0.0463357 0.312281
697 2 0.352349 0.024505 0.319138
699 4 0.342271 0.00267427 0.325996
479 4 0.494745 0.0436469 0.33493
744 4 0.497324 0.0152329 0.273835
742 2 0.499957 0.0256338 0.296419
351 4 0.48901 0.0235635 0.257607
399 4 0.0530706 0.106656 0.320957
397 2 0.0698504 0.122089 0.310688
390 4 0.0765766 0.154293 0.299851
398 4 0.0866302 0.137522 0.30042
393 4 0.0867242 0.147229 0.284566
392 4 0.132716 0.152994 0.265799
391 2 0.10972 0.150111 0.275182
544 2 0.165061 0.165985 0.254669
249 4 0.214341 0.150075 0.320295
404 4 0.202916 0.166007 0.32349
444 4 0.0155241 0.241555 0.29453
388 2 0.0760573 0.176971 0.31037
389 4 0.075538 0.199649 0.320888
403 2 0.195207 0.174005 0.30109
405 4 0.187498 0.182004 0.278689
546 4 0.185336 0.179734 0.259676
722 4 0.190643 0.197059 0.267073
378 4 0.293211 0.240007 0.318271
420 4 0.407646 0.215738 0.254282
717 4 0.398008 0.227086 0.268503
715 2 0.394724 0.247143 0.283068
331 2 0.465161 0.200032 0.306625
332 4 0.469486 0.203545 0.282251
418 2 0.429318 0.209504 0.265082
419 4 0.450991 0.20327 0.275881
760 2 0.487409 0.216639 0.256529
762 4 0.466295 0.205357 0.263745
333 4 0.460835 0.19652 0.331
442 2 0.00993093 0.259123 0.27764
396 4 0.0137175 0.292173 0.253107
443 4 0.00433778 0.276691 0.260751
365 4 0.997478 0.295115 0.263662
677 4 0.129569 0.311601 0.307469
676 2 0.151076 0.319918 0.317134
733 2 0.114233 0.323225 0.276195
735 4 0.112331 0.308605 0.29639
401 4 0.219193 0.275559 0.25025
510 4 0.234015 0.304383 0.309383
508 2 0.212853 0.315217 0.317129
400 2 0.226228 0.283901 0.272746
402 4 0.233264 0.292243 0.295243
509 4 0.191691 0.32605 0.324874
345 4 0.244156 0.287357 0.309855
678 4 0.172584 0.328235 0.326799
496 2 0.281514 0.325092 0.251986
343 2 0.263309 0.27148 0.312359
344 4 0.282462 0.255603 0.314863
716 4 0.391439 0.267199 0.297633
542 4 0.377893 0.280364 0.290898
541 2 0.375696 0.30273 0.301859
543 4 0.373499 0.325095 0.312819
547 2 0.0230691 0.376548 0.306798
548 4 0.00311534 0.36148 0.306866
549 4 0.043023 0.391615 0.30673
777 4 0.0536418 0.406263 0.297593
407 4 0.99588 0.348319 0.320594
734 4 0.116135 0.337845 0.256
435 4 0.18394 0.343656 0.322274
498 4 0.268924 0.336002 0.270631
728 4 0.373893 0.378676 0.278022
615 4 0.377947 0.340885 0.324454
727 2 0.373971 0.395911 0.296136
729 4 0.37405 0.413146 0.314251
2862 4 0.47806 0.387406 0.252178
2537 4 0.492858 0.374923 0.257079
2538 4 0.479561 0.362309 0.303607
2536 2 0.486209 0.368616 0.280343
753 4 0.480929 0.34325 0.308626
775 2 0.0699288 0.419483 0.311199
776 4 0.0862159 0.432704 0.324806
414 4 0.0936687 0.45108 0.328066
412 2 0.111365 0.467988 0.333178
413 4 0.129061 0.484896 0.338291
1543 2 0.171547 0.486257 0.33022
1545 4 0.195012 0.48466 0.321732
1435 2 0.208352 0.497135 0.290165
1436 4 0.210753 0.482483 0.310283
438 4 0.358257 0.477986 0.313182
436 2 0.362422 0.453845 0.318185
437 4 0.366588 0.429703 0.323188
1771 2 0.0199984 0.00712036 0.37634
1772 4 0.0296048 0.0230367 0.39306
732 4 0.0795198 0.0615606 0.361053
2238 4 0.0199822 0.0403804 0.388557
730 2 0.0668968 0.0749862 0.344154
367 2 0.090769 0.0503808 0.401798
368 4 0.0981758 0.0394844 0.423048
369 4 0.0833622 0.0612773 0.380547
1701 4 0.163057 0.0900141 0.383049
256 2 0.38766 0.0634124 0.341304
258 4 0.395965 0.0749584 0.361868
426 4 0.385118 0.0701065 0.377876
424 2 0.378589 0.0526491 0.394543
478 2 0.487533 0.0670234 0.329762
317 4 0.04169 0.101751 0.335869
318 4 0.0159674 0.13463 0.363401
458 4 0.0132131 0.14872 0.375823
731 4 0.0542738 0.0884119 0.327254
316 2 0.0288287 0.11819 0.349635
604 2 0.133514 0.0932447 0.407707
605 4 0.153366 0.0817489 0.397762
247 2 0.214196 0.129978 0.335171
248 4 0.21405 0.109882 0.350046
1699 2 0.178836 0.0988228 0.36577
1700 4 0.194616 0.107631 0.34849
600 4 0.228724 0.158057 0.394965
683 4 0.242852 0.142978 0.394101
682 2 0.263102 0.132078 0.403915
319 2 0.318713 0.122182 0.399248
320 4 0.299379 0.110218 0.409653
708 4 0.333664 0.14788 0.373352
321 4 0.338047 0.134145 0.388842
480 4 0.480321 0.0903999 0.324594
516 4 0.448507 0.141654 0.357175
575 4 0.459723 0.133522 0.371295
574 2 0.459876 0.129238 0.395928
514 2 0.450833 0.166014 0.352041
598 2 0.225038 0.176745 0.411162
376 2 0.293867 0.220519 0.333922
377 4 0.294524 0.201031 0.349574
707 4 0.304519 0.185389 0.357719
474 4 0.25994 0.237261 0.407531
706 2 0.319092 0.166635 0.365536
489 4 0.30352 0.197442 0.40119
487 2 0.285881 0.211807 0.411567
468 4 0.342541 0.225138 0.421879
515 4 0.453158 0.190374 0.346907
453 4 0.472697 0.192885 0.345857
451 2 0.489894 0.204544 0.359768
347 4 0.0702563 0.321329 0.390985
408 4 0.0192851 0.316162 0.350907
618 4 0.0736787 0.320468 0.371423
275 4 0.127646 0.318865 0.373215
617 4 0.121086 0.3296 0.358388
616 2 0.0973822 0.325034 0.364905
274 2 0.152541 0.317621 0.371254
473 4 0.233338 0.264971 0.375513
374 4 0.220271 0.28028 0.370386
276 4 0.177437 0.316378 0.369292
373 2 0.207152 0.301092 0.374846
375 4 0.194032 0.321905 0.379306
472 2 0.246639 0.251116 0.391522
561 4 0.494287 0.323853 0.374534
752 4 0.487576 0.331493 0.356774
346 2 0.0633387 0.339353 0.406873
406 2 0.00758247 0.332241 0.335751
433 2 0.179151 0.36583 0.332789
434 4 0.174362 0.388004 0.343304
502 2 0.293475 0.386419 0.39397
503 4 0.304359 0.406607 0.384012
336 4 0.322045 0.400745 0.376867
504 4 0.282592 0.366231 0.403928
613 2 0.401439 0.349443 0.324189
334 2 0.346895 0.398211 0.377977
335 4 0.371745 0.395677 0.379088
240 4 0.381914 0.396635 0.396327
751 2 0.484253 0.337371 0.3327
614 4 0.424931 0.358001 0.323924
1544 4 0.148082 0.487853 0.338707
668 4 0.309601 0.458751 0.41304
669 4 0.320576 0.417268 0.38736
667 2 0.315089 0.438009 0.4002
3990 4 0.487822 0.496042 0.332348
1127 4 0.00343045 0.0662187 0.447149
2237 4 0.0108223 0.0678648 0.429317
2236 2 0.0154023 0.0541226 0.408937
720 4 0.0174695 0.0794868 0.443998
718 2 0.039981 0.0768813 0.454563
719 4 0.0624924 0.0742758 0.465129
1780 2 0.0860037 0.00878851 0.439287
1782 4 0.0973673 0.019742 0.419894
724 2 0.298412 0.0387405 0.466732
726 4 0.302601 0.0597659 0.453864
725 4 0.294223 0.0177152 0.479599
1182 4 0.30894 0.0776425 0.460599
963 4 0.285133 0.00040469 0.481058
432 4 0.304484 0.00289507 0.486499
1579 2 0.367245 0.0168778 0.437783
1580 4 0.384051 0.0330013 0.428686
425 4 0.37206 0.0351917 0.41121
1581 4 0.350439 0.000754203 0.446881
642 4 0.454489 0.0737685 0.467489
2878 2 0.458644 0.041754 0.487645
2880 4 0.444662 0.0605989 0.479011
606 4 0.113662 0.104741 0.417653
1033 2 0.11698 0.137335 0.47838
1035 4 0.136942 0.14639 0.466351
261 4 0.152011 0.144224 0.451763
1034 4 0.0970174 0.128281 0.490409
684 4 0.283352 0.121178 0.41373
1180 2 0.298329 0.0914588 0.442663
1181 4 0.287718 0.105275 0.424727
576 4 0.46003 0.124955 0.420562
640 2 0.457332 0.0922105 0.450846
641 4 0.460176 0.110652 0.434203
306 4 0.451216 0.127485 0.437523
304 2 0.456295 0.147161 0.452091
3157 2 0.47688 0.159466 0.502694
3158 4 0.462862 0.172492 0.486601
470 4 0.00814461 0.179598 0.488847
1259 4 0.0977102 0.256601 0.511829
259 2 0.158763 0.168196 0.45398
694 2 0.152113 0.209085 0.491944
695 4 0.167396 0.200589 0.474072
1258 2 0.108667 0.234276 0.514425
1260 4 0.119623 0.211951 0.517021
260 4 0.165516 0.192168 0.456198
599 4 0.221351 0.195433 0.427359
687 4 0.222656 0.211349 0.438534
686 4 0.177094 0.207407 0.458764
685 2 0.199875 0.209378 0.448649
411 4 0.234917 0.220462 0.451408
488 4 0.268241 0.226171 0.421945
267 4 0.351782 0.243083 0.424082
409 2 0.249064 0.216407 0.471622
410 4 0.26321 0.212351 0.491836
466 2 0.352545 0.20224 0.422775
467 4 0.362549 0.179342 0.423671
305 4 0.461373 0.166837 0.466659
585 4 0.496518 0.243235 0.469595
813 4 0.244125 0.279486 0.502641
265 2 0.361637 0.265372 0.429672
266 4 0.371492 0.287661 0.435262
583 2 0.488631 0.262773 0.483058
584 4 0.480744 0.282311 0.49652
348 4 0.0564211 0.357378 0.422762
2812 2 0.0181453 0.352019 0.433838
2813 4 0.0388706 0.363924 0.426496
326 4 0.0547523 0.376275 0.426823
325 2 0.0755473 0.382751 0.439104
10 3 0.138606 0.374601 0.452658
327 4 0.0963422 0.389227 0.451384
7 3 0.102771 0.375563 0.463041
6 1 0.124493 0.374483 0.470532
711 4 0.143663 0.405007 0.492899
8 3 0.128687 0.392868 0.484053
9 3 0.127273 0.354914 0.482685
709 2 0.167511 0.406328 0.485504
774 4 0.210176 0.410847 0.482086
635 4 0.20519 0.402944 0.465266
710 4 0.19136 0.407648 0.478109
681 4 0.0797231 0.45485 0.499653
1383 4 0.0653438 0.473543 0.442882
1381 2 0.0621195 0.495949 0.432264
680 4 0.0640285 0.482821 0.461286
679 2 0.0718758 0.468835 0.480469
383 4 0.0926142 0.440187 0.507507
636 4 0.206804 0.437534 0.429188
634 2 0.205997 0.420239 0.447227
1 1 0.306972 0.492012 0.434163
4 3 0.317179 0.474226 0.423305
5 3 0.291848 0.484225 0.449306
586 2 0.406304 0.428443 0.471331
238 2 0.389454 0.414477 0.412137
239 4 0.396995 0.43232 0.427948
588 4 0.400775 0.43418 0.447631
587 4 0.411833 0.422705 0.495031
3077 4 0.00786384 0.0102111 0.535397
1184 4 0.00575634 0.0118992 0.555905
1150 2 0.153985 0.0691762 0.540508
342 4 0.147276 0.0432819 0.504774
1152 4 0.146153 0.0559596 0.520781
340 2 0.157817 0.0209219 0.50853
1151 4 0.161818 0.0823927 0.560235
1155 4 0.160392 0.0874098 0.578706
1059 4 0.157578 0.0688757 0.574674
341 4 0.168357 0.998562 0.512287
430 2 0.317299 0.00599798 0.507743
843 4 0.320942 0.0124709 0.545715
841 2 0.332383 0.0234316 0.565058
431 4 0.330113 0.00910089 0.528988
2879 4 0.472626 0.0229092 0.496279
879 4 0.0618134 0.156264 0.551412
877 2 0.0406419 0.143121 0.553468
1199 4 0.00143179 0.134168 0.564275
878 4 0.0194705 0.129979 0.555525
938 4 0.0807674 0.160572 0.546873
937 2 0.0882144 0.15168 0.524722
939 4 0.0956614 0.142788 0.502572
3159 4 0.490898 0.14644 0.518787
1272 4 0.0737453 0.164684 0.564403
1270 2 0.090196 0.178524 0.57717
696 4 0.13683 0.217581 0.509816
898 2 0.280011 0.202087 0.527888
899 4 0.293409 0.205738 0.548681
900 4 0.266612 0.198437 0.507096
791 4 0.308194 0.21556 0.557245
790 2 0.32522 0.233692 0.5598
857 4 0.298637 0.201449 0.567332
792 4 0.342245 0.251825 0.562355
811 2 0.247443 0.300653 0.515529
812 4 0.250762 0.321821 0.528418
650 4 0.255023 0.323892 0.547724
649 2 0.261299 0.31016 0.567654
804 4 0.247332 0.338315 0.537717
651 4 0.267575 0.296428 0.587585
871 2 0.357928 0.275555 0.537401
872 4 0.35908 0.257225 0.554368
1238 4 0.357024 0.258561 0.573123
873 4 0.356777 0.293884 0.520434
2455 2 0.501436 0.305484 0.517508
2457 4 0.50344 0.326702 0.530583
2456 4 0.499432 0.284265 0.504434
1136 4 0.117471 0.369026 0.546916
1135 2 0.132058 0.378161 0.565052
897 4 0.165119 0.392774 0.579254
773 4 0.239637 0.402546 0.521632
1189 2 0.240549 0.410338 0.559039
803 4 0.248837 0.387423 0.528401
772 2 0.224906 0.406697 0.501859
1190 4 0.250958 0.405525 0.53682
802 2 0.248085 0.362869 0.533059
930 4 0.259441 0.401237 0.519924
928 2 0.281161 0.413507 0.518231
926 4 0.426271 0.412637 0.503622
925 2 0.431822 0.394972 0.520424
927 4 0.437374 0.377308 0.537227
992 4 0.0468779 0.4236 0.566262
384 4 0.138823 0.422406 0.500484
382 2 0.115718 0.431297 0.503996
569 4 0.148263 0.439423 0.506014
568 2 0.164012 0.458835 0.506572
1191 4 0.23014 0.41515 0.581258
570 4 0.179761 0.478247 0.50713
1160 4 0.1894 0.483138 0.58253
889 2 0.279035 0.491304 0.528327
929 4 0.302881 0.425777 0.516538
891 4 0.30281 0.484314 0.525002
1952 4 0.321441 0.47784 0.524882
881 4 0.3159 0.492522 0.513461
1951 2 0.319236 0.453098 0.527738
1953 4 0.317031 0.428356 0.530594
1000 2 0.410916 0.496307 0.559878
663 4 0.42359 0.4307 0.508675
1001 4 0.428711 0.478773 0.558844
661 2 0.424401 0.448394 0.526323
662 4 0.425212 0.466088 0.54397
1911 4 0.434088 0.459822 0.560437
1332 4 0.443246 0.472533 0.54853
1330 2 0.461321 0.486398 0.538223
945 4 0.057334 0.995533 0.645558
1058 4 0.164033 0.0300336 0.605502
2375 4 0.159239 0.0120211 0.618333
1057 2 0.160806 0.0494546 0.590088
950 4 0.249328 0.0123487 0.640916
949 2 0.261747 0.0327291 0.648372
951 4 0.274166 0.0531095 0.655827
1031 4 0.284332 0.067477 0.645477
842 4 0.343825 0.0343923 0.5844
1217 4 0.363053 0.0296456 0.581593
1216 2 0.38734 0.0237056 0.581377
1218 4 0.411626 0.0177656 0.58116
43 3 0.43304 0.0705695 0.64717
810 4 0.473383 0.0744002 0.666164
1083 4 0.0265734 0.135232 0.651763
3179 4 0.0207615 0.15054 0.641471
1081 2 0.0134902 0.120365 0.667026
1284 4 0.133221 0.0856326 0.648417
1221 4 0.174148 0.134433 0.623089
1153 2 0.167032 0.107927 0.591361
1154 4 0.173672 0.128443 0.604016
1219 2 0.182629 0.157244 0.628822
1030 2 0.295763 0.0896995 0.646295
1032 4 0.307194 0.111922 0.647113
808 2 0.488602 0.0745575 0.646325
1209 4 0.0849344 0.202679 0.65243
1245 4 0.0953235 0.217778 0.645546
1271 4 0.106647 0.192365 0.589938
1243 2 0.104845 0.212252 0.623097
1244 4 0.114366 0.206725 0.600647
1210 2 0.229421 0.173308 0.654156
1212 4 0.209504 0.17969 0.640453
1220 4 0.191111 0.180056 0.634555
797 4 0.189517 0.239219 0.613688
796 2 0.194826 0.217973 0.625754
798 4 0.200135 0.196727 0.63782
858 4 0.286323 0.171615 0.60553
856 2 0.29248 0.186532 0.586431
1193 4 0.391577 0.231298 0.668637
3121 2 0.486311 0.213642 0.62019
3122 4 0.494174 0.190636 0.626027
3123 4 0.478448 0.236648 0.614352
983 4 0.0413821 0.298209 0.595977
982 2 0.0493517 0.312543 0.614851
3263 4 0.0524216 0.333254 0.651658
805 2 0.302054 0.294525 0.60839
806 4 0.280397 0.30481 0.60129
807 4 0.32371 0.284239 0.615489
1239 4 0.343024 0.286673 0.612039
1237 2 0.350024 0.272617 0.592581
905 4 0.485825 0.248775 0.599746
906 4 0.47534 0.297604 0.59718
904 2 0.480583 0.273189 0.598463
952 2 0.481488 0.329238 0.595627
953 4 0.46206 0.313601 0.59742
984 4 0.0573212 0.326876 0.633725
1041 4 0.0585995 0.345047 0.638088
1039 2 0.0536019 0.368785 0.632028
1040 4 0.0486043 0.392522 0.625968
993 4 0.0427382 0.393956 0.606322
991 2 0.0448081 0.408778 0.586292
1137 4 0.146646 0.387296 0.583189
895 2 0.18907 0.39995 0.579392
896 4 0.213021 0.407127 0.57953
1027 2 0.201762 0.418894 0.650452
1206 4 0.491724 0.42024 0.627392
3309 4 0.490733 0.404 0.616926
1172 4 0.215616 0.427024 0.584224
1171 2 0.209997 0.45106 0.588205
1029 4 0.221938 0.432858 0.645646
1173 4 0.204378 0.475097 0.592185
1188 4 0.19458 0.50906 0.644238
1187 4 0.189624 0.482452 0.602188
1186 2 0.192102 0.495756 0.623213
1175 4 0.190237 0.495262 0.659715
1268 4 0.409753 0.483802 0.64448
2168 4 0.414025 0.490534 0.66315
1909 2 0.437093 0.45132 0.583757
1267 2 0.418372 0.463323 0.633013
1204 2 0.467468 0.4257 0.624749
1910 4 0.440098 0.442817 0.607078
1269 4 0.426992 0.442845 0.621545
1205 4 0.443211 0.43116 0.622106
1296 4 0.020198 0.0233851 0.731109
1226 4 0.165519 0.0819802 0.739618
1201 2 0.190024 0.0517572 0.744598
1202 4 0.196528 0.0278625 0.748052
2256 4 0.193198 0.0122072 0.736115
2049 4 0.185217 0.0127083 0.753955
1003 2 0.340391 0.0186318 0.676158
1005 4 0.340152 0.0416339 0.666358
1004 4 0.34063 0.99563 0.685957
1164 4 0.501179 0.0390617 0.709388
45 3 0.431842 0.0437219 0.673541
1162 2 0.487274 0.0561578 0.697574
41 1 0.435611 0.0658586 0.669745
1163 4 0.473369 0.0732539 0.68576
44 3 0.457028 0.0715389 0.676633
1077 4 0.0285033 0.10518 0.743206
1075 2 0.0160457 0.101062 0.721921
1076 4 0.003588 0.0969446 0.700637
1082 4 0.00040695 0.105497 0.682289
864 4 0.0321705 0.124854 0.748599
851 4 0.0819572 0.169284 0.704551
1282 2 0.129552 0.0915966 0.67242
909 4 0.0955995 0.155495 0.702265
907 2 0.106743 0.133254 0.70478
908 4 0.117887 0.111013 0.707296
1283 4 0.125883 0.0975605 0.696423
1227 4 0.12334 0.0937545 0.715471
1225 2 0.14443 0.0878673 0.727544
1148 4 0.179892 0.0926018 0.748312
888 4 0.268343 0.163404 0.662105
886 2 0.275069 0.161375 0.686101
829 2 0.323391 0.148836 0.723683
830 4 0.300428 0.156677 0.71765
887 4 0.281795 0.159346 0.710097
978 4 0.286322 0.165267 0.727131
831 4 0.346354 0.140995 0.729717
1142 4 0.360113 0.154792 0.732205
1141 2 0.376448 0.169693 0.72053
42 3 0.420405 0.0782949 0.681715
1025 4 0.450567 0.147791 0.701286
3424 2 0.465319 0.112536 0.684902
3426 4 0.466964 0.088755 0.677358
3425 4 0.463674 0.136318 0.692447
3269 4 0.46858 0.149166 0.706696
3268 2 0.478039 0.161875 0.72604
1215 4 0.995928 0.204328 0.749752
852 4 0.0426701 0.171631 0.735401
850 2 0.0623137 0.170457 0.719976
780 4 0.101916 0.246472 0.700061
1214 4 0.0304361 0.168146 0.750678
1213 2 0.0131822 0.186237 0.750215
1208 4 0.0951577 0.171247 0.689956
1207 2 0.0900461 0.186963 0.671193
1107 4 0.100242 0.17358 0.708564
1105 2 0.117423 0.186594 0.721239
1106 4 0.134603 0.199607 0.733913
1130 4 0.128302 0.21567 0.743312
1129 2 0.150455 0.220441 0.753879
1211 4 0.249337 0.166926 0.66786
976 2 0.286445 0.183279 0.744473
1194 4 0.406542 0.19622 0.700984
1192 2 0.39906 0.213759 0.68481
1143 4 0.392783 0.184594 0.708855
1262 4 0.408347 0.189135 0.71921
1026 4 0.410127 0.177127 0.703445
1261 2 0.418049 0.199882 0.739596
1024 2 0.430347 0.162459 0.702365
3262 2 0.0603592 0.315845 0.667755
3264 4 0.0682968 0.298436 0.683851
779 4 0.0721131 0.286606 0.698746
778 2 0.0870148 0.266539 0.699404
893 4 0.0605528 0.302186 0.701075
892 2 0.0577233 0.315117 0.722288
894 4 0.0548939 0.328047 0.7435
947 4 0.310084 0.271458 0.721547
1063 2 0.251827 0.318006 0.70366
946 2 0.288854 0.278643 0.710463
948 4 0.267625 0.285829 0.699379
1064 4 0.24963 0.294053 0.696832
917 4 0.30859 0.254645 0.732219
1008 4 0.421813 0.262849 0.715978
1006 2 0.435424 0.26711 0.736516
1067 4 0.147924 0.403108 0.709441
940 2 0.121593 0.397538 0.744604
941 4 0.138196 0.404329 0.727186
1066 2 0.155847 0.400311 0.685891
1068 4 0.163771 0.397513 0.662342
1028 4 0.181586 0.404929 0.655258
1065 4 0.254024 0.341958 0.710489
1019 4 0.402332 0.413598 0.75147
1280 4 0.00834041 0.488387 0.711822
1176 4 0.168436 0.465122 0.693138
1174 2 0.179336 0.480192 0.676427
1139 4 0.31367 0.479415 0.701759
1138 2 0.322441 0.470861 0.723556
1140 4 0.331211 0.462308 0.745352
1230 4 0.386219 0.42412 0.749288
1100 4 0.400419 0.425874 0.735927
1101 4 0.444738 0.448992 0.734485
1099 2 0.422578 0.437433 0.735206
3330 4 0.463897 0.445856 0.732801
1251 4 0.457059 0.461949 0.74204
3328 2 0.478213 0.445914 0.712302
3329 4 0.492528 0.445972 0.691802
1294 2 0.0107599 0.00936751 0.749537
911 4 0.110156 0.0822447 0.837909
1203 4 0.18352 0.0756519 0.741145
1111 2 0.362039 0.0776512 0.833801
2321 4 0.438953 0.999138 0.799509
2322 4 0.461115 0.0426265 0.78863
2320 2 0.450034 0.0208825 0.79407
846 4 0.452769 0.0581562 0.779954
844 2 0.449645 0.076811 0.763601
862 2 0.0432557 0.124692 0.771011
863 4 0.0543409 0.124529 0.793422
833 4 0.0431169 0.125344 0.808431
1125 4 0.0533697 0.140583 0.805008
1123 2 0.0666691 0.159368 0.814778
832 2 0.0405467 0.106226 0.82434
34 3 0.130261 0.154498 0.819414
1124 4 0.0799685 0.178152 0.824548
1147 2 0.201149 0.105675 0.74987
1149 4 0.222406 0.118748 0.751429
1257 4 0.231015 0.122569 0.768912
1255 2 0.242439 0.116525 0.790316
921 4 0.210596 0.134811 0.80249
919 2 0.213084 0.157956 0.811617
1256 4 0.253864 0.110481 0.81172
840 4 0.262293 0.121516 0.825878
1112 4 0.360582 0.0955637 0.816417
3270 4 0.487498 0.174584 0.745383
845 4 0.446521 0.0954659 0.747248
822 4 0.165525 0.235217 0.779991
1131 4 0.172608 0.225211 0.764446
1277 4 0.171755 0.216682 0.781623
1276 2 0.186954 0.203492 0.796462
1278 4 0.202154 0.190302 0.8113
920 4 0.215572 0.181101 0.820744
916 2 0.296421 0.237833 0.746163
977 4 0.286568 0.20129 0.761814
918 4 0.284251 0.221021 0.760108
1298 4 0.297169 0.213758 0.773267
1297 2 0.307927 0.205795 0.794387
1299 4 0.318684 0.197832 0.815507
1086 4 0.337292 0.202094 0.816299
50 3 0.39025 0.211368 0.789958
46 1 0.411952 0.208663 0.796309
49 3 0.420202 0.228542 0.804979
48 3 0.413509 0.191836 0.81221
3468 4 0.500783 0.174507 0.758918
47 3 0.424531 0.202758 0.777977
1263 4 0.427751 0.210629 0.759981
1146 4 0.486294 0.188081 0.759695
1145 4 0.442646 0.20882 0.772558
1144 2 0.46447 0.198451 0.766127
1022 4 0.427695 0.180285 0.819652
3188 4 0.0062432 0.261946 0.790927
3187 2 0.0299597 0.267638 0.785421
3189 4 0.0536763 0.273329 0.779916
3276 4 0.0459615 0.332775 0.760404
821 4 0.184475 0.280608 0.789002
820 2 0.175 0.257912 0.784497
1098 4 0.238769 0.306449 0.799802
1235 4 0.229917 0.324372 0.804286
1043 4 0.420942 0.247839 0.808528
1042 2 0.43644 0.258287 0.79192
1044 4 0.451938 0.268736 0.775312
1007 4 0.449035 0.27137 0.757053
1165 2 0.487629 0.271097 0.775858
1166 4 0.466304 0.276864 0.764147
814 2 0.0721755 0.364603 0.760099