ITEM: TIMESTEP
3410000
ITEM: NUMBER OF ATOMS
4590
ITEM: BOX BOUNDS pp pp pp
-9.9985700000000008e+00 9.9985700000000008e+00
-9.9985700000000008e+00 9.9985700000000008e+00
-9.9985700000000008e+00 9.9985700000000008e+00
ITEM: ATOMS id type xs ys zs
2576 4 0.0439083 0.0053568 0.0758506
702 4 0.128792 0.069601 0.0149742
566 4 0.135208 0.053464 0.00626593
700 2 0.11116 0.0814429 0.0281683
986 4 0.408314 0.0899546 0.00346071
746 4 0.478306 0.0477079 0.047825
2469 4 0.490809 0.0315027 0.0505353
745 2 0.466899 0.0470051 0.025586
747 4 0.455492 0.0463024 0.00334708
985 2 0.426652 0.0735876 0.998875
987 4 0.444989 0.0572205 0.99429
463 2 0.0634287 0.105089 0.0420419
464 4 0.0398853 0.099303 0.0481581
590 4 0.0369011 0.104059 0.0668009
589 2 0.0150813 0.102192 0.0788668
465 4 0.0869721 0.110875 0.0359257
701 4 0.093529 0.0932848 0.0413625
557 4 0.323404 0.0989288 0.0825115
558 4 0.35904 0.117415 0.0526943
556 2 0.341222 0.108172 0.0676029
866 4 0.360315 0.13646 0.0535691
865 2 0.363375 0.161148 0.0560837
827 4 0.375348 0.125517 0.0469693
826 2 0.387101 0.10786 0.0337296
828 4 0.398853 0.0902035 0.02049
554 4 0.0288151 0.209007 0.0388203
553 2 0.0501655 0.211182 0.0259905
555 4 0.0715159 0.213358 0.0131607
836 4 0.0786332 0.199379 0.000704051
835 2 0.102822 0.203872 0.00516458
666 4 0.340599 0.241102 0.0688728
664 2 0.348733 0.22037 0.0575065
665 4 0.356868 0.199638 0.0461401
867 4 0.366434 0.185836 0.0585984
2808 4 0.0547789 0.296176 0.0439892
2806 2 0.0305042 0.291024 0.0470508
2807 4 0.00622952 0.285872 0.0501125
573 4 0.334552 0.258784 0.0733354
356 4 0.303011 0.308871 0.0545025
572 4 0.314785 0.304616 0.0702665
355 2 0.297586 0.321481 0.0336045
571 2 0.324668 0.2817 0.0718009
1070 4 0.426565 0.257049 0.0732531
507 4 0.127126 0.345636 0.0717691
505 2 0.142543 0.360756 0.0591654
506 4 0.157961 0.375877 0.0465616
483 4 0.159972 0.389556 0.032432
481 2 0.181666 0.401337 0.0284592
482 4 0.20336 0.413117 0.0244864
609 4 0.220834 0.40206 0.0277308
357 4 0.292161 0.334091 0.0127065
902 4 0.289097 0.342865 0.996031
741 4 0.392496 0.372821 0.0795289
957 4 0.395755 0.401224 0.0225658
955 2 0.394391 0.389739 0.000398129
1787 4 0.0616806 0.48748 0.0843434
244 2 0.232657 0.483637 0.0394577
245 4 0.220789 0.477631 0.0606293
627 4 0.209121 0.466351 0.0699415
625 2 0.207831 0.441924 0.0751206
607 2 0.241628 0.415692 0.0303667
246 4 0.244526 0.489643 0.0182861
272 4 0.252656 0.497039 0.00258264
608 4 0.262422 0.429324 0.0330026
252 4 0.269391 0.437575 0.0501239
250 2 0.286172 0.446624 0.0339468
251 4 0.302953 0.455672 0.0177697
2289 4 0.314987 0.470173 0.00875587
226 2 0.47404 0.473733 0.0610972
227 4 0.494582 0.460286 0.0563687
228 4 0.453497 0.487181 0.0658256
282 4 0.501845 0.446091 0.0679627
525 4 0.437768 0.481558 0.0746323
16 1 0.0537669 0.0505934 0.150431
20 3 0.0529977 0.06332 0.131561
18 3 0.0451347 0.0294937 0.146108
1806 4 0.0531109 0.0154536 0.134294
1804 2 0.0565224 0.00934393 0.110289
17 3 0.0756373 0.0484316 0.157226
692 4 0.237753 0.0806858 0.14609
654 4 0.31636 0.00634262 0.163903
652 2 0.327878 0.0201069 0.146495
653 4 0.339397 0.0338712 0.129087
484 2 0.374765 0.0221459 0.109419
297 4 0.339206 0.0352234 0.110126
485 4 0.356611 0.0360538 0.119528
295 2 0.33524 0.0580216 0.100655
486 4 0.392919 0.008238 0.0993108
579 4 0.116729 0.135409 0.0921222
237 4 0.163482 0.145282 0.135896
577 2 0.134949 0.144324 0.106742
578 4 0.153169 0.153239 0.121361
476 4 0.157258 0.162795 0.138198
737 4 0.171669 0.158591 0.125204
235 2 0.170449 0.124024 0.147064
236 4 0.177416 0.102766 0.158232
691 2 0.216578 0.0905104 0.155049
693 4 0.195402 0.100335 0.164009
736 2 0.189788 0.174873 0.119568
449 4 0.180883 0.0889703 0.1716
582 4 0.255747 0.0891564 0.141068
580 2 0.275204 0.104796 0.142483
581 4 0.294661 0.120436 0.143899
29 3 0.30892 0.166181 0.158799
30 3 0.293063 0.132145 0.161591
296 4 0.331273 0.0808197 0.0911849
771 4 0.431241 0.124105 0.10009
769 2 0.435851 0.148677 0.100505
475 2 0.140821 0.173892 0.153425
738 4 0.207907 0.191155 0.113932
285 4 0.300274 0.175574 0.143501
354 4 0.314291 0.240043 0.148862
462 4 0.316398 0.234671 0.132225
460 2 0.326298 0.239823 0.10985
283 2 0.308394 0.199197 0.144597
284 4 0.316514 0.22282 0.145693
255 4 0.329988 0.233747 0.143323
253 2 0.347935 0.236556 0.160503
461 4 0.336198 0.244974 0.0874759
770 4 0.440461 0.173248 0.10092
1014 4 0.459888 0.173564 0.0976132
1013 4 0.470339 0.220159 0.112456
1012 2 0.465113 0.196861 0.105035
519 4 0.480337 0.237052 0.10844
454 2 0.0666481 0.328696 0.152132
455 4 0.0590253 0.312515 0.169603
756 4 0.249531 0.303236 0.12288
352 2 0.296652 0.255313 0.157855
612 4 0.255538 0.32022 0.132009
754 2 0.255331 0.288878 0.142512
755 4 0.261131 0.274521 0.162144
353 4 0.279013 0.270583 0.166848
1069 2 0.441013 0.275906 0.0810532
1071 4 0.45546 0.294764 0.0888533
322 2 0.450955 0.329244 0.0988235
324 4 0.439459 0.308451 0.0910353
517 2 0.483877 0.248626 0.130319
518 4 0.487417 0.260199 0.152198
647 4 0.0356413 0.382223 0.1044
620 4 0.022986 0.373182 0.091702
456 4 0.0742708 0.344877 0.134661
648 4 0.0758444 0.357742 0.121286
646 2 0.0557428 0.369983 0.112843
294 4 0.0807054 0.338977 0.116876
293 4 0.122708 0.336786 0.0898261
292 2 0.101707 0.337881 0.103351
610 2 0.239873 0.332127 0.116581
626 4 0.206541 0.417496 0.0802998
536 4 0.215693 0.398559 0.0822752
611 4 0.224209 0.344035 0.101153
535 2 0.216051 0.378635 0.0973774
537 4 0.216409 0.35871 0.11248
387 4 0.323121 0.414568 0.122372
739 2 0.388156 0.380513 0.102921
740 4 0.383816 0.388205 0.126312
385 2 0.345984 0.406133 0.127969
386 4 0.368846 0.397698 0.133566
495 4 0.386072 0.404073 0.138098
15 3 0.372006 0.378786 0.138906
11 1 0.38406 0.381528 0.158033
12 3 0.400332 0.365305 0.159125
14 3 0.394242 0.402378 0.158054
309 4 0.356652 0.371097 0.164993
323 4 0.462451 0.350037 0.106612
670 2 0.470622 0.380211 0.102219
672 4 0.451616 0.366975 0.11164
671 4 0.489629 0.393446 0.0927978
552 4 0.0726092 0.471792 0.0837201
550 2 0.0571392 0.45368 0.0913225
551 4 0.0416691 0.435568 0.0989249
242 4 0.0751934 0.485447 0.0977582
241 2 0.100011 0.486451 0.100629
243 4 0.124829 0.487455 0.1035
1440 4 0.140176 0.473574 0.100071
1438 2 0.164043 0.480629 0.102474
1439 4 0.18791 0.487685 0.104876
639 4 0.201478 0.491815 0.0902944
637 2 0.220918 0.497505 0.104953
638 4 0.240359 0.503195 0.119611
767 4 0.254402 0.495101 0.106894
303 4 0.309725 0.463803 0.0798469
768 4 0.291086 0.472056 0.0819155
301 2 0.310241 0.444516 0.0957509
302 4 0.310758 0.42523 0.111655
766 2 0.272744 0.483579 0.0944048
493 2 0.399165 0.424815 0.133249
494 4 0.412258 0.445557 0.128399
660 4 0.417098 0.464092 0.13236
524 4 0.419896 0.457108 0.114425
523 2 0.428832 0.469333 0.0945287
658 2 0.425126 0.479488 0.150352
19 3 0.0416254 0.0608019 0.167366
380 4 0.0585813 0.0643362 0.180779
379 2 0.0495957 0.0804018 0.1977
675 4 0.0760892 0.0578243 0.175073
673 2 0.10063 0.0588077 0.179761
674 4 0.12517 0.059791 0.184448
450 4 0.143095 0.0630849 0.191669
1505 4 0.138617 0.0453282 0.184709
1504 2 0.146326 0.0242649 0.195758
448 2 0.161989 0.0760276 0.181635
1506 4 0.154035 0.00320167 0.206808
22 3 0.380157 0.998347 0.226426
25 3 0.411496 0.00864398 0.243884
757 2 0.420123 0.042886 0.222556
759 4 0.417513 0.0272116 0.24186
758 4 0.422734 0.0585605 0.203251
512 4 0.0285361 0.112369 0.210826
381 4 0.04061 0.0964673 0.214622
511 2 0.0438161 0.132161 0.210797
513 4 0.0590961 0.151952 0.210768
339 4 0.0722269 0.166301 0.20436
27 3 0.325525 0.138961 0.178699
26 1 0.305226 0.147921 0.17263
28 3 0.293965 0.154634 0.191775
477 4 0.124385 0.184989 0.168652
337 2 0.0947088 0.171549 0.194757
363 4 0.117168 0.195899 0.182793
338 4 0.117191 0.176796 0.185155
362 4 0.132935 0.240769 0.198245
361 2 0.125051 0.218334 0.190519
372 4 0.136355 0.237474 0.216209
370 2 0.146532 0.24478 0.237848
723 4 0.23275 0.213405 0.2612
628 2 0.39677 0.20906 0.180781
630 4 0.382094 0.229295 0.180224
254 4 0.365883 0.239364 0.177684
765 4 0.382649 0.247473 0.173406
629 4 0.411446 0.188824 0.181337
311 4 0.477177 0.19547 0.166113
312 4 0.431383 0.190506 0.185581
310 2 0.45428 0.192988 0.175847
761 4 0.470667 0.210838 0.225948
749 4 0.0408055 0.312474 0.177758
750 4 0.0306855 0.305927 0.226291
395 4 0.0315077 0.286688 0.23402
748 2 0.0357455 0.3092 0.202025
300 4 0.145373 0.304305 0.174901
298 2 0.131858 0.317106 0.191594
299 4 0.118343 0.329907 0.208287
734 4 0.110606 0.331102 0.226668
278 4 0.263608 0.265338 0.179032
277 2 0.261237 0.281655 0.197828
279 4 0.258866 0.297972 0.216624
401 4 0.276571 0.305824 0.22412
496 2 0.307629 0.328403 0.21351
498 4 0.294619 0.312441 0.227692
400 2 0.268377 0.309437 0.247464
763 2 0.384437 0.270462 0.183073
764 4 0.386226 0.293452 0.192741
623 4 0.398906 0.310214 0.195207
528 4 0.458334 0.288956 0.206931
624 4 0.448522 0.304241 0.19703
622 2 0.423714 0.307227 0.196119
526 2 0.471472 0.27818 0.188589
527 4 0.48461 0.267404 0.170246
262 2 0.0563579 0.391942 0.206651
263 4 0.0768988 0.391616 0.192399
264 4 0.035817 0.392268 0.220904
2618 4 0.0247464 0.40414 0.233024
2617 2 0.00204431 0.407355 0.242997
602 4 0.0894592 0.379782 0.202053
601 2 0.105424 0.362633 0.210784
603 4 0.121388 0.345485 0.219516
497 4 0.320639 0.344366 0.199328
308 4 0.31804 0.343044 0.17992
307 2 0.337346 0.357071 0.172457
13 3 0.370171 0.379476 0.176507
290 4 0.158563 0.423107 0.233614
289 2 0.171015 0.42549 0.212063
291 4 0.183467 0.427874 0.190511
416 4 0.186459 0.437784 0.173289
415 2 0.195193 0.461141 0.175127
1430 4 0.208946 0.49425 0.19443
417 4 0.203928 0.484497 0.176964
713 4 0.375804 0.499541 0.253155
597 4 0.479656 0.465929 0.209403
659 4 0.433153 0.494883 0.168344
595 2 0.461781 0.476909 0.195798
596 4 0.443906 0.487889 0.182193
645 4 0.495865 0.459654 0.199299
234 4 0.00326271 0.0702505 0.301624
232 2 0.0156549 0.0486687 0.30404
1799 4 0.015718 0.0120906 0.308302
233 4 0.0280471 0.0270869 0.306457
1402 2 0.0591326 0.00929587 0.300288
1403 4 0.0353912 0.00999985 0.308101
1798 2 0.00545447 0.998173 0.326361
2756 4 0.991061 0.0819311 0.311251
1404 4 0.082874 0.00859188 0.292476
632 4 0.408064 0.0222282 0.257614
633 4 0.367563 0.037612 0.282587
631 2 0.387813 0.0299201 0.2701
257 4 0.367235 0.0386432 0.30199
698 4 0.364194 0.0217434 0.293323
256 2 0.362803 0.0540454 0.321181
350 4 0.426322 0.0157272 0.254522
349 2 0.448119 0.0097803 0.265232
744 4 0.486218 0.00328342 0.289861
742 2 0.49699 0.0171177 0.307687
351 4 0.469917 0.00383344 0.275942
397 2 0.0862671 0.140555 0.324295
399 4 0.0766158 0.117767 0.327863
398 4 0.0959183 0.163343 0.320726
249 4 0.209493 0.127351 0.322897
404 4 0.217322 0.128677 0.303679
403 2 0.205047 0.1475 0.292715
393 4 0.0965898 0.172358 0.303865
390 4 0.0819944 0.177197 0.31568
392 4 0.133403 0.172909 0.270024
391 2 0.114996 0.172634 0.286945
388 2 0.0822508 0.1959 0.332274
545 4 0.141653 0.186309 0.256652
371 4 0.156708 0.252086 0.259487
721 2 0.213802 0.199189 0.269204
544 2 0.165359 0.179152 0.260112
546 4 0.189066 0.171994 0.263572
405 4 0.192772 0.166322 0.28175
722 4 0.194854 0.184973 0.277207
377 4 0.314383 0.216639 0.321574
376 2 0.309278 0.240668 0.316909
420 4 0.395921 0.220551 0.289055
717 4 0.386104 0.232891 0.302723
760 2 0.465191 0.209585 0.250313
418 2 0.418824 0.211509 0.284708
331 2 0.466411 0.194734 0.314612
332 4 0.457758 0.19893 0.291532
419 4 0.441726 0.202466 0.280361
762 4 0.459715 0.208333 0.274677
394 2 0.0361171 0.286843 0.258595
442 2 0.0203722 0.267291 0.310735
364 2 0.0299711 0.325705 0.302609
396 4 0.0407265 0.286999 0.283169
443 4 0.0275417 0.287376 0.297683
365 4 0.0362021 0.304115 0.291642
733 2 0.118124 0.326022 0.249967
735 4 0.125641 0.320943 0.273267
677 4 0.14577 0.31935 0.278182
508 2 0.230275 0.322945 0.290468
676 2 0.167834 0.325092 0.288448
509 4 0.208634 0.335138 0.293324
510 4 0.251917 0.310751 0.287612
402 4 0.260183 0.313051 0.270809
345 4 0.270455 0.308237 0.287479
343 2 0.277213 0.286272 0.297331
344 4 0.28397 0.264307 0.307184
378 4 0.304174 0.264696 0.312244
715 2 0.377244 0.255539 0.296916
716 4 0.368383 0.278188 0.291109
542 4 0.373813 0.293929 0.302322
541 2 0.379704 0.306487 0.323126
751 2 0.491108 0.32758 0.333064
753 4 0.499623 0.334177 0.3105
407 4 0.0237629 0.364348 0.323879
366 4 0.0237402 0.347294 0.313575
548 4 0.0169001 0.364003 0.305467
547 2 0.0208104 0.388156 0.300319
549 4 0.0247206 0.41231 0.295171
2493 4 0.00679936 0.355179 0.319418
777 4 0.0413592 0.412504 0.30714
678 4 0.189899 0.330834 0.298713
435 4 0.19852 0.347719 0.303936
433 2 0.193934 0.368633 0.31685
434 4 0.189348 0.389546 0.329765
728 4 0.342736 0.42623 0.290901
2538 4 0.486608 0.342218 0.296977
775 2 0.0567059 0.430907 0.314281
776 4 0.0720526 0.449309 0.321423
414 4 0.0907905 0.443651 0.323295
1545 4 0.180314 0.474802 0.315715
1436 4 0.191472 0.490899 0.315493
727 2 0.357641 0.436064 0.308403
729 4 0.372545 0.445898 0.325906
1771 2 0.00895599 0.00470227 0.380638
2238 4 0.010865 0.0380604 0.397031
1772 4 0.0185163 0.0190875 0.398717
1782 4 0.0888326 0.0112356 0.40286
606 4 0.16615 0.00665519 0.374434
732 4 0.10601 0.0848085 0.372728
369 4 0.100374 0.074569 0.389832
367 2 0.0933544 0.0523283 0.398846
368 4 0.0863349 0.0300877 0.407861
604 2 0.172023 0.0258695 0.389317
1701 4 0.179 0.0636329 0.396384
1699 2 0.196032 0.0756719 0.382595
605 4 0.177897 0.0450839 0.404199
258 4 0.358371 0.0694476 0.340372
424 2 0.356398 0.0524583 0.377851
425 4 0.359728 0.0485792 0.402326
1580 4 0.365526 0.0294003 0.402769
426 4 0.353068 0.0563374 0.353376
1579 2 0.380677 0.0108046 0.409826
480 4 0.501766 0.0433315 0.38812
317 4 0.0586553 0.108948 0.330692
731 4 0.0749875 0.101298 0.337141
316 2 0.0394707 0.114283 0.345813
318 4 0.0202861 0.119619 0.360935
458 4 0.0042984 0.131324 0.365811
457 2 0.00877698 0.152891 0.377642
730 2 0.0904986 0.0930534 0.354934
1700 4 0.213064 0.087711 0.368805
247 2 0.218767 0.112649 0.34087
248 4 0.228041 0.0979471 0.358843
319 2 0.32415 0.149806 0.386848
321 4 0.331863 0.164449 0.368106
320 4 0.316438 0.135162 0.405589
684 4 0.299931 0.132581 0.416111
516 4 0.459138 0.162971 0.383262
575 4 0.461463 0.14347 0.383998
574 2 0.461583 0.12924 0.404557
514 2 0.472859 0.169622 0.363446
2653 2 0.00230582 0.217747 0.387556
459 4 0.0132555 0.174459 0.389473
2654 4 0.00853184 0.194576 0.394596
444 4 0.0132027 0.247206 0.323788
389 4 0.0825071 0.214602 0.348867
707 4 0.327934 0.222496 0.334249
706 2 0.333061 0.200929 0.345812
708 4 0.338188 0.179361 0.357376
333 4 0.475064 0.190539 0.337693
453 4 0.494696 0.193908 0.340826
515 4 0.48658 0.176273 0.343629
274 2 0.138882 0.320692 0.370699
276 4 0.155231 0.310272 0.386488
275 4 0.122533 0.331113 0.354909
375 4 0.161483 0.290509 0.384512
373 2 0.179875 0.281954 0.399131
374 4 0.198268 0.273398 0.413749
473 4 0.217262 0.265599 0.415068
543 4 0.385595 0.319045 0.343929
467 4 0.3703 0.256473 0.368621
466 2 0.3579 0.265396 0.388415
468 4 0.345499 0.274318 0.408209
615 4 0.402783 0.313394 0.351683
613 2 0.403381 0.314156 0.376668
561 4 0.486 0.317943 0.374818
752 4 0.482593 0.320983 0.355628
614 4 0.40398 0.314917 0.401653
406 2 0.0332384 0.360968 0.346769
408 4 0.0427139 0.357588 0.36966
347 4 0.0520284 0.354676 0.386501
346 2 0.0438708 0.365268 0.407629
618 4 0.0626437 0.353748 0.370469
617 4 0.107638 0.34291 0.351527
616 2 0.0851408 0.348329 0.360998
504 4 0.280416 0.407675 0.412531
502 2 0.303064 0.417875 0.409665
1543 2 0.159596 0.482221 0.327584
1544 4 0.138877 0.489641 0.339453
413 4 0.120724 0.481547 0.336278
412 2 0.105757 0.462599 0.329787
500 4 0.124291 0.493236 0.351243
669 4 0.330269 0.447328 0.408013
503 4 0.325712 0.428075 0.4068
335 4 0.390129 0.421032 0.405884
334 2 0.366443 0.427628 0.410427
437 4 0.374905 0.465806 0.329722
336 4 0.342756 0.434223 0.41497
436 2 0.38756 0.478385 0.347238
438 4 0.400214 0.490964 0.364754
593 4 0.417449 0.490653 0.35613
240 4 0.408074 0.414352 0.408278
2236 2 0.00772993 0.0524787 0.417217
1126 2 0.00708038 0.0418295 0.473651
1127 4 0.00769465 0.0573492 0.454056
2237 4 0.0045948 0.0668969 0.437403
720 4 0.0221744 0.0689475 0.446559
1128 4 0.00646611 0.0263097 0.493245
724 2 0.325092 0.0504391 0.469174
963 4 0.302381 0.0213132 0.487216
725 4 0.31486 0.0282037 0.474281
432 4 0.322062 0.019521 0.489875
726 4 0.335323 0.0726744 0.464068
961 2 0.285728 0.0106366 0.502509
642 4 0.455205 0.0559476 0.443249
2878 2 0.44801 0.0168688 0.442811
2880 4 0.461903 0.0369028 0.448362
469 2 0.995043 0.137081 0.463616
470 4 0.0127201 0.12116 0.45592
718 2 0.0269418 0.092854 0.452121
719 4 0.0317091 0.11676 0.457683
939 4 0.104251 0.157926 0.473811
1033 2 0.123955 0.147955 0.450929
1035 4 0.148363 0.144757 0.446546
1034 4 0.0995471 0.151153 0.455312
261 4 0.164824 0.14194 0.455636
259 2 0.174941 0.162864 0.464858
682 2 0.28108 0.145625 0.426096
1181 4 0.316635 0.12407 0.421345
1182 4 0.327213 0.0886585 0.455033
1180 2 0.321924 0.106364 0.438189
683 4 0.262229 0.158668 0.436081
640 2 0.453504 0.0808203 0.441342
576 4 0.461702 0.115011 0.425116
641 4 0.451803 0.105693 0.439436
306 4 0.448922 0.124509 0.435664
304 2 0.444125 0.13684 0.456881
305 4 0.439328 0.14917 0.478097
3158 4 0.426106 0.150037 0.493405
694 2 0.164347 0.213348 0.495525
695 4 0.178454 0.201202 0.478832
260 4 0.185058 0.183787 0.47408
687 4 0.236141 0.223544 0.455453
686 4 0.193828 0.199638 0.467237
685 2 0.214985 0.211591 0.461345
474 4 0.243733 0.235283 0.444749
599 4 0.251712 0.220276 0.447829
411 4 0.25052 0.23207 0.460642
472 2 0.230497 0.250441 0.429909
409 2 0.257431 0.237601 0.484026
600 4 0.270705 0.176677 0.432367
598 2 0.261209 0.198476 0.440098
488 4 0.261766 0.235465 0.447606
487 2 0.282357 0.24702 0.43938
489 4 0.302947 0.258576 0.431154
265 2 0.327625 0.294364 0.430294
266 4 0.314614 0.315518 0.433188
267 4 0.340637 0.273209 0.4274
348 4 0.0357132 0.375861 0.428758
2812 2 0.999248 0.35399 0.436907
2813 4 0.0208779 0.366534 0.43689
326 4 0.0334365 0.376674 0.448546
325 2 0.0526693 0.377461 0.464504
327 4 0.071902 0.378248 0.480462
7 3 0.0791967 0.392291 0.491063
6 1 0.097641 0.381859 0.500015
10 3 0.105712 0.366729 0.485029
813 4 0.244317 0.342055 0.458537
811 2 0.241545 0.342736 0.483377
927 4 0.408962 0.383964 0.50848
925 2 0.422911 0.404253 0.504125
681 4 0.0422797 0.4459 0.498638
709 2 0.139252 0.421678 0.490445
710 4 0.160946 0.426454 0.478967
774 4 0.176059 0.421035 0.49077
634 2 0.179663 0.446136 0.460489
635 4 0.178159 0.424154 0.47231
636 4 0.181167 0.468117 0.448669
667 2 0.329983 0.46623 0.424378
668 4 0.329698 0.485132 0.440742
239 4 0.438809 0.44856 0.427921
238 2 0.423442 0.431456 0.4181
586 2 0.435301 0.449339 0.469206
588 4 0.440169 0.457078 0.445934
926 4 0.436861 0.424542 0.49977
587 4 0.430432 0.441601 0.492478
1184 4 0.0573103 0.0191172 0.563929
3077 4 0.0442813 0.0290112 0.549896
3076 2 0.0285579 0.027298 0.530531
3078 4 0.0128346 0.0255847 0.511166
3111 4 0.012876 0.00931986 0.500628
1152 4 0.151683 0.0595476 0.53313
1150 2 0.148542 0.0720638 0.554546
342 4 0.162958 0.0434267 0.530476
340 2 0.182304 0.0299037 0.538725
2430 4 0.21903 0.00786556 0.543979
341 4 0.201649 0.0163806 0.546974
2428 2 0.241291 0.0128823 0.53376
2429 4 0.263553 0.0178991 0.523541
841 2 0.390806 0.0223547 0.526719
843 4 0.372031 0.0119654 0.513884
431 4 0.357002 0.00292128 0.521567
842 4 0.409581 0.0327441 0.539554
430 2 0.339532 0.0112211 0.505721
1217 4 0.428375 0.0239145 0.541047
877 2 0.0352055 0.151431 0.533367
878 4 0.0120764 0.148179 0.542292
938 4 0.072066 0.160906 0.511969
1272 4 0.076716 0.158632 0.530548
879 4 0.0583347 0.154682 0.524443
1199 4 0.00513882 0.167387 0.539369
937 2 0.0881583 0.159416 0.49289
1221 4 0.172151 0.152344 0.598044
3159 4 0.455558 0.129624 0.528285
3157 2 0.440832 0.139831 0.510845
1062 4 0.473697 0.121161 0.52856
1060 2 0.491884 0.104674 0.523807
1270 2 0.0872942 0.166758 0.551696
1258 2 0.121522 0.232546 0.539039
1260 4 0.142133 0.222505 0.529061
1271 4 0.0978724 0.174885 0.572844
696 4 0.150241 0.225493 0.512218
1259 4 0.100912 0.242586 0.549018
1244 4 0.0874043 0.184875 0.587404
898 2 0.295266 0.234112 0.533655
899 4 0.317857 0.234347 0.54437
857 4 0.324954 0.216577 0.548371
856 2 0.324061 0.194485 0.560046
900 4 0.272676 0.233878 0.522941
410 4 0.264342 0.243131 0.507411
858 4 0.323169 0.172392 0.571721
791 4 0.337054 0.231923 0.548159
790 2 0.354407 0.247669 0.556883
651 4 0.288294 0.338725 0.54707
792 4 0.37176 0.263414 0.565608
872 4 0.3785 0.281152 0.561252
1238 4 0.368878 0.277792 0.578428
871 2 0.394647 0.280828 0.542165
1237 2 0.356867 0.299711 0.577717
1239 4 0.344857 0.321629 0.577006
873 4 0.410794 0.280504 0.523077
9 3 0.0913941 0.371064 0.519582
711 4 0.117558 0.416902 0.501923
897 4 0.14274 0.377061 0.579808
8 3 0.113812 0.397853 0.504609
773 4 0.205205 0.410564 0.530033
1189 2 0.208016 0.407452 0.563685
1190 4 0.219937 0.406298 0.541737
803 4 0.214652 0.393403 0.528367
802 2 0.219462 0.369109 0.524926
804 4 0.224273 0.344815 0.521485
930 4 0.223138 0.409894 0.5227
650 4 0.242727 0.344866 0.527405
812 4 0.238773 0.343417 0.508217
649 2 0.26551 0.341796 0.537237
805 2 0.318336 0.338548 0.563834
806 4 0.306748 0.344801 0.542579
383 4 0.0614852 0.445919 0.499246
680 4 0.0389408 0.495439 0.504587
679 2 0.0406102 0.47067 0.501612
384 4 0.107563 0.430953 0.511636
382 2 0.0845243 0.438436 0.505441
569 4 0.1219 0.440179 0.52024
568 2 0.128582 0.43202 0.54291
570 4 0.135264 0.423861 0.565581
538 2 0.129106 0.483017 0.520394
539 4 0.121711 0.459336 0.523508
772 2 0.190632 0.415799 0.510402
928 2 0.244778 0.422032 0.525792
929 4 0.266418 0.434171 0.528884
1951 2 0.262422 0.476493 0.529127
1953 4 0.264243 0.452832 0.537003
1952 4 0.260601 0.500153 0.52125
1001 4 0.417413 0.479286 0.563264
1000 2 0.394538 0.487551 0.557465
1002 4 0.371664 0.495816 0.551666
1330 2 0.451236 0.496863 0.559837
662 4 0.429249 0.469247 0.550637
661 2 0.42901 0.45353 0.531192
663 4 0.428771 0.437813 0.511747
1911 4 0.425794 0.461763 0.567547
1332 4 0.436324 0.477765 0.566008
1151 4 0.145401 0.08458 0.575963
2374 2 0.158913 0.0119641 0.628848
2375 4 0.159888 0.0367141 0.625433
1057 2 0.141104 0.0624059 0.612285
1058 4 0.143642 0.0472166 0.631983
1059 4 0.138566 0.0775952 0.592587
950 4 0.225481 0.017679 0.640731
949 2 0.241112 0.0331835 0.652582
951 4 0.256743 0.048688 0.664434
1031 4 0.26827 0.0539474 0.648774
1030 2 0.282955 0.0654461 0.632121
2400 4 0.328696 0.00470811 0.623612
1032 4 0.29764 0.0769447 0.615469
43 3 0.445747 0.0710165 0.638123
45 3 0.468935 0.0469335 0.655444
41 1 0.455963 0.0654485 0.658198
44 3 0.468947 0.083172 0.665663
1154 4 0.163772 0.13579 0.593198
1155 4 0.134401 0.0955753 0.588634
1153 2 0.149087 0.115683 0.590916
1211 4 0.239382 0.167161 0.65413
1219 2 0.19164 0.168001 0.597569
810 4 0.481238 0.0960583 0.657183
808 2 0.485902 0.107367 0.635376
809 4 0.490565 0.118676 0.613569
3008 4 0.494644 0.108297 0.597767
1209 4 0.113107 0.161199 0.633949
1207 2 0.105023 0.157958 0.657387
1245 4 0.115731 0.180441 0.628375
1243 2 0.101568 0.182658 0.60789
1220 4 0.211129 0.183658 0.597094
1210 2 0.230416 0.178005 0.633461
1212 4 0.221451 0.188848 0.612792
796 2 0.207453 0.220196 0.588094
798 4 0.220741 0.201585 0.598205
797 4 0.194164 0.238807 0.577983
3123 4 0.492397 0.227389 0.603436
905 4 0.488645 0.2453 0.611293
983 4 0.00598043 0.32904 0.660762
807 4 0.329925 0.332295 0.585089
906 4 0.458955 0.281985 0.594759
904 2 0.4738 0.263642 0.603026
953 4 0.456305 0.300112 0.587847
952 2 0.473067 0.318624 0.589081
982 2 0.0292218 0.337669 0.657514
1041 4 0.0664203 0.359638 0.654866
1039 2 0.0679881 0.378987 0.639107
1040 4 0.0695559 0.398335 0.623348
993 4 0.0598301 0.416311 0.622386
984 4 0.0524631 0.346299 0.654266
3263 4 0.0703057 0.340166 0.659426
1137 4 0.133426 0.377717 0.597336
1135 2 0.116438 0.359732 0.593713
1136 4 0.0994497 0.341747 0.590091
895 2 0.160172 0.394071 0.585461
1028 4 0.193864 0.397976 0.653258
1027 2 0.192375 0.403697 0.628963
1029 4 0.190885 0.409418 0.604669
1068 4 0.186523 0.390327 0.668968
896 4 0.177604 0.411081 0.591115
1206 4 0.485363 0.403946 0.619928
954 4 0.489829 0.337135 0.590315
3307 2 0.497569 0.372113 0.613898
3308 4 0.498135 0.352765 0.59807
3182 4 0.503885 0.408556 0.622643
991 2 0.0396356 0.427128 0.612368
992 4 0.0194411 0.437945 0.602351
1191 4 0.196095 0.408606 0.585634
1172 4 0.190852 0.42528 0.594271
1160 4 0.197087 0.48944 0.591861
1171 2 0.190532 0.450025 0.597842
1173 4 0.190212 0.47477 0.601413
1187 4 0.18222 0.492351 0.603558
1186 2 0.168323 0.498765 0.62333
1909 2 0.42891 0.454529 0.591278
1268 4 0.458955 0.483826 0.65906
1267 2 0.451434 0.46478 0.644713
1204 2 0.464172 0.417204 0.619346
1910 4 0.432026 0.447295 0.615008
1269 4 0.443912 0.445733 0.630366
1205 4 0.44298 0.430461 0.618763
2168 4 0.478422 0.488772 0.661739
1284 4 0.107637 0.0500002 0.743231
1282 2 0.117393 0.0677958 0.728627
1201 2 0.20244 0.0474941 0.729289
1203 4 0.201258 0.0660169 0.712535
1226 4 0.193114 0.0817722 0.704443
1148 4 0.208892 0.0830896 0.715566
1202 4 0.203623 0.0289713 0.746043
42 3 0.439693 0.06104 0.67385
1075 2 0.00444887 0.124175 0.71882
1077 4 0.0246527 0.138901 0.71919
850 2 0.064725 0.149878 0.706596
852 4 0.0416714 0.148478 0.716175
864 4 0.0351615 0.146904 0.734066
1214 4 0.0254987 0.1583 0.721686
851 4 0.0877786 0.151278 0.697018
1283 4 0.12715 0.0855914 0.714022
1227 4 0.145525 0.0933746 0.714513
909 4 0.10704 0.146209 0.69535
907 2 0.118353 0.125705 0.704114
908 4 0.129666 0.105202 0.712877
1208 4 0.0969402 0.154717 0.680825
1107 4 0.101298 0.164835 0.697424
888 4 0.243774 0.157528 0.670093
1225 2 0.16932 0.0875734 0.709478
1147 2 0.225946 0.0983994 0.725565
1149 4 0.242999 0.113709 0.735563
829 2 0.320592 0.149607 0.692986
830 4 0.300309 0.164027 0.695397
887 4 0.282519 0.162772 0.701271
886 2 0.263147 0.16015 0.685682
831 4 0.340875 0.135186 0.690575
1142 4 0.3561 0.145112 0.699884
1141 2 0.37607 0.156374 0.709861
1026 4 0.413458 0.161009 0.725329
1143 4 0.396041 0.167635 0.719837
3426 4 0.474613 0.0979804 0.675607
1163 4 0.487822 0.0839735 0.670835
1025 4 0.445081 0.122602 0.730395
3424 2 0.465804 0.104348 0.698124
3425 4 0.456996 0.110715 0.720642
3269 4 0.462033 0.116141 0.738662
1024 2 0.429269 0.141806 0.727862
3268 2 0.475143 0.129993 0.754831
845 4 0.447298 0.104215 0.736534
1213 2 0.0112546 0.178832 0.722519
1105 2 0.114218 0.181438 0.710937
1106 4 0.127138 0.19804 0.72445
1130 4 0.144628 0.207954 0.720799
1129 2 0.154158 0.21285 0.743391
978 4 0.29449 0.17578 0.709971
976 2 0.305415 0.191544 0.726011
977 4 0.31634 0.207309 0.742052
916 2 0.331181 0.241116 0.738945
1262 4 0.403592 0.173116 0.737043
1194 4 0.411757 0.179604 0.720709
1192 2 0.420174 0.190823 0.700009
1193 4 0.428592 0.202041 0.67931
3262 2 0.0772836 0.32944 0.680907
893 4 0.0697853 0.319301 0.715717
892 2 0.063225 0.33167 0.736433
3264 4 0.0842616 0.318714 0.702388
779 4 0.0823923 0.303996 0.715534
778 2 0.100509 0.290716 0.726517
780 4 0.118625 0.277437 0.7375
1065 4 0.251835 0.322095 0.693243
1064 4 0.301683 0.323564 0.696958
1063 2 0.276759 0.32283 0.6951
946 2 0.327132 0.290018 0.707536
948 4 0.310661 0.308394 0.703508
947 4 0.343602 0.271642 0.711563
917 4 0.332438 0.263553 0.727983
1008 4 0.472263 0.272165 0.693834
1006 2 0.467341 0.267691 0.717937
1007 4 0.462419 0.263217 0.742039
941 4 0.148937 0.377008 0.710911
1067 4 0.143253 0.380042 0.691829
940 2 0.137723 0.376598 0.733254
1066 2 0.164888 0.385184 0.680399
884 4 0.0650697 0.456422 0.732167
1139 4 0.307145 0.458281 0.698831
1138 2 0.321075 0.455463 0.719402
1140 4 0.335004 0.452645 0.739974
1100 4 0.400968 0.439008 0.746085
1099 2 0.421107 0.450208 0.736383
1101 4 0.441246 0.461409 0.72668
3330 4 0.455897 0.471102 0.719102
3328 2 0.463656 0.454455 0.702136
1251 4 0.454155 0.470244 0.737955
3329 4 0.471414 0.437807 0.68517
1249 2 0.458662 0.493301 0.746514
834 4 0.0259284 0.0830872 0.803416
785 4 0.0115985 0.079697 0.818969
2390 4 0.146259 0.00640714 0.78515
2048 4 0.157391 0.996363 0.773291
2047 2 0.174064 0.0138477 0.766853
2049 4 0.190738 0.0313325 0.760414
2254 2 0.23152 0.0154724 0.767967
2256 4 0.207781 0.0219324 0.763506
2255 4 0.255259 0.00901244 0.772429
1113 4 0.358834 0.0516989 0.798959
1111 2 0.364249 0.0697966 0.81534
979 2 0.413658 0.0213937 0.832124
2442 4 0.448841 0.0104153 0.811176
2321 4 0.443951 0.0254575 0.800437
2322 4 0.44049 0.0456664 0.754826
2320 2 0.442221 0.0355619 0.777631
846 4 0.441489 0.0631981 0.764545
980 4 0.433197 0.0212637 0.816523
832 2 0.030664 0.107196 0.798779
862 2 0.0390968 0.146151 0.758747
863 4 0.0430321 0.145398 0.783427
833 4 0.0353996 0.131305 0.794141
1125 4 0.0524353 0.138323 0.798844
1123 2 0.0645378 0.146379 0.819187
1124 4 0.0766404 0.154434 0.839529
1257 4 0.251552 0.119297 0.752645
1255 2 0.241256 0.121705 0.775303
921 4 0.220337 0.137263 0.807531
919 2 0.205488 0.156731 0.812595
840 4 0.23722 0.131247 0.815614
1256 4 0.23096 0.124114 0.797961
838 2 0.258342 0.140272 0.825493
1112 4 0.369665 0.0878943 0.831721
818 4 0.388025 0.0964621 0.83527
817 2 0.386702 0.121267 0.832417
819 4 0.385379 0.146072 0.829564
1085 4 0.367692 0.152214 0.834782
844 2 0.444393 0.0837067 0.75054
3270 4 0.488253 0.143845 0.771
1146 4 0.481112 0.162466 0.773492
34 3 0.113635 0.182125 0.817574
1131 4 0.163689 0.217745 0.765983
822 4 0.168795 0.232647 0.777671
1277 4 0.167408 0.214365 0.785309
1276 2 0.174803 0.202928 0.806278
920 4 0.190639 0.1762 0.81766
1278 4 0.182198 0.191491 0.827247
918 4 0.329925 0.218678 0.749907
1298 4 0.321957 0.203432 0.759706
1297 2 0.33745 0.194186 0.777017
1299 4 0.352943 0.184941 0.794328
1086 4 0.35192 0.193921 0.812144
50 3 0.403792 0.206339 0.811598
1084 2 0.359806 0.173068 0.823463
1261 2 0.414461 0.183985 0.756764
46 1 0.426045 0.206039 0.806766
49 3 0.431788 0.225025 0.794725
1043 4 0.434613 0.211831 0.777903
48 3 0.438395 0.205066 0.826386
47 3 0.43079 0.187458 0.794062
1263 4 0.42533 0.194854 0.776485
1145 4 0.443394 0.194334 0.7814
1144 2 0.462253 0.1784 0.777446
1042 2 0.444697 0.228894 0.76266
1044 4 0.45478 0.245958 0.747418
820 2 0.165108 0.255115 0.788004
821 4 0.16142 0.277583 0.798337
1236 4 0.197226 0.328364 0.780143
1234 2 0.218537 0.329415 0.793179
1235 4 0.239847 0.330466 0.806214
1166 4 0.470855 0.253337 0.756603
1165 2 0.490498 0.259546 0.770771
894 4 0.0566647 0.344039 0.757149
3275 4 0.00367423 0.357453 0.768906