ITEM: TIMESTEP
1470000
ITEM: NUMBER OF ATOMS
4590
ITEM: BOX BOUNDS pp pp pp
-9.9985700000000008e+00 9.9985700000000008e+00
-9.9985700000000008e+00 9.9985700000000008e+00
-9.9985700000000008e+00 9.9985700000000008e+00
ITEM: ATOMS id type xs ys zs
463 2 0.0369805 0.0729116 0.0216962
465 4 0.0502621 0.0534371 0.0300343
701 4 0.058504 0.0562394 0.0468827
2576 4 0.0285238 0.0128131 0.0674802
2575 2 0.00817203 0.0160704 0.0816355
700 2 0.0833194 0.0592186 0.0475895
702 4 0.108135 0.0621977 0.0482963
566 4 0.127408 0.0623419 0.0516088
565 2 0.146612 0.0778433 0.047593
491 4 0.268323 0.00804335 0.0291828
2264 4 0.263029 0.017372 0.0129179
2263 2 0.263789 0.0420536 0.008991
2265 4 0.264548 0.0667352 0.00506408
557 4 0.335511 0.0808837 0.0860929
745 2 0.466546 0.0450867 0.00646072
746 4 0.470566 0.0404312 0.0306959
2469 4 0.480702 0.0233106 0.0310732
2467 2 0.494465 0.00504103 0.0411722
464 4 0.0236989 0.0923861 0.0133582
590 4 0.0212683 0.122785 0.0592225
589 2 0.00506908 0.119467 0.0779777
422 4 0.113389 0.134641 0.994884
567 4 0.165815 0.0933447 0.0435771
359 4 0.232443 0.125549 0.00701838
867 4 0.335026 0.166733 0.0149132
558 4 0.324355 0.127684 0.072456
865 2 0.349825 0.147594 0.0212263
866 4 0.364624 0.128455 0.0275395
827 4 0.374921 0.121362 0.0107049
556 2 0.329933 0.104284 0.0792744
554 4 0.0375921 0.218487 0.0211706
553 2 0.0601611 0.229058 0.0191494
555 4 0.0827301 0.239628 0.0171282
835 2 0.116404 0.241598 0.00402914
837 4 0.139616 0.232369 0.00292945
665 4 0.32088 0.180793 0.0175493
666 4 0.317769 0.227301 0.0356618
664 2 0.319324 0.204047 0.0266055
573 4 0.319216 0.243381 0.0458288
461 4 0.325091 0.226814 0.0542237
460 2 0.328338 0.227086 0.0790141
1070 4 0.385376 0.214895 0.062375
1069 2 0.394985 0.237759 0.0655493
771 4 0.439248 0.162859 0.0658288
1012 2 0.496233 0.214078 0.069596
769 2 0.463443 0.167117 0.070478
770 4 0.487639 0.171376 0.0751271
1014 4 0.496398 0.189088 0.0704233
294 4 0.0647052 0.295194 0.0472105
2808 4 0.00489253 0.284836 0.0250759
836 4 0.0931927 0.250828 0.00512883
292 2 0.0861635 0.294808 0.0343819
507 4 0.118167 0.295744 0.0388473
293 4 0.107622 0.294422 0.0215534
505 2 0.141214 0.30271 0.0455927
506 4 0.164261 0.309676 0.0523382
483 4 0.165645 0.329525 0.052475
571 2 0.31003 0.266405 0.0425609
356 4 0.306686 0.30872 0.0324767
572 4 0.300844 0.289429 0.0392931
355 2 0.289571 0.320416 0.0184953
357 4 0.272456 0.332111 0.00451395
1071 4 0.404594 0.260623 0.0687236
324 4 0.414633 0.258733 0.0499722
322 2 0.426827 0.280511 0.0514442
672 4 0.443736 0.31942 0.0611872
323 4 0.439022 0.30229 0.0529162
620 4 0.0116144 0.3617 0.0655175
647 4 0.0289888 0.355557 0.0559199
646 2 0.0459812 0.34752 0.0724075
481 2 0.185425 0.344817 0.0522765
609 4 0.214564 0.376653 0.0483122
607 2 0.236863 0.386419 0.054018
482 4 0.205206 0.36011 0.052078
608 4 0.259162 0.396184 0.0597237
252 4 0.272564 0.41259 0.0568332
957 4 0.355732 0.350841 0.0143132
670 2 0.457958 0.33741 0.0711506
671 4 0.472179 0.355401 0.081114
280 2 0.476828 0.398646 0.0740417
2651 4 0.488167 0.36032 0.0709201
552 4 0.106407 0.491209 0.0819725
1787 4 0.112204 0.494158 0.063859
244 2 0.242396 0.486472 0.0508078
245 4 0.239301 0.470928 0.0701463
272 4 0.240693 0.498886 0.0129805
250 2 0.281396 0.432898 0.0452249
251 4 0.290228 0.453206 0.0336167
523 2 0.355171 0.495697 0.0312988
525 4 0.349953 0.478853 0.0490248
282 4 0.475753 0.423097 0.068925
226 2 0.463364 0.453533 0.0414107
228 4 0.453151 0.473918 0.0311458
227 4 0.473577 0.433149 0.0516755
563 4 0.452158 0.492193 0.0269197
16 1 0.0486405 0.0588196 0.146417
20 3 0.02689 0.0525004 0.148791
1806 4 0.0576037 0.0272589 0.137726
18 3 0.0626524 0.041049 0.151543
17 3 0.0523505 0.0651673 0.12462
1804 2 0.0717497 0.0133669 0.122492
19 3 0.0532273 0.0767984 0.16035
1505 4 0.171801 0.0408699 0.152913
450 4 0.174246 0.0567102 0.14031
448 2 0.176622 0.0812887 0.136381
1504 2 0.182595 0.0253575 0.169284
653 4 0.319659 0.0168044 0.0770094
652 2 0.31235 0.0181071 0.100885
654 4 0.305041 0.0194098 0.124761
1661 4 0.304592 0.00396014 0.137518
484 2 0.39356 0.00211622 0.101492
296 4 0.352794 0.0809141 0.0953925
295 2 0.360206 0.0579416 0.101912
297 4 0.367618 0.0349691 0.108431
485 4 0.378121 0.0180714 0.112992
237 4 0.152764 0.155617 0.12607
578 4 0.136996 0.143151 0.130008
577 2 0.114015 0.133699 0.127232
579 4 0.0910342 0.124246 0.124457
235 2 0.171075 0.138594 0.125751
236 4 0.189386 0.12157 0.125432
693 4 0.195356 0.112326 0.140652
449 4 0.178999 0.105867 0.132453
691 2 0.217474 0.118143 0.150758
310 2 0.429415 0.151089 0.168149
337 2 0.0801525 0.204553 0.160619
339 4 0.0564572 0.21211 0.15805
476 4 0.143488 0.173197 0.119813
475 2 0.131217 0.187715 0.136056
477 4 0.118947 0.202233 0.152299
737 4 0.158545 0.186688 0.113889
736 2 0.172468 0.207008 0.109595
738 4 0.186391 0.227328 0.105302
283 2 0.323239 0.20769 0.146479
462 4 0.331585 0.227357 0.103805
284 4 0.329544 0.226461 0.131212
255 4 0.338403 0.238257 0.117761
254 4 0.386638 0.24138 0.130582
253 2 0.362521 0.239819 0.124171
630 4 0.400391 0.22818 0.134225
628 2 0.407158 0.204213 0.136461
765 4 0.390716 0.236612 0.14846
354 4 0.331462 0.246134 0.133325
629 4 0.413925 0.180247 0.138697
312 4 0.420688 0.169443 0.153585
749 4 0.085144 0.299459 0.144746
456 4 0.0782607 0.331786 0.0777254
353 4 0.301777 0.282259 0.151059
754 2 0.276063 0.310916 0.142921
755 4 0.28309 0.288759 0.152133
278 4 0.287679 0.272042 0.160615
352 2 0.31662 0.264197 0.142192
763 2 0.400014 0.253063 0.164834
648 4 0.0629736 0.339483 0.088895
455 4 0.114128 0.343627 0.110498
454 2 0.0961945 0.337707 0.0941116
537 4 0.206729 0.394279 0.139733
535 2 0.205123 0.404547 0.116992
611 4 0.217174 0.376915 0.134685
610 2 0.234022 0.358703 0.137789
536 4 0.203517 0.414814 0.0942505
756 4 0.269035 0.333072 0.133708
612 4 0.25087 0.34049 0.140893
741 4 0.371724 0.3663 0.095972
739 2 0.381792 0.377401 0.115986
740 4 0.391861 0.388502 0.136001
15 3 0.392359 0.375979 0.151049
385 2 0.364171 0.401616 0.158918
386 4 0.386933 0.395081 0.150893
495 4 0.404122 0.400654 0.143321
11 1 0.413915 0.377249 0.158288
281 4 0.477902 0.374195 0.0791584
12 3 0.424817 0.35767 0.153095
14 3 0.424761 0.394881 0.147806
1465 2 0.00982602 0.486885 0.145206
551 4 0.0933926 0.443126 0.0775681
550 2 0.0998999 0.467167 0.0797703
627 4 0.244206 0.464205 0.0889512
625 2 0.226695 0.446689 0.0855327
626 4 0.209183 0.429172 0.0821141
767 4 0.258389 0.466672 0.127942
638 4 0.263473 0.486375 0.132405
766 2 0.261988 0.449042 0.145304
301 2 0.306833 0.422697 0.163101
768 4 0.265586 0.431413 0.162666
302 4 0.331683 0.423315 0.160404
494 4 0.409991 0.446174 0.123468
493 2 0.407056 0.423414 0.133394
660 4 0.410861 0.460216 0.139393
658 2 0.425768 0.476222 0.151507
2480 4 0.00263372 0.00275396 0.210996
1422 4 0.021631 0.999363 0.209689
673 2 0.126153 0.0431159 0.194413
675 4 0.105398 0.0318957 0.186137
674 4 0.146909 0.0543361 0.202689
689 4 0.200088 0.0187888 0.201869
1506 4 0.19339 0.00984517 0.185656
688 2 0.211571 0.0051003 0.21936
21 1 0.387688 0.00846403 0.223577
25 3 0.404503 0.0206162 0.214183
22 3 0.367474 0.0179079 0.217979
23 3 0.389844 0.0085028 0.24668
757 2 0.41097 0.061999 0.200643
759 4 0.409133 0.038796 0.209777
351 4 0.460896 0.0215294 0.248721
349 2 0.43937 0.0260341 0.236826
350 4 0.417844 0.0305388 0.22493
380 4 0.0378673 0.0735582 0.170983
512 4 0.046956 0.113043 0.220447
379 2 0.0358373 0.0861131 0.19251
381 4 0.0338073 0.098668 0.214038
511 2 0.058097 0.131583 0.23299
513 4 0.0692381 0.150122 0.245533
692 4 0.239593 0.123959 0.160863
721 2 0.193882 0.136522 0.237532
723 4 0.195965 0.112495 0.230935
722 4 0.1918 0.16055 0.24413
582 4 0.253592 0.110335 0.168608
580 2 0.271665 0.116428 0.184777
581 4 0.289737 0.122521 0.200945
30 3 0.293776 0.14159 0.197425
26 1 0.312081 0.142736 0.210925
29 3 0.312911 0.12411 0.224737
27 3 0.310692 0.161622 0.223985
28 3 0.33135 0.143918 0.198053
758 4 0.412807 0.085202 0.19151
311 4 0.438142 0.132735 0.182714
338 4 0.103848 0.196996 0.163187
363 4 0.117256 0.208208 0.170904
362 4 0.127829 0.23022 0.214544
361 2 0.122542 0.219214 0.192724
372 4 0.133747 0.242834 0.228433
370 2 0.156281 0.245724 0.238874
371 4 0.178816 0.248615 0.249316
546 4 0.184456 0.177709 0.249945
285 4 0.316935 0.188919 0.161747
521 4 0.456614 0.175643 0.222695
520 2 0.481409 0.178209 0.224646
394 2 0.0639632 0.294569 0.230586
396 4 0.0535404 0.301577 0.252206
750 4 0.0711245 0.296465 0.192654
748 2 0.0781343 0.297962 0.1687
395 4 0.074386 0.287561 0.208966
300 4 0.118134 0.327551 0.201049
279 4 0.264936 0.255921 0.202131
277 2 0.276308 0.263981 0.181373
307 2 0.336186 0.285544 0.223355
309 4 0.3232 0.292816 0.203264
308 4 0.349172 0.278272 0.243446
764 4 0.409312 0.269513 0.181208
623 4 0.41039 0.286946 0.191883
526 2 0.48526 0.280634 0.180705
528 4 0.470026 0.293134 0.196095
622 2 0.432948 0.293399 0.200525
624 4 0.455506 0.299853 0.209166
262 2 0.044535 0.402299 0.240978
264 4 0.0197519 0.402946 0.244227
263 4 0.0693181 0.401651 0.237728
298 2 0.126377 0.342118 0.219624
299 4 0.13462 0.356684 0.238199
290 4 0.161126 0.385681 0.21811
289 2 0.168647 0.406916 0.207262
387 4 0.34141 0.408151 0.166942
13 3 0.414377 0.380218 0.181296
2860 2 0.466056 0.417587 0.242685
2618 4 0.0153826 0.43845 0.239348
1757 4 0.0852225 0.496386 0.230324
416 4 0.180148 0.442747 0.209554
417 4 0.18147 0.492735 0.209227
415 2 0.180809 0.467741 0.209391
291 4 0.176168 0.428152 0.196415
303 4 0.281983 0.422079 0.165798
659 4 0.440676 0.492228 0.163621
645 4 0.498142 0.44519 0.207107
597 4 0.48459 0.44976 0.191647
595 2 0.468252 0.467513 0.185081
596 4 0.451915 0.485266 0.178515
2861 4 0.447886 0.427706 0.228805
1568 4 0.450064 0.504729 0.17441
231 4 0.435506 0.494402 0.18222
1799 4 0.0194696 0.022759 0.312351
233 4 0.0148739 0.0175261 0.293941
1402 2 0.0578541 0.0127273 0.30229
1403 4 0.0330627 0.015547 0.300673
232 2 0.0134792 0.0391733 0.281506
234 4 0.0120845 0.0608205 0.269071
1404 4 0.0826455 0.00990769 0.303907
1518 4 0.363367 0.000677422 0.320808
697 2 0.372477 0.0339652 0.321196
699 4 0.367935 0.0139805 0.306873
633 4 0.379652 0.072121 0.327727
743 4 0.486992 0.0519185 0.303963
744 4 0.464751 0.0266279 0.266998
742 2 0.475871 0.0392732 0.285481
479 4 0.477781 0.0464423 0.31932
2664 4 0.496311 0.0397789 0.316079
399 4 0.0801461 0.0923395 0.319013
398 4 0.0999056 0.134139 0.299959
397 2 0.0900259 0.113239 0.309486
393 4 0.107505 0.145383 0.28625
390 4 0.106117 0.151915 0.305091
388 2 0.106135 0.164657 0.326605
248 4 0.210966 0.102081 0.327762
249 4 0.188179 0.14655 0.325772
247 2 0.199572 0.124316 0.326767
404 4 0.192387 0.157111 0.308702
403 2 0.195625 0.163058 0.284633
632 4 0.376261 0.101332 0.287281
631 2 0.377956 0.0867267 0.307504
333 4 0.450573 0.142086 0.306938
515 4 0.44983 0.146414 0.32662
331 2 0.453629 0.165436 0.298535
444 4 0.0326907 0.25105 0.282635
391 2 0.116403 0.163232 0.271169
544 2 0.161331 0.18712 0.248582
545 4 0.138206 0.196531 0.24722
392 4 0.125302 0.18108 0.256088
405 4 0.198864 0.169006 0.260564
401 4 0.214217 0.236209 0.274377
420 4 0.397542 0.22336 0.284867
717 4 0.39747 0.239834 0.295241
332 4 0.456684 0.188786 0.290132
418 2 0.417986 0.20898 0.284234
419 4 0.43843 0.194599 0.2836
760 2 0.472799 0.221316 0.289948
762 4 0.452368 0.207027 0.288057
761 4 0.493229 0.235606 0.291839
443 4 0.046861 0.297211 0.26963
365 4 0.0396304 0.31314 0.261456
364 2 0.0225558 0.32976 0.269034
442 2 0.0397758 0.27413 0.276133
400 2 0.220305 0.254669 0.290105
402 4 0.226394 0.273128 0.305833
345 4 0.235809 0.274246 0.323404
510 4 0.230096 0.289948 0.31498
508 2 0.21973 0.311877 0.32105
509 4 0.209364 0.333806 0.32712
496 2 0.330816 0.28936 0.28004
498 4 0.31537 0.299543 0.296859
343 2 0.256123 0.261035 0.329566
497 4 0.346262 0.279176 0.263221
715 2 0.401432 0.264508 0.296051
716 4 0.405395 0.289182 0.296861
542 4 0.406682 0.29611 0.315545
541 2 0.415604 0.319467 0.315721
602 4 0.0876962 0.397145 0.247375
548 4 0.0272024 0.375826 0.33361
547 2 0.0327025 0.4002 0.332678
366 4 0.00548122 0.34638 0.276612
603 4 0.130286 0.371146 0.250664
601 2 0.108991 0.384145 0.249019
734 4 0.145914 0.359049 0.253749
733 2 0.145502 0.354115 0.278258
735 4 0.14509 0.349181 0.302766
677 4 0.154475 0.356068 0.318759
676 2 0.17929 0.35411 0.321113
435 4 0.222135 0.347278 0.319494
433 2 0.229898 0.36701 0.332743
678 4 0.204106 0.352152 0.323467
728 4 0.377708 0.363667 0.304234
727 2 0.362488 0.382739 0.309692
729 4 0.347268 0.401811 0.31515
615 4 0.416791 0.361899 0.311656
437 4 0.335937 0.412082 0.30037
543 4 0.424525 0.342824 0.315898
613 2 0.42891 0.383458 0.315329
2538 4 0.481319 0.385765 0.321768
2536 2 0.48045 0.39549 0.29875
614 4 0.44103 0.405018 0.319002
2537 4 0.479581 0.405216 0.275731
2862 4 0.484226 0.407469 0.256564
753 4 0.475669 0.378651 0.340081
777 4 0.0559151 0.426309 0.324952
775 2 0.0782807 0.436 0.319381
549 4 0.0382026 0.424573 0.331747
2463 4 0.0126165 0.49909 0.332804
414 4 0.10431 0.462598 0.322997
776 4 0.100646 0.445692 0.313811
412 2 0.124154 0.469778 0.336408
438 4 0.326115 0.46039 0.291969
436 2 0.331026 0.436236 0.29617
594 4 0.393445 0.466765 0.31977
1798 2 0.00983678 0.0127972 0.333163
2238 4 0.0300699 0.037824 0.411092
1772 4 0.0322368 0.0185818 0.406099
1771 2 0.0203373 0.00688504 0.387478
1800 4 0.000203907 0.00283535 0.353975
1782 4 0.0927615 0.0175778 0.410359
369 4 0.101416 0.0455896 0.368322
367 2 0.0904317 0.0275666 0.381727
732 4 0.0917935 0.0615123 0.372725
368 4 0.0794476 0.00954355 0.395132
605 4 0.164816 0.0777753 0.373645
730 2 0.0839321 0.0780599 0.355709
1701 4 0.172243 0.0623488 0.362886
1699 2 0.191006 0.072967 0.350222
698 4 0.377018 0.0539499 0.33552
256 2 0.400117 0.0573361 0.362307
257 4 0.38584 0.0687896 0.345274
424 2 0.401121 0.0413797 0.416322
441 4 0.346481 0.00391622 0.365241
1428 4 0.466597 0.00209725 0.391768
258 4 0.414395 0.0458827 0.379341
478 2 0.464861 0.0540246 0.33934
426 4 0.411006 0.0547523 0.397649
480 4 0.451941 0.0616068 0.359359
458 4 0.0257389 0.157283 0.368434
318 4 0.0277618 0.143175 0.354217
316 2 0.045738 0.126465 0.34944
317 4 0.0637142 0.109755 0.344663
731 4 0.0760707 0.0946076 0.338693
604 2 0.147919 0.0949538 0.380322
606 4 0.131022 0.112132 0.386998
1700 4 0.209769 0.0835852 0.337558
600 4 0.210431 0.149977 0.403084
683 4 0.226972 0.146918 0.413494
682 2 0.248516 0.13442 0.415692
319 2 0.308107 0.128669 0.399431
320 4 0.289393 0.121529 0.414396
321 4 0.326821 0.135809 0.384465
708 4 0.329779 0.15529 0.383496
575 4 0.409825 0.125714 0.375749
516 4 0.414372 0.127119 0.356136
574 2 0.423184 0.124655 0.396859
451 2 0.481206 0.16119 0.353861
514 2 0.432101 0.136767 0.341378
453 4 0.464003 0.151333 0.338627
452 4 0.498409 0.171048 0.369094
457 2 0.0109365 0.17378 0.380007
459 4 0.996134 0.190276 0.39158
2653 2 0.992653 0.227359 0.397241
389 4 0.106152 0.177399 0.348118
598 2 0.205719 0.174496 0.401728
599 4 0.201008 0.199014 0.400373
473 4 0.226633 0.233365 0.377605
374 4 0.215281 0.2435 0.39117
706 2 0.325834 0.175762 0.369692
472 2 0.250316 0.232243 0.385542
378 4 0.288351 0.250367 0.353047
376 2 0.297449 0.227471 0.348782
377 4 0.306546 0.204576 0.344518
707 4 0.321889 0.196233 0.355889
474 4 0.274 0.231121 0.393479
467 4 0.37797 0.207414 0.414813
2655 4 0.992951 0.250801 0.388547
347 4 0.073029 0.324215 0.398707
275 4 0.149685 0.318456 0.397944
617 4 0.135521 0.307554 0.389629
616 2 0.113204 0.315481 0.397647
618 4 0.0908866 0.323407 0.405666
274 2 0.164564 0.301956 0.386475
276 4 0.179444 0.285456 0.375006
373 2 0.207327 0.266633 0.385996
375 4 0.199374 0.289766 0.380821
344 4 0.276437 0.247824 0.335729
561 4 0.474552 0.333817 0.389754
559 2 0.497887 0.334418 0.398715
408 4 0.992505 0.354525 0.389553
406 2 0.00519824 0.360851 0.368961
407 4 0.0178919 0.367177 0.348369
434 4 0.23766 0.386743 0.345993
334 2 0.328544 0.410899 0.398376
502 2 0.269495 0.406101 0.404205
504 4 0.2522 0.392121 0.415635
335 4 0.35199 0.402836 0.395143
240 4 0.366756 0.402638 0.407884
752 4 0.47675 0.339579 0.371272
751 2 0.47621 0.359115 0.355677
413 4 0.143997 0.476958 0.34982
500 4 0.147175 0.493395 0.359839
1544 4 0.162165 0.481102 0.35541
1543 2 0.181889 0.493525 0.346365
669 4 0.297139 0.435531 0.396533
336 4 0.305098 0.418961 0.401609
503 4 0.286789 0.420081 0.392775
667 2 0.293916 0.45389 0.413198
592 2 0.398752 0.479916 0.340362
593 4 0.404059 0.493068 0.360954
1126 2 0.00524613 0.0469891 0.485521
720 4 0.0279409 0.0704434 0.46214
2237 4 0.0279421 0.0512452 0.459218
2236 2 0.029006 0.0445346 0.435155
1127 4 0.0114819 0.0604782 0.465413
1780 2 0.0978638 0.00387788 0.430643
726 4 0.29542 0.0723759 0.479239
724 2 0.294898 0.0503349 0.491033
1580 4 0.394062 0.0118099 0.446018
425 4 0.391237 0.0280071 0.434994
2878 2 0.476054 0.0624042 0.478435
2879 4 0.466375 0.0462091 0.494843
718 2 0.0412678 0.0879231 0.474057
719 4 0.0545947 0.105403 0.485975
1033 2 0.128688 0.134639 0.469697
1035 4 0.13707 0.146748 0.449491
1034 4 0.120305 0.12253 0.489903
261 4 0.13122 0.163931 0.458516
939 4 0.104776 0.133658 0.495939
1182 4 0.285738 0.0864098 0.468214
684 4 0.270061 0.121922 0.417891
1180 2 0.284398 0.104 0.450495
1181 4 0.283059 0.12159 0.432776
3159 4 0.50956 0.138612 0.479968
641 4 0.455929 0.120955 0.416311
576 4 0.436542 0.123597 0.417968
2880 4 0.485733 0.0785993 0.462028
642 4 0.481994 0.0886418 0.444189
640 2 0.468961 0.104798 0.43025
306 4 0.448204 0.139208 0.416729
304 2 0.451269 0.155688 0.435281
469 2 0.00695641 0.188457 0.470921
471 4 0.0204088 0.208466 0.464297
260 4 0.15974 0.204897 0.455502
259 2 0.14548 0.184414 0.457009
695 4 0.162711 0.224752 0.453337
694 2 0.14263 0.239647 0.453592
687 4 0.202671 0.210384 0.418756
686 4 0.176308 0.213195 0.461157
411 4 0.230832 0.185516 0.507169
685 2 0.189489 0.211789 0.439956
488 4 0.280281 0.233515 0.412634
487 2 0.291006 0.225228 0.433645
489 4 0.301731 0.216942 0.454657
466 2 0.375115 0.228238 0.428355
267 4 0.352974 0.245603 0.444626
305 4 0.454335 0.172169 0.453833
585 4 0.434436 0.244114 0.494304
1260 4 0.117798 0.257443 0.472936
696 4 0.122549 0.254542 0.453847
811 2 0.259605 0.303462 0.487809
813 4 0.256611 0.288551 0.467962
266 4 0.328855 0.281802 0.469297
468 4 0.372259 0.249062 0.441897
265 2 0.340914 0.263702 0.456961
2456 4 0.465176 0.302703 0.481191
584 4 0.460693 0.283755 0.478815
583 2 0.447565 0.263935 0.48656
2455 2 0.476519 0.317797 0.497583
346 2 0.0642648 0.338234 0.417464
348 4 0.0555005 0.352253 0.436221
326 4 0.0543909 0.358344 0.456059
325 2 0.07632 0.367635 0.463673
681 4 0.0595836 0.414736 0.447955
383 4 0.0743983 0.41379 0.461357
10 3 0.141607 0.353657 0.480558
327 4 0.0982491 0.376926 0.471287
7 3 0.112031 0.375784 0.485905
6 1 0.133175 0.370547 0.493298
711 4 0.161688 0.402991 0.491793
8 3 0.146644 0.389349 0.491438
635 4 0.211476 0.410683 0.452271
709 2 0.183442 0.401969 0.47951
774 4 0.223641 0.408708 0.467012
772 2 0.236775 0.402905 0.487481
710 4 0.205197 0.400946 0.467227
239 4 0.406975 0.408184 0.43708
238 2 0.386866 0.405411 0.422482
588 4 0.400046 0.407827 0.455538
680 4 0.0548342 0.45509 0.418805
1381 2 0.0601437 0.489204 0.425873
1383 4 0.057752 0.466033 0.43496
679 2 0.0572089 0.434913 0.43338
569 4 0.134808 0.438591 0.483364
539 4 0.110747 0.480714 0.475691
384 4 0.119869 0.426072 0.478157
382 2 0.0971339 0.419931 0.469757
568 2 0.145071 0.45609 0.468747
538 2 0.116608 0.496505 0.494169
570 4 0.155334 0.473589 0.454131
636 4 0.200972 0.446487 0.418978
634 2 0.206224 0.428585 0.435625
880 2 0.331495 0.50284 0.496849
5 3 0.278609 0.489206 0.456072
4 3 0.305648 0.487061 0.429958
668 4 0.290694 0.47225 0.429864
586 2 0.409529 0.416042 0.477166
3077 4 0.00521974 0.0351564 0.562234
1059 4 0.133803 0.0804616 0.576581
340 2 0.186199 0.0450004 0.524408
342 4 0.175412 0.0665128 0.531193
2430 4 0.184759 0.00868985 0.512399
341 4 0.196986 0.0234881 0.517623
430 2 0.320002 0.020114 0.532288
432 4 0.301369 0.0158772 0.516162
963 4 0.281816 0.0186735 0.514524
725 4 0.294375 0.0282938 0.502827
961 2 0.260615 0.00826661 0.506314
431 4 0.338634 0.0243507 0.548414
843 4 0.34025 0.043266 0.557101
1217 4 0.407224 0.0487356 0.542761
842 4 0.389992 0.0476224 0.554357
841 2 0.365121 0.0454442 0.555729
1216 2 0.418457 0.0265136 0.545035
1218 4 0.429691 0.00429157 0.547308
879 4 0.0698813 0.162139 0.547402
1272 4 0.0783054 0.146115 0.555145
938 4 0.0800124 0.150453 0.536007
1152 4 0.170472 0.0856624 0.52544
1150 2 0.15858 0.0888798 0.547198
937 2 0.0923943 0.142056 0.515973
1151 4 0.146688 0.0920973 0.568956
1270 2 0.0923257 0.155296 0.5737
877 2 0.0468821 0.171825 0.54895
878 4 0.023883 0.181511 0.550499
1199 4 0.0171775 0.186502 0.531433
409 2 0.251807 0.196433 0.515296
898 2 0.29313 0.219281 0.545289
791 4 0.313987 0.225254 0.576009
899 4 0.295604 0.222641 0.569942
900 4 0.290656 0.215921 0.520636
410 4 0.272781 0.20735 0.523424
871 2 0.366676 0.245752 0.511537
872 4 0.344376 0.243166 0.522547
1259 4 0.104459 0.277736 0.516651
1258 2 0.111128 0.267589 0.494793
812 4 0.2626 0.318372 0.507655
649 2 0.268958 0.316544 0.550376
651 4 0.276088 0.311537 0.573813
650 4 0.261828 0.321551 0.52694
790 2 0.329306 0.244746 0.579259
873 4 0.388975 0.248337 0.500527
792 4 0.344625 0.264238 0.582508
1238 4 0.342037 0.28382 0.580153
2457 4 0.487861 0.33289 0.513976
1010 4 0.49904 0.327619 0.530407
935 4 0.0109916 0.399277 0.527296
9 3 0.131923 0.363863 0.515483
1137 4 0.148203 0.382806 0.572229
1135 2 0.130911 0.399386 0.56507
897 4 0.167954 0.385983 0.576732
1189 2 0.232442 0.406653 0.543661
895 2 0.19099 0.395622 0.578007
896 4 0.214026 0.40526 0.579283
804 4 0.261183 0.336845 0.514113
1190 4 0.249933 0.401982 0.526415
803 4 0.260513 0.386429 0.520572
802 2 0.260848 0.361637 0.517342
773 4 0.24991 0.397101 0.50795
930 4 0.265854 0.404444 0.51463
928 2 0.289942 0.407452 0.52062
929 4 0.31403 0.410461 0.52661
927 4 0.403188 0.393899 0.553521
925 2 0.404852 0.408591 0.533358
1136 4 0.113619 0.415967 0.557911
1191 4 0.214951 0.411324 0.560907
1172 4 0.221159 0.422604 0.575337
1159 2 0.187475 0.489693 0.579563
889 2 0.317621 0.485268 0.573466
891 4 0.328996 0.491546 0.552103
926 4 0.406516 0.423283 0.513195
587 4 0.419013 0.424258 0.498793
1953 4 0.374234 0.449574 0.535831
1951 2 0.358621 0.469081 0.536784
1952 4 0.343009 0.488588 0.537737
663 4 0.41943 0.437803 0.511679
881 4 0.336456 0.497951 0.520863
1001 4 0.435358 0.494952 0.536734
662 4 0.440434 0.476573 0.535268
661 2 0.429932 0.457188 0.523473
1911 4 0.435494 0.482817 0.552773
1909 2 0.433902 0.47831 0.577316
1332 4 0.451791 0.48918 0.544392
1330 2 0.472743 0.499918 0.535973
945 4 0.0697408 0.0132292 0.634291
1155 4 0.147728 0.0884042 0.588427
1057 2 0.128753 0.0591839 0.588703
2375 4 0.126694 0.0223868 0.611399
1058 4 0.123702 0.0379062 0.600825
943 2 0.0882103 0.00864622 0.65051
1284 4 0.162587 0.0620069 0.6535
950 4 0.244029 0.0234008 0.646752
949 2 0.262433 0.0372386 0.637005
951 4 0.280836 0.0510764 0.627257
1031 4 0.274196 0.064342 0.613879
45 3 0.432655 0.0752836 0.646458
1271 4 0.106346 0.164477 0.592256
1153 2 0.161658 0.10353 0.602651
1154 4 0.175588 0.118656 0.616876
1221 4 0.185371 0.113689 0.633332
1219 2 0.191233 0.137973 0.632275
1220 4 0.197094 0.162257 0.631218
1212 4 0.211171 0.165799 0.644357
1032 4 0.277082 0.113323 0.623535
1030 2 0.275639 0.0888325 0.618707
888 4 0.269766 0.16357 0.670049
808 2 0.492318 0.0959476 0.637948
810 4 0.478585 0.0929189 0.658621
44 3 0.461111 0.0908739 0.66556
1243 2 0.0709848 0.208404 0.642804
1244 4 0.0650109 0.205857 0.618658
1210 2 0.231391 0.161155 0.658313
796 2 0.184634 0.192968 0.624465
798 4 0.200118 0.180383 0.639534
797 4 0.16915 0.205552 0.609397
857 4 0.302045 0.212526 0.585536
856 2 0.283719 0.202873 0.599542
858 4 0.265393 0.19322 0.613547
906 4 0.429576 0.234471 0.575912
905 4 0.471018 0.237754 0.603706
3123 4 0.488183 0.242788 0.614788
904 2 0.450297 0.236113 0.589809
983 4 0.0374052 0.28312 0.611076
982 2 0.035269 0.306042 0.620833
3263 4 0.0364257 0.326927 0.64976
984 4 0.0331328 0.328965 0.63059
947 4 0.282104 0.28949 0.652054
805 2 0.310506 0.322721 0.650894
807 4 0.317181 0.309023 0.63107
1237 2 0.33923 0.294685 0.602498
1239 4 0.336423 0.305549 0.624842
952 2 0.484431 0.33194 0.603963
953 4 0.462777 0.326958 0.615429
1041 4 0.0396389 0.344177 0.641795
1039 2 0.0472884 0.36773 0.645245
1040 4 0.0549379 0.391284 0.648696
993 4 0.0581065 0.410252 0.643207
1029 4 0.213959 0.410695 0.642417
1206 4 0.47119 0.406599 0.65403
991 2 0.0728615 0.416606 0.624047
992 4 0.0876166 0.422959 0.604887
1171 2 0.218072 0.443856 0.588144
1160 4 0.200738 0.473704 0.593476
1173 4 0.214986 0.465108 0.600951
1188 4 0.202449 0.48415 0.662434
1187 4 0.203951 0.474565 0.613377
1186 2 0.2032 0.479358 0.637906
890 4 0.306245 0.47899 0.594828
1204 2 0.464251 0.427748 0.642639
1910 4 0.43231 0.473803 0.601858
1269 4 0.440175 0.454854 0.638907
1267 2 0.431585 0.474633 0.651562
1205 4 0.457313 0.448897 0.631248
825 4 0.125701 0.00742875 0.673279
1282 2 0.150598 0.0733434 0.672286
944 4 0.10668 0.00406327 0.666729
2255 4 0.232743 0.0218773 0.749076
1003 2 0.321559 0.0282435 0.718092
1005 4 0.324148 0.0518195 0.710177
41 1 0.439326 0.0829851 0.666826
1162 2 0.489153 0.0595416 0.680141
42 3 0.438523 0.0657752 0.682068
1163 4 0.474845 0.0774374 0.670131
1083 4 0.0097742 0.147068 0.68928
1081 2 0.0216083 0.126993 0.698343
1082 4 0.0334424 0.106918 0.707405
1076 4 0.0441797 0.0896614 0.709744
1075 2 0.0472429 0.0907388 0.734535
850 2 0.0672394 0.154243 0.715655
1214 4 0.0322921 0.154908 0.745043
3179 4 0.00514972 0.163027 0.678837
852 4 0.0475766 0.153816 0.731095
1226 4 0.157717 0.0926591 0.7496
909 4 0.101726 0.142866 0.6928
907 2 0.116586 0.12287 0.690677
908 4 0.131446 0.102873 0.688553
1283 4 0.13861 0.0846798 0.691073
1227 4 0.145623 0.0992301 0.701524
851 4 0.0869022 0.154671 0.700216
1225 2 0.15167 0.0959446 0.725562
1107 4 0.105809 0.158468 0.703582
830 4 0.315322 0.157033 0.702445
887 4 0.30333 0.171453 0.706272
886 2 0.286548 0.167512 0.688161
831 4 0.359244 0.133421 0.698688
1141 2 0.393319 0.153336 0.711288
829 2 0.337283 0.145227 0.700567
1142 4 0.375311 0.135994 0.710893
43 3 0.425159 0.0999431 0.673906
1025 4 0.470034 0.153831 0.70087
3424 2 0.480134 0.118428 0.687146
3426 4 0.476149 0.0957135 0.677485
3425 4 0.484119 0.141143 0.696808
3269 4 0.488165 0.15726 0.706052
3268 2 0.493671 0.169637 0.727068
1024 2 0.447883 0.165429 0.700802
1245 4 0.0769587 0.210952 0.666949
1209 4 0.0896337 0.213163 0.68326
1207 2 0.0829802 0.235054 0.693344
1213 2 0.0191465 0.176148 0.74615
1215 4 0.00600083 0.197388 0.747258
1105 2 0.119642 0.176757 0.713548
1106 4 0.133475 0.195047 0.723515
1130 4 0.139413 0.194667 0.742732
978 4 0.316938 0.16804 0.719098
1211 4 0.251611 0.156512 0.67227
976 2 0.309502 0.179787 0.739881
917 4 0.261232 0.241388 0.746521
1194 4 0.369908 0.240698 0.712597
1192 2 0.361708 0.232912 0.734898
1262 4 0.416345 0.189653 0.712714
1193 4 0.353509 0.225125 0.757198
1143 4 0.411326 0.170678 0.711683
1026 4 0.425732 0.177027 0.700735
1261 2 0.425006 0.202448 0.732372
3262 2 0.0354728 0.321517 0.674152
3264 4 0.0345199 0.316107 0.698545
779 4 0.0427115 0.312863 0.716475
893 4 0.0368649 0.330787 0.711823
778 2 0.0607528 0.304124 0.73142
780 4 0.0787942 0.295386 0.746364
1208 4 0.0763268 0.256945 0.703429
1065 4 0.215559 0.282002 0.722918
1063 2 0.239561 0.275839 0.719584
946 2 0.276826 0.284295 0.675935
948 4 0.271549 0.2791 0.699817
1064 4 0.263563 0.269676 0.716251
1008 4 0.436108 0.299535 0.720683
1006 2 0.435054 0.299734 0.745663
892 2 0.0352752 0.353151 0.722891
894 4 0.0336854 0.375516 0.733959
816 4 0.0420005 0.381583 0.750316
3276 4 0.0225615 0.37971 0.748931
1066 2 0.165807 0.398418 0.70041
1067 4 0.143052 0.388867 0.704429
940 2 0.115411 0.402682 0.737241
941 4 0.130887 0.396715 0.71853
1068 4 0.188563 0.407968 0.696391
1027 2 0.210614 0.406998 0.666918
1028 4 0.207269 0.403301 0.69142
806 4 0.303832 0.336418 0.670719
1280 4 0.0593549 0.505118 0.689534
1176 4 0.168647 0.459322 0.703229
1175 4 0.184455 0.490966 0.667881
1174 2 0.176551 0.475144 0.685555
1140 4 0.273688 0.464506 0.69383
1138 2 0.295435 0.475132 0.700101
1139 4 0.317182 0.485759 0.706371
1019 4 0.413527 0.424049 0.742185
1230 4 0.416107 0.47031 0.726872
1228 2 0.395199 0.467846 0.740362
1100 4 0.42198 0.452299 0.728562
1101 4 0.470385 0.44078 0.733558
1099 2 0.446183 0.446539 0.73106
3330 4 0.485477 0.445849 0.722778
1251 4 0.483325 0.454192 0.740387
1295 4 0.0233764 0.00363166 0.783207
1296 4 0.0288488 0.0526464 0.774941
1294 2 0.0261126 0.028139 0.779074
1201 2 0.163933 0.0525374 0.762591
1202 4 0.162373 0.0296769 0.772598
1149 4 0.227604 0.0871099 0.750948
1203 4 0.165493 0.0753979 0.752584
2254 2 0.208857 0.0221243 0.756463
2049 4 0.172751 0.013027 0.777266
2256 4 0.18497 0.0223712 0.76385
1113 4 0.384974 0.0422568 0.829331
1111 2 0.387885 0.0669872 0.82707
975 4 0.330392 0.0789265 0.835135
2442 4 0.474052 0.0120115 0.762938
980 4 0.459729 0.0101742 0.795148
2321 4 0.466984 0.020954 0.779241
2322 4 0.471654 0.0706274 0.775857
2320 2 0.469319 0.0457907 0.777549
846 4 0.469217 0.073377 0.795898
979 2 0.459048 0.996202 0.815873
1077 4 0.050306 0.0918161 0.759327
864 4 0.0612982 0.08804 0.7759
862 2 0.0514153 0.108153 0.78699
863 4 0.0415323 0.128265 0.79808
832 2 0.0158685 0.123647 0.828931
833 4 0.0233202 0.126002 0.80518
1125 4 0.0330938 0.14342 0.805149
1123 2 0.0492622 0.16191 0.809827
31 1 0.134878 0.134653 0.820459
35 3 0.133041 0.118869 0.804145
33 3 0.116359 0.133808 0.834413
32 3 0.153769 0.130512 0.832914
34 3 0.136654 0.155729 0.810919
1148 4 0.177703 0.0893832 0.748623
1147 2 0.202654 0.0882466 0.749786
1257 4 0.244507 0.0793621 0.756687
1255 2 0.252664 0.0916812 0.776858
1256 4 0.260821 0.104 0.797029
840 4 0.272043 0.1194 0.79222
838 2 0.279106 0.132955 0.812008
839 4 0.286169 0.146509 0.831796
844 2 0.468002 0.0980232 0.799932
845 4 0.466788 0.122669 0.803966
1124 4 0.0654307 0.1804 0.814504
1072 2 0.0586794 0.219016 0.796148
1073 4 0.0550101 0.195369 0.803394
1074 4 0.0623487 0.242664 0.788901
1129 2 0.148865 0.216067 0.751557
1131 4 0.158317 0.237467 0.760382
1277 4 0.166501 0.237963 0.777774
1276 2 0.174118 0.225473 0.798051
1278 4 0.181735 0.212983 0.818328
920 4 0.192769 0.206618 0.832762
1241 4 0.190263 0.22593 0.829708