ITEM: TIMESTEP
730000
ITEM: NUMBER OF ATOMS
4590
ITEM: BOX BOUNDS pp pp pp
-9.9985700000000008e+00 9.9985700000000008e+00
-9.9985700000000008e+00 9.9985700000000008e+00
-9.9985700000000008e+00 9.9985700000000008e+00
ITEM: ATOMS id type xs ys zs
463 2 0.0357487 0.0683763 0.0357822
464 4 0.0124172 0.0595025 0.0343418
465 4 0.0590802 0.07725 0.0372225
701 4 0.0685128 0.071452 0.0525583
491 4 0.286367 0.00443071 0.0300688
558 4 0.357394 0.0606399 0.0436769
556 2 0.359916 0.0630142 0.0684393
745 2 0.473633 0.0507254 0.00838864
746 4 0.488582 0.0466596 0.0280143
589 2 0.0154021 0.135637 0.0667446
591 4 0.00736406 0.128136 0.044288
421 2 0.07826 0.143327 0.009071
700 2 0.0850985 0.0894712 0.0475184
702 4 0.101684 0.10749 0.0424785
566 4 0.121235 0.106678 0.0459264
565 2 0.146001 0.109355 0.0437702
423 4 0.0942649 0.132416 0.024882
567 4 0.170767 0.112032 0.0416139
360 4 0.271556 0.157132 0.0227028
358 2 0.275262 0.136199 0.00954076
1013 4 0.48131 0.162426 0.0475951
553 2 0.0493327 0.201037 0.0204194
554 4 0.0431727 0.177047 0.0238421
836 4 0.0730731 0.226917 0.00904109
555 4 0.0554927 0.225027 0.0169967
915 4 0.135506 0.232626 0.00214889
835 2 0.0973092 0.223342 0.00404031
666 4 0.322667 0.225559 0.0222294
664 2 0.322137 0.203718 0.0100689
573 4 0.323201 0.235051 0.0394434
571 2 0.30252 0.248335 0.0348636
461 4 0.337032 0.222984 0.0341361
460 2 0.345811 0.223374 0.0575446
462 4 0.35459 0.223764 0.080953
1014 4 0.477097 0.209358 0.0308501
1012 2 0.479204 0.185892 0.0392226
324 4 0.428822 0.247005 0.0402607
292 2 0.129141 0.298612 0.0476195
293 4 0.145828 0.281167 0.0541309
294 4 0.112454 0.316057 0.0411082
507 4 0.151313 0.292379 0.0692261
505 2 0.173886 0.298645 0.0779644
355 2 0.242446 0.280078 0.0226791
357 4 0.220523 0.292043 0.0214881
481 2 0.236685 0.318723 0.0787124
356 4 0.264369 0.268114 0.0238701
572 4 0.281838 0.261619 0.0302839
482 4 0.261173 0.319873 0.0737943
1069 2 0.416055 0.257674 0.00556602
957 4 0.370871 0.330287 0.00964276
1071 4 0.41839 0.260052 0.0303465
322 2 0.436939 0.262267 0.0583261
670 2 0.456252 0.319421 0.0629777
519 4 0.478154 0.256256 0.0654601
323 4 0.445057 0.277529 0.0763914
672 4 0.447929 0.296232 0.0672367
287 4 0.145343 0.345259 0.00783801
455 4 0.128985 0.3851 0.0682366
286 2 0.154651 0.367766 0.00218343
609 4 0.270438 0.338265 0.0783031
252 4 0.276178 0.390135 0.0615376
250 2 0.289597 0.407347 0.0493362
608 4 0.280149 0.387256 0.0808088
607 2 0.275294 0.362761 0.0795559
671 4 0.464576 0.342611 0.0587188
281 4 0.469504 0.360557 0.0500836
280 2 0.478396 0.366108 0.0273836
282 4 0.487289 0.371659 0.00468358
551 4 0.078947 0.422614 0.0587019
550 2 0.0873828 0.446003 0.0613356
552 4 0.0958187 0.469393 0.0639693
1787 4 0.101616 0.48616 0.0745575
625 2 0.204439 0.455346 0.0791057
245 4 0.237735 0.470924 0.0685685
626 4 0.185287 0.43948 0.0765296
244 2 0.250455 0.486998 0.0542502
627 4 0.22359 0.471213 0.0816818
251 4 0.303015 0.424559 0.0371348
271 2 0.265866 0.480949 0.00193772
272 4 0.260638 0.496165 0.0210774
525 4 0.360141 0.450486 0.0686741
227 4 0.45731 0.458552 0.07002
226 2 0.474316 0.442979 0.0796893
16 1 0.0414175 0.0709589 0.151905
17 3 0.0614137 0.0665666 0.141417
18 3 0.03024 0.0509334 0.155433
1667 4 0.100723 0.0169673 0.0881166
1804 2 0.0876895 0.000907995 0.154095
1506 4 0.229763 0.0285357 0.15585
652 2 0.302484 0.00790255 0.129812
653 4 0.298851 0.0326405 0.129683
557 4 0.362438 0.0653886 0.0932017
296 4 0.359936 0.0543138 0.110795
295 2 0.362435 0.030232 0.11704
297 4 0.364934 0.00615023 0.123286
2724 4 0.500871 4.20304e-05 0.156616
20 3 0.0288727 0.0846405 0.138711
590 4 0.0234401 0.143139 0.0892011
237 4 0.147917 0.149968 0.162776
235 2 0.163907 0.130915 0.160225
236 4 0.179897 0.111863 0.157674
283 2 0.271899 0.164612 0.150982
284 4 0.291309 0.148851 0.151039
770 4 0.44139 0.131926 0.0852899
769 2 0.457935 0.15064 0.0863879
312 4 0.42513 0.130388 0.161221
337 2 0.0667415 0.230552 0.136291
339 4 0.0441285 0.230993 0.125631
338 4 0.0893544 0.23011 0.146951
476 4 0.143419 0.205148 0.111696
475 2 0.123721 0.213195 0.124826
477 4 0.104023 0.221243 0.137957
737 4 0.161189 0.196771 0.108661
363 4 0.0896343 0.244632 0.161494
738 4 0.205339 0.218836 0.1167
736 2 0.183264 0.207803 0.11268
285 4 0.252488 0.180373 0.150924
354 4 0.312253 0.244002 0.125166
254 4 0.379471 0.197755 0.129158
255 4 0.346043 0.210898 0.0943648
253 2 0.362757 0.204326 0.111761
630 4 0.39955 0.20371 0.128555
771 4 0.47448 0.169355 0.087486
629 4 0.44886 0.197393 0.123141
628 2 0.424205 0.200551 0.125848
2895 4 0.49584 0.227406 0.105959
518 4 0.487727 0.244063 0.113004
483 4 0.212197 0.317574 0.0836306
506 4 0.19646 0.304912 0.0867027
352 2 0.301608 0.265476 0.132289
353 4 0.290964 0.28695 0.139413
754 2 0.291886 0.327382 0.14046
755 4 0.290392 0.303993 0.149173
278 4 0.28144 0.288668 0.156922
741 4 0.345271 0.324744 0.0888024
517 2 0.482941 0.25016 0.0892319
330 4 0.0142566 0.411345 0.0854862
620 4 0.00409113 0.3556 0.100896
647 4 0.0168425 0.351547 0.11607
646 2 0.0416427 0.350154 0.118932
648 4 0.0664429 0.348761 0.121793
456 4 0.106295 0.354726 0.100846
454 2 0.11764 0.369913 0.0845412
537 4 0.225451 0.389703 0.161638
535 2 0.209758 0.382383 0.143602
536 4 0.194064 0.375062 0.125566
756 4 0.293379 0.350771 0.131747
612 4 0.282121 0.364702 0.140444
610 2 0.262892 0.37333 0.153898
739 2 0.360968 0.335831 0.104799
387 4 0.336069 0.372443 0.163238
740 4 0.376665 0.346917 0.120795
15 3 0.388192 0.35588 0.133119
385 2 0.353751 0.368466 0.146012
386 4 0.371432 0.364488 0.128786
11 1 0.408517 0.366148 0.132763
14 3 0.405892 0.388743 0.128181
495 4 0.392063 0.396464 0.118318
13 3 0.419138 0.363393 0.153209
12 3 0.421501 0.356681 0.116303
597 4 0.471164 0.416289 0.155337
1467 4 0.0156483 0.458401 0.117956
1465 2 0.0244361 0.478304 0.130279
1791 4 0.0526972 0.499731 0.134358
242 4 0.118734 0.485397 0.0829906
241 2 0.138733 0.4997 0.0875357
524 4 0.347643 0.485059 0.102574
523 2 0.353892 0.467772 0.0856241
658 2 0.402482 0.476942 0.156613
493 2 0.389391 0.420574 0.124378
660 4 0.395296 0.458487 0.14135
494 4 0.386718 0.444685 0.130438
228 4 0.491322 0.427407 0.0893586
595 2 0.474587 0.439737 0.163317
2480 4 0.000241757 0.0199652 0.166605
1404 4 0.0598694 0.0140095 0.234035
19 3 0.0457187 0.0813149 0.172219
1806 4 0.0753675 0.0034932 0.175698
1422 4 0.00767563 0.0020496 0.171359
673 2 0.129266 0.0741923 0.214913
674 4 0.153767 0.0733038 0.210002
675 4 0.104766 0.0750809 0.219824
1504 2 0.209772 0.0332846 0.170097
450 4 0.171467 0.0489162 0.181342
1505 4 0.189781 0.0380335 0.184345
448 2 0.172936 0.0731817 0.175493
688 2 0.208858 0.00110103 0.241659
28 3 0.328573 0.0790295 0.240672
758 4 0.396109 0.0742605 0.172407
21 1 0.367617 0.0173192 0.233182
25 3 0.373664 0.0377711 0.225195
759 4 0.386118 0.0474004 0.213388
757 2 0.391113 0.0608305 0.192898
22 3 0.353258 0.00730087 0.218263
24 3 0.386398 0.00392139 0.235668
744 4 0.467278 0.034208 0.252436
351 4 0.454307 0.0336573 0.236418
349 2 0.438321 0.052191 0.231307
350 4 0.422335 0.0707246 0.226196
380 4 0.027999 0.0920291 0.175151
512 4 0.0138828 0.154687 0.19489
379 2 0.0263125 0.116065 0.181829
381 4 0.024626 0.140101 0.188508
579 4 0.0744814 0.106413 0.184825
577 2 0.0922574 0.123086 0.190412
578 4 0.110033 0.139758 0.196
449 4 0.174405 0.0974471 0.169644
693 4 0.192236 0.107189 0.171402
691 2 0.216583 0.110328 0.17615
692 4 0.24093 0.113468 0.180898
723 4 0.20535 0.114858 0.223358
721 2 0.196692 0.134591 0.236041
722 4 0.188034 0.154324 0.248723
582 4 0.254362 0.122547 0.191975
580 2 0.273589 0.11875 0.207503
581 4 0.292815 0.114954 0.22303
30 3 0.307595 0.10117 0.218597
26 1 0.323476 0.100922 0.234918
27 3 0.342524 0.111188 0.227112
310 2 0.423196 0.127892 0.186024
311 4 0.421261 0.125396 0.210827
511 2 0.0291968 0.174209 0.197978
513 4 0.0445108 0.193731 0.201067
362 4 0.111917 0.226638 0.202487
361 2 0.100776 0.235635 0.18199
372 4 0.131582 0.227188 0.200298
370 2 0.141226 0.228901 0.223303
371 4 0.15087 0.230615 0.246308
763 2 0.36535 0.231198 0.180252
765 4 0.355149 0.209742 0.172458
520 2 0.487872 0.219295 0.225637
521 4 0.46424 0.224328 0.232067
395 4 0.047107 0.264014 0.23092
750 4 0.0646577 0.273942 0.235014
748 2 0.0807205 0.289892 0.224395
749 4 0.0967832 0.305841 0.213775
279 4 0.245368 0.294832 0.191003
277 2 0.263404 0.29175 0.173963
307 2 0.314507 0.260781 0.217867
308 4 0.305744 0.264795 0.240938
309 4 0.32327 0.256767 0.194795
764 4 0.375552 0.252654 0.188045
623 4 0.394448 0.253211 0.184333
622 2 0.408034 0.27387 0.188047
624 4 0.42162 0.294529 0.191762
528 4 0.441714 0.291542 0.196862
527 4 0.489248 0.279329 0.206455
526 2 0.465481 0.285435 0.201658
263 4 0.0644293 0.403969 0.239851
262 2 0.0609579 0.403933 0.21509
264 4 0.0574865 0.403897 0.190328
300 4 0.138876 0.346021 0.222202
298 2 0.139698 0.366727 0.236193
611 4 0.243664 0.381958 0.167352
290 4 0.214594 0.407844 0.23324
302 4 0.324832 0.388223 0.170988
301 2 0.314155 0.397152 0.191759
303 4 0.303479 0.406082 0.212531
645 4 0.460407 0.41102 0.170254
643 2 0.462067 0.39015 0.183924
644 4 0.463726 0.369279 0.197593
447 4 0.469704 0.35285 0.208074
445 2 0.484354 0.355329 0.228184
446 4 0.499004 0.357807 0.248294
417 4 0.152182 0.482831 0.192631
415 2 0.162533 0.460934 0.198843
1430 4 0.159897 0.499461 0.201575
289 2 0.202547 0.426709 0.222097
291 4 0.190499 0.445573 0.210955
416 4 0.172884 0.439038 0.205054
766 2 0.266035 0.489849 0.17098
768 4 0.272047 0.468517 0.182555
659 4 0.409668 0.495397 0.171876
231 4 0.415214 0.492529 0.190988
596 4 0.478011 0.463184 0.171297
1568 4 0.492616 0.477354 0.172938
1800 4 0.0170537 0.003851 0.33174
1798 2 0.0266309 0.0132701 0.310651
1799 4 0.0362082 0.0226893 0.289562
233 4 0.019931 0.031702 0.28235
1402 2 0.0441356 0.0154252 0.253416
1403 4 0.0284018 0.0168409 0.272797
232 2 0.00901154 0.0523392 0.273402
689 4 0.204939 0.0245674 0.24935
1699 2 0.219245 0.0517919 0.304849
1701 4 0.21074 0.0307217 0.294414
1700 4 0.227749 0.0728621 0.315284
1516 2 0.37487 0.00756623 0.289163
23 3 0.356805 0.019666 0.253578
697 2 0.38723 0.0671882 0.314865
699 4 0.379299 0.0489091 0.299761
1518 4 0.369773 0.0318684 0.292097
742 2 0.489206 0.022291 0.253956
478 2 0.463963 0.0307297 0.317529
479 4 0.468644 0.0118871 0.301773
398 4 0.0906084 0.127616 0.31603
544 2 0.154259 0.166397 0.26054
248 4 0.222249 0.0912141 0.323572
249 4 0.22149 0.138369 0.306943
247 2 0.221869 0.114792 0.315257
404 4 0.212653 0.157092 0.308676
546 4 0.170816 0.148012 0.256927
403 2 0.205845 0.16063 0.284879
405 4 0.199038 0.164169 0.261082
29 3 0.315849 0.112442 0.25356
698 4 0.395162 0.0854673 0.32997
333 4 0.427239 0.136847 0.305564
331 2 0.449496 0.148207 0.304677
332 4 0.471752 0.159567 0.30379
444 4 0.0161707 0.246931 0.329621
393 4 0.0823045 0.216458 0.268603
392 4 0.12671 0.199524 0.253041
391 2 0.104507 0.207991 0.260822
545 4 0.137702 0.184781 0.264153
378 4 0.280783 0.217793 0.328697
418 2 0.40213 0.19972 0.322089
419 4 0.402758 0.176886 0.311922
760 2 0.498302 0.187337 0.293657
762 4 0.484303 0.167313 0.288342
394 2 0.0391444 0.268545 0.254185
396 4 0.0311818 0.273076 0.277449
442 2 0.0168512 0.262555 0.310112
443 4 0.0175317 0.27818 0.290604
364 2 0.0234239 0.314295 0.285224
365 4 0.0234844 0.29087 0.27648
401 4 0.188221 0.263228 0.267524
345 4 0.221322 0.304209 0.297196
400 2 0.195138 0.281764 0.282813
402 4 0.202056 0.300299 0.298102
510 4 0.213183 0.298496 0.314316
508 2 0.208802 0.316422 0.331187
343 2 0.245011 0.309186 0.290933
344 4 0.268701 0.314163 0.28467
498 4 0.397452 0.26192 0.309611
496 2 0.385775 0.275259 0.291979
497 4 0.374098 0.288599 0.274347
543 4 0.413564 0.333036 0.314616
542 4 0.453349 0.314654 0.290534
541 2 0.433456 0.323845 0.302575
602 4 0.0786742 0.409434 0.252973
2493 4 0.0053451 0.33936 0.301193
366 4 0.0233634 0.337719 0.293969
299 4 0.140521 0.387434 0.250184
601 2 0.102908 0.40428 0.256339
603 4 0.127142 0.399127 0.259705
734 4 0.14582 0.400358 0.263962
733 2 0.16335 0.39715 0.281499
735 4 0.180881 0.393942 0.299037
677 4 0.193672 0.392101 0.314428
676 2 0.198674 0.373021 0.329794
727 2 0.327807 0.37645 0.28967
728 4 0.324826 0.370995 0.313889
438 4 0.270892 0.405192 0.255433
729 4 0.330788 0.381906 0.265452
615 4 0.395336 0.334842 0.324055
613 2 0.383628 0.356205 0.318426
614 4 0.37192 0.377569 0.312797
2538 4 0.472524 0.397341 0.317014
2536 2 0.476185 0.403773 0.293131
2537 4 0.479845 0.410205 0.269248
753 4 0.457669 0.387305 0.325708
549 4 0.0619072 0.431714 0.312983
547 2 0.0522658 0.419183 0.332354
777 4 0.096246 0.436639 0.292323
775 2 0.112121 0.455702 0.289201
776 4 0.127996 0.474766 0.286079
414 4 0.142762 0.468978 0.296856
412 2 0.155401 0.483736 0.312591
413 4 0.168041 0.498494 0.328327
437 4 0.285144 0.440645 0.287693
436 2 0.278018 0.422918 0.271563
2860 2 0.495158 0.461655 0.261725
2862 4 0.475612 0.473443 0.271932
594 4 0.446179 0.475737 0.322361
732 4 0.103329 0.0814135 0.40616
367 2 0.0902941 0.00399667 0.406535
605 4 0.170343 0.0688874 0.381949
604 2 0.193972 0.077044 0.381383
441 4 0.321842 0.0137722 0.3658
258 4 0.414257 0.0610265 0.391805
256 2 0.408803 0.0697263 0.369007
257 4 0.403349 0.0784261 0.346209
480 4 0.459282 0.0495722 0.333284
426 4 0.418863 0.0577773 0.411329
318 4 0.0248607 0.0838193 0.348446
316 2 0.0459379 0.0946884 0.35637
317 4 0.0670151 0.105558 0.364294
457 2 0.0466627 0.148029 0.392009
458 4 0.0560603 0.126122 0.399555
730 2 0.107381 0.089202 0.382749
397 2 0.100472 0.122307 0.338385
399 4 0.110335 0.116998 0.360739
731 4 0.111432 0.0969904 0.359337
599 4 0.174087 0.159723 0.385986
606 4 0.217601 0.0852006 0.380816
600 4 0.204928 0.1486 0.348226
598 2 0.189508 0.154162 0.367106
683 4 0.275585 0.100283 0.363723
682 2 0.284429 0.0971211 0.386896
684 4 0.293274 0.0939596 0.410068
320 4 0.292252 0.114502 0.412672
632 4 0.349276 0.119709 0.358896
631 2 0.369592 0.106363 0.35304
633 4 0.389908 0.0930167 0.347183
516 4 0.411644 0.145115 0.379511
575 4 0.40895 0.141926 0.39915
451 2 0.487538 0.157381 0.360816
514 2 0.431765 0.15761 0.3715
459 4 0.037265 0.169936 0.384463
2653 2 0.00592227 0.201354 0.383551
2654 4 0.0224543 0.183465 0.389195
390 4 0.0712911 0.242073 0.343607
388 2 0.093258 0.230555 0.340448
389 4 0.115225 0.219038 0.337288
685 2 0.157898 0.190677 0.413651
473 4 0.245507 0.175118 0.364681
687 4 0.169958 0.173149 0.400517
377 4 0.326364 0.231549 0.34399
376 2 0.303574 0.224671 0.336344
474 4 0.278409 0.202858 0.39015
472 2 0.261958 0.188988 0.377415
488 4 0.268618 0.217932 0.400174
487 2 0.282072 0.236556 0.410038
717 4 0.405586 0.237484 0.346737
707 4 0.339813 0.21865 0.351526
420 4 0.401502 0.222555 0.332256
706 2 0.347412 0.194976 0.354167
708 4 0.355011 0.171302 0.356809
715 2 0.385591 0.246956 0.358386
515 4 0.451887 0.170105 0.363489
453 4 0.46782 0.169875 0.351856
618 4 0.061008 0.311512 0.394024
347 4 0.0420315 0.311793 0.401132
616 2 0.0799216 0.322905 0.382291
275 4 0.131226 0.315127 0.388563
274 2 0.147227 0.296692 0.383153
276 4 0.163229 0.278257 0.377743
617 4 0.0988353 0.334298 0.370558
373 2 0.211208 0.301543 0.388546
374 4 0.234375 0.310905 0.389454
375 4 0.188041 0.292181 0.387638
716 4 0.365597 0.256427 0.370035
406 2 0.0586036 0.404675 0.390995
408 4 0.07099 0.397998 0.411663
548 4 0.0426243 0.406653 0.351724
407 4 0.0462173 0.411352 0.370327
678 4 0.203675 0.35394 0.34516
509 4 0.20442 0.334348 0.348058
504 4 0.24099 0.386075 0.405355
435 4 0.255116 0.373887 0.336541
433 2 0.269714 0.390861 0.347676
434 4 0.284312 0.407834 0.358811
561 4 0.454864 0.367781 0.383569
752 4 0.467001 0.363611 0.368746
559 2 0.470427 0.369656 0.403049
751 2 0.462335 0.375458 0.347227
499 2 0.155432 0.498271 0.378736
500 4 0.179861 0.492953 0.379051
668 4 0.297556 0.469951 0.408812
1 1 0.312324 0.499386 0.412108
3 3 0.313285 0.494427 0.389461
593 4 0.413478 0.488527 0.357966
592 2 0.429828 0.482132 0.340164
1772 4 0.0323095 0.00371929 0.423816
718 2 0.0429317 0.0688067 0.468352
720 4 0.0311304 0.0470935 0.472153
2237 4 0.0332448 0.0276628 0.473461
2236 2 0.0284069 0.003254 0.471015
1127 4 0.0241627 0.0376046 0.487797
369 4 0.0783009 0.0232117 0.417124
1522 2 0.0968535 0.00254738 0.496665
1180 2 0.238026 0.0771897 0.482006
1182 4 0.256476 0.0605993 0.478917
726 4 0.306079 0.0606837 0.436321
724 2 0.303817 0.0581145 0.461089
432 4 0.314289 0.0575678 0.500385
725 4 0.301554 0.0555452 0.485857
963 4 0.303401 0.0415786 0.4993
424 2 0.399738 0.0429701 0.417667
425 4 0.380613 0.0281629 0.424005
2879 4 0.46735 0.0680712 0.497615
719 4 0.054733 0.0905199 0.464551
1033 2 0.111689 0.15404 0.4865
1181 4 0.219576 0.09378 0.485095
411 4 0.241474 0.16333 0.464133
321 4 0.30075 0.123272 0.461165
319 2 0.296501 0.118887 0.436918
574 2 0.398039 0.148235 0.420745
576 4 0.387128 0.154543 0.44234
2880 4 0.488644 0.0992478 0.464823
2878 2 0.477997 0.0836595 0.481219
642 4 0.485043 0.116076 0.455792
640 2 0.46554 0.130832 0.450587
641 4 0.446037 0.145587 0.445382
306 4 0.437719 0.162418 0.442478
3158 4 0.46607 0.151994 0.496299
469 2 0.0101503 0.197242 0.485303
470 4 0.0317853 0.190675 0.495979
260 4 0.114897 0.232753 0.455002
261 4 0.132686 0.187402 0.466294
259 2 0.123792 0.210078 0.460648
1035 4 0.121815 0.17123 0.471428
686 4 0.145838 0.208204 0.426785
695 4 0.0989571 0.237553 0.467526
409 2 0.258031 0.176811 0.477145
410 4 0.274588 0.190291 0.490157
466 2 0.384363 0.228906 0.423701
467 4 0.375749 0.205466 0.422479
3159 4 0.494942 0.192567 0.49172
305 4 0.461173 0.205502 0.432764
304 2 0.449446 0.18396 0.437621
3157 2 0.480506 0.17228 0.49401
346 2 0.0449243 0.312392 0.42596
326 4 0.0636102 0.323936 0.456765
348 4 0.047817 0.312991 0.450789
694 2 0.0981985 0.253457 0.486805
651 4 0.225986 0.282489 0.494836
649 2 0.249797 0.28737 0.500701
489 4 0.295527 0.25518 0.419901
650 4 0.273607 0.292252 0.506567
266 4 0.321706 0.259188 0.444615
468 4 0.392978 0.252347 0.424924
267 4 0.370787 0.258185 0.454141
265 2 0.346246 0.258686 0.449378
584 4 0.488878 0.290179 0.46834
583 2 0.467315 0.288428 0.480876
585 4 0.445752 0.286677 0.493413
325 2 0.0805708 0.336219 0.470427
2813 4 0.0148779 0.375979 0.467933
10 3 0.150938 0.342956 0.456061
7 3 0.128259 0.353845 0.483628
327 4 0.0975314 0.348502 0.484089
6 1 0.150098 0.353076 0.476445
8 3 0.158244 0.374746 0.474868
9 3 0.162624 0.341003 0.491799
711 4 0.168789 0.383869 0.461208
709 2 0.189958 0.395849 0.466998
710 4 0.211127 0.407829 0.472788
774 4 0.220115 0.411827 0.488691
336 4 0.290846 0.389712 0.425587
334 2 0.315538 0.386556 0.423246
502 2 0.251812 0.391619 0.427202
503 4 0.262634 0.397164 0.44905
588 4 0.390392 0.413225 0.473355
586 2 0.411938 0.406578 0.484161
335 4 0.340231 0.383399 0.420904
238 2 0.358538 0.402137 0.455034
240 4 0.346398 0.385425 0.440944
587 4 0.433483 0.39993 0.494968
560 4 0.485991 0.371532 0.422528
2507 4 0.500173 0.380999 0.432808
1381 2 0.0402072 0.494248 0.434803
679 2 0.0604294 0.453242 0.464705
1383 4 0.0366717 0.4696 0.43708
681 4 0.0758091 0.436335 0.474843
680 4 0.0450498 0.47015 0.454567
382 2 0.116029 0.436598 0.456014
568 2 0.1547 0.481015 0.454841
383 4 0.0927827 0.432177 0.464092
569 4 0.14524 0.460212 0.444697
384 4 0.139275 0.441018 0.447936
635 4 0.204435 0.422279 0.484065
634 2 0.214861 0.443897 0.477053
636 4 0.225286 0.465514 0.470041
880 2 0.317453 0.493303 0.493433
667 2 0.284674 0.453614 0.422681
882 4 0.292472 0.494168 0.492818
669 4 0.271793 0.437277 0.43655
4 3 0.30405 0.481171 0.423862
239 4 0.370679 0.418848 0.469123
881 4 0.342434 0.492439 0.494048
663 4 0.450741 0.454807 0.485396
1126 2 0.014555 0.0406529 0.510679
1128 4 0.00494731 0.0437012 0.533561
1057 2 0.137089 0.0735131 0.573292
1058 4 0.125874 0.0512113 0.571862
1523 4 0.0954669 0.024974 0.507633
340 2 0.189668 0.0708171 0.509481
2428 2 0.203926 0.0140321 0.526861
2430 4 0.191578 0.0356038 0.524149
341 4 0.187898 0.0460834 0.506273
430 2 0.32354 0.078059 0.511327
950 4 0.32096 0.0309717 0.580971
961 2 0.293842 0.0192414 0.505205
949 2 0.297374 0.0392169 0.58002
951 4 0.273789 0.047462 0.579069
1217 4 0.388334 0.0575696 0.561576
1216 2 0.39182 0.0328174 0.562171
842 4 0.382395 0.076815 0.559586
1218 4 0.395307 0.00806531 0.562765
938 4 0.0819165 0.120637 0.559411
937 2 0.0835929 0.125528 0.534948
939 4 0.0852693 0.130419 0.510485
1151 4 0.154277 0.107654 0.560557
1059 4 0.148303 0.0958149 0.574723
1155 4 0.158041 0.112869 0.578696
1034 4 0.101564 0.13685 0.501572
342 4 0.191438 0.0955507 0.512689
1150 2 0.169651 0.110235 0.541008
1152 4 0.185025 0.112816 0.52146
431 4 0.33279 0.0985502 0.522269
841 2 0.365669 0.0892085 0.545736
843 4 0.348943 0.101602 0.531886
878 4 0.0376222 0.210458 0.540144
1199 4 0.0192078 0.213183 0.54119
877 2 0.0575302 0.206162 0.55465
879 4 0.0774381 0.201866 0.569155
1272 4 0.0888175 0.192981 0.582163
858 4 0.256636 0.188975 0.554154
857 4 0.293495 0.214386 0.576433
856 2 0.275066 0.20168 0.565294
898 2 0.301007 0.196438 0.518522
791 4 0.294643 0.232235 0.569979
899 4 0.319927 0.187517 0.532219
900 4 0.282087 0.20536 0.504825
873 4 0.373793 0.246297 0.514711
983 4 0.064814 0.314035 0.582619
1258 2 0.128807 0.299744 0.511224
1259 4 0.148718 0.313948 0.516421
1260 4 0.108897 0.28554 0.506028
696 4 0.0974398 0.269361 0.506083
790 2 0.305092 0.254117 0.576077
811 2 0.30185 0.317448 0.508278
804 4 0.26798 0.328418 0.505733
812 4 0.277881 0.311368 0.511975
813 4 0.32582 0.323528 0.50458
871 2 0.394042 0.254719 0.526721
872 4 0.414291 0.263141 0.53873
1239 4 0.353041 0.313561 0.572845
954 4 0.493814 0.306608 0.5766
897 4 0.143211 0.371498 0.572545
1137 4 0.123704 0.376582 0.57413
895 2 0.167053 0.375306 0.579043
1189 2 0.219033 0.378493 0.554993
773 4 0.240442 0.377688 0.519056
1190 4 0.232333 0.370245 0.535493
803 4 0.231583 0.360338 0.518263
772 2 0.230278 0.394758 0.503873
1191 4 0.205733 0.386741 0.574493
802 2 0.249781 0.344378 0.511998
896 4 0.190895 0.379114 0.585541
930 4 0.330661 0.376247 0.514588
928 2 0.309495 0.383123 0.525985
929 4 0.288329 0.389999 0.537383
927 4 0.427667 0.366583 0.553129
925 2 0.431302 0.381442 0.533351
926 4 0.434937 0.396302 0.513573
2243 4 0.15001 0.490474 0.541867
1161 4 0.165635 0.480639 0.551794
1159 2 0.179295 0.471755 0.570759
889 2 0.330382 0.453393 0.569982
1952 4 0.346689 0.501962 0.512488
1002 4 0.38882 0.437737 0.541299
1000 2 0.409643 0.451553 0.540468
890 4 0.347193 0.461758 0.553471
1001 4 0.430466 0.46537 0.539636
662 4 0.454491 0.479212 0.528882
661 2 0.452616 0.467009 0.507139
1911 4 0.439978 0.483106 0.542311
1909 2 0.4471 0.48214 0.566259
1332 4 0.471497 0.489842 0.528504
943 2 0.0799472 0.0145151 0.635548
944 4 0.0964837 0.0330134 0.63246
825 4 0.133879 0.0341739 0.633395
823 2 0.136844 0.010058 0.639295
1030 2 0.239758 0.0696702 0.594006
1032 4 0.218914 0.0823173 0.599549
1031 4 0.260603 0.0570232 0.588462
1092 4 0.335043 0.0118803 0.657156
45 3 0.44387 0.0740465 0.655688
1081 2 0.0172903 0.126626 0.651277
3179 4 0.000962806 0.152967 0.650297
1082 4 0.039415 0.118838 0.659938
1153 2 0.157449 0.135595 0.589107
1154 4 0.156857 0.15832 0.599518
1282 2 0.166449 0.108584 0.659177
1284 4 0.178347 0.112106 0.637469
888 4 0.266549 0.158884 0.665318
3008 4 0.485346 0.1026 0.599253
808 2 0.489939 0.100093 0.643484
809 4 0.490642 0.105223 0.619022
1243 2 0.0708574 0.221167 0.639634
1244 4 0.0576843 0.20283 0.62889
1245 4 0.0840305 0.239503 0.650377
1270 2 0.0962849 0.186844 0.605222
1271 4 0.103752 0.180707 0.628282
1221 4 0.170027 0.172373 0.604519
1210 2 0.232933 0.186199 0.653719
1212 4 0.215316 0.202673 0.647128
1219 2 0.186167 0.184139 0.61956
1220 4 0.202307 0.195904 0.634602
796 2 0.208198 0.235468 0.620588
798 4 0.205652 0.214384 0.633786
1211 4 0.250549 0.169725 0.660311
906 4 0.43703 0.230641 0.591286
904 2 0.455592 0.226772 0.607585
905 4 0.474155 0.222904 0.623884
3123 4 0.479447 0.230629 0.641882
3121 2 0.493957 0.234613 0.661851
982 2 0.0588588 0.330317 0.600637
797 4 0.210743 0.256551 0.60739
947 4 0.184978 0.255073 0.648432
946 2 0.194033 0.275423 0.659792
792 4 0.315541 0.275999 0.582174
1238 4 0.331538 0.274255 0.595059
1237 2 0.34229 0.293908 0.583952
952 2 0.478369 0.314459 0.594628
953 4 0.462924 0.32231 0.612655
984 4 0.0529035 0.346598 0.618654
1041 4 0.0559858 0.349145 0.638114
3263 4 0.0434441 0.336396 0.632153
3262 2 0.0287254 0.335985 0.652361
1039 2 0.0769079 0.361215 0.644575
1135 2 0.106629 0.39211 0.583748
1136 4 0.0895533 0.407637 0.593366
1040 4 0.0978301 0.373286 0.651036
991 2 0.110234 0.411076 0.640512
993 4 0.110856 0.387275 0.648147
1172 4 0.196643 0.397286 0.587932
1206 4 0.46873 0.405393 0.656351
3309 4 0.478729 0.372942 0.611342
992 4 0.109612 0.434877 0.632878
1188 4 0.226566 0.495587 0.627894
1173 4 0.190112 0.445899 0.59767
1171 2 0.193377 0.421592 0.592801
1187 4 0.194951 0.461995 0.608586
1160 4 0.192955 0.462871 0.589724
1186 2 0.210758 0.478791 0.61824
891 4 0.31357 0.445029 0.586492
1204 2 0.451768 0.423429 0.652866
1910 4 0.454222 0.481174 0.590207
1205 4 0.434806 0.441466 0.649381
1269 4 0.430062 0.45089 0.632093
1267 2 0.435084 0.474076 0.63999
1268 4 0.440107 0.497262 0.647887
2256 4 0.215288 0.0107081 0.739107
2254 2 0.196404 0.0264345 0.734496
1147 2 0.219781 0.0826062 0.725327
1149 4 0.239858 0.067706 0.725044
2255 4 0.17752 0.0421609 0.729885
1257 4 0.246208 0.0602909 0.743044
1003 2 0.324378 0.0577937 0.71267
1005 4 0.31557 0.0534193 0.689681
1004 4 0.333186 0.0621681 0.735658
42 3 0.457956 0.0585411 0.686576
41 1 0.452351 0.078382 0.676374
1163 4 0.486428 0.0795018 0.679518
1076 4 0.0384075 0.112909 0.679149
864 4 0.0542397 0.101479 0.740098
1075 2 0.0491667 0.112909 0.701719
1077 4 0.0599258 0.112908 0.724289
909 4 0.105252 0.14618 0.698652
907 2 0.121409 0.127612 0.694259
908 4 0.137567 0.109043 0.689866
1283 4 0.154551 0.105061 0.680884
1227 4 0.155023 0.113862 0.698227
1225 2 0.169267 0.0990534 0.712475
1148 4 0.199704 0.0975063 0.72561
1226 4 0.183511 0.0842451 0.726722
831 4 0.375554 0.160987 0.698643
810 4 0.489235 0.0949633 0.667946
1025 4 0.465866 0.142897 0.686547
44 3 0.471394 0.0915107 0.674531
43 3 0.436461 0.0892496 0.689328
3424 2 0.493424 0.11938 0.696382
3426 4 0.484801 0.0979419 0.686832
1024 2 0.456597 0.16095 0.701154
852 4 0.0491828 0.199254 0.741926
1213 2 0.0176984 0.211185 0.726566
1214 4 0.0360587 0.194278 0.725074
850 2 0.0696556 0.185421 0.745759
1209 4 0.0944623 0.240193 0.667583
1207 2 0.0997989 0.22955 0.68957
1208 4 0.105136 0.218907 0.711557
1106 4 0.141389 0.200487 0.73347
1105 2 0.124493 0.186875 0.745897
822 4 0.16878 0.245053 0.749764
830 4 0.328485 0.175185 0.689498
886 2 0.288545 0.167843 0.673133
887 4 0.310542 0.176801 0.680948
976 2 0.316176 0.200751 0.715374
978 4 0.317445 0.191026 0.692374
977 4 0.314906 0.210477 0.738373
918 4 0.314748 0.227131 0.749166
1142 4 0.381024 0.175495 0.710234
1141 2 0.405231 0.178229 0.715866
1193 4 0.350743 0.249157 0.679564
829 2 0.35202 0.168086 0.694071
1192 2 0.352472 0.22424 0.678425
1194 4 0.354201 0.199322 0.677287
1143 4 0.429438 0.180963 0.721499
1026 4 0.447329 0.179003 0.715761
1261 2 0.45739 0.203747 0.744804
1262 4 0.443686 0.186249 0.733349
948 4 0.203088 0.295774 0.671152
821 4 0.176578 0.283967 0.719339
820 2 0.172679 0.26451 0.734551
1064 4 0.214318 0.302659 0.687087
1065 4 0.229561 0.280046 0.729004
1063 2 0.22194 0.291352 0.708046
893 4 0.0230962 0.338531 0.68925
3264 4 0.0140068 0.335574 0.67257
892 2 0.0267747 0.352574 0.709608
894 4 0.0304533 0.366617 0.729966
3276 4 0.0213873 0.383329 0.733281
814 2 0.0617456 0.385065 0.748354
816 4 0.0379577 0.379946 0.7426
941 4 0.141932 0.391642 0.738634
1067 4 0.159174 0.398016 0.730958
1066 2 0.161492 0.411481 0.710018
940 2 0.117255 0.395592 0.737833
942 4 0.0925781 0.399541 0.737032
1029 4 0.228871 0.407592 0.672811
1027 2 0.206881 0.415977 0.681257
806 4 0.301034 0.36076 0.677464
805 2 0.325874 0.363064 0.675772
807 4 0.350713 0.365368 0.67408
1019 4 0.392645 0.367742 0.709508
1018 2 0.378596 0.35663 0.726954
1020 4 0.364548 0.345518 0.744399
1280 4 0.0584654 0.469701 0.680472
1279 2 0.0428067 0.487393 0.688656
1068 4 0.16381 0.424946 0.689077
1028 4 0.184892 0.424363 0.689702
1140 4 0.248864 0.478975 0.699543
1139 4 0.265653 0.460231 0.742757
1138 2 0.257258 0.469603 0.72115
1228 2 0.397659 0.450701 0.735095
1229 4 0.377374 0.462325 0.743961
1230 4 0.417943 0.439076 0.72623
1100 4 0.43644 0.44214 0.716316
1101 4 0.482876 0.456634 0.727904
1099 2 0.459658 0.449387 0.72211
1251 4 0.478175 0.472176 0.738413
3330 4 0.493255 0.442287 0.720601
1294 2 0.0273843 0.0325161 0.779658
1295 4 0.0160174 0.0485076 0.764158
1296 4 0.0387512 0.0165247 0.795158
911 4 0.0776663 0.0677492 0.829474
2047 2 0.14754 0.999796 0.782889
1203 4 0.100746 0.0721485 0.776788
1201 2 0.11522 0.0520575 0.780258
1202 4 0.129694 0.0319665 0.783728
2049 4 0.139226 0.0198624 0.795274
1255 2 0.255144 0.0634727 0.766179
1256 4 0.264079 0.0666546 0.789313
840 4 0.267332 0.0798568 0.803428
1113 4 0.383764 0.0564041 0.811919
1111 2 0.378602 0.0784661 0.822492
975 4 0.361618 0.0405428 0.833108
2321 4 0.480911 0.00715816 0.798054
2322 4 0.474937 0.0548399 0.784217
2320 2 0.477924 0.030999 0.791135
980 4 0.43279 0.0122537 0.81928
846 4 0.481358 0.0732758 0.792267
862 2 0.0456342 0.108625 0.76246
863 4 0.0370286 0.115771 0.784822
832 2 0.0238965 0.105056 0.824006
833 4 0.0347343 0.117056 0.804935
1125 4 0.0226651 0.148254 0.820458
1123 2 0.037223 0.164081 0.833214
31 1 0.113801 0.143877 0.822101
34 3 0.127195 0.127835 0.81202
32 3 0.0962775 0.148834 0.808047
35 3 0.125895 0.162784 0.825967
838 2 0.26885 0.10027 0.817787
839 4 0.270368 0.120682 0.832147
844 2 0.467735 0.0857011 0.775379
845 4 0.454112 0.0981265 0.758491
1107 4 0.107598 0.173263 0.758324
851 4 0.0901284 0.171588 0.749592
1130 4 0.170933 0.18508 0.758378
1129 2 0.177134 0.20916 0.755755
1131 4 0.183335 0.23324 0.753133
920 4 0.206081 0.200036 0.831009
1241 4 0.223646 0.237363 0.812648
1298 4 0.32976 0.214856 0.749768
916 2 0.293117 0.236647 0.757334
917 4 0.271486 0.246163 0.765502
1084 2 0.352143 0.170809 0.82465
50 3 0.397173 0.187833 0.782439
1086 4 0.344639 0.176851 0.801577
1299 4 0.349567 0.193446 0.790389
1297 2 0.339663 0.204151 0.770079
1043 4 0.398725 0.235499 0.779472
49 3 0.410692 0.220685 0.769964
46 1 0.414886 0.202124 0.783242
1263 4 0.471093 0.221245 0.756259
48 3 0.418722 0.208756 0.805144