ITEM: TIMESTEP
1820000
ITEM: NUMBER OF ATOMS
4590
ITEM: BOX BOUNDS pp pp pp
-9.9985700000000008e+00 9.9985700000000008e+00
-9.9985700000000008e+00 9.9985700000000008e+00
-9.9985700000000008e+00 9.9985700000000008e+00
ITEM: ATOMS id type xs ys zs
463 2 0.0222633 0.038086 0.0386638
465 4 0.0320934 0.0586076 0.0490278
1667 4 0.0365316 0.0505141 0.0673688
701 4 0.046973 0.0622807 0.056689
590 4 0.0307366 0.0685063 0.0653763
700 2 0.0677175 0.0708552 0.0456743
464 4 0.0124332 0.0175645 0.0282998
2184 4 0.0880723 0.00637469 0.987158
994 2 0.142182 0.0318521 0.0151032
996 4 0.120822 0.0189339 0.0136772
995 4 0.163543 0.0447704 0.0165291
567 4 0.179685 0.0495554 0.0261468
533 4 0.179144 0.0520361 0.00646141
1475 4 0.239093 0.0343429 0.0414419
492 4 0.311939 0.0164403 0.0170357
490 2 0.329257 0.0293073 0.0296731
2264 4 0.291594 0.0146285 0.0123923
491 4 0.346575 0.0421743 0.0423104
557 4 0.35889 0.0558795 0.0466363
296 4 0.362635 0.0388135 0.0540088
295 2 0.364176 0.0261116 0.0754906
556 2 0.381112 0.0628739 0.0375578
1607 4 0.385549 0.0063005 0.0195515
558 4 0.403334 0.0698683 0.0284793
589 2 0.0137863 0.0868598 0.0643679
591 4 0.996836 0.105213 0.0633595
2760 4 0.983628 0.120141 0.0624622
702 4 0.088462 0.0794296 0.0346596
423 4 0.0873855 0.0853409 0.0160735
421 2 0.105212 0.0993063 0.00547334
565 2 0.175282 0.0702059 0.0395389
566 4 0.170879 0.0908564 0.052931
745 2 0.434804 0.0847146 0.0143138
746 4 0.412215 0.0854612 0.0250059
827 4 0.451437 0.175493 0.0154197
770 4 0.461592 0.166112 0.0289033
554 4 0.0679663 0.19531 0.0352619
553 2 0.0753379 0.207635 0.014794
555 4 0.0827095 0.21996 0.994326
1055 4 0.0781545 0.238211 0.996147
836 4 0.0961526 0.234589 0.992276
835 2 0.120574 0.239621 0.994131
665 4 0.33965 0.213875 0.0197341
664 2 0.337641 0.229244 0.0393534
666 4 0.335632 0.244614 0.0589727
771 4 0.445572 0.169145 0.0761778
769 2 0.453582 0.167629 0.0525405
1013 4 0.471038 0.173176 0.0138112
656 4 0.000544092 0.264207 0.0610054
837 4 0.144996 0.244653 0.995987
294 4 0.135716 0.268515 0.0180103
292 2 0.133732 0.292975 0.0227987
293 4 0.131748 0.317436 0.0275872
288 4 0.13979 0.334027 0.0189985
507 4 0.142304 0.330085 0.0378568
357 4 0.242937 0.298968 0.999646
355 2 0.228487 0.279483 0.993585
572 4 0.329657 0.262687 0.059024
571 2 0.312493 0.263168 0.0771987
461 4 0.344373 0.255871 0.0713499
1071 4 0.374745 0.30572 0.0237277
1069 2 0.397733 0.296231 0.0263101
956 4 0.374822 0.31861 0.00984811
460 2 0.368234 0.252672 0.0781
955 2 0.358373 0.319768 0.991053
322 2 0.420853 0.261948 0.063692
1070 4 0.420722 0.286742 0.0288925
323 4 0.42814 0.27459 0.0433874
280 2 0.473822 0.326878 0.0381885
282 4 0.489553 0.321861 0.0194127
281 4 0.458091 0.331895 0.0569644
671 4 0.46635 0.331448 0.0748805
315 4 0.0499067 0.398275 0.0347339
313 2 0.0416344 0.409485 0.0554964
286 2 0.130604 0.35416 0.00735973
505 2 0.162999 0.337713 0.0496346
506 4 0.183694 0.345342 0.0614123
483 4 0.191236 0.330958 0.0718532
525 4 0.335884 0.395059 0.0598505
523 2 0.323433 0.410822 0.0747386
608 4 0.343791 0.378932 0.0669349
251 4 0.35223 0.382104 0.00236523
250 2 0.343957 0.379962 0.0258632
252 4 0.335685 0.377819 0.0493612
314 4 0.0333622 0.420695 0.0762589
795 4 0.15352 0.498628 0.00172635
1440 4 0.240089 0.485799 0.0788676
245 4 0.249328 0.493382 0.0629401
244 2 0.267781 0.506053 0.0517987
562 2 0.488598 0.483395 0.0123544
37 3 0.407423 0.422511 0.999807
1666 2 0.0430214 0.0429952 0.0903149
1806 4 0.0572336 0.019478 0.122569
1421 4 0.0479286 0.0344469 0.130264
1668 4 0.0495111 0.0354762 0.113261
1420 2 0.0310234 0.0429812 0.146591
1416 4 0.0405473 0.0200947 0.11862
1805 4 0.104376 0.0329604 0.132394
1804 2 0.0808048 0.0262192 0.127481
1504 2 0.227444 0.0908014 0.145006
1505 4 0.219104 0.076979 0.164099
690 4 0.227127 0.0150684 0.1489
689 4 0.215709 0.0605111 0.166373
688 2 0.221418 0.0377898 0.157637
652 2 0.314116 0.0739397 0.129444
654 4 0.306342 0.0715058 0.153083
653 4 0.321891 0.0763737 0.105805
582 4 0.30576 0.0596675 0.168169
1506 4 0.235785 0.104624 0.125913
297 4 0.365716 0.0134098 0.0969724
757 2 0.388922 0.0278241 0.150631
758 4 0.404326 0.0232335 0.131478
485 4 0.379947 0.000243709 0.0936594
1759 2 0.493976 0.998327 0.1389
235 2 0.153956 0.119996 0.150089
236 4 0.153745 0.101676 0.167104
237 4 0.154167 0.138316 0.133074
737 4 0.156792 0.153562 0.119874
736 2 0.174822 0.168728 0.111504
285 4 0.283927 0.1583 0.152366
476 4 0.0942399 0.166508 0.177778
475 2 0.0917749 0.188378 0.165912
738 4 0.192853 0.183894 0.103133
283 2 0.293177 0.173178 0.134526
354 4 0.287934 0.200722 0.121708
352 2 0.288801 0.22361 0.111681
284 4 0.302428 0.188055 0.116686
254 4 0.417476 0.211847 0.135071
253 2 0.410326 0.227033 0.116539
462 4 0.392096 0.249473 0.0848501
255 4 0.403176 0.242219 0.0980068
630 4 0.419475 0.196365 0.119231
629 4 0.437544 0.159206 0.091064
628 2 0.42851 0.177785 0.105148
703 2 0.012819 0.328347 0.171654
361 2 0.163666 0.271227 0.170297
481 2 0.19251 0.333336 0.0967108
535 2 0.199144 0.301473 0.140924
536 4 0.197702 0.315825 0.1205
482 4 0.193785 0.335714 0.121568
362 4 0.186481 0.273752 0.160382
537 4 0.200587 0.287122 0.161348
353 4 0.289668 0.246498 0.101653
573 4 0.295328 0.263649 0.0953734
754 2 0.282965 0.277688 0.12803
755 4 0.281052 0.263236 0.107716
756 4 0.284878 0.292139 0.148344
610 2 0.300234 0.326746 0.161221
612 4 0.285721 0.306393 0.160663
622 2 0.35441 0.311847 0.116906
624 4 0.353777 0.287174 0.120904
765 4 0.35551 0.286434 0.142192
324 4 0.413566 0.249307 0.0839966
763 2 0.359934 0.27873 0.165564
623 4 0.355043 0.336521 0.112908
2652 4 0.481584 0.312223 0.119006
528 4 0.496865 0.324458 0.122721
670 2 0.44799 0.340544 0.0892112
705 4 0.0200997 0.350142 0.161797
648 4 0.0125741 0.36568 0.171462
620 4 0.0123352 0.364287 0.151808
619 2 0.00374387 0.361206 0.128529
455 4 0.125213 0.395007 0.133668
454 2 0.121687 0.396356 0.158385
626 4 0.239628 0.392735 0.133084
627 4 0.266369 0.434697 0.128104
625 2 0.252999 0.413716 0.130594
387 4 0.325853 0.363055 0.163201
611 4 0.314747 0.347099 0.161778
385 2 0.340192 0.357698 0.143431
607 2 0.352305 0.365771 0.0864153
609 4 0.360819 0.352611 0.105896
740 4 0.370691 0.347169 0.121399
386 4 0.354531 0.352341 0.12366
739 2 0.3956 0.348346 0.119568
741 4 0.420508 0.349523 0.117738
13 3 0.428647 0.36594 0.153055
672 4 0.42963 0.349639 0.103542
15 3 0.435039 0.392141 0.126782
11 1 0.441757 0.371942 0.134875
526 2 0.490102 0.345696 0.134053
12 3 0.439404 0.356029 0.118432
14 3 0.464062 0.372963 0.141188
495 4 0.482736 0.382235 0.144946
493 2 0.48663 0.404052 0.133369
527 4 0.483339 0.366933 0.145385
597 4 0.497951 0.376404 0.155534
645 4 0.477394 0.374351 0.157131
1788 4 0.0271891 0.470411 0.123755
1787 4 0.0282024 0.431263 0.0926565
1786 2 0.0276957 0.450837 0.108206
1466 4 0.0209879 0.475871 0.140641
1791 4 0.027107 0.490033 0.129585
1465 2 0.00720777 0.477632 0.16143
524 4 0.310982 0.426586 0.0896267
637 2 0.265237 0.477764 0.15523
639 4 0.256125 0.496923 0.141998
494 4 0.490524 0.425869 0.121792
1422 4 0.0141181 0.0515155 0.162917
1799 4 0.0370605 0.000691807 0.235976
2480 4 0.00960712 0.0633948 0.169136
19 3 0.0202357 0.0522549 0.182141
20 3 0.0525352 0.0412456 0.198053
16 1 0.0355493 0.0563808 0.199079
18 3 0.0250505 0.0551117 0.219732
675 4 0.0655575 0.0286371 0.20591
17 3 0.044102 0.077563 0.196373
673 2 0.0834643 0.0277951 0.22334
450 4 0.120761 0.0458297 0.184266
448 2 0.134101 0.0667102 0.180916
674 4 0.101371 0.026953 0.24077
28 3 0.224244 0.07363 0.178726
692 4 0.208238 0.069195 0.179696
26 1 0.236751 0.0746926 0.198242
29 3 0.230654 0.0933941 0.210549
27 3 0.232588 0.0558593 0.210777
691 2 0.186902 0.0822295 0.179969
311 4 0.322944 0.0670389 0.165182
580 2 0.289282 0.0745137 0.179712
759 4 0.373518 0.0324147 0.169784
310 2 0.342492 0.054301 0.17417
22 3 0.381056 0.0511813 0.214413
312 4 0.362041 0.0415631 0.183158
25 3 0.375593 0.0287656 0.185077
21 1 0.386276 0.0308124 0.205085
24 3 0.379393 0.0139782 0.219494
23 3 0.409239 0.0296605 0.201953
1496 4 0.386878 0.00523629 0.234813
744 4 0.422078 0.0413703 0.212414
742 2 0.436205 0.0552401 0.227686
743 4 0.450332 0.06911 0.242958
511 2 0.0169002 0.129829 0.219268
513 4 0.0416277 0.128433 0.2227
578 4 0.0597469 0.133436 0.228854
449 4 0.147442 0.0875906 0.177566
723 4 0.152482 0.101726 0.188461
721 2 0.149659 0.120246 0.20502
722 4 0.146836 0.138766 0.221579
693 4 0.165566 0.095264 0.180242
546 4 0.159487 0.153378 0.225085
544 2 0.171427 0.147593 0.246278
30 3 0.258944 0.0755992 0.193209
581 4 0.272804 0.0893598 0.191255
351 4 0.464406 0.0769122 0.255517
477 4 0.0893099 0.210248 0.154046
339 4 0.0935486 0.222542 0.169049
337 2 0.107906 0.241643 0.176411
333 4 0.443867 0.171941 0.24065
331 2 0.463542 0.180725 0.253336
395 4 0.0230536 0.275803 0.227169
749 4 0.0414881 0.271367 0.218838
748 2 0.0630832 0.282804 0.213546
394 2 0.0117576 0.272431 0.249219
704 4 0.00553835 0.306553 0.18151
363 4 0.140852 0.268701 0.180212
338 4 0.122263 0.260744 0.183773
750 4 0.0846784 0.294242 0.208254
300 4 0.132624 0.298536 0.236165
372 4 0.197123 0.276985 0.177242
370 2 0.216773 0.265604 0.187709
371 4 0.236423 0.254224 0.198175
279 4 0.250427 0.26771 0.192561
278 4 0.28856 0.289596 0.168739
277 2 0.269493 0.278653 0.18065
344 4 0.281579 0.304454 0.21662
343 2 0.298083 0.295719 0.233247
345 4 0.314588 0.286984 0.249875
308 4 0.33265 0.281268 0.243371
307 2 0.348949 0.274576 0.22563
764 4 0.364359 0.271025 0.188936
309 4 0.365247 0.267885 0.207889
613 2 0.396194 0.329432 0.249941
2692 2 0.00812124 0.395851 0.240923
2694 4 0.017511 0.403721 0.219127
647 4 0.0178846 0.407035 0.199072
646 2 0.0152293 0.386357 0.185267
456 4 0.11816 0.397706 0.183102
302 4 0.32528 0.350561 0.178367
301 2 0.3166 0.360612 0.199552
303 4 0.30792 0.370664 0.220737
727 2 0.300264 0.386176 0.256107
729 4 0.296339 0.382016 0.231766
614 4 0.404818 0.340352 0.229167
446 4 0.398716 0.352272 0.21362
445 2 0.421815 0.357535 0.205623
447 4 0.444913 0.362797 0.197627
643 2 0.470076 0.368965 0.180425
644 4 0.462759 0.363579 0.20372
603 4 0.0248825 0.419764 0.211662
262 2 0.0782968 0.48375 0.231486
263 4 0.0617147 0.466293 0.224743
601 2 0.0332796 0.44305 0.215183
602 4 0.0416766 0.466337 0.218703
1467 4 0.993428 0.479392 0.182219
415 2 0.151002 0.477757 0.197996
416 4 0.163653 0.463253 0.213957
417 4 0.138351 0.492261 0.182034
413 4 0.159628 0.449016 0.225787
290 4 0.202544 0.423686 0.187172
289 2 0.190504 0.437601 0.204102
291 4 0.178464 0.451516 0.221031
768 4 0.222803 0.422721 0.188763
766 2 0.245082 0.433537 0.185322
638 4 0.27435 0.458605 0.168462
767 4 0.267361 0.444352 0.18188
660 4 0.350997 0.473022 0.189754
658 2 0.363516 0.463676 0.209276
659 4 0.376035 0.45433 0.228798
1404 4 0.0343804 0.0170536 0.24798
232 2 0.026481 0.0545958 0.323531
233 4 0.0267754 0.0609016 0.299338
1402 2 0.0296226 0.0340343 0.265706
1403 4 0.0248648 0.051015 0.283431
316 2 0.0556279 0.0825652 0.283713
317 4 0.0384624 0.0643907 0.284175
530 4 0.02086 0.0713196 0.287069
1700 4 0.175082 0.0197706 0.312208
1699 2 0.180634 0.00856337 0.290558
479 4 0.436983 0.0621884 0.316972
1749 4 0.477237 0.0234936 0.30613
480 4 0.470761 0.0262872 0.32539
478 2 0.453872 0.0442378 0.321181
318 4 0.0727934 0.10074 0.28325
577 2 0.0649029 0.125636 0.252044
397 2 0.0699807 0.133951 0.308854
579 4 0.0700588 0.117837 0.275234
398 4 0.0795729 0.118562 0.291639
399 4 0.0603884 0.14934 0.326068
731 4 0.0886862 0.109797 0.277407
732 4 0.134746 0.0936018 0.288218
600 4 0.153136 0.0871728 0.28574
730 2 0.111716 0.101699 0.282813
598 2 0.165893 0.108565 0.283547
599 4 0.178651 0.129957 0.281355
545 4 0.183368 0.141808 0.267471
392 4 0.178476 0.148343 0.286046
247 2 0.307339 0.110639 0.294509
249 4 0.303831 0.120444 0.317241
404 4 0.295544 0.13595 0.326418
683 4 0.288765 0.11819 0.328264
248 4 0.310847 0.100834 0.271777
633 4 0.406635 0.161751 0.278472
707 4 0.397271 0.152952 0.293868
706 2 0.377001 0.164481 0.302892
631 2 0.426864 0.148105 0.283926
632 4 0.447093 0.134459 0.28938
349 2 0.456824 0.0960026 0.269774
350 4 0.449242 0.115093 0.28403
452 4 0.454239 0.120835 0.301394
451 2 0.460437 0.129926 0.323846
444 4 0.000211148 0.231294 0.312346
442 2 0.00651942 0.251585 0.299169
2655 4 0.994847 0.242972 0.32824
393 4 0.197994 0.19213 0.300275
391 2 0.188235 0.170236 0.29316
708 4 0.356732 0.176009 0.311916
332 4 0.483217 0.18951 0.266021
521 4 0.494273 0.175427 0.272457
762 4 0.481144 0.183671 0.284382
760 2 0.473946 0.196826 0.30439
761 4 0.466748 0.209982 0.324397
419 4 0.458082 0.228296 0.318409
396 4 0.00046162 0.269059 0.271269
298 2 0.138771 0.301834 0.260176
733 2 0.145821 0.305936 0.3192
734 4 0.137344 0.31584 0.297865
299 4 0.144917 0.305131 0.284187
400 2 0.219752 0.300015 0.305815
401 4 0.203019 0.307743 0.288918
402 4 0.236484 0.292287 0.322711
498 4 0.309462 0.264803 0.30544
377 4 0.297185 0.280291 0.305298
496 2 0.317694 0.26938 0.282279
497 4 0.325927 0.273958 0.259117
376 2 0.276299 0.286682 0.317468
378 4 0.255413 0.293074 0.329638
615 4 0.38757 0.318513 0.270715
543 4 0.398163 0.317123 0.287913
2537 4 0.48783 0.321764 0.261225
541 2 0.420832 0.321898 0.297318
542 4 0.443502 0.326673 0.306723
2536 2 0.47469 0.322553 0.282483
2538 4 0.46155 0.323342 0.303741
2924 4 0.457929 0.322491 0.322082
366 4 0.00511515 0.345623 0.281913
364 2 0.00219894 0.352204 0.305858
728 4 0.304189 0.390336 0.280447
434 4 0.295949 0.38435 0.29744
433 2 0.316375 0.387454 0.311523
435 4 0.3368 0.390557 0.325606
2923 2 0.458448 0.342507 0.337058
2463 4 0.022245 0.470253 0.321526
412 2 0.143699 0.449451 0.245054
777 4 0.119314 0.448736 0.282981
775 2 0.110596 0.448903 0.306415
414 4 0.127769 0.449885 0.264322
776 4 0.101878 0.449069 0.329849
436 2 0.330771 0.482663 0.278819
1574 4 0.282057 0.501519 0.26442
438 4 0.320799 0.479549 0.301536
3 3 0.315938 0.488431 0.319634
4 3 0.353925 0.489604 0.319654
713 4 0.400536 0.474866 0.309986
712 2 0.422859 0.470225 0.299724
714 4 0.445182 0.465583 0.289461
234 4 0.0261867 0.04829 0.347725
1780 2 0.0977671 0.00313864 0.373374
1781 4 0.111219 0.0208989 0.384722
368 4 0.11142 0.0319498 0.400863
367 2 0.0970289 0.0478955 0.413662
321 4 0.204148 0.0728813 0.391275
441 4 0.262727 0.0142907 0.36497
698 4 0.366033 0.00621351 0.374177
257 4 0.376194 0.0237807 0.369664
256 2 0.384553 0.0366478 0.389406
2643 4 0.488423 0.0297902 0.320258
459 4 0.0164104 0.12934 0.365013
457 2 0.0158986 0.15284 0.373538
687 4 0.170654 0.167468 0.353807
319 2 0.225171 0.0761859 0.378149
320 4 0.246194 0.0794905 0.365023
682 2 0.275983 0.101083 0.341271
684 4 0.263202 0.0839757 0.354277
403 2 0.294946 0.159722 0.334146
575 4 0.430654 0.133252 0.406568
453 4 0.466634 0.139018 0.346299
514 2 0.457357 0.136161 0.381152
515 4 0.469176 0.1486 0.362965
516 4 0.445538 0.123723 0.399339
458 4 0.0153869 0.17634 0.382063
2653 2 0.996972 0.244527 0.353104
2654 4 0.999096 0.246081 0.377969
390 4 0.00399266 0.244925 0.396943
388 2 0.0252318 0.245881 0.410102
389 4 0.0464709 0.246838 0.423261
685 2 0.169492 0.186865 0.369541
686 4 0.16833 0.206263 0.385276
275 4 0.233501 0.249741 0.372969
405 4 0.294348 0.183494 0.341873
474 4 0.292131 0.194698 0.358413
472 2 0.286319 0.205869 0.380014
473 4 0.280507 0.21704 0.401615
420 4 0.437086 0.238062 0.362732
418 2 0.447584 0.233179 0.340571
269 4 0.431346 0.251659 0.375186
268 2 0.433695 0.238015 0.396007
346 2 0.057058 0.329738 0.404121
735 4 0.154298 0.296031 0.340536
677 4 0.162009 0.31321 0.346639
276 4 0.240419 0.283813 0.337025
510 4 0.241105 0.303355 0.337817
676 2 0.177229 0.307956 0.365769
678 4 0.192448 0.302702 0.384898
274 2 0.23696 0.266777 0.354997
375 4 0.197189 0.282816 0.387446
373 2 0.203807 0.276251 0.410647
508 2 0.250199 0.323145 0.350098
717 4 0.419175 0.246555 0.361261
716 4 0.385378 0.2834 0.360278
715 2 0.402276 0.264978 0.36077
616 2 0.0327616 0.354097 0.352424
617 4 0.0181989 0.363641 0.33448
618 4 0.0473243 0.344553 0.370369
326 4 0.0601498 0.359329 0.371736
347 4 0.0561178 0.348476 0.387593
325 2 0.0830743 0.369298 0.371227
327 4 0.105999 0.379268 0.370718
408 4 0.101122 0.398398 0.364637
509 4 0.259293 0.342934 0.36238
503 4 0.265272 0.342966 0.382026
502 2 0.270212 0.337015 0.405804
753 4 0.39823 0.387755 0.344571
587 4 0.381688 0.378652 0.351191
586 2 0.370142 0.394079 0.367124
588 4 0.358597 0.409507 0.383057
751 2 0.42187 0.381956 0.350289
561 4 0.447877 0.362158 0.368587
752 4 0.44551 0.376157 0.356008
559 2 0.456272 0.360897 0.392105
2925 4 0.458967 0.362524 0.352033
560 4 0.464667 0.359635 0.415623
1381 2 0.0235124 0.503755 0.38233
549 4 0.0390131 0.474969 0.333468
547 2 0.0616387 0.464333 0.333826
2461 2 0.0065539 0.472166 0.340899
1383 4 0.0131139 0.486858 0.397546
548 4 0.0842644 0.453696 0.334184
500 4 0.0989587 0.461295 0.344421
406 2 0.0966199 0.421085 0.35514
407 4 0.0921182 0.443772 0.345642
499 2 0.114277 0.478702 0.353777
5 3 0.335685 0.464243 0.340673
669 4 0.345595 0.459894 0.357734
1 1 0.335034 0.485482 0.332481
2 3 0.334565 0.500357 0.350022
667 2 0.346956 0.442777 0.375909
668 4 0.348317 0.425659 0.394084
718 2 0.0629928 0.0760591 0.450547
720 4 0.0532562 0.0705306 0.472904
2236 2 0.0249438 0.0378714 0.469436
2237 4 0.044427 0.0535376 0.469829
719 4 0.0727293 0.0815877 0.428191
1127 4 0.0583434 0.0563497 0.484229
369 4 0.0826376 0.0638412 0.426461
605 4 0.253008 0.0342504 0.459947
604 2 0.262393 0.0309855 0.482891
606 4 0.271779 0.0277206 0.505835
426 4 0.383595 0.0455339 0.426635
258 4 0.392912 0.0495149 0.409148
424 2 0.40169 0.0426502 0.443649
425 4 0.419785 0.0397664 0.460662
259 2 0.0415907 0.134574 0.493705
260 4 0.0224462 0.128909 0.478652
466 2 0.320154 0.167306 0.475999
467 4 0.301865 0.177224 0.462131
468 4 0.338443 0.157389 0.489867
574 2 0.419563 0.116465 0.421411
576 4 0.408471 0.0996767 0.436255
725 4 0.333944 0.138538 0.49821
2878 2 0.500855 0.120884 0.476945
642 4 0.489359 0.0868517 0.49689
2880 4 0.49198 0.106847 0.495636
695 4 0.147061 0.237246 0.443256
489 4 0.272953 0.222041 0.419118
411 4 0.282939 0.17376 0.454479
409 2 0.279982 0.188644 0.434607
410 4 0.277025 0.203529 0.414736
487 2 0.280665 0.244027 0.42819
872 4 0.338623 0.232807 0.485674
270 4 0.436043 0.224371 0.416827
3157 2 0.489862 0.193415 0.488875
3159 4 0.477598 0.19149 0.467171
305 4 0.463561 0.194929 0.452748
306 4 0.427109 0.224629 0.435721
304 2 0.445335 0.209779 0.444234
348 4 0.0579982 0.311 0.42065
694 2 0.145181 0.255591 0.460142
696 4 0.143301 0.273935 0.477028
10 3 0.143735 0.29145 0.484533
1260 4 0.149992 0.272878 0.490804
6 1 0.132906 0.3098 0.476491
7 3 0.120046 0.303695 0.458422
9 3 0.119081 0.318653 0.492889
8 3 0.148329 0.325741 0.469678
983 4 0.108317 0.334752 0.49306
374 4 0.210425 0.269686 0.433848
711 4 0.169086 0.323995 0.468848
709 2 0.191925 0.331956 0.475188
504 4 0.275151 0.331064 0.429581
266 4 0.303471 0.27823 0.443258
265 2 0.287938 0.297824 0.443367
267 4 0.272406 0.317417 0.443476
488 4 0.288377 0.266014 0.437262
871 2 0.353317 0.253018 0.486564
873 4 0.368011 0.273229 0.487455
2456 4 0.495988 0.269081 0.444786
583 2 0.455204 0.278905 0.462422
584 4 0.475519 0.270013 0.45087
585 4 0.43489 0.287797 0.473973
570 4 0.111696 0.39103 0.43031
568 2 0.095675 0.407224 0.440618
804 4 0.232831 0.403009 0.49624
710 4 0.214763 0.339918 0.481528
803 4 0.222907 0.357643 0.477689
802 2 0.227869 0.380326 0.486965
650 4 0.225595 0.348775 0.495135
240 4 0.400854 0.382021 0.47856
334 2 0.367381 0.401384 0.492059
335 4 0.381539 0.388339 0.476105
3308 4 0.493225 0.367993 0.482341
2508 4 0.492524 0.368427 0.463629
2507 4 0.475138 0.375921 0.417344
2506 2 0.483831 0.372174 0.440487
3307 2 0.476007 0.377279 0.497912
238 2 0.420961 0.381705 0.493419
680 4 0.0187926 0.488126 0.41753
679 2 0.0146285 0.465725 0.427827
681 4 0.0104644 0.443323 0.438123
383 4 0.0182399 0.438818 0.456686
382 2 0.0420866 0.432694 0.461046
384 4 0.0659333 0.42657 0.465406
539 4 0.0845454 0.432463 0.466932
538 2 0.097827 0.439389 0.486952
569 4 0.079654 0.423419 0.450926
1555 2 0.239538 0.48529 0.435956
636 4 0.206684 0.481576 0.451837
635 4 0.189594 0.495723 0.496653
1557 4 0.221144 0.470829 0.444771
634 2 0.198139 0.488649 0.474245
1453 2 0.297972 0.489975 0.487079
882 4 0.330576 0.470986 0.475913
1454 4 0.316204 0.483905 0.471081
880 2 0.335835 0.449271 0.487135
881 4 0.341094 0.427555 0.498357
1126 2 0.0573927 0.0566055 0.509213
1128 4 0.0564421 0.0568613 0.534197
939 4 0.075206 0.0618072 0.539289
945 4 0.0352565 0.0255521 0.592943
1057 2 0.144628 0.0588302 0.580293
1059 4 0.132765 0.071829 0.562531
937 2 0.0993324 0.0674871 0.54258
938 4 0.123459 0.0731671 0.545872
1524 4 0.114589 0.998456 0.508494
341 4 0.215993 0.0153537 0.530267
340 2 0.222549 0.0394716 0.529539
342 4 0.229104 0.0635896 0.52881
2430 4 0.218744 0.00425467 0.546928
1182 4 0.233301 0.0795402 0.53775
961 2 0.296906 0.0476918 0.576064
963 4 0.287491 0.0645337 0.560161
432 4 0.296974 0.0683132 0.54335
430 2 0.319104 0.0719366 0.532291
1181 4 0.28223 0.0792303 0.54807
1180 2 0.257765 0.0793852 0.54291
842 4 0.392814 0.0420754 0.517802
841 2 0.374129 0.0580834 0.513353
1217 4 0.404797 0.0341144 0.530457
1581 4 0.401089 0.0250719 0.512907
89 3 0.401358 0.000912903 0.556127
843 4 0.355444 0.0740913 0.508903
431 4 0.341235 0.0755599 0.521232
87 3 0.377604 0.000131128 0.585244
1579 2 0.392294 0.00205152 0.508677
1216 2 0.426727 0.0460771 0.531532
1218 4 0.448656 0.0580397 0.532608
641 4 0.448144 0.0742544 0.522254
640 2 0.468752 0.080553 0.509572
1060 2 0.509961 0.0116654 0.522473
261 4 0.0607351 0.140238 0.508757
1155 4 0.135642 0.085128 0.547159
1035 4 0.0723974 0.148384 0.522501
1153 2 0.152697 0.101937 0.539965
1154 4 0.169752 0.118747 0.532771
1152 4 0.224231 0.0794273 0.519297
1151 4 0.185989 0.111225 0.524506
1150 2 0.20511 0.0953262 0.521902
898 2 0.362403 0.14455 0.56877
899 4 0.340815 0.138286 0.557819
726 4 0.344892 0.091733 0.511998
724 2 0.339418 0.115136 0.505104
1033 2 0.0849497 0.160738 0.540248
1034 4 0.097502 0.173093 0.557996
2916 4 0.993633 0.232014 0.497493
858 4 0.225911 0.170043 0.547116
857 4 0.239888 0.217616 0.540624
856 2 0.232899 0.193829 0.54387
3065 4 0.479169 0.236563 0.54863
3064 2 0.493717 0.219257 0.537949
905 4 0.463182 0.231554 0.560007
904 2 0.443845 0.245665 0.567225
3158 4 0.502127 0.195341 0.510579
3066 4 0.508264 0.201952 0.527268
471 4 0.998951 0.250278 0.501072
1258 2 0.166237 0.274498 0.509742
948 4 0.228556 0.293617 0.598896
1259 4 0.182483 0.276118 0.528679
649 2 0.238635 0.33016 0.505558
651 4 0.251674 0.311544 0.51598
811 2 0.291195 0.318426 0.533445
1239 4 0.319455 0.327056 0.55843
812 4 0.267935 0.321286 0.524728
813 4 0.314455 0.315567 0.542161
1237 2 0.336167 0.316746 0.573908
1238 4 0.35288 0.306436 0.589386
952 2 0.389077 0.284194 0.582176
954 4 0.411876 0.273938 0.581723
906 4 0.424507 0.259777 0.574442
1136 4 0.0747692 0.371372 0.537325
1135 2 0.0811224 0.377861 0.560621
984 4 0.0802599 0.368365 0.517219
935 4 0.996379 0.394751 0.519969
1137 4 0.0874756 0.384349 0.583918
982 2 0.0942886 0.351558 0.505139
896 4 0.148864 0.413661 0.569476
895 2 0.127081 0.403959 0.576997
1191 4 0.161095 0.408027 0.555133
1189 2 0.165896 0.385628 0.545112
1190 4 0.170697 0.363229 0.535091
336 4 0.353222 0.41443 0.508014
925 2 0.43916 0.373403 0.548253
926 4 0.443328 0.385073 0.526537
3309 4 0.458789 0.386565 0.513484
927 4 0.434991 0.361733 0.56997
239 4 0.441069 0.38139 0.508277
663 4 0.445333 0.399304 0.517299
1001 4 0.427083 0.375992 0.582296
2243 4 0.151013 0.421324 0.551296
2242 2 0.139379 0.435954 0.534689
1161 4 0.163679 0.425344 0.565061
2244 4 0.127745 0.450584 0.518082
540 4 0.111109 0.446315 0.506973
1159 2 0.18517 0.427725 0.577617
772 2 0.186628 0.490503 0.529623
774 4 0.180865 0.48206 0.506805
1171 2 0.304334 0.444621 0.571684
1173 4 0.283475 0.441745 0.585168
1172 4 0.325193 0.447496 0.558201
2153 4 0.275086 0.48843 0.520215
929 4 0.338265 0.434915 0.564396
891 4 0.34187 0.45501 0.563548
889 2 0.355774 0.47446 0.570865
1331 4 0.387023 0.480124 0.508865
1330 2 0.405732 0.466531 0.518373
928 2 0.353937 0.419621 0.576465
661 2 0.444406 0.424189 0.519545
662 4 0.443479 0.449074 0.52179
1910 4 0.431946 0.485468 0.586358
1332 4 0.424441 0.452939 0.527881
943 2 0.0260746 0.0487922 0.592065
944 4 0.0168928 0.0720323 0.591187
2319 4 0.0452479 0.0119325 0.603619
1083 4 0.0109415 0.078389 0.607854
1058 4 0.156492 0.0458315 0.598055
962 4 0.30632 0.0308498 0.591966
950 4 0.304113 0.0137467 0.599847
2196 4 0.321663 0.0243724 0.60066
1005 4 0.319346 0.0347238 0.667032
2194 2 0.344741 0.0199513 0.592111
2195 4 0.367818 0.0155302 0.583563
1090 2 0.394635 0.0337268 0.639203
1092 4 0.373844 0.0457117 0.646223
1004 4 0.363393 0.0568342 0.658561
1003 2 0.34137 0.045779 0.662797
1091 4 0.415426 0.0217419 0.632184
2283 4 0.422074 0.00339966 0.636284
43 3 0.478189 0.0717508 0.653743
44 3 0.445857 0.0715392 0.673719
1081 2 0.00384069 0.0951076 0.625036
879 4 0.0667066 0.176767 0.621059
1272 4 0.0797342 0.171217 0.607895
1221 4 0.136609 0.156948 0.613727
1271 4 0.121297 0.145776 0.619119
1270 2 0.100516 0.158496 0.613507
909 4 0.167724 0.109564 0.659828
1283 4 0.187722 0.105341 0.657255
1031 4 0.247116 0.108797 0.624496
1284 4 0.22851 0.104915 0.628327
1282 2 0.208116 0.105128 0.642791
1030 2 0.268893 0.10598 0.612538
1032 4 0.290671 0.103164 0.600581
45 3 0.462857 0.104095 0.665424
809 4 0.478622 0.110585 0.655157
810 4 0.463475 0.13801 0.616181
808 2 0.471049 0.124297 0.635669
878 4 0.0178611 0.16946 0.613221
877 2 0.0422838 0.173113 0.61714
1219 2 0.157996 0.16979 0.615417
1211 4 0.226256 0.173988 0.657574
1210 2 0.210919 0.183849 0.640465
1212 4 0.195581 0.19371 0.623356
1220 4 0.179383 0.182632 0.617108
796 2 0.178661 0.226562 0.620766
798 4 0.179354 0.201729 0.617931
888 4 0.218419 0.167699 0.674683
900 4 0.38399 0.150813 0.579721
791 4 0.328895 0.243141 0.592205
1025 4 0.458478 0.19801 0.644104
1024 2 0.479606 0.210401 0.63908
1243 2 0.0344333 0.287308 0.656655
1244 4 0.0133179 0.289812 0.6435
3044 4 0.0130636 0.280952 0.625414
797 4 0.177968 0.251394 0.623601
947 4 0.19459 0.260534 0.614791
946 2 0.211573 0.277076 0.606844
953 4 0.366277 0.294449 0.582629
792 4 0.352894 0.28695 0.594568
790 2 0.340894 0.265046 0.593387
1039 2 0.0890704 0.379294 0.616131
1040 4 0.075965 0.380038 0.637412
993 4 0.0705371 0.386608 0.65531
897 4 0.105299 0.394257 0.584518
1041 4 0.102176 0.37855 0.59485
807 4 0.346393 0.395628 0.649019
1000 2 0.407345 0.389777 0.589048
1002 4 0.387607 0.403561 0.5958
930 4 0.36961 0.404328 0.588534
805 2 0.360043 0.400046 0.628542
806 4 0.373693 0.404464 0.608064
1160 4 0.20666 0.430107 0.590174
1187 4 0.276394 0.434482 0.602892
1188 4 0.255836 0.455802 0.643185
1186 2 0.266115 0.445142 0.623039
1140 4 0.258921 0.439209 0.653153
1909 2 0.40847 0.494038 0.585582
1269 4 0.421058 0.435172 0.61201
890 4 0.369679 0.49391 0.578182
1911 4 0.384994 0.502608 0.584807
1267 2 0.428906 0.441109 0.634997
2168 4 0.431555 0.45795 0.671842
1268 4 0.436753 0.447045 0.657983
1100 4 0.451246 0.452569 0.669046
41 1 0.466243 0.0821945 0.670673
2321 4 0.495634 0.0168869 0.739721
42 3 0.47832 0.0808653 0.690207
1162 2 0.486394 0.0558033 0.719667
1163 4 0.482754 0.0782113 0.709188
1164 4 0.490034 0.0333954 0.730146
862 2 0.0140809 0.121659 0.746064
864 4 0.0117717 0.114521 0.722212
908 4 0.174756 0.0902544 0.705417
907 2 0.17124 0.0999091 0.682623
1227 4 0.157559 0.0813436 0.710992
34 3 0.139748 0.157244 0.769757
1225 2 0.168855 0.0830254 0.733235
831 4 0.287072 0.142913 0.733364
1299 4 0.286415 0.127127 0.722628
1297 2 0.305588 0.114764 0.712392
1298 4 0.32476 0.102402 0.702156
829 2 0.274299 0.163316 0.726598
839 4 0.278362 0.125622 0.739933
3426 4 0.489977 0.0915764 0.702199
852 4 0.0338615 0.220129 0.718097
850 2 0.0474396 0.199527 0.722143
1208 4 0.0480589 0.224926 0.704138
1207 2 0.0501517 0.247362 0.693301
851 4 0.0610177 0.178925 0.726189
1107 4 0.0756746 0.166616 0.72886
1072 2 0.131859 0.230237 0.751759
35 3 0.129051 0.191703 0.758996
1073 4 0.123094 0.207664 0.757988
1105 2 0.0949394 0.178172 0.739838
1106 4 0.114204 0.189728 0.750815
1130 4 0.178675 0.181031 0.7384
886 2 0.238584 0.172334 0.688721
33 3 0.163424 0.17934 0.749868
887 4 0.258749 0.176968 0.702759
830 4 0.261526 0.183718 0.719832
976 2 0.262617 0.220415 0.715025
978 4 0.256177 0.197269 0.7081
977 4 0.269057 0.243561 0.721951
918 4 0.276417 0.248138 0.74132
1192 2 0.394199 0.183067 0.751841
1194 4 0.409427 0.166011 0.741723
1209 4 0.0522445 0.269797 0.682464
1245 4 0.0555487 0.284805 0.66981
1179 4 0.0512777 0.2726 0.747691
814 2 0.0651464 0.309189 0.739218
1177 2 0.028236 0.264338 0.742592
815 4 0.076865 0.326886 0.726001
1074 4 0.140625 0.25281 0.745531
820 2 0.166559 0.300418 0.702507
821 4 0.150057 0.316773 0.711747
941 4 0.14496 0.325392 0.727961
940 2 0.120184 0.328057 0.725905
1067 4 0.153013 0.336766 0.714952
942 4 0.0954078 0.330722 0.723849
822 4 0.183061 0.284063 0.693267
991 2 0.0671886 0.410114 0.66315
3275 4 0.0180626 0.339008 0.722549
893 4 0.0679552 0.380796 0.708491
1280 4 0.0497104 0.39008 0.715727
892 2 0.0764011 0.357263 0.708289
3263 4 0.0315893 0.408537 0.68838
1279 2 0.0453451 0.41357 0.723097
894 4 0.0848471 0.33373 0.708087
1066 2 0.162221 0.358858 0.707719
1028 4 0.187814 0.385819 0.69258
1027 2 0.210968 0.394125 0.688099
1068 4 0.171429 0.380951 0.700486
1029 4 0.234122 0.402432 0.683617
1139 4 0.236743 0.420423 0.693847
1230 4 0.418479 0.405669 0.730168
1228 2 0.393559 0.404936 0.728259
1229 4 0.368639 0.404203 0.72635
1989 4 0.364686 0.421874 0.734041
3329 4 0.514285 0.416503 0.736395
1206 4 0.41611 0.387166 0.734666
1204 2 0.427925 0.365464 0.738482
1205 4 0.439741 0.343761 0.742299
3262 2 0.0118499 0.411288 0.673282
992 4 0.06384 0.433619 0.670991
1982 4 0.00888595 0.48619 0.698486
1281 4 0.0409797 0.437061 0.730466
1983 4 0.0349875 0.446968 0.71525
1981 2 0.0219367 0.466579 0.706868
1138 2 0.247832 0.429816 0.6735
1987 2 0.34317 0.425925 0.746117
3328 2 0.509154 0.427756 0.714664
2169 4 0.435028 0.492637 0.707696
1101 4 0.495863 0.430973 0.675658
2167 2 0.433292 0.475293 0.689769
1099 2 0.473554 0.441771 0.672352
3330 4 0.504023 0.43901 0.692934
1202 4 0.152424 0.0224924 0.791413
1201 2 0.135384 0.0292896 0.808401
1203 4 0.118343 0.0360869 0.825389
2049 4 0.158477 0.00477465 0.785193