ITEM: TIMESTEP
2570000
ITEM: NUMBER OF ATOMS
4590
ITEM: BOX BOUNDS pp pp pp
-9.9985700000000008e+00 9.9985700000000008e+00
-9.9985700000000008e+00 9.9985700000000008e+00
-9.9985700000000008e+00 9.9985700000000008e+00
ITEM: ATOMS id type xs ys zs
1666 2 0.00229756 0.0680065 0.0654704
491 4 0.310434 0.0546497 0.0843568
1541 4 0.266928 0.00449208 0.037955
2974 2 0.464261 0.0115155 0.020793
745 2 0.442031 0.0706835 0.00849985
747 4 0.441392 0.0459055 0.00521059
2975 4 0.45503 0.0328704 0.0116312
986 4 0.437849 0.0269144 0.0049528
1667 4 0.0161666 0.0882294 0.0605853
701 4 0.0209097 0.10788 0.0646373
700 2 0.0367627 0.121575 0.078286
702 4 0.0526157 0.135271 0.0919347
566 4 0.228824 0.149051 0.0567737
565 2 0.228473 0.152882 0.0320679
567 4 0.228122 0.156714 0.00736217
297 4 0.331066 0.138052 0.015817
295 2 0.34757 0.124879 0.00242726
558 4 0.42575 0.104037 0.0135349
746 4 0.442671 0.0954616 0.0117891
482 4 0.240951 0.24102 0.0666503
738 4 0.252817 0.206328 0.0856148
770 4 0.392416 0.191916 0.0193371
359 4 0.376554 0.191994 0.0300988
664 2 0.395896 0.208754 0.0541206
665 4 0.392993 0.188815 0.0393154
666 4 0.398799 0.228693 0.0689257
323 4 0.406806 0.24478 0.0622033
358 2 0.356107 0.200085 0.0181986
769 2 0.409065 0.178857 0.00601702
360 4 0.335659 0.208176 0.0062984
623 4 0.388886 0.24498 0.0717426
2808 4 0.00222619 0.247937 0.0365066
2806 2 0.995582 0.259117 0.0578615
292 2 0.147889 0.311903 0.0419235
293 4 0.167283 0.321099 0.0547495
294 4 0.128496 0.302707 0.0290976
507 4 0.179635 0.319548 0.0647393
287 4 0.185634 0.328136 0.0486946
286 2 0.201676 0.319194 0.0317284
505 2 0.189516 0.303101 0.080771
481 2 0.226254 0.255873 0.0803827
288 4 0.217719 0.310251 0.0147623
573 4 0.253424 0.245364 0.0517531
571 2 0.266372 0.2557 0.0330258
572 4 0.279319 0.266036 0.0142986
357 4 0.297669 0.267181 0.00820174
355 2 0.311176 0.28808 0.00575166
956 4 0.330421 0.322445 0.0176719
356 4 0.324682 0.308978 0.00330159
1069 2 0.403861 0.317336 0.0302544
955 2 0.350162 0.330191 0.0309191
957 4 0.369903 0.337937 0.0441662
1071 4 0.385505 0.333937 0.0338089
322 2 0.414546 0.265119 0.0498907
324 4 0.422287 0.285457 0.0375781
1070 4 0.422217 0.300735 0.0266999
280 2 0.452933 0.307426 0.0503194
282 4 0.439527 0.297287 0.0318083
281 4 0.466339 0.317566 0.0688304
671 4 0.461067 0.332561 0.0808818
527 4 0.477914 0.322833 0.0830056
552 4 0.166957 0.330817 0.0733564
454 2 0.176861 0.362566 0.0521614
456 4 0.178459 0.386882 0.0465634
455 4 0.175263 0.338249 0.0577594
1290 4 0.267887 0.389686 0.0311445
250 2 0.271381 0.399245 0.0612248
1288 2 0.27325 0.37369 0.0126906
251 4 0.265902 0.40841 0.038616
252 4 0.276861 0.39008 0.0838337
741 4 0.387331 0.343309 0.0513074
739 2 0.391389 0.346846 0.0757245
1467 4 0.0884174 0.433505 0.092265
1788 4 0.0896174 0.456422 0.045342
1786 2 0.101635 0.478307 0.0440019
1787 4 0.113653 0.500192 0.0426619
626 4 0.201771 0.471066 0.0715054
625 2 0.182279 0.485174 0.0647073
245 4 0.199323 0.461252 0.0533813
244 2 0.220372 0.448177 0.0500388
246 4 0.24142 0.435102 0.0466963
272 4 0.257422 0.425383 0.0372616
271 2 0.269286 0.431865 0.0162275
273 4 0.281149 0.438346 0.995193
1672 2 0.397772 0.433706 0.0674481
853 2 0.393621 0.448213 0.0156026
1674 4 0.406243 0.435714 0.044009
854 4 0.408641 0.451902 0.0352482
564 4 0.424251 0.440993 0.0433921
563 4 0.473445 0.449633 0.0409345
562 2 0.448848 0.445313 0.0421633
228 4 0.487869 0.463728 0.0417401
226 2 0.500004 0.483525 0.0510158
19 3 0.0505951 0.0408289 0.156718
18 3 0.0637543 0.00554281 0.151605
16 1 0.0585264 0.0217814 0.167333
578 4 0.0694546 0.0469588 0.169636
582 4 0.234285 0.084395 0.155803
490 2 0.29327 0.0435855 0.0987842
1475 4 0.273042 0.0144468 0.121543
492 4 0.276106 0.0325212 0.113212
581 4 0.249407 0.0368089 0.153049
580 2 0.241846 0.060602 0.154426
486 4 0.419621 0.0081891 0.0876571
484 2 0.409575 0.0278271 0.0994297
485 4 0.399528 0.0474651 0.111202
2722 2 0.47776 0.0753119 0.150686
2724 4 0.483238 0.0511187 0.153826
1760 4 0.488211 0.0430857 0.136128
2744 4 0.489109 0.033186 0.152052
476 4 0.0680714 0.126871 0.102298
475 2 0.0735857 0.143108 0.120494
237 4 0.22555 0.100682 0.147355
235 2 0.201616 0.101656 0.154524
628 2 0.385292 0.154563 0.161181
629 4 0.38423 0.131348 0.170404
312 4 0.379948 0.116732 0.156137
2723 4 0.472282 0.099505 0.147545
477 4 0.0791 0.159346 0.138691
737 4 0.217109 0.18501 0.113386
736 2 0.234963 0.195669 0.0995005
460 2 0.323232 0.223137 0.113339
461 4 0.301637 0.210617 0.111903
354 4 0.285322 0.210201 0.125541
352 2 0.273823 0.227516 0.139438
353 4 0.262324 0.244832 0.153334
630 4 0.386354 0.177779 0.151957
254 4 0.385084 0.197947 0.151811
462 4 0.344827 0.235657 0.114776
255 4 0.354889 0.231065 0.129626
253 2 0.369987 0.214506 0.140718
765 4 0.353468 0.24995 0.127682
624 4 0.362878 0.240825 0.114252
622 2 0.375882 0.242903 0.0929973
483 4 0.211558 0.270726 0.0941151
506 4 0.199397 0.286653 0.0968027
537 4 0.197208 0.283191 0.115811
535 2 0.184567 0.284633 0.137335
536 4 0.171927 0.286075 0.15886
301 2 0.320149 0.315504 0.140238
302 4 0.319686 0.33245 0.121858
303 4 0.320612 0.298559 0.158618
764 4 0.332971 0.284122 0.157895
763 2 0.343219 0.267036 0.142789
12 3 0.414877 0.328753 0.122739
647 4 0.047997 0.361353 0.165767
550 2 0.151911 0.337898 0.0920287
551 4 0.136865 0.344979 0.110701
289 2 0.218796 0.396459 0.147918
290 4 0.240642 0.406002 0.140377
291 4 0.19695 0.386916 0.155459
387 4 0.327245 0.349887 0.1148
609 4 0.293314 0.383775 0.0924701
607 2 0.302036 0.402859 0.106068
608 4 0.310758 0.421943 0.119665
385 2 0.351737 0.353001 0.110851
493 2 0.388112 0.392126 0.105134
495 4 0.3912 0.367432 0.107551
386 4 0.37623 0.356115 0.106902
15 3 0.381098 0.344246 0.119303
740 4 0.395448 0.350384 0.100142
14 3 0.411877 0.364549 0.11168
11 1 0.40273 0.348122 0.125277
13 3 0.403742 0.354755 0.147489
494 4 0.385025 0.41682 0.102717
672 4 0.419441 0.345673 0.105296
670 2 0.440254 0.339117 0.093089
1791 4 0.0646844 0.497453 0.104061
1465 2 0.0817227 0.456522 0.0993766
1466 4 0.0750279 0.479539 0.106488
638 4 0.234081 0.491831 0.150478
766 2 0.24442 0.450429 0.14203
768 4 0.245317 0.425843 0.13757
767 4 0.243523 0.475016 0.14649
659 4 0.325748 0.432818 0.111208
660 4 0.374253 0.431841 0.0990827
1673 4 0.389301 0.431698 0.0908872
658 2 0.35 0.432329 0.105145
524 4 0.407775 0.484281 0.126791
523 2 0.395852 0.465921 0.114712
525 4 0.383929 0.447561 0.102632
1422 4 0.0234898 0.00397282 0.205184
17 3 0.0421161 0.0136453 0.18125
2480 4 0.0265588 0.0187641 0.191785
2479 2 0.0155724 0.0400392 0.198985
20 3 0.0769784 0.0268751 0.179671
380 4 0.0183593 0.0740355 0.197934
2481 4 0.00458595 0.0613143 0.206186
577 2 0.0851603 0.0658174 0.174418
689 4 0.155039 0.0113094 0.214373
674 4 0.140457 0.0239964 0.22076
673 2 0.125355 0.00782939 0.232411
579 4 0.100866 0.0846759 0.1792
1504 2 0.227483 0.000385069 0.186909
1506 4 0.24329 0.0172786 0.177426
654 4 0.256815 0.0311417 0.171869
652 2 0.279177 0.0257898 0.181693
653 4 0.301538 0.0204379 0.191516
693 4 0.25483 0.0637655 0.247166
25 3 0.331147 0.0456801 0.248186
758 4 0.338527 0.0757133 0.193899
759 4 0.346017 0.0623018 0.241488
757 2 0.342272 0.0690076 0.217694
350 4 0.36318 0.0695779 0.244627
349 2 0.388127 0.0698139 0.242964
480 4 0.427664 0.0575399 0.24879
743 4 0.499867 0.0628964 0.233284
333 4 0.494982 0.0795469 0.221725
2743 2 0.498742 0.024017 0.173225
379 2 0.0259333 0.0955037 0.187593
511 2 0.061259 0.142974 0.178135
512 4 0.0512285 0.122167 0.168562
381 4 0.0335073 0.116972 0.177252
513 4 0.0712894 0.163781 0.187708
450 4 0.112036 0.100155 0.17933
448 2 0.136739 0.0977506 0.176308
449 4 0.161443 0.0953459 0.173287
236 4 0.177682 0.102631 0.161694
28 3 0.315456 0.15173 0.228887
26 1 0.321465 0.16198 0.248818
311 4 0.353792 0.0891879 0.188663
310 2 0.36687 0.10296 0.1724
521 4 0.468051 0.137013 0.208072
762 4 0.456882 0.121888 0.216111
760 2 0.440247 0.132203 0.23167
761 4 0.423612 0.142518 0.247228
332 4 0.474688 0.12525 0.221474
520 2 0.482492 0.157185 0.204954
331 2 0.484835 0.102399 0.2216
339 4 0.0215875 0.218127 0.176413
337 2 0.0362139 0.235954 0.18608
393 4 0.0811087 0.180457 0.194227
391 2 0.0883013 0.202751 0.185486
392 4 0.0954939 0.225046 0.176746
544 2 0.140885 0.225134 0.260308
545 4 0.160442 0.237389 0.25069
27 3 0.33425 0.18051 0.244091
279 4 0.264552 0.223379 0.214483
277 2 0.261663 0.23453 0.192291
278 4 0.258774 0.245681 0.170098
522 4 0.496933 0.177357 0.201836
394 2 0.016124 0.26055 0.241042
395 4 0.033383 0.26507 0.223524
338 4 0.0508403 0.253781 0.195747
363 4 0.0501788 0.262713 0.213546
361 2 0.0541993 0.28724 0.210817
749 4 0.045283 0.324595 0.21607
648 4 0.0571332 0.327203 0.201136
362 4 0.0582198 0.311767 0.208089
372 4 0.0749824 0.320076 0.20004
370 2 0.0969943 0.322818 0.211578
371 4 0.119006 0.32556 0.223117
734 4 0.129395 0.335292 0.237391
733 2 0.150423 0.325445 0.246667
755 4 0.244461 0.251619 0.158164
754 2 0.240207 0.276168 0.160273
756 4 0.235954 0.300717 0.162382
611 4 0.242892 0.323652 0.223742
610 2 0.244661 0.313201 0.201096
612 4 0.24643 0.30275 0.178451
344 4 0.22494 0.329214 0.229884
284 4 0.275484 0.254661 0.165216
283 2 0.295059 0.270213 0.165591
285 4 0.314634 0.285764 0.165966
308 4 0.329673 0.291705 0.175417
729 4 0.315764 0.303716 0.176593
727 2 0.301018 0.318947 0.18985
307 2 0.343845 0.287037 0.19548
309 4 0.358017 0.28237 0.215544
498 4 0.34261 0.281022 0.227441
748 2 0.050086 0.337488 0.236948
646 2 0.0525651 0.344278 0.183451
416 4 0.202895 0.394002 0.172782
417 4 0.167077 0.390203 0.207471
415 2 0.184986 0.392103 0.190127
728 4 0.286272 0.334178 0.203107
445 2 0.405602 0.380361 0.237157
447 4 0.428816 0.379962 0.227874
644 4 0.445059 0.391784 0.222589
643 2 0.444828 0.407276 0.202965
264 4 0.023819 0.430742 0.2592
414 4 0.262116 0.467321 0.202494
412 2 0.245283 0.464002 0.220683
413 4 0.228451 0.460683 0.238872
1436 4 0.217378 0.460464 0.255028
595 2 0.484479 0.430016 0.168812
645 4 0.444597 0.422768 0.18334
597 4 0.463811 0.420392 0.179077
229 2 0.473539 0.487843 0.22509
231 4 0.490386 0.471214 0.217037
2755 2 0.00458573 0.0784249 0.310055
234 4 0.0161269 0.040569 0.292669
232 2 0.0401646 0.0339399 0.290819
233 4 0.0642023 0.0273109 0.288969
2756 4 0.00835972 0.0578003 0.296432
2478 4 0.00339643 0.0492705 0.280398
317 4 0.0764951 0.0357709 0.302277
1404 4 0.0763084 0.0174905 0.298683
428 4 0.0875492 0.0222948 0.313473
316 2 0.0849406 0.0578811 0.310339
1402 2 0.0871666 0.00787248 0.278317
318 4 0.093386 0.0799912 0.318401
691 2 0.270481 0.0741369 0.263678
24 3 0.326553 0.0626112 0.281501
692 4 0.286133 0.0845084 0.280189
21 1 0.341922 0.0536908 0.266581
23 3 0.353898 0.0366407 0.276793
22 3 0.356548 0.0702518 0.260182
351 4 0.413074 0.0700499 0.241301
479 4 0.446576 0.0281754 0.284577
478 2 0.43712 0.0428577 0.266683
2664 4 0.464588 0.0246444 0.281003
1428 4 0.450204 0.0122304 0.28976
258 4 0.443922 0.0273517 0.303085
2662 2 0.488653 0.0238292 0.287741
256 2 0.441877 0.0406201 0.324179
2585 4 0.00609084 0.119507 0.321457
2757 4 0.000811752 0.0990494 0.323677
732 4 0.102294 0.0792462 0.337717
399 4 0.0925898 0.0937146 0.330902
730 2 0.126732 0.0845159 0.337313
606 4 0.166633 0.0778034 0.332638
721 2 0.270393 0.104648 0.315232
723 4 0.278743 0.0871187 0.299478
722 4 0.262044 0.122178 0.330986
29 3 0.333962 0.147356 0.261793
30 3 0.302808 0.168437 0.260169
632 4 0.360106 0.0871721 0.251256
631 2 0.351076 0.109768 0.257006
707 4 0.344445 0.147901 0.274768
633 4 0.342046 0.132364 0.262756
706 2 0.350715 0.154218 0.298134
708 4 0.356985 0.160535 0.321499
546 4 0.121328 0.212879 0.269926
405 4 0.233467 0.167329 0.316929
473 4 0.216462 0.17372 0.325401
419 4 0.393922 0.249779 0.337062
269 4 0.407704 0.237208 0.330447
443 4 0.00534586 0.248088 0.275595
396 4 0.998865 0.25603 0.258559
442 2 0.991851 0.255709 0.295216
402 4 0.176256 0.250201 0.250554
678 4 0.168329 0.323088 0.321767
343 2 0.207114 0.320258 0.244958
400 2 0.182989 0.272536 0.259556
401 4 0.189721 0.29487 0.268557
676 2 0.174339 0.317331 0.298189
345 4 0.189288 0.311302 0.260031
677 4 0.18035 0.311573 0.274611
735 4 0.171451 0.315599 0.255942
378 4 0.304002 0.271872 0.310544
376 2 0.318212 0.289631 0.300157
497 4 0.336133 0.307305 0.269489
377 4 0.332422 0.307389 0.289771
496 2 0.339371 0.294164 0.248465
541 2 0.370989 0.303779 0.291933
542 4 0.393751 0.297202 0.299919
420 4 0.400257 0.296193 0.319558
543 4 0.348227 0.310357 0.283946
418 2 0.397089 0.272986 0.32831
615 4 0.339929 0.323929 0.294888
364 2 0.005324 0.374945 0.293687
365 4 0.0301477 0.375441 0.290734
601 2 0.0517208 0.38551 0.325174
603 4 0.0476357 0.376786 0.3021
750 4 0.0548889 0.350381 0.257825
300 4 0.0748876 0.350408 0.264775
299 4 0.123002 0.34859 0.251268
298 2 0.0989447 0.349499 0.258021
508 2 0.183309 0.361606 0.332083
510 4 0.170841 0.343102 0.320799
434 4 0.324884 0.390288 0.306806
433 2 0.309586 0.408045 0.315513
446 4 0.382389 0.38076 0.246439
614 4 0.333595 0.372257 0.306068
613 2 0.336762 0.348093 0.300478
2537 4 0.499167 0.331077 0.331195
1757 4 0.0389512 0.443282 0.263947
1756 2 0.0571869 0.460185 0.266578
1758 4 0.0754226 0.477088 0.269209
775 2 0.066294 0.505157 0.311392
1775 4 0.0762715 0.495164 0.2755
777 4 0.0705052 0.510929 0.287431
1435 2 0.231204 0.451382 0.273777
1437 4 0.24503 0.4423 0.292526
5 3 0.255655 0.464309 0.324712
4 3 0.262651 0.435993 0.300901
3 3 0.284141 0.467333 0.300277
1 1 0.27203 0.452863 0.31378
436 2 0.319672 0.468768 0.3155
438 4 0.296949 0.458347 0.314972
435 4 0.294288 0.425803 0.32422
2 3 0.286254 0.443416 0.329193
1802 4 0.347977 0.495197 0.32769
437 4 0.342394 0.479189 0.316028
119 3 0.491952 0.46508 0.32321
427 2 0.0917044 0.00702198 0.332829
1781 4 0.111769 9.76379e-05 0.418486
604 2 0.187997 0.0855077 0.343098
605 4 0.209361 0.0932119 0.353558
441 4 0.339111 0.00207645 0.406709
699 4 0.382938 0.0633025 0.374396
1699 2 0.368895 0.0259898 0.383716
1700 4 0.383366 0.0426159 0.371911
697 2 0.404269 0.0654627 0.361531
425 4 0.355079 0.0020215 0.413045
1701 4 0.354424 0.00936381 0.39552
698 4 0.4256 0.0676228 0.348666
257 4 0.439832 0.0538885 0.345273
397 2 0.0723768 0.102469 0.342733
398 4 0.0521638 0.111224 0.354564
2584 2 0.0219961 0.120913 0.340699
2586 4 0.0379013 0.122318 0.35994
458 4 0.032263 0.137149 0.372318
457 2 0.0355281 0.141885 0.39665
260 4 0.0501864 0.160717 0.430949
731 4 0.151171 0.0897856 0.33691
600 4 0.0898838 0.167514 0.337797
248 4 0.220514 0.08869 0.369409
247 2 0.238492 0.102476 0.358828
403 2 0.245534 0.1513 0.33185
249 4 0.256469 0.116262 0.348247
404 4 0.257601 0.13527 0.34677
683 4 0.262969 0.125856 0.363175
682 2 0.286248 0.132999 0.368852
684 4 0.309527 0.140143 0.37453
320 4 0.322661 0.134123 0.35961
321 4 0.361777 0.159722 0.341852
319 2 0.342219 0.146922 0.350731
726 4 0.392972 0.149025 0.408319
467 4 0.384504 0.166935 0.411202
598 2 0.103878 0.177894 0.35573
599 4 0.117872 0.188274 0.373664
389 4 0.124346 0.222012 0.376728
686 4 0.11783 0.206222 0.385055
685 2 0.104506 0.206806 0.406205
275 4 0.130087 0.202458 0.374032
274 2 0.154812 0.198846 0.374945
388 2 0.125159 0.246409 0.371312
474 4 0.180882 0.185458 0.358521
472 2 0.198672 0.179589 0.341961
276 4 0.179536 0.195235 0.375857
717 4 0.37801 0.165022 0.351716
715 2 0.388095 0.164855 0.374594
716 4 0.398181 0.164687 0.397473
270 4 0.449994 0.211609 0.337996
452 4 0.450363 0.209774 0.357493
268 2 0.428849 0.224408 0.334221
451 2 0.455529 0.214562 0.381484
453 4 0.460695 0.219351 0.405474
347 4 0.0625319 0.324122 0.396344
346 2 0.0392535 0.316411 0.401226
348 4 0.0159751 0.3087 0.406109
618 4 0.0785402 0.316545 0.387278
375 4 0.153962 0.315615 0.333603
616 2 0.0954541 0.300007 0.37918
390 4 0.125973 0.270805 0.365896
617 4 0.112368 0.283468 0.371082
374 4 0.119737 0.284939 0.35331
373 2 0.13685 0.300277 0.343457
549 4 0.0524804 0.412892 0.353676
602 4 0.055806 0.394233 0.348247
547 2 0.0721609 0.416813 0.368591
509 4 0.195777 0.38011 0.343366
334 2 0.320682 0.369228 0.403795
238 2 0.36712 0.384065 0.378235
239 4 0.381421 0.402236 0.368722
587 4 0.400912 0.40791 0.368072
335 4 0.337792 0.353911 0.393906
240 4 0.352819 0.365894 0.387748
752 4 0.469462 0.405257 0.393355
561 4 0.465214 0.390655 0.4052
776 4 0.0620827 0.499386 0.335353
500 4 0.0749082 0.49172 0.347996
499 2 0.0758765 0.47191 0.363221
548 4 0.0918413 0.420735 0.383507
501 4 0.0768448 0.452101 0.378447
407 4 0.0861604 0.439128 0.390074
406 2 0.0968382 0.449074 0.410378
1544 4 0.216203 0.479084 0.390802
1556 4 0.232845 0.485232 0.380436
1543 2 0.202028 0.483713 0.410872
1555 2 0.254182 0.486784 0.393377
586 2 0.396082 0.432318 0.365606
593 4 0.384039 0.474774 0.368168
588 4 0.391252 0.456727 0.363141
592 2 0.401485 0.488917 0.357178
751 2 0.478105 0.421305 0.376239
118 3 0.503458 0.433572 0.341079
712 2 0.459371 0.488155 0.341843
714 4 0.479644 0.473546 0.340986
753 4 0.486748 0.437352 0.359123
117 3 0.481304 0.458353 0.358622
116 1 0.498553 0.456114 0.343568
1772 4 0.00375782 0.997986 0.445869
2237 4 0.000736441 0.994708 0.465443
369 4 0.0739561 0.0045791 0.454342
367 2 0.0964747 0.00845357 0.444189
368 4 0.118993 0.012328 0.434036
961 2 0.331623 0.0242832 0.437725
963 4 0.323961 0.0447388 0.449892
432 4 0.328219 0.0536389 0.468233
962 4 0.339285 0.00382762 0.425558
430 2 0.338703 0.0530846 0.490926
1216 2 0.41993 0.0576008 0.484371
1218 4 0.426038 0.0706393 0.463929
459 4 0.0387933 0.14662 0.420983
725 4 0.384093 0.100105 0.413677
724 2 0.388533 0.124565 0.410998
640 2 0.477309 0.0998667 0.421877
641 4 0.45311 0.103565 0.426969
259 2 0.0683013 0.177409 0.43524
1033 2 0.0874564 0.234866 0.457151
261 4 0.0864162 0.194101 0.439531
1035 4 0.0846877 0.213952 0.443729
687 4 0.0911828 0.20739 0.427355
488 4 0.329749 0.240894 0.429555
487 2 0.351619 0.248231 0.439199
466 2 0.397101 0.180824 0.427743
468 4 0.409698 0.194712 0.444284
411 4 0.382077 0.246324 0.462493
409 2 0.397359 0.226595 0.460939
410 4 0.412641 0.206866 0.459384
575 4 0.428413 0.201136 0.470109
516 4 0.426781 0.202851 0.450754
574 2 0.442889 0.200531 0.490487
514 2 0.445869 0.212069 0.437493
515 4 0.464957 0.221287 0.424232
2802 4 0.00349936 0.302772 0.419767
696 4 0.101005 0.268256 0.482762
1034 4 0.0902252 0.255779 0.470572
1260 4 0.0983685 0.271748 0.464215
1258 2 0.109597 0.294006 0.462285
1259 4 0.120825 0.316263 0.460356
9 3 0.139716 0.320156 0.443944
7 3 0.124455 0.325017 0.477946
6 1 0.136519 0.33527 0.461257
489 4 0.37349 0.255569 0.448843
266 4 0.365619 0.259965 0.465284
265 2 0.368837 0.277238 0.483074
267 4 0.372055 0.294511 0.500863
1011 4 0.477108 0.332149 0.497022
3308 4 0.485572 0.342729 0.482103
2457 4 0.475664 0.263067 0.49876
326 4 0.063886 0.352749 0.473658
327 4 0.111142 0.338809 0.465099
325 2 0.0875141 0.345779 0.469379
8 3 0.15702 0.341941 0.469836
10 3 0.124981 0.353398 0.453715
336 4 0.303571 0.384545 0.413685
668 4 0.295328 0.402948 0.413642
3309 4 0.509057 0.370011 0.447392
560 4 0.505142 0.372645 0.429328
559 2 0.485178 0.38165 0.417264
3307 2 0.497315 0.35637 0.464747
1381 2 0.0135952 0.483767 0.471434
382 2 0.117244 0.442045 0.465568
408 4 0.107516 0.45902 0.430681
384 4 0.120249 0.424157 0.482777
711 4 0.13617 0.412365 0.484143
568 2 0.14866 0.472294 0.437369
383 4 0.114239 0.459933 0.448359
569 4 0.127952 0.458459 0.435147
1545 4 0.187853 0.488343 0.430943
570 4 0.169367 0.48613 0.439592
667 2 0.302883 0.424448 0.423931
669 4 0.310438 0.445948 0.43422
635 4 0.317565 0.464182 0.434784
774 4 0.328898 0.449678 0.440583
634 2 0.301894 0.481839 0.426548
773 4 0.352303 0.458463 0.483893
772 2 0.340601 0.454071 0.462238
663 4 0.472139 0.490622 0.452261
661 2 0.47891 0.514307 0.456547
341 4 0.157871 0.00995876 0.510473
2430 4 0.167315 0.997155 0.523005
1152 4 0.184612 0.0655208 0.525122
342 4 0.184031 0.0525592 0.509204
340 2 0.170951 0.031259 0.509839
1150 2 0.199879 0.0750084 0.542502
1032 4 0.233886 0.0808409 0.562458
1031 4 0.267366 0.0448188 0.571525
1030 2 0.250626 0.0628299 0.566991
951 4 0.285731 0.0470818 0.581775
431 4 0.349187 0.0525302 0.513619
842 4 0.401661 0.0292787 0.509399
841 2 0.379697 0.0360414 0.519251
843 4 0.357734 0.0428041 0.529102
1217 4 0.413822 0.0445623 0.504812
3007 2 0.497341 0.0304319 0.572324
3009 4 0.500621 0.0387749 0.548983
1058 4 0.0838851 0.100442 0.514963
1272 4 0.0831545 0.165459 0.582593
1270 2 0.0979019 0.146417 0.575878
1271 4 0.112649 0.127375 0.569163
1057 2 0.0965634 0.107217 0.535422
1059 4 0.109242 0.113991 0.55588
1155 4 0.128227 0.11931 0.563517
939 4 0.116113 0.107505 0.571603
1153 2 0.151928 0.124575 0.569493
1154 4 0.175629 0.12984 0.57547
1151 4 0.215146 0.0844961 0.559883
1180 2 0.226901 0.121936 0.555915
1181 4 0.21592 0.100491 0.549228
1182 4 0.237882 0.143381 0.562602
900 4 0.240129 0.148173 0.581757
1221 4 0.184513 0.147352 0.581883
1199 4 0.0224385 0.220632 0.576365
898 2 0.245184 0.171127 0.573228
651 4 0.243298 0.231758 0.51664
858 4 0.230726 0.246561 0.518675
649 2 0.24515 0.211375 0.531001
650 4 0.247001 0.190991 0.545363
899 4 0.250238 0.194081 0.564699
576 4 0.457365 0.199925 0.510865
585 4 0.506655 0.168742 0.494196
694 2 0.0928095 0.26551 0.506225
695 4 0.0846141 0.262765 0.529687
948 4 0.155009 0.288917 0.582917
856 2 0.212558 0.259663 0.529787
857 4 0.194391 0.272764 0.540899
947 4 0.192309 0.26646 0.558318
946 2 0.173659 0.277688 0.570618
798 4 0.203047 0.260911 0.57581
1010 4 0.472402 0.282411 0.494857
1009 2 0.474755 0.30728 0.49594
2455 2 0.492572 0.244656 0.499339
502 2 0.195264 0.39197 0.528344
503 4 0.211742 0.374654 0.521009
504 4 0.178786 0.409286 0.535678
803 4 0.263765 0.366305 0.566462
804 4 0.262376 0.376574 0.51754
802 2 0.26307 0.371439 0.542001
1238 4 0.270939 0.355045 0.579538
792 4 0.263461 0.338295 0.577064
882 4 0.370216 0.374388 0.500342
929 4 0.358818 0.392515 0.565143
881 4 0.355701 0.385 0.547005
880 2 0.362959 0.379694 0.523673
928 2 0.34884 0.37367 0.5782
539 4 0.10274 0.434113 0.578981
540 4 0.116566 0.481046 0.568646
2244 4 0.113918 0.498874 0.579505
538 2 0.109653 0.45758 0.573813
1160 4 0.130723 0.491584 0.575535
709 2 0.149189 0.415199 0.505301
710 4 0.162208 0.418033 0.526458
1909 2 0.445414 0.49248 0.570322
1911 4 0.459807 0.47752 0.584258
1081 2 0.0793405 0.0721333 0.633155
1083 4 0.0790157 0.0786638 0.609022
1126 2 0.0369627 0.0831416 0.596582
1127 4 0.0616473 0.0819623 0.600384
1128 4 0.0122782 0.0843208 0.592779
1082 4 0.0796653 0.0656028 0.657289
943 2 0.0427581 0.0270223 0.660906
944 4 0.057463 0.045828 0.65347
3077 4 0.991333 0.0759941 0.593094
938 4 0.0941414 0.0714551 0.598406
949 2 0.288895 0.0343934 0.603087
950 4 0.292059 0.021705 0.624398
3008 4 0.494061 0.0220889 0.595665
809 4 0.489745 0.0392156 0.604956
808 2 0.478446 0.0478092 0.62554
810 4 0.467148 0.0564028 0.646123
45 3 0.463873 0.0776254 0.646729
3477 4 0.000590662 0.0841968 0.607361
937 2 0.105127 0.0894799 0.585005
1219 2 0.197057 0.158039 0.600688
1211 4 0.239088 0.14139 0.663765
1210 2 0.229163 0.159594 0.649791
1227 4 0.243637 0.125618 0.668313
1192 2 0.33159 0.151905 0.645637
1194 4 0.316232 0.138156 0.659788
888 4 0.257839 0.14121 0.665607
886 2 0.282196 0.146486 0.667623
887 4 0.306554 0.151762 0.66964
1193 4 0.346948 0.165654 0.631485
3424 2 0.49526 0.0986822 0.664133
3425 4 0.474743 0.0844562 0.665481
878 4 0.0348582 0.214025 0.590511
877 2 0.0498196 0.194117 0.588281
1244 4 0.051164 0.225602 0.595165
879 4 0.064781 0.174208 0.58605
1243 2 0.0400984 0.247282 0.600882
1220 4 0.2096 0.168725 0.619493
1212 4 0.219238 0.177799 0.635817
3123 4 0.491062 0.238916 0.647552
983 4 0.0280712 0.288101 0.614074
1245 4 0.0290328 0.268963 0.606599
982 2 0.0121306 0.294299 0.595835
3262 2 0.0440252 0.329843 0.656368
1135 2 0.162072 0.316202 0.617888
822 4 0.163166 0.325184 0.653433
1136 4 0.157037 0.299835 0.599667
796 2 0.225776 0.266759 0.584432
797 4 0.248506 0.272607 0.593055
791 4 0.258308 0.289211 0.585118
790 2 0.260884 0.313753 0.581091
872 4 0.323668 0.281877 0.599104
871 2 0.335196 0.303064 0.605691
813 4 0.366044 0.324672 0.616523
873 4 0.346723 0.324252 0.612278
953 4 0.495198 0.297308 0.624158
954 4 0.462405 0.284015 0.588822
952 2 0.478802 0.290662 0.60649
906 4 0.505763 0.315716 0.624906
3239 4 0.00923224 0.405357 0.636478
1041 4 0.0506428 0.368352 0.637628
3264 4 0.0508334 0.353323 0.651121
3240 4 0.037114 0.366715 0.651648
3238 2 0.0231731 0.386036 0.644063
1039 2 0.0754999 0.371044 0.637394
1040 4 0.100357 0.373736 0.637159
993 4 0.117483 0.370025 0.644787
991 2 0.13817 0.355984 0.645005
992 4 0.158858 0.341943 0.645222
1137 4 0.167107 0.332568 0.636108
1064 4 0.174573 0.34194 0.650817
897 4 0.17415 0.349972 0.632371
1189 2 0.235909 0.368166 0.592359
896 4 0.199741 0.377631 0.599495
895 2 0.186946 0.363801 0.615933
1172 4 0.205582 0.395731 0.599862
1191 4 0.217977 0.380736 0.604426
1190 4 0.25384 0.355596 0.580291
1239 4 0.318817 0.361585 0.592408
1237 2 0.294878 0.358315 0.585973
930 4 0.338863 0.354825 0.591257
811 2 0.375141 0.347031 0.623042
1204 2 0.389235 0.388524 0.663699
1206 4 0.384956 0.386836 0.639122
927 4 0.390384 0.385686 0.620733
812 4 0.384238 0.36939 0.629561
925 2 0.400683 0.401518 0.604348
926 4 0.410982 0.417351 0.587964
1159 2 0.153148 0.500595 0.581946
1171 2 0.202021 0.420471 0.600535
1188 4 0.191666 0.49739 0.593698
1186 2 0.203724 0.47561 0.596027
1173 4 0.198459 0.44521 0.601208
1187 4 0.215783 0.453831 0.598356
1002 4 0.423905 0.423934 0.599614
1001 4 0.450829 0.465883 0.595607
1000 2 0.437367 0.444909 0.59761
1269 4 0.455789 0.485215 0.601067
1267 2 0.461045 0.487352 0.625418
1101 4 0.453413 0.493091 0.663358
1076 4 0.0598881 0.0613049 0.66433
1075 2 0.0598837 0.0750524 0.685215
945 4 0.0280533 0.00821664 0.668342
824 4 0.191729 0.0134937 0.66345
1283 4 0.173273 0.0687086 0.6885
825 4 0.19003 0.0575666 0.687017
823 2 0.190879 0.0355301 0.675234
1147 2 0.236301 0.0656634 0.711638
1149 4 0.225914 0.0544731 0.731439
1003 2 0.319295 0.0669647 0.712324
1004 4 0.301688 0.056853 0.726916
1148 4 0.246688 0.0768536 0.691837
1005 4 0.336902 0.0770764 0.697732
41 1 0.456092 0.0678851 0.665788
43 3 0.433093 0.0705894 0.667241
42 3 0.460921 0.0453992 0.665321
1163 4 0.470796 0.0558013 0.684474
1162 2 0.487883 0.0503822 0.701906
44 3 0.46637 0.0773814 0.684297
1164 4 0.504969 0.0449631 0.719337
864 4 0.0564674 0.0813043 0.723905
1077 4 0.0598793 0.0887999 0.7061
851 4 0.0674241 0.107463 0.70775
850 2 0.0617512 0.13123 0.702446
852 4 0.0560783 0.154997 0.697143
862 2 0.0376172 0.0830054 0.740244
1107 4 0.0726704 0.0912106 0.717189
1105 2 0.0904989 0.0907157 0.734713
1226 4 0.248306 0.075882 0.670596
1225 2 0.245972 0.10075 0.669455
1282 2 0.174361 0.0918397 0.697932
1284 4 0.175449 0.114971 0.707363
909 4 0.188221 0.130475 0.705996
907 2 0.209113 0.133558 0.692609
908 4 0.230004 0.136641 0.679221
829 2 0.327757 0.118316 0.688388
830 4 0.317792 0.139571 0.679781
831 4 0.337723 0.0970602 0.696994
1130 4 0.153401 0.234903 0.743065
1208 4 0.14269 0.244042 0.728944
1074 4 0.134606 0.236529 0.745133
977 4 0.315288 0.221188 0.728722
918 4 0.300597 0.22763 0.741516
1298 4 0.307674 0.209846 0.742153
1297 2 0.289084 0.194285 0.748271
976 2 0.331221 0.233807 0.714159
978 4 0.347154 0.246426 0.699596
1025 4 0.40759 0.180091 0.681074
1146 4 0.499142 0.186044 0.709553
1024 2 0.421262 0.190952 0.698971
1142 4 0.442584 0.191871 0.732816
1144 2 0.475486 0.192812 0.714002
1262 4 0.447265 0.21784 0.71514
1026 4 0.434934 0.201812 0.716868
1261 2 0.441071 0.239443 0.726101
1145 4 0.451831 0.19958 0.71845
3263 4 0.037217 0.306363 0.661615
1178 4 0.00416207 0.249446 0.736295
1177 2 0.0234701 0.262301 0.726961
1179 4 0.0427782 0.275155 0.717626
820 2 0.154899 0.311539 0.672684
1207 2 0.143601 0.260995 0.710589
821 4 0.146631 0.297893 0.691936
1209 4 0.144512 0.277949 0.692233
805 2 0.222991 0.330609 0.705205
806 4 0.241816 0.314574 0.708903
1019 4 0.391185 0.274595 0.744447
1018 2 0.377063 0.263883 0.726812
1020 4 0.362941 0.25317 0.709177
1263 4 0.434878 0.261045 0.737063
892 2 0.0206038 0.356348 0.730644
1279 2 0.0601888 0.402283 0.743614
1280 4 0.052227 0.380148 0.735139
816 4 0.0617291 0.362309 0.728554
814 2 0.0842299 0.351615 0.730682
894 4 0.0432271 0.365967 0.726078
815 4 0.106731 0.340921 0.73281
942 4 0.114039 0.347834 0.749153
1063 2 0.190252 0.350732 0.668197
1065 4 0.205931 0.359523 0.685577
807 4 0.204167 0.346645 0.701506
1028 4 0.200985 0.378452 0.688139
1066 2 0.183365 0.369774 0.7216
1068 4 0.198168 0.364835 0.702064
1027 2 0.214279 0.398642 0.68175
1067 4 0.168562 0.374714 0.741136
1205 4 0.393515 0.390211 0.688276
1281 4 0.0681506 0.424418 0.752089
2016 4 0.178943 0.504407 0.744232
1140 4 0.243342 0.430641 0.675073
1175 4 0.210873 0.476276 0.690391
1174 2 0.197568 0.485882 0.709256
1029 4 0.227573 0.418832 0.675361
1138 2 0.257827 0.449545 0.68269
1139 4 0.272311 0.468449 0.690308
1987 2 0.282801 0.464003 0.732523
1229 4 0.291969 0.46839 0.695605
1989 4 0.293905 0.475926 0.713557
2028 4 0.282517 0.482331 0.698422
1228 2 0.312905 0.4597 0.685053
1230 4 0.333841 0.451011 0.6745
1099 2 0.437189 0.478221 0.675226
1100 4 0.420966 0.463352 0.687095
2989 2 0.0268306 0.0547905 0.784798
2990 4 0.0204608 0.0732831 0.769222
2991 4 0.0332004 0.0362979 0.800375
3083 4 0.0027071 0.0810459 0.766365
2049 4 0.112264 0.021884 0.761007
1202 4 0.121755 0.0249586 0.777377
1201 2 0.126968 0.0493953 0.778302
1203 4 0.132181 0.0738319 0.779227
32 3 0.14466 0.0827294 0.794668
1085 4 0.320055 0.0736678 0.810477
1084 2 0.29635 0.0790661 0.804637
960 4 0.329397 0.0865143 0.82065
1257 4 0.254499 0.0812641 0.808556
819 4 0.338624 0.0706028 0.811775
817 2 0.347609 0.0487683 0.803547
1050 4 0.35982 0.999006 0.776154
818 4 0.356595 0.0269338 0.79532
974 4 0.358174 0.0059818 0.793734
2322 4 0.486686 0.0509941 0.778751
845 4 0.495717 0.0655237 0.790195
844 2 0.488877 0.0719742 0.813364
2320 2 0.493397 0.0424245 0.756241
846 4 0.482037 0.0784248 0.836532
863 4 0.018767 0.0847064 0.756583
833 4 0.0162117 0.0925636 0.774245
832 2 0.0236103 0.109856 0.79072
834 4 0.0310088 0.127148 0.807195
1125 4 0.0287586 0.144638 0.817565
1106 4 0.108327 0.0902208 0.752237
911 4 0.130047 0.0948616 0.806113
34 3 0.121845 0.0894271 0.765559
31 1 0.135125 0.0992738 0.781841
35 3 0.122428 0.112703 0.795149
33 3 0.151997 0.111689 0.771861
1256 4 0.227363 0.123023 0.813095
840 4 0.209678 0.130018 0.821744