ITEM: TIMESTEP
1470000
ITEM: NUMBER OF ATOMS
4590
ITEM: BOX BOUNDS pp pp pp
-9.9985700000000008e+00 9.9985700000000008e+00
-9.9985700000000008e+00 9.9985700000000008e+00
-9.9985700000000008e+00 9.9985700000000008e+00
ITEM: ATOMS id type xs ys zs
1666 2 0.0725055 0.0709099 0.0665062
1668 4 0.0642486 0.0692696 0.0429624
297 4 0.349537 0.0844079 0.0620176
484 2 0.387381 0.996532 0.0744543
747 4 0.472138 0.0619818 0.00627701
2974 2 0.473621 0.0302486 0.0303696
2976 4 0.483698 0.0111959 0.0430429
2975 4 0.463543 0.0493014 0.0176963
2467 2 0.49708 0.000359479 0.0725331
2468 4 0.487959 0.994669 0.0499584
2264 4 0.285611 0.15836 0.0123412
295 2 0.360408 0.0903747 0.040306
296 4 0.371279 0.0963415 0.0185943
557 4 0.383359 0.100706 0.00445022
556 2 0.406186 0.104008 0.0141033
769 2 0.393361 0.172387 0.0308174
771 4 0.399596 0.159621 0.0102421
745 2 0.460514 0.0823498 0.0149488
558 4 0.429014 0.107311 0.0237564
746 4 0.44889 0.102718 0.0236206
566 4 0.154907 0.203661 0.0338363
567 4 0.200973 0.194967 0.0164275
565 2 0.17794 0.199314 0.0251319
738 4 0.231739 0.229787 0.0871198
360 4 0.33111 0.17621 0.0768643
358 2 0.350521 0.184861 0.0636889
770 4 0.387126 0.185152 0.0513928
359 4 0.369931 0.193511 0.0505134
664 2 0.394918 0.215763 0.0638645
665 4 0.38556 0.203224 0.0443613
555 4 0.0733959 0.261843 0.0435492
553 2 0.0779886 0.265643 0.0192666
287 4 0.160796 0.310276 0.0278579
293 4 0.16899 0.292537 0.0272266
292 2 0.156463 0.282623 0.00799195
286 2 0.154391 0.334314 0.0253455
507 4 0.162915 0.298742 0.0444137
505 2 0.179446 0.297429 0.0631268
481 2 0.237824 0.291639 0.0650969
573 4 0.261523 0.270744 0.0470777
482 4 0.261425 0.28648 0.0586511
571 2 0.26733 0.265986 0.0232278
322 2 0.414695 0.26666 0.0652211
1069 2 0.392935 0.304554 0.0182661
324 4 0.412114 0.277556 0.0428653
1070 4 0.410561 0.288532 0.0258697
741 4 0.351738 0.314449 0.0381533
957 4 0.355676 0.319901 0.0176348
1071 4 0.37531 0.320576 0.0106625
739 2 0.361589 0.327548 0.057036
671 4 0.4508 0.320028 0.0566586
280 2 0.445093 0.297441 0.0300529
281 4 0.462694 0.307325 0.0448057
282 4 0.427491 0.287556 0.0153
670 2 0.440622 0.327032 0.0783966
288 4 0.147986 0.358353 0.0228332
454 2 0.149497 0.38058 0.0704932
455 4 0.13255 0.362299 0.0724291
456 4 0.166445 0.398862 0.0685573
552 4 0.117452 0.367475 0.0849535
250 2 0.272911 0.395776 0.0443732
251 4 0.275915 0.37537 0.0302389
1290 4 0.267466 0.378491 0.0120959
252 4 0.269908 0.416181 0.0585076
740 4 0.37144 0.340647 0.0759188
495 4 0.39644 0.371182 0.0589052
493 2 0.395219 0.396146 0.0595773
14 3 0.389681 0.355419 0.0711751
328 2 0.000482894 0.433003 0.0385766
330 4 0.0211875 0.44313 0.0482682
245 4 0.217523 0.422686 0.0315561
626 4 0.205498 0.429623 0.0460975
625 2 0.190656 0.447008 0.0562293
244 2 0.23545 0.432446 0.0171148
627 4 0.175815 0.464394 0.0663611
246 4 0.253377 0.442206 0.00267354
609 4 0.287209 0.420749 0.0659163
607 2 0.303177 0.420302 0.0851518
494 4 0.393998 0.421111 0.0602495
1672 2 0.400398 0.468005 0.0511788
660 4 0.379844 0.426752 0.0725938
1673 4 0.375521 0.470514 0.0510491
853 2 0.406487 0.439101 0.999091
1674 4 0.425275 0.465496 0.0513085
854 4 0.417557 0.449676 0.01886
563 4 0.478732 0.457473 0.0373531
228 4 0.498039 0.46168 0.0419466
562 2 0.45377 0.456741 0.0361129
564 4 0.428808 0.456009 0.0348728
18 3 0.0784046 0.0587598 0.142597
16 1 0.0654256 0.0590344 0.161829
17 3 0.0459168 0.0475312 0.1578
1667 4 0.0807625 0.0725501 0.09005
701 4 0.0813955 0.0783113 0.109056
1475 4 0.294653 0.0335039 0.0848851
492 4 0.288326 0.0531524 0.0857934
491 4 0.281017 0.0850754 0.123585
490 2 0.284672 0.0691139 0.104689
1474 2 0.295183 0.0086405 0.0822953
485 4 0.389562 0.00785015 0.0966428
2723 4 0.420187 0.0400728 0.149063
2722 2 0.444632 0.0440154 0.152535
2724 4 0.469078 0.0479581 0.156007
1760 4 0.488628 0.0473358 0.14874
2744 4 0.48426 0.0521301 0.166489
19 3 0.0601935 0.0809064 0.167543
700 2 0.083745 0.101686 0.117616
476 4 0.0867159 0.11787 0.14495
702 4 0.0860946 0.125061 0.126175
628 2 0.387344 0.142481 0.14531
312 4 0.38315 0.103734 0.156284
629 4 0.392168 0.117995 0.146838
339 4 0.0983363 0.24906 0.126563
337 2 0.0873768 0.249429 0.149034
737 4 0.255658 0.202856 0.121809
736 2 0.243699 0.216321 0.104464
461 4 0.307672 0.2328 0.107584
460 2 0.3309 0.229695 0.116299
354 4 0.286814 0.237624 0.112452
352 2 0.279737 0.239656 0.136348
353 4 0.272661 0.241687 0.160243
666 4 0.404276 0.228302 0.0833678
630 4 0.38252 0.166967 0.143781
462 4 0.354129 0.226589 0.125014
254 4 0.367727 0.167687 0.130978
255 4 0.368996 0.217468 0.135559
253 2 0.368362 0.192578 0.133268
765 4 0.358601 0.231011 0.143559
624 4 0.370643 0.235335 0.128496
622 2 0.39029 0.238364 0.113331
648 4 0.0568962 0.311225 0.168224
506 4 0.195977 0.296116 0.0818399
483 4 0.214223 0.296798 0.0715427
537 4 0.194657 0.314854 0.0895537
387 4 0.336703 0.30614 0.126908
301 2 0.322795 0.314051 0.168531
302 4 0.330841 0.314318 0.144859
323 4 0.417276 0.255764 0.0875769
623 4 0.409937 0.241394 0.0981655
385 2 0.347656 0.320472 0.109593
15 3 0.374955 0.335251 0.0993533
386 4 0.358609 0.334804 0.0922783
528 4 0.472583 0.26799 0.0929533
518 4 0.489964 0.274559 0.100362
526 2 0.4634 0.270154 0.116108
527 4 0.454218 0.272319 0.139264
551 4 0.095521 0.328471 0.10728
550 2 0.106486 0.347973 0.0961167
535 2 0.188845 0.335437 0.102505
536 4 0.183033 0.35602 0.115457
291 4 0.213089 0.406529 0.145193
416 4 0.202322 0.423284 0.141115
289 2 0.23659 0.414483 0.142094
290 4 0.260092 0.422436 0.138996
11 1 0.392129 0.348936 0.0933198
13 3 0.392547 0.367638 0.107049
12 3 0.412012 0.337595 0.0955939
672 4 0.430444 0.334036 0.100135
595 2 0.490256 0.386441 0.14499
1791 4 0.0420301 0.481941 0.129708
1466 4 0.0421088 0.488752 0.148125
417 4 0.160609 0.437933 0.117745
1440 4 0.170266 0.490062 0.109657
415 2 0.181466 0.430609 0.12943
1438 2 0.192889 0.496964 0.117764
608 4 0.319145 0.419854 0.104387
768 4 0.271258 0.437407 0.145749
767 4 0.263678 0.486758 0.148515
766 2 0.267468 0.462082 0.147132
638 4 0.264739 0.506218 0.145922
658 2 0.35747 0.427812 0.083706
659 4 0.335097 0.428873 0.0948181
1559 4 0.353874 0.496672 0.105264
2480 4 0.0347395 0.0363402 0.170147
1422 4 0.0453226 0.0192828 0.170411
2479 2 0.0137879 0.0470131 0.17865
20 3 0.0766502 0.0490106 0.178923
578 4 0.0908361 0.0541186 0.193
380 4 0.991611 0.0741017 0.198962
675 4 0.0966109 0.00419091 0.246715
674 4 0.132839 0.0161363 0.21438
673 2 0.114725 0.0101636 0.230548
689 4 0.14942 0.00941968 0.203934
577 2 0.111153 0.0674318 0.19893
450 4 0.128396 0.0939941 0.190822
579 4 0.131469 0.0807449 0.204861
1506 4 0.244008 0.0180825 0.175947
1504 2 0.22527 0.00162846 0.177775
654 4 0.262577 0.0241005 0.180607
652 2 0.284175 0.0288418 0.192279
653 4 0.305772 0.033583 0.203951
25 3 0.336599 0.0445221 0.251656
311 4 0.384523 0.0787192 0.199563
758 4 0.374333 0.0612464 0.199365
759 4 0.349578 0.0615887 0.242814
757 2 0.361956 0.0614176 0.22109
22 3 0.350907 0.0783307 0.258377
744 4 0.496183 0.0398655 0.228955
2745 4 0.49772 0.0325576 0.210495
2743 2 0.49099 0.0423438 0.188492
742 2 0.499703 0.0619336 0.24017
511 2 0.00829185 0.147694 0.224887
513 4 0.0259327 0.157079 0.239916
393 4 0.044524 0.158987 0.247665
448 2 0.151393 0.103657 0.189104
475 2 0.100086 0.127777 0.163612
477 4 0.113456 0.137685 0.182274
449 4 0.17439 0.11332 0.187385
237 4 0.231972 0.144401 0.178584
691 2 0.230694 0.128689 0.243533
693 4 0.221362 0.120915 0.221677
236 4 0.194066 0.114006 0.190418
235 2 0.213019 0.129204 0.184501
582 4 0.249119 0.141478 0.187685
581 4 0.288088 0.114953 0.170994
580 2 0.268604 0.128215 0.17934
28 3 0.329496 0.138367 0.250863
310 2 0.383836 0.0912267 0.177923
521 4 0.491645 0.157787 0.227774
332 4 0.49169 0.139704 0.221588
333 4 0.511566 0.101239 0.24661
331 2 0.501628 0.120472 0.234099
762 4 0.476016 0.147436 0.230931
760 2 0.459952 0.153032 0.249256
394 2 0.0115037 0.240745 0.230004
395 4 0.0316316 0.236462 0.215802
338 4 0.0764173 0.249798 0.171505
277 2 0.239864 0.232916 0.177919
279 4 0.218369 0.221277 0.183176
284 4 0.277188 0.237441 0.180475
283 2 0.301037 0.240746 0.18722
285 4 0.324885 0.24405 0.193965
27 3 0.330296 0.167341 0.226935
278 4 0.26136 0.244556 0.172661
763 2 0.351703 0.237366 0.166737
764 4 0.344805 0.24372 0.189915
646 2 0.0659296 0.332365 0.178057
363 4 0.076909 0.258877 0.190716
749 4 0.0804105 0.297785 0.230631
361 2 0.0854534 0.277985 0.204392
370 2 0.138488 0.307031 0.215803
372 4 0.114388 0.30073 0.21364
362 4 0.0939978 0.297094 0.218068
748 2 0.081139 0.320863 0.240224
371 4 0.162588 0.313332 0.217965
755 4 0.266807 0.260654 0.16419
754 2 0.2697 0.284324 0.171712
756 4 0.272593 0.307993 0.179234
612 4 0.260331 0.308282 0.197333
610 2 0.258338 0.315975 0.22104
307 2 0.308278 0.288128 0.220664
308 4 0.306474 0.29755 0.197574
303 4 0.314749 0.313784 0.192203
309 4 0.310082 0.278705 0.243753
611 4 0.256345 0.323668 0.244747
729 4 0.307623 0.33185 0.196912
647 4 0.074963 0.353504 0.187891
750 4 0.0818675 0.343942 0.249816
734 4 0.161904 0.345144 0.245627
299 4 0.148225 0.359112 0.243754
300 4 0.0988903 0.354498 0.250501
298 2 0.123558 0.356805 0.247127
727 2 0.311215 0.355466 0.204299
728 4 0.314806 0.379082 0.211687
445 2 0.397645 0.389033 0.2246
446 4 0.376045 0.397625 0.233806
447 4 0.419246 0.380441 0.215393
644 4 0.439436 0.379398 0.218178
597 4 0.482689 0.385352 0.168796
643 2 0.457867 0.377189 0.201427
645 4 0.476297 0.374979 0.184676
1465 2 0.0287303 0.480517 0.167577
1467 4 0.0153519 0.472283 0.18703
1775 4 0.101105 0.502974 0.256978
1758 4 0.0981184 0.483321 0.253616
1756 2 0.107605 0.460637 0.249076
231 4 0.467941 0.475808 0.209305
234 4 0.999791 0.0558097 0.305723
232 2 0.0237583 0.0495516 0.30232
233 4 0.0477256 0.0432934 0.298916
1404 4 0.0620749 0.0315036 0.297278
1402 2 0.0722319 0.0188017 0.278287
316 2 0.0778118 0.0628854 0.318853
317 4 0.0682811 0.0437299 0.305914
428 4 0.0705434 0.0256445 0.313535
427 2 0.0600858 0.0133449 0.332628
1403 4 0.0823889 0.00609989 0.259295
318 4 0.0873424 0.0820409 0.331791
24 3 0.313612 0.0737034 0.257795
21 1 0.333816 0.0637979 0.26346
23 3 0.334321 0.0592894 0.286216
699 4 0.351499 0.0620764 0.330939
351 4 0.413542 0.0588218 0.27017
479 4 0.447383 0.0263941 0.302477
478 2 0.436608 0.0360716 0.282095
2664 4 0.465972 0.0308224 0.300907
480 4 0.425833 0.0457491 0.261713
1428 4 0.45773 0.0183731 0.313492
258 4 0.44118 0.0294668 0.319737
2662 2 0.490154 0.0313136 0.294571
391 2 0.0660218 0.150989 0.257618
392 4 0.0875195 0.142991 0.26757
692 4 0.240026 0.136464 0.265388
721 2 0.234494 0.127713 0.297727
722 4 0.220185 0.131258 0.317923
723 4 0.248803 0.124168 0.277532
26 1 0.329263 0.161507 0.249162
349 2 0.401912 0.0792872 0.278601
632 4 0.376777 0.110592 0.277544
350 4 0.390282 0.0997526 0.287033
631 2 0.362154 0.129325 0.26977
707 4 0.35346 0.163104 0.273908
633 4 0.347532 0.148058 0.261995
706 2 0.36021 0.181216 0.28977
761 4 0.443888 0.158628 0.267581
546 4 0.144026 0.203544 0.261795
544 2 0.155029 0.219708 0.277378
545 4 0.166032 0.235872 0.292961
402 4 0.186367 0.238335 0.295415
30 3 0.310062 0.169769 0.258201
29 3 0.347658 0.170441 0.260126
708 4 0.366959 0.199328 0.305632
419 4 0.466306 0.243279 0.339808
390 4 0.125002 0.26994 0.330671
400 2 0.191441 0.261732 0.288203
401 4 0.196516 0.285129 0.280991
676 2 0.178247 0.307196 0.313196
345 4 0.201365 0.302741 0.276877
677 4 0.189359 0.301189 0.291617
343 2 0.224049 0.308407 0.268018
735 4 0.186213 0.314183 0.27647
678 4 0.167136 0.313202 0.334774
344 4 0.246733 0.314074 0.25916
496 2 0.29441 0.278986 0.275996
497 4 0.279716 0.267191 0.292432
377 4 0.290752 0.254155 0.304609
498 4 0.309103 0.290782 0.25956
376 2 0.279055 0.249049 0.32611
615 4 0.359491 0.329126 0.326932
541 2 0.394938 0.305349 0.333488
543 4 0.379153 0.323282 0.32611
418 2 0.448026 0.260233 0.337917
542 4 0.410723 0.287416 0.340866
365 4 0.0258031 0.370304 0.285067
601 2 0.059719 0.372072 0.30678
603 4 0.0443724 0.360919 0.290493
602 4 0.0750656 0.383226 0.323067
364 2 0.00275479 0.366508 0.293986
549 4 0.0743425 0.402698 0.330023
733 2 0.174058 0.329663 0.261048
433 2 0.286156 0.365279 0.301715
435 4 0.263795 0.376443 0.300987
434 4 0.308518 0.354116 0.302443
614 4 0.324679 0.362415 0.31349
613 2 0.342085 0.345771 0.320211
2461 2 0.00273479 0.495868 0.326068
1757 4 0.117093 0.437953 0.244537
777 4 0.101708 0.499833 0.278187
775 2 0.104199 0.495869 0.302748
776 4 0.106689 0.491905 0.32731
412 2 0.230101 0.497101 0.286114
1435 2 0.235926 0.465312 0.333218
1436 4 0.220693 0.470217 0.314007
413 4 0.215807 0.486194 0.303489
3 3 0.305055 0.476107 0.321813
437 4 0.374913 0.463692 0.323805
1803 4 0.372741 0.505074 0.26983
119 3 0.501391 0.457204 0.317161
713 4 0.444335 0.48113 0.342707
367 2 0.063533 0.00404412 0.401483
369 4 0.0389291 0.99964 0.402139
719 4 0.0352662 0.00834513 0.421055
368 4 0.088137 0.0084481 0.400828
732 4 0.0961162 0.082916 0.350115
730 2 0.115143 0.0714965 0.361637
731 4 0.13417 0.0600769 0.373159
606 4 0.152018 0.067546 0.375031
604 2 0.169685 0.0758052 0.359383
605 4 0.187352 0.0840644 0.343735
1700 4 0.31933 0.0618732 0.359497
1701 4 0.31994 0.0257965 0.394121
1699 2 0.319635 0.0438348 0.376809
425 4 0.325142 0.023689 0.413
441 4 0.308785 0.0163735 0.407481
697 2 0.372332 0.0550211 0.34283
698 4 0.393164 0.0479658 0.354722
426 4 0.374983 0.0215676 0.416466
424 2 0.350063 0.0226283 0.414733
257 4 0.411604 0.038253 0.359091
724 2 0.424019 0.0775675 0.404548
256 2 0.426392 0.0338599 0.339414
2584 2 0.0102022 0.117539 0.368202
397 2 0.0665391 0.109503 0.355923
398 4 0.0488472 0.122615 0.367766
2586 4 0.0321048 0.122222 0.379316
458 4 0.0304016 0.141808 0.378328
457 2 0.0373114 0.160371 0.393588
399 4 0.0842309 0.0963909 0.34408
598 2 0.12792 0.157801 0.349034
600 4 0.125459 0.134302 0.340854
249 4 0.229356 0.120161 0.331518
248 4 0.204346 0.083038 0.353814
247 2 0.216851 0.1016 0.342666
683 4 0.22833 0.0997193 0.381839
404 4 0.241064 0.12571 0.348506
403 2 0.249016 0.148865 0.353582
682 2 0.248364 0.101553 0.396687
319 2 0.294025 0.136642 0.396539
684 4 0.268397 0.103387 0.411536
321 4 0.312072 0.152838 0.390444
320 4 0.275977 0.120446 0.402634
717 4 0.412942 0.16162 0.344104
725 4 0.433556 0.0904616 0.385365
389 4 0.102009 0.228792 0.34737
388 2 0.113506 0.249366 0.339021
599 4 0.130382 0.1813 0.357215
686 4 0.120576 0.193485 0.368813
685 2 0.114312 0.19502 0.39297
275 4 0.146404 0.188898 0.34811
472 2 0.231435 0.201127 0.36017
474 4 0.208992 0.211179 0.355651
276 4 0.189656 0.213829 0.351016
274 2 0.16803 0.201364 0.349563
405 4 0.256968 0.17202 0.358659
473 4 0.253879 0.191075 0.364688
378 4 0.267358 0.243944 0.347612
715 2 0.397022 0.176782 0.356013
466 2 0.383684 0.199505 0.404456
716 4 0.381103 0.191945 0.367923
467 4 0.376167 0.206621 0.381696
269 4 0.483315 0.241786 0.349312
270 4 0.482474 0.225471 0.396575
452 4 0.464136 0.231828 0.40194
268 2 0.482894 0.233628 0.372944
451 2 0.455546 0.212369 0.415083
618 4 0.0646088 0.322964 0.383975
616 2 0.0842427 0.307578 0.382249
617 4 0.103877 0.292193 0.380523
374 4 0.116266 0.291805 0.36503
373 2 0.135702 0.305606 0.357481
375 4 0.155138 0.319406 0.349933
509 4 0.237342 0.329997 0.377328
508 2 0.253997 0.326553 0.358999
488 4 0.331111 0.261136 0.408218
420 4 0.429746 0.277187 0.336026
2802 4 0.0131311 0.331101 0.410887
347 4 0.0465404 0.32869 0.382944
346 2 0.0422796 0.352989 0.37887
348 4 0.0380187 0.377288 0.374796
510 4 0.270651 0.32311 0.34067
668 4 0.315485 0.38574 0.405977
336 4 0.332358 0.377261 0.397963
334 2 0.356943 0.372706 0.398004
335 4 0.381528 0.36815 0.398044
752 4 0.480851 0.400616 0.388356
561 4 0.495583 0.401633 0.402191
751 2 0.490381 0.416072 0.371167
547 2 0.0868815 0.420757 0.341932
407 4 0.0985237 0.438319 0.373677
548 4 0.0994205 0.438816 0.353842
406 2 0.110088 0.450123 0.392442
500 4 0.0936176 0.488822 0.341919
438 4 0.327572 0.478341 0.330508
1437 4 0.251159 0.460407 0.352429
1 1 0.303812 0.486142 0.342697
4 3 0.293809 0.471691 0.357847
2 3 0.325119 0.49092 0.349933
436 2 0.351243 0.471016 0.327156
593 4 0.397668 0.459522 0.383394
588 4 0.400533 0.464244 0.402569
592 2 0.412111 0.467509 0.364611
1742 4 0.427899 0.494009 0.344225
753 4 0.499911 0.431528 0.353977
714 4 0.489712 0.461381 0.33552
712 2 0.467024 0.471255 0.339114
117 3 0.499821 0.454168 0.354591
594 4 0.426554 0.475495 0.345828
718 2 0.0155478 0.00703496 0.436374
962 4 0.311926 0.0220931 0.426739
961 2 0.302422 0.0399056 0.441489
963 4 0.292918 0.057718 0.45624
432 4 0.304559 0.0652402 0.470709
430 2 0.312025 0.0779006 0.490936
726 4 0.414483 0.0646735 0.42373
642 4 0.495076 0.116589 0.449665
640 2 0.473279 0.128506 0.452502
641 4 0.451481 0.140422 0.455339
459 4 0.0442212 0.178933 0.408847
260 4 0.0507041 0.17335 0.426659
259 2 0.0724315 0.185542 0.42877
687 4 0.108049 0.196556 0.417128
261 4 0.0941589 0.197734 0.430881
1035 4 0.110395 0.208213 0.433267
1033 2 0.110022 0.229127 0.446964
1034 4 0.10965 0.250042 0.460661
489 4 0.333219 0.237275 0.452115
468 4 0.391202 0.19239 0.427217
514 2 0.417024 0.191458 0.454763
411 4 0.345029 0.22544 0.464219
516 4 0.393377 0.191483 0.462886
409 2 0.364475 0.212414 0.455425
410 4 0.383921 0.199387 0.446631
575 4 0.384628 0.179632 0.477898
266 4 0.353573 0.241007 0.475044
515 4 0.440672 0.191434 0.44664
453 4 0.446956 0.19291 0.428226
585 4 0.499764 0.205703 0.452523
583 2 0.492632 0.226285 0.464798
2847 4 0.0241293 0.317471 0.451673
695 4 0.0362225 0.262187 0.495289
694 2 0.0608056 0.261573 0.490764
1258 2 0.111025 0.283181 0.477606
1259 4 0.121184 0.305797 0.480841
9 3 0.128388 0.323926 0.476589
1260 4 0.100866 0.260564 0.47437
487 2 0.332165 0.249206 0.430166
267 4 0.366506 0.280539 0.502805
265 2 0.36004 0.260773 0.488925
2456 4 0.487713 0.254135 0.495147
584 4 0.4855 0.246867 0.477074
1010 4 0.488154 0.320606 0.505383
2845 2 0.006037 0.334567 0.454033
326 4 0.0584159 0.374185 0.451042
325 2 0.0778032 0.367008 0.465106
10 3 0.142205 0.347164 0.450383
6 1 0.129878 0.345968 0.469495
7 3 0.108685 0.353895 0.465349
327 4 0.0971905 0.359832 0.479171
709 2 0.155409 0.406831 0.475022
8 3 0.139646 0.358972 0.486044
711 4 0.133952 0.419264 0.471829
384 4 0.115666 0.428434 0.471102
503 4 0.209561 0.353957 0.463636
504 4 0.19293 0.400923 0.46792
502 2 0.201246 0.37744 0.465778
710 4 0.176867 0.394399 0.478214
667 2 0.306501 0.404663 0.419631
238 2 0.403009 0.388831 0.425771
240 4 0.394941 0.369267 0.412456
3308 4 0.486036 0.384406 0.499452
1381 2 0.000218119 0.487095 0.469566
1383 4 0.995466 0.462741 0.466484
408 4 0.121653 0.461926 0.411207
569 4 0.122736 0.472398 0.427098
382 2 0.117101 0.440206 0.44909
568 2 0.141615 0.487438 0.433619
383 4 0.118535 0.451978 0.427078
1543 2 0.201433 0.499784 0.44543
1544 4 0.225582 0.495026 0.441033
635 4 0.30289 0.440261 0.440616
636 4 0.282525 0.483128 0.424856
669 4 0.297518 0.423585 0.433284
634 2 0.292708 0.461694 0.432736
774 4 0.30016 0.422861 0.452205
772 2 0.29618 0.426721 0.476586
586 2 0.405828 0.441923 0.412515
587 4 0.411124 0.419602 0.42246
239 4 0.411077 0.408396 0.439087
1332 4 0.493155 0.500386 0.476414
662 4 0.479076 0.492083 0.488244
661 2 0.466023 0.482432 0.469226
663 4 0.45297 0.472781 0.450209
342 4 0.203279 0.0743567 0.516287
340 2 0.210337 0.0520374 0.5075
341 4 0.217395 0.0297181 0.498713
2430 4 0.201987 0.0183755 0.499621
2428 2 0.19262 0.999879 0.513596
1217 4 0.397839 0.0718854 0.518694
842 4 0.382375 0.067463 0.529445
1216 2 0.420552 0.0614399 0.519132
3007 2 0.495067 0.0538285 0.573191
1218 4 0.443265 0.0509944 0.51957
1058 4 0.116026 0.109129 0.524573
1057 2 0.116548 0.115434 0.548763
1059 4 0.11707 0.121739 0.572953
1155 4 0.122559 0.138551 0.583513
1271 4 0.107277 0.149087 0.586982
1152 4 0.199993 0.0793375 0.534922
1150 2 0.21734 0.0862988 0.55153
1151 4 0.234686 0.09326 0.568137
1181 4 0.214588 0.170795 0.574272
1180 2 0.233695 0.159609 0.562654
1182 4 0.252802 0.148423 0.551037
431 4 0.31949 0.0905609 0.511164
900 4 0.264125 0.162793 0.542481
843 4 0.3381 0.083402 0.512522
841 2 0.360238 0.0754325 0.520984
3159 4 0.501501 0.163524 0.56619
1199 4 0.0390571 0.211695 0.567751
1198 2 0.0148069 0.216944 0.564661
878 4 0.0480819 0.226718 0.574402
1244 4 0.037864 0.243105 0.568764
470 4 0.0226528 0.171745 0.525828
469 2 0.015894 0.191772 0.512471
796 2 0.238644 0.245418 0.572026
858 4 0.192836 0.227701 0.509325
798 4 0.215023 0.246899 0.563962
856 2 0.21221 0.243451 0.510645
898 2 0.275494 0.182827 0.532757
650 4 0.289404 0.217719 0.509991
899 4 0.286864 0.202861 0.523032
649 2 0.284353 0.24133 0.516485
797 4 0.262265 0.243936 0.58009
576 4 0.385339 0.17893 0.527896
574 2 0.384984 0.179281 0.502897
982 2 0.0246028 0.318734 0.585771
696 4 0.0853886 0.26096 0.486239
857 4 0.231584 0.259202 0.511965
947 4 0.195063 0.247738 0.5586
946 2 0.184292 0.263752 0.574497
651 4 0.279302 0.264942 0.522979
791 4 0.279946 0.251991 0.579883
790 2 0.289506 0.274652 0.58438
1238 4 0.304229 0.316104 0.59127
1237 2 0.322129 0.330727 0.581733
872 4 0.354678 0.267666 0.56806
871 2 0.370606 0.286927 0.568773
873 4 0.386533 0.306188 0.569487
813 4 0.39422 0.318151 0.583525
2457 4 0.48447 0.301583 0.510604
2455 2 0.486091 0.277859 0.502876
984 4 0.018328 0.33483 0.567695
3354 4 0.998214 0.337859 0.564129
3352 2 0.996153 0.35804 0.549513
1189 2 0.238554 0.36612 0.576424
896 4 0.204805 0.366626 0.5801
1190 4 0.258436 0.356451 0.564746
803 4 0.266785 0.362243 0.547008
804 4 0.289009 0.391159 0.512792
802 2 0.277897 0.376701 0.5299
930 4 0.32642 0.36094 0.571478
928 2 0.336011 0.378546 0.556537
1239 4 0.34003 0.345349 0.572197
811 2 0.410319 0.336905 0.579744
929 4 0.345602 0.396152 0.541597
881 4 0.361228 0.389639 0.529901
880 2 0.371961 0.373699 0.513904
882 4 0.382694 0.357759 0.497907
812 4 0.426419 0.355658 0.575963
927 4 0.432639 0.363224 0.595596
925 2 0.440592 0.38461 0.58537
1011 4 0.498471 0.369536 0.504992
926 4 0.448545 0.405995 0.575143
1009 2 0.493313 0.345071 0.505187
538 2 0.0859712 0.455668 0.575994
540 4 0.0940627 0.474776 0.562045
1160 4 0.110504 0.482961 0.563396
1159 2 0.128822 0.486603 0.580021
2244 4 0.092674 0.490774 0.552546
773 4 0.292201 0.430581 0.500968
1951 2 0.380913 0.495161 0.558513
1952 4 0.358592 0.485825 0.564821
890 4 0.358171 0.479657 0.584906
1953 4 0.403234 0.504497 0.552205
1002 4 0.461712 0.415911 0.585663
1909 2 0.433025 0.485551 0.579223
1910 4 0.417233 0.491637 0.560818
2114 4 0.999616 0.00311752 0.611474
1082 4 0.063821 0.0611062 0.660796
1081 2 0.0635721 0.073363 0.639004
4337 4 0.0236878 0.00211619 0.672649
823 2 0.178468 0.0322752 0.654454
824 4 0.183807 0.0118677 0.64103
1030 2 0.258467 0.0795663 0.597451
1031 4 0.279691 0.0721174 0.608371
951 4 0.288983 0.0554253 0.600135
949 2 0.305631 0.036819 0.601479
950 4 0.32228 0.0182127 0.602823
809 4 0.474258 0.0412743 0.599474
808 2 0.469086 0.0527275 0.62109
810 4 0.463913 0.0641808 0.642706
3008 4 0.474276 0.041795 0.580126
42 3 0.463523 0.0563191 0.664859
1128 4 0.00760671 0.11465 0.588587
1083 4 0.0633232 0.0856199 0.617213
1126 2 0.0289049 0.106913 0.599157
1127 4 0.050203 0.0991769 0.609726
938 4 0.0778745 0.0960072 0.610584
939 4 0.10594 0.129631 0.586448
937 2 0.0919072 0.112819 0.598516
1153 2 0.145191 0.136385 0.593918
1032 4 0.237244 0.0870153 0.586531
1221 4 0.169709 0.152427 0.6114
1154 4 0.167824 0.134219 0.604323
886 2 0.295743 0.156966 0.637114
887 4 0.315314 0.147539 0.649496
830 4 0.319404 0.148943 0.668777
1194 4 0.329551 0.150014 0.6363
1192 2 0.353911 0.155126 0.63867
1193 4 0.378272 0.160239 0.64104
45 3 0.459733 0.0874496 0.644625
3424 2 0.489982 0.118123 0.654733
3425 4 0.47486 0.0984945 0.658087
877 2 0.0676316 0.216662 0.586312
879 4 0.0871812 0.206605 0.598223
1272 4 0.103201 0.196462 0.602465
1270 2 0.105239 0.172774 0.594723
1212 4 0.211345 0.183491 0.639706
1219 2 0.180293 0.169831 0.625901
1220 4 0.190878 0.187235 0.640401
1210 2 0.235102 0.176618 0.636021
888 4 0.276173 0.166394 0.624732
1211 4 0.258858 0.169746 0.632336
1243 2 0.0341153 0.264169 0.581704
983 4 0.0308777 0.302638 0.603846
1245 4 0.0303667 0.285233 0.594643
1136 4 0.166336 0.285821 0.608501
1135 2 0.158137 0.309067 0.60431
1137 4 0.149939 0.332314 0.600119
948 4 0.173522 0.279765 0.590394
792 4 0.299067 0.297314 0.588878
806 4 0.30651 0.343181 0.679587
906 4 0.48647 0.312207 0.593359
953 4 0.468614 0.310445 0.60348
952 2 0.449995 0.294445 0.598739
954 4 0.431376 0.278444 0.593997
3123 4 0.484433 0.274097 0.655691
1039 2 0.0711825 0.39063 0.624682
1041 4 0.0537486 0.392566 0.6425
3264 4 0.0374433 0.395849 0.651598
3262 2 0.0338071 0.373636 0.662485
3240 4 0.0323965 0.416061 0.652942
1040 4 0.0886164 0.388695 0.606863
993 4 0.103279 0.375795 0.604152
897 4 0.162957 0.346227 0.598357
991 2 0.124995 0.363495 0.605681
992 4 0.14671 0.351196 0.60721
895 2 0.183881 0.356426 0.589229
1172 4 0.221067 0.393296 0.599995
1191 4 0.218671 0.375789 0.588101
1171 2 0.209678 0.411048 0.613424
1065 4 0.218355 0.333217 0.664824
1206 4 0.384911 0.400073 0.605478
539 4 0.0778797 0.436559 0.589943
3238 2 0.0143085 0.431675 0.645579
1161 4 0.147139 0.490245 0.596646
1188 4 0.161803 0.476434 0.594075
1186 2 0.173834 0.460592 0.609224
1173 4 0.19829 0.428801 0.626853
1187 4 0.185864 0.444751 0.624373
1139 4 0.245633 0.473713 0.666604
891 4 0.3208 0.447035 0.591225
889 2 0.339485 0.463346 0.588065
1230 4 0.358954 0.42471 0.664164
1204 2 0.401946 0.413593 0.617816
1205 4 0.41898 0.427113 0.630154
1911 4 0.448816 0.479465 0.597629
1000 2 0.461404 0.440358 0.590902
1001 4 0.461096 0.464804 0.596141
1269 4 0.465313 0.47965 0.607571
1267 2 0.466774 0.496476 0.626008
943 2 0.0522931 0.0245984 0.687143
944 4 0.0473825 0.0489774 0.689737
1076 4 0.0566784 0.062654 0.678882
1075 2 0.0606615 0.0779892 0.698225
4520 4 0.0383536 0.992278 0.684354
825 4 0.173129 0.0526828 0.667878
1283 4 0.159206 0.06165 0.679653
1147 2 0.244031 0.0441764 0.708501
1148 4 0.227894 0.0612885 0.700019
1226 4 0.234235 0.0804851 0.70176
1149 4 0.260168 0.0270643 0.716983
1092 4 0.312046 0.0099251 0.687648
1004 4 0.369105 0.0716333 0.725421
41 1 0.459732 0.0789897 0.665769
43 3 0.439152 0.0827572 0.675803
1163 4 0.478734 0.0667115 0.67917
1162 2 0.49503 0.0526315 0.691873
2320 2 0.502782 0.036751 0.743993
864 4 0.0585213 0.0847134 0.733306
1077 4 0.0646445 0.0933244 0.717568
1107 4 0.0715158 0.101176 0.733434
851 4 0.0789516 0.108728 0.717677
850 2 0.0843766 0.125153 0.699623
862 2 0.0377693 0.0870319 0.747059
852 4 0.0898016 0.141579 0.681569
1282 2 0.150158 0.0831892 0.688563
1284 4 0.141111 0.104728 0.697473
1105 2 0.0915442 0.102524 0.748341
909 4 0.151983 0.131213 0.712834
907 2 0.176875 0.13341 0.711962
908 4 0.201767 0.135607 0.711091
1227 4 0.219774 0.12754 0.710558
1225 2 0.227004 0.104013 0.706159
829 2 0.332976 0.140416 0.687968
831 4 0.346549 0.13189 0.707158
1003 2 0.356735 0.0921257 0.718194
1005 4 0.344365 0.112618 0.710968
44 3 0.476575 0.0889153 0.678268
1144 2 0.496779 0.167128 0.740641
1178 4 0.997671 0.226567 0.716352
1177 2 0.0124243 0.23185 0.696868
1072 2 0.098327 0.216151 0.740176
1074 4 0.101178 0.240223 0.746305
1073 4 0.0954762 0.192079 0.734046
978 4 0.278487 0.192864 0.748874
1142 4 0.459205 0.163842 0.737958
1025 4 0.437809 0.180438 0.678243
1262 4 0.469271 0.19261 0.730805
1024 2 0.449283 0.178585 0.70038
1026 4 0.460757 0.176732 0.722518
1261 2 0.462932 0.215991 0.736996
1145 4 0.473984 0.173852 0.732873
1179 4 0.0271777 0.237132 0.677384
1209 4 0.119054 0.286977 0.711039
1207 2 0.116542 0.271488 0.730506
1208 4 0.114029 0.255998 0.749972
821 4 0.134375 0.283208 0.698853
820 2 0.154393 0.29153 0.686395
822 4 0.174412 0.299852 0.673938
1064 4 0.181627 0.310109 0.68968
1063 2 0.199991 0.321663 0.677252
805 2 0.290936 0.324292 0.68467
807 4 0.275362 0.305403 0.689752
3263 4 0.0301708 0.351422 0.673371
892 2 0.0214357 0.34578 0.740611
894 4 0.0343577 0.363375 0.72842
1280 4 0.0538349 0.365447 0.723889
1279 2 0.0478063 0.389051 0.718259
816 4 0.0691672 0.353686 0.731891
1281 4 0.0417777 0.412654 0.712629
814 2 0.0870175 0.34286 0.745651
1028 4 0.234223 0.37914 0.724929
1066 2 0.204028 0.355716 0.736258
1068 4 0.222292 0.362778 0.720711
1027 2 0.236325 0.395173 0.705857
1029 4 0.238426 0.411205 0.686786
1018 2 0.393918 0.389191 0.737532
1020 4 0.39118 0.40864 0.722058
1983 4 0.0608654 0.420321 0.71392
1981 2 0.0706545 0.43932 0.726896
1982 4 0.0804436 0.458319 0.739872
2016 4 0.157287 0.500886 0.722792
1138 2 0.243071 0.452023 0.678776
1140 4 0.240508 0.430334 0.690949
1175 4 0.215858 0.462294 0.716964
1174 2 0.195512 0.476308 0.720814
1176 4 0.175166 0.490323 0.724663
1988 4 0.304619 0.47934 0.735638
1987 2 0.312894 0.461165 0.720592
1989 4 0.321168 0.44299 0.705545
1228 2 0.341432 0.43858 0.675378
1229 4 0.32391 0.452451 0.686593
2991 4 0.999408 0.0424384 0.802226
2989 2 0.000523638 0.0614544 0.786029
2990 4 0.00163972 0.0804704 0.769833
2049 4 0.114265 0.0315942 0.766139
1202 4 0.106665 0.0338765 0.785163
2047 2 0.134386 0.0182302 0.75968
1201 2 0.109428 0.0580284 0.791013
817 2 0.323541 0.0460746 0.827964
818 4 0.330126 0.0259003 0.814743
1085 4 0.310489 0.078286 0.825889
974 4 0.341282 0.0118302 0.807296
973 2 0.363433 0.00394991 0.815803
1050 4 0.327024 0.00657991 0.792503
1113 4 0.413737 0.0531216 0.776373
2322 4 0.491877 0.0420606 0.765858
1111 2 0.438512 0.0503132 0.774499
845 4 0.480969 0.0543525 0.778435
1112 4 0.463286 0.0475048 0.772625
844 2 0.484128 0.0781407 0.785458
3083 4 0.00131823 0.0921434 0.754601
863 4 0.0170172 0.0893503 0.760812
833 4 0.00526236 0.0995093 0.77258
832 2 0.0131255 0.114258 0.791177
834 4 0.0209887 0.129006 0.809773
1125 4 0.029194 0.145231 0.818571
1123 2 0.0466952 0.163072 0.819347
1106 4 0.111573 0.103872 0.763249
1203 4 0.112191 0.0821804 0.796863
911 4 0.100004 0.105441 0.822639
34 3 0.115858 0.0998002 0.782176
31 1 0.118167 0.106512 0.804268
35 3 0.10343 0.12325 0.808884
32 3 0.113797 0.0885722 0.817986
33 3 0.139864 0.113784 0.808111
1257 4 0.263804 0.0980664 0.765467
1256 4 0.255563 0.103211 0.814521
840 4 0.265292 0.102178 0.832003
1255 2 0.259683 0.100639 0.789994
1084 2 0.312649 0.0972711 0.809762
1086 4 0.314809 0.116256 0.793635
47 3 0.40007 0.151631 0.809579
1023 4 0.407463 0.14578 0.82773
48 3 0.40291 0.156233 0.772385
846 4 0.487288 0.101929 0.792481
1143 4 0.426033 0.162808 0.775365