ITEM: TIMESTEP
3370000
ITEM: NUMBER OF ATOMS
4590
ITEM: BOX BOUNDS pp pp pp
-9.9985700000000008e+00 9.9985700000000008e+00
-9.9985700000000008e+00 9.9985700000000008e+00
-9.9985700000000008e+00 9.9985700000000008e+00
ITEM: ATOMS id type xs ys zs
701 4 0.043927 0.0471504 0.0717682
700 2 0.0541629 0.0699061 0.0701615
1667 4 0.0246844 0.0480254 0.0752619
1666 2 0.000182245 0.0500906 0.0707278
490 2 0.276273 0.0591298 0.0701762
492 4 0.291459 0.0396704 0.0661887
1474 2 0.275411 0.00164792 0.0580287
1475 4 0.284708 0.0246726 0.0550947
2974 2 0.470403 0.0353972 0.0266317
745 2 0.421534 0.0744427 0.0236028
747 4 0.436844 0.05507 0.0196663
2975 4 0.453659 0.0488061 0.0137859
986 4 0.439278 0.036612 0.0109471
2976 4 0.487147 0.0219883 0.0394776
2468 4 0.497074 0.0166522 0.0523857
702 4 0.0643988 0.0926619 0.0685549
475 2 0.0711674 0.120976 0.08024
477 4 0.0842653 0.141408 0.0742267
566 4 0.215304 0.145097 0.0357547
565 2 0.220955 0.152443 0.0125322
746 4 0.406225 0.0938154 0.0275393
769 2 0.394156 0.148543 0.0287817
556 2 0.37438 0.0978516 0.00514687
558 4 0.3907 0.105109 0.0226453
771 4 0.396727 0.123731 0.0270704
737 4 0.227049 0.19089 0.0389565
736 2 0.20336 0.198545 0.0412862
738 4 0.179671 0.2062 0.0436158
770 4 0.391585 0.173355 0.030493
359 4 0.394881 0.185199 0.016391
664 2 0.387863 0.20884 0.0488313
665 4 0.382949 0.189576 0.0336684
666 4 0.392778 0.228104 0.0639941
623 4 0.390607 0.245215 0.0721011
323 4 0.400557 0.244781 0.0559618
555 4 0.0764591 0.26831 0.998826
481 2 0.235713 0.274786 0.072736
505 2 0.193566 0.316677 0.074932
483 4 0.220948 0.292737 0.0819515
288 4 0.221313 0.324782 0.00688618
573 4 0.267651 0.259388 0.0531052
482 4 0.250478 0.256834 0.0635205
571 2 0.289632 0.262089 0.0414985
572 4 0.311613 0.26479 0.0298918
357 4 0.309772 0.275205 0.0123409
355 2 0.321485 0.296705 0.00726736
356 4 0.333198 0.318205 0.00219386
1069 2 0.409965 0.321681 0.0344382
322 2 0.413721 0.264459 0.0479202
324 4 0.426884 0.284138 0.0398786
1070 4 0.42643 0.303308 0.0303783
280 2 0.452711 0.305231 0.0611012
282 4 0.440442 0.296721 0.0410454
281 4 0.46498 0.313741 0.081157
292 2 0.155368 0.342758 0.0377453
294 4 0.134472 0.339702 0.0243595
507 4 0.186572 0.338321 0.0645492
286 2 0.207412 0.333336 0.0258278
287 4 0.193512 0.34189 0.0447695
293 4 0.176264 0.345815 0.0511311
552 4 0.171249 0.348855 0.0696012
456 4 0.207412 0.399776 0.0576884
454 2 0.19811 0.376593 0.0587913
455 4 0.188808 0.353411 0.0598942
1290 4 0.27111 0.404068 0.0497995
1288 2 0.283202 0.388954 0.0339721
1289 4 0.295294 0.373839 0.0181447
903 4 0.298186 0.375245 0.998304
956 4 0.333156 0.332102 0.0169556
1071 4 0.3935 0.340055 0.0384981
955 2 0.35341 0.335592 0.0311954
957 4 0.373664 0.339082 0.0454352
741 4 0.388755 0.341245 0.0566994
739 2 0.391036 0.345356 0.081257
1304 4 0.38613 0.375781 0.0150702
1303 2 0.380368 0.397284 0.00368552
1786 2 0.107613 0.484573 0.0719559
625 2 0.162098 0.481593 0.0535202
1690 2 0.114182 0.497366 0.0180419
1787 4 0.124664 0.497892 0.0594242
627 4 0.143729 0.497383 0.0597187
626 4 0.180468 0.465803 0.0473217
245 4 0.192771 0.451158 0.0507155
244 2 0.217337 0.44703 0.0528698
246 4 0.241903 0.442902 0.0550242
251 4 0.257655 0.416956 0.0592751
272 4 0.256141 0.432493 0.0460664
271 2 0.267594 0.443049 0.0265066
273 4 0.279047 0.453604 0.00694684
250 2 0.259577 0.424659 0.0829847
1157 4 0.290102 0.436797 0.00557225
1672 2 0.415891 0.435214 0.0743153
853 2 0.405571 0.44797 0.0199468
855 4 0.385327 0.447179 0.0052937
37 3 0.368692 0.433524 0.0068717
854 4 0.425816 0.448761 0.0346
1674 4 0.426426 0.442715 0.0529159
564 4 0.442245 0.451336 0.0442413
563 4 0.475627 0.476012 0.0163587
562 2 0.458936 0.463674 0.0303
228 4 0.487542 0.492643 0.0133281
19 3 0.0646515 0.998238 0.15619
577 2 0.0884165 0.0378043 0.163435
579 4 0.102881 0.0578857 0.159873
450 4 0.120361 0.0503596 0.157206
448 2 0.140162 0.0656139 0.157861
449 4 0.159962 0.0808682 0.158517
582 4 0.232697 0.0691105 0.15775
237 4 0.22024 0.0726115 0.142732
235 2 0.198894 0.0791843 0.153971
491 4 0.261087 0.0785892 0.0741638
486 4 0.42996 0.994087 0.111549
2722 2 0.496693 0.0817074 0.134259
476 4 0.0580696 0.100544 0.0862534
513 4 0.0338567 0.145869 0.163253
236 4 0.177547 0.0857572 0.165209
312 4 0.358721 0.133753 0.153615
628 2 0.382251 0.156796 0.149883
629 4 0.379061 0.133113 0.157242
2723 4 0.492461 0.103753 0.123247
2759 4 0.00877554 0.16315 0.113608
2624 4 0.0092536 0.183357 0.1123
460 2 0.326027 0.228165 0.112941
461 4 0.304414 0.216189 0.109114
354 4 0.284397 0.213778 0.116198
352 2 0.273502 0.231708 0.1298
353 4 0.262608 0.249638 0.143401
278 4 0.255265 0.245147 0.160696
462 4 0.34764 0.240141 0.116769
255 4 0.364372 0.235519 0.12553
253 2 0.37337 0.216637 0.139229
622 2 0.376468 0.247999 0.0925339
254 4 0.382369 0.197756 0.152928
630 4 0.385441 0.180478 0.142524
506 4 0.20056 0.295033 0.0853148
537 4 0.187932 0.281004 0.0928931
755 4 0.24382 0.251832 0.145369
536 4 0.185185 0.264079 0.139869
535 2 0.186559 0.272541 0.116381
754 2 0.232543 0.273767 0.149476
756 4 0.221266 0.295702 0.153582
301 2 0.319565 0.317169 0.141542
303 4 0.316443 0.29922 0.158667
764 4 0.328739 0.283782 0.158664
284 4 0.2709 0.257999 0.158838
283 2 0.290429 0.272967 0.163286
624 4 0.362328 0.250783 0.112967
765 4 0.3553 0.251477 0.13125
763 2 0.342019 0.267629 0.144957
12 3 0.407658 0.323552 0.128966
671 4 0.459039 0.327488 0.0959225
527 4 0.47584 0.326957 0.0875448
670 2 0.437216 0.334972 0.105561
647 4 0.0598864 0.344749 0.144264
550 2 0.158674 0.35683 0.0896872
551 4 0.146099 0.364805 0.109773
302 4 0.322687 0.335119 0.124418
387 4 0.324193 0.350613 0.111931
385 2 0.34906 0.353224 0.111831
493 2 0.3905 0.389238 0.110043
495 4 0.388039 0.364957 0.115481
386 4 0.373927 0.355835 0.111731
15 3 0.37565 0.341428 0.12198
740 4 0.393317 0.349467 0.105815
14 3 0.407984 0.360684 0.123154
11 1 0.39592 0.343063 0.132231
13 3 0.393026 0.346352 0.155018
494 4 0.392962 0.413518 0.104605
672 4 0.415393 0.342456 0.1152
526 2 0.498324 0.336306 0.0818655
1465 2 0.0645871 0.46675 0.100956
1466 4 0.0423335 0.477423 0.10496
1791 4 0.0457795 0.49823 0.108962
1788 4 0.0905617 0.471254 0.0844877
1467 4 0.0868407 0.456076 0.0969517
766 2 0.211013 0.465158 0.165756
768 4 0.217046 0.44337 0.155076
767 4 0.20498 0.486947 0.176435
252 4 0.261499 0.432363 0.106694
609 4 0.280707 0.428567 0.116058
607 2 0.305237 0.432808 0.113716
608 4 0.329767 0.43705 0.111375
1317 4 0.327268 0.495029 0.140433
659 4 0.33905 0.432707 0.0937938
660 4 0.38884 0.431165 0.098183
1673 4 0.405355 0.427714 0.0957146
658 2 0.363945 0.431936 0.0959884
524 4 0.40531 0.48102 0.139671
523 2 0.402501 0.463014 0.122551
525 4 0.399693 0.445009 0.105432
1559 4 0.392015 0.493547 0.145919
1558 2 0.367971 0.500244 0.144422
2480 4 0.0194544 0.000249758 0.188816
578 4 0.0739517 0.0177229 0.166997
2479 2 0.0176487 0.0180396 0.206293
380 4 0.0266322 0.0530784 0.225637
2481 4 0.015843 0.0358294 0.22377
379 2 0.0296363 0.0717772 0.209312
20 3 0.069693 0.0146659 0.189692
674 4 0.156592 0.998646 0.237113
580 2 0.24457 0.0548411 0.174501
1506 4 0.251654 0.0162736 0.20866
581 4 0.256444 0.0405718 0.191252
654 4 0.258574 0.0356581 0.210488
652 2 0.279072 0.0376549 0.224666
653 4 0.299571 0.0396516 0.238843
758 4 0.337145 0.0794534 0.185432
759 4 0.366676 0.0705403 0.224791
757 2 0.35191 0.0749969 0.205111
350 4 0.371381 0.0546202 0.234863
349 2 0.394552 0.0493576 0.227078
632 4 0.366252 0.0676799 0.244619
25 3 0.348317 0.0208131 0.234859
480 4 0.434697 0.0416189 0.228452
351 4 0.417722 0.044095 0.219292
333 4 0.487547 0.0726533 0.250383
393 4 0.0419273 0.16572 0.163261
511 2 0.0365421 0.127688 0.180207
512 4 0.0392275 0.109507 0.19716
381 4 0.0326405 0.090476 0.192987
310 2 0.354564 0.111454 0.164133
30 3 0.361206 0.162766 0.23911
311 4 0.350408 0.089154 0.174651
26 1 0.376054 0.145509 0.239729
28 3 0.3758 0.134118 0.219515
761 4 0.411437 0.126952 0.206864
27 3 0.397198 0.153831 0.24331
521 4 0.477217 0.13151 0.226522
762 4 0.458128 0.129488 0.224592
760 2 0.434783 0.12822 0.215728
332 4 0.468595 0.115154 0.232074
331 2 0.478071 0.0939035 0.241229
520 2 0.487526 0.153908 0.222368
391 2 0.0444334 0.188871 0.172366
392 4 0.0469395 0.212023 0.181471
339 4 0.0627425 0.223479 0.17308
337 2 0.0666004 0.247435 0.179115
546 4 0.0838583 0.258275 0.233261
544 2 0.108097 0.258703 0.239384
279 4 0.237926 0.215783 0.197273
277 2 0.246596 0.230465 0.178984
396 4 0.0155924 0.259107 0.246489
394 2 0.031403 0.267424 0.228995
395 4 0.0472137 0.275742 0.211502
338 4 0.0704583 0.271391 0.18515
363 4 0.0658189 0.275523 0.205406
361 2 0.0702492 0.300024 0.203112
362 4 0.0746796 0.324525 0.200819
545 4 0.132335 0.259132 0.245507
372 4 0.0924614 0.333468 0.194309
733 2 0.152472 0.327917 0.241482
612 4 0.211567 0.30031 0.170956
611 4 0.227447 0.317851 0.215011
610 2 0.219507 0.309081 0.192984
344 4 0.225835 0.311778 0.235596
343 2 0.20456 0.309297 0.248495
285 4 0.309957 0.287934 0.167733
729 4 0.310997 0.305352 0.176493
727 2 0.294505 0.319718 0.18861
308 4 0.324595 0.291321 0.175016
728 4 0.278012 0.334083 0.200727
496 2 0.339967 0.306761 0.24888
498 4 0.341688 0.298174 0.22546
307 2 0.3397 0.289502 0.194858
309 4 0.354806 0.287682 0.2147
749 4 0.0635217 0.337747 0.208753
648 4 0.0751348 0.340828 0.191728
748 2 0.0704738 0.349178 0.229876
646 2 0.0675106 0.342789 0.167996
370 2 0.11564 0.337392 0.202827
371 4 0.138818 0.341316 0.211345
734 4 0.139244 0.345596 0.22975
417 4 0.145568 0.358389 0.220315
299 4 0.139871 0.365463 0.236826
415 2 0.155505 0.378581 0.20942
298 2 0.117231 0.367813 0.247176
416 4 0.165442 0.398773 0.198524
289 2 0.198822 0.414138 0.182844
291 4 0.184633 0.398995 0.196791
445 2 0.391707 0.37161 0.228403
447 4 0.415974 0.373738 0.22277
446 4 0.367439 0.369481 0.234037
644 4 0.43539 0.373941 0.227729
595 2 0.494313 0.384652 0.167043
643 2 0.451819 0.376898 0.209114
645 4 0.468248 0.379854 0.190498
597 4 0.476245 0.394588 0.181185
290 4 0.213011 0.429282 0.168897
412 2 0.234333 0.481768 0.244009
414 4 0.232829 0.485325 0.219305
229 2 0.448544 0.479493 0.215976
231 4 0.463675 0.459654 0.217602
230 4 0.433413 0.499332 0.214351
234 4 0.0209215 0.0550571 0.288756
232 2 0.0383357 0.0381139 0.29466
233 4 0.0557499 0.0211707 0.300563
317 4 0.0697616 0.0173212 0.314813
1404 4 0.0637452 0.00366837 0.303137
428 4 0.0673347 0.997772 0.320576
316 2 0.0800547 0.0349189 0.329289
2756 4 0.0127556 0.065251 0.302925
2478 4 0.00248104 0.0508872 0.29625
2755 2 0.00577351 0.0794768 0.322266
693 4 0.317046 0.0506142 0.264821
691 2 0.308416 0.0657421 0.282761
24 3 0.318846 0.0403062 0.247864
22 3 0.352894 0.0561219 0.24605
21 1 0.341629 0.0364578 0.249997
23 3 0.346462 0.0292322 0.271511
257 4 0.424277 0.0723174 0.322935
479 4 0.456619 0.0402935 0.273378
478 2 0.445658 0.0409562 0.250915
2664 4 0.471853 0.0295198 0.275608
1428 4 0.452438 0.0260213 0.281285
258 4 0.449364 0.0442593 0.290009
2662 2 0.493981 0.0349926 0.285883
256 2 0.43682 0.0582884 0.306472
1426 2 0.447397 0.00396082 0.29192
403 2 0.229772 0.152848 0.322763
404 4 0.246353 0.135676 0.330205
692 4 0.299785 0.08087 0.300701
721 2 0.2678 0.103065 0.31003
723 4 0.280127 0.0852324 0.297572
722 4 0.255473 0.120898 0.322488
29 3 0.370656 0.131037 0.257044
631 2 0.36878 0.09034 0.25488
707 4 0.362656 0.124633 0.273819
633 4 0.371309 0.113 0.265142
706 2 0.358787 0.134349 0.296531
708 4 0.354919 0.144065 0.319243
321 4 0.360497 0.159597 0.329971
600 4 0.121956 0.218218 0.327115
402 4 0.144939 0.251284 0.258809
405 4 0.213192 0.170021 0.315322
473 4 0.201879 0.175237 0.330964
269 4 0.41864 0.223357 0.319748
444 4 0.998631 0.253202 0.313141
442 2 0.00713674 0.255351 0.289727
443 4 0.0156425 0.257501 0.266313
400 2 0.158888 0.271964 0.2571
735 4 0.1657 0.310238 0.253215
401 4 0.172837 0.292645 0.255392
676 2 0.172346 0.312354 0.294365
677 4 0.16701 0.304775 0.271143
345 4 0.183284 0.306816 0.261394
678 4 0.177681 0.319932 0.317588
378 4 0.272188 0.319138 0.282068
376 2 0.297156 0.319523 0.283351
377 4 0.322124 0.319907 0.284633
615 4 0.330131 0.329285 0.301807
497 4 0.338247 0.315348 0.2723
543 4 0.336914 0.314636 0.291337
418 2 0.393371 0.255714 0.325884
541 2 0.356623 0.304606 0.303005
542 4 0.376333 0.294577 0.314673
420 4 0.381517 0.277216 0.321158
750 4 0.0774259 0.360609 0.250999
364 2 0.00595947 0.403885 0.29133
601 2 0.0522009 0.41658 0.311913
603 4 0.0406329 0.418672 0.289845
300 4 0.0945918 0.370163 0.257525
510 4 0.192257 0.335237 0.318668
508 2 0.207511 0.355048 0.318577
509 4 0.222766 0.374859 0.318485
434 4 0.321893 0.382781 0.311796
433 2 0.307009 0.402638 0.314849
613 2 0.331054 0.35134 0.313549
614 4 0.331976 0.373395 0.325291
2 3 0.274556 0.413487 0.319685
365 4 0.0212984 0.423092 0.286748
1757 4 0.0106993 0.435159 0.275789
1756 2 0.0294877 0.450891 0.270823
1758 4 0.0482762 0.466623 0.265856
1775 4 0.0678097 0.46696 0.27118
775 2 0.0531207 0.482554 0.305695
777 4 0.0545311 0.475771 0.281671
776 4 0.0517103 0.489337 0.32972
1776 4 0.113914 0.447739 0.268801
1774 2 0.090862 0.45735 0.26999
413 4 0.235837 0.478211 0.268712
4 3 0.242334 0.428904 0.307989
1436 4 0.246532 0.490185 0.279985
1435 2 0.249879 0.469667 0.293878
1437 4 0.253225 0.44915 0.307771
3 3 0.267892 0.449778 0.326844
1 1 0.258195 0.428785 0.324925
436 2 0.30129 0.45671 0.318148
438 4 0.28493 0.438064 0.321292
435 4 0.292124 0.422496 0.317901
437 4 0.317649 0.475355 0.315004
1802 4 0.334183 0.479516 0.303933
1801 2 0.350668 0.484542 0.322048
1803 4 0.367154 0.489567 0.340163
119 3 0.479659 0.4568 0.332467
399 4 0.0788898 0.0602264 0.356789
318 4 0.0903478 0.0525166 0.343765
732 4 0.0923542 0.0718652 0.349005
730 2 0.11673 0.0666896 0.351055
731 4 0.141106 0.0615141 0.353106
606 4 0.157943 0.0614857 0.342163
604 2 0.177372 0.0754285 0.349463
1701 4 0.37017 0.00493294 0.396086
699 4 0.374241 0.0659804 0.365629
1699 2 0.372016 0.0259219 0.382624
1700 4 0.373862 0.0469109 0.369162
697 2 0.394737 0.0639795 0.351449
962 4 0.341016 0.00479522 0.413352
698 4 0.415234 0.0619786 0.33727
397 2 0.0650828 0.0808691 0.35969
398 4 0.0512757 0.101512 0.362592
2584 2 0.0231443 0.11642 0.35946
2586 4 0.0451143 0.119694 0.370939
458 4 0.0422404 0.12302 0.391055
457 2 0.0446135 0.143749 0.404834
2757 4 0.998791 0.0937025 0.341607
605 4 0.196801 0.0893714 0.356763
249 4 0.2449 0.117849 0.338722
248 4 0.215744 0.085946 0.363877
247 2 0.230322 0.101898 0.3513
683 4 0.261215 0.128465 0.340332
682 2 0.280532 0.143778 0.344521
684 4 0.299849 0.159091 0.34871
319 2 0.337408 0.166344 0.336792
726 4 0.391416 0.135274 0.391145
717 4 0.376709 0.165534 0.341596
715 2 0.385928 0.158639 0.363791
716 4 0.395147 0.151743 0.385987
467 4 0.397956 0.151945 0.404343
724 2 0.397966 0.113847 0.402243
642 4 0.503443 0.122172 0.38471
641 4 0.49412 0.159944 0.353292
640 2 0.498781 0.141058 0.369001
598 2 0.125466 0.219153 0.351853
599 4 0.128976 0.220088 0.376592
686 4 0.129887 0.228053 0.394236
685 2 0.110069 0.225147 0.409203
275 4 0.145055 0.227156 0.386423
389 4 0.138685 0.245558 0.39182
274 2 0.169608 0.222433 0.386276
474 4 0.193851 0.207335 0.368461
472 2 0.197865 0.191286 0.349713
276 4 0.194161 0.217709 0.386129
320 4 0.314318 0.173091 0.343613
419 4 0.405225 0.234212 0.330609
268 2 0.439632 0.225197 0.333206
270 4 0.460624 0.227037 0.346665
452 4 0.472935 0.221574 0.362048
451 2 0.475798 0.220702 0.386872
453 4 0.47866 0.219831 0.411696
2802 4 0.999121 0.289435 0.406302
347 4 0.062314 0.310512 0.392484
346 2 0.0382045 0.306269 0.397574
618 4 0.0691288 0.299861 0.376873
348 4 0.014095 0.302026 0.402664
616 2 0.0938392 0.303076 0.374815
373 2 0.155335 0.309548 0.350309
388 2 0.136152 0.269476 0.384986
390 4 0.13362 0.293393 0.378153
617 4 0.11855 0.306292 0.372756
374 4 0.134525 0.304302 0.36314
375 4 0.176144 0.314794 0.337478
488 4 0.39107 0.263356 0.384226
487 2 0.38654 0.2561 0.40772
602 4 0.0637689 0.414487 0.33398
549 4 0.0508584 0.409573 0.347608
10 3 0.140348 0.345269 0.407106
335 4 0.322498 0.381489 0.408639
240 4 0.317076 0.382036 0.389361
238 2 0.335929 0.387047 0.37372
239 4 0.354782 0.392059 0.35808
587 4 0.356474 0.411876 0.358339
752 4 0.463655 0.38445 0.389788
561 4 0.446482 0.375231 0.39428
751 2 0.470625 0.40467 0.376837
559 2 0.456684 0.366173 0.415233
547 2 0.0611111 0.418151 0.368738
500 4 0.0671145 0.485607 0.341495
499 2 0.0686763 0.471686 0.362206
501 4 0.0702382 0.457765 0.382917
407 4 0.0771515 0.445824 0.397578
548 4 0.0713637 0.42673 0.389868
406 2 0.0942589 0.455938 0.412751
1556 4 0.224869 0.502322 0.381253
1555 2 0.234896 0.486962 0.398244
5 3 0.248456 0.422892 0.34465
1557 4 0.244922 0.471602 0.415236
593 4 0.376264 0.474119 0.346525
588 4 0.381115 0.455363 0.356775
586 2 0.368794 0.433619 0.357557
592 2 0.395933 0.488909 0.350953
2862 4 0.495528 0.469228 0.343144
116 1 0.488941 0.445565 0.350523
713 4 0.434592 0.498048 0.350846
712 2 0.453101 0.481245 0.350331
714 4 0.47161 0.464443 0.349816
753 4 0.477594 0.42489 0.363885
117 3 0.475203 0.448204 0.368784
118 3 0.490743 0.42294 0.345699
718 2 0.0202707 0.00307755 0.463689
369 4 0.0593553 0.0216723 0.459301
367 2 0.0792499 0.0127709 0.447047
719 4 0.0443723 0.00917599 0.466354
1781 4 0.114185 0.00176448 0.44533
368 4 0.0991445 0.00386954 0.434794
340 2 0.214627 0.0324019 0.499204
341 4 0.20941 0.00795529 0.498637
963 4 0.319269 0.0446696 0.434277
432 4 0.313886 0.0602034 0.445496
430 2 0.321278 0.0613719 0.469353
431 4 0.328671 0.0625403 0.49321
961 2 0.330142 0.0247324 0.423815
725 4 0.404515 0.0924203 0.413341
2656 2 0.495991 0.125888 0.427312
3489 4 0.494678 0.115235 0.465032
2657 4 0.486091 0.125189 0.450262
576 4 0.419424 0.145104 0.48605
459 4 0.0469866 0.164478 0.418614
260 4 0.0462482 0.18437 0.419481
259 2 0.0588317 0.205731 0.422725
261 4 0.0714151 0.227093 0.425968
687 4 0.0902508 0.222242 0.424169
1035 4 0.0825148 0.2294 0.441642
1033 2 0.0908719 0.249107 0.454564
409 2 0.39609 0.217391 0.448474
411 4 0.380145 0.236387 0.445295
466 2 0.406141 0.168022 0.421656
410 4 0.412035 0.198395 0.451653
468 4 0.414326 0.184099 0.438968
574 2 0.418762 0.168547 0.477381
515 4 0.46893 0.213733 0.429547
575 4 0.418099 0.19199 0.468712
516 4 0.42815 0.193373 0.450118
514 2 0.44854 0.203553 0.439833
1034 4 0.0992291 0.268814 0.467486
696 4 0.104 0.277462 0.484512
1260 4 0.115969 0.278819 0.469305
1258 2 0.11994 0.302329 0.461773
1259 4 0.12391 0.325838 0.454241
9 3 0.159409 0.31693 0.422958
266 4 0.379474 0.254561 0.450186
489 4 0.382009 0.248843 0.431215
265 2 0.376229 0.266754 0.471773
267 4 0.372983 0.278946 0.493359
2457 4 0.488415 0.272085 0.495309
326 4 0.074442 0.35827 0.434471
503 4 0.128491 0.338259 0.462417
7 3 0.134461 0.336695 0.442949
6 1 0.150257 0.337993 0.426277
327 4 0.121111 0.344143 0.445567
325 2 0.0977767 0.351207 0.440019
709 2 0.145311 0.402723 0.496403
502 2 0.142422 0.348967 0.480206
710 4 0.151189 0.378585 0.499229
504 4 0.156353 0.359675 0.497994
8 3 0.166816 0.352891 0.432777
334 2 0.312282 0.38409 0.431311
336 4 0.302066 0.386691 0.453984
668 4 0.299567 0.399398 0.467892
882 4 0.316504 0.38953 0.467162
880 2 0.330588 0.39113 0.487759
2508 4 0.484954 0.359154 0.445433
3308 4 0.455854 0.337931 0.489349
3309 4 0.475931 0.342581 0.443786
560 4 0.466885 0.357115 0.436187
3307 2 0.465892 0.340256 0.466567
1381 2 0.00223217 0.498558 0.457696
568 2 0.137541 0.487625 0.42332
711 4 0.139434 0.426861 0.493578
408 4 0.111366 0.466051 0.427924
383 4 0.118103 0.450793 0.437666
384 4 0.1422 0.441401 0.480466
569 4 0.130168 0.465486 0.432303
382 2 0.130151 0.446097 0.459066
634 2 0.266905 0.475295 0.442211
667 2 0.292591 0.423287 0.465474
772 2 0.306986 0.474162 0.482909
774 4 0.287188 0.459743 0.477879
669 4 0.285615 0.447175 0.463056
636 4 0.257241 0.486908 0.422288
635 4 0.27657 0.463682 0.462133
773 4 0.326784 0.488581 0.487938
663 4 0.466076 0.480609 0.481993
1152 4 0.226964 0.0688997 0.515246
1150 2 0.240106 0.0718879 0.536306
1032 4 0.246572 0.0761631 0.575789
342 4 0.219844 0.0568485 0.499772
1151 4 0.253249 0.0748761 0.557366
841 2 0.364349 0.0653067 0.509814
843 4 0.339376 0.0644233 0.508973
1217 4 0.398724 0.0663573 0.529572
842 4 0.389323 0.06619 0.510655
1216 2 0.423372 0.0647068 0.525704
1218 4 0.448019 0.0630562 0.521837
1058 4 0.0897571 0.095091 0.522157
1270 2 0.0843231 0.151765 0.572472
1271 4 0.0966488 0.130202 0.575359
1057 2 0.0947754 0.103093 0.545308
1059 4 0.0997937 0.111095 0.568459
1155 4 0.112136 0.12458 0.572227
939 4 0.0998209 0.115783 0.586653
1153 2 0.135714 0.125955 0.580436
1181 4 0.242638 0.0899916 0.563468
1180 2 0.235333 0.110943 0.574993
898 2 0.24531 0.162399 0.562407
900 4 0.234761 0.148638 0.580421
1221 4 0.1664 0.145538 0.581961
1199 4 0.0289757 0.202605 0.55791
877 2 0.0633771 0.1995 0.556647
1272 4 0.0719975 0.173327 0.569585
878 4 0.0442339 0.215355 0.559357
1198 2 0.00764341 0.213132 0.550209
879 4 0.0825204 0.183646 0.553938
1244 4 0.0400252 0.224466 0.577398
1243 2 0.0438178 0.249161 0.578358
695 4 0.11258 0.256554 0.529122
651 4 0.208373 0.224174 0.532567
858 4 0.204503 0.238134 0.518443
649 2 0.226233 0.206699 0.533482
650 4 0.244093 0.189225 0.534398
899 4 0.255858 0.176161 0.544392
984 4 0.00233198 0.309714 0.570104
982 2 0.0233948 0.300508 0.579941
1245 4 0.0476104 0.273857 0.579318
694 2 0.10829 0.267008 0.506817
948 4 0.153232 0.293878 0.589944
856 2 0.191479 0.248177 0.537276
946 2 0.171317 0.2788 0.581531
857 4 0.178454 0.258219 0.556109
947 4 0.189402 0.263722 0.573118
798 4 0.203044 0.271981 0.582939
796 2 0.22623 0.278963 0.57671
797 4 0.249417 0.285945 0.570481
790 2 0.270484 0.31508 0.577296
791 4 0.267573 0.290337 0.579416
872 4 0.376472 0.300601 0.569895
954 4 0.48755 0.282412 0.56087
952 2 0.490348 0.29963 0.578784
1011 4 0.457065 0.318822 0.491801
1009 2 0.470217 0.300188 0.502046
1010 4 0.483369 0.281553 0.512291
3263 4 0.0460168 0.334987 0.568371
3262 2 0.0513332 0.355171 0.582139
936 4 0.000211071 0.354575 0.518157
1189 2 0.253166 0.3696 0.57757
804 4 0.272677 0.364398 0.502469
803 4 0.278576 0.358378 0.55176
802 2 0.275627 0.361388 0.527114
1190 4 0.273535 0.35743 0.569684
1238 4 0.287883 0.349261 0.565415
1237 2 0.311146 0.356338 0.57124
792 4 0.273394 0.339823 0.575175
1239 4 0.334409 0.363415 0.577065
930 4 0.347346 0.369082 0.563069
929 4 0.360638 0.386714 0.518201
928 2 0.353992 0.377898 0.540635
881 4 0.344673 0.392731 0.508356
539 4 0.0762966 0.439369 0.583868
1082 4 0.0592381 0.0685391 0.660139
1030 2 0.256657 0.0568323 0.588027
1031 4 0.266742 0.0375015 0.600266
951 4 0.272438 0.0191222 0.607702
949 2 0.297085 0.0169267 0.604109
950 4 0.321731 0.0147312 0.600515
1226 4 0.275499 0.0770231 0.656796
1148 4 0.257346 0.0676876 0.657868
1147 2 0.261844 0.0436321 0.662994
3008 4 0.496514 0.0328989 0.596205
809 4 0.480834 0.0264883 0.607802
808 2 0.478028 0.0392891 0.629096
810 4 0.475222 0.0520898 0.65039
45 3 0.473019 0.0740492 0.643915
41 1 0.465791 0.0730908 0.66549
1081 2 0.0540193 0.0807279 0.63894
1126 2 0.0238794 0.082613 0.59299
1128 4 0.000112591 0.0807619 0.585448
1083 4 0.0488005 0.0929166 0.617742
1127 4 0.0476463 0.0844641 0.600533
938 4 0.0654122 0.086288 0.607791
937 2 0.0826166 0.101036 0.597222
1154 4 0.159291 0.127329 0.588646
1283 4 0.148439 0.0909059 0.667195
1219 2 0.191355 0.146232 0.583367
1220 4 0.216309 0.146926 0.584774
1182 4 0.228028 0.131895 0.586519
1210 2 0.239816 0.143522 0.620864
1212 4 0.229389 0.148849 0.598771
908 4 0.238234 0.130016 0.657143
1211 4 0.250243 0.138195 0.642956
1227 4 0.255087 0.122442 0.65219
888 4 0.268223 0.136289 0.651642
886 2 0.286227 0.150677 0.661339
1225 2 0.265293 0.0997325 0.654493
3425 4 0.48601 0.0877931 0.656003
43 3 0.443586 0.0797132 0.666702
887 4 0.304232 0.165064 0.671036
1194 4 0.320776 0.17308 0.665353
1192 2 0.320179 0.190006 0.646959
1193 4 0.319581 0.206932 0.628565
3123 4 0.480272 0.207222 0.634651
3121 2 0.494556 0.225284 0.644394
983 4 0.0444576 0.291301 0.589779
1136 4 0.160185 0.29973 0.607501
1135 2 0.165911 0.321256 0.61886
871 2 0.386548 0.308796 0.59126
873 4 0.396625 0.316992 0.612625
813 4 0.397823 0.315931 0.633506
953 4 0.493146 0.316848 0.596697
3112 2 0.491854 0.277161 0.666717
3114 4 0.474569 0.295164 0.668244
1041 4 0.0674009 0.379549 0.610708
3264 4 0.0566496 0.375354 0.595907
3240 4 0.0499905 0.38979 0.606189
3238 2 0.0275935 0.400393 0.602851
3239 4 0.00519656 0.410996 0.599514
1039 2 0.091268 0.384243 0.616496
1040 4 0.115135 0.388937 0.622284
993 4 0.134241 0.394328 0.624023
991 2 0.151085 0.37659 0.629201
822 4 0.163821 0.343536 0.647096
992 4 0.16793 0.358852 0.634378
820 2 0.149967 0.336469 0.666674
1191 4 0.232798 0.38177 0.585455
1137 4 0.171637 0.342782 0.630219
1064 4 0.18142 0.353925 0.641184
897 4 0.183502 0.355656 0.62175
896 4 0.214266 0.37669 0.588406
895 2 0.198884 0.366173 0.605078
1172 4 0.221906 0.394094 0.594643
1063 2 0.198357 0.355491 0.659511
1171 2 0.227319 0.415773 0.605864
811 2 0.394802 0.340097 0.639166
927 4 0.386696 0.382959 0.645878
812 4 0.39178 0.364264 0.644825
925 2 0.404336 0.397345 0.635532
1206 4 0.37496 0.36763 0.652016
906 4 0.485151 0.332771 0.604439
926 4 0.421976 0.411732 0.625186
2244 4 0.116626 0.487775 0.603072
1160 4 0.124609 0.472468 0.61122
540 4 0.104619 0.473502 0.606965
538 2 0.0904576 0.456435 0.595416
1159 2 0.147387 0.477545 0.620194
1186 2 0.202575 0.464294 0.636893
1173 4 0.232732 0.437452 0.617085
1187 4 0.222269 0.450975 0.629151
1188 4 0.182881 0.477613 0.644635
1161 4 0.170166 0.482621 0.629168
1029 4 0.247519 0.416436 0.674127
1002 4 0.434435 0.425825 0.632594
1911 4 0.436752 0.485241 0.615816
1001 4 0.448788 0.473011 0.624335
1000 2 0.441612 0.449418 0.628464
1269 4 0.448859 0.491015 0.630816
1267 2 0.46111 0.495843 0.652072
944 4 0.0547783 0.0362828 0.671962
943 2 0.0405082 0.0160371 0.675376
1076 4 0.0492935 0.0558327 0.67242
1075 2 0.0595416 0.0641899 0.69364
864 4 0.0603442 0.0698671 0.730666
1077 4 0.0697897 0.0725471 0.714861
1107 4 0.0803068 0.0789437 0.728961
825 4 0.155301 0.0761824 0.677194
823 2 0.161965 0.0521557 0.675328
1105 2 0.102133 0.0785591 0.741154
2133 4 0.176445 0.0167895 0.660431
2256 4 0.171172 0.0103697 0.67947
824 4 0.168629 0.0281289 0.673462
1149 4 0.266342 0.0195767 0.668121
1092 4 0.337729 0.00716224 0.694692
42 3 0.467525 0.0514546 0.673108
1163 4 0.480222 0.064507 0.687381
1162 2 0.492793 0.0534257 0.705937
4581 4 0.500398 0.0206976 0.748571
2321 4 0.499291 0.0406992 0.744154
851 4 0.0749264 0.0905698 0.713039
850 2 0.0731052 0.115507 0.712991
852 4 0.071284 0.140444 0.712944
1282 2 0.164251 0.109889 0.671042
907 2 0.216886 0.123909 0.668638
1284 4 0.180064 0.128871 0.67489
909 4 0.195537 0.117803 0.680133
830 4 0.321935 0.156877 0.676196
829 2 0.335301 0.139408 0.688086
1005 4 0.349775 0.113779 0.71878
1003 2 0.35745 0.0973607 0.736005
831 4 0.348667 0.12194 0.699976
44 3 0.478891 0.0868175 0.678846
3268 2 0.487961 0.13386 0.747153
3270 4 0.490875 0.150289 0.728531
1146 4 0.471651 0.158068 0.724087
1214 4 0.00444884 0.194324 0.738036
1215 4 0.0130277 0.241807 0.724903
1213 2 0.00873825 0.218066 0.73147
1297 2 0.287196 0.21793 0.731998
1298 4 0.306675 0.233599 0.731525
918 4 0.305514 0.251225 0.741902
1299 4 0.267716 0.202261 0.732472
1025 4 0.385974 0.19107 0.704112
1024 2 0.404849 0.194326 0.720184
1020 4 0.383491 0.248563 0.740708
1144 2 0.457723 0.178111 0.729515
1262 4 0.435217 0.212966 0.736803
1026 4 0.423724 0.197582 0.736256
1145 4 0.443796 0.198155 0.734943
1261 2 0.446317 0.234931 0.741221
1073 4 0.0711071 0.266913 0.747832
1178 4 0.0157207 0.260429 0.728336
1177 2 0.0386344 0.269848 0.731716
1179 4 0.0615481 0.279266 0.735097
1072 2 0.0944606 0.265385 0.739031
1208 4 0.130917 0.274498 0.722814
1074 4 0.117814 0.263858 0.73023
1207 2 0.12975 0.296743 0.711458
821 4 0.136113 0.329401 0.686252
1209 4 0.128583 0.318988 0.700101
1130 4 0.135277 0.259356 0.736229
815 4 0.114383 0.329787 0.70664
805 2 0.24494 0.328494 0.685336
977 4 0.320497 0.246155 0.730939
806 4 0.263278 0.311673 0.682899
976 2 0.344524 0.253004 0.731911
978 4 0.368552 0.259854 0.732884
1263 4 0.457416 0.256896 0.745638
892 2 0.0368563 0.349961 0.718403
1280 4 0.0690897 0.370265 0.722363
816 4 0.0744853 0.359934 0.706658
894 4 0.0617213 0.352579 0.718631
893 4 0.0119912 0.347343 0.718176
1279 2 0.070721 0.391413 0.735603
1281 4 0.0723522 0.41256 0.748843
942 4 0.13409 0.333779 0.706753
814 2 0.0944344 0.34486 0.706649
940 2 0.150167 0.346283 0.721257
1078 2 0.171173 0.395451 0.750478
941 4 0.166244 0.358787 0.73576
1080 4 0.174344 0.370737 0.748385
1065 4 0.215294 0.357057 0.677837
807 4 0.226602 0.345315 0.687774
1028 4 0.2192 0.375824 0.681156
1066 2 0.201301 0.363503 0.713918
1068 4 0.21839 0.362246 0.69571
1027 2 0.23336 0.39613 0.677641
1067 4 0.184212 0.36476 0.732127
1204 2 0.365197 0.38217 0.669861
1205 4 0.355434 0.39671 0.687706
1982 4 0.0899348 0.471885 0.751216
1079 4 0.168003 0.420164 0.752571
1174 2 0.17322 0.482581 0.731758
1175 4 0.165795 0.491684 0.709686
2172 4 0.178086 0.493317 0.694607
1140 4 0.242246 0.430556 0.687466
1228 2 0.316864 0.447205 0.683115
1138 2 0.261163 0.445922 0.693053
1139 4 0.280079 0.461288 0.698641
1987 2 0.313588 0.460283 0.738786
1229 4 0.299415 0.460174 0.695465
1989 4 0.303515 0.464119 0.716225
2028 4 0.292995 0.473409 0.703945
1230 4 0.334313 0.434237 0.670765
2026 2 0.283528 0.496289 0.700477
1099 2 0.489382 0.482458 0.699751
862 2 0.0411906 0.0734824 0.746327
2989 2 0.0134175 0.0472804 0.78998
2990 4 0.0206124 0.0685688 0.779015
2991 4 0.00622254 0.025992 0.800944
863 4 0.0220371 0.0770977 0.761987
3083 4 0.0053309 0.0795072 0.770857
1106 4 0.123958 0.0781745 0.753347
2049 4 0.100431 0.00820116 0.789012
1202 4 0.0995054 0.0285515 0.789762
1201 2 0.11318 0.0494841 0.789668
1203 4 0.126855 0.0704167 0.789574
32 3 0.145462 0.0741125 0.798934
1085 4 0.310302 0.0612323 0.801629
960 4 0.31406 0.0648333 0.820485
819 4 0.328405 0.0591896 0.808137
1084 2 0.291551 0.0771643 0.797186
1004 4 0.365126 0.0809427 0.753231
1050 4 0.350945 0.00778712 0.787751
817 2 0.343092 0.0423865 0.796862
818 4 0.357779 0.0255834 0.785588
974 4 0.362032 0.0140817 0.801975
2320 2 0.48769 0.0494703 0.764493
844 2 0.489198 0.0587153 0.826581
845 4 0.480095 0.0571817 0.803344
2322 4 0.476088 0.0582414 0.784831
1112 4 0.476176 0.0744177 0.7977