ITEM: TIMESTEP
350000
ITEM: NUMBER OF ATOMS
4590
ITEM: BOX BOUNDS pp pp pp
-9.9985700000000008e+00 9.9985700000000008e+00
-9.9985700000000008e+00 9.9985700000000008e+00
-9.9985700000000008e+00 9.9985700000000008e+00
ITEM: ATOMS id type xs ys zs
463 2 0.0144974 0.0520215 0.0353135
465 4 0.0261487 0.0736721 0.0307662
464 4 0.00284607 0.030371 0.0398608
1667 4 0.0945279 0.0432604 0.0659596
701 4 0.078073 0.0712686 0.0376035
2184 4 0.0940668 0.0099371 0.0153535
534 4 0.22985 0.054144 0.00860654
490 2 0.288854 0.0317678 0.043107
491 4 0.281319 0.0488005 0.0597893
492 4 0.296388 0.0147351 0.0264248
2264 4 0.285292 0.0128144 0.00880453
296 4 0.355222 0.0691935 0.0807113
557 4 0.367845 0.069707 0.0657871
556 2 0.360992 0.083681 0.0462184
1608 4 0.386197 0.0153714 0.0318034
745 2 0.468042 0.0698175 0.0551078
747 4 0.473175 0.0496371 0.0412662
2975 4 0.468428 0.0323895 0.0322105
2974 2 0.48047 0.0387851 0.011252
589 2 0.0323324 0.0989206 0.0610844
590 4 0.0255196 0.0925481 0.0378862
3233 4 0.0138336 0.137974 0.0147475
3232 2 0.0311716 0.151046 0.00235027
702 4 0.10143 0.0909908 0.0771788
700 2 0.0897515 0.0811297 0.0573911
421 2 0.110669 0.146575 0.0198858
423 4 0.101483 0.126154 0.00875933
565 2 0.203639 0.11761 0.0425599
566 4 0.188929 0.104749 0.0269589
567 4 0.218349 0.13047 0.0581609
358 2 0.28006 0.127325 0.00981409
360 4 0.256454 0.132632 0.0161182
558 4 0.354138 0.097655 0.0266497
746 4 0.462909 0.0899978 0.0689493
770 4 0.463329 0.16143 0.0525674
553 2 0.0533059 0.242377 0.0297292
555 4 0.056936 0.224368 0.0127688
422 4 0.119855 0.166995 0.0310122
664 2 0.34063 0.252335 0.00646928
324 4 0.408214 0.218525 0.0758372
322 2 0.411145 0.240973 0.0864518
1071 4 0.376299 0.265824 0.0285875
771 4 0.441794 0.203895 0.0678523
769 2 0.452562 0.182663 0.0602098
554 4 0.0496757 0.260387 0.0466895
292 2 0.12901 0.30713 0.0219179
294 4 0.124956 0.324101 0.00400873
293 4 0.133063 0.290159 0.0398271
507 4 0.1516 0.297616 0.0488249
506 4 0.186014 0.268923 0.0710312
483 4 0.236911 0.288111 0.083448
505 2 0.168807 0.283269 0.059928
666 4 0.326338 0.269731 0.017347
481 2 0.257437 0.299384 0.0746834
571 2 0.301359 0.262797 0.0481934
573 4 0.292408 0.266226 0.0712869
482 4 0.277962 0.310656 0.0659188
572 4 0.31031 0.259369 0.0250999
1069 2 0.394965 0.273702 0.0139347
956 4 0.367808 0.316704 0.0228336
955 2 0.356293 0.324177 0.00193594
1070 4 0.41363 0.28158 0.999282
330 4 0.0408331 0.406265 0.0282545
328 2 0.0181686 0.402777 0.0182881
551 4 0.0500973 0.421487 0.0197526
286 2 0.16786 0.372894 0.00388036
287 4 0.15604 0.35115 0.000324906
252 4 0.300239 0.406006 0.0556319
250 2 0.288595 0.405884 0.0335059
251 4 0.27695 0.405761 0.0113798
608 4 0.298536 0.406936 0.0758838
281 4 0.458707 0.343845 0.0411072
671 4 0.444698 0.350656 0.0546677
280 2 0.470068 0.342327 0.0188857
670 2 0.434316 0.347384 0.0771775
550 2 0.0739501 0.427982 0.0234996
1786 2 0.0757379 0.486239 0.0821248
1787 4 0.0775964 0.461351 0.0836425
314 4 0.0204525 0.448184 0.0735271
313 2 0.999373 0.43637 0.079951
552 4 0.0978028 0.434477 0.0272466
242 4 0.154491 0.481691 0.0745027
245 4 0.232565 0.426116 0.0157361
244 2 0.248743 0.442103 0.0261232
246 4 0.264921 0.458089 0.0365103
272 4 0.274889 0.468943 0.0224689
271 2 0.296653 0.481251 0.0225287
273 4 0.318418 0.493559 0.0225884
524 4 0.350799 0.470676 0.0631875
523 2 0.337755 0.479102 0.0827844
562 2 0.462381 0.503602 0.0257661
564 4 0.461684 0.512509 0.0491189
1666 2 0.0830179 0.0346648 0.0864246
20 3 0.0812658 0.0617862 0.156772
1668 4 0.0715079 0.0260691 0.106889
450 4 0.139104 0.0692017 0.146496
448 2 0.158401 0.0838983 0.152563
652 2 0.309292 0.0448072 0.133996
653 4 0.298665 0.0657047 0.125305
654 4 0.31992 0.0239098 0.142687
295 2 0.356984 0.0490247 0.0953842
485 4 0.3631 0.0136157 0.122769
297 4 0.358747 0.028856 0.110057
758 4 0.405486 0.048102 0.14933
1760 4 0.493484 0.0226723 0.152948
1759 2 0.470103 0.0202338 0.144431
591 4 0.0391452 0.105293 0.0842826
237 4 0.18705 0.152543 0.144234
449 4 0.177698 0.0985949 0.158631
235 2 0.191166 0.129707 0.153546
236 4 0.195283 0.10687 0.162858
582 4 0.295171 0.0918057 0.165156
254 4 0.404937 0.156556 0.110329
630 4 0.415502 0.174048 0.108625
312 4 0.435218 0.105678 0.162722
628 2 0.438261 0.169674 0.118011
339 4 0.0812982 0.23561 0.119484
476 4 0.116431 0.174207 0.0908674
475 2 0.100328 0.167918 0.108932
477 4 0.0842249 0.16163 0.126996
337 2 0.0911811 0.238378 0.142285
737 4 0.194673 0.165272 0.130597
736 2 0.19493 0.190274 0.130587
738 4 0.195187 0.215277 0.130577
354 4 0.257465 0.219397 0.102137
352 2 0.2667 0.240058 0.112767
285 4 0.268363 0.1946 0.146636
461 4 0.326002 0.218742 0.0825747
460 2 0.344591 0.205589 0.0929023
255 4 0.372336 0.185713 0.0860844
462 4 0.363179 0.192437 0.10323
253 2 0.388636 0.171135 0.0982065
629 4 0.461019 0.165301 0.127398
517 2 0.503036 0.254057 0.0998986
518 4 0.482087 0.240649 0.0973342
620 4 0.00967311 0.332467 0.120689
705 4 0.00680996 0.312509 0.122618
703 2 0.00244991 0.301829 0.144802
537 4 0.204469 0.308376 0.11946
535 2 0.198772 0.31795 0.141844
536 4 0.193075 0.327523 0.164228
741 4 0.332691 0.310538 0.0939374
353 4 0.275936 0.26072 0.123397
754 2 0.291038 0.292442 0.125604
755 4 0.292856 0.26851 0.118595
756 4 0.289219 0.316374 0.132612
612 4 0.283875 0.328701 0.147237
622 2 0.394657 0.260766 0.154044
623 4 0.397555 0.285049 0.159253
323 4 0.414076 0.263421 0.0970663
527 4 0.485638 0.294288 0.159451
621 4 0.0286117 0.378432 0.115277
619 2 0.0191424 0.355449 0.117983
647 4 0.0491022 0.379159 0.166067
454 2 0.114675 0.365976 0.0934867
455 4 0.0913869 0.35752 0.0968571
456 4 0.137962 0.374431 0.0901163
609 4 0.306804 0.359118 0.0879581
607 2 0.30267 0.383027 0.0819209
610 2 0.294779 0.349534 0.155739
611 4 0.305684 0.370366 0.164241
739 2 0.33471 0.335341 0.0963784
387 4 0.341079 0.401078 0.146514
302 4 0.342978 0.403378 0.165848
740 4 0.33673 0.360143 0.0988194
15 3 0.393564 0.349207 0.144376
385 2 0.338394 0.380667 0.132324
386 4 0.335709 0.360257 0.118133
11 1 0.413639 0.358326 0.138674
672 4 0.423934 0.344112 0.0996872
12 3 0.419994 0.350362 0.11805
14 3 0.411807 0.38143 0.137554
13 3 0.429746 0.352404 0.154291
495 4 0.426198 0.387399 0.126378
493 2 0.435469 0.408717 0.117171
597 4 0.477106 0.401751 0.160181
1467 4 0.0103819 0.516721 0.144304
1439 4 0.240905 0.505439 0.107379
625 2 0.239018 0.430353 0.112991
627 4 0.222281 0.446764 0.10429
626 4 0.255756 0.413943 0.121693
639 4 0.242813 0.487418 0.11667
637 2 0.256242 0.490445 0.137543
638 4 0.269672 0.493472 0.158415
525 4 0.32471 0.487527 0.102381
658 2 0.377741 0.464251 0.159732
660 4 0.390988 0.463038 0.138561
659 4 0.364494 0.465464 0.180903
494 4 0.44474 0.430035 0.107963
19 3 0.0530248 0.0463958 0.176348
2480 4 0.998569 0.0250483 0.174433
16 1 0.0714899 0.0604153 0.177295
17 3 0.0645915 0.0813686 0.183816
2479 2 0.998732 0.0490172 0.181549
2481 4 0.998894 0.0729862 0.188666
18 3 0.0867524 0.0523755 0.192814
673 2 0.132411 0.038772 0.211412
674 4 0.146739 0.0556235 0.199754
675 4 0.118083 0.0219205 0.223071
1505 4 0.213996 0.0359244 0.190941
1504 2 0.236909 0.0259168 0.190963
689 4 0.205905 0.0364378 0.208314
688 2 0.190137 0.0246346 0.223717
692 4 0.208966 0.0533578 0.197616
690 4 0.17437 0.0128313 0.23912
691 2 0.199097 0.0726035 0.185071
1506 4 0.259823 0.0159093 0.190984
21 1 0.386928 0.040976 0.229879
23 3 0.402773 0.0243312 0.226671
24 3 0.365593 0.0321678 0.2275
25 3 0.390129 0.0577581 0.21482
759 4 0.388806 0.059105 0.195172
22 3 0.389173 0.0493755 0.251176
757 2 0.397146 0.0536035 0.172251
742 2 0.445507 0.0593151 0.222526
744 4 0.452357 0.05581 0.198736
743 4 0.438656 0.0628202 0.246316
379 2 0.00852006 0.149884 0.182849
381 4 0.0233035 0.16486 0.196353
511 2 0.042867 0.155558 0.232484
512 4 0.0281191 0.15472 0.212311
579 4 0.100086 0.103022 0.248287
577 2 0.0924271 0.118069 0.229845
578 4 0.0847686 0.133116 0.211403
546 4 0.168642 0.148913 0.235568
693 4 0.189229 0.0918493 0.172525
723 4 0.214667 0.112942 0.215091
721 2 0.196109 0.122595 0.228788
722 4 0.177551 0.132248 0.242485
580 2 0.293175 0.111869 0.179943
581 4 0.291179 0.131932 0.19473
30 3 0.291172 0.135397 0.214714
26 1 0.30521 0.130538 0.231976
28 3 0.293091 0.122256 0.249946
27 3 0.320311 0.114565 0.225196
29 3 0.316808 0.149597 0.238353
310 2 0.434389 0.111543 0.187014
311 4 0.43356 0.117409 0.211306
333 4 0.430336 0.152196 0.234024
395 4 0.0274196 0.242719 0.214103
394 2 0.0117365 0.247702 0.232928
338 4 0.101064 0.241145 0.165085
363 4 0.122083 0.240291 0.164703
749 4 0.0977758 0.25177 0.263533
284 4 0.257255 0.231908 0.178027
283 2 0.262809 0.213254 0.162331
624 4 0.391759 0.236484 0.148835
764 4 0.373695 0.220056 0.221909
763 2 0.394832 0.23341 0.221622
521 4 0.450101 0.221392 0.225964
520 2 0.468567 0.220005 0.242765
748 2 0.081466 0.27072 0.263294
361 2 0.127665 0.247342 0.188033
362 4 0.133247 0.254393 0.211364
372 4 0.147294 0.266318 0.203373
300 4 0.115656 0.334937 0.216746
277 2 0.237706 0.283105 0.172372
370 2 0.166603 0.275704 0.216189
371 4 0.185912 0.28509 0.229005
279 4 0.214434 0.276721 0.178915
344 4 0.245371 0.274132 0.230055
278 4 0.260979 0.289488 0.165828
343 2 0.255818 0.271649 0.252635
307 2 0.319627 0.267653 0.23029
309 4 0.320121 0.253391 0.209759
765 4 0.41597 0.246763 0.221335
528 4 0.454161 0.258808 0.175295
526 2 0.4699 0.276548 0.167373
646 2 0.0673715 0.362945 0.171408
648 4 0.0856408 0.346732 0.17675
298 2 0.131748 0.346896 0.231686
290 4 0.236802 0.395284 0.1994
303 4 0.323366 0.400463 0.211756
301 2 0.333172 0.401921 0.188802
729 4 0.322855 0.392433 0.229803
645 4 0.469579 0.386545 0.170991
595 2 0.50135 0.400865 0.166236
643 2 0.459979 0.373043 0.189719
644 4 0.45038 0.359541 0.208447
447 4 0.449643 0.359106 0.22764
445 2 0.456643 0.373973 0.246486
263 4 0.0744783 0.433686 0.235654
262 2 0.0621539 0.454907 0.230863
264 4 0.0498296 0.476128 0.226072
417 4 0.14803 0.441586 0.171018
415 2 0.169941 0.439782 0.182927
416 4 0.191853 0.437979 0.194835
291 4 0.211311 0.43829 0.198175
289 2 0.224057 0.416787 0.198788
768 4 0.249757 0.461307 0.217272
766 2 0.257864 0.473337 0.196906
767 4 0.26597 0.485367 0.176541
229 2 0.417186 0.499845 0.214787
231 4 0.411511 0.491282 0.191991
232 2 0.0263996 0.0559683 0.299571
233 4 0.0426785 0.0406198 0.288409
1402 2 0.0619268 0.0164818 0.261057
1403 4 0.0571609 0.0354826 0.276595
234 4 0.0101207 0.0713168 0.310733
1464 4 0.133592 0.0042581 0.286239
731 4 0.133697 0.0724308 0.309037
1701 4 0.257958 0.0195285 0.341168
248 4 0.2382 0.0847308 0.295838
1699 2 0.263944 0.0155526 0.31722
1700 4 0.269929 0.0115768 0.293271
257 4 0.390855 0.0483061 0.334596
478 2 0.48387 0.0330854 0.327715
480 4 0.48545 0.0357967 0.302909
351 4 0.43015 0.064059 0.28309
349 2 0.444059 0.0822233 0.293178
513 4 0.057615 0.156396 0.252658
529 2 0.998896 0.13241 0.286325
530 4 0.0103766 0.14392 0.305322
398 4 0.0362251 0.114371 0.31766
397 2 0.0575193 0.126222 0.312068
318 4 0.0397497 0.103833 0.33413
544 2 0.162626 0.16459 0.254094
399 4 0.0788135 0.138074 0.306475
599 4 0.153509 0.154392 0.3176
249 4 0.232197 0.134374 0.296277
247 2 0.235199 0.109553 0.296057
403 2 0.229146 0.172505 0.300151
600 4 0.171773 0.109211 0.306385
404 4 0.241527 0.150979 0.30307
598 2 0.162641 0.131802 0.311992
632 4 0.373111 0.117672 0.322129
631 2 0.394313 0.104889 0.318635
633 4 0.415516 0.0921053 0.315141
331 2 0.445744 0.16302 0.250474
332 4 0.461153 0.173844 0.266923
350 4 0.457968 0.100388 0.303266
762 4 0.458907 0.169483 0.286834
396 4 0.996053 0.252686 0.251753
443 4 0.00292102 0.239592 0.265098
388 2 0.0594017 0.242494 0.329891
392 4 0.127311 0.185074 0.281455
391 2 0.107599 0.194901 0.29329
393 4 0.0878878 0.204727 0.305125
545 4 0.15661 0.180267 0.27262
405 4 0.216764 0.194031 0.297232
474 4 0.250828 0.176217 0.34174
708 4 0.290903 0.182388 0.31458
706 2 0.315284 0.179511 0.309839
707 4 0.339664 0.176633 0.305098
420 4 0.404025 0.24151 0.318287
717 4 0.359919 0.247518 0.318587
522 4 0.487033 0.218618 0.259566
418 2 0.425571 0.230032 0.32369
760 2 0.463355 0.172556 0.311246
750 4 0.0651562 0.28967 0.263055
389 4 0.0656872 0.26661 0.327874
400 2 0.229869 0.264983 0.305647
402 4 0.241389 0.270383 0.327172
401 4 0.218349 0.259583 0.284122
508 2 0.2378 0.313714 0.332942
510 4 0.240947 0.289222 0.329013
345 4 0.266265 0.269166 0.275215
496 2 0.292335 0.29247 0.29676
497 4 0.310742 0.278996 0.28652
498 4 0.273929 0.305943 0.306999
308 4 0.319132 0.281914 0.250821
543 4 0.408403 0.319301 0.281416
615 4 0.39611 0.321879 0.29761
541 2 0.433329 0.317518 0.280575
542 4 0.458255 0.315735 0.279735
366 4 0.0101264 0.339308 0.283674
364 2 0.0306065 0.351012 0.291966
365 4 0.0510866 0.362716 0.300258
601 2 0.0829732 0.4005 0.274175
299 4 0.14784 0.358856 0.246626
603 4 0.0939057 0.381807 0.286674
734 4 0.16131 0.359867 0.261921
733 2 0.168763 0.360121 0.285787
735 4 0.176216 0.360375 0.309653
677 4 0.176986 0.344488 0.323208
433 2 0.317243 0.385842 0.315489
434 4 0.309895 0.377345 0.293151
727 2 0.318849 0.382111 0.252221
728 4 0.314842 0.371788 0.274639
613 2 0.382868 0.339062 0.310043
446 4 0.463642 0.388839 0.265332
602 4 0.0720407 0.419193 0.261676
549 4 0.0299045 0.441932 0.319898
777 4 0.105902 0.46254 0.277903
775 2 0.106025 0.470896 0.301469
776 4 0.106148 0.479251 0.325034
414 4 0.151562 0.459352 0.286001
412 2 0.170304 0.445754 0.295435
413 4 0.189047 0.432156 0.304868
436 2 0.286727 0.449846 0.288999
437 4 0.271971 0.469934 0.290971
438 4 0.301483 0.429757 0.287027
713 4 0.39712 0.479362 0.305419
712 2 0.416852 0.468579 0.294486
714 4 0.436585 0.457796 0.283553
316 2 0.046085 0.0864861 0.350986
317 4 0.0524202 0.0691396 0.367843
428 4 0.0655753 0.0273303 0.353075
1781 4 0.120232 0.0237788 0.425895
429 4 0.105258 0.00456621 0.332881
427 2 0.0854166 0.0159483 0.342978
1782 4 0.117741 0.0131603 0.377091
1780 2 0.118987 0.0184695 0.401493
606 4 0.178222 0.0535521 0.375498
604 2 0.199104 0.0546856 0.361792
605 4 0.219985 0.055819 0.348085
698 4 0.377991 0.0453924 0.350256
697 2 0.363203 0.0254136 0.352965
699 4 0.348415 0.00543479 0.355674
256 2 0.409507 0.0545053 0.350051
424 2 0.40692 0.0589818 0.406196
479 4 0.482289 0.0303742 0.352521
258 4 0.428159 0.0607046 0.365506
426 4 0.417183 0.0584919 0.383401
732 4 0.151737 0.0880551 0.352982
730 2 0.142717 0.080243 0.331009
685 2 0.152628 0.145685 0.401708
683 4 0.279652 0.0970455 0.348797
682 2 0.279238 0.104275 0.372729
684 4 0.278824 0.111505 0.39666
320 4 0.277915 0.102902 0.414478
516 4 0.410053 0.139565 0.410017
451 2 0.47841 0.158438 0.364903
453 4 0.456448 0.146502 0.365522
514 2 0.424443 0.139178 0.389573
515 4 0.438834 0.138791 0.36913
452 4 0.500372 0.170374 0.364285
390 4 0.0531161 0.218377 0.331908
2653 2 0.0114228 0.230682 0.361492
2654 4 0.0345523 0.22839 0.370708
686 4 0.140468 0.160826 0.385958
275 4 0.190256 0.242149 0.355881
472 2 0.268317 0.19357 0.346005
473 4 0.285806 0.210923 0.35027
488 4 0.311369 0.22303 0.388072
487 2 0.293787 0.225298 0.405705
489 4 0.276205 0.227566 0.423338
419 4 0.447117 0.218554 0.329093
761 4 0.467802 0.175628 0.335658
618 4 0.0742817 0.327227 0.402459
347 4 0.0641893 0.310225 0.400336
346 2 0.0528672 0.300854 0.420564
375 4 0.192422 0.327371 0.388479
509 4 0.234654 0.338205 0.33687
274 2 0.209104 0.252571 0.368582
276 4 0.227951 0.262994 0.381283
373 2 0.198229 0.308664 0.40402
374 4 0.204035 0.289957 0.41956
376 2 0.27137 0.274987 0.35431
377 4 0.293244 0.271589 0.365937
378 4 0.249497 0.278385 0.342683
715 2 0.364769 0.258878 0.340326
716 4 0.36962 0.270239 0.362066
268 2 0.48624 0.250749 0.403604
270 4 0.467103 0.249767 0.419666
616 2 0.0728835 0.344372 0.384313
617 4 0.0714853 0.361517 0.366168
678 4 0.188294 0.32853 0.369232
676 2 0.18264 0.336509 0.34622
503 4 0.268434 0.41249 0.399996
435 4 0.32459 0.39434 0.337827
614 4 0.369625 0.356245 0.322475
336 4 0.399609 0.395944 0.415934
2923 2 0.499643 0.334395 0.351756
561 4 0.475787 0.390228 0.368641
752 4 0.456083 0.386608 0.371989
559 2 0.484024 0.375688 0.387241
751 2 0.439067 0.40457 0.368382
2925 4 0.491182 0.34093 0.374358
753 4 0.422052 0.422532 0.364775
548 4 0.0709836 0.42667 0.343987
547 2 0.0504441 0.434301 0.331943
408 4 0.0842226 0.421246 0.408436
2461 2 0.00607769 0.467596 0.3413
2463 4 0.0253376 0.451981 0.338071
406 2 0.0807672 0.427589 0.384498
407 4 0.0773118 0.433933 0.360561
499 2 0.105204 0.482567 0.368592
500 4 0.100934 0.478702 0.344261
501 4 0.109475 0.486433 0.392923
570 4 0.143702 0.489537 0.418248
5 3 0.303152 0.469273 0.360518
1 1 0.324296 0.467543 0.368801
2 3 0.329998 0.487257 0.379193
4 3 0.32534 0.450314 0.384308
3 3 0.339266 0.463568 0.351523
594 4 0.390827 0.478658 0.348783
592 2 0.407897 0.495698 0.342194
718 2 0.0396495 0.0686962 0.460737
720 4 0.0340808 0.0486587 0.474617
2237 4 0.0421641 0.0450857 0.493358
367 2 0.126424 0.0641729 0.44834
369 4 0.135014 0.0712086 0.470743
368 4 0.117834 0.0571371 0.425938
1181 4 0.258579 0.0549826 0.506449
441 4 0.29041 0.0381298 0.431311
439 2 0.290212 0.0144381 0.42332
425 4 0.396657 0.0594717 0.428991
726 4 0.348674 0.0844126 0.494529
2878 2 0.492996 0.0867999 0.46347
719 4 0.0452181 0.0887338 0.446856
458 4 0.0237972 0.148505 0.417464
457 2 0.00994442 0.167285 0.426441
687 4 0.164789 0.130545 0.417458
321 4 0.275733 0.133917 0.453644
319 2 0.276824 0.118409 0.434061
468 4 0.348661 0.168186 0.454888
724 2 0.357796 0.0889637 0.471698
725 4 0.366918 0.0935148 0.448867
576 4 0.416389 0.167597 0.473617
574 2 0.4154 0.155775 0.451607
575 4 0.414411 0.143952 0.429597
642 4 0.462906 0.102859 0.481251
2880 4 0.480639 0.106366 0.472939
640 2 0.466087 0.11844 0.500546
471 4 0.0019222 0.189174 0.483847
469 2 0.0208768 0.200607 0.47222
470 4 0.0398315 0.212039 0.460592
260 4 0.0934843 0.190636 0.426721
261 4 0.103275 0.18947 0.475746
259 2 0.0983794 0.190053 0.451233
1035 4 0.103361 0.174904 0.488854
695 4 0.109618 0.259568 0.46095
411 4 0.271491 0.202718 0.452258
409 2 0.281114 0.197549 0.47475
410 4 0.290736 0.192379 0.497241
467 4 0.364048 0.202725 0.422161
466 2 0.356355 0.185455 0.438525
305 4 0.456185 0.199554 0.433907
306 4 0.48137 0.232365 0.462011
304 2 0.468777 0.21596 0.447959
348 4 0.0415451 0.291483 0.440792
694 2 0.112333 0.270392 0.483325
326 4 0.0795683 0.334604 0.421772
10 3 0.160428 0.323859 0.472438
650 4 0.25808 0.306514 0.464815
651 4 0.25613 0.280369 0.422232
649 2 0.257105 0.293442 0.443523
266 4 0.32667 0.317792 0.453028
872 4 0.390985 0.257844 0.491326
267 4 0.354598 0.289326 0.422855
265 2 0.340634 0.303559 0.437941
583 2 0.460925 0.281491 0.471716
584 4 0.483643 0.272584 0.466261
585 4 0.438208 0.290398 0.47717
327 4 0.104018 0.335743 0.46538
325 2 0.091793 0.335174 0.443576
7 3 0.134186 0.350396 0.472612
6 1 0.154942 0.344427 0.480531
8 3 0.17048 0.36013 0.473434
711 4 0.181448 0.375991 0.479342
709 2 0.199777 0.37322 0.462562
710 4 0.218105 0.370449 0.445782
774 4 0.217048 0.411656 0.485119
772 2 0.233657 0.406718 0.503146
504 4 0.238423 0.406883 0.439602
812 4 0.324955 0.346394 0.490052
502 2 0.253429 0.409687 0.419799
334 2 0.388151 0.389782 0.437286
238 2 0.396856 0.373258 0.492027
240 4 0.378625 0.383709 0.478479
335 4 0.376692 0.38362 0.458638
560 4 0.49226 0.361149 0.405841
681 4 0.0572213 0.413801 0.45454
383 4 0.0773384 0.413902 0.453415
680 4 0.0323078 0.45388 0.437996
1381 2 0.027414 0.480509 0.468666
1383 4 0.0220552 0.466848 0.448421
679 2 0.0447646 0.433841 0.446268
540 4 0.120153 0.499259 0.503581
568 2 0.138856 0.469342 0.432171
569 4 0.13401 0.449147 0.446094
382 2 0.100333 0.422957 0.449615
384 4 0.123327 0.432013 0.445815
538 2 0.0996052 0.498522 0.489353
635 4 0.209529 0.429931 0.481115
634 2 0.21789 0.451521 0.471675
636 4 0.226251 0.473112 0.462236
667 2 0.312473 0.44344 0.459308
669 4 0.327687 0.458869 0.471785
668 4 0.297259 0.428012 0.44683
586 2 0.405932 0.443106 0.436918
588 4 0.381756 0.44184 0.430665
663 4 0.440591 0.448814 0.480676
587 4 0.430108 0.444373 0.443171
1126 2 0.0464816 0.0695874 0.544582
1127 4 0.0526585 0.0729 0.520581
1128 4 0.0403046 0.0662747 0.568583
2238 4 0.019836 0.00424514 0.51164
2236 2 0.031 0.0246654 0.502499
1058 4 0.138672 0.0554122 0.576101
1057 2 0.146536 0.079079 0.577895
342 4 0.173879 0.0670686 0.51761
340 2 0.18684 0.0465859 0.511474
341 4 0.199801 0.0261032 0.505338
1180 2 0.240906 0.0688168 0.495428
1152 4 0.183887 0.0829581 0.521529
1182 4 0.223234 0.0826509 0.484406
2430 4 0.213469 0.0111159 0.501092
961 2 0.277102 0.033343 0.525412
963 4 0.277191 0.0507989 0.507511
962 4 0.277013 0.015887 0.543313
432 4 0.295564 0.0592666 0.511718
430 2 0.317341 0.0715531 0.511631
1217 4 0.406204 0.056268 0.527044
1216 2 0.4209 0.0398644 0.538882
841 2 0.381215 0.0779423 0.521379
842 4 0.403968 0.0746075 0.531195
1218 4 0.435595 0.0234607 0.55072
1062 4 0.491142 0.00489299 0.54194
938 4 0.101185 0.127194 0.573285
937 2 0.100528 0.11117 0.554102
939 4 0.0998711 0.0951458 0.534919
1059 4 0.1544 0.102746 0.579688
1030 2 0.247289 0.0890196 0.575887
1151 4 0.199997 0.128697 0.509317
1150 2 0.191942 0.105828 0.515423
1032 4 0.266659 0.103533 0.569614
843 4 0.358462 0.081277 0.511562
899 4 0.332228 0.13504 0.545151
898 2 0.330597 0.159743 0.548659
431 4 0.339117 0.0838396 0.511544
641 4 0.469269 0.134021 0.51984
877 2 0.0691667 0.227366 0.575724
878 4 0.0519364 0.244837 0.570921
1199 4 0.0194728 0.183602 0.585157
1034 4 0.110178 0.164317 0.53725
1033 2 0.106769 0.16961 0.513052
857 4 0.256932 0.232571 0.50508
1221 4 0.200426 0.196009 0.568543
856 2 0.258924 0.214869 0.522625
858 4 0.260916 0.197166 0.54017
900 4 0.328967 0.184445 0.552166
871 2 0.397449 0.241045 0.508681
873 4 0.403913 0.224246 0.526036
3159 4 0.48534 0.158193 0.545631
906 4 0.444009 0.247271 0.569473
904 2 0.468119 0.243584 0.563966
905 4 0.492228 0.239896 0.558459
3157 2 0.503104 0.173735 0.537382
983 4 0.0420156 0.327477 0.529804
1258 2 0.149928 0.289001 0.518554
1260 4 0.132462 0.291113 0.500788
696 4 0.115048 0.281216 0.505701
1259 4 0.167395 0.286889 0.536321
811 2 0.315384 0.324645 0.497834
813 4 0.305814 0.302896 0.505617
3065 4 0.503199 0.254205 0.537515
982 2 0.037555 0.328988 0.55436
984 4 0.0330943 0.330498 0.578916
935 4 0.0116336 0.391862 0.505196
934 2 0.995488 0.402751 0.520879
9 3 0.154252 0.343884 0.503718
1189 2 0.205321 0.353385 0.578957
773 4 0.250265 0.401781 0.521172
1190 4 0.217294 0.333869 0.568911
802 2 0.280025 0.36917 0.523903
803 4 0.26342 0.35169 0.530531
804 4 0.296629 0.386649 0.517275
928 2 0.346853 0.396274 0.589038
930 4 0.338369 0.374417 0.597728
239 4 0.415088 0.362807 0.505575
925 2 0.451455 0.406697 0.533014
926 4 0.467049 0.387914 0.538422
927 4 0.435862 0.42548 0.527607
1159 2 0.150112 0.470823 0.586806
2243 4 0.146973 0.483568 0.549683
1161 4 0.157599 0.447065 0.588964
1171 2 0.245325 0.433387 0.581483
1173 4 0.221906 0.43943 0.575141
882 4 0.321632 0.491761 0.518378
889 2 0.323692 0.450666 0.569339
880 2 0.334571 0.474039 0.50639
891 4 0.309279 0.434944 0.582386
890 4 0.338106 0.466389 0.556292
881 4 0.34751 0.456317 0.494403
1952 4 0.349672 0.480638 0.563285
1000 2 0.4166 0.43877 0.57958
1001 4 0.438443 0.435513 0.567855
662 4 0.462377 0.47637 0.516267
661 2 0.451484 0.462592 0.498471
945 4 0.0755945 0.0132461 0.660825
944 4 0.0654412 0.0607056 0.672876
943 2 0.0705178 0.0369759 0.66685
825 4 0.163611 0.0132109 0.664972
1284 4 0.163601 0.0779575 0.639112
1031 4 0.227919 0.0745065 0.58216
949 2 0.240843 0.00232485 0.604783
950 4 0.23036 0.993533 0.583855
951 4 0.251326 0.0111162 0.625712
1005 4 0.358059 0.0687744 0.666569
45 3 0.412977 0.0654523 0.661063
809 4 0.472714 0.074722 0.600116
1083 4 0.0456574 0.120641 0.604709
1082 4 0.0408139 0.104525 0.651799
1081 2 0.0432357 0.112583 0.628254
1076 4 0.0449746 0.0888207 0.664703
1153 2 0.159111 0.141305 0.590336
1155 4 0.159849 0.116472 0.59315
1154 4 0.158372 0.166139 0.587521
1283 4 0.204651 0.100417 0.656754
1282 2 0.184126 0.0891872 0.647933
808 2 0.458132 0.0919971 0.610799
810 4 0.44355 0.109272 0.621482
1026 4 0.465199 0.165664 0.632807
1244 4 0.0372133 0.248661 0.624869
879 4 0.086397 0.209896 0.580527
1272 4 0.101326 0.222882 0.583877
1270 2 0.120698 0.214192 0.597082
1271 4 0.14007 0.205502 0.610288
1210 2 0.222597 0.189063 0.653307
1212 4 0.204353 0.193483 0.63679
1219 2 0.200981 0.191171 0.593068
1220 4 0.201536 0.186334 0.617593
796 2 0.242035 0.229707 0.602801
798 4 0.253972 0.212946 0.617005
797 4 0.230098 0.246468 0.588597
1211 4 0.240841 0.184644 0.669825
791 4 0.298985 0.224647 0.586242
1024 2 0.447007 0.181475 0.639458
1025 4 0.428814 0.197286 0.646108
1243 2 0.0615315 0.254322 0.623544
1245 4 0.0858498 0.259983 0.622219
948 4 0.146666 0.262098 0.630156
946 2 0.170848 0.266558 0.634685
947 4 0.195031 0.271018 0.639214
790 2 0.30897 0.24756 0.585547
792 4 0.318954 0.270473 0.584852
1238 4 0.306929 0.285876 0.590667
1237 2 0.305333 0.310117 0.596584
954 4 0.436694 0.266098 0.571162
952 2 0.437996 0.288852 0.581445
953 4 0.439297 0.311606 0.591727
1039 2 0.0619878 0.412408 0.607001
1041 4 0.0432775 0.398066 0.598669
1137 4 0.115928 0.38043 0.591473
897 4 0.133009 0.385547 0.600726
1136 4 0.0936651 0.33578 0.594856
1135 2 0.104796 0.358105 0.593165
992 4 0.126998 0.40258 0.655845
991 2 0.114065 0.414211 0.637883
895 2 0.156959 0.386751 0.593645
1191 4 0.193348 0.372902 0.589003
896 4 0.180909 0.387955 0.586565
1239 4 0.303737 0.334358 0.602502
806 4 0.327143 0.357706 0.664401
1029 4 0.255923 0.397615 0.666195
929 4 0.355336 0.41813 0.580348
1204 2 0.382888 0.391501 0.654136
1205 4 0.378243 0.368338 0.645945
1040 4 0.0806981 0.42675 0.615333
2172 4 0.087327 0.486953 0.663349
993 4 0.101132 0.425842 0.619921
1160 4 0.142625 0.494582 0.584648
1187 4 0.215028 0.456984 0.583208
1186 2 0.213036 0.474016 0.601405
1188 4 0.211044 0.491048 0.619601
1172 4 0.268743 0.427343 0.587825
1206 4 0.387533 0.414664 0.662326
1002 4 0.394758 0.442026 0.591305
1269 4 0.413323 0.467988 0.656904
2991 4 0.00194792 0.060208 0.709747
1147 2 0.2156 0.0686536 0.730137
1149 4 0.212082 0.0449218 0.723095
1004 4 0.343486 0.0614158 0.713836
1003 2 0.350772 0.0650951 0.690203
43 3 0.420778 0.0588094 0.697294
1163 4 0.459646 0.056709 0.688029
1162 2 0.480893 0.0443687 0.692659
42 3 0.447029 0.0537449 0.670876
2320 2 0.479813 0.00940329 0.73604
41 1 0.429081 0.0667082 0.677118
862 2 0.0316572 0.124387 0.742994
864 4 0.0333998 0.106323 0.725795
1075 2 0.0462841 0.0944009 0.689041
1077 4 0.0475937 0.0999811 0.713379
909 4 0.138094 0.148984 0.673852
907 2 0.150668 0.144922 0.695078
908 4 0.163242 0.14086 0.716305
1227 4 0.180925 0.138029 0.726543
1148 4 0.219118 0.0923855 0.73718
1225 2 0.195455 0.121653 0.738623
1226 4 0.209985 0.105278 0.750702
829 2 0.305626 0.1414 0.721169
831 4 0.312517 0.117374 0.721835
1142 4 0.394892 0.165549 0.720813
1141 2 0.398023 0.158448 0.744581
1086 4 0.357223 0.112414 0.743881
44 3 0.436167 0.088672 0.679522
851 4 0.0541318 0.195237 0.724757
852 4 0.0292085 0.158576 0.701617
850 2 0.0416701 0.176906 0.713187
1107 4 0.0735474 0.18969 0.726554
1215 4 0.00106217 0.233751 0.739126
1209 4 0.105787 0.217765 0.649768
1105 2 0.088352 0.209812 0.725515
1207 2 0.108142 0.233011 0.669446
1208 4 0.110497 0.248257 0.689123
1073 4 0.108847 0.231999 0.743761
1106 4 0.103157 0.229935 0.724476
830 4 0.298735 0.165426 0.720503
886 2 0.27838 0.183672 0.692097
888 4 0.260686 0.184409 0.674446
887 4 0.296074 0.182934 0.709748
976 2 0.288952 0.196698 0.745504
978 4 0.289204 0.179737 0.727135
1193 4 0.378317 0.210179 0.686825
1192 2 0.362191 0.193387 0.695944
1194 4 0.346066 0.176595 0.705064
1261 2 0.429867 0.225517 0.72442
1263 4 0.422297 0.205806 0.711027
1262 4 0.437437 0.245228 0.737812
1177 2 0.00713695 0.261378 0.717363
1179 4 0.0235293 0.276599 0.706192
821 4 0.1708 0.302363 0.702112
820 2 0.17561 0.28993 0.723265
1064 4 0.239312 0.295871 0.689839
1065 4 0.271047 0.292376 0.728328
1063 2 0.255179 0.294123 0.709083
3123 4 0.474742 0.252159 0.671295
3121 2 0.499195 0.247191 0.672886
893 4 0.0589689 0.382186 0.687664
892 2 0.0565398 0.373897 0.711128
894 4 0.0541106 0.365608 0.734593
3276 4 0.02088 0.3698 0.718726
1280 4 0.0598965 0.40171 0.683756
3274 2 0.00200205 0.386062 0.716636
940 2 0.127006 0.394761 0.737602
1067 4 0.164981 0.390045 0.730122
941 4 0.148954 0.4014 0.727634
942 4 0.105057 0.388122 0.74757
815 4 0.0984456 0.368145 0.74956
1028 4 0.210629 0.394319 0.68713
1066 2 0.183878 0.398126 0.715883
1068 4 0.202776 0.406207 0.701644
1027 2 0.233276 0.395967 0.676663
807 4 0.321601 0.347326 0.713004
805 2 0.324372 0.352516 0.688702
1019 4 0.392964 0.326081 0.754521
3330 4 0.498726 0.408832 0.727331
1281 4 0.0344515 0.444587 0.687602
1279 2 0.047174 0.423148 0.685679
1983 4 0.037722 0.459054 0.701489
1981 2 0.0389018 0.464682 0.725822
1176 4 0.212863 0.480163 0.73268
1174 2 0.207745 0.477563 0.708344
1175 4 0.202628 0.474963 0.684009
1139 4 0.255885 0.454311 0.733857
1138 2 0.277405 0.457047 0.721422
1140 4 0.298924 0.459783 0.708988
1987 2 0.336848 0.497804 0.744672
1228 2 0.362282 0.453096 0.704239
1229 4 0.357 0.476681 0.710642
1230 4 0.367565 0.42951 0.697835
1989 4 0.347124 0.490064 0.723231
1267 2 0.425562 0.476224 0.677091
1100 4 0.443578 0.450229 0.695335
1099 2 0.45245 0.431524 0.709355
1101 4 0.461323 0.412818 0.723375
1294 2 0.0187946 0.0193758 0.821492
911 4 0.0753068 0.0598278 0.80973
1295 4 0.00504593 0.0284748 0.802694
2049 4 0.0921443 0.0059391 0.757682
1196 4 0.120269 0.0207941 0.809996
1203 4 0.110324 0.0651138 0.779788
1201 2 0.105258 0.0444618 0.766635
1202 4 0.100192 0.0238097 0.753481
910 2 0.0924649 0.0706824 0.824323
1255 2 0.295651 0.0668608 0.809348
1257 4 0.294389 0.0641122 0.784528
1256 4 0.296913 0.0696094 0.834168
1113 4 0.403335 0.0496527 0.76836
1050 4 0.368182 0.00721208 0.766061
973 2 0.386935 0.00162264 0.827148
975 4 0.383598 0.0178969 0.808462
1112 4 0.433935 0.0503901 0.807905
846 4 0.447725 0.0450169 0.796064
844 2 0.470631 0.0529818 0.802153
1111 2 0.418635 0.0500214 0.788133
845 4 0.493536 0.0609466 0.808241
2322 4 0.478032 0.0278643 0.752809
834 4 0.994315 0.122572 0.812997
863 4 0.0299146 0.142452 0.760193
832 2 0.0110962 0.130437 0.796212
833 4 0.027877 0.138302 0.779428
34 3 0.0940788 0.158809 0.81491
33 3 0.126703 0.156197 0.79559
32 3 0.126593 0.168413 0.831135
839 4 0.238397 0.154708 0.78877