ITEM: TIMESTEP
1650000
ITEM: NUMBER OF ATOMS
4590
ITEM: BOX BOUNDS pp pp pp
-9.9985700000000008e+00 9.9985700000000008e+00
-9.9985700000000008e+00 9.9985700000000008e+00
-9.9985700000000008e+00 9.9985700000000008e+00
ITEM: ATOMS id type xs ys zs
463 2 0.0133656 0.0375378 0.0431388
465 4 0.0310252 0.0500203 0.0556888
1667 4 0.0458758 0.0515567 0.0684381
701 4 0.0454221 0.0577922 0.0506776
590 4 0.0352781 0.0671701 0.0641704
700 2 0.0667632 0.0691139 0.0442313
1666 2 0.0489478 0.0372341 0.0887014
702 4 0.0881043 0.0804356 0.0377851
994 2 0.148672 0.0248117 0.015708
996 4 0.136111 0.00319327 0.0155045
565 2 0.171042 0.0820929 0.0324095
995 4 0.161233 0.0464302 0.0159114
567 4 0.171263 0.0635341 0.0156553
492 4 0.314647 0.0371896 0.0141158
2264 4 0.301133 0.0285346 0.00203567
490 2 0.337067 0.0398474 0.0248619
491 4 0.359486 0.0425051 0.035608
557 4 0.361788 0.0583951 0.0453533
296 4 0.35937 0.0400332 0.0546106
295 2 0.364608 0.020443 0.0692381
556 2 0.3758 0.0786348 0.0409715
297 4 0.369847 0.000852738 0.0838655
745 2 0.44186 0.0801899 0.0217763
746 4 0.422701 0.0817328 0.0377677
747 4 0.461019 0.0786469 0.00578489
589 2 0.0231695 0.0881085 0.0705068
591 4 0.011061 0.109047 0.0768432
2760 4 0.0134275 0.127433 0.0658268
423 4 0.0992695 0.0918189 0.0487202
422 4 0.136753 0.0947655 0.0157502
421 2 0.118011 0.0932922 0.0322352
566 4 0.17082 0.100652 0.0491636
558 4 0.389812 0.0988744 0.0365898
359 4 0.339646 0.156328 0.991703
1012 2 0.485751 0.147401 0.00391413
827 4 0.457458 0.164454 0.00707688
826 2 0.434784 0.164198 0.996539
1013 4 0.474977 0.167422 0.0143194
629 4 0.429602 0.154105 0.0839648
770 4 0.461698 0.160437 0.0260426
771 4 0.444452 0.148948 0.0715539
769 2 0.453075 0.154692 0.0487983
1014 4 0.496525 0.12738 0.993509
554 4 0.0478702 0.204021 0.0318663
553 2 0.0590661 0.218601 0.0149178
555 4 0.0702619 0.233181 0.997969
665 4 0.326777 0.229553 0.0150664
656 4 0.0106262 0.274324 0.0638697
294 4 0.118373 0.272222 0.0600308
292 2 0.13033 0.288351 0.0451291
293 4 0.142287 0.30448 0.0302273
507 4 0.147831 0.321837 0.0362558
288 4 0.129782 0.319132 0.0284323
286 2 0.116739 0.330618 0.0104566
505 2 0.165504 0.334168 0.0489354
356 4 0.20645 0.271407 0.995118
355 2 0.216468 0.291185 0.00667878
357 4 0.226487 0.310962 0.0182398
506 4 0.183177 0.3465 0.061615
483 4 0.196219 0.340889 0.0774982
666 4 0.341654 0.255974 0.0548317
572 4 0.329336 0.270719 0.0629461
571 2 0.313194 0.264475 0.0809916
461 4 0.346315 0.26598 0.0704009
664 2 0.334216 0.242764 0.034949
1071 4 0.38828 0.287926 0.00894384
1069 2 0.406092 0.292335 0.0259283
956 4 0.368959 0.283827 0.00627512
322 2 0.423723 0.269588 0.0715946
460 2 0.370028 0.262417 0.0774867
1070 4 0.423904 0.296743 0.0429129
323 4 0.434239 0.28635 0.0563096
280 2 0.468912 0.324016 0.040858
282 4 0.48811 0.32563 0.0249194
671 4 0.45533 0.338803 0.0671343
281 4 0.449715 0.322403 0.0567965
104 3 0.489216 0.319411 0.00551023
315 4 0.03286 0.391362 0.0697755
313 2 0.0329741 0.413648 0.0811103
287 4 0.103696 0.342105 0.992481
608 4 0.336742 0.38338 0.0732118
525 4 0.335169 0.402066 0.0667543
251 4 0.350462 0.375632 0.00861801
250 2 0.342472 0.380928 0.0317109
252 4 0.334482 0.386225 0.0548038
795 4 0.163178 0.489828 0.999949
1290 4 0.246315 0.500739 0.00711135
523 2 0.335475 0.425413 0.0756989
524 4 0.335782 0.44876 0.0846435
37 3 0.431051 0.43239 0.00691709
40 3 0.450346 0.45292 0.98244
39 3 0.425595 0.469547 0.00543069
563 4 0.491031 0.47556 0.018927
562 2 0.482583 0.493235 0.00338941
1806 4 0.0592557 0.0080873 0.117989
1421 4 0.0526035 0.0243824 0.127901
1668 4 0.0520199 0.0229114 0.108965
1420 2 0.039348 0.0372602 0.144743
1422 4 0.0260926 0.0501379 0.161584
1416 4 0.0423831 0.00993101 0.120489
2480 4 0.0120157 0.0539993 0.167514
1805 4 0.109092 0.00396594 0.118275
1804 2 0.0841738 0.00602662 0.118132
1504 2 0.234642 0.0765337 0.143046
1506 4 0.250305 0.0797317 0.12382
652 2 0.315906 0.0653356 0.133296
654 4 0.311759 0.0709988 0.157294
582 4 0.309421 0.0884637 0.167115
653 4 0.320052 0.0596723 0.109297
757 2 0.412414 0.0321 0.146339
759 4 0.395057 0.0298818 0.1642
758 4 0.42977 0.0343182 0.128477
1759 2 0.489876 0.995139 0.156241
235 2 0.155179 0.12367 0.147858
236 4 0.150342 0.106405 0.165285
237 4 0.160017 0.140936 0.130432
737 4 0.168898 0.158624 0.130903
285 4 0.313746 0.146955 0.142512
311 4 0.346282 0.0749571 0.15676
477 4 0.0736335 0.214549 0.167663
339 4 0.085453 0.229891 0.1693
475 2 0.0820082 0.191233 0.164287
337 2 0.108618 0.23926 0.17018
738 4 0.198129 0.198197 0.121946
736 2 0.183514 0.178411 0.126425
283 2 0.296773 0.161847 0.131773
354 4 0.290605 0.192026 0.115517
352 2 0.292637 0.216558 0.111136
284 4 0.279801 0.176738 0.121033
628 2 0.415792 0.172709 0.0933647
630 4 0.401981 0.191312 0.102765
254 4 0.408035 0.203057 0.118717
253 2 0.403603 0.22549 0.108601
255 4 0.399171 0.247922 0.0984857
338 4 0.131783 0.248629 0.171061
363 4 0.151517 0.242918 0.165152
361 2 0.1683 0.261152 0.168474
481 2 0.209049 0.32739 0.094182
535 2 0.209991 0.291013 0.146866
537 4 0.204315 0.281664 0.169351
536 4 0.215666 0.300361 0.124382
482 4 0.221879 0.313891 0.110866
353 4 0.294669 0.241091 0.106754
573 4 0.297053 0.258231 0.0990371
754 2 0.289865 0.272994 0.13624
755 4 0.288952 0.256448 0.117517
756 4 0.290778 0.289541 0.154963
462 4 0.39374 0.258853 0.0845725
622 2 0.352844 0.306773 0.11928
624 4 0.353187 0.282272 0.124258
765 4 0.359986 0.273638 0.140652
324 4 0.413208 0.252826 0.0868797
763 2 0.36569 0.269205 0.164589
2652 4 0.484377 0.313748 0.101177
528 4 0.490492 0.332103 0.110785
455 4 0.129324 0.382811 0.128982
454 2 0.117094 0.384259 0.150742
456 4 0.104865 0.385708 0.172503
626 4 0.269106 0.372293 0.14146
627 4 0.26297 0.403425 0.102809
625 2 0.266038 0.387859 0.122135
387 4 0.323517 0.361281 0.161962
385 2 0.336896 0.355722 0.141584
623 4 0.3525 0.331273 0.114302
607 2 0.345356 0.365032 0.0878517
609 4 0.353969 0.346684 0.102492
740 4 0.365471 0.343124 0.117649
386 4 0.350275 0.350163 0.121205
739 2 0.389716 0.349172 0.116775
741 4 0.413961 0.35522 0.115901
13 3 0.420999 0.379816 0.147732
670 2 0.440488 0.341745 0.0870401
672 4 0.425645 0.344686 0.106946
15 3 0.43365 0.390861 0.114033
11 1 0.436202 0.375577 0.130723
526 2 0.483321 0.3503 0.126361
12 3 0.432317 0.354504 0.122357
14 3 0.457846 0.376474 0.139038
495 4 0.476111 0.382947 0.144842
493 2 0.476223 0.407919 0.146093
527 4 0.47615 0.368497 0.141937
597 4 0.49048 0.374191 0.153706
645 4 0.469429 0.371379 0.154153
1788 4 0.0209491 0.46969 0.13128
314 4 0.0330882 0.435935 0.0924451
1787 4 0.011857 0.438043 0.0936436
1786 2 0.016403 0.453867 0.112462
1466 4 0.00594219 0.481965 0.133152
1791 4 0.0231647 0.48809 0.125144
639 4 0.254826 0.49781 0.130351
637 2 0.258155 0.48014 0.147726
494 4 0.476335 0.432891 0.147344
19 3 0.0236978 0.0514035 0.182351
20 3 0.0603393 0.0578415 0.188148
16 1 0.0394191 0.0606394 0.196702
18 3 0.0379827 0.0505758 0.21756
675 4 0.0800684 0.0204711 0.206506
673 2 0.0894457 0.0219287 0.229639
450 4 0.108131 0.066148 0.183874
448 2 0.128939 0.0798021 0.181468
1505 4 0.218979 0.0733358 0.162272
690 4 0.21026 0.00737711 0.170283
689 4 0.219336 0.0565536 0.170296
688 2 0.214798 0.0319654 0.170289
28 3 0.228058 0.0699085 0.179112
692 4 0.207879 0.0679151 0.172373
26 1 0.241216 0.0734633 0.197891
29 3 0.227781 0.0783595 0.216165
27 3 0.253142 0.0543052 0.202349
22 3 0.394257 0.0438797 0.218719
312 4 0.383559 0.0427625 0.165403
310 2 0.364921 0.0588598 0.161081
25 3 0.390551 0.0373695 0.182157
21 1 0.398628 0.0289944 0.201735
24 3 0.388254 0.00881509 0.206591
1760 4 0.497915 0.00423422 0.1781
23 3 0.421574 0.0259291 0.200167
744 4 0.44026 0.0298745 0.210489
742 2 0.454881 0.0367106 0.229586
17 3 0.0351088 0.0831202 0.198979
511 2 0.00981146 0.143246 0.227985
513 4 0.0347673 0.144673 0.228572
578 4 0.0520777 0.134674 0.233424
449 4 0.149747 0.0934561 0.179063
723 4 0.161132 0.110646 0.179783
721 2 0.168289 0.124643 0.199227
722 4 0.175445 0.138639 0.218671
691 2 0.186506 0.0808824 0.171925
546 4 0.17951 0.159179 0.216247
693 4 0.165132 0.0938496 0.171477
544 2 0.185576 0.158175 0.240482
30 3 0.255713 0.09061 0.194088
580 2 0.286437 0.0957166 0.173772
581 4 0.263453 0.10297 0.180429
476 4 0.090383 0.167917 0.160911
333 4 0.458677 0.175435 0.205518
331 2 0.466278 0.181418 0.228574
332 4 0.47388 0.187401 0.251631
395 4 0.0436292 0.269776 0.236386
704 4 0.00980188 0.29984 0.183913
749 4 0.0545678 0.266971 0.219901
748 2 0.0759247 0.265962 0.206938
703 2 0.00933077 0.321711 0.171804
2616 4 0.0118022 0.281979 0.19109
394 2 0.0247087 0.272681 0.252472
750 4 0.0972816 0.264954 0.193975
298 2 0.152226 0.319926 0.25287
300 4 0.138026 0.319598 0.232293
362 4 0.185082 0.279387 0.171796
372 4 0.196247 0.274492 0.186473
370 2 0.216683 0.265234 0.197511
371 4 0.237119 0.255975 0.208549
279 4 0.255539 0.259935 0.205095
610 2 0.299604 0.323956 0.167636
612 4 0.28622 0.303113 0.171044
278 4 0.282691 0.284853 0.171293
277 2 0.269115 0.272394 0.188194
344 4 0.283506 0.306344 0.225145
343 2 0.298687 0.287783 0.232229
345 4 0.313869 0.269221 0.239313
308 4 0.332643 0.268918 0.240771
307 2 0.345196 0.262529 0.220112
764 4 0.371393 0.264771 0.188527
309 4 0.357748 0.25614 0.199453
2692 2 0.998717 0.406034 0.229823
2694 4 0.0178824 0.404314 0.213857
705 4 0.00885966 0.343581 0.159695
648 4 0.00908564 0.361133 0.167361
647 4 0.0180582 0.402068 0.194646
646 2 0.0135719 0.3816 0.181004
302 4 0.310164 0.359935 0.175986
611 4 0.312988 0.344798 0.164227
301 2 0.310962 0.376231 0.194933
303 4 0.31176 0.392527 0.21388
727 2 0.305822 0.388539 0.248318
729 4 0.299569 0.400485 0.227262
614 4 0.386756 0.340039 0.238874
446 4 0.399257 0.345423 0.224263
445 2 0.422015 0.355256 0.221017
447 4 0.444774 0.365088 0.217771
643 2 0.46036 0.365539 0.17671
644 4 0.45129 0.359699 0.199267
603 4 0.0323731 0.411589 0.20274
262 2 0.0727405 0.479676 0.2389
263 4 0.0652349 0.455862 0.240224
601 2 0.0482029 0.426434 0.215158
602 4 0.0640326 0.441279 0.227576
415 2 0.159745 0.471743 0.196479
416 4 0.160249 0.451333 0.210913
413 4 0.154053 0.448009 0.229521
417 4 0.159241 0.492153 0.182044
290 4 0.222081 0.423648 0.202239
289 2 0.200063 0.433108 0.209373
291 4 0.178045 0.442569 0.216507
768 4 0.230923 0.442356 0.205459
766 2 0.251265 0.44752 0.191869
638 4 0.261484 0.46247 0.1651
767 4 0.271608 0.452685 0.178279
660 4 0.339456 0.467653 0.215634
658 2 0.360644 0.455316 0.21073
659 4 0.381831 0.442978 0.205826
232 2 0.0198932 0.0477489 0.323925
233 4 0.0181179 0.051889 0.29933
1402 2 0.0340744 0.0218742 0.271487
1403 4 0.0268131 0.0421077 0.284256
316 2 0.0502114 0.0758705 0.285933
317 4 0.0348931 0.05718 0.292351
530 4 0.0171812 0.0581078 0.283511
674 4 0.0988231 0.0233863 0.252771
1699 2 0.200412 0.997659 0.309066
1701 4 0.217164 0.0108884 0.296045
479 4 0.417908 0.0695819 0.315666
1747 2 0.479604 0.00647076 0.307984
743 4 0.469502 0.0435466 0.248682
1749 4 0.469459 0.0291317 0.305026
480 4 0.456601 0.0380295 0.318492
478 2 0.437254 0.0538057 0.317079
351 4 0.457693 0.0595957 0.250189
318 4 0.0655296 0.0945609 0.279514
577 2 0.061304 0.123567 0.253837
397 2 0.061184 0.125576 0.309831
579 4 0.0705303 0.11246 0.27425
398 4 0.0649032 0.10878 0.291687
399 4 0.0574648 0.142373 0.327975
731 4 0.0814665 0.100248 0.282068
732 4 0.131404 0.102331 0.280444
600 4 0.148114 0.111776 0.288763
730 2 0.106435 0.101289 0.281256
598 2 0.165896 0.128509 0.28338
599 4 0.183678 0.145242 0.277996
545 4 0.191643 0.15717 0.264718
392 4 0.189218 0.163487 0.28328
247 2 0.318896 0.132479 0.312183
249 4 0.308515 0.135118 0.334776
248 4 0.329276 0.129839 0.28959
633 4 0.408791 0.135147 0.27166
707 4 0.401779 0.153805 0.276113
706 2 0.392511 0.165887 0.295945
708 4 0.383243 0.17797 0.315777
631 2 0.430287 0.12483 0.279189
632 4 0.451783 0.114513 0.286718
349 2 0.45959 0.0811264 0.262759
350 4 0.461487 0.102657 0.275329
452 4 0.469841 0.110946 0.292026
451 2 0.472503 0.121025 0.314752
444 4 0.0255966 0.238613 0.322639
2655 4 0.035518 0.232518 0.339151
393 4 0.176423 0.196106 0.31896
391 2 0.182821 0.179797 0.30112
521 4 0.490529 0.183408 0.261619
762 4 0.473852 0.186338 0.270008
760 2 0.461588 0.189131 0.291617
761 4 0.449323 0.191924 0.313226
419 4 0.455644 0.208905 0.322462
2493 4 0.999098 0.277788 0.286249
442 2 0.0205484 0.252271 0.302312
443 4 0.0155001 0.265929 0.281986
396 4 0.00578824 0.275585 0.268558
735 4 0.164414 0.332301 0.330089
733 2 0.17121 0.321598 0.308538
400 2 0.228778 0.31144 0.305926
401 4 0.210585 0.318758 0.290412
402 4 0.24697 0.304122 0.321439
299 4 0.166427 0.320255 0.273447
276 4 0.244515 0.286564 0.330516
498 4 0.320769 0.260922 0.307053
377 4 0.30465 0.266774 0.317146
496 2 0.321692 0.263656 0.282216
497 4 0.322615 0.266389 0.257379
376 2 0.282699 0.278583 0.319109
378 4 0.260747 0.290392 0.321072
613 2 0.386645 0.324613 0.258552
615 4 0.386534 0.309187 0.27823
543 4 0.401909 0.301061 0.287794
541 2 0.42099 0.309105 0.301807
542 4 0.440072 0.317148 0.315821
2536 2 0.474979 0.300485 0.300375
2538 4 0.458668 0.31473 0.312873
2537 4 0.49129 0.28624 0.287876
2924 4 0.450758 0.318545 0.331621
366 4 0.0380836 0.322843 0.311572
364 2 0.025028 0.340398 0.323677
734 4 0.178005 0.310894 0.286988
728 4 0.312075 0.376594 0.269375
434 4 0.308496 0.371065 0.289067
433 2 0.314966 0.390956 0.302766
435 4 0.321436 0.410848 0.316464
2923 2 0.450723 0.342845 0.33751
549 4 0.0438068 0.476742 0.34162
412 2 0.149787 0.455005 0.253144
777 4 0.131513 0.460169 0.290674
775 2 0.120809 0.465426 0.312651
414 4 0.145521 0.462001 0.276767
437 4 0.330983 0.508484 0.259983
436 2 0.326033 0.502695 0.283798
438 4 0.321083 0.496907 0.307613
3 3 0.310879 0.490301 0.323427
4 3 0.330444 0.458165 0.328804
713 4 0.42024 0.470348 0.329709
712 2 0.430974 0.471762 0.307171
714 4 0.441708 0.473176 0.284633
234 4 0.0216685 0.0436087 0.348519
1782 4 0.100778 0.989592 0.359865
1780 2 0.108487 0.0133473 0.361075
1781 4 0.116195 0.0371022 0.362284
368 4 0.105494 0.0459547 0.375946
367 2 0.092448 0.056565 0.39445
439 2 0.260246 0.0117844 0.375203
441 4 0.24655 0.0323461 0.379053
319 2 0.243169 0.0860076 0.3886
320 4 0.255621 0.0919355 0.367743
698 4 0.354957 0.00663284 0.381344
257 4 0.363857 0.0248008 0.382817
256 2 0.371211 0.0418411 0.399572
459 4 0.0436507 0.143924 0.36022
457 2 0.0246898 0.153782 0.3732
321 4 0.230717 0.0800798 0.409456
404 4 0.302047 0.152566 0.330611
683 4 0.29018 0.138155 0.338243
682 2 0.28131 0.117172 0.34855
684 4 0.272441 0.0961896 0.358857
574 2 0.4057 0.118525 0.40946
453 4 0.475165 0.131105 0.337478
514 2 0.442755 0.138649 0.360418
515 4 0.457701 0.139951 0.340415
516 4 0.427809 0.137348 0.380421
575 4 0.416106 0.137264 0.396586
2653 2 0.0319726 0.242927 0.361606
2654 4 0.0284272 0.253336 0.384062
2850 4 0.0103669 0.261946 0.388427
388 2 0.0433676 0.261677 0.417626
687 4 0.120731 0.174316 0.374637
685 2 0.132829 0.178036 0.3962
686 4 0.144927 0.181757 0.417763
275 4 0.22056 0.246343 0.348097
403 2 0.299932 0.17036 0.348048
405 4 0.297816 0.188154 0.365486
474 4 0.308611 0.192191 0.381385
472 2 0.288164 0.204869 0.388195
473 4 0.267717 0.217546 0.395005
489 4 0.270334 0.223353 0.414031
420 4 0.433148 0.239124 0.355347
418 2 0.444396 0.224014 0.338904
269 4 0.43267 0.241994 0.375144
268 2 0.44194 0.227979 0.39366
270 4 0.45121 0.213964 0.412175
390 4 0.02444 0.260356 0.401342
676 2 0.175915 0.32066 0.371949
677 4 0.164823 0.328413 0.350925
678 4 0.187007 0.312906 0.392974
274 2 0.232537 0.266453 0.339307
375 4 0.182926 0.298728 0.408965
510 4 0.254444 0.301112 0.336491
508 2 0.254194 0.317692 0.355205
373 2 0.204201 0.285781 0.411178
374 4 0.225477 0.272834 0.413391
509 4 0.253945 0.334273 0.373918
716 4 0.412486 0.301218 0.355412
717 4 0.422263 0.252794 0.363177
715 2 0.417375 0.277006 0.359294
365 4 0.0119725 0.357953 0.335783
616 2 0.025778 0.366483 0.370209
617 4 0.0101718 0.369851 0.350966
618 4 0.0413841 0.363116 0.389452
326 4 0.0577596 0.375207 0.388826
347 4 0.0587994 0.357002 0.392902
325 2 0.0798342 0.386135 0.384528
346 2 0.0617925 0.343655 0.413832
327 4 0.101909 0.397063 0.38023
408 4 0.100609 0.410799 0.366436
503 4 0.259905 0.34024 0.391997
502 2 0.280252 0.348912 0.403657
504 4 0.3006 0.357583 0.415318
753 4 0.390176 0.38737 0.361476
587 4 0.380369 0.394789 0.377177
751 2 0.414152 0.380992 0.358369
586 2 0.369448 0.409296 0.394365
561 4 0.455432 0.372558 0.362298
752 4 0.438128 0.374613 0.355263
559 2 0.468776 0.378435 0.38261
2925 4 0.450687 0.367145 0.343399
560 4 0.482119 0.384313 0.402922
2507 4 0.492783 0.388865 0.420419
547 2 0.0684876 0.472744 0.341855
2463 4 0.025551 0.469655 0.336852
2461 2 0.00280667 0.470423 0.34721
679 2 0.0221525 0.448016 0.41271
680 4 0.0115896 0.467624 0.401347
1383 4 0.0257814 0.481519 0.395781
776 4 0.110106 0.470683 0.334628
548 4 0.0931684 0.468747 0.342091
570 4 0.138089 0.431019 0.409863
500 4 0.107042 0.472618 0.35453
406 2 0.104642 0.433316 0.356343
407 4 0.108675 0.455834 0.346249
499 2 0.120615 0.491864 0.362929
669 4 0.328622 0.466134 0.369658
5 3 0.324707 0.481936 0.357434
1 1 0.328393 0.480429 0.335011
2 3 0.347905 0.491434 0.329784
667 2 0.341214 0.45486 0.388084
668 4 0.353806 0.443587 0.40651
588 4 0.358527 0.423804 0.411554
718 2 0.0552858 0.0621855 0.448679
720 4 0.0467925 0.0597079 0.472065
2236 2 0.0165204 0.0354754 0.485198
2237 4 0.0300048 0.0564752 0.483663
719 4 0.063779 0.0646631 0.425293
1127 4 0.0475136 0.051636 0.48891
369 4 0.0794019 0.0671753 0.412954
605 4 0.224997 0.0355564 0.457588
604 2 0.23697 0.0332693 0.479419
606 4 0.248944 0.0309821 0.50125
258 4 0.378565 0.0588815 0.416326
426 4 0.388935 0.062491 0.43394
424 2 0.402789 0.0466838 0.447482
425 4 0.416643 0.0308766 0.461023
2880 4 0.492603 0.0837637 0.484176
642 4 0.484544 0.0777772 0.503336
259 2 0.041718 0.145066 0.481426
260 4 0.0215506 0.152945 0.46892
261 4 0.0618855 0.137188 0.493931
466 2 0.327899 0.157677 0.48619
726 4 0.348159 0.0852406 0.48255
576 4 0.395293 0.0997863 0.422334
725 4 0.359726 0.133681 0.478032
724 2 0.353943 0.109461 0.480291
468 4 0.342411 0.137326 0.486831
2879 4 0.509132 0.123062 0.458039
2878 2 0.500868 0.103413 0.471107
389 4 0.0622952 0.262998 0.433911
695 4 0.111524 0.238191 0.450033
467 4 0.313387 0.178028 0.485549
411 4 0.308073 0.185632 0.466827
409 2 0.289277 0.194597 0.452988
410 4 0.270482 0.203561 0.439148
487 2 0.277841 0.241815 0.429131
871 2 0.351192 0.237425 0.477992
872 4 0.344245 0.217404 0.464721
3157 2 0.493778 0.184401 0.497365
3159 4 0.483868 0.174796 0.476516
305 4 0.465138 0.180481 0.471507
306 4 0.449783 0.202671 0.429405
304 2 0.45746 0.191576 0.450456
348 4 0.0647856 0.330307 0.434761
694 2 0.125237 0.256535 0.460065
696 4 0.138949 0.274878 0.470097
10 3 0.136641 0.291714 0.467476
1260 4 0.151266 0.287158 0.479208
6 1 0.140098 0.313626 0.462322
7 3 0.136051 0.316868 0.439911
9 3 0.125638 0.327017 0.47457
8 3 0.162086 0.319461 0.466895
1258 2 0.164439 0.282268 0.499889
983 4 0.108245 0.333635 0.483786
711 4 0.180979 0.312767 0.468793
709 2 0.198439 0.327014 0.479627
266 4 0.297795 0.273037 0.453222
265 2 0.285156 0.292524 0.462479
267 4 0.272517 0.31201 0.471737
488 4 0.285348 0.260277 0.44423
2456 4 0.492226 0.283558 0.445127
583 2 0.456475 0.292654 0.463185
584 4 0.480421 0.294163 0.45615
585 4 0.432529 0.291145 0.47022
804 4 0.206998 0.406507 0.492715
710 4 0.215899 0.34126 0.49046
803 4 0.22194 0.358982 0.497058
802 2 0.214469 0.382745 0.494887
650 4 0.222228 0.343705 0.508694
240 4 0.393478 0.376491 0.494835
334 2 0.372265 0.412097 0.504597
335 4 0.383194 0.3898 0.507529
2506 2 0.494297 0.383867 0.444871
3308 4 0.498365 0.367183 0.484801
3307 2 0.478495 0.376265 0.496963
681 4 0.0327154 0.428407 0.424073
383 4 0.0400197 0.426867 0.443145
382 2 0.063566 0.434299 0.447084
539 4 0.102293 0.439702 0.462844
384 4 0.0871123 0.441731 0.451023
568 2 0.12052 0.430998 0.427654
569 4 0.102951 0.430977 0.445445
538 2 0.116744 0.448407 0.481298
636 4 0.202931 0.490044 0.443908
635 4 0.168958 0.475959 0.477793
1557 4 0.222611 0.493351 0.446147
634 2 0.185944 0.483001 0.460851
774 4 0.159081 0.483338 0.492951
882 4 0.316072 0.46439 0.503548
1454 4 0.314895 0.4835 0.498637
880 2 0.339375 0.458125 0.497
336 4 0.361337 0.434394 0.501666
881 4 0.362679 0.451859 0.490452
1126 2 0.0607487 0.0576514 0.509252
1128 4 0.0739839 0.0636667 0.529595
939 4 0.0707713 0.0800418 0.54067
1057 2 0.131524 0.0410677 0.578303
1059 4 0.121075 0.0633453 0.582742
1155 4 0.130912 0.0731576 0.568191
937 2 0.0913713 0.0753568 0.554044
938 4 0.111971 0.0706719 0.567418
341 4 0.21328 0.0228511 0.535254
340 2 0.222875 0.045897 0.53667
342 4 0.23247 0.0689429 0.538087
2430 4 0.214279 0.00927939 0.549338
961 2 0.298368 0.0511012 0.563335
963 4 0.293763 0.0693468 0.54687
1181 4 0.2846 0.0844176 0.539537
1180 2 0.259822 0.0867937 0.541894
962 4 0.302973 0.0328555 0.579799
950 4 0.288046 0.0200348 0.582559
2196 4 0.305689 0.0133714 0.578411
2194 2 0.328237 0.00294895 0.581259
842 4 0.390522 0.0471372 0.51809
841 2 0.372575 0.059311 0.505645
1217 4 0.396609 0.0391187 0.534338
843 4 0.354628 0.0714847 0.4932
1579 2 0.404125 0.0145174 0.498535
1581 4 0.399598 0.0285065 0.518758
1216 2 0.418391 0.0481846 0.542616
1218 4 0.440173 0.0572504 0.550893
641 4 0.452368 0.0588389 0.536603
640 2 0.468456 0.0683081 0.519969
1060 2 0.497487 0.0109356 0.515305
1035 4 0.0649144 0.155941 0.50226
1153 2 0.144879 0.0875299 0.553239
1033 2 0.0739315 0.167352 0.522599
1182 4 0.235043 0.0891699 0.544252
1152 4 0.21877 0.0807365 0.542097
1154 4 0.158845 0.101902 0.538287
1151 4 0.177907 0.108565 0.534584
1150 2 0.198339 0.0946507 0.538341
430 2 0.318795 0.0789404 0.513717
432 4 0.302384 0.0794211 0.532575
858 4 0.253609 0.162464 0.525475
431 4 0.335205 0.0784598 0.494858
898 2 0.367579 0.133821 0.570407
899 4 0.37611 0.110672 0.566343
900 4 0.359048 0.15697 0.574472
1034 4 0.0829486 0.178763 0.542938
857 4 0.233464 0.204111 0.506491
856 2 0.243537 0.183287 0.515983
873 4 0.358138 0.257445 0.491263
3065 4 0.471669 0.213456 0.562126
3064 2 0.49123 0.209993 0.546941
905 4 0.464631 0.230623 0.569914
948 4 0.203472 0.299328 0.581721
1259 4 0.177613 0.277378 0.52057
651 4 0.261272 0.317089 0.525059
649 2 0.24175 0.330397 0.516876
811 2 0.2956 0.330373 0.535036
1239 4 0.324597 0.313565 0.544724
812 4 0.275554 0.331155 0.520112
1237 2 0.337916 0.300163 0.5611
1238 4 0.351235 0.286761 0.577477
953 4 0.371586 0.284929 0.574246
952 2 0.396369 0.284013 0.577426
792 4 0.361484 0.271922 0.58383
904 2 0.447254 0.24806 0.574291
906 4 0.429877 0.265497 0.578669
1136 4 0.0733711 0.362102 0.534188
1135 2 0.0815979 0.376129 0.553181
1137 4 0.0898246 0.390157 0.572174
984 4 0.0890558 0.356493 0.523911
982 2 0.0986506 0.345064 0.503849
896 4 0.145359 0.407635 0.564436
895 2 0.124271 0.399313 0.574982
897 4 0.103183 0.390991 0.585528
1191 4 0.160049 0.412742 0.557297
1189 2 0.170983 0.392865 0.546784
1190 4 0.181917 0.372988 0.536271
813 4 0.315646 0.32959 0.54996
928 2 0.361745 0.415409 0.579946
925 2 0.446065 0.377499 0.551291
926 4 0.451123 0.383991 0.527681
3309 4 0.458626 0.385347 0.509125
927 4 0.441007 0.371008 0.574901
239 4 0.440065 0.380229 0.512624
663 4 0.447149 0.397491 0.517921
238 2 0.416772 0.37836 0.503729
2243 4 0.144125 0.42221 0.550768
2242 2 0.132543 0.434094 0.532065
1161 4 0.151861 0.426038 0.568662
2244 4 0.120961 0.445979 0.513362
540 4 0.131195 0.457112 0.499753
1159 2 0.169595 0.438911 0.580702
1171 2 0.308121 0.435604 0.574415
1173 4 0.285808 0.431978 0.585099
1172 4 0.330435 0.43923 0.563732
929 4 0.350914 0.43339 0.566361
891 4 0.343616 0.450254 0.56966
889 2 0.355676 0.471385 0.575421
1331 4 0.397568 0.471631 0.519475
661 2 0.451027 0.421889 0.514061
662 4 0.454905 0.446286 0.5102
1910 4 0.430227 0.485307 0.593911
1332 4 0.446804 0.462942 0.518479
1330 2 0.422186 0.467286 0.518977
943 2 0.0528933 0.0550353 0.592611
944 4 0.0413295 0.0741702 0.603805
2319 4 0.050707 0.0207418 0.579674
945 4 0.0644571 0.0359003 0.581416
1083 4 0.0225761 0.0705573 0.604114
1058 4 0.141973 0.0187902 0.573863
1032 4 0.274714 0.0922547 0.611684
949 2 0.267045 0.00909584 0.590588
1005 4 0.325199 0.042019 0.659549
1090 2 0.407307 0.0181845 0.646078
1092 4 0.382474 0.0210684 0.645664
1004 4 0.37471 0.0352313 0.657718
1003 2 0.349954 0.0386251 0.658633
2281 2 0.46791 0.000670121 0.652244
1091 4 0.43214 0.0153006 0.646491
2283 4 0.447566 0.00556477 0.638555
43 3 0.470927 0.0494819 0.661538
1081 2 0.0104966 0.0844277 0.621051
1082 4 0.998417 0.0982982 0.637988
1272 4 0.0799081 0.163497 0.633643
1221 4 0.144269 0.151652 0.611827
1219 2 0.161124 0.170025 0.613711
1271 4 0.12566 0.15957 0.613843
1270 2 0.102784 0.161534 0.623743
1283 4 0.180793 0.128812 0.650787
1031 4 0.226148 0.102249 0.618178
1284 4 0.205595 0.103247 0.615686
1282 2 0.193194 0.116029 0.633237
1211 4 0.220582 0.162992 0.659091
909 4 0.167058 0.12942 0.664462
1030 2 0.250431 0.0972519 0.614931
809 4 0.480137 0.0939569 0.635576
810 4 0.450006 0.130465 0.619451
808 2 0.465072 0.112211 0.627514
45 3 0.46703 0.0849448 0.649503
879 4 0.0608195 0.170487 0.638328
878 4 0.017515 0.184795 0.617817
877 2 0.0391672 0.177641 0.628072
1199 4 0.998987 0.187252 0.622815
1210 2 0.206544 0.177016 0.643879
1212 4 0.192505 0.19104 0.628666
1220 4 0.177978 0.188397 0.615595
796 2 0.189 0.223873 0.615327
798 4 0.17821 0.20426 0.626468
797 4 0.19979 0.243485 0.604186
888 4 0.227245 0.180082 0.666598
791 4 0.336809 0.234053 0.605225
1025 4 0.456544 0.210636 0.640245
1024 2 0.480732 0.216436 0.637703
3043 2 0.997162 0.268472 0.610848
1243 2 0.0348758 0.281503 0.651578
1244 4 0.0300168 0.288147 0.627968
3044 4 0.0158703 0.284801 0.613771
947 4 0.197843 0.260866 0.613181
946 2 0.200657 0.280097 0.597451
790 2 0.349147 0.252987 0.594528
954 4 0.421153 0.283097 0.580606
1039 2 0.0755536 0.415153 0.600612
1041 4 0.092906 0.406976 0.584574
991 2 0.0695217 0.414347 0.658109
1000 2 0.402818 0.381349 0.588476
807 4 0.33625 0.364733 0.642634
1002 4 0.38125 0.381961 0.60111
930 4 0.372575 0.397428 0.593532
805 2 0.34959 0.376341 0.624957
806 4 0.36293 0.387949 0.60728
1001 4 0.424386 0.380736 0.575843
3262 2 0.0155681 0.426003 0.668007
993 4 0.0588401 0.418811 0.635947
3264 4 0.994321 0.430215 0.655517
1040 4 0.0582013 0.42333 0.616649
1160 4 0.187329 0.451785 0.592742
1187 4 0.267454 0.430546 0.59297
1188 4 0.262024 0.443789 0.640885
1186 2 0.264739 0.437168 0.616928
1140 4 0.274823 0.444563 0.655867
1138 2 0.269064 0.427773 0.673477
1911 4 0.380819 0.493015 0.594403
890 4 0.367737 0.492516 0.581182
1909 2 0.405523 0.489161 0.594157
1269 4 0.417645 0.421085 0.621602
1267 2 0.421565 0.429518 0.644812
41 1 0.467363 0.0715125 0.667891
42 3 0.484471 0.078107 0.681782
1162 2 0.489206 0.0480207 0.711836
1163 4 0.486782 0.0687568 0.698077
1164 4 0.491631 0.0272846 0.725595
1077 4 0.00918541 0.0973865 0.703521
862 2 0.00297281 0.129885 0.730732
908 4 0.160163 0.094041 0.699125
907 2 0.16361 0.111731 0.681794
34 3 0.145215 0.156407 0.762345
1227 4 0.155946 0.0926498 0.71973
1225 2 0.167314 0.0905442 0.7419
831 4 0.275471 0.150395 0.749994
1299 4 0.28486 0.132575 0.745891
1297 2 0.298618 0.119365 0.729724
1298 4 0.312377 0.106155 0.713557
829 2 0.261051 0.168022 0.739672
44 3 0.447273 0.0732974 0.679364
852 4 0.0282548 0.213566 0.715216
850 2 0.0418088 0.196886 0.727993
1208 4 0.0370463 0.21504 0.697006
1207 2 0.03872 0.235808 0.683183
1107 4 0.0739574 0.18156 0.743877
851 4 0.0553628 0.180206 0.74077
1072 2 0.13463 0.233937 0.759941
1074 4 0.140314 0.257496 0.753791
1105 2 0.095754 0.191944 0.750378
1106 4 0.117551 0.202329 0.756878
33 3 0.168738 0.182414 0.747692
1130 4 0.186367 0.186605 0.739085
886 2 0.238752 0.181399 0.688757
830 4 0.24663 0.185648 0.72935
887 4 0.250259 0.182717 0.710916
976 2 0.267067 0.222099 0.718894
978 4 0.255649 0.199891 0.720172
977 4 0.278486 0.244306 0.717616
1192 2 0.379243 0.199823 0.732139
1194 4 0.368935 0.198363 0.709407
1263 4 0.438672 0.242282 0.755427
1209 4 0.0403938 0.256576 0.66936
1245 4 0.0397348 0.274859 0.675188
780 4 0.0568266 0.284719 0.758178
1179 4 0.0252155 0.29331 0.749055
816 4 0.0721746 0.277834 0.749354
814 2 0.0789214 0.29801 0.736217
820 2 0.166531 0.293926 0.68939
821 4 0.164847 0.311157 0.70743
822 4 0.168214 0.276694 0.671351
941 4 0.151695 0.319702 0.71762
815 4 0.0856682 0.318187 0.72308
918 4 0.296025 0.2454 0.726189
916 2 0.30784 0.248386 0.748022
3275 4 0.0231079 0.358566 0.720746
893 4 0.0659455 0.381733 0.727215
1280 4 0.0503544 0.396756 0.727284
3263 4 0.0368153 0.421792 0.680497
3274 2 0.0027967 0.371121 0.713328
892 2 0.0768712 0.359245 0.727492
894 4 0.0877969 0.336756 0.727769
940 2 0.127114 0.324212 0.718396
1067 4 0.157738 0.330053 0.703191
942 4 0.102533 0.328721 0.719172
992 4 0.0802033 0.409882 0.68027
1066 2 0.174205 0.348401 0.699025
1028 4 0.202764 0.376796 0.683515
1027 2 0.223443 0.390605 0.686145
1068 4 0.190672 0.366749 0.694859
1029 4 0.244121 0.404413 0.688774
1139 4 0.263306 0.410983 0.691088
1206 4 0.418175 0.399131 0.721855
1204 2 0.427603 0.380396 0.735467
1279 2 0.0432982 0.420617 0.724822
1281 4 0.036242 0.444477 0.722359
1983 4 0.0372053 0.462179 0.730371
1981 2 0.0406876 0.486927 0.729604
1987 2 0.33174 0.426926 0.741655
1230 4 0.402524 0.408775 0.732018
1228 2 0.382889 0.419446 0.720804
1229 4 0.363254 0.430117 0.709589
1989 4 0.350601 0.425517 0.725301
1101 4 0.483342 0.425814 0.7007
1268 4 0.425486 0.437952 0.668022
2167 2 0.426989 0.479585 0.679885
1100 4 0.442699 0.441313 0.676029
2168 4 0.431643 0.456473 0.671558
1099 2 0.463021 0.433563 0.688364
2049 4 0.157473 0.00981295 0.784507
1202 4 0.158542 0.0167423 0.803034
1201 2 0.138759 0.0221017 0.817354
1203 4 0.118975 0.0274612 0.831675
876 4 0.206828 0.0696265 0.829704
973 2 0.390176 0.0158042 0.778728
975 4 0.395561 0.0392274 0.785623
1113 4 0.414622 0.0462745 0.785965
1111 2 0.430345 0.0597862 0.799944
1112 4 0.446068 0.0732979 0.813922
863 4 0.00483255 0.14844 0.747389
834 4 0.0245979 0.136021 0.811561
832 2 0.0206336 0.142098 0.787634
833 4 0.0166694 0.148175 0.763706
1149 4 0.222813 0.0938654 0.813854
1226 4 0.178682 0.0884386 0.76407
1147 2 0.203486 0.0890594 0.798736
1148 4 0.184159 0.0842534 0.783619
1257 4 0.2408 0.0954798 0.805589
1255 2 0.261587 0.0848171 0.814501
1256 4 0.282373 0.0741545 0.823412