ITEM: TIMESTEP
2230000
ITEM: NUMBER OF ATOMS
4590
ITEM: BOX BOUNDS pp pp pp
-9.9985700000000008e+00 9.9985700000000008e+00
-9.9985700000000008e+00 9.9985700000000008e+00
-9.9985700000000008e+00 9.9985700000000008e+00
ITEM: ATOMS id type xs ys zs
463 2 0.0532998 0.0368842 0.0245267
465 4 0.0431211 0.0468048 0.0450974
1667 4 0.0388747 0.0474895 0.0637405
701 4 0.051453 0.0600582 0.055385
590 4 0.0325954 0.0593458 0.0500384
589 2 0.0121484 0.0730155 0.0455395
700 2 0.0694972 0.0773045 0.0568513
994 2 0.125939 0.0349952 0.0183497
995 4 0.1443 0.0518936 0.019926
567 4 0.158937 0.0593905 0.0317103
533 4 0.148857 0.0698478 0.0189993
2184 4 0.0955421 0.00336001 0.00614472
996 4 0.107578 0.0180969 0.0167735
565 2 0.174874 0.0560422 0.0506834
566 4 0.190811 0.0526939 0.0696566
1476 4 0.265286 0.0417578 0.0792545
490 2 0.355108 0.0183467 0.0155372
491 4 0.366299 0.0297161 0.0347902
557 4 0.370736 0.0465765 0.042213
296 4 0.36962 0.0288914 0.0533992
295 2 0.375773 0.00946403 0.0678868
556 2 0.392452 0.0587936 0.0442932
558 4 0.414168 0.0710106 0.0463735
492 4 0.343917 0.00697738 0.996284
1607 4 0.408185 0.00405596 0.0115447
746 4 0.425447 0.063289 0.0321242
745 2 0.445278 0.0516809 0.0222673
747 4 0.465109 0.0400728 0.0124104
2975 4 0.477169 0.0549605 0.00318233
423 4 0.101043 0.107117 0.0496488
702 4 0.0875414 0.0945508 0.0583176
421 2 0.113834 0.111527 0.0286219
422 4 0.126624 0.115938 0.00759501
770 4 0.471481 0.160153 0.0266901
769 2 0.454808 0.157003 0.0450554
771 4 0.438136 0.153853 0.0634207
1013 4 0.47923 0.14946 0.0124958
629 4 0.441886 0.163442 0.0789897
827 4 0.462484 0.158902 0.0100291
1012 2 0.491882 0.131148 0.00110447
554 4 0.0846526 0.209995 0.0573473
553 2 0.0877627 0.22405 0.0369034
555 4 0.0908729 0.238105 0.0164595
665 4 0.348185 0.207091 0.02931
664 2 0.343666 0.228804 0.0408554
666 4 0.339147 0.250517 0.0524008
1055 4 0.0798786 0.252058 0.00726485
836 4 0.0986012 0.24992 0.00291613
355 2 0.221245 0.273069 0.0268391
357 4 0.231752 0.27335 0.0495261
356 4 0.210738 0.272788 0.00415201
571 2 0.317289 0.257203 0.0831605
572 4 0.339584 0.253191 0.0725764
460 2 0.375946 0.266687 0.0698314
461 4 0.353266 0.260902 0.0610388
462 4 0.398626 0.272473 0.0786241
255 4 0.413203 0.260421 0.0769383
324 4 0.413666 0.279349 0.0694713
322 2 0.427105 0.300332 0.0674068
1070 4 0.4398 0.338267 0.0562686
323 4 0.440544 0.321316 0.0653423
282 4 0.494544 0.312416 0.0389436
280 2 0.475632 0.322371 0.0519214
281 4 0.45672 0.332325 0.0648992
552 4 0.0754319 0.39183 0.00792535
550 2 0.0570633 0.376467 0.000732421
483 4 0.160125 0.33222 0.0839769
293 4 0.141012 0.338562 0.00463942
507 4 0.150404 0.350144 0.0180991
505 2 0.156734 0.343381 0.0413235
288 4 0.133043 0.354336 0.012965
287 4 0.0955258 0.386336 0.00465301
286 2 0.114285 0.370336 0.00880901
506 4 0.163064 0.336617 0.0645478
523 2 0.28629 0.389176 0.0754487
525 4 0.308897 0.381235 0.0683023
608 4 0.328662 0.379539 0.0650343
252 4 0.315898 0.376572 0.0506742
524 4 0.263684 0.397117 0.082595
956 4 0.40408 0.346588 0.99725
250 2 0.332165 0.37179 0.0322975
251 4 0.348431 0.367007 0.0139208
671 4 0.444356 0.338429 0.0751465
1071 4 0.416432 0.348052 0.0131536
1069 2 0.428116 0.34316 0.0347111
315 4 0.0769211 0.46145 0.0280213
313 2 0.0708422 0.447594 0.0479276
314 4 0.0647633 0.433739 0.0678339
1787 4 0.0481675 0.444879 0.0741865
243 4 0.238908 0.496607 0.0836111
1290 4 0.248163 0.473758 0.0241328
245 4 0.254104 0.493 0.0711403
244 2 0.272125 0.497966 0.0545346
562 2 0.496418 0.46951 0.0501073
564 4 0.492213 0.463228 0.0739409
563 4 0.500622 0.475791 0.0262737
40 3 0.414466 0.451716 0.999184
1666 2 0.0413264 0.0399153 0.0874428
1806 4 0.0604973 0.0318047 0.119728
1421 4 0.0441046 0.0261233 0.126927
1668 4 0.043778 0.0323412 0.111145
1420 2 0.0323138 0.0349213 0.147145
1416 4 0.0503184 0.0145424 0.113105
1422 4 0.0205231 0.0437192 0.167363
1804 2 0.0835895 0.0324584 0.129294
1805 4 0.106682 0.033112 0.138859
1474 2 0.245125 0.0322287 0.0905639
1475 4 0.224964 0.0226995 0.101873
690 4 0.23496 0.0368004 0.130964
688 2 0.232312 0.0558261 0.14697
689 4 0.229665 0.0748517 0.162976
652 2 0.310719 0.0604644 0.122183
653 4 0.312867 0.066322 0.0979703
654 4 0.308572 0.0546069 0.146396
311 4 0.321247 0.0482264 0.157745
1759 2 0.489848 0.999836 0.142952
758 4 0.414734 0.0141469 0.154267
235 2 0.138868 0.104097 0.139638
237 4 0.131174 0.121428 0.12334
737 4 0.130036 0.139496 0.133897
736 2 0.142094 0.158677 0.123322
236 4 0.146562 0.0867657 0.155935
693 4 0.162218 0.0864794 0.161947
1504 2 0.23378 0.113917 0.153268
1506 4 0.241966 0.136216 0.145464
692 4 0.211936 0.0821127 0.165078
691 2 0.187077 0.0842961 0.163512
285 4 0.254009 0.149421 0.136806
476 4 0.0674954 0.192067 0.160191
475 2 0.072567 0.215156 0.168337
738 4 0.154153 0.177859 0.112747
283 2 0.255452 0.173598 0.130593
284 4 0.256895 0.197774 0.12438
354 4 0.27469 0.199563 0.113993
352 2 0.282084 0.222967 0.109225
253 2 0.421222 0.237625 0.0833595
254 4 0.429241 0.21483 0.0897806
630 4 0.431611 0.204154 0.10615
628 2 0.436749 0.183798 0.0925699
481 2 0.169059 0.325297 0.10628
535 2 0.188591 0.291102 0.157838
536 4 0.181679 0.298949 0.135127
482 4 0.177993 0.318374 0.128583
353 4 0.289479 0.246372 0.104457
573 4 0.294994 0.261216 0.0937445
754 2 0.298265 0.273103 0.135227
755 4 0.297922 0.259812 0.114052
756 4 0.298607 0.286394 0.156402
278 4 0.293126 0.291514 0.173805
622 2 0.358947 0.33009 0.121742
624 4 0.362152 0.305576 0.125478
765 4 0.367206 0.30085 0.143532
763 2 0.370427 0.294007 0.167364
2652 4 0.493506 0.324981 0.106671
528 4 0.491881 0.32539 0.127639
620 4 0.0183091 0.34561 0.160036
619 2 0.0261431 0.350436 0.136787
621 4 0.0339771 0.355262 0.113538
456 4 0.128817 0.416769 0.124361
626 4 0.254634 0.415217 0.0868814
385 2 0.333008 0.369019 0.147096
607 2 0.337458 0.374129 0.0878058
623 4 0.355742 0.354604 0.118005
609 4 0.346254 0.368719 0.110577
740 4 0.364721 0.371615 0.116715
386 4 0.349996 0.371576 0.128928
739 2 0.389472 0.375112 0.11613
741 4 0.414223 0.378608 0.115544
670 2 0.435438 0.353886 0.0926601
13 3 0.433096 0.342455 0.140837
672 4 0.426521 0.369344 0.110174
15 3 0.418215 0.370082 0.161644
11 1 0.434148 0.36501 0.146182
526 2 0.483464 0.344328 0.141627
12 3 0.430416 0.377349 0.12713
14 3 0.45518 0.370211 0.154487
495 4 0.471768 0.378848 0.151951
493 2 0.475164 0.399364 0.138069
527 4 0.475048 0.363267 0.155615
597 4 0.489512 0.377046 0.160666
645 4 0.472478 0.372781 0.167975
1788 4 0.0263589 0.468115 0.112724
1786 2 0.0372632 0.456497 0.0934554
1466 4 0.0225751 0.477423 0.129034
1791 4 0.0308933 0.487778 0.116184
454 2 0.125182 0.431573 0.144181
455 4 0.121546 0.446377 0.164
627 4 0.218052 0.437519 0.112671
625 2 0.236343 0.426368 0.0997764
1440 4 0.255953 0.489768 0.0897301
1438 2 0.259168 0.494427 0.114085
639 4 0.26195 0.488142 0.153676
1439 4 0.262383 0.499086 0.138439
637 2 0.257282 0.466929 0.166062
494 4 0.47856 0.41988 0.124186
2480 4 0.0138789 0.0600982 0.17571
19 3 0.0329267 0.0549284 0.17825
20 3 0.0599416 0.0573111 0.204369
16 1 0.0441543 0.0690226 0.192869
675 4 0.0780675 0.0569823 0.210781
18 3 0.0291225 0.0786876 0.207669
450 4 0.129041 0.0343989 0.180485
673 2 0.0880966 0.0340857 0.211363
674 4 0.0981257 0.011189 0.211945
448 2 0.136974 0.0578892 0.177253
449 4 0.144907 0.0813796 0.17402
30 3 0.251237 0.0675534 0.196932
26 1 0.230499 0.0767191 0.199068
27 3 0.216155 0.0610385 0.207873
582 4 0.307955 0.0648883 0.161447
580 2 0.285124 0.0625818 0.171378
581 4 0.262293 0.0602753 0.181308
757 2 0.397938 0.0269353 0.167665
759 4 0.381141 0.0397237 0.181063
310 2 0.343461 0.0442019 0.168493
22 3 0.35196 0.0350276 0.225044
312 4 0.365675 0.0401774 0.179241
25 3 0.372569 0.0280946 0.19471
21 1 0.3728 0.0289066 0.217469
24 3 0.378076 0.00801719 0.226083
23 3 0.388306 0.0445927 0.224674
744 4 0.405442 0.041176 0.234076
742 2 0.417408 0.0631302 0.234023
17 3 0.0544043 0.0856713 0.180748
511 2 0.0164488 0.145689 0.229931
513 4 0.0394547 0.153798 0.235422
578 4 0.0511156 0.14003 0.243612
723 4 0.151397 0.0964143 0.173837
721 2 0.148795 0.106854 0.196407
722 4 0.146193 0.117293 0.218978
546 4 0.160151 0.123885 0.231235
1505 4 0.225595 0.0916175 0.161073
28 3 0.222571 0.0833002 0.178278
29 3 0.231346 0.0949756 0.213365
743 4 0.429374 0.0850844 0.233969
333 4 0.49092 0.153648 0.234728
351 4 0.442301 0.0955676 0.245366
477 4 0.0776387 0.238245 0.176484
337 2 0.109991 0.24765 0.203543
338 4 0.130666 0.246304 0.21754
2616 4 0.00576863 0.29168 0.178904
750 4 0.0715855 0.25415 0.184483
703 2 0.995769 0.324788 0.176928
395 4 0.0249894 0.29053 0.213425
749 4 0.0292655 0.274863 0.201237
748 2 0.0504255 0.264506 0.19286
704 4 0.989188 0.30111 0.181534
394 2 0.0174893 0.285174 0.236668
396 4 0.00998917 0.279817 0.259911
339 4 0.089316 0.248997 0.189546
363 4 0.147266 0.257382 0.219844
361 2 0.163538 0.269954 0.20562
537 4 0.195503 0.283254 0.18055
362 4 0.17981 0.282526 0.191395
372 4 0.196416 0.277706 0.1999
370 2 0.221336 0.27825 0.20187
610 2 0.31121 0.324388 0.167781
612 4 0.309473 0.299605 0.164963
371 4 0.246256 0.278793 0.20384
279 4 0.261143 0.264929 0.201573
277 2 0.277134 0.278221 0.187689
344 4 0.27703 0.321085 0.220438
343 2 0.294732 0.311697 0.235394
345 4 0.312434 0.302309 0.25035
308 4 0.327795 0.294272 0.241328
307 2 0.344092 0.28755 0.223596
764 4 0.373649 0.287163 0.191196
309 4 0.360389 0.280828 0.205865
705 4 0.00234948 0.348466 0.172322
2692 2 0.0120545 0.380947 0.248275
648 4 0.0139428 0.362576 0.16792
2694 4 0.0173002 0.39645 0.229372
647 4 0.0192005 0.388206 0.210536
646 2 0.0165717 0.375391 0.189228
603 4 0.0331359 0.397089 0.218861
768 4 0.210437 0.405636 0.200726
290 4 0.190384 0.405828 0.200005
387 4 0.316021 0.366462 0.165263
611 4 0.312948 0.349172 0.170599
302 4 0.319127 0.36518 0.183468
729 4 0.324836 0.374751 0.238893
301 2 0.312892 0.369092 0.207364
303 4 0.306658 0.373005 0.231259
446 4 0.399572 0.343014 0.234234
445 2 0.414856 0.357666 0.220933
447 4 0.430139 0.372318 0.207633
643 2 0.460169 0.376162 0.189475
644 4 0.447861 0.379544 0.210975
263 4 0.0632337 0.456778 0.227599
601 2 0.0471405 0.417794 0.219463
602 4 0.0611451 0.438499 0.220065
262 2 0.0733091 0.479507 0.230255
415 2 0.155059 0.478678 0.197674
413 4 0.148074 0.453155 0.225556
412 2 0.142978 0.459428 0.249217
417 4 0.148204 0.497498 0.182708
416 4 0.161914 0.459858 0.21264
766 2 0.23166 0.417142 0.194217
291 4 0.162845 0.442191 0.220502
289 2 0.176615 0.424009 0.210253
638 4 0.252614 0.445717 0.178449
767 4 0.252882 0.428649 0.187707
660 4 0.291074 0.432577 0.195223
658 2 0.313932 0.434759 0.205121
659 4 0.336789 0.436941 0.215019
1404 4 0.0150109 0.0114694 0.262443
233 4 0.0144228 0.0563471 0.312495
1402 2 0.0154067 0.0301505 0.279057
1403 4 0.0158024 0.0488316 0.295672
317 4 0.0206671 0.0668779 0.294693
530 4 0.00366789 0.0628151 0.30166
316 2 0.0366165 0.0861244 0.294087
232 2 0.00687686 0.0546932 0.336275
1749 4 0.489175 0.0176813 0.308334
480 4 0.481489 0.0351663 0.313387
478 2 0.461725 0.0367396 0.328621
2643 4 0.499683 0.0338392 0.307908
577 2 0.0569211 0.131245 0.266291
318 4 0.0525659 0.105371 0.293481
397 2 0.0541583 0.13493 0.320066
579 4 0.0627266 0.12246 0.288969
398 4 0.0618055 0.116618 0.304855
731 4 0.0693902 0.105001 0.290799
544 2 0.163979 0.125886 0.255862
732 4 0.114691 0.0967738 0.310315
600 4 0.124889 0.110903 0.319815
730 2 0.0920404 0.100888 0.300557
598 2 0.147106 0.113337 0.308606
599 4 0.169324 0.11577 0.297397
545 4 0.167808 0.127887 0.28049
392 4 0.183401 0.11824 0.284631
391 2 0.204194 0.121715 0.298075
393 4 0.224988 0.125191 0.311518
247 2 0.326289 0.101225 0.318635
249 4 0.303368 0.111064 0.316909
404 4 0.301129 0.121558 0.332593
683 4 0.289602 0.105048 0.328214
248 4 0.349211 0.091386 0.32036
633 4 0.382291 0.153239 0.296138
707 4 0.369289 0.148625 0.309495
631 2 0.405584 0.144277 0.297645
632 4 0.428878 0.135315 0.299152
349 2 0.438067 0.107373 0.266997
350 4 0.433834 0.119178 0.288628
452 4 0.445901 0.127146 0.301365
451 2 0.459124 0.130701 0.322286
444 4 0.0339899 0.247866 0.301026
331 2 0.486822 0.169985 0.253208
332 4 0.482725 0.186322 0.271687
521 4 0.492292 0.200768 0.280399
762 4 0.475268 0.205275 0.272856
760 2 0.465744 0.210925 0.295274
761 4 0.456221 0.216575 0.317692
2655 4 0.0350634 0.259425 0.317447
443 4 0.999165 0.267818 0.271196
442 2 0.0165774 0.257842 0.286111
300 4 0.0919642 0.317933 0.27395
298 2 0.108775 0.304725 0.286917
733 2 0.152756 0.312613 0.325873
734 4 0.13684 0.305191 0.308074
299 4 0.125585 0.291516 0.299884
400 2 0.214778 0.304564 0.318675
401 4 0.194267 0.300563 0.304947
402 4 0.235288 0.308566 0.332404
378 4 0.251698 0.2985 0.329854
498 4 0.298686 0.261867 0.295518
377 4 0.28807 0.278567 0.301917
496 2 0.307507 0.272698 0.274781
497 4 0.316328 0.283528 0.254043
376 2 0.269884 0.288533 0.315886
615 4 0.394838 0.310268 0.27793
613 2 0.389835 0.329044 0.262194
543 4 0.411898 0.312408 0.289071
541 2 0.436666 0.313692 0.292247
542 4 0.461434 0.314975 0.295424
2536 2 0.492641 0.322669 0.277988
2538 4 0.475858 0.329192 0.295336
2924 4 0.471098 0.320812 0.311372
727 2 0.322743 0.388114 0.259922
728 4 0.320649 0.401478 0.280951
434 4 0.318351 0.386606 0.292993
433 2 0.312477 0.3805 0.316517
435 4 0.306604 0.374395 0.340042
614 4 0.384833 0.34782 0.246459
2923 2 0.47254 0.336753 0.330581
549 4 0.0369952 0.453316 0.321347
547 2 0.0615472 0.452586 0.326022
2463 4 0.02047 0.443275 0.328918
548 4 0.0860991 0.451856 0.330696
777 4 0.130776 0.451743 0.284303
775 2 0.118904 0.452805 0.306282
414 4 0.137883 0.4657 0.272879
776 4 0.107031 0.453868 0.328261
407 4 0.0987161 0.44088 0.338828
1574 4 0.284456 0.498113 0.266868
436 2 0.319079 0.481449 0.285709
437 4 0.301695 0.497709 0.278056
438 4 0.336464 0.465189 0.293361
3 3 0.348822 0.477494 0.304952
4 3 0.373377 0.458966 0.327272
1 1 0.354637 0.472645 0.326885
234 4 0.999331 0.0530393 0.360056
369 4 0.0777651 0.0785496 0.405923
368 4 0.0953659 0.0525354 0.367011
1780 2 0.0869613 0.0105563 0.363284
1781 4 0.0908564 0.035088 0.360419
367 2 0.0865655 0.0655425 0.386467
1699 2 0.196934 0.00992155 0.34446
1701 4 0.185841 0.0193748 0.364776
319 2 0.233723 0.0784833 0.377203
321 4 0.220003 0.0761337 0.397974
320 4 0.247442 0.0808329 0.356432
684 4 0.265038 0.0795287 0.363513
257 4 0.37436 0.00378132 0.399727
256 2 0.391708 0.0169974 0.411957
576 4 0.400725 0.0636543 0.380945
479 4 0.441961 0.0383128 0.343856
399 4 0.046511 0.153242 0.335277
459 4 0.0489768 0.16187 0.352874
457 2 0.0292492 0.177194 0.35178
403 2 0.302402 0.144396 0.342694
682 2 0.27732 0.0922884 0.345863
405 4 0.303675 0.167233 0.352794
706 2 0.362423 0.143639 0.333014
708 4 0.355558 0.138653 0.356534
574 2 0.416633 0.0821589 0.386396
575 4 0.43254 0.100664 0.391847
453 4 0.472347 0.134256 0.343207
514 2 0.45842 0.122896 0.382109
515 4 0.472438 0.131978 0.363503
516 4 0.444401 0.113813 0.400715
458 4 0.00952174 0.192517 0.350687
2653 2 0.0279398 0.25196 0.340222
388 2 0.0288554 0.225863 0.399081
390 4 0.0172998 0.236851 0.379822
2654 4 0.0208162 0.244496 0.362998
687 4 0.161572 0.202755 0.343751
686 4 0.146921 0.245702 0.364767
685 2 0.154246 0.224229 0.354259
474 4 0.287321 0.178257 0.357368
472 2 0.281912 0.193773 0.376215
473 4 0.276504 0.209289 0.395061
489 4 0.270813 0.215841 0.4126
410 4 0.281802 0.199453 0.410656
419 4 0.45641 0.23006 0.333
418 2 0.448235 0.243596 0.352368
268 2 0.42727 0.241601 0.406272
420 4 0.440059 0.257132 0.371736
306 4 0.442566 0.208812 0.419338
2850 4 0.00841537 0.254481 0.373649
346 2 0.0648827 0.321186 0.390406
348 4 0.0675942 0.304788 0.409086
275 4 0.244528 0.271758 0.386478
735 4 0.168671 0.320034 0.343672
677 4 0.172239 0.326273 0.362055
276 4 0.247145 0.301233 0.346165
676 2 0.182447 0.32251 0.384568
678 4 0.192656 0.318746 0.40708
274 2 0.245837 0.286495 0.366322
375 4 0.207901 0.305145 0.409658
510 4 0.249294 0.317612 0.335696
716 4 0.403463 0.312028 0.387747
715 2 0.415073 0.291081 0.380563
717 4 0.426682 0.270134 0.373379
269 4 0.426049 0.258919 0.388278
347 4 0.0621712 0.337584 0.371727
617 4 0.00528036 0.347064 0.345729
616 2 0.029705 0.343369 0.349598
618 4 0.0541296 0.339675 0.353467
326 4 0.0562617 0.354437 0.366026
325 2 0.0746897 0.371299 0.364899
327 4 0.0931177 0.388161 0.363772
408 4 0.102905 0.391639 0.34648
508 2 0.258133 0.338273 0.346659
509 4 0.266971 0.358934 0.357621
503 4 0.263111 0.355916 0.378082
502 2 0.266699 0.34789 0.401489
587 4 0.409549 0.37928 0.380107
586 2 0.387309 0.39061 0.378633
588 4 0.365068 0.40194 0.37716
668 4 0.345112 0.40588 0.377044
753 4 0.417807 0.388133 0.363791
751 2 0.439771 0.376808 0.359983
561 4 0.476551 0.361963 0.367481
752 4 0.461736 0.365483 0.356175
559 2 0.484613 0.354836 0.39005
2925 4 0.473983 0.352694 0.34979
560 4 0.492674 0.347708 0.41262
2461 2 0.00465741 0.457903 0.341613
1383 4 0.0249582 0.489775 0.384298
680 4 0.0402799 0.49293 0.396184
501 4 0.118431 0.49486 0.371622
500 4 0.0968674 0.460539 0.342334
406 2 0.10081 0.41626 0.342654
499 2 0.107649 0.477699 0.356978
5 3 0.337279 0.462344 0.33743
2 3 0.359546 0.492292 0.337795
714 4 0.377542 0.458511 0.346867
712 2 0.399338 0.446335 0.348225
669 4 0.339921 0.448297 0.351071
667 2 0.342517 0.427088 0.364058
713 4 0.421134 0.43416 0.349584
718 2 0.0553877 0.0707099 0.440047
720 4 0.0460694 0.058548 0.459807
2236 2 0.00238983 0.0567694 0.460867
2237 4 0.0272358 0.0594726 0.461609
1127 4 0.0396152 0.0564849 0.47749
1126 2 0.0556037 0.0602926 0.496333
719 4 0.0647061 0.0828719 0.420288
605 4 0.247399 0.0137747 0.464972
604 2 0.262804 0.0103498 0.484366
606 4 0.27821 0.00692494 0.50376
258 4 0.409055 0.0302134 0.424187
426 4 0.404271 0.0399142 0.441159
424 2 0.425073 0.0536018 0.443418
425 4 0.445875 0.0672894 0.445677
260 4 0.038224 0.135311 0.482199
259 2 0.0542744 0.143015 0.499755
466 2 0.290474 0.136839 0.454106
467 4 0.274812 0.155777 0.458716
468 4 0.306135 0.117901 0.449497
725 4 0.317752 0.123746 0.464889
724 2 0.32818 0.111289 0.483897
411 4 0.26817 0.172046 0.4502
2880 4 0.488112 0.104771 0.489915
2879 4 0.483344 0.137563 0.452463
2878 2 0.485728 0.121167 0.471189
642 4 0.48879 0.101089 0.509452
389 4 0.0404109 0.214876 0.418341
487 2 0.269283 0.239326 0.421045
409 2 0.274986 0.185749 0.430428
270 4 0.428491 0.224284 0.424266
3157 2 0.483354 0.208731 0.493542
3159 4 0.464148 0.19816 0.481518
305 4 0.465908 0.195124 0.461392
304 2 0.454237 0.201968 0.440365
695 4 0.129651 0.265203 0.445392
694 2 0.136519 0.279756 0.464529
696 4 0.143387 0.294309 0.483665
10 3 0.133405 0.312064 0.488621
1260 4 0.147208 0.30043 0.497209
6 1 0.128649 0.334308 0.487509
9 3 0.106657 0.338031 0.493904
983 4 0.0905887 0.327335 0.492913
373 2 0.207082 0.301251 0.434343
374 4 0.206263 0.297358 0.459028
488 4 0.267754 0.26281 0.42949
266 4 0.264 0.280505 0.436148
265 2 0.266889 0.305222 0.438576
267 4 0.269778 0.329939 0.441004
584 4 0.487599 0.266088 0.444031
583 2 0.46308 0.267312 0.44877
585 4 0.43856 0.268537 0.453509
569 4 0.0706628 0.413303 0.469388
7 3 0.131432 0.341579 0.465864
568 2 0.0785027 0.390402 0.463121
570 4 0.0863426 0.367502 0.456854
8 3 0.143031 0.346179 0.501317
711 4 0.161382 0.353257 0.496633
709 2 0.18332 0.358386 0.485788
710 4 0.205257 0.363516 0.474944
803 4 0.223679 0.368647 0.472201
802 2 0.230972 0.392241 0.476111
650 4 0.218392 0.360066 0.489496
649 2 0.231867 0.341928 0.500201
504 4 0.270288 0.339864 0.424896
334 2 0.392174 0.418921 0.451436
336 4 0.371327 0.416523 0.43784
335 4 0.41302 0.421319 0.465032
2508 4 0.506967 0.36025 0.478698
240 4 0.426451 0.406814 0.465139
238 2 0.440272 0.402596 0.485544
679 2 0.0301489 0.481732 0.416112
384 4 0.0663584 0.432625 0.470091
539 4 0.0785296 0.424555 0.483067
383 4 0.0272779 0.457896 0.451792
681 4 0.0200178 0.470533 0.43604
382 2 0.0468181 0.44526 0.460942
538 2 0.0962797 0.434731 0.49744
774 4 0.161315 0.493821 0.494836
804 4 0.238265 0.415836 0.480021
636 4 0.201475 0.489041 0.448684
635 4 0.174127 0.4796 0.489472
634 2 0.187801 0.48432 0.469078
1454 4 0.309315 0.459904 0.470483
882 4 0.323873 0.448945 0.461993
1453 2 0.295995 0.472927 0.487161
880 2 0.337213 0.431338 0.450277
881 4 0.350552 0.413731 0.438562
1128 4 0.0715921 0.0641003 0.515176
939 4 0.0702018 0.0819132 0.524206
1057 2 0.140806 0.058158 0.558987
1058 4 0.144374 0.0382867 0.573738
1059 4 0.137238 0.0780293 0.544237
341 4 0.199972 0.010002 0.555822
340 2 0.210136 0.031447 0.54795
342 4 0.220299 0.0528921 0.540077
1182 4 0.238025 0.0573847 0.533006
1152 4 0.222521 0.0619041 0.523199
1150 2 0.207584 0.0791726 0.513008
1180 2 0.259843 0.060563 0.544797
961 2 0.304258 0.0584802 0.578966
963 4 0.298866 0.0746294 0.560655
1181 4 0.281662 0.0637412 0.556588
432 4 0.288285 0.077299 0.544975
430 2 0.307117 0.0862833 0.531197
842 4 0.384563 0.0593888 0.520615
841 2 0.36269 0.0711823 0.517846
1217 4 0.400329 0.0487854 0.513547
1581 4 0.38313 0.0411831 0.516265
1579 2 0.382379 0.0167213 0.511143
1216 2 0.422183 0.0598592 0.518542
1218 4 0.444037 0.070933 0.523537
641 4 0.442407 0.0914335 0.525455
261 4 0.0703248 0.150719 0.517311
1035 4 0.0749489 0.137531 0.531619
1033 2 0.0678275 0.140689 0.555378
1034 4 0.0607061 0.143846 0.579137
937 2 0.094309 0.0820766 0.530839
938 4 0.118416 0.0822399 0.537471
1155 4 0.13336 0.0932165 0.534001
1153 2 0.1531 0.0972479 0.519193
1154 4 0.17284 0.101279 0.504386
1151 4 0.192646 0.0964411 0.502817
431 4 0.325949 0.0952677 0.517419
726 4 0.338607 0.0988317 0.502904
843 4 0.340817 0.0829759 0.515078
640 2 0.465599 0.0962615 0.517454
858 4 0.177802 0.211344 0.556832
857 4 0.216035 0.241105 0.569212
856 2 0.196918 0.226224 0.563022
872 4 0.328962 0.228359 0.53119
898 2 0.373473 0.182343 0.543069
900 4 0.385166 0.181169 0.520999
899 4 0.361779 0.183518 0.565138
3064 2 0.49831 0.250272 0.533919
3158 4 0.502559 0.219303 0.505566
1258 2 0.168884 0.30049 0.509673
1259 4 0.19056 0.30055 0.522136
651 4 0.245342 0.323789 0.510906
873 4 0.317474 0.276867 0.53516
811 2 0.284604 0.326729 0.518435
812 4 0.263184 0.329326 0.5058
1239 4 0.322861 0.314687 0.53227
813 4 0.306023 0.324132 0.53107
871 2 0.323218 0.252613 0.533175
1237 2 0.341411 0.306105 0.546672
952 2 0.39533 0.272725 0.559822
1238 4 0.359962 0.297522 0.561074
953 4 0.372877 0.283611 0.561412
792 4 0.358436 0.283019 0.574516
954 4 0.417783 0.261839 0.558232
3065 4 0.489294 0.26555 0.551539
905 4 0.473523 0.258726 0.560065
904 2 0.449774 0.254292 0.566511
906 4 0.426026 0.249859 0.572957
1136 4 0.0659639 0.360135 0.531843
984 4 0.0546094 0.344703 0.522989
1135 2 0.0758949 0.368125 0.553354
982 2 0.072599 0.336019 0.507951
1137 4 0.0858259 0.376114 0.574865
896 4 0.144479 0.403632 0.556766
895 2 0.121908 0.396598 0.564906
1191 4 0.151452 0.393447 0.542087
1189 2 0.154835 0.374282 0.526388
1190 4 0.158218 0.355118 0.51069
1161 4 0.163507 0.403574 0.555894
897 4 0.0993373 0.389563 0.573045
2243 4 0.154991 0.412227 0.541073
1159 2 0.178093 0.398388 0.575529
1001 4 0.408503 0.386894 0.562241
1000 2 0.387331 0.383646 0.57514
928 2 0.341315 0.413632 0.578114
925 2 0.442398 0.396182 0.542937
926 4 0.456557 0.399891 0.522665
3309 4 0.469833 0.394474 0.51056
927 4 0.428239 0.392473 0.563209
239 4 0.454094 0.398378 0.505948
663 4 0.465976 0.412874 0.50996
3307 2 0.483804 0.375142 0.503059
2242 2 0.144385 0.430713 0.527998
2244 4 0.13378 0.449199 0.514922
540 4 0.11403 0.444906 0.511813
773 4 0.138811 0.488462 0.53917
772 2 0.150063 0.491141 0.517003
1171 2 0.29115 0.444333 0.573016
1172 4 0.314155 0.444714 0.563227
1455 4 0.282675 0.485951 0.503839
929 4 0.331629 0.433849 0.567041
891 4 0.328055 0.450575 0.574903
1173 4 0.268146 0.443952 0.582804
2153 4 0.263051 0.489608 0.501814
1911 4 0.374513 0.495098 0.56585
889 2 0.342951 0.470625 0.576041
1909 2 0.399476 0.493681 0.56582
890 4 0.357848 0.490674 0.577179
1910 4 0.424439 0.492263 0.565789
1330 2 0.457152 0.468603 0.559746
1331 4 0.437467 0.477917 0.572032
661 2 0.475664 0.43357 0.52011
662 4 0.485352 0.454265 0.530259
1332 4 0.476837 0.459288 0.547461
2319 4 0.0621077 0.0306087 0.615619
2317 2 0.0587269 0.00809576 0.605279
945 4 0.044226 0.038537 0.620212
943 2 0.0303461 0.0591354 0.617342
944 4 0.0164662 0.0797338 0.614473
2131 2 0.237461 0.0175885 0.651456
2133 4 0.219565 0.00423729 0.662711
2132 4 0.255357 0.0309397 0.640202
949 2 0.288493 0.0256231 0.626602
962 4 0.30965 0.0423309 0.597278
950 4 0.30276 0.0267801 0.606101
2196 4 0.308671 0.0236024 0.588159
951 4 0.274226 0.0244662 0.647102
2194 2 0.32485 0.00458043 0.589421
1005 4 0.333118 0.041268 0.651285
89 3 0.382173 0.00690952 0.587627
1003 2 0.350443 0.0249264 0.643672
1004 4 0.367768 0.00858477 0.636059
1092 4 0.388183 0.0108482 0.634924
90 3 0.377075 0.00372958 0.624796
1090 2 0.404063 0.00664109 0.653774
1272 4 0.0649026 0.137027 0.5955
879 4 0.0522147 0.150514 0.597064
877 2 0.0347492 0.168256 0.594749
1221 4 0.120424 0.137978 0.63427
1270 2 0.0852824 0.133353 0.609512
1219 2 0.140336 0.15307 0.635236
1271 4 0.105662 0.129679 0.623524
1283 4 0.184538 0.0937513 0.645095
1031 4 0.237746 0.104225 0.636988
1284 4 0.226055 0.106276 0.620191
1282 2 0.205296 0.100013 0.632643
909 4 0.180644 0.0955797 0.664501
888 4 0.244221 0.160849 0.663681
1030 2 0.260947 0.105997 0.627836
1032 4 0.284148 0.107768 0.618684
810 4 0.456277 0.144369 0.64417
808 2 0.464392 0.131619 0.664089
878 4 0.0172836 0.185998 0.592433
1220 4 0.160247 0.168163 0.636202
796 2 0.168079 0.207268 0.645822
798 4 0.166704 0.18233 0.64698
1210 2 0.202876 0.165826 0.649088
1212 4 0.180481 0.171386 0.639459
797 4 0.169455 0.232207 0.644663
1211 4 0.225271 0.160267 0.658717
1026 4 0.491954 0.219265 0.631639
1025 4 0.471069 0.177216 0.614425
1024 2 0.481511 0.19824 0.623032
1243 2 0.0476063 0.266971 0.633949
1244 4 0.0507933 0.269397 0.609269
3044 4 0.0363929 0.269662 0.59448
3043 2 0.0159818 0.256107 0.589497
1245 4 0.0444193 0.264544 0.65863
947 4 0.172039 0.252915 0.640486
948 4 0.19347 0.25734 0.595521
946 2 0.182755 0.255127 0.618003
791 4 0.330128 0.266591 0.612324
790 2 0.344282 0.274805 0.59342
993 4 0.0870255 0.380946 0.641806
3262 2 0.00566731 0.407393 0.631114
3263 4 0.00454432 0.419214 0.653118
1040 4 0.0745185 0.372819 0.629307
1039 2 0.0802164 0.383197 0.607284
1041 4 0.0859143 0.393574 0.585261
1160 4 0.19268 0.393201 0.595163
1002 4 0.366159 0.380397 0.588038
930 4 0.351001 0.393414 0.589187
807 4 0.363495 0.400484 0.652937
805 2 0.361931 0.394136 0.628803
806 4 0.360367 0.387789 0.60467
1138 2 0.238373 0.434131 0.662848
1140 4 0.254009 0.428521 0.64416
1187 4 0.251992 0.43706 0.591375
1188 4 0.259963 0.411172 0.63341
1186 2 0.255977 0.424116 0.612393
1269 4 0.456228 0.437046 0.602356
1267 2 0.454087 0.440376 0.627044
1268 4 0.451947 0.443705 0.651732
2168 4 0.448814 0.460294 0.66281
1298 4 0.296121 0.081339 0.704651
2283 4 0.434066 0.989885 0.678391
43 3 0.451183 0.0716764 0.683856
1163 4 0.495481 0.0683022 0.714536
42 3 0.480766 0.0788337 0.705907
41 1 0.459239 0.0852085 0.700896
44 3 0.446084 0.0827527 0.719852
1091 4 0.419942 0.00243401 0.672624
862 2 0.999989 0.119052 0.736868
908 4 0.194762 0.104429 0.71165
907 2 0.187703 0.100004 0.688075
1227 4 0.186103 0.104614 0.729784
1225 2 0.197025 0.0926404 0.748824
831 4 0.294498 0.138299 0.743657
1299 4 0.298551 0.122124 0.733486
1297 2 0.297336 0.101731 0.719068
829 2 0.28762 0.158742 0.731009
809 4 0.472507 0.11887 0.684009
45 3 0.459229 0.106975 0.694197
852 4 0.0284712 0.225425 0.723949
850 2 0.043354 0.206171 0.729691
1208 4 0.0349044 0.235329 0.709046
1207 2 0.046462 0.24505 0.689119
851 4 0.0582367 0.186917 0.735432
1107 4 0.0756755 0.176184 0.735196
1178 4 0.0285269 0.241208 0.726121
3038 4 0.0157584 0.230917 0.716046
1215 4 0.0138248 0.231267 0.735455
1209 4 0.0580196 0.25477 0.669191
1105 2 0.098247 0.183557 0.743028
1073 4 0.127187 0.206218 0.756521
1072 2 0.13676 0.228908 0.752195
1074 4 0.146332 0.251598 0.747869
1130 4 0.187983 0.165868 0.760163
886 2 0.257392 0.165052 0.684515
887 4 0.270563 0.169255 0.705348
830 4 0.280742 0.179184 0.718361
976 2 0.290911 0.207753 0.69822
978 4 0.282718 0.184196 0.699988
977 4 0.299104 0.23131 0.696453
918 4 0.303451 0.240474 0.714047
916 2 0.320633 0.245294 0.73156
1194 4 0.379001 0.192859 0.714703
1192 2 0.366203 0.192619 0.736182
814 2 0.0776996 0.294245 0.732099
1177 2 0.0357318 0.261391 0.739002
816 4 0.0619641 0.283684 0.748409
815 4 0.0934351 0.304806 0.715788
941 4 0.149133 0.314443 0.702353
940 2 0.125948 0.317808 0.711087
942 4 0.102762 0.321174 0.71982
1067 4 0.168073 0.318711 0.697348
894 4 0.085704 0.322079 0.711384
821 4 0.162245 0.301405 0.704366
820 2 0.176255 0.280858 0.701775
822 4 0.190265 0.26031 0.699185
991 2 0.0794849 0.382123 0.665616
893 4 0.0666959 0.36598 0.696821
1280 4 0.059386 0.381724 0.705188
892 2 0.0761999 0.34403 0.704103
1279 2 0.0465785 0.403014 0.707993
992 4 0.0719443 0.383301 0.689427
1066 2 0.176242 0.342342 0.697545
1028 4 0.19291 0.383188 0.690852
1027 2 0.20187 0.406499 0.692074
1068 4 0.184411 0.365973 0.697742
1206 4 0.427264 0.407814 0.705335
1204 2 0.429298 0.383164 0.709
1205 4 0.431332 0.358514 0.712665
1281 4 0.033771 0.424305 0.710799
1983 4 0.0259139 0.440471 0.716217
1981 2 0.00860172 0.455848 0.706781
885 4 0.0345537 0.432433 0.730277
883 2 0.0499102 0.440527 0.748273
1029 4 0.210829 0.42981 0.693296
1139 4 0.222738 0.439741 0.681536
1987 2 0.338695 0.429018 0.74431
1989 4 0.351795 0.434229 0.72366
1228 2 0.396493 0.428638 0.714924
1229 4 0.37264 0.431366 0.721906
2169 4 0.401909 0.449512 0.676389
1230 4 0.420346 0.425909 0.707942
1100 4 0.459684 0.446644 0.669346
2167 2 0.425362 0.454903 0.669599
1099 2 0.478308 0.449473 0.685787
1101 4 0.496933 0.452302 0.702227
1202 4 0.160573 0.0196475 0.792239
1201 2 0.153693 0.0206149 0.816258
2049 4 0.147686 0.00396473 0.785747
1147 2 0.219622 0.0722581 0.802226
1148 4 0.202121 0.0715659 0.784383
1149 4 0.237124 0.0729503 0.82007
1226 4 0.207947 0.0806667 0.767864
1257 4 0.250766 0.0673766 0.832765
1255 2 0.270514 0.0788464 0.822585
973 2 0.369407 0.00734756 0.766542
975 4 0.378692 0.0295479 0.773333
1113 4 0.39338 0.0302062 0.787274
1111 2 0.404809 0.0435426 0.80507
2363 4 0.409686 0.0066323 0.814498
2320 2 0.488899 0.00563645 0.756238
1112 4 0.416238 0.056879 0.822866
844 2 0.45449 0.0785351 0.826253
832 2 0.0117385 0.129833 0.794109