ITEM: TIMESTEP
360000
ITEM: NUMBER OF ATOMS
4590
ITEM: BOX BOUNDS pp pp pp
-9.9985700000000008e+00 9.9985700000000008e+00
-9.9985700000000008e+00 9.9985700000000008e+00
-9.9985700000000008e+00 9.9985700000000008e+00
ITEM: ATOMS id type xs ys zs
463 2 0.0168805 0.0541526 0.0355514
465 4 0.0307345 0.0741536 0.029789
464 4 0.00302647 0.0341516 0.0413138
1667 4 0.102353 0.0419038 0.0697114
701 4 0.0690837 0.0718342 0.0477018
2184 4 0.0887938 0.0004083 0.0170967
534 4 0.223012 0.0592131 0.0149448
490 2 0.29561 0.0310816 0.0474481
491 4 0.293326 0.0423657 0.0696434
492 4 0.297894 0.0197976 0.0252528
2264 4 0.283892 0.0150476 0.0116127
296 4 0.365325 0.0658524 0.0842397
557 4 0.363409 0.0658214 0.0644023
556 2 0.363654 0.0803577 0.0440599
1608 4 0.398692 0.0156311 0.0239186
745 2 0.468596 0.0681324 0.0546595
747 4 0.470418 0.0513218 0.0362405
2975 4 0.465987 0.0323971 0.0320195
2974 2 0.479593 0.037158 0.0115896
589 2 0.0305252 0.101301 0.0633267
590 4 0.0239473 0.0889815 0.0425869
3233 4 0.0140202 0.139587 0.0184081
3232 2 0.0313224 0.149747 0.00348917
702 4 0.10547 0.0923007 0.0752312
700 2 0.0872769 0.0820675 0.0614665
421 2 0.113804 0.147339 0.0288699
423 4 0.107159 0.128472 0.0138671
565 2 0.201344 0.116262 0.0414615
566 4 0.190078 0.10056 0.0255964
567 4 0.212609 0.131965 0.0573265
358 2 0.279529 0.131879 0.00805834
360 4 0.255654 0.132198 0.015479
558 4 0.363899 0.0948941 0.0237176
746 4 0.466774 0.084943 0.0730785
770 4 0.462194 0.163106 0.0447575
553 2 0.0567058 0.242329 0.0259614
555 4 0.0631177 0.22469 0.00944044
422 4 0.120449 0.166205 0.0438726
664 2 0.339867 0.250901 0.00565994
324 4 0.406215 0.222252 0.0826122
322 2 0.411563 0.245445 0.0902709
1071 4 0.374682 0.264621 0.0261367
771 4 0.446769 0.202166 0.0719062
769 2 0.454482 0.182636 0.0583318
554 4 0.050294 0.259967 0.0424824
292 2 0.131382 0.307107 0.0160428
294 4 0.12475 0.320915 0.996281
293 4 0.138014 0.293299 0.0358046
507 4 0.156546 0.298233 0.0414516
506 4 0.194286 0.275909 0.0654933
483 4 0.235556 0.289696 0.09806
505 2 0.175416 0.287071 0.0534724
666 4 0.32946 0.269058 0.019342
481 2 0.251727 0.301976 0.0834695
571 2 0.304079 0.261803 0.0457228
573 4 0.296599 0.264385 0.0694411
482 4 0.267898 0.314257 0.068879
572 4 0.311559 0.25922 0.0220044
1069 2 0.394394 0.27172 0.0124903
956 4 0.374447 0.322317 0.0132768
955 2 0.356445 0.324112 0.996017
1070 4 0.414106 0.278819 0.998844
330 4 0.0370613 0.403112 0.0310518
328 2 0.0147265 0.405806 0.0201398
551 4 0.0505918 0.417013 0.0313367
286 2 0.1667 0.370464 0.00245448
287 4 0.149397 0.352679 0.999375
252 4 0.297291 0.397587 0.0550758
250 2 0.290239 0.403795 0.0319044
251 4 0.283187 0.410002 0.00873296
608 4 0.296637 0.400675 0.0745327
281 4 0.452645 0.343252 0.0383614
671 4 0.450332 0.350658 0.0563856
280 2 0.464505 0.341237 0.0164422
670 2 0.438811 0.347495 0.0783505
550 2 0.0733149 0.426522 0.0270453
1786 2 0.0717207 0.485905 0.0830191
1787 4 0.0705685 0.461373 0.0877155
314 4 0.0167888 0.443417 0.0660776
313 2 0.999307 0.430056 0.0779547
552 4 0.0960381 0.436031 0.0227539
242 4 0.155558 0.482628 0.0734896
245 4 0.227496 0.424772 0.0188413
244 2 0.245188 0.442263 0.0213439
246 4 0.262879 0.459754 0.0238466
272 4 0.275701 0.474367 0.021474
271 2 0.297674 0.485519 0.0257148
273 4 0.319647 0.496671 0.0299556
524 4 0.347875 0.478378 0.0542856
523 2 0.338386 0.486849 0.0758119
562 2 0.465842 0.500112 0.0307919
564 4 0.468026 0.513001 0.0521058
1666 2 0.0875332 0.0308528 0.0865463
20 3 0.0812806 0.0619493 0.154634
1668 4 0.072713 0.0198018 0.103381
450 4 0.133885 0.0697424 0.142511
448 2 0.153647 0.0814225 0.152423
652 2 0.310877 0.0429927 0.131921
653 4 0.304694 0.0631793 0.118525
654 4 0.31706 0.0228061 0.145317
295 2 0.361344 0.0474427 0.100684
485 4 0.363697 0.0100875 0.117975
297 4 0.357363 0.029033 0.117128
758 4 0.404712 0.0504943 0.141674
1760 4 0.494712 0.0252192 0.148312
1759 2 0.470682 0.0213317 0.1426
591 4 0.0371031 0.11362 0.0840666
237 4 0.192451 0.152692 0.146122
449 4 0.173408 0.0931026 0.162334
235 2 0.19037 0.128984 0.153788
236 4 0.188288 0.105275 0.161454
582 4 0.296716 0.0952271 0.153586
254 4 0.403899 0.162487 0.114602
630 4 0.420193 0.169922 0.104739
312 4 0.430572 0.0966444 0.164479
628 2 0.443061 0.16593 0.114028
339 4 0.0727505 0.235863 0.126114
476 4 0.125443 0.172288 0.0906977
475 2 0.107875 0.166731 0.107599
477 4 0.0903066 0.161174 0.124501
337 2 0.0866156 0.239096 0.146669
737 4 0.200705 0.163972 0.131348
736 2 0.20068 0.188895 0.129334
738 4 0.200655 0.213817 0.127319
354 4 0.254532 0.216074 0.114049
352 2 0.263626 0.239252 0.111763
285 4 0.282924 0.197613 0.150176
461 4 0.3321 0.228807 0.0937032
460 2 0.343417 0.206776 0.0971285
255 4 0.364372 0.174148 0.0862768
462 4 0.354735 0.184746 0.100554
253 2 0.384136 0.168317 0.100439
629 4 0.465929 0.161937 0.123317
517 2 0.497882 0.252347 0.0951407
518 4 0.475734 0.240762 0.0958016
620 4 0.00480292 0.33436 0.118437
705 4 0.00525713 0.31642 0.127106
703 2 0.996959 0.302443 0.146106
537 4 0.197015 0.320703 0.122561
535 2 0.202754 0.321619 0.14688
536 4 0.208492 0.322535 0.171199
741 4 0.336385 0.311389 0.0902526
353 4 0.272721 0.262431 0.109478
754 2 0.288794 0.291647 0.124034
755 4 0.289966 0.267608 0.117256
756 4 0.287622 0.315686 0.130811
612 4 0.288039 0.324918 0.147726
622 2 0.397073 0.266905 0.152827
623 4 0.398788 0.290795 0.145652
323 4 0.416912 0.268638 0.0979295
527 4 0.48252 0.291129 0.160473
621 4 0.0200614 0.381901 0.121227
619 2 0.0124322 0.35813 0.119832
647 4 0.0457217 0.375417 0.163777
454 2 0.118259 0.362776 0.0891401
455 4 0.0937738 0.357959 0.0875718
456 4 0.142744 0.367593 0.0907083
609 4 0.300727 0.354803 0.0940197
607 2 0.298682 0.377739 0.0842762
610 2 0.296224 0.347603 0.154327
611 4 0.304409 0.370288 0.160927
739 2 0.333989 0.336232 0.091758
387 4 0.344618 0.397748 0.144923
302 4 0.336553 0.401495 0.162324
740 4 0.331594 0.361075 0.0932634
15 3 0.390688 0.346449 0.142183
385 2 0.337515 0.379664 0.129186
386 4 0.330411 0.361579 0.113449
11 1 0.411209 0.355578 0.138414
672 4 0.427291 0.344333 0.100315
12 3 0.419517 0.347585 0.118508
14 3 0.409474 0.378679 0.137082
13 3 0.425752 0.3497 0.155512
495 4 0.424148 0.387206 0.126632
493 2 0.43273 0.409394 0.118934
597 4 0.474772 0.396022 0.157857
1467 4 0.0146643 0.518966 0.13574
1439 4 0.236283 0.504154 0.108724
625 2 0.237192 0.428899 0.115003
627 4 0.217231 0.438129 0.103107
626 4 0.257154 0.41967 0.1269
639 4 0.247959 0.486123 0.107826
637 2 0.254635 0.489317 0.131709
638 4 0.26131 0.492512 0.155593
525 4 0.328897 0.49532 0.0973382
658 2 0.380243 0.46502 0.164926
660 4 0.398238 0.459696 0.148403
659 4 0.362248 0.470344 0.181449
494 4 0.441312 0.431581 0.111235
19 3 0.0554603 0.0474495 0.177888
2480 4 0.999995 0.0262378 0.177082
16 1 0.0688317 0.0658499 0.173301
17 3 0.0553439 0.0841383 0.169728
2479 2 0.999303 0.0498082 0.185397
2481 4 0.998611 0.0733787 0.193711
18 3 0.0827616 0.0702121 0.191338
673 2 0.134992 0.0401418 0.21234
674 4 0.146959 0.0553545 0.196511
675 4 0.123025 0.0249291 0.228169
1505 4 0.216441 0.0413646 0.194435
1504 2 0.238532 0.029679 0.195209
689 4 0.209907 0.0373481 0.212305
688 2 0.189293 0.0297375 0.224233
692 4 0.202473 0.0527368 0.20218
690 4 0.168678 0.0221269 0.236161
691 2 0.19696 0.06966 0.184619
1506 4 0.260623 0.0179933 0.195984
21 1 0.3856 0.040129 0.227696
23 3 0.40142 0.0232222 0.229214
24 3 0.364293 0.030984 0.226809
25 3 0.389436 0.0527129 0.209107
759 4 0.396594 0.0542756 0.190873
22 3 0.387186 0.0534934 0.246352
757 2 0.400653 0.052385 0.166274
742 2 0.448027 0.0606714 0.229934
744 4 0.455691 0.0474903 0.210117
743 4 0.440364 0.0738525 0.249751
379 2 0.0028628 0.148966 0.182885
381 4 0.016695 0.163988 0.197313
511 2 0.038104 0.152009 0.23071
512 4 0.0238213 0.151008 0.210211
579 4 0.100388 0.0989574 0.238815
577 2 0.0972903 0.118158 0.223101
578 4 0.0941922 0.137358 0.207387
546 4 0.169953 0.146767 0.237852
693 4 0.191448 0.0865833 0.167057
723 4 0.21015 0.111004 0.211644
721 2 0.192801 0.119807 0.227351
722 4 0.175453 0.12861 0.243058
580 2 0.294333 0.111552 0.172375
581 4 0.291951 0.127876 0.191163
30 3 0.287051 0.132412 0.21162
26 1 0.302859 0.126509 0.226914
28 3 0.292699 0.117484 0.245722
27 3 0.316799 0.110707 0.217688
29 3 0.315453 0.145071 0.232851
310 2 0.4322 0.107215 0.18708
311 4 0.433827 0.117785 0.20968
333 4 0.427548 0.155009 0.233489
395 4 0.0231037 0.246483 0.209322
394 2 0.0107324 0.245048 0.231003
338 4 0.100481 0.242329 0.167223
363 4 0.121924 0.241517 0.163728
749 4 0.0976731 0.250931 0.256855
284 4 0.262438 0.229385 0.182911
283 2 0.272681 0.213499 0.166544
624 4 0.395359 0.243014 0.160002
764 4 0.365056 0.22777 0.227978
763 2 0.388494 0.234821 0.222868
521 4 0.450374 0.224281 0.225774
520 2 0.470566 0.221731 0.240299
748 2 0.0804931 0.269042 0.258264
361 2 0.126859 0.249883 0.186768
362 4 0.131793 0.258248 0.209808
372 4 0.147923 0.265684 0.201629
300 4 0.125611 0.33533 0.212312
277 2 0.235313 0.285846 0.178113
370 2 0.166329 0.27552 0.215401
371 4 0.184734 0.285356 0.229173
279 4 0.210335 0.286956 0.177888
344 4 0.253278 0.275472 0.231448
278 4 0.260291 0.284737 0.178338
343 2 0.260285 0.273441 0.255363
307 2 0.31768 0.264082 0.23256
309 4 0.317314 0.253043 0.210128
765 4 0.411933 0.241872 0.217758
528 4 0.449849 0.256247 0.175191
526 2 0.466185 0.273688 0.167832
646 2 0.0643696 0.35972 0.16935
648 4 0.0830175 0.344024 0.174923
298 2 0.136046 0.344603 0.233056
290 4 0.237275 0.394723 0.203534
303 4 0.331876 0.394443 0.21161
301 2 0.334214 0.397969 0.186967
729 4 0.317984 0.390695 0.225607
645 4 0.469601 0.388088 0.17521
595 2 0.498769 0.398303 0.164498
643 2 0.459711 0.372097 0.191692
644 4 0.449822 0.356106 0.208174
447 4 0.452491 0.364861 0.225453
445 2 0.455086 0.379121 0.245827
263 4 0.0797675 0.433554 0.24151
262 2 0.0669678 0.453097 0.232598
264 4 0.0541681 0.472639 0.223685
417 4 0.156001 0.442722 0.156265
415 2 0.173284 0.443724 0.174306
416 4 0.190567 0.444726 0.192347
291 4 0.206245 0.431726 0.190547
289 2 0.22176 0.413224 0.19704
768 4 0.249876 0.458322 0.212254
766 2 0.257908 0.471047 0.192286
767 4 0.265941 0.483772 0.172317
229 2 0.412958 0.499732 0.211079
231 4 0.407777 0.492886 0.187596
232 2 0.028742 0.0548896 0.296961
233 4 0.0447429 0.03737 0.289073
1402 2 0.0608063 0.0184121 0.259052
1403 4 0.0615023 0.0358865 0.276922
234 4 0.0127411 0.0724091 0.304848
1464 4 0.129748 0.00740706 0.281352
731 4 0.126833 0.0756556 0.322996
1701 4 0.249543 0.0261809 0.347212
248 4 0.23519 0.0875378 0.299052
1699 2 0.261562 0.0204021 0.326063
1700 4 0.273582 0.0146234 0.304913
257 4 0.395308 0.0495677 0.336085
478 2 0.483833 0.0286147 0.330864
480 4 0.480833 0.0282833 0.306043
351 4 0.436232 0.0689492 0.278828
349 2 0.445387 0.0851639 0.295514
513 4 0.0523867 0.153011 0.251208
529 2 0.997242 0.130801 0.282478
530 4 0.00525185 0.138357 0.304926
398 4 0.0416553 0.118318 0.327434
397 2 0.0583472 0.131425 0.314213
318 4 0.04785 0.100862 0.334234
544 2 0.161736 0.165261 0.252536
399 4 0.0750392 0.144531 0.300992
599 4 0.162307 0.159078 0.317602
249 4 0.228621 0.1369 0.294474
247 2 0.231906 0.112219 0.296763
403 2 0.232518 0.171295 0.300612
600 4 0.171237 0.110002 0.314058
404 4 0.244473 0.151521 0.291059
598 2 0.166772 0.13454 0.31583
632 4 0.378439 0.129128 0.315989
631 2 0.396632 0.112211 0.318825
633 4 0.414824 0.0952942 0.32166
331 2 0.441263 0.16493 0.251891
332 4 0.454979 0.174852 0.270293
350 4 0.454543 0.101378 0.312201
762 4 0.46469 0.163981 0.28279
396 4 0.998361 0.243612 0.252685
443 4 0.00300068 0.239655 0.271466
388 2 0.060261 0.241192 0.330273
392 4 0.127141 0.178048 0.28638
391 2 0.110897 0.194738 0.295478
393 4 0.0946534 0.211428 0.304576
545 4 0.15352 0.183756 0.267221
405 4 0.220563 0.191069 0.310165
474 4 0.25475 0.180026 0.347371
708 4 0.295854 0.189092 0.318613
706 2 0.317935 0.180053 0.311135
707 4 0.340015 0.171015 0.303656
420 4 0.40702 0.243118 0.322539
717 4 0.360638 0.25124 0.320754
522 4 0.490757 0.219181 0.254825
418 2 0.429091 0.231832 0.325807
760 2 0.456175 0.166768 0.306134
750 4 0.0633131 0.287154 0.259673
389 4 0.063426 0.264879 0.322918
400 2 0.231095 0.267571 0.30212
402 4 0.241583 0.275552 0.323368
401 4 0.220606 0.25959 0.280872
508 2 0.243643 0.317016 0.334342
510 4 0.241546 0.292163 0.332573
345 4 0.267293 0.271409 0.279279
496 2 0.290787 0.29772 0.297271
497 4 0.311047 0.285207 0.289647
498 4 0.270527 0.310234 0.304895
308 4 0.318046 0.27512 0.254992
543 4 0.407823 0.321273 0.284113
615 4 0.390976 0.317215 0.294925
541 2 0.432706 0.319581 0.282336
542 4 0.457589 0.317889 0.28056
366 4 0.0119302 0.346937 0.284878
364 2 0.034598 0.353035 0.29349
365 4 0.0572658 0.359134 0.302101
601 2 0.0825532 0.400654 0.266638
299 4 0.146481 0.353877 0.253799
603 4 0.0924072 0.385464 0.283882
734 4 0.163603 0.35975 0.261917
733 2 0.166276 0.356995 0.286624
735 4 0.168949 0.35424 0.311331
677 4 0.180635 0.342147 0.323053
433 2 0.315108 0.390673 0.309758
434 4 0.30871 0.37546 0.290975
727 2 0.317 0.381274 0.248747
728 4 0.316016 0.371852 0.271886
613 2 0.379123 0.334557 0.308487
446 4 0.457682 0.393381 0.2662
602 4 0.0726992 0.415843 0.249394
549 4 0.0354759 0.444203 0.322455
777 4 0.0978868 0.464788 0.278575
775 2 0.106174 0.472351 0.30092
776 4 0.114461 0.479914 0.323265
414 4 0.146442 0.455953 0.288372
412 2 0.16627 0.442707 0.295895
413 4 0.186098 0.429462 0.303417
436 2 0.289435 0.452042 0.288062
437 4 0.269997 0.467422 0.284773
438 4 0.308872 0.436662 0.291351
713 4 0.397973 0.475675 0.310787
712 2 0.416135 0.468393 0.295221
714 4 0.434297 0.461111 0.279656
316 2 0.0500334 0.0847359 0.353217
317 4 0.0522169 0.0686098 0.372201
428 4 0.0630099 0.024471 0.355468
1781 4 0.120626 0.0329762 0.421737
429 4 0.106795 0.00528013 0.340795
427 2 0.0849023 0.0148756 0.348132
1782 4 0.113034 0.00454289 0.381307
1780 2 0.11683 0.0187595 0.401522
606 4 0.179751 0.0519537 0.37746
604 2 0.200635 0.0556411 0.364214
605 4 0.221518 0.0593285 0.350968
698 4 0.377672 0.0457886 0.346041
697 2 0.361911 0.0263906 0.346734
699 4 0.346149 0.00699255 0.347428
256 2 0.410625 0.0600272 0.352853
424 2 0.406356 0.062441 0.408464
479 4 0.486833 0.0289461 0.355685
258 4 0.425943 0.0704866 0.36962
426 4 0.413947 0.0625328 0.384641
732 4 0.163017 0.0832778 0.356661
730 2 0.144925 0.0794667 0.339828
685 2 0.149255 0.143345 0.403054
683 4 0.272676 0.109092 0.352869
682 2 0.277862 0.105281 0.37703
684 4 0.283048 0.10147 0.401191
320 4 0.274962 0.102887 0.418971
516 4 0.417488 0.139187 0.410643
451 2 0.478914 0.154977 0.364348
453 4 0.458806 0.140887 0.369072
514 2 0.428423 0.140112 0.388177
515 4 0.439358 0.141038 0.36571
452 4 0.499022 0.169067 0.359623
390 4 0.0570959 0.217505 0.337627
2653 2 0.0110944 0.2293 0.360752
2654 4 0.035066 0.224642 0.366123
686 4 0.140734 0.163888 0.391626
275 4 0.182154 0.24621 0.355123
472 2 0.269866 0.199637 0.343892
473 4 0.284983 0.219247 0.340413
488 4 0.316149 0.221242 0.387553
487 2 0.299479 0.219772 0.406131
489 4 0.28281 0.218302 0.424709
419 4 0.451162 0.220546 0.329075
761 4 0.44766 0.169555 0.329477
618 4 0.0746674 0.33136 0.408597
347 4 0.0635643 0.319147 0.413647
346 2 0.050155 0.300545 0.423612
375 4 0.185862 0.315814 0.387425
509 4 0.24574 0.341868 0.33611
274 2 0.202244 0.253651 0.368015
276 4 0.222333 0.261093 0.380907
373 2 0.194631 0.305459 0.408427
374 4 0.203399 0.295105 0.429429
376 2 0.274507 0.270308 0.348297
377 4 0.291376 0.257911 0.361969
378 4 0.257637 0.282705 0.334626
715 2 0.365583 0.261614 0.342961
716 4 0.370529 0.271988 0.365167
268 2 0.480244 0.247321 0.403814
270 4 0.463958 0.250525 0.422514
616 2 0.0787253 0.34726 0.389732
617 4 0.0827832 0.36316 0.370867
678 4 0.186536 0.327062 0.370364
676 2 0.183586 0.334604 0.346708
503 4 0.27111 0.410759 0.398645
435 4 0.321505 0.405887 0.328542
614 4 0.36727 0.351899 0.322049
336 4 0.39339 0.388319 0.422393
2923 2 0.501113 0.333216 0.348954
561 4 0.472378 0.39516 0.374833
752 4 0.453698 0.388073 0.376403
559 2 0.47714 0.375149 0.389048
751 2 0.434938 0.402002 0.367502
2925 4 0.493883 0.342259 0.371115
753 4 0.416179 0.415932 0.358601
548 4 0.0748695 0.429224 0.349372
547 2 0.0551727 0.436714 0.335914
408 4 0.0836755 0.422881 0.414778
2461 2 0.00549495 0.463382 0.340453
2463 4 0.0228726 0.445463 0.339002
406 2 0.0844354 0.426912 0.390113
407 4 0.0851953 0.430942 0.365448
499 2 0.108415 0.481881 0.362694
500 4 0.101553 0.48022 0.338707
501 4 0.115276 0.483542 0.38668
570 4 0.141477 0.489186 0.418417
5 3 0.30319 0.462104 0.357106
1 1 0.324046 0.462045 0.366255
2 3 0.326494 0.480583 0.379652
4 3 0.326963 0.443004 0.37919
3 3 0.340054 0.462751 0.349473
594 4 0.391377 0.481569 0.354556
592 2 0.411116 0.494815 0.346803
718 2 0.0455457 0.0677252 0.461019
720 4 0.0343343 0.0482938 0.47206
2237 4 0.0470583 0.0363357 0.481986
367 2 0.126767 0.0574507 0.452863
369 4 0.140608 0.0667473 0.471496
368 4 0.112927 0.0481541 0.43423
1181 4 0.263346 0.0515472 0.500299
441 4 0.2929 0.0348053 0.431235
439 2 0.29184 0.0114134 0.422468
425 4 0.398764 0.0623492 0.432287
726 4 0.349489 0.0900194 0.494387
2878 2 0.49736 0.087131 0.457963
719 4 0.0567571 0.0871565 0.449978
458 4 0.0186043 0.154979 0.415032
457 2 0.00405633 0.173853 0.422603
687 4 0.157775 0.122803 0.414482
321 4 0.258716 0.132676 0.455705
319 2 0.266839 0.117781 0.437338
468 4 0.34809 0.171277 0.44946
724 2 0.353053 0.0893362 0.469648
725 4 0.356616 0.0886529 0.444909
576 4 0.420954 0.168235 0.474476
574 2 0.418756 0.157531 0.451986
575 4 0.416557 0.146827 0.429497
642 4 0.469665 0.108632 0.475522
2880 4 0.4869 0.0987441 0.477479
640 2 0.471999 0.11879 0.49825
471 4 0.00460318 0.188998 0.490432
469 2 0.0180322 0.196695 0.470796
470 4 0.0314611 0.204393 0.451159
260 4 0.101495 0.195688 0.426275
261 4 0.0913904 0.189286 0.474831
259 2 0.0964427 0.192487 0.450553
1035 4 0.103341 0.176999 0.485923
695 4 0.113223 0.262062 0.46226
411 4 0.263456 0.206135 0.45351
409 2 0.276932 0.196793 0.472386
410 4 0.290407 0.187451 0.491262
467 4 0.359639 0.209369 0.419188
466 2 0.353864 0.190323 0.434324
305 4 0.453982 0.204291 0.439537
306 4 0.489695 0.229319 0.464008
304 2 0.471838 0.216805 0.451773
348 4 0.0367456 0.281942 0.433578
694 2 0.113302 0.272035 0.485188
326 4 0.081524 0.320932 0.423274
10 3 0.16428 0.330889 0.471292
650 4 0.254007 0.303631 0.467971
651 4 0.259284 0.277643 0.425574
649 2 0.256646 0.290637 0.446773
266 4 0.320591 0.306824 0.456471
872 4 0.397475 0.261653 0.496821
267 4 0.357934 0.29046 0.427516
265 2 0.339263 0.298642 0.441994
583 2 0.457809 0.282086 0.470621
584 4 0.479798 0.27019 0.470246
585 4 0.435819 0.293983 0.470995
327 4 0.10529 0.346037 0.459407
325 2 0.0934072 0.333484 0.44134
7 3 0.135319 0.354369 0.46959
6 1 0.155263 0.349846 0.480123
8 3 0.169686 0.36773 0.476875
711 4 0.182387 0.383789 0.478723
709 2 0.199699 0.375883 0.462506
710 4 0.21701 0.367977 0.446289
774 4 0.215768 0.41083 0.48325
772 2 0.233396 0.405639 0.500205
504 4 0.241754 0.408074 0.43904
812 4 0.321096 0.344763 0.492961
502 2 0.256432 0.409416 0.418843
334 2 0.380959 0.387737 0.444079
238 2 0.398464 0.373165 0.494501
240 4 0.380894 0.384222 0.480565
335 4 0.368528 0.387156 0.465766
560 4 0.481903 0.355138 0.403263
681 4 0.0575842 0.411615 0.452177
383 4 0.0772145 0.413095 0.458021
680 4 0.0306185 0.451854 0.439752
1381 2 0.0311365 0.48161 0.471123
1383 4 0.0320062 0.469 0.449549
679 2 0.0441014 0.431735 0.445964
540 4 0.124244 0.500397 0.504395
568 2 0.13951 0.468087 0.43169
569 4 0.137543 0.446989 0.444963
382 2 0.0992654 0.42434 0.454489
384 4 0.121316 0.435586 0.450957
538 2 0.104779 0.499392 0.488733
635 4 0.210129 0.431377 0.482902
634 2 0.215804 0.454943 0.47677
636 4 0.22148 0.478509 0.470637
667 2 0.316659 0.442762 0.454356
669 4 0.33688 0.456002 0.460756
668 4 0.296437 0.429522 0.447955
586 2 0.404515 0.444511 0.438416
588 4 0.383176 0.445687 0.425438
663 4 0.442675 0.442949 0.480309
587 4 0.425854 0.443336 0.451395
1126 2 0.0430445 0.0683864 0.544122
1127 4 0.0502977 0.0751869 0.52118
1128 4 0.0357913 0.061586 0.567064
2238 4 0.0156984 0.0124314 0.512741
2236 2 0.0313783 0.0243835 0.497363
1058 4 0.126796 0.0632845 0.572876
1057 2 0.144127 0.0812741 0.573973
342 4 0.169376 0.0676368 0.516843
340 2 0.186571 0.0500253 0.512442
341 4 0.203765 0.0324138 0.508041
1180 2 0.24418 0.0664848 0.494409
1152 4 0.178492 0.0851745 0.522794
1182 4 0.225013 0.0814223 0.488518
2430 4 0.212945 0.0142184 0.510653
961 2 0.27958 0.0361667 0.523284
963 4 0.282333 0.047551 0.501193
962 4 0.276826 0.0247824 0.545374
432 4 0.295075 0.0584827 0.513542
430 2 0.314449 0.0736562 0.509118
1217 4 0.395933 0.0547939 0.532776
1216 2 0.417673 0.0447471 0.539961
841 2 0.369904 0.0764004 0.525925
842 4 0.390437 0.0721755 0.539553
1218 4 0.439412 0.0347004 0.547146
1062 4 0.492502 0.000705489 0.534426
938 4 0.103034 0.124776 0.572925
937 2 0.0994542 0.110787 0.552512
939 4 0.0958749 0.0967987 0.532099
1059 4 0.161457 0.0992637 0.57507
1030 2 0.243977 0.0889879 0.572289
1151 4 0.191516 0.132917 0.515605
1150 2 0.185004 0.109046 0.519199
1032 4 0.25992 0.10663 0.564559
843 4 0.349371 0.0806253 0.512296
899 4 0.3326 0.13541 0.549926
898 2 0.326775 0.159628 0.552109
431 4 0.333823 0.0888297 0.504693
641 4 0.474333 0.128947 0.520978
877 2 0.0674247 0.221385 0.572406
878 4 0.0495611 0.236803 0.564137
1199 4 0.0185916 0.186641 0.596704
1034 4 0.109964 0.168607 0.534774
1033 2 0.106652 0.172803 0.510349
857 4 0.247303 0.236241 0.503649
1221 4 0.205121 0.196534 0.566005
856 2 0.256604 0.219462 0.519684
858 4 0.265905 0.202683 0.535719
900 4 0.32095 0.183845 0.554293
871 2 0.396364 0.239003 0.507352
873 4 0.395254 0.216352 0.517883
3159 4 0.491887 0.162764 0.551771
906 4 0.445427 0.249773 0.574082
904 2 0.468497 0.248776 0.564491
905 4 0.491566 0.24778 0.5549
3157 2 0.507399 0.179228 0.541117
983 4 0.0480088 0.322658 0.524263
1258 2 0.151045 0.289792 0.521015
1260 4 0.130207 0.293653 0.507746
696 4 0.11338 0.282009 0.508116
1259 4 0.171882 0.285932 0.534285
811 2 0.312762 0.324748 0.505414
813 4 0.304427 0.304732 0.517868
3065 4 0.495752 0.25256 0.534941
982 2 0.0357328 0.327538 0.545492
984 4 0.0234567 0.332417 0.566721
935 4 0.00713718 0.40407 0.491964
934 2 0.995481 0.40253 0.514031
9 3 0.151275 0.3469 0.50279
1189 2 0.206939 0.356406 0.575106
773 4 0.251025 0.400447 0.51716
1190 4 0.219258 0.341279 0.559466
802 2 0.284509 0.372444 0.526102
803 4 0.274721 0.358188 0.544162
804 4 0.294298 0.386699 0.508043
928 2 0.349619 0.398006 0.588446
930 4 0.344561 0.378352 0.603051
239 4 0.416035 0.362109 0.508436
925 2 0.447397 0.399236 0.537403
926 4 0.465377 0.382446 0.541873
927 4 0.429417 0.416027 0.532934
1159 2 0.146674 0.469538 0.584431
2243 4 0.147881 0.487126 0.550526
1161 4 0.151697 0.445057 0.585229
1171 2 0.25137 0.437819 0.576284
1173 4 0.22693 0.441961 0.573014
882 4 0.325078 0.492121 0.511965
889 2 0.322598 0.447361 0.573661
880 2 0.336243 0.470575 0.505942
891 4 0.303211 0.432936 0.580081
890 4 0.341986 0.461787 0.567241
881 4 0.347409 0.449029 0.49992
1952 4 0.347856 0.480859 0.56924
1000 2 0.413655 0.440517 0.58079
1001 4 0.43518 0.434235 0.569725
662 4 0.460266 0.477446 0.511951
661 2 0.451471 0.460197 0.49613
945 4 0.0754087 0.0120785 0.657505
944 4 0.0620669 0.059836 0.663981
943 2 0.0687378 0.0359573 0.660743
825 4 0.159991 0.0109958 0.65734
1284 4 0.169276 0.0704298 0.64001
1031 4 0.228034 0.0713459 0.58002
949 2 0.236692 0.0127866 0.602438
950 4 0.229798 0.00893817 0.578714
951 4 0.243586 0.0166351 0.626163
1005 4 0.362076 0.071903 0.67051
45 3 0.417231 0.0680995 0.666213
809 4 0.471409 0.0802026 0.605645
1083 4 0.0479495 0.121067 0.61106
1082 4 0.0378892 0.111757 0.659152
1081 2 0.0429193 0.116412 0.635106
1076 4 0.0439906 0.0932161 0.661585
1153 2 0.165468 0.140539 0.589669
1155 4 0.164872 0.116075 0.584541
1154 4 0.166065 0.165004 0.594798
1283 4 0.200954 0.107137 0.652249
1282 2 0.185115 0.0887836 0.64613
808 2 0.456371 0.0978622 0.614983
810 4 0.441334 0.115522 0.624321
1026 4 0.466175 0.172507 0.624793
1244 4 0.0410243 0.251752 0.62934
879 4 0.0852884 0.205968 0.580674
1272 4 0.100562 0.218202 0.579922
1270 2 0.119942 0.213614 0.595039
1271 4 0.139322 0.209027 0.610157
1210 2 0.223846 0.190109 0.651673
1212 4 0.206804 0.188721 0.633429
1219 2 0.205658 0.190851 0.590348
1220 4 0.206196 0.185168 0.614691
796 2 0.243564 0.230269 0.610104
798 4 0.257031 0.217265 0.626678
797 4 0.230096 0.243274 0.593531
1211 4 0.240887 0.191496 0.669917
791 4 0.301291 0.225602 0.596261
1024 2 0.454311 0.187647 0.640769
1025 4 0.442447 0.202787 0.656744
1243 2 0.0659992 0.252944 0.629456
1245 4 0.090974 0.254137 0.629571
948 4 0.145679 0.259489 0.627132
946 2 0.170471 0.261167 0.629909
947 4 0.195263 0.262844 0.632687
790 2 0.30822 0.249588 0.597609
792 4 0.31515 0.273574 0.598957
1238 4 0.299795 0.283182 0.59147
1237 2 0.297233 0.308051 0.591123
954 4 0.438704 0.26671 0.5837
952 2 0.4362 0.291082 0.588694
953 4 0.433697 0.315453 0.593689
1039 2 0.0605851 0.408107 0.609972
1041 4 0.05 0.390632 0.595558
1137 4 0.116323 0.384619 0.605978
897 4 0.134747 0.384645 0.600053
1136 4 0.0951923 0.340849 0.594215
1135 2 0.105758 0.362734 0.600096
992 4 0.125955 0.405137 0.653725
991 2 0.108584 0.416455 0.639749
895 2 0.158218 0.383671 0.591488
1191 4 0.19462 0.371533 0.590746
896 4 0.181689 0.382697 0.582923
1239 4 0.294672 0.332921 0.590776
806 4 0.327263 0.354771 0.667113
1029 4 0.250272 0.390291 0.671567
929 4 0.354678 0.41766 0.573841
1204 2 0.374703 0.386743 0.655043
1205 4 0.369557 0.362376 0.652817
1040 4 0.0711702 0.425582 0.624385
2172 4 0.0869274 0.485464 0.666631
993 4 0.0912127 0.427774 0.625773
1160 4 0.141651 0.494019 0.583633
1187 4 0.221896 0.45568 0.58625
1186 2 0.21566 0.475441 0.600243
1188 4 0.209423 0.495202 0.614235
1172 4 0.27581 0.433677 0.579555
1206 4 0.379848 0.41111 0.657268
1002 4 0.392131 0.446798 0.591854
1269 4 0.402834 0.468018 0.660817
2991 4 0.00296186 0.0612831 0.706268
1147 2 0.220988 0.0743678 0.732211
1149 4 0.223204 0.0497527 0.728421
1004 4 0.34167 0.0646462 0.715584
1003 2 0.351873 0.0682746 0.693047
43 3 0.430601 0.0503511 0.696608
1163 4 0.465987 0.0575743 0.682553
1162 2 0.487643 0.047224 0.68956
42 3 0.453305 0.0586697 0.667833
2320 2 0.47879 0.00969279 0.733556
41 1 0.435202 0.0659225 0.680032
862 2 0.0307464 0.118708 0.74513
864 4 0.0348083 0.0993937 0.72978
1075 2 0.0401401 0.0972662 0.685956
1077 4 0.0362895 0.101316 0.710327
909 4 0.135339 0.146994 0.675799
907 2 0.149368 0.143566 0.69621
908 4 0.163397 0.140138 0.716621
1227 4 0.180393 0.140943 0.728302
1148 4 0.218771 0.0989828 0.736001
1225 2 0.195848 0.125348 0.740266
1226 4 0.211303 0.109754 0.752229
829 2 0.306584 0.142364 0.720645
831 4 0.30721 0.117469 0.72289
1142 4 0.399442 0.171769 0.716328
1141 2 0.395314 0.162695 0.739259
1086 4 0.354513 0.117225 0.745865
44 3 0.440343 0.0864165 0.689622
851 4 0.054298 0.196347 0.725971
852 4 0.0219483 0.168085 0.700369
850 2 0.0381232 0.182216 0.71317
1107 4 0.0709097 0.185257 0.728437
1215 4 0.998175 0.229956 0.744395
1209 4 0.104745 0.228194 0.644522
1105 2 0.0896154 0.201781 0.729934
1207 2 0.11018 0.23262 0.668523
1208 4 0.115614 0.237047 0.692524
1073 4 0.106265 0.227873 0.749009
1106 4 0.108321 0.218305 0.731431
830 4 0.305959 0.167259 0.718401
886 2 0.277645 0.184094 0.691149
888 4 0.260103 0.188846 0.673977
887 4 0.295187 0.179342 0.708322
976 2 0.294537 0.196337 0.747875
978 4 0.297414 0.18488 0.725838
1193 4 0.378659 0.206991 0.681378
1192 2 0.361302 0.191506 0.69055
1194 4 0.343945 0.176022 0.699722
1261 2 0.425462 0.224109 0.733742
1263 4 0.418581 0.202818 0.722582
1262 4 0.432343 0.245399 0.744902
1177 2 0.0102593 0.263748 0.718403
1179 4 0.0209815 0.281334 0.704228
821 4 0.165353 0.299128 0.709472
820 2 0.176427 0.289966 0.729932
1064 4 0.238594 0.299812 0.693998
1065 4 0.269847 0.293426 0.73251
1063 2 0.254221 0.296619 0.713254
3123 4 0.471182 0.24857 0.667359
3121 2 0.49535 0.24573 0.673105
893 4 0.063579 0.385614 0.688289
892 2 0.0570765 0.374482 0.709713
894 4 0.0505741 0.36335 0.731137
3276 4 0.0177203 0.371028 0.722607
1280 4 0.0572889 0.399881 0.678386
3274 2 0.999429 0.386974 0.716579
940 2 0.128256 0.39231 0.741129
1067 4 0.165932 0.393676 0.72989
941 4 0.151994 0.399238 0.744832
942 4 0.104519 0.385381 0.737425
815 4 0.0959133 0.372395 0.750501
1028 4 0.203707 0.40025 0.686838
1066 2 0.180228 0.4048 0.712654
1068 4 0.194523 0.415924 0.695418
1027 2 0.22699 0.39527 0.679203
807 4 0.324095 0.347503 0.716488
805 2 0.325679 0.351137 0.691801
1019 4 0.401296 0.329362 0.751527
3330 4 0.491207 0.408603 0.735189
1281 4 0.0385801 0.444572 0.690771
1279 2 0.0479345 0.422226 0.684579
1983 4 0.037711 0.447329 0.710858
1981 2 0.0306833 0.462375 0.72955
1176 4 0.205531 0.484066 0.733046
1174 2 0.200032 0.480674 0.708892
1175 4 0.194533 0.477283 0.684737
1139 4 0.261109 0.44857 0.729085
1138 2 0.282531 0.453497 0.71717
1140 4 0.303954 0.458424 0.705255
1987 2 0.339472 0.497142 0.748042
1228 2 0.35846 0.45361 0.702489
1229 4 0.352086 0.475984 0.71165
1230 4 0.364834 0.431235 0.693328
1989 4 0.351231 0.485936 0.729033
1267 2 0.422099 0.471641 0.676338
1100 4 0.442379 0.457036 0.700115
1099 2 0.449243 0.435623 0.711049
1101 4 0.456107 0.41421 0.721983
1294 2 0.0221699 0.0192941 0.819084
911 4 0.0731995 0.0610999 0.811718
1295 4 0.0209171 0.0349057 0.799593
2049 4 0.0895878 0.00565205 0.753878
1196 4 0.121119 0.00845935 0.813952
1203 4 0.10667 0.0620189 0.782087
1201 2 0.103804 0.0422722 0.767019
1202 4 0.100938 0.0225256 0.751951
910 2 0.0903284 0.0729102 0.825585
1255 2 0.296764 0.0728251 0.810917
1257 4 0.286468 0.0778387 0.78869
1256 4 0.307059 0.0678116 0.833144
1113 4 0.402439 0.0478108 0.774361
1050 4 0.370063 0.00804573 0.764969
973 2 0.384726 0.0116928 0.824548
975 4 0.381653 0.02063 0.8014
1112 4 0.435281 0.0467796 0.812058
846 4 0.451302 0.0519168 0.799603
844 2 0.476199 0.0539641 0.800682
1111 2 0.41886 0.0472952 0.793209
845 4 0.501095 0.0560113 0.801761
2322 4 0.472592 0.0294047 0.747634
834 4 0.995129 0.122859 0.80863
863 4 0.0266846 0.138023 0.76048
832 2 0.0121548 0.134216 0.794265
833 4 0.0291805 0.145572 0.779901
34 3 0.0938357 0.158561 0.815611
33 3 0.127639 0.15017 0.800401
32 3 0.125554 0.168997 0.832864
839 4 0.234306 0.152313 0.792078