ITEM: TIMESTEP
2250000
ITEM: NUMBER OF ATOMS
4590
ITEM: BOX BOUNDS pp pp pp
-9.9985700000000008e+00 9.9985700000000008e+00
-9.9985700000000008e+00 9.9985700000000008e+00
-9.9985700000000008e+00 9.9985700000000008e+00
ITEM: ATOMS id type xs ys zs
1666 2 0.0130895 0.0713407 0.057828
1668 4 0.999621 0.0503869 0.0600013
2974 2 0.465691 0.0153467 0.00432379
745 2 0.445847 0.0743454 0.00740734
747 4 0.451011 0.0501464 0.00381334
1667 4 0.0265578 0.0922945 0.0556548
701 4 0.0396458 0.106778 0.0526874
700 2 0.0490958 0.122109 0.0700323
566 4 0.184704 0.152599 0.0439018
565 2 0.194321 0.158202 0.021512
567 4 0.203938 0.163805 0.999122
297 4 0.331127 0.104726 0.0301805
295 2 0.346396 0.108647 0.0107731
556 2 0.40319 0.110206 0.00452886
558 4 0.426261 0.11157 0.0140712
746 4 0.440682 0.0985444 0.0110013
555 4 0.0377403 0.226751 0.00888954
770 4 0.394213 0.194147 0.0136727
359 4 0.376257 0.198474 0.0203625
664 2 0.394706 0.216114 0.0459295
665 4 0.390588 0.195097 0.0330255
666 4 0.398824 0.237131 0.0588335
623 4 0.393749 0.246699 0.0745213
769 2 0.415266 0.183158 0.00584898
292 2 0.128784 0.285553 0.0519026
507 4 0.157297 0.30199 0.0678769
293 4 0.147174 0.302475 0.0511176
294 4 0.110393 0.268631 0.0526876
287 4 0.166244 0.30465 0.0502555
552 4 0.140534 0.329227 0.0674025
573 4 0.239617 0.264358 0.042808
286 2 0.172876 0.303487 0.0261755
505 2 0.178506 0.302656 0.0811033
481 2 0.226806 0.273418 0.0763266
482 4 0.239673 0.258108 0.0613193
288 4 0.179508 0.302324 0.00209555
571 2 0.262255 0.262257 0.032402
572 4 0.284893 0.260156 0.021996
357 4 0.29642 0.268262 0.00710044
323 4 0.39097 0.253711 0.0554084
1069 2 0.401812 0.327125 0.0304306
322 2 0.402593 0.2734 0.0452883
955 2 0.34697 0.328799 0.0117146
324 4 0.414217 0.293089 0.0351683
1070 4 0.421429 0.311639 0.0311393
280 2 0.446987 0.318892 0.0590766
281 4 0.453447 0.320078 0.0832021
282 4 0.440527 0.317706 0.034951
550 2 0.126957 0.338889 0.0860442
455 4 0.144625 0.346128 0.0584554
454 2 0.151775 0.357218 0.0372177
456 4 0.158926 0.368309 0.0159799
1290 4 0.282478 0.391612 0.0285255
250 2 0.276952 0.405948 0.06397
1288 2 0.281254 0.378219 0.00744665
251 4 0.274545 0.407022 0.0391059
1071 4 0.382194 0.342612 0.029722
741 4 0.370558 0.34457 0.0447392
739 2 0.369013 0.346998 0.0695765
957 4 0.363447 0.33609 0.0290503
1788 4 0.077165 0.49088 0.0246129
626 4 0.234217 0.488723 0.0714378
625 2 0.2098 0.49194 0.0671157
245 4 0.248848 0.474431 0.0697141
627 4 0.185384 0.495157 0.0627936
244 2 0.255091 0.456911 0.0530035
246 4 0.261335 0.439391 0.036293
272 4 0.277045 0.426403 0.0337518
271 2 0.277561 0.433283 0.00971895
1672 2 0.404406 0.440859 0.0684713
853 2 0.397917 0.437843 0.00511163
1674 4 0.408904 0.444118 0.0440925
854 4 0.412199 0.441068 0.02538
563 4 0.472085 0.463274 0.0402323
562 2 0.447632 0.458722 0.0376821
564 4 0.423179 0.45417 0.0351318
228 4 0.491881 0.468243 0.0395138
18 3 0.0696112 0.00759932 0.159236
19 3 0.0700649 0.0453741 0.15508
491 4 0.248199 0.0790645 0.0813909
1474 2 0.281821 0.0016803 0.0943818
1475 4 0.27864 0.024904 0.103084
492 4 0.278728 0.0444804 0.100694
490 2 0.263463 0.0617725 0.0910427
1506 4 0.264165 0.00242937 0.169541
486 4 0.393517 0.0347281 0.0866611
484 2 0.412929 0.039591 0.101652
485 4 0.43234 0.0444539 0.116642
2722 2 0.488566 0.0681127 0.143794
2724 4 0.493284 0.0435897 0.142553
1759 2 0.494924 0.011346 0.111052
2744 4 0.495743 0.0257566 0.148689
1760 4 0.49423 0.0276033 0.130037
702 4 0.0585457 0.137439 0.0873772
476 4 0.0697789 0.151869 0.0972585
475 2 0.0826274 0.162236 0.116037
737 4 0.209016 0.14889 0.104161
237 4 0.239743 0.0883363 0.156051
235 2 0.215763 0.0935098 0.160885
581 4 0.298722 0.091467 0.149982
582 4 0.252017 0.102381 0.164131
580 2 0.27537 0.0969238 0.157057
628 2 0.385921 0.151588 0.157744
2723 4 0.483848 0.0926358 0.145035
2833 2 0.00527908 0.238264 0.102395
2834 4 0.013137 0.216788 0.112506
477 4 0.095476 0.172603 0.134815
738 4 0.231613 0.19345 0.102063
736 2 0.220314 0.17117 0.103112
460 2 0.317552 0.238543 0.108654
461 4 0.293576 0.240183 0.101751
354 4 0.274263 0.246836 0.10736
352 2 0.267725 0.249447 0.131351
353 4 0.261186 0.252059 0.155343
630 4 0.37505 0.172401 0.149152
254 4 0.360174 0.182143 0.141295
462 4 0.341527 0.236902 0.115557
255 4 0.357057 0.228019 0.121638
253 2 0.358616 0.205081 0.131466
765 4 0.352005 0.246934 0.127855
624 4 0.359812 0.24348 0.111109
622 2 0.376781 0.245089 0.0928149
2835 4 0.997421 0.259739 0.0922837
339 4 0.048918 0.244 0.13904
337 2 0.0517014 0.250207 0.1631
657 4 0.00346681 0.278854 0.0920083
483 4 0.213939 0.288729 0.0913338
506 4 0.199714 0.303322 0.0943298
537 4 0.19827 0.309888 0.113609
535 2 0.193364 0.301815 0.136759
536 4 0.188458 0.293741 0.159909
755 4 0.244508 0.262496 0.16235
387 4 0.309202 0.319769 0.108781
301 2 0.312982 0.307322 0.150991
302 4 0.308139 0.316365 0.128189
385 2 0.330078 0.332231 0.102945
763 2 0.345222 0.257258 0.149594
671 4 0.444679 0.318516 0.10024
527 4 0.462788 0.312655 0.10055
670 2 0.422371 0.327627 0.106915
526 2 0.487558 0.309709 0.102272
647 4 0.0571704 0.343946 0.161447
551 4 0.113381 0.348551 0.104686
289 2 0.233916 0.395315 0.144844
416 4 0.203226 0.372449 0.15415
290 4 0.249983 0.406021 0.128957
291 4 0.217849 0.384609 0.160731
415 2 0.184349 0.382923 0.166765
252 4 0.27936 0.404873 0.0888342
609 4 0.278792 0.408851 0.109523
493 2 0.393846 0.395803 0.0994637
495 4 0.395934 0.371307 0.104021
386 4 0.350955 0.344693 0.0971095
12 3 0.387448 0.333825 0.133678
15 3 0.355188 0.344223 0.118057
740 4 0.367468 0.349427 0.0944139
672 4 0.400064 0.336738 0.113589
14 3 0.38778 0.3533 0.101534
11 1 0.3768 0.350373 0.121764
13 3 0.377437 0.370051 0.134043
595 2 0.454713 0.416189 0.155549
596 4 0.455105 0.426081 0.132589
1791 4 0.0457712 0.492552 0.137545
1466 4 0.0387142 0.477566 0.127045
1465 2 0.0535115 0.457662 0.123875
1467 4 0.0683087 0.437758 0.120705
637 2 0.231367 0.496144 0.121243
638 4 0.253299 0.487466 0.12954
766 2 0.257376 0.446231 0.140147
768 4 0.257774 0.421243 0.140943
607 2 0.301683 0.417933 0.113852
767 4 0.256978 0.471219 0.139351
608 4 0.324573 0.427015 0.11818
494 4 0.391757 0.420299 0.0949064
660 4 0.38166 0.436908 0.0974751
1673 4 0.399908 0.4376 0.09285
659 4 0.331834 0.435131 0.101333
658 2 0.356747 0.43602 0.0994041
1559 4 0.371539 0.493292 0.134104
524 4 0.390408 0.494778 0.128436
523 2 0.39242 0.472501 0.11726
525 4 0.394432 0.450224 0.106085
1558 2 0.347805 0.500817 0.131815
16 1 0.0671921 0.0279454 0.170126
17 3 0.0459915 0.0291729 0.178968
2480 4 0.0313769 0.0271018 0.191493
2479 2 0.016246 0.0467642 0.188392
20 3 0.0824459 0.0296138 0.186954
578 4 0.0840589 0.0480122 0.173404
1422 4 0.0174128 0.0123012 0.191438
577 2 0.099175 0.0673737 0.178074
689 4 0.186643 0.00534875 0.227445
652 2 0.290208 0.0218679 0.180206
653 4 0.315093 0.0238136 0.181659
25 3 0.315699 0.0567963 0.240348
654 4 0.265322 0.0199223 0.178754
758 4 0.358582 0.0651537 0.189663
759 4 0.342895 0.061156 0.236978
757 2 0.350739 0.0631548 0.213321
311 4 0.372042 0.0786582 0.192458
350 4 0.364489 0.0670438 0.24845
744 4 0.50454 0.0236516 0.215127
380 4 0.998658 0.0836037 0.196104
379 2 0.00961704 0.106073 0.195646
511 2 0.0463331 0.15142 0.197585
512 4 0.0387957 0.129638 0.187895
381 4 0.0205763 0.128542 0.195187
579 4 0.114291 0.0867352 0.182745
448 2 0.155698 0.0953785 0.180797
450 4 0.130944 0.0988641 0.180288
449 4 0.180452 0.091893 0.181307
236 4 0.191783 0.0986833 0.16572
28 3 0.319392 0.14689 0.226895
312 4 0.378816 0.121732 0.167975
629 4 0.396792 0.130775 0.166335
310 2 0.375429 0.100195 0.180216
521 4 0.484298 0.128693 0.221609
332 4 0.482623 0.112128 0.23496
762 4 0.478679 0.129434 0.239199
760 2 0.453991 0.131018 0.242828
761 4 0.429303 0.132602 0.246456
331 2 0.500009 0.0954178 0.241569
513 4 0.0538705 0.173202 0.207276
393 4 0.0735061 0.178056 0.20709
391 2 0.0901793 0.196333 0.203464
392 4 0.106853 0.21461 0.199839
279 4 0.237938 0.205987 0.186264
277 2 0.246348 0.228542 0.179503
278 4 0.254759 0.251097 0.172742
284 4 0.274482 0.251737 0.169415
394 2 0.0157975 0.252295 0.229978
395 4 0.0341196 0.250258 0.213087
338 4 0.0544848 0.256414 0.187161
363 4 0.0446047 0.263642 0.202876
361 2 0.055515 0.285011 0.209914
749 4 0.0534977 0.321287 0.218005
648 4 0.0666243 0.319655 0.204123
362 4 0.0664252 0.30638 0.216951
748 2 0.0647556 0.332795 0.237137
372 4 0.0829189 0.308718 0.207233
646 2 0.0618973 0.331801 0.182785
370 2 0.107108 0.313965 0.210773
371 4 0.131298 0.319211 0.214312
734 4 0.14021 0.322395 0.231983
733 2 0.158495 0.310246 0.243952
754 2 0.242799 0.285873 0.171053
756 4 0.24109 0.309251 0.179756
611 4 0.2498 0.321606 0.232584
610 2 0.246235 0.325239 0.208104
612 4 0.24267 0.328872 0.183624
344 4 0.234645 0.31197 0.244597
283 2 0.297609 0.258625 0.17596
285 4 0.320737 0.265514 0.182506
308 4 0.32871 0.282318 0.178186
303 4 0.317826 0.298279 0.173794
729 4 0.313677 0.309985 0.189936
727 2 0.31033 0.333265 0.198422
764 4 0.338439 0.267582 0.171333
307 2 0.339346 0.285158 0.200636
309 4 0.349982 0.287998 0.223085
498 4 0.338836 0.285139 0.23975
417 4 0.165472 0.393397 0.17938
299 4 0.137996 0.337245 0.246646
728 4 0.306982 0.356545 0.206908
446 4 0.385704 0.369272 0.245722
445 2 0.41037 0.372508 0.243203
447 4 0.435035 0.375743 0.240685
644 4 0.446609 0.369283 0.226021
643 2 0.453984 0.388219 0.211454
597 4 0.45432 0.406297 0.17851
645 4 0.461359 0.407156 0.196887
1758 4 0.0584603 0.482072 0.244372
414 4 0.221546 0.476399 0.205093
412 2 0.230872 0.468186 0.22679
413 4 0.240198 0.459973 0.248486
229 2 0.447976 0.476708 0.232155
231 4 0.458132 0.453891 0.230961
427 2 0.0804011 0.0150677 0.324155
2755 2 0.0139008 0.0568342 0.32432
234 4 0.0211624 0.0324235 0.289096
232 2 0.0449544 0.0313289 0.281485
233 4 0.0687465 0.0302343 0.273875
1404 4 0.0817599 0.019142 0.28488
317 4 0.0810314 0.0379087 0.286133
2756 4 0.0185216 0.0445293 0.30305
2478 4 0.00552362 0.0471893 0.290115
428 4 0.0854195 0.025722 0.302099
316 2 0.0911279 0.0607099 0.287962
1402 2 0.0985059 0.00898075 0.269339
693 4 0.239958 0.0518302 0.260555
691 2 0.251668 0.0714132 0.27078
24 3 0.319872 0.0691064 0.275685
21 1 0.329136 0.0562601 0.258728
23 3 0.331819 0.034369 0.265938
22 3 0.349759 0.0648784 0.25329
349 2 0.389424 0.0651928 0.248513
351 4 0.414359 0.0633418 0.248576
480 4 0.429504 0.0490528 0.252619
479 4 0.457122 0.0324919 0.290877
478 2 0.443313 0.0407724 0.271748
2664 4 0.471454 0.0181425 0.28524
1428 4 0.453906 0.0163889 0.2907
258 4 0.451928 0.0239399 0.308556
2662 2 0.494552 0.0273745 0.287773
256 2 0.440657 0.0339784 0.32849
318 4 0.101224 0.0835112 0.28979
730 2 0.136566 0.0867579 0.314045
731 4 0.158972 0.0854636 0.325067
732 4 0.114161 0.0880523 0.303022
397 2 0.0807899 0.0992878 0.325347
399 4 0.0936703 0.0901041 0.305984
26 1 0.319221 0.153437 0.249155
721 2 0.265611 0.104322 0.31374
692 4 0.263379 0.0909962 0.281005
30 3 0.299186 0.14821 0.258638
723 4 0.278631 0.10117 0.292628
29 3 0.336407 0.142899 0.260644
632 4 0.356916 0.0855015 0.254731
631 2 0.354632 0.109649 0.2608
707 4 0.346718 0.142112 0.277826
633 4 0.352348 0.133797 0.26687
706 2 0.356323 0.160468 0.291825
443 4 0.00454199 0.252339 0.264366
546 4 0.143942 0.191611 0.258039
544 2 0.161534 0.207575 0.265838
545 4 0.179126 0.22354 0.273637
402 4 0.198066 0.229547 0.270725
473 4 0.216425 0.186649 0.331773
405 4 0.226405 0.169887 0.329692
27 3 0.32241 0.176192 0.250239
708 4 0.365929 0.178824 0.305824
442 2 0.0182669 0.248127 0.284837
444 4 0.0319917 0.243916 0.305309
343 2 0.213907 0.302749 0.255091
400 2 0.193082 0.253893 0.273483
401 4 0.188098 0.278239 0.276241
676 2 0.175817 0.299318 0.29803
345 4 0.19317 0.293527 0.265584
677 4 0.174884 0.291866 0.274182
735 4 0.17678 0.298098 0.255921
678 4 0.176751 0.306771 0.321879
510 4 0.182772 0.326015 0.319777
378 4 0.252159 0.266183 0.312866
376 2 0.274921 0.269569 0.303088
496 2 0.325046 0.282232 0.260403
497 4 0.311257 0.279325 0.281056
377 4 0.297682 0.272954 0.293309
541 2 0.366971 0.292167 0.302833
542 4 0.381306 0.274061 0.312416
420 4 0.4003 0.279193 0.31709
543 4 0.352635 0.310274 0.293251
615 4 0.348591 0.329915 0.289458
418 2 0.407931 0.261166 0.332645
365 4 0.0153815 0.389643 0.296496
601 2 0.048852 0.405106 0.319878
603 4 0.0341164 0.394337 0.302788
750 4 0.0760136 0.344302 0.256268
298 2 0.115869 0.345442 0.254916
300 4 0.0937428 0.353639 0.263187
508 2 0.200218 0.343763 0.317364
509 4 0.217664 0.361511 0.314951
433 2 0.307381 0.387477 0.333588
434 4 0.329613 0.3797 0.325194
614 4 0.335584 0.37526 0.306052
613 2 0.342087 0.352588 0.297755
1757 4 0.0345511 0.444925 0.267806
1756 2 0.0465057 0.463499 0.256089
264 4 0.0181879 0.440535 0.256092
776 4 0.0749048 0.498703 0.320846
775 2 0.0696482 0.494775 0.296719
1775 4 0.0686959 0.497833 0.255198
602 4 0.0635876 0.415875 0.336968
777 4 0.0643916 0.490847 0.272592
1436 4 0.233904 0.446008 0.262559
1435 2 0.248071 0.449851 0.2828
1437 4 0.262239 0.453693 0.303041
4 3 0.259629 0.449128 0.322137
3 3 0.290704 0.470229 0.31635
1 1 0.27621 0.461738 0.332357
1801 2 0.369928 0.481074 0.308245
1802 4 0.367546 0.462323 0.324613
119 3 0.50068 0.464776 0.317929
2757 4 0.00927993 0.0691391 0.34559
2585 4 0.0184201 0.0800202 0.358917
429 4 0.0753828 0.00441344 0.346212
606 4 0.157619 0.065698 0.329413
1781 4 0.104665 0.017499 0.406525
604 2 0.179743 0.0625157 0.340618
605 4 0.201868 0.0593333 0.351823
248 4 0.209623 0.0769502 0.35301
962 4 0.32944 0.0119848 0.415774
441 4 0.330746 0.00208754 0.400019
1701 4 0.340444 0.00659068 0.384494
425 4 0.346739 0.00533476 0.404363
699 4 0.369741 0.0508279 0.363559
698 4 0.4133 0.0547139 0.339304
1699 2 0.345842 0.0266628 0.370596
1700 4 0.35124 0.046735 0.356699
697 2 0.39152 0.0527709 0.351431
725 4 0.375993 0.074491 0.383168
424 2 0.369649 0.00404903 0.414294
257 4 0.429387 0.044017 0.348425
398 4 0.0679095 0.108471 0.34471
2584 2 0.0382932 0.0951002 0.3606
2586 4 0.0581663 0.11018 0.362284
458 4 0.0605157 0.127277 0.373043
457 2 0.0469819 0.14369 0.386182
459 4 0.033448 0.160102 0.399321
600 4 0.114008 0.141928 0.346305
598 2 0.120594 0.163823 0.356425
249 4 0.245333 0.111946 0.352137
247 2 0.227478 0.0944482 0.352574
404 4 0.246097 0.125563 0.341873
403 2 0.236251 0.147725 0.335783
722 4 0.25259 0.107474 0.334852
683 4 0.255842 0.125617 0.359632
682 2 0.276679 0.13273 0.371481
684 4 0.297516 0.139843 0.383331
320 4 0.311997 0.152462 0.38801
319 2 0.333432 0.15309 0.375152
724 2 0.386127 0.0877302 0.401802
321 4 0.354867 0.153719 0.362294
717 4 0.408447 0.152282 0.34562
261 4 0.0653497 0.207042 0.417206
260 4 0.0276617 0.174487 0.412674
259 2 0.0465057 0.190764 0.41494
687 4 0.0834914 0.200842 0.4117
599 4 0.12718 0.185718 0.366545
389 4 0.123429 0.21849 0.371018
686 4 0.116061 0.200195 0.373758
685 2 0.0997762 0.200518 0.392729
275 4 0.132993 0.202393 0.374119
274 2 0.157792 0.201834 0.370977
388 2 0.123088 0.243129 0.366781
474 4 0.199016 0.211318 0.371637
472 2 0.207721 0.198983 0.351705
276 4 0.182591 0.201276 0.367834
715 2 0.397538 0.166972 0.362661
716 4 0.386629 0.181663 0.379701
467 4 0.38491 0.189701 0.399294
269 4 0.408509 0.228158 0.359564
419 4 0.415563 0.243139 0.348201
270 4 0.448307 0.207471 0.381674
452 4 0.465173 0.218165 0.384685
268 2 0.428408 0.217815 0.370619
451 2 0.467066 0.219379 0.409587
346 2 0.0463257 0.326363 0.384106
347 4 0.0700815 0.31974 0.379985
618 4 0.0825849 0.305499 0.386983
616 2 0.0964638 0.293112 0.370276
390 4 0.122748 0.267769 0.362543
617 4 0.110343 0.280725 0.35357
374 4 0.127834 0.286233 0.358788
373 2 0.149743 0.29447 0.349993
375 4 0.171651 0.302707 0.341198
348 4 0.0225699 0.332986 0.388226
549 4 0.0820141 0.415279 0.344796
435 4 0.28515 0.395254 0.341982
334 2 0.329266 0.36302 0.408177
668 4 0.307229 0.392459 0.405757
336 4 0.305697 0.371192 0.406477
238 2 0.379233 0.384663 0.39562
239 4 0.395789 0.395514 0.380345
587 4 0.403998 0.411554 0.388162
335 4 0.352836 0.354849 0.409876
240 4 0.362677 0.373813 0.410896
752 4 0.485699 0.397092 0.381906
561 4 0.473325 0.3834 0.391004
751 2 0.492215 0.415408 0.366182
559 2 0.487351 0.377048 0.410704
548 4 0.0859788 0.436876 0.389724
407 4 0.0836096 0.456296 0.391878
500 4 0.0806501 0.492016 0.339805
499 2 0.0797262 0.483272 0.363211
501 4 0.0788023 0.474528 0.386618
547 2 0.0839965 0.426077 0.36726
1544 4 0.220731 0.492007 0.406961
1556 4 0.240805 0.492068 0.404677
436 2 0.327481 0.454868 0.332444
438 4 0.302916 0.459368 0.333678
5 3 0.266828 0.478797 0.344174
2 3 0.288066 0.448211 0.346696
1557 4 0.290506 0.497225 0.406674
1555 2 0.265655 0.494646 0.405676
437 4 0.352045 0.450367 0.331211
586 2 0.402799 0.436463 0.389976
593 4 0.404081 0.475593 0.377743
588 4 0.4016 0.461372 0.391789
712 2 0.470416 0.48609 0.334605
714 4 0.490458 0.471142 0.334412
713 4 0.450374 0.501039 0.334798
592 2 0.420724 0.488005 0.363811
753 4 0.498731 0.433725 0.350459
117 3 0.493329 0.456079 0.353747
1772 4 0.000607419 0.0103708 0.447086
720 4 0.0105959 0.0202377 0.459772
367 2 0.0857483 0.0299093 0.441617
369 4 0.068732 0.0318583 0.459834
719 4 0.0549472 0.0404666 0.470929
718 2 0.0327716 0.0303521 0.465351
368 4 0.102764 0.0279603 0.423401
961 2 0.31691 0.0271645 0.431193
963 4 0.30438 0.0423442 0.446613
432 4 0.300674 0.0606231 0.453896
430 2 0.315395 0.0701925 0.471697
431 4 0.330117 0.079762 0.489498
726 4 0.396261 0.100969 0.420435
640 2 0.481177 0.100335 0.437716
641 4 0.461535 0.100671 0.453185
1035 4 0.0820082 0.214044 0.425867
1033 2 0.0817779 0.231059 0.444187
1034 4 0.0815476 0.248074 0.462507
696 4 0.078508 0.24785 0.480949
487 2 0.330064 0.245207 0.446291
466 2 0.392328 0.189465 0.423171
468 4 0.399746 0.18923 0.447048
411 4 0.352509 0.224371 0.475831
409 2 0.373773 0.212706 0.46975
410 4 0.395036 0.201042 0.463669
266 4 0.347878 0.243546 0.482294
489 4 0.339603 0.235474 0.467255
575 4 0.410351 0.195402 0.476127
516 4 0.410822 0.199639 0.45778
574 2 0.41631 0.190406 0.49989
514 2 0.431851 0.21214 0.452612
515 4 0.45288 0.22464 0.447443
453 4 0.468959 0.220593 0.434489
2802 4 0.00351237 0.300366 0.425092
1260 4 0.0803938 0.264851 0.470619
1258 2 0.0970167 0.283367 0.468166
1259 4 0.11364 0.301883 0.465713
9 3 0.133434 0.301006 0.449712
7 3 0.11977 0.313564 0.482396
6 1 0.133609 0.318678 0.464748
8 3 0.155113 0.322014 0.4728
327 4 0.109213 0.326755 0.465799
488 4 0.320525 0.25494 0.425328
265 2 0.357477 0.261451 0.496869
1009 2 0.465653 0.303658 0.492383
1011 4 0.470814 0.328098 0.493497
1010 4 0.460493 0.279218 0.491269
326 4 0.0647942 0.3497 0.466885
10 3 0.126098 0.337616 0.454569
325 2 0.0870038 0.338228 0.466342
709 2 0.15446 0.405418 0.485388
711 4 0.140493 0.399816 0.46542
667 2 0.311754 0.413277 0.418845
3309 4 0.486299 0.371676 0.442658
3307 2 0.479885 0.355014 0.460163
3308 4 0.47347 0.338352 0.477667
1381 2 0.0192795 0.483992 0.456839
1383 4 0.0168466 0.462487 0.444317
680 4 0.0121755 0.448621 0.457412
406 2 0.0947078 0.463581 0.413066
384 4 0.127645 0.416219 0.467523
382 2 0.121834 0.436647 0.454328
408 4 0.105806 0.470866 0.434255
568 2 0.144959 0.487929 0.44288
383 4 0.116024 0.457076 0.441134
569 4 0.12529 0.472753 0.440052
1543 2 0.203043 0.49748 0.423764
774 4 0.33402 0.443079 0.43628
636 4 0.309069 0.497547 0.41485
669 4 0.31628 0.434095 0.431933
634 2 0.313446 0.475158 0.425084
635 4 0.317824 0.452768 0.435318
773 4 0.368823 0.428088 0.46891
772 2 0.351422 0.435583 0.452595
663 4 0.488618 0.480512 0.442527
1152 4 0.196101 0.0703881 0.53645
342 4 0.192959 0.0518336 0.529083
340 2 0.189393 0.0292785 0.518899
1150 2 0.213763 0.0831517 0.548709
341 4 0.185827 0.00672331 0.508714
949 2 0.29778 0.0303271 0.575535
951 4 0.290364 0.053368 0.569266
1031 4 0.285221 0.0732398 0.57324
1217 4 0.400938 0.0417856 0.509827
842 4 0.381803 0.050222 0.507649
841 2 0.362531 0.0660307 0.505683
843 4 0.343259 0.0818394 0.503718
1216 2 0.421959 0.0549228 0.513096
1218 4 0.442981 0.06806 0.516365
3007 2 0.496734 0.0611585 0.583578
1270 2 0.0736969 0.145695 0.576751
1271 4 0.0856543 0.125939 0.567164
1058 4 0.08531 0.123861 0.507098
1057 2 0.0895051 0.119008 0.531265
1059 4 0.0937002 0.114156 0.555431
1155 4 0.104709 0.125226 0.568803
939 4 0.0967119 0.10916 0.573112
1153 2 0.129348 0.128657 0.571321
1221 4 0.159651 0.149503 0.582214
1154 4 0.153987 0.132087 0.573839
1151 4 0.231426 0.0959153 0.560969
1180 2 0.226617 0.135237 0.561468
1181 4 0.221751 0.111832 0.568797
1182 4 0.231484 0.158641 0.554139
1032 4 0.248679 0.105195 0.56123
1030 2 0.26695 0.0892175 0.567235
1198 2 0.00920929 0.236545 0.55726
1199 4 0.0318116 0.233779 0.567588
878 4 0.0475696 0.231699 0.580559
877 2 0.0555032 0.208063 0.582459
695 4 0.0804847 0.235699 0.529417
694 2 0.0794963 0.241774 0.505183
900 4 0.21886 0.175474 0.552991
898 2 0.237119 0.186953 0.540343
899 4 0.255379 0.198433 0.527695
650 4 0.263119 0.211384 0.513973
649 2 0.25609 0.235158 0.510722
576 4 0.422269 0.18541 0.523654
982 2 0.00741157 0.301599 0.587742
856 2 0.212296 0.269351 0.531812
857 4 0.192595 0.275427 0.545958
798 4 0.206008 0.273159 0.574775
947 4 0.188426 0.269208 0.564275
946 2 0.173268 0.281361 0.580014
858 4 0.231997 0.263276 0.517665
651 4 0.249061 0.258932 0.507471
267 4 0.367077 0.279356 0.511445
954 4 0.485799 0.270355 0.573261
2457 4 0.478471 0.276472 0.501983
2455 2 0.495013 0.257988 0.498837
502 2 0.196751 0.378861 0.51197
504 4 0.184979 0.400331 0.506908
503 4 0.208523 0.35739 0.517032
710 4 0.168427 0.411021 0.505356
803 4 0.261152 0.359182 0.575586
804 4 0.281122 0.372614 0.531751
802 2 0.271137 0.365898 0.553669
930 4 0.318322 0.386154 0.571711
928 2 0.342401 0.384258 0.565249
929 4 0.366481 0.382361 0.558787
881 4 0.363119 0.36789 0.54345
880 2 0.379346 0.350422 0.535917
882 4 0.395572 0.332953 0.528385
1002 4 0.44903 0.412996 0.588581
539 4 0.100149 0.43872 0.548984
540 4 0.110057 0.475746 0.581103
2244 4 0.102668 0.492777 0.579634
538 2 0.105103 0.457233 0.565044
2154 4 0.232197 0.489205 0.55554
2152 2 0.253979 0.493326 0.567105
2153 4 0.275761 0.497447 0.57867
1909 2 0.439611 0.485474 0.567812
1910 4 0.426546 0.492765 0.547779
1081 2 0.0738502 0.0718004 0.64308
1083 4 0.0734352 0.0722253 0.618083
1126 2 0.0332619 0.0841069 0.598034
1127 4 0.0551056 0.0790684 0.609108
938 4 0.0854865 0.0698787 0.601951
824 4 0.191496 0.00662312 0.664349
950 4 0.305195 0.00728607 0.581804
3008 4 0.494768 0.0548185 0.607684
809 4 0.477903 0.0437097 0.610096
808 2 0.467465 0.0504515 0.631793
810 4 0.457027 0.0571933 0.65349
1128 4 0.0114181 0.0891454 0.586959
1272 4 0.0617396 0.165451 0.586338
3477 4 0.999379 0.0930547 0.601289
937 2 0.0910992 0.0895196 0.587532
1219 2 0.164187 0.161597 0.603623
1192 2 0.319446 0.150309 0.644459
886 2 0.268683 0.1637 0.657651
1194 4 0.304062 0.142315 0.662476
887 4 0.289794 0.154077 0.666974
1193 4 0.334831 0.158303 0.626443
45 3 0.454606 0.0795938 0.653761
3424 2 0.485821 0.107319 0.666488
1244 4 0.057774 0.249644 0.582309
879 4 0.0634367 0.184428 0.584358
1220 4 0.168723 0.173691 0.625031
1212 4 0.189181 0.171704 0.627087
1210 2 0.209314 0.172713 0.64188
1211 4 0.229446 0.173722 0.656674
888 4 0.247573 0.173323 0.648327
983 4 0.0304142 0.295219 0.595181
1245 4 0.0465811 0.29241 0.605686
1243 2 0.0521776 0.271027 0.593997
948 4 0.15811 0.293514 0.595753
1135 2 0.164385 0.324445 0.613291
822 4 0.139275 0.320404 0.660959
820 2 0.142221 0.296126 0.666163
1136 4 0.168922 0.299929 0.611411
796 2 0.226819 0.271235 0.5885
797 4 0.24763 0.269311 0.602225
791 4 0.258037 0.285893 0.598637
790 2 0.271523 0.306486 0.594248
792 4 0.285009 0.327078 0.589858
872 4 0.327914 0.276461 0.591034
871 2 0.347982 0.28983 0.597647
813 4 0.375556 0.321386 0.6016
873 4 0.368049 0.303199 0.60426
3123 4 0.482193 0.258835 0.657737
952 2 0.49391 0.28438 0.592305
1041 4 0.0503504 0.382984 0.622696
3264 4 0.0466342 0.37017 0.637258
3240 4 0.0351627 0.385559 0.634082
3238 2 0.0171802 0.395471 0.648349
1039 2 0.0687121 0.379829 0.606021
3262 2 0.0561884 0.353845 0.65361
1064 4 0.151511 0.336392 0.663902
1137 4 0.159847 0.348962 0.61517
1040 4 0.0870738 0.376674 0.589345
993 4 0.103169 0.378186 0.6012
991 2 0.126829 0.370279 0.602892
992 4 0.150489 0.362371 0.604585
897 4 0.163824 0.36786 0.617797
1189 2 0.240114 0.364014 0.599054
896 4 0.208089 0.390939 0.614847
895 2 0.185956 0.3794 0.616322
1172 4 0.233787 0.394181 0.594512
1191 4 0.225697 0.381809 0.609087
1063 2 0.174969 0.345025 0.66448
1238 4 0.295152 0.33224 0.606484
1190 4 0.25453 0.346219 0.58902
1239 4 0.316925 0.37345 0.588363
1237 2 0.306038 0.352845 0.597423
806 4 0.251786 0.373823 0.66873
811 2 0.384504 0.343853 0.595246
1204 2 0.375777 0.381153 0.639848
1205 4 0.371809 0.387964 0.663576
1206 4 0.379746 0.374342 0.616119
927 4 0.395388 0.379177 0.605255
812 4 0.393451 0.36632 0.588892
925 2 0.412752 0.394151 0.595283
926 4 0.430117 0.409125 0.585311
1160 4 0.121843 0.48846 0.58654
1159 2 0.146348 0.490868 0.590888
1161 4 0.170852 0.493277 0.595236
1188 4 0.168093 0.475997 0.605681
1171 2 0.226328 0.416335 0.603386
1186 2 0.189353 0.465159 0.613148
1173 4 0.218869 0.43849 0.612259
1187 4 0.210613 0.454322 0.620615
2172 4 0.184409 0.488361 0.66145
1140 4 0.24872 0.434698 0.669823
1911 4 0.452676 0.478183 0.587846
1001 4 0.453937 0.461426 0.600034
1000 2 0.451484 0.437211 0.594308
1269 4 0.462475 0.477837 0.604266
1267 2 0.455467 0.492489 0.623276
1082 4 0.0742652 0.0713755 0.668077
943 2 0.0650131 0.0264967 0.678794
1076 4 0.0772743 0.060288 0.685729
1075 2 0.0787073 0.0778538 0.703465
945 4 0.045785 0.0105439 0.679777
4520 4 0.0334344 0.997274 0.686554
944 4 0.0842412 0.0424495 0.67781
1283 4 0.156918 0.0481837 0.701096
825 4 0.172868 0.0363531 0.699984
1149 4 0.218998 0.0559805 0.716136
823 2 0.182182 0.0214881 0.682167
1147 2 0.235221 0.0663694 0.700197
1282 2 0.165699 0.071527 0.702878
1148 4 0.251445 0.0767584 0.684258
1092 4 0.313842 0.00901995 0.674067
41 1 0.449612 0.0712729 0.674364
43 3 0.427079 0.07442 0.678924
42 3 0.454199 0.0487351 0.674748
1163 4 0.466411 0.0594758 0.69033
1162 2 0.482777 0.0478866 0.705264
2321 4 0.494147 0.0303793 0.737544
44 3 0.46251 0.0818302 0.690506
1164 4 0.499142 0.0362975 0.720199
864 4 0.0676409 0.0952078 0.737226
1077 4 0.0801403 0.0954196 0.721201
851 4 0.0797749 0.115172 0.718007
850 2 0.0670443 0.131411 0.703886
852 4 0.0543136 0.147651 0.689766
1107 4 0.081565 0.107975 0.735557
862 2 0.048397 0.0881252 0.751533
1284 4 0.174479 0.0948702 0.704659
909 4 0.177809 0.114658 0.71161
907 2 0.195237 0.125122 0.697052
908 4 0.212664 0.135586 0.682493
1227 4 0.225382 0.133581 0.66802
1225 2 0.240205 0.113643 0.670842
1226 4 0.255027 0.0937059 0.673664
829 2 0.309288 0.125606 0.695613
1005 4 0.321897 0.0883204 0.708395
830 4 0.300006 0.143703 0.681069
831 4 0.31857 0.107509 0.710157
1003 2 0.330306 0.0852226 0.731737
3425 4 0.46698 0.0913684 0.670456
1113 4 0.473814 0.108692 0.726676
1111 2 0.473771 0.0903165 0.743632
1025 4 0.430923 0.166629 0.675348
1177 2 0.0172022 0.247971 0.722775
1130 4 0.143763 0.239686 0.739864
1208 4 0.134822 0.240808 0.722935
1074 4 0.125779 0.245088 0.740601
1207 2 0.142476 0.247856 0.700199
976 2 0.319068 0.220227 0.733706
977 4 0.305327 0.233272 0.750022
978 4 0.332809 0.207181 0.717391
918 4 0.289092 0.244376 0.746818
1024 2 0.441098 0.178203 0.695038
1142 4 0.457203 0.185267 0.732507
1144 2 0.490405 0.179164 0.72354
1262 4 0.462431 0.203231 0.705052
1026 4 0.451274 0.189777 0.714727
1261 2 0.465871 0.227731 0.701435
1145 4 0.469944 0.192904 0.719326
1263 4 0.469312 0.252232 0.697818
1179 4 0.0384324 0.26108 0.721158
1072 2 0.103841 0.256902 0.738521
821 4 0.145168 0.271848 0.671367
1209 4 0.150131 0.254903 0.677463
1073 4 0.0819028 0.268717 0.73644
1019 4 0.391407 0.283459 0.709896
1018 2 0.375261 0.299795 0.700016
1020 4 0.359116 0.316132 0.690135
3263 4 0.0657426 0.337519 0.669961
892 2 0.0228201 0.347814 0.73234
1279 2 0.0533231 0.395587 0.747868
894 4 0.0409362 0.360806 0.743662
1280 4 0.056747 0.370966 0.745171
816 4 0.0579828 0.3514 0.743514
814 2 0.0816574 0.344005 0.740348
815 4 0.105332 0.336611 0.737183
1065 4 0.198428 0.353658 0.665058
807 4 0.213413 0.341759 0.668408
1028 4 0.229007 0.389641 0.715321
1066 2 0.195493 0.368202 0.738577
1068 4 0.213283 0.379376 0.725018
1027 2 0.232084 0.408163 0.698809
805 2 0.2326 0.357791 0.668569
1281 4 0.0498992 0.420207 0.750566
1983 4 0.0489741 0.438059 0.739439
1981 2 0.0688847 0.450353 0.748248
1176 4 0.168451 0.488843 0.726903
1175 4 0.208102 0.461409 0.740162
1174 2 0.188276 0.475126 0.733532
1029 4 0.235161 0.426685 0.682297
1138 2 0.267692 0.449029 0.677559
1139 4 0.286665 0.46336 0.685295
1987 2 0.279589 0.450576 0.73185
1229 4 0.296578 0.469864 0.700109
1989 4 0.285466 0.46801 0.714919
2028 4 0.282393 0.478551 0.697499
1228 2 0.320229 0.463068 0.695677
1988 4 0.273712 0.433141 0.748782
1230 4 0.343879 0.456271 0.691244
1099 2 0.440575 0.49405 0.678169
1100 4 0.431885 0.478167 0.695414
2989 2 0.0300101 0.0445762 0.786419
2990 4 0.0255247 0.0681469 0.779385
2991 4 0.0344955 0.0210055 0.793454
863 4 0.0291531 0.0810427 0.76584
3083 4 0.0127054 0.0806434 0.770365
2047 2 0.128703 0.00262367 0.777757
2049 4 0.112913 0.0218983 0.77984
1202 4 0.104097 0.0359388 0.790554
1201 2 0.119058 0.0559658 0.791049
1203 4 0.13402 0.0759928 0.791544
32 3 0.146515 0.0833631 0.808614
817 2 0.331666 0.0457108 0.804559
819 4 0.323757 0.0689097 0.809503
1050 4 0.344829 0.00545479 0.764648
1004 4 0.338716 0.0821248 0.755079
973 2 0.36314 0.00203675 0.795014
818 4 0.339574 0.0225118 0.799615
974 4 0.344592 0.0140478 0.783315
2322 4 0.489166 0.0501398 0.78321
845 4 0.474634 0.0609629 0.777426
1112 4 0.473727 0.0719408 0.760588
844 2 0.466443 0.0725709 0.798001
2320 2 0.491657 0.0402596 0.760377
833 4 0.0234154 0.0861899 0.78466
832 2 0.0246891 0.107127 0.798268
834 4 0.0259628 0.128065 0.811876
1125 4 0.024667 0.128063 0.832453
1105 2 0.101729 0.106243 0.75024
1106 4 0.121894 0.104511 0.764922
911 4 0.140214 0.103066 0.81723
34 3 0.131476 0.0940525 0.775869
31 1 0.147569 0.0990483 0.79182
35 3 0.143669 0.119701 0.80059
33 3 0.168693 0.0983746 0.782243
1256 4 0.226454 0.111202 0.811019
840 4 0.221525 0.118672 0.828943
1255 2 0.24567 0.105285 0.796155
1085 4 0.323278 0.084981 0.800255
1257 4 0.264885 0.0993688 0.781291
1084 2 0.302772 0.0905413 0.787072
1086 4 0.282266 0.0961017 0.773889