ITEM: TIMESTEP
1040000
ITEM: NUMBER OF ATOMS
4590
ITEM: BOX BOUNDS pp pp pp
-9.9985700000000008e+00 9.9985700000000008e+00
-9.9985700000000008e+00 9.9985700000000008e+00
-9.9985700000000008e+00 9.9985700000000008e+00
ITEM: ATOMS id type xs ys zs
463 2 0.0186388 0.0457518 0.0330553
465 4 0.0369622 0.0506257 0.0493549
1667 4 0.0452946 0.0457783 0.0659278
701 4 0.0504372 0.0623122 0.0559385
590 4 0.0368463 0.0622623 0.0661913
700 2 0.0680291 0.0756562 0.0442065
589 2 0.0251437 0.0804983 0.0786683
464 4 0.000315379 0.0408778 0.0167557
534 4 0.246268 0.062646 0.0086819
565 2 0.17254 0.0782386 0.0348006
567 4 0.181335 0.0645678 0.0158024
533 4 0.196639 0.0570095 0.00623815
532 2 0.221454 0.0598277 0.00746003
490 2 0.303716 0.0370343 0.0531833
491 4 0.325891 0.041404 0.0638762
492 4 0.281541 0.0326646 0.0424903
2264 4 0.274279 0.0257378 0.0251711
2263 2 0.28283 0.0133436 0.00520978
296 4 0.33378 0.0463266 0.0809445
557 4 0.341891 0.0531081 0.064223
556 2 0.343991 0.0759118 0.054185
745 2 0.477352 0.0646732 0.0306056
746 4 0.469262 0.0432278 0.0405966
3232 2 0.999969 0.117257 0.0205232
3233 4 0.0172857 0.108692 0.00464997
702 4 0.085621 0.0890001 0.0324744
423 4 0.0869296 0.105843 0.0210462
421 2 0.10846 0.113574 0.0109546
566 4 0.163745 0.0919095 0.0537989
558 4 0.34609 0.0987155 0.044147
867 4 0.361126 0.153148 0.00624686
747 4 0.485443 0.0861186 0.0206146
2975 4 0.466441 0.0918339 0.0148326
629 4 0.425059 0.165905 0.0836078
554 4 0.0492607 0.212717 0.0316667
553 2 0.0588868 0.231059 0.0176643
555 4 0.068513 0.249402 0.00366185
915 4 0.14574 0.230668 0.9998
835 2 0.11169 0.249472 0.00256808
837 4 0.136536 0.248413 0.00516289
355 2 0.222637 0.2394 0.014478
357 4 0.235825 0.235262 0.0353134
322 2 0.404527 0.239325 0.0570399
324 4 0.393711 0.219464 0.0677049
665 4 0.34597 0.237655 0.00229184
771 4 0.434511 0.171185 0.0664933
769 2 0.443407 0.178371 0.0442583
1012 2 0.488691 0.174237 0.00253861
770 4 0.452302 0.185558 0.0220232
1013 4 0.466339 0.172465 0.0136035
827 4 0.452348 0.180707 0.00347045
1055 4 0.078193 0.263642 0.0120618
1054 2 0.0715329 0.286499 0.00442163
1170 4 0.061066 0.328843 0.00125236
292 2 0.130607 0.291328 0.0406148
293 4 0.142563 0.311638 0.0322617
507 4 0.147897 0.330595 0.0329027
294 4 0.118652 0.271019 0.0489678
288 4 0.151374 0.319965 0.0169791
836 4 0.0868436 0.25053 0.999973
664 2 0.327642 0.246492 0.0168239
666 4 0.309315 0.255329 0.0313559
572 4 0.290662 0.260036 0.0328531
571 2 0.283522 0.264143 0.0564609
573 4 0.276382 0.26825 0.0800687
461 4 0.3439 0.275106 0.0569669
1071 4 0.381246 0.31201 0.0222189
1069 2 0.389639 0.290129 0.0309369
1070 4 0.398032 0.268249 0.0396549
323 4 0.415344 0.259185 0.0463748
956 4 0.36841 0.324345 0.0129186
671 4 0.451895 0.322203 0.0605626
281 4 0.438637 0.310398 0.0494293
280 2 0.446854 0.318831 0.0273713
282 4 0.45507 0.327264 0.0053133
286 2 0.139169 0.334467 0.000672233
505 2 0.16277 0.339792 0.0507738
506 4 0.177643 0.348989 0.068645
483 4 0.176942 0.370587 0.0683589
481 2 0.199377 0.375443 0.0782727
252 4 0.323408 0.387518 0.0515258
250 2 0.315965 0.371798 0.0335625
251 4 0.308523 0.356079 0.0155991
525 4 0.330028 0.392098 0.0703139
523 2 0.318841 0.408833 0.0851453
608 4 0.338022 0.378414 0.0599237
607 2 0.347009 0.3616 0.0761008
670 2 0.440366 0.334667 0.0789174
245 4 0.266586 0.444556 0.0465052
244 2 0.277718 0.46162 0.0320104
246 4 0.28885 0.478684 0.0175156
272 4 0.301695 0.493622 0.0239081
37 3 0.412493 0.421615 0.00543718
227 4 0.471892 0.477534 0.0796806
1806 4 0.0557622 0.00749346 0.116258
1421 4 0.0360035 0.0105953 0.116872
1666 2 0.0454037 0.0275594 0.083052
1668 4 0.0455128 0.00934056 0.100176
1420 2 0.026557 0.0229059 0.136478
1422 4 0.0171105 0.0352166 0.156084
1804 2 0.0802725 0.00689408 0.121164
2480 4 0.0101505 0.0483014 0.16158
17 3 0.0513871 0.0706782 0.159533
1805 4 0.104783 0.0062947 0.126069
450 4 0.131283 0.0678838 0.165561
1506 4 0.235803 0.0240698 0.157837
652 2 0.311811 0.0594639 0.141058
653 4 0.308984 0.0350382 0.136523
295 2 0.347132 0.0323336 0.0967909
297 4 0.360483 0.0183405 0.112637
485 4 0.358844 0.99939 0.113679
758 4 0.426076 0.0439988 0.131783
757 2 0.419476 0.0509979 0.154862
1759 2 0.472859 0.0111809 0.166015
591 4 0.0134412 0.0987344 0.0911453
2760 4 0.00097592 0.115036 0.0938549
380 4 0.00752578 0.14505 0.165812
237 4 0.1865 0.146813 0.140115
235 2 0.181494 0.132509 0.160003
737 4 0.184457 0.160222 0.125391
654 4 0.314638 0.0838895 0.145594
582 4 0.300511 0.0961924 0.150246
339 4 0.0852665 0.224967 0.128482
477 4 0.0960802 0.208008 0.124613
475 2 0.112002 0.188745 0.125393
476 4 0.127924 0.169482 0.126172
337 2 0.0945508 0.23585 0.14899
363 4 0.122518 0.252216 0.175603
738 4 0.210523 0.202882 0.124176
736 2 0.19749 0.181552 0.124783
354 4 0.260087 0.21585 0.11473
352 2 0.271335 0.234377 0.102264
283 2 0.263615 0.195117 0.151634
284 4 0.254437 0.207701 0.132074
628 2 0.407848 0.180752 0.0940252
630 4 0.390636 0.195598 0.104443
254 4 0.388018 0.208203 0.119247
253 2 0.378463 0.230094 0.111853
456 4 0.0928921 0.3318 0.126657
535 2 0.229941 0.285859 0.131409
537 4 0.217143 0.300311 0.147301
536 4 0.242739 0.271407 0.115518
353 4 0.282583 0.252905 0.089799
754 2 0.285501 0.288212 0.108056
755 4 0.291934 0.271772 0.0903498
756 4 0.279067 0.304652 0.125763
612 4 0.271636 0.316074 0.139941
610 2 0.288477 0.332641 0.148132
460 2 0.345945 0.264846 0.0796769
255 4 0.368908 0.251985 0.104459
462 4 0.347989 0.254587 0.102387
623 4 0.337252 0.320063 0.14682
622 2 0.347325 0.297744 0.15188
624 4 0.357398 0.275426 0.156941
528 4 0.469128 0.320706 0.146763
620 4 0.0304114 0.367221 0.160644
621 4 0.0112402 0.381492 0.116717
619 2 0.0208258 0.374356 0.13868
454 2 0.0844909 0.341992 0.147887
482 4 0.221812 0.380299 0.0881865
626 4 0.256976 0.383861 0.16568
625 2 0.269271 0.393676 0.146246
627 4 0.281565 0.403492 0.126812
387 4 0.322849 0.351839 0.150618
611 4 0.305318 0.349208 0.156323
302 4 0.315144 0.365577 0.162037
385 2 0.337115 0.350716 0.130114
741 4 0.41237 0.347846 0.108049
609 4 0.355997 0.344786 0.0922779
740 4 0.364709 0.333272 0.10396
386 4 0.35138 0.349594 0.10961
739 2 0.38854 0.340559 0.106005
13 3 0.409343 0.382938 0.132371
672 4 0.428836 0.347131 0.0972722
15 3 0.43437 0.393411 0.106262
11 1 0.429663 0.377972 0.122329
526 2 0.466029 0.34548 0.148118
12 3 0.428284 0.357148 0.112654
14 3 0.446527 0.377737 0.138265
495 4 0.46478 0.385178 0.146324
493 2 0.478418 0.398524 0.130166
527 4 0.46293 0.370254 0.149473
597 4 0.472829 0.378691 0.163954
645 4 0.453755 0.381494 0.156368
1787 4 0.0455615 0.45912 0.094419
1786 2 0.0379457 0.480425 0.105063
1465 2 0.0109761 0.49858 0.149963
417 4 0.161122 0.475134 0.167742
639 4 0.260197 0.498182 0.112332
524 4 0.307655 0.425568 0.0999767
637 2 0.275307 0.486376 0.128378
638 4 0.290416 0.47457 0.144425
767 4 0.291245 0.462606 0.160031
660 4 0.388408 0.453714 0.171862
494 4 0.492057 0.411869 0.114009
226 2 0.461198 0.493905 0.0952627
19 3 0.0279183 0.0433473 0.170252
16 1 0.0452775 0.0571387 0.177097
18 3 0.0383104 0.0704639 0.194769
20 3 0.0631648 0.0445499 0.183439
673 2 0.127568 0.0279083 0.2257
675 4 0.111708 0.0345891 0.207561
674 4 0.143428 0.0212276 0.243838
1505 4 0.227263 0.051011 0.199092
1504 2 0.231533 0.0375404 0.178465
689 4 0.219523 0.0585217 0.21109
688 2 0.213195 0.044754 0.230979
692 4 0.216527 0.0662943 0.197262
28 3 0.234708 0.0686896 0.202841
690 4 0.206867 0.0309864 0.250869
27 3 0.264222 0.071693 0.225918
1495 2 0.391439 0.00378021 0.238637
21 1 0.40832 0.0545001 0.218249
24 3 0.389453 0.0409982 0.218645
759 4 0.412876 0.057997 0.177941
22 3 0.403039 0.0749283 0.227411
1496 4 0.391415 0.0213605 0.220857
1761 4 0.448554 0.0166572 0.163907
312 4 0.412663 0.0720173 0.182604
25 3 0.415288 0.0574867 0.196774
23 3 0.425262 0.0448068 0.230794
742 2 0.458617 0.0252037 0.236027
744 4 0.444867 0.0460648 0.23506
743 4 0.472367 0.00434262 0.236994
578 4 0.0558327 0.148447 0.238178
511 2 0.0222439 0.160671 0.236833
513 4 0.0454699 0.163693 0.245585
448 2 0.149079 0.0845895 0.170984
546 4 0.15043 0.119845 0.251152
721 2 0.161788 0.119075 0.21351
722 4 0.158579 0.129214 0.236139
449 4 0.166875 0.101295 0.176407
723 4 0.164997 0.108937 0.19088
236 4 0.176488 0.118206 0.179891
691 2 0.20004 0.0838503 0.190541
693 4 0.183554 0.101406 0.18382
29 3 0.238923 0.0994642 0.22474
26 1 0.250014 0.0834336 0.212154
30 3 0.262124 0.0934877 0.195694
580 2 0.288125 0.102503 0.171029
581 4 0.275738 0.108813 0.191811
310 2 0.402032 0.094641 0.183193
311 4 0.391402 0.117265 0.183782
333 4 0.444875 0.155381 0.222496
338 4 0.103835 0.246733 0.169497
361 2 0.147518 0.252655 0.175704
285 4 0.272794 0.182533 0.171193
331 2 0.454131 0.169699 0.240785
395 4 0.0375912 0.251653 0.204985
394 2 0.0352369 0.259438 0.228629
703 2 0.0277516 0.330184 0.182598
704 4 0.0195676 0.308184 0.191211
748 2 0.0928366 0.283254 0.228545
749 4 0.0974549 0.272713 0.206347
750 4 0.0882182 0.293794 0.250743
362 4 0.172517 0.253095 0.175806
372 4 0.184926 0.268804 0.173505
370 2 0.202225 0.275616 0.190223
371 4 0.219525 0.282428 0.206941
279 4 0.236146 0.286374 0.198781
277 2 0.255475 0.293698 0.184712
344 4 0.279909 0.31715 0.222874
278 4 0.274805 0.301022 0.170644
307 2 0.331434 0.259978 0.244942
343 2 0.295907 0.306305 0.238737
764 4 0.360306 0.252789 0.221881
309 4 0.346103 0.243926 0.2326
763 2 0.361762 0.261497 0.198488
765 4 0.363218 0.270204 0.175095
455 4 0.0760897 0.352184 0.169118
705 4 0.0359356 0.352185 0.173985
648 4 0.0284472 0.368954 0.179579
647 4 0.00780772 0.403931 0.208757
646 2 0.0181274 0.386442 0.194168
300 4 0.152405 0.360862 0.218011
298 2 0.147511 0.359299 0.242481
290 4 0.207737 0.400773 0.223507
301 2 0.332161 0.376017 0.177091
303 4 0.349178 0.386456 0.192145
729 4 0.356513 0.387913 0.212093
727 2 0.346625 0.378286 0.232943
595 2 0.492142 0.382177 0.179448
446 4 0.435836 0.342274 0.238961
445 2 0.432141 0.362648 0.224946
447 4 0.428445 0.383021 0.210931
643 2 0.43889 0.38732 0.17561
644 4 0.424024 0.393145 0.194852
262 2 0.0743996 0.481535 0.235213
603 4 0.0204086 0.421687 0.241053
263 4 0.0736313 0.456733 0.232132
602 4 0.0655267 0.443071 0.243849
601 2 0.0429677 0.432379 0.242451
1430 4 0.172176 0.491395 0.164696
289 2 0.204751 0.419934 0.207724
415 2 0.176651 0.464816 0.184404
416 4 0.192179 0.454499 0.201065
291 4 0.201764 0.439096 0.191941
413 4 0.177276 0.447783 0.250244
768 4 0.272391 0.440995 0.200996
766 2 0.281818 0.4518 0.180514
659 4 0.423233 0.453659 0.207751
658 2 0.40582 0.453686 0.189806
530 4 0.0244875 0.0669229 0.295134
232 2 0.0158978 0.0379211 0.322432
233 4 0.0335521 0.0275819 0.308059
1402 2 0.0532908 0.00233725 0.280911
1403 4 0.0477065 0.0180424 0.299548
316 2 0.06369 0.0574828 0.309275
317 4 0.048761 0.038293 0.303439
318 4 0.0786191 0.0766726 0.31511
1701 4 0.263136 0.0314622 0.287428
1700 4 0.25062 0.0163194 0.333415
1699 2 0.256878 0.0238908 0.310422
248 4 0.280222 0.0710739 0.308341
1749 4 0.452098 0.0177314 0.305179
480 4 0.437432 0.0156395 0.317779
351 4 0.460864 0.0767074 0.294238
529 2 0.00916777 0.0863472 0.291504
577 2 0.0675463 0.136823 0.256962
579 4 0.07926 0.125199 0.275747
398 4 0.0839916 0.0945917 0.319635
544 2 0.137279 0.134588 0.266477
545 4 0.124128 0.149332 0.281802
392 4 0.13251 0.158221 0.297249
600 4 0.153513 0.107056 0.315585
731 4 0.097619 0.0796009 0.318724
732 4 0.142078 0.0984332 0.331741
730 2 0.119849 0.089017 0.325232
598 2 0.178493 0.106139 0.314988
599 4 0.203472 0.105222 0.314391
403 2 0.273617 0.15813 0.308775
404 4 0.275734 0.135859 0.319942
247 2 0.278815 0.0943618 0.317334
249 4 0.277408 0.11765 0.326327
631 2 0.407246 0.151244 0.286987
632 4 0.424077 0.13358 0.292452
349 2 0.448665 0.098462 0.295996
350 4 0.436465 0.120217 0.297753
452 4 0.432591 0.134867 0.310043
444 4 0.0330663 0.244049 0.315812
2655 4 0.0388432 0.236358 0.333282
391 2 0.126249 0.179625 0.308556
393 4 0.119989 0.20103 0.319862
405 4 0.2715 0.180401 0.297608
633 4 0.390415 0.168909 0.281522
707 4 0.381718 0.179499 0.296046
706 2 0.372805 0.198034 0.310266
708 4 0.363893 0.21657 0.324485
520 2 0.501823 0.194702 0.260526
521 4 0.477291 0.199501 0.261068
332 4 0.463387 0.184018 0.259074
762 4 0.468744 0.191071 0.275636
760 2 0.452338 0.199579 0.292478
761 4 0.435931 0.208087 0.309319
419 4 0.425713 0.198491 0.324555
442 2 0.0312096 0.255593 0.293711
443 4 0.0293529 0.267137 0.271609
396 4 0.0328826 0.267224 0.252272
735 4 0.133774 0.333461 0.321515
400 2 0.215457 0.28455 0.292625
401 4 0.202788 0.285653 0.271096
402 4 0.228125 0.283448 0.314153
510 4 0.230587 0.290876 0.333894
378 4 0.241847 0.278513 0.325955
345 4 0.311906 0.29546 0.254599
308 4 0.316765 0.276031 0.257284
496 2 0.31849 0.282455 0.29581
497 4 0.316104 0.289027 0.271804
498 4 0.320876 0.275883 0.319816
377 4 0.288367 0.264872 0.338224
376 2 0.265107 0.271692 0.33209
615 4 0.395289 0.315341 0.311409
613 2 0.381331 0.294631 0.312614
614 4 0.367372 0.273922 0.313819
543 4 0.410696 0.308823 0.32205
541 2 0.431179 0.322048 0.32759
2538 4 0.486787 0.328263 0.333973
366 4 0.051535 0.375867 0.30054
364 2 0.0371691 0.373681 0.320887
299 4 0.142618 0.357736 0.266951
734 4 0.126323 0.352389 0.275832
733 2 0.130048 0.342925 0.298673
435 4 0.354163 0.367419 0.309661
433 2 0.344494 0.375866 0.288206
434 4 0.334825 0.384314 0.266751
728 4 0.336737 0.36866 0.253793
2463 4 0.0402443 0.46036 0.338735
549 4 0.0473322 0.466971 0.323128
547 2 0.0697194 0.457102 0.328283
777 4 0.129745 0.423754 0.285705
775 2 0.120794 0.432052 0.307527
414 4 0.144507 0.417834 0.273265
412 2 0.160891 0.432809 0.261755
776 4 0.111842 0.44035 0.329349
548 4 0.0921066 0.447232 0.333439
437 4 0.276221 0.494415 0.294569
436 2 0.294908 0.493177 0.311136
438 4 0.313595 0.49194 0.327702
714 4 0.440976 0.453461 0.256218
713 4 0.459169 0.462319 0.301948
712 2 0.450073 0.45789 0.279083
1782 4 0.12711 0.00475569 0.390072
1780 2 0.135921 0.0248337 0.40209
1781 4 0.144732 0.0449116 0.414107
439 2 0.282669 0.0220011 0.413289
697 2 0.374799 0.000865245 0.347168
698 4 0.363876 0.0219173 0.355084
257 4 0.362698 0.0384868 0.363959
256 2 0.376567 0.05347 0.378393
426 4 0.40636 0.0785748 0.397571
258 4 0.390435 0.0684532 0.392828
478 2 0.429315 0.0344464 0.332118
479 4 0.421197 0.0532532 0.346456
459 4 0.0185123 0.15896 0.382434
399 4 0.0556476 0.120873 0.351362
397 2 0.0698196 0.107732 0.335499
457 2 0.0365008 0.153227 0.398827
458 4 0.0544893 0.147495 0.41522
685 2 0.165697 0.163594 0.40135
687 4 0.151742 0.142867 0.400434
683 4 0.289343 0.132229 0.333262
682 2 0.283748 0.132783 0.357625
684 4 0.278154 0.133337 0.381988
320 4 0.275479 0.126377 0.400607
319 2 0.286269 0.108662 0.414569
451 2 0.436229 0.133707 0.334753
453 4 0.439868 0.132548 0.359463
514 2 0.443362 0.142567 0.40194
515 4 0.443404 0.133495 0.37864
2850 4 0.0279027 0.231503 0.401296
390 4 0.0435794 0.240802 0.395732
2653 2 0.0345972 0.234008 0.35781
2654 4 0.0303512 0.231658 0.382338
2848 2 0.00519274 0.241194 0.405235
686 4 0.179652 0.184321 0.402266
275 4 0.202751 0.248048 0.367712
474 4 0.279718 0.180923 0.372905
472 2 0.282241 0.195496 0.393066
473 4 0.284764 0.210069 0.413226
717 4 0.401834 0.229742 0.359576
715 2 0.386484 0.244342 0.372857
420 4 0.418105 0.223326 0.367287
418 2 0.421909 0.210909 0.345921
269 4 0.4426 0.224734 0.398394
268 2 0.454674 0.222441 0.420169
388 2 0.0635998 0.251126 0.406585
389 4 0.0836203 0.26145 0.417437
346 2 0.0441119 0.325312 0.416548
677 4 0.145227 0.328748 0.339473
676 2 0.161491 0.312804 0.349789
274 2 0.212516 0.261269 0.34887
678 4 0.177756 0.29686 0.360106
508 2 0.231348 0.315757 0.336247
375 4 0.175603 0.2959 0.379823
276 4 0.222282 0.27449 0.330028
373 2 0.189758 0.285551 0.397648
716 4 0.371133 0.258943 0.386138
365 4 0.0228032 0.371495 0.341235
2927 4 0.00512708 0.365888 0.350094
616 2 0.0358814 0.368774 0.378783
617 4 0.019902 0.372824 0.359983
618 4 0.0518607 0.364723 0.397583
347 4 0.0521575 0.34484 0.403165
326 4 0.0678413 0.354168 0.397657
325 2 0.0907709 0.362809 0.392683
408 4 0.0843149 0.393012 0.367176
406 2 0.0913086 0.41136 0.351696
327 4 0.1137 0.37145 0.387708
509 4 0.232108 0.340638 0.338601
504 4 0.274817 0.408389 0.384075
502 2 0.27238 0.386463 0.395842
503 4 0.269943 0.364536 0.40761
753 4 0.410748 0.40951 0.343476
542 4 0.451662 0.335274 0.333131
2924 4 0.469015 0.336797 0.339254
2923 2 0.465672 0.357013 0.353582
561 4 0.454168 0.385112 0.384328
752 4 0.442923 0.381035 0.369062
559 2 0.470419 0.397083 0.399085
751 2 0.426836 0.395272 0.356269
2925 4 0.462329 0.37723 0.36791
2461 2 0.0166153 0.457422 0.346365
681 4 0.0660275 0.439381 0.387718
679 2 0.0452387 0.445226 0.400321
383 4 0.0844786 0.449232 0.391393
680 4 0.0244498 0.451071 0.412924
501 4 0.135096 0.478725 0.365766
407 4 0.0983023 0.429709 0.336217
500 4 0.104041 0.44548 0.345003
499 2 0.119568 0.462103 0.355385
382 2 0.10005 0.449999 0.410941
3 3 0.304618 0.485416 0.344444
669 4 0.286311 0.480898 0.404904
5 3 0.305865 0.461546 0.373535
1 1 0.318341 0.474811 0.359859
667 2 0.304664 0.467962 0.415906
2 3 0.329054 0.490771 0.372495
4 3 0.334267 0.462046 0.348822
588 4 0.341537 0.449237 0.418737
594 4 0.448061 0.470803 0.378456
592 2 0.455392 0.494219 0.373648
718 2 0.0704648 0.0623223 0.471393
720 4 0.0511442 0.0496512 0.480949
2237 4 0.0377328 0.0403544 0.490236
2236 2 0.0166913 0.0328464 0.479008
368 4 0.142083 0.0489471 0.433601
719 4 0.0897854 0.0749935 0.461836
367 2 0.125958 0.0602231 0.449028
369 4 0.109832 0.0714992 0.464455
604 2 0.216044 0.0138793 0.440706
606 4 0.208212 0.030047 0.458097
441 4 0.282806 0.0402071 0.430427
424 2 0.421512 0.072728 0.416582
425 4 0.436663 0.0668811 0.435593
259 2 0.0744489 0.135949 0.468917
260 4 0.0598791 0.137578 0.448662
261 4 0.0890187 0.134321 0.489171
1035 4 0.0912921 0.114023 0.497143
321 4 0.297059 0.0909473 0.428531
725 4 0.358638 0.140103 0.489799
468 4 0.348404 0.15808 0.482716
724 2 0.354125 0.116886 0.497909
574 2 0.407138 0.166771 0.43915
575 4 0.423403 0.154613 0.424562
642 4 0.495464 0.0956687 0.488091
516 4 0.443319 0.151638 0.42524
471 4 0.00721228 0.23388 0.493376
469 2 0.0207511 0.240324 0.473367
470 4 0.0342899 0.246768 0.453358
857 4 0.222053 0.197873 0.500709
487 2 0.307046 0.244952 0.423344
489 4 0.300651 0.221441 0.417731
466 2 0.329564 0.173613 0.477333
467 4 0.310725 0.189147 0.471951
411 4 0.292562 0.185723 0.461975
409 2 0.275199 0.203533 0.464525
410 4 0.257835 0.221343 0.467074
576 4 0.390872 0.178929 0.453738
871 2 0.371221 0.230045 0.482837
873 4 0.375162 0.205528 0.485767
305 4 0.499729 0.177599 0.466504
270 4 0.466748 0.220149 0.441944
306 4 0.466966 0.214827 0.460072
304 2 0.483348 0.196213 0.463288
348 4 0.0360663 0.305784 0.429932
694 2 0.132101 0.269911 0.48016
696 4 0.144344 0.290405 0.487592
10 3 0.143789 0.310764 0.48266
695 4 0.119857 0.249416 0.472728
1260 4 0.157756 0.29666 0.481712
6 1 0.136694 0.329667 0.493195
374 4 0.203912 0.275202 0.415473
649 2 0.245209 0.321998 0.49065
1258 2 0.182094 0.296585 0.487443
651 4 0.260412 0.303402 0.497596
266 4 0.314107 0.282955 0.415092
265 2 0.31214 0.300237 0.433054
267 4 0.310173 0.317518 0.451017
488 4 0.313442 0.268464 0.428956
872 4 0.36728 0.254561 0.479906
2456 4 0.492863 0.284866 0.467515
583 2 0.456638 0.2864 0.449823
584 4 0.481584 0.285023 0.450796
585 4 0.431691 0.287777 0.44885
7 3 0.12634 0.343415 0.477933
650 4 0.230007 0.340594 0.483704
710 4 0.218192 0.356748 0.487767
803 4 0.237803 0.35689 0.488796
709 2 0.193741 0.351748 0.489295
802 2 0.248663 0.379408 0.48837
711 4 0.16929 0.346748 0.490823
804 4 0.259523 0.401926 0.487943
336 4 0.344968 0.373044 0.476664
334 2 0.368559 0.366086 0.481159
335 4 0.392151 0.359127 0.485654
240 4 0.404724 0.370958 0.475645
238 2 0.413812 0.393985 0.479156
3307 2 0.487077 0.388819 0.497434
560 4 0.48667 0.409054 0.413843
239 4 0.422899 0.417013 0.482668
1383 4 0.0323389 0.467816 0.419872
1381 2 0.0166694 0.487165 0.422163
384 4 0.115622 0.450766 0.430489
540 4 0.106668 0.463082 0.497436
539 4 0.116371 0.45193 0.449664
569 4 0.132748 0.455705 0.439426
568 2 0.149413 0.437504 0.435399
538 2 0.11152 0.457506 0.47355
774 4 0.208544 0.458708 0.484471
570 4 0.166077 0.419303 0.431372
636 4 0.203178 0.497373 0.444427
635 4 0.196609 0.474294 0.488301
634 2 0.199893 0.485834 0.466364
668 4 0.323016 0.455026 0.426907
587 4 0.389926 0.440248 0.427593
586 2 0.365731 0.444743 0.423165
663 4 0.442437 0.419325 0.487446
661 2 0.451839 0.440698 0.49639
1126 2 0.0575932 0.0519693 0.523982
1127 4 0.0524096 0.0427861 0.501311
1128 4 0.0627768 0.0611526 0.546653
939 4 0.078233 0.0699869 0.556656
1057 2 0.151107 0.0495819 0.561065
1059 4 0.143363 0.0697309 0.548447
1058 4 0.15885 0.0294328 0.573684
937 2 0.102397 0.0742217 0.551826
2430 4 0.197066 0.0163537 0.55527
341 4 0.202341 0.0308892 0.540554
340 2 0.211566 0.0527383 0.532635
342 4 0.22079 0.0745874 0.524717
1182 4 0.239604 0.0713033 0.527169
961 2 0.298188 0.0508859 0.571852
963 4 0.300489 0.0654228 0.551638
430 2 0.317456 0.0724302 0.521351
432 4 0.296308 0.0667449 0.533417
1181 4 0.285927 0.0781393 0.544722
1180 2 0.262766 0.0747213 0.535946
431 4 0.338605 0.0781156 0.509284
1217 4 0.407939 0.0500552 0.517947
842 4 0.389785 0.0440301 0.523104
841 2 0.372388 0.061915 0.521479
843 4 0.354991 0.0798 0.519853
1216 2 0.428636 0.0625034 0.524419
1218 4 0.449332 0.0749516 0.530892
641 4 0.469016 0.0784405 0.526878
1061 4 0.485639 0.00582061 0.518319
1062 4 0.49892 0.0417044 0.550517
1060 2 0.492279 0.0237625 0.534418
938 4 0.126562 0.0784566 0.546997
1155 4 0.143535 0.0883006 0.543718
1153 2 0.160945 0.0999376 0.530055
1033 2 0.112653 0.120132 0.508613
1034 4 0.134015 0.126241 0.520083
1154 4 0.178354 0.111575 0.516392
1151 4 0.1964 0.121172 0.509301
1150 2 0.214507 0.104817 0.514759
1152 4 0.232615 0.0884614 0.520216
900 4 0.385743 0.144147 0.574333
898 2 0.396603 0.123027 0.566511
899 4 0.407463 0.101907 0.558688
726 4 0.349612 0.0936686 0.506018
3159 4 0.483954 0.130754 0.532457
640 2 0.48224 0.0870546 0.507484
3157 2 0.494181 0.153509 0.530787
856 2 0.231181 0.199382 0.523938
858 4 0.24031 0.200891 0.547167
3065 4 0.475831 0.233067 0.542319
3064 2 0.491561 0.214172 0.537766
905 4 0.455658 0.236139 0.54475
904 2 0.436388 0.248093 0.555284
3066 4 0.50729 0.195277 0.533212
982 2 0.0863699 0.332139 0.526008
983 4 0.102665 0.326859 0.507793
9 3 0.12152 0.324211 0.509881
1190 4 0.185589 0.333304 0.537567
1259 4 0.206432 0.29651 0.493174
948 4 0.208142 0.305814 0.574423
1239 4 0.311536 0.315796 0.568221
813 4 0.293665 0.309861 0.571786
1237 2 0.328715 0.298423 0.573538
811 2 0.279894 0.310047 0.550918
812 4 0.266123 0.310233 0.530049
954 4 0.406779 0.269451 0.581925
906 4 0.417118 0.260046 0.565819
1238 4 0.345893 0.28105 0.578854
952 2 0.382053 0.269496 0.585639
984 4 0.0700753 0.337419 0.544223
1136 4 0.0721939 0.351894 0.558896
934 2 0.00396448 0.400759 0.510838
935 4 0.0220719 0.417997 0.511211
8 3 0.154816 0.340912 0.502336
1135 2 0.0862275 0.367924 0.571984
895 2 0.141034 0.383539 0.580487
1041 4 0.101887 0.4023 0.580374
896 4 0.164148 0.375995 0.574656
1191 4 0.163027 0.356143 0.575908
1189 2 0.174308 0.344724 0.556738
1000 2 0.414634 0.406187 0.575672
1002 4 0.393486 0.418326 0.581205
925 2 0.456218 0.405704 0.540872
926 4 0.468232 0.4011 0.519432
3309 4 0.465574 0.384797 0.509542
927 4 0.444205 0.410307 0.562312
1001 4 0.435782 0.394049 0.570139
2243 4 0.109343 0.442547 0.554736
2242 2 0.105472 0.444505 0.530111
1161 4 0.123332 0.431582 0.564509
1159 2 0.145684 0.438269 0.573503
2244 4 0.101601 0.446463 0.505487
773 4 0.204265 0.447659 0.533054
772 2 0.206404 0.453183 0.508763
1171 2 0.29909 0.439065 0.582665
1172 4 0.323796 0.440736 0.579198
881 4 0.331427 0.437286 0.530082
882 4 0.35037 0.482372 0.519635
1910 4 0.411372 0.500208 0.557488
1909 2 0.396107 0.493268 0.576036
880 2 0.340899 0.459829 0.524859
929 4 0.340056 0.44653 0.587642
928 2 0.357415 0.428796 0.584589
1332 4 0.466542 0.481617 0.507319
662 4 0.461241 0.462071 0.505333
943 2 0.066614 0.0439171 0.617491
944 4 0.0620022 0.0683585 0.620046
2319 4 0.0539779 0.0150732 0.623257
1083 4 0.0421122 0.0697012 0.615933
945 4 0.0712259 0.0194756 0.614937
1031 4 0.2138 0.0773989 0.593198
1284 4 0.179289 0.0766174 0.596549
951 4 0.247853 0.00165921 0.623316
962 4 0.295888 0.0363491 0.592065
950 4 0.279988 0.0246179 0.592641
949 2 0.26392 0.0131386 0.607978
810 4 0.444641 0.0704995 0.604901
808 2 0.46028 0.0702418 0.624408
45 3 0.463328 0.0715148 0.659657
809 4 0.475919 0.0699842 0.643915
1082 4 0.038697 0.105139 0.651051
1081 2 0.0404046 0.0874199 0.633492
1076 4 0.0219659 0.112816 0.658945
1282 2 0.167246 0.087032 0.615828
1283 4 0.155204 0.0974465 0.635107
1221 4 0.148501 0.163371 0.613351
909 4 0.172691 0.102902 0.643954
1030 2 0.222951 0.100454 0.596344
1032 4 0.232102 0.123509 0.599491
877 2 0.0660041 0.187113 0.587767
878 4 0.0425325 0.194844 0.591575
1199 4 0.025649 0.197326 0.605611
1198 2 0.0071109 0.213118 0.599944
1272 4 0.106386 0.186659 0.588854
879 4 0.0894757 0.179383 0.583959
1271 4 0.131406 0.161933 0.624396
1270 2 0.118896 0.174296 0.606625
1219 2 0.172427 0.170065 0.616167
797 4 0.194593 0.245793 0.607811
1211 4 0.247024 0.17184 0.642139
1210 2 0.228537 0.179596 0.627197
1212 4 0.21005 0.187352 0.612255
1220 4 0.196352 0.176759 0.618983
796 2 0.194143 0.220807 0.608637
798 4 0.193693 0.195821 0.609463
888 4 0.245306 0.189247 0.65133
791 4 0.317188 0.218558 0.580838
790 2 0.32852 0.240811 0.582089
1025 4 0.495375 0.191564 0.614072
1024 2 0.499256 0.200827 0.63697
1244 4 0.0075883 0.282908 0.647943
1243 2 0.021027 0.266868 0.661628
947 4 0.194449 0.264873 0.599663
946 2 0.201295 0.285344 0.587043
792 4 0.339851 0.263064 0.583339
953 4 0.357327 0.269541 0.589353
3264 4 0.00907559 0.399662 0.624636
3262 2 0.999496 0.388555 0.644886
1137 4 0.100261 0.383954 0.585071
897 4 0.11792 0.391082 0.586319
1039 2 0.0944239 0.415992 0.599919
807 4 0.304815 0.396947 0.663489
805 2 0.327198 0.385912 0.66503
1040 4 0.0869611 0.429684 0.619464
1160 4 0.168035 0.444956 0.582496
991 2 0.122398 0.430314 0.647323
993 4 0.101267 0.430803 0.633965
992 4 0.143529 0.429825 0.66068
1188 4 0.224915 0.432192 0.610047
1186 2 0.247372 0.441503 0.604202
1173 4 0.274385 0.437394 0.586131
1187 4 0.26983 0.450813 0.598358
891 4 0.330889 0.46038 0.579631
930 4 0.374774 0.411061 0.581536
1911 4 0.380843 0.486329 0.594584
889 2 0.338776 0.479496 0.593686
1269 4 0.387827 0.45777 0.655044
1267 2 0.410796 0.46222 0.663867
1952 4 0.363157 0.497768 0.6216
4338 4 0.0018731 0.00341271 0.726174
2400 4 0.286225 0.0163909 0.741228
1090 2 0.393052 0.0165028 0.676547
1092 4 0.38034 0.0294882 0.693721
1004 4 0.370516 0.0471556 0.689925
1003 2 0.360265 0.0696146 0.685964
43 3 0.454047 0.0594768 0.694104
41 1 0.463804 0.0765962 0.681852
42 3 0.485659 0.0790461 0.688596
862 2 0.0240256 0.101459 0.745921
864 4 0.0153893 0.0953843 0.723256
1075 2 0.0190301 0.10227 0.681425
1077 4 0.0160944 0.0917236 0.703905
907 2 0.183234 0.113885 0.663788
908 4 0.193778 0.124869 0.683622
1226 4 0.20705 0.0962869 0.739449
1227 4 0.20901 0.12358 0.697592
1225 2 0.20803 0.109933 0.718521
831 4 0.303834 0.144997 0.726
1299 4 0.317794 0.143734 0.740556
829 2 0.292931 0.163952 0.713874
1005 4 0.350014 0.0920735 0.682003
44 3 0.452502 0.0965002 0.685661
852 4 0.0231312 0.231605 0.715418
851 4 0.0609184 0.204771 0.734201
850 2 0.0420248 0.218188 0.72481
1107 4 0.0753103 0.206294 0.747204
1207 2 0.0697236 0.244036 0.677991
1208 4 0.0885066 0.228353 0.672852
1072 2 0.150669 0.226875 0.747882
1074 4 0.166853 0.236196 0.731257
886 2 0.255553 0.190197 0.674117
830 4 0.282028 0.182906 0.701749
887 4 0.265801 0.191148 0.696905
976 2 0.274098 0.21289 0.731629
978 4 0.276196 0.199958 0.710333
1193 4 0.370666 0.200486 0.731987
1142 4 0.386835 0.200833 0.74203
1192 2 0.377335 0.213264 0.711556
1194 4 0.384003 0.226043 0.691125
1209 4 0.0509406 0.259719 0.683131
1245 4 0.0344656 0.250828 0.675314
1179 4 0.0285159 0.277163 0.752834
821 4 0.135269 0.31066 0.720318
820 2 0.145725 0.293385 0.705573
822 4 0.156182 0.27611 0.690828
1063 2 0.233942 0.289677 0.743807
1064 4 0.248468 0.299585 0.726031
1020 4 0.365334 0.334087 0.740761
1263 4 0.429314 0.269784 0.721256
1261 2 0.422389 0.275502 0.744591
3275 4 0.00498092 0.345668 0.738704
893 4 0.0534256 0.391693 0.70391
892 2 0.0704645 0.375306 0.712053
1280 4 0.0516481 0.402161 0.720401
894 4 0.0875034 0.358919 0.720196
815 4 0.0882319 0.352603 0.738686
940 2 0.124968 0.372044 0.731044
942 4 0.100634 0.366368 0.731971
941 4 0.149301 0.37772 0.730117
1067 4 0.156501 0.358551 0.726793
1028 4 0.207202 0.390409 0.698431
1027 2 0.228672 0.402209 0.703427
1066 2 0.17343 0.368743 0.711472
1068 4 0.190358 0.378935 0.696151
806 4 0.349582 0.374876 0.666571
1204 2 0.399804 0.414091 0.697622
1205 4 0.391432 0.392318 0.688619
1279 2 0.0425427 0.425331 0.71807
1281 4 0.0334374 0.448501 0.715739
1983 4 0.0347851 0.465409 0.724935
1981 2 0.0561576 0.476485 0.731696
1982 4 0.07753 0.487562 0.738457
1079 4 0.125953 0.466503 0.744181
1029 4 0.250142 0.414009 0.708423
1139 4 0.263841 0.423872 0.698562
1140 4 0.288989 0.4567 0.670445
1138 2 0.276415 0.440286 0.684504
1988 4 0.314725 0.495098 0.736153
1987 2 0.335194 0.493131 0.721929
1230 4 0.401811 0.447393 0.7223
1228 2 0.385047 0.465944 0.722126
1229 4 0.368283 0.484494 0.721953
1989 4 0.355663 0.491165 0.707704
1206 4 0.408176 0.435863 0.706624
3330 4 0.500917 0.446457 0.718975
2168 4 0.442217 0.483378 0.673648
1268 4 0.433764 0.46667 0.672689
1100 4 0.448163 0.465105 0.683808
1099 2 0.46418 0.457482 0.70143
1101 4 0.480197 0.449859 0.719051
1294 2 0.00914451 0.0372171 0.815199
1296 4 0.000982069 0.0438915 0.792527
2049 4 0.135403 0.0120545 0.783443
1203 4 0.111997 0.0388853 0.819828
1202 4 0.137282 0.0309483 0.777421
1201 2 0.124639 0.0349168 0.798625
1257 4 0.238672 0.0595178 0.803472
1149 4 0.224412 0.0663211 0.791494
1255 2 0.258426 0.0723092 0.811918
1256 4 0.27818 0.0851006 0.820364
1113 4 0.38523 0.0604843 0.811114
973 2 0.374579 0.0200754 0.796139
975 4 0.378252 0.0434564 0.804202
1111 2 0.410156 0.0587409 0.810203
845 4 0.486694 0.0813988 0.820731
2322 4 0.491727 0.0137404 0.788052
2320 2 0.501302 0.0174416 0.765253
844 2 0.4676 0.0652598 0.821099
1112 4 0.435082 0.0569976 0.809292