ITEM: TIMESTEP
2810000
ITEM: NUMBER OF ATOMS
4590
ITEM: BOX BOUNDS pp pp pp
-9.9985700000000008e+00 9.9985700000000008e+00
-9.9985700000000008e+00 9.9985700000000008e+00
-9.9985700000000008e+00 9.9985700000000008e+00
ITEM: ATOMS id type xs ys zs
1667 4 0.013589 0.0657345 0.0506876
485 4 0.413759 0.997358 0.0709374
2974 2 0.467082 0.0162848 0.00610684
745 2 0.43723 0.0702152 0.00559325
747 4 0.440394 0.0457198 0.001702
2467 2 0.496668 0.00924493 0.0577045
986 4 0.434555 0.026189 0.996867
701 4 0.0312201 0.0736495 0.0561734
700 2 0.0386383 0.0909446 0.0726364
567 4 0.231367 0.164702 0.00947267
297 4 0.332587 0.118071 0.0167548
295 2 0.349486 0.11356 0.998888
746 4 0.434066 0.0947107 0.0094845
558 4 0.429944 0.109263 0.996415
555 4 0.0436097 0.230571 0.00505392
566 4 0.216132 0.162578 0.0570551
565 2 0.223749 0.16364 0.0332639
573 4 0.263846 0.251289 0.0621994
1292 4 0.326265 0.21161 0.00160886
770 4 0.403783 0.183099 0.0180959
359 4 0.391299 0.196724 0.0167238
664 2 0.401929 0.208433 0.0531777
665 4 0.401022 0.192042 0.0343186
666 4 0.402836 0.224825 0.0720367
323 4 0.411355 0.241257 0.0694266
358 2 0.368375 0.2012 0.00780048
769 2 0.425528 0.172282 0.0121522
623 4 0.39239 0.242136 0.072376
292 2 0.16362 0.317537 0.0423911
294 4 0.146555 0.305709 0.0284602
293 4 0.180685 0.329365 0.056322
507 4 0.186629 0.325574 0.0717843
287 4 0.200553 0.330374 0.0597539
286 2 0.217422 0.323652 0.0425662
288 4 0.234291 0.316929 0.0253785
482 4 0.245823 0.250392 0.0699949
571 2 0.272861 0.253506 0.0389832
572 4 0.281876 0.255724 0.015767
357 4 0.291879 0.267236 0.00396186
355 2 0.307642 0.286088 0.999343
956 4 0.330477 0.31539 0.00868833
1069 2 0.401998 0.304838 0.0270164
955 2 0.350199 0.324813 0.0208301
1071 4 0.382209 0.319861 0.0298289
957 4 0.369921 0.334237 0.0329719
322 2 0.419182 0.260131 0.0550149
324 4 0.42701 0.279005 0.0406033
1070 4 0.421786 0.289816 0.0242038
280 2 0.454121 0.302938 0.0446455
282 4 0.440308 0.287903 0.0302114
281 4 0.467933 0.317973 0.0590796
527 4 0.476563 0.322271 0.0759385
671 4 0.459351 0.329813 0.0728078
526 2 0.497509 0.334751 0.0814799
456 4 0.18788 0.390638 0.0444889
552 4 0.173969 0.339248 0.0735735
454 2 0.188341 0.367509 0.0539763
455 4 0.188802 0.34438 0.0634637
1290 4 0.275903 0.399847 0.0367122
250 2 0.263287 0.408731 0.0659331
1288 2 0.279623 0.383155 0.0184716
1289 4 0.283343 0.366464 0.000230982
741 4 0.383993 0.329028 0.0465729
739 2 0.388813 0.336355 0.0699878
328 2 0.00313522 0.419435 0.0218729
329 4 0.0191023 0.435355 0.0326788
1788 4 0.0767716 0.463897 0.0730597
1786 2 0.0825615 0.486821 0.0649254
627 4 0.153476 0.476927 0.0611985
626 4 0.201251 0.47607 0.075945
625 2 0.177364 0.476499 0.0685718
245 4 0.220573 0.477301 0.0795394
244 2 0.232521 0.46114 0.0646657
246 4 0.244469 0.444978 0.049792
251 4 0.264175 0.414247 0.0415618
272 4 0.252782 0.431018 0.0404378
271 2 0.258689 0.437301 0.0169684
1672 2 0.404349 0.433596 0.0653773
853 2 0.387729 0.441168 0.0096893
1674 4 0.411682 0.438774 0.0420408
854 4 0.407372 0.445016 0.0246736
564 4 0.424955 0.43547 0.0290234
563 4 0.466252 0.463312 0.0335036
562 2 0.445604 0.449391 0.0312635
228 4 0.470994 0.481626 0.0343404
226 2 0.493786 0.491717 0.0323646
19 3 0.0731803 0.0366829 0.156476
18 3 0.0743077 0.999624 0.148124
16 1 0.0744414 0.01525 0.165276
578 4 0.0917356 0.0348854 0.170151
580 2 0.244927 0.061797 0.147304
581 4 0.257783 0.0419713 0.15548
582 4 0.232071 0.0816226 0.139127
237 4 0.215824 0.0873821 0.147616
490 2 0.285036 0.0503333 0.106069
1475 4 0.29613 0.0214388 0.101478
492 4 0.288554 0.0283256 0.117403
1474 2 0.301825 0.999621 0.0906736
654 4 0.257374 0.0349369 0.175101
2722 2 0.46836 0.0559442 0.169383
2724 4 0.489302 0.0486402 0.157838
1760 4 0.502702 0.0455413 0.14287
1759 2 0.503896 0.0326981 0.12145
2723 4 0.447419 0.0632482 0.180928
702 4 0.0460565 0.10824 0.0890993
476 4 0.0499535 0.120884 0.10596
475 2 0.0722925 0.131001 0.110838
513 4 0.072043 0.143844 0.159512
393 4 0.0662112 0.162543 0.160741
477 4 0.0946314 0.141118 0.115716
235 2 0.197031 0.0921912 0.163392
491 4 0.281519 0.0723411 0.0947344
628 2 0.373746 0.162023 0.15194
629 4 0.362047 0.1447 0.13822
312 4 0.360627 0.131355 0.151634
2624 4 0.000144893 0.187253 0.123647
391 2 0.0710248 0.186996 0.158722
392 4 0.0758384 0.211448 0.156702
738 4 0.225135 0.162453 0.0966891
737 4 0.249776 0.201832 0.115205
736 2 0.237455 0.182143 0.105947
755 4 0.247999 0.243804 0.161269
460 2 0.32767 0.228307 0.117891
461 4 0.304837 0.218662 0.114603
354 4 0.287793 0.214039 0.123825
352 2 0.277143 0.227356 0.142112
353 4 0.266493 0.240674 0.160399
630 4 0.385445 0.179345 0.16566
254 4 0.381034 0.196987 0.155128
462 4 0.350502 0.237952 0.121179
255 4 0.366167 0.238828 0.132128
253 2 0.3736 0.217907 0.143628
622 2 0.378588 0.24505 0.0930204
624 4 0.364786 0.247963 0.113665
536 4 0.168877 0.264586 0.153881
481 2 0.234453 0.268201 0.0833633
505 2 0.196353 0.310061 0.088813
483 4 0.223083 0.286011 0.0967317
506 4 0.206078 0.294549 0.105842
537 4 0.192448 0.291095 0.118633
535 2 0.180662 0.27784 0.136257
754 2 0.240414 0.267085 0.156206
756 4 0.232829 0.290367 0.151144
301 2 0.323326 0.318901 0.141227
303 4 0.322545 0.302466 0.160053
285 4 0.314353 0.28839 0.163868
764 4 0.334825 0.288516 0.159235
765 4 0.356585 0.25489 0.129294
763 2 0.345705 0.271703 0.144265
12 3 0.410066 0.321082 0.116205
647 4 0.0559542 0.347832 0.158864
550 2 0.155095 0.344895 0.0889701
551 4 0.136221 0.350542 0.104367
290 4 0.240444 0.414659 0.156787
289 2 0.218285 0.406639 0.165146
252 4 0.262399 0.403215 0.0903045
302 4 0.324107 0.335337 0.1224
609 4 0.279772 0.412958 0.0971322
387 4 0.325667 0.349616 0.109279
607 2 0.303282 0.41555 0.105241
385 2 0.350176 0.350088 0.104354
493 2 0.390327 0.385634 0.0945089
495 4 0.39048 0.361129 0.0994765
386 4 0.374686 0.350559 0.0994293
15 3 0.378294 0.340492 0.113607
740 4 0.393634 0.343681 0.0934028
14 3 0.411118 0.357149 0.105683
11 1 0.400331 0.341704 0.119228
13 3 0.402494 0.347828 0.141504
494 4 0.390174 0.410138 0.0895413
672 4 0.417578 0.337887 0.0990866
670 2 0.438464 0.33385 0.0859472
1467 4 0.072947 0.451331 0.0881849
1791 4 0.0529425 0.487761 0.131401
1465 2 0.0632144 0.459684 0.109648
1466 4 0.0534819 0.468037 0.131112
638 4 0.229738 0.493636 0.121196
767 4 0.237901 0.477596 0.130472
637 2 0.205509 0.497761 0.116604
639 4 0.181279 0.501886 0.112012
766 2 0.235843 0.45549 0.141971
768 4 0.233785 0.433383 0.153471
608 4 0.326792 0.418142 0.113349
659 4 0.334988 0.433717 0.104604
660 4 0.384183 0.426134 0.0998014
1673 4 0.397016 0.428417 0.0887138
658 2 0.359585 0.429926 0.102203
524 4 0.408085 0.479008 0.132871
523 2 0.403414 0.458421 0.119473
525 4 0.398744 0.437833 0.106075
1559 4 0.389564 0.486296 0.1355
17 3 0.0561486 0.0116564 0.178753
2480 4 0.0381106 0.00989542 0.187948
2479 2 0.0264788 0.0305658 0.195861
380 4 0.0101908 0.0706178 0.202569
2481 4 0.014847 0.0512362 0.203774
1422 4 0.0303916 0.992517 0.186958
577 2 0.108251 0.0527806 0.175824
20 3 0.0934284 0.0130377 0.177655
674 4 0.143733 0.012085 0.21585
673 2 0.122089 0.00419902 0.225571
579 4 0.124766 0.0706757 0.181497
1504 2 0.226176 0.00761929 0.183689
1506 4 0.239925 0.02842 0.181825
652 2 0.282267 0.0325979 0.175123
653 4 0.307161 0.0302588 0.175145
758 4 0.351272 0.0788166 0.188068
759 4 0.357052 0.071099 0.237137
757 2 0.354162 0.0749578 0.212602
742 2 0.501575 0.0502997 0.232645
351 4 0.421236 0.0584642 0.253154
480 4 0.441078 0.0609896 0.248494
743 4 0.485843 0.0619761 0.248179
333 4 0.482725 0.0784847 0.23625
379 2 0.0262366 0.0847735 0.189633
511 2 0.0568957 0.129487 0.173282
512 4 0.0417484 0.115129 0.187052
381 4 0.0422824 0.0989291 0.176698
450 4 0.120973 0.086873 0.192404
448 2 0.142148 0.0985008 0.185957
449 4 0.163324 0.110129 0.179511
236 4 0.178237 0.0970003 0.179167
30 3 0.341193 0.133677 0.228873
26 1 0.341924 0.153413 0.240214
310 2 0.350798 0.1127 0.16507
28 3 0.353225 0.169334 0.227676
311 4 0.340968 0.0940443 0.178507
761 4 0.402837 0.140824 0.234933
521 4 0.463068 0.144361 0.224676
762 4 0.452274 0.133346 0.235795
760 2 0.427555 0.137085 0.235364
332 4 0.467478 0.125232 0.227145
331 2 0.475101 0.101858 0.231697
520 2 0.481498 0.158751 0.21582
339 4 0.0745095 0.216862 0.176162
337 2 0.0613986 0.233078 0.189958
279 4 0.275618 0.217939 0.216025
277 2 0.269397 0.231707 0.196102
522 4 0.499929 0.173142 0.206965
394 2 0.0131734 0.261689 0.233768
395 4 0.0274008 0.26866 0.214425
338 4 0.0482877 0.249294 0.203753
363 4 0.0444846 0.268011 0.205529
361 2 0.0540173 0.290953 0.208357
648 4 0.0680575 0.328267 0.203265
362 4 0.0635499 0.313894 0.211184
372 4 0.0833433 0.317165 0.204353
749 4 0.0555163 0.329893 0.218574
370 2 0.105006 0.319871 0.216542
371 4 0.12667 0.322577 0.22873
612 4 0.236022 0.304534 0.164648
611 4 0.24003 0.315906 0.21318
610 2 0.238026 0.31022 0.188914
344 4 0.225435 0.319299 0.225838
343 2 0.209306 0.31664 0.244759
284 4 0.276108 0.256435 0.167986
283 2 0.29523 0.272412 0.165927
278 4 0.263175 0.245475 0.17618
729 4 0.317385 0.304003 0.178028
727 2 0.303459 0.321343 0.189455
308 4 0.329054 0.289811 0.174974
307 2 0.341326 0.282148 0.195367
309 4 0.353597 0.274485 0.215759
498 4 0.344131 0.281284 0.231763
748 2 0.0614349 0.347013 0.235809
646 2 0.0620059 0.338049 0.181064
750 4 0.0673535 0.364134 0.253044
734 4 0.134399 0.336448 0.240151
733 2 0.156225 0.331389 0.251252
417 4 0.147077 0.382624 0.193326
299 4 0.132194 0.353892 0.249283
298 2 0.108983 0.361517 0.2546
291 4 0.196126 0.39862 0.173504
416 4 0.196792 0.385663 0.188863
415 2 0.171934 0.384143 0.191095
728 4 0.289533 0.338683 0.200882
445 2 0.410816 0.388321 0.236387
446 4 0.386215 0.383855 0.236571
447 4 0.435416 0.392788 0.236203
644 4 0.437124 0.386021 0.217371
643 2 0.449428 0.393739 0.197019
645 4 0.461733 0.401456 0.176666
264 4 0.0187472 0.428487 0.239092
412 2 0.229935 0.471891 0.229836
413 4 0.219856 0.457369 0.247519
414 4 0.240014 0.486413 0.212152
1574 4 0.299902 0.481702 0.216297
1573 2 0.297204 0.49885 0.198301
595 2 0.491918 0.422105 0.171633
597 4 0.467004 0.420334 0.170484
229 2 0.466703 0.487562 0.223715
231 4 0.477093 0.464946 0.226121
234 4 0.00133689 0.0483489 0.286763
232 2 0.0252244 0.0411656 0.285041
233 4 0.0491119 0.0339823 0.283319
2756 4 0.00812173 0.0665107 0.293486
317 4 0.0648714 0.0319671 0.296028
1404 4 0.0585867 0.0178445 0.285452
316 2 0.0762648 0.0509415 0.307662
1402 2 0.0739707 0.00903374 0.26782
428 4 0.0651197 0.0125903 0.302695
318 4 0.0876582 0.0699159 0.319295
730 2 0.127933 0.0747943 0.318417
732 4 0.103461 0.0799066 0.318798
731 4 0.152406 0.0696819 0.318036
693 4 0.303276 0.0553253 0.277862
691 2 0.293478 0.0733715 0.292127
24 3 0.319214 0.0634535 0.266041
25 3 0.341331 0.0336099 0.259891
350 4 0.372123 0.066205 0.247796
349 2 0.39668 0.0623346 0.250475
21 1 0.340863 0.0551819 0.267177
23 3 0.348649 0.0563372 0.289004
22 3 0.354439 0.0680101 0.25375
632 4 0.359184 0.081842 0.252395
479 4 0.449067 0.0331306 0.289247
478 2 0.445073 0.0470601 0.26887
2664 4 0.466867 0.0310503 0.295753
1428 4 0.450682 0.0205598 0.300451
258 4 0.435783 0.037017 0.301143
2662 2 0.489991 0.0404513 0.297198
256 2 0.422734 0.0487232 0.318972
1426 2 0.44298 0.00017151 0.312705
257 4 0.409685 0.0604294 0.336801
2755 2 0.00572436 0.0847362 0.310435
399 4 0.0852224 0.0861075 0.328382
692 4 0.283679 0.0914178 0.306393
721 2 0.271151 0.118469 0.313562
723 4 0.281247 0.106904 0.293826
722 4 0.261056 0.130034 0.333298
29 3 0.35253 0.150422 0.260634
631 2 0.360363 0.106297 0.25747
707 4 0.362496 0.141228 0.274434
633 4 0.361543 0.130751 0.262544
706 2 0.365364 0.146221 0.298765
708 4 0.368231 0.151213 0.323097
396 4 0.998946 0.254717 0.253111
444 4 0.0123436 0.226455 0.310047
442 2 0.012105 0.239769 0.288884
443 4 0.0118664 0.253082 0.267721
544 2 0.12725 0.237928 0.261452
546 4 0.10501 0.226772 0.258981
545 4 0.14949 0.249084 0.263923
403 2 0.249912 0.168879 0.330395
405 4 0.240375 0.189218 0.319416
473 4 0.220886 0.193376 0.322408
27 3 0.320463 0.160781 0.24399
269 4 0.413043 0.24072 0.314631
419 4 0.397959 0.250834 0.324371
268 2 0.427377 0.22611 0.328993
402 4 0.16419 0.258513 0.253841
400 2 0.174871 0.278793 0.26383
401 4 0.185552 0.299074 0.273819
676 2 0.181568 0.32367 0.302543
345 4 0.193178 0.313982 0.263679
677 4 0.185817 0.31875 0.278399
678 4 0.177319 0.32859 0.326686
378 4 0.299513 0.280041 0.312659
376 2 0.31393 0.295773 0.299627
377 4 0.328347 0.311505 0.286595
615 4 0.333173 0.331911 0.288573
497 4 0.344894 0.308343 0.273811
496 2 0.344513 0.294814 0.252787
541 2 0.36626 0.314625 0.301794
542 4 0.388322 0.312176 0.313301
420 4 0.394597 0.30062 0.327653
543 4 0.344197 0.317074 0.290287
418 2 0.396278 0.275727 0.326012
2537 4 0.49566 0.324056 0.328166
364 2 0.00829792 0.398693 0.304741
365 4 0.0322924 0.393079 0.300507
601 2 0.058279 0.38139 0.32982
603 4 0.0432272 0.378245 0.310103
300 4 0.0857717 0.369143 0.259917
735 4 0.17805 0.32633 0.262353
434 4 0.311396 0.384475 0.304122
433 2 0.303286 0.408072 0.305734
614 4 0.320396 0.371587 0.3162
613 2 0.326785 0.351749 0.302386
1757 4 0.0317412 0.434054 0.253067
1756 2 0.0515613 0.448427 0.258144
1758 4 0.0713814 0.462799 0.26322
1775 4 0.0776046 0.470096 0.279767
777 4 0.0624506 0.482668 0.289607
775 2 0.0590011 0.484838 0.314276
1776 4 0.119164 0.496153 0.270042
1774 2 0.0983841 0.483125 0.274904
1436 4 0.225576 0.442416 0.25985
1435 2 0.240441 0.446208 0.279594
1437 4 0.255306 0.449999 0.299339
4 3 0.250245 0.434062 0.315492
3 3 0.272052 0.463371 0.305009
1 1 0.268292 0.447392 0.321409
436 2 0.30963 0.462115 0.295841
438 4 0.290368 0.451052 0.307319
2 3 0.287006 0.434152 0.32332
437 4 0.328892 0.473179 0.284363
435 4 0.295177 0.431669 0.307347
1802 4 0.346111 0.483302 0.281983
119 3 0.488431 0.464381 0.325616
594 4 0.429089 0.494767 0.333893
606 4 0.16764 0.0691689 0.331928
699 4 0.358175 0.0516235 0.356784
1699 2 0.359832 0.0225588 0.390727
1700 4 0.360131 0.0413157 0.374196
697 2 0.379418 0.0637519 0.351606
1701 4 0.359533 0.00380183 0.407258
698 4 0.400661 0.0758803 0.346428
641 4 0.454016 0.0870261 0.401312
640 2 0.478852 0.0897359 0.400309
397 2 0.0706114 0.10196 0.341047
398 4 0.0560005 0.117812 0.353712
2584 2 0.0198738 0.120122 0.351188
2586 4 0.0397485 0.119544 0.366348
458 4 0.052216 0.126409 0.380644
457 2 0.0563743 0.139896 0.401284
600 4 0.0924284 0.156029 0.364242
604 2 0.183639 0.0810566 0.347025
605 4 0.199637 0.0929442 0.362121
248 4 0.216031 0.10334 0.366988
247 2 0.234048 0.118328 0.358273
249 4 0.252064 0.133316 0.349558
404 4 0.259449 0.14854 0.341374
683 4 0.25895 0.144716 0.362826
682 2 0.283862 0.142791 0.363756
684 4 0.308774 0.140867 0.364685
320 4 0.312066 0.126743 0.349382
321 4 0.357839 0.14401 0.339018
319 2 0.334953 0.135377 0.3442
726 4 0.388665 0.139211 0.408756
717 4 0.362958 0.158029 0.35426
715 2 0.377431 0.154668 0.37437
716 4 0.391903 0.151306 0.39448
467 4 0.385152 0.159367 0.410004
642 4 0.503688 0.0924458 0.399306
598 2 0.104181 0.177466 0.369486
599 4 0.115935 0.198902 0.374731
389 4 0.12202 0.230399 0.372601
686 4 0.113689 0.216137 0.384675
685 2 0.102382 0.216388 0.406975
275 4 0.128411 0.212701 0.372912
274 2 0.151992 0.206619 0.367242
388 2 0.119094 0.254611 0.367088
474 4 0.192776 0.211043 0.359803
472 2 0.206831 0.20221 0.341106
276 4 0.175572 0.200538 0.361571
270 4 0.441711 0.211501 0.343356
452 4 0.461024 0.216844 0.343468
451 2 0.465029 0.216194 0.368141
453 4 0.469035 0.215545 0.392813
515 4 0.459809 0.21747 0.40975
347 4 0.0663304 0.31118 0.393646
346 2 0.0423572 0.305788 0.398271
348 4 0.0183841 0.300395 0.402896
618 4 0.0728361 0.311874 0.374229
375 4 0.160573 0.318859 0.327357
616 2 0.0965187 0.305498 0.369365
390 4 0.116169 0.278823 0.361575
617 4 0.120201 0.299121 0.364501
374 4 0.130452 0.287983 0.352658
373 2 0.145512 0.303421 0.340007
510 4 0.191499 0.334068 0.339024
602 4 0.0733307 0.384536 0.349536
549 4 0.0734567 0.375158 0.367782
547 2 0.0806236 0.395544 0.38036
548 4 0.0877905 0.415931 0.392938
508 2 0.204284 0.355216 0.342832
509 4 0.21707 0.376363 0.346639
240 4 0.331189 0.384605 0.384991
335 4 0.334337 0.381796 0.405136
238 2 0.345386 0.397456 0.368913
239 4 0.359583 0.410307 0.352836
587 4 0.37621 0.416441 0.362827
752 4 0.482895 0.389125 0.382155
561 4 0.469324 0.376247 0.391638
559 2 0.483649 0.373115 0.41189
751 2 0.486323 0.409915 0.368694
776 4 0.0555515 0.487008 0.338945
500 4 0.0655073 0.471515 0.344865
499 2 0.0705393 0.46131 0.36713
501 4 0.0755712 0.451105 0.389394
407 4 0.0898225 0.436522 0.393836
406 2 0.106034 0.449052 0.408166
1544 4 0.211443 0.483153 0.380806
1556 4 0.228812 0.478685 0.37136
1543 2 0.197386 0.486703 0.401177
5 3 0.264226 0.45756 0.341377
636 4 0.2881 0.49775 0.403469
1555 2 0.251213 0.483548 0.381346
1557 4 0.273615 0.488412 0.391331
586 2 0.382606 0.440534 0.360871
593 4 0.38413 0.475145 0.343607
588 4 0.389003 0.464626 0.358915
592 2 0.406609 0.484956 0.33875
713 4 0.441753 0.501687 0.346245
712 2 0.461383 0.486248 0.345026
714 4 0.481012 0.470809 0.343808
753 4 0.48975 0.430705 0.355233
117 3 0.483233 0.452404 0.36086
720 4 0.00740228 0.996774 0.461049
719 4 0.0486707 0.0152248 0.482431
718 2 0.0280365 0.00599951 0.47174
369 4 0.0652762 0.0097515 0.471055
963 4 0.310085 0.0309267 0.461164
432 4 0.298046 0.0419374 0.472805
430 2 0.314833 0.0439488 0.491226
961 2 0.321262 0.0186606 0.442461
962 4 0.332439 0.00639459 0.423758
1216 2 0.414933 0.0495362 0.466482
1217 4 0.396299 0.0350107 0.474667
425 4 0.349804 0.998149 0.422618
1218 4 0.433566 0.0640617 0.458298
260 4 0.0510894 0.168205 0.432142
459 4 0.0605326 0.153383 0.421923
724 2 0.391453 0.119102 0.423351
725 4 0.394241 0.098992 0.437946
259 2 0.0611738 0.191084 0.43199
261 4 0.0712581 0.213964 0.431838
687 4 0.0910741 0.216639 0.429274
1035 4 0.0816541 0.225262 0.443958
1033 2 0.0887782 0.244323 0.458487
466 2 0.396603 0.176364 0.424328
468 4 0.408054 0.193361 0.438651
411 4 0.393504 0.252718 0.46133
409 2 0.402653 0.229777 0.457433
410 4 0.411802 0.206836 0.453537
575 4 0.429411 0.200538 0.460647
516 4 0.424976 0.201358 0.441809
574 2 0.431074 0.185796 0.480773
514 2 0.442392 0.209414 0.42578
576 4 0.432736 0.171053 0.500899
2457 4 0.469997 0.265402 0.49581
2802 4 0.00364549 0.289358 0.410615
696 4 0.0873371 0.273952 0.486833
1034 4 0.0959022 0.263384 0.473017
1260 4 0.0925076 0.282114 0.469274
1258 2 0.107358 0.301371 0.463459
1259 4 0.122208 0.320627 0.457644
9 3 0.13446 0.318749 0.435685
7 3 0.133586 0.33182 0.470913
6 1 0.14121 0.336028 0.449622
8 3 0.164377 0.337264 0.450058
489 4 0.376134 0.254829 0.453657
488 4 0.337792 0.267602 0.424204
487 2 0.356963 0.261215 0.43893
266 4 0.385994 0.269712 0.464049
265 2 0.387428 0.291093 0.476931
267 4 0.388862 0.312474 0.489814
3308 4 0.47949 0.334374 0.487765
1011 4 0.47338 0.324233 0.504598
1010 4 0.46279 0.279601 0.484684
1009 2 0.468085 0.301917 0.494641
326 4 0.0828088 0.365051 0.485976
327 4 0.120131 0.345363 0.45914
325 2 0.10147 0.355207 0.472558
10 3 0.132513 0.355763 0.442304
709 2 0.153053 0.400491 0.495245
711 4 0.130911 0.411496 0.491529
384 4 0.12168 0.426436 0.481331
334 2 0.314586 0.38241 0.420456
336 4 0.294835 0.383024 0.435776
668 4 0.291789 0.40284 0.433363
882 4 0.351643 0.360319 0.497343
560 4 0.497974 0.369983 0.432143
3309 4 0.49262 0.358126 0.445763
3307 2 0.486055 0.34625 0.466764
680 4 0.986663 0.450546 0.465729
1383 4 0.00502133 0.457594 0.473122
1381 2 0.0142236 0.480665 0.475989
570 4 0.1689 0.494771 0.433097
382 2 0.119432 0.438573 0.459587
408 4 0.122246 0.461582 0.422497
569 4 0.128089 0.46684 0.440517
383 4 0.117184 0.45071 0.437842
568 2 0.148494 0.480805 0.436807
1545 4 0.18333 0.490254 0.421548
667 2 0.293775 0.426878 0.439952
669 4 0.295762 0.450915 0.446541
634 2 0.296696 0.479387 0.418101
635 4 0.305291 0.461024 0.432733
774 4 0.315376 0.455463 0.445461
772 2 0.340274 0.457755 0.445365
773 4 0.365172 0.460047 0.445268
663 4 0.4814 0.494342 0.451181
2430 4 0.156367 0.0147793 0.520454
341 4 0.161889 0.0307464 0.509369
1152 4 0.211148 0.071177 0.516335
342 4 0.206483 0.0518155 0.517625
340 2 0.184186 0.041281 0.513497
1032 4 0.234736 0.0737291 0.572628
1030 2 0.247078 0.055491 0.58447
431 4 0.331619 0.0459602 0.509647
842 4 0.389257 0.0318451 0.493276
841 2 0.369424 0.0409239 0.505499
843 4 0.349591 0.0500028 0.517722
1058 4 0.120779 0.105253 0.50661
1270 2 0.0848953 0.149786 0.559378
1271 4 0.0986428 0.130948 0.568394
1057 2 0.114553 0.113814 0.529262
1059 4 0.108327 0.122375 0.551914
1155 4 0.116292 0.123697 0.569204
939 4 0.0998904 0.112142 0.565472
1153 2 0.137875 0.130691 0.579714
1150 2 0.218578 0.0786621 0.539005
1151 4 0.226008 0.0861471 0.561675
1180 2 0.239353 0.115499 0.578578
1181 4 0.241895 0.0922905 0.569628
1199 4 0.0203074 0.203803 0.575635
879 4 0.0636699 0.181537 0.538334
1198 2 0.999199 0.212832 0.56573
877 2 0.0515939 0.193018 0.556976
1272 4 0.0711479 0.168625 0.550361
651 4 0.214894 0.222572 0.512147
858 4 0.200676 0.237634 0.511302
898 2 0.243985 0.169748 0.573646
649 2 0.231003 0.207119 0.523412
650 4 0.247111 0.191665 0.534676
899 4 0.249867 0.182952 0.553244
2455 2 0.48706 0.248271 0.502178
984 4 0.0023986 0.297898 0.585432
695 4 0.0971731 0.257079 0.532868
694 2 0.0922551 0.265516 0.509851
946 2 0.166045 0.285039 0.569092
856 2 0.195288 0.257861 0.524977
857 4 0.189899 0.278088 0.538652
947 4 0.184713 0.273403 0.557205
798 4 0.197465 0.262792 0.569151
796 2 0.22102 0.267098 0.57635
791 4 0.255136 0.288263 0.583834
790 2 0.257057 0.312934 0.580252
502 2 0.1901 0.362221 0.507534
503 4 0.206661 0.345658 0.498784
504 4 0.173538 0.378785 0.516283
710 4 0.175195 0.389486 0.49896
803 4 0.265918 0.363077 0.559555
804 4 0.274967 0.374259 0.511662
802 2 0.270443 0.368668 0.535608
1190 4 0.253297 0.354282 0.569959
1238 4 0.270484 0.355088 0.578397
792 4 0.258978 0.337605 0.576671
929 4 0.358939 0.379397 0.557267
881 4 0.346209 0.378582 0.543578
880 2 0.348926 0.369451 0.52046
928 2 0.344966 0.37988 0.577997
540 4 0.104164 0.475605 0.58498
4337 4 0.9935 0.00164705 0.662933
1081 2 0.0704288 0.0680935 0.638178
1082 4 0.0764513 0.0591714 0.660745
1083 4 0.0644062 0.0770156 0.61561
825 4 0.172785 0.0525067 0.669355
951 4 0.27336 0.0262218 0.606228
1031 4 0.259419 0.0372529 0.596312
949 2 0.279059 0.0105269 0.624838
950 4 0.284759 0.994832 0.643449
3008 4 0.496601 0.0124388 0.596144
809 4 0.490864 0.0207866 0.614647
808 2 0.478342 0.0357135 0.630318
810 4 0.465819 0.0506404 0.645988
45 3 0.46364 0.0724649 0.641169
41 1 0.456067 0.0688885 0.662347
42 3 0.459384 0.0468273 0.667955
1127 4 0.0498431 0.0907494 0.616565
1126 2 0.025748 0.0941351 0.610808
1128 4 0.00165295 0.0975209 0.605051
938 4 0.0770264 0.0863378 0.601694
937 2 0.0884584 0.0992401 0.583583
1154 4 0.159457 0.137685 0.590224
900 4 0.238103 0.156544 0.594047
1182 4 0.236812 0.138707 0.587528
1221 4 0.171658 0.153422 0.589449
1219 2 0.196293 0.151071 0.593022
1211 4 0.233632 0.143694 0.659742
1210 2 0.231335 0.150718 0.635855
1220 4 0.220928 0.148719 0.596595
1212 4 0.229037 0.157742 0.611969
1192 2 0.315332 0.163076 0.63739
1193 4 0.318273 0.165555 0.612684
1194 4 0.312391 0.160596 0.662096
3424 2 0.491543 0.104103 0.651703
3425 4 0.473371 0.0875929 0.656431
878 4 0.0395179 0.2045 0.575618
1244 4 0.0550266 0.215808 0.581438
1243 2 0.0505077 0.234557 0.597351
3123 4 0.488993 0.239859 0.633774
983 4 0.0285452 0.260299 0.605516
1245 4 0.0459887 0.253306 0.613264
982 2 0.0154719 0.279099 0.595474
3263 4 0.0599269 0.332179 0.619957
948 4 0.147377 0.296675 0.580979
1135 2 0.166524 0.322695 0.611728
1136 4 0.160755 0.309338 0.591393
797 4 0.244574 0.271404 0.583548
822 4 0.169065 0.328772 0.649062
872 4 0.347986 0.282629 0.603499
871 2 0.362146 0.293244 0.621162
813 4 0.386567 0.320597 0.636549
873 4 0.376306 0.303859 0.638825
954 4 0.457878 0.291761 0.589808
952 2 0.459759 0.314197 0.600683
3262 2 0.0596542 0.356708 0.624797
1041 4 0.0702194 0.396886 0.631649
3264 4 0.0593815 0.381238 0.629636
3240 4 0.0514209 0.400512 0.630843
3238 2 0.0288695 0.410276 0.635455
1039 2 0.0934374 0.397333 0.640918
1040 4 0.116655 0.397781 0.650186
993 4 0.128102 0.380628 0.650229
991 2 0.146524 0.364333 0.645724
992 4 0.164945 0.348038 0.641219
1189 2 0.235216 0.366663 0.582
1137 4 0.172293 0.336052 0.632062
1064 4 0.179143 0.344848 0.64933
897 4 0.181819 0.352274 0.632283
896 4 0.202095 0.386792 0.602315
895 2 0.191957 0.369533 0.617299
1172 4 0.22055 0.394413 0.604948
1191 4 0.217136 0.379045 0.594041
1239 4 0.314601 0.367751 0.598248
1237 2 0.292542 0.361419 0.588323
930 4 0.330993 0.380362 0.598726
811 2 0.383276 0.345375 0.637179
1204 2 0.370838 0.398953 0.662069
1206 4 0.368772 0.385828 0.640888
927 4 0.383883 0.386312 0.628099
812 4 0.379985 0.370153 0.637808
925 2 0.398941 0.399976 0.613548
926 4 0.413998 0.41364 0.598996
953 4 0.461641 0.336633 0.611558
906 4 0.477626 0.347732 0.608064
904 2 0.498187 0.356905 0.597189
3239 4 0.00631813 0.420041 0.640067
539 4 0.0951442 0.42745 0.595003
538 2 0.0996543 0.451527 0.589992
2244 4 0.110265 0.493681 0.584546
1159 2 0.145835 0.491265 0.594493
1160 4 0.122468 0.482497 0.592982
1171 2 0.225679 0.418853 0.606184
1186 2 0.199535 0.470689 0.596566
1173 4 0.230809 0.443294 0.60742
1187 4 0.221619 0.460025 0.601442
1188 4 0.177452 0.481354 0.59169
1911 4 0.452985 0.489546 0.608858
1002 4 0.420714 0.432227 0.599045
1001 4 0.451974 0.469931 0.609139
1000 2 0.436344 0.451079 0.604092
1269 4 0.448297 0.479399 0.625526
1267 2 0.4631 0.481735 0.645541
1268 4 0.477903 0.484072 0.665556
943 2 0.0287666 0.0222883 0.674738
944 4 0.0494355 0.0363339 0.673904
1076 4 0.0634409 0.0494104 0.672687
1075 2 0.0633766 0.0650295 0.692212
945 4 0.00809766 0.00824267 0.675572
864 4 0.0541391 0.0811817 0.728436
1077 4 0.0633122 0.0806485 0.711737
862 2 0.0342596 0.0775659 0.743163
824 4 0.175655 0.00290697 0.675042
823 2 0.17422 0.0277068 0.672198
1283 4 0.167486 0.0669909 0.65759
1149 4 0.232245 0.063328 0.735443
1147 2 0.245724 0.069451 0.715293
1092 4 0.343106 0.0116463 0.68498
1004 4 0.338236 0.0700891 0.731411
43 3 0.433379 0.0736032 0.663544
1163 4 0.472141 0.0599856 0.681707
1162 2 0.484669 0.0517975 0.701736
44 3 0.467737 0.0822633 0.677291
1164 4 0.497197 0.0436095 0.721766
851 4 0.0664933 0.0989726 0.707323
850 2 0.0639609 0.122937 0.700654
852 4 0.0614284 0.146902 0.693986
1107 4 0.0725993 0.0884677 0.723553
1105 2 0.0927871 0.0888382 0.738301
1106 4 0.112975 0.0892087 0.753049
1282 2 0.168368 0.0893616 0.668724
1284 4 0.169249 0.111732 0.679857
909 4 0.175941 0.127125 0.691446
907 2 0.198743 0.131957 0.682398
908 4 0.221546 0.136789 0.673351
1227 4 0.241258 0.132933 0.670602
1148 4 0.259204 0.0755739 0.695144
1225 2 0.249718 0.109759 0.674675
886 2 0.272875 0.157222 0.671138
888 4 0.248854 0.150554 0.669218
1226 4 0.258177 0.0865853 0.678748
829 2 0.324064 0.147055 0.701629
830 4 0.31385 0.157299 0.681235
1005 4 0.341146 0.118128 0.717827
887 4 0.296897 0.16389 0.673058
1003 2 0.339691 0.0941085 0.724619
831 4 0.334278 0.136811 0.722023
1178 4 0.00761024 0.243309 0.730571
977 4 0.300042 0.226079 0.721584
976 2 0.32462 0.221757 0.720019
1298 4 0.291892 0.214769 0.734485
918 4 0.288852 0.233906 0.736321
978 4 0.349197 0.217435 0.718454
1025 4 0.409334 0.183822 0.678944
1020 4 0.360087 0.231293 0.725886
1018 2 0.37427 0.23944 0.744797
1146 4 0.498529 0.171848 0.725177
1024 2 0.425044 0.193233 0.695967
1142 4 0.43785 0.195279 0.730274
1144 2 0.477313 0.185077 0.725416
1262 4 0.446832 0.214213 0.727031
1026 4 0.440755 0.202644 0.71299
1261 2 0.443693 0.238529 0.731937
1145 4 0.456097 0.198306 0.725654
1177 2 0.0284912 0.253744 0.721611
1179 4 0.0493722 0.264179 0.712651
820 2 0.155471 0.313339 0.663282
1208 4 0.142798 0.260706 0.724373
1074 4 0.134113 0.253115 0.739262
1207 2 0.149502 0.277372 0.70698
821 4 0.141877 0.297907 0.677502
1209 4 0.156205 0.294037 0.689587
1072 2 0.113387 0.263689 0.748415
805 2 0.234673 0.335757 0.70634
806 4 0.257058 0.325565 0.710839
1263 4 0.440555 0.262844 0.736843
892 2 0.0202759 0.367273 0.74687
1279 2 0.0641489 0.40387 0.734334
1280 4 0.0540666 0.381005 0.733475
816 4 0.0610108 0.363751 0.732353
894 4 0.0445603 0.364433 0.741637
814 2 0.0827629 0.354057 0.724733
815 4 0.104515 0.344363 0.717114
942 4 0.116872 0.351113 0.732016
940 2 0.140929 0.353858 0.738253
941 4 0.164986 0.356602 0.744491
1063 2 0.19445 0.352085 0.667728
1065 4 0.209758 0.359322 0.686126
807 4 0.212289 0.34595 0.701842
1028 4 0.213849 0.378042 0.693774
1066 2 0.192356 0.367261 0.724261
1068 4 0.206984 0.363713 0.704296
1027 2 0.229907 0.397134 0.692099
1067 4 0.177728 0.370808 0.744226
1205 4 0.372903 0.412078 0.683251
1281 4 0.0742312 0.426734 0.735194
1983 4 0.0823046 0.443303 0.74395
1981 2 0.0927251 0.466023 0.744559
1982 4 0.103145 0.488744 0.745169
1176 4 0.178397 0.487996 0.727472
1029 4 0.245966 0.416226 0.690425
1175 4 0.177375 0.479037 0.678285
1174 2 0.177886 0.483516 0.702878
2016 4 0.176256 0.489056 0.747635
1140 4 0.249845 0.42991 0.676726
1138 2 0.267 0.448031 0.678311
1139 4 0.284156 0.466152 0.679895
1987 2 0.289773 0.455593 0.73134
1229 4 0.299993 0.466045 0.692776
1989 4 0.289763 0.468893 0.710166
2028 4 0.288228 0.478437 0.693673
1228 2 0.322367 0.458231 0.684806
1988 4 0.289783 0.442294 0.752513
1230 4 0.344741 0.450418 0.676836
1101 4 0.47983 0.476749 0.682499
1099 2 0.461876 0.474729 0.699782
1100 4 0.443921 0.47271 0.717066
2168 4 0.483395 0.495728 0.681304
2989 2 0.0172726 0.0339442 0.774518
2990 4 0.0138182 0.0566214 0.764569
2991 4 0.0207271 0.011267 0.784467
863 4 0.01438 0.07395 0.757891
833 4 0.00817689 0.0736833 0.775561
3083 4 0.996774 0.0638871 0.76449
2049 4 0.107676 0.0198642 0.782626
1202 4 0.105601 0.036177 0.793752
1201 2 0.118865 0.0569761 0.789674
2047 2 0.109132 0.997972 0.770635
1203 4 0.132129 0.0777751 0.785595
1085 4 0.3286 0.0726143 0.803909
1084 2 0.308333 0.0805504 0.791601
960 4 0.321244 0.07635 0.821562
819 4 0.333061 0.0611461 0.820023
1086 4 0.288066 0.0884865 0.779294
1050 4 0.364742 0.00679482 0.774468
817 2 0.346903 0.0465054 0.805217
818 4 0.360746 0.0318646 0.790411
974 4 0.360854 0.0124842 0.793793
2322 4 0.484344 0.0444015 0.784801
2320 2 0.491121 0.0383256 0.761513
1112 4 0.487655 0.0789655 0.78457
832 2 0.0131844 0.0908668 0.79302