ITEM: TIMESTEP
1740000
ITEM: NUMBER OF ATOMS
4590
ITEM: BOX BOUNDS pp pp pp
-9.9985700000000008e+00 9.9985700000000008e+00
-9.9985700000000008e+00 9.9985700000000008e+00
-9.9985700000000008e+00 9.9985700000000008e+00
ITEM: ATOMS id type xs ys zs
463 2 0.0153713 0.0384341 0.0422001
465 4 0.0290435 0.0510706 0.0588904
1667 4 0.0363446 0.0561725 0.0757406
701 4 0.0392268 0.0646187 0.0573575
590 4 0.0236751 0.0679376 0.0675164
700 2 0.0615114 0.072128 0.0488613
464 4 0.00169904 0.0257977 0.0255097
702 4 0.0837961 0.0796372 0.0403651
994 2 0.150602 0.024479 0.0139338
996 4 0.136365 0.00427893 0.0101312
995 4 0.164838 0.0446791 0.0177364
567 4 0.173139 0.0617997 0.0219073
533 4 0.175091 0.0532871 0.00377217
492 4 0.30935 0.0247419 0.0125414
490 2 0.325729 0.0364198 0.0273918
491 4 0.342108 0.0480977 0.0422422
557 4 0.358496 0.0569782 0.0446005
296 4 0.355478 0.0424486 0.0563171
295 2 0.36058 0.0218189 0.0694915
556 2 0.380507 0.0664944 0.0375179
1607 4 0.389859 0.98915 0.0105139
558 4 0.402517 0.0760106 0.0304353
1606 2 0.382297 0.0102079 0.999354
745 2 0.441452 0.0845154 0.0102104
589 2 0.0134416 0.0903571 0.0717376
591 4 0.0032082 0.112777 0.0759587
2760 4 0.999844 0.129308 0.0647798
423 4 0.0837869 0.0928955 0.0245917
422 4 0.128585 0.0931171 0.00237121
421 2 0.106186 0.0930063 0.0134815
565 2 0.178292 0.0852632 0.0288421
566 4 0.183445 0.108727 0.035777
746 4 0.421002 0.0836744 0.0245714
1012 2 0.48636 0.148079 0.00330463
771 4 0.451913 0.159858 0.0735021
769 2 0.458804 0.162215 0.0495826
827 4 0.457264 0.167792 0.00691699
826 2 0.433952 0.163642 0.998886
554 4 0.0468013 0.210254 0.0341371
553 2 0.0579654 0.227414 0.0197819
555 4 0.0691295 0.244574 0.00542661
836 4 0.0866405 0.249474 0.995961
835 2 0.110393 0.248687 0.00373242
837 4 0.134145 0.2479 0.011504
665 4 0.351681 0.226335 0.0135696
664 2 0.344481 0.236295 0.0353444
1013 4 0.475619 0.169534 0.0103404
770 4 0.465695 0.164572 0.0256632
656 4 0.00710694 0.266718 0.0503956
294 4 0.111988 0.2737 0.0484221
292 2 0.123391 0.294072 0.0394691
293 4 0.134794 0.314443 0.030516
288 4 0.134908 0.331778 0.0197884
357 4 0.2364 0.307837 0.00760064
572 4 0.327994 0.25698 0.0711542
571 2 0.306451 0.256368 0.0838311
666 4 0.337282 0.246255 0.0571192
461 4 0.347022 0.256498 0.070535
1071 4 0.390733 0.311445 0.0187609
1069 2 0.409421 0.298944 0.0296994
956 4 0.37318 0.320546 0.0208995
460 2 0.370418 0.259756 0.078732
955 2 0.356468 0.319656 0.00232233
322 2 0.425811 0.268661 0.0743168
1070 4 0.428109 0.286443 0.0406379
323 4 0.438689 0.277005 0.0545757
280 2 0.4714 0.33172 0.0372833
282 4 0.490531 0.324701 0.0227937
315 4 0.0501724 0.392348 0.0564138
313 2 0.0398455 0.413559 0.0646975
507 4 0.15029 0.32502 0.0276852
286 2 0.118514 0.345143 0.00645546
505 2 0.161967 0.336461 0.0466039
506 4 0.173645 0.347902 0.0655226
608 4 0.336594 0.373782 0.0650617
525 4 0.335458 0.392411 0.0672014
251 4 0.350806 0.397235 0.0035239
250 2 0.347843 0.390313 0.0273666
252 4 0.344881 0.38339 0.0512094
523 2 0.330635 0.4153 0.0760334
281 4 0.45227 0.338739 0.0517728
671 4 0.453111 0.32675 0.0674983
1224 4 0.153468 0.473305 0.999662
795 4 0.161359 0.491902 0.00148702
1440 4 0.234439 0.495774 0.0768636
562 2 0.491748 0.484179 0.00745607
1666 2 0.0448659 0.0416243 0.0942045
1806 4 0.068297 0.0139908 0.119436
1421 4 0.0561324 0.0226679 0.130124
1668 4 0.0533873 0.0270761 0.112668
1420 2 0.0405385 0.0318313 0.147388
1422 4 0.0249447 0.0409948 0.164652
1416 4 0.0526245 0.00881886 0.116765
1805 4 0.118074 0.0114714 0.123516
1804 2 0.0931854 0.0127311 0.121476
1504 2 0.231522 0.0809535 0.14712
1505 4 0.21709 0.0748929 0.166618
652 2 0.309887 0.0644273 0.129959
654 4 0.313514 0.0682492 0.154401
653 4 0.306259 0.0606054 0.105517
582 4 0.313053 0.0792218 0.171582
297 4 0.365682 0.00118919 0.082666
757 2 0.391196 0.0342172 0.142112
758 4 0.40254 0.0333719 0.119846
1759 2 0.494516 0.00106661 0.14283
235 2 0.153013 0.113606 0.141986
236 4 0.148113 0.0975661 0.16053
237 4 0.157914 0.129646 0.123442
1506 4 0.245953 0.0870141 0.127622
737 4 0.175688 0.13689 0.12062
736 2 0.185999 0.159428 0.117321
285 4 0.300995 0.15407 0.141811
477 4 0.0702896 0.217101 0.166432
738 4 0.19631 0.181967 0.114022
283 2 0.288101 0.174335 0.134866
354 4 0.261544 0.197949 0.115156
352 2 0.272511 0.220324 0.113091
284 4 0.275206 0.1946 0.12792
353 4 0.283478 0.242699 0.111027
630 4 0.420176 0.200708 0.11244
254 4 0.402835 0.205819 0.120769
253 2 0.400299 0.22885 0.111372
629 4 0.455478 0.174355 0.0887769
628 2 0.437827 0.187531 0.100608
481 2 0.185904 0.331274 0.101902
535 2 0.202275 0.286671 0.134537
536 4 0.2064 0.304003 0.116993
482 4 0.201357 0.3229 0.119684
362 4 0.179255 0.273008 0.154855
537 4 0.198149 0.26934 0.15208
573 4 0.284908 0.255756 0.0965079
754 2 0.277592 0.276683 0.134776
755 4 0.279528 0.261743 0.114821
756 4 0.275657 0.291624 0.154731
610 2 0.299167 0.32244 0.163673
612 4 0.281328 0.305169 0.166613
462 4 0.393813 0.263015 0.0869291
255 4 0.397764 0.251881 0.101975
622 2 0.35445 0.305007 0.115779
624 4 0.351528 0.281052 0.122318
765 4 0.358526 0.283667 0.141028
324 4 0.412932 0.260318 0.0940579
763 2 0.364102 0.28321 0.165398
623 4 0.357373 0.328963 0.109239
2652 4 0.484481 0.311903 0.104721
528 4 0.489249 0.326236 0.117982
705 4 0.0170919 0.34706 0.15608
648 4 0.0181292 0.366048 0.158364
620 4 0.00476725 0.359486 0.146069
455 4 0.118776 0.402862 0.137839
454 2 0.114552 0.392902 0.16038
483 4 0.17045 0.339649 0.0841187
626 4 0.260067 0.360648 0.135696
627 4 0.274209 0.403599 0.114343
625 2 0.267138 0.382124 0.12502
387 4 0.322509 0.357468 0.155222
611 4 0.317005 0.339712 0.160732
385 2 0.339354 0.350815 0.137984
607 2 0.34662 0.359828 0.0832256
609 4 0.356647 0.345873 0.101389
740 4 0.371393 0.344015 0.113914
386 4 0.356199 0.344162 0.120746
739 2 0.396232 0.342513 0.116359
741 4 0.42107 0.34101 0.118803
13 3 0.426203 0.378091 0.15382
670 2 0.444228 0.334189 0.0896551
672 4 0.435345 0.341629 0.111812
15 3 0.437432 0.390838 0.120218
11 1 0.440114 0.374296 0.13564
526 2 0.484578 0.347035 0.13105
12 3 0.434575 0.354098 0.126126
14 3 0.462228 0.373488 0.142618
495 4 0.480097 0.38318 0.146061
493 2 0.482238 0.406111 0.136325
527 4 0.479906 0.367833 0.144119
597 4 0.495245 0.376856 0.156593
645 4 0.476259 0.374819 0.158542
314 4 0.0295186 0.434771 0.0729813
1788 4 0.0230589 0.474719 0.124642
1787 4 0.0223355 0.437968 0.0907376
1786 2 0.0226972 0.456343 0.10769
1466 4 0.0297338 0.483247 0.141005
1791 4 0.0321845 0.491674 0.123429
1465 2 0.0123917 0.481067 0.158884
1438 2 0.239013 0.502379 0.100541
524 4 0.325813 0.438189 0.0848654
637 2 0.258825 0.479368 0.151538
494 4 0.484378 0.429041 0.126589
1799 4 0.0474347 0.999836 0.249159
2480 4 0.0153435 0.0522779 0.173868
19 3 0.0288228 0.0424594 0.184091
20 3 0.0638019 0.04885 0.196471
16 1 0.0418976 0.0545681 0.198951
18 3 0.0350481 0.0504168 0.220729
675 4 0.0772382 0.0347755 0.199102
17 3 0.0393722 0.0769967 0.194509
673 2 0.0944833 0.0208513 0.210674
450 4 0.101234 0.0637236 0.185933
448 2 0.123245 0.0739828 0.17998
674 4 0.111728 0.00692709 0.222246
690 4 0.208693 0.00843273 0.171678
689 4 0.216443 0.0578149 0.170244
688 2 0.212568 0.0331238 0.170961
28 3 0.226418 0.0674564 0.182753
692 4 0.205982 0.0710733 0.176544
26 1 0.236484 0.0724226 0.203061
29 3 0.22121 0.0827329 0.217161
27 3 0.24358 0.0528422 0.212828
691 2 0.183206 0.0813876 0.176306
311 4 0.327116 0.0667664 0.167675
580 2 0.291189 0.0768591 0.18348
581 4 0.269326 0.0744964 0.195378
759 4 0.379852 0.0350625 0.164378
310 2 0.347127 0.052931 0.17345
22 3 0.377636 0.0338739 0.218164
312 4 0.367137 0.0390956 0.179225
25 3 0.383028 0.0362896 0.181313
21 1 0.390141 0.0261969 0.200448
24 3 0.387433 0.00321421 0.198756
23 3 0.412458 0.0312837 0.204258
744 4 0.427058 0.0451577 0.207706
742 2 0.445776 0.0538738 0.221807
743 4 0.464493 0.06259 0.235909
476 4 0.0811668 0.168464 0.170532
511 2 0.0171518 0.137174 0.223864
513 4 0.0410741 0.142631 0.228672
578 4 0.0601214 0.135185 0.232147
449 4 0.145256 0.0842421 0.174027
723 4 0.146285 0.103933 0.178563
721 2 0.150929 0.119672 0.197428
722 4 0.155573 0.135412 0.216292
693 4 0.160431 0.0917019 0.176068
546 4 0.157301 0.155601 0.218646
544 2 0.169405 0.15517 0.240521
30 3 0.254411 0.0860643 0.199718
475 2 0.0757282 0.192782 0.168482
339 4 0.0893461 0.22296 0.165817
337 2 0.103378 0.241458 0.175096
333 4 0.44528 0.182946 0.217756
331 2 0.458636 0.183279 0.238891
395 4 0.037566 0.275429 0.232157
749 4 0.0437071 0.277228 0.213704
748 2 0.068379 0.273172 0.213545
703 2 0.00689609 0.325771 0.164324
363 4 0.133642 0.264653 0.173571
361 2 0.156449 0.268831 0.164213
338 4 0.11741 0.259956 0.184375
750 4 0.0930509 0.269116 0.213385
300 4 0.128248 0.320592 0.230317
372 4 0.19107 0.268865 0.169908
370 2 0.209139 0.266697 0.187054
371 4 0.227207 0.264529 0.2042
279 4 0.244005 0.276502 0.206919
278 4 0.278958 0.285596 0.172332
277 2 0.261481 0.281049 0.189625
344 4 0.283667 0.315264 0.224681
343 2 0.298691 0.296716 0.232127
345 4 0.313715 0.278168 0.239573
308 4 0.330617 0.269982 0.234002
307 2 0.351707 0.274763 0.22145
764 4 0.369679 0.282752 0.189767
309 4 0.372797 0.279545 0.208899
613 2 0.389869 0.328259 0.247681
2692 2 0.00417578 0.391894 0.226946
2694 4 0.0252544 0.393133 0.213554
647 4 0.022465 0.400183 0.194651
646 2 0.0202971 0.383115 0.176508
603 4 0.0335751 0.40922 0.207124
456 4 0.110329 0.382942 0.182922
302 4 0.314724 0.354075 0.17266
301 2 0.315941 0.366489 0.19433
303 4 0.317159 0.378903 0.216
727 2 0.295196 0.385351 0.245494
729 4 0.304283 0.393168 0.223551
614 4 0.387131 0.3442 0.228614
446 4 0.406762 0.346634 0.2272
445 2 0.425429 0.359883 0.217142
447 4 0.444097 0.373132 0.207084
643 2 0.469564 0.371342 0.18238
644 4 0.462869 0.367864 0.206218
262 2 0.0739014 0.483906 0.234368
263 4 0.057744 0.465198 0.238129
601 2 0.0418748 0.431328 0.215342
602 4 0.0501745 0.453436 0.22356
1430 4 0.133441 0.497769 0.166804
415 2 0.149715 0.473399 0.200132
416 4 0.159858 0.458264 0.217256
417 4 0.139572 0.488534 0.183008
413 4 0.160823 0.459185 0.235973
290 4 0.211667 0.42474 0.205825
289 2 0.193962 0.437902 0.217593
291 4 0.176256 0.451063 0.22936
768 4 0.218004 0.43766 0.193202
766 2 0.241159 0.439718 0.183993
638 4 0.262504 0.459422 0.16616
767 4 0.264314 0.441775 0.174784
660 4 0.339784 0.460879 0.226567
658 2 0.359869 0.445993 0.226121
659 4 0.379954 0.431108 0.225675
1404 4 0.0352272 0.0131537 0.256858
232 2 0.0170054 0.045856 0.324833
233 4 0.0220592 0.0555878 0.302363
1402 2 0.0286229 0.0332017 0.270261
1403 4 0.0220186 0.0532498 0.283663
316 2 0.0475051 0.0863396 0.286162
317 4 0.0296684 0.0694013 0.290648
530 4 0.011159 0.0663279 0.294924
1701 4 0.190218 0.00991281 0.286183
479 4 0.431832 0.0737033 0.327059
1749 4 0.46801 0.022442 0.304944
480 4 0.453162 0.0355363 0.302788
478 2 0.442497 0.0546198 0.314923
351 4 0.46934 0.0816233 0.233693
318 4 0.0653419 0.103278 0.281676
577 2 0.067031 0.128586 0.255253
397 2 0.0651534 0.133267 0.309597
579 4 0.0739407 0.121987 0.278359
398 4 0.0726166 0.113961 0.295569
399 4 0.0576902 0.152573 0.323624
731 4 0.0842677 0.106203 0.281347
732 4 0.133637 0.108936 0.288822
600 4 0.150413 0.109897 0.299072
730 2 0.108953 0.10757 0.285085
598 2 0.166353 0.124954 0.287056
599 4 0.182292 0.140011 0.27504
545 4 0.181508 0.15474 0.262395
392 4 0.181279 0.158017 0.281573
247 2 0.321096 0.120814 0.305329
249 4 0.312123 0.136181 0.322894
404 4 0.295668 0.143974 0.328752
683 4 0.298173 0.12399 0.327195
248 4 0.330069 0.105448 0.287764
633 4 0.399493 0.131206 0.279782
707 4 0.398856 0.150077 0.287575
706 2 0.381556 0.165722 0.296581
631 2 0.424283 0.130386 0.276627
632 4 0.449073 0.129566 0.273471
349 2 0.464272 0.0968902 0.252834
350 4 0.459204 0.112157 0.271976
452 4 0.455362 0.11958 0.28904
451 2 0.462265 0.119298 0.313071
444 4 0.0245664 0.234019 0.313838
393 4 0.18914 0.194133 0.315255
391 2 0.185209 0.176075 0.298414
708 4 0.364256 0.181368 0.305587
332 4 0.471992 0.183612 0.260026
521 4 0.490711 0.17481 0.26017
762 4 0.482807 0.181136 0.275656
760 2 0.468622 0.191708 0.293325
761 4 0.454436 0.202279 0.310994
419 4 0.452561 0.218094 0.323296
394 2 0.0201301 0.270754 0.249458
442 2 0.0103102 0.249266 0.300072
396 4 0.00269425 0.266078 0.266758
298 2 0.13712 0.317139 0.253437
733 2 0.152923 0.304938 0.309013
734 4 0.138421 0.301333 0.288966
299 4 0.145992 0.313686 0.276558
400 2 0.236526 0.300406 0.296874
401 4 0.225378 0.311888 0.277663
402 4 0.247674 0.288925 0.316086
276 4 0.241452 0.285266 0.331483
735 4 0.167425 0.308543 0.32906
498 4 0.323099 0.267902 0.302205
377 4 0.305089 0.267335 0.309113
496 2 0.325391 0.27181 0.277616
497 4 0.327684 0.275718 0.253026
376 2 0.283593 0.276292 0.318215
378 4 0.262096 0.28525 0.327318
510 4 0.2516 0.300049 0.331738
615 4 0.392608 0.312318 0.266749
543 4 0.404465 0.323347 0.2791
541 2 0.426215 0.324861 0.29134
542 4 0.447965 0.326375 0.30358
2536 2 0.484946 0.313499 0.296424
2538 4 0.466759 0.326442 0.307691
366 4 0.0229475 0.333071 0.288404
364 2 0.015054 0.340822 0.310827
728 4 0.286108 0.377534 0.267437
434 4 0.298532 0.380668 0.282665
433 2 0.319834 0.380929 0.295756
435 4 0.341135 0.381191 0.308846
2924 4 0.452363 0.327353 0.321963
412 2 0.153028 0.453066 0.258929
777 4 0.125479 0.452703 0.283633
775 2 0.113797 0.456734 0.305369
414 4 0.145232 0.446947 0.281885
776 4 0.102115 0.460765 0.327105
438 4 0.323677 0.493369 0.306654
4 3 0.355302 0.474152 0.319342
713 4 0.402179 0.471696 0.301668
712 2 0.424674 0.470253 0.290848
714 4 0.447169 0.468811 0.280028
234 4 0.0119517 0.0361241 0.347304
1780 2 0.104565 0.0086742 0.372377
1781 4 0.110283 0.0298171 0.384438
368 4 0.118861 0.046019 0.394776
367 2 0.100145 0.0589979 0.405093
439 2 0.244665 0.00667908 0.374592
441 4 0.249571 0.0288825 0.38499
321 4 0.216603 0.0686708 0.388803
698 4 0.371004 0.016814 0.372825
257 4 0.358706 0.0299049 0.383396
256 2 0.376378 0.0374998 0.399372
426 4 0.407694 0.0321004 0.421502
2643 4 0.498493 0.0254566 0.351061
459 4 0.00320506 0.139121 0.38952
457 2 0.0229385 0.152238 0.381537
319 2 0.23087 0.0790678 0.371097
320 4 0.245137 0.0894648 0.35339
682 2 0.280457 0.110143 0.33813
684 4 0.262741 0.0962961 0.349065
575 4 0.410481 0.135951 0.403906
453 4 0.469167 0.119016 0.337101
514 2 0.443236 0.130493 0.371753
515 4 0.460478 0.12471 0.354594
516 4 0.425994 0.136276 0.388912
458 4 0.0426719 0.165355 0.373554
2655 4 0.0282174 0.243938 0.330808
2653 2 0.023715 0.245889 0.355325
2654 4 0.0192126 0.24784 0.379842
390 4 0.0121299 0.245686 0.397294
388 2 0.0339062 0.244703 0.409542
687 4 0.137745 0.176232 0.377433
685 2 0.15332 0.187238 0.393603
686 4 0.168895 0.198243 0.409773
403 2 0.303145 0.163267 0.342789
405 4 0.310622 0.18256 0.356827
474 4 0.313611 0.193479 0.373378
472 2 0.298258 0.203331 0.390477
473 4 0.282904 0.213183 0.407576
717 4 0.412427 0.248847 0.369341
420 4 0.425703 0.238261 0.360346
418 2 0.439132 0.228178 0.341821
269 4 0.426862 0.240081 0.379952
268 2 0.433121 0.224807 0.398732
270 4 0.43938 0.209533 0.417512
2850 4 0.00315809 0.256707 0.383298
677 4 0.159409 0.32245 0.34065
275 4 0.222741 0.247671 0.358634
676 2 0.171214 0.312922 0.360525
678 4 0.183019 0.303393 0.3804
274 2 0.232097 0.266468 0.345059
375 4 0.201422 0.297758 0.387802
373 2 0.207775 0.28655 0.409231
508 2 0.25702 0.317929 0.348354
504 4 0.291766 0.325243 0.422279
716 4 0.390178 0.292243 0.358274
715 2 0.401303 0.270545 0.363807
365 4 0.00716055 0.348572 0.33325
616 2 0.0332311 0.3655 0.360712
617 4 0.0173492 0.362516 0.341632
618 4 0.0491131 0.368485 0.379792
326 4 0.0583653 0.371413 0.396226
347 4 0.0451895 0.357728 0.397195
325 2 0.0763374 0.386585 0.387742
346 2 0.0539288 0.339549 0.41197
327 4 0.0943094 0.401757 0.379257
408 4 0.0857624 0.409139 0.363312
509 4 0.262439 0.335809 0.364971
503 4 0.265442 0.343325 0.383797
502 2 0.278604 0.334284 0.403038
753 4 0.391868 0.397111 0.36216
587 4 0.378982 0.383328 0.370501
751 2 0.412192 0.383248 0.357696
586 2 0.369913 0.400375 0.386387
2923 2 0.45241 0.347548 0.336705
561 4 0.444383 0.367393 0.368616
752 4 0.432516 0.369386 0.353232
559 2 0.462599 0.37113 0.385331
2925 4 0.452456 0.367744 0.351447
560 4 0.480815 0.374866 0.402046
549 4 0.0439175 0.486534 0.336586
547 2 0.0674866 0.478322 0.338083
2463 4 0.0265767 0.481436 0.328536
2461 2 0.00791915 0.472894 0.342823
680 4 0.0157147 0.483639 0.411379
1383 4 0.0341445 0.485243 0.405129
548 4 0.0910557 0.47011 0.339579
500 4 0.111351 0.46524 0.34275
406 2 0.0918824 0.430704 0.352235
407 4 0.0980024 0.452269 0.341159
499 2 0.122975 0.483268 0.355597
1556 4 0.238706 0.499352 0.396746
1555 2 0.230918 0.494962 0.420097
5 3 0.331801 0.466433 0.347728
669 4 0.330905 0.464377 0.368676
1 1 0.341864 0.483149 0.335982
2 3 0.354976 0.495582 0.350218
667 2 0.344999 0.450049 0.383549
668 4 0.359094 0.43572 0.398423
588 4 0.360844 0.417421 0.402272
2238 4 0.00853217 0.0159979 0.473656
718 2 0.0585585 0.0672676 0.450398
720 4 0.0526843 0.0654735 0.474635
2236 2 0.0261408 0.0329568 0.478901
2237 4 0.0437494 0.0499157 0.484146
719 4 0.0644327 0.0690617 0.42616
1127 4 0.0400918 0.067579 0.488925
1524 4 0.115208 0.00821186 0.498592
369 4 0.0814291 0.0719768 0.41541
605 4 0.227682 0.0402123 0.4621
604 2 0.241198 0.0307111 0.480868
606 4 0.254713 0.02121 0.499636
258 4 0.394049 0.0450947 0.415347
424 2 0.41099 0.0299252 0.446191
425 4 0.414286 0.02775 0.470881
1579 2 0.398235 0.00516797 0.506018
259 2 0.0404769 0.1387 0.488194
260 4 0.0196851 0.132643 0.475696
261 4 0.0612686 0.144756 0.500692
466 2 0.321612 0.163195 0.486103
468 4 0.336167 0.152598 0.503453
574 2 0.402897 0.117331 0.418771
576 4 0.395312 0.098711 0.433635
725 4 0.350497 0.139545 0.494528
724 2 0.346851 0.114934 0.497008
642 4 0.480694 0.0846609 0.492914
2880 4 0.493172 0.100522 0.492448
389 4 0.0556825 0.243719 0.42179
695 4 0.124713 0.22769 0.465242
489 4 0.28012 0.219735 0.425629
467 4 0.307057 0.173792 0.468753
411 4 0.288056 0.17221 0.460895
409 2 0.28282 0.186268 0.440892
410 4 0.277583 0.200326 0.420889
487 2 0.28115 0.241684 0.437562
872 4 0.332721 0.242449 0.490899
3157 2 0.480103 0.195332 0.491136
3159 4 0.467475 0.194337 0.469579
305 4 0.458935 0.181307 0.457511
306 4 0.450893 0.220814 0.427927
304 2 0.454914 0.201061 0.442719
2847 4 0.996031 0.306845 0.460294
470 4 0.010562 0.296005 0.466224
469 2 0.00674672 0.278492 0.483658
348 4 0.0626682 0.321369 0.426746
694 2 0.131319 0.251176 0.470715
696 4 0.137926 0.274662 0.476188
10 3 0.131937 0.292513 0.474743
1260 4 0.151074 0.284372 0.481343
6 1 0.134453 0.312643 0.464396
7 3 0.130669 0.310098 0.441849
9 3 0.119157 0.327881 0.472896
8 3 0.156054 0.320513 0.467535
983 4 0.107641 0.333337 0.487797
374 4 0.214127 0.275342 0.43066
711 4 0.174633 0.315217 0.473119
1258 2 0.165156 0.283829 0.501997
266 4 0.298134 0.274843 0.456375
265 2 0.289589 0.296278 0.446747
267 4 0.281044 0.317714 0.43712
488 4 0.28218 0.263633 0.449494
871 2 0.349403 0.255558 0.477669
873 4 0.366084 0.268668 0.464438
2456 4 0.493185 0.27491 0.431787
583 2 0.455072 0.284014 0.452591
584 4 0.476835 0.287976 0.440935
585 4 0.433309 0.280052 0.464247
709 2 0.191194 0.331478 0.482419
804 4 0.212106 0.403807 0.499413
710 4 0.207755 0.34774 0.491718
803 4 0.224463 0.357237 0.486024
802 2 0.218284 0.380522 0.492718
650 4 0.224974 0.340227 0.49465
240 4 0.403266 0.38347 0.478278
334 2 0.370025 0.407267 0.492149
335 4 0.384795 0.39064 0.480724
3308 4 0.494772 0.370832 0.484329
2508 4 0.492121 0.370107 0.464977
2507 4 0.47207 0.379091 0.420056
2506 2 0.482095 0.374599 0.442517
3307 2 0.476709 0.377201 0.500401
238 2 0.423798 0.387203 0.492049
679 2 0.0178993 0.469169 0.431653
681 4 0.0200839 0.4547 0.451927
383 4 0.0356155 0.445073 0.44268
382 2 0.0565081 0.435244 0.452275
384 4 0.0774006 0.425415 0.461871
570 4 0.128228 0.421458 0.42166
539 4 0.0892451 0.441594 0.468139
538 2 0.103647 0.447635 0.487666
569 4 0.0898175 0.434462 0.450923
568 2 0.109023 0.42796 0.436291
636 4 0.204484 0.48375 0.444955
635 4 0.174981 0.48003 0.48516
1557 4 0.22313 0.490572 0.443448
634 2 0.189733 0.48189 0.465058
774 4 0.173668 0.492676 0.501992
880 2 0.328098 0.451592 0.490504
1454 4 0.305823 0.48015 0.484267
882 4 0.313017 0.464213 0.475062
1453 2 0.29222 0.495366 0.498711
336 4 0.355255 0.423894 0.503575
1126 2 0.0498254 0.0706214 0.511754
1128 4 0.0595591 0.0736637 0.534584
939 4 0.0676963 0.0600796 0.546778
1057 2 0.144799 0.0444165 0.57393
1059 4 0.134327 0.0641443 0.56269
1155 4 0.130865 0.0804425 0.554034
937 2 0.091349 0.0654424 0.552858
938 4 0.115002 0.0708051 0.558938
341 4 0.212951 0.0232182 0.54536
340 2 0.22421 0.0441342 0.537554
342 4 0.235468 0.0650501 0.529747
2430 4 0.215993 0.00399157 0.543829
1182 4 0.245672 0.0815388 0.52471
961 2 0.301442 0.0450754 0.571264
963 4 0.30258 0.0651863 0.556451
962 4 0.300304 0.0249644 0.586077
950 4 0.29129 0.00884051 0.582513
2196 4 0.310865 0.00948904 0.5858
2194 2 0.335731 0.00712829 0.586928
432 4 0.308137 0.0827662 0.549666
842 4 0.387778 0.0426883 0.518852
841 2 0.371416 0.059261 0.509752
1217 4 0.405508 0.0392614 0.524703
1581 4 0.392408 0.0242219 0.521124
89 3 0.394383 0.00292367 0.56064
843 4 0.355054 0.0758337 0.500653
1216 2 0.425759 0.052208 0.531591
1218 4 0.446011 0.0651546 0.538478
641 4 0.447854 0.0837305 0.530615
640 2 0.464274 0.0841957 0.511765
1062 4 0.496859 0.0353144 0.537455
1060 2 0.496184 0.0145088 0.523603
1035 4 0.0713504 0.14409 0.51802
1033 2 0.0650003 0.160699 0.535597
1153 2 0.150114 0.0921342 0.543173
1154 4 0.169363 0.103826 0.532312
1152 4 0.229232 0.082671 0.533041
1151 4 0.188905 0.112213 0.534353
1150 2 0.209069 0.097442 0.533697
858 4 0.230165 0.161301 0.529771
430 2 0.321799 0.079509 0.52898
1181 4 0.28989 0.0769309 0.547607
1180 2 0.267781 0.0792349 0.536159
431 4 0.335461 0.0762518 0.508293
898 2 0.357315 0.16357 0.568702
899 4 0.361955 0.141499 0.557908
726 4 0.343205 0.0903219 0.499487
1034 4 0.0586503 0.177309 0.553175
2916 4 0.998173 0.240726 0.500403
857 4 0.24198 0.209889 0.530359
856 2 0.236072 0.185595 0.530065
3065 4 0.470047 0.217904 0.568977
3064 2 0.480816 0.205789 0.549938
905 4 0.471343 0.233684 0.58003
904 2 0.450831 0.247378 0.575917
3158 4 0.492731 0.196327 0.512694
471 4 0.00293141 0.26098 0.501092
948 4 0.214935 0.281849 0.578173
1259 4 0.179238 0.283285 0.522651
649 2 0.241446 0.328278 0.509177
651 4 0.257919 0.316328 0.523705
811 2 0.300691 0.324439 0.533687
1239 4 0.331141 0.311372 0.543126
812 4 0.27786 0.319096 0.525007
1237 2 0.344579 0.303527 0.562697
1238 4 0.358017 0.295683 0.582269
953 4 0.373735 0.285186 0.579188
952 2 0.398136 0.282523 0.574426
906 4 0.43032 0.261073 0.571804
954 4 0.422537 0.279861 0.569665
1136 4 0.0729152 0.363661 0.540869
1135 2 0.0824201 0.369121 0.563342
984 4 0.0796148 0.353851 0.523775
1137 4 0.0919249 0.37458 0.585815
982 2 0.093628 0.343594 0.505786
896 4 0.145153 0.408082 0.5701
895 2 0.124946 0.397729 0.580572
1191 4 0.157846 0.40735 0.555911
1189 2 0.165399 0.391428 0.538173
1190 4 0.172952 0.375506 0.520435
813 4 0.323523 0.329783 0.542367
925 2 0.433743 0.381111 0.54679
926 4 0.442153 0.389548 0.524807
3309 4 0.458645 0.38357 0.516474
927 4 0.425332 0.372674 0.568773
239 4 0.444331 0.390937 0.505821
663 4 0.451725 0.402584 0.519143
2243 4 0.143819 0.422449 0.558931
2242 2 0.134277 0.439037 0.542838
1161 4 0.159487 0.420484 0.569816
2244 4 0.124735 0.455625 0.526746
540 4 0.118048 0.453676 0.507192
773 4 0.193757 0.491103 0.54776
1159 2 0.176451 0.433188 0.583081
772 2 0.183713 0.49189 0.524876
1171 2 0.307498 0.444167 0.578364
1173 4 0.283263 0.450198 0.577132
1172 4 0.331732 0.438137 0.579596
929 4 0.347811 0.437005 0.567356
891 4 0.345477 0.451695 0.578945
889 2 0.359397 0.471169 0.586169
1331 4 0.382941 0.478303 0.525581
1330 2 0.405251 0.467253 0.523269
1909 2 0.409906 0.495089 0.587307
881 4 0.343179 0.438971 0.505946
661 2 0.449076 0.42715 0.522971
662 4 0.446427 0.451717 0.526798
1910 4 0.432596 0.486914 0.580712
1332 4 0.427561 0.456203 0.520957
945 4 0.051961 0.0292534 0.582639
943 2 0.0355197 0.0480484 0.583907
944 4 0.0190785 0.0668435 0.585175
2319 4 0.0427223 0.0123066 0.587213
1083 4 0.00833363 0.0741516 0.600952
1081 2 0.999437 0.0834332 0.622397
1058 4 0.155271 0.0246887 0.58517
949 2 0.271397 0.9959 0.590386
1005 4 0.32732 0.0213086 0.635574
2195 4 0.360597 0.00476753 0.588056
1090 2 0.402537 0.0319532 0.631861
1092 4 0.37847 0.0351053 0.637862
1004 4 0.369434 0.0396209 0.655368
1003 2 0.348377 0.0304648 0.645471
1091 4 0.426604 0.0288012 0.62586
2283 4 0.43582 0.0114538 0.631502
43 3 0.485642 0.0538933 0.656559
45 3 0.464063 0.0847379 0.657346
41 1 0.468865 0.0651667 0.667955
1272 4 0.0810699 0.163035 0.611805
1221 4 0.14764 0.151764 0.600929
1219 2 0.162096 0.169617 0.610801
1271 4 0.128644 0.148405 0.606965
1270 2 0.104857 0.15572 0.609385
909 4 0.167755 0.128715 0.66837
1283 4 0.179961 0.12814 0.650692
1031 4 0.22697 0.0948779 0.615874
1284 4 0.217511 0.0996467 0.633995
1282 2 0.198736 0.113893 0.642344
1211 4 0.23707 0.165426 0.646946
1030 2 0.25139 0.0938754 0.610597
1032 4 0.27581 0.0928729 0.60532
809 4 0.455196 0.099507 0.647799
810 4 0.461451 0.147423 0.634927
808 2 0.458323 0.123465 0.641363
879 4 0.0625191 0.167009 0.618615
878 4 0.0138296 0.178191 0.616378
877 2 0.0381743 0.1726 0.617496
1199 4 0.0116716 0.188109 0.600122
1210 2 0.214583 0.173037 0.639096
1212 4 0.192097 0.180648 0.631247
1220 4 0.176552 0.187471 0.620674
796 2 0.187697 0.223087 0.622774
798 4 0.191694 0.198635 0.626135
888 4 0.232299 0.179664 0.661387
797 4 0.1837 0.247539 0.619412
900 4 0.352675 0.185642 0.579495
791 4 0.33939 0.242932 0.612762
1025 4 0.457973 0.20472 0.659113
1024 2 0.478294 0.215681 0.649516
1026 4 0.498615 0.226641 0.639919
1243 2 0.0215911 0.287576 0.652567
1244 4 0.0124111 0.296973 0.631292
3044 4 0.996043 0.287273 0.623882
947 4 0.18032 0.265217 0.610202
946 2 0.197627 0.273533 0.594187
792 4 0.365092 0.282331 0.595798
790 2 0.352241 0.262631 0.60428
1039 2 0.0717184 0.391299 0.617892
1040 4 0.058836 0.394085 0.63914
897 4 0.104739 0.387376 0.591045
1041 4 0.0846009 0.388513 0.596644
807 4 0.337534 0.38388 0.641777
928 2 0.357244 0.416504 0.578123
1000 2 0.404685 0.391752 0.591031
1002 4 0.382252 0.39366 0.601909
930 4 0.366676 0.396004 0.58889
805 2 0.35243 0.382978 0.621715
806 4 0.367326 0.382076 0.601653
1269 4 0.410509 0.420279 0.626964
1001 4 0.427117 0.389844 0.580154
993 4 0.0574403 0.41304 0.644673
3262 2 0.00718179 0.430085 0.667805
3240 4 0.99907 0.444271 0.633335
1160 4 0.193416 0.445893 0.596346
1187 4 0.28136 0.446483 0.596292
1188 4 0.260983 0.445557 0.641949
1186 2 0.271172 0.44602 0.61912
1140 4 0.257211 0.446952 0.662415
890 4 0.373317 0.490642 0.593394
1267 2 0.420934 0.436704 0.642671
2168 4 0.447403 0.46423 0.665044
1268 4 0.431359 0.453129 0.658378
4338 4 0.0093643 0.992057 0.691901
42 3 0.476131 0.0697057 0.689303
1162 2 0.485828 0.0508397 0.720609
1163 4 0.47785 0.0683249 0.704615
1164 4 0.493806 0.0333546 0.736603
44 3 0.44984 0.051939 0.66916
3426 4 0.490645 0.0768578 0.691813
1077 4 0.999471 0.107307 0.707412
862 2 0.0149366 0.120571 0.743259
1075 2 0.998516 0.105615 0.682484
864 4 0.00723141 0.10532 0.725005
2991 4 0.991944 0.0943766 0.720998
908 4 0.143178 0.102743 0.703329
907 2 0.155466 0.115729 0.685849
1227 4 0.152277 0.103654 0.722066
1225 2 0.171838 0.0981148 0.736623
831 4 0.26889 0.139832 0.739316
1299 4 0.274417 0.127618 0.724772
1297 2 0.293016 0.115181 0.71361
1298 4 0.311615 0.102745 0.702448
829 2 0.267773 0.162862 0.729643
839 4 0.26705 0.120428 0.741713
852 4 0.0312005 0.218735 0.716756
850 2 0.0426909 0.198508 0.725922
1208 4 0.0325599 0.222693 0.696978
1207 2 0.036607 0.242491 0.682253
851 4 0.0541812 0.178281 0.735088
1074 4 0.145204 0.24958 0.743541
1072 2 0.138896 0.225405 0.742554
35 3 0.137198 0.182376 0.748976
1073 4 0.132587 0.201231 0.741567
1130 4 0.178519 0.18783 0.741278
886 2 0.243116 0.1813 0.68387
1129 2 0.199293 0.198913 0.74969
887 4 0.253933 0.182936 0.706353
830 4 0.266656 0.185892 0.719971
976 2 0.265193 0.220811 0.717959
978 4 0.262887 0.199688 0.70478
977 4 0.267499 0.241934 0.731138
918 4 0.287107 0.24636 0.734556
1192 2 0.386747 0.195585 0.736329
1194 4 0.394512 0.177378 0.721053
1209 4 0.0406542 0.262289 0.667528
1245 4 0.0307711 0.27818 0.673842
1179 4 0.0388083 0.282182 0.748471
814 2 0.0668977 0.30573 0.748327
1177 2 0.0154157 0.27363 0.746274
815 4 0.0808073 0.323027 0.736816
820 2 0.161043 0.296104 0.696104
821 4 0.161646 0.318974 0.706194
941 4 0.145809 0.327546 0.718916
940 2 0.121939 0.328183 0.726332
1067 4 0.158652 0.336651 0.71024
942 4 0.0980694 0.328819 0.733748
822 4 0.160441 0.273235 0.686015
991 2 0.0626446 0.414048 0.669108
3275 4 0.0172736 0.352398 0.704525
893 4 0.0783331 0.386335 0.721334
1280 4 0.0627113 0.395795 0.727508
3274 2 0.998405 0.363556 0.716553
892 2 0.0807216 0.363632 0.731536
992 4 0.0678489 0.415055 0.693543
894 4 0.0831102 0.34093 0.741737
1066 2 0.174372 0.355822 0.706997
1028 4 0.185386 0.386829 0.688718
1027 2 0.207591 0.398096 0.690989
1068 4 0.190092 0.374994 0.703755
1029 4 0.229796 0.409364 0.693261
1139 4 0.248826 0.411462 0.696633
1206 4 0.409824 0.37267 0.752415
1230 4 0.409101 0.392893 0.75004
1228 2 0.389436 0.404686 0.740069
1204 2 0.428951 0.35981 0.742724
1205 4 0.448079 0.34695 0.733032
1982 4 0.037466 0.491134 0.725312
3263 4 0.0227008 0.417136 0.682525
1279 2 0.0445646 0.412894 0.729375
1281 4 0.0264179 0.429994 0.731243
1983 4 0.0179352 0.445493 0.719301
1981 2 0.0277006 0.468314 0.722306
1138 2 0.253019 0.429207 0.679524
2169 4 0.416603 0.488448 0.696117
1987 2 0.33811 0.43037 0.738904
1229 4 0.369772 0.416479 0.730099
1989 4 0.357375 0.433101 0.723202
1101 4 0.489122 0.421763 0.675734
2167 2 0.432003 0.476339 0.68058
1100 4 0.445897 0.445774 0.668262
1099 2 0.467509 0.433768 0.671998
3330 4 0.500224 0.417799 0.692572
1202 4 0.152743 0.00934089 0.804128
1201 2 0.141923 0.0218562 0.822875
2049 4 0.165774 0.0091339 0.788348
1149 4 0.211736 0.0760472 0.813334
1257 4 0.231638 0.0766983 0.816145
973 2 0.391406 0.0152222 0.783316
975 4 0.400901 0.0299938 0.801115
1113 4 0.396587 0.0437775 0.814677
1111 2 0.416477 0.05783 0.820342
1112 4 0.436367 0.0718825 0.826008
863 4 0.0226418 0.135822 0.761514
834 4 0.0342181 0.138623 0.82436