ITEM: TIMESTEP
1770000
ITEM: NUMBER OF ATOMS
4590
ITEM: BOX BOUNDS pp pp pp
-9.9985700000000008e+00 9.9985700000000008e+00
-9.9985700000000008e+00 9.9985700000000008e+00
-9.9985700000000008e+00 9.9985700000000008e+00
ITEM: ATOMS id type xs ys zs
1666 2 0.0486324 0.058905 0.0643043
1668 4 0.0370042 0.0584883 0.0421731
1474 2 0.302984 0.00859058 0.0838869
2974 2 0.471883 0.0284372 0.0132908
745 2 0.450569 0.0844916 0.00671229
2976 4 0.470666 0.00740389 0.0267555
2467 2 0.47708 0.00602435 0.064596
566 4 0.189616 0.152108 0.0362192
2264 4 0.250453 0.160909 0.0157345
297 4 0.326044 0.117788 0.0371112
295 2 0.342503 0.112363 0.0190876
556 2 0.400044 0.114176 0.0117445
557 4 0.376788 0.113124 0.00262226
296 4 0.358961 0.106938 0.00106387
558 4 0.423301 0.115227 0.0208667
746 4 0.43798 0.103639 0.0167167
565 2 0.210864 0.160473 0.026033
567 4 0.232111 0.168838 0.0158468
1133 4 0.229718 0.187612 0.00707318
360 4 0.329193 0.181152 0.0132818
769 2 0.410611 0.167729 0.00760493
358 2 0.351705 0.175277 0.0224397
770 4 0.391744 0.168819 0.023976
359 4 0.374217 0.169402 0.0315976
664 2 0.391182 0.202696 0.0514661
665 4 0.387122 0.183857 0.0355357
666 4 0.395241 0.221535 0.0673965
323 4 0.414078 0.226198 0.0657708
623 4 0.403837 0.229722 0.082322
555 4 0.0396379 0.275375 0.0191875
553 2 0.0521776 0.274758 0.997565
287 4 0.159454 0.303311 0.0332653
292 2 0.126646 0.28017 0.0367029
507 4 0.153271 0.302413 0.0528841
293 4 0.150027 0.288258 0.0403201
294 4 0.103265 0.272081 0.0330858
286 2 0.157554 0.32322 0.0182583
505 2 0.170341 0.298852 0.070804
481 2 0.227573 0.303618 0.0758174
483 4 0.202681 0.304589 0.0779709
573 4 0.263455 0.289109 0.0619003
482 4 0.252465 0.302647 0.073664
571 2 0.274144 0.2785 0.041941
572 4 0.284834 0.267891 0.0219817
357 4 0.287462 0.265289 0.00186153
1069 2 0.394668 0.290483 0.0297851
957 4 0.366564 0.315173 0.0287922
1071 4 0.371517 0.297228 0.0231717
955 2 0.347355 0.312369 0.0130335
741 4 0.360213 0.330539 0.0399193
322 2 0.420043 0.249422 0.0586832
324 4 0.426009 0.272646 0.0515957
1070 4 0.417818 0.283738 0.0363985
671 4 0.451767 0.322792 0.0661437
280 2 0.448077 0.299615 0.0390739
281 4 0.463242 0.312655 0.0540791
282 4 0.432912 0.286575 0.0240686
454 2 0.165644 0.376884 0.062629
455 4 0.14389 0.365465 0.0579865
552 4 0.125504 0.366016 0.0661265
550 2 0.105229 0.351384 0.0660954
551 4 0.0849541 0.336751 0.0660644
288 4 0.155654 0.343129 0.00325126
456 4 0.187398 0.388303 0.0672714
1290 4 0.273868 0.404413 0.0221496
739 2 0.369272 0.336486 0.0624526
495 4 0.39538 0.36733 0.0760989
493 2 0.388876 0.391347 0.0736341
494 4 0.382373 0.415364 0.0711693
670 2 0.432659 0.330609 0.0802484
245 4 0.241558 0.483016 0.0518689
626 4 0.224681 0.473097 0.0516511
625 2 0.209476 0.463608 0.0690844
244 2 0.257817 0.469781 0.038243
246 4 0.274076 0.456546 0.024617
1778 4 0.206729 0.501298 0.0186649
251 4 0.277571 0.421998 0.0286913
250 2 0.277094 0.419878 0.0536003
252 4 0.276616 0.417759 0.0785093
272 4 0.284062 0.439863 0.0188071
1672 2 0.401059 0.446635 0.0668803
853 2 0.405701 0.447427 0.00911006
1674 4 0.411363 0.452924 0.0449836
854 4 0.420791 0.456619 0.0268013
563 4 0.476396 0.442502 0.0519834
562 2 0.452143 0.443596 0.0460052
564 4 0.427889 0.44469 0.0400269
228 4 0.493467 0.430331 0.0511537
1667 4 0.0602607 0.0593218 0.0864354
701 4 0.0734549 0.0705956 0.0989829
18 3 0.0617462 0.0404479 0.144781
1475 4 0.309394 0.0321345 0.0893429
492 4 0.301953 0.0430999 0.104385
490 2 0.284106 0.0592244 0.0975538
491 4 0.266259 0.0753489 0.090723
485 4 0.378036 0.995249 0.120868
2723 4 0.445774 0.0675261 0.139873
2722 2 0.463299 0.0497165 0.138925
2724 4 0.480823 0.0319069 0.137977
1760 4 0.493273 0.0169308 0.139335
1759 2 0.499281 0.0167813 0.115064
2744 4 0.486777 0.0270931 0.155697
2469 4 0.485959 0.015492 0.0859668
700 2 0.0773235 0.0951322 0.0961247
702 4 0.081192 0.119669 0.0932665
475 2 0.0823731 0.131662 0.136323
476 4 0.0824289 0.124024 0.112515
737 4 0.245785 0.156328 0.115535
237 4 0.233609 0.142737 0.153634
582 4 0.251273 0.135896 0.157146
628 2 0.365444 0.144969 0.153902
312 4 0.380718 0.107156 0.160322
629 4 0.371228 0.123674 0.16566
630 4 0.35966 0.166263 0.142143
339 4 0.0789692 0.227502 0.148378
736 2 0.248297 0.179876 0.107512
738 4 0.250808 0.203424 0.0994899
461 4 0.308853 0.239119 0.0992785
460 2 0.330937 0.236881 0.110787
354 4 0.294123 0.243384 0.111313
352 2 0.283213 0.242336 0.133786
353 4 0.272303 0.241287 0.15626
254 4 0.376653 0.177048 0.148643
462 4 0.353022 0.234644 0.122296
255 4 0.364459 0.221906 0.130209
253 2 0.370556 0.199477 0.139426
765 4 0.366095 0.239399 0.137862
624 4 0.371622 0.237217 0.119828
622 2 0.38773 0.23347 0.101075
763 2 0.356004 0.248781 0.158726
337 2 0.068324 0.247673 0.158625
506 4 0.187411 0.29529 0.0887239
537 4 0.186307 0.306045 0.10657
535 2 0.200135 0.315248 0.125259
536 4 0.213963 0.324452 0.143948
755 4 0.261492 0.257633 0.161118
387 4 0.322555 0.315642 0.120222
301 2 0.324534 0.300645 0.159925
302 4 0.326446 0.302754 0.135084
385 2 0.341945 0.325025 0.107528
15 3 0.37227 0.332941 0.112041
518 4 0.496849 0.279711 0.10172
528 4 0.480751 0.274114 0.110952
526 2 0.462664 0.286882 0.0993331
527 4 0.444576 0.29965 0.0877146
315 4 0.0129643 0.383492 0.117242
647 4 0.0652192 0.359739 0.150636
417 4 0.138903 0.40237 0.166314
415 2 0.157747 0.40316 0.149898
291 4 0.196157 0.411349 0.133784
289 2 0.220551 0.416617 0.13532
14 3 0.394161 0.350984 0.0872847
386 4 0.361335 0.334408 0.0948331
12 3 0.409358 0.33233 0.116159
740 4 0.378331 0.342433 0.0849858
672 4 0.413551 0.338427 0.0943531
11 1 0.391383 0.345071 0.10955
13 3 0.39044 0.364131 0.122749
595 2 0.486767 0.406055 0.119405
597 4 0.477095 0.392904 0.138344
645 4 0.477915 0.396714 0.157983
104 3 0.506676 0.357864 0.146545
102 3 0.492533 0.339677 0.116849
1791 4 0.058511 0.495004 0.139818
1466 4 0.052118 0.476799 0.142804
1465 2 0.030462 0.46763 0.151298
627 4 0.19427 0.454119 0.0865176
290 4 0.244945 0.421885 0.136855
416 4 0.17659 0.403949 0.133482
637 2 0.234458 0.500007 0.12505
609 4 0.282683 0.425707 0.0968653
607 2 0.306585 0.424347 0.104077
608 4 0.330487 0.422988 0.111289
768 4 0.262942 0.42776 0.13119
767 4 0.269545 0.477189 0.134913
766 2 0.266244 0.452475 0.133052
638 4 0.253742 0.487882 0.135358
1673 4 0.390755 0.440347 0.088777
659 4 0.347258 0.428719 0.120736
660 4 0.375769 0.430866 0.0797093
658 2 0.361513 0.429792 0.100223
1559 4 0.358647 0.495917 0.103968
596 4 0.496438 0.419207 0.100467
380 4 0.000891632 0.0838197 0.207202
16 1 0.0616899 0.0503907 0.165747
19 3 0.0651827 0.0732373 0.163688
17 3 0.0412051 0.0468575 0.175597
2480 4 0.0302376 0.0312812 0.184464
1422 4 0.0283173 0.0197719 0.19629
2479 2 0.0147181 0.0479594 0.194768
20 3 0.0779574 0.0411841 0.178756
1403 4 0.0989005 0.0029859 0.254413
578 4 0.0932091 0.0517666 0.171037
674 4 0.136104 0.0256747 0.202388
673 2 0.124886 0.0156287 0.222349
689 4 0.14506 0.00895 0.198406
577 2 0.114402 0.0634974 0.177236
579 4 0.135595 0.0752282 0.183435
675 4 0.113669 0.00558269 0.24231
652 2 0.283922 0.00246495 0.202334
653 4 0.305007 0.00164473 0.215748
25 3 0.322269 0.0484256 0.23837
311 4 0.377731 0.0750964 0.198584
758 4 0.37335 0.0542553 0.199346
759 4 0.342519 0.0610382 0.23813
757 2 0.357935 0.0576467 0.218738
2743 2 0.501092 0.0301919 0.175962
511 2 0.0445748 0.150243 0.218004
513 4 0.0674984 0.159384 0.222021
381 4 0.0201736 0.12907 0.198186
512 4 0.0216512 0.141103 0.213987
379 2 0.0105326 0.106445 0.202694
477 4 0.0823173 0.139301 0.160131
450 4 0.14013 0.093956 0.175487
448 2 0.15793 0.111438 0.177131
449 4 0.17573 0.12892 0.178774
691 2 0.239804 0.10167 0.238821
693 4 0.231095 0.104972 0.215616
236 4 0.194636 0.132118 0.183114
235 2 0.214123 0.137428 0.168374
581 4 0.292643 0.120672 0.180757
580 2 0.271958 0.128284 0.168952
26 1 0.328103 0.160093 0.249283
30 3 0.307194 0.156073 0.241202
28 3 0.342097 0.142283 0.244246
310 2 0.379225 0.0911264 0.179453
333 4 0.497783 0.0826779 0.233638
521 4 0.482869 0.146468 0.223741
332 4 0.478578 0.128584 0.228691
762 4 0.464812 0.142977 0.228694
760 2 0.442577 0.143725 0.240105
331 2 0.48818 0.105631 0.231164
520 2 0.503131 0.15598 0.212599
394 2 0.0200924 0.228551 0.236752
395 4 0.0378971 0.211025 0.235741
393 4 0.0679926 0.163052 0.241379
279 4 0.256818 0.196306 0.185247
277 2 0.261302 0.220163 0.179253
27 3 0.336484 0.17914 0.239478
278 4 0.265787 0.244019 0.173259
284 4 0.284289 0.242795 0.174779
396 4 0.0022877 0.246076 0.237763
338 4 0.0576788 0.267844 0.168872
363 4 0.0743089 0.267477 0.179853
361 2 0.0795537 0.286272 0.195488
749 4 0.0739217 0.321132 0.20628
443 4 0.99493 0.261654 0.247172
648 4 0.0798833 0.330562 0.188509
370 2 0.128227 0.310444 0.219072
372 4 0.106498 0.305873 0.207577
362 4 0.0847985 0.305066 0.211123
371 4 0.149956 0.315015 0.230567
734 4 0.153745 0.326557 0.247163
756 4 0.231262 0.290505 0.183618
610 2 0.239701 0.292083 0.222624
285 4 0.328239 0.262826 0.187734
283 2 0.306264 0.252811 0.181256
754 2 0.246377 0.274069 0.172368
612 4 0.245959 0.292826 0.198428
307 2 0.325551 0.290592 0.216736
308 4 0.328142 0.282624 0.193178
303 4 0.322623 0.298536 0.184766
729 4 0.315497 0.315994 0.192533
309 4 0.322961 0.29856 0.240294
764 4 0.345914 0.258163 0.179591
748 2 0.0799109 0.333147 0.227374
264 4 0.00232567 0.395833 0.238111
646 2 0.0725513 0.34515 0.169572
299 4 0.1485 0.341866 0.257086
727 2 0.311346 0.340135 0.197546
728 4 0.307195 0.364277 0.202559
446 4 0.439932 0.364886 0.248076
445 2 0.440635 0.379943 0.228127
447 4 0.441337 0.395001 0.208179
644 4 0.448651 0.409254 0.196546
643 2 0.463283 0.402984 0.177265
1467 4 0.00880596 0.458462 0.159791
229 2 0.456987 0.487736 0.234283
230 4 0.452958 0.500436 0.213125
1568 4 0.468266 0.502118 0.180565
232 2 0.0256892 0.0284028 0.295402
233 4 0.049405 0.0286445 0.287485
1404 4 0.0664693 0.0200362 0.288445
1402 2 0.0826849 0.0115111 0.271429
316 2 0.0766831 0.0555692 0.306037
317 4 0.0666453 0.0360518 0.294058
428 4 0.0706091 0.0198945 0.30686
427 2 0.0638649 0.00399012 0.324937
318 4 0.0867209 0.0750866 0.318015
732 4 0.101333 0.0761568 0.330436
21 1 0.322374 0.0604314 0.257722
23 3 0.324348 0.0461397 0.275895
24 3 0.302824 0.0728085 0.259466
22 3 0.340309 0.074835 0.257606
351 4 0.410378 0.0511132 0.274657
349 2 0.397529 0.0705783 0.265647
479 4 0.450743 0.0254221 0.297295
478 2 0.435786 0.0332808 0.278863
2664 4 0.469336 0.025164 0.293567
480 4 0.42083 0.0411396 0.260432
1428 4 0.459343 0.0146276 0.30729
258 4 0.444924 0.0248723 0.316179
2662 2 0.493044 0.031666 0.289003
397 2 0.0740699 0.105359 0.333549
399 4 0.092493 0.0922724 0.322848
721 2 0.247139 0.120355 0.296668
722 4 0.247571 0.125652 0.321101
723 4 0.246706 0.115057 0.272236
692 4 0.248513 0.0983675 0.262025
632 4 0.378854 0.106921 0.266672
350 4 0.384679 0.0900435 0.256637
631 2 0.361837 0.125235 0.266197
707 4 0.341446 0.152002 0.280537
633 4 0.34482 0.143548 0.265723
761 4 0.420342 0.144474 0.251516
391 2 0.0746641 0.183539 0.254065
392 4 0.0813355 0.204026 0.266752
546 4 0.126555 0.189241 0.265807
544 2 0.149289 0.197115 0.272615
545 4 0.172022 0.20499 0.279424
402 4 0.182834 0.217911 0.288975
400 2 0.184245 0.24287 0.288506
474 4 0.191644 0.219086 0.334617
29 3 0.327242 0.163239 0.272256
706 2 0.346866 0.165012 0.30119
708 4 0.352286 0.178021 0.321843
717 4 0.446997 0.172817 0.341603
442 2 0.00632825 0.277756 0.262533
444 4 0.0177264 0.293859 0.277895
378 4 0.24954 0.25972 0.32633
611 4 0.233442 0.29134 0.24682
401 4 0.185656 0.26783 0.288037
676 2 0.178464 0.298166 0.313835
345 4 0.194549 0.284208 0.284118
677 4 0.179517 0.286999 0.291489
343 2 0.217664 0.286367 0.274832
735 4 0.183183 0.298891 0.276636
733 2 0.168464 0.312724 0.2619
344 4 0.240779 0.288526 0.265547
678 4 0.177411 0.309334 0.336182
376 2 0.267794 0.271313 0.313777
496 2 0.308544 0.28479 0.278149
497 4 0.303366 0.272155 0.299095
377 4 0.286048 0.282906 0.301224
498 4 0.313722 0.297425 0.257204
541 2 0.394169 0.306768 0.317798
542 4 0.392182 0.284246 0.30712
543 4 0.396157 0.329289 0.328476
420 4 0.405941 0.276946 0.318369
418 2 0.416213 0.257939 0.330954
2537 4 0.491882 0.330598 0.328225
365 4 0.0359847 0.369049 0.289979
601 2 0.0481732 0.376748 0.332041
603 4 0.0432944 0.371569 0.308072
364 2 0.0110456 0.367451 0.290795
750 4 0.0859001 0.345162 0.248467
298 2 0.124501 0.348882 0.256939
300 4 0.100503 0.355898 0.256792
433 2 0.310349 0.387533 0.292128
435 4 0.294474 0.395338 0.274458
434 4 0.326224 0.379728 0.309799
614 4 0.338926 0.365273 0.313522
615 4 0.378237 0.335088 0.32018
613 2 0.358581 0.35018 0.316851
1757 4 0.097965 0.437016 0.270463
1756 2 0.105504 0.459878 0.263705
1758 4 0.113044 0.48274 0.256948
412 2 0.231845 0.44904 0.269951
1436 4 0.228132 0.425226 0.302774
413 4 0.224437 0.441555 0.292629
414 4 0.239253 0.456525 0.247274
1435 2 0.241598 0.430953 0.323048
3 3 0.294299 0.470594 0.32265
1803 4 0.375368 0.484372 0.272066
437 4 0.361552 0.477183 0.329676
436 2 0.337675 0.470584 0.333068
231 4 0.461016 0.475036 0.255441
119 3 0.502896 0.4512 0.316428
712 2 0.459893 0.462863 0.326986
713 4 0.436737 0.472047 0.324833
714 4 0.483049 0.453679 0.32914
1782 4 0.129492 0.995325 0.382317
1781 4 0.0998412 0.000830333 0.422207
730 2 0.121625 0.0643497 0.339037
1780 2 0.114667 0.998078 0.402262
731 4 0.141918 0.0525425 0.347638
606 4 0.152924 0.0664909 0.357809
604 2 0.177463 0.068835 0.361998
1701 4 0.324072 0.0290268 0.392938
441 4 0.320011 0.0153128 0.404545
1699 2 0.32896 0.03573 0.369351
425 4 0.332361 0.0281339 0.411025
1700 4 0.333848 0.0424333 0.345764
699 4 0.351274 0.0454961 0.337173
697 2 0.375975 0.0486423 0.339449
698 4 0.400675 0.0517885 0.341726
257 4 0.419401 0.0493948 0.351506
256 2 0.432162 0.0371335 0.333842
2879 4 0.509465 0.067121 0.402274
2584 2 0.0130189 0.110226 0.347735
398 4 0.0556468 0.118446 0.344249
2586 4 0.0359251 0.120114 0.349386
458 4 0.0377365 0.133116 0.364223
457 2 0.0390541 0.147224 0.384824
459 4 0.0403718 0.161331 0.405426
600 4 0.146459 0.121604 0.388206
598 2 0.142174 0.145254 0.381316
605 4 0.202001 0.0711791 0.366187
248 4 0.203271 0.09004 0.357341
249 4 0.234538 0.122414 0.335546
247 2 0.218905 0.106227 0.346444
683 4 0.2389 0.0885427 0.398212
403 2 0.243537 0.15737 0.344036
404 4 0.24954 0.133561 0.339318
682 2 0.257319 0.104963 0.394179
319 2 0.313835 0.131247 0.393674
684 4 0.275739 0.121384 0.390145
321 4 0.335528 0.13984 0.384687
320 4 0.292142 0.122654 0.402661
725 4 0.3955 0.104038 0.402325
2878 2 0.507293 0.089439 0.413336
599 4 0.137888 0.168905 0.374426
389 4 0.11524 0.23376 0.34725
686 4 0.131682 0.184194 0.385032
685 2 0.114074 0.192071 0.400941
275 4 0.148452 0.172731 0.358267
274 2 0.160571 0.191858 0.347663
687 4 0.0964665 0.199949 0.41685
472 2 0.214428 0.209434 0.338206
276 4 0.17269 0.210986 0.337058
405 4 0.237534 0.181179 0.348753
473 4 0.237213 0.199782 0.341795
466 2 0.404809 0.203854 0.401802
467 4 0.409757 0.196725 0.378352
716 4 0.406457 0.178498 0.370324
269 4 0.443384 0.23332 0.33411
715 2 0.426727 0.175657 0.355964
270 4 0.477069 0.219595 0.368427
452 4 0.466469 0.20694 0.379923
268 2 0.460226 0.226458 0.351268
451 2 0.465403 0.206735 0.404902
419 4 0.426486 0.238932 0.343539
388 2 0.110975 0.257519 0.353767
616 2 0.0786278 0.318602 0.370849
390 4 0.10671 0.281279 0.360284
617 4 0.0968058 0.30865 0.356859
374 4 0.114882 0.298275 0.357286
373 2 0.138056 0.305893 0.351795
375 4 0.161229 0.31351 0.346305
509 4 0.216753 0.31642 0.374403
508 2 0.233069 0.324906 0.357463
618 4 0.0604498 0.328554 0.384838
347 4 0.0465033 0.342198 0.383566
549 4 0.0634393 0.389415 0.371839
602 4 0.0530519 0.381927 0.356011
346 2 0.0372753 0.35618 0.402128
348 4 0.0280472 0.370162 0.420689
510 4 0.249385 0.333392 0.340523
668 4 0.319087 0.388767 0.405336
667 2 0.31421 0.407977 0.420579
336 4 0.323089 0.369555 0.410306
334 2 0.346292 0.360339 0.40894
335 4 0.369495 0.351123 0.407574
752 4 0.467077 0.412978 0.396222
561 4 0.471237 0.397734 0.408299
547 2 0.0715076 0.413056 0.372916
548 4 0.0795759 0.436698 0.373993
407 4 0.083439 0.455694 0.374015
406 2 0.0955598 0.462183 0.394899
499 2 0.0803977 0.499291 0.35255
501 4 0.0972695 0.493732 0.370146
408 4 0.107681 0.468672 0.415783
1556 4 0.238421 0.503349 0.419981
1544 4 0.223266 0.496785 0.410089
1555 2 0.260851 0.496933 0.410986
5 3 0.279239 0.48056 0.355689
1557 4 0.283281 0.490518 0.401991
1 1 0.287982 0.463257 0.343737
438 4 0.313797 0.463986 0.33646
1437 4 0.255065 0.436681 0.343322
4 3 0.272326 0.446236 0.341841
2 3 0.306528 0.455121 0.354645
636 4 0.292658 0.485111 0.418643
593 4 0.413141 0.467063 0.383749
592 2 0.419067 0.473527 0.360334
588 4 0.41902 0.450367 0.391576
1742 4 0.42561 0.488731 0.319923
586 2 0.428036 0.429357 0.401701
753 4 0.494919 0.43034 0.358486
117 3 0.48798 0.452007 0.350917
751 2 0.480998 0.421659 0.377354
594 4 0.424993 0.479992 0.336919
367 2 0.0693093 0.0220477 0.42369
369 4 0.0445348 0.0246207 0.421504
719 4 0.0424135 0.0255248 0.441001
718 2 0.0222758 0.020155 0.454815
368 4 0.0940839 0.0194747 0.425877
962 4 0.316442 0.0236953 0.421905
961 2 0.304522 0.0414132 0.434911
963 4 0.292602 0.0591311 0.447918
432 4 0.300741 0.0743891 0.456935
430 2 0.31055 0.0866772 0.476377
424 2 0.355688 0.0201535 0.415194
426 4 0.379014 0.0121732 0.419362
726 4 0.411618 0.0679502 0.432961
1218 4 0.391648 0.0566589 0.47819
1216 2 0.383372 0.0650923 0.500225
260 4 0.0436704 0.165885 0.425174
431 4 0.320358 0.0989653 0.495819
724 2 0.403559 0.0859943 0.417643
642 4 0.495029 0.12396 0.434472
640 2 0.472955 0.129743 0.444692
641 4 0.45088 0.135526 0.454912
2880 4 0.50512 0.111757 0.424399
259 2 0.0605546 0.184252 0.423516
261 4 0.0774388 0.202619 0.421859
696 4 0.102533 0.24256 0.471178
1035 4 0.0894156 0.217426 0.421067
1033 2 0.0987264 0.23381 0.437501
694 2 0.0926295 0.23246 0.491796
488 4 0.310171 0.242444 0.430903
487 2 0.330455 0.248417 0.444247
489 4 0.350738 0.25439 0.457592
468 4 0.399861 0.210982 0.425251
411 4 0.368759 0.247672 0.461899
516 4 0.406353 0.201042 0.457876
409 2 0.381044 0.227898 0.452775
410 4 0.393328 0.208124 0.44365
575 4 0.400143 0.198274 0.477965
266 4 0.368228 0.249611 0.483216
574 2 0.400152 0.178358 0.493083
514 2 0.430203 0.198278 0.450896
515 4 0.454053 0.195513 0.443917
453 4 0.464336 0.206531 0.429882
2847 4 0.997952 0.303184 0.44815
1034 4 0.108037 0.250193 0.453934
1258 2 0.11126 0.283182 0.470816
1259 4 0.123062 0.304801 0.475119
9 3 0.139094 0.314786 0.479369
1260 4 0.0994577 0.261564 0.466512
10 3 0.153172 0.337287 0.452663
584 4 0.498018 0.242109 0.493667
326 4 0.0601341 0.334552 0.477854
325 2 0.0839578 0.342 0.479315
6 1 0.139948 0.336483 0.471187
7 3 0.118659 0.343166 0.465595
327 4 0.107781 0.349448 0.480777
709 2 0.146114 0.403033 0.472068
8 3 0.148259 0.350768 0.487474
711 4 0.12352 0.410219 0.464129
503 4 0.224101 0.373733 0.473099
502 2 0.204499 0.386783 0.481502
710 4 0.168708 0.395846 0.480007
504 4 0.184896 0.399833 0.489906
240 4 0.387804 0.359781 0.410212
238 2 0.406263 0.376598 0.408932
882 4 0.37268 0.379703 0.469441
880 2 0.371029 0.379177 0.494385
560 4 0.504283 0.393675 0.445612
587 4 0.437052 0.408348 0.411826
239 4 0.424722 0.393416 0.407651
559 2 0.48776 0.395704 0.426956
3307 2 0.491787 0.393467 0.484461
1381 2 0.00453579 0.484837 0.464519
1383 4 0.991094 0.464127 0.460567
384 4 0.108534 0.412322 0.450363
569 4 0.125856 0.471654 0.425594
382 2 0.111316 0.434957 0.440112
568 2 0.143471 0.488757 0.430325
383 4 0.114098 0.457593 0.429862
1543 2 0.201107 0.503197 0.419735
772 2 0.330695 0.433482 0.470464
634 2 0.304718 0.463831 0.42383
774 4 0.319873 0.436578 0.448138
669 4 0.309333 0.427188 0.435822
635 4 0.316777 0.442551 0.429018
773 4 0.341518 0.430385 0.492791
662 4 0.47087 0.509795 0.477827
663 4 0.484462 0.475657 0.443907
661 2 0.477666 0.492726 0.460867
342 4 0.198537 0.0807903 0.518369
340 2 0.191299 0.0568576 0.518489
1152 4 0.211138 0.0950213 0.522003
341 4 0.184061 0.0329248 0.518609
2430 4 0.177709 0.0140561 0.511146
1030 2 0.269454 0.063689 0.57274
1217 4 0.375095 0.0735258 0.522261
842 4 0.360599 0.078694 0.536145
3007 2 0.480113 0.0448901 0.576768
3009 4 0.49026 0.0470689 0.55402
470 4 0.0148108 0.157479 0.516301
1058 4 0.0929842 0.121136 0.522691
1057 2 0.103219 0.116665 0.545062
1059 4 0.113454 0.112194 0.567432
1155 4 0.117012 0.124551 0.582926
1150 2 0.230467 0.0941828 0.537842
1151 4 0.249795 0.0933442 0.553681
1180 2 0.209926 0.147049 0.53542
1181 4 0.206184 0.125142 0.546878
1182 4 0.213669 0.168955 0.523963
1032 4 0.267493 0.0839192 0.558177
843 4 0.318274 0.0874056 0.510978
841 2 0.339437 0.0830498 0.523562
576 4 0.400162 0.158442 0.5082
1198 2 0.00138478 0.21711 0.566528
469 2 0.00540707 0.179042 0.524774
695 4 0.0827265 0.222361 0.512414
900 4 0.223681 0.186159 0.525032
898 2 0.247998 0.191815 0.523675
798 4 0.227489 0.247748 0.57334
650 4 0.281545 0.208163 0.536526
899 4 0.272316 0.19747 0.522318
649 2 0.291303 0.228854 0.526433
651 4 0.301061 0.249544 0.516339
265 2 0.365655 0.244356 0.507525
857 4 0.219475 0.254459 0.542144
947 4 0.214239 0.254809 0.560874
856 2 0.233504 0.248558 0.522306
946 2 0.191679 0.261081 0.569642
948 4 0.169119 0.267353 0.578411
796 2 0.24721 0.262902 0.575912
858 4 0.247533 0.242656 0.502468
872 4 0.362965 0.274689 0.567198
871 2 0.369328 0.294215 0.581461
873 4 0.375691 0.313741 0.595724
267 4 0.363082 0.2391 0.531834
2457 4 0.497612 0.304629 0.525739
2455 2 0.500237 0.281496 0.516621
803 4 0.260368 0.367395 0.561323
804 4 0.281862 0.396219 0.526568
802 2 0.271115 0.381807 0.543945
1190 4 0.26483 0.358774 0.578307
930 4 0.336434 0.371591 0.569679
928 2 0.342724 0.375486 0.545795
929 4 0.349014 0.379382 0.521911
881 4 0.369378 0.378652 0.519328
1011 4 0.484306 0.369219 0.513308
1009 2 0.489702 0.345999 0.520852
927 4 0.428559 0.361565 0.595217
925 2 0.440601 0.378631 0.581472
3308 4 0.493522 0.386147 0.508306
926 4 0.452643 0.395697 0.567727
1002 4 0.450539 0.410746 0.581113
540 4 0.106796 0.471552 0.578629
1160 4 0.114236 0.487836 0.572048
1159 2 0.137402 0.492675 0.580116
2244 4 0.095911 0.484121 0.567822
1910 4 0.405822 0.492762 0.561635
890 4 0.338115 0.496098 0.560752
1909 2 0.423297 0.478634 0.5726
1000 2 0.455278 0.435279 0.580178
1911 4 0.440772 0.464507 0.583564
1081 2 0.0605352 0.075575 0.644914
1083 4 0.0609816 0.0917511 0.625853
1127 4 0.0419239 0.0872245 0.622371
823 2 0.152119 0.012513 0.656401
825 4 0.135306 0.0309761 0.65767
824 4 0.168933 0.99405 0.655133
1031 4 0.271415 0.0434589 0.587303
951 4 0.282817 0.028361 0.59213
949 2 0.298083 0.00889206 0.595748
3008 4 0.469965 0.0427114 0.599516
809 4 0.476566 0.0331983 0.615068
808 2 0.469213 0.0493216 0.632708
810 4 0.46186 0.065445 0.650347
45 3 0.458526 0.0888581 0.651857
1126 2 0.0198966 0.0942331 0.612839
938 4 0.0776315 0.0918707 0.616009
1128 4 0.997869 0.101242 0.603307
939 4 0.0994908 0.117583 0.579107
1271 4 0.100598 0.136204 0.5826
937 2 0.0885612 0.104727 0.597558
1153 2 0.141134 0.126205 0.589296
1270 2 0.0926919 0.158706 0.590105
1154 4 0.165256 0.127859 0.595665
1221 4 0.174641 0.123726 0.615184
1219 2 0.196086 0.135656 0.619978
1220 4 0.21753 0.147587 0.624771
1192 2 0.354819 0.167651 0.657919
1193 4 0.37879 0.163417 0.652205
3424 2 0.484949 0.11862 0.668299
1199 4 0.0221811 0.209742 0.578293
1244 4 0.0391155 0.23688 0.5906
878 4 0.0320103 0.219294 0.591683
877 2 0.0505018 0.20423 0.599187
879 4 0.0689933 0.189166 0.606691
1272 4 0.0847857 0.181208 0.59761
1210 2 0.246873 0.17868 0.635837
1212 4 0.227997 0.16485 0.627026
1211 4 0.265748 0.19251 0.644647
886 2 0.291374 0.184256 0.667859
888 4 0.266887 0.186765 0.663468
982 2 0.0283122 0.319597 0.581738
1243 2 0.0457913 0.260144 0.584324
983 4 0.0470363 0.303512 0.577758
1245 4 0.0524671 0.283408 0.578047
984 4 0.00958797 0.335683 0.585719
1137 4 0.16288 0.326312 0.60898
1135 2 0.168912 0.303506 0.600693
1136 4 0.174944 0.2807 0.592406
822 4 0.183357 0.294815 0.656106
1064 4 0.198715 0.307096 0.659591
797 4 0.26693 0.278057 0.578483
792 4 0.298088 0.320707 0.60059
791 4 0.272692 0.277736 0.59756
790 2 0.28539 0.299221 0.599075
805 2 0.266301 0.319075 0.653737
813 4 0.385477 0.326371 0.608041
906 4 0.500953 0.317251 0.590895
953 4 0.493 0.303584 0.604231
952 2 0.490391 0.280109 0.59603
954 4 0.487783 0.256633 0.587828
1041 4 0.0545268 0.393208 0.63318
3264 4 0.0364773 0.388777 0.644085
3262 2 0.0339438 0.373 0.663316
3240 4 0.0275322 0.405878 0.637389
1039 2 0.0749111 0.379956 0.627347
1040 4 0.0952955 0.366703 0.621514
993 4 0.107917 0.353915 0.631342
991 2 0.128956 0.346978 0.61975
992 4 0.149995 0.34004 0.608157
897 4 0.169502 0.343237 0.614765
1189 2 0.246714 0.367517 0.593157
896 4 0.208732 0.374183 0.612738
895 2 0.189117 0.35871 0.613751
1172 4 0.230578 0.393329 0.59544
1191 4 0.228597 0.376259 0.608008
1171 2 0.217371 0.414243 0.599094
1239 4 0.330639 0.375131 0.587808
1238 4 0.296124 0.339564 0.594476
806 4 0.287323 0.323254 0.640862
1237 2 0.313381 0.357347 0.591142
811 2 0.407407 0.33409 0.59884
1204 2 0.397786 0.383754 0.621354
1205 4 0.382152 0.394561 0.6376
1206 4 0.41342 0.372946 0.605107
812 4 0.429337 0.341809 0.589639
539 4 0.0718426 0.435852 0.576506
3238 2 0.00826248 0.421666 0.639534
538 2 0.0893194 0.453702 0.577568
1161 4 0.160568 0.497515 0.588184
2154 4 0.209115 0.506399 0.574054
2152 2 0.234065 0.505815 0.575571
1188 4 0.171982 0.485816 0.600364
1186 2 0.178415 0.461867 0.603568
1173 4 0.204165 0.435157 0.602748
1187 4 0.184848 0.437919 0.606772
889 2 0.337537 0.489599 0.584889
891 4 0.33696 0.4831 0.609027
1001 4 0.460018 0.459811 0.579243
1269 4 0.455836 0.470679 0.594236
1267 2 0.462649 0.488269 0.610648
945 4 0.0390677 0.00311241 0.676545
1082 4 0.0600888 0.0593989 0.663975
943 2 0.0521049 0.0227999 0.684768
944 4 0.0651421 0.0424874 0.69299
1076 4 0.0575208 0.0588426 0.684318
1075 2 0.0615036 0.0774975 0.700483
1283 4 0.141203 0.0493075 0.669595
1282 2 0.140234 0.064238 0.689628
1284 4 0.139265 0.0791686 0.709661
1148 4 0.260031 0.0852914 0.694988
1147 2 0.267211 0.0613527 0.694246
1149 4 0.274392 0.0374139 0.693503
1092 4 0.320663 0.0132105 0.689607
1004 4 0.352608 0.0806663 0.747911
42 3 0.460218 0.0570643 0.67133
41 1 0.453341 0.079012 0.671727
43 3 0.430395 0.0796226 0.675116
1163 4 0.471657 0.0685118 0.686662
1162 2 0.486068 0.0574593 0.703847
44 3 0.464203 0.0899633 0.689062
864 4 0.05863 0.101276 0.733257
1077 4 0.0654865 0.0961524 0.716648
1107 4 0.0774364 0.0973608 0.730954
851 4 0.0806238 0.106257 0.712682
862 2 0.0366699 0.100084 0.745153
850 2 0.0989967 0.119406 0.701971
852 4 0.11737 0.132555 0.69126
1105 2 0.0904101 0.090174 0.751084
909 4 0.148995 0.0957644 0.704687
907 2 0.168181 0.111776 0.705531
1226 4 0.239605 0.0877813 0.688793
908 4 0.187366 0.127788 0.706376
1227 4 0.205312 0.122435 0.699917
1225 2 0.222459 0.105108 0.694355
887 4 0.31586 0.181748 0.67225
829 2 0.319341 0.15245 0.704954
830 4 0.31297 0.168714 0.687064
1194 4 0.330849 0.171886 0.663633
831 4 0.325712 0.136185 0.722844
1005 4 0.330599 0.115886 0.720056
1003 2 0.341604 0.0982759 0.733983
3425 4 0.469302 0.0991943 0.67003
1177 2 0.0117592 0.238066 0.708861
1073 4 0.0702391 0.216902 0.750577
1072 2 0.0898919 0.232133 0.747937
1074 4 0.109545 0.247363 0.745298
978 4 0.273863 0.191943 0.737839
1142 4 0.455343 0.168602 0.740254
1144 2 0.491799 0.174517 0.733361
1025 4 0.431283 0.176995 0.679513
1262 4 0.46173 0.19787 0.725211
1024 2 0.44373 0.177019 0.701199
1026 4 0.456176 0.177042 0.722884
1261 2 0.457358 0.222207 0.728925
1145 4 0.4681 0.182487 0.733394
1263 4 0.452986 0.246544 0.732638
1179 4 0.027083 0.254045 0.697241
1209 4 0.14605 0.265669 0.705831
1207 2 0.13694 0.259672 0.72833
821 4 0.154153 0.277357 0.692754
820 2 0.168755 0.286086 0.67443
807 4 0.245278 0.314896 0.666613
1063 2 0.204494 0.33139 0.658328
1019 4 0.357938 0.326792 0.708216
3123 4 0.483277 0.266465 0.680046
3263 4 0.0314104 0.357223 0.682547
1280 4 0.0560192 0.365513 0.745388
1279 2 0.0540605 0.387149 0.733009
1281 4 0.0521019 0.408785 0.720631
894 4 0.0377273 0.360622 0.741434
892 2 0.0220057 0.342798 0.7492
1065 4 0.210273 0.355683 0.657065
1028 4 0.218526 0.379966 0.702453
1066 2 0.190517 0.366554 0.732534
1068 4 0.209017 0.367908 0.715768
1027 2 0.224958 0.402951 0.709901
1018 2 0.380223 0.33646 0.702292
1020 4 0.402507 0.346129 0.696368
1983 4 0.0585031 0.425539 0.729287
1981 2 0.0573029 0.444607 0.745417
1982 4 0.0561027 0.463675 0.761546
1029 4 0.23139 0.425937 0.717349
1175 4 0.200261 0.450898 0.739859
1174 2 0.194566 0.470778 0.725804
1176 4 0.188872 0.490657 0.711748
1138 2 0.257704 0.449841 0.688801
1140 4 0.243774 0.437221 0.70529
1139 4 0.271634 0.462461 0.672313
1987 2 0.292885 0.465494 0.736066
1229 4 0.315366 0.455226 0.7023
1989 4 0.312771 0.460403 0.72179
2028 4 0.278634 0.480761 0.669838
1230 4 0.35921 0.437021 0.686584
1228 2 0.337288 0.446124 0.694442
2991 4 0.0100675 0.0432413 0.786655
2989 2 0.00976127 0.0674741 0.780502
2049 4 0.102962 0.0198821 0.77342
1202 4 0.108938 0.0312043 0.789299
2047 2 0.124356 0.00728769 0.770443
1201 2 0.113598 0.0554635 0.793165
1203 4 0.118259 0.0797228 0.797031
1257 4 0.231762 0.0701482 0.774598
1255 2 0.234724 0.0826597 0.796043
817 2 0.320774 0.0412681 0.824803
1085 4 0.305068 0.0801302 0.828699
818 4 0.330605 0.0197904 0.816604
974 4 0.332173 0.000805901 0.805643
1113 4 0.433889 0.0463167 0.753159
1111 2 0.45439 0.0561061 0.763602
845 4 0.49522 0.0665206 0.779928
1112 4 0.474891 0.0658956 0.774044
2322 4 0.501183 0.0478132 0.776579
2990 4 0.00945505 0.0917069 0.774349
863 4 0.0147098 0.098892 0.757049
1125 4 0.0152073 0.150244 0.810644
1123 2 0.0361641 0.144965 0.823219
1124 4 0.0571209 0.139687 0.835794
834 4 0.997318 0.141413 0.806175
1106 4 0.103384 0.0829872 0.771214
911 4 0.116172 0.104036 0.822273
34 3 0.117861 0.0939064 0.778915
31 1 0.127549 0.103524 0.797678
35 3 0.114553 0.120635 0.805227
32 3 0.129353 0.0875503 0.814132
33 3 0.148758 0.111382 0.792495
1256 4 0.237686 0.0951712 0.817487
840 4 0.241821 0.115553 0.818454
1084 2 0.292507 0.0873519 0.808322
1086 4 0.279946 0.0945735 0.787944
1023 4 0.398231 0.158983 0.833431
1131 4 0.176971 0.246459 0.786978
977 4 0.295228 0.223738 0.769985
918 4 0.287478 0.226978 0.788145
976 2 0.284545 0.207841 0.753912
1298 4 0.293781 0.210139 0.783215
1297 2 0.303531 0.203839 0.80536