ITEM: TIMESTEP
3000000
ITEM: NUMBER OF ATOMS
4590
ITEM: BOX BOUNDS pp pp pp
-9.9985700000000008e+00 9.9985700000000008e+00
-9.9985700000000008e+00 9.9985700000000008e+00
-9.9985700000000008e+00 9.9985700000000008e+00
ITEM: ATOMS id type xs ys zs
463 2 0.0430925 0.0244493 0.0322724
465 4 0.0396088 0.038544 0.0526288
1667 4 0.0450531 0.0442399 0.0696588
701 4 0.0524775 0.0522522 0.0564808
590 4 0.0336168 0.0541483 0.0562344
589 2 0.0153145 0.0710053 0.0537757
464 4 0.0465762 0.0103546 0.011916
700 2 0.0724959 0.0666806 0.0605134
702 4 0.0925144 0.0811091 0.064546
490 2 0.345406 0.0133496 0.0130869
491 4 0.352927 0.0245097 0.0341599
557 4 0.369944 0.0344163 0.0405481
296 4 0.358711 0.0253047 0.0523592
556 2 0.394806 0.0350054 0.0379589
295 2 0.351176 0.0104286 0.0709899
558 4 0.419669 0.0355946 0.0353698
746 4 0.436722 0.0370381 0.045507
745 2 0.454663 0.0458266 0.0304716
747 4 0.472604 0.0546152 0.0154363
2975 4 0.484303 0.0702757 0.0119897
591 4 0.997012 0.0878623 0.051317
566 4 0.161222 0.0982334 0.0524332
422 4 0.142615 0.0934653 0.0597406
565 2 0.161274 0.0925185 0.0280915
423 4 0.0950601 0.0982094 0.0744633
421 2 0.118837 0.0958373 0.067102
567 4 0.161326 0.0868037 0.00374989
360 4 0.324561 0.125337 0.0280085
358 2 0.341008 0.120829 0.00972312
1012 2 0.488629 0.14797 0.0229843
827 4 0.45524 0.162169 0.0136689
2974 2 0.49567 0.0924474 0.00989266
554 4 0.0574001 0.215115 0.0464404
553 2 0.0657878 0.230632 0.0287185
555 4 0.0741754 0.246148 0.0109966
771 4 0.45268 0.190004 0.0738379
769 2 0.454703 0.183842 0.0496902
770 4 0.456726 0.17768 0.0255424
1013 4 0.469181 0.163079 0.0273054
629 4 0.45346 0.176954 0.0889793
1055 4 0.0673234 0.263095 0.00525884
836 4 0.0838543 0.261052 0.0182347
292 2 0.126231 0.321694 0.0177189
835 2 0.105813 0.27176 0.0129126
294 4 0.131455 0.302332 0.00278719
837 4 0.127772 0.282469 0.00759052
915 4 0.14445 0.288339 0.00186977
355 2 0.225778 0.279062 0.0266812
356 4 0.205255 0.270366 0.0153503
914 4 0.189692 0.26709 0.00340816
913 2 0.167071 0.277714 0.00263897
357 4 0.246301 0.287757 0.0380122
1232 4 0.203224 0.252978 0.00615584
666 4 0.329222 0.257237 0.0707431
665 4 0.300012 0.263348 0.0306166
664 2 0.314617 0.260292 0.0506798
461 4 0.344005 0.268234 0.0755973
324 4 0.405421 0.271113 0.0650144
460 2 0.368813 0.265365 0.0768449
462 4 0.39362 0.262496 0.0780924
255 4 0.410317 0.253982 0.0709767
956 4 0.381051 0.34011 0.0115774
955 2 0.369072 0.321062 0.000675582
322 2 0.416587 0.292443 0.0582688
323 4 0.427754 0.313773 0.0515232
281 4 0.445504 0.319778 0.0504108
280 2 0.463885 0.316591 0.0337629
282 4 0.482266 0.313403 0.017115
104 3 0.500442 0.315196 0.0248895
287 4 0.0935269 0.387055 0.00412379
293 4 0.121006 0.341057 0.0326507
507 4 0.135209 0.349794 0.0411424
505 2 0.135322 0.349904 0.0661455
288 4 0.128676 0.359346 0.0264294
286 2 0.111101 0.3732 0.0152766
523 2 0.3093 0.390226 0.0604848
524 4 0.286059 0.396865 0.0668828
626 4 0.270198 0.404759 0.0623039
525 4 0.332542 0.383587 0.0540869
1069 2 0.413054 0.341137 0.0289895
608 4 0.341712 0.374473 0.0704143
252 4 0.343688 0.368145 0.0524243
250 2 0.363352 0.362061 0.0382283
251 4 0.383015 0.355977 0.0240324
1071 4 0.396725 0.350805 0.0127078
671 4 0.434433 0.330745 0.0616297
1070 4 0.429383 0.33147 0.0452711
1787 4 0.0730552 0.453806 0.0715112
314 4 0.0732227 0.430951 0.0678316
313 2 0.0666502 0.419507 0.0465946
315 4 0.0600777 0.408063 0.0253575
793 2 0.143087 0.47763 0.0377714
795 4 0.129322 0.463849 0.0220947
1692 4 0.15229 0.50079 0.0692237
1224 4 0.142425 0.463067 0.00638023
794 4 0.156853 0.491411 0.0534482
1440 4 0.229771 0.504645 0.0795512
242 4 0.167752 0.50642 0.0570939
1666 2 0.0414502 0.0321827 0.0912648
1806 4 0.0497913 0.0232436 0.12983
1421 4 0.0310811 0.026555 0.129308
1668 4 0.0378472 0.0201256 0.112871
1420 2 0.0305414 0.0451254 0.146042
1416 4 0.0390997 0.00841289 0.125213
1422 4 0.0300016 0.0636957 0.162776
1804 2 0.070573 0.0104554 0.135285
448 2 0.1401 0.061348 0.162352
1805 4 0.0913547 0.997667 0.140741
688 2 0.235239 0.0575374 0.134411
690 4 0.241429 0.0414549 0.116294
689 4 0.229049 0.0736199 0.152528
692 4 0.211668 0.0827732 0.158637
1475 4 0.250759 0.0217893 0.121938
652 2 0.303361 0.038699 0.136931
653 4 0.302439 0.0452971 0.112832
654 4 0.304283 0.0321009 0.161031
311 4 0.308289 0.0267346 0.178414
449 4 0.152787 0.0828891 0.161904
235 2 0.141884 0.0999312 0.123251
237 4 0.136593 0.111743 0.101858
737 4 0.150991 0.12717 0.103951
236 4 0.147174 0.0881196 0.144644
736 2 0.137633 0.147306 0.0975234
723 4 0.148273 0.101689 0.158154
691 2 0.187634 0.089189 0.156108
693 4 0.163601 0.0956047 0.153579
1505 4 0.227123 0.0924134 0.153459
1504 2 0.236379 0.115105 0.148499
1506 4 0.245635 0.137796 0.143539
285 4 0.236697 0.144575 0.126143
738 4 0.124274 0.167441 0.0910958
284 4 0.26237 0.18648 0.11689
283 2 0.249533 0.165527 0.121516
354 4 0.263383 0.204683 0.125132
352 2 0.277527 0.225301 0.124973
353 4 0.29167 0.24592 0.124813
573 4 0.304597 0.26037 0.124202
253 2 0.421715 0.245447 0.0915295
630 4 0.433841 0.215758 0.11368
254 4 0.433113 0.236912 0.112082
628 2 0.44365 0.196356 0.101329
482 4 0.135467 0.338415 0.152163
572 4 0.339193 0.255085 0.0884825
755 4 0.292544 0.257128 0.140043
754 2 0.297003 0.275234 0.156701
571 2 0.321895 0.257727 0.106342
756 4 0.301461 0.293341 0.173358
622 2 0.359369 0.320056 0.129897
624 4 0.358051 0.295353 0.133529
765 4 0.35855 0.281041 0.148401
13 3 0.452219 0.327777 0.137103
621 4 0.975511 0.39909 0.144398
481 2 0.138257 0.349443 0.129898
483 4 0.141048 0.360471 0.107632
506 4 0.135435 0.350014 0.0911486
625 2 0.26686 0.419696 0.0820754
387 4 0.32342 0.375874 0.16578
385 2 0.341812 0.368824 0.150378
607 2 0.349456 0.368191 0.0933437
623 4 0.360686 0.34476 0.126264
609 4 0.357199 0.36191 0.116273
740 4 0.373762 0.358412 0.125039
386 4 0.360203 0.361773 0.134976
739 2 0.398319 0.358802 0.120346
670 2 0.431386 0.345023 0.0819284
741 4 0.422875 0.359191 0.115654
672 4 0.428339 0.359301 0.102227
11 1 0.448321 0.350645 0.137625
12 3 0.442943 0.357758 0.116421
14 3 0.467428 0.361779 0.144652
495 4 0.479058 0.377026 0.147581
493 2 0.472133 0.398013 0.135886
527 4 0.487087 0.364417 0.145039
15 3 0.43102 0.355259 0.151698
597 4 0.496483 0.377014 0.155808
645 4 0.480679 0.365067 0.159289
1465 2 0.00331483 0.474583 0.119729
1786 2 0.0582484 0.464823 0.0883799
1788 4 0.0434416 0.475841 0.105249
1466 4 0.0263157 0.480688 0.112057
1791 4 0.0442722 0.489713 0.118397
627 4 0.263522 0.434633 0.101847
1438 2 0.240216 0.4977 0.101181
767 4 0.231857 0.432062 0.168129
1439 4 0.250661 0.490755 0.122811
639 4 0.259002 0.489596 0.13918
637 2 0.248942 0.468605 0.14831
494 4 0.465208 0.419 0.124191
2480 4 0.0169199 0.0616775 0.169752
19 3 0.031386 0.0681269 0.181915
20 3 0.0537876 0.0464001 0.202981
675 4 0.0733765 0.0430722 0.203785
16 1 0.0476377 0.0678598 0.198474
673 2 0.0943188 0.038034 0.191088
450 4 0.127413 0.0398069 0.162801
674 4 0.115261 0.0329958 0.178391
28 3 0.227052 0.0782528 0.16659
26 1 0.232967 0.0780474 0.189027
27 3 0.214313 0.0826512 0.201676
30 3 0.241034 0.0575334 0.194748
582 4 0.292352 0.0195615 0.172801
580 2 0.2732 0.0308926 0.184201
581 4 0.254047 0.0422237 0.195601
24 3 0.388589 0.999292 0.215422
310 2 0.332562 0.0207371 0.178605
759 4 0.37135 0.0100127 0.177251
22 3 0.368209 0.0270255 0.230527
312 4 0.356834 0.0147395 0.178795
25 3 0.367119 0.0212782 0.193667
21 1 0.380482 0.0207779 0.212102
23 3 0.398147 0.0355927 0.20948
744 4 0.407412 0.0429677 0.226317
742 2 0.4071 0.0679187 0.224727
17 3 0.0659824 0.0796048 0.19108
18 3 0.0395115 0.0779728 0.217712
513 4 0.0232234 0.140662 0.228004
578 4 0.0386062 0.139623 0.239268
511 2 0.998587 0.138586 0.231733
721 2 0.142464 0.118438 0.175787
722 4 0.136655 0.135186 0.19342
546 4 0.155618 0.138569 0.197269
544 2 0.16367 0.142571 0.2206
29 3 0.249015 0.0942944 0.193137
545 4 0.171722 0.146572 0.243931
351 4 0.417088 0.0976405 0.23996
743 4 0.406787 0.0928697 0.223137
333 4 0.467546 0.162275 0.224952
476 4 0.0616378 0.204093 0.224859
475 2 0.0711108 0.22681 0.220456
477 4 0.0805839 0.249527 0.216053
331 2 0.478694 0.179654 0.239055
750 4 0.0816889 0.26541 0.229137
395 4 0.0219564 0.297925 0.241406
749 4 0.040025 0.288634 0.244153
748 2 0.060857 0.277022 0.236645
536 4 0.142516 0.33892 0.171929
339 4 0.0960074 0.253555 0.226088
535 2 0.157817 0.323208 0.183935
337 2 0.116351 0.2618 0.238061
338 4 0.136694 0.270045 0.250035
363 4 0.153659 0.265427 0.241266
361 2 0.166045 0.279287 0.224543
537 4 0.173118 0.307495 0.195942
362 4 0.178432 0.293147 0.20782
372 4 0.189804 0.298912 0.192259
370 2 0.213246 0.305874 0.197472
371 4 0.236688 0.312837 0.202685
279 4 0.248117 0.302354 0.214888
278 4 0.289773 0.299972 0.187323
612 4 0.295431 0.312482 0.173322
277 2 0.268945 0.301163 0.201105
343 2 0.316287 0.318323 0.2413
345 4 0.320728 0.295283 0.249938
308 4 0.321397 0.276463 0.244925
763 2 0.354033 0.276873 0.172638
307 2 0.339196 0.27001 0.228593
764 4 0.349516 0.272705 0.196874
309 4 0.356994 0.263557 0.212261
446 4 0.425051 0.338415 0.239622
614 4 0.407885 0.331529 0.236416
647 4 0.00268363 0.405188 0.234528
456 4 0.08818 0.383633 0.178734
454 2 0.111094 0.383708 0.188739
455 4 0.134009 0.383783 0.198744
290 4 0.190163 0.396161 0.200003
768 4 0.210362 0.394209 0.192743
610 2 0.305728 0.335212 0.17174
344 4 0.311846 0.341363 0.232662
611 4 0.316024 0.357942 0.170158
302 4 0.312877 0.373808 0.181511
301 2 0.31832 0.395758 0.192177
729 4 0.326347 0.421746 0.221484
727 2 0.33689 0.41446 0.242953
445 2 0.436026 0.348786 0.219693
447 4 0.447002 0.359158 0.199765
643 2 0.473931 0.362714 0.18325
644 4 0.467183 0.360362 0.20721
603 4 0.0185988 0.418877 0.235899
263 4 0.060476 0.462967 0.232758
601 2 0.0361787 0.434047 0.226627
602 4 0.0537586 0.449218 0.217354
262 2 0.0675935 0.486324 0.227374
415 2 0.142529 0.469604 0.202443
417 4 0.137409 0.491047 0.190646
291 4 0.156791 0.430826 0.213616
413 4 0.153159 0.440327 0.231099
416 4 0.147649 0.448162 0.21424
638 4 0.238882 0.447614 0.15744
766 2 0.221109 0.413135 0.180436
289 2 0.173477 0.413493 0.206809
303 4 0.323763 0.417708 0.202842
660 4 0.327529 0.436273 0.209648
658 2 0.341223 0.45306 0.197165
659 4 0.354917 0.469848 0.184682
3800 4 0.474511 0.489545 0.189351
1569 4 0.472849 0.500134 0.207159
1404 4 0.0332718 0.000511352 0.264475
233 4 0.0218182 0.0447351 0.308067
1402 2 0.0272531 0.0212997 0.276997
1403 4 0.0212344 0.042088 0.289519
317 4 0.0205264 0.0587535 0.29346
530 4 0.0051065 0.0493098 0.299987
316 2 0.03411 0.0793182 0.289246
232 2 0.0323234 0.0389162 0.329998
1700 4 0.194424 0.996889 0.321922
319 2 0.229727 0.0761437 0.325555
1747 2 0.501439 0.0137965 0.293004
1749 4 0.497644 0.022643 0.31608
2643 4 0.502402 0.0323605 0.332778
480 4 0.484174 0.030438 0.32737
478 2 0.4627 0.0430646 0.325226
479 4 0.441225 0.0556913 0.323083
577 2 0.0448868 0.129805 0.261389
318 4 0.0476937 0.0998828 0.285032
397 2 0.0446561 0.129001 0.317851
579 4 0.0511674 0.119987 0.28351
398 4 0.0473415 0.111448 0.300248
731 4 0.0644212 0.107799 0.289015
459 4 0.053646 0.151888 0.350896
732 4 0.113939 0.114776 0.289246
600 4 0.122353 0.133948 0.290064
730 2 0.08918 0.111287 0.289131
598 2 0.140879 0.140495 0.274602
599 4 0.159406 0.147043 0.25914
392 4 0.178672 0.145864 0.262024
391 2 0.195275 0.163268 0.268852
393 4 0.211878 0.180672 0.275679
320 4 0.250423 0.0880831 0.318187
684 4 0.250842 0.0991695 0.301512
249 4 0.30874 0.126713 0.312456
404 4 0.300748 0.141944 0.319668
682 2 0.269947 0.114806 0.305468
683 4 0.289053 0.130443 0.309424
247 2 0.331291 0.121249 0.321772
248 4 0.353841 0.115785 0.331088
633 4 0.371346 0.121631 0.323459
631 2 0.38954 0.129024 0.307984
632 4 0.407734 0.136418 0.292508
349 2 0.417743 0.110943 0.261121
350 4 0.418398 0.124245 0.282283
452 4 0.428326 0.13754 0.291455
451 2 0.442358 0.145925 0.310375
453 4 0.45639 0.154311 0.329295
2655 4 0.0327144 0.233157 0.323551
444 4 0.017054 0.231453 0.310566
332 4 0.489841 0.197032 0.253159
521 4 0.496458 0.203816 0.269763
762 4 0.477336 0.199214 0.268407
760 2 0.46181 0.207087 0.286356
761 4 0.446284 0.21496 0.304304
419 4 0.442163 0.201456 0.319806
442 2 0.000767065 0.247051 0.299768
394 2 0.00849562 0.287286 0.259594
378 4 0.250323 0.289438 0.333949
498 4 0.27975 0.269913 0.287392
377 4 0.260007 0.271133 0.288431
496 2 0.300803 0.27603 0.27537
497 4 0.321857 0.282146 0.263348
376 2 0.255165 0.280285 0.31119
613 2 0.41024 0.311852 0.251662
615 4 0.412595 0.292175 0.266908
543 4 0.426769 0.287846 0.279115
541 2 0.448434 0.294452 0.289705
542 4 0.4701 0.301057 0.300296
2538 4 0.487626 0.298864 0.295601
2924 4 0.481995 0.305804 0.314327
2923 2 0.473638 0.323802 0.329539
364 2 0.0121091 0.370024 0.32455
2694 4 0.00863222 0.413144 0.250292
2693 4 0.0139877 0.391311 0.294961
2692 2 0.0113099 0.402227 0.272626
366 4 0.0200902 0.372016 0.300938
300 4 0.141943 0.339424 0.265989
298 2 0.140611 0.34341 0.290636
299 4 0.139279 0.347396 0.315284
734 4 0.149397 0.342877 0.331822
728 4 0.347433 0.407174 0.264423
435 4 0.390144 0.376655 0.307904
433 2 0.375589 0.390115 0.292667
434 4 0.361034 0.403575 0.27743
549 4 0.0320139 0.456231 0.332419
547 2 0.056542 0.453343 0.336319
2463 4 0.0155468 0.446009 0.326909
412 2 0.142364 0.441177 0.253636
548 4 0.08107 0.450454 0.340219
777 4 0.129565 0.438444 0.296723
775 2 0.113181 0.446807 0.313658
414 4 0.131568 0.442026 0.276173
776 4 0.0967968 0.455171 0.330592
1574 4 0.279114 0.484437 0.273407
436 2 0.311527 0.468071 0.296541
437 4 0.288973 0.474121 0.287602
438 4 0.334081 0.462021 0.305479
3 3 0.337053 0.442768 0.312354
1 1 0.347925 0.447151 0.33238
4 3 0.369832 0.439577 0.331323
234 4 0.0428286 0.0330972 0.351929
367 2 0.0610598 0.0565294 0.376898
368 4 0.0595486 0.0440942 0.355259
1780 2 0.0669905 0.000881335 0.355849
1781 4 0.0605029 0.0248121 0.352623
369 4 0.062571 0.0689646 0.398537
719 4 0.0447579 0.0704276 0.406219
321 4 0.20903 0.0642044 0.332924
698 4 0.418635 0.00482879 0.388435
257 4 0.414716 0.0217573 0.39818
256 2 0.416396 0.0438098 0.409844
258 4 0.418075 0.0658623 0.421507
576 4 0.423927 0.0835686 0.420362
399 4 0.0419706 0.146554 0.335454
403 2 0.288359 0.159538 0.332401
707 4 0.369154 0.103602 0.331852
706 2 0.368839 0.0930171 0.354502
708 4 0.368524 0.0824325 0.377153
574 2 0.422926 0.0977484 0.399793
575 4 0.421926 0.111928 0.379223
514 2 0.436723 0.143279 0.365008
515 4 0.452991 0.153871 0.349249
516 4 0.420455 0.132688 0.380767
457 2 0.0579126 0.172392 0.364554
458 4 0.0621792 0.192896 0.378212
2653 2 0.027645 0.238547 0.347434
2654 4 0.0225756 0.243936 0.371318
388 2 0.0365236 0.231598 0.410291
686 4 0.118978 0.230748 0.392727
685 2 0.097432 0.218429 0.389694
687 4 0.0758861 0.206111 0.386661
405 4 0.275969 0.177133 0.345133
474 4 0.278458 0.18642 0.362091
472 2 0.290397 0.197427 0.381103
473 4 0.302336 0.208435 0.400116
418 2 0.438486 0.218661 0.337573
268 2 0.436347 0.220165 0.39502
420 4 0.43481 0.235866 0.35534
269 4 0.439432 0.226679 0.371078
270 4 0.433263 0.213651 0.418962
717 4 0.42522 0.23904 0.372624
390 4 0.0267071 0.243959 0.3909
2850 4 0.0174313 0.258531 0.381757
2848 2 0.00376734 0.278487 0.388103
401 4 0.19124 0.317127 0.356335
735 4 0.17926 0.325593 0.368018
677 4 0.183038 0.305152 0.368803
400 2 0.212819 0.308078 0.347524
402 4 0.234398 0.299029 0.338713
676 2 0.182268 0.295137 0.3917
276 4 0.245986 0.289013 0.352463
678 4 0.181498 0.285122 0.414598
510 4 0.251228 0.305713 0.344841
274 2 0.251098 0.279939 0.375194
275 4 0.256211 0.270865 0.397925
508 2 0.263777 0.326917 0.3491
488 4 0.265549 0.259058 0.409471
266 4 0.26875 0.279428 0.409325
265 2 0.279132 0.301092 0.41626
716 4 0.402871 0.280919 0.356897
715 2 0.414046 0.25998 0.364761
617 4 0.000486251 0.373826 0.366452
347 4 0.0284074 0.389774 0.41843
616 2 0.0126825 0.386755 0.384038
618 4 0.0248787 0.399685 0.401624
326 4 0.0427867 0.397685 0.408155
325 2 0.0653841 0.407025 0.40293
733 2 0.164329 0.334235 0.34992
327 4 0.0879815 0.416365 0.397705
509 4 0.276325 0.34812 0.353359
503 4 0.286307 0.357547 0.369236
502 2 0.29134 0.348525 0.392005
504 4 0.296373 0.339502 0.414774
669 4 0.330731 0.422052 0.362079
668 4 0.356757 0.379927 0.36907
586 2 0.397223 0.382828 0.350618
588 4 0.37602 0.378345 0.36309
667 2 0.343744 0.400989 0.365574
560 4 0.511146 0.342858 0.395865
559 2 0.494852 0.344428 0.376965
587 4 0.418425 0.387311 0.338145
753 4 0.437475 0.394416 0.340989
751 2 0.455504 0.377284 0.343563
561 4 0.478558 0.345999 0.358065
752 4 0.473532 0.360152 0.346138
2925 4 0.46528 0.341799 0.344751
1383 4 0.0145275 0.488778 0.379287
680 4 0.0339331 0.482015 0.379556
679 2 0.0534629 0.470401 0.38999
681 4 0.0729926 0.458787 0.400425
500 4 0.0887148 0.469343 0.340527
383 4 0.0819597 0.473741 0.411319
408 4 0.103786 0.42762 0.392065
407 4 0.0961237 0.455267 0.351106
406 2 0.0999549 0.441443 0.371586
1556 4 0.190004 0.427542 0.406469
881 4 0.361162 0.429724 0.414603
2 3 0.348077 0.469876 0.33594
714 4 0.379019 0.454794 0.341535
5 3 0.336993 0.436941 0.349552
712 2 0.393869 0.456228 0.3616
713 4 0.408719 0.457661 0.381665
2237 4 0.0192854 0.0771664 0.466863
1127 4 0.0376818 0.0752345 0.471737
1126 2 0.0602591 0.0771988 0.482301
718 2 0.0392111 0.0755031 0.430066
720 4 0.0336642 0.0805786 0.453912
939 4 0.0958868 0.0895569 0.481573
441 4 0.286707 0.989807 0.409946
604 2 0.272353 0.00329062 0.444967
605 4 0.274767 0.987081 0.426083
606 4 0.269939 0.0195 0.463851
426 4 0.435588 0.0726892 0.430621
424 2 0.439143 0.0847349 0.452241
260 4 0.057753 0.126282 0.493444
937 2 0.113284 0.0903546 0.499514
466 2 0.299316 0.145167 0.480211
467 4 0.28664 0.161154 0.465756
468 4 0.311991 0.129181 0.494665
724 2 0.328958 0.0990919 0.494375
725 4 0.329269 0.122498 0.485586
2879 4 0.497724 0.129389 0.472214
425 4 0.442698 0.0967807 0.473862
2878 2 0.478111 0.114924 0.477808
642 4 0.442464 0.0908788 0.491435
2880 4 0.458499 0.10046 0.483403
3159 4 0.45972 0.158029 0.474792
305 4 0.45058 0.164505 0.458638
389 4 0.04634 0.219237 0.429682
489 4 0.3 0.222985 0.413018
487 2 0.282775 0.241021 0.411244
411 4 0.283518 0.174123 0.450828
410 4 0.306038 0.205406 0.41897
409 2 0.294778 0.189764 0.434899
306 4 0.430242 0.204062 0.435783
304 2 0.440411 0.184284 0.447211
585 4 0.439813 0.221754 0.435103
583 2 0.459635 0.235838 0.440924
3157 2 0.471343 0.169055 0.493989
695 4 0.149465 0.245339 0.509191
7 3 0.135767 0.339743 0.487516
694 2 0.151586 0.270031 0.512508
373 2 0.212306 0.302401 0.439345
374 4 0.233992 0.307143 0.450853
375 4 0.19062 0.297659 0.427838
651 4 0.241764 0.314662 0.466644
812 4 0.248415 0.297458 0.461385
811 2 0.263711 0.285221 0.476924
813 4 0.279006 0.272983 0.492463
584 4 0.479458 0.249922 0.446745
2455 2 0.505318 0.277191 0.459262
2456 4 0.493282 0.263373 0.442252
346 2 0.0323285 0.378189 0.440238
348 4 0.0362497 0.366603 0.462046
649 2 0.235535 0.336856 0.47633
709 2 0.192119 0.363951 0.50082
710 4 0.214171 0.369992 0.490702
803 4 0.231472 0.377577 0.483336
802 2 0.229468 0.393613 0.464257
650 4 0.229306 0.359049 0.486017
804 4 0.227464 0.40965 0.445179
267 4 0.289513 0.322755 0.423196
240 4 0.420596 0.392877 0.446187
335 4 0.423195 0.402772 0.428575
238 2 0.435892 0.393184 0.465963
3307 2 0.488198 0.38037 0.481457
239 4 0.451188 0.393492 0.48574
3309 4 0.466613 0.385349 0.493055
570 4 0.0449643 0.420104 0.488179
568 2 0.0663801 0.428916 0.478751
569 4 0.0877959 0.437727 0.469322
540 4 0.146629 0.456764 0.488419
635 4 0.160721 0.454339 0.500338
382 2 0.0860375 0.46125 0.432592
384 4 0.0901152 0.44876 0.453865
539 4 0.099964 0.452847 0.470877
538 2 0.123297 0.454805 0.479648
1557 4 0.207021 0.44374 0.450614
1555 2 0.198512 0.435641 0.428542
636 4 0.196609 0.442929 0.467436
634 2 0.178665 0.448634 0.483887
1453 2 0.312925 0.467044 0.462171
2153 4 0.287666 0.498602 0.476698
1455 4 0.293741 0.480808 0.470399
882 4 0.335331 0.433591 0.457248
1454 4 0.332109 0.45328 0.453944
334 2 0.402348 0.41564 0.423576
880 2 0.348246 0.431658 0.435925
336 4 0.381501 0.428508 0.418577
2318 4 0.0206308 0.0215487 0.557304
2319 4 0.0440815 0.0520245 0.589273
2317 2 0.0323561 0.0367866 0.573289
2115 4 0.00566439 0.00827828 0.55926
1128 4 0.0828363 0.079163 0.492864
1057 2 0.159996 0.066629 0.537334
1059 4 0.145986 0.0837394 0.525665
1058 4 0.174005 0.0495186 0.549002
341 4 0.191582 0.0498445 0.556096
340 2 0.212045 0.0634842 0.551575
342 4 0.232507 0.0771239 0.547055
2430 4 0.184466 0.033208 0.548555
2428 2 0.17529 0.0100437 0.546458
1182 4 0.249379 0.087502 0.551107
1180 2 0.270124 0.0750811 0.557474
963 4 0.300343 0.0464127 0.566834
432 4 0.310053 0.0641522 0.564552
430 2 0.320434 0.0643396 0.541806
431 4 0.330815 0.0645271 0.51906
1181 4 0.290869 0.0626602 0.563842
726 4 0.328647 0.075686 0.503164
843 4 0.336172 0.0573971 0.501513
1216 2 0.408154 0.0310518 0.519619
1217 4 0.385951 0.0216636 0.512981
842 4 0.367539 0.0191864 0.509048
841 2 0.351856 0.0382917 0.50528
1581 4 0.382178 0.00702118 0.50176
1218 4 0.430357 0.0404399 0.526256
641 4 0.439781 0.0574253 0.528507
640 2 0.441123 0.0741521 0.509971
261 4 0.0674945 0.152924 0.534627
1033 2 0.0641392 0.148921 0.569725
259 2 0.0626238 0.139603 0.514036
1035 4 0.0537835 0.146902 0.547056
938 4 0.130682 0.0911524 0.517454
1155 4 0.148012 0.100798 0.517304
1153 2 0.166941 0.117117 0.516529
1154 4 0.185869 0.133435 0.515754
1152 4 0.234532 0.0957888 0.541767
1150 2 0.220018 0.111609 0.52895
1151 4 0.205504 0.127429 0.516134
899 4 0.351193 0.13821 0.571724
898 2 0.352777 0.160988 0.561536
3266 4 0.0114171 0.231577 0.583033
857 4 0.21623 0.218507 0.563925
856 2 0.225962 0.196713 0.571376
858 4 0.235694 0.17492 0.578826
872 4 0.331223 0.2179 0.510531
871 2 0.333403 0.199985 0.527836
873 4 0.335583 0.18207 0.545142
900 4 0.354361 0.183767 0.551348
3064 2 0.476704 0.21038 0.534793
3065 4 0.462274 0.22484 0.549211
3158 4 0.482965 0.180081 0.513186
3066 4 0.491134 0.19592 0.520376
904 2 0.430703 0.248855 0.534208
905 4 0.454175 0.24255 0.540083
3060 4 0.500463 0.179485 0.522228
10 3 0.14756 0.311155 0.508411
983 4 0.105885 0.324536 0.51266
982 2 0.0872367 0.328129 0.528924
9 3 0.120776 0.334141 0.521524
6 1 0.140231 0.332711 0.508959
696 4 0.153707 0.294723 0.515826
1260 4 0.159069 0.305639 0.525509
1259 4 0.184136 0.310673 0.568486
1258 2 0.171603 0.308156 0.546997
948 4 0.176769 0.292712 0.575698
1239 4 0.287612 0.279273 0.508584
1237 2 0.306801 0.280878 0.524533
1238 4 0.32599 0.282483 0.540483
790 2 0.334609 0.288371 0.57666
906 4 0.407232 0.255159 0.528333
954 4 0.387316 0.262168 0.52578
952 2 0.363342 0.264669 0.532425
953 4 0.339367 0.26717 0.539071
792 4 0.33465 0.274853 0.555626
984 4 0.0685885 0.331723 0.545188
1136 4 0.0746681 0.340316 0.563278
1135 2 0.0754662 0.363222 0.573272
1137 4 0.0762643 0.386128 0.583265
935 4 0.988784 0.386379 0.550209
896 4 0.133004 0.415612 0.555019
895 2 0.113452 0.404099 0.565523
1191 4 0.146843 0.404639 0.545213
1189 2 0.151832 0.385803 0.529545
1190 4 0.156821 0.366966 0.513878
1161 4 0.14911 0.408729 0.561676
8 3 0.156585 0.346404 0.518092
897 4 0.0938999 0.392586 0.576027
711 4 0.170066 0.35791 0.510938
1000 2 0.403707 0.372569 0.561995
1001 4 0.420151 0.358463 0.549513
925 2 0.439928 0.371919 0.517537
926 4 0.454889 0.387605 0.505075
927 4 0.424968 0.356233 0.529999
663 4 0.461525 0.40361 0.498193
2243 4 0.146136 0.423582 0.547341
2242 2 0.145 0.438952 0.527652
2244 4 0.143864 0.454321 0.507962
772 2 0.151709 0.493014 0.507782
774 4 0.146072 0.469475 0.501512
1159 2 0.166538 0.41753 0.577297
1171 2 0.310987 0.436177 0.577562
1173 4 0.288795 0.437208 0.589036
928 2 0.367277 0.420436 0.574708
1172 4 0.333178 0.435146 0.566088
929 4 0.352442 0.437747 0.56444
891 4 0.341259 0.452729 0.565087
889 2 0.355639 0.473095 0.566981
1331 4 0.435486 0.47712 0.555705
1330 2 0.450864 0.472716 0.536487
661 2 0.46552 0.428125 0.501061
662 4 0.469516 0.45264 0.503929
1332 4 0.466242 0.468312 0.51727
1910 4 0.42949 0.484042 0.571871
2169 4 0.443 0.471942 0.575251
945 4 0.0530791 0.0581132 0.605195
1893 4 0.0616505 0.00451877 0.629255
2132 4 0.233907 0.00827264 0.656536
2131 2 0.209475 0.0101883 0.661496
2133 4 0.185043 0.0121041 0.666456
824 4 0.172993 0.0291228 0.659414
961 2 0.301912 0.030313 0.5859
962 4 0.303482 0.0142132 0.604967
2196 4 0.296647 0.995694 0.606699
950 4 0.284167 0.0111022 0.606996
1092 4 0.396537 0.991133 0.637621
1003 2 0.361722 0.0147677 0.644386
1005 4 0.346163 0.0323917 0.6529
1090 2 0.418823 0.000403278 0.644147
1091 4 0.441109 0.00967326 0.650674
2283 4 0.447075 0.0112045 0.67074
1034 4 0.0744949 0.150941 0.592393
943 2 0.0498795 0.0807216 0.615383
944 4 0.0466798 0.10333 0.625571
879 4 0.0611902 0.153327 0.606837
877 2 0.0414092 0.161074 0.620023
1083 4 0.0298425 0.110563 0.633032
1081 2 0.00871031 0.105671 0.645469
1272 4 0.0786413 0.146104 0.610588
1221 4 0.137591 0.161817 0.611333
1270 2 0.103632 0.14534 0.610863
1271 4 0.128622 0.144576 0.611138
1283 4 0.225074 0.0789561 0.661007
1282 2 0.241255 0.0911953 0.646393
1284 4 0.257435 0.103434 0.631778
1031 4 0.270971 0.118146 0.629052
1030 2 0.293226 0.107036 0.631595
1032 4 0.315481 0.0959255 0.634137
810 4 0.468688 0.163335 0.658088
878 4 0.0216282 0.168821 0.633209
1199 4 0.00676729 0.180625 0.625407
3045 4 0.0225937 0.229612 0.597247
1198 2 0.00504635 0.201089 0.611143
1200 4 0.00332541 0.221553 0.59688
3043 2 0.0440778 0.240131 0.604524
1219 2 0.150736 0.17629 0.626919
1220 4 0.163881 0.190763 0.642504
796 2 0.173195 0.226574 0.623561
798 4 0.171276 0.208065 0.640262
1212 4 0.184169 0.194392 0.643932
1210 2 0.20515 0.194702 0.657529
1211 4 0.226131 0.195011 0.671127
1025 4 0.461272 0.181743 0.665877
1024 2 0.484491 0.190203 0.662075
3044 4 0.0655618 0.250651 0.611801
1243 2 0.0732156 0.2591 0.646097
1244 4 0.0815342 0.24834 0.625116
797 4 0.175113 0.245084 0.606861
947 4 0.187175 0.246238 0.59095
946 2 0.181972 0.269475 0.583324
822 4 0.190682 0.271073 0.680141
791 4 0.334568 0.301889 0.597694
1040 4 0.0766086 0.399053 0.642356
1041 4 0.0882104 0.396368 0.593787
1039 2 0.0824095 0.397711 0.618071
993 4 0.0948846 0.397078 0.650142
1028 4 0.202125 0.380974 0.673392
1027 2 0.204718 0.405718 0.675881
930 4 0.382112 0.403124 0.584975
1002 4 0.387264 0.386676 0.574477
807 4 0.372463 0.379679 0.640826
805 2 0.37922 0.383261 0.61702
806 4 0.385977 0.386844 0.593215
1160 4 0.183966 0.426332 0.592917
1138 2 0.243857 0.44855 0.670045
1187 4 0.290577 0.43427 0.608454
1140 4 0.265584 0.45462 0.659263
1188 4 0.259907 0.457513 0.640389
1186 2 0.275242 0.445892 0.624422
1099 2 0.460275 0.4192 0.643882
1267 2 0.496983 0.426026 0.60278
1268 4 0.472757 0.432032 0.604274
2168 4 0.460013 0.444722 0.613596
1100 4 0.464524 0.428401 0.621024
2167 2 0.451506 0.458332 0.594424
825 4 0.143648 0.0075378 0.693673
823 2 0.158321 0.0183303 0.676543
1298 4 0.283025 0.0803888 0.713914
2281 2 0.469485 0.00777578 0.681287
909 4 0.214958 0.0822953 0.677707
908 4 0.210879 0.105502 0.721815
1227 4 0.196208 0.109062 0.733793
907 2 0.212919 0.0938989 0.699761
1299 4 0.297338 0.123082 0.735666
1297 2 0.290182 0.101736 0.72479
829 2 0.290506 0.162026 0.722218
831 4 0.294098 0.141951 0.736684
1194 4 0.325268 0.159043 0.734804
42 3 0.486494 0.0846238 0.697826
43 3 0.453154 0.0810645 0.680845
44 3 0.455117 0.0860984 0.718464
808 2 0.463778 0.140335 0.666578
41 1 0.464594 0.0916597 0.698028
809 4 0.458867 0.117336 0.675069
45 3 0.463938 0.114227 0.695042
852 4 0.0238713 0.237152 0.733899
850 2 0.0361152 0.215489 0.736343
1208 4 0.024178 0.246862 0.717353
851 4 0.0483592 0.193826 0.738786
3038 4 0.0102015 0.244171 0.729831
1215 4 0.0128263 0.242067 0.74894
1107 4 0.0673399 0.201099 0.73812
1245 4 0.064897 0.269859 0.667078
1072 2 0.129557 0.244383 0.734196
1073 4 0.123193 0.221341 0.741526
1105 2 0.0914472 0.20525 0.743296
1106 4 0.115555 0.209401 0.748471
35 3 0.135828 0.21147 0.752444
888 4 0.2346 0.179152 0.676612
1130 4 0.176498 0.179647 0.735932
1129 2 0.19694 0.193708 0.739029
886 2 0.256327 0.186649 0.686457
830 4 0.286914 0.182101 0.707752
887 4 0.278053 0.194147 0.696302
976 2 0.313507 0.213518 0.713415
978 4 0.296616 0.197844 0.70371
977 4 0.330398 0.229192 0.72312
1192 2 0.335159 0.177122 0.748964
918 4 0.347997 0.238153 0.723869
916 2 0.353547 0.231413 0.747299
1178 4 0.0257249 0.252596 0.737286
1207 2 0.0359348 0.256388 0.697448
1209 4 0.0476916 0.265914 0.677543
814 2 0.0832242 0.303486 0.739142
941 4 0.153176 0.313343 0.684868
940 2 0.132682 0.317502 0.698575
1074 4 0.135921 0.267425 0.726866
942 4 0.112189 0.32166 0.712282
1067 4 0.158442 0.328394 0.674614
815 4 0.099906 0.318554 0.728194
821 4 0.165067 0.312414 0.668497
820 2 0.177874 0.291744 0.674319
1205 4 0.379759 0.331308 0.684805
3274 2 0.0193845 0.35626 0.702984
3275 4 0.0417417 0.345367 0.705567
1279 2 0.0525294 0.404319 0.716271
1280 4 0.0712618 0.391779 0.705453
893 4 0.0854433 0.380799 0.711849
991 2 0.091775 0.397375 0.674949
992 4 0.0886654 0.397673 0.699757
892 2 0.0954348 0.35856 0.717399
894 4 0.105426 0.336322 0.722949
1068 4 0.186733 0.369422 0.678742
1029 4 0.207312 0.430462 0.678369
1066 2 0.172587 0.348908 0.676678
1228 2 0.376952 0.39884 0.720516
1230 4 0.386626 0.391695 0.698595
1229 4 0.367278 0.405984 0.742438
1206 4 0.399957 0.375909 0.69498
1204 2 0.389858 0.353609 0.689892
1101 4 0.456027 0.409999 0.66674
3328 2 0.468752 0.413451 0.705172
3330 4 0.451992 0.409708 0.687
3329 4 0.485513 0.417195 0.723345
1281 4 0.0337969 0.416858 0.72709
885 4 0.0294578 0.422364 0.745777
1983 4 0.0175064 0.427218 0.730322
1981 2 0.0153213 0.451972 0.72756
1982 4 0.0131362 0.476726 0.724798
1139 4 0.22213 0.44248 0.680828
2987 4 0.496618 0.419972 0.739429
786 4 0.0510326 0.0796581 0.846573
1149 4 0.246829 0.0816437 0.816142
1257 4 0.26467 0.0798689 0.823522
975 4 0.395034 0.00683076 0.798925
1113 4 0.404782 0.0231472 0.792462
1111 2 0.415006 0.0419772 0.805349
818 4 0.41418 0.0737399 0.826197
1112 4 0.42523 0.0608073 0.818236
846 4 0.429882 0.0807896 0.818449
844 2 0.454189 0.0758014 0.821526
2320 2 0.478452 0.00931207 0.75651
845 4 0.478496 0.0708131 0.824602
784 2 0.0344446 0.0967559 0.838978
785 4 0.0178566 0.113854 0.831383
834 4 0.00796562 0.128838 0.824578
1225 2 0.197987 0.111344 0.758629
1148 4 0.205492 0.103045 0.797867
1147 2 0.22616 0.0923444 0.807005
1226 4 0.199767 0.113625 0.783464