ITEM: TIMESTEP
720000
ITEM: NUMBER OF ATOMS
4590
ITEM: BOX BOUNDS pp pp pp
-9.9985700000000008e+00 9.9985700000000008e+00
-9.9985700000000008e+00 9.9985700000000008e+00
-9.9985700000000008e+00 9.9985700000000008e+00
ITEM: ATOMS id type xs ys zs
463 2 0.00642996 0.0589521 0.0481917
465 4 0.0289992 0.0695353 0.0501417
1667 4 0.0423556 0.0671426 0.0638043
701 4 0.0473167 0.0764721 0.0473067
1475 4 0.227147 0.0157751 0.0330471
532 2 0.205571 0.0731315 0.00371935
490 2 0.291839 0.028123 0.0471083
491 4 0.30771 0.0409869 0.0615242
492 4 0.275969 0.015259 0.0326925
2264 4 0.278028 0.00802152 0.012869
296 4 0.323189 0.043834 0.0724213
557 4 0.317233 0.0561589 0.0566712
556 2 0.316733 0.0794134 0.0474976
1606 2 0.390724 0.00226612 0.99863
295 2 0.345028 0.0333009 0.078528
745 2 0.465389 0.0614151 0.0634704
747 4 0.462542 0.0529991 0.0400986
2975 4 0.474373 0.0612264 0.0261986
2974 2 0.471401 0.0726361 0.00414947
590 4 0.0356123 0.0853121 0.0591885
700 2 0.0589225 0.0846367 0.0267197
589 2 0.0280655 0.10587 0.0712551
3232 2 0.0111526 0.131693 0.0235465
3234 4 0.994058 0.122486 0.0392997
702 4 0.0705283 0.0928014 0.00613279
3233 4 0.0282475 0.140901 0.00779317
421 2 0.0987788 0.121498 0.0154523
423 4 0.0860045 0.10002 0.0163019
422 4 0.111553 0.142975 0.0146028
534 4 0.220613 0.0906615 0.0132921
566 4 0.178304 0.0965014 0.0730992
565 2 0.178392 0.110717 0.0525304
567 4 0.178479 0.124933 0.0319616
360 4 0.285305 0.170983 0.01995
558 4 0.316233 0.102668 0.038324
770 4 0.43669 0.155977 0.0186043
769 2 0.44763 0.163358 0.0398415
554 4 0.0730842 0.239005 0.0562901
553 2 0.0855327 0.230997 0.0361388
555 4 0.0979813 0.222988 0.0159875
836 4 0.0905025 0.236063 0.00144759
355 2 0.201708 0.243464 0.00979528
357 4 0.210629 0.246439 0.0329627
666 4 0.330331 0.251412 0.0309874
461 4 0.344146 0.214665 0.0479655
460 2 0.355705 0.21085 0.0698064
826 2 0.414027 0.171596 0.991743
827 4 0.425998 0.171529 0.013695
771 4 0.45857 0.170739 0.0610786
629 4 0.446407 0.168144 0.0776022
292 2 0.126019 0.289703 0.0169907
293 4 0.141086 0.309634 0.0179509
507 4 0.160549 0.310335 0.0273819
294 4 0.110953 0.269771 0.0160304
505 2 0.181065 0.30899 0.0416105
506 4 0.201582 0.307646 0.0558391
483 4 0.209703 0.321065 0.068503
481 2 0.233466 0.32257 0.0761343
572 4 0.319296 0.268638 0.0359563
573 4 0.29359 0.253645 0.0761452
571 2 0.306443 0.261142 0.0560507
664 2 0.3344 0.258415 0.00733176
1071 4 0.372596 0.307921 0.0247234
1069 2 0.394335 0.299761 0.0339983
1070 4 0.416073 0.291601 0.0432731
322 2 0.407395 0.259211 0.0693923
956 4 0.376672 0.313719 0.00528928
323 4 0.412232 0.272618 0.0488495
671 4 0.431274 0.326709 0.0583408
288 4 0.117792 0.35639 0.0343038
286 2 0.132618 0.355494 0.01419
252 4 0.304235 0.378792 0.0590489
250 2 0.295158 0.378695 0.0357513
251 4 0.286081 0.378597 0.0124536
608 4 0.311274 0.391277 0.072686
281 4 0.44532 0.341679 0.060211
282 4 0.478169 0.348953 0.0232144
280 2 0.461745 0.345316 0.0417127
1787 4 0.0130199 0.465663 0.0739305
314 4 0.00706207 0.414258 0.0581522
241 2 0.167363 0.500563 0.0690342
245 4 0.272698 0.439091 0.0234357
244 2 0.283498 0.461642 0.0233206
246 4 0.294298 0.484192 0.0232055
272 4 0.311845 0.491637 0.0240752
523 2 0.320212 0.449793 0.0735618
524 4 0.297335 0.454522 0.0824748
525 4 0.343089 0.445064 0.0646488
563 4 0.488408 0.47358 0.00518003
564 4 0.446303 0.500483 0.00721918
562 2 0.467356 0.487032 0.0061996
1666 2 0.0514328 0.0594867 0.0858082
1668 4 0.0605101 0.0518309 0.107812
1420 2 0.0324166 0.0189102 0.145132
1422 4 0.0324432 0.0376185 0.161721
450 4 0.142583 0.079087 0.143557
1506 4 0.251992 0.0209968 0.172105
652 2 0.310958 0.0495052 0.133943
653 4 0.322756 0.0631292 0.116611
654 4 0.299161 0.0358813 0.151274
485 4 0.386041 0.0170057 0.0828121
297 4 0.366867 0.0227679 0.0846347
758 4 0.409988 0.0501649 0.133363
757 2 0.40302 0.055785 0.156709
746 4 0.468237 0.0698311 0.0868421
591 4 0.0205188 0.126428 0.0833217
380 4 0.000510407 0.136265 0.161123
477 4 0.0716708 0.170335 0.109379
448 2 0.160981 0.0918339 0.154703
475 2 0.092082 0.164179 0.122443
476 4 0.112493 0.158024 0.135508
237 4 0.185701 0.158135 0.131695
235 2 0.186828 0.140462 0.149345
737 4 0.169327 0.166364 0.139819
236 4 0.187956 0.122788 0.166996
449 4 0.179378 0.104581 0.165848
582 4 0.316413 0.108756 0.159393
630 4 0.409712 0.149598 0.106067
254 4 0.391805 0.156454 0.110023
628 2 0.42806 0.158871 0.0918345
363 4 0.120765 0.232028 0.168088
736 2 0.169291 0.191364 0.139383
738 4 0.169256 0.216364 0.138947
354 4 0.281359 0.211972 0.120385
352 2 0.286772 0.233246 0.108415
283 2 0.297183 0.207245 0.157489
284 4 0.280468 0.205569 0.138969
253 2 0.374651 0.173516 0.103715
255 4 0.357496 0.190578 0.0974076
462 4 0.367263 0.207034 0.0916473
324 4 0.402557 0.245803 0.0899352
517 2 0.495511 0.224235 0.0924536
518 4 0.483235 0.20358 0.0855347
703 2 0.0186217 0.322446 0.167714
535 2 0.217545 0.30335 0.13246
536 4 0.23432 0.286065 0.13917
537 4 0.20077 0.320635 0.12575
482 4 0.257229 0.324074 0.0837656
353 4 0.292185 0.25452 0.0964447
754 2 0.273923 0.288502 0.117542
755 4 0.283819 0.272313 0.101258
756 4 0.264026 0.304691 0.133825
612 4 0.276841 0.317851 0.142367
623 4 0.36497 0.301299 0.163535
672 4 0.413063 0.337597 0.103623
670 2 0.422169 0.332153 0.0809821
528 4 0.466705 0.315388 0.145937
705 4 0.011124 0.341813 0.153791
620 4 0.0295885 0.350083 0.150123
621 4 0.0420164 0.373435 0.107685
619 2 0.0358025 0.361759 0.128904
455 4 0.103231 0.356996 0.146536
454 2 0.0990825 0.369762 0.125441
456 4 0.0949339 0.382529 0.104346
627 4 0.238678 0.411017 0.116603
625 2 0.241978 0.402584 0.13991
626 4 0.245278 0.394151 0.163216
607 2 0.322565 0.378747 0.0911437
610 2 0.291009 0.336937 0.150124
387 4 0.322141 0.362636 0.162634
611 4 0.305177 0.356023 0.15788
741 4 0.395718 0.344593 0.0960365
385 2 0.335303 0.367603 0.141964
609 4 0.333856 0.366217 0.109601
740 4 0.349754 0.35596 0.112125
386 4 0.348464 0.372571 0.121293
739 2 0.372736 0.350276 0.104081
15 3 0.41444 0.381984 0.119981
13 3 0.400948 0.364202 0.150303
11 1 0.41792 0.36478 0.134491
526 2 0.461812 0.339792 0.148327
12 3 0.417922 0.344936 0.122855
14 3 0.438453 0.367315 0.144998
495 4 0.454762 0.379961 0.150266
493 2 0.459149 0.399524 0.135325
527 4 0.456919 0.364195 0.150718
597 4 0.468642 0.373184 0.162619
645 4 0.446968 0.372075 0.161776
1786 2 0.0213069 0.483343 0.0895485
243 4 0.168924 0.492936 0.092795
1440 4 0.188021 0.493177 0.0997022
637 2 0.25683 0.497321 0.128865
638 4 0.271777 0.487776 0.146491
767 4 0.283032 0.485725 0.162734
660 4 0.383868 0.452667 0.154738
494 4 0.463536 0.419087 0.120384
19 3 0.049385 0.040677 0.172672
2481 4 0.00114053 0.088249 0.178661
2480 4 0.0309601 0.0488655 0.170886
17 3 0.0802785 0.0487346 0.192505
16 1 0.0677907 0.0316298 0.183525
18 3 0.0607945 0.0176486 0.200671
2479 2 0.0160503 0.0685573 0.174774
20 3 0.0805841 0.0199723 0.168724
673 2 0.123321 0.0489759 0.234668
674 4 0.130399 0.0728926 0.236422
675 4 0.116243 0.0250592 0.232915
1505 4 0.21524 0.0511494 0.187625
1504 2 0.233616 0.0360731 0.179865
689 4 0.213184 0.0587247 0.205132
688 2 0.20552 0.0468427 0.225754
692 4 0.222338 0.0703041 0.193123
690 4 0.197855 0.0349607 0.246375
21 1 0.397312 0.0402787 0.213721
24 3 0.380453 0.0247473 0.21732
25 3 0.390442 0.0558342 0.198572
759 4 0.396051 0.0614051 0.180055
22 3 0.402175 0.0507232 0.233631
1496 4 0.379188 0.00806923 0.226627
312 4 0.393322 0.0732138 0.190651
23 3 0.416406 0.0295961 0.205994
742 2 0.453906 0.0413433 0.216285
744 4 0.431009 0.0435591 0.206488
743 4 0.476803 0.0391275 0.226082
379 2 0.998137 0.148657 0.18271
513 4 0.0459389 0.165461 0.23966
577 2 0.0912022 0.135562 0.24019
578 4 0.102434 0.123561 0.221349
546 4 0.16527 0.136654 0.240233
721 2 0.166502 0.120361 0.202737
722 4 0.158323 0.123384 0.226171
693 4 0.192719 0.106958 0.176393
691 2 0.207528 0.0886312 0.184758
723 4 0.17468 0.117337 0.179303
580 2 0.308611 0.0991556 0.181122
581 4 0.300809 0.0895554 0.202851
30 3 0.285838 0.0979455 0.212384
26 1 0.267803 0.106385 0.223437
28 3 0.248623 0.0948982 0.217225
29 3 0.265424 0.12896 0.21863
27 3 0.270954 0.103897 0.246087
310 2 0.399491 0.0964823 0.197411
311 4 0.405659 0.119751 0.204171
333 4 0.420063 0.138859 0.23584
337 2 0.0849444 0.226258 0.179565
339 4 0.0632523 0.236031 0.187254
511 2 0.0224655 0.165068 0.231056
395 4 0.0244076 0.23092 0.227522
394 2 0.00554007 0.23045 0.243922
338 4 0.106637 0.216485 0.171876
361 2 0.141424 0.229852 0.182005
362 4 0.162082 0.227676 0.195921
372 4 0.165985 0.240248 0.210727
285 4 0.313898 0.20892 0.176009
704 4 0.0261194 0.303078 0.181638
748 2 0.0669979 0.271088 0.240873
749 4 0.0470049 0.281629 0.23018
370 2 0.189502 0.245538 0.204082
371 4 0.213019 0.250829 0.197438
277 2 0.241707 0.266289 0.201458
279 4 0.22804 0.247221 0.210107
344 4 0.267924 0.308679 0.222113
343 2 0.279827 0.293529 0.238049
278 4 0.255374 0.285357 0.192809
307 2 0.333873 0.26718 0.247317
763 2 0.384048 0.251211 0.218586
765 4 0.400077 0.258797 0.20096
622 2 0.377618 0.282535 0.174171
764 4 0.368019 0.243624 0.236213
309 4 0.357208 0.258786 0.24412
624 4 0.390265 0.263771 0.184807
648 4 0.0359507 0.363081 0.162755
647 4 0.0305743 0.394633 0.201178
646 2 0.0332625 0.378857 0.181966
300 4 0.122969 0.34629 0.227422
290 4 0.227303 0.38611 0.212309
289 2 0.223521 0.410793 0.211032
302 4 0.305396 0.366411 0.173711
303 4 0.318388 0.389897 0.215905
301 2 0.311892 0.378154 0.194808
729 4 0.314693 0.378408 0.232008
447 4 0.406784 0.381583 0.206686
445 2 0.409162 0.367566 0.227255
446 4 0.41154 0.35355 0.247824
595 2 0.490091 0.377984 0.174539
643 2 0.436179 0.381497 0.18227
644 4 0.42539 0.390918 0.202765
262 2 0.0584499 0.487982 0.232658
263 4 0.0520308 0.467888 0.246083
417 4 0.178034 0.476392 0.182404
415 2 0.189781 0.456426 0.191815
416 4 0.201528 0.436461 0.201226
291 4 0.219739 0.435476 0.209755
1430 4 0.180217 0.495357 0.175072
768 4 0.2983 0.465355 0.205777
766 2 0.290666 0.47554 0.184255
658 2 0.377806 0.447351 0.178405
659 4 0.371744 0.442035 0.202073
530 4 0.0154966 0.0790401 0.2908
1404 4 0.0517797 0.0149248 0.26432
232 2 0.0059163 0.0375999 0.329282
233 4 0.0297 0.0399731 0.321942
1402 2 0.0456044 0.02045 0.28791
1403 4 0.0394291 0.0259752 0.311501
316 2 0.0621696 0.0626327 0.322346
317 4 0.0483208 0.0426693 0.316443
1464 4 0.133207 0.00210945 0.316429
731 4 0.102053 0.0579665 0.330134
730 2 0.121434 0.0691285 0.318955
732 4 0.140815 0.0802906 0.307776
1701 4 0.220906 0.015266 0.324708
1699 2 0.242932 0.00384818 0.321602
248 4 0.252218 0.0752687 0.32663
699 4 0.38971 0.0045613 0.311183
697 2 0.383659 0.0262776 0.321998
1749 4 0.459673 0.00902506 0.301118
480 4 0.463867 0.0252113 0.31136
318 4 0.0760185 0.0825961 0.328249
397 2 0.0642694 0.124486 0.328553
399 4 0.0502676 0.145196 0.32808
579 4 0.0799705 0.147563 0.259032
398 4 0.0782711 0.103776 0.329025
544 2 0.149278 0.148647 0.255253
598 2 0.162816 0.11002 0.324889
600 4 0.143449 0.0943278 0.322917
599 4 0.182182 0.125711 0.32686
403 2 0.241659 0.151872 0.314312
404 4 0.246168 0.140358 0.336044
707 4 0.36128 0.156277 0.279756
632 4 0.39281 0.120463 0.32388
631 2 0.399553 0.136007 0.305493
633 4 0.406296 0.151552 0.287106
706 2 0.352282 0.170171 0.298495
351 4 0.438729 0.0923089 0.267312
349 2 0.444981 0.102862 0.289101
350 4 0.451233 0.113415 0.310889
331 2 0.429829 0.156813 0.250244
452 4 0.454329 0.130005 0.320367
545 4 0.133286 0.16064 0.270273
392 4 0.140408 0.175627 0.28211
391 2 0.122777 0.193245 0.284087
393 4 0.105145 0.210863 0.286064
405 4 0.23715 0.163387 0.292581
708 4 0.343283 0.184065 0.317235
521 4 0.486528 0.196126 0.255913
332 4 0.439595 0.174766 0.264648
762 4 0.453744 0.18362 0.274997
760 2 0.45702 0.185528 0.299712
761 4 0.460295 0.187436 0.324426
2493 4 0.0153567 0.300641 0.290395
750 4 0.086991 0.260547 0.251567
677 4 0.161435 0.32345 0.334891
400 2 0.235515 0.265807 0.316404
401 4 0.229783 0.26812 0.292177
345 4 0.29173 0.278378 0.253984
308 4 0.310539 0.275575 0.250515
496 2 0.309836 0.29465 0.287742
497 4 0.305542 0.279598 0.268244
498 4 0.314129 0.309702 0.307241
615 4 0.401452 0.314224 0.313719
613 2 0.379025 0.320704 0.304763
543 4 0.411319 0.318312 0.331065
614 4 0.356597 0.327183 0.295807
541 2 0.433027 0.312273 0.320226
542 4 0.454735 0.306234 0.309387
364 2 0.0216968 0.369771 0.323248
603 4 0.0406966 0.412229 0.244217
366 4 0.99819 0.375954 0.317383
365 4 0.0452032 0.363588 0.329114
298 2 0.121784 0.3578 0.249588
735 4 0.148398 0.331695 0.322213
299 4 0.120599 0.36931 0.271753
734 4 0.129266 0.359466 0.285288
733 2 0.138832 0.34558 0.303751
435 4 0.306879 0.397448 0.32455
727 2 0.330486 0.385231 0.250152
433 2 0.323757 0.396119 0.306151
434 4 0.340635 0.39479 0.287751
728 4 0.346279 0.392054 0.268296
2924 4 0.489412 0.345361 0.324823
602 4 0.0647561 0.454648 0.255284
601 2 0.0527263 0.433438 0.24975
549 4 0.0305767 0.458658 0.327882
547 2 0.0552665 0.457654 0.331702
2463 4 0.0158136 0.445537 0.323642
777 4 0.121549 0.450529 0.280811
775 2 0.108046 0.453014 0.301707
776 4 0.0945431 0.455499 0.322604
414 4 0.138938 0.442619 0.273877
412 2 0.163132 0.445578 0.279449
413 4 0.187326 0.448538 0.285022
436 2 0.279936 0.467519 0.312474
437 4 0.259765 0.470117 0.297929
438 4 0.300107 0.464922 0.32702
714 4 0.429393 0.470548 0.271443
713 4 0.431909 0.429015 0.29918
712 2 0.430651 0.449781 0.285312
594 4 0.432399 0.447021 0.341576
429 4 0.0960805 0.0027733 0.361802
1782 4 0.143067 0.0148534 0.375905
1780 2 0.136805 0.0253466 0.397719
604 2 0.186698 0.0612353 0.40144
605 4 0.195758 0.0773164 0.384574
440 4 0.273913 0.99263 0.392066
439 2 0.277611 0.00734048 0.411944
698 4 0.377609 0.047994 0.332813
257 4 0.373023 0.0589069 0.348696
256 2 0.391347 0.061549 0.365502
258 4 0.40967 0.0641911 0.382308
478 2 0.469762 0.0328906 0.334413
479 4 0.475656 0.0405698 0.357467
459 4 0.00756995 0.169942 0.376358
457 2 0.0155496 0.149694 0.388668
458 4 0.0235293 0.129447 0.400978
685 2 0.179807 0.141477 0.41037
686 4 0.191976 0.130372 0.391561
249 4 0.253738 0.123814 0.338536
247 2 0.252978 0.0995414 0.332583
683 4 0.266419 0.137136 0.342541
682 2 0.276692 0.148676 0.362199
684 4 0.286965 0.160216 0.381858
320 4 0.283879 0.147014 0.39642
426 4 0.40713 0.0801179 0.393576
424 2 0.413636 0.0918201 0.414692
451 2 0.447322 0.12388 0.343575
453 4 0.440315 0.117756 0.366782
514 2 0.428001 0.15177 0.393729
515 4 0.436643 0.133878 0.37855
388 2 0.0497965 0.211378 0.388215
390 4 0.0268999 0.206638 0.379357
2653 2 0.00638558 0.236688 0.357498
2654 4 0.0124237 0.220339 0.375426
389 4 0.0726931 0.216118 0.397073
275 4 0.200771 0.222385 0.374175
274 2 0.217342 0.238857 0.365273
474 4 0.276283 0.211793 0.36798
472 2 0.296857 0.214598 0.38191
473 4 0.31743 0.217403 0.395841
487 2 0.338746 0.252097 0.39473
489 4 0.325809 0.233876 0.405947
420 4 0.410749 0.227299 0.348245
717 4 0.395939 0.240281 0.345903
516 4 0.41936 0.169661 0.408908
419 4 0.449929 0.197774 0.338555
418 2 0.430339 0.212536 0.3434
268 2 0.447148 0.232105 0.400105
270 4 0.458832 0.227174 0.421654
269 4 0.435463 0.237036 0.378557
402 4 0.241248 0.263493 0.340632
676 2 0.17433 0.305804 0.347037
678 4 0.187225 0.288159 0.359184
508 2 0.237202 0.299072 0.361504
510 4 0.236168 0.275007 0.354799
375 4 0.188827 0.274039 0.373167
276 4 0.233912 0.25533 0.356371
373 2 0.195154 0.276847 0.397193
509 4 0.238236 0.323137 0.36821
374 4 0.201481 0.279654 0.42122
378 4 0.251037 0.262743 0.357857
377 4 0.299942 0.25464 0.351271
376 2 0.27549 0.258691 0.354564
715 2 0.400088 0.262639 0.356299
716 4 0.404237 0.284997 0.366696
488 4 0.351682 0.270317 0.383512
2927 4 0.0183789 0.362179 0.388893
616 2 0.0667438 0.354584 0.377178
617 4 0.0670278 0.363288 0.35374
618 4 0.0664598 0.345879 0.400616
408 4 0.0986135 0.39659 0.354031
504 4 0.260615 0.404842 0.405063
753 4 0.413984 0.406631 0.35828
2923 2 0.479936 0.361249 0.341645
561 4 0.476843 0.394232 0.368022
752 4 0.462277 0.393916 0.355683
559 2 0.485415 0.400551 0.390644
751 2 0.438131 0.400273 0.356981
2925 4 0.47046 0.377136 0.358467
2461 2 0.00133308 0.44613 0.344017
548 4 0.0799563 0.456651 0.335521
681 4 0.0525271 0.437728 0.402007
679 2 0.0310797 0.447917 0.40984
383 4 0.0714555 0.444357 0.4019
407 4 0.0930587 0.443602 0.337916
500 4 0.0979495 0.461579 0.340733
406 2 0.0958361 0.420096 0.345974
501 4 0.0986783 0.503162 0.3685
499 2 0.0983139 0.482371 0.354617
568 2 0.14854 0.476891 0.411736
382 2 0.0899191 0.459801 0.408666
570 4 0.170704 0.477417 0.400175
1557 4 0.215059 0.481593 0.400351
1555 2 0.239991 0.479697 0.400284
1556 4 0.264922 0.477801 0.400217
5 3 0.307277 0.478868 0.377827
1 1 0.318351 0.470336 0.359848
4 3 0.318013 0.447148 0.360615
3 3 0.308466 0.477757 0.34021
2 3 0.340213 0.477475 0.360328
593 4 0.44179 0.495167 0.351293
592 2 0.437094 0.471094 0.346434
2238 4 0.00815828 0.017043 0.446183
718 2 0.0706826 0.0562349 0.475216
720 4 0.0463842 0.0503393 0.475127
2237 4 0.0275807 0.056465 0.470045
2236 2 0.0178695 0.036754 0.458114
1781 4 0.130543 0.0358399 0.419533
368 4 0.144016 0.0417904 0.43391
719 4 0.094981 0.0621305 0.475305
367 2 0.128716 0.0509229 0.451451
369 4 0.113416 0.0600554 0.468992
606 4 0.177638 0.0451542 0.418307
342 4 0.221861 0.082802 0.499098
441 4 0.281308 0.022051 0.431821
431 4 0.333907 0.0758272 0.500213
1035 4 0.0796761 0.162421 0.484347
687 4 0.167639 0.152583 0.429179
1152 4 0.219192 0.10232 0.50092
321 4 0.291129 0.114704 0.433892
319 2 0.287504 0.130859 0.415156
467 4 0.319318 0.158439 0.423729
726 4 0.343763 0.0938112 0.501227
724 2 0.34444 0.11475 0.487579
725 4 0.345117 0.135689 0.473931
468 4 0.340429 0.153672 0.46881
466 2 0.329873 0.156055 0.44627
425 4 0.420143 0.103522 0.435809
576 4 0.409982 0.160164 0.46983
2878 2 0.502566 0.0862921 0.459138
2880 4 0.48854 0.0997058 0.474903
642 4 0.486136 0.10585 0.494275
471 4 0.00831301 0.196384 0.479844
469 2 0.0287314 0.19209 0.466066
470 4 0.0491498 0.187796 0.452288
260 4 0.1121 0.190355 0.432333
261 4 0.0853229 0.165782 0.466683
259 2 0.0987112 0.178069 0.449508
411 4 0.281249 0.209488 0.434416
409 2 0.276993 0.202741 0.458113
410 4 0.272737 0.195994 0.48181
575 4 0.407549 0.178146 0.423231
574 2 0.408765 0.169155 0.446531
872 4 0.350599 0.232311 0.48623
871 2 0.370463 0.233165 0.501392
306 4 0.469205 0.210283 0.42423
305 4 0.48389 0.231011 0.467304
304 2 0.476547 0.220647 0.445767
348 4 0.0508748 0.289319 0.431684
346 2 0.0556725 0.312354 0.423225
347 4 0.0604701 0.335389 0.414766
695 4 0.102896 0.26485 0.478293
694 2 0.120443 0.280482 0.486835
1260 4 0.152327 0.307968 0.489302
649 2 0.24622 0.30929 0.490647
650 4 0.251959 0.306633 0.466456
266 4 0.338517 0.29777 0.430229
265 2 0.342909 0.291635 0.454067
267 4 0.347302 0.2855 0.477905
2456 4 0.485442 0.281313 0.489459
583 2 0.459579 0.298701 0.465212
584 4 0.467585 0.288796 0.486729
585 4 0.451573 0.308605 0.443695
326 4 0.0741588 0.347241 0.419393
325 2 0.0741878 0.367966 0.43338
327 4 0.0742169 0.388692 0.447366
7 3 0.130671 0.383104 0.505546
10 3 0.14366 0.354301 0.485682
709 2 0.199366 0.370817 0.48901
710 4 0.216879 0.377589 0.472499
803 4 0.233722 0.374876 0.482704
711 4 0.181852 0.364044 0.50552
503 4 0.245265 0.377347 0.44391
502 2 0.25294 0.391095 0.424486
802 2 0.254901 0.378099 0.495597
804 4 0.27608 0.381321 0.508491
336 4 0.35324 0.397165 0.45919
334 2 0.36969 0.379303 0.465148
240 4 0.402392 0.36891 0.480435
335 4 0.38614 0.36144 0.471106
2508 4 0.497777 0.370788 0.46747
2507 4 0.48435 0.401407 0.430283
2506 2 0.491064 0.386098 0.448876
680 4 0.00963231 0.458107 0.417673
1381 2 0.00548215 0.494605 0.43466
1383 4 0.00259166 0.469836 0.432832
569 4 0.126376 0.476365 0.423297
539 4 0.111679 0.481593 0.434101
540 4 0.107633 0.486101 0.48374
538 2 0.109656 0.483847 0.458921
384 4 0.108383 0.475244 0.415432
636 4 0.210166 0.485187 0.419619
774 4 0.202891 0.464894 0.484507
635 4 0.197219 0.468956 0.465113
634 2 0.203693 0.477072 0.442366
669 4 0.318668 0.447389 0.406172
668 4 0.289902 0.472856 0.438183
667 2 0.304285 0.460123 0.422177
880 2 0.334638 0.469462 0.498191
588 4 0.365184 0.470546 0.460999
586 2 0.38884 0.463024 0.458004
587 4 0.412497 0.455502 0.455009
881 4 0.340996 0.445803 0.493187
662 4 0.473797 0.469713 0.496703
661 2 0.460905 0.448329 0.498001
1126 2 0.0435834 0.0608048 0.532629
1127 4 0.0299483 0.0399982 0.530109
1128 4 0.0572184 0.0816113 0.53515
1058 4 0.13993 0.0250484 0.55483
1057 2 0.132746 0.0488004 0.557897
1059 4 0.125562 0.0725525 0.560964
1155 4 0.138629 0.0851978 0.553934
2430 4 0.21012 0.027438 0.527363
2428 2 0.213885 0.00529134 0.516384
341 4 0.215608 0.0342059 0.5091
340 2 0.218735 0.058504 0.504099
961 2 0.285096 0.0701413 0.567409
963 4 0.287335 0.0827352 0.545925
430 2 0.312583 0.0764418 0.513254
432 4 0.291258 0.0770564 0.526295
2196 4 0.331664 0.00287967 0.547413
1217 4 0.404197 0.0624906 0.543503
841 2 0.370286 0.0679601 0.519735
842 4 0.391097 0.0577093 0.529063
843 4 0.349476 0.0782109 0.510406
1216 2 0.426268 0.0737703 0.546791
939 4 0.0748038 0.0895759 0.540114
938 4 0.120763 0.0915176 0.559729
937 2 0.0977832 0.0905467 0.549922
1153 2 0.151761 0.10509 0.546383
1033 2 0.0906771 0.15339 0.504904
1154 4 0.164893 0.124983 0.538832
1034 4 0.101678 0.144359 0.525461
1151 4 0.183208 0.119228 0.531252
1031 4 0.223794 0.104093 0.546031
1150 2 0.2012 0.110774 0.516086
1030 2 0.221656 0.112944 0.569317
1182 4 0.234695 0.0934797 0.509635
1181 4 0.279996 0.0913003 0.530701
1180 2 0.257345 0.09239 0.520168
900 4 0.316101 0.143489 0.556017
898 2 0.340423 0.137979 0.554205
899 4 0.364744 0.132469 0.552393
1218 4 0.448339 0.0850499 0.550079
641 4 0.459865 0.0922913 0.534608
640 2 0.473001 0.0990706 0.514442
3159 4 0.500872 0.155153 0.543278
856 2 0.241048 0.197659 0.545538
857 4 0.227594 0.214473 0.532831
858 4 0.254502 0.180846 0.558246
873 4 0.390326 0.23402 0.516554
904 2 0.452711 0.246778 0.559397
906 4 0.428471 0.243335 0.56447
905 4 0.476951 0.25022 0.554325
982 2 0.0788807 0.316787 0.54084
983 4 0.0573968 0.308217 0.531343
696 4 0.137989 0.296113 0.495376
984 4 0.100365 0.325356 0.550337
1136 4 0.0964067 0.327604 0.570953
1258 2 0.170042 0.308378 0.506942
1259 4 0.187757 0.308787 0.524583
797 4 0.222709 0.256643 0.580727
651 4 0.240482 0.311947 0.514837
811 2 0.300611 0.31204 0.527401
1239 4 0.32023 0.331753 0.570874
812 4 0.28678 0.317348 0.507258
813 4 0.314441 0.306732 0.547543
954 4 0.418651 0.263008 0.565884
3065 4 0.497102 0.253893 0.548259
9 3 0.133641 0.349261 0.521624
1135 2 0.104622 0.350948 0.574524
895 2 0.143229 0.391387 0.571961
6 1 0.14324 0.363855 0.50635
8 3 0.164801 0.369248 0.513019
896 4 0.168038 0.390806 0.568899
1137 4 0.112837 0.374292 0.578094
897 4 0.118421 0.391968 0.575023
1189 2 0.204693 0.374538 0.551266
1190 4 0.228174 0.370353 0.543763
1191 4 0.181212 0.378724 0.558769
930 4 0.327063 0.388163 0.577009
928 2 0.344343 0.405434 0.57169
239 4 0.417336 0.391133 0.522667
238 2 0.409864 0.380022 0.501551
925 2 0.462913 0.386121 0.561948
926 4 0.465186 0.379553 0.53793
3309 4 0.480284 0.384391 0.527361
3307 2 0.491312 0.382463 0.505004
1001 4 0.425433 0.415774 0.574149
2243 4 0.1156 0.476657 0.548552
2242 2 0.115814 0.484483 0.524806
1160 4 0.125079 0.499615 0.584476
2244 4 0.116029 0.49231 0.50106
773 4 0.20487 0.444471 0.530111
772 2 0.20388 0.454683 0.507309
1173 4 0.256852 0.444016 0.560454
1171 2 0.281289 0.449277 0.559882
1172 4 0.305726 0.454538 0.559311
882 4 0.328281 0.493121 0.503195
891 4 0.318208 0.443125 0.569755
1187 4 0.250616 0.448469 0.580924
889 2 0.330861 0.456783 0.586444
929 4 0.361623 0.422705 0.56637
1002 4 0.397266 0.453826 0.558044
1000 2 0.411349 0.4348 0.566097
1910 4 0.396612 0.485481 0.551902
1332 4 0.471544 0.483892 0.511626
663 4 0.448013 0.426945 0.499299
943 2 0.078672 0.0371016 0.619795
945 4 0.0873102 0.0136468 0.619136
944 4 0.0700338 0.0605563 0.620454
1083 4 0.0588248 0.0731776 0.609769
1282 2 0.152262 0.0760078 0.633081
1284 4 0.154194 0.0530704 0.623318
951 4 0.246592 0.992258 0.601413
824 4 0.20151 0.00253357 0.652282
950 4 0.282171 0.0231619 0.584685
949 2 0.264382 0.00770988 0.593049
962 4 0.282858 0.0575475 0.588893
808 2 0.473158 0.0779775 0.612748
810 4 0.497937 0.0767964 0.609618
809 4 0.448379 0.0791586 0.615877
1082 4 0.056683 0.114487 0.63787
1081 2 0.0577539 0.0938322 0.623819
1076 4 0.0521924 0.112451 0.656162
1283 4 0.15033 0.0989453 0.642844
909 4 0.143456 0.115989 0.649562
1032 4 0.219517 0.121796 0.592603
45 3 0.448979 0.0903276 0.654434
877 2 0.0632917 0.191129 0.600802
878 4 0.0427562 0.184512 0.613438
1199 4 0.0305269 0.199524 0.61523
1198 2 0.010667 0.210266 0.604489
1209 4 0.0798129 0.242723 0.658954
879 4 0.0838273 0.197747 0.588165
1271 4 0.145442 0.189445 0.594236
1270 2 0.120625 0.186408 0.594522
1272 4 0.0958083 0.183371 0.594808
1221 4 0.163267 0.177846 0.590833
946 2 0.160448 0.249456 0.59528
1211 4 0.246937 0.179905 0.648173
1210 2 0.23097 0.187352 0.630431
1212 4 0.215003 0.1948 0.61269
1219 2 0.181765 0.191671 0.600418
1220 4 0.200263 0.205497 0.610003
796 2 0.218069 0.233614 0.58929
798 4 0.213429 0.210586 0.597854
947 4 0.183328 0.239774 0.592461
888 4 0.239985 0.181714 0.668194
791 4 0.313184 0.226493 0.596244
790 2 0.323463 0.249067 0.599394
1025 4 0.46531 0.178263 0.5917
1026 4 0.486675 0.223471 0.592385
1024 2 0.475993 0.200867 0.592043
1245 4 0.0651525 0.256585 0.661679
1243 2 0.0487357 0.268481 0.647045
1244 4 0.0323189 0.280376 0.632411
948 4 0.137568 0.259138 0.5981
1237 2 0.326153 0.310615 0.582845
792 4 0.333741 0.271642 0.602544
1238 4 0.332076 0.289478 0.594816
952 2 0.409643 0.274671 0.586084
953 4 0.400636 0.286333 0.606284
1041 4 0.101817 0.390822 0.584415
1039 2 0.0943971 0.406208 0.602675
1205 4 0.393896 0.387626 0.658946
927 4 0.460641 0.392688 0.585966
1161 4 0.1343 0.454446 0.603854
1040 4 0.0869777 0.421594 0.620934
1159 2 0.12969 0.47703 0.594165
991 2 0.0954245 0.442842 0.65722
993 4 0.096671 0.428336 0.636892
1186 2 0.243302 0.447684 0.604821
1188 4 0.235987 0.4469 0.628718
890 4 0.343514 0.470441 0.603133
1269 4 0.398184 0.474433 0.666168
1952 4 0.342062 0.485076 0.589126
4338 4 0.0289297 0.0180107 0.693941
823 2 0.195122 0.996357 0.675654
2398 2 0.311914 0.00142127 0.737836
2400 4 0.299257 0.0215932 0.730216
1092 4 0.370693 0.0316425 0.675252
1004 4 0.356951 0.0441754 0.674976
1003 2 0.362096 0.0653174 0.687293
1090 2 0.389576 0.0176922 0.666649
1005 4 0.367241 0.0864593 0.699611
43 3 0.434577 0.0633528 0.676402
1163 4 0.481881 0.0508492 0.679001
1162 2 0.494926 0.0457802 0.699721
42 3 0.471635 0.0653736 0.670462
41 1 0.45245 0.0777829 0.673121
2991 4 0.0163726 0.0864398 0.692852
862 2 0.030844 0.113684 0.734829
864 4 0.0284019 0.112967 0.709955
1075 2 0.042769 0.104126 0.677774
1077 4 0.0333456 0.0958013 0.699386
907 2 0.154906 0.12163 0.671062
908 4 0.166356 0.12727 0.692562
1227 4 0.181992 0.134045 0.703987
1225 2 0.191292 0.118896 0.721571
1226 4 0.200591 0.103747 0.739155
831 4 0.325407 0.149007 0.70416
44 3 0.454959 0.09161 0.691585
3426 4 0.495187 0.0944804 0.685699
852 4 0.0341911 0.230051 0.714574
851 4 0.0720912 0.206551 0.737203
850 2 0.0531412 0.218301 0.725888
1207 2 0.090174 0.242732 0.68171
1208 4 0.100535 0.242741 0.704466
1276 2 0.22702 0.239113 0.745276
1277 4 0.215936 0.217038 0.741403
829 2 0.305594 0.164252 0.703746
830 4 0.28578 0.179497 0.703331
886 2 0.256149 0.187145 0.686481
887 4 0.272313 0.192577 0.704768
976 2 0.281601 0.203288 0.740906
978 4 0.281893 0.188907 0.720454
1193 4 0.360414 0.230072 0.710686
1142 4 0.378885 0.19744 0.737322
1192 2 0.380114 0.222135 0.69749
1194 4 0.399813 0.214199 0.684294
3123 4 0.466571 0.252158 0.678967
1263 4 0.440555 0.225403 0.737774
3121 2 0.490034 0.244311 0.675344
1261 2 0.430125 0.243255 0.751836
1179 4 0.0244151 0.271846 0.713952
1177 2 0.0107789 0.260658 0.731673
821 4 0.148124 0.286664 0.734673
820 2 0.166358 0.284195 0.717743
1278 4 0.238103 0.261189 0.749149
822 4 0.184592 0.281726 0.700814
1063 2 0.262646 0.294071 0.743509
1064 4 0.276237 0.311652 0.732047
917 4 0.318734 0.269111 0.75078
1020 4 0.374644 0.326954 0.749442
893 4 0.054081 0.381315 0.679452
892 2 0.0489206 0.362438 0.695014
894 4 0.0437601 0.34356 0.710576
1280 4 0.0423516 0.396562 0.680197
1067 4 0.168064 0.399033 0.753336
940 2 0.130133 0.383025 0.753247
942 4 0.105293 0.383362 0.750411
941 4 0.154973 0.382687 0.756082
1028 4 0.200523 0.400505 0.70162
1027 2 0.223674 0.391594 0.704757
1029 4 0.246824 0.382683 0.707894
1066 2 0.179735 0.406975 0.732699
807 4 0.324492 0.403675 0.671316
1204 2 0.398156 0.407311 0.673763
806 4 0.350794 0.362888 0.683369
805 2 0.337643 0.383282 0.677343
1018 2 0.382217 0.350762 0.750464
1019 4 0.389789 0.374569 0.751487
1279 2 0.0350833 0.41644 0.693508
1281 4 0.027815 0.436319 0.706819
1983 4 0.0338983 0.446466 0.721756
1981 2 0.0487246 0.466296 0.725237
1982 4 0.0635509 0.486127 0.728719
992 4 0.094178 0.457347 0.677548
1068 4 0.191406 0.414918 0.712062
1175 4 0.216814 0.495165 0.719907
1139 4 0.275899 0.50018 0.710737
1138 2 0.290275 0.490159 0.692901
1140 4 0.30465 0.480138 0.675065
1987 2 0.34715 0.493383 0.738948
1206 4 0.402415 0.426996 0.688579
1230 4 0.387869 0.432014 0.701988
1228 2 0.378501 0.454745 0.706542
1229 4 0.369134 0.477476 0.711096
1989 4 0.35637 0.492628 0.715718
1267 2 0.421884 0.479255 0.672512
3330 4 0.488895 0.44793 0.723567
2168 4 0.45735 0.497961 0.681188
1268 4 0.445584 0.484077 0.678856
1100 4 0.463861 0.478379 0.680422
1099 2 0.468114 0.460154 0.697003
1101 4 0.472367 0.441929 0.713584
3328 2 0.501221 0.445452 0.74518
1294 2 0.0412706 0.0246212 0.790609
1295 4 0.0556808 0.0297944 0.770842
1296 4 0.0268604 0.0194479 0.810377
2049 4 0.11691 0.00917325 0.763158
1203 4 0.111199 0.0472131 0.806793
911 4 0.107996 0.053182 0.824666
1202 4 0.107759 0.0258041 0.761731
1196 4 0.118182 0.0357095 0.820239
1201 2 0.109479 0.0365086 0.784262
1147 2 0.22032 0.0846348 0.758821
1149 4 0.237032 0.0660364 0.758791
1257 4 0.307196 0.0466334 0.794486
1255 2 0.308285 0.0702057 0.786219
974 4 0.371975 0.00647573 0.781316
1113 4 0.40527 0.0641632 0.804248
973 2 0.383056 0.0274821 0.789135
975 4 0.394136 0.0484884 0.796954
1111 2 0.424643 0.059263 0.819277
844 2 0.479766 0.0622045 0.813632
846 4 0.461668 0.0485224 0.824141
1112 4 0.444016 0.0543627 0.834305
834 4 0.0150236 0.139464 0.815628