ITEM: TIMESTEP
1800000
ITEM: NUMBER OF ATOMS
4590
ITEM: BOX BOUNDS pp pp pp
-9.9985700000000008e+00 9.9985700000000008e+00
-9.9985700000000008e+00 9.9985700000000008e+00
-9.9985700000000008e+00 9.9985700000000008e+00
ITEM: ATOMS id type xs ys zs
463 2 0.0254379 0.034612 0.0384021
465 4 0.0352029 0.0534612 0.0516131
1667 4 0.0355627 0.0584766 0.0716509
701 4 0.0458156 0.0655736 0.0575125
590 4 0.0273077 0.0693931 0.0584055
700 2 0.0678544 0.0684891 0.0460682
464 4 0.0156729 0.0157628 0.025191
2184 4 0.067123 0.00756279 0.99726
994 2 0.145471 0.0326233 0.00948548
996 4 0.125551 0.0175117 0.00957124
995 4 0.165391 0.0477349 0.00939971
567 4 0.17633 0.053802 0.0237897
533 4 0.181605 0.0610224 0.00705221
1475 4 0.231361 0.0295444 0.0229547
492 4 0.307589 0.0215968 0.0158113
490 2 0.322996 0.0343521 0.0308153
2264 4 0.293586 0.00980359 0.00840584
491 4 0.338403 0.0471073 0.0458193
557 4 0.354022 0.0547631 0.0392345
296 4 0.356751 0.0448103 0.0546134
295 2 0.360547 0.0259306 0.0705611
556 2 0.377069 0.0638553 0.0358699
1607 4 0.392871 0.0211185 0.0247028
558 4 0.400117 0.0729475 0.0325054
589 2 0.0148875 0.0890767 0.0675418
591 4 0.00246726 0.10876 0.0766781
2760 4 0.992779 0.12481 0.0655321
702 4 0.0898932 0.0714046 0.034624
423 4 0.103571 0.0787964 0.0230915
421 2 0.109633 0.098251 0.0086018
565 2 0.17891 0.0766107 0.0337033
566 4 0.181491 0.0994195 0.0436169
745 2 0.436959 0.0762172 0.00807451
746 4 0.416083 0.0701496 0.0204264
827 4 0.450553 0.175702 0.0111723
770 4 0.461573 0.16536 0.0262648
554 4 0.0649737 0.195429 0.039469
553 2 0.0716345 0.210735 0.020853
555 4 0.0782952 0.22604 0.00223701
1055 4 0.0742964 0.241876 0.993006
836 4 0.0929173 0.238436 0.997007
835 2 0.117416 0.242207 0.00029203
665 4 0.338589 0.223951 0.0138187
664 2 0.335734 0.233581 0.0367163
666 4 0.33288 0.24321 0.0596139
771 4 0.451501 0.173522 0.0745623
769 2 0.456537 0.169441 0.0504135
1013 4 0.468991 0.174121 0.0113931
656 4 0.997568 0.257976 0.0715978
837 4 0.141914 0.245978 0.00357673
294 4 0.13693 0.267758 0.0294046
292 2 0.131984 0.29215 0.0317973
293 4 0.127039 0.316543 0.03419
288 4 0.129058 0.334416 0.0267931
507 4 0.144589 0.326443 0.0355655
357 4 0.240043 0.300899 0.00127862
355 2 0.226482 0.279989 0.999257
572 4 0.333738 0.262543 0.0598873
571 2 0.316233 0.26342 0.0777194
461 4 0.347101 0.251919 0.0697914
1071 4 0.371907 0.307367 0.0210277
1069 2 0.392801 0.297194 0.0302543
956 4 0.375756 0.321699 0.0062976
460 2 0.370211 0.251766 0.079334
955 2 0.35414 0.317856 0.994332
322 2 0.419954 0.262797 0.0648439
1070 4 0.413695 0.287021 0.0394809
323 4 0.429161 0.276974 0.0464207
280 2 0.472289 0.317404 0.0400219
282 4 0.482973 0.311665 0.0181567
281 4 0.461604 0.323143 0.0618871
671 4 0.452672 0.340795 0.0653452
315 4 0.0519608 0.408969 0.0335073
313 2 0.043734 0.413033 0.0567664
286 2 0.12321 0.351738 0.00973575
505 2 0.162807 0.335961 0.0498029
506 4 0.181024 0.34548 0.0640402
483 4 0.195392 0.335604 0.0722045
525 4 0.337717 0.39587 0.0584961
523 2 0.325027 0.412183 0.0725677
608 4 0.348567 0.380543 0.0659528
251 4 0.350762 0.385743 0.00564617
250 2 0.34301 0.381935 0.029111
252 4 0.335259 0.378127 0.0525759
314 4 0.0355071 0.417096 0.0800255
795 4 0.143638 0.498583 0.0102554
1440 4 0.233442 0.49 0.0800246
245 4 0.249873 0.495579 0.0693396
244 2 0.271516 0.50002 0.0576326
562 2 0.489022 0.486206 0.010848
37 3 0.421321 0.426237 0.00117376
1666 2 0.0404449 0.046442 0.093017
1806 4 0.0569317 0.0223438 0.12492
1421 4 0.044653 0.0351095 0.131464
1668 4 0.0453271 0.0344074 0.114383
1420 2 0.0344611 0.0460168 0.151522
1416 4 0.0410316 0.0170341 0.121361
1805 4 0.10648 0.0212496 0.118252
1804 2 0.081706 0.0217967 0.121586
1504 2 0.233661 0.084532 0.146119
1505 4 0.222909 0.0737234 0.165937
690 4 0.221384 0.00918686 0.160963
689 4 0.21893 0.058723 0.167356
688 2 0.220157 0.0339549 0.164159
652 2 0.309882 0.078471 0.124393
654 4 0.313971 0.0732633 0.148503
653 4 0.305792 0.0836788 0.100282
582 4 0.316497 0.0741394 0.168074
1506 4 0.244412 0.0953405 0.126301
297 4 0.364342 0.0070509 0.0865088
757 2 0.384478 0.0233779 0.151972
758 4 0.395184 0.0217569 0.129435
485 4 0.383528 0.00744987 0.0955732
1759 2 0.49099 0.00140748 0.143228
235 2 0.158124 0.116747 0.146162
236 4 0.161967 0.101757 0.165801
237 4 0.154281 0.131737 0.126522
737 4 0.153592 0.151748 0.123272
736 2 0.173379 0.162655 0.112563
285 4 0.279321 0.148492 0.147505
476 4 0.0914231 0.173001 0.167658
475 2 0.0908552 0.196585 0.159373
738 4 0.193166 0.173563 0.101855
283 2 0.285295 0.169361 0.135096
354 4 0.277229 0.203098 0.116385
352 2 0.285879 0.225922 0.110963
284 4 0.291269 0.19023 0.122688
254 4 0.412274 0.209428 0.124336
253 2 0.409381 0.231673 0.113291
462 4 0.393322 0.251613 0.0888766
255 4 0.406489 0.253917 0.102246
630 4 0.418118 0.20282 0.107789
629 4 0.445934 0.164271 0.0922664
628 2 0.432026 0.183545 0.100028
703 2 0.0128094 0.322025 0.170716
361 2 0.159367 0.273896 0.170928
481 2 0.19679 0.331782 0.0968747
535 2 0.199037 0.290302 0.13429
536 4 0.202755 0.309466 0.118666
482 4 0.198189 0.32796 0.121545
362 4 0.181328 0.281194 0.16146
537 4 0.195318 0.271139 0.149914
353 4 0.29453 0.248747 0.105541
573 4 0.298728 0.264297 0.0955515
754 2 0.290238 0.283068 0.127792
755 4 0.285723 0.267109 0.109081
756 4 0.294754 0.299027 0.146503
610 2 0.303004 0.331189 0.159639
612 4 0.287195 0.31182 0.1593
622 2 0.354074 0.309857 0.116327
624 4 0.353613 0.28493 0.118231
765 4 0.352837 0.279595 0.138212
324 4 0.410747 0.24862 0.083267
763 2 0.357673 0.278131 0.1627
623 4 0.354535 0.334784 0.114424
2652 4 0.492414 0.324507 0.107539
528 4 0.495281 0.3253 0.127886
670 2 0.441501 0.345698 0.0871703
705 4 0.0189208 0.344088 0.160664
648 4 0.0147347 0.359502 0.171645
620 4 0.00755484 0.357668 0.152872
619 2 0.00257133 0.364171 0.129248
455 4 0.133323 0.409226 0.132628
454 2 0.123056 0.404484 0.154928
626 4 0.240158 0.390244 0.133351
627 4 0.273763 0.424697 0.119772
625 2 0.256961 0.40747 0.126561
387 4 0.33355 0.362143 0.163133
611 4 0.318812 0.350558 0.159977
385 2 0.347009 0.357914 0.142489
607 2 0.353743 0.364998 0.0848407
609 4 0.358919 0.349454 0.103729
740 4 0.371609 0.342858 0.118162
386 4 0.360468 0.353685 0.121846
739 2 0.396151 0.34716 0.120249
741 4 0.420693 0.351462 0.122336
13 3 0.429117 0.371645 0.1563
672 4 0.430329 0.350601 0.108996
15 3 0.4399 0.395303 0.129065
11 1 0.443793 0.375011 0.138645
526 2 0.488886 0.346206 0.140019
12 3 0.440503 0.358485 0.122986
14 3 0.465694 0.373907 0.146228
495 4 0.484988 0.381658 0.147233
493 2 0.49016 0.401869 0.133451
527 4 0.48249 0.367111 0.152153
597 4 0.499154 0.375939 0.159023
645 4 0.479131 0.379346 0.161119
1788 4 0.0249514 0.46846 0.122051
1787 4 0.0318127 0.436107 0.0845423
1786 2 0.028382 0.452284 0.103297
1466 4 0.0118746 0.473816 0.135553
1791 4 0.0199201 0.487762 0.124998
1465 2 0.00617341 0.476553 0.159743
524 4 0.312337 0.428497 0.0866393
637 2 0.268682 0.482827 0.150595
639 4 0.267715 0.501316 0.13379
494 4 0.495332 0.42208 0.119669
1422 4 0.0242692 0.0569241 0.171581
1799 4 0.0369678 0.99647 0.236452
2480 4 0.00985082 0.0604251 0.178139
19 3 0.0206806 0.0501814 0.191124
20 3 0.0549555 0.0419378 0.20435
16 1 0.0384206 0.0575963 0.204113
18 3 0.031181 0.0617937 0.225755
675 4 0.0737284 0.0345562 0.210498
17 3 0.0465964 0.0771127 0.19509
673 2 0.0952212 0.0283861 0.221686
450 4 0.114841 0.0603371 0.193958
448 2 0.131155 0.0764582 0.184001
674 4 0.116714 0.0222159 0.232874
28 3 0.218629 0.0703823 0.185395
692 4 0.209212 0.0718859 0.169352
26 1 0.235098 0.0703938 0.201742
29 3 0.232318 0.0886639 0.215773
27 3 0.233253 0.0511245 0.214169
691 2 0.186703 0.0805672 0.175924
311 4 0.322734 0.0588001 0.157445
580 2 0.293431 0.078289 0.176787
759 4 0.373773 0.0249989 0.174509
310 2 0.340555 0.0469249 0.170351
22 3 0.383411 0.0520276 0.216893
312 4 0.358377 0.0350497 0.183256
25 3 0.37493 0.0295178 0.188358
21 1 0.387922 0.031794 0.206923
24 3 0.383233 0.0147914 0.222001
23 3 0.410352 0.0311785 0.201014
1496 4 0.375314 0.00743812 0.239369
744 4 0.413857 0.0436048 0.217635
742 2 0.435705 0.0518742 0.226551
743 4 0.457552 0.0601436 0.235466
511 2 0.019465 0.137276 0.225426
513 4 0.043824 0.138875 0.230835
578 4 0.0640123 0.139343 0.233574
449 4 0.147469 0.0925792 0.174044
723 4 0.159791 0.10561 0.184456
721 2 0.156257 0.125147 0.199655
722 4 0.152723 0.144684 0.214853
693 4 0.164195 0.0892485 0.182496
546 4 0.154903 0.163665 0.223306
544 2 0.166219 0.154709 0.243725
30 3 0.255685 0.0711148 0.19203
581 4 0.270365 0.0824387 0.185499
351 4 0.45974 0.0771354 0.247927
477 4 0.0902873 0.220169 0.151089
339 4 0.100887 0.222814 0.167197
337 2 0.108823 0.245683 0.173461
333 4 0.451135 0.173629 0.235428
331 2 0.465572 0.183343 0.253384
395 4 0.0387164 0.268471 0.230961
749 4 0.048629 0.264866 0.2136
748 2 0.0666409 0.281925 0.21672
394 2 0.0213981 0.267543 0.248972
704 4 0.00669806 0.299962 0.180768
363 4 0.137405 0.266599 0.180395
338 4 0.116758 0.268551 0.179724
750 4 0.0846528 0.298984 0.21984
300 4 0.140395 0.30382 0.236287
372 4 0.196184 0.271769 0.169052
370 2 0.215219 0.267156 0.184595
371 4 0.234253 0.262543 0.200138
279 4 0.249134 0.272347 0.191773
278 4 0.283166 0.292419 0.16112
277 2 0.26615 0.282383 0.176447
344 4 0.281984 0.300346 0.215117
343 2 0.301879 0.293645 0.228699
345 4 0.321774 0.286944 0.24228
308 4 0.341043 0.285005 0.240331
307 2 0.355345 0.275441 0.222189
764 4 0.362508 0.276667 0.187188
309 4 0.369647 0.265877 0.204046
613 2 0.394662 0.330907 0.249629
2692 2 0.0103742 0.391609 0.239177
2694 4 0.0192042 0.400503 0.217542
647 4 0.0155066 0.40155 0.198703
646 2 0.0151206 0.380526 0.185174
456 4 0.112788 0.399742 0.177227
302 4 0.321193 0.36093 0.177207
301 2 0.314832 0.371015 0.199184
303 4 0.308471 0.3811 0.221162
727 2 0.298515 0.394095 0.249588
729 4 0.298282 0.397705 0.224847
614 4 0.390279 0.344834 0.229331
446 4 0.396606 0.348766 0.210991
445 2 0.420949 0.352941 0.207099
447 4 0.445292 0.357117 0.203208
643 2 0.469987 0.374947 0.183971
644 4 0.460842 0.370548 0.206823
603 4 0.0199903 0.417723 0.20813
262 2 0.0749224 0.482787 0.233257
263 4 0.057722 0.464827 0.235855
601 2 0.0304497 0.438145 0.218064
602 4 0.0409091 0.458568 0.227998
1467 4 0.000472256 0.479291 0.183934
415 2 0.156986 0.481414 0.198673
416 4 0.166253 0.464248 0.214314
417 4 0.147719 0.498579 0.183032
413 4 0.167834 0.457532 0.234348
290 4 0.208804 0.416686 0.202162
289 2 0.192845 0.433756 0.211056
291 4 0.176886 0.450826 0.21995
768 4 0.223835 0.425896 0.191183
766 2 0.245452 0.436451 0.184367
638 4 0.269649 0.464339 0.167401
767 4 0.26707 0.447006 0.177552
660 4 0.351436 0.472253 0.198251
658 2 0.367724 0.459892 0.212642
659 4 0.384012 0.447531 0.227033
1404 4 0.0340324 0.00895844 0.252297
232 2 0.0224817 0.057805 0.323222
233 4 0.0233998 0.0575454 0.298236
1402 2 0.0311071 0.0289357 0.267046
1403 4 0.0281818 0.0489129 0.281795
316 2 0.0521642 0.0823891 0.284032
317 4 0.0314575 0.0683956 0.284801
530 4 0.0137746 0.0610123 0.286017
1700 4 0.172632 0.018554 0.313346
1699 2 0.180003 0.003202 0.295039
479 4 0.437442 0.0692545 0.329887
1749 4 0.472214 0.0198604 0.302409
480 4 0.468214 0.0322007 0.31644
478 2 0.452828 0.0507276 0.323164
318 4 0.0728709 0.0963826 0.283263
577 2 0.0711297 0.124691 0.252544
397 2 0.0697434 0.132135 0.307681
579 4 0.0782472 0.11004 0.271514
398 4 0.0730566 0.11256 0.292482
399 4 0.0664302 0.151711 0.322879
731 4 0.0894854 0.106596 0.286116
732 4 0.136852 0.0905897 0.287078
600 4 0.155189 0.0899336 0.279383
730 2 0.113169 0.0985926 0.286597
598 2 0.166297 0.112334 0.27954
599 4 0.177406 0.134733 0.279696
545 4 0.177534 0.145754 0.264144
392 4 0.182082 0.15228 0.283702
247 2 0.30679 0.107066 0.292078
249 4 0.300919 0.122176 0.311115
404 4 0.296008 0.141396 0.319711
683 4 0.292302 0.125008 0.327616
248 4 0.312661 0.0919568 0.27304
633 4 0.402172 0.151581 0.276203
707 4 0.399884 0.151541 0.294335
706 2 0.379523 0.15928 0.306612
631 2 0.423896 0.140987 0.282605
632 4 0.445621 0.130392 0.289007
349 2 0.453949 0.0956185 0.263739
350 4 0.448158 0.114102 0.279551
452 4 0.456883 0.118635 0.298296
451 2 0.46195 0.125395 0.321829
444 4 0.015301 0.230892 0.312533
442 2 0.00883244 0.250858 0.298943
2655 4 0.00898286 0.235217 0.330873
393 4 0.188678 0.19944 0.298971
391 2 0.18538 0.17586 0.291336
708 4 0.359161 0.167019 0.318888
332 4 0.480008 0.193056 0.27134
521 4 0.493207 0.179541 0.2753
762 4 0.475626 0.179786 0.28509
760 2 0.468954 0.19183 0.305962
761 4 0.462283 0.203874 0.326833
419 4 0.45871 0.221833 0.320939
396 4 0.00407971 0.266615 0.266983
298 2 0.135691 0.31444 0.25843
733 2 0.138511 0.304687 0.320412
734 4 0.130121 0.313639 0.298626
299 4 0.130986 0.325059 0.280572
400 2 0.222095 0.299498 0.305536
401 4 0.204133 0.30893 0.290922
402 4 0.240058 0.290067 0.32015
498 4 0.314503 0.264554 0.299696
377 4 0.296961 0.275449 0.301961
496 2 0.323196 0.269343 0.276746
497 4 0.33189 0.274131 0.253797
376 2 0.277054 0.286664 0.312114
378 4 0.257146 0.297879 0.322267
615 4 0.399045 0.31698 0.269927
543 4 0.400018 0.327945 0.286556
2537 4 0.487486 0.316415 0.262258
541 2 0.422155 0.325707 0.297963
542 4 0.444293 0.323469 0.309369
2536 2 0.475614 0.321456 0.283678
2538 4 0.463742 0.326497 0.305099
2924 4 0.457412 0.32643 0.322996
366 4 0.99673 0.344527 0.283686
364 2 0.000620798 0.348384 0.308082
728 4 0.298748 0.390484 0.274328
434 4 0.294211 0.393906 0.294806
433 2 0.315667 0.388731 0.306554
435 4 0.337124 0.383557 0.318302
2923 2 0.458386 0.348272 0.335127
2463 4 0.0214449 0.46889 0.320047
412 2 0.151277 0.45338 0.252618
777 4 0.121449 0.452585 0.284991
775 2 0.112362 0.455107 0.308148
414 4 0.134719 0.449229 0.270888
776 4 0.103274 0.457628 0.331304
436 2 0.326553 0.487709 0.280873
1574 4 0.282907 0.500323 0.262299
438 4 0.315194 0.497205 0.301022
3 3 0.316604 0.492862 0.321735
4 3 0.354041 0.486586 0.323595
713 4 0.401281 0.459204 0.301136
712 2 0.424677 0.465939 0.295443
714 4 0.448074 0.472675 0.289751
234 4 0.0215636 0.0580646 0.348207
1780 2 0.100712 0.011999 0.368291
1781 4 0.114317 0.0299727 0.37911
368 4 0.104403 0.0258455 0.396335
367 2 0.0968328 0.0449238 0.410614
321 4 0.20457 0.0697953 0.381376
441 4 0.262012 0.0129814 0.374189
698 4 0.361541 0.999878 0.369852
257 4 0.36168 0.0197281 0.376362
256 2 0.376962 0.0345131 0.389517
2643 4 0.500963 0.0234874 0.333813
459 4 0.0111663 0.129398 0.371732
457 2 0.0201617 0.151917 0.377829
687 4 0.157231 0.16591 0.370938
319 2 0.224549 0.0785035 0.369122
320 4 0.244528 0.0872116 0.356868
682 2 0.276934 0.109419 0.339697
684 4 0.261566 0.0938289 0.351778
403 2 0.297668 0.162257 0.333395
575 4 0.41816 0.132213 0.404884
453 4 0.467018 0.132155 0.345362
514 2 0.447856 0.131841 0.37735
515 4 0.465807 0.141786 0.363066
516 4 0.429906 0.121896 0.391634
458 4 0.0291571 0.174435 0.383926
2653 2 0.00545025 0.243839 0.354075
2654 4 0.00191764 0.252462 0.377278
390 4 0.00287767 0.245973 0.395402
388 2 0.0256628 0.243637 0.40543
389 4 0.0484479 0.241301 0.415458
685 2 0.164513 0.187888 0.380379
686 4 0.171796 0.209866 0.389819
275 4 0.236745 0.247499 0.367182
405 4 0.299328 0.183118 0.347079
474 4 0.291714 0.196107 0.360125
472 2 0.283117 0.202397 0.382746
473 4 0.27452 0.208687 0.405367
420 4 0.435586 0.248208 0.356581
418 2 0.447148 0.235021 0.33876
269 4 0.427236 0.256168 0.373252
268 2 0.431113 0.240444 0.392302
346 2 0.0534019 0.329303 0.401146
735 4 0.146902 0.295735 0.342199
677 4 0.158873 0.309802 0.353544
276 4 0.247814 0.282797 0.333534
510 4 0.24557 0.301221 0.336879
676 2 0.174276 0.30444 0.372495
678 4 0.18968 0.299079 0.391447
274 2 0.242279 0.265148 0.350358
375 4 0.203853 0.286827 0.391518
373 2 0.21113 0.281944 0.414936
508 2 0.250056 0.321065 0.351415
717 4 0.416334 0.247226 0.360261
716 4 0.394733 0.288435 0.341932
715 2 0.405534 0.26783 0.351097
616 2 0.0373756 0.356821 0.34997
617 4 0.0183804 0.366645 0.337014
618 4 0.0563709 0.346998 0.362926
326 4 0.0622277 0.361692 0.372785
347 4 0.0564879 0.346484 0.383244
325 2 0.0813123 0.377004 0.377932
327 4 0.100397 0.392316 0.38308
408 4 0.107668 0.404845 0.370677
509 4 0.254542 0.340909 0.36595
503 4 0.261635 0.346454 0.383602
502 2 0.266135 0.335734 0.405738
753 4 0.399253 0.391336 0.349379
587 4 0.37916 0.385517 0.35224
586 2 0.3723 0.405295 0.365913
588 4 0.365439 0.425073 0.379587
751 2 0.422968 0.385485 0.354724
561 4 0.457211 0.365278 0.365432
752 4 0.446683 0.379634 0.360068
559 2 0.461202 0.360503 0.389649
2925 4 0.45936 0.370114 0.347257
560 4 0.465193 0.355728 0.413865
1381 2 0.029896 0.50275 0.382536
549 4 0.0384902 0.473092 0.329786
547 2 0.0619798 0.465588 0.333921
2461 2 0.00570558 0.468902 0.339475
1383 4 0.0211298 0.490461 0.402469
548 4 0.0854694 0.458083 0.338057
500 4 0.102289 0.461397 0.349967
406 2 0.101243 0.424892 0.357185
407 4 0.0948174 0.444939 0.343694
499 2 0.117703 0.479906 0.356678
5 3 0.330764 0.470095 0.34817
669 4 0.32858 0.464133 0.367839
1 1 0.33453 0.48893 0.335933
2 3 0.33683 0.506867 0.350149
667 2 0.340686 0.446565 0.380875
668 4 0.352793 0.428996 0.393911
718 2 0.0642642 0.0735267 0.451409
720 4 0.0459324 0.067493 0.467306
2236 2 0.0213149 0.036574 0.466187
2237 4 0.0427141 0.048718 0.470634
719 4 0.0825961 0.0795603 0.435512
1127 4 0.0577369 0.0569057 0.479786
369 4 0.0892627 0.064002 0.424893
605 4 0.236849 0.0333537 0.456968
604 2 0.248194 0.0307578 0.479098
606 4 0.25954 0.0281619 0.501227
426 4 0.396281 0.0454242 0.421278
258 4 0.392244 0.0492981 0.402671
424 2 0.400622 0.034141 0.443165
425 4 0.404964 0.0228578 0.465051
259 2 0.0484121 0.135808 0.495093
260 4 0.0277606 0.131973 0.481529
466 2 0.323913 0.162284 0.471103
467 4 0.307131 0.171071 0.454782
468 4 0.340694 0.153497 0.487423
574 2 0.414547 0.113728 0.421329
576 4 0.410933 0.0952435 0.437774
725 4 0.334083 0.135301 0.491785
2878 2 0.493902 0.119045 0.470779
642 4 0.489277 0.094429 0.503464
2880 4 0.487738 0.112939 0.494229
695 4 0.143833 0.238948 0.448797
489 4 0.279556 0.223204 0.416781
411 4 0.287887 0.166756 0.450731
409 2 0.280617 0.187172 0.43826
410 4 0.273348 0.207587 0.425789
487 2 0.289246 0.242498 0.429392
872 4 0.334575 0.243217 0.494925
270 4 0.43499 0.22472 0.411352
3157 2 0.485825 0.191639 0.4927
3159 4 0.468036 0.191054 0.475139
305 4 0.459954 0.192644 0.456574
306 4 0.43016 0.223265 0.430586
304 2 0.445057 0.207954 0.44358
348 4 0.0503159 0.312122 0.419047
694 2 0.145524 0.259546 0.462871
696 4 0.147215 0.280143 0.476944
10 3 0.139503 0.293487 0.488209
1260 4 0.156295 0.28442 0.491475
6 1 0.130797 0.311238 0.476905
7 3 0.113712 0.303941 0.463341
9 3 0.122346 0.326799 0.4919
8 3 0.147184 0.321034 0.463717
983 4 0.102719 0.324525 0.497776
374 4 0.218407 0.277061 0.438353
711 4 0.167585 0.320517 0.458916
709 2 0.187319 0.32884 0.471818
504 4 0.270635 0.325014 0.427874
266 4 0.309484 0.278634 0.439777
265 2 0.294052 0.298091 0.442688
267 4 0.278621 0.317548 0.445599
488 4 0.298935 0.261793 0.442002
871 2 0.355892 0.255335 0.490037
873 4 0.37721 0.267453 0.48515
2456 4 0.485659 0.280192 0.437967
583 2 0.45301 0.284618 0.460638
584 4 0.470826 0.272091 0.448356
585 4 0.435195 0.297145 0.472921
570 4 0.117852 0.393703 0.427129
568 2 0.101489 0.40639 0.441144
804 4 0.222743 0.398463 0.498303
710 4 0.207053 0.337164 0.484721
803 4 0.218936 0.352882 0.478089
802 2 0.220839 0.375673 0.488196
650 4 0.223068 0.342983 0.493431
240 4 0.398271 0.378853 0.483167
334 2 0.367572 0.402614 0.496833
335 4 0.381688 0.388341 0.481926
3308 4 0.494059 0.365415 0.479904
2508 4 0.501551 0.366921 0.46112
2507 4 0.47567 0.371525 0.418579
2506 2 0.48861 0.369223 0.43985
3307 2 0.476571 0.374426 0.495336
238 2 0.419968 0.383939 0.494506
680 4 0.017248 0.49318 0.420868
679 2 0.0192703 0.471109 0.432443
681 4 0.0212926 0.449038 0.444017
383 4 0.0212184 0.430703 0.452586
382 2 0.0458176 0.430286 0.457045
384 4 0.0704168 0.429869 0.461504
539 4 0.0859234 0.424748 0.47255
538 2 0.102158 0.436469 0.487524
569 4 0.0851257 0.419078 0.45516
1555 2 0.245959 0.492219 0.435717
636 4 0.214355 0.493881 0.456091
635 4 0.19215 0.484789 0.499966
1557 4 0.228495 0.48202 0.45042
634 2 0.203253 0.489335 0.478028
1453 2 0.298823 0.496995 0.490116
882 4 0.322496 0.466734 0.475594
1454 4 0.311565 0.48333 0.4735
880 2 0.336619 0.449817 0.487405
881 4 0.350743 0.4329 0.499217
1126 2 0.0585645 0.0561279 0.504763
1128 4 0.0593921 0.0553502 0.529741
939 4 0.0738054 0.0631202 0.541789
945 4 0.0397644 0.0268355 0.588981
1057 2 0.141549 0.0597904 0.581493
1059 4 0.131652 0.0786051 0.568331
937 2 0.0976268 0.0657363 0.548922
938 4 0.121448 0.0683524 0.556055
1524 4 0.117404 0.00338062 0.514355
341 4 0.209728 0.0220134 0.531296
340 2 0.217906 0.0456088 0.532542
342 4 0.226085 0.0692041 0.533788
2430 4 0.21023 0.0117892 0.54785
1182 4 0.239334 0.0852574 0.532162
961 2 0.300774 0.0432466 0.577746
963 4 0.291373 0.0608571 0.562691
432 4 0.303338 0.0717338 0.550264
430 2 0.322969 0.0720874 0.534782
1181 4 0.28431 0.0731762 0.55038
1180 2 0.261822 0.0792168 0.541271
842 4 0.390206 0.0420059 0.522988
841 2 0.372934 0.0578793 0.514333
1217 4 0.404325 0.0429043 0.535874
1581 4 0.399226 0.0254788 0.526026
89 3 0.402956 0.00460749 0.566153
843 4 0.355663 0.0737528 0.505677
431 4 0.3426 0.072441 0.519301
87 3 0.374777 0.0032055 0.590985
1579 2 0.396946 0.0066138 0.509776
1216 2 0.426782 0.0525801 0.530654
1218 4 0.449239 0.0622559 0.525433
641 4 0.443039 0.0783519 0.513678
640 2 0.466158 0.0863904 0.508571
1060 2 0.505938 0.011418 0.521732
261 4 0.0690636 0.139643 0.508657
1155 4 0.12976 0.0835643 0.548192
1035 4 0.0773479 0.153052 0.520427
1153 2 0.150659 0.0957455 0.541866
1154 4 0.171558 0.107927 0.535539
1152 4 0.223715 0.0837389 0.521544
1151 4 0.186346 0.116923 0.523299
1150 2 0.205031 0.100331 0.522422
898 2 0.354883 0.146373 0.574842
899 4 0.342596 0.1311 0.55932
726 4 0.345719 0.0897596 0.508853
724 2 0.339901 0.11253 0.500319
1033 2 0.082006 0.166452 0.541017
1034 4 0.0866641 0.179851 0.561606
2916 4 0.988396 0.236934 0.492377
858 4 0.224443 0.171603 0.538036
857 4 0.243031 0.216868 0.548345
856 2 0.233737 0.194236 0.543191
3065 4 0.474126 0.22511 0.562634
3064 2 0.486627 0.214959 0.543507
905 4 0.458603 0.234824 0.57109
904 2 0.436453 0.245958 0.567842
3158 4 0.503614 0.192224 0.510262
3066 4 0.499128 0.204808 0.524379
471 4 0.995208 0.254251 0.501022
1258 2 0.168605 0.284337 0.513238
948 4 0.220059 0.290432 0.599362
1259 4 0.180915 0.284253 0.535001
649 2 0.236505 0.326274 0.506293
651 4 0.249942 0.309565 0.519156
811 2 0.288863 0.325674 0.530949
1239 4 0.316113 0.322031 0.556962
812 4 0.266311 0.319791 0.521894
813 4 0.311415 0.331558 0.540003
1237 2 0.331986 0.308159 0.570408
1238 4 0.347859 0.294287 0.583854
952 2 0.389604 0.281387 0.581972
954 4 0.412206 0.270734 0.581047
906 4 0.414302 0.257092 0.564593
1136 4 0.0730935 0.367703 0.535641
1135 2 0.0809686 0.375662 0.557998
984 4 0.0848136 0.366114 0.519001
935 4 0.00318857 0.398014 0.516894
1137 4 0.0888437 0.38362 0.580355
982 2 0.0937664 0.34532 0.508388
896 4 0.144784 0.416485 0.572046
895 2 0.125449 0.402346 0.579217
1191 4 0.155292 0.406869 0.557581
1189 2 0.165886 0.388805 0.543919
1190 4 0.176481 0.370741 0.530258
336 4 0.353455 0.416887 0.511739
925 2 0.438965 0.379758 0.545039
926 4 0.446081 0.391445 0.524112
3309 4 0.459083 0.383437 0.510768
927 4 0.43185 0.36807 0.565967
239 4 0.441664 0.389024 0.505845
663 4 0.455412 0.401571 0.514278
1001 4 0.420285 0.371056 0.580574
2243 4 0.147674 0.421773 0.554185
2242 2 0.139698 0.43649 0.535612
1161 4 0.162098 0.422136 0.566722
2244 4 0.131722 0.451208 0.517039
540 4 0.118394 0.44819 0.502498
1159 2 0.182926 0.426689 0.579784
772 2 0.188016 0.490153 0.528996
774 4 0.174946 0.48835 0.507757
1171 2 0.306183 0.446607 0.575066
1173 4 0.282754 0.448399 0.583614
1172 4 0.329612 0.444816 0.566518
2153 4 0.273781 0.498 0.516992
929 4 0.346432 0.438062 0.561412
891 4 0.343971 0.456275 0.569714
889 2 0.358022 0.476221 0.575186
1331 4 0.38733 0.466067 0.518413
1330 2 0.412229 0.464767 0.516536
928 2 0.355938 0.418389 0.573568
661 2 0.45413 0.426456 0.516346
662 4 0.452847 0.451341 0.518415
1910 4 0.434006 0.493669 0.59806
1332 4 0.437128 0.463468 0.514658
943 2 0.0230921 0.0451682 0.592317
944 4 0.00641987 0.063501 0.595652
2319 4 0.0448321 0.0107465 0.599966
1083 4 0.0136129 0.0798334 0.606179
1058 4 0.151445 0.0409757 0.594655
962 4 0.310175 0.025636 0.592802
950 4 0.298327 0.010658 0.598843
2196 4 0.316976 0.0103971 0.602704
1005 4 0.314796 0.0450121 0.65465
2194 2 0.341601 0.0144634 0.601197
2195 4 0.366226 0.0185297 0.59969
1090 2 0.39951 0.0320564 0.641935
1092 4 0.377657 0.0392978 0.651692
1004 4 0.363998 0.0498026 0.662198
1003 2 0.339397 0.0474073 0.658424
1091 4 0.421363 0.0248149 0.632179
2283 4 0.426262 0.00630384 0.639416
43 3 0.480285 0.0727083 0.659363
44 3 0.446506 0.0688572 0.676349
1081 2 0.00659246 0.0966554 0.623294
879 4 0.068284 0.181057 0.618978
1272 4 0.0863447 0.171751 0.61385
1221 4 0.137412 0.156803 0.614994
1271 4 0.124821 0.139852 0.612187
1270 2 0.105583 0.155802 0.613018
909 4 0.163597 0.116336 0.655384
1283 4 0.18337 0.110905 0.653185
1031 4 0.243157 0.0963755 0.633547
1284 4 0.229378 0.111818 0.63361
1282 2 0.206374 0.111362 0.643398
1030 2 0.263476 0.0996455 0.619347
1032 4 0.283795 0.102915 0.605148
45 3 0.458522 0.102828 0.66543
809 4 0.470409 0.111703 0.652849
810 4 0.462128 0.147051 0.61846
808 2 0.466268 0.129377 0.635654
878 4 0.0217444 0.173268 0.602422
877 2 0.0450142 0.177163 0.6107
1219 2 0.159128 0.169149 0.616081
1211 4 0.227144 0.16589 0.650142
1210 2 0.207768 0.179075 0.641431
1212 4 0.188392 0.192261 0.63272
1220 4 0.180844 0.181495 0.617169
796 2 0.183156 0.224778 0.622156
798 4 0.179003 0.200409 0.618404
888 4 0.229184 0.165182 0.67014
900 4 0.367171 0.161646 0.590364
791 4 0.332457 0.239187 0.612045
1025 4 0.462187 0.217629 0.646233
1024 2 0.487074 0.217049 0.643891
1243 2 0.0228271 0.289069 0.656616
1244 4 0.0132202 0.296474 0.634751
3044 4 0.00976265 0.293552 0.615512
797 4 0.187309 0.249147 0.625909
947 4 0.181703 0.259936 0.60934
946 2 0.200881 0.275184 0.604351
953 4 0.367002 0.29204 0.582898
792 4 0.355403 0.279696 0.59379
790 2 0.34393 0.259441 0.602917
1039 2 0.0819798 0.382502 0.617776
1040 4 0.0676703 0.388086 0.637505
993 4 0.0724561 0.389726 0.656074
897 4 0.106115 0.388207 0.586389
1041 4 0.0962893 0.376918 0.598047
807 4 0.350072 0.396203 0.646204
1000 2 0.401606 0.386629 0.586383
1002 4 0.382926 0.402202 0.592191
930 4 0.365445 0.398716 0.585724
805 2 0.361854 0.39301 0.624383
806 4 0.373635 0.389817 0.602561
1160 4 0.203754 0.431242 0.592846
1187 4 0.278514 0.438542 0.601085
1188 4 0.254344 0.448721 0.643663
1186 2 0.266429 0.443631 0.622374
1140 4 0.266158 0.439228 0.65665
1909 2 0.409494 0.498014 0.595722
1269 4 0.413717 0.437312 0.614007
890 4 0.372073 0.496166 0.580658
1911 4 0.384982 0.50236 0.593384
1267 2 0.427341 0.445303 0.633391
2168 4 0.440535 0.461521 0.670219
1268 4 0.440966 0.453293 0.652774
1100 4 0.451591 0.445297 0.665664
41 1 0.464994 0.0826292 0.673722
2321 4 0.491795 0.0185887 0.741559
42 3 0.474956 0.0856968 0.694228
1162 2 0.486886 0.0557088 0.718692
1163 4 0.483721 0.0778296 0.707474
1164 4 0.490051 0.033588 0.729909
862 2 0.015571 0.121527 0.74592
864 4 0.00469103 0.115985 0.7241
908 4 0.16277 0.0898172 0.697773
907 2 0.163184 0.103077 0.676579
1227 4 0.157553 0.0902302 0.719024
34 3 0.144318 0.162235 0.760942
1225 2 0.1707 0.0844921 0.739504
831 4 0.286773 0.141034 0.738895
1299 4 0.288057 0.128344 0.72394
1297 2 0.304582 0.113791 0.712095
1298 4 0.321108 0.0992377 0.700251
829 2 0.276726 0.161355 0.728344
839 4 0.280705 0.121943 0.740348
3426 4 0.489231 0.0951162 0.69568
852 4 0.031029 0.221627 0.720584
850 2 0.0474175 0.20437 0.728251
1208 4 0.0414995 0.224834 0.703472
1207 2 0.0406428 0.244386 0.68791
851 4 0.063806 0.187113 0.735919
1107 4 0.0738138 0.170795 0.735056
1072 2 0.129369 0.230753 0.742873
35 3 0.134414 0.19802 0.754696
1073 4 0.119767 0.207732 0.741124
1105 2 0.0963535 0.180333 0.740172
1106 4 0.118893 0.18987 0.745289
1130 4 0.180328 0.19736 0.7361
886 2 0.244717 0.176788 0.685926
33 3 0.170165 0.187533 0.749263
887 4 0.26025 0.188395 0.701712
830 4 0.26668 0.181676 0.717794
976 2 0.264949 0.215998 0.718979
978 4 0.251262 0.195146 0.717233
977 4 0.278636 0.23685 0.720725
918 4 0.279494 0.242701 0.739593
1192 2 0.399 0.185432 0.741074
1194 4 0.419397 0.174844 0.731224
1209 4 0.0397861 0.263937 0.672348
1245 4 0.032434 0.281665 0.67848
1179 4 0.0462298 0.276368 0.748183
814 2 0.0673468 0.313261 0.745416
1177 2 0.02783 0.259848 0.744481
815 4 0.0804601 0.332739 0.736825
1074 4 0.13897 0.253773 0.744622
820 2 0.168035 0.303279 0.699464
821 4 0.158886 0.321177 0.714335
941 4 0.148792 0.332786 0.727503
940 2 0.123889 0.333243 0.7297
1067 4 0.165344 0.338868 0.719822
942 4 0.0989866 0.333701 0.731896
822 4 0.177185 0.285381 0.684593
991 2 0.0658412 0.411267 0.666909
3275 4 0.0121149 0.342687 0.722751
893 4 0.0617027 0.378087 0.701957
1280 4 0.0570432 0.386508 0.719168
892 2 0.0741584 0.35796 0.710014
3263 4 0.0347058 0.41458 0.692109
1279 2 0.0471215 0.409372 0.72116
894 4 0.086614 0.337832 0.718071
1066 2 0.168367 0.361161 0.70891
1028 4 0.190065 0.383518 0.6942
1027 2 0.212085 0.392525 0.686508
1068 4 0.171391 0.383454 0.697998
1029 4 0.234104 0.401533 0.678815
1139 4 0.234977 0.417761 0.689325
1230 4 0.42096 0.397784 0.734027
1228 2 0.396873 0.402492 0.729249
1229 4 0.372786 0.407199 0.72447
1989 4 0.355595 0.416375 0.729472
3329 4 0.506103 0.415449 0.738731
1206 4 0.425083 0.379275 0.731703
1204 2 0.439845 0.360087 0.737954
1205 4 0.454607 0.340898 0.744205
3262 2 0.0138989 0.419013 0.678971
992 4 0.0592264 0.432808 0.677744
1982 4 0.00940983 0.487495 0.703098
1281 4 0.0371998 0.432236 0.723151
1983 4 0.0400201 0.451654 0.719805
1981 2 0.024715 0.469575 0.711452
1138 2 0.250567 0.428494 0.672987
1987 2 0.337135 0.420237 0.745889
3328 2 0.505645 0.42227 0.71468
2169 4 0.420332 0.492743 0.703652
1101 4 0.49782 0.427453 0.672384
2167 2 0.430434 0.477132 0.686936
1099 2 0.474706 0.436375 0.669024
3330 4 0.505186 0.42909 0.690629
1202 4 0.155933 0.0213381 0.794387
1201 2 0.141669 0.0303737 0.812829
1203 4 0.127405 0.0394092 0.83127
2049 4 0.166936 0.00549247 0.789725
876 4 0.22121 0.0881558 0.832472