ITEM: TIMESTEP
3300000
ITEM: NUMBER OF ATOMS
4590
ITEM: BOX BOUNDS pp pp pp
-9.9985700000000008e+00 9.9985700000000008e+00
-9.9985700000000008e+00 9.9985700000000008e+00
-9.9985700000000008e+00 9.9985700000000008e+00
ITEM: ATOMS id type xs ys zs
701 4 0.0377501 0.0497828 0.0703313
700 2 0.0520097 0.070312 0.0709596
1667 4 0.020123 0.0578619 0.0760153
996 4 0.0990517 0.0103095 0.00758551
490 2 0.265979 0.064383 0.0744813
492 4 0.275897 0.0427546 0.0667986
1474 2 0.275878 0.00148033 0.0669485
1475 4 0.282445 0.024806 0.0607863
2974 2 0.464181 0.0269457 0.0265026
745 2 0.422435 0.0761834 0.0280632
747 4 0.434513 0.0544387 0.0306084
2975 4 0.445758 0.0429585 0.0210846
986 4 0.426431 0.0472349 0.0150274
2976 4 0.482604 0.0109328 0.0319206
2468 4 0.492195 0.0064722 0.0493008
2467 2 0.500626 0.00544383 0.0728179
3836 4 0.497952 0.999751 0.0320052
702 4 0.0662693 0.0908411 0.0715879
476 4 0.0509951 0.102223 0.0657963
475 2 0.0671723 0.121005 0.0625212
477 4 0.0833495 0.139787 0.0592461
566 4 0.197577 0.143625 0.0329055
565 2 0.210225 0.145794 0.0114457
491 4 0.256061 0.0860114 0.0821639
746 4 0.410358 0.0979281 0.0255179
769 2 0.39222 0.151314 0.0341041
556 2 0.37555 0.10487 0.00427401
558 4 0.393826 0.110735 0.020297
771 4 0.388925 0.126611 0.0320847
737 4 0.226924 0.167039 0.0426195
736 2 0.212534 0.185797 0.0507587
738 4 0.198144 0.204555 0.0588978
573 4 0.270199 0.256637 0.0535877
770 4 0.395515 0.176018 0.0361235
359 4 0.395263 0.180346 0.0167307
664 2 0.396525 0.212712 0.0465186
665 4 0.39917 0.194173 0.0299506
666 4 0.39388 0.231251 0.0630865
623 4 0.390358 0.24645 0.0744041
2808 4 0.00811647 0.278947 0.0168059
3338 4 0.0224899 0.268595 0.00732525
481 2 0.23783 0.278382 0.0703425
505 2 0.19078 0.314569 0.0707541
483 4 0.215893 0.284756 0.0805074
506 4 0.197421 0.292433 0.0802979
537 4 0.180975 0.280714 0.0846334
482 4 0.259767 0.272008 0.0601776
571 2 0.290988 0.260077 0.0401282
572 4 0.311777 0.263516 0.0266687
357 4 0.317707 0.27815 0.0134408
355 2 0.325416 0.300942 0.00663998
323 4 0.406959 0.246142 0.0632852
1069 2 0.408821 0.317416 0.0344678
322 2 0.417325 0.266281 0.0526944
956 4 0.340157 0.33704 0.0114947
324 4 0.427691 0.286419 0.0421035
1070 4 0.426944 0.301076 0.0290156
280 2 0.457165 0.306669 0.0580601
282 4 0.442352 0.297982 0.039886
281 4 0.471978 0.315355 0.0762343
292 2 0.151653 0.34009 0.0395421
294 4 0.131371 0.334985 0.0258405
507 4 0.18414 0.336705 0.0612103
286 2 0.200539 0.336364 0.0213688
287 4 0.190313 0.340224 0.0438569
293 4 0.171936 0.345195 0.0532438
552 4 0.171081 0.344818 0.0712226
456 4 0.204459 0.399678 0.0609436
454 2 0.195711 0.37633 0.0590694
455 4 0.186963 0.352982 0.0571951
1290 4 0.269283 0.398872 0.061571
1288 2 0.281146 0.384798 0.0446492
1289 4 0.293009 0.370723 0.0277274
251 4 0.255956 0.411851 0.0599872
903 4 0.301184 0.380119 0.0115593
901 2 0.314824 0.360679 0.00373537
1071 4 0.390698 0.333757 0.03992
955 2 0.357484 0.33974 0.0293182
957 4 0.374811 0.342441 0.0471417
741 4 0.386972 0.335127 0.0596812
739 2 0.391148 0.342245 0.0832835
1304 4 0.363454 0.364424 0.0152152
1303 2 0.363277 0.387637 0.00592615
1788 4 0.0918361 0.468155 0.0881052
1786 2 0.10232 0.483493 0.0713718
625 2 0.163292 0.485138 0.0477189
1690 2 0.119685 0.495584 0.0172815
626 4 0.181043 0.467561 0.0466774
245 4 0.199313 0.469631 0.0543639
244 2 0.220465 0.457582 0.0600749
246 4 0.241616 0.445533 0.0657859
272 4 0.252363 0.432253 0.0527388
271 2 0.263538 0.440888 0.0321052
273 4 0.274713 0.449523 0.0114717
1672 2 0.409738 0.444788 0.0767648
853 2 0.398552 0.445609 0.0236236
855 4 0.384216 0.440819 0.00370556
37 3 0.365289 0.429838 0.0083956
854 4 0.412887 0.450399 0.0435417
1674 4 0.420326 0.458149 0.058473
564 4 0.427905 0.461531 0.0393444
563 4 0.469246 0.476867 0.0157549
562 2 0.448575 0.469199 0.0275497
228 4 0.48034 0.484619 0.000335185
19 3 0.0646574 0.00401753 0.146424
578 4 0.0792088 0.0141912 0.160661
577 2 0.0937397 0.0338971 0.155591
579 4 0.108271 0.053603 0.15052
450 4 0.121999 0.0615827 0.138507
448 2 0.142674 0.0719216 0.148039
582 4 0.242685 0.0772847 0.160028
449 4 0.163348 0.0822605 0.15757
486 4 0.438255 0.0121629 0.112676
393 4 0.0522692 0.157109 0.159922
312 4 0.35772 0.119599 0.148788
628 2 0.374118 0.16113 0.152367
629 4 0.365417 0.138045 0.148296
310 2 0.349778 0.104902 0.167391
2722 2 0.500495 0.0869839 0.13058
2723 4 0.493767 0.108926 0.120659
391 2 0.0576849 0.181355 0.162746
392 4 0.0631006 0.205601 0.165569
339 4 0.054394 0.221246 0.159084
2759 4 0.00274146 0.171886 0.132721
755 4 0.244423 0.248594 0.15897
460 2 0.325676 0.225917 0.115889
461 4 0.305213 0.212049 0.112133
354 4 0.285942 0.214782 0.117711
352 2 0.275113 0.226784 0.136786
353 4 0.264284 0.238786 0.155861
462 4 0.34614 0.239785 0.119645
255 4 0.358545 0.238978 0.133741
253 2 0.369869 0.221544 0.147633
622 2 0.37651 0.247156 0.095211
624 4 0.362663 0.247861 0.116018
254 4 0.381193 0.204109 0.161525
630 4 0.382819 0.184215 0.156439
536 4 0.17188 0.278699 0.133765
535 2 0.176427 0.279707 0.109199
754 2 0.230733 0.269468 0.157551
756 4 0.217042 0.290342 0.156132
301 2 0.317234 0.319336 0.144991
303 4 0.316833 0.301279 0.162282
764 4 0.327837 0.285819 0.160819
284 4 0.273594 0.254076 0.16573
283 2 0.291878 0.271086 0.166953
765 4 0.354816 0.256978 0.130141
763 2 0.341326 0.271399 0.14548
12 3 0.412332 0.326031 0.129867
671 4 0.461141 0.327119 0.0917881
527 4 0.47783 0.318851 0.0935744
526 2 0.499586 0.330683 0.0901343
647 4 0.0692112 0.344242 0.142313
550 2 0.159581 0.35322 0.0917736
551 4 0.148081 0.361622 0.112325
302 4 0.317635 0.337394 0.127701
387 4 0.327634 0.350391 0.117107
385 2 0.352417 0.353442 0.115825
493 2 0.391948 0.389344 0.108553
495 4 0.391382 0.365368 0.115623
386 4 0.377201 0.356492 0.114542
15 3 0.379641 0.343523 0.125594
740 4 0.395325 0.349363 0.106886
14 3 0.41179 0.362191 0.119628
11 1 0.401215 0.346003 0.132455
13 3 0.401756 0.352042 0.154852
494 4 0.392515 0.41332 0.101482
672 4 0.418755 0.343075 0.112992
670 2 0.439948 0.335097 0.10239
596 4 0.493641 0.382311 0.155413
1465 2 0.0586668 0.467041 0.101293
1466 4 0.039721 0.479698 0.11159
1467 4 0.0776126 0.454385 0.0909947
1791 4 0.0337347 0.498375 0.116187
290 4 0.204404 0.427902 0.159878
766 2 0.210105 0.464906 0.15713
768 4 0.21481 0.441927 0.148471
250 2 0.259177 0.421651 0.0827635
252 4 0.262398 0.431451 0.10554
609 4 0.283125 0.426397 0.106856
607 2 0.307564 0.422115 0.109954
608 4 0.332003 0.417833 0.113052
1317 4 0.333363 0.502947 0.126294
659 4 0.336521 0.437129 0.104674
660 4 0.386024 0.430169 0.105963
1673 4 0.399151 0.431428 0.0950566
658 2 0.361272 0.433649 0.105318
524 4 0.408719 0.476195 0.147219
523 2 0.404307 0.45812 0.130516
525 4 0.399895 0.440045 0.113813
1559 4 0.390849 0.484743 0.146042
1558 2 0.368973 0.4964 0.142766
2479 2 0.0240909 0.0204702 0.201038
380 4 0.0123496 0.0584454 0.219886
2481 4 0.0210742 0.0428467 0.211779
379 2 0.0288037 0.0752299 0.211358
20 3 0.0748602 0.00782057 0.182467
580 2 0.249926 0.0563032 0.171539
1506 4 0.258992 0.0107591 0.200287
581 4 0.257168 0.0353217 0.183051
654 4 0.263267 0.0321321 0.20262
652 2 0.272724 0.0456443 0.221413
653 4 0.28218 0.0591566 0.240206
758 4 0.341379 0.0697596 0.189054
759 4 0.365587 0.0619821 0.232114
757 2 0.353483 0.0658708 0.210584
350 4 0.383529 0.0566116 0.237869
349 2 0.407185 0.0521588 0.231103
22 3 0.369354 0.0474437 0.241826
632 4 0.374745 0.0675271 0.242444
25 3 0.346656 0.0188195 0.234186
480 4 0.447545 0.0455101 0.234179
351 4 0.43084 0.0477061 0.224337
513 4 0.0436546 0.153748 0.178134
511 2 0.0434923 0.129163 0.182689
512 4 0.0433301 0.104579 0.187245
381 4 0.0452578 0.0920144 0.20283
237 4 0.229345 0.0914892 0.160408
235 2 0.204573 0.091388 0.1638
236 4 0.1798 0.0912868 0.167192
30 3 0.352181 0.160981 0.246004
311 4 0.341836 0.0902052 0.185995
26 1 0.367919 0.144877 0.242594
28 3 0.360992 0.130474 0.225772
761 4 0.416055 0.122521 0.199334
27 3 0.387664 0.154809 0.236217
333 4 0.496284 0.0870194 0.238178
521 4 0.471467 0.138678 0.217463
762 4 0.453556 0.140077 0.227373
760 2 0.434806 0.131299 0.213354
332 4 0.4661 0.126266 0.231153
331 2 0.481192 0.106643 0.234665
520 2 0.482844 0.159864 0.210615
337 2 0.0566145 0.241571 0.173477
396 4 0.0154768 0.243454 0.249401
546 4 0.0906033 0.229667 0.238836
544 2 0.11226 0.241846 0.241638
279 4 0.253349 0.216096 0.211673
277 2 0.25587 0.230281 0.191238
278 4 0.258392 0.244467 0.170803
522 4 0.494221 0.18105 0.203768
394 2 0.0301586 0.257264 0.234606
395 4 0.0448404 0.271074 0.219811
338 4 0.058835 0.261896 0.18787
363 4 0.0562005 0.274423 0.202883
361 2 0.0661299 0.29717 0.199861
362 4 0.0760593 0.319918 0.196839
545 4 0.133917 0.254024 0.24444
372 4 0.0929235 0.326619 0.193929
612 4 0.227771 0.294879 0.173676
611 4 0.22336 0.321926 0.215506
610 2 0.225566 0.308403 0.194591
344 4 0.228925 0.310849 0.233521
343 2 0.208287 0.312405 0.24755
285 4 0.310162 0.288097 0.168176
729 4 0.307176 0.305208 0.178033
727 2 0.29394 0.319913 0.193322
308 4 0.322632 0.292802 0.178795
498 4 0.344558 0.294829 0.229937
307 2 0.339278 0.289902 0.197225
309 4 0.355925 0.287002 0.215655
749 4 0.062607 0.334093 0.205336
648 4 0.0743452 0.337712 0.191625
748 2 0.0667745 0.34926 0.224772
646 2 0.0717782 0.340977 0.166969
750 4 0.0709421 0.364427 0.244208
733 2 0.153493 0.333426 0.240683
370 2 0.114809 0.336435 0.200989
371 4 0.136695 0.346251 0.208049
734 4 0.138386 0.347998 0.227095
417 4 0.138481 0.363361 0.219528
299 4 0.135117 0.364427 0.238718
415 2 0.156393 0.378818 0.211441
298 2 0.111323 0.369651 0.24435
416 4 0.174305 0.394275 0.203355
289 2 0.196112 0.409147 0.174184
291 4 0.18782 0.390392 0.188491
728 4 0.280704 0.334617 0.208612
445 2 0.38669 0.374866 0.228979
447 4 0.408941 0.385885 0.231918
446 4 0.364439 0.363847 0.226039
644 4 0.416976 0.387697 0.212794
595 2 0.488539 0.39057 0.178455
643 2 0.44158 0.391797 0.211052
645 4 0.466183 0.395898 0.209309
597 4 0.483436 0.398829 0.201497
767 4 0.205399 0.487886 0.165789
412 2 0.235655 0.486578 0.237014
414 4 0.229486 0.478187 0.214282
229 2 0.464084 0.484664 0.21397
231 4 0.477786 0.463749 0.214066
234 4 0.0164286 0.0501997 0.29498
232 2 0.0371424 0.0366428 0.298492
233 4 0.0578563 0.023086 0.302003
317 4 0.0680777 0.02074 0.32022
1404 4 0.0692899 0.00854287 0.3057
1402 2 0.0841956 0.00263122 0.286515
428 4 0.0642258 0.0010704 0.32228
693 4 0.328215 0.0434565 0.279187
691 2 0.315315 0.0640396 0.285111
24 3 0.341186 0.0392632 0.265328
21 1 0.357006 0.0302953 0.250915
23 3 0.371242 0.0161645 0.262579
257 4 0.425763 0.0798641 0.319585
479 4 0.461686 0.0367774 0.281344
478 2 0.454615 0.0411438 0.257761
2664 4 0.477665 0.0283364 0.289085
1428 4 0.459789 0.0308406 0.296933
258 4 0.448456 0.0473273 0.289137
2662 2 0.502332 0.0304812 0.292568
256 2 0.43711 0.0635957 0.304361
1426 2 0.44935 0.0100647 0.306129
403 2 0.233073 0.149936 0.321585
404 4 0.248023 0.133494 0.333046
405 4 0.218124 0.166378 0.310124
692 4 0.302414 0.0846227 0.291034
721 2 0.27233 0.105411 0.311554
723 4 0.282789 0.0886655 0.296211
722 4 0.261872 0.122156 0.326896
29 3 0.371485 0.133012 0.262213
631 2 0.375867 0.0899457 0.253459
707 4 0.376288 0.123795 0.277586
633 4 0.37699 0.112364 0.264473
706 2 0.370178 0.13582 0.29864
708 4 0.364069 0.147845 0.319694
444 4 0.00204056 0.22336 0.307301
442 2 0.0129501 0.228278 0.285347
443 4 0.0238597 0.233196 0.263393
600 4 0.107335 0.215085 0.336481
473 4 0.204724 0.175642 0.322952
269 4 0.418161 0.221377 0.324749
419 4 0.415833 0.240649 0.32102
402 4 0.147672 0.260969 0.257951
375 4 0.167846 0.322438 0.326326
400 2 0.162149 0.281192 0.255371
735 4 0.168599 0.318854 0.254272
401 4 0.176625 0.301414 0.252792
676 2 0.175062 0.321194 0.291973
677 4 0.171465 0.309187 0.270338
345 4 0.187648 0.313961 0.261579
678 4 0.178659 0.333201 0.313608
378 4 0.271439 0.303446 0.286058
376 2 0.29596 0.307608 0.288629
377 4 0.32048 0.31177 0.2912
615 4 0.330513 0.320554 0.306872
497 4 0.330647 0.304265 0.277035
418 2 0.400599 0.258057 0.311531
496 2 0.337602 0.299547 0.253486
541 2 0.35545 0.29502 0.307224
542 4 0.375617 0.28451 0.317616
543 4 0.335282 0.30553 0.296831
420 4 0.385364 0.275466 0.302042
2537 4 0.497108 0.329818 0.327075
364 2 0.000854876 0.392522 0.290636
365 4 0.0162231 0.411926 0.287103
601 2 0.0454777 0.411863 0.318156
300 4 0.0875284 0.374875 0.249982
510 4 0.182854 0.352244 0.310799
508 2 0.198205 0.371923 0.312311
509 4 0.213556 0.391601 0.313822
434 4 0.32705 0.383485 0.300592
433 2 0.312599 0.403552 0.304289
613 2 0.331592 0.345284 0.310395
614 4 0.332671 0.370015 0.313919
2 3 0.284705 0.4134 0.317023
603 4 0.0314774 0.419555 0.298921
1757 4 0.0149582 0.425834 0.272308
1756 2 0.032833 0.442938 0.27593
1758 4 0.0507078 0.460043 0.279552
1775 4 0.0671784 0.468603 0.28555
775 2 0.0483729 0.483398 0.315351
777 4 0.0490847 0.4744 0.292033
1776 4 0.112801 0.451636 0.274084
1774 2 0.0899895 0.46012 0.279817
413 4 0.241824 0.494969 0.259745
4 3 0.251048 0.420189 0.301735
1436 4 0.247133 0.481756 0.274024
1435 2 0.252776 0.46216 0.288492
1437 4 0.258419 0.442563 0.302959
3 3 0.267739 0.446246 0.323799
1 1 0.264343 0.423537 0.320454
436 2 0.302741 0.457938 0.320346
438 4 0.288693 0.437271 0.319496
435 4 0.298147 0.423618 0.307985
437 4 0.316788 0.478605 0.321197
1802 4 0.324647 0.493307 0.309469
1801 2 0.346776 0.490444 0.320751
1803 4 0.368905 0.487581 0.332033
593 4 0.378082 0.469666 0.328996
119 3 0.484228 0.457705 0.332016
316 2 0.0755785 0.0376747 0.337017
318 4 0.0830792 0.0546095 0.353814
732 4 0.0980608 0.0662178 0.362072
730 2 0.121919 0.0617558 0.356067
731 4 0.145777 0.0572938 0.350062
399 4 0.0830168 0.0736973 0.353091
606 4 0.163256 0.0631952 0.359227
604 2 0.186784 0.0700664 0.364166
605 4 0.210312 0.0769376 0.369106
1701 4 0.360061 0.999638 0.388121
699 4 0.374627 0.058292 0.357866
1699 2 0.366538 0.0185838 0.373145
1700 4 0.373015 0.0375292 0.358168
697 2 0.396478 0.0651559 0.347836
962 4 0.344919 0.0108634 0.412672
425 4 0.363643 0.00267954 0.407128
698 4 0.418329 0.0720197 0.337806
397 2 0.0682032 0.0936042 0.356166
398 4 0.0533897 0.113511 0.359241
2584 2 0.0158621 0.116171 0.357483
2586 4 0.0379873 0.12324 0.366739
458 4 0.0427437 0.127539 0.385895
457 2 0.0457799 0.150815 0.394509
249 4 0.249314 0.117172 0.34289
248 4 0.221409 0.0921499 0.375994
247 2 0.235361 0.104661 0.359442
683 4 0.264037 0.129229 0.344516
682 2 0.283274 0.14516 0.345645
684 4 0.302512 0.161092 0.346773
319 2 0.335767 0.165706 0.336878
321 4 0.358688 0.155717 0.33694
726 4 0.383653 0.135232 0.415255
717 4 0.366205 0.15048 0.354002
715 2 0.377075 0.148901 0.376464
716 4 0.387945 0.147322 0.398926
467 4 0.398872 0.146783 0.414422
642 4 0.493558 0.125088 0.388235
641 4 0.477349 0.135966 0.342196
640 2 0.485454 0.130527 0.365215
459 4 0.0488161 0.174091 0.403122
598 2 0.121552 0.215134 0.357049
599 4 0.135769 0.215184 0.377617
686 4 0.13867 0.225449 0.395582
685 2 0.120865 0.222747 0.412927
275 4 0.147817 0.229135 0.381553
389 4 0.13964 0.244558 0.390091
274 2 0.172142 0.223817 0.379269
474 4 0.197996 0.203187 0.364143
472 2 0.20136 0.189415 0.343548
276 4 0.196466 0.218499 0.376986
320 4 0.312845 0.175694 0.336815
268 2 0.440484 0.220139 0.335945
270 4 0.462807 0.218902 0.347141
452 4 0.469174 0.227834 0.363202
451 2 0.465088 0.219092 0.386268
453 4 0.461001 0.21035 0.409334
2802 4 0.00986501 0.288899 0.410195
347 4 0.0593201 0.322862 0.37484
346 2 0.0423331 0.30937 0.387272
618 4 0.0697516 0.311971 0.361174
348 4 0.0253461 0.295877 0.399705
616 2 0.0936653 0.3053 0.364141
373 2 0.152068 0.314505 0.344026
388 2 0.13694 0.266957 0.379313
390 4 0.134241 0.289356 0.368535
617 4 0.117579 0.298628 0.367108
374 4 0.13629 0.306573 0.361726
488 4 0.380122 0.256524 0.387101
487 2 0.381058 0.253138 0.411856
602 4 0.059478 0.40417 0.337392
549 4 0.0575883 0.396265 0.354527
547 2 0.058726 0.410149 0.37529
5 3 0.254401 0.414384 0.338785
335 4 0.315666 0.378301 0.395835
240 4 0.320634 0.373074 0.377227
238 2 0.339141 0.387885 0.369272
239 4 0.357649 0.402696 0.361318
587 4 0.366781 0.404386 0.342898
752 4 0.464126 0.380567 0.377865
561 4 0.4563 0.365489 0.385566
751 2 0.471751 0.403119 0.370218
559 2 0.471254 0.358301 0.404271
776 4 0.0476611 0.492395 0.338668
500 4 0.0599311 0.475714 0.341115
499 2 0.0666328 0.464715 0.362546
501 4 0.0733346 0.453715 0.383976
407 4 0.0725265 0.439662 0.397931
548 4 0.0598638 0.424032 0.396053
406 2 0.0897419 0.451133 0.411974
568 2 0.13374 0.495267 0.415419
1555 2 0.23076 0.487997 0.387549
1557 4 0.249385 0.479133 0.401681
636 4 0.252535 0.471832 0.420453
588 4 0.370495 0.454018 0.338038
586 2 0.368638 0.429202 0.340468
592 2 0.398838 0.47835 0.339902
2862 4 0.494124 0.470909 0.342613
594 4 0.419594 0.487035 0.350808
116 1 0.489761 0.448037 0.352371
713 4 0.432825 0.493914 0.33845
712 2 0.452635 0.479315 0.342879
714 4 0.472445 0.464716 0.347309
753 4 0.479376 0.42567 0.362571
117 3 0.470736 0.446275 0.365181
718 2 0.0214894 0.0111724 0.456036
369 4 0.0596537 0.0201466 0.471125
367 2 0.0770164 0.0126792 0.454756
719 4 0.0448162 0.0199174 0.458172
1781 4 0.112876 0.00426976 0.428738
368 4 0.094379 0.00521188 0.438386
342 4 0.236746 0.0409735 0.495401
340 2 0.216297 0.0265911 0.495834
341 4 0.195849 0.0122087 0.496266
963 4 0.311395 0.0430536 0.431129
432 4 0.313183 0.0504776 0.44998
430 2 0.321275 0.0513266 0.473623
961 2 0.328157 0.0269585 0.421901
431 4 0.329368 0.0521756 0.497265
1217 4 0.407859 0.0683544 0.499707
842 4 0.394657 0.0538712 0.497523
724 2 0.397533 0.114502 0.413573
725 4 0.411413 0.0937731 0.411891
2657 4 0.487265 0.121507 0.449602
260 4 0.0562558 0.183516 0.419039
259 2 0.0727327 0.198502 0.430402
261 4 0.0892097 0.213487 0.441765
687 4 0.10306 0.220045 0.430273
1035 4 0.0914008 0.232922 0.437716
1033 2 0.0959237 0.248551 0.456703
409 2 0.396029 0.215579 0.450196
411 4 0.379408 0.23422 0.448997
466 2 0.409499 0.16452 0.42848
410 4 0.41265 0.196938 0.451395
266 4 0.380778 0.252253 0.45568
468 4 0.420127 0.182257 0.442538
574 2 0.417048 0.178409 0.488091
515 4 0.467706 0.208034 0.427486
575 4 0.41427 0.195813 0.470355
516 4 0.428866 0.194899 0.456116
514 2 0.448286 0.201466 0.441801
1034 4 0.100447 0.264179 0.475689
696 4 0.105436 0.280936 0.487982
1260 4 0.110188 0.27869 0.470254
1258 2 0.122269 0.300486 0.468215
1259 4 0.134351 0.322282 0.466177
9 3 0.167677 0.319183 0.436869
489 4 0.381994 0.249752 0.436612
265 2 0.381316 0.272076 0.47091
267 4 0.381855 0.291899 0.48614
3308 4 0.475022 0.31828 0.46957
1011 4 0.465999 0.325334 0.485676
1009 2 0.464817 0.301237 0.492244
1010 4 0.463635 0.277141 0.498812
326 4 0.0848312 0.366236 0.448807
503 4 0.13368 0.334288 0.477001
7 3 0.142168 0.335774 0.45893
6 1 0.157033 0.339223 0.441717
327 4 0.125685 0.34286 0.465695
325 2 0.105258 0.354548 0.457251
10 3 0.145712 0.346638 0.423401
709 2 0.142554 0.403116 0.49714
502 2 0.143991 0.347592 0.495491
8 3 0.172629 0.355076 0.448339
334 2 0.316869 0.385343 0.419797
336 4 0.318071 0.392385 0.443758
668 4 0.302774 0.398928 0.453616
882 4 0.318666 0.394075 0.463955
880 2 0.336779 0.388223 0.480167
3309 4 0.496653 0.35187 0.439495
560 4 0.486209 0.351112 0.422976
3307 2 0.485837 0.335075 0.454532
680 4 0.00497278 0.449974 0.454928
1381 2 0.00668514 0.487691 0.469958
1383 4 0.0151055 0.46607 0.46064
711 4 0.139065 0.426776 0.489845
408 4 0.106957 0.462605 0.426017
383 4 0.123232 0.460338 0.434674
384 4 0.126294 0.433938 0.477034
569 4 0.12229 0.473861 0.421409
382 2 0.124763 0.447138 0.455854
773 4 0.334488 0.477187 0.497369
635 4 0.281265 0.457688 0.458862
669 4 0.2881 0.444046 0.46942
774 4 0.293302 0.464188 0.47216
772 2 0.313895 0.470687 0.484764
667 2 0.295437 0.421487 0.461518
634 2 0.2669 0.46476 0.439657
663 4 0.461926 0.486391 0.493376
1058 4 0.085116 0.0930793 0.522527
1152 4 0.23198 0.0518112 0.511297
1150 2 0.235035 0.0598703 0.534768
1151 4 0.238091 0.0679294 0.558239
1032 4 0.241813 0.0623509 0.575808
1181 4 0.229128 0.078099 0.571535
841 2 0.370069 0.0575427 0.500199
843 4 0.345482 0.0612142 0.502876
1216 2 0.427745 0.0682233 0.514862
1218 4 0.447631 0.0680922 0.530018
1270 2 0.0819931 0.150953 0.569125
1271 4 0.0949437 0.129895 0.57287
1057 2 0.094612 0.102958 0.543441
1059 4 0.104108 0.112837 0.564355
1155 4 0.113407 0.125721 0.570243
939 4 0.100306 0.114585 0.582651
1153 2 0.135859 0.135711 0.565628
1154 4 0.15831 0.1457 0.561012
1180 2 0.230821 0.102721 0.575542
898 2 0.241675 0.156522 0.555222
900 4 0.235295 0.145638 0.576809
1221 4 0.170895 0.151095 0.574853
1219 2 0.194366 0.144298 0.580155
1220 4 0.217836 0.137501 0.585457
1182 4 0.232515 0.127343 0.579549
576 4 0.419826 0.161005 0.505827
1199 4 0.0346769 0.206577 0.554362
877 2 0.0637903 0.202661 0.563577
1272 4 0.0690426 0.172011 0.565381
878 4 0.0449322 0.218896 0.566022
1198 2 0.0111519 0.21324 0.549132
879 4 0.0826484 0.186426 0.561133
651 4 0.210408 0.223464 0.520635
858 4 0.193092 0.232682 0.517006
649 2 0.220902 0.201428 0.526063
650 4 0.231396 0.179392 0.531491
856 2 0.186834 0.247326 0.536282
899 4 0.248056 0.167407 0.533635
984 4 0.00401118 0.309851 0.576167
695 4 0.107021 0.258296 0.532543
694 2 0.106229 0.269616 0.510263
946 2 0.175006 0.287458 0.575297
857 4 0.180576 0.261971 0.555558
947 4 0.191964 0.278685 0.559153
798 4 0.211495 0.277906 0.56205
796 2 0.234008 0.2861 0.569205
797 4 0.256521 0.294294 0.576359
872 4 0.365373 0.32025 0.573352
2455 2 0.504103 0.260171 0.505294
2457 4 0.481396 0.270332 0.502779
954 4 0.490335 0.288776 0.558042
952 2 0.489299 0.303998 0.577851
3263 4 0.0394937 0.3457 0.566305
3262 2 0.047172 0.360811 0.584687
710 4 0.146043 0.379456 0.504436
504 4 0.154302 0.360896 0.513981
1189 2 0.249078 0.376853 0.579468
1191 4 0.226169 0.386401 0.582505
804 4 0.274972 0.356825 0.508609
803 4 0.275519 0.369018 0.557104
802 2 0.275246 0.362922 0.532857
1190 4 0.271986 0.367305 0.57643
1238 4 0.285947 0.35942 0.570643
1237 2 0.310762 0.36039 0.573543
1239 4 0.335578 0.36136 0.576444
930 4 0.346695 0.367297 0.561261
929 4 0.356665 0.369968 0.51233
928 2 0.35168 0.368633 0.536795
881 4 0.354893 0.382371 0.496379
1081 2 0.0586122 0.0795633 0.64101
1082 4 0.0673776 0.0706522 0.662665
1126 2 0.030203 0.0833111 0.595186
1128 4 0.00825096 0.0729107 0.58926
1030 2 0.242342 0.0465853 0.595208
1031 4 0.24287 0.0308196 0.614607
2133 4 0.18456 0.0197099 0.664237
2131 2 0.188377 0.00458681 0.644694
951 4 0.261377 0.0230627 0.615815
949 2 0.28626 0.0214827 0.613937
950 4 0.311142 0.0199028 0.612059
1226 4 0.260536 0.0782175 0.654097
3008 4 0.496685 0.0382403 0.597407
809 4 0.481095 0.0345313 0.606443
808 2 0.479672 0.0465178 0.62834
810 4 0.478249 0.0585044 0.650237
45 3 0.47582 0.0812562 0.649025
1083 4 0.0498468 0.0884744 0.619355
1127 4 0.052155 0.0937116 0.601112
938 4 0.0681395 0.0918345 0.613448
937 2 0.0842226 0.10321 0.598049
1210 2 0.238657 0.140191 0.618586
1212 4 0.231762 0.14057 0.594555
908 4 0.227781 0.130071 0.648615
907 2 0.205479 0.12744 0.659609
1211 4 0.245551 0.139811 0.642618
1227 4 0.245949 0.126022 0.65246
888 4 0.262139 0.139599 0.652155
886 2 0.285676 0.148011 0.652805
887 4 0.309213 0.156424 0.653454
1225 2 0.253243 0.10212 0.653279
3425 4 0.489264 0.0909732 0.665885
1244 4 0.0392614 0.220378 0.584789
1243 2 0.0442274 0.243266 0.593545
1194 4 0.319674 0.171634 0.657593
1192 2 0.326741 0.191085 0.643562
1193 4 0.333808 0.210537 0.629531
3123 4 0.492381 0.217902 0.623947
982 2 0.0182895 0.293727 0.588869
983 4 0.0325677 0.277603 0.60157
1245 4 0.0491934 0.266154 0.6023
948 4 0.158048 0.296232 0.591441
1136 4 0.170787 0.307531 0.601363
1135 2 0.170214 0.328042 0.615651
790 2 0.269026 0.325309 0.587806
791 4 0.265134 0.301202 0.593181
871 2 0.377385 0.321486 0.595247
873 4 0.389397 0.322721 0.617141
813 4 0.40001 0.318965 0.634638
953 4 0.488262 0.319219 0.597661
3112 2 0.487139 0.282558 0.666245
1041 4 0.0619177 0.388619 0.617017
3264 4 0.0548503 0.375921 0.603069
3240 4 0.0488081 0.394182 0.60416
3238 2 0.0287235 0.405836 0.613432
3239 4 0.00863884 0.41749 0.622705
1039 2 0.0861471 0.389538 0.623122
1040 4 0.110377 0.390458 0.629226
993 4 0.129118 0.394871 0.624462
991 2 0.146986 0.378536 0.630711
822 4 0.165005 0.345192 0.648195
992 4 0.164855 0.362201 0.636961
1137 4 0.169642 0.348552 0.62994
1064 4 0.178773 0.357598 0.645709
897 4 0.183249 0.361717 0.627512
896 4 0.214409 0.386725 0.597439
895 2 0.198829 0.374221 0.612476
1172 4 0.229097 0.400679 0.594697
1063 2 0.196928 0.362019 0.662323
792 4 0.272919 0.349415 0.582432
811 2 0.4001 0.342466 0.643173
927 4 0.400009 0.384127 0.659429
812 4 0.400191 0.365968 0.651708
925 2 0.41313 0.398666 0.643884
1206 4 0.383641 0.377084 0.654143
906 4 0.483796 0.33771 0.603343
926 4 0.426251 0.413204 0.628338
539 4 0.0758801 0.436292 0.586127
2244 4 0.112204 0.484158 0.593424
1160 4 0.123322 0.478464 0.608044
540 4 0.115802 0.465518 0.593391
538 2 0.0958413 0.450905 0.589759
1159 2 0.147382 0.47539 0.61411
1171 2 0.228589 0.424672 0.601714
1186 2 0.207838 0.474178 0.616511
1173 4 0.228081 0.448666 0.608731
1187 4 0.230827 0.465097 0.620284
1188 4 0.184849 0.483258 0.612737
1161 4 0.171443 0.472315 0.620176
1029 4 0.239367 0.424346 0.662322
1002 4 0.430796 0.431586 0.630995
1911 4 0.43696 0.49 0.618905
1001 4 0.430209 0.481447 0.634764
1000 2 0.430502 0.456517 0.63288
1269 4 0.44418 0.493416 0.637638
944 4 0.0561439 0.0363658 0.677704
943 2 0.0379419 0.0192714 0.676421
1076 4 0.0586161 0.0546793 0.674287
1075 2 0.0618331 0.0671907 0.695695
864 4 0.0623511 0.0783615 0.735864
862 2 0.0408695 0.0791134 0.748637
1077 4 0.0650501 0.0797021 0.717103
825 4 0.158881 0.0757725 0.685452
823 2 0.163576 0.0530562 0.676119
1106 4 0.121551 0.0787571 0.746793
1148 4 0.246775 0.0733147 0.667215
2256 4 0.17327 0.016316 0.679858
824 4 0.168271 0.03034 0.666786
2254 2 0.168876 0.998816 0.697168
1147 2 0.250508 0.0487803 0.670266
1149 4 0.254241 0.0242459 0.673317
1004 4 0.35703 0.0760738 0.744088
41 1 0.468207 0.0749026 0.669527
43 3 0.445431 0.0790322 0.671144
42 3 0.471897 0.0523709 0.672331
1163 4 0.480381 0.0633158 0.690782
1162 2 0.491819 0.0536259 0.710794
851 4 0.0708124 0.0976168 0.713278
850 2 0.062843 0.120878 0.708744
852 4 0.0548737 0.14414 0.704209
1107 4 0.0757745 0.0906205 0.73053
1283 4 0.145715 0.0908668 0.686362
1282 2 0.155494 0.112355 0.678126
1105 2 0.0986628 0.0846888 0.738661
1284 4 0.165272 0.133842 0.669889
909 4 0.183177 0.124808 0.670603
830 4 0.326689 0.153525 0.659405
829 2 0.333019 0.139121 0.678838
1005 4 0.345873 0.108885 0.708037
1003 2 0.351451 0.0924795 0.726062
831 4 0.339348 0.124716 0.698271
44 3 0.479555 0.0864842 0.686125
3268 2 0.480513 0.136423 0.738392
3270 4 0.486255 0.151397 0.719209
1214 4 0.00742906 0.196911 0.737253
1073 4 0.0678238 0.250888 0.731426
1215 4 0.00652441 0.246448 0.730478
1213 2 0.00697673 0.221679 0.733865
977 4 0.312495 0.242477 0.73678
1297 2 0.281832 0.212073 0.737721
1298 4 0.30065 0.22845 0.739415
918 4 0.294611 0.248068 0.740312
1299 4 0.263015 0.195696 0.736026
1025 4 0.384722 0.189172 0.69766
1024 2 0.403686 0.196609 0.71216
976 2 0.336601 0.24847 0.733918
1020 4 0.377301 0.256295 0.741702
1142 4 0.429057 0.201203 0.74387
1144 2 0.46021 0.185903 0.724086
1262 4 0.437233 0.216576 0.736859
1026 4 0.42265 0.204046 0.72666
1145 4 0.441234 0.202114 0.725594
1146 4 0.479186 0.169691 0.722577
1261 2 0.435193 0.241136 0.741083
1178 4 0.0138327 0.262432 0.738792
1177 2 0.0386639 0.264919 0.740344
1179 4 0.0634951 0.267405 0.741895
1072 2 0.0924296 0.254879 0.733376
1208 4 0.129189 0.273267 0.726908
1074 4 0.117035 0.25887 0.735326
1207 2 0.131601 0.29484 0.7145
821 4 0.139517 0.324761 0.686058
1209 4 0.134014 0.316413 0.702092
1130 4 0.130219 0.268661 0.744932
815 4 0.119527 0.325052 0.708675
806 4 0.252677 0.31292 0.683239
978 4 0.360706 0.254462 0.731056
1263 4 0.433153 0.265695 0.745306
3114 4 0.466963 0.295031 0.674152
892 2 0.0399443 0.356354 0.71496
1280 4 0.0762846 0.366425 0.729454
816 4 0.0779881 0.351325 0.717889
894 4 0.0609977 0.355731 0.728433
893 4 0.0188908 0.356977 0.701486
820 2 0.152261 0.334976 0.667126
942 4 0.138166 0.332758 0.704434
1279 2 0.0839684 0.38854 0.738234
814 2 0.0987578 0.338189 0.713282
940 2 0.154146 0.346032 0.718349
1078 2 0.165877 0.402456 0.734915
941 4 0.170127 0.359305 0.732265
1080 4 0.173671 0.378732 0.733664
805 2 0.2378 0.332443 0.688002
1065 4 0.215083 0.36644 0.678937
807 4 0.222923 0.351967 0.692766
1028 4 0.229892 0.380155 0.683727
1066 2 0.204203 0.36819 0.715061
1068 4 0.220518 0.37016 0.696217
1027 2 0.234629 0.40225 0.673025
1067 4 0.187887 0.36622 0.733905
1204 2 0.363304 0.376006 0.668649
1205 4 0.342967 0.374928 0.683155
1079 4 0.158083 0.426181 0.736167
1174 2 0.189537 0.487632 0.727538
1175 4 0.184532 0.481237 0.70389
2172 4 0.183784 0.479839 0.683885
1140 4 0.236506 0.440051 0.67343
1228 2 0.311893 0.450183 0.685706
1138 2 0.255826 0.451287 0.68464
1139 4 0.275146 0.462523 0.69585
1987 2 0.304829 0.450591 0.742963
1229 4 0.293509 0.459218 0.700045
1989 4 0.295159 0.457724 0.721036
2028 4 0.286521 0.470892 0.710405
1230 4 0.330277 0.441149 0.671368
2026 2 0.282454 0.495551 0.711143
1099 2 0.486037 0.488729 0.708566
2989 2 0.015876 0.0441594 0.78553
2990 4 0.0163793 0.0677804 0.777346
2991 4 0.0153727 0.0205385 0.793713
863 4 0.0193879 0.0798653 0.76141
3083 4 0.00187791 0.0761323 0.768551
833 4 0.015532 0.0868742 0.77816
2049 4 0.0995559 0.0169602 0.784995
1202 4 0.118168 0.0229453 0.781601
1201 2 0.123618 0.0473314 0.780707
1203 4 0.129068 0.0717175 0.779813
32 3 0.147762 0.0820932 0.790067
1085 4 0.315148 0.0754507 0.804451
960 4 0.326872 0.0746308 0.820053
819 4 0.329732 0.0616717 0.805759
1050 4 0.356166 0.00214846 0.786782
817 2 0.341717 0.0399258 0.802817
818 4 0.353702 0.0181799 0.799875
974 4 0.35994 0.000979942 0.805492
2320 2 0.487303 0.046643 0.769546
844 2 0.48443 0.0585531 0.82892
845 4 0.471717 0.0591773 0.807399
2322 4 0.475051 0.054789 0.789762
1112 4 0.47641 0.074126 0.796936
832 2 0.0201407 0.105881 0.793738
834 4 0.0247494 0.124889 0.809316
1125 4 0.0424836 0.123376 0.817358
34 3 0.119906 0.0865591 0.765232
911 4 0.138948 0.0954576 0.803332
31 1 0.136641 0.0974552 0.777048
35 3 0.127533 0.113455 0.790453
33 3 0.151733 0.107124 0.762312
910 2 0.144688 0.0927414 0.827516
1256 4 0.224965 0.131031 0.822717