ITEM: TIMESTEP
1360000
ITEM: NUMBER OF ATOMS
4590
ITEM: BOX BOUNDS pp pp pp
-9.9985700000000008e+00 9.9985700000000008e+00
-9.9985700000000008e+00 9.9985700000000008e+00
-9.9985700000000008e+00 9.9985700000000008e+00
ITEM: ATOMS id type xs ys zs
463 2 0.0182531 0.0415441 0.0284286
465 4 0.0329779 0.0529721 0.0450947
1667 4 0.0383135 0.0523529 0.0642037
701 4 0.0498824 0.0534885 0.0479538
590 4 0.0396463 0.0687237 0.0546149
700 2 0.0727083 0.0585367 0.0390839
1666 2 0.042325 0.0353635 0.0821047
464 4 0.00352828 0.030116 0.0117626
702 4 0.0955341 0.0635848 0.0302139
565 2 0.16439 0.0751059 0.0478062
994 2 0.145518 0.0295528 0.0183033
995 4 0.160039 0.0498958 0.0189819
996 4 0.130996 0.00920976 0.0176247
567 4 0.170244 0.0540359 0.0356831
533 4 0.179265 0.0491767 0.0198639
532 2 0.198618 0.0410767 0.0062611
534 4 0.217971 0.0329766 0.992658
490 2 0.3099 0.0425359 0.0440673
491 4 0.327976 0.0484776 0.0602889
492 4 0.291824 0.0365942 0.0278457
2264 4 0.287118 0.0265652 0.0116888
557 4 0.336876 0.0629121 0.0684893
296 4 0.339751 0.0442275 0.0742693
295 2 0.354353 0.0257468 0.0826616
745 2 0.457037 0.0667507 0.033182
746 4 0.460486 0.0680931 0.0579102
747 4 0.453589 0.0654083 0.00845378
589 2 0.0272207 0.0904122 0.0552415
591 4 0.0147951 0.112101 0.055868
566 4 0.158537 0.0961759 0.0599294
556 2 0.34875 0.0843217 0.0735723
558 4 0.360623 0.105731 0.0786554
771 4 0.430653 0.159847 0.0701414
769 2 0.441391 0.165242 0.048215
1012 2 0.480557 0.153685 0.00317428
1013 4 0.459197 0.164599 0.0102342
554 4 0.0262815 0.229312 0.999126
553 2 0.0490881 0.238016 0.00453799
555 4 0.0718946 0.246719 0.00994987
836 4 0.0865089 0.251122 0.99705
770 4 0.452128 0.170637 0.0262885
827 4 0.445755 0.178132 0.00837076
1056 4 0.0623094 0.312981 0.0085369
1054 2 0.0691277 0.28898 0.00690889
1055 4 0.075946 0.264979 0.00528088
292 2 0.125176 0.286006 0.0625194
293 4 0.125698 0.307891 0.0504376
507 4 0.139205 0.321914 0.0514656
294 4 0.124653 0.264121 0.0746011
288 4 0.132394 0.317614 0.0341919
286 2 0.121579 0.3112 0.0125801
355 2 0.226906 0.272016 0.0124847
357 4 0.24167 0.288568 0.0240278
356 4 0.212142 0.255464 0.000941559
664 2 0.329642 0.245744 0.0256853
666 4 0.315975 0.26069 0.0403478
572 4 0.309293 0.273057 0.0545254
571 2 0.298831 0.269544 0.0769616
461 4 0.341308 0.263045 0.0675301
1071 4 0.391527 0.309751 0.017965
1069 2 0.397841 0.301959 0.040869
1070 4 0.404156 0.294167 0.063773
956 4 0.37225 0.303697 0.0211464
323 4 0.415868 0.284645 0.0764679
460 2 0.348382 0.246841 0.0852091
281 4 0.471075 0.326358 0.049002
280 2 0.457167 0.324395 0.0283165
282 4 0.443259 0.322431 0.00763098
671 4 0.461915 0.331191 0.0664514
104 3 0.497887 0.315036 0.0231864
315 4 0.0435093 0.396889 0.0801778
552 4 0.0730258 0.412315 0.0339392
551 4 0.0532523 0.38284 0.998712
550 2 0.0631391 0.397578 0.0163258
505 2 0.155869 0.33566 0.0640576
506 4 0.172532 0.349406 0.0766497
525 4 0.332867 0.399699 0.0456447
608 4 0.334162 0.383096 0.0582864
252 4 0.343964 0.384757 0.0419787
250 2 0.33904 0.377401 0.0185945
607 2 0.339605 0.370342 0.0790924
670 2 0.443461 0.338575 0.0816202
793 2 0.157248 0.504056 0.0138074
245 4 0.236661 0.507263 0.0555921
903 4 0.232991 0.434144 0.9933
523 2 0.326493 0.423375 0.0505424
244 2 0.26003 0.50525 0.046931
524 4 0.320119 0.447051 0.0554402
901 2 0.249397 0.415344 0.991685
39 3 0.424285 0.457499 0.00705242
37 3 0.390182 0.441753 0.00833913
36 1 0.412553 0.437589 0.00497197
563 4 0.494909 0.490323 0.013372
40 3 0.419822 0.422625 0.0205252
1806 4 0.0651088 0.016492 0.104266
1421 4 0.0526826 0.00912394 0.116679
1668 4 0.0463364 0.0183741 0.100006
1420 2 0.0469923 0.024616 0.135462
1422 4 0.041302 0.0401081 0.154245
2480 4 0.0257278 0.0530065 0.162996
1416 4 0.0570501 0.0023745 0.0991453
19 3 0.0436516 0.0518163 0.16538
1805 4 0.115 0.0145265 0.107039
1804 2 0.0900546 0.0155093 0.105653
1504 2 0.245386 0.0655415 0.152935
1506 4 0.257637 0.0624984 0.131352
652 2 0.322833 0.0517765 0.133977
653 4 0.312772 0.0343452 0.119141
654 4 0.332894 0.0692079 0.148813
582 4 0.319233 0.0758157 0.16014
297 4 0.368955 0.00726605 0.091054
757 2 0.410601 0.0281147 0.150265
485 4 0.382146 0.00585014 0.105896
758 4 0.415494 0.0189467 0.127523
1759 2 0.493997 0.0135233 0.162656
476 4 0.119065 0.16432 0.157447
237 4 0.167411 0.135619 0.130039
235 2 0.164937 0.118743 0.148323
737 4 0.171284 0.148686 0.11406
285 4 0.281755 0.162694 0.155698
629 4 0.41674 0.156567 0.084946
339 4 0.101323 0.226086 0.132965
477 4 0.104664 0.209302 0.141015
475 2 0.111865 0.186811 0.149231
337 2 0.114248 0.246103 0.140544
738 4 0.202879 0.183666 0.130762
736 2 0.187082 0.166176 0.122411
354 4 0.258445 0.209577 0.115388
283 2 0.274378 0.183474 0.14391
352 2 0.264248 0.233553 0.111312
284 4 0.267 0.204254 0.132122
462 4 0.355456 0.230636 0.102888
630 4 0.389395 0.186037 0.114686
254 4 0.394703 0.199554 0.129024
253 2 0.380869 0.219216 0.122153
255 4 0.367035 0.238878 0.115281
628 2 0.403068 0.171302 0.099816
338 4 0.127173 0.26612 0.148123
481 2 0.200181 0.327035 0.0975758
535 2 0.205867 0.290368 0.138422
537 4 0.198317 0.292699 0.162144
536 4 0.213416 0.288038 0.1147
482 4 0.208299 0.307168 0.110405
353 4 0.270052 0.25753 0.107236
573 4 0.288368 0.26603 0.0993977
754 2 0.281936 0.279066 0.138231
755 4 0.279066 0.271064 0.114717
756 4 0.284806 0.287068 0.161745
623 4 0.359068 0.312294 0.109609
322 2 0.399358 0.282322 0.0951012
622 2 0.35174 0.291674 0.121704
624 4 0.344411 0.271054 0.133799
765 4 0.343095 0.27378 0.15397
324 4 0.382848 0.279999 0.113734
313 2 0.0360117 0.417997 0.0912858
620 4 0.00890674 0.369325 0.164384
619 2 0.00454597 0.379996 0.142196
455 4 0.122119 0.339483 0.154708
483 4 0.192063 0.346901 0.0847466
626 4 0.277173 0.382591 0.130085
625 2 0.277026 0.379011 0.10534
627 4 0.276878 0.375431 0.0805941
387 4 0.311549 0.353005 0.150828
385 2 0.330924 0.354638 0.135108
302 4 0.322018 0.353745 0.168972
609 4 0.345048 0.357588 0.0998985
740 4 0.363254 0.354591 0.105239
741 4 0.412778 0.351864 0.0988636
386 4 0.350299 0.356271 0.119388
739 2 0.388016 0.353227 0.102051
13 3 0.416494 0.383482 0.138308
528 4 0.490986 0.336721 0.110775
672 4 0.425007 0.34596 0.096789
15 3 0.428616 0.397676 0.105609
11 1 0.4314 0.380866 0.120719
526 2 0.480089 0.355165 0.123668
12 3 0.427318 0.360692 0.110448
14 3 0.453181 0.380939 0.128718
495 4 0.470203 0.387676 0.138334
493 2 0.475653 0.411042 0.131301
527 4 0.469192 0.373609 0.136562
597 4 0.480709 0.383043 0.150367
645 4 0.462033 0.380372 0.150268
1788 4 0.0305134 0.490579 0.123481
314 4 0.0285141 0.439106 0.102394
1787 4 0.0455514 0.444025 0.113124
1786 2 0.0380324 0.467302 0.118302
1466 4 0.0177045 0.498036 0.13561
639 4 0.258215 0.497211 0.134143
637 2 0.260888 0.479935 0.15202
494 4 0.481104 0.434409 0.124267
20 3 0.0684369 0.0599816 0.192521
16 1 0.0486585 0.0660544 0.183004
18 3 0.0317055 0.0653347 0.19883
450 4 0.119355 0.0659062 0.1927
673 2 0.10954 0.0105375 0.226005
674 4 0.104061 0.0310116 0.23927
448 2 0.139997 0.0792334 0.188066
1505 4 0.233135 0.0685846 0.174518
689 4 0.228639 0.0580659 0.189608
688 2 0.221538 0.034495 0.193985
28 3 0.234459 0.072377 0.193553
690 4 0.214437 0.0109241 0.198363
692 4 0.222072 0.0767331 0.184729
27 3 0.25562 0.0693489 0.224467
759 4 0.405707 0.0372826 0.173007
22 3 0.39624 0.0378012 0.229511
312 4 0.399358 0.0498926 0.179761
310 2 0.379922 0.0650017 0.175387
25 3 0.407268 0.0394651 0.193895
21 1 0.413652 0.0338212 0.215015
24 3 0.419128 0.0112895 0.215875
1496 4 0.42285 0.996844 0.229272
23 3 0.431873 0.0466539 0.221474
744 4 0.437227 0.0319645 0.233155
742 2 0.455814 0.0348826 0.249623
17 3 0.0504046 0.0875303 0.174948
511 2 0.00513048 0.150853 0.235725
513 4 0.0290731 0.157084 0.239346
449 4 0.160639 0.0925606 0.183433
721 2 0.166019 0.126702 0.203591
722 4 0.167316 0.142 0.223326
723 4 0.164722 0.111405 0.183855
546 4 0.165495 0.160326 0.230331
236 4 0.162462 0.101868 0.166606
691 2 0.199337 0.0866944 0.181719
693 4 0.176602 0.0966557 0.178709
29 3 0.233054 0.0991427 0.220498
26 1 0.246787 0.0841856 0.209269
30 3 0.263745 0.0954031 0.19901
580 2 0.299409 0.0823239 0.173917
581 4 0.279584 0.0888321 0.187694
311 4 0.360486 0.0801108 0.171012
333 4 0.463894 0.160421 0.220823
331 2 0.466724 0.178726 0.237619
395 4 0.0461889 0.268837 0.244002
704 4 0.0279091 0.313666 0.195996
749 4 0.051595 0.286672 0.23433
748 2 0.0727009 0.278332 0.223835
750 4 0.0938068 0.269992 0.213339
703 2 0.0232753 0.333636 0.181682
363 4 0.135059 0.270836 0.165473
361 2 0.159497 0.276047 0.166368
372 4 0.188331 0.297599 0.177723
362 4 0.183935 0.281257 0.167263
370 2 0.204352 0.289016 0.194894
371 4 0.220372 0.280433 0.212065
279 4 0.239781 0.276448 0.204213
610 2 0.292641 0.323656 0.169661
612 4 0.279755 0.302486 0.17297
278 4 0.283356 0.285565 0.181436
277 2 0.261569 0.281007 0.192824
344 4 0.277808 0.328035 0.244103
343 2 0.290517 0.306924 0.248345
307 2 0.341784 0.27954 0.23271
764 4 0.364541 0.282616 0.198272
309 4 0.361339 0.276864 0.217361
763 2 0.353818 0.278198 0.176121
2694 4 0.0128797 0.412571 0.222518
705 4 0.0186415 0.353606 0.167368
648 4 0.0255928 0.372444 0.173266
647 4 0.0260349 0.401963 0.213629
646 2 0.0258138 0.387204 0.193448
454 2 0.133606 0.355738 0.169841
456 4 0.145093 0.371993 0.184974
300 4 0.173957 0.348061 0.230877
611 4 0.305528 0.344826 0.166352
301 2 0.324177 0.367938 0.189444
303 4 0.326336 0.382132 0.209915
727 2 0.326062 0.376864 0.243535
729 4 0.337343 0.36938 0.222514
446 4 0.40585 0.344747 0.234295
445 2 0.420477 0.349234 0.214519
447 4 0.435104 0.353722 0.194743
643 2 0.448965 0.376558 0.171241
644 4 0.435897 0.372745 0.192214
603 4 0.027851 0.421518 0.216093
262 2 0.0681687 0.493219 0.245141
263 4 0.0529036 0.47444 0.251427
601 2 0.0401641 0.440533 0.226677
602 4 0.0524771 0.459547 0.237261
417 4 0.158264 0.496765 0.191944
415 2 0.164373 0.475464 0.180363
290 4 0.224691 0.436602 0.208721
289 2 0.205613 0.445252 0.195069
416 4 0.170481 0.454163 0.168782
291 4 0.186535 0.453903 0.181417
768 4 0.243491 0.428589 0.205384
413 4 0.186644 0.460565 0.250402
638 4 0.26356 0.462659 0.169897
767 4 0.278585 0.455377 0.181898
766 2 0.261038 0.441983 0.193641
660 4 0.388214 0.453858 0.232982
658 2 0.392455 0.448492 0.208932
659 4 0.396696 0.443126 0.184882
232 2 0.0283327 0.0301973 0.330532
233 4 0.0287563 0.0411477 0.308058
1402 2 0.0486419 0.0208138 0.278717
1403 4 0.0392191 0.040486 0.290939
316 2 0.062626 0.0684658 0.304893
317 4 0.0439061 0.0518965 0.305345
530 4 0.0256184 0.0529868 0.296055
529 2 0.00681954 0.0682579 0.289844
318 4 0.0813459 0.085035 0.30444
1404 4 0.0580647 0.0011416 0.266494
1699 2 0.224086 0.0305151 0.295666
1701 4 0.201708 0.0307182 0.306818
1700 4 0.246464 0.030312 0.284514
479 4 0.423105 0.0470656 0.334419
743 4 0.4744 0.0378007 0.266092
1749 4 0.447759 0.0101035 0.286656
480 4 0.449664 0.0295324 0.295846
478 2 0.436385 0.038299 0.315133
351 4 0.45641 0.0685669 0.265879
1747 2 0.466236 0.995154 0.29442
578 4 0.031549 0.142069 0.254197
577 2 0.0506045 0.125906 0.255103
397 2 0.0733626 0.120195 0.316143
579 4 0.0696601 0.109743 0.256009
399 4 0.0597743 0.137447 0.328098
398 4 0.0869509 0.102943 0.304188
732 4 0.143468 0.0931888 0.285683
600 4 0.160071 0.10043 0.294316
731 4 0.0937136 0.0921988 0.290609
730 2 0.118591 0.0926938 0.288146
598 2 0.182929 0.110559 0.29404
599 4 0.205787 0.120688 0.293763
248 4 0.325224 0.0918617 0.303285
247 2 0.316978 0.107972 0.320537
631 2 0.430158 0.148788 0.284049
632 4 0.443754 0.128386 0.288954
349 2 0.451596 0.0889799 0.279492
350 4 0.446782 0.109393 0.293105
452 4 0.455758 0.123352 0.302144
451 2 0.455827 0.124543 0.327119
444 4 0.0211898 0.239176 0.330702
544 2 0.163374 0.168263 0.253947
545 4 0.161253 0.176199 0.277562
392 4 0.159163 0.172549 0.296806
391 2 0.157098 0.191456 0.313038
393 4 0.155032 0.210362 0.32927
498 4 0.302212 0.254897 0.306279
633 4 0.416562 0.16919 0.279144
707 4 0.399181 0.173607 0.288242
706 2 0.379873 0.1732 0.304123
708 4 0.360565 0.172794 0.320004
521 4 0.485596 0.195478 0.262487
332 4 0.469554 0.197031 0.254414
762 4 0.472597 0.196793 0.27581
760 2 0.458814 0.197633 0.296655
761 4 0.445031 0.198473 0.317499
419 4 0.448339 0.216113 0.325773
394 2 0.0348321 0.274071 0.265654
442 2 0.0161687 0.25879 0.31603
2491 2 0.995741 0.308492 0.299974
443 4 0.0111475 0.278403 0.301358
396 4 0.0234753 0.279305 0.287306
2493 4 0.0148183 0.295897 0.289844
400 2 0.221911 0.297326 0.301452
401 4 0.212291 0.308345 0.281174
402 4 0.231531 0.286307 0.32173
377 4 0.288048 0.267825 0.313606
308 4 0.322229 0.282216 0.248059
345 4 0.303227 0.285814 0.252587
496 2 0.309206 0.267986 0.286155
497 4 0.3162 0.281074 0.266032
615 4 0.406175 0.315469 0.27108
613 2 0.385208 0.32022 0.283846
614 4 0.364241 0.324971 0.296613
543 4 0.425174 0.319569 0.277471
541 2 0.441619 0.324369 0.295684
542 4 0.458065 0.32917 0.313896
2536 2 0.49297 0.330625 0.316294
366 4 0.0453507 0.367795 0.309991
364 2 0.0321767 0.367243 0.331236
298 2 0.158151 0.351607 0.249923
299 4 0.142344 0.355153 0.26897
734 4 0.153087 0.348435 0.285423
733 2 0.155937 0.350118 0.310207
728 4 0.31478 0.384349 0.264556
434 4 0.320458 0.370831 0.278099
433 2 0.331651 0.374731 0.300114
435 4 0.342844 0.378631 0.32213
2538 4 0.470684 0.334315 0.327014
2924 4 0.455546 0.346442 0.32335
777 4 0.123231 0.457097 0.278582
775 2 0.11328 0.456452 0.301511
414 4 0.142819 0.460627 0.274487
548 4 0.0929481 0.46054 0.339425
776 4 0.103329 0.455807 0.32444
412 2 0.164731 0.460596 0.262445
437 4 0.333771 0.505579 0.266944
436 2 0.326741 0.496723 0.289245
3 3 0.311988 0.487346 0.329666
714 4 0.397795 0.478726 0.287985
712 2 0.412963 0.475252 0.307556
713 4 0.428131 0.471778 0.327128
427 2 0.0653506 0.997786 0.392092
234 4 0.027909 0.019247 0.353006
1782 4 0.105978 0.00957915 0.379367
429 4 0.0899805 5.10137e-05 0.38843
1780 2 0.117262 0.0283802 0.391382
1781 4 0.128546 0.0471812 0.403398
439 2 0.287278 0.0190154 0.374181
441 4 0.293451 0.0407697 0.363512
697 2 0.369405 0.00833645 0.350117
698 4 0.362427 0.0308274 0.358522
257 4 0.37527 0.0416985 0.368559
256 2 0.384016 0.0502388 0.39037
258 4 0.392763 0.058779 0.412182
459 4 0.0243487 0.130907 0.381334
457 2 0.0143109 0.153691 0.383644
685 2 0.143442 0.163727 0.378455
686 4 0.162016 0.155594 0.393084
320 4 0.249856 0.119134 0.391377
249 4 0.308731 0.124083 0.337788
403 2 0.314299 0.16841 0.341078
404 4 0.310498 0.143699 0.341387
683 4 0.292859 0.135045 0.339528
682 2 0.275635 0.128921 0.356587
684 4 0.25841 0.122798 0.373645
319 2 0.257488 0.12304 0.414865
453 4 0.455896 0.125733 0.352094
514 2 0.449697 0.12995 0.388266
515 4 0.463852 0.134902 0.368259
516 4 0.435542 0.124998 0.408274
2655 4 0.036542 0.244519 0.3426
390 4 0.0357692 0.24743 0.412957
2653 2 0.0345919 0.243861 0.367519
2654 4 0.0326419 0.243203 0.392438
458 4 0.00427311 0.176474 0.385953
388 2 0.0597232 0.241093 0.416309
2850 4 0.0229417 0.255946 0.402276
687 4 0.124867 0.17186 0.363825
275 4 0.197047 0.234485 0.340835
274 2 0.210909 0.255203 0.338884
405 4 0.318101 0.193121 0.340769
474 4 0.303511 0.20086 0.351945
472 2 0.295872 0.210384 0.373766
473 4 0.288234 0.219907 0.395586
489 4 0.273405 0.231361 0.403402
420 4 0.43763 0.235586 0.370571
717 4 0.431506 0.252035 0.377721
418 2 0.442985 0.225849 0.348172
269 4 0.437548 0.239605 0.390651
268 2 0.435996 0.226513 0.411896
2848 2 0.000934821 0.265449 0.409387
676 2 0.154921 0.31737 0.358257
678 4 0.157809 0.301154 0.377069
375 4 0.173642 0.29644 0.387445
276 4 0.224771 0.27592 0.336934
378 4 0.242873 0.278659 0.332114
510 4 0.230209 0.293978 0.339259
508 2 0.237063 0.313945 0.352659
373 2 0.1923 0.280146 0.390846
374 4 0.210959 0.263853 0.394247
509 4 0.243916 0.333911 0.366058
376 2 0.265461 0.273242 0.32286
715 2 0.41291 0.267474 0.384125
716 4 0.394314 0.282914 0.390528
365 4 0.0190027 0.36669 0.35248
2927 4 0.0142567 0.383213 0.361215
616 2 0.0388328 0.356549 0.38678
617 4 0.0263785 0.369626 0.369487
618 4 0.0512872 0.343471 0.404073
326 4 0.0667268 0.350655 0.415899
735 4 0.158786 0.351801 0.334991
677 4 0.152033 0.333585 0.339445
408 4 0.107129 0.40176 0.357163
325 2 0.0879597 0.362669 0.410421
327 4 0.109193 0.374682 0.404943
503 4 0.296776 0.347247 0.360708
502 2 0.292666 0.352714 0.384758
504 4 0.288556 0.358182 0.408808
751 2 0.412527 0.410059 0.365706
2923 2 0.444533 0.361738 0.339778
561 4 0.444977 0.384896 0.370182
752 4 0.432522 0.396184 0.359972
559 2 0.462776 0.389634 0.387091
2925 4 0.433519 0.377035 0.356206
560 4 0.480575 0.394372 0.404001
547 2 0.0681799 0.461345 0.336099
549 4 0.0434117 0.462151 0.332772
2463 4 0.0328274 0.467913 0.349045
2461 2 0.00856618 0.46244 0.351619
681 4 0.0699687 0.429311 0.385652
679 2 0.051048 0.437532 0.39978
680 4 0.0321273 0.445753 0.413908
1383 4 0.0282381 0.465491 0.410704
1381 2 0.018885 0.487525 0.403478
500 4 0.111399 0.466578 0.334894
406 2 0.107652 0.425811 0.350348
383 4 0.0854274 0.425206 0.39788
407 4 0.108176 0.449862 0.343532
499 2 0.119888 0.482356 0.352334
382 2 0.103294 0.434005 0.412998
669 4 0.309118 0.467168 0.374143
5 3 0.322772 0.477887 0.364478
1 1 0.329964 0.485356 0.344202
667 2 0.323009 0.457069 0.392316
668 4 0.336899 0.44697 0.410488
753 4 0.392532 0.423933 0.37144
587 4 0.398232 0.442743 0.376426
586 2 0.377299 0.444766 0.38995
4 3 0.345637 0.470651 0.335452
588 4 0.356366 0.446788 0.403474
594 4 0.422835 0.485043 0.373766
718 2 0.0538045 0.0558107 0.462003
720 4 0.0316338 0.0517654 0.472832
2236 2 0.0126015 0.016257 0.481726
2237 4 0.0196214 0.0402507 0.481278
1127 4 0.0355239 0.0509413 0.491163
719 4 0.0759753 0.059856 0.451174
368 4 0.130214 0.0463262 0.423174
367 2 0.113327 0.0554844 0.439179
369 4 0.096441 0.0646426 0.455184
1580 4 0.404477 0.00255072 0.455393
426 4 0.404986 0.0679916 0.424215
1579 2 0.41563 0.0187706 0.47081
1581 4 0.426784 0.0349905 0.486228
424 2 0.427867 0.058752 0.428249
425 4 0.450748 0.0495125 0.432283
259 2 0.0494813 0.146513 0.462631
260 4 0.0279245 0.150931 0.450759
261 4 0.0710382 0.142095 0.474504
1035 4 0.0710663 0.142889 0.493973
321 4 0.265119 0.126946 0.438353
466 2 0.32915 0.154227 0.47744
467 4 0.30904 0.16788 0.471579
468 4 0.349261 0.140573 0.483301
574 2 0.404264 0.116513 0.416356
576 4 0.386521 0.0996349 0.411307
575 4 0.422008 0.13339 0.421405
389 4 0.0836772 0.234757 0.41966
695 4 0.119645 0.236483 0.468819
857 4 0.211414 0.188468 0.50236
487 2 0.283804 0.250513 0.415658
411 4 0.292707 0.165228 0.460364
409 2 0.290313 0.188869 0.452584
410 4 0.287919 0.212511 0.444804
873 4 0.35719 0.239696 0.505873
3157 2 0.498232 0.184436 0.487046
3159 4 0.484205 0.175704 0.468279
305 4 0.466635 0.180793 0.474548
270 4 0.434444 0.213421 0.433141
306 4 0.438389 0.194052 0.435471
304 2 0.452512 0.187423 0.455009
471 4 0.0008185 0.255793 0.495431
348 4 0.0506593 0.304659 0.445268
346 2 0.0495635 0.326323 0.432833
694 2 0.125205 0.260705 0.471571
696 4 0.130765 0.284927 0.474324
10 3 0.13838 0.298695 0.471375
1260 4 0.150289 0.290322 0.47752
6 1 0.133135 0.320833 0.470357
7 3 0.128234 0.326466 0.448599
9 3 0.114583 0.325191 0.483594
1258 2 0.173322 0.286649 0.486528
1259 4 0.196356 0.282977 0.495537
266 4 0.310178 0.277815 0.436591
265 2 0.296848 0.296616 0.446287
267 4 0.283518 0.315417 0.455983
488 4 0.294203 0.269665 0.427915
871 2 0.361324 0.244237 0.481636
872 4 0.365459 0.248778 0.457398
583 2 0.46145 0.302927 0.449749
584 4 0.483283 0.306488 0.438095
585 4 0.439617 0.299367 0.461403
347 4 0.0484676 0.347988 0.420398
8 3 0.151152 0.333576 0.477528
711 4 0.168993 0.340408 0.471827
710 4 0.212024 0.35576 0.49216
803 4 0.227056 0.364606 0.501374
709 2 0.190508 0.348084 0.481993
802 2 0.229834 0.388068 0.493188
804 4 0.232612 0.41153 0.485002
334 2 0.370263 0.399237 0.489196
335 4 0.391895 0.388384 0.482914
240 4 0.399326 0.374117 0.496562
336 4 0.348632 0.41009 0.495478
2507 4 0.494557 0.396775 0.418738
2506 2 0.497419 0.391138 0.442929
539 4 0.127013 0.433402 0.445131
569 4 0.137707 0.433626 0.429857
538 2 0.124107 0.448377 0.464943
540 4 0.121201 0.463352 0.484754
384 4 0.121161 0.442805 0.428115
2244 4 0.128238 0.450271 0.498607
568 2 0.160326 0.427175 0.421374
1555 2 0.244601 0.497821 0.425368
570 4 0.182945 0.420723 0.412891
635 4 0.20161 0.473582 0.486811
634 2 0.208648 0.480152 0.463735
774 4 0.207761 0.486032 0.500219
636 4 0.215686 0.486723 0.44066
1556 4 0.269264 0.494552 0.422869
882 4 0.340215 0.475307 0.487086
880 2 0.34359 0.451913 0.495242
1126 2 0.0403789 0.0560302 0.515157
1128 4 0.045234 0.0611191 0.539151
939 4 0.0626169 0.0713309 0.534683
1057 2 0.125695 0.0371668 0.575825
1059 4 0.12299 0.0571298 0.561015
937 2 0.0853817 0.0707437 0.545007
938 4 0.108146 0.0701565 0.555332
1155 4 0.126424 0.0750259 0.556138
2430 4 0.224003 0.00601608 0.540974
341 4 0.210276 0.0208548 0.536962
340 2 0.218515 0.0439996 0.532313
342 4 0.226753 0.0671445 0.527663
1152 4 0.221779 0.0831687 0.539009
961 2 0.298403 0.0496293 0.569124
963 4 0.292523 0.0702455 0.556256
430 2 0.326883 0.0769224 0.530345
432 4 0.308148 0.0745707 0.546736
1181 4 0.28927 0.078861 0.539458
1180 2 0.264547 0.079861 0.535862
2196 4 0.313584 0.0124004 0.585092
842 4 0.396169 0.0384063 0.527054
841 2 0.37909 0.0545351 0.51849
843 4 0.362011 0.0706639 0.509925
1217 4 0.407975 0.0441825 0.542379
431 4 0.345618 0.079274 0.513955
2194 2 0.335987 0.00468691 0.577106
1216 2 0.43155 0.0499879 0.548353
1218 4 0.455125 0.0557933 0.554328
641 4 0.469353 0.0666229 0.543304
1062 4 0.493559 0.0383372 0.54933
1060 2 0.490485 0.016547 0.537459
1061 4 0.487412 0.994757 0.525588
1033 2 0.0842559 0.153268 0.512506
1153 2 0.14537 0.0910952 0.558963
1154 4 0.164317 0.107165 0.561788
1182 4 0.239824 0.080861 0.532266
1151 4 0.17979 0.10751 0.551056
1150 2 0.200785 0.0953395 0.545032
858 4 0.254301 0.166628 0.515941
898 2 0.373483 0.131469 0.577644
726 4 0.359765 0.0872734 0.502003
724 2 0.355718 0.111944 0.502407
899 4 0.386822 0.122821 0.558345
725 4 0.351671 0.136615 0.50281
640 2 0.471956 0.0767118 0.520575
642 4 0.474558 0.0868008 0.497846
1034 4 0.0974456 0.163648 0.531039
856 2 0.232858 0.177548 0.50915
906 4 0.404418 0.245169 0.567099
3065 4 0.465968 0.229824 0.541358
3064 2 0.486015 0.21924 0.53081
905 4 0.446292 0.230131 0.544271
904 2 0.425355 0.23765 0.555685
982 2 0.0923347 0.330637 0.51558
983 4 0.104009 0.317234 0.497994
651 4 0.249843 0.32439 0.529961
948 4 0.202777 0.283777 0.566808
946 2 0.189044 0.269411 0.581981
1239 4 0.328627 0.32846 0.55912
1237 2 0.332672 0.305235 0.567451
811 2 0.288975 0.330384 0.538589
812 4 0.266597 0.334133 0.528084
813 4 0.311353 0.326635 0.549095
954 4 0.40284 0.265064 0.569762
952 2 0.379304 0.273194 0.572023
1238 4 0.336717 0.28201 0.575782
953 4 0.355767 0.281324 0.574283
1136 4 0.0705946 0.351986 0.547175
1135 2 0.0804272 0.371071 0.559991
935 4 0.0125488 0.414662 0.532143
934 2 0.000670315 0.396967 0.519066
984 4 0.0806602 0.344039 0.533166
896 4 0.153372 0.392573 0.564441
895 2 0.129099 0.398447 0.565656
1137 4 0.0902598 0.390157 0.572807
897 4 0.104826 0.404321 0.566871
1041 4 0.0911434 0.408412 0.578678
1191 4 0.154626 0.373578 0.558856
649 2 0.231841 0.339065 0.520703
1190 4 0.200073 0.355979 0.547647
1189 2 0.177349 0.364778 0.553251
650 4 0.213838 0.35374 0.511444
925 2 0.449727 0.384433 0.559845
926 4 0.455036 0.390321 0.536132
3309 4 0.456396 0.387264 0.517317
927 4 0.444418 0.378545 0.583558
3307 2 0.475648 0.385205 0.501496
239 4 0.439121 0.38538 0.524672
663 4 0.447225 0.402526 0.52711
238 2 0.419223 0.379748 0.510617
1001 4 0.424839 0.38232 0.582204
2243 4 0.136898 0.440379 0.546855
2242 2 0.132568 0.445325 0.522731
1161 4 0.14071 0.43308 0.565794
1159 2 0.157486 0.450209 0.57289
773 4 0.19396 0.477858 0.547584
772 2 0.200861 0.481945 0.523901
1160 4 0.174262 0.467337 0.579987
1171 2 0.30214 0.444316 0.573404
1172 4 0.32445 0.455486 0.57503
1454 4 0.326482 0.486394 0.496057
1453 2 0.311384 0.501214 0.509384
929 4 0.337214 0.442607 0.582566
881 4 0.346964 0.42852 0.503399
1910 4 0.416913 0.48017 0.568824
1330 2 0.432574 0.482483 0.507785
1332 4 0.440272 0.459811 0.500579
661 2 0.447685 0.426927 0.521674
662 4 0.448146 0.451328 0.516239
943 2 0.0615425 0.0497235 0.628206
944 4 0.0551854 0.0701629 0.615284
2319 4 0.0709898 0.0125367 0.631535
945 4 0.0678996 0.0292841 0.641129
1058 4 0.128401 0.0172038 0.590635
1030 2 0.239573 0.0820501 0.599033
949 2 0.273536 0.00703561 0.600885
950 4 0.295075 0.0170229 0.593044
962 4 0.304283 0.0290131 0.581992
1032 4 0.258753 0.066437 0.595352
1005 4 0.331596 0.0687375 0.6523
1090 2 0.399448 0.013948 0.658318
1092 4 0.378656 0.0246974 0.649525
1091 4 0.42024 0.00319847 0.667111
2283 4 0.432682 0.994326 0.65329
43 3 0.46982 0.0554078 0.669777
1083 4 0.0503771 0.0886661 0.618633
1076 4 0.00327532 0.102965 0.658811
1081 2 0.0292501 0.0964302 0.629521
1082 4 0.00812308 0.104194 0.640409
1272 4 0.0741396 0.159271 0.602773
1221 4 0.141731 0.15687 0.614154
1270 2 0.0987222 0.160982 0.60701
1271 4 0.123305 0.162692 0.611247
1283 4 0.168395 0.0991858 0.632099
1031 4 0.220394 0.0976632 0.602714
909 4 0.171756 0.11415 0.644323
1284 4 0.202923 0.103155 0.596144
1282 2 0.185659 0.10117 0.614122
900 4 0.360144 0.140118 0.596943
809 4 0.462198 0.0931317 0.64592
810 4 0.419638 0.108405 0.624563
808 2 0.440918 0.100768 0.635242
879 4 0.0714777 0.16676 0.622173
878 4 0.0285104 0.190816 0.613464
877 2 0.049994 0.178788 0.617818
1199 4 0.00890349 0.191266 0.607805
1209 4 0.015114 0.253094 0.676007
1219 2 0.163322 0.169417 0.615415
1211 4 0.249474 0.177976 0.635398
1210 2 0.225865 0.182991 0.628868
1212 4 0.202256 0.188006 0.622337
1220 4 0.184912 0.181965 0.616677
796 2 0.181937 0.21867 0.622365
798 4 0.186798 0.195874 0.631412
797 4 0.177075 0.241467 0.613317
888 4 0.249208 0.186991 0.652489
791 4 0.33709 0.223198 0.606998
790 2 0.340976 0.244776 0.594978
1025 4 0.489578 0.173917 0.658165
1024 2 0.495443 0.195585 0.647152
1026 4 0.501309 0.217252 0.636139
1243 2 0.0190319 0.276012 0.649712
1245 4 0.0318867 0.263893 0.667406
1244 4 0.00617722 0.288131 0.632018
947 4 0.175312 0.255044 0.597154
792 4 0.344861 0.266354 0.582959
3264 4 0.00728698 0.408028 0.637832
3262 2 0.00625056 0.393738 0.658323
807 4 0.354544 0.380415 0.650738
1002 4 0.375871 0.388061 0.590562
1000 2 0.400355 0.385191 0.586383
930 4 0.361787 0.399118 0.584938
805 2 0.359959 0.388189 0.627599
806 4 0.365374 0.395963 0.60446
3240 4 0.0211251 0.412994 0.624874
3238 2 0.00633379 0.417834 0.605305
1039 2 0.0911998 0.42337 0.598713
991 2 0.110394 0.429396 0.654755
1040 4 0.0912562 0.438329 0.618749
993 4 0.0941874 0.440186 0.639068
1188 4 0.25998 0.437225 0.63736
1173 4 0.279829 0.433146 0.571779
1186 2 0.264816 0.43219 0.613351
1187 4 0.269653 0.427156 0.589341
1140 4 0.271565 0.447839 0.649958
891 4 0.330842 0.456249 0.593949
890 4 0.363335 0.49373 0.600284
928 2 0.349501 0.420862 0.583752
1909 2 0.399053 0.490963 0.582598
889 2 0.347088 0.47499 0.597116
1911 4 0.381194 0.501757 0.596372
1269 4 0.403 0.440089 0.637206
1267 2 0.417949 0.454663 0.650965
2991 4 0.00868451 0.0646704 0.713912
864 4 0.0162854 0.0805241 0.720033
1077 4 0.0154732 0.0791191 0.70104
1004 4 0.369348 0.0374745 0.662208
1003 2 0.350472 0.053106 0.657254
41 1 0.469881 0.0760523 0.68037
42 3 0.49098 0.0801381 0.688575
1163 4 0.501671 0.0662617 0.698063
44 3 0.454852 0.0759297 0.698048
2321 4 0.50144 0.0150671 0.739133
1162 2 0.506576 0.0481941 0.714636
1164 4 0.511481 0.0301265 0.73121
862 2 0.026139 0.100298 0.731742
1075 2 0.00937428 0.0910423 0.679925
907 2 0.179041 0.111111 0.668048
908 4 0.186326 0.108071 0.691773
1226 4 0.182057 0.102644 0.759811
1227 4 0.181814 0.115613 0.711515
1225 2 0.181935 0.109129 0.735663
831 4 0.29418 0.142597 0.723629
1299 4 0.305936 0.128158 0.734669
1297 2 0.328786 0.13613 0.740956
829 2 0.283391 0.163681 0.715614
45 3 0.464302 0.0924112 0.665541
852 4 0.03764 0.218781 0.727722
850 2 0.05954 0.207305 0.723997
1208 4 0.0413889 0.224938 0.707906
1207 2 0.0282514 0.239016 0.691957
1107 4 0.0830285 0.182222 0.734455
851 4 0.0814399 0.19583 0.720271
1105 2 0.107649 0.185363 0.737479
1072 2 0.144097 0.224382 0.746832
1106 4 0.132269 0.188504 0.740503
1073 4 0.140761 0.201377 0.737623
1131 4 0.211551 0.216907 0.733282
1277 4 0.216991 0.235593 0.735881
1129 2 0.199347 0.198252 0.744605
886 2 0.258764 0.193339 0.674705
830 4 0.272602 0.184764 0.707598
887 4 0.268321 0.199688 0.69692
976 2 0.284664 0.217889 0.729627
978 4 0.270763 0.201483 0.716869
977 4 0.298565 0.234295 0.742386
918 4 0.286221 0.249815 0.737793
1192 2 0.387729 0.225425 0.739327
1194 4 0.385472 0.23807 0.717875
1179 4 0.990738 0.2917 0.749061
1177 2 0.98915 0.266908 0.751897
1074 4 0.147432 0.247387 0.756041
820 2 0.147909 0.316778 0.690529
822 4 0.149863 0.291969 0.692948
1276 2 0.215695 0.257745 0.747404
916 2 0.302114 0.266223 0.747958
1263 4 0.435853 0.261266 0.728511
893 4 0.0721839 0.403348 0.716966
892 2 0.0838376 0.385049 0.729396
1280 4 0.0567609 0.411795 0.726986
3263 4 0.00521415 0.379447 0.678815
821 4 0.145955 0.341588 0.688109
894 4 0.0954913 0.36675 0.741827
940 2 0.129707 0.355374 0.724452
941 4 0.146225 0.35122 0.706147
1067 4 0.150155 0.359722 0.689541
942 4 0.113189 0.359527 0.742758
1028 4 0.214134 0.377098 0.671315
1027 2 0.22927 0.393615 0.682419
1066 2 0.172221 0.368929 0.682229
1068 4 0.194288 0.378137 0.674918
1029 4 0.244405 0.410131 0.693523
1204 2 0.414125 0.408689 0.740819
1279 2 0.0465466 0.432922 0.718355
1281 4 0.0363323 0.454048 0.709723
1983 4 0.0438786 0.470793 0.701294
1981 2 0.0556351 0.491498 0.708926
1982 4 0.0673915 0.512204 0.716559
992 4 0.126602 0.418605 0.670441
1139 4 0.259645 0.421963 0.691057
1138 2 0.265605 0.434901 0.670507
1988 4 0.313724 0.459374 0.745497
1987 2 0.330195 0.462952 0.727028
1230 4 0.402326 0.43836 0.729473
1228 2 0.384466 0.45285 0.719662
1229 4 0.366606 0.467339 0.709851
1989 4 0.346666 0.466531 0.70856
1206 4 0.415626 0.4241 0.721187
1268 4 0.432898 0.469236 0.664724
3330 4 0.498755 0.440284 0.699885
2168 4 0.447279 0.480972 0.670041
1100 4 0.446075 0.46335 0.677535
1099 2 0.465732 0.448495 0.681786
1101 4 0.48539 0.433639 0.686038
2049 4 0.130029 0.00922396 0.781924
1203 4 0.0975307 0.0435796 0.819296
1202 4 0.121472 0.0268816 0.778692
1201 2 0.109501 0.0352306 0.798994
1257 4 0.247567 0.0866833 0.797874