ITEM: TIMESTEP
1770000
ITEM: NUMBER OF ATOMS
4590
ITEM: BOX BOUNDS pp pp pp
-9.9985700000000008e+00 9.9985700000000008e+00
-9.9985700000000008e+00 9.9985700000000008e+00
-9.9985700000000008e+00 9.9985700000000008e+00
ITEM: ATOMS id type xs ys zs
463 2 0.0169614 0.034596 0.037227
465 4 0.03243 0.049278 0.0502784
1667 4 0.0394293 0.0551285 0.0671009
701 4 0.040224 0.0642382 0.0500665
590 4 0.0242873 0.0650552 0.060974
700 2 0.062165 0.0747597 0.0443157
464 4 0.00149278 0.0199139 0.0241756
2184 4 0.0754648 0.0173438 0.00205309
994 2 0.145373 0.0302711 0.0170013
996 4 0.129434 0.0110094 0.0166471
995 4 0.161312 0.0495328 0.0173556
567 4 0.172518 0.0646136 0.0203183
533 4 0.177252 0.0526203 0.00605036
1475 4 0.22442 0.017387 0.0175128
492 4 0.310972 0.0245589 0.00526604
490 2 0.326391 0.0357855 0.0214341
2264 4 0.295125 0.0153344 0.0103168
491 4 0.34181 0.047012 0.0376021
557 4 0.356525 0.0574107 0.0434534
296 4 0.354568 0.0397669 0.0498584
295 2 0.361263 0.02643 0.0699205
556 2 0.377896 0.0694398 0.0385829
1607 4 0.398114 0.0065956 0.0189682
558 4 0.399268 0.0814689 0.0337125
589 2 0.0132391 0.086031 0.0689195
591 4 0.00219102 0.107007 0.076865
2760 4 0.00679612 0.123972 0.0668536
702 4 0.084106 0.0852811 0.0385648
423 4 0.0947159 0.0974123 0.0273207
421 2 0.113116 0.09643 0.0104199
565 2 0.180013 0.0866191 0.0295249
566 4 0.187508 0.108625 0.0387315
745 2 0.436956 0.0888269 0.0143008
746 4 0.416649 0.0897926 0.0288571
827 4 0.44913 0.166584 0.0164252
770 4 0.46501 0.162214 0.0267507
554 4 0.039322 0.212824 0.0343844
553 2 0.0584231 0.220928 0.0204327
555 4 0.0775241 0.229032 0.00648107
1055 4 0.0797728 0.248399 0.00196072
836 4 0.0950376 0.236331 0.00387216
835 2 0.11852 0.244293 0.00709206
665 4 0.344576 0.222993 0.0121722
664 2 0.342578 0.236177 0.0333232
666 4 0.340579 0.249361 0.0544743
771 4 0.44776 0.171702 0.0727196
769 2 0.456385 0.166958 0.0497352
1013 4 0.467617 0.16656 0.00839924
656 4 0.00349928 0.260646 0.063204
837 4 0.142002 0.252256 0.010312
294 4 0.135209 0.265886 0.0451002
292 2 0.137988 0.288781 0.0354421
293 4 0.140768 0.311676 0.0257839
288 4 0.135946 0.329921 0.0240034
507 4 0.145754 0.323834 0.0401888
357 4 0.237367 0.313902 0.0135812
355 2 0.223403 0.295395 0.00421858
572 4 0.329343 0.265305 0.0606208
571 2 0.312044 0.263541 0.0785875
461 4 0.346851 0.261975 0.0669271
1071 4 0.3785 0.307079 0.0246153
1069 2 0.400005 0.296844 0.0322277
956 4 0.376407 0.324171 0.0124022
460 2 0.369433 0.25646 0.0761381
955 2 0.356642 0.312993 0.00193376
322 2 0.423153 0.267962 0.0715173
1070 4 0.42151 0.286608 0.0398401
323 4 0.435758 0.276885 0.0518536
280 2 0.472664 0.315469 0.0338274
282 4 0.486315 0.31693 0.0129308
281 4 0.459012 0.314007 0.054724
671 4 0.454199 0.320506 0.0717548
315 4 0.054509 0.393784 0.0448036
313 2 0.0435568 0.409388 0.0609824
286 2 0.121766 0.345166 0.0101573
505 2 0.159089 0.3398 0.0540616
506 4 0.172423 0.355766 0.0679344
483 4 0.183905 0.340968 0.0738481
525 4 0.331247 0.39245 0.0583412
523 2 0.325427 0.409716 0.0754632
608 4 0.348164 0.381791 0.0673756
251 4 0.353581 0.391933 0.00204035
250 2 0.351142 0.391981 0.0269246
252 4 0.348703 0.39203 0.0518089
314 4 0.0326047 0.424992 0.0771611
795 4 0.154971 0.4935 0.00459763
1440 4 0.23083 0.493873 0.0760583
245 4 0.247303 0.493306 0.0657027
244 2 0.267854 0.499522 0.052888
562 2 0.498502 0.479172 0.000867099
37 3 0.419821 0.434304 0.00135561
1666 2 0.0403025 0.0421828 0.0884743
1806 4 0.0594889 0.0219279 0.113864
1421 4 0.0475058 0.0329863 0.12394
1668 4 0.0411757 0.029237 0.109848
1420 2 0.0403516 0.0421334 0.146083
1416 4 0.0457375 0.0134448 0.119644
1805 4 0.10925 0.0172194 0.115414
1804 2 0.0843693 0.0195736 0.114639
1504 2 0.239535 0.0754313 0.146199
1505 4 0.219263 0.0704814 0.159973
690 4 0.201101 0.007849 0.163313
689 4 0.217462 0.0550847 0.164668
688 2 0.209282 0.0314669 0.16399
652 2 0.308208 0.0677683 0.126387
654 4 0.31825 0.0739938 0.148423
653 4 0.298167 0.0615428 0.104351
582 4 0.30811 0.0753012 0.164796
1506 4 0.259807 0.0803812 0.132425
297 4 0.367958 0.0130931 0.0899826
757 2 0.387546 0.0296417 0.147179
758 4 0.394037 0.0202329 0.124941
485 4 0.377174 0.00462085 0.105127
1759 2 0.493161 0.00575016 0.142428
235 2 0.15453 0.114586 0.136677
236 4 0.155506 0.0997772 0.1568
237 4 0.153554 0.129394 0.116553
737 4 0.162591 0.14457 0.125287
736 2 0.171468 0.166258 0.116569
285 4 0.288729 0.153774 0.162901
476 4 0.0782883 0.16929 0.155997
475 2 0.0776855 0.193661 0.161555
738 4 0.180346 0.187946 0.107852
283 2 0.287837 0.171284 0.145074
354 4 0.282543 0.20391 0.117534
352 2 0.282221 0.228317 0.112117
284 4 0.286944 0.188794 0.127248
254 4 0.408527 0.204616 0.122105
253 2 0.403674 0.22717 0.112466
462 4 0.392014 0.250945 0.0853491
255 4 0.39882 0.249725 0.102827
630 4 0.422602 0.20267 0.107726
629 4 0.452765 0.166903 0.090072
628 2 0.437684 0.184786 0.0988991
703 2 0.0054366 0.325026 0.163764
361 2 0.158042 0.267609 0.16432
481 2 0.194785 0.331658 0.0943448
535 2 0.208731 0.290008 0.13428
536 4 0.218618 0.307094 0.118934
482 4 0.205666 0.322348 0.114842
362 4 0.180017 0.273811 0.15413
537 4 0.198843 0.272922 0.149626
353 4 0.281899 0.252725 0.106699
573 4 0.294745 0.261776 0.0965542
754 2 0.286125 0.281225 0.132339
755 4 0.284361 0.271866 0.109221
756 4 0.28789 0.290584 0.155458
610 2 0.298348 0.329031 0.157155
612 4 0.283755 0.308862 0.154828
622 2 0.358416 0.308618 0.115621
624 4 0.355268 0.284393 0.120951
765 4 0.349906 0.283342 0.140693
324 4 0.410548 0.259039 0.091181
763 2 0.360368 0.280523 0.163227
623 4 0.361565 0.332843 0.110291
2652 4 0.492361 0.312606 0.113797
528 4 0.491774 0.322487 0.130827
670 2 0.446125 0.331864 0.0925155
705 4 0.004807 0.348358 0.154796
648 4 0.0125168 0.364216 0.164564
620 4 0.0140633 0.362277 0.145283
619 2 0.00120288 0.370671 0.125551
455 4 0.128966 0.404714 0.139223
454 2 0.122278 0.395036 0.161287
626 4 0.254453 0.379719 0.142427
627 4 0.284105 0.411911 0.118237
625 2 0.269279 0.395815 0.130332
387 4 0.327787 0.36303 0.15803
611 4 0.312942 0.3492 0.159482
385 2 0.343729 0.356576 0.139881
607 2 0.355066 0.365791 0.0853075
609 4 0.361968 0.349791 0.103239
740 4 0.37465 0.342765 0.118677
386 4 0.359672 0.350123 0.121732
739 2 0.399638 0.343302 0.119365
741 4 0.424627 0.343838 0.120053
13 3 0.42547 0.376348 0.155109
672 4 0.438052 0.343221 0.113276
15 3 0.438855 0.396815 0.12648
11 1 0.441024 0.377239 0.137914
526 2 0.48614 0.34512 0.139836
12 3 0.437283 0.359639 0.123583
14 3 0.462487 0.37545 0.146548
495 4 0.480906 0.382794 0.147663
493 2 0.486601 0.404796 0.13724
527 4 0.480505 0.367754 0.148844
597 4 0.496743 0.375958 0.157837
645 4 0.476455 0.377479 0.16067
1788 4 0.0257336 0.476919 0.121819
1787 4 0.0289046 0.442747 0.0854471
1786 2 0.0273191 0.459833 0.103633
1466 4 0.02873 0.477567 0.141368
1791 4 0.0271557 0.494313 0.130433
1465 2 0.0152665 0.478738 0.162405
524 4 0.319607 0.426983 0.0925853
637 2 0.255568 0.480493 0.152645
639 4 0.255792 0.49756 0.134374
494 4 0.492297 0.426798 0.126817
1422 4 0.0331975 0.0512806 0.168227
1799 4 0.0384504 0.000455902 0.244262
2480 4 0.0150935 0.0532094 0.169249
19 3 0.025351 0.0515788 0.185933
20 3 0.0574776 0.0407941 0.202341
16 1 0.0385541 0.0531944 0.204945
18 3 0.0267117 0.0457723 0.223467
675 4 0.0724254 0.0317185 0.193817
17 3 0.0443177 0.0752328 0.208145
673 2 0.0881025 0.020832 0.209969
450 4 0.111476 0.0585842 0.185514
448 2 0.127966 0.075791 0.177951
674 4 0.10378 0.00994552 0.226121
28 3 0.220529 0.0637633 0.178665
692 4 0.206991 0.0706884 0.171838
26 1 0.231116 0.0690807 0.198616
29 3 0.21608 0.079186 0.213114
27 3 0.238908 0.0497197 0.20829
691 2 0.183877 0.0801607 0.172939
311 4 0.325664 0.0694637 0.1667
580 2 0.288424 0.0810219 0.179111
759 4 0.381055 0.0390505 0.169416
310 2 0.344898 0.0548146 0.173076
22 3 0.378904 0.0458427 0.223009
312 4 0.364131 0.0401654 0.179453
25 3 0.3795 0.0399626 0.186159
21 1 0.386648 0.0320707 0.20629
24 3 0.378401 0.0106651 0.209783
23 3 0.409841 0.0318239 0.206915
1496 4 0.383506 0.0064176 0.229198
744 4 0.424631 0.0418245 0.216432
742 2 0.441105 0.0540641 0.230715
743 4 0.457578 0.0663037 0.244998
511 2 0.0151681 0.137645 0.22404
513 4 0.0399832 0.136339 0.226812
578 4 0.0590295 0.129231 0.22793
449 4 0.144455 0.0929979 0.170389
723 4 0.157204 0.108312 0.17366
721 2 0.156121 0.123931 0.193155
722 4 0.155039 0.13955 0.21265
693 4 0.160763 0.089633 0.174039
546 4 0.158426 0.158614 0.219377
544 2 0.172026 0.152513 0.239451
30 3 0.24865 0.0830549 0.194624
581 4 0.268738 0.0867426 0.193426
351 4 0.466891 0.0840117 0.244875
477 4 0.0770828 0.218032 0.167112
339 4 0.0938139 0.229446 0.171589
337 2 0.107237 0.249575 0.1779
333 4 0.444944 0.17766 0.233825
331 2 0.465072 0.181046 0.248268
395 4 0.0344052 0.26724 0.223487
749 4 0.0524949 0.271091 0.215214
748 2 0.0773825 0.270951 0.217615
394 2 0.0211647 0.268513 0.244659
704 4 0.00606619 0.301695 0.172731
363 4 0.136068 0.261408 0.174511
338 4 0.12066 0.269704 0.18421
750 4 0.10227 0.270812 0.220016
300 4 0.134735 0.312894 0.233375
372 4 0.192265 0.275276 0.168785
370 2 0.210429 0.269945 0.185119
371 4 0.228593 0.264613 0.201454
279 4 0.247938 0.272769 0.199876
278 4 0.282312 0.296371 0.172271
277 2 0.265125 0.28457 0.186074
344 4 0.285659 0.308641 0.222047
343 2 0.306349 0.296397 0.228913
345 4 0.32704 0.284153 0.23578
308 4 0.344748 0.275573 0.239371
307 2 0.361753 0.274361 0.221081
764 4 0.37083 0.277704 0.185761
309 4 0.378758 0.273149 0.20279
613 2 0.392142 0.324254 0.246886
2692 2 0.00328356 0.399002 0.232346
2694 4 0.0157592 0.407515 0.21242
647 4 0.023736 0.40334 0.193619
646 2 0.0181264 0.383778 0.179092
456 4 0.115591 0.385359 0.183351
302 4 0.320286 0.35716 0.175128
301 2 0.312853 0.370758 0.194749
303 4 0.30542 0.384357 0.21437
727 2 0.297141 0.392411 0.249925
729 4 0.297206 0.398753 0.225739
614 4 0.387533 0.334611 0.2246
446 4 0.399432 0.350879 0.222558
445 2 0.421902 0.354695 0.212277
447 4 0.444372 0.358512 0.201995
643 2 0.46804 0.374237 0.18399
644 4 0.459626 0.370995 0.207311
603 4 0.0273944 0.419154 0.203548
262 2 0.0785148 0.483173 0.236826
263 4 0.0604766 0.466 0.23904
601 2 0.0435539 0.433356 0.21629
602 4 0.0597134 0.447557 0.229033
1467 4 0.00180298 0.479908 0.183441
415 2 0.148813 0.480802 0.202593
416 4 0.15617 0.471378 0.224553
417 4 0.141456 0.490226 0.180633
413 4 0.157921 0.461022 0.239863
290 4 0.209811 0.435966 0.206937
289 2 0.18832 0.445176 0.215796
291 4 0.166829 0.454386 0.224656
768 4 0.220481 0.425847 0.193277
766 2 0.242263 0.43668 0.1875
638 4 0.255345 0.463426 0.170917
767 4 0.264045 0.447512 0.181722
660 4 0.341101 0.465777 0.19779
658 2 0.355342 0.452 0.213041
659 4 0.369582 0.438224 0.228292
1404 4 0.0363571 0.00416522 0.264462
232 2 0.0140938 0.0527849 0.320221
233 4 0.01781 0.0623098 0.297403
1402 2 0.0300071 0.0260242 0.274808
1403 4 0.0236571 0.0478831 0.285154
316 2 0.0504922 0.0826988 0.285102
317 4 0.0323377 0.0655081 0.285371
530 4 0.0132306 0.0642401 0.281039
1700 4 0.150614 0.00369073 0.302147
1699 2 0.172163 0.00113662 0.289727
479 4 0.441831 0.0670347 0.32061
1749 4 0.471175 0.0175911 0.294555
480 4 0.454122 0.0208467 0.305903
478 2 0.447977 0.0439407 0.313257
318 4 0.0686467 0.0998894 0.284833
577 2 0.0673228 0.121903 0.250351
397 2 0.0722709 0.136712 0.30691
579 4 0.0756161 0.114576 0.272772
398 4 0.071687 0.117497 0.290922
399 4 0.0728547 0.155927 0.322898
731 4 0.0868774 0.104956 0.284927
732 4 0.136563 0.100155 0.287932
600 4 0.155915 0.0988508 0.29305
730 2 0.11172 0.102556 0.28643
598 2 0.167557 0.119119 0.284169
599 4 0.179198 0.139387 0.275289
545 4 0.185627 0.146411 0.259525
392 4 0.172241 0.156647 0.271649
247 2 0.314492 0.111143 0.299384
249 4 0.303543 0.125382 0.316779
404 4 0.296409 0.140148 0.326451
683 4 0.285666 0.123474 0.322836
248 4 0.325441 0.0969039 0.28199
633 4 0.401742 0.14032 0.273985
707 4 0.393015 0.149571 0.290864
706 2 0.370235 0.159066 0.294879
631 2 0.425858 0.135543 0.278543
632 4 0.449974 0.130766 0.2831
349 2 0.464237 0.0995922 0.26425
350 4 0.461584 0.115173 0.283625
452 4 0.46479 0.129759 0.295485
451 2 0.463902 0.126692 0.320284
444 4 0.00923142 0.230323 0.315731
442 2 0.00454897 0.249024 0.299808
2655 4 0.0116709 0.23886 0.332278
393 4 0.19552 0.189164 0.301673
391 2 0.18388 0.172905 0.286661
708 4 0.347456 0.168562 0.298894
332 4 0.4852 0.184431 0.26271
521 4 0.493189 0.176833 0.279853
762 4 0.478211 0.18815 0.28001
760 2 0.469704 0.196873 0.301844
761 4 0.461198 0.205596 0.323678
419 4 0.449061 0.221364 0.322016
396 4 0.00792433 0.269785 0.265831
298 2 0.135158 0.313933 0.258353
733 2 0.13552 0.308013 0.318421
734 4 0.122438 0.307434 0.297121
299 4 0.135582 0.314972 0.283331
400 2 0.224783 0.296916 0.301934
401 4 0.211632 0.296512 0.280672
402 4 0.237933 0.29732 0.323196
498 4 0.316994 0.271355 0.300435
377 4 0.301065 0.279577 0.306949
496 2 0.324166 0.273821 0.276609
497 4 0.331338 0.276287 0.252784
376 2 0.279392 0.288661 0.315491
378 4 0.257719 0.297744 0.324033
615 4 0.39675 0.313897 0.269172
543 4 0.402965 0.313699 0.288011
2537 4 0.492806 0.306345 0.266655
541 2 0.426662 0.320858 0.291529
542 4 0.450359 0.328017 0.295046
2536 2 0.480417 0.319653 0.283818
2538 4 0.468028 0.332961 0.300982
2924 4 0.45511 0.326496 0.313984
366 4 0.00380157 0.336391 0.289894
364 2 0.000300509 0.345066 0.313082
728 4 0.297075 0.38607 0.274111
434 4 0.299697 0.381333 0.293244
433 2 0.321261 0.378193 0.305504
435 4 0.342826 0.375054 0.317763
2923 2 0.454997 0.342908 0.332847
2463 4 0.0269064 0.472394 0.325844
412 2 0.150836 0.455268 0.263141
777 4 0.123882 0.453569 0.28453
775 2 0.112111 0.457783 0.306183
414 4 0.143751 0.449514 0.286419
776 4 0.100339 0.461997 0.327836
436 2 0.330734 0.497322 0.283046
1574 4 0.272299 0.497478 0.255259
438 4 0.322829 0.492688 0.30631
3 3 0.32007 0.495855 0.325322
4 3 0.355047 0.481011 0.326165
713 4 0.401293 0.462351 0.297651
712 2 0.42523 0.469555 0.297123
714 4 0.449168 0.476758 0.296595
234 4 0.0103777 0.04326 0.343039
1780 2 0.0973561 0.0148547 0.364185
1781 4 0.10726 0.0355219 0.374182
368 4 0.107714 0.0336357 0.39407
367 2 0.0991651 0.0522932 0.408352
321 4 0.215061 0.0757538 0.388061
441 4 0.254079 0.0112348 0.390076
698 4 0.363325 0.0151384 0.364607
257 4 0.360299 0.0294847 0.377969
256 2 0.374165 0.0352336 0.397965
2643 4 0.498246 0.0236893 0.356645
459 4 0.0130709 0.135142 0.377161
457 2 0.0270154 0.155835 0.375574
687 4 0.139753 0.163681 0.375553
319 2 0.232241 0.0842414 0.371998
320 4 0.24942 0.0927289 0.355935
682 2 0.275024 0.113338 0.343064
684 4 0.264381 0.103201 0.363292
403 2 0.301752 0.161844 0.337672
575 4 0.423663 0.136591 0.413179
453 4 0.463014 0.123625 0.345083
514 2 0.453925 0.129599 0.384875
515 4 0.467421 0.129189 0.363831
516 4 0.440428 0.13001 0.405919
458 4 0.04096 0.176528 0.373987
2653 2 0.00808539 0.244118 0.356458
2654 4 0.00449985 0.249375 0.380638
390 4 0.00325507 0.246441 0.401096
388 2 0.024914 0.23604 0.408015
389 4 0.0465729 0.225638 0.414935
685 2 0.151335 0.182478 0.387289
686 4 0.162917 0.201274 0.399024
275 4 0.232321 0.247319 0.358983
405 4 0.307094 0.183541 0.348893
474 4 0.301505 0.194928 0.365309
472 2 0.29131 0.200113 0.387543
473 4 0.281115 0.205299 0.409778
420 4 0.42217 0.235687 0.36167
418 2 0.435616 0.228525 0.341843
269 4 0.427617 0.244311 0.379231
268 2 0.430507 0.228632 0.398492
346 2 0.0543294 0.329976 0.411552
735 4 0.148603 0.308592 0.339721
677 4 0.164102 0.32139 0.347262
276 4 0.244913 0.290594 0.337316
510 4 0.24733 0.309994 0.334265
676 2 0.173573 0.304052 0.362588
678 4 0.183044 0.286715 0.377914
274 2 0.238617 0.268957 0.34815
375 4 0.196745 0.28732 0.392518
373 2 0.206766 0.286359 0.415405
508 2 0.253415 0.327797 0.350734
717 4 0.414094 0.251891 0.368307
716 4 0.407641 0.296354 0.34635
715 2 0.410867 0.274122 0.357329
616 2 0.0314965 0.358908 0.361795
617 4 0.0147522 0.360135 0.343267
618 4 0.0482408 0.357681 0.380324
326 4 0.0663946 0.360376 0.383764
347 4 0.0549215 0.349738 0.396245
325 2 0.0786598 0.382102 0.382107
327 4 0.0909251 0.403827 0.38045
408 4 0.100105 0.403323 0.362906
509 4 0.2595 0.3456 0.367203
503 4 0.25579 0.343553 0.387363
502 2 0.27164 0.334797 0.404604
753 4 0.398013 0.394178 0.358688
587 4 0.378015 0.391433 0.360469
586 2 0.364118 0.401719 0.378532
588 4 0.350221 0.412004 0.396595
751 2 0.42074 0.38455 0.354692
561 4 0.451205 0.367992 0.368384
752 4 0.443466 0.374922 0.350697
559 2 0.464744 0.363012 0.388807
2925 4 0.454884 0.359319 0.351711
560 4 0.478282 0.358032 0.409229
1381 2 0.0304735 0.498016 0.38571
549 4 0.0424584 0.480529 0.334481
547 2 0.064655 0.469769 0.338568
2461 2 0.00647786 0.470682 0.340159
1383 4 0.02328 0.483149 0.404482
548 4 0.0868515 0.459008 0.342655
500 4 0.103045 0.467823 0.345881
406 2 0.0997626 0.425581 0.35152
407 4 0.0994201 0.447839 0.340134
499 2 0.116374 0.48619 0.356378
5 3 0.327348 0.46555 0.346447
669 4 0.331075 0.469121 0.36626
1 1 0.335851 0.485138 0.338531
2 3 0.341215 0.498782 0.356257
667 2 0.340295 0.449698 0.379024
668 4 0.349515 0.430275 0.391788
718 2 0.0620368 0.0772904 0.450215
720 4 0.0470356 0.0712286 0.469278
2236 2 0.0191049 0.0441926 0.469468
2237 4 0.0424015 0.0525685 0.472973
719 4 0.077038 0.0833521 0.431152
1127 4 0.0445486 0.0653125 0.487642
369 4 0.0906161 0.0709507 0.422635
605 4 0.234867 0.0370842 0.457923
604 2 0.248974 0.0325264 0.478058
606 4 0.26308 0.0279687 0.498193
426 4 0.409678 0.0407583 0.41755
258 4 0.388032 0.0409825 0.417961
424 2 0.412236 0.0345156 0.441627
425 4 0.414795 0.028273 0.465703
259 2 0.0499336 0.142893 0.492301
260 4 0.0312088 0.14185 0.475765
466 2 0.316919 0.151238 0.476654
467 4 0.300109 0.16113 0.46101
468 4 0.333729 0.141345 0.492298
574 2 0.412289 0.117076 0.423901
576 4 0.400915 0.0975602 0.434622
725 4 0.352266 0.138228 0.500353
2878 2 0.497557 0.110989 0.470665
642 4 0.482526 0.0905304 0.490096
2880 4 0.489107 0.109226 0.494131
695 4 0.137957 0.233644 0.454569
489 4 0.285452 0.218417 0.422844
411 4 0.288772 0.176498 0.468615
409 2 0.281724 0.190284 0.448982
410 4 0.274677 0.20407 0.429349
487 2 0.287586 0.242244 0.43012
872 4 0.339579 0.233161 0.489483
270 4 0.433397 0.212953 0.417753
3157 2 0.479331 0.198655 0.491757
3159 4 0.465183 0.195257 0.471424
305 4 0.463161 0.184077 0.455342
306 4 0.430857 0.217661 0.437196
304 2 0.447009 0.200869 0.446269
348 4 0.0537372 0.310215 0.426859
694 2 0.137688 0.253299 0.470021
696 4 0.137419 0.272954 0.485474
10 3 0.137107 0.29226 0.477582
1260 4 0.145309 0.282318 0.493803
6 1 0.133205 0.313646 0.470796
7 3 0.127866 0.313641 0.448421
9 3 0.115456 0.322629 0.482741
8 3 0.152226 0.326553 0.473965
983 4 0.104034 0.328581 0.498725
374 4 0.216788 0.285397 0.438292
711 4 0.169771 0.315421 0.471974
709 2 0.191811 0.326261 0.476651
504 4 0.287491 0.326041 0.421845
266 4 0.306148 0.276438 0.441291
265 2 0.295055 0.298846 0.441351
267 4 0.283962 0.321254 0.441411
488 4 0.28972 0.26607 0.437395
871 2 0.351871 0.253673 0.482179
873 4 0.364162 0.274185 0.474875
2456 4 0.488144 0.277076 0.437768
583 2 0.45298 0.288681 0.459454
584 4 0.474255 0.291363 0.446594
585 4 0.431705 0.285999 0.472313
570 4 0.120553 0.394596 0.433095
568 2 0.106812 0.413263 0.442471
804 4 0.225516 0.400688 0.497624
710 4 0.213852 0.337101 0.481328
803 4 0.22573 0.352736 0.483436
802 2 0.225623 0.376712 0.49053
650 4 0.225932 0.33867 0.495997
240 4 0.402688 0.390408 0.480749
334 2 0.369102 0.402677 0.490559
335 4 0.383296 0.39075 0.473783
3308 4 0.490632 0.364508 0.477471
2508 4 0.49623 0.364527 0.459323
2507 4 0.468183 0.371897 0.418583
2506 2 0.482206 0.368212 0.438953
3307 2 0.476585 0.374788 0.49542
238 2 0.424122 0.38976 0.493608
680 4 0.0178105 0.491198 0.422079
679 2 0.0181014 0.470446 0.436023
681 4 0.0183923 0.449694 0.449967
383 4 0.0257428 0.436028 0.461292
382 2 0.050505 0.432842 0.459926
384 4 0.0752671 0.429656 0.45856
539 4 0.0886409 0.43212 0.47173
538 2 0.10305 0.438638 0.491097
569 4 0.0930712 0.431929 0.451848
1555 2 0.240825 0.48892 0.427433
636 4 0.209533 0.473993 0.449487
635 4 0.187662 0.487776 0.492294
1557 4 0.227129 0.473034 0.441043
634 2 0.198598 0.480884 0.470891
1453 2 0.301306 0.49635 0.49787
882 4 0.322125 0.464568 0.483815
1454 4 0.318048 0.484963 0.483201
880 2 0.339352 0.447571 0.490101
881 4 0.356579 0.430574 0.496387
1126 2 0.0554304 0.0615514 0.509837
1128 4 0.0663123 0.0577903 0.532032
939 4 0.0732106 0.0572323 0.550773
945 4 0.0446618 0.0282312 0.580691
1057 2 0.142421 0.0510612 0.575833
1059 4 0.127768 0.066992 0.563316
937 2 0.094262 0.0697231 0.555872
938 4 0.115313 0.0822138 0.560972
1524 4 0.112924 0.00843128 0.514348
341 4 0.214436 0.024839 0.542975
340 2 0.220434 0.0473663 0.533935
342 4 0.226432 0.0698936 0.524895
2430 4 0.209457 0.00969608 0.553812
1182 4 0.240823 0.0815368 0.526366
961 2 0.293488 0.0450673 0.57323
963 4 0.288418 0.0654705 0.559696
432 4 0.303381 0.0784896 0.552013
430 2 0.320515 0.0766623 0.533895
1181 4 0.284569 0.0816339 0.550595
1180 2 0.262696 0.0815853 0.538481
842 4 0.387516 0.0365591 0.5203
841 2 0.370841 0.0540175 0.513794
1217 4 0.400471 0.0457021 0.531415
1581 4 0.403431 0.0266422 0.525802
89 3 0.403529 0.0040055 0.565588
843 4 0.354167 0.0714759 0.507287
431 4 0.33765 0.074835 0.515778
87 3 0.369393 0.0019165 0.581177
1579 2 0.398602 0.00669931 0.511514
1216 2 0.424836 0.0511526 0.53007
1218 4 0.449202 0.0566031 0.528726
641 4 0.445389 0.0745835 0.519546
640 2 0.463957 0.082557 0.504821
1060 2 0.500133 0.0126291 0.522277
261 4 0.0686585 0.143937 0.508838
1155 4 0.13387 0.0835264 0.555898
1035 4 0.085073 0.156967 0.512099
1153 2 0.151892 0.0994934 0.549158
1154 4 0.169914 0.11546 0.542418
1152 4 0.224437 0.0906014 0.526905
1151 4 0.185161 0.121272 0.531082
1150 2 0.204799 0.105937 0.528994
898 2 0.35993 0.1598 0.566906
899 4 0.35945 0.142277 0.549076
726 4 0.343619 0.0891644 0.504678
724 2 0.347942 0.113696 0.502515
1033 2 0.0789909 0.169565 0.532824
1034 4 0.0729087 0.182162 0.553548
2916 4 0.00508077 0.237321 0.504218
858 4 0.212914 0.171484 0.533232
857 4 0.246964 0.205883 0.545801
856 2 0.229939 0.188683 0.539516
3065 4 0.471902 0.218734 0.571869
3064 2 0.482847 0.209867 0.55121
905 4 0.462697 0.236083 0.575999
904 2 0.440019 0.244835 0.570144
3158 4 0.49348 0.202053 0.512091
3066 4 0.493791 0.201 0.530552
471 4 5.38424e-05 0.256632 0.500001
1258 2 0.160841 0.284133 0.513313
948 4 0.205507 0.286592 0.581172
1259 4 0.176373 0.285948 0.532823
649 2 0.243558 0.32909 0.510921
651 4 0.261183 0.319511 0.525846
811 2 0.297134 0.326536 0.534434
1239 4 0.321195 0.307797 0.545507
812 4 0.2779 0.325149 0.518518
813 4 0.316368 0.327923 0.55035
1237 2 0.338868 0.2974 0.559817
1238 4 0.35654 0.287003 0.574126
952 2 0.392257 0.282953 0.57801
954 4 0.413787 0.2727 0.570493
906 4 0.417341 0.253587 0.564289
1136 4 0.069354 0.365375 0.54007
1135 2 0.0813161 0.373122 0.560614
984 4 0.0787668 0.36449 0.52266
935 4 0.00232259 0.401932 0.520575
1137 4 0.0932782 0.38087 0.581158
982 2 0.0914006 0.346536 0.510693
896 4 0.146299 0.415063 0.570883
895 2 0.127705 0.401234 0.580275
1191 4 0.151018 0.411094 0.552832
1189 2 0.163817 0.393968 0.539869
1190 4 0.176617 0.376842 0.526906
336 4 0.354908 0.414605 0.507336
925 2 0.438575 0.378773 0.54485
926 4 0.449555 0.390751 0.525847
3309 4 0.462538 0.385069 0.513369
927 4 0.427594 0.366796 0.563854
239 4 0.445556 0.389112 0.506466
663 4 0.453628 0.403709 0.515877
1001 4 0.421832 0.369647 0.583419
2243 4 0.152313 0.427728 0.555588
2242 2 0.136958 0.441585 0.541538
1161 4 0.163935 0.417317 0.565735
2244 4 0.121603 0.455441 0.527488
540 4 0.117459 0.445156 0.510464
1159 2 0.18206 0.428217 0.579072
772 2 0.18637 0.493513 0.526742
774 4 0.172194 0.487632 0.507003
1171 2 0.308574 0.448395 0.575536
1173 4 0.284535 0.452678 0.580917
1172 4 0.332613 0.444112 0.570154
2153 4 0.271684 0.497955 0.52438
929 4 0.348301 0.435993 0.562863
891 4 0.348088 0.454696 0.572149
889 2 0.361706 0.473126 0.582154
1331 4 0.394554 0.479679 0.503867
1330 2 0.413393 0.465376 0.511971
928 2 0.360579 0.417106 0.573714
661 2 0.452422 0.428195 0.520792
662 4 0.451215 0.452681 0.525708
1910 4 0.43483 0.488447 0.579588
1332 4 0.432232 0.451072 0.520075
943 2 0.0285886 0.0431713 0.592676
944 4 0.0125154 0.0581113 0.60466
2319 4 0.0437779 0.00908006 0.586362
1083 4 0.0175271 0.0773048 0.608181
1058 4 0.157074 0.0351304 0.588349
962 4 0.298559 0.0246641 0.586765
950 4 0.293901 0.0153155 0.60267
2196 4 0.313638 0.0179334 0.596136
1005 4 0.32652 0.0219722 0.645153
2194 2 0.3385 0.0153045 0.596526
2195 4 0.363362 0.0126755 0.596917
1090 2 0.397774 0.0324603 0.640005
1092 4 0.381059 0.0503802 0.644972
1004 4 0.368355 0.0447305 0.660404
1003 2 0.347437 0.0333514 0.652779
1091 4 0.414489 0.0145403 0.635037
2283 4 0.428218 0.00173555 0.628337
43 3 0.487321 0.073615 0.655783
44 3 0.455248 0.0553807 0.664905
1081 2 0.00681938 0.0916145 0.625667
879 4 0.0652076 0.162463 0.616758
1272 4 0.0834994 0.155644 0.618341
1221 4 0.147522 0.151934 0.605243
1271 4 0.131746 0.143557 0.613157
1270 2 0.107623 0.1496 0.615749
909 4 0.173925 0.113602 0.661848
1283 4 0.179536 0.129245 0.649704
1031 4 0.233968 0.0934848 0.625816
1284 4 0.21798 0.102238 0.632574
1282 2 0.198758 0.115741 0.641139
1030 2 0.256703 0.0978787 0.61638
1032 4 0.279437 0.102273 0.606945
45 3 0.455341 0.0928187 0.6609
809 4 0.451161 0.100687 0.643122
810 4 0.453953 0.147542 0.625873
808 2 0.452557 0.124114 0.634498
878 4 0.0170167 0.174183 0.610356
877 2 0.0411121 0.168323 0.613557
1219 2 0.163745 0.17074 0.608129
1211 4 0.234561 0.170645 0.647568
1210 2 0.215327 0.180152 0.634729
1212 4 0.196093 0.189659 0.62189
1220 4 0.179968 0.189546 0.611014
796 2 0.181225 0.230128 0.624283
798 4 0.184618 0.205582 0.620939
888 4 0.22489 0.17135 0.665633
900 4 0.360411 0.177322 0.584736
791 4 0.333683 0.245312 0.613608
1025 4 0.457569 0.212652 0.648888
1024 2 0.479471 0.224711 0.64873
1243 2 0.0267075 0.287808 0.6552
1244 4 0.019541 0.29695 0.633058
3044 4 0.00666453 0.284801 0.623141
797 4 0.177831 0.254673 0.627626
947 4 0.18331 0.274486 0.624316
946 2 0.194409 0.280539 0.602744
953 4 0.370727 0.293206 0.585527
792 4 0.363883 0.274362 0.586318
790 2 0.348783 0.259837 0.599963
1039 2 0.0770555 0.392011 0.61822
1040 4 0.0615651 0.392694 0.637835
993 4 0.0728836 0.395676 0.654046
897 4 0.109111 0.387405 0.589667
1041 4 0.0925459 0.391327 0.598605
807 4 0.338708 0.392968 0.641824
1000 2 0.402558 0.382598 0.592691
1002 4 0.383284 0.395549 0.601962
930 4 0.372856 0.39822 0.584564
805 2 0.352069 0.391726 0.620727
806 4 0.365431 0.390484 0.599629
1160 4 0.200184 0.439118 0.592409
1187 4 0.277085 0.444335 0.597464
1188 4 0.253134 0.440288 0.641176
1186 2 0.265109 0.442311 0.61932
1140 4 0.27059 0.440168 0.652288
1909 2 0.412843 0.492847 0.59065
1269 4 0.413117 0.434557 0.613737
890 4 0.375323 0.491555 0.592158
1911 4 0.390855 0.497248 0.601711
1267 2 0.427691 0.445194 0.631046
2168 4 0.439618 0.462781 0.664968
1268 4 0.442264 0.455832 0.648356
1100 4 0.446383 0.445596 0.665962
41 1 0.467519 0.0748581 0.667813
2321 4 0.495448 0.0208965 0.741171
42 3 0.472518 0.0772342 0.69014
1162 2 0.486084 0.0533183 0.71666
1163 4 0.482067 0.0761274 0.707237
1164 4 0.490102 0.0305092 0.726083
862 2 0.0135099 0.116891 0.743282
864 4 0.00365176 0.103727 0.724449
908 4 0.147144 0.0926174 0.698498
907 2 0.160535 0.10311 0.680173
1227 4 0.15313 0.0918267 0.717027
34 3 0.141513 0.152335 0.748898
1225 2 0.170737 0.0862649 0.733886
831 4 0.282584 0.139063 0.734639
1299 4 0.281796 0.124431 0.722419
1297 2 0.294656 0.110599 0.706034
1298 4 0.307516 0.0967663 0.68965
829 2 0.278197 0.161325 0.724135
839 4 0.275494 0.121863 0.74072
3426 4 0.486774 0.0889772 0.700841
852 4 0.0270249 0.214417 0.718696
850 2 0.0401214 0.195539 0.728559
1208 4 0.034947 0.223195 0.70328
1207 2 0.0349601 0.241662 0.686423
851 4 0.053218 0.176661 0.738422
1107 4 0.0719717 0.169384 0.738174
1072 2 0.128684 0.231156 0.740926
35 3 0.136064 0.189424 0.745377
1073 4 0.127928 0.206649 0.745825
1105 2 0.0945059 0.180067 0.739983
1106 4 0.11704 0.190749 0.741792
1130 4 0.182826 0.189146 0.738026
886 2 0.242546 0.175629 0.682813
33 3 0.171196 0.176014 0.74727
887 4 0.260201 0.179909 0.699992
830 4 0.273811 0.183587 0.713631
976 2 0.265548 0.218318 0.720103
978 4 0.2597 0.19579 0.710968
977 4 0.271395 0.240847 0.729237
918 4 0.277882 0.24134 0.747749
1192 2 0.390954 0.192264 0.741574
1194 4 0.404747 0.177422 0.726923
1209 4 0.0349733 0.260128 0.669566
1245 4 0.033874 0.278667 0.677342
1179 4 0.0461925 0.275534 0.745656
814 2 0.0688457 0.310888 0.744276
1177 2 0.0224319 0.268576 0.742163
815 4 0.0798296 0.332016 0.736651
1074 4 0.129439 0.255664 0.736027
820 2 0.162622 0.298646 0.697836
821 4 0.153919 0.321898 0.700799
941 4 0.145432 0.32895 0.71669
940 2 0.121634 0.327648 0.724249
1067 4 0.164059 0.331048 0.714945
942 4 0.0978356 0.326347 0.731808
822 4 0.171326 0.275394 0.694872
991 2 0.0651244 0.412321 0.671015
3275 4 0.0154187 0.341221 0.717842
893 4 0.0674996 0.379367 0.705854
1280 4 0.0662759 0.389806 0.721994
892 2 0.0775654 0.357322 0.712007
3263 4 0.0288924 0.413417 0.685174
1279 2 0.048541 0.406361 0.728044
894 4 0.0876312 0.335276 0.718161
1066 2 0.172013 0.35411 0.709463
1028 4 0.185825 0.393091 0.69597
1027 2 0.209956 0.399505 0.694647
1068 4 0.179967 0.377172 0.703982
1029 4 0.234086 0.405919 0.693324
1139 4 0.253087 0.414899 0.691732
1230 4 0.412916 0.395188 0.745222
1228 2 0.39637 0.406074 0.729961
1229 4 0.379824 0.41696 0.7147
1989 4 0.361372 0.41232 0.722589
3329 4 0.496321 0.415601 0.739263
1206 4 0.419483 0.375863 0.743117
1204 2 0.433705 0.356718 0.735607
1205 4 0.447926 0.337573 0.728096
3262 2 0.00899819 0.424554 0.67491
992 4 0.0573652 0.428966 0.687983
1982 4 0.0252917 0.487313 0.706211
1281 4 0.0308061 0.422915 0.734095
1983 4 0.0265199 0.440135 0.722748
1981 2 0.0259058 0.463724 0.71448
1138 2 0.261839 0.427533 0.67201
1987 2 0.343178 0.420573 0.737622
3328 2 0.496349 0.420563 0.714757
2169 4 0.424416 0.492285 0.702373
1101 4 0.490731 0.423242 0.67182
2167 2 0.432017 0.477533 0.68367
1099 2 0.468557 0.434419 0.668891
3330 4 0.496377 0.425526 0.690251
1202 4 0.157708 0.0144953 0.804367
1201 2 0.140002 0.0251175 0.818468
1203 4 0.122295 0.0357397 0.832569
2049 4 0.173054 0.00975412 0.791871
876 4 0.220761 0.073988 0.828634