ITEM: TIMESTEP
3050000
ITEM: NUMBER OF ATOMS
4590
ITEM: BOX BOUNDS pp pp pp
-9.9985700000000008e+00 9.9985700000000008e+00
-9.9985700000000008e+00 9.9985700000000008e+00
-9.9985700000000008e+00 9.9985700000000008e+00
ITEM: ATOMS id type xs ys zs
463 2 0.0416522 0.0263396 0.0326012
465 4 0.0379723 0.0413999 0.0522181
1667 4 0.0397456 0.0398731 0.0709579
701 4 0.0473303 0.0539031 0.0646284
590 4 0.0282509 0.0523667 0.0609901
589 2 0.0135936 0.0704605 0.051882
464 4 0.0453322 0.0112793 0.0129843
700 2 0.0702159 0.063461 0.0614549
702 4 0.0931016 0.0730188 0.0582813
995 4 0.150868 0.0811993 0.996041
490 2 0.359797 0.0151069 0.00984257
491 4 0.359672 0.0226225 0.0336895
557 4 0.372587 0.0328136 0.0460488
296 4 0.354279 0.0298645 0.0502353
556 2 0.393194 0.0424878 0.0563913
295 2 0.352233 0.0107382 0.0662095
558 4 0.4138 0.0521621 0.0667337
746 4 0.42953 0.0510536 0.0556501
745 2 0.445707 0.0541167 0.036832
747 4 0.461883 0.0571798 0.0180139
2975 4 0.476485 0.0704675 0.0167708
591 4 0.998936 0.0885542 0.0427738
566 4 0.160568 0.0934107 0.0570325
422 4 0.144369 0.0951063 0.0680098
565 2 0.162714 0.0859516 0.0332641
423 4 0.0952626 0.0927763 0.0588539
421 2 0.119816 0.0939413 0.0634319
567 4 0.164859 0.0784926 0.00949571
360 4 0.323117 0.122884 0.0357273
358 2 0.338856 0.120637 0.016429
1012 2 0.490574 0.146633 0.015889
827 4 0.453804 0.157197 0.0187453
2974 2 0.490204 0.0904491 0.0106311
1013 4 0.473669 0.16436 0.0209034
2976 4 0.503924 0.110431 0.0044914
554 4 0.0572172 0.223233 0.059791
553 2 0.0616535 0.24049 0.0422498
555 4 0.0660898 0.257747 0.0247086
1232 4 0.200535 0.253876 0.00285295
771 4 0.445303 0.179015 0.0769172
769 2 0.451913 0.175389 0.0530775
770 4 0.458524 0.171763 0.0292378
1055 4 0.0712903 0.25825 0.00656731
836 4 0.085548 0.254874 0.0192555
292 2 0.127368 0.318776 0.0196144
835 2 0.105636 0.269526 0.0166169
294 4 0.134479 0.299395 0.00550732
837 4 0.125724 0.284179 0.0139783
915 4 0.138171 0.281726 0.998621
355 2 0.213488 0.278301 0.0328432
356 4 0.198854 0.263609 0.018873
914 4 0.184841 0.264085 0.00200607
913 2 0.161506 0.272906 0.000313542
357 4 0.228122 0.292993 0.0468134
666 4 0.326164 0.264544 0.065564
665 4 0.288368 0.258966 0.0332976
664 2 0.307266 0.261755 0.0494308
461 4 0.342544 0.27156 0.0710276
324 4 0.398109 0.270938 0.0605766
460 2 0.366049 0.263315 0.0688477
462 4 0.389553 0.25507 0.0666677
255 4 0.40927 0.258314 0.069979
322 2 0.411575 0.291906 0.0585442
323 4 0.425042 0.312875 0.0565118
281 4 0.442913 0.314088 0.050707
280 2 0.462588 0.314791 0.0352941
282 4 0.482264 0.315494 0.0198812
671 4 0.434357 0.326908 0.0639963
1070 4 0.433142 0.330073 0.0472381
315 4 0.0746162 0.399242 0.0478967
330 4 0.0245667 0.363777 0.993124
287 4 0.0899895 0.382583 0.997348
293 4 0.120257 0.338156 0.0337214
507 4 0.129036 0.351211 0.0433359
505 2 0.13823 0.347156 0.0662317
288 4 0.121478 0.354647 0.0243439
286 2 0.105734 0.368615 0.010846
523 2 0.309003 0.387702 0.0543485
524 4 0.285628 0.393671 0.0477796
626 4 0.276424 0.400264 0.0639259
525 4 0.332378 0.381734 0.0609174
956 4 0.381886 0.337743 0.0111638
1069 2 0.41464 0.339499 0.0333091
608 4 0.340981 0.367221 0.0690873
252 4 0.336908 0.367594 0.0488812
250 2 0.357344 0.358673 0.0375688
251 4 0.377781 0.349753 0.0262564
1071 4 0.396139 0.348926 0.0193801
670 2 0.430774 0.342018 0.0835927
1787 4 0.072455 0.45943 0.0648503
314 4 0.0711955 0.441592 0.0742698
313 2 0.0729059 0.420417 0.0610832
793 2 0.148025 0.480029 0.0442142
795 4 0.140577 0.471963 0.02175
1224 4 0.135477 0.473438 0.00191337
794 4 0.155473 0.488095 0.0666785
242 4 0.166538 0.500803 0.0761038
245 4 0.228973 0.512869 0.0598117
1666 2 0.0391055 0.0276136 0.0927403
1806 4 0.0496671 0.0134337 0.131742
1421 4 0.0367305 0.0267165 0.129856
1668 4 0.0384654 0.0153541 0.114523
1420 2 0.0282082 0.0399459 0.149287
1416 4 0.0322437 0.00688029 0.127974
1422 4 0.0196858 0.0531753 0.168717
1804 2 0.0736641 0.0064117 0.13185
1805 4 0.0976612 0.99939 0.131958
449 4 0.158322 0.0824787 0.154898
688 2 0.232698 0.0612427 0.135473
690 4 0.238273 0.0435993 0.118656
689 4 0.227122 0.0788862 0.15229
1475 4 0.251142 0.0283077 0.118469
652 2 0.299793 0.0383489 0.1375
653 4 0.29465 0.0397098 0.113069
654 4 0.304937 0.036988 0.161931
1474 2 0.256366 0.0045249 0.112789
235 2 0.143971 0.103926 0.12499
237 4 0.139886 0.113988 0.102468
737 4 0.14654 0.131573 0.0936641
236 4 0.148056 0.0938633 0.147512
736 2 0.140023 0.155696 0.0927651
723 4 0.151696 0.0978918 0.165901
693 4 0.165348 0.0999381 0.156245
738 4 0.133506 0.179818 0.0918661
692 4 0.213621 0.0872868 0.153033
691 2 0.189485 0.0936124 0.154639
1505 4 0.230808 0.0944915 0.153864
1504 2 0.240354 0.116002 0.145416
1506 4 0.2499 0.137512 0.136968
285 4 0.237499 0.147166 0.125838
283 2 0.243285 0.17149 0.125897
284 4 0.249071 0.195815 0.125956
354 4 0.26532 0.207289 0.121801
352 2 0.277718 0.228733 0.125209
353 4 0.290115 0.250178 0.128617
629 4 0.453106 0.174229 0.0959768
253 2 0.417052 0.24673 0.0907256
630 4 0.434995 0.217728 0.112728
254 4 0.424834 0.235146 0.111472
628 2 0.44405 0.195978 0.104352
573 4 0.308951 0.254753 0.124056
755 4 0.301838 0.25845 0.141688
754 2 0.294635 0.277944 0.155592
571 2 0.323122 0.256419 0.103523
572 4 0.337293 0.258086 0.0829905
622 2 0.351947 0.321225 0.127497
624 4 0.34288 0.297923 0.127559
765 4 0.348319 0.285096 0.143049
13 3 0.458654 0.330887 0.124274
482 4 0.139757 0.335907 0.150425
481 2 0.147197 0.343168 0.127685
483 4 0.154638 0.35043 0.104946
506 4 0.147423 0.343102 0.0891275
387 4 0.319403 0.376257 0.163538
385 2 0.338049 0.370242 0.148004
607 2 0.349481 0.362593 0.092142
623 4 0.361014 0.344526 0.127436
609 4 0.35798 0.357964 0.115197
740 4 0.372741 0.35928 0.129421
386 4 0.356696 0.364228 0.13247
739 2 0.396956 0.36002 0.123234
741 4 0.421171 0.36076 0.117047
672 4 0.42719 0.357128 0.103189
11 1 0.450301 0.349869 0.134681
12 3 0.439191 0.362619 0.119088
14 3 0.46773 0.362363 0.143544
495 4 0.47763 0.380642 0.144148
493 2 0.468187 0.402523 0.136583
527 4 0.487363 0.369959 0.144487
15 3 0.435809 0.343926 0.151213
597 4 0.497176 0.381459 0.152924
645 4 0.480089 0.372641 0.156816
1465 2 0.0051364 0.468914 0.1122
1786 2 0.0587431 0.468611 0.0836351
1788 4 0.0450312 0.477793 0.10242
1466 4 0.0250112 0.480058 0.101905
1791 4 0.0365163 0.495161 0.0998489
1438 2 0.246433 0.496651 0.0972527
767 4 0.242551 0.439933 0.173098
638 4 0.249444 0.445799 0.156171
625 2 0.269115 0.420726 0.076297
627 4 0.261806 0.441189 0.0886682
1439 4 0.259646 0.493898 0.118301
639 4 0.261421 0.490902 0.1382
637 2 0.255433 0.468351 0.147185
494 4 0.458745 0.424404 0.129017
2480 4 0.0147903 0.0646344 0.176612
19 3 0.0323113 0.0570868 0.182692
20 3 0.058414 0.0457478 0.207345
675 4 0.0784188 0.0449198 0.204534
16 1 0.0477044 0.0638787 0.198671
18 3 0.0369348 0.0755534 0.215586
448 2 0.143046 0.0645338 0.163254
673 2 0.101287 0.0397602 0.19584
450 4 0.127771 0.0465889 0.17161
674 4 0.124156 0.0346005 0.187145
28 3 0.223185 0.0863086 0.170208
26 1 0.231888 0.0769243 0.189562
30 3 0.249941 0.0639997 0.184493
581 4 0.259212 0.0563503 0.201009
311 4 0.317246 0.0331223 0.176794
582 4 0.297912 0.0329346 0.179683
580 2 0.278562 0.0446425 0.190346
24 3 0.391985 0.999885 0.214045
310 2 0.34047 0.0241624 0.179153
759 4 0.378039 0.0169338 0.167776
22 3 0.371981 0.0313046 0.219073
312 4 0.363693 0.0152025 0.181513
25 3 0.380788 0.0203579 0.184497
21 1 0.388095 0.0213152 0.206045
23 3 0.407566 0.0338772 0.207252
744 4 0.418921 0.0468803 0.218815
742 2 0.410163 0.0702026 0.220946
17 3 0.0631267 0.0777445 0.188719
513 4 0.0197513 0.144542 0.236188
578 4 0.037048 0.136081 0.237426
721 2 0.144502 0.117807 0.179199
722 4 0.137308 0.137721 0.192496
546 4 0.15387 0.144495 0.198453
544 2 0.159635 0.150908 0.221922
27 3 0.215727 0.0638418 0.199402
29 3 0.238052 0.0936624 0.204403
545 4 0.1654 0.157321 0.245392
743 4 0.401404 0.0935249 0.223077
351 4 0.415207 0.0986628 0.237048
333 4 0.480446 0.149358 0.232731
476 4 0.0667421 0.213594 0.200757
475 2 0.0732485 0.235143 0.211641
477 4 0.0797549 0.256693 0.222525
331 2 0.485358 0.172022 0.242077
750 4 0.0735034 0.274905 0.223769
395 4 0.0173035 0.303875 0.24825
749 4 0.0316503 0.288841 0.247324
748 2 0.0525768 0.281873 0.235546
339 4 0.0920496 0.270148 0.229282
535 2 0.151805 0.317295 0.175854
337 2 0.115555 0.266332 0.236904
338 4 0.13906 0.262515 0.244527
363 4 0.155371 0.263474 0.233519
361 2 0.164406 0.280479 0.21757
537 4 0.171541 0.304584 0.184461
362 4 0.173441 0.297485 0.201621
372 4 0.188303 0.307856 0.195457
370 2 0.213287 0.30776 0.19446
371 4 0.23827 0.307664 0.193462
279 4 0.244068 0.297161 0.209318
756 4 0.287432 0.297437 0.169495
278 4 0.28923 0.299069 0.18793
612 4 0.292885 0.315272 0.179462
277 2 0.266649 0.298115 0.198624
343 2 0.315931 0.322562 0.244881
345 4 0.314498 0.298568 0.251764
308 4 0.324693 0.284467 0.240729
763 2 0.352361 0.280576 0.167307
307 2 0.341716 0.275974 0.224503
764 4 0.356403 0.276055 0.191564
309 4 0.358739 0.267481 0.208278
614 4 0.399488 0.334753 0.246161
647 4 0.0105626 0.409567 0.233037
2694 4 0.0142897 0.415258 0.251419
536 4 0.132068 0.330005 0.167248
456 4 0.0902102 0.381152 0.171671
454 2 0.105405 0.394927 0.185973
455 4 0.120599 0.408703 0.200275
290 4 0.186936 0.40622 0.196138
768 4 0.200837 0.41418 0.182967
289 2 0.170056 0.421466 0.20652
610 2 0.301092 0.338252 0.17401
344 4 0.317364 0.346557 0.237998
611 4 0.309299 0.361233 0.168559
302 4 0.305661 0.380662 0.17563
301 2 0.311313 0.399407 0.191181
303 4 0.316965 0.418152 0.206733
727 2 0.341304 0.421051 0.242143
446 4 0.413468 0.341189 0.233964
445 2 0.431375 0.354687 0.222904
447 4 0.449283 0.368184 0.211845
643 2 0.473366 0.366787 0.180176
644 4 0.466643 0.360934 0.203537
603 4 0.0231041 0.423777 0.235479
263 4 0.0650815 0.46124 0.23304
601 2 0.0404042 0.439049 0.225855
602 4 0.0577044 0.454322 0.21623
262 2 0.0704713 0.485245 0.228576
415 2 0.135861 0.466114 0.200853
417 4 0.133787 0.489391 0.191963
291 4 0.153176 0.436713 0.216902
413 4 0.134838 0.436868 0.227154
416 4 0.137934 0.442836 0.209744
1430 4 0.146457 0.502323 0.186104
766 2 0.221694 0.427056 0.178032
729 4 0.331793 0.421289 0.21902
660 4 0.329883 0.432491 0.203923
658 2 0.342644 0.444361 0.185994
659 4 0.355405 0.456231 0.168065
3800 4 0.462587 0.496099 0.188021
3799 2 0.466369 0.504246 0.164687
1404 4 0.0289335 0.9985 0.26556
233 4 0.0198495 0.042043 0.306743
1402 2 0.0210998 0.0190528 0.277451
1403 4 0.0132662 0.0396055 0.289342
317 4 0.0234802 0.0531693 0.291718
530 4 0.00675643 0.0543539 0.301568
316 2 0.0383576 0.0728836 0.28782
232 2 0.0283138 0.0386278 0.330021
319 2 0.232362 0.0802526 0.320807
1747 2 0.507201 0.0144608 0.28535
480 4 0.485373 0.0329007 0.313936
478 2 0.461281 0.0359007 0.319913
479 4 0.437188 0.0389006 0.32589
1748 4 0.514348 0.996145 0.269903
577 2 0.0427792 0.122795 0.257817
318 4 0.0532349 0.0925979 0.283923
397 2 0.0502604 0.1219 0.316596
579 4 0.0485105 0.109508 0.278208
398 4 0.0554768 0.108728 0.295993
731 4 0.0680943 0.104453 0.282737
732 4 0.117189 0.113607 0.28531
600 4 0.116995 0.133329 0.282076
730 2 0.0926417 0.10903 0.284024
598 2 0.136745 0.145271 0.272458
599 4 0.156495 0.157213 0.26284
392 4 0.175667 0.15812 0.26278
391 2 0.199051 0.166922 0.263718
684 4 0.259771 0.0933031 0.300884
320 4 0.240727 0.086653 0.29813
249 4 0.304793 0.126248 0.308563
404 4 0.299726 0.144122 0.312174
682 2 0.273492 0.112362 0.309467
683 4 0.287213 0.13142 0.318051
247 2 0.327908 0.121981 0.317086
248 4 0.351024 0.117714 0.325609
633 4 0.364391 0.120042 0.311077
631 2 0.385367 0.12972 0.301509
632 4 0.406342 0.139398 0.291941
349 2 0.412309 0.115576 0.255234
350 4 0.409411 0.13249 0.27342
707 4 0.365994 0.104954 0.323211
452 4 0.424331 0.136395 0.285009
451 2 0.439808 0.136887 0.304641
453 4 0.455284 0.137378 0.324273
2655 4 0.0107503 0.224408 0.329893
444 4 0.00313239 0.22045 0.311534
442 2 0.996073 0.239961 0.297582
393 4 0.222435 0.175724 0.264655
332 4 0.490271 0.194687 0.251424
521 4 0.502316 0.210329 0.253924
762 4 0.490386 0.203673 0.267778
760 2 0.475579 0.208239 0.287401
761 4 0.460772 0.212806 0.307024
419 4 0.463572 0.214009 0.326851
394 2 0.00140765 0.28941 0.261027
498 4 0.269369 0.265435 0.276553
377 4 0.262113 0.274825 0.29392
496 2 0.288793 0.27316 0.262833
497 4 0.308217 0.280886 0.249114
376 2 0.254724 0.286281 0.31488
613 2 0.411102 0.315831 0.25766
615 4 0.422716 0.296908 0.26916
543 4 0.430247 0.287574 0.284959
541 2 0.454186 0.289314 0.291965
542 4 0.478125 0.291054 0.298972
2538 4 0.491451 0.303422 0.296592
2924 4 0.477491 0.309002 0.308251
2923 2 0.474715 0.32705 0.325332
364 2 0.0179737 0.366382 0.321861
2693 4 0.0202717 0.385466 0.291135
2692 2 0.0172807 0.400362 0.271277
366 4 0.0231672 0.365575 0.297417
300 4 0.152764 0.341303 0.264758
298 2 0.149354 0.348326 0.288512
299 4 0.145944 0.355348 0.312265
734 4 0.148236 0.34962 0.330893
728 4 0.350815 0.420813 0.265266
435 4 0.367482 0.369885 0.308647
433 2 0.36485 0.388677 0.292364
434 4 0.362219 0.407469 0.276082
587 4 0.413861 0.391519 0.342763
2463 4 0.0174487 0.45738 0.325024
3717 4 0.0201177 0.512138 0.258361
412 2 0.136857 0.441051 0.251723
777 4 0.129203 0.453949 0.291225
775 2 0.117379 0.456758 0.313076
414 4 0.138876 0.445234 0.276291
776 4 0.105556 0.459567 0.334928
1574 4 0.278496 0.482005 0.279168
436 2 0.304775 0.456624 0.296
437 4 0.284716 0.46352 0.282761
438 4 0.324834 0.449729 0.309239
3 3 0.342688 0.443377 0.316643
1 1 0.342149 0.447638 0.339445
4 3 0.363635 0.451553 0.347282
234 4 0.0367782 0.0352127 0.353299
367 2 0.0564442 0.0613689 0.375013
368 4 0.0529018 0.0427686 0.358683
1780 2 0.0611453 0.000412529 0.356904
1781 4 0.0540769 0.0243784 0.355979
369 4 0.0599866 0.0799691 0.391343
719 4 0.0485756 0.0838863 0.406757
321 4 0.223997 0.0738522 0.343484
257 4 0.412623 0.0219499 0.403284
256 2 0.422536 0.0434173 0.411413
708 4 0.375168 0.0798129 0.365453
698 4 0.409015 0.0127711 0.386469
459 4 0.0585785 0.149056 0.34054
399 4 0.045044 0.135071 0.337199
403 2 0.291398 0.162906 0.326422
706 2 0.370581 0.0923837 0.344332
574 2 0.415302 0.0993609 0.404805
575 4 0.409707 0.11814 0.389274
514 2 0.431352 0.136499 0.359724
515 4 0.441181 0.140642 0.33711
516 4 0.421523 0.132355 0.382337
457 2 0.0642703 0.167403 0.356545
458 4 0.069962 0.185751 0.372549
2653 2 0.0196389 0.237833 0.349023
2654 4 0.0285274 0.251258 0.368153
388 2 0.029395 0.235108 0.405759
687 4 0.0812246 0.200223 0.381534
390 4 0.0335886 0.250341 0.38638
686 4 0.12138 0.228326 0.391455
685 2 0.101303 0.214274 0.386495
405 4 0.28307 0.181689 0.34067
474 4 0.269361 0.188077 0.354209
472 2 0.281727 0.196372 0.374295
473 4 0.294092 0.204667 0.394381
489 4 0.287435 0.218258 0.407436
487 2 0.276637 0.240807 0.407796
418 2 0.448089 0.225485 0.342781
268 2 0.436502 0.216017 0.395168
420 4 0.432605 0.23696 0.358711
269 4 0.43062 0.223205 0.371954
717 4 0.417701 0.23683 0.372143
2850 4 0.0232171 0.265843 0.378806
2848 2 0.00651527 0.282975 0.386065
401 4 0.187684 0.309239 0.356154
735 4 0.169182 0.313881 0.358905
677 4 0.178176 0.301405 0.370747
400 2 0.211262 0.310305 0.347903
402 4 0.234841 0.311372 0.339651
676 2 0.184885 0.297475 0.394511
276 4 0.242827 0.299491 0.35412
678 4 0.191593 0.293544 0.418275
378 4 0.247334 0.297737 0.33584
510 4 0.250143 0.315118 0.345963
274 2 0.251655 0.287209 0.37403
275 4 0.260483 0.274927 0.39394
508 2 0.262825 0.336161 0.350602
488 4 0.265838 0.263356 0.408156
266 4 0.273084 0.280414 0.409909
716 4 0.379564 0.265776 0.357705
715 2 0.398633 0.251303 0.364924
617 4 0.0105072 0.372932 0.364383
347 4 0.0376089 0.389001 0.418244
616 2 0.0220227 0.38546 0.382702
618 4 0.0335383 0.397989 0.401022
326 4 0.0515109 0.395792 0.407336
325 2 0.0737371 0.407179 0.406111
733 2 0.158709 0.33175 0.344899
327 4 0.0959632 0.418567 0.404886
509 4 0.275507 0.357205 0.355241
503 4 0.283093 0.364161 0.37257
502 2 0.28662 0.355074 0.395595
504 4 0.290147 0.345987 0.418621
668 4 0.356654 0.380341 0.377733
586 2 0.391134 0.385797 0.351478
588 4 0.368408 0.380076 0.360193
667 2 0.343724 0.401219 0.373029
559 2 0.496932 0.350452 0.376214
753 4 0.432179 0.39548 0.349513
751 2 0.450823 0.37882 0.349584
561 4 0.476452 0.349949 0.361879
752 4 0.469467 0.362159 0.349655
2925 4 0.471939 0.345097 0.342413
549 4 0.0375103 0.457444 0.331201
547 2 0.0622975 0.460145 0.333067
548 4 0.0870846 0.462846 0.334933
1383 4 0.0174591 0.480963 0.367672
680 4 0.0275872 0.489318 0.384985
679 2 0.043631 0.473667 0.396067
681 4 0.0596748 0.458016 0.407149
383 4 0.0772932 0.456004 0.415182
499 2 0.104958 0.496157 0.349996
500 4 0.0970243 0.472514 0.3482
408 4 0.103004 0.41895 0.385128
407 4 0.0991822 0.454191 0.349855
406 2 0.101093 0.436571 0.367491
1556 4 0.194635 0.42355 0.396239
669 4 0.330794 0.422097 0.368326
336 4 0.379711 0.426001 0.411183
2 3 0.329333 0.466365 0.343211
714 4 0.370866 0.438191 0.361565
5 3 0.332972 0.429932 0.350444
712 2 0.391754 0.447085 0.372042
713 4 0.412641 0.45598 0.38252
2237 4 0.0142437 0.0699786 0.464273
1127 4 0.0328391 0.0671367 0.465953
1126 2 0.0536284 0.071299 0.479206
718 2 0.0365337 0.0802257 0.428362
1128 4 0.0744177 0.0754612 0.49246
604 2 0.276717 0.00210474 0.447834
606 4 0.266008 0.00720684 0.469844
258 4 0.432449 0.0648847 0.419541
576 4 0.420897 0.0805815 0.420336
426 4 0.419723 0.068988 0.434968
720 4 0.0244918 0.076565 0.449967
260 4 0.0467342 0.119742 0.49728
939 4 0.0867126 0.0913367 0.495743
937 2 0.10853 0.0867481 0.507063
466 2 0.310159 0.145682 0.468727
467 4 0.301712 0.153845 0.446654
468 4 0.318607 0.13752 0.490799
724 2 0.328859 0.0982215 0.495609
725 4 0.323346 0.120164 0.484965
424 2 0.431916 0.0798407 0.453908
2879 4 0.495665 0.134813 0.47867
425 4 0.444108 0.0906935 0.472848
2878 2 0.478193 0.117038 0.476681
642 4 0.458087 0.0828681 0.484766
2880 4 0.46072 0.0992637 0.474692
3159 4 0.45728 0.167721 0.473897
389 4 0.0252015 0.219876 0.425138
411 4 0.291016 0.169286 0.451515
410 4 0.295328 0.201627 0.413618
409 2 0.293172 0.185457 0.432566
270 4 0.442384 0.208829 0.418383
305 4 0.446196 0.164368 0.458072
306 4 0.44201 0.209774 0.437542
304 2 0.444103 0.187071 0.447807
585 4 0.441314 0.226536 0.429056
583 2 0.458398 0.240792 0.440461
3157 2 0.472599 0.172355 0.493107
373 2 0.21595 0.2939 0.440319
374 4 0.235561 0.307164 0.448359
375 4 0.196338 0.280637 0.432278
651 4 0.240626 0.321884 0.460531
265 2 0.282662 0.302869 0.415313
812 4 0.244011 0.303508 0.46507
811 2 0.253769 0.292645 0.485366
813 4 0.263527 0.281782 0.505663
267 4 0.29224 0.325324 0.420718
584 4 0.475481 0.255049 0.451866
2456 4 0.48399 0.27305 0.44987
346 2 0.0271476 0.388173 0.440939
348 4 0.0166863 0.387345 0.463634
7 3 0.141437 0.33541 0.479948
649 2 0.235815 0.345044 0.468634
709 2 0.194126 0.369231 0.494988
710 4 0.214924 0.376496 0.483162
803 4 0.227861 0.388498 0.476816
802 2 0.217591 0.409259 0.467401
650 4 0.231003 0.368204 0.476736
804 4 0.20732 0.430021 0.457985
240 4 0.427968 0.394908 0.443421
335 4 0.420917 0.410019 0.434579
238 2 0.437846 0.395854 0.466372
3307 2 0.487151 0.378586 0.481093
239 4 0.447723 0.396799 0.489322
3309 4 0.467338 0.389628 0.491616
663 4 0.462033 0.406847 0.497022
570 4 0.04557 0.427138 0.50159
568 2 0.0646392 0.43474 0.487316
569 4 0.0837085 0.442342 0.473041
540 4 0.141173 0.454921 0.499512
382 2 0.0872092 0.452466 0.437861
384 4 0.0971252 0.448928 0.46054
539 4 0.0961981 0.457502 0.477802
538 2 0.118685 0.456212 0.488657
634 2 0.172197 0.439818 0.482153
636 4 0.188993 0.433772 0.464646
1555 2 0.193528 0.427114 0.420962
1557 4 0.192422 0.430678 0.445686
1453 2 0.309746 0.465031 0.462969
1454 4 0.331159 0.456018 0.453727
1455 4 0.288332 0.474044 0.47221
2153 4 0.276748 0.486751 0.480636
880 2 0.34974 0.430451 0.442223
334 2 0.400314 0.41801 0.422881
882 4 0.330056 0.436073 0.45658
881 4 0.369424 0.424828 0.427866
2318 4 0.0217414 0.0201044 0.554161
2317 2 0.0281292 0.036405 0.572013
2115 4 0.0106451 0.00445667 0.558948
1057 2 0.159419 0.0641925 0.540047
1059 4 0.147957 0.0786265 0.523152
1058 4 0.170881 0.0497584 0.556943
341 4 0.191485 0.0482229 0.559506
340 2 0.209645 0.0654064 0.559854
342 4 0.227805 0.08259 0.560201
2430 4 0.179011 0.0357928 0.565917
2428 2 0.1679 0.0142095 0.559928
1180 2 0.265845 0.0809719 0.560693
963 4 0.292439 0.0556333 0.570075
432 4 0.302848 0.0694617 0.559094
430 2 0.320975 0.0698634 0.541878
431 4 0.339102 0.0702651 0.524661
1181 4 0.287948 0.0741839 0.57021
726 4 0.334371 0.0762789 0.506254
843 4 0.34335 0.0594117 0.509222
1216 2 0.412453 0.0294844 0.524391
1217 4 0.391112 0.0164568 0.524515
842 4 0.372827 0.0205834 0.520367
841 2 0.358089 0.0399975 0.514794
1581 4 0.383193 0.0108877 0.50793
1218 4 0.433794 0.0425119 0.524266
641 4 0.439791 0.0614583 0.526089
640 2 0.448939 0.0721632 0.505427
261 4 0.0552855 0.154523 0.532179
1033 2 0.0565524 0.141922 0.569707
259 2 0.0510099 0.137133 0.514729
1035 4 0.056877 0.138831 0.544898
938 4 0.130347 0.0821595 0.518383
1155 4 0.144876 0.0943084 0.512956
1153 2 0.159754 0.113936 0.517266
1182 4 0.243743 0.08776 0.551177
1154 4 0.174632 0.133564 0.521575
1152 4 0.228739 0.098647 0.54643
1150 2 0.211289 0.114232 0.537612
1151 4 0.193838 0.129817 0.528794
899 4 0.354465 0.147091 0.552459
898 2 0.350181 0.171364 0.548256
3266 4 0.00449264 0.231487 0.581579
695 4 0.130277 0.254844 0.507481
857 4 0.215703 0.213823 0.538693
856 2 0.220172 0.201259 0.559844
872 4 0.327106 0.224722 0.485245
871 2 0.330674 0.21344 0.507272
873 4 0.334241 0.202159 0.529299
900 4 0.345897 0.195636 0.544054
3064 2 0.464114 0.206772 0.534947
3065 4 0.450871 0.22505 0.545703
3158 4 0.487918 0.176989 0.512318
3066 4 0.477356 0.188493 0.52419
904 2 0.416097 0.235758 0.522885
905 4 0.437855 0.226022 0.530433
3060 4 0.495857 0.184292 0.528958
984 4 0.0794759 0.320537 0.5508
10 3 0.153421 0.317492 0.510414
983 4 0.113057 0.319528 0.51376
982 2 0.0962665 0.320032 0.53228
696 4 0.151016 0.299147 0.517867
1260 4 0.167215 0.308514 0.521601
694 2 0.140646 0.276995 0.512674
1259 4 0.200486 0.301681 0.558304
1258 2 0.18385 0.305098 0.539952
948 4 0.192537 0.28413 0.564156
1239 4 0.281235 0.279754 0.516297
1237 2 0.303522 0.278618 0.527575
1238 4 0.325809 0.277482 0.538852
790 2 0.335706 0.265883 0.576848
906 4 0.394339 0.245495 0.515337
954 4 0.374625 0.24465 0.514101
952 2 0.360287 0.260508 0.527066
953 4 0.345948 0.276367 0.54003
792 4 0.334298 0.267469 0.551934
1136 4 0.0763395 0.334698 0.563556
1135 2 0.0811313 0.358878 0.567742
1137 4 0.0859231 0.383058 0.571929
9 3 0.121839 0.337937 0.51192
6 1 0.143146 0.336363 0.502867
896 4 0.13177 0.412639 0.557101
895 2 0.109172 0.407371 0.566415
1191 4 0.149173 0.403934 0.552291
1189 2 0.155907 0.385139 0.537239
1190 4 0.16264 0.366343 0.522187
1161 4 0.147959 0.411007 0.567826
8 3 0.155625 0.35504 0.508688
897 4 0.0865737 0.402102 0.575728
711 4 0.173328 0.361967 0.506814
1159 2 0.163532 0.420291 0.585046
1000 2 0.404541 0.379884 0.557757
930 4 0.386506 0.408093 0.571135
1002 4 0.38336 0.389812 0.566587
1001 4 0.425722 0.369955 0.548926
925 2 0.449733 0.375408 0.524709
926 4 0.456082 0.388435 0.504333
927 4 0.443384 0.362382 0.545085
2243 4 0.144744 0.422081 0.551213
2242 2 0.149249 0.439053 0.533413
2244 4 0.153755 0.456024 0.515613
772 2 0.161771 0.488884 0.511108
774 4 0.156396 0.466199 0.502071
635 4 0.1554 0.445864 0.499661
1171 2 0.313734 0.443017 0.57999
1172 4 0.334481 0.45084 0.568435
928 2 0.368306 0.424699 0.566874
929 4 0.350106 0.441306 0.562613
891 4 0.343073 0.456629 0.551907
889 2 0.3537 0.477948 0.559506
1909 2 0.404599 0.492695 0.573447
890 4 0.364327 0.499267 0.567104
1331 4 0.43169 0.476755 0.559767
1330 2 0.444387 0.469764 0.539393
661 2 0.465888 0.431238 0.500946
662 4 0.469742 0.455629 0.504869
1332 4 0.457084 0.462772 0.519019
1910 4 0.428191 0.48487 0.57616
2169 4 0.435772 0.468014 0.578419
2319 4 0.034517 0.0527057 0.589864
945 4 0.0487651 0.0615975 0.602911
1893 4 0.0657037 0.0213046 0.625722
943 2 0.0367956 0.0791325 0.616118
2132 4 0.239631 0.0125161 0.656996
2131 2 0.215929 0.00816728 0.663664
2133 4 0.192227 0.00381842 0.670333
824 4 0.18041 0.998244 0.655305
951 4 0.252322 0.014404 0.641131
961 2 0.298777 0.0367117 0.585141
962 4 0.305116 0.0177902 0.600207
950 4 0.294397 0.00780256 0.614924
949 2 0.27336 0.0111033 0.628028
1003 2 0.369302 0.0219852 0.646632
1005 4 0.356516 0.0420285 0.654376
1091 4 0.443365 0.00233331 0.652737
1034 4 0.0562278 0.145013 0.594517
944 4 0.024826 0.0966675 0.629325
879 4 0.0666563 0.15205 0.608796
877 2 0.047177 0.16227 0.620683
1083 4 0.0126592 0.110955 0.622643
1081 2 0.998953 0.105239 0.642759
1272 4 0.0768628 0.147687 0.593819
1221 4 0.140767 0.162682 0.617452
1270 2 0.0998275 0.153177 0.602045
1271 4 0.122792 0.158666 0.610271
1283 4 0.22659 0.0876816 0.661552
1282 2 0.246462 0.100263 0.653066
1284 4 0.266333 0.112844 0.644579
1031 4 0.279774 0.125226 0.64107
1030 2 0.303171 0.118569 0.635288
1032 4 0.326568 0.111911 0.629506
810 4 0.447863 0.17125 0.660371
878 4 0.0276976 0.172489 0.632571
1199 4 0.0151558 0.187663 0.631375
3045 4 0.0185122 0.241703 0.589912
1198 2 0.0138402 0.205684 0.614093
1200 4 0.0125247 0.223706 0.596811
3043 2 0.04222 0.248564 0.593919
1219 2 0.151413 0.180774 0.631035
1220 4 0.162058 0.198867 0.644619
858 4 0.224642 0.188695 0.580994
796 2 0.175519 0.230758 0.627305
798 4 0.174154 0.213691 0.645527
1212 4 0.18077 0.194586 0.645514
1210 2 0.200417 0.193646 0.66095
797 4 0.176885 0.247825 0.609083
947 4 0.19458 0.247853 0.598515
1025 4 0.462412 0.180617 0.650585
1024 2 0.483621 0.187961 0.661604
3044 4 0.0659277 0.255424 0.597927
1243 2 0.0679779 0.259785 0.641743
1244 4 0.0646657 0.259138 0.616968
1245 4 0.0712901 0.260433 0.666518
946 2 0.193559 0.265991 0.581335
791 4 0.337115 0.264297 0.601761
1040 4 0.0806817 0.39389 0.640105
1041 4 0.0849882 0.390168 0.590423
1039 2 0.0828349 0.392029 0.615264
993 4 0.09437 0.400048 0.654358
807 4 0.364043 0.375957 0.624682
805 2 0.375876 0.385517 0.60484
806 4 0.38771 0.395078 0.584997
1160 4 0.179104 0.429574 0.602265
1173 4 0.292987 0.435194 0.591546
1187 4 0.293271 0.452579 0.604383
1140 4 0.263586 0.469728 0.663343
1188 4 0.274787 0.461459 0.649992
1186 2 0.284029 0.457019 0.627188
1099 2 0.454523 0.418724 0.646452
1267 2 0.489844 0.415661 0.597391
1268 4 0.468126 0.424363 0.606212
2168 4 0.452215 0.432895 0.609995
1100 4 0.461278 0.418432 0.62238
2167 2 0.443994 0.450455 0.594207
825 4 0.146221 0.0010266 0.691694
823 2 0.163315 0.999635 0.673499
2255 4 0.152965 0.00180828 0.710655
1298 4 0.293503 0.0809131 0.706895
2282 4 0.492377 0.996872 0.6881
2283 4 0.45224 0.0154315 0.664749
2281 2 0.472308 0.00615177 0.676424
43 3 0.459495 0.0899929 0.671974
2321 4 0.495622 0.0273757 0.746658
909 4 0.222526 0.0956004 0.679264
908 4 0.214493 0.0989501 0.728508
1227 4 0.199346 0.10536 0.739262
907 2 0.218509 0.0972752 0.703886
1299 4 0.30027 0.126084 0.727253
1297 2 0.296886 0.103499 0.717074
829 2 0.293404 0.162685 0.721021
831 4 0.295773 0.142657 0.735801
1194 4 0.315397 0.171582 0.756034
42 3 0.483465 0.0883183 0.700876
44 3 0.446634 0.0844747 0.707309
808 2 0.449908 0.14862 0.670805
41 1 0.462543 0.0953117 0.694353
809 4 0.451954 0.12599 0.681239
45 3 0.460914 0.117838 0.697278
852 4 0.0257707 0.234127 0.730016
850 2 0.03846 0.212738 0.7326
1208 4 0.0277168 0.245688 0.715119
851 4 0.0511493 0.191349 0.735184
3038 4 0.0116885 0.243044 0.726374
1215 4 0.0155029 0.240407 0.745128
1107 4 0.0697991 0.19961 0.735035
1072 2 0.130217 0.250274 0.728706
1073 4 0.127612 0.226128 0.734653
1105 2 0.0936522 0.207025 0.736147
1106 4 0.117505 0.214439 0.737259
35 3 0.134416 0.209723 0.744821
33 3 0.161977 0.184074 0.74435
1211 4 0.220064 0.192706 0.676387
888 4 0.235783 0.180414 0.678151
1130 4 0.176408 0.182528 0.732066
1129 2 0.199591 0.191658 0.734152
1131 4 0.222775 0.200788 0.736239
1277 4 0.231271 0.21705 0.744567
886 2 0.257591 0.18804 0.687714
830 4 0.291035 0.182713 0.706241
887 4 0.279398 0.195666 0.697276
976 2 0.313028 0.218715 0.710683
978 4 0.295979 0.200869 0.706678
977 4 0.330077 0.236561 0.714687
918 4 0.345037 0.248499 0.72352
1178 4 0.0277118 0.250737 0.733634
1207 2 0.0401682 0.252955 0.69469
1209 4 0.0526196 0.260222 0.674261
1177 2 0.0417545 0.267227 0.746127
816 4 0.0644435 0.298444 0.750361
814 2 0.0757852 0.307536 0.730017
941 4 0.147162 0.313392 0.680967
940 2 0.125944 0.319184 0.692859
1074 4 0.132822 0.27442 0.72276
942 4 0.104725 0.324975 0.704751
1067 4 0.161221 0.325514 0.675008
815 4 0.0871269 0.316629 0.709673
822 4 0.192427 0.271454 0.687854
821 4 0.161997 0.30701 0.670234
820 2 0.177212 0.289232 0.679044
1205 4 0.398333 0.324489 0.687805
3274 2 0.0129745 0.350918 0.703264
3275 4 0.0329446 0.336243 0.699946
1279 2 0.0626428 0.414254 0.725114
1280 4 0.0830113 0.401715 0.71783
893 4 0.092473 0.384637 0.717682
991 2 0.0956877 0.399167 0.679311
992 4 0.0970054 0.398286 0.704265
892 2 0.0913319 0.359802 0.715021
894 4 0.0901908 0.334966 0.71236
1028 4 0.197419 0.37962 0.674726
1027 2 0.206351 0.402347 0.680098
1068 4 0.186222 0.367143 0.66306
1066 2 0.173721 0.346328 0.669034
1019 4 0.321451 0.356454 0.74685
1228 2 0.369227 0.399958 0.706805
1230 4 0.38322 0.389943 0.688665
1229 4 0.355233 0.409973 0.724946
1206 4 0.395819 0.374367 0.690375
1204 2 0.397076 0.349428 0.68909
1989 4 0.354659 0.400483 0.743244
1101 4 0.447768 0.419016 0.670524
3328 2 0.464811 0.407978 0.69957
3330 4 0.454435 0.401902 0.677647
2987 4 0.491334 0.419433 0.732507
1281 4 0.0422742 0.426794 0.732398
885 4 0.0281326 0.425741 0.74642
1983 4 0.0250553 0.435869 0.73005
1981 2 0.00876401 0.452436 0.720814
1982 4 0.992473 0.469003 0.711578
1138 2 0.244564 0.454804 0.669716
1029 4 0.215283 0.425075 0.685471
1139 4 0.225542 0.43988 0.676089
3329 4 0.475186 0.414054 0.721493
1295 4 0.00346573 7.03432e-05 0.838013
3134 4 0.0171237 0.0142198 0.83391
1149 4 0.245017 0.081989 0.820173
876 4 0.25575 0.0794665 0.835855
1257 4 0.264043 0.0893428 0.821814
975 4 0.382297 0.010873 0.79474
1113 4 0.388355 0.0289006 0.801389
1111 2 0.402748 0.0484175 0.807479
818 4 0.416947 0.0866593 0.815099
1112 4 0.417142 0.0679345 0.81357
846 4 0.434315 0.0780485 0.812511
844 2 0.458343 0.0721778 0.816167
2320 2 0.482157 0.00954108 0.757873
845 4 0.482371 0.0663071 0.819822
785 4 0.0132101 0.114187 0.836045