ITEM: TIMESTEP
280000
ITEM: NUMBER OF ATOMS
4590
ITEM: BOX BOUNDS pp pp pp
-9.9985700000000008e+00 9.9985700000000008e+00
-9.9985700000000008e+00 9.9985700000000008e+00
-9.9985700000000008e+00 9.9985700000000008e+00
ITEM: ATOMS id type xs ys zs
463 2 0.029275 0.0496648 0.0349697
465 4 0.02727 0.0744153 0.0378972
464 4 0.0312799 0.0249142 0.0320422
1667 4 0.0757328 0.0304277 0.0664481
534 4 0.224902 0.0615243 0.0148358
490 2 0.28156 0.0469258 0.0406366
491 4 0.281814 0.0603182 0.0617496
492 4 0.281305 0.0335334 0.0195236
296 4 0.371923 0.0591319 0.072414
557 4 0.373767 0.0719896 0.0566551
295 2 0.369301 0.0369243 0.0836
745 2 0.458648 0.0654394 0.0403753
746 4 0.464739 0.0754782 0.0624501
747 4 0.452556 0.0554006 0.0183005
589 2 0.0241437 0.113307 0.0728248
590 4 0.0258057 0.127689 0.0524387
701 4 0.0770072 0.0844925 0.0242799
702 4 0.107662 0.0798416 0.0635144
700 2 0.0923348 0.0821671 0.0438971
422 4 0.113088 0.162822 0.0221448
421 2 0.102422 0.142601 0.0120194
565 2 0.195871 0.109159 0.0468334
566 4 0.175006 0.095541 0.0489187
567 4 0.216737 0.122778 0.0447481
358 2 0.27766 0.122699 0.0120997
359 4 0.301461 0.115051 0.0116666
360 4 0.253859 0.130347 0.0125329
556 2 0.366203 0.0944569 0.0487065
558 4 0.358639 0.116924 0.0407579
553 2 0.0463697 0.235875 0.0259921
555 4 0.0573189 0.225998 0.00579956
554 4 0.0354206 0.245752 0.0461846
666 4 0.308247 0.225591 0.0119454
664 2 0.330673 0.217764 0.00413583
572 4 0.337033 0.247901 0.0438602
324 4 0.405437 0.220364 0.0621837
322 2 0.413606 0.240097 0.0751863
771 4 0.44139 0.1834 0.0635113
770 4 0.484783 0.176019 0.0397776
769 2 0.463086 0.17971 0.0516445
292 2 0.125311 0.307281 0.0237279
294 4 0.10806 0.313608 0.00677049
293 4 0.142562 0.300955 0.0406853
507 4 0.1613 0.302676 0.0484256
506 4 0.190728 0.267312 0.0288265
483 4 0.229477 0.3087 0.0604663
505 2 0.176014 0.284994 0.0386261
481 2 0.250074 0.322002 0.0555665
571 2 0.313737 0.251654 0.0521278
573 4 0.29044 0.255407 0.0603953
357 4 0.253253 0.252158 0.994941
482 4 0.270671 0.335304 0.0506667
1071 4 0.384549 0.247374 0.0178788
1069 2 0.399372 0.266735 0.0123433
956 4 0.374758 0.324874 0.0247559
955 2 0.353988 0.328947 0.0114446
1070 4 0.414195 0.286095 0.00680793
671 4 0.468486 0.324829 0.0653533
280 2 0.465657 0.336287 0.0239196
281 4 0.463819 0.334065 0.0487564
330 4 0.0170249 0.408789 0.0381914
328 2 0.0136576 0.396378 0.0167485
454 2 0.113588 0.366136 0.0844937
455 4 0.0944727 0.380571 0.0773223
288 4 0.158593 0.419346 0.0141707
286 2 0.154849 0.395414 0.0079731
287 4 0.151106 0.371482 0.00177549
552 4 0.0894239 0.398334 0.0428103
252 4 0.286046 0.398143 0.0663575
250 2 0.278853 0.401248 0.0426129
251 4 0.27166 0.404352 0.0188684
608 4 0.299776 0.3883 0.0771112
282 4 0.467495 0.338509 0.999083
550 2 0.0716692 0.415813 0.0407074
551 4 0.0539145 0.433293 0.0386045
315 4 0.989645 0.42055 0.0871103
1788 4 0.063399 0.504308 0.0911759
242 4 0.148493 0.511696 0.0434707
1786 2 0.0822049 0.497107 0.0763552
1787 4 0.101011 0.489905 0.0615345
245 4 0.224529 0.431722 0.0225812
244 2 0.240957 0.447644 0.0326709
246 4 0.257385 0.463566 0.0427607
272 4 0.276793 0.46934 0.040289
271 2 0.296638 0.472587 0.0254296
273 4 0.316483 0.475835 0.0105702
524 4 0.352295 0.499035 0.067287
227 4 0.484267 0.432356 0.0622344
562 2 0.448253 0.497584 0.0228491
563 4 0.46836 0.48975 0.0102201
226 2 0.495114 0.454668 0.0591174
564 4 0.428145 0.505417 0.0354781
1666 2 0.0817049 0.0239677 0.0898528
1668 4 0.0876771 0.0175076 0.113257
19 3 0.0486537 0.04584 0.16199
20 3 0.0816886 0.0635454 0.165577
1422 4 0.998964 0.0164449 0.170963
2480 4 0.00338226 0.0351205 0.17536
450 4 0.157757 0.0662784 0.134499
448 2 0.172486 0.0813264 0.147981
1506 4 0.239232 0.0162323 0.168665
1475 4 0.204986 0.988232 0.0761363
652 2 0.295541 0.0381336 0.148921
653 4 0.275421 0.0484143 0.138212
297 4 0.366679 0.0147167 0.094786
758 4 0.418739 0.0538646 0.159928
1760 4 0.491748 0.020732 0.162924
1759 2 0.471997 0.00742304 0.155312
591 4 0.0224818 0.098926 0.0932109
476 4 0.114727 0.172398 0.100407
237 4 0.175231 0.159041 0.141666
449 4 0.187216 0.0963744 0.161463
235 2 0.1831 0.137136 0.150799
236 4 0.190968 0.11523 0.159933
693 4 0.205673 0.103606 0.165172
582 4 0.294826 0.108065 0.147085
312 4 0.419973 0.120383 0.167248
475 2 0.112206 0.175821 0.125047
477 4 0.109684 0.179244 0.149686
737 4 0.180366 0.1839 0.118742
736 2 0.201702 0.196644 0.121488
738 4 0.223038 0.209388 0.124234
354 4 0.264886 0.216345 0.120776
352 2 0.267633 0.241193 0.121232
461 4 0.337421 0.231773 0.0856564
460 2 0.337331 0.209058 0.0961071
255 4 0.357274 0.18129 0.112925
462 4 0.337241 0.186343 0.106558
630 4 0.412969 0.171836 0.104021
254 4 0.39949 0.160918 0.0955023
253 2 0.378382 0.171104 0.104214
629 4 0.455673 0.165952 0.129368
628 2 0.434321 0.168894 0.116695
517 2 0.495347 0.248755 0.0994779
518 4 0.481089 0.228246 0.10059
337 2 0.0836795 0.246569 0.150782
339 4 0.0753909 0.25259 0.127973
620 4 0.0177229 0.325409 0.124217
353 4 0.27038 0.266041 0.121688
754 2 0.268414 0.295049 0.117035
755 4 0.271594 0.27437 0.103343
756 4 0.265235 0.315728 0.130726
278 4 0.274327 0.288021 0.164664
741 4 0.35434 0.30814 0.0882681
622 2 0.390172 0.265968 0.161547
624 4 0.406332 0.246891 0.161857
739 2 0.349734 0.332715 0.0884864
623 4 0.374012 0.285046 0.161238
323 4 0.421774 0.25983 0.0881888
672 4 0.437968 0.337059 0.103033
670 2 0.453227 0.330944 0.0841932
621 4 0.0193624 0.365228 0.0940102
619 2 0.0185427 0.345318 0.109114
647 4 0.0593637 0.380377 0.16686
646 2 0.0697626 0.358458 0.17291
456 4 0.132703 0.351701 0.0916651
537 4 0.178506 0.332027 0.119593
535 2 0.188868 0.33735 0.141717
626 4 0.244336 0.420256 0.12001
536 4 0.19923 0.342674 0.163841
609 4 0.302155 0.34837 0.107123
607 2 0.300966 0.368335 0.0921172
612 4 0.274915 0.334172 0.131782
610 2 0.274182 0.334866 0.156766
740 4 0.345128 0.357289 0.0887046
387 4 0.33673 0.391172 0.145206
15 3 0.392501 0.363484 0.131133
385 2 0.34418 0.378285 0.125117
386 4 0.35163 0.365397 0.105027
11 1 0.413432 0.356176 0.136344
12 3 0.417049 0.335785 0.126331
302 4 0.327184 0.401622 0.160642
14 3 0.429251 0.371264 0.128566
13 3 0.415463 0.353712 0.159327
495 4 0.436083 0.388477 0.137355
493 2 0.434286 0.409824 0.12446
595 2 0.491818 0.415335 0.173133
313 2 0.00580549 0.439579 0.088494
314 4 0.0219656 0.458608 0.0898776
625 2 0.225914 0.427363 0.10467
627 4 0.207492 0.43447 0.0893304
639 4 0.242467 0.495512 0.125448
637 2 0.257083 0.484828 0.142693
638 4 0.2717 0.474144 0.159938
525 4 0.334681 0.490108 0.11323
523 2 0.343488 0.494571 0.0902584
658 2 0.383776 0.460227 0.160363
659 4 0.359033 0.461173 0.163835
660 4 0.40852 0.459281 0.156892
494 4 0.43249 0.43117 0.111565
16 1 0.063036 0.0566253 0.17666
17 3 0.0522694 0.0749165 0.18553
18 3 0.068946 0.0422974 0.193928
1420 2 0.0159774 0.99857 0.174988
673 2 0.125886 0.0421126 0.220844
674 4 0.146227 0.0557999 0.215935
675 4 0.105546 0.0284253 0.225752
1505 4 0.230843 0.0549794 0.199144
1504 2 0.235037 0.0356059 0.183904
689 4 0.223617 0.0414927 0.22707
688 2 0.209878 0.0222051 0.235095
692 4 0.22522 0.0726878 0.199271
654 4 0.315661 0.0278529 0.159629
21 1 0.378693 0.0356806 0.229691
23 3 0.381213 0.0144055 0.238603
24 3 0.357586 0.0439161 0.234697
25 3 0.381635 0.0350481 0.207117
759 4 0.38705 0.0534108 0.198611
22 3 0.394494 0.0495641 0.239005
757 2 0.402895 0.0536377 0.179269
1784 4 0.408746 0.997337 0.18946
742 2 0.452727 0.0657271 0.233012
744 4 0.447885 0.0437112 0.222194
379 2 0.00790584 0.1578 0.177822
381 4 0.0230784 0.16289 0.197033
511 2 0.0422678 0.165147 0.234812
513 4 0.0533848 0.158855 0.256306
579 4 0.101384 0.0896467 0.220425
577 2 0.0996261 0.113952 0.214827
578 4 0.0978679 0.138257 0.209229
723 4 0.216819 0.110044 0.232514
691 2 0.215446 0.0881469 0.182221
721 2 0.193762 0.118403 0.237381
722 4 0.170705 0.126761 0.242247
580 2 0.292638 0.116947 0.170355
581 4 0.29045 0.125829 0.193625
30 3 0.304603 0.123856 0.207531
26 1 0.311654 0.117848 0.228336
28 3 0.296647 0.102872 0.237765
27 3 0.332246 0.107721 0.226726
29 3 0.313578 0.13666 0.241783
743 4 0.457569 0.087743 0.24383
310 2 0.433423 0.119197 0.188292
311 4 0.446873 0.11801 0.209337
333 4 0.417363 0.159789 0.242103
512 4 0.0311507 0.171438 0.213318
338 4 0.0919681 0.240547 0.17359
284 4 0.270472 0.231287 0.17932
283 2 0.266674 0.207473 0.17271
285 4 0.262877 0.18366 0.1661
764 4 0.363346 0.213082 0.21
763 2 0.382993 0.227033 0.216675
765 4 0.40264 0.240983 0.223349
520 2 0.467393 0.222924 0.246554
521 4 0.446098 0.227053 0.234119
522 4 0.488689 0.218795 0.25899
395 4 0.0401126 0.249311 0.207915
394 2 0.0240174 0.249241 0.227049
750 4 0.0598412 0.292174 0.243464
748 2 0.0781968 0.275933 0.24841
396 4 0.00792225 0.249171 0.246183
363 4 0.0909445 0.254777 0.187815
361 2 0.109375 0.261001 0.203523
362 4 0.127807 0.267225 0.219231
372 4 0.139802 0.256002 0.207233
300 4 0.108103 0.33805 0.217803
277 2 0.250115 0.284616 0.169897
370 2 0.161304 0.265929 0.21525
371 4 0.182806 0.275857 0.223266
279 4 0.225903 0.281211 0.175129
343 2 0.257943 0.288842 0.242807
344 4 0.247462 0.279826 0.221974
307 2 0.322142 0.27819 0.230351
309 4 0.314867 0.282546 0.206829
308 4 0.329416 0.273835 0.253873
528 4 0.456276 0.260886 0.184287
526 2 0.479007 0.266828 0.175733
263 4 0.0731449 0.425854 0.217633
648 4 0.0801615 0.336539 0.178959
298 2 0.126172 0.340597 0.234896
299 4 0.144242 0.343144 0.251989
611 4 0.27345 0.33556 0.181749
303 4 0.321928 0.40699 0.210082
301 2 0.324556 0.404306 0.185362
729 4 0.335468 0.38006 0.241646
597 4 0.468383 0.406809 0.171313
643 2 0.453795 0.374052 0.186169
644 4 0.450314 0.358418 0.205369
645 4 0.457277 0.389687 0.16697
447 4 0.44659 0.368254 0.224004
262 2 0.054852 0.440517 0.226325
264 4 0.0365592 0.45518 0.235017
417 4 0.140264 0.432446 0.183188
415 2 0.162493 0.43595 0.194087
416 4 0.184722 0.439453 0.204986
291 4 0.200538 0.446851 0.195629
289 2 0.218316 0.431069 0.203378
290 4 0.236095 0.415288 0.211128
768 4 0.25561 0.479004 0.221187
766 2 0.258935 0.471443 0.197587
767 4 0.26226 0.463882 0.173987
229 2 0.409758 0.495669 0.225635
231 4 0.398694 0.486749 0.205063
232 2 0.0339288 0.0482995 0.296988
233 4 0.045409 0.0334843 0.280438
1402 2 0.067954 0.0105408 0.276708
1403 4 0.0625917 0.0309587 0.290107
234 4 0.0224485 0.0631148 0.313538
429 4 0.0907936 0.00631632 0.324536
731 4 0.142549 0.0825734 0.312592
690 4 0.196139 0.00291758 0.243121
1701 4 0.23752 0.999595 0.324608
1699 2 0.253798 0.0155265 0.314294
1700 4 0.270076 0.0314584 0.30398
257 4 0.398377 0.0480745 0.330246
698 4 0.381439 0.0485238 0.340386
478 2 0.479451 0.0306004 0.329237
480 4 0.480134 0.0191001 0.307046
351 4 0.449436 0.0635108 0.271547
349 2 0.453321 0.0825889 0.287235
479 4 0.478767 0.0421006 0.351428
529 2 0.00141833 0.138916 0.285403
530 4 0.007917 0.154516 0.30383
398 4 0.0478925 0.121358 0.331146
397 2 0.0710561 0.125259 0.322579
546 4 0.157077 0.139475 0.251702
544 2 0.154217 0.163162 0.259181
399 4 0.0942197 0.129161 0.314011
248 4 0.235961 0.0749629 0.285566
249 4 0.23316 0.122513 0.300792
247 2 0.23456 0.0987379 0.293179
403 2 0.221309 0.163672 0.289254
600 4 0.194553 0.117865 0.323655
404 4 0.22777 0.141356 0.298494
632 4 0.352248 0.120983 0.306372
631 2 0.373581 0.107994 0.307533
633 4 0.394914 0.0950038 0.308694
331 2 0.439421 0.159652 0.253876
332 4 0.46148 0.159516 0.265648
350 4 0.457206 0.101667 0.302923
392 4 0.105042 0.167351 0.266071
391 2 0.102592 0.187915 0.280082
393 4 0.100141 0.208478 0.294093
545 4 0.151357 0.186849 0.266661
405 4 0.214847 0.185989 0.280013
706 2 0.306863 0.1752 0.31013
707 4 0.318363 0.186589 0.291072
762 4 0.462068 0.165663 0.285405
418 2 0.422209 0.222579 0.317682
419 4 0.43988 0.208279 0.328096
761 4 0.472118 0.177981 0.332818
760 2 0.467093 0.171822 0.309112
420 4 0.404539 0.236878 0.307267
444 4 0.993946 0.257867 0.3096
443 4 0.010364 0.261138 0.262478
442 2 0.00215523 0.259503 0.286039
390 4 0.0629942 0.249529 0.343805
749 4 0.0965524 0.259691 0.253356
388 2 0.0857738 0.256845 0.336542
345 4 0.268425 0.297857 0.263641
400 2 0.20862 0.260386 0.310183
402 4 0.221305 0.272588 0.327942
401 4 0.195935 0.248184 0.292424
508 2 0.237982 0.304518 0.326154
510 4 0.240409 0.27964 0.325535
496 2 0.303882 0.297608 0.296066
497 4 0.321475 0.286746 0.282006
498 4 0.286288 0.308469 0.310126
543 4 0.397194 0.322523 0.31477
615 4 0.380324 0.312175 0.314942
541 2 0.420574 0.319755 0.306349
542 4 0.443954 0.316987 0.297928
366 4 0.00104823 0.340779 0.276236
364 2 0.0227213 0.347863 0.286496
365 4 0.0443943 0.354947 0.296757
602 4 0.0669109 0.404887 0.294346
601 2 0.0815308 0.387413 0.284046
603 4 0.0961506 0.369939 0.273746
734 4 0.145382 0.357891 0.266108
733 2 0.156845 0.362805 0.287779
735 4 0.168308 0.367719 0.30945
677 4 0.172587 0.349132 0.317324
509 4 0.235555 0.329396 0.326773
433 2 0.315304 0.385782 0.330336
434 4 0.328809 0.373233 0.313445
613 2 0.368498 0.330069 0.327794
727 2 0.341649 0.395079 0.260657
728 4 0.34783 0.410098 0.279667
445 2 0.452919 0.378695 0.245824
446 4 0.459249 0.389136 0.267644
549 4 0.038458 0.447289 0.319135
547 2 0.0472579 0.431382 0.336302
777 4 0.0899926 0.448616 0.288662
775 2 0.101267 0.466719 0.301712
776 4 0.112542 0.484823 0.314762
414 4 0.142933 0.465679 0.290956
412 2 0.162348 0.452092 0.298934
413 4 0.181762 0.438505 0.306911
436 2 0.295465 0.452789 0.275033
437 4 0.272181 0.460703 0.270519
438 4 0.31875 0.444874 0.279546
713 4 0.4037 0.460931 0.288634
230 4 0.420822 0.504589 0.246207
712 2 0.427769 0.454272 0.287409
714 4 0.451839 0.447614 0.286184
316 2 0.0435776 0.0798465 0.342101
317 4 0.0446505 0.0556659 0.348372
428 4 0.0612272 0.0217523 0.361796
427 2 0.0760104 0.0140343 0.343166
1782 4 0.123181 0.0304419 0.380983
1780 2 0.127707 0.00980523 0.394355
730 2 0.136118 0.0805961 0.336673
606 4 0.195094 0.0588061 0.382159
604 2 0.211512 0.0596995 0.363322
605 4 0.227929 0.0605929 0.344485
683 4 0.29028 0.0766418 0.356804
697 2 0.364241 0.0305355 0.342799
699 4 0.347043 0.0125472 0.345213
256 2 0.415838 0.0506996 0.347949
424 2 0.406363 0.0494594 0.402032
258 4 0.433299 0.0533248 0.365653
426 4 0.42091 0.05247 0.38192
318 4 0.0425046 0.104027 0.335829
732 4 0.129688 0.0786187 0.360755
685 2 0.149008 0.152277 0.418625
687 4 0.127256 0.149044 0.430523
598 2 0.180924 0.13714 0.331894
686 4 0.17076 0.155509 0.406726
682 2 0.285543 0.0813798 0.380893
684 4 0.280805 0.0861179 0.404982
451 2 0.478802 0.152017 0.375966
453 4 0.454221 0.156567 0.376452
514 2 0.423519 0.139322 0.392617
515 4 0.440478 0.141502 0.374374
452 4 0.503384 0.147467 0.375481
2653 2 0.0137601 0.226844 0.363832
2654 4 0.035835 0.232285 0.374237
599 4 0.167294 0.156416 0.340132
474 4 0.245011 0.19355 0.337653
274 2 0.196148 0.245783 0.377405
275 4 0.175433 0.24501 0.363424
708 4 0.295363 0.163811 0.329188
472 2 0.26493 0.207227 0.331225
473 4 0.28485 0.220905 0.324798
488 4 0.284696 0.212212 0.382227
487 2 0.285561 0.23151 0.398102
715 2 0.367064 0.246169 0.353875
716 4 0.360594 0.247322 0.378
305 4 0.465764 0.206073 0.404094
616 2 0.0755049 0.329276 0.365019
618 4 0.0673559 0.318504 0.386061
347 4 0.0582585 0.313497 0.402881
389 4 0.108553 0.264161 0.32928
375 4 0.160955 0.329213 0.381179
276 4 0.216863 0.246556 0.391387
678 4 0.19246 0.341374 0.362552
373 2 0.181074 0.315379 0.386566
374 4 0.201192 0.301544 0.391954
376 2 0.287265 0.290326 0.356835
377 4 0.298532 0.270837 0.367716
378 4 0.275997 0.309815 0.345954
489 4 0.286425 0.250808 0.413977
717 4 0.373534 0.245017 0.329751
268 2 0.483524 0.269718 0.400477
270 4 0.467484 0.275109 0.418884
408 4 0.080096 0.425 0.408873
548 4 0.0560578 0.415475 0.353468
617 4 0.083654 0.340047 0.343978
676 2 0.182523 0.345253 0.339938
503 4 0.284633 0.413024 0.408688
435 4 0.301799 0.398331 0.347227
614 4 0.356673 0.347962 0.340645
336 4 0.37814 0.375451 0.400572
561 4 0.465417 0.385706 0.388181
752 4 0.462602 0.390158 0.368274
559 2 0.480887 0.376832 0.405706
751 2 0.442638 0.402816 0.376421
2925 4 0.49326 0.347161 0.371542
2461 2 0.0106113 0.471831 0.348865
2463 4 0.0168714 0.447754 0.346355
406 2 0.0778185 0.422727 0.384078
407 4 0.0755409 0.420454 0.359282
499 2 0.103321 0.470007 0.371292
500 4 0.112443 0.478657 0.349678
501 4 0.0941984 0.461357 0.392905
570 4 0.149917 0.4654 0.400777
5 3 0.292487 0.460526 0.358524
1 1 0.313275 0.46866 0.363038
2 3 0.311319 0.48861 0.374322
4 3 0.32494 0.453637 0.376329
3 3 0.324808 0.472338 0.343243
594 4 0.396574 0.501849 0.373386
592 2 0.410584 0.490869 0.355826
117 3 0.504347 0.459176 0.340385
593 4 0.424594 0.479889 0.338267
753 4 0.422674 0.415475 0.384568
718 2 0.0399226 0.0742087 0.465362
720 4 0.0360882 0.0520665 0.476325
719 4 0.0437569 0.0963508 0.454398
367 2 0.119837 0.0499701 0.448297
369 4 0.117332 0.0688 0.464555
368 4 0.122342 0.0311401 0.432038
341 4 0.199032 0.0336729 0.507389
1181 4 0.243205 0.0575131 0.486198
2430 4 0.210114 0.0175786 0.502127
441 4 0.273453 0.0317363 0.429314
439 2 0.286966 0.0126646 0.420434
726 4 0.323639 0.0810698 0.467418
1180 2 0.243176 0.0766332 0.50231
425 4 0.391815 0.0464489 0.422144
2878 2 0.485386 0.08135 0.46012
457 2 0.0100639 0.170552 0.427177
458 4 0.028929 0.15612 0.434988
320 4 0.271257 0.0986448 0.417874
321 4 0.251142 0.14364 0.426332
319 2 0.2612 0.121142 0.422103
1182 4 0.243146 0.0957532 0.518423
724 2 0.347681 0.0871943 0.464316
725 4 0.371724 0.0933189 0.461215
574 2 0.402997 0.150774 0.452551
575 4 0.408965 0.143344 0.429435
516 4 0.406559 0.137143 0.41086
576 4 0.39703 0.158204 0.475668
642 4 0.460186 0.104469 0.478388
2880 4 0.472882 0.102714 0.463645
640 2 0.466503 0.122931 0.494023
471 4 0.997837 0.168752 0.490012
469 2 0.0179118 0.178972 0.479162
470 4 0.0379864 0.189192 0.468311
260 4 0.0897419 0.190739 0.435347
261 4 0.129219 0.196772 0.465446
259 2 0.10948 0.193756 0.450397
1035 4 0.116445 0.191677 0.481296
695 4 0.112703 0.245373 0.459587
468 4 0.336836 0.166934 0.453066
411 4 0.270304 0.219958 0.470764
409 2 0.289184 0.203613 0.469523
410 4 0.308064 0.187267 0.468283
467 4 0.37118 0.182989 0.420456
466 2 0.354008 0.174962 0.436761
872 4 0.396204 0.247794 0.480248
306 4 0.486299 0.223414 0.446263
304 2 0.476032 0.214743 0.425178
346 2 0.0526057 0.297234 0.421013
348 4 0.0469529 0.280971 0.439144
694 2 0.119617 0.263725 0.475099
326 4 0.0884626 0.328641 0.439346
7 3 0.148748 0.340441 0.47745
10 3 0.182583 0.325474 0.482351
651 4 0.249574 0.290599 0.422593
649 2 0.251885 0.299257 0.445936
650 4 0.254196 0.307915 0.469278
266 4 0.313958 0.292896 0.430549
812 4 0.327285 0.332245 0.492272
267 4 0.358171 0.272757 0.442394
265 2 0.336064 0.282826 0.436471
583 2 0.47479 0.286057 0.469887
584 4 0.493296 0.272586 0.479949
585 4 0.456284 0.299528 0.459825
935 4 0.00282244 0.39241 0.503967
681 4 0.061317 0.417717 0.451597
383 4 0.0801405 0.419687 0.446529
327 4 0.0957771 0.313915 0.486572
325 2 0.0921198 0.321278 0.462959
6 1 0.166786 0.338987 0.491651
8 3 0.175486 0.360246 0.494928
711 4 0.182972 0.362587 0.47726
504 4 0.250645 0.394244 0.440197
709 2 0.196855 0.371532 0.458487
710 4 0.210738 0.380478 0.439714
774 4 0.247534 0.41698 0.479691
772 2 0.241861 0.402018 0.498903
502 2 0.267639 0.403634 0.424443
334 2 0.376625 0.380533 0.425007
238 2 0.391209 0.372168 0.486971
240 4 0.376659 0.382301 0.469341
335 4 0.375111 0.385614 0.449442
239 4 0.405758 0.362036 0.504601
560 4 0.496356 0.367957 0.42323
680 4 0.0270906 0.44806 0.431384
1381 2 0.0235228 0.484758 0.451176
1383 4 0.0281921 0.467445 0.433751
679 2 0.0442038 0.432888 0.44149
539 4 0.0745998 0.499431 0.489473
540 4 0.117446 0.474219 0.494881
568 2 0.143679 0.46042 0.424472
569 4 0.137441 0.45544 0.448167
382 2 0.100955 0.433057 0.4429
384 4 0.12177 0.446426 0.43927
538 2 0.0960231 0.486825 0.492177
1557 4 0.244653 0.494348 0.42553
636 4 0.224355 0.477182 0.469238
634 2 0.228047 0.452644 0.472316
635 4 0.231739 0.428107 0.475393
668 4 0.293267 0.438989 0.434352
667 2 0.304062 0.438345 0.456896
669 4 0.314858 0.437702 0.47944
1401 4 0.344943 0.497685 0.45079
586 2 0.406334 0.426692 0.429197
588 4 0.382648 0.432835 0.424059
663 4 0.456694 0.434944 0.482432
587 4 0.43002 0.42055 0.434335
1126 2 0.0365415 0.0509401 0.546761
1127 4 0.0220672 0.0373337 0.531578
1128 4 0.0510158 0.0645465 0.561945
2237 4 0.0225439 0.040252 0.485655
2236 2 0.0230538 0.0172122 0.495355
1058 4 0.118445 0.0628996 0.572657
1031 4 0.234577 0.0771548 0.574063
342 4 0.177758 0.0789029 0.505848
340 2 0.188395 0.0562879 0.506619
961 2 0.288124 0.0356273 0.513632
963 4 0.281014 0.0581455 0.505412
962 4 0.295234 0.0131091 0.521851
432 4 0.297053 0.0696732 0.512185
1217 4 0.410397 0.0635796 0.524551
1216 2 0.41224 0.0447899 0.540944
841 2 0.369852 0.0791149 0.517721
842 4 0.39335 0.0727425 0.523411
1218 4 0.414082 0.0260002 0.557337
1062 4 0.489835 0.0162857 0.546222
938 4 0.0965667 0.132633 0.569121
937 2 0.11181 0.124276 0.551149
939 4 0.127053 0.115919 0.533178
1154 4 0.173511 0.155229 0.586776
1030 2 0.252363 0.09422 0.578259
1152 4 0.171066 0.0885136 0.522915
1151 4 0.19834 0.129514 0.514209
1150 2 0.184703 0.109014 0.518562
430 2 0.316486 0.0850716 0.515414
1032 4 0.27015 0.111285 0.582455
899 4 0.321006 0.130872 0.545676
898 2 0.320958 0.155283 0.540268
843 4 0.346353 0.0854874 0.512031
431 4 0.335919 0.10047 0.518642
641 4 0.47282 0.141392 0.509658
3159 4 0.476613 0.16436 0.553954
877 2 0.0812211 0.213822 0.57676
878 4 0.0701654 0.206861 0.555441
1199 4 0.0079244 0.190421 0.56536
1034 4 0.116681 0.175074 0.528466
1033 2 0.116563 0.183376 0.504881
856 2 0.236327 0.222675 0.541761
857 4 0.221249 0.231893 0.524074
858 4 0.251406 0.213457 0.559449
900 4 0.320911 0.179695 0.534861
906 4 0.440531 0.216036 0.571124
983 4 0.041006 0.331071 0.536166
982 2 0.0346129 0.340413 0.55846
1258 2 0.1494 0.279536 0.518425
1260 4 0.125619 0.282143 0.511152
696 4 0.12653 0.282076 0.49061
9 3 0.159703 0.33012 0.51189
1259 4 0.17318 0.276929 0.525697
813 4 0.314139 0.302806 0.530498
811 2 0.320712 0.317525 0.511385
871 2 0.393791 0.246681 0.50511
873 4 0.391378 0.245569 0.529972
3065 4 0.503719 0.263059 0.530034
1189 2 0.212108 0.352168 0.573166
773 4 0.236188 0.387056 0.518116
1190 4 0.230662 0.339306 0.562419
802 2 0.286238 0.370493 0.528042
803 4 0.272621 0.362685 0.547505
804 4 0.299854 0.378301 0.508579
928 2 0.352089 0.374943 0.574615
929 4 0.352999 0.399731 0.571467
930 4 0.351179 0.350155 0.577763
925 2 0.459358 0.401155 0.531181
927 4 0.459593 0.41666 0.550795
926 4 0.459123 0.385649 0.511567
1159 2 0.166462 0.465947 0.58393
1161 4 0.185393 0.461911 0.568103
1171 2 0.238653 0.440746 0.569029
1173 4 0.224147 0.458773 0.559553
882 4 0.309384 0.478368 0.533877
880 2 0.332341 0.472814 0.525672
881 4 0.355297 0.467261 0.517466
1952 4 0.343946 0.491662 0.56812
1002 4 0.400694 0.43852 0.593613
1000 2 0.417735 0.447155 0.577481
1001 4 0.434776 0.45579 0.56135
662 4 0.475532 0.474709 0.506192
661 2 0.466113 0.454827 0.494312
1332 4 0.478362 0.490006 0.518556
945 4 0.0675843 0.0161818 0.651387
1185 4 0.00377643 0.0474561 0.649215
1057 2 0.130498 0.0801717 0.586132
825 4 0.151154 0.00354443 0.652039
823 2 0.1649 0.992067 0.63459
1284 4 0.180535 0.07917 0.642134
949 2 0.263779 0.0181661 0.592956
951 4 0.275094 0.0403143 0.595528
1092 4 0.350015 0.0122029 0.656732
809 4 0.481219 0.0625931 0.607574
45 3 0.419159 0.0888177 0.67073
1083 4 0.0411533 0.0809925 0.614864
1082 4 0.0276784 0.113212 0.650657
1081 2 0.0344158 0.097102 0.63276
1076 4 0.0392613 0.101733 0.66181
1059 4 0.142551 0.0974438 0.599607
1153 2 0.1655 0.131621 0.588695
1155 4 0.157489 0.108013 0.590614
909 4 0.148448 0.136616 0.664252
1283 4 0.211624 0.118327 0.641157
1282 2 0.196079 0.0987485 0.641645
1005 4 0.342902 0.0777591 0.65264
808 2 0.465318 0.0794716 0.616926
810 4 0.449417 0.0963501 0.626278
1244 4 0.042087 0.239705 0.59921
879 4 0.0922769 0.220783 0.598079
1272 4 0.108302 0.208053 0.599952
1270 2 0.132038 0.215006 0.603618
1271 4 0.155774 0.221959 0.607284
1209 4 0.0917774 0.228011 0.655774
1221 4 0.198942 0.182987 0.57326
797 4 0.233139 0.250548 0.600533
1210 2 0.231446 0.185796 0.650459
1212 4 0.211002 0.194799 0.639226
1219 2 0.201233 0.185359 0.598045
1220 4 0.203524 0.187732 0.62283
796 2 0.233877 0.234487 0.619682
798 4 0.234615 0.218427 0.638832
791 4 0.324678 0.224999 0.586823
1211 4 0.25189 0.176794 0.661691
904 2 0.460542 0.230696 0.574251
1024 2 0.452785 0.181147 0.64994
1025 4 0.445925 0.201119 0.636553
905 4 0.480554 0.245357 0.577378
1243 2 0.0574169 0.256109 0.610214
1245 4 0.0727467 0.272513 0.621217
948 4 0.160908 0.263143 0.632947
946 2 0.184926 0.267793 0.62778
947 4 0.208943 0.272443 0.622614
792 4 0.302236 0.269615 0.584278
790 2 0.313457 0.247307 0.585551
1238 4 0.300451 0.288773 0.584912
1237 2 0.305667 0.31125 0.594542
1239 4 0.310883 0.333728 0.604171
954 4 0.433097 0.26119 0.601457
952 2 0.444769 0.283182 0.599151
953 4 0.45644 0.305174 0.596845
984 4 0.0282197 0.349756 0.580754
1039 2 0.0642024 0.402996 0.620354
1041 4 0.0523834 0.387829 0.604372
1040 4 0.0760215 0.418163 0.636337
1137 4 0.122874 0.385334 0.591896
897 4 0.142585 0.384661 0.597412
1136 4 0.101835 0.341279 0.602721
1135 2 0.112355 0.363307 0.597308
992 4 0.130221 0.399244 0.6572
991 2 0.112991 0.412109 0.644442
1191 4 0.193554 0.36503 0.583912
896 4 0.191646 0.376091 0.601914
895 2 0.167115 0.380376 0.599663
806 4 0.334854 0.356497 0.654596
1204 2 0.391992 0.389731 0.648948
1205 4 0.398657 0.36715 0.640532
1206 4 0.385327 0.412313 0.657364
993 4 0.0957602 0.424974 0.631683
1160 4 0.14753 0.469982 0.599757
1187 4 0.194607 0.473565 0.599321
1186 2 0.203187 0.484362 0.620176
1172 4 0.253159 0.422719 0.578504
889 2 0.313997 0.448473 0.584736
891 4 0.294374 0.439703 0.597511
890 4 0.333621 0.457242 0.571961
2991 4 0.0112285 0.0655149 0.722451
944 4 0.0684098 0.0560909 0.681509
943 2 0.067997 0.0361364 0.666448
1147 2 0.214348 0.0623364 0.721984
1149 4 0.216221 0.0392729 0.71251
1090 2 0.354572 0.996849 0.675932
1003 2 0.336126 0.0779974 0.676707
1004 4 0.32935 0.0782356 0.700774
1163 4 0.451104 0.0553946 0.681735
1162 2 0.474044 0.0463441 0.685863
42 3 0.433031 0.0585033 0.687508
2320 2 0.484473 0.00904364 0.739599
2283 4 0.440369 0.995926 0.680296
41 1 0.428629 0.0809552 0.689892
862 2 0.0398507 0.123858 0.744264
864 4 0.0500801 0.107381 0.728483
1075 2 0.0410985 0.0999774 0.686684
1077 4 0.0429356 0.098222 0.711558
907 2 0.158608 0.139168 0.686956
908 4 0.168768 0.141719 0.709659
1227 4 0.181404 0.143236 0.724857
1148 4 0.212474 0.0853998 0.731458
1225 2 0.196921 0.123655 0.725848
1226 4 0.212438 0.104074 0.72684
829 2 0.313152 0.151415 0.707551
831 4 0.328738 0.133064 0.714296
1142 4 0.397634 0.146447 0.708672
3425 4 0.506939 0.161806 0.677286
43 3 0.414056 0.0838918 0.707708
44 3 0.448551 0.0921074 0.694031
1141 2 0.408411 0.159537 0.727048
1215 4 0.00170593 0.236533 0.738474
851 4 0.0641164 0.167637 0.715646
852 4 0.0261167 0.183573 0.687312
850 2 0.0451166 0.175605 0.701479
1178 4 0.993215 0.251523 0.729522
1107 4 0.0743559 0.180502 0.72701
1105 2 0.0842419 0.199446 0.739993
1207 2 0.105583 0.231917 0.676251
1208 4 0.119388 0.235824 0.696729
1131 4 0.219796 0.224115 0.762631
830 4 0.297566 0.169766 0.700806
886 2 0.279258 0.191492 0.685889
888 4 0.261635 0.193207 0.668235
887 4 0.296882 0.189777 0.703542
976 2 0.299254 0.194213 0.748227
978 4 0.295573 0.170557 0.741014
977 4 0.302936 0.217869 0.75544
1193 4 0.376233 0.224458 0.683543
1192 2 0.360762 0.210472 0.697334
1194 4 0.34529 0.196485 0.711125
1143 4 0.419189 0.172626 0.745424
1026 4 0.459645 0.161174 0.663327
1261 2 0.446793 0.231358 0.71384
1263 4 0.450946 0.214421 0.695923
1262 4 0.44264 0.248296 0.731758
1177 2 0.00507867 0.259343 0.708948
822 4 0.182426 0.272848 0.74915
820 2 0.178127 0.274527 0.724576
821 4 0.173828 0.276206 0.700002
1065 4 0.23762 0.289786 0.717148
1063 2 0.253908 0.288861 0.6982
1064 4 0.270196 0.287935 0.679253
3123 4 0.487148 0.275609 0.674164
892 2 0.0570388 0.36436 0.687744
893 4 0.060504 0.361215 0.663182
894 4 0.0535737 0.367506 0.712305
3276 4 0.0181907 0.371725 0.739824
1280 4 0.0553473 0.426656 0.678491
940 2 0.121598 0.380357 0.73444
1067 4 0.155214 0.390442 0.729942
941 4 0.136645 0.399566 0.728981
1028 4 0.208503 0.405691 0.687311
1066 2 0.175214 0.39595 0.715983
1068 4 0.195214 0.401458 0.702024
1027 2 0.229933 0.397457 0.677406
807 4 0.322429 0.349648 0.702548
805 2 0.328642 0.353072 0.678572
1029 4 0.251364 0.389223 0.667501
1019 4 0.396704 0.33664 0.748588
1281 4 0.0114214 0.438441 0.699285
1279 2 0.0333844 0.432549 0.688888
1983 4 0.0402591 0.477882 0.709177
1981 2 0.0463319 0.480424 0.733298
1982 4 0.0524048 0.482966 0.75742
1176 4 0.213869 0.480222 0.734468
1174 2 0.21647 0.494486 0.714097
1139 4 0.26044 0.430747 0.70655
1138 2 0.280256 0.445988 0.707053
1140 4 0.300071 0.461229 0.707555
1228 2 0.359706 0.465215 0.707008
1229 4 0.360725 0.488172 0.716862
1230 4 0.358686 0.442258 0.697153
1269 4 0.434337 0.457068 0.660786
1267 2 0.439757 0.477524 0.674102
1100 4 0.415315 0.441411 0.706346
1099 2 0.435939 0.431464 0.71639
1101 4 0.456563 0.421516 0.726434
1294 2 0.0130465 0.0181688 0.814558
911 4 0.0876903 0.0500832 0.82096
1203 4 0.111776 0.0765198 0.768043
1201 2 0.109157 0.0520875 0.763419
1202 4 0.106538 0.0276551 0.758795
2049 4 0.102505 0.00955584 0.750939
910 2 0.091054 0.0720938 0.832335
1255 2 0.285165 0.0664533 0.815748
1257 4 0.274612 0.0682495 0.793152
975 4 0.361756 0.996975 0.799641
973 2 0.369766 0.996264 0.823316
1113 4 0.413909 0.041088 0.777025
1112 4 0.431831 0.052415 0.822315
846 4 0.458124 0.06217 0.764162
844 2 0.474323 0.0541115 0.78142
1111 2 0.42287 0.0467515 0.79967
845 4 0.490522 0.046053 0.798678
2322 4 0.485445 0.0200473 0.76203
863 4 0.0296212 0.140336 0.760044
832 2 0.0171767 0.129906 0.798034
833 4 0.0291866 0.143302 0.78067
34 3 0.0984363 0.155133 0.822793
31 1 0.118293 0.160322 0.811968
33 3 0.126833 0.141409 0.801588
839 4 0.244028 0.141844 0.790511
838 2 0.258803 0.137596 0.81023
840 4 0.273578 0.133347 0.829948
1084 2 0.353685 0.113984 0.77137
1085 4 0.360193 0.102917 0.792826
1086 4 0.347177 0.125051 0.749914
819 4 0.366573 0.118165 0.803804
1299 4 0.355422 0.148711 0.773717
1213 2 0.0204818 0.230465 0.75383
1214 4 0.0392577 0.224397 0.769187
1073 4 0.0937113 0.23266 0.766898