ITEM: TIMESTEP
2920000
ITEM: NUMBER OF ATOMS
4590
ITEM: BOX BOUNDS pp pp pp
-9.9985700000000008e+00 9.9985700000000008e+00
-9.9985700000000008e+00 9.9985700000000008e+00
-9.9985700000000008e+00 9.9985700000000008e+00
ITEM: ATOMS id type xs ys zs
1667 4 0.995124 0.069418 0.047361
701 4 0.0125346 0.0801313 0.0519467
2974 2 0.45829 0.00799075 0.0284223
745 2 0.43616 0.06127 0.0207651
747 4 0.431827 0.0367744 0.0232879
2467 2 0.497579 0.0117104 0.0734323
986 4 0.422058 0.0207279 0.0153219
2975 4 0.441587 0.0216537 0.0157923
700 2 0.028078 0.0989152 0.0574916
702 4 0.0436214 0.117699 0.0630365
566 4 0.198199 0.172123 0.0321829
565 2 0.2174 0.171033 0.0162039
297 4 0.33686 0.124898 0.0210673
295 2 0.350902 0.120201 0.00091903
746 4 0.440493 0.0857656 0.0182423
558 4 0.425756 0.0934604 0.00653331
771 4 0.420567 0.134783 0.00732142
769 2 0.408514 0.155052 0.0156317
555 4 0.0693968 0.238786 0.0177403
770 4 0.396461 0.175322 0.023942
359 4 0.381718 0.187835 0.0208398
664 2 0.398831 0.211164 0.0482145
665 4 0.395018 0.189497 0.0363323
666 4 0.402644 0.232831 0.0600967
323 4 0.413611 0.242486 0.0745489
358 2 0.363292 0.192416 0.00457121
623 4 0.394183 0.243384 0.0734054
292 2 0.169533 0.325731 0.0344858
294 4 0.15658 0.318258 0.014447
293 4 0.182486 0.333203 0.0545247
507 4 0.189478 0.330522 0.0698684
287 4 0.202194 0.331854 0.0552681
286 2 0.223707 0.326819 0.0435638
288 4 0.245221 0.321784 0.0318595
505 2 0.192125 0.309558 0.0832363
481 2 0.227934 0.265017 0.0767448
482 4 0.246018 0.25268 0.0646639
573 4 0.264873 0.259088 0.0593206
571 2 0.279377 0.255635 0.0392483
572 4 0.293881 0.252182 0.0191759
357 4 0.293723 0.265592 0.0041212
956 4 0.333228 0.314774 0.0113172
1069 2 0.408695 0.309648 0.0337702
955 2 0.352857 0.323973 0.0237784
1071 4 0.389542 0.325611 0.0356521
957 4 0.372485 0.333172 0.0362396
322 2 0.421386 0.261353 0.0600998
324 4 0.429161 0.28022 0.0456507
1070 4 0.427848 0.293686 0.0318883
280 2 0.459554 0.303038 0.0540758
282 4 0.445623 0.287929 0.0398338
281 4 0.473485 0.318147 0.0683177
671 4 0.459434 0.33019 0.0792038
456 4 0.19906 0.395832 0.0506872
552 4 0.175866 0.344029 0.07088
454 2 0.194932 0.371559 0.0550408
455 4 0.190803 0.347286 0.0593943
1290 4 0.268344 0.403742 0.0355289
250 2 0.265047 0.416094 0.0685782
1288 2 0.281244 0.384237 0.0266777
1289 4 0.294144 0.364733 0.0178265
251 4 0.26049 0.419532 0.0442351
741 4 0.384744 0.341037 0.0480189
739 2 0.389623 0.345799 0.072075
328 2 0.998862 0.406843 0.0193482
329 4 0.0195272 0.393762 0.0245463
1788 4 0.0877469 0.465753 0.0839788
1786 2 0.099371 0.480999 0.0679278
627 4 0.142378 0.488393 0.0633353
1690 2 0.104234 0.505982 0.0107707
626 4 0.189462 0.47246 0.0578634
625 2 0.16592 0.480427 0.0605994
245 4 0.204756 0.470772 0.0701132
244 2 0.222338 0.457504 0.0582824
246 4 0.239921 0.444235 0.0464516
272 4 0.251012 0.434193 0.032548
271 2 0.261184 0.435733 0.00975908
1672 2 0.406481 0.435534 0.0705092
853 2 0.388097 0.441706 0.016684
1674 4 0.415345 0.436873 0.0471677
854 4 0.404081 0.448109 0.0348146
855 4 0.372114 0.435304 0.998553
564 4 0.422832 0.447329 0.0331105
563 4 0.464637 0.471769 0.0455882
562 2 0.443735 0.459549 0.0393494
228 4 0.484351 0.466301 0.045373
226 2 0.496152 0.486582 0.0367356
19 3 0.0589636 0.03335 0.152606
16 1 0.057758 0.0140315 0.165402
578 4 0.078639 0.030085 0.164037
577 2 0.0973845 0.0465522 0.165655
579 4 0.11613 0.0630193 0.167273
20 3 0.077317 0.0109265 0.176647
580 2 0.251415 0.055168 0.150136
582 4 0.242436 0.0767345 0.141224
491 4 0.250009 0.060688 0.0913503
581 4 0.260395 0.0336015 0.159048
490 2 0.271194 0.0514093 0.0818494
1475 4 0.292414 0.0271414 0.085188
492 4 0.292379 0.0421306 0.0723485
1474 2 0.295611 0.00374373 0.0769718
1760 4 0.49287 0.0294968 0.157671
486 4 0.435839 0.00864096 0.11753
1759 2 0.493508 0.0290245 0.13268
2469 4 0.508172 0.0243641 0.0922168
476 4 0.0620417 0.120739 0.0708197
475 2 0.0755985 0.13566 0.0856095
513 4 0.0574592 0.161325 0.161158
477 4 0.0891554 0.150582 0.100399
237 4 0.230112 0.0867129 0.154539
235 2 0.206064 0.0892738 0.16089
738 4 0.217319 0.162246 0.0874917
628 2 0.368856 0.164993 0.1566
629 4 0.360912 0.141869 0.151373
312 4 0.349237 0.12616 0.153389
2723 4 0.456051 0.0855056 0.167019
393 4 0.0488503 0.1696 0.176566
2759 4 7.30741e-05 0.175816 0.118454
2624 4 0.00404994 0.193444 0.10765
737 4 0.246932 0.201156 0.0979692
736 2 0.232125 0.181701 0.0927305
755 4 0.251416 0.246512 0.161523
460 2 0.327473 0.227908 0.113373
461 4 0.304673 0.218047 0.11053
354 4 0.289019 0.214561 0.121833
352 2 0.279156 0.226808 0.141273
353 4 0.269293 0.239056 0.160713
630 4 0.3768 0.188118 0.161828
462 4 0.350273 0.23777 0.116216
255 4 0.36167 0.235214 0.130917
253 2 0.375857 0.217633 0.141631
622 2 0.380459 0.245023 0.0942412
624 4 0.366734 0.246661 0.115077
254 4 0.390043 0.200051 0.152346
536 4 0.191121 0.256614 0.155147
483 4 0.20985 0.277354 0.0888258
506 4 0.194772 0.288595 0.0966042
537 4 0.183583 0.278338 0.11074
535 2 0.187352 0.267476 0.132944
754 2 0.231508 0.261466 0.16381
756 4 0.2116 0.276421 0.166097
301 2 0.322465 0.318926 0.14118
303 4 0.320904 0.301447 0.158991
764 4 0.333927 0.287627 0.157746
284 4 0.281461 0.251006 0.170441
302 4 0.324026 0.336405 0.12337
765 4 0.356812 0.253251 0.129546
763 2 0.34537 0.270439 0.143646
12 3 0.410698 0.323897 0.118155
527 4 0.474087 0.321315 0.0867909
526 2 0.495038 0.334961 0.0865614
647 4 0.0602146 0.371846 0.164325
550 2 0.156276 0.349193 0.0855343
551 4 0.136687 0.354358 0.100189
289 2 0.194913 0.404942 0.16819
252 4 0.269604 0.412655 0.0929214
609 4 0.281144 0.422683 0.105002
387 4 0.32691 0.350848 0.109947
385 2 0.351484 0.3541 0.106669
493 2 0.392736 0.390126 0.10173
495 4 0.391225 0.365545 0.106053
386 4 0.376057 0.357352 0.10339
15 3 0.37873 0.342309 0.112499
740 4 0.394502 0.350562 0.0961311
14 3 0.411473 0.36087 0.111439
11 1 0.399565 0.343733 0.121585
13 3 0.398001 0.347607 0.144409
494 4 0.394247 0.414706 0.0974069
672 4 0.416878 0.34191 0.102707
670 2 0.438156 0.33605 0.0909554
595 2 0.486258 0.407849 0.165252
1791 4 0.0539849 0.486728 0.134086
1465 2 0.0744209 0.457507 0.112025
1466 4 0.0643155 0.46853 0.132063
1467 4 0.0845262 0.446483 0.0919863
290 4 0.209243 0.425205 0.165147
638 4 0.21823 0.490546 0.148653
767 4 0.226238 0.482388 0.163877
766 2 0.225051 0.457782 0.159596
768 4 0.223864 0.433177 0.155314
607 2 0.303545 0.431981 0.111078
608 4 0.325946 0.441279 0.117154
659 4 0.332692 0.43475 0.0994609
1316 4 0.288769 0.511943 0.152529
660 4 0.38243 0.429637 0.100291
1673 4 0.397618 0.434196 0.0938508
658 2 0.357561 0.432194 0.0998762
524 4 0.397643 0.486384 0.132214
523 2 0.396301 0.463626 0.121946
525 4 0.39496 0.440867 0.111677
1559 4 0.387894 0.502377 0.141872
17 3 0.0405758 0.0162006 0.180542
2480 4 0.0341174 0.00901119 0.196124
2479 2 0.0198605 0.0283121 0.203152
380 4 0.0139489 0.0646485 0.202346
2481 4 0.00560367 0.047613 0.21018
379 2 0.0239757 0.0824688 0.187956
674 4 0.138921 0.0057626 0.222264
673 2 0.1179 0.998875 0.233921
450 4 0.124391 0.0601708 0.186
689 4 0.156461 0.00695694 0.211667
1504 2 0.234821 0.00385948 0.185725
1506 4 0.252708 0.0213256 0.186122
654 4 0.267803 0.0299983 0.177799
652 2 0.284177 0.0371683 0.195282
653 4 0.300551 0.0443382 0.212766
758 4 0.353532 0.073646 0.190804
759 4 0.359105 0.0617622 0.239058
757 2 0.356318 0.0677041 0.214931
350 4 0.373239 0.0574423 0.249776
349 2 0.398018 0.0544379 0.248307
25 3 0.338897 0.0245949 0.23937
2722 2 0.472206 0.0664243 0.166706
2724 4 0.488361 0.0473429 0.166394
742 2 0.502346 0.060279 0.238332
480 4 0.442047 0.0557692 0.244709
2744 4 0.505246 0.038398 0.168971
351 4 0.422797 0.0514336 0.246838
511 2 0.0512248 0.137118 0.161716
512 4 0.0449903 0.11291 0.162274
381 4 0.0340026 0.100289 0.173566
448 2 0.14563 0.0726604 0.181745
449 4 0.166869 0.0851499 0.17749
236 4 0.182016 0.0918348 0.167241
30 3 0.340898 0.132559 0.229692
310 2 0.354106 0.109192 0.171097
26 1 0.347664 0.145711 0.247009
311 4 0.358976 0.092225 0.188805
521 4 0.460815 0.142468 0.218958
762 4 0.446566 0.139059 0.233321
760 2 0.422808 0.145292 0.228647
332 4 0.462684 0.128997 0.23187
331 2 0.472829 0.108479 0.241932
520 2 0.481665 0.155059 0.213306
391 2 0.0605922 0.191356 0.180307
392 4 0.072334 0.213111 0.184047
339 4 0.0619611 0.217293 0.201074
337 2 0.0620714 0.242225 0.202955
396 4 0.994237 0.253939 0.241315
279 4 0.267013 0.212501 0.215591
277 2 0.265646 0.227951 0.19598
278 4 0.26428 0.2434 0.176368
761 4 0.399049 0.151525 0.223973
28 3 0.358412 0.164599 0.238876
394 2 0.0131375 0.267106 0.231589
395 4 0.0320378 0.280272 0.221863
338 4 0.0621817 0.267158 0.204836
363 4 0.0453894 0.276061 0.20719
361 2 0.0563062 0.298544 0.207904
362 4 0.0672231 0.321027 0.208618
372 4 0.0810203 0.330346 0.199817
370 2 0.104568 0.33276 0.207871
371 4 0.128115 0.335174 0.215925
612 4 0.219416 0.293689 0.172217
611 4 0.232546 0.322045 0.211259
610 2 0.225981 0.307867 0.191738
344 4 0.229568 0.321927 0.231042
343 2 0.208801 0.319985 0.244831
735 4 0.17892 0.329069 0.245557
285 4 0.31444 0.288465 0.167295
283 2 0.297951 0.269736 0.168868
729 4 0.315892 0.306677 0.176325
727 2 0.300958 0.320715 0.190647
308 4 0.328655 0.29249 0.175185
498 4 0.349049 0.290639 0.232816
307 2 0.340745 0.285956 0.196073
309 4 0.352835 0.279422 0.216961
648 4 0.0605351 0.333094 0.195931
749 4 0.0537061 0.332904 0.215031
748 2 0.0617338 0.3458 0.234891
646 2 0.0603748 0.35247 0.180128
734 4 0.137776 0.351271 0.22781
733 2 0.158348 0.34017 0.236683
417 4 0.140339 0.361714 0.209337
299 4 0.133244 0.363398 0.242588
415 2 0.153494 0.378222 0.195935
291 4 0.180584 0.384679 0.171233
416 4 0.16665 0.39473 0.182533
728 4 0.286025 0.334752 0.204969
445 2 0.391997 0.389564 0.245321
447 4 0.409472 0.405279 0.236786
644 4 0.411525 0.406859 0.216557
643 2 0.429191 0.40759 0.198877
645 4 0.446856 0.408321 0.181197
597 4 0.464374 0.401294 0.175416
264 4 0.0145555 0.432313 0.254712
412 2 0.239792 0.467151 0.230694
413 4 0.241381 0.443258 0.23789
414 4 0.238202 0.491045 0.223499
1574 4 0.31159 0.484248 0.20959
229 2 0.464188 0.484861 0.213321
231 4 0.481713 0.469446 0.204352
234 4 0.00542631 0.0512123 0.290574
232 2 0.027503 0.0395939 0.29225
233 4 0.0495797 0.0279754 0.293927
317 4 0.0603134 0.0264673 0.30897
1404 4 0.0679643 0.0195579 0.295524
316 2 0.0753006 0.0444284 0.3178
1402 2 0.0802367 0.00439593 0.279882
428 4 0.0644995 0.00852016 0.311853
2755 2 0.997607 0.0805099 0.319019
318 4 0.0902879 0.0623895 0.326629
732 4 0.102561 0.0737056 0.317671
693 4 0.317825 0.0642935 0.268106
691 2 0.303679 0.0765853 0.284659
24 3 0.32048 0.0447608 0.265289
22 3 0.35406 0.0559908 0.252684
632 4 0.363823 0.0706911 0.256639
21 1 0.341281 0.0375937 0.257917
23 3 0.351924 0.0255909 0.274683
257 4 0.406769 0.0690646 0.332222
743 4 0.486236 0.0684068 0.255641
479 4 0.453924 0.0425552 0.291453
478 2 0.447986 0.0491622 0.268081
2664 4 0.466012 0.0288128 0.300021
1428 4 0.447495 0.0277881 0.297116
258 4 0.439218 0.0421736 0.305303
2662 2 0.489449 0.0372096 0.302341
256 2 0.422994 0.0556191 0.318762
1426 2 0.444296 0.00390786 0.3038
730 2 0.126794 0.0772322 0.322721
731 4 0.151027 0.0807588 0.327772
403 2 0.238843 0.158553 0.326883
692 4 0.289534 0.088877 0.301212
721 2 0.270432 0.113741 0.310709
723 4 0.2866 0.106443 0.293087
722 4 0.254264 0.121038 0.32833
29 3 0.361967 0.13381 0.260871
631 2 0.361946 0.0941229 0.26516
707 4 0.367661 0.128352 0.28008
633 4 0.360068 0.117555 0.273681
706 2 0.369699 0.141357 0.301338
708 4 0.371737 0.154362 0.322595
333 4 0.482974 0.0879601 0.251994
444 4 0.0216858 0.20711 0.28101
442 2 0.00952051 0.225827 0.269747
443 4 0.997355 0.244543 0.258483
544 2 0.130691 0.23535 0.250562
546 4 0.106994 0.227743 0.252959
545 4 0.154389 0.242956 0.248166
405 4 0.227061 0.176954 0.314727
27 3 0.329276 0.152276 0.259171
269 4 0.405133 0.229678 0.333462
419 4 0.396793 0.24658 0.337545
402 4 0.159343 0.262283 0.25319
375 4 0.161046 0.323348 0.323005
373 2 0.142748 0.30818 0.330769
400 2 0.166547 0.285166 0.260234
401 4 0.173752 0.30805 0.267279
676 2 0.17251 0.333095 0.289227
345 4 0.188033 0.318042 0.258619
677 4 0.172513 0.328261 0.264695
378 4 0.289761 0.28461 0.304494
376 2 0.311067 0.297185 0.300872
377 4 0.332373 0.30976 0.29725
615 4 0.335535 0.329425 0.299985
497 4 0.34277 0.303687 0.280681
496 2 0.345909 0.297163 0.256748
541 2 0.364507 0.311306 0.31264
542 4 0.381052 0.306604 0.330788
420 4 0.398375 0.296128 0.330976
543 4 0.347963 0.316007 0.294492
418 2 0.397584 0.271354 0.33426
750 4 0.0697616 0.358695 0.254752
364 2 0.0131671 0.395776 0.298682
365 4 0.0374475 0.390037 0.297039
603 4 0.043311 0.384081 0.315693
300 4 0.0878479 0.362067 0.263521
298 2 0.110546 0.362733 0.253055
678 4 0.172507 0.33793 0.313758
510 4 0.192602 0.340116 0.319754
434 4 0.315143 0.380794 0.326942
433 2 0.30605 0.403221 0.320655
614 4 0.31385 0.37385 0.307527
613 2 0.324693 0.351638 0.303756
446 4 0.374522 0.373848 0.253855
1757 4 0.0335523 0.432061 0.262111
1756 2 0.0456804 0.452766 0.269139
1758 4 0.0578084 0.473471 0.276168
1775 4 0.072159 0.47946 0.288021
777 4 0.0682228 0.497552 0.295767
775 2 0.0554459 0.487282 0.314647
776 4 0.0426691 0.477012 0.333528
1776 4 0.119172 0.466728 0.276692
1774 2 0.0956657 0.473094 0.282356
1436 4 0.233332 0.442032 0.256016
1435 2 0.242375 0.44034 0.279266
1437 4 0.251418 0.438649 0.302515
4 3 0.245941 0.424315 0.32068
3 3 0.266669 0.454232 0.309737
1 1 0.26419 0.437693 0.325821
436 2 0.306006 0.45564 0.301044
438 4 0.287726 0.443315 0.312838
2 3 0.283138 0.424652 0.326061
435 4 0.296957 0.425648 0.314368
437 4 0.324286 0.467965 0.289249
1801 2 0.351041 0.487201 0.308973
1802 4 0.334164 0.486165 0.290554
1803 4 0.367918 0.488237 0.327393
119 3 0.493605 0.457976 0.324588
606 4 0.155564 0.0932963 0.342429
399 4 0.0920385 0.0796548 0.334608
604 2 0.177176 0.0860565 0.35271
605 4 0.198787 0.0788166 0.362991
699 4 0.373065 0.0640231 0.383253
1699 2 0.363975 0.0227073 0.386937
1700 4 0.371372 0.0452331 0.378997
697 2 0.381528 0.0701694 0.360543
1701 4 0.356577 0.00018147 0.394877
698 4 0.389992 0.0763157 0.337832
2757 4 0.998859 0.0940138 0.340025
2585 4 0.000699628 0.112126 0.35154
397 2 0.075415 0.0924275 0.348235
398 4 0.0587914 0.1052 0.361862
2584 2 0.0247802 0.117885 0.355025
2586 4 0.0488608 0.123644 0.35851
458 4 0.0485315 0.133435 0.375074
457 2 0.0506404 0.148575 0.39486
248 4 0.212764 0.0894878 0.353822
247 2 0.230974 0.106169 0.349906
249 4 0.249183 0.12285 0.34599
404 4 0.250625 0.140152 0.339039
683 4 0.258552 0.135108 0.356675
682 2 0.283141 0.139637 0.356839
684 4 0.307731 0.144166 0.357003
320 4 0.30671 0.156653 0.340074
321 4 0.356373 0.154382 0.334668
319 2 0.331541 0.155518 0.337371
726 4 0.401082 0.132436 0.40415
717 4 0.363654 0.149623 0.353395
715 2 0.37912 0.148219 0.372991
716 4 0.394587 0.146816 0.392587
467 4 0.397802 0.151236 0.410941
642 4 0.500549 0.0948911 0.390023
641 4 0.456335 0.11145 0.373541
640 2 0.478442 0.10317 0.381782
600 4 0.104263 0.186886 0.33273
598 2 0.111748 0.20131 0.351733
599 4 0.119233 0.215734 0.370735
389 4 0.137252 0.239985 0.380242
686 4 0.122479 0.229391 0.384764
685 2 0.108792 0.227758 0.405625
275 4 0.137218 0.2202 0.375914
274 2 0.160852 0.213966 0.381185
473 4 0.216216 0.183991 0.331419
474 4 0.191771 0.209106 0.367091
472 2 0.203994 0.196548 0.349255
276 4 0.184485 0.207732 0.386456
268 2 0.42417 0.216736 0.343222
270 4 0.443208 0.203795 0.352982
452 4 0.454382 0.216932 0.363162
451 2 0.464105 0.21672 0.386196
453 4 0.473828 0.216509 0.409231
347 4 0.0624725 0.306552 0.396668
346 2 0.0383589 0.302821 0.402126
618 4 0.0760567 0.306323 0.380902
388 2 0.134381 0.25973 0.365174
616 2 0.0970147 0.30032 0.368659
390 4 0.13151 0.279475 0.350105
617 4 0.117973 0.294316 0.356415
374 4 0.12445 0.293011 0.338533
2537 4 0.501973 0.327023 0.335478
601 2 0.0594825 0.382635 0.334708
602 4 0.0756539 0.381189 0.353723
549 4 0.0912287 0.380997 0.368177
547 2 0.097283 0.404119 0.375519
508 2 0.205045 0.355473 0.335068
509 4 0.217488 0.37083 0.350382
335 4 0.330506 0.368462 0.40864
240 4 0.332309 0.381732 0.391686
238 2 0.345865 0.390301 0.372504
239 4 0.35942 0.398871 0.353321
587 4 0.374148 0.413062 0.355467
752 4 0.469235 0.393991 0.384891
561 4 0.482019 0.393686 0.399878
559 2 0.495024 0.377258 0.413522
751 2 0.480175 0.411955 0.371372
500 4 0.0490241 0.460405 0.34134
499 2 0.0633995 0.455133 0.361107
501 4 0.077775 0.449861 0.380874
548 4 0.103337 0.42724 0.382861
407 4 0.0935933 0.44265 0.390713
406 2 0.109631 0.449082 0.408785
1545 4 0.172932 0.50334 0.409678
1544 4 0.202366 0.501357 0.369299
1556 4 0.219219 0.49752 0.377441
1543 2 0.187649 0.502348 0.389488
1555 2 0.240242 0.490249 0.388857
5 3 0.261345 0.447168 0.346334
636 4 0.27458 0.495854 0.408076
1557 4 0.261266 0.482978 0.400274
586 2 0.375624 0.438017 0.35496
593 4 0.394083 0.471841 0.357246
588 4 0.3771 0.462971 0.354453
592 2 0.413457 0.483681 0.346773
594 4 0.43283 0.49552 0.3363
712 2 0.467954 0.484001 0.342077
714 4 0.485594 0.466287 0.3416
753 4 0.491115 0.429919 0.357852
117 3 0.488169 0.451926 0.361283
367 2 0.0880793 0.0112007 0.445643
719 4 0.0556509 0.0173452 0.467168
718 2 0.0310407 0.0139371 0.464357
369 4 0.0761404 0.01541 0.467205
720 4 0.00643047 0.0105289 0.461546
368 4 0.100018 0.00699146 0.424081
2430 4 0.160423 0.0136967 0.494463
341 4 0.175964 0.0251338 0.488305
963 4 0.305395 0.0322179 0.439128
432 4 0.306221 0.0420467 0.456734
430 2 0.318986 0.0556027 0.473422
961 2 0.322515 0.015709 0.431412
431 4 0.33175 0.0691588 0.49011
962 4 0.339636 0.9992 0.423697
1217 4 0.3993 0.0319524 0.492729
842 4 0.38459 0.0292292 0.507276
841 2 0.364916 0.0424033 0.499241
1216 2 0.422437 0.0412381 0.494628
1218 4 0.445575 0.0505239 0.496526
459 4 0.0527493 0.163715 0.414647
724 2 0.39199 0.113805 0.418128
725 4 0.382898 0.0951744 0.432107
260 4 0.0530556 0.181147 0.42558
259 2 0.072584 0.195753 0.431101
261 4 0.0921123 0.210359 0.436622
687 4 0.0951056 0.226125 0.426486
1035 4 0.0947974 0.227013 0.44654
466 2 0.403271 0.171273 0.424861
468 4 0.40874 0.19131 0.438782
409 2 0.394359 0.227029 0.452554
410 4 0.404219 0.204058 0.452027
411 4 0.384499 0.250001 0.45308
515 4 0.467584 0.205594 0.425952
575 4 0.415443 0.207355 0.466915
516 4 0.422742 0.202627 0.447886
574 2 0.422152 0.194232 0.487113
514 2 0.445163 0.204111 0.436919
576 4 0.428861 0.18111 0.507312
2802 4 0.997843 0.287762 0.412581
348 4 0.0142453 0.29909 0.407585
1034 4 0.0895108 0.267103 0.47596
1033 2 0.0921541 0.247058 0.46125
696 4 0.0932352 0.276819 0.492073
1260 4 0.107922 0.274031 0.479907
1258 2 0.113507 0.297392 0.47296
1259 4 0.119092 0.320753 0.466013
9 3 0.146346 0.323077 0.431116
7 3 0.136387 0.325446 0.46728
489 4 0.382513 0.269665 0.448039
488 4 0.344975 0.271608 0.415056
487 2 0.363744 0.270636 0.431547
266 4 0.394663 0.263846 0.461488
265 2 0.405244 0.280835 0.476475
267 4 0.415825 0.297823 0.491462
3308 4 0.4865 0.32386 0.468286
1011 4 0.470536 0.310673 0.470458
1009 2 0.460869 0.295671 0.48797
326 4 0.0770041 0.359457 0.484631
6 1 0.14113 0.337674 0.448382
327 4 0.118146 0.340639 0.463325
325 2 0.097575 0.350048 0.473978
10 3 0.122934 0.350165 0.442768
709 2 0.136552 0.392174 0.493096
711 4 0.121941 0.405819 0.478078
8 3 0.159208 0.351544 0.452763
334 2 0.319204 0.374901 0.429994
336 4 0.307903 0.381341 0.451348
668 4 0.302714 0.397974 0.463113
882 4 0.343251 0.353625 0.493983
1382 4 0.0147318 0.489781 0.492431
1383 4 0.998775 0.448278 0.469549
1381 2 0.00675336 0.46903 0.48099
568 2 0.154427 0.482041 0.433508
383 4 0.119039 0.458961 0.444359
384 4 0.127518 0.423912 0.479006
382 2 0.123278 0.441436 0.461682
408 4 0.125669 0.455514 0.426857
569 4 0.1378 0.464141 0.438831
570 4 0.171053 0.499941 0.428185
667 2 0.301183 0.421842 0.455825
774 4 0.311971 0.459894 0.445673
635 4 0.292761 0.460687 0.438629
634 2 0.28367 0.478271 0.423353
669 4 0.299651 0.445711 0.448536
772 2 0.335688 0.466747 0.449636
773 4 0.359406 0.4736 0.453599
663 4 0.465999 0.493198 0.446671
1152 4 0.202002 0.0523817 0.529791
342 4 0.21183 0.0375565 0.520862
340 2 0.193897 0.0313452 0.504584
1032 4 0.229013 0.0626892 0.581502
1150 2 0.209799 0.0631429 0.55097
1151 4 0.217596 0.073904 0.57215
843 4 0.345242 0.0555775 0.491206
1270 2 0.0781344 0.151964 0.550631
1058 4 0.11416 0.105482 0.504651
1271 4 0.0890956 0.132116 0.561171
1057 2 0.107861 0.112817 0.527709
1059 4 0.101562 0.120151 0.550768
1155 4 0.107266 0.128982 0.56694
939 4 0.0908697 0.117154 0.566217
1153 2 0.12851 0.13547 0.57842
1180 2 0.233243 0.105083 0.584006
1181 4 0.235081 0.0805133 0.579747
1182 4 0.231406 0.129652 0.588266
1199 4 0.0237404 0.211934 0.56633
879 4 0.074625 0.188989 0.548293
1198 2 0.000101557 0.216895 0.559867
877 2 0.0574504 0.200596 0.562275
1272 4 0.0671732 0.171812 0.540091
651 4 0.216766 0.228677 0.525146
858 4 0.201897 0.237909 0.513876
898 2 0.238757 0.163959 0.572006
649 2 0.231829 0.209652 0.531176
650 4 0.246892 0.190628 0.537206
899 4 0.242815 0.179482 0.55283
695 4 0.0736389 0.283015 0.537662
982 2 0.0151352 0.284666 0.587685
694 2 0.083437 0.279917 0.514868
946 2 0.1744 0.283862 0.573246
856 2 0.196494 0.255909 0.530369
857 4 0.191091 0.273909 0.546861
947 4 0.191087 0.26653 0.566441
798 4 0.20606 0.261251 0.577764
796 2 0.229683 0.267825 0.572873
503 4 0.187426 0.327614 0.493427
791 4 0.25312 0.295262 0.564733
790 2 0.26266 0.318147 0.56797
2455 2 0.484264 0.252977 0.514601
2457 4 0.466357 0.270311 0.51259
1010 4 0.451203 0.280668 0.505481
710 4 0.151163 0.378529 0.508113
502 2 0.175945 0.346818 0.504587
504 4 0.164465 0.366023 0.515748
1189 2 0.240239 0.371686 0.577933
803 4 0.271924 0.367421 0.556569
804 4 0.279205 0.371831 0.507292
802 2 0.275564 0.369626 0.531931
1190 4 0.258799 0.357804 0.568555
1238 4 0.274794 0.359241 0.573308
792 4 0.272199 0.341031 0.571207
1237 2 0.29745 0.364385 0.58255
930 4 0.329452 0.384306 0.582949
929 4 0.366262 0.376047 0.550124
881 4 0.364637 0.379936 0.53074
880 2 0.353944 0.36678 0.512362
928 2 0.347857 0.380176 0.566537
2244 4 0.111533 0.493013 0.571064
1160 4 0.1237 0.486734 0.584652
1081 2 0.0715183 0.0693905 0.640141
1082 4 0.0757235 0.0516534 0.657255
1083 4 0.067313 0.0871276 0.623027
1283 4 0.159246 0.0733394 0.667426
1030 2 0.243106 0.0513745 0.59878
825 4 0.17304 0.062616 0.658307
1031 4 0.257199 0.0400599 0.616059
824 4 0.188163 0.0159033 0.667791
823 2 0.180601 0.0392596 0.663049
951 4 0.250532 0.028402 0.630532
949 2 0.268866 0.0116626 0.6335
3008 4 0.489307 0.0162898 0.588456
809 4 0.488427 0.0220913 0.607
808 2 0.476905 0.0370802 0.623363
810 4 0.465383 0.0520691 0.639727
45 3 0.461038 0.0739582 0.637091
41 1 0.455836 0.0680786 0.658469
1127 4 0.0517097 0.100468 0.622695
1126 2 0.0309165 0.100475 0.608809
1128 4 0.0101233 0.100481 0.594923
938 4 0.0776339 0.0880603 0.604676
937 2 0.0842518 0.102607 0.585447
1154 4 0.149754 0.141957 0.5899
900 4 0.2347 0.148435 0.591183
1221 4 0.168297 0.135564 0.591982
1219 2 0.192962 0.138787 0.594519
1211 4 0.235273 0.135768 0.657255
1210 2 0.232868 0.143435 0.633578
1220 4 0.217627 0.14201 0.597055
1212 4 0.230463 0.151103 0.609901
908 4 0.217477 0.135717 0.66353
1227 4 0.235936 0.126042 0.670839
1192 2 0.320489 0.157691 0.648036
1193 4 0.332543 0.148094 0.628344
3424 2 0.491721 0.100918 0.647688
3425 4 0.472558 0.0855018 0.652194
878 4 0.0402759 0.212203 0.576257
1244 4 0.0526831 0.218835 0.590365
1243 2 0.0453005 0.240693 0.600005
3123 4 0.49146 0.2289 0.626282
983 4 0.0251452 0.276389 0.609051
1245 4 0.0379179 0.26255 0.609645
3263 4 0.0640379 0.322057 0.618123
948 4 0.157713 0.301194 0.58005
820 2 0.154049 0.324182 0.665313
797 4 0.253306 0.274398 0.567982
1135 2 0.165738 0.32814 0.613984
1136 4 0.160008 0.311986 0.595779
822 4 0.16296 0.342361 0.650641
872 4 0.372863 0.283666 0.594092
871 2 0.363564 0.299712 0.610862
873 4 0.354265 0.315758 0.627633
954 4 0.454523 0.297077 0.602351
952 2 0.468433 0.31785 0.602752
3262 2 0.0600689 0.346641 0.615868
1041 4 0.0696401 0.382791 0.619958
3264 4 0.0560999 0.371224 0.613612
3240 4 0.0543164 0.391653 0.612551
3238 2 0.029512 0.394435 0.611075
3239 4 0.00470762 0.397217 0.609598
1039 2 0.0892173 0.391441 0.632885
1040 4 0.108794 0.400091 0.645811
993 4 0.125556 0.388629 0.645266
991 2 0.144261 0.372457 0.641552
992 4 0.162966 0.356285 0.637839
1137 4 0.171467 0.344294 0.632188
1064 4 0.177366 0.353961 0.646837
897 4 0.178925 0.361195 0.628247
896 4 0.208145 0.389744 0.599405
895 2 0.193535 0.37547 0.613826
1172 4 0.208584 0.400662 0.5839
1191 4 0.221678 0.385568 0.587312
1239 4 0.320105 0.36953 0.591793
813 4 0.368368 0.325946 0.636033
811 2 0.382384 0.346592 0.637602
1206 4 0.387831 0.376487 0.652448
927 4 0.396411 0.388957 0.64154
812 4 0.3964 0.367238 0.639171
925 2 0.402769 0.401919 0.621126
926 4 0.409127 0.414881 0.600711
953 4 0.482344 0.338622 0.603153
906 4 0.479117 0.35749 0.609778
540 4 0.105843 0.479778 0.584328
539 4 0.0942522 0.431143 0.583346
538 2 0.100047 0.45546 0.583837
1159 2 0.147529 0.487507 0.592186
1171 2 0.220915 0.421447 0.590311
1186 2 0.203207 0.476383 0.596129
1173 4 0.233245 0.442233 0.596723
1187 4 0.217469 0.455856 0.596778
1188 4 0.188945 0.49691 0.595481
1161 4 0.171358 0.48828 0.59972
1002 4 0.41382 0.433722 0.608235
1911 4 0.441784 0.490165 0.612359
1001 4 0.445848 0.471709 0.613886
1000 2 0.429834 0.452715 0.611061
1269 4 0.460377 0.486071 0.614244
1267 2 0.475427 0.48981 0.633858
1268 4 0.490478 0.493549 0.653471
943 2 0.0448296 0.0129989 0.672637
944 4 0.0646705 0.0281444 0.674097
1076 4 0.0715376 0.0474845 0.676405
1075 2 0.070051 0.063172 0.695818
945 4 0.0249887 0.997853 0.671176
864 4 0.0647387 0.0768389 0.733799
862 2 0.0438818 0.073887 0.747269
1107 4 0.0801876 0.0870394 0.724665
1105 2 0.100719 0.0868763 0.738934
1149 4 0.2551 0.0418743 0.729527
1147 2 0.256082 0.0545703 0.708009
1148 4 0.257065 0.0672664 0.686491
1004 4 0.34656 0.0825328 0.752211
1092 4 0.32704 0.0106002 0.688622
42 3 0.459251 0.0454899 0.661159
43 3 0.433547 0.0728624 0.662795
1163 4 0.471581 0.0570817 0.675518
1162 2 0.484623 0.0487419 0.695153
44 3 0.469435 0.0795476 0.673366
1077 4 0.0685644 0.0788594 0.715231
851 4 0.0711136 0.0985199 0.711959
850 2 0.0712824 0.1221 0.703644
852 4 0.0714511 0.14568 0.695329
1282 2 0.160592 0.096691 0.676262
1284 4 0.161938 0.120043 0.685097
909 4 0.175043 0.13547 0.689988
907 2 0.19626 0.135593 0.676759
1225 2 0.246088 0.103195 0.671204
888 4 0.248921 0.139901 0.670235
1194 4 0.308435 0.167288 0.667728
886 2 0.270547 0.152089 0.673228
1226 4 0.256239 0.0803479 0.671568
829 2 0.324546 0.15221 0.70206
830 4 0.309327 0.165249 0.68711
1005 4 0.350089 0.122894 0.722899
1003 2 0.348325 0.102713 0.737555
831 4 0.339766 0.139171 0.717011
3270 4 0.486176 0.15947 0.720959
1113 4 0.501465 0.11723 0.756617
1178 4 0.0124099 0.243953 0.731476
1215 4 0.000612447 0.231789 0.741105
887 4 0.292173 0.164277 0.676222
977 4 0.300613 0.231473 0.723741
976 2 0.325602 0.230627 0.723652
1298 4 0.293939 0.223599 0.741944
918 4 0.288742 0.240301 0.735764
1297 2 0.283987 0.201307 0.747347
978 4 0.350591 0.229781 0.723564
1025 4 0.392407 0.185222 0.686582
1020 4 0.370172 0.23043 0.720934
1018 2 0.376845 0.240255 0.742937
1024 2 0.410905 0.19334 0.701317
1142 4 0.43551 0.198658 0.733048
1144 2 0.470446 0.191012 0.718509
1262 4 0.435208 0.216055 0.722931
1026 4 0.429403 0.201457 0.716051
1261 2 0.44278 0.23935 0.717912
1145 4 0.449454 0.204115 0.722093
1146 4 0.491438 0.177909 0.714925
1177 2 0.0212454 0.262733 0.717533
1179 4 0.0300809 0.281513 0.703589
1208 4 0.153087 0.270108 0.728745
1074 4 0.141361 0.261227 0.740206
1207 2 0.157217 0.286175 0.710037
821 4 0.145137 0.306003 0.679985
1209 4 0.161347 0.302242 0.69133
1072 2 0.118579 0.252849 0.73421
1130 4 0.15749 0.253537 0.741696
1073 4 0.0957962 0.244471 0.728215
1263 4 0.450352 0.262645 0.712894
3114 4 0.50563 0.324584 0.671778
892 2 0.0275343 0.369307 0.730169
1279 2 0.0659024 0.416166 0.726586
1280 4 0.0643658 0.39121 0.726384
816 4 0.0652351 0.371425 0.725757
894 4 0.04964 0.38072 0.732669
893 4 0.00542865 0.357894 0.727668
814 2 0.089063 0.364079 0.727613
815 4 0.112891 0.356733 0.729469
942 4 0.125002 0.346289 0.744041
940 2 0.146341 0.359077 0.746548
805 2 0.234063 0.340448 0.700791
1063 2 0.193971 0.359777 0.664603
1065 4 0.210576 0.365594 0.682369
807 4 0.214007 0.355057 0.6977
1028 4 0.209627 0.384231 0.681045
1066 2 0.197538 0.375878 0.720356
1068 4 0.21039 0.374608 0.698946
1027 2 0.219712 0.407049 0.679373
1067 4 0.184685 0.377147 0.741766
806 4 0.254118 0.32584 0.703882
1204 2 0.379256 0.391807 0.670251
1205 4 0.37068 0.407126 0.688054
1281 4 0.0674391 0.441121 0.726788
1983 4 0.0816503 0.444281 0.739229
1981 2 0.097424 0.463287 0.743119
1029 4 0.229798 0.429867 0.677701
1176 4 0.172662 0.473664 0.733034
1175 4 0.204578 0.491341 0.698835
1174 2 0.18862 0.482503 0.715935
2016 4 0.171878 0.489718 0.745455
1140 4 0.247777 0.434945 0.67011
2026 2 0.287632 0.499954 0.698253
1138 2 0.265771 0.451861 0.674014
1139 4 0.283765 0.468777 0.677918
1987 2 0.289188 0.452436 0.728704
1229 4 0.300499 0.46835 0.688926
1989 4 0.297028 0.461768 0.706873
2028 4 0.286673 0.475027 0.696552
1228 2 0.323101 0.464241 0.679056
1988 4 0.281349 0.443104 0.750536
1230 4 0.345703 0.460131 0.669185
1101 4 0.484399 0.485773 0.67032
1099 2 0.478786 0.484004 0.694621
1100 4 0.473173 0.482235 0.718922
2168 4 0.488625 0.505368 0.66875
2989 2 0.0165385 0.0356437 0.778048
2990 4 0.0136777 0.0600107 0.773226
2991 4 0.0193992 0.0112767 0.782869
863 4 0.023025 0.0709352 0.76074
833 4 0.0166719 0.0773895 0.779649
3083 4 0.00626814 0.0767394 0.763674
1106 4 0.121251 0.0867132 0.753203
2049 4 0.106023 0.0121195 0.793236
1202 4 0.115862 0.0292284 0.793455
1201 2 0.123653 0.0526879 0.789696
1203 4 0.131444 0.0761475 0.785936
1085 4 0.317637 0.0734169 0.80594
960 4 0.322887 0.0695749 0.826365
1084 2 0.296235 0.0827978 0.797043
819 4 0.334897 0.0694297 0.812091
817 2 0.343314 0.0470176 0.804877
818 4 0.351731 0.0246055 0.797664
974 4 0.363669 0.00753144 0.795553
844 2 0.493297 0.0651693 0.815912
845 4 0.49761 0.0592942 0.791994
2322 4 0.495225 0.0585553 0.771659
2320 2 0.498137 0.0445748 0.751135
832 2 0.0172144 0.0926758 0.799428
834 4 0.017757 0.107962 0.819207
1125 4 0.0248403 0.12609 0.823024