ITEM: TIMESTEP
610000
ITEM: NUMBER OF ATOMS
4590
ITEM: BOX BOUNDS pp pp pp
-9.9985700000000008e+00 9.9985700000000008e+00
-9.9985700000000008e+00 9.9985700000000008e+00
-9.9985700000000008e+00 9.9985700000000008e+00
ITEM: ATOMS id type xs ys zs
463 2 0.0120725 0.0706745 0.0434964
465 4 0.0350254 0.0779162 0.0502714
1667 4 0.0422174 0.0748144 0.06715
1666 2 0.0540783 0.0561566 0.0788284
534 4 0.232646 0.0636685 0.00300178
490 2 0.301526 0.0290098 0.0394321
491 4 0.320273 0.0394158 0.0522946
492 4 0.282779 0.0186037 0.0265695
2264 4 0.291061 0.0157008 0.00793182
296 4 0.332599 0.0521799 0.0592543
557 4 0.322586 0.0573805 0.0436752
556 2 0.330329 0.0802561 0.0371998
1606 2 0.395536 0.0121867 0.0173774
295 2 0.347136 0.0395772 0.0752237
1607 4 0.403957 0.00131001 0.0382571
745 2 0.474888 0.0506356 0.0628244
747 4 0.487458 0.0502123 0.0412142
2975 4 0.489165 0.0581287 0.0234075
746 4 0.462318 0.051059 0.0844346
701 4 0.0533581 0.0826997 0.0516407
590 4 0.0414328 0.0930599 0.0624935
700 2 0.071829 0.0938906 0.0390403
589 2 0.0328024 0.112629 0.0754444
3232 2 0.0218957 0.141564 0.0300172
3234 4 0.0409359 0.129032 0.0402924
702 4 0.0902998 0.105081 0.0264398
421 2 0.111055 0.129675 0.00462835
423 4 0.102193 0.106683 0.00887442
422 4 0.119917 0.152667 0.000382284
566 4 0.15742 0.104299 0.0671002
565 2 0.167964 0.12183 0.0527243
567 4 0.178508 0.139361 0.0383484
358 2 0.299495 0.153541 0.0132906
359 4 0.321606 0.159046 0.00299693
360 4 0.277384 0.148036 0.0235844
558 4 0.338072 0.103132 0.0307244
770 4 0.424758 0.156744 0.0409055
553 2 0.0839998 0.247396 0.0456508
555 4 0.0911024 0.244374 0.0218685
357 4 0.221067 0.239862 0.0199395
666 4 0.327108 0.238031 0.020275
461 4 0.322553 0.220843 0.0736589
572 4 0.315856 0.251728 0.0284735
827 4 0.422233 0.171023 0.00807076
771 4 0.449323 0.194659 0.0623461
769 2 0.437041 0.175701 0.0516258
554 4 0.0768971 0.250418 0.0694331
292 2 0.115097 0.305418 0.0301256
293 4 0.137141 0.295879 0.037073
507 4 0.156494 0.297597 0.0389948
294 4 0.0930538 0.314957 0.0231781
505 2 0.180693 0.296987 0.0452574
506 4 0.204892 0.296376 0.05152
483 4 0.201118 0.306585 0.0679971
481 2 0.220603 0.318589 0.0780672
573 4 0.291474 0.273973 0.0660428
571 2 0.303665 0.262851 0.0472581
1071 4 0.378899 0.314706 0.0247738
1069 2 0.390914 0.296747 0.0373551
1070 4 0.402929 0.278788 0.0499364
322 2 0.409433 0.260541 0.0776806
323 4 0.41676 0.27897 0.0624537
288 4 0.135904 0.394701 0.0139843
252 4 0.314964 0.403441 0.0425769
250 2 0.302789 0.392203 0.0238517
251 4 0.290613 0.380965 0.00512637
608 4 0.304654 0.402448 0.0594606
607 2 0.316553 0.393357 0.0794837
956 4 0.377449 0.330729 0.0132721
282 4 0.48454 0.342915 0.0414805
281 4 0.434755 0.343685 0.0368293
671 4 0.423371 0.342024 0.0539692
280 2 0.459647 0.3433 0.0391549
670 2 0.421079 0.337376 0.0784298
1787 4 0.0443414 0.49655 0.0644733
314 4 0.00386829 0.436199 0.0740037
242 4 0.153305 0.471428 0.053885
793 2 0.136865 0.495957 0.0114779
241 2 0.170595 0.481664 0.0687668
243 4 0.187885 0.491899 0.0836486
245 4 0.258972 0.427257 0.0205388
244 2 0.267269 0.45084 0.0209791
246 4 0.275566 0.474422 0.0214195
272 4 0.291852 0.485281 0.0202681
523 2 0.313419 0.455016 0.0863439
525 4 0.334817 0.448075 0.0754278
563 4 0.481211 0.491773 0.0423355
1668 4 0.0659392 0.0374987 0.0905068
1420 2 0.0366718 0.0104254 0.146377
1422 4 0.0365058 0.0302558 0.161606
2480 4 0.0339773 0.0515061 0.159481
450 4 0.141845 0.0749833 0.142943
1506 4 0.248208 0.0218309 0.152138
652 2 0.316828 0.0428003 0.145561
653 4 0.316108 0.0612966 0.128752
485 4 0.372193 0.0087753 0.0883168
297 4 0.361674 0.0269744 0.091193
758 4 0.395051 0.0378312 0.135839
757 2 0.392886 0.0381091 0.160748
2760 4 0.0160646 0.150163 0.0850668
591 4 0.024172 0.132199 0.0883953
448 2 0.163153 0.0837992 0.152608
475 2 0.0892566 0.160193 0.125448
477 4 0.0950729 0.152066 0.102529
237 4 0.184573 0.151362 0.128364
449 4 0.184462 0.0926151 0.162273
235 2 0.185381 0.132287 0.144508
236 4 0.18619 0.113212 0.160653
693 4 0.191645 0.103701 0.175924
582 4 0.322616 0.0988622 0.165798
628 2 0.440949 0.163615 0.107714
629 4 0.460863 0.164787 0.0926383
630 4 0.421036 0.162444 0.122789
476 4 0.0834403 0.16832 0.148368
337 2 0.0834945 0.242002 0.160311
338 4 0.103978 0.227812 0.15825
737 4 0.180861 0.169137 0.117363
736 2 0.178904 0.191853 0.127626
738 4 0.176948 0.214569 0.13789
354 4 0.257787 0.220963 0.0939847
352 2 0.264818 0.2444 0.0991269
254 4 0.409781 0.175441 0.111281
253 2 0.385711 0.182039 0.109772
460 2 0.334122 0.210427 0.0932258
255 4 0.361641 0.188636 0.108262
462 4 0.345691 0.200012 0.112793
324 4 0.402106 0.242112 0.0929076
517 2 0.494951 0.220907 0.111911
518 4 0.473388 0.208636 0.115014
339 4 0.0630113 0.256193 0.162372
703 2 0.0209257 0.322899 0.157122
705 4 0.0232308 0.336426 0.13622
482 4 0.240088 0.330593 0.0881373
535 2 0.199517 0.317141 0.139241
536 4 0.206778 0.293512 0.135486
353 4 0.271848 0.267838 0.104269
754 2 0.280913 0.298824 0.133083
755 4 0.280843 0.278307 0.118792
756 4 0.280983 0.319341 0.147374
612 4 0.267543 0.329838 0.157939
741 4 0.368449 0.330266 0.088542
623 4 0.388365 0.280382 0.15435
528 4 0.466385 0.310443 0.155535
526 2 0.46359 0.33305 0.165844
620 4 0.0193198 0.345081 0.117277
621 4 0.0404594 0.388957 0.128622
619 2 0.0298896 0.367019 0.12295
455 4 0.0999227 0.348926 0.127724
454 2 0.102603 0.372054 0.118607
456 4 0.105283 0.395181 0.109491
537 4 0.192256 0.340771 0.142996
609 4 0.328452 0.384265 0.0995069
610 2 0.279287 0.350493 0.165724
387 4 0.32539 0.369806 0.164327
385 2 0.328501 0.371727 0.139592
611 4 0.291031 0.371149 0.173508
740 4 0.345445 0.372735 0.101499
386 4 0.331613 0.373649 0.114857
739 2 0.356947 0.351501 0.0950207
15 3 0.403295 0.368156 0.135196
12 3 0.425803 0.342724 0.119721
11 1 0.423506 0.357807 0.136937
14 3 0.440569 0.373467 0.135517
672 4 0.418787 0.332728 0.10289
13 3 0.424861 0.346424 0.157112
495 4 0.459502 0.382232 0.132982
493 2 0.456222 0.40702 0.132934
2652 4 0.514611 0.384195 0.131422
645 4 0.45996 0.393256 0.16522
1786 2 0.0531962 0.498509 0.0877742
1788 4 0.0620509 0.500468 0.111075
417 4 0.167675 0.460105 0.160204
627 4 0.236096 0.42476 0.113251
1439 4 0.236179 0.50037 0.108437
524 4 0.292022 0.461957 0.0972599
625 2 0.248591 0.428432 0.134595
626 4 0.261085 0.432104 0.15594
639 4 0.255418 0.496716 0.1044
637 2 0.263145 0.493403 0.127948
638 4 0.270872 0.49009 0.151496
767 4 0.286109 0.480339 0.162298
660 4 0.385077 0.46465 0.163292
494 4 0.452943 0.431807 0.132886
17 3 0.059019 0.0687108 0.189727
20 3 0.081402 0.042149 0.176076
19 3 0.0443931 0.0407654 0.169288
16 1 0.0607668 0.0463178 0.184762
18 3 0.0577486 0.0340601 0.204231
2479 2 0.0133373 0.0632207 0.167351
673 2 0.113158 0.0580063 0.226142
674 4 0.132042 0.0673392 0.239613
675 4 0.0942732 0.0486735 0.212672
1505 4 0.226278 0.0517193 0.185701
1504 2 0.237243 0.0367751 0.168919
689 4 0.224878 0.061388 0.202414
688 2 0.215869 0.0441295 0.218104
692 4 0.228542 0.0718426 0.187076
690 4 0.206861 0.026871 0.233794
691 2 0.210093 0.0877716 0.1815
654 4 0.317549 0.0243041 0.16237
21 1 0.402362 0.0387199 0.217151
24 3 0.388322 0.0204597 0.214347
25 3 0.402802 0.0511817 0.198094
759 4 0.390721 0.0383869 0.185656
22 3 0.394415 0.0516214 0.234459
1496 4 0.3767 0.0181626 0.231844
312 4 0.407873 0.0703887 0.19928
23 3 0.423785 0.0315098 0.222392
1759 2 0.488168 0.00600339 0.169062
1760 4 0.498635 0.0244353 0.182325
742 2 0.455458 0.0516744 0.2276
744 4 0.444293 0.0302308 0.22122
743 4 0.466622 0.0731181 0.233979
380 4 0.0102655 0.152138 0.161156
379 2 0.000874056 0.152431 0.184327
577 2 0.106444 0.136591 0.236687
578 4 0.111989 0.144509 0.213628
546 4 0.157997 0.13247 0.246709
723 4 0.18906 0.106327 0.196676
721 2 0.181196 0.120011 0.216069
722 4 0.173332 0.133694 0.235462
580 2 0.308928 0.109648 0.183728
581 4 0.295239 0.120435 0.201657
30 3 0.290733 0.129049 0.219164
26 1 0.273928 0.115973 0.227245
28 3 0.268429 0.0996459 0.211702
27 3 0.280938 0.105739 0.246617
29 3 0.255321 0.12901 0.231958
310 2 0.403733 0.0938931 0.191824
311 4 0.399593 0.117398 0.184369
333 4 0.424737 0.13733 0.239254
511 2 0.0204295 0.167852 0.236992
513 4 0.0408703 0.174505 0.249763
395 4 0.0377752 0.231177 0.226051
394 2 0.0229372 0.235828 0.245631
363 4 0.118088 0.220946 0.170665
361 2 0.135392 0.22717 0.187607
362 4 0.152696 0.233394 0.204548
372 4 0.171617 0.238543 0.203256
370 2 0.191131 0.245119 0.189075
283 2 0.287029 0.217818 0.167321
284 4 0.265226 0.229873 0.1652
285 4 0.308832 0.205763 0.169442
763 2 0.371688 0.245561 0.214205
765 4 0.394239 0.235421 0.210493
521 4 0.488828 0.200308 0.239749
704 4 0.0186206 0.309371 0.178023
748 2 0.0706401 0.279277 0.225787
749 4 0.062059 0.272833 0.203204
750 4 0.0792211 0.285721 0.248371
277 2 0.243129 0.273297 0.185323
371 4 0.210646 0.251696 0.174893
279 4 0.219525 0.265126 0.186436
344 4 0.233329 0.29787 0.231922
343 2 0.257589 0.294408 0.236885
278 4 0.266733 0.281469 0.18421
307 2 0.310705 0.268106 0.234824
345 4 0.28185 0.290947 0.241849
622 2 0.388608 0.283353 0.179175
764 4 0.349136 0.255702 0.217918
309 4 0.328246 0.259198 0.219393
624 4 0.388851 0.286325 0.204
647 4 0.0169172 0.386192 0.204314
646 2 0.0373649 0.378518 0.192141
648 4 0.0578125 0.370843 0.179969
300 4 0.157927 0.361784 0.226435
298 2 0.149419 0.363111 0.249909
290 4 0.195064 0.386245 0.232219
289 2 0.200711 0.405651 0.217498
302 4 0.308394 0.380563 0.171179
303 4 0.313638 0.392546 0.219445
301 2 0.311016 0.386554 0.195312
729 4 0.315714 0.371771 0.223272
727 2 0.328114 0.373183 0.244938
597 4 0.478984 0.395345 0.158693
527 4 0.460794 0.355657 0.176153
643 2 0.442556 0.387611 0.182262
644 4 0.425153 0.381965 0.199305
447 4 0.420818 0.387798 0.217531
445 2 0.419981 0.372938 0.237622
262 2 0.0683463 0.477088 0.230128
264 4 0.0579215 0.485759 0.20912
602 4 0.0832349 0.449379 0.249113
415 2 0.181488 0.443739 0.173108
416 4 0.195302 0.427373 0.186012
291 4 0.206357 0.425056 0.202776
768 4 0.292535 0.449348 0.201015
766 2 0.289322 0.464843 0.181656
658 2 0.367671 0.457646 0.179819
659 4 0.350264 0.450641 0.196345
1404 4 0.0423802 0.0239648 0.25216
232 2 0.0130902 0.0507434 0.320838
233 4 0.0267187 0.0310956 0.31353
1402 2 0.0417403 0.0253874 0.277115
1403 4 0.0411005 0.02681 0.30207
316 2 0.0692777 0.071033 0.327718
1464 4 0.122548 0.0142386 0.281778
731 4 0.129789 0.0349701 0.307834
730 2 0.136274 0.0571603 0.317358
732 4 0.142759 0.0793506 0.326883
1701 4 0.222148 0.0254664 0.331592
1699 2 0.245223 0.016267 0.328748
1700 4 0.268298 0.00706762 0.325904
1495 2 0.368603 0.00381286 0.250651
697 2 0.370079 0.0239963 0.330117
1749 4 0.456035 0.0155307 0.296907
480 4 0.46408 0.0268675 0.311613
478 2 0.477484 0.0243031 0.332564
318 4 0.0826038 0.0918638 0.324021
398 4 0.066803 0.102101 0.31514
397 2 0.0640625 0.126932 0.316173
399 4 0.061322 0.151764 0.317206
531 4 0.00290338 0.108063 0.255084
579 4 0.100898 0.128673 0.259746
544 2 0.151945 0.146039 0.26682
545 4 0.145894 0.159608 0.28693
599 4 0.184616 0.125998 0.321347
249 4 0.251735 0.125722 0.317931
247 2 0.250704 0.103222 0.328786
404 4 0.245671 0.144836 0.313685
598 2 0.167066 0.110107 0.329389
403 2 0.229573 0.162646 0.320675
706 2 0.324241 0.152176 0.30659
707 4 0.325254 0.132575 0.2911
632 4 0.392704 0.143193 0.324732
631 2 0.402624 0.144721 0.301831
351 4 0.433324 0.0989546 0.299474
633 4 0.412544 0.14625 0.27893
349 2 0.457934 0.102048 0.302632
350 4 0.482543 0.10514 0.30579
332 4 0.447636 0.168617 0.270837
331 2 0.436186 0.152973 0.255045
452 4 0.464835 0.137295 0.32179
396 4 0.0080993 0.24048 0.265211
392 4 0.13505 0.175076 0.285649
391 2 0.119262 0.194459 0.285173
393 4 0.103475 0.213842 0.284696
708 4 0.323228 0.171777 0.322081
762 4 0.449574 0.167178 0.290826
760 2 0.447013 0.180474 0.311846
761 4 0.444451 0.193769 0.332866
400 2 0.234334 0.264067 0.308407
402 4 0.244227 0.263919 0.331369
401 4 0.22444 0.264216 0.285444
308 4 0.293163 0.277014 0.250255
496 2 0.297699 0.30539 0.279512
497 4 0.290835 0.294048 0.258312
498 4 0.304563 0.316731 0.300712
543 4 0.41872 0.32752 0.305768
541 2 0.443585 0.325178 0.30696
542 4 0.46845 0.322835 0.308152
364 2 0.0157689 0.364962 0.318611
603 4 0.069657 0.41159 0.278918
366 4 0.00168782 0.373906 0.299986
735 4 0.138918 0.330342 0.319245
299 4 0.140912 0.364439 0.273383
734 4 0.131756 0.370976 0.290992
733 2 0.135337 0.350659 0.305119
433 2 0.314192 0.381276 0.299341
434 4 0.326954 0.372486 0.279718
435 4 0.301429 0.390066 0.318963
615 4 0.401154 0.325998 0.313745
728 4 0.340515 0.374595 0.266604
613 2 0.378388 0.336179 0.311945
614 4 0.355622 0.34636 0.310146
2924 4 0.488584 0.349763 0.322691
446 4 0.419144 0.358078 0.257714
263 4 0.0787711 0.468418 0.251135
601 2 0.076446 0.430484 0.264016
2463 4 0.0285535 0.451008 0.340714
549 4 0.0347 0.456044 0.323485
547 2 0.0589427 0.451151 0.327164
777 4 0.125738 0.460896 0.281352
775 2 0.113587 0.456117 0.302676
776 4 0.101436 0.451339 0.324
414 4 0.144421 0.454153 0.286815
412 2 0.164454 0.446358 0.274044
548 4 0.0831853 0.446258 0.330842
413 4 0.184486 0.438564 0.261272
436 2 0.284447 0.460729 0.320873
437 4 0.271835 0.445082 0.305997
714 4 0.416183 0.457497 0.274015
713 4 0.466044 0.46076 0.272013
712 2 0.441113 0.459129 0.273014
317 4 0.0559516 0.0502021 0.331416
1782 4 0.132211 0.0132198 0.369697
1780 2 0.1224 0.0280876 0.387243
1781 4 0.112589 0.0429555 0.404789
368 4 0.122173 0.0556743 0.415999
606 4 0.188942 0.0477174 0.408305
604 2 0.177924 0.0535612 0.386635
605 4 0.166906 0.059405 0.364964
439 2 0.284769 0.00170801 0.402341
257 4 0.383904 0.0533287 0.352313
698 4 0.374937 0.0482545 0.333737
256 2 0.401269 0.0660979 0.364984
258 4 0.418635 0.0788672 0.377655
479 4 0.490887 0.0217387 0.353515
424 2 0.422757 0.0806765 0.419139
457 2 0.00703337 0.14015 0.40574
600 4 0.149516 0.0942167 0.337431
685 2 0.157603 0.151698 0.409174
686 4 0.162963 0.146553 0.385299
248 4 0.249672 0.080721 0.339642
683 4 0.275104 0.14547 0.34234
682 2 0.275821 0.139139 0.366518
684 4 0.276538 0.132807 0.390696
320 4 0.267942 0.11803 0.403515
426 4 0.412084 0.0816938 0.396551
451 2 0.456545 0.139433 0.345282
453 4 0.448254 0.141571 0.368774
514 2 0.425468 0.153454 0.400664
515 4 0.431856 0.147006 0.377366
388 2 0.0668384 0.221312 0.360668
390 4 0.0541118 0.202259 0.350658
2653 2 0.00646182 0.228871 0.350104
2654 4 0.0216626 0.223902 0.369324
389 4 0.079565 0.240365 0.370677
405 4 0.213475 0.180455 0.327664
275 4 0.197359 0.23307 0.370926
274 2 0.214882 0.244655 0.357365
474 4 0.275976 0.180937 0.366204
472 2 0.284033 0.203071 0.374592
473 4 0.29209 0.225205 0.382981
487 2 0.316091 0.24565 0.410783
420 4 0.39358 0.239353 0.338948
418 2 0.41128 0.221709 0.339691
419 4 0.42898 0.204065 0.340434
268 2 0.451811 0.233553 0.376924
270 4 0.461018 0.216836 0.393078
306 4 0.455884 0.212085 0.412785
269 4 0.442604 0.25027 0.36077
677 4 0.155648 0.325943 0.328459
676 2 0.162497 0.312951 0.348694
678 4 0.169346 0.299958 0.368929
508 2 0.238187 0.295654 0.356646
510 4 0.244037 0.273017 0.347785
375 4 0.176107 0.288619 0.384244
276 4 0.232405 0.256239 0.343803
373 2 0.190562 0.288089 0.404639
509 4 0.232338 0.318291 0.365507
378 4 0.251123 0.25521 0.347764
374 4 0.205017 0.287558 0.425034
377 4 0.300457 0.247579 0.344828
376 2 0.27579 0.251394 0.346296
488 4 0.328693 0.265055 0.401306
717 4 0.380993 0.245257 0.354495
715 2 0.378754 0.269723 0.349849
716 4 0.376514 0.294189 0.345204
365 4 0.02985 0.356017 0.337236
616 2 0.0687765 0.348925 0.384422
617 4 0.063242 0.352902 0.360365
618 4 0.074311 0.344949 0.408479
408 4 0.117483 0.393688 0.350816
753 4 0.409512 0.401191 0.369846
2923 2 0.479466 0.362269 0.342329
561 4 0.475354 0.384114 0.378736
752 4 0.457142 0.386039 0.371437
559 2 0.484333 0.384083 0.402072
751 2 0.433327 0.393615 0.370642
2925 4 0.470348 0.374774 0.361967
2461 2 0.00667771 0.453541 0.352555
500 4 0.0971501 0.453252 0.342239
406 2 0.106823 0.414482 0.341919
407 4 0.0961619 0.435275 0.333021
501 4 0.109529 0.494969 0.36688
499 2 0.103339 0.47411 0.354559
568 2 0.143553 0.476867 0.417067
570 4 0.166905 0.477372 0.408145
1557 4 0.225178 0.478676 0.408219
1555 2 0.242972 0.49411 0.399831
438 4 0.297058 0.476376 0.335749
668 4 0.296944 0.463001 0.420549
5 3 0.28686 0.48294 0.38581
1 1 0.307096 0.486712 0.376067
4 3 0.323293 0.473442 0.386064
3 3 0.305944 0.482055 0.353365
594 4 0.421421 0.458879 0.341673
593 4 0.435791 0.503357 0.359448
592 2 0.428606 0.481118 0.35056
718 2 0.0691643 0.0488198 0.478279
720 4 0.0451946 0.0418031 0.47946
2237 4 0.0421765 0.0295481 0.495132
2236 2 0.0264559 0.0137086 0.483856
719 4 0.093134 0.0558366 0.477097
367 2 0.128893 0.0643225 0.438476
369 4 0.135613 0.0729707 0.460953
342 4 0.198713 0.0792473 0.491653
340 2 0.211661 0.0591169 0.498884
441 4 0.285094 0.00910579 0.426223
726 4 0.353226 0.0847212 0.493001
2879 4 0.503377 0.0719143 0.441218
425 4 0.433429 0.0796592 0.441728
458 4 0.0101971 0.11854 0.417913
687 4 0.152244 0.156843 0.433048
1182 4 0.247564 0.102844 0.500423
1152 4 0.185422 0.0914088 0.485547
321 4 0.28255 0.104331 0.449337
319 2 0.275246 0.11118 0.426426
724 2 0.350507 0.106015 0.48018
725 4 0.347788 0.127309 0.46736
468 4 0.333981 0.141105 0.460463
575 4 0.406392 0.16771 0.436774
516 4 0.419079 0.159902 0.423962
2878 2 0.492517 0.0829069 0.460875
2880 4 0.481657 0.0938994 0.480532
642 4 0.462191 0.0895108 0.484864
471 4 0.0100678 0.201278 0.476665
469 2 0.028267 0.196181 0.460294
470 4 0.0464662 0.191083 0.443924
1035 4 0.0978477 0.169454 0.498647
260 4 0.112446 0.203445 0.44351
261 4 0.103105 0.185537 0.489256
259 2 0.107775 0.194491 0.466383
695 4 0.0966336 0.246175 0.497222
489 4 0.303489 0.226246 0.42026
411 4 0.278821 0.23038 0.475759
409 2 0.28673 0.206878 0.472552
410 4 0.29464 0.183377 0.469344
466 2 0.335083 0.165666 0.455913
467 4 0.336185 0.190227 0.451363
872 4 0.386019 0.251449 0.485484
574 2 0.414019 0.172819 0.460031
576 4 0.421646 0.177929 0.483288
305 4 0.498389 0.211764 0.439127
304 2 0.477137 0.211925 0.425956
348 4 0.041122 0.291031 0.433302
346 2 0.0527768 0.311994 0.426239
649 2 0.250191 0.297009 0.499589
650 4 0.273874 0.301913 0.493246
266 4 0.329556 0.294395 0.438843
812 4 0.298821 0.311211 0.504278
265 2 0.339529 0.279927 0.45663
267 4 0.349501 0.265458 0.474418
2455 2 0.499253 0.284174 0.490989
2456 4 0.475658 0.27598 0.49215
583 2 0.449316 0.299713 0.469656
584 4 0.462141 0.279465 0.476775
585 4 0.436491 0.319962 0.462536
347 4 0.0644315 0.332957 0.419175
326 4 0.0744042 0.349299 0.427122
325 2 0.0679685 0.357828 0.449728
327 4 0.0615328 0.366357 0.472334
7 3 0.132836 0.381308 0.474438
6 1 0.146939 0.366578 0.485082
10 3 0.157725 0.353937 0.469509
504 4 0.251041 0.411981 0.422544
502 2 0.24336 0.388265 0.424477
503 4 0.23568 0.364549 0.426411
8 3 0.162354 0.378633 0.497551
711 4 0.17576 0.372666 0.482701
709 2 0.200037 0.374013 0.476869
710 4 0.224314 0.37536 0.471038
336 4 0.342207 0.388329 0.437489
334 2 0.361434 0.386656 0.453386
240 4 0.37455 0.386786 0.488238
335 4 0.380661 0.384982 0.469283
238 2 0.39583 0.375838 0.495482
560 4 0.493312 0.384052 0.425407
681 4 0.0693968 0.428477 0.425303
680 4 0.0269108 0.454088 0.418999
1381 2 0.0112141 0.485667 0.433332
1383 4 0.0119714 0.46079 0.430935
679 2 0.0481538 0.441283 0.422151
540 4 0.110955 0.497213 0.490312
538 2 0.116939 0.490046 0.467116
384 4 0.118704 0.464283 0.441984
382 2 0.103386 0.445543 0.435711
383 4 0.0880684 0.426803 0.429437
539 4 0.122922 0.48288 0.443921
569 4 0.120202 0.476361 0.42599
636 4 0.201827 0.487734 0.425947
774 4 0.221989 0.455402 0.477122
635 4 0.204693 0.458197 0.466197
634 2 0.20326 0.472966 0.446072
669 4 0.333872 0.447869 0.450682
667 2 0.315408 0.455435 0.435615
587 4 0.407658 0.459492 0.459736
586 2 0.389356 0.449515 0.445928
588 4 0.371054 0.439538 0.43212
1126 2 0.0512411 0.063378 0.530416
1127 4 0.0409943 0.0407758 0.533469
1128 4 0.0614879 0.0859801 0.527362
1058 4 0.14414 0.0288358 0.566195
1057 2 0.132858 0.0510795 0.564431
1059 4 0.121576 0.0733233 0.562668
2430 4 0.212641 0.0227495 0.513006
2428 2 0.206052 0.0005214 0.503642
341 4 0.224609 0.0389865 0.506115
961 2 0.274447 0.0590636 0.557913
963 4 0.287229 0.0618551 0.536605
962 4 0.261666 0.056272 0.57922
430 2 0.318836 0.0675727 0.511261
1181 4 0.278192 0.0698857 0.522251
432 4 0.295758 0.0613662 0.518612
950 4 0.273904 0.00362366 0.567207
949 2 0.256619 0.0106941 0.583833
1180 2 0.262878 0.0863647 0.511337
1217 4 0.398775 0.0804391 0.553257
841 2 0.374297 0.0708145 0.528371
842 4 0.386447 0.0640896 0.549163
843 4 0.362146 0.0775394 0.507579
431 4 0.341914 0.0737793 0.503909
1216 2 0.421862 0.0716587 0.557141
1218 4 0.444948 0.0628783 0.561026
939 4 0.0742394 0.100415 0.536152
938 4 0.116548 0.0912668 0.561191
937 2 0.0953939 0.0958411 0.548671
1155 4 0.134963 0.0887614 0.560168
1153 2 0.15077 0.10419 0.548451
1154 4 0.166577 0.119618 0.536734
1151 4 0.181016 0.123392 0.523736
1031 4 0.227341 0.0893856 0.550117
1150 2 0.183219 0.1074 0.504642
1030 2 0.239405 0.103999 0.566429
1032 4 0.251469 0.118612 0.582741
900 4 0.315823 0.143726 0.548882
898 2 0.334724 0.13085 0.538777
899 4 0.353626 0.117974 0.528671
641 4 0.453805 0.0946843 0.533891
640 2 0.457998 0.0920976 0.509377
3159 4 0.501445 0.153742 0.528835
1034 4 0.117576 0.171385 0.544558
1033 2 0.107712 0.17042 0.521603
858 4 0.233501 0.166112 0.546025
856 2 0.240769 0.190031 0.545556
857 4 0.248038 0.213951 0.545088
873 4 0.390085 0.227521 0.529206
871 2 0.388052 0.239485 0.507345
904 2 0.449469 0.246005 0.563235
906 4 0.424518 0.247142 0.564386
1258 2 0.159513 0.293732 0.519783
694 2 0.108945 0.267329 0.502331
696 4 0.121257 0.288483 0.507441
1260 4 0.141602 0.289497 0.502857
1259 4 0.177423 0.297967 0.536708
651 4 0.226508 0.292105 0.505933
813 4 0.332412 0.309045 0.541261
811 2 0.315617 0.310128 0.52277
1238 4 0.335581 0.279973 0.577951
1239 4 0.305708 0.319892 0.574112
1237 2 0.320644 0.299932 0.576032
954 4 0.41293 0.251536 0.580083
952 2 0.403834 0.273144 0.588774
3065 4 0.487545 0.254365 0.552238
905 4 0.47442 0.244868 0.562084
982 2 0.0703094 0.339918 0.538179
984 4 0.0822735 0.338868 0.56011
983 4 0.0583453 0.340968 0.516249
1041 4 0.104546 0.39425 0.575176
1136 4 0.102836 0.340446 0.566237
9 3 0.13439 0.352937 0.499041
1189 2 0.20687 0.369159 0.562021
1190 4 0.226125 0.356045 0.552941
896 4 0.178815 0.400073 0.576649
1191 4 0.187614 0.382273 0.571101
803 4 0.228195 0.38439 0.511463
802 2 0.253106 0.38355 0.509487
804 4 0.278017 0.382709 0.507511
928 2 0.345359 0.40121 0.564028
239 4 0.41711 0.364889 0.502727
925 2 0.45124 0.384139 0.54588
926 4 0.463666 0.38826 0.524578
927 4 0.438813 0.380017 0.567182
3309 4 0.481426 0.390135 0.531133
3307 2 0.500158 0.381829 0.516805
935 4 0.999828 0.423488 0.511583
2243 4 0.147592 0.459903 0.526716
2242 2 0.135615 0.47912 0.516112
1160 4 0.125623 0.475829 0.576252
2244 4 0.123638 0.498336 0.505508
773 4 0.231086 0.428041 0.51798
1187 4 0.245044 0.451094 0.585091
772 2 0.226538 0.441721 0.497551
891 4 0.317178 0.450397 0.575937
1173 4 0.256522 0.44753 0.568837
1171 2 0.281026 0.449299 0.564193
1172 4 0.305531 0.451068 0.559548
882 4 0.326646 0.493489 0.511995
929 4 0.351718 0.413056 0.542946
881 4 0.340229 0.446386 0.502122
1002 4 0.391909 0.436986 0.565478
880 2 0.333437 0.469937 0.507058
1000 2 0.412447 0.451052 0.567825
1001 4 0.432986 0.465118 0.570172
662 4 0.440158 0.473375 0.501322
1332 4 0.448406 0.490829 0.505962
661 2 0.442705 0.449728 0.509035
663 4 0.445251 0.42608 0.516747
943 2 0.0794336 0.0375145 0.638828
945 4 0.0623465 0.0197556 0.643051
944 4 0.0965207 0.0552734 0.634605
1284 4 0.172517 0.0752644 0.608055
1282 2 0.166097 0.0723797 0.632048
1283 4 0.159677 0.069495 0.65604
951 4 0.239334 0.0177646 0.600458
1091 4 0.411747 0.000278945 0.664684
808 2 0.44989 0.0771023 0.617717
810 4 0.473776 0.0699236 0.619469
45 3 0.44877 0.0662665 0.667659
1083 4 0.0572627 0.10272 0.602529
1082 4 0.0382342 0.11836 0.646049
1081 2 0.0477485 0.11054 0.624289
909 4 0.13324 0.123423 0.664647
809 4 0.426003 0.0842809 0.615966
877 2 0.0796729 0.201657 0.590395
878 4 0.0578167 0.190351 0.59483
1199 4 0.00939081 0.189089 0.622462
1245 4 0.0705102 0.229296 0.646119
1209 4 0.082769 0.224988 0.661411
1270 2 0.134542 0.186908 0.589388
1271 4 0.15651 0.175368 0.58632
879 4 0.101529 0.212963 0.585961
1272 4 0.112574 0.198449 0.592457
1207 2 0.102685 0.239843 0.664215
1221 4 0.171184 0.184348 0.595485
948 4 0.150709 0.24325 0.590498
1210 2 0.242291 0.180117 0.632714
1212 4 0.233945 0.184523 0.60956
1219 2 0.195074 0.189532 0.600738
1220 4 0.218963 0.194716 0.605991
796 2 0.235979 0.230373 0.607296
798 4 0.233513 0.205753 0.610893
1211 4 0.250637 0.175711 0.655868
791 4 0.321659 0.223625 0.601922
790 2 0.320984 0.247252 0.593769
1026 4 0.482209 0.188408 0.613973
1024 2 0.45997 0.195468 0.604985
1025 4 0.437732 0.202529 0.595997
1243 2 0.0571829 0.244703 0.631621
1244 4 0.0438556 0.260109 0.617122
1208 4 0.1226 0.254699 0.66702
946 2 0.1653 0.244911 0.610735
947 4 0.179892 0.246572 0.630971
797 4 0.238445 0.254994 0.6037
792 4 0.32031 0.27088 0.585616
953 4 0.394739 0.294752 0.597465
3264 4 0.00197661 0.401058 0.638534
3262 2 0.0036169 0.377538 0.646859
3263 4 0.00525719 0.354018 0.655183
1135 2 0.114249 0.356308 0.581836
895 2 0.155649 0.395699 0.584978
1137 4 0.125662 0.372169 0.597435
897 4 0.132483 0.391325 0.593307
1039 2 0.0997659 0.408578 0.595101
930 4 0.339 0.389365 0.585109
1204 2 0.391863 0.395229 0.66238
1205 4 0.393838 0.370333 0.663606
1161 4 0.164588 0.469621 0.606975
1040 4 0.094986 0.422907 0.615027
1159 2 0.145106 0.472725 0.591613
991 2 0.109971 0.430471 0.650644
993 4 0.107365 0.434971 0.626187
1186 2 0.240235 0.448046 0.609438
1188 4 0.235426 0.444999 0.633785
889 2 0.326586 0.464171 0.594564
890 4 0.335993 0.477944 0.613191
1206 4 0.389887 0.420124 0.661154
1269 4 0.411265 0.461927 0.644589
2991 4 0.0266109 0.0855936 0.711446
4338 4 0.0346635 0.0137565 0.691541
2989 2 0.0047039 0.0786424 0.721292
2049 4 0.114207 0.0136209 0.746156
1092 4 0.37386 0.0299738 0.678228
1005 4 0.368457 0.0904889 0.682122
1004 4 0.362621 0.0416775 0.691294
1003 2 0.365539 0.0660832 0.686708
1090 2 0.392804 0.0151264 0.671456
43 3 0.425656 0.0518118 0.693629
1163 4 0.469204 0.0593037 0.696779
1162 2 0.489483 0.0490488 0.707209
42 3 0.45577 0.0718225 0.703895
41 1 0.439231 0.0697803 0.688038
1076 4 0.0425282 0.121017 0.665075
862 2 0.0302463 0.127338 0.744505
864 4 0.0386408 0.119829 0.722181
1075 2 0.0369535 0.113641 0.688306
1077 4 0.0313789 0.106265 0.711537
907 2 0.154747 0.129244 0.675994
908 4 0.176254 0.135065 0.687341
1227 4 0.185041 0.130853 0.705296
1148 4 0.220488 0.102969 0.746648
1225 2 0.202206 0.115839 0.715547
1226 4 0.219371 0.100824 0.725799
829 2 0.311052 0.159186 0.711436
831 4 0.334451 0.150447 0.712594
44 3 0.42674 0.0893311 0.687667
3426 4 0.495373 0.0946358 0.680274
852 4 0.0300032 0.205073 0.719639
851 4 0.0682759 0.211085 0.751258
850 2 0.0491396 0.208079 0.735448
1107 4 0.0838802 0.199181 0.75282
888 4 0.243732 0.187944 0.670145
1276 2 0.237457 0.230078 0.733827
1277 4 0.222585 0.23163 0.753867
1278 4 0.252328 0.228525 0.713787
830 4 0.287654 0.167925 0.710278
886 2 0.256143 0.178173 0.689528
887 4 0.268554 0.168403 0.70891
976 2 0.285596 0.201369 0.733221
978 4 0.278337 0.182192 0.718912
977 4 0.292855 0.220546 0.74753
1193 4 0.361724 0.247321 0.706405
1142 4 0.387339 0.187231 0.722654
1192 2 0.371083 0.228915 0.692306
1194 4 0.380443 0.210508 0.678207
1141 2 0.390454 0.178331 0.745812
3123 4 0.463563 0.232474 0.673501
1263 4 0.451659 0.196533 0.735772
3121 2 0.487503 0.239676 0.673888
1179 4 0.0168584 0.283585 0.734001
821 4 0.165408 0.305786 0.721383
820 2 0.17073 0.284884 0.708736
1063 2 0.245343 0.298082 0.719312
822 4 0.176053 0.263982 0.696089
1065 4 0.244156 0.29496 0.744092
1236 4 0.231526 0.311114 0.7469
1064 4 0.24653 0.301205 0.694533
893 4 0.0499844 0.385877 0.687575
892 2 0.0542328 0.366679 0.703021
894 4 0.0584811 0.347482 0.718467
1280 4 0.0521855 0.40353 0.679193
1279 2 0.0439275 0.420625 0.695464
940 2 0.130654 0.3891 0.739332
1067 4 0.154371 0.420047 0.733183
941 4 0.147344 0.406895 0.744804
942 4 0.113965 0.371304 0.73386
815 4 0.095589 0.371061 0.736962
1028 4 0.208327 0.407633 0.69377
1066 2 0.172633 0.415552 0.716707
1068 4 0.190895 0.411057 0.700231
1027 2 0.219124 0.385206 0.696135
1029 4 0.229921 0.362778 0.6985
807 4 0.321672 0.403502 0.686467
1019 4 0.408042 0.332692 0.732151
806 4 0.363966 0.377092 0.682669
805 2 0.342819 0.390297 0.684568
1018 2 0.389575 0.346351 0.74203
1020 4 0.371108 0.360009 0.751909
1281 4 0.0356696 0.43772 0.711735
1983 4 0.0280619 0.451232 0.724213
1981 2 0.0484366 0.463996 0.731079
1982 4 0.0688113 0.47676 0.737945
992 4 0.112577 0.42597 0.675101
1175 4 0.206326 0.491226 0.73023
1139 4 0.271782 0.479999 0.707866
1138 2 0.293177 0.489633 0.699227
1140 4 0.314572 0.499266 0.690589
1230 4 0.358983 0.440136 0.692279
1987 2 0.337941 0.498859 0.737451
1228 2 0.360318 0.46408 0.699356
1229 4 0.361652 0.488024 0.706432
1989 4 0.344765 0.486481 0.716826
1267 2 0.422961 0.467594 0.66595
3330 4 0.494957 0.428251 0.721226
2168 4 0.43258 0.482213 0.704756
1268 4 0.434656 0.473261 0.687311
1100 4 0.446193 0.468712 0.701965
1099 2 0.464838 0.452128 0.703546
1101 4 0.483483 0.435543 0.705127
1294 2 0.0323146 0.0206618 0.803666
1295 4 0.0357513 0.0166016 0.779235
1296 4 0.0288779 0.024722 0.828097
1195 2 0.107635 0.0140334 0.822626
1203 4 0.092402 0.0530084 0.797364
911 4 0.105273 0.0633558 0.80928
1202 4 0.105871 0.0297477 0.755195
1196 4 0.108914 0.0160213 0.797734
1201 2 0.0991363 0.041378 0.776279
910 2 0.0906544 0.0800615 0.820787
1147 2 0.221461 0.0784766 0.751582
1149 4 0.222435 0.053984 0.756516
1257 4 0.30808 0.041363 0.792725
1255 2 0.310718 0.0659914 0.78931
1113 4 0.394556 0.0659453 0.803536
973 2 0.379892 0.0237933 0.803871
975 4 0.388779 0.0471503 0.803068
1111 2 0.415645 0.0657854 0.816967
845 4 0.497265 0.0743354 0.807622
1112 4 0.436735 0.0656255 0.830398
846 4 0.456613 0.0621203 0.83406
844 2 0.476939 0.0682278 0.820841
834 4 0.995924 0.110877 0.826558
863 4 0.0218518 0.134847 0.766828
832 2 0.00518983 0.118247 0.804535
833 4 0.0144554 0.125618 0.782512
34 3 0.120478 0.148264 0.771463
33 3 0.135949 0.17605 0.750654