ITEM: TIMESTEP
710000
ITEM: NUMBER OF ATOMS
4590
ITEM: BOX BOUNDS pp pp pp
-9.9985700000000008e+00 9.9985700000000008e+00
-9.9985700000000008e+00 9.9985700000000008e+00
-9.9985700000000008e+00 9.9985700000000008e+00
ITEM: ATOMS id type xs ys zs
463 2 0.00614392 0.0555218 0.0517296
465 4 0.0266747 0.0691757 0.0558814
1667 4 0.0416003 0.0660559 0.0668479
701 4 0.0454497 0.0778568 0.0522502
1475 4 0.231945 0.0106593 0.0318637
532 2 0.204647 0.0754924 0.00526188
490 2 0.288681 0.0298747 0.0448078
491 4 0.305732 0.0405135 0.0596819
492 4 0.271629 0.0192359 0.0299337
2264 4 0.273631 0.0127002 0.0110542
296 4 0.320349 0.0422831 0.0736369
557 4 0.317667 0.0559502 0.0600558
556 2 0.318533 0.0784895 0.0492665
1606 2 0.391094 0.00634339 0.000480967
295 2 0.340499 0.0318078 0.0840978
745 2 0.465234 0.0617315 0.0662955
747 4 0.465685 0.058701 0.0414804
2975 4 0.473268 0.0599697 0.023712
2974 2 0.468765 0.0748373 0.00411948
590 4 0.0332502 0.0849107 0.064635
700 2 0.0619192 0.0840228 0.0344762
589 2 0.0238955 0.106156 0.0739252
3232 2 0.0177396 0.129036 0.0244927
3234 4 0.00554536 0.120106 0.044411
702 4 0.0783887 0.0901888 0.0167021
3233 4 0.0299338 0.137966 0.00457437
421 2 0.101109 0.129473 0.0155955
423 4 0.0906636 0.106866 0.0178357
422 4 0.111554 0.152079 0.0133552
534 4 0.221824 0.0896603 0.0166376
566 4 0.171897 0.104961 0.0765362
565 2 0.175805 0.11501 0.0539764
567 4 0.179712 0.125058 0.0314167
360 4 0.286309 0.166445 0.0118293
558 4 0.319398 0.101029 0.0384772
770 4 0.438224 0.156383 0.0245867
769 2 0.45006 0.163363 0.0454762
554 4 0.0785396 0.238749 0.0583831
553 2 0.0881497 0.232952 0.0360399
555 4 0.0977599 0.227155 0.0136968
836 4 0.0897247 0.241279 0.00305064
355 2 0.205477 0.24184 0.0118733
357 4 0.216291 0.248189 0.0335051
666 4 0.327029 0.25098 0.0340459
461 4 0.341861 0.211435 0.0459887
460 2 0.352829 0.208797 0.0683032
826 2 0.411318 0.174285 0.000820145
827 4 0.428073 0.174121 0.0193787
771 4 0.461896 0.170343 0.0663657
629 4 0.446707 0.16803 0.0797862
292 2 0.127525 0.28993 0.0168716
293 4 0.144123 0.308509 0.0190056
507 4 0.158929 0.304826 0.0324077
294 4 0.110928 0.271352 0.0147376
505 2 0.181297 0.308298 0.0430291
506 4 0.203664 0.311769 0.0536505
483 4 0.209012 0.326692 0.0664577
481 2 0.231861 0.32445 0.0763597
572 4 0.311893 0.266083 0.0340831
573 4 0.294948 0.257871 0.0804096
571 2 0.30342 0.261977 0.0572463
664 2 0.332647 0.255899 0.0101836
1071 4 0.373139 0.302157 0.0274692
1069 2 0.394896 0.295862 0.0380607
1070 4 0.416653 0.289568 0.0486522
322 2 0.410151 0.254967 0.0733385
956 4 0.366642 0.31404 0.0122922
323 4 0.416942 0.272718 0.0570917
671 4 0.430387 0.325741 0.0667759
288 4 0.110484 0.360692 0.0245393
286 2 0.128569 0.359027 0.00735404
252 4 0.305535 0.388287 0.0555494
250 2 0.295534 0.384246 0.0329918
251 4 0.285534 0.380204 0.0104343
608 4 0.312409 0.394512 0.0727669
281 4 0.443376 0.339124 0.0597329
282 4 0.48137 0.352073 0.0299086
280 2 0.462373 0.345599 0.0448208
1787 4 0.0209594 0.471239 0.0695338
314 4 0.0166798 0.423252 0.0721258
241 2 0.165616 0.495029 0.0691217
245 4 0.278513 0.432494 0.0294598
244 2 0.285613 0.45606 0.0250546
246 4 0.292712 0.479626 0.0206494
272 4 0.309796 0.488957 0.0212061
523 2 0.312397 0.446077 0.0726348
524 4 0.289172 0.448403 0.0815978
525 4 0.335623 0.443752 0.0636718
563 4 0.494346 0.482007 0.0127706
564 4 0.446342 0.493845 0.005273
562 2 0.470344 0.487926 0.00902179
1666 2 0.0486838 0.0585979 0.0896378
1668 4 0.0557672 0.0511399 0.112428
1420 2 0.0352334 0.0168706 0.141858
1422 4 0.0406945 0.035864 0.157175
450 4 0.135993 0.0766923 0.144127
1506 4 0.242833 0.0203537 0.162101
652 2 0.311497 0.0504464 0.133329
653 4 0.318045 0.0628336 0.11262
654 4 0.304948 0.0380592 0.154038
485 4 0.377693 0.015112 0.0843398
297 4 0.360649 0.0213326 0.0945586
758 4 0.407713 0.0477607 0.132707
757 2 0.404199 0.0541221 0.156631
746 4 0.464784 0.064762 0.0911107
591 4 0.0145407 0.127401 0.0832155
380 4 0.000524399 0.130765 0.16565
477 4 0.0823212 0.162119 0.0987595
448 2 0.155205 0.0887528 0.154645
475 2 0.0904248 0.161139 0.122393
476 4 0.0985285 0.160159 0.146027
237 4 0.187993 0.153934 0.129931
235 2 0.185136 0.137228 0.148313
737 4 0.170596 0.163954 0.133818
236 4 0.18228 0.120521 0.166696
449 4 0.174416 0.100813 0.165164
582 4 0.32141 0.106768 0.156365
630 4 0.409131 0.157271 0.110979
254 4 0.391203 0.157296 0.122918
628 2 0.427919 0.16265 0.0953827
363 4 0.124429 0.228446 0.163403
736 2 0.170202 0.188889 0.132005
738 4 0.169808 0.213823 0.130192
354 4 0.291036 0.212801 0.118054
352 2 0.288139 0.235591 0.108184
283 2 0.296632 0.206141 0.155085
284 4 0.281112 0.208411 0.135613
253 2 0.375572 0.172868 0.111157
255 4 0.35994 0.18844 0.0993946
462 4 0.363796 0.20616 0.0906177
324 4 0.40336 0.237216 0.0895854
517 2 0.498476 0.2271 0.0946574
518 4 0.485572 0.205685 0.0949183
703 2 0.0200333 0.325703 0.166638
535 2 0.212528 0.3047 0.133437
536 4 0.228578 0.288658 0.143935
537 4 0.196477 0.320742 0.122939
482 4 0.254711 0.322208 0.0862616
353 4 0.285242 0.25838 0.098314
754 2 0.274735 0.288726 0.123153
755 4 0.28016 0.277722 0.101366
756 4 0.26931 0.29973 0.144939
612 4 0.272376 0.3202 0.149197
623 4 0.375955 0.307756 0.160953
672 4 0.407191 0.333788 0.110341
670 2 0.418789 0.329765 0.0885583
528 4 0.471363 0.317368 0.148666
705 4 0.0106726 0.34258 0.15074
620 4 0.0257081 0.356315 0.154677
621 4 0.0403659 0.374879 0.110617
619 2 0.033037 0.365597 0.132647
455 4 0.098864 0.354857 0.147848
454 2 0.0956917 0.369361 0.12773
456 4 0.0925195 0.383865 0.107612
627 4 0.23311 0.405565 0.114356
625 2 0.236784 0.400864 0.138638
626 4 0.240458 0.396163 0.162919
607 2 0.325149 0.384166 0.0916303
610 2 0.286331 0.340034 0.155286
387 4 0.320011 0.363834 0.16348
611 4 0.300285 0.359867 0.161375
741 4 0.39304 0.343227 0.0976985
385 2 0.335497 0.36551 0.143921
609 4 0.337889 0.37382 0.110494
740 4 0.346184 0.356478 0.109082
386 4 0.350983 0.367187 0.124362
739 2 0.369612 0.349852 0.10339
15 3 0.410576 0.379281 0.120839
13 3 0.402625 0.357969 0.150842
11 1 0.418288 0.362677 0.134383
526 2 0.463735 0.341173 0.149201
12 3 0.421838 0.343714 0.121855
14 3 0.438343 0.369088 0.144135
495 4 0.452132 0.381599 0.148025
493 2 0.454409 0.402809 0.134982
527 4 0.456108 0.364979 0.149737
597 4 0.468257 0.379278 0.157922
645 4 0.449948 0.373344 0.16042
1786 2 0.023384 0.486306 0.0893401
243 4 0.168983 0.486318 0.0923155
1440 4 0.186724 0.498589 0.0914394
637 2 0.257833 0.493596 0.127684
638 4 0.272082 0.484119 0.145913
767 4 0.268691 0.477145 0.164888
660 4 0.392329 0.450615 0.155372
494 4 0.456685 0.424019 0.121939
19 3 0.0473836 0.0276442 0.172578
2481 4 0.00744469 0.0831047 0.184389
2480 4 0.0360544 0.0442706 0.171194
17 3 0.0714502 0.0529281 0.186513
16 1 0.0683605 0.0305736 0.182054
18 3 0.0698029 0.0186907 0.201932
2479 2 0.0217496 0.0636876 0.177792
20 3 0.0844744 0.0235121 0.167593
673 2 0.126124 0.047868 0.236111
674 4 0.130727 0.0722379 0.232934
675 4 0.121521 0.0234981 0.239289
1505 4 0.222246 0.0496844 0.19698
1504 2 0.232539 0.035019 0.17954
689 4 0.205147 0.0582547 0.202524
688 2 0.204738 0.0494054 0.225906
692 4 0.218739 0.0684734 0.192033
690 4 0.204329 0.0405562 0.249287
21 1 0.399307 0.0424879 0.21295
24 3 0.384265 0.0253075 0.217069
25 3 0.391223 0.056145 0.196617
759 4 0.400685 0.0604835 0.180555
22 3 0.402176 0.0546498 0.232263
1496 4 0.386872 0.00643402 0.225058
312 4 0.391042 0.0722455 0.183967
23 3 0.419794 0.0337039 0.206504
742 2 0.458484 0.0440669 0.219767
744 4 0.434251 0.0455588 0.21379
743 4 0.482717 0.0425751 0.225745
379 2 0.998722 0.148192 0.183489
513 4 0.0402397 0.160791 0.242605
577 2 0.0871675 0.13122 0.239826
578 4 0.0993817 0.123299 0.219498
546 4 0.168359 0.13653 0.242737
721 2 0.167293 0.118405 0.203999
722 4 0.160392 0.125189 0.227054
693 4 0.190347 0.103853 0.170987
691 2 0.204543 0.0861633 0.18151
723 4 0.174195 0.111622 0.180944
580 2 0.312803 0.10058 0.17901
581 4 0.304197 0.0943921 0.201656
30 3 0.289303 0.103627 0.211351
26 1 0.270704 0.106952 0.224068
28 3 0.25644 0.0887523 0.222142
29 3 0.259829 0.126293 0.217283
27 3 0.276902 0.109244 0.246101
310 2 0.398256 0.0944428 0.192934
311 4 0.405471 0.11664 0.201901
333 4 0.420063 0.135392 0.244865
337 2 0.0815356 0.226499 0.171661
339 4 0.0572242 0.231396 0.174848
511 2 0.0195152 0.168208 0.230744
395 4 0.0251994 0.230876 0.226621
394 2 0.0118016 0.232416 0.247676
338 4 0.105847 0.221602 0.168474
361 2 0.140774 0.229739 0.182281
362 4 0.157118 0.231032 0.201158
372 4 0.164037 0.248473 0.20969
285 4 0.312151 0.203872 0.174557
704 4 0.0293941 0.308826 0.182535
748 2 0.0665908 0.26907 0.238949
749 4 0.0489245 0.276107 0.222714
370 2 0.186648 0.25324 0.200138
371 4 0.209258 0.258006 0.190587
277 2 0.239987 0.264508 0.191614
279 4 0.223428 0.249055 0.202205
344 4 0.263169 0.300822 0.217607
343 2 0.279214 0.291978 0.234622
278 4 0.256547 0.279961 0.181022
307 2 0.333726 0.265714 0.247831
763 2 0.3859 0.252778 0.219805
765 4 0.398294 0.257484 0.198605
622 2 0.383799 0.286319 0.171157
764 4 0.373506 0.248072 0.241004
309 4 0.357654 0.260179 0.24314
624 4 0.391643 0.264883 0.181361
648 4 0.045672 0.360548 0.170927
647 4 0.0228087 0.394186 0.200021
646 2 0.0342403 0.377367 0.185474
300 4 0.134712 0.342048 0.232756
290 4 0.227614 0.388877 0.231623
289 2 0.223733 0.410128 0.219033
302 4 0.308353 0.366251 0.177983
303 4 0.315447 0.394838 0.218395
301 2 0.3119 0.380545 0.198189
729 4 0.318692 0.379589 0.230089
447 4 0.412537 0.387533 0.217412
445 2 0.411088 0.36768 0.232543
446 4 0.409639 0.347827 0.247673
595 2 0.489362 0.381818 0.171085
643 2 0.438241 0.380804 0.181216
644 4 0.426534 0.388265 0.202012
262 2 0.0665391 0.485139 0.229178
263 4 0.0579771 0.462181 0.23416
417 4 0.176322 0.475316 0.182774
415 2 0.189313 0.455882 0.191645
416 4 0.202305 0.436447 0.200516
291 4 0.219853 0.43138 0.206444
1430 4 0.177849 0.494976 0.176623
768 4 0.302985 0.462806 0.19834
766 2 0.285838 0.469975 0.181614
658 2 0.38138 0.447735 0.177665
659 4 0.370432 0.444854 0.199959
530 4 0.0107063 0.0730379 0.291472
1404 4 0.0542826 0.0157054 0.261292
232 2 0.00554015 0.0391828 0.325935
233 4 0.0294652 0.039338 0.318672
1402 2 0.0475945 0.0222152 0.284488
1403 4 0.0409065 0.028725 0.307685
316 2 0.0629558 0.0649148 0.321461
317 4 0.0471563 0.0461306 0.316696
1464 4 0.13099 0.00467935 0.31716
731 4 0.103151 0.0558092 0.330708
730 2 0.123855 0.0659641 0.321045
732 4 0.14456 0.076119 0.311383
1701 4 0.222559 0.00950109 0.322774
1699 2 0.246857 0.00407259 0.320465
248 4 0.251377 0.0787165 0.328845
699 4 0.38665 0.00561366 0.315614
697 2 0.385318 0.0288822 0.324668
1749 4 0.459596 0.0126399 0.301585
480 4 0.470757 0.0259966 0.311581
318 4 0.0787553 0.083699 0.326226
397 2 0.068177 0.123302 0.332764
399 4 0.0547787 0.144366 0.33135
579 4 0.0749533 0.139142 0.260155
398 4 0.0815753 0.102239 0.334177
544 2 0.153056 0.15063 0.2566
598 2 0.160103 0.1092 0.325975
600 4 0.143138 0.0909081 0.324308
599 4 0.177068 0.127491 0.327643
403 2 0.244374 0.153951 0.313788
404 4 0.246065 0.13978 0.334318
707 4 0.352912 0.159437 0.275056
632 4 0.392315 0.11761 0.318614
631 2 0.4012 0.136496 0.304846
633 4 0.410085 0.155382 0.291078
706 2 0.347943 0.165154 0.298885
351 4 0.433947 0.094077 0.267997
349 2 0.443551 0.100455 0.290184
350 4 0.453156 0.106832 0.312371
331 2 0.435613 0.153773 0.251613
452 4 0.455254 0.119152 0.327826
545 4 0.137753 0.16473 0.270463
392 4 0.14304 0.18317 0.277948
391 2 0.122755 0.195958 0.285032
393 4 0.10247 0.208746 0.292115
405 4 0.242683 0.168122 0.293258
708 4 0.342974 0.170871 0.322714
521 4 0.487167 0.19906 0.259293
332 4 0.451163 0.172153 0.258362
762 4 0.450453 0.175509 0.278132
760 2 0.455533 0.183816 0.301162
761 4 0.460613 0.192123 0.324192
2493 4 0.0128263 0.298665 0.29163
750 4 0.0842572 0.262034 0.255184
677 4 0.160898 0.323887 0.329864
400 2 0.234024 0.265242 0.314094
401 4 0.227664 0.264484 0.289924
345 4 0.295258 0.283134 0.251638
308 4 0.309799 0.271249 0.252522
496 2 0.30913 0.300264 0.286713
497 4 0.306555 0.284729 0.267291
498 4 0.311706 0.315799 0.306135
615 4 0.396499 0.316147 0.317846
613 2 0.374564 0.322429 0.307619
543 4 0.412075 0.315914 0.330043
614 4 0.35263 0.328712 0.297393
541 2 0.436246 0.313481 0.324123
542 4 0.460417 0.311049 0.318204
364 2 0.0207166 0.367967 0.319425
603 4 0.0487545 0.405058 0.249282
366 4 0.00121528 0.3832 0.315843
365 4 0.040218 0.352734 0.323007
298 2 0.124222 0.355562 0.250992
735 4 0.147144 0.334546 0.320383
299 4 0.113732 0.369075 0.269227
734 4 0.120902 0.359394 0.285819
733 2 0.134023 0.34697 0.303101
435 4 0.317569 0.394807 0.322001
727 2 0.333202 0.384221 0.249918
433 2 0.335436 0.394381 0.304514
434 4 0.353303 0.393956 0.287028
728 4 0.347711 0.388853 0.269748
2924 4 0.490707 0.349738 0.321641
602 4 0.058446 0.454058 0.251681
601 2 0.0536003 0.429558 0.250481
549 4 0.0309655 0.458729 0.330316
547 2 0.0558434 0.457535 0.332516
2463 4 0.0199432 0.443153 0.327802
777 4 0.124779 0.45619 0.282733
775 2 0.110187 0.452761 0.302745
776 4 0.0955943 0.449332 0.322757
414 4 0.137564 0.449877 0.26773
412 2 0.161741 0.445757 0.272594
413 4 0.185919 0.441638 0.277457
436 2 0.279559 0.465758 0.318873
437 4 0.258795 0.466492 0.304964
438 4 0.300324 0.465023 0.332782
714 4 0.426261 0.47189 0.272745
713 4 0.432515 0.427208 0.29431
712 2 0.429388 0.449549 0.283528
594 4 0.423437 0.452269 0.333643
429 4 0.0956889 0.00615494 0.364746
1782 4 0.145558 0.0176778 0.377526
1780 2 0.134643 0.0258996 0.398465
604 2 0.189736 0.0576507 0.400939
605 4 0.199178 0.0717339 0.382563
440 4 0.275612 0.999876 0.386812
439 2 0.279436 0.0119568 0.408367
698 4 0.383985 0.0521508 0.333722
257 4 0.374578 0.0665243 0.346661
256 2 0.390784 0.0666407 0.365702
258 4 0.406989 0.0667572 0.384742
478 2 0.47086 0.0357567 0.334601
479 4 0.470962 0.0455168 0.357621
459 4 0.00189399 0.161197 0.373224
457 2 0.0146601 0.147026 0.389391
458 4 0.0274262 0.132855 0.405559
685 2 0.179847 0.143294 0.410526
686 4 0.191695 0.127126 0.395579
249 4 0.258485 0.126478 0.341847
247 2 0.254931 0.102597 0.335346
683 4 0.259933 0.144941 0.346575
682 2 0.273397 0.151702 0.36653
684 4 0.28686 0.158463 0.386485
320 4 0.287308 0.146355 0.402317
426 4 0.414623 0.0849678 0.390148
424 2 0.413087 0.0935569 0.41358
451 2 0.442271 0.121449 0.34907
453 4 0.429288 0.123747 0.370315
514 2 0.425918 0.154443 0.396354
515 4 0.438227 0.138924 0.381095
388 2 0.0502217 0.209344 0.386495
390 4 0.0276598 0.204497 0.37687
2653 2 0.00535544 0.235397 0.359635
2654 4 0.0148041 0.220015 0.376936
389 4 0.0727836 0.214191 0.396121
275 4 0.203384 0.219888 0.367837
274 2 0.217859 0.239026 0.36081
474 4 0.280773 0.213174 0.359791
472 2 0.296706 0.213301 0.37906
473 4 0.312639 0.213429 0.398329
487 2 0.331452 0.250556 0.3975
489 4 0.316019 0.232457 0.405209
420 4 0.403667 0.219733 0.350117
717 4 0.400593 0.238794 0.351446
516 4 0.413609 0.169961 0.411613
419 4 0.449299 0.206055 0.334909
418 2 0.426483 0.212894 0.342513
268 2 0.448205 0.230606 0.388906
270 4 0.457319 0.22074 0.409995
269 4 0.43909 0.240473 0.367817
402 4 0.240383 0.266 0.338263
676 2 0.170192 0.304758 0.343013
678 4 0.179486 0.28563 0.356162
508 2 0.241722 0.301299 0.356073
510 4 0.240139 0.276413 0.354229
375 4 0.184806 0.271037 0.368911
276 4 0.232334 0.258164 0.353783
373 2 0.191863 0.275729 0.392435
509 4 0.243305 0.326184 0.357917
374 4 0.19892 0.280422 0.415958
378 4 0.250695 0.260899 0.35526
377 4 0.300104 0.254713 0.350647
376 2 0.2754 0.257806 0.352954
715 2 0.403312 0.262997 0.357105
716 4 0.40603 0.287199 0.362765
488 4 0.346885 0.268655 0.389792
2927 4 0.0166559 0.35909 0.39337
616 2 0.0665153 0.352944 0.380373
617 4 0.0708623 0.363244 0.358008
618 4 0.0621682 0.342645 0.402739
408 4 0.10171 0.392821 0.34808
504 4 0.260143 0.3982 0.400042
753 4 0.416822 0.405202 0.353943
2923 2 0.481485 0.361739 0.341543
561 4 0.474491 0.386622 0.375223
752 4 0.464643 0.391289 0.35845
559 2 0.48905 0.391093 0.395053
751 2 0.440733 0.398245 0.356197
2925 4 0.472262 0.37374 0.361445
2461 2 0.00215369 0.447014 0.344943
548 4 0.0807214 0.45634 0.334716
681 4 0.0523919 0.43403 0.401727
679 2 0.0320444 0.445567 0.410562
383 4 0.0683823 0.443026 0.407162
407 4 0.0907301 0.440762 0.339031
500 4 0.0988352 0.459275 0.339167
406 2 0.0962202 0.416792 0.343555
501 4 0.102981 0.499913 0.368012
499 2 0.100908 0.479594 0.35359
568 2 0.147914 0.473849 0.414597
382 2 0.0886177 0.456741 0.412415
570 4 0.168466 0.472135 0.40046
1557 4 0.217913 0.477547 0.403968
1555 2 0.240355 0.483046 0.394415
1556 4 0.262798 0.488546 0.384861
5 3 0.301606 0.470407 0.381742
1 1 0.314633 0.470102 0.363065
4 3 0.319741 0.448206 0.357331
3 3 0.303568 0.480508 0.345524
2 3 0.334197 0.481441 0.367287
593 4 0.441039 0.495011 0.352722
592 2 0.432238 0.47364 0.343183
2238 4 0.00850364 0.016623 0.446056
718 2 0.0728791 0.0576318 0.473402
720 4 0.0493954 0.0563405 0.464915
2237 4 0.0289732 0.0560639 0.468993
2236 2 0.0187384 0.0363434 0.457524
1781 4 0.123727 0.0341214 0.419404
368 4 0.137079 0.0448234 0.429546
719 4 0.0963628 0.0589231 0.481889
367 2 0.124321 0.0518172 0.449881
369 4 0.111564 0.058811 0.470215
606 4 0.180294 0.0435676 0.419315
342 4 0.219442 0.0846029 0.497114
441 4 0.28326 0.0240378 0.429922
431 4 0.332857 0.0736708 0.497988
1035 4 0.0861703 0.153353 0.484203
687 4 0.167999 0.159461 0.425474
1152 4 0.216231 0.104084 0.499158
321 4 0.289352 0.109675 0.436245
319 2 0.28833 0.128015 0.419281
467 4 0.323238 0.158659 0.425394
726 4 0.342627 0.0895025 0.492887
724 2 0.347056 0.112284 0.483584
725 4 0.351485 0.135066 0.474281
468 4 0.342014 0.152162 0.471285
466 2 0.332626 0.155411 0.448339
425 4 0.41155 0.102146 0.437012
576 4 0.411968 0.159598 0.469851
2878 2 0.496808 0.0867683 0.456177
2880 4 0.486357 0.100653 0.474154
642 4 0.479012 0.104994 0.492848
471 4 0.0038105 0.193735 0.465773
469 2 0.0243569 0.184838 0.454643
470 4 0.0449033 0.175941 0.443513
260 4 0.114191 0.194338 0.43558
261 4 0.0937374 0.167565 0.472534
259 2 0.103964 0.180951 0.454057
411 4 0.277503 0.2046 0.4386
409 2 0.27732 0.199617 0.463101
410 4 0.277138 0.194633 0.487603
575 4 0.412892 0.185097 0.426843
574 2 0.41243 0.172347 0.448347
872 4 0.354316 0.225671 0.484045
871 2 0.373313 0.226435 0.500284
306 4 0.459359 0.210212 0.426245
305 4 0.484865 0.23053 0.464157
304 2 0.472112 0.220371 0.445201
348 4 0.0480855 0.291662 0.438347
346 2 0.0587709 0.311548 0.427596
347 4 0.0694563 0.331433 0.416845
695 4 0.0984936 0.273646 0.482126
694 2 0.117597 0.284568 0.494
1260 4 0.153793 0.302904 0.495916
649 2 0.242864 0.311423 0.49516
650 4 0.252385 0.306226 0.472632
266 4 0.339033 0.29235 0.430068
265 2 0.346911 0.29321 0.453783
267 4 0.354789 0.294069 0.477497
2456 4 0.486303 0.282127 0.496943
583 2 0.457115 0.297893 0.466722
584 4 0.471136 0.288536 0.485189
585 4 0.443093 0.30725 0.448256
326 4 0.0685368 0.350896 0.418965
325 2 0.077762 0.367196 0.43553
327 4 0.0869872 0.383496 0.452094
7 3 0.131241 0.377903 0.501215
10 3 0.155645 0.354011 0.486164
709 2 0.200329 0.377261 0.48504
710 4 0.222136 0.380254 0.473178
803 4 0.232521 0.377142 0.488857
711 4 0.178523 0.374269 0.496901
503 4 0.246602 0.379041 0.444204
502 2 0.253372 0.388621 0.422123
802 2 0.257003 0.38132 0.491751
804 4 0.281484 0.385498 0.494644
336 4 0.349678 0.391588 0.454773
334 2 0.367439 0.376075 0.463085
240 4 0.400057 0.369275 0.482056
335 4 0.385199 0.360562 0.471397
2508 4 0.49697 0.373315 0.47158
2507 4 0.491501 0.401998 0.430984
2506 2 0.494236 0.387656 0.451282
680 4 0.0116968 0.457105 0.419396
1381 2 0.000402216 0.489601 0.437702
1383 4 0.00805204 0.465802 0.437169
569 4 0.127362 0.475564 0.428734
539 4 0.110209 0.476098 0.435603
540 4 0.110117 0.486361 0.484546
538 2 0.110163 0.48123 0.460075
384 4 0.108853 0.470457 0.417667
636 4 0.210428 0.476551 0.421512
774 4 0.205135 0.469997 0.488744
635 4 0.201427 0.478668 0.470657
634 2 0.205927 0.47761 0.446085
669 4 0.325706 0.441974 0.42435
668 4 0.292322 0.47892 0.428964
667 2 0.309014 0.460447 0.426657
880 2 0.333578 0.465191 0.496308
588 4 0.367419 0.470114 0.462723
586 2 0.390096 0.465316 0.453346
587 4 0.412773 0.460518 0.443969
881 4 0.34148 0.442521 0.48932
662 4 0.465871 0.470462 0.497341
661 2 0.453378 0.448919 0.499572
1126 2 0.0484661 0.0609517 0.533535
1127 4 0.0289777 0.0452892 0.533791
1128 4 0.0679546 0.0766141 0.533279
1058 4 0.15083 0.0245059 0.548305
1057 2 0.13788 0.0454615 0.552591
1059 4 0.124931 0.066417 0.556876
1155 4 0.138425 0.0797993 0.553548
2430 4 0.206148 0.0250819 0.527724
2428 2 0.21039 0.00318021 0.516433
341 4 0.214708 0.0376626 0.513694
340 2 0.217075 0.0611328 0.505404
961 2 0.284465 0.0713771 0.569874
963 4 0.284247 0.0777247 0.545691
430 2 0.313857 0.0766064 0.513974
432 4 0.294857 0.0795419 0.529961
2196 4 0.337288 0.00523948 0.550604
1217 4 0.403184 0.0673272 0.545071
841 2 0.369125 0.0705605 0.519385
842 4 0.389549 0.0606905 0.529901
843 4 0.3487 0.0804305 0.508868
1216 2 0.425385 0.0780068 0.549344
939 4 0.0722206 0.0953861 0.540437
938 4 0.119268 0.0849511 0.553792
937 2 0.0957444 0.0901686 0.547115
1153 2 0.150425 0.100728 0.546977
1033 2 0.0935739 0.153644 0.508084
1154 4 0.162425 0.121656 0.540406
1034 4 0.100977 0.153935 0.531964
1151 4 0.177729 0.115578 0.528926
1031 4 0.219286 0.10864 0.545589
1150 2 0.19698 0.109831 0.514042
1030 2 0.221526 0.109687 0.57047
1182 4 0.236221 0.103865 0.506294
1181 4 0.276737 0.0885596 0.531292
1180 2 0.256479 0.0962125 0.518793
900 4 0.317591 0.135099 0.550323
898 2 0.342436 0.13355 0.552669
899 4 0.367281 0.132 0.555014
1218 4 0.447585 0.0886864 0.553617
641 4 0.453331 0.0947042 0.534506
640 2 0.466171 0.0998489 0.513677
3159 4 0.499122 0.155147 0.533976
856 2 0.244914 0.205998 0.546144
857 4 0.232093 0.223584 0.533835
858 4 0.257736 0.188411 0.558453
873 4 0.39231 0.2272 0.516523
904 2 0.451363 0.241819 0.560452
906 4 0.42668 0.240365 0.564164
905 4 0.476047 0.243273 0.556741
982 2 0.0716646 0.3136 0.544409
983 4 0.0496097 0.303513 0.538324
696 4 0.1367 0.295489 0.505874
984 4 0.0937195 0.323686 0.550493
1136 4 0.0919462 0.330953 0.568573
1258 2 0.171344 0.308312 0.512883
1259 4 0.188895 0.313721 0.52985
797 4 0.223157 0.252196 0.579017
651 4 0.233343 0.31662 0.517688
811 2 0.305064 0.309246 0.526034
1239 4 0.322313 0.332132 0.576251
812 4 0.290666 0.30666 0.505756
813 4 0.319461 0.311833 0.546312
954 4 0.424143 0.257989 0.573752
3065 4 0.48901 0.253234 0.545787
9 3 0.143361 0.348562 0.521336
1135 2 0.10406 0.352234 0.573627
895 2 0.141934 0.392651 0.574017
6 1 0.149356 0.364371 0.505445
8 3 0.166775 0.377442 0.513454
896 4 0.166893 0.393162 0.572622
1137 4 0.116173 0.373515 0.578682
897 4 0.116975 0.392139 0.575413
1189 2 0.201866 0.376263 0.556806
1190 4 0.223209 0.373956 0.543987
1191 4 0.180523 0.37857 0.569626
930 4 0.325828 0.386328 0.575834
928 2 0.342989 0.404504 0.575297
239 4 0.413137 0.390053 0.525621
238 2 0.406597 0.379664 0.503839
925 2 0.463454 0.384915 0.566197
926 4 0.466731 0.388647 0.541692
3309 4 0.483248 0.381432 0.530166
3307 2 0.494493 0.382912 0.507883
1001 4 0.420669 0.414838 0.569264
2243 4 0.125955 0.473485 0.550585
2242 2 0.120225 0.480686 0.527336
1160 4 0.121573 0.495311 0.581163
2244 4 0.114495 0.487888 0.504088
773 4 0.205519 0.435343 0.524795
772 2 0.205327 0.45267 0.506769
1173 4 0.256606 0.441313 0.560229
1171 2 0.281047 0.446367 0.561743
1172 4 0.305487 0.451422 0.563257
882 4 0.325677 0.48786 0.503295
891 4 0.32485 0.451818 0.560575
1187 4 0.2548 0.438829 0.580392
889 2 0.332477 0.45914 0.583233
929 4 0.36015 0.422681 0.574759
1002 4 0.400583 0.460128 0.562477
1000 2 0.410626 0.437483 0.565871
1910 4 0.404297 0.486177 0.547665
1332 4 0.467263 0.488927 0.504494
663 4 0.440884 0.427375 0.501803
943 2 0.0785113 0.038885 0.622132
945 4 0.0819875 0.0145252 0.626569
944 4 0.0750351 0.0632449 0.617694
1083 4 0.062208 0.0736136 0.604319
1282 2 0.150603 0.0798457 0.634495
1284 4 0.144339 0.0581836 0.623693
951 4 0.241496 0.9995 0.602501
824 4 0.200007 0.00217838 0.650283
950 4 0.285798 0.0170025 0.587277
949 2 0.263647 0.00825137 0.594889
962 4 0.284682 0.0650295 0.594058
808 2 0.470372 0.0702034 0.61556
810 4 0.493496 0.0663046 0.606885
809 4 0.447248 0.0741022 0.624236
1082 4 0.049632 0.108944 0.637399
1081 2 0.05592 0.091279 0.620859
1076 4 0.0441214 0.110097 0.656649
1283 4 0.156868 0.101508 0.645297
909 4 0.1451 0.110136 0.658173
1032 4 0.223767 0.110734 0.595351
45 3 0.441549 0.0843975 0.652347
877 2 0.063594 0.192935 0.604222
878 4 0.047005 0.19045 0.622764
1199 4 0.0282534 0.198531 0.616832
1198 2 0.0117408 0.209834 0.60184
1209 4 0.0781119 0.238745 0.661815
879 4 0.080183 0.195421 0.58568
1271 4 0.144661 0.190912 0.592283
1270 2 0.119896 0.187473 0.592447
1272 4 0.0951302 0.184034 0.592611
1221 4 0.159003 0.181372 0.601219
946 2 0.162731 0.245329 0.598351
1211 4 0.248834 0.179651 0.648426
1210 2 0.23461 0.185576 0.628734
1212 4 0.220386 0.1915 0.609043
1219 2 0.18121 0.192128 0.605258
1220 4 0.203418 0.202884 0.609297
796 2 0.220162 0.229056 0.588005
798 4 0.217166 0.205917 0.596993
947 4 0.186069 0.237765 0.603179
888 4 0.244601 0.17858 0.667714
791 4 0.314923 0.219382 0.587641
790 2 0.321942 0.243013 0.591822
1025 4 0.466306 0.175315 0.593143
1026 4 0.482074 0.222716 0.595426
1024 2 0.47419 0.199016 0.594284
1245 4 0.0663769 0.254349 0.663133
1243 2 0.0515076 0.267483 0.647915
1244 4 0.0366384 0.280617 0.632698
948 4 0.139393 0.252892 0.593523
1237 2 0.327322 0.30898 0.584257
792 4 0.328961 0.266644 0.596003
1238 4 0.33233 0.285829 0.592264
952 2 0.409849 0.27316 0.587562
953 4 0.395556 0.288331 0.601372
1041 4 0.101774 0.383321 0.586497
1039 2 0.097792 0.401588 0.6031
1205 4 0.392076 0.382878 0.658791
927 4 0.460177 0.381183 0.590703
1161 4 0.130341 0.45587 0.610628
1040 4 0.0938105 0.419854 0.619703
1159 2 0.125957 0.475591 0.595896
991 2 0.0966495 0.440749 0.657922
993 4 0.0953519 0.424759 0.638744
1186 2 0.244422 0.444561 0.602406
1188 4 0.234045 0.450292 0.624421
890 4 0.340104 0.466462 0.605892
1269 4 0.403912 0.46634 0.662651
1952 4 0.344415 0.485458 0.600243
4338 4 0.0307724 0.015147 0.690667
823 2 0.193761 0.998428 0.674202
2398 2 0.311642 0.00320719 0.736515
2400 4 0.293425 0.0173367 0.726836
1092 4 0.377478 0.0333791 0.673587
1004 4 0.357188 0.0369384 0.680169
1003 2 0.363562 0.0603909 0.686046
1090 2 0.391969 0.0142044 0.666693
1005 4 0.369935 0.0838434 0.691923
43 3 0.42999 0.0609662 0.679458
1163 4 0.475886 0.0530966 0.681647
1162 2 0.491918 0.0448349 0.698965
42 3 0.464995 0.0587469 0.665955
41 1 0.447868 0.0731993 0.671144
2991 4 0.0137563 0.0871704 0.69223
862 2 0.0284032 0.113594 0.733393
864 4 0.0266747 0.117551 0.708765
1075 2 0.0349143 0.104574 0.67923
1077 4 0.0257072 0.0990514 0.701811
907 2 0.153608 0.124007 0.677157
908 4 0.162116 0.137878 0.69614
1227 4 0.177446 0.131382 0.708658
1225 2 0.193411 0.116461 0.72081
1226 4 0.209376 0.10154 0.732961
831 4 0.326432 0.15136 0.707477
44 3 0.455327 0.0882217 0.687178
3426 4 0.498991 0.0978587 0.689313
852 4 0.0384044 0.232182 0.713159
851 4 0.0731905 0.205205 0.736884
850 2 0.0557974 0.218694 0.725022
1207 2 0.0906092 0.24293 0.683063
1208 4 0.103107 0.247115 0.704311
1276 2 0.227989 0.241072 0.742276
1277 4 0.217806 0.218484 0.738921
829 2 0.305771 0.165239 0.70986
830 4 0.285109 0.179117 0.712243
886 2 0.26057 0.18598 0.685474
887 4 0.276538 0.193379 0.703234
976 2 0.284975 0.204618 0.745266
978 4 0.279989 0.19329 0.72354
1193 4 0.364697 0.23357 0.713089
1142 4 0.371139 0.194641 0.737254
1192 2 0.381925 0.219669 0.701466
1194 4 0.399154 0.205767 0.689843
3123 4 0.464385 0.25068 0.676051
1263 4 0.437933 0.223886 0.732893
3121 2 0.488564 0.244462 0.677434
1261 2 0.42778 0.240552 0.748524
1179 4 0.0293671 0.274321 0.71642
1177 2 0.01294 0.262894 0.731411
821 4 0.145658 0.289516 0.736878
820 2 0.160607 0.282452 0.718122
1278 4 0.238171 0.263661 0.745631
822 4 0.175557 0.275387 0.699366
1063 2 0.26204 0.292214 0.743296
1064 4 0.275121 0.307836 0.728804
917 4 0.320422 0.273148 0.744271
1020 4 0.381718 0.327335 0.748598
893 4 0.0604463 0.385679 0.675509
892 2 0.0560095 0.365915 0.690167
894 4 0.0515727 0.346151 0.704826
1280 4 0.0479749 0.401009 0.674898
1067 4 0.163003 0.409489 0.750761
940 2 0.129671 0.389888 0.750967
942 4 0.104677 0.389417 0.750456
941 4 0.154665 0.39036 0.751477
1028 4 0.203124 0.40282 0.713155
1027 2 0.224203 0.389869 0.709532
1029 4 0.245282 0.376917 0.70591
1066 2 0.176203 0.413402 0.729889
807 4 0.327854 0.398023 0.68525
1204 2 0.394888 0.403908 0.672021
806 4 0.354525 0.355988 0.680516
805 2 0.341189 0.377005 0.682883
1018 2 0.384588 0.352164 0.747907
1019 4 0.387458 0.376993 0.747217
1279 2 0.0385602 0.420225 0.687832
1281 4 0.0291455 0.43944 0.700767
1983 4 0.0310668 0.449008 0.717168
1981 2 0.0480062 0.467377 0.718076
1982 4 0.0649456 0.485746 0.718983
992 4 0.0979471 0.45674 0.6771
1068 4 0.189403 0.417314 0.709017
1175 4 0.213602 0.500264 0.720486
1139 4 0.281523 0.497783 0.715107
1138 2 0.287756 0.485174 0.694434
1140 4 0.293988 0.472566 0.673761
1987 2 0.352982 0.496084 0.741992
1206 4 0.397699 0.424937 0.685251
1230 4 0.385527 0.4318 0.708457
1228 2 0.373117 0.453385 0.710745
1229 4 0.360707 0.474971 0.713033
1989 4 0.360703 0.493223 0.718383
1267 2 0.424233 0.476657 0.672935
3330 4 0.490403 0.450002 0.724562
2168 4 0.460923 0.493785 0.691173
1268 4 0.444555 0.486974 0.683219
1100 4 0.458225 0.474452 0.689683
1099 2 0.465038 0.457872 0.707114
1101 4 0.471852 0.441292 0.724545
3328 2 0.501694 0.444137 0.746086
1294 2 0.04046 0.028689 0.788543
1295 4 0.05908 0.0242123 0.772467
1296 4 0.02184 0.0331657 0.804619
2049 4 0.113932 0.00785464 0.760371
1203 4 0.110205 0.0395351 0.806674
911 4 0.107157 0.0500171 0.82217
1202 4 0.106741 0.0263775 0.758553
1196 4 0.115632 0.0314726 0.82278
1201 2 0.108473 0.0329563 0.782614
1147 2 0.223659 0.0777175 0.756896
1149 4 0.239513 0.0589426 0.761514
1257 4 0.304817 0.0498702 0.800319
1255 2 0.307453 0.0725322 0.790088
974 4 0.364408 0.00942369 0.788874
1113 4 0.406812 0.0635577 0.798035
973 2 0.378957 0.0295459 0.791804
975 4 0.393507 0.0496682 0.794733
1111 2 0.426169 0.058324 0.812972
844 2 0.480877 0.0625253 0.811289
846 4 0.458555 0.0515307 0.813743
1112 4 0.445526 0.0530903 0.827908
834 4 0.0189693 0.132851 0.820251