ITEM: TIMESTEP
920000
ITEM: NUMBER OF ATOMS
4590
ITEM: BOX BOUNDS pp pp pp
-9.9985700000000008e+00 9.9985700000000008e+00
-9.9985700000000008e+00 9.9985700000000008e+00
-9.9985700000000008e+00 9.9985700000000008e+00
ITEM: ATOMS id type xs ys zs
1668 4 0.0697571 0.0500064 0.0634545
1475 4 0.294981 0.0410552 0.0640103
492 4 0.282644 0.0329761 0.0790028
1474 2 0.300273 0.0172042 0.0586898
987 4 0.397144 0.0229556 0.0067628
747 4 0.450274 0.0611458 0.0200889
2974 2 0.472415 0.0262614 0.0353166
2976 4 0.485858 0.0066839 0.0431399
2975 4 0.458973 0.0458389 0.0274934
986 4 0.440051 0.0448593 0.0201739
745 2 0.441899 0.0841243 0.0148917
985 2 0.418597 0.0339075 0.0134684
566 4 0.154036 0.158903 0.061123
567 4 0.197113 0.159546 0.0357321
565 2 0.175575 0.159224 0.0484275
297 4 0.324745 0.0790894 0.067122
360 4 0.311317 0.167883 0.0636477
358 2 0.333337 0.156062 0.0643948
295 2 0.341538 0.0893115 0.0516735
296 4 0.358332 0.0995336 0.036225
557 4 0.367435 0.108313 0.0203564
556 2 0.391631 0.104229 0.0155513
769 2 0.388448 0.15424 0.0525368
770 4 0.364938 0.160734 0.058041
359 4 0.355357 0.144241 0.0651418
558 4 0.415826 0.100146 0.0107463
771 4 0.411958 0.147747 0.0470325
746 4 0.433523 0.107103 0.00969449
554 4 0.0951949 0.247907 0.00754508
664 2 0.372673 0.204266 0.0279223
665 4 0.358588 0.18427 0.0331138
666 4 0.386758 0.224262 0.0227309
323 4 0.398045 0.251692 0.0782009
462 4 0.346128 0.211516 0.0798537
553 2 0.0832552 0.261593 0.0247302
555 4 0.0713155 0.275278 0.0419153
656 4 0.998622 0.307584 0.0593079
287 4 0.163661 0.321545 0.0479915
292 2 0.150247 0.275951 0.0169314
293 4 0.16277 0.289685 0.0336556
507 4 0.17236 0.305281 0.0396532
505 2 0.190224 0.29882 0.0559109
506 4 0.208088 0.292359 0.0721686
481 2 0.238646 0.267232 0.0748201
483 4 0.222135 0.283583 0.0840509
482 4 0.255156 0.25088 0.0655893
573 4 0.262052 0.246389 0.0472575
572 4 0.291569 0.264264 0.0110644
571 2 0.276811 0.255327 0.029161
957 4 0.340648 0.319523 0.0148218
322 2 0.400065 0.261373 0.0552362
1069 2 0.396372 0.291632 0.00230874
324 4 0.402085 0.271054 0.0322715
1070 4 0.411675 0.277655 0.0162967
671 4 0.451514 0.323488 0.0652275
280 2 0.4439 0.300715 0.0321264
281 4 0.457182 0.314941 0.0478236
282 4 0.430617 0.28649 0.0164292
670 2 0.430294 0.328925 0.0772834
551 4 0.071187 0.386114 0.0759612
286 2 0.160501 0.344929 0.0397222
288 4 0.15734 0.368313 0.031453
550 2 0.0939711 0.377699 0.0818992
552 4 0.116755 0.369285 0.0878372
454 2 0.153095 0.379095 0.0828405
456 4 0.176818 0.372707 0.0781927
250 2 0.302356 0.396578 0.0379942
251 4 0.29316 0.392872 0.0150403
252 4 0.311552 0.400284 0.060948
609 4 0.319389 0.415976 0.070567
741 4 0.334295 0.341975 0.0522285
739 2 0.34232 0.34012 0.0758363
245 4 0.217607 0.457583 0.0753876
626 4 0.202895 0.443378 0.0716938
244 2 0.229147 0.457133 0.053211
246 4 0.240688 0.456684 0.0310344
272 4 0.251455 0.468372 0.0195311
525 4 0.35285 0.482969 0.0828301
563 4 0.466798 0.469361 0.0324087
228 4 0.462372 0.459582 0.0490441
226 2 0.469813 0.450594 0.0711583
562 2 0.448677 0.483884 0.0231413
1666 2 0.0808144 0.0616889 0.0825969
19 3 0.0544796 0.0756107 0.152611
18 3 0.0620293 0.038802 0.146908
16 1 0.0564387 0.0548236 0.162734
1667 4 0.0918718 0.0733713 0.101739
701 4 0.100472 0.0839058 0.115267
448 2 0.202495 0.0672507 0.168833
1506 4 0.241712 0.0283447 0.156949
1539 4 0.179035 0.999562 0.128019
450 4 0.20562 0.0451671 0.180134
490 2 0.279723 0.0547857 0.0908766
652 2 0.287204 0.0228898 0.161193
491 4 0.276802 0.0765953 0.10275
654 4 0.26237 0.0248785 0.159074
653 4 0.312039 0.0209011 0.163312
311 4 0.385677 0.0687146 0.158548
310 2 0.399857 0.0847183 0.145588
758 4 0.368277 0.0672524 0.169842
2722 2 0.466101 0.0516721 0.147979
2723 4 0.445007 0.0650783 0.148688
2724 4 0.487194 0.0382659 0.14727
1760 4 0.498303 0.0225577 0.143151
1759 2 0.497107 0.997583 0.143305
702 4 0.0903728 0.117436 0.150966
2623 2 0.00497975 0.155985 0.116823
700 2 0.0954224 0.100671 0.133116
476 4 0.0886236 0.138111 0.147224
449 4 0.19937 0.0893344 0.157531
236 4 0.189139 0.106337 0.160387
737 4 0.187455 0.16178 0.129053
582 4 0.276029 0.147616 0.150255
581 4 0.321149 0.129322 0.161667
580 2 0.298589 0.138469 0.155961
628 2 0.396642 0.136882 0.114087
630 4 0.383199 0.155684 0.10455
312 4 0.414038 0.100722 0.132627
629 4 0.410085 0.11808 0.123624
254 4 0.384499 0.168764 0.118924
2625 4 0.0170294 0.175936 0.107772
736 2 0.182326 0.186085 0.126205
738 4 0.177196 0.210391 0.123357
461 4 0.300975 0.226949 0.0948102
460 2 0.323551 0.219232 0.087332
354 4 0.283894 0.230545 0.10431
278 4 0.266989 0.247368 0.162525
352 2 0.27963 0.241439 0.126407
353 4 0.275365 0.252334 0.148505
284 4 0.284721 0.240065 0.161651
255 4 0.356898 0.202433 0.0943219
253 2 0.370699 0.185599 0.106623
765 4 0.376131 0.253001 0.150622
763 2 0.357218 0.242095 0.16281
528 4 0.461577 0.25623 0.119429
646 2 0.0723419 0.332606 0.16143
339 4 0.0964634 0.269083 0.128548
337 2 0.0857781 0.26014 0.149309
536 4 0.180538 0.286821 0.124618
535 2 0.189414 0.309846 0.12865
754 2 0.264174 0.291472 0.161128
755 4 0.268358 0.266887 0.159316
756 4 0.259989 0.316056 0.162939
624 4 0.367062 0.248753 0.133732
622 2 0.375179 0.256241 0.1113
623 4 0.383297 0.263729 0.0888672
672 4 0.409074 0.334361 0.0893393
518 4 0.480388 0.26188 0.113321
526 2 0.455752 0.272943 0.13709
527 4 0.449928 0.289656 0.154751
648 4 0.0663754 0.342752 0.13937
455 4 0.129373 0.385484 0.0874882
537 4 0.19829 0.33287 0.132682
417 4 0.176601 0.414888 0.159472
415 2 0.197587 0.401993 0.16377
302 4 0.301853 0.360232 0.153001
387 4 0.320311 0.353121 0.148516
385 2 0.338014 0.352208 0.130882
740 4 0.350346 0.338265 0.0994441
15 3 0.368466 0.364717 0.114463
386 4 0.355718 0.351294 0.113249
11 1 0.390995 0.361409 0.114065
13 3 0.39843 0.35501 0.135092
14 3 0.40174 0.380882 0.107451
12 3 0.395937 0.344715 0.0990307
493 2 0.411031 0.409703 0.099504
495 4 0.414554 0.385574 0.0939772
1791 4 0.0641329 0.487027 0.144596
625 2 0.195534 0.445668 0.0954793
627 4 0.188173 0.447959 0.119265
607 2 0.326393 0.432246 0.0882136
608 4 0.333398 0.448516 0.10586
658 2 0.369242 0.449987 0.115657
659 4 0.345281 0.45364 0.121794
660 4 0.393204 0.446334 0.10952
494 4 0.407507 0.433832 0.105031
227 4 0.477253 0.441607 0.0932725
20 3 0.0723638 0.0555701 0.178996
17 3 0.0362256 0.049215 0.172174
2480 4 0.0178828 0.0388825 0.174552
1422 4 0.0101283 0.0239807 0.174687
2479 2 0.00708721 0.052781 0.192314
673 2 0.136698 0.0237129 0.242735
674 4 0.149893 0.024141 0.221501
693 4 0.237534 0.0685141 0.2243
691 2 0.222912 0.0675037 0.244558
689 4 0.186144 0.0182398 0.238538
1504 2 0.232495 0.0118192 0.173293
24 3 0.32482 0.0735436 0.251948
25 3 0.330436 0.051332 0.222068
21 1 0.33967 0.0592171 0.241335
759 4 0.350583 0.0607887 0.216166
22 3 0.358898 0.0708106 0.23633
757 2 0.35943 0.0640206 0.193004
744 4 0.501609 0.0454617 0.217828
380 4 0.012079 0.094805 0.172489
578 4 0.0697464 0.103156 0.196505
379 2 0.0204436 0.115702 0.183376
381 4 0.0288082 0.1366 0.194262
512 4 0.0387385 0.134642 0.210682
511 2 0.044571 0.155689 0.222855
475 2 0.0947468 0.143402 0.170882
477 4 0.10087 0.148693 0.19454
577 2 0.0887948 0.0996072 0.212308
579 4 0.107843 0.0960588 0.228112
237 4 0.224791 0.138864 0.17349
235 2 0.206965 0.1226 0.166938
28 3 0.300735 0.148332 0.244378
333 4 0.472371 0.114804 0.238527
331 2 0.477492 0.139254 0.239602
332 4 0.482613 0.163704 0.240676
513 4 0.0504036 0.176737 0.235027
363 4 0.0801098 0.238026 0.184276
443 4 0.0029604 0.227986 0.240343
279 4 0.229676 0.218721 0.179489
546 4 0.188187 0.187959 0.251209
277 2 0.248333 0.233045 0.171007
283 2 0.304554 0.234402 0.175785
285 4 0.324387 0.228739 0.189918
27 3 0.311099 0.184441 0.243189
764 4 0.338306 0.231189 0.174999
521 4 0.482316 0.179336 0.230825
762 4 0.481213 0.17851 0.251819
338 4 0.0750928 0.251196 0.17007
394 2 0.0116078 0.259368 0.21661
395 4 0.0246202 0.272859 0.200062
748 2 0.0780675 0.295384 0.237949
749 4 0.0751023 0.272389 0.228588
647 4 0.0783083 0.322461 0.18349
750 4 0.0810327 0.318379 0.24731
361 2 0.0869688 0.252489 0.203484
371 4 0.158048 0.273205 0.219817
370 2 0.133374 0.276849 0.22157
372 4 0.108699 0.280493 0.223323
362 4 0.0938278 0.266952 0.222692
344 4 0.241755 0.325181 0.237665
612 4 0.260309 0.311429 0.18339
610 2 0.255997 0.323975 0.204584
307 2 0.312441 0.298701 0.225728
308 4 0.305025 0.287451 0.204666
291 4 0.236297 0.394414 0.174577
416 4 0.218574 0.389098 0.168068
289 2 0.249482 0.414853 0.180375
611 4 0.251685 0.33652 0.225779
303 4 0.305281 0.354144 0.202518
301 2 0.303567 0.357188 0.17776
729 4 0.314781 0.369445 0.2118
727 2 0.33123 0.368799 0.23062
447 4 0.393583 0.381967 0.236459
644 4 0.410731 0.372758 0.239049
595 2 0.472535 0.406649 0.196799
597 4 0.468558 0.391248 0.216091
643 2 0.430263 0.37948 0.224961
645 4 0.449796 0.386202 0.210873
263 4 0.00159441 0.447069 0.224972
262 2 0.0132647 0.432013 0.241168
767 4 0.2834 0.493326 0.175373
290 4 0.262667 0.435291 0.186172
768 4 0.280614 0.443831 0.181948
766 2 0.282007 0.468578 0.178661
230 4 0.402679 0.499743 0.224902
596 4 0.476511 0.42205 0.177508
231 4 0.434422 0.471749 0.198266
229 2 0.41855 0.485746 0.211584
234 4 0.00173597 0.0256403 0.304804
232 2 0.0211707 0.0283845 0.289314
233 4 0.0406054 0.0311288 0.273824
1404 4 0.059968 0.0242298 0.273454
1402 2 0.0845926 0.0200287 0.274532
675 4 0.123502 0.0232848 0.263968
1403 4 0.109217 0.0158276 0.275609
692 4 0.20829 0.0664933 0.264815
723 4 0.219087 0.0624184 0.280905
1700 4 0.290506 0.0325018 0.34239
23 3 0.345015 0.0415297 0.255371
1496 4 0.377957 0.993118 0.28359
479 4 0.496531 0.057985 0.299397
478 2 0.475683 0.0705406 0.293664
351 4 0.436686 0.0933827 0.285915
398 4 0.0463015 0.13056 0.312587
397 2 0.0560403 0.113662 0.328232
721 2 0.223798 0.0810131 0.296943
722 4 0.228508 0.0996078 0.312981
249 4 0.231899 0.109304 0.330371
29 3 0.327365 0.161471 0.268098
26 1 0.307545 0.166487 0.257123
632 4 0.372181 0.0991014 0.258663
707 4 0.344308 0.159938 0.279702
633 4 0.354052 0.144524 0.269098
631 2 0.363117 0.121813 0.263881
706 2 0.354032 0.16225 0.302621
350 4 0.391511 0.0986704 0.26513
349 2 0.414099 0.0960265 0.275523
480 4 0.454834 0.0830961 0.28793
393 4 0.0571886 0.167398 0.251623
444 4 0.0165424 0.231855 0.288315
391 2 0.0673146 0.183818 0.267529
442 2 0.0097514 0.229921 0.264329
392 4 0.0774405 0.200239 0.283436
388 2 0.106117 0.233344 0.324034
545 4 0.159487 0.224381 0.26993
390 4 0.125446 0.241981 0.310731
544 2 0.173837 0.20617 0.26057
400 2 0.194436 0.239303 0.306456
402 4 0.197303 0.21685 0.295834
30 3 0.291409 0.171831 0.272279
708 4 0.363755 0.164563 0.32554
717 4 0.392949 0.226278 0.327282
761 4 0.465166 0.195552 0.29601
760 2 0.47319 0.187031 0.273914
300 4 0.089636 0.319956 0.264191
343 2 0.236941 0.306784 0.2539
345 4 0.232127 0.288388 0.270135
401 4 0.191569 0.261756 0.317077
496 2 0.318634 0.319448 0.28304
497 4 0.305879 0.32058 0.304516
377 4 0.305089 0.30714 0.319632
498 4 0.331388 0.318316 0.261564
309 4 0.319858 0.309951 0.24679
376 2 0.286394 0.294792 0.330731
541 2 0.380646 0.294875 0.325263
543 4 0.365199 0.314535 0.324986
615 4 0.366659 0.327953 0.309315
542 4 0.396093 0.275216 0.32554
364 2 0.00713092 0.369919 0.28805
365 4 0.0287524 0.38017 0.280796
601 2 0.0585841 0.396585 0.284849
603 4 0.0468758 0.379068 0.271387
602 4 0.0702924 0.414102 0.298312
549 4 0.0627949 0.414202 0.31712
298 2 0.110924 0.332935 0.266074
299 4 0.132212 0.345914 0.267958
734 4 0.151649 0.346604 0.260939
676 2 0.204862 0.33731 0.320185
677 4 0.204726 0.340262 0.295357
733 2 0.175074 0.347841 0.269595
735 4 0.198499 0.349078 0.278252
433 2 0.300543 0.370669 0.328643
434 4 0.32219 0.370749 0.31613
435 4 0.278895 0.37059 0.341156
728 4 0.34768 0.368152 0.249439
613 2 0.354084 0.349538 0.310385
614 4 0.341509 0.371123 0.311455
445 2 0.390278 0.378086 0.260937
446 4 0.386972 0.374205 0.285415
264 4 0.0249349 0.416958 0.257364
2463 4 0.993308 0.478661 0.319499
2461 2 0.0129956 0.491394 0.328185
1757 4 0.087542 0.479309 0.268208
777 4 0.102381 0.474201 0.304504
775 2 0.107364 0.481125 0.328007
412 2 0.215176 0.496903 0.32012
413 4 0.239516 0.502176 0.322344
414 4 0.190836 0.491629 0.317896
1437 4 0.292689 0.470717 0.29891
1435 2 0.276029 0.484787 0.311144
1803 4 0.32272 0.499656 0.249779
436 2 0.334384 0.461839 0.321257
437 4 0.345465 0.451902 0.301167
316 2 0.0605401 0.0564705 0.340795
317 4 0.0492859 0.0347476 0.345957
318 4 0.0717943 0.0781934 0.335634
428 4 0.051179 0.0153173 0.350672
1781 4 0.129881 0.00831974 0.401673
368 4 0.116783 0.00981013 0.41638
606 4 0.140208 0.0758906 0.367871
1699 2 0.291097 0.00750766 0.342737
683 4 0.298011 0.0638095 0.39945
699 4 0.353054 0.0719637 0.361355
697 2 0.369192 0.054605 0.353391
698 4 0.38533 0.0372463 0.345428
257 4 0.399017 0.0285281 0.357315
258 4 0.44245 0.0101416 0.340695
1428 4 0.457255 0.0106108 0.328569
256 2 0.420734 0.0193349 0.349005
2879 4 0.489131 0.0750995 0.414089
399 4 0.065779 0.0967632 0.343878
732 4 0.0824245 0.0881901 0.34613
457 2 0.0316514 0.14543 0.407082
458 4 0.0184807 0.12859 0.394115
604 2 0.162403 0.086764 0.371653
731 4 0.121489 0.0781005 0.375674
730 2 0.101957 0.0831453 0.360902
598 2 0.151149 0.142009 0.373245
599 4 0.129172 0.152703 0.36797
404 4 0.247807 0.118661 0.337454
600 4 0.173126 0.131315 0.378519
605 4 0.184599 0.0976374 0.375436
248 4 0.189723 0.105741 0.357001
247 2 0.210811 0.107523 0.343686
403 2 0.253351 0.142686 0.34161
682 2 0.292207 0.0854112 0.410624
320 4 0.292908 0.121047 0.408879
452 4 0.470398 0.157715 0.390654
451 2 0.458424 0.160556 0.41242
389 4 0.0867879 0.224708 0.337338
686 4 0.154019 0.208781 0.419102
275 4 0.149896 0.242515 0.358699
473 4 0.245628 0.176759 0.359802
474 4 0.207499 0.209106 0.359095
276 4 0.196531 0.225096 0.363428
472 2 0.226564 0.192933 0.359449
274 2 0.173213 0.233805 0.361064
405 4 0.258895 0.16671 0.345766
715 2 0.404649 0.215237 0.346423
466 2 0.402496 0.189479 0.394186
716 4 0.41635 0.204196 0.365564
467 4 0.411084 0.185584 0.371029
269 4 0.491392 0.210838 0.395358
268 2 0.473264 0.22773 0.398705
270 4 0.455135 0.244622 0.402052
346 2 0.0718393 0.321053 0.37455
348 4 0.0534324 0.32499 0.391008
347 4 0.0902463 0.317117 0.358092
618 4 0.100296 0.304827 0.369659
616 2 0.122895 0.298844 0.360789
617 4 0.145494 0.292862 0.351919
374 4 0.164172 0.309423 0.385685
678 4 0.204998 0.334358 0.345014
375 4 0.204815 0.320194 0.358614
373 2 0.184494 0.314808 0.37215
378 4 0.267699 0.282443 0.34183
420 4 0.416276 0.275872 0.33507
418 2 0.435102 0.266827 0.348816
419 4 0.453929 0.257783 0.362562
2814 4 0.00757103 0.390194 0.413783
681 4 0.0195221 0.406485 0.416956
510 4 0.223651 0.390016 0.360577
508 2 0.228897 0.365715 0.363245
509 4 0.234143 0.341414 0.365913
504 4 0.205743 0.397098 0.421827
561 4 0.472584 0.391028 0.3848
751 2 0.44391 0.403853 0.354016
752 4 0.455571 0.393391 0.373503
559 2 0.487786 0.393213 0.404531
547 2 0.0792838 0.426061 0.331703
407 4 0.0964621 0.426861 0.362985
548 4 0.0957728 0.43792 0.346286
406 2 0.0987818 0.432685 0.38719
776 4 0.112348 0.48805 0.35151
408 4 0.101101 0.438508 0.411395
1543 2 0.177417 0.499186 0.410592
1544 4 0.201492 0.492437 0.41042
1556 4 0.218818 0.491279 0.418065
438 4 0.323302 0.471777 0.341348
3 3 0.308244 0.465279 0.357197
1 1 0.310223 0.488369 0.358359
4 3 0.315384 0.494796 0.380049
2 3 0.327202 0.495091 0.344371
1742 4 0.40378 0.482918 0.334085
594 4 0.40927 0.474276 0.350266
592 2 0.398662 0.47357 0.372897
593 4 0.388054 0.472864 0.395528
588 4 0.400123 0.468446 0.41124
118 3 0.488105 0.421944 0.334394
713 4 0.418 0.468262 0.334775
714 4 0.465785 0.454789 0.340762
753 4 0.432249 0.414316 0.334529
712 2 0.441892 0.461525 0.337769
119 3 0.486103 0.459068 0.342284
116 1 0.498118 0.439524 0.345757
117 3 0.498202 0.434746 0.368259
718 2 0.0437946 0.0266933 0.458011
720 4 0.0239581 0.0175904 0.470211
2237 4 0.0151158 0.0134869 0.488132
719 4 0.0636312 0.0357962 0.445812
369 4 0.0719112 0.0228255 0.434207
367 2 0.0943472 0.0163178 0.425293
441 4 0.31892 0.0210484 0.425348
962 4 0.30743 0.0237555 0.440547
961 2 0.303726 0.0360546 0.461999
963 4 0.300022 0.0483537 0.483451
432 4 0.293361 0.0609261 0.497548
426 4 0.383582 0.0259649 0.430211
424 2 0.359003 0.0293523 0.427117
425 4 0.334424 0.0327398 0.424023
725 4 0.401188 0.078307 0.420217
459 4 0.0448221 0.16227 0.420048
684 4 0.286402 0.107013 0.421798
321 4 0.305976 0.164829 0.429203
319 2 0.299442 0.142938 0.419041
724 2 0.405566 0.0841801 0.444124
726 4 0.409943 0.0900532 0.46803
453 4 0.44645 0.163396 0.434186
2878 2 0.487682 0.094198 0.430161
2880 4 0.486232 0.113297 0.446234
640 2 0.481469 0.127331 0.485044
642 4 0.48604 0.126993 0.460464
515 4 0.427238 0.157758 0.431842
260 4 0.0599578 0.168432 0.43172
259 2 0.0821979 0.17343 0.441995
685 2 0.133352 0.198532 0.428745
687 4 0.112685 0.188282 0.438388
261 4 0.104438 0.178427 0.45227
1035 4 0.108789 0.196411 0.456455
1033 2 0.112253 0.19946 0.481029
487 2 0.320184 0.246262 0.436598
489 4 0.332556 0.227421 0.447421
468 4 0.393908 0.193375 0.417343
516 4 0.388643 0.175925 0.457939
514 2 0.40794 0.166841 0.44489
411 4 0.339817 0.207934 0.448583
409 2 0.358053 0.197198 0.435265
410 4 0.37629 0.186463 0.421947
575 4 0.374604 0.170249 0.472659
266 4 0.366585 0.241467 0.459413
695 4 0.0547242 0.261799 0.471582
694 2 0.0795878 0.259171 0.471853
696 4 0.104451 0.256543 0.472123
1258 2 0.122625 0.290137 0.481372
1260 4 0.121192 0.265483 0.477464
1259 4 0.124058 0.314792 0.48528
9 3 0.142872 0.320656 0.47757
857 4 0.180994 0.258641 0.496764
651 4 0.265804 0.285387 0.504861
488 4 0.307813 0.265104 0.425775
267 4 0.367317 0.285635 0.482852
265 2 0.366951 0.263551 0.471133
583 2 0.47562 0.265821 0.480033
585 4 0.453498 0.267488 0.4685
584 4 0.497742 0.264153 0.491566
326 4 0.0731529 0.358482 0.476457
6 1 0.148874 0.341428 0.485989
327 4 0.118889 0.370256 0.492898
325 2 0.0960209 0.364369 0.484678
7 3 0.129783 0.353016 0.491504
711 4 0.148212 0.405378 0.438491
10 3 0.160473 0.353129 0.470267
709 2 0.169229 0.394827 0.429996
502 2 0.224069 0.380546 0.425746
710 4 0.190245 0.384275 0.421502
503 4 0.242395 0.363994 0.429666
772 2 0.275605 0.399565 0.48608
669 4 0.295618 0.40536 0.45632
336 4 0.326333 0.365397 0.422231
668 4 0.323369 0.385821 0.419594
667 2 0.309494 0.395591 0.437957
773 4 0.266065 0.382545 0.501715
882 4 0.356128 0.409762 0.471399
335 4 0.371147 0.3492 0.4374
334 2 0.34874 0.357298 0.429816
238 2 0.397882 0.384323 0.434313
240 4 0.383296 0.364582 0.439078
239 4 0.412468 0.404064 0.429548
3307 2 0.507072 0.392724 0.48555
3309 4 0.491792 0.411583 0.491554
679 2 0.0233702 0.430877 0.420878
680 4 0.0272183 0.455269 0.424801
1383 4 0.0364468 0.468926 0.437109
1381 2 0.0296307 0.487402 0.452516
570 4 0.145642 0.48712 0.41339
568 2 0.127534 0.470202 0.416716
569 4 0.109427 0.453283 0.420043
383 4 0.110991 0.437177 0.429675
382 2 0.0997064 0.438425 0.451952
384 4 0.0884215 0.439674 0.474229
1555 2 0.241925 0.489515 0.427454
636 4 0.271462 0.476993 0.451745
635 4 0.291546 0.436001 0.472166
634 2 0.281504 0.456497 0.461956
774 4 0.285145 0.416586 0.470444
1557 4 0.265031 0.487751 0.436844
587 4 0.416261 0.425155 0.430377
586 2 0.408192 0.446801 0.420809
880 2 0.348237 0.415465 0.494429
663 4 0.446746 0.461928 0.447124
661 2 0.449406 0.482653 0.460856
1058 4 0.107834 0.0731235 0.573371
342 4 0.2177 0.0812585 0.518892
340 2 0.216077 0.0563475 0.520301
2430 4 0.220068 0.0138259 0.515384
2428 2 0.199055 0.000342695 0.516735
341 4 0.214455 0.0314365 0.52171
430 2 0.313553 0.0620561 0.512251
431 4 0.333745 0.0631861 0.526954
1217 4 0.39365 0.079865 0.532039
1216 2 0.40257 0.0566356 0.529587
1218 4 0.41149 0.0334063 0.527136
3007 2 0.488514 0.0318231 0.579803
1128 4 0.00575682 0.105798 0.583352
470 4 0.0354564 0.162945 0.534955
1059 4 0.136072 0.113999 0.567675
1057 2 0.121953 0.0935615 0.570523
939 4 0.106204 0.134345 0.576078
1155 4 0.125041 0.126523 0.579504
1151 4 0.2034 0.133194 0.536519
1150 2 0.201038 0.110766 0.52572
1152 4 0.198676 0.0883389 0.514922
1181 4 0.247647 0.10963 0.492726
1182 4 0.256991 0.146512 0.525178
1180 2 0.252319 0.128071 0.508952
900 4 0.268538 0.164123 0.525651
1032 4 0.259782 0.108205 0.588688
841 2 0.356578 0.0888252 0.533483
842 4 0.3805 0.0940291 0.53857
843 4 0.332657 0.0836213 0.528396
641 4 0.476898 0.127668 0.509623
469 2 0.0197886 0.181869 0.530308
878 4 0.0314246 0.237722 0.581584
471 4 0.00412076 0.200793 0.525661
1199 4 0.015767 0.225435 0.578273
877 2 0.0494288 0.220419 0.580305
1272 4 0.0832517 0.191035 0.577841
1244 4 0.0319965 0.25702 0.590321
1034 4 0.115716 0.202508 0.505603
1271 4 0.126127 0.216145 0.572193
1270 2 0.104689 0.20359 0.575017
858 4 0.179523 0.230564 0.538119
856 2 0.180259 0.244603 0.517441
898 2 0.289951 0.171394 0.536318
899 4 0.311363 0.178666 0.546986
650 4 0.267926 0.235471 0.507022
576 4 0.380365 0.193229 0.516698
574 2 0.377484 0.181739 0.494678
3157 2 0.492955 0.191428 0.570418
983 4 0.027892 0.305482 0.567498
1245 4 0.0438344 0.295664 0.560872
1243 2 0.0379154 0.276342 0.575596
947 4 0.179306 0.252109 0.577902
1238 4 0.300021 0.29767 0.571838
1237 2 0.313767 0.317503 0.578385
649 2 0.266865 0.260429 0.505942
872 4 0.359306 0.275929 0.56342
871 2 0.367296 0.299108 0.558518
873 4 0.375286 0.322288 0.553617
906 4 0.462317 0.265954 0.574274
953 4 0.443039 0.263181 0.568007
904 2 0.484416 0.267694 0.562708
952 2 0.430367 0.282035 0.578454
982 2 0.0280562 0.330478 0.566901
984 4 0.0282204 0.355474 0.566304
3354 4 0.0245901 0.37467 0.563642
3352 2 0.00812366 0.388678 0.551079
8 3 0.161828 0.338803 0.50506
1190 4 0.240237 0.358632 0.574334
803 4 0.232362 0.355233 0.555906
802 2 0.241215 0.354632 0.53253
804 4 0.250069 0.354032 0.509154
930 4 0.320857 0.357202 0.582781
813 4 0.376638 0.342124 0.546249
929 4 0.358698 0.389868 0.584092
928 2 0.339777 0.373535 0.583436
811 2 0.389733 0.363417 0.546792
812 4 0.402828 0.38471 0.547336
927 4 0.419703 0.392707 0.539725
926 4 0.46657 0.400862 0.555141
925 2 0.443136 0.396785 0.547433
539 4 0.0731449 0.45878 0.536325
538 2 0.0922549 0.474848 0.537666
540 4 0.111365 0.490917 0.539008
1160 4 0.139402 0.507443 0.545342
1159 2 0.153573 0.493592 0.56059
1161 4 0.167745 0.479741 0.575838
881 4 0.340346 0.421168 0.517459
1951 2 0.351483 0.477447 0.576035
1953 4 0.367411 0.491794 0.563165
1002 4 0.441991 0.438537 0.573332
1000 2 0.435042 0.459165 0.561028
1001 4 0.428093 0.479793 0.548724
1911 4 0.44547 0.487437 0.547419
1082 4 0.0620704 0.0756594 0.663547
823 2 0.136585 0.0219171 0.630957
825 4 0.12459 0.0418869 0.621874
1031 4 0.279553 0.0628262 0.595799
951 4 0.298032 0.0591399 0.588538
949 2 0.306628 0.0374418 0.597508
950 4 0.315225 0.0157436 0.606479
2283 4 0.412907 0.0109175 0.59011
3008 4 0.46643 0.039895 0.588305
809 4 0.478344 0.0452665 0.604555
808 2 0.467964 0.0573823 0.623807
42 3 0.447282 0.0598267 0.660937
810 4 0.457584 0.0694981 0.643059
938 4 0.0634962 0.127064 0.601054
1083 4 0.0578946 0.098695 0.619358
1126 2 0.0249339 0.0966674 0.596545
1081 2 0.0599825 0.0871772 0.641453
1127 4 0.044111 0.0875373 0.609738
937 2 0.08485 0.130704 0.588566
1153 2 0.139784 0.144214 0.589241
1154 4 0.154528 0.161905 0.598978
1030 2 0.269667 0.0855158 0.592243
45 3 0.456397 0.0925495 0.645477
41 1 0.448318 0.0825619 0.664282
879 4 0.067433 0.203116 0.579025
1177 2 0.000658066 0.228642 0.656347
1179 4 0.00623145 0.237297 0.633561
1221 4 0.16814 0.172797 0.608458
1212 4 0.21085 0.201894 0.641171
1219 2 0.186857 0.187934 0.615219
1220 4 0.205575 0.203071 0.62198
1210 2 0.232799 0.196658 0.651941
1193 4 0.36185 0.192696 0.640528
1192 2 0.343264 0.182508 0.653793
3159 4 0.474775 0.181395 0.584346
1136 4 0.133147 0.293173 0.596866
948 4 0.136679 0.274722 0.591028
946 2 0.157993 0.263415 0.584465
1135 2 0.139955 0.317231 0.59666
798 4 0.191674 0.260298 0.591585
796 2 0.216414 0.26108 0.595124
797 4 0.241153 0.261862 0.598663
791 4 0.260681 0.261222 0.603493
792 4 0.298464 0.290805 0.58942
790 2 0.279573 0.276014 0.596457
807 4 0.310903 0.297483 0.659993
805 2 0.323153 0.319172 0.657817
954 4 0.417694 0.300889 0.588901
3123 4 0.494299 0.271135 0.644238
1039 2 0.0674361 0.400705 0.620219
1041 4 0.043142 0.401731 0.626043
3264 4 0.031597 0.397858 0.642206
3262 2 0.0297034 0.376304 0.654736
897 4 0.146337 0.358821 0.601748
1040 4 0.0917302 0.399679 0.614394
993 4 0.0939541 0.389116 0.59642
1137 4 0.146763 0.341289 0.596454
991 2 0.111557 0.371359 0.596307
992 4 0.129161 0.353603 0.596195
895 2 0.170148 0.365232 0.605884
1189 2 0.226401 0.36867 0.592582
1172 4 0.213538 0.396875 0.603525
1191 4 0.212564 0.378708 0.610829
896 4 0.193959 0.371644 0.610021
1140 4 0.23901 0.415153 0.658701
1239 4 0.327513 0.337337 0.584931
806 4 0.335402 0.34086 0.655641
3240 4 0.0164232 0.409142 0.642206
1188 4 0.168518 0.477091 0.596778
1171 2 0.210774 0.421521 0.606707
1173 4 0.208009 0.446167 0.609888
1187 4 0.211819 0.464665 0.618489
1186 2 0.190169 0.470878 0.607633
889 2 0.299041 0.465337 0.604158
891 4 0.274928 0.459097 0.60635
890 4 0.323154 0.471577 0.601965
1230 4 0.334443 0.437005 0.657808
1952 4 0.335554 0.4631 0.588904
1204 2 0.410486 0.430574 0.663772
1206 4 0.431353 0.429913 0.650012
1269 4 0.424942 0.490184 0.626107
1267 2 0.442007 0.488785 0.644327
945 4 0.040745 0.0227273 0.675733
943 2 0.0527913 0.0423462 0.685488
944 4 0.0648376 0.0619652 0.695243
1076 4 0.0651732 0.0794865 0.683122
1147 2 0.218253 0.0526672 0.728428
1148 4 0.223403 0.0691227 0.710321
1149 4 0.213104 0.0362116 0.746536
1004 4 0.369377 0.0739468 0.699056
1163 4 0.465084 0.0651048 0.675249
1162 2 0.48258 0.0504603 0.685477
2320 2 0.483063 0.0287274 0.737115
2321 4 0.492589 0.0269525 0.714066
1164 4 0.500075 0.0358158 0.695706
864 4 0.0571813 0.116309 0.731105
1075 2 0.0592757 0.0986895 0.69801
1077 4 0.0533783 0.117893 0.712897
1107 4 0.0683461 0.127914 0.717372
851 4 0.0568464 0.13506 0.704236
850 2 0.0363062 0.147258 0.696855
852 4 0.0157659 0.159456 0.689473
862 2 0.0406858 0.107317 0.747604
1283 4 0.136488 0.0850752 0.684954
1105 2 0.08806 0.137802 0.729151
1282 2 0.132527 0.101621 0.703277
1284 4 0.128567 0.118166 0.721601
1106 4 0.107774 0.147691 0.740931
909 4 0.1505 0.148072 0.681504
908 4 0.194687 0.147278 0.704904
907 2 0.172594 0.147675 0.693204
1227 4 0.199102 0.128557 0.711005
1225 2 0.213256 0.108272 0.714661
1226 4 0.227409 0.0879872 0.718317
829 2 0.32701 0.142625 0.69077
830 4 0.306744 0.151094 0.678821
1003 2 0.364527 0.0980678 0.694601
1005 4 0.359678 0.122189 0.690147
831 4 0.347275 0.134156 0.702718
3424 2 0.490768 0.109459 0.666692
3425 4 0.469049 0.0975054 0.663435
43 3 0.426988 0.0904457 0.668893
44 3 0.462404 0.0868717 0.68221
1214 4 0.013874 0.218064 0.739796
1073 4 0.13645 0.213977 0.720574
1072 2 0.125605 0.236449 0.722192
1211 4 0.254749 0.191422 0.662711
1194 4 0.324679 0.17232 0.667058
887 4 0.30593 0.17151 0.674704
888 4 0.259033 0.187525 0.681401
886 2 0.282482 0.179517 0.678053
1025 4 0.465787 0.194818 0.664971
1262 4 0.466678 0.209428 0.718939
1142 4 0.449099 0.174783 0.716691
1024 2 0.462843 0.193187 0.689747
1141 2 0.447703 0.172538 0.741555
1026 4 0.4599 0.191556 0.714523
1261 2 0.460601 0.230793 0.730419
1145 4 0.486635 0.211982 0.721811
1074 4 0.114761 0.25892 0.72381
1209 4 0.138999 0.310166 0.689414
1207 2 0.125664 0.291514 0.699387
1208 4 0.112329 0.272862 0.70936
821 4 0.157805 0.317351 0.692049
820 2 0.178161 0.302911 0.693574
822 4 0.198517 0.288472 0.695098
1063 2 0.233103 0.290949 0.71017
1064 4 0.211388 0.27955 0.705304
1065 4 0.254819 0.302348 0.715036
1263 4 0.454525 0.252157 0.741899
3263 4 0.0278098 0.35475 0.667267
893 4 0.0141229 0.334825 0.735787
892 2 0.0242612 0.3543 0.723824
894 4 0.0343994 0.373775 0.71186
1280 4 0.0493403 0.380991 0.72371
1279 2 0.0476191 0.405685 0.720187
816 4 0.0569631 0.366092 0.734605
814 2 0.0808394 0.360526 0.739516
815 4 0.104716 0.35496 0.744426
1029 4 0.235557 0.404892 0.674533
1028 4 0.211568 0.368048 0.698361
1066 2 0.199248 0.379644 0.737961
1068 4 0.212996 0.376357 0.717336
1027 2 0.223563 0.38647 0.686447
1019 4 0.369115 0.392549 0.717566
1018 2 0.383277 0.408451 0.73067
1981 2 0.0642735 0.45975 0.707976
1281 4 0.0458979 0.430379 0.716664
1983 4 0.0426001 0.447291 0.708435
1982 4 0.085947 0.472209 0.707517
1138 2 0.24823 0.434952 0.670872
1176 4 0.197303 0.490418 0.736006
1139 4 0.25745 0.454752 0.683044
1987 2 0.322423 0.473834 0.729442
1228 2 0.332353 0.454283 0.67576
1989 4 0.31926 0.48232 0.706136
1229 4 0.330263 0.471561 0.693712
1020 4 0.397439 0.424354 0.743775
1205 4 0.38962 0.431235 0.677532
1268 4 0.459073 0.487386 0.662548
1100 4 0.412155 0.497693 0.717047
1099 2 0.433659 0.501073 0.704746
2991 4 0.0245934 0.0331333 0.76214
2989 2 0.0185376 0.0573841 0.761506
2990 4 0.0124819 0.081635 0.760871
1203 4 0.10956 0.08579 0.766945
1202 4 0.132065 0.0429725 0.77963
2049 4 0.144663 0.0327685 0.767496
1201 2 0.120812 0.0643813 0.773288
2047 2 0.139253 0.00957323 0.759888
817 2 0.323125 0.0438207 0.804119
819 4 0.314222 0.0648283 0.814347
818 4 0.332028 0.0228131 0.793892
1085 4 0.304015 0.0808956 0.819296
1050 4 0.351031 0.998535 0.773386
975 4 0.3927 0.0179315 0.804562
974 4 0.345934 0.0117093 0.787978
973 2 0.369317 0.0148204 0.79627
1113 4 0.423615 0.0707068 0.762945
2322 4 0.473536 0.0305022 0.760165
1111 2 0.441455 0.0664013 0.779927
845 4 0.478362 0.0669643 0.801808
844 2 0.501101 0.0742263 0.794369
1112 4 0.459294 0.0620958 0.796909
863 4 0.0241903 0.0983255 0.764104
833 4 0.00864857 0.0953437 0.773403
832 2 0.016051 0.10657 0.794483
834 4 0.0234535 0.117796 0.815562
1125 4 0.0323724 0.123037 0.832581
911 4 0.106509 0.122444 0.815603
34 3 0.114036 0.118737 0.771904
31 1 0.120059 0.127873 0.792365
35 3 0.10285 0.140224 0.800728
32 3 0.124936 0.110797 0.806987
33 3 0.138885 0.141204 0.789854
1257 4 0.214123 0.0892406 0.772959
1255 2 0.234493 0.0931834 0.786913
1256 4 0.254862 0.0971262 0.800866
840 4 0.259656 0.101104 0.820615
1084 2 0.301903 0.102048 0.806133
1086 4 0.299791 0.123201 0.79297
960 4 0.307487 0.0904062 0.836539
48 3 0.449334 0.170427 0.786218
1130 4 0.140204 0.216444 0.799872
1129 2 0.161881 0.224224 0.79014
978 4 0.241883 0.224094 0.75581
1131 4 0.183559 0.232005 0.780407
1277 4 0.200783 0.241232 0.775367
977 4 0.290629 0.233573 0.761701