ITEM: TIMESTEP
770000
ITEM: NUMBER OF ATOMS
4590
ITEM: BOX BOUNDS pp pp pp
-9.9985700000000008e+00 9.9985700000000008e+00
-9.9985700000000008e+00 9.9985700000000008e+00
-9.9985700000000008e+00 9.9985700000000008e+00
ITEM: ATOMS id type xs ys zs
463 2 0.00630007 0.0591107 0.0483196
465 4 0.0266636 0.071159 0.0564032
1667 4 0.0378221 0.0626026 0.069044
701 4 0.0450221 0.0716732 0.0529769
590 4 0.039485 0.0812514 0.0683812
700 2 0.0569506 0.0757362 0.031381
702 4 0.068879 0.0797991 0.00978507
1666 2 0.055824 0.0506 0.0815759
1475 4 0.231907 0.0188786 0.0340032
1474 2 0.222541 0.996688 0.027294
490 2 0.292817 0.0304348 0.0472466
491 4 0.309056 0.0472251 0.0561663
492 4 0.276578 0.0136444 0.038327
2264 4 0.275553 0.00810368 0.0180927
296 4 0.321573 0.0466771 0.0718353
557 4 0.320195 0.0622645 0.0611851
556 2 0.322002 0.0834074 0.0479605
1606 2 0.396796 0.0150688 0.99902
295 2 0.339304 0.0310833 0.0800593
745 2 0.463191 0.0612214 0.0598433
747 4 0.474216 0.056492 0.037906
2975 4 0.467205 0.0719196 0.0276674
2974 2 0.460148 0.0813958 0.0056315
746 4 0.452165 0.0659509 0.0817807
1826 4 0.466065 0.000459021 0.0607572
589 2 0.0317856 0.103692 0.0762759
3232 2 0.0123975 0.141071 0.0134346
3234 4 0.00608239 0.122471 0.0289059
3233 4 0.0187126 0.15967 0.997963
423 4 0.0806337 0.0919094 0.0188182
591 4 0.0240862 0.126132 0.0841706
421 2 0.0973172 0.108901 0.0111933
422 4 0.114001 0.125892 0.00356841
534 4 0.214498 0.0817333 0.00796988
566 4 0.17628 0.100228 0.0844161
565 2 0.17318 0.113597 0.0635155
567 4 0.170079 0.126966 0.042615
558 4 0.32381 0.10455 0.0347359
770 4 0.438919 0.170393 0.0148594
629 4 0.447716 0.155663 0.074354
554 4 0.0707207 0.229732 0.0506918
553 2 0.0849393 0.225978 0.03047
555 4 0.099158 0.222225 0.0102482
355 2 0.211612 0.242843 0.0102528
357 4 0.226016 0.249352 0.0296261
360 4 0.29975 0.178319 0.00840355
461 4 0.323115 0.216547 0.0550116
460 2 0.342891 0.213464 0.0699978
769 2 0.440828 0.171322 0.0397727
827 4 0.440552 0.162681 0.99639
771 4 0.442737 0.172251 0.064686
1056 4 0.0615287 0.324339 0.997966
292 2 0.126985 0.295228 0.0263414
293 4 0.14584 0.309634 0.0342237
507 4 0.15515 0.296332 0.0467346
294 4 0.10813 0.280822 0.0184591
505 2 0.173823 0.312091 0.0520421
506 4 0.192496 0.327849 0.0573497
483 4 0.194764 0.339784 0.0728442
481 2 0.219601 0.342606 0.0734308
666 4 0.309591 0.256684 0.0323803
572 4 0.292906 0.267611 0.0291369
571 2 0.288087 0.26853 0.0536544
664 2 0.32886 0.254753 0.0165645
1071 4 0.368061 0.309114 0.0205914
1069 2 0.38631 0.293654 0.0278818
1070 4 0.40456 0.278195 0.0351721
322 2 0.403918 0.251966 0.07107
956 4 0.36086 0.319903 0.00503447
323 4 0.401738 0.26347 0.0489775
671 4 0.444795 0.313322 0.0724028
314 4 0.991927 0.405007 0.0536354
288 4 0.12319 0.343711 0.0345847
286 2 0.126723 0.356055 0.0131295
252 4 0.319486 0.384203 0.0456292
250 2 0.31114 0.37506 0.023905
251 4 0.302794 0.365918 0.00218082
608 4 0.319604 0.376641 0.0652711
281 4 0.44694 0.329525 0.0605728
282 4 0.469735 0.331675 0.0161152
280 2 0.458338 0.3306 0.038344
1787 4 0.0151308 0.476813 0.0702188
793 2 0.140642 0.493383 0.0120212
241 2 0.173623 0.494943 0.0643459
245 4 0.276893 0.434758 0.0285472
244 2 0.283795 0.45419 0.0144072
246 4 0.290696 0.473622 0.000267104
272 4 0.294666 0.493629 0.00426335
523 2 0.328743 0.446067 0.0685374
524 4 0.324427 0.463079 0.086346
525 4 0.333058 0.429055 0.0507287
562 2 0.465005 0.477749 0.00355071
1668 4 0.0738258 0.0385974 0.0941079
1420 2 0.0349212 0.0212516 0.146535
1422 4 0.0362668 0.0411996 0.16155
450 4 0.145024 0.070816 0.136677
652 2 0.306108 0.05568 0.139215
653 4 0.294178 0.0767832 0.133091
654 4 0.318038 0.0345767 0.145339
485 4 0.369847 0.999434 0.0882117
297 4 0.357035 0.0154896 0.0882833
758 4 0.410257 0.0457905 0.13154
757 2 0.405816 0.0517429 0.155415
1761 4 0.458707 0.0001054 0.165741
477 4 0.0746666 0.170478 0.120362
2760 4 0.019524 0.144784 0.0891721
448 2 0.1588 0.0853039 0.151694
237 4 0.189326 0.162258 0.153258
235 2 0.185508 0.138183 0.158828
236 4 0.18169 0.114108 0.164397
449 4 0.172576 0.0997918 0.16671
630 4 0.41918 0.16004 0.115186
254 4 0.40339 0.171379 0.108806
628 2 0.433448 0.157852 0.0947699
475 2 0.097454 0.177871 0.127521
476 4 0.120241 0.185264 0.13468
737 4 0.173979 0.17143 0.14509
736 2 0.177554 0.194571 0.136322
738 4 0.18113 0.217712 0.127553
354 4 0.293789 0.218181 0.12079
352 2 0.286822 0.236854 0.105691
283 2 0.301318 0.205484 0.156401
284 4 0.295289 0.200954 0.132562
253 2 0.382195 0.181502 0.100233
255 4 0.361 0.191624 0.09166
462 4 0.362667 0.210382 0.084984
324 4 0.406098 0.240462 0.0931625
517 2 0.495691 0.212763 0.0988763
518 4 0.472034 0.208693 0.105871
535 2 0.218232 0.285841 0.131248
536 4 0.228246 0.265459 0.120785
537 4 0.208218 0.306222 0.141712
482 4 0.244438 0.345427 0.0740175
573 4 0.283268 0.26945 0.078172
353 4 0.279856 0.255527 0.0905928
754 2 0.270828 0.289682 0.112527
755 4 0.271753 0.274682 0.0925438
756 4 0.269902 0.304682 0.132509
612 4 0.272052 0.314975 0.150979
623 4 0.371507 0.292165 0.144348
670 2 0.431501 0.326693 0.0888244
528 4 0.482508 0.319731 0.137328
705 4 0.0170169 0.347811 0.158919
620 4 0.0287163 0.362565 0.153297
621 4 0.0268209 0.370978 0.104039
619 2 0.0277686 0.366772 0.128668
455 4 0.0933751 0.344783 0.135644
454 2 0.0917575 0.360311 0.116113
456 4 0.09014 0.375839 0.0965822
627 4 0.255295 0.396622 0.121954
625 2 0.251589 0.385455 0.144016
626 4 0.247883 0.374287 0.166078
607 2 0.331769 0.374813 0.0870392
610 2 0.28499 0.336096 0.154397
387 4 0.317717 0.357381 0.16076
611 4 0.297929 0.357217 0.157815
385 2 0.333809 0.359527 0.141744
672 4 0.418207 0.340064 0.105246
741 4 0.4018 0.340499 0.0963765
609 4 0.343934 0.372985 0.108807
740 4 0.355731 0.357791 0.105282
386 4 0.349902 0.361673 0.122728
739 2 0.378765 0.349145 0.100829
15 3 0.421219 0.378785 0.115879
13 3 0.406573 0.366219 0.148209
11 1 0.423739 0.363745 0.132794
526 2 0.471813 0.341152 0.144534
12 3 0.42297 0.342436 0.124163
14 3 0.444241 0.36689 0.143195
495 4 0.461005 0.377809 0.145336
493 2 0.46397 0.396742 0.129276
527 4 0.461118 0.362573 0.151741
597 4 0.473537 0.377987 0.15922
645 4 0.455799 0.374309 0.157696
595 2 0.497132 0.381806 0.16656
1786 2 0.0250273 0.492227 0.0872378
1788 4 0.0349238 0.507641 0.104257
1438 2 0.211512 0.497202 0.107836
243 4 0.186709 0.483339 0.082215
1440 4 0.191534 0.48344 0.101779
1430 4 0.18694 0.488437 0.170897
637 2 0.263877 0.493339 0.131609
638 4 0.275515 0.47654 0.146015
767 4 0.282878 0.465188 0.159827
660 4 0.404901 0.453259 0.168329
494 4 0.466936 0.415676 0.113217
226 2 0.487805 0.485316 0.102747
227 4 0.499068 0.466657 0.0904941
19 3 0.0457341 0.0435473 0.178338
2480 4 0.0347572 0.0564177 0.169314
17 3 0.0737463 0.0529032 0.201586
16 1 0.0625194 0.0352413 0.192038
18 3 0.053282 0.0222346 0.208887
2479 2 0.0178214 0.0741092 0.17435
20 3 0.0771343 0.0228191 0.17976
673 2 0.124322 0.0528716 0.245477
674 4 0.136193 0.0743072 0.250454
675 4 0.112451 0.0314361 0.2405
1505 4 0.230091 0.0541729 0.19709
1504 2 0.242199 0.0354478 0.18578
689 4 0.231455 0.0639771 0.213316
688 2 0.216085 0.0646172 0.233027
692 4 0.222881 0.0714981 0.195847
690 4 0.200714 0.0652572 0.252738
1506 4 0.254308 0.0167226 0.17447
21 1 0.402232 0.0374495 0.214226
24 3 0.38951 0.0183424 0.210838
25 3 0.397962 0.0526405 0.197805
759 4 0.401374 0.0576953 0.179291
22 3 0.396682 0.0465612 0.234606
1496 4 0.375054 0.0176932 0.22497
312 4 0.397428 0.070541 0.187961
1759 2 0.479727 0.0111455 0.173579
23 3 0.424793 0.0320297 0.214326
742 2 0.454671 0.0418079 0.230073
744 4 0.442323 0.0399419 0.208412
743 4 0.467018 0.043674 0.251735
2481 4 0.000885648 0.0918008 0.179387
511 2 0.0163981 0.161688 0.224046
577 2 0.0881993 0.137233 0.237204
578 4 0.0918891 0.145314 0.213832
546 4 0.151287 0.125498 0.242011
721 2 0.164495 0.11532 0.202556
722 4 0.150931 0.121533 0.222621
693 4 0.189338 0.0978264 0.169725
691 2 0.20611 0.0846622 0.182786
723 4 0.17806 0.109108 0.182492
582 4 0.326738 0.0878514 0.1648
580 2 0.307487 0.0925293 0.180055
581 4 0.288236 0.0972072 0.19531
30 3 0.290429 0.0952004 0.216346
26 1 0.269986 0.0999368 0.225193
28 3 0.254103 0.0853049 0.216706
29 3 0.264074 0.121812 0.220201
27 3 0.270875 0.0975055 0.248051
310 2 0.396567 0.0939416 0.196728
311 4 0.395707 0.117342 0.205494
333 4 0.417965 0.126624 0.255915
513 4 0.0394793 0.16447 0.233249
337 2 0.0816572 0.236657 0.176396
339 4 0.058045 0.24331 0.18123
363 4 0.121816 0.24196 0.170233
338 4 0.105269 0.230003 0.171561
361 2 0.139429 0.226902 0.179625
362 4 0.157042 0.211844 0.189018
372 4 0.170613 0.223854 0.196774
370 2 0.186716 0.241129 0.204987
285 4 0.307348 0.210014 0.18024
703 2 0.0272368 0.326266 0.166437
704 4 0.0374567 0.30472 0.173956
748 2 0.0679018 0.276949 0.236074
749 4 0.0477418 0.291702 0.237115
371 4 0.202818 0.258405 0.213199
277 2 0.238113 0.278137 0.193159
279 4 0.218983 0.266303 0.204076
344 4 0.2791 0.312681 0.222144
343 2 0.289037 0.30188 0.242387
278 4 0.257243 0.289971 0.182241
763 2 0.386915 0.253111 0.217085
765 4 0.395129 0.249339 0.193772
622 2 0.379847 0.277812 0.163046
764 4 0.378702 0.256884 0.240398
309 4 0.35987 0.262717 0.245647
624 4 0.388187 0.263459 0.181744
648 4 0.0197543 0.362777 0.170851
647 4 0.0306158 0.401161 0.201008
646 2 0.0251851 0.381969 0.185929
603 4 0.0361311 0.411067 0.257984
300 4 0.123223 0.342227 0.229093
290 4 0.216893 0.386616 0.219622
289 2 0.22086 0.40772 0.206814
302 4 0.305496 0.362642 0.175027
303 4 0.315017 0.382873 0.219757
301 2 0.310257 0.372758 0.197392
729 4 0.333838 0.378941 0.226026
445 2 0.418814 0.370063 0.227568
446 4 0.408851 0.348759 0.236059
727 2 0.343555 0.389406 0.24655
447 4 0.428776 0.391367 0.219078
643 2 0.444517 0.382095 0.178608
644 4 0.433235 0.38988 0.199519
262 2 0.0723567 0.487872 0.239706
263 4 0.0647954 0.46454 0.234844
417 4 0.175026 0.472693 0.173582
415 2 0.193233 0.458137 0.182628
416 4 0.211439 0.443581 0.191674
291 4 0.224827 0.428825 0.194005
768 4 0.300517 0.461833 0.206499
766 2 0.291698 0.46351 0.183163
658 2 0.383711 0.455239 0.181453
659 4 0.362521 0.457219 0.194576
530 4 0.0148787 0.0501968 0.27727
1404 4 0.0507737 0.000725204 0.265297
232 2 0.0156043 0.0305733 0.328841
233 4 0.0369617 0.0259421 0.316693
1402 2 0.0499495 0.0171261 0.284152
1403 4 0.0491253 0.0335271 0.303007
316 2 0.0669203 0.0547408 0.32634
317 4 0.0530044 0.0343848 0.322198
529 2 0.000510242 0.0620532 0.260592
318 4 0.0808362 0.0750968 0.330483
731 4 0.0952823 0.0656498 0.340727
730 2 0.116252 0.0762092 0.332127
1701 4 0.225413 0.0201474 0.32617
1699 2 0.247516 0.0113238 0.318503
1700 4 0.269619 0.00250027 0.310836
248 4 0.276029 0.0787285 0.320478
699 4 0.383388 0.0020948 0.317208
697 2 0.375361 0.024805 0.323916
698 4 0.367335 0.0475152 0.330624
1749 4 0.456615 0.0144309 0.302428
480 4 0.457938 0.0172091 0.322245
351 4 0.464427 0.0766127 0.274435
397 2 0.065632 0.115481 0.330036
399 4 0.0537584 0.136931 0.325127
579 4 0.0845096 0.129152 0.260576
732 4 0.137221 0.0867686 0.323526
544 2 0.146282 0.141626 0.260451
598 2 0.16158 0.111389 0.326113
600 4 0.153601 0.0893604 0.334847
545 4 0.141277 0.157754 0.278891
599 4 0.169558 0.133417 0.31738
405 4 0.255039 0.165868 0.283494
403 2 0.251875 0.153865 0.305198
404 4 0.248712 0.141861 0.326903
247 2 0.266615 0.101459 0.324939
707 4 0.368367 0.155176 0.294925
632 4 0.420111 0.115173 0.31652
631 2 0.400502 0.128558 0.308676
633 4 0.380894 0.141943 0.300831
349 2 0.456534 0.0967443 0.286989
350 4 0.448641 0.116876 0.299542
331 2 0.429303 0.146896 0.265171
452 4 0.440778 0.113352 0.317438
395 4 0.0425342 0.216391 0.238063
394 2 0.0267944 0.232536 0.248869
392 4 0.132214 0.175716 0.278078
391 2 0.125054 0.199385 0.281778
393 4 0.117893 0.223054 0.285478
706 2 0.35661 0.17722 0.295931
708 4 0.344854 0.199264 0.296938
521 4 0.491453 0.186942 0.245558
332 4 0.440641 0.167168 0.274428
762 4 0.459692 0.172908 0.273371
760 2 0.460413 0.185079 0.295201
761 4 0.461134 0.19725 0.31703
419 4 0.446534 0.203345 0.331614
2493 4 0.0199543 0.30833 0.306274
750 4 0.0880619 0.262195 0.235034
400 2 0.231639 0.269326 0.313018
401 4 0.228328 0.271199 0.288305
307 2 0.337779 0.272432 0.252189
345 4 0.298974 0.291079 0.26263
308 4 0.315688 0.282147 0.258731
496 2 0.304636 0.284819 0.301859
497 4 0.309139 0.28375 0.277288
498 4 0.300133 0.285888 0.326431
615 4 0.407518 0.309069 0.307824
613 2 0.383146 0.311901 0.31264
543 4 0.410572 0.315393 0.327632
614 4 0.358775 0.314733 0.317456
541 2 0.434381 0.310261 0.333288
542 4 0.458189 0.305129 0.338945
364 2 0.0318527 0.366345 0.325334
298 2 0.128205 0.35072 0.252076
735 4 0.154545 0.329554 0.328584
299 4 0.133187 0.359213 0.27506
734 4 0.127917 0.353302 0.293546
733 2 0.141231 0.341428 0.311065
435 4 0.312835 0.405906 0.324063
433 2 0.326308 0.405225 0.303011
434 4 0.339781 0.404545 0.281959
728 4 0.353271 0.399871 0.267075
2924 4 0.500475 0.35242 0.332953
602 4 0.0665086 0.449681 0.24866
601 2 0.0513199 0.430374 0.253322
549 4 0.0372039 0.460187 0.334166
547 2 0.0616977 0.455667 0.336358
777 4 0.11672 0.437756 0.280072
775 2 0.108774 0.442726 0.303253
776 4 0.100829 0.447695 0.326434
414 4 0.135653 0.442769 0.275802
412 2 0.158195 0.450861 0.268622
413 4 0.180737 0.458953 0.261442
436 2 0.275604 0.473691 0.306166
437 4 0.252704 0.470648 0.296598
438 4 0.298503 0.476734 0.315735
714 4 0.429412 0.469725 0.259251
713 4 0.423176 0.442697 0.300861
712 2 0.426294 0.456211 0.280056
1782 4 0.135171 0.00844146 0.372558
1780 2 0.130607 0.0257384 0.390026
1781 4 0.126042 0.0430354 0.407495
604 2 0.186213 0.0500158 0.400827
605 4 0.196784 0.0344019 0.384406
439 2 0.269224 0.00718248 0.411299
257 4 0.367975 0.0537069 0.349111
256 2 0.381716 0.0677917 0.364537
258 4 0.395458 0.0818766 0.379963
426 4 0.409539 0.0872358 0.392693
478 2 0.465216 0.0382792 0.333571
479 4 0.472494 0.0593493 0.344896
398 4 0.0775056 0.0940308 0.334945
457 2 0.0211794 0.143107 0.400535
458 4 0.0257212 0.119471 0.407309
685 2 0.170675 0.142706 0.396367
686 4 0.194443 0.139207 0.389441
249 4 0.257201 0.124189 0.329399
683 4 0.262514 0.139521 0.340231
682 2 0.273083 0.149298 0.360674
684 4 0.283652 0.159074 0.381117
320 4 0.276594 0.148929 0.39638
319 2 0.285731 0.130492 0.410584
424 2 0.400609 0.093724 0.415128
451 2 0.445181 0.124626 0.339317
453 4 0.449585 0.135901 0.361195
514 2 0.430871 0.149294 0.395558
515 4 0.444914 0.134744 0.380851
459 4 0.0166377 0.166743 0.393761
388 2 0.0508064 0.212322 0.394395
390 4 0.0354809 0.210365 0.374736
2653 2 0.00942372 0.23852 0.351646
2654 4 0.0238617 0.223714 0.3657
389 4 0.0661318 0.214278 0.414054
275 4 0.207515 0.219037 0.370984
274 2 0.219801 0.239181 0.36271
474 4 0.28442 0.194419 0.373753
472 2 0.303264 0.210258 0.378138
473 4 0.322108 0.226096 0.382523
489 4 0.327313 0.234797 0.399943
420 4 0.398802 0.216541 0.338563
717 4 0.394409 0.228139 0.354904
516 4 0.416829 0.163843 0.410264
418 2 0.422668 0.209943 0.335089
268 2 0.45514 0.233288 0.39443
270 4 0.467951 0.231367 0.415816
269 4 0.442329 0.235209 0.373044
347 4 0.0635588 0.34227 0.416653
677 4 0.17032 0.336 0.338249
402 4 0.234949 0.267453 0.33773
676 2 0.171285 0.312897 0.347762
678 4 0.172251 0.289793 0.357275
508 2 0.227324 0.301253 0.360414
510 4 0.235763 0.278119 0.356076
375 4 0.174682 0.281181 0.374264
276 4 0.232086 0.259325 0.354435
373 2 0.187821 0.278184 0.395325
509 4 0.218885 0.324386 0.364751
374 4 0.20096 0.275186 0.416386
378 4 0.249556 0.266798 0.3498
377 4 0.297988 0.260679 0.360646
376 2 0.273772 0.263738 0.355223
487 2 0.330765 0.258336 0.392252
715 2 0.397913 0.251011 0.36438
716 4 0.401416 0.273882 0.373856
488 4 0.334218 0.281876 0.384561
365 4 0.0538291 0.368974 0.336966
2927 4 0.0267194 0.375854 0.374678
616 2 0.0555175 0.356363 0.378139
617 4 0.0525229 0.356266 0.353316
618 4 0.0585122 0.356459 0.402963
408 4 0.103259 0.393653 0.361731
504 4 0.252495 0.39317 0.390824
753 4 0.422964 0.403838 0.334279
560 4 0.488075 0.395972 0.417827
2923 2 0.48615 0.369242 0.344657
561 4 0.479208 0.395391 0.368616
752 4 0.459936 0.397593 0.367367
559 2 0.483641 0.395682 0.393221
751 2 0.44145 0.400715 0.350823
2925 4 0.471826 0.386065 0.356361
2463 4 0.0175548 0.453997 0.337262
548 4 0.0861916 0.451148 0.338549
681 4 0.0524109 0.44605 0.39655
679 2 0.030547 0.448427 0.408445
383 4 0.0640009 0.462107 0.400869
407 4 0.1007 0.440561 0.344591
500 4 0.103169 0.458797 0.343257
406 2 0.10198 0.417107 0.353161
499 2 0.109179 0.482811 0.346776
568 2 0.14527 0.475607 0.419777
382 2 0.0833708 0.470556 0.414234
570 4 0.168442 0.470329 0.412006
1557 4 0.220481 0.479459 0.428775
1555 2 0.233557 0.483459 0.407841
1556 4 0.246633 0.487458 0.386908
5 3 0.291306 0.473958 0.371541
1 1 0.307403 0.47242 0.355505
4 3 0.315326 0.450645 0.354302
3 3 0.298748 0.478847 0.334957
669 4 0.333895 0.478797 0.422771
2 3 0.324854 0.486394 0.360922
594 4 0.442043 0.455168 0.344463
593 4 0.43625 0.503601 0.355483
592 2 0.439146 0.479385 0.349973
2238 4 0.00883513 0.0235538 0.442243
718 2 0.0727912 0.0495954 0.475133
720 4 0.0498828 0.0411124 0.469801
2237 4 0.0337421 0.0506301 0.476113
2236 2 0.0212886 0.037092 0.459178
368 4 0.13313 0.0506363 0.424532
719 4 0.0956995 0.0580783 0.480464
367 2 0.119746 0.0500326 0.445643
369 4 0.106361 0.0494289 0.466754
606 4 0.175643 0.0656298 0.417248
441 4 0.274678 0.029338 0.421524
431 4 0.335266 0.0785113 0.502626
1035 4 0.0744941 0.155294 0.484859
687 4 0.146906 0.146206 0.403294
321 4 0.294868 0.112054 0.424788
466 2 0.325503 0.167731 0.459397
726 4 0.342287 0.09363 0.493177
724 2 0.338324 0.116659 0.48428
725 4 0.334361 0.139687 0.475383
468 4 0.341704 0.158709 0.476169
425 4 0.39168 0.100212 0.437564
576 4 0.388263 0.166251 0.458634
574 2 0.400681 0.173709 0.438254
642 4 0.497949 0.0971052 0.503523
471 4 0.991592 0.20971 0.47002
469 2 0.0164896 0.209157 0.467789
470 4 0.0413873 0.208604 0.465558
260 4 0.0924738 0.189015 0.441862
261 4 0.0781947 0.174138 0.48742
259 2 0.0853343 0.181577 0.464641
467 4 0.309302 0.176754 0.442625
411 4 0.290082 0.204195 0.437386
409 2 0.28844 0.205244 0.462313
410 4 0.286799 0.206294 0.487241
575 4 0.413098 0.181167 0.417873
872 4 0.344492 0.247715 0.480944
871 2 0.367597 0.241874 0.488508
306 4 0.466344 0.22523 0.434616
305 4 0.490225 0.206874 0.474535
304 2 0.478285 0.216052 0.454575
348 4 0.0434633 0.297022 0.423692
346 2 0.0535111 0.319646 0.420172
695 4 0.110143 0.261605 0.479666
694 2 0.121821 0.283676 0.478375
1260 4 0.152905 0.310982 0.479885
696 4 0.133498 0.305748 0.477084
649 2 0.242817 0.305096 0.482463
650 4 0.251042 0.307821 0.459008
267 4 0.330101 0.284338 0.473521
266 4 0.323554 0.304192 0.428093
265 2 0.326827 0.294265 0.450807
2456 4 0.496097 0.2867 0.481286
583 2 0.461682 0.29963 0.466053
584 4 0.476087 0.283165 0.478162
585 4 0.447278 0.316094 0.453944
326 4 0.0542773 0.357947 0.422004
325 2 0.0622183 0.381273 0.426251
327 4 0.0701593 0.404599 0.430497
10 3 0.140658 0.376658 0.487371
709 2 0.196586 0.379356 0.501317
710 4 0.219699 0.378712 0.491802
803 4 0.236496 0.377915 0.479983
503 4 0.248068 0.390071 0.440538
502 2 0.250281 0.39162 0.415681
802 2 0.254372 0.387922 0.494318
336 4 0.345738 0.39611 0.46213
334 2 0.36686 0.383815 0.467409
240 4 0.400298 0.370313 0.488343
335 4 0.387982 0.371519 0.472687
2507 4 0.475566 0.395849 0.432844
2506 2 0.490514 0.386604 0.450628
680 4 0.00868305 0.450804 0.420341
1381 2 0.997452 0.493331 0.431741
569 4 0.122098 0.480885 0.427547
539 4 0.11385 0.472734 0.443191
540 4 0.0921568 0.488077 0.485555
538 2 0.103003 0.480405 0.464373
384 4 0.102741 0.479004 0.427599
2244 4 0.099039 0.472672 0.496187
636 4 0.200695 0.482225 0.42534
774 4 0.201189 0.464565 0.490483
635 4 0.199191 0.478607 0.475194
634 2 0.199943 0.480416 0.450267
772 2 0.199212 0.45394 0.51303
668 4 0.291127 0.453273 0.41828
667 2 0.312511 0.466035 0.420526
881 4 0.357731 0.445238 0.482477
587 4 0.408271 0.438401 0.457109
586 2 0.385374 0.446915 0.451777
588 4 0.362477 0.455429 0.446446
880 2 0.345786 0.464085 0.49376
661 2 0.443717 0.435336 0.506837
662 4 0.456702 0.4567 0.506503
663 4 0.430731 0.413971 0.507172
1126 2 0.0500316 0.0465726 0.536678
1127 4 0.0369347 0.0280985 0.526078
1128 4 0.0631285 0.0650467 0.547278
1058 4 0.146854 0.0259776 0.545258
1057 2 0.138499 0.0487538 0.551309
1059 4 0.130143 0.0715299 0.55736
1155 4 0.130247 0.0893953 0.551037
938 4 0.116404 0.0821878 0.564686
937 2 0.0929894 0.0832406 0.555978
2430 4 0.202164 0.0257142 0.542152
2428 2 0.199008 0.00598781 0.527116
341 4 0.210529 0.0341565 0.525235
340 2 0.218303 0.0577378 0.52229
342 4 0.226077 0.0813191 0.519346
961 2 0.284773 0.0655075 0.566312
430 2 0.315131 0.078034 0.517443
432 4 0.294996 0.0775567 0.532259
2196 4 0.347771 0.0210932 0.545125
1217 4 0.401389 0.0667065 0.552661
841 2 0.369723 0.079824 0.524163
842 4 0.387345 0.0707814 0.539423
843 4 0.3521 0.0888667 0.508904
1216 2 0.421339 0.0793844 0.544508
1218 4 0.441288 0.0920623 0.536355
939 4 0.069575 0.0842934 0.547269
1153 2 0.150111 0.103086 0.544467
1033 2 0.0841062 0.137404 0.499445
1034 4 0.0937184 0.119514 0.51403
1154 4 0.169975 0.116777 0.537897
1151 4 0.181667 0.123233 0.523386
1031 4 0.201257 0.121025 0.557299
1150 2 0.203634 0.111613 0.520624
1030 2 0.203322 0.125114 0.58188
1182 4 0.240458 0.0919565 0.509454
1152 4 0.225601 0.0999931 0.517862
963 4 0.292553 0.0842356 0.551686
1181 4 0.282154 0.0908007 0.537037
1180 2 0.261306 0.0913786 0.523246
900 4 0.325003 0.145804 0.5531
898 2 0.34922 0.151221 0.55004
899 4 0.373437 0.156638 0.54698
641 4 0.450384 0.0913493 0.517849
640 2 0.474166 0.0942272 0.510686
3159 4 0.495678 0.159849 0.529665
856 2 0.250364 0.194549 0.542056
857 4 0.241951 0.214004 0.528793
858 4 0.258776 0.175094 0.555319
797 4 0.229924 0.259941 0.592606
947 4 0.178481 0.246627 0.594156
873 4 0.390703 0.236034 0.496071
982 2 0.0735959 0.324439 0.537004
983 4 0.0574607 0.314858 0.520479
984 4 0.089731 0.334019 0.553528
1136 4 0.0930502 0.329212 0.573726
1258 2 0.163583 0.312186 0.502462
1259 4 0.174262 0.31339 0.525038
651 4 0.234592 0.302372 0.505917
811 2 0.29524 0.315675 0.525025
1239 4 0.322052 0.338006 0.574128
812 4 0.275935 0.315794 0.509135
813 4 0.314545 0.315556 0.540914
904 2 0.456599 0.251394 0.558903
906 4 0.434537 0.253266 0.570521
905 4 0.47866 0.249522 0.547285
954 4 0.431704 0.270153 0.58089
3065 4 0.496781 0.256634 0.551747
9 3 0.132121 0.348285 0.510604
1135 2 0.100772 0.352491 0.578589
895 2 0.144969 0.397309 0.574812
6 1 0.137684 0.370766 0.509168
8 3 0.157082 0.37491 0.521207
1137 4 0.108494 0.375769 0.583453
897 4 0.122545 0.387993 0.580775
7 3 0.120564 0.38325 0.518123
896 4 0.167393 0.406624 0.568849
1189 2 0.195297 0.379676 0.556816
1190 4 0.204212 0.361621 0.541993
1191 4 0.186382 0.397731 0.571639
711 4 0.173473 0.380001 0.510833
804 4 0.272248 0.39793 0.508652
930 4 0.338192 0.385752 0.568323
928 2 0.344738 0.409711 0.571197
239 4 0.413261 0.409246 0.516925
238 2 0.40678 0.38978 0.502634
925 2 0.461887 0.396538 0.554073
926 4 0.469829 0.378919 0.538209
3309 4 0.472848 0.369343 0.520316
3307 2 0.49119 0.374616 0.504162
927 4 0.453944 0.414156 0.569938
2243 4 0.111551 0.477347 0.544377
2242 2 0.105295 0.47501 0.520282
773 4 0.197236 0.443316 0.535578
1173 4 0.260232 0.456447 0.564989
1171 2 0.285028 0.458898 0.562902
1172 4 0.309823 0.46135 0.560816
882 4 0.333842 0.482931 0.505043
891 4 0.32201 0.452691 0.574887
1187 4 0.264378 0.451339 0.583672
1454 4 0.319119 0.491324 0.516978
929 4 0.351285 0.433671 0.574071
1002 4 0.393504 0.438088 0.555829
1910 4 0.39631 0.478731 0.545584
1001 4 0.436833 0.423708 0.576238
1000 2 0.415169 0.430898 0.566034
1332 4 0.45955 0.475825 0.507251
943 2 0.0726448 0.0412397 0.595559
945 4 0.0685406 0.0166132 0.596927
944 4 0.076749 0.0658661 0.594191
1083 4 0.0673688 0.084636 0.593549
1282 2 0.153652 0.0842629 0.623919
1284 4 0.161132 0.0665323 0.607955
950 4 0.286648 0.0329266 0.589807
949 2 0.2668 0.0177501 0.588858
962 4 0.276993 0.0467795 0.580937
1091 4 0.398921 0.996822 0.657334
1090 2 0.39049 0.0186011 0.666265
2283 4 0.416432 0.0032942 0.660153
808 2 0.470055 0.0738068 0.619138
810 4 0.482231 0.0560163 0.606472
1082 4 0.0504238 0.0989063 0.638381
1081 2 0.0588963 0.0917712 0.615965
1076 4 0.0334932 0.110209 0.64599
1283 4 0.146173 0.101994 0.639884
909 4 0.140926 0.120218 0.646376
1032 4 0.205387 0.129204 0.60646
809 4 0.457878 0.0915972 0.631803
45 3 0.457618 0.0841656 0.650887
877 2 0.0610229 0.198082 0.595013
878 4 0.0392569 0.207755 0.602619
1199 4 0.0261327 0.204003 0.617541
1198 2 0.00448937 0.210607 0.606905
1209 4 0.0723609 0.245436 0.657934
879 4 0.0827888 0.188408 0.587408
1271 4 0.144558 0.191007 0.588993
1270 2 0.121215 0.182431 0.586398
1272 4 0.0978715 0.173855 0.583803
1221 4 0.155623 0.179072 0.602295
1211 4 0.237388 0.181986 0.650106
1210 2 0.22348 0.19293 0.632444
1212 4 0.209572 0.203874 0.614781
1219 2 0.177006 0.191954 0.600874
1220 4 0.198388 0.204835 0.599454
796 2 0.223577 0.235976 0.595858
798 4 0.21723 0.212011 0.599111
791 4 0.327435 0.224513 0.582978
1025 4 0.457952 0.183164 0.587298
1026 4 0.461583 0.231326 0.600258
1024 2 0.459768 0.207245 0.593778
1245 4 0.0564405 0.255432 0.650635
1243 2 0.037117 0.267166 0.661317
1244 4 0.0177936 0.278899 0.671999
946 2 0.158236 0.260962 0.59102
948 4 0.137992 0.275297 0.587884
790 2 0.332211 0.248846 0.586181
1237 2 0.326919 0.315128 0.582965
1238 4 0.331785 0.29225 0.591802
792 4 0.336987 0.273179 0.589384
952 2 0.410606 0.259692 0.589293
953 4 0.389508 0.249231 0.597696
1041 4 0.105329 0.395979 0.583565
1039 2 0.0992698 0.413473 0.60037
1205 4 0.415008 0.374291 0.680088
1160 4 0.155939 0.485416 0.597285
1161 4 0.119837 0.451006 0.593637
1040 4 0.0932107 0.430967 0.617176
1159 2 0.137888 0.468211 0.595461
991 2 0.101609 0.446521 0.646834
993 4 0.0945071 0.425044 0.636182
1186 2 0.252709 0.448125 0.605551
1188 4 0.241041 0.444911 0.62743
889 2 0.333624 0.464005 0.59392
1140 4 0.291415 0.469391 0.676409
890 4 0.345238 0.475319 0.612954
1269 4 0.394401 0.468602 0.654295
1952 4 0.35555 0.491456 0.609469
1267 2 0.417029 0.474721 0.662994
4338 4 0.0247515 0.0159914 0.695151
2991 4 0.0121848 0.0853249 0.70513
2400 4 0.300047 0.00012915 0.719917
1092 4 0.382059 0.0403801 0.675197
1004 4 0.381191 0.0578637 0.665005
1003 2 0.375742 0.0699614 0.686197
43 3 0.447815 0.0625527 0.680118
1163 4 0.490125 0.0690848 0.68379
1162 2 0.497261 0.0509844 0.699494
42 3 0.478134 0.0846812 0.68206
41 1 0.456809 0.0829291 0.673613
862 2 0.0207114 0.113134 0.733791
864 4 0.0160048 0.102006 0.7119
1075 2 0.0257914 0.104084 0.668975
1077 4 0.0180896 0.0979579 0.691961
907 2 0.156126 0.121056 0.666212
34 3 0.116311 0.166787 0.741906
908 4 0.171326 0.121895 0.686047
1227 4 0.186304 0.107609 0.691076
1225 2 0.192663 0.105697 0.715182
1226 4 0.199022 0.103784 0.739287
831 4 0.333439 0.151736 0.70182
1005 4 0.370293 0.082059 0.70739
44 3 0.443953 0.100313 0.682035
3426 4 0.497567 0.0863052 0.683608
852 4 0.0444867 0.239835 0.711109
851 4 0.0651512 0.200344 0.733785
850 2 0.054819 0.22009 0.722447
1207 2 0.088871 0.248915 0.676387
1208 4 0.105381 0.252393 0.694839
1107 4 0.073378 0.207489 0.749977
1105 2 0.0960942 0.214389 0.757821
888 4 0.241943 0.173895 0.667658
1277 4 0.210024 0.224818 0.757016
829 2 0.311064 0.16285 0.702818
830 4 0.288688 0.173963 0.703815
886 2 0.256603 0.176122 0.68779
887 4 0.271263 0.178348 0.707922
976 2 0.278231 0.204064 0.736921
978 4 0.282681 0.186478 0.719714
1193 4 0.376607 0.200374 0.710995
1142 4 0.388656 0.194826 0.726803
1192 2 0.391891 0.217072 0.700376
1194 4 0.407175 0.23377 0.689756
1141 2 0.388542 0.185464 0.749988
1263 4 0.455302 0.239802 0.746482
3121 2 0.495222 0.244943 0.675923
1179 4 0.0307276 0.271116 0.73611
1177 2 0.00891339 0.259685 0.740429
821 4 0.19204 0.261755 0.742047
820 2 0.190824 0.280357 0.725383
822 4 0.189608 0.298959 0.70872
1063 2 0.257835 0.295769 0.740017
1064 4 0.270379 0.312141 0.725883
1020 4 0.371761 0.322335 0.759932
3123 4 0.470331 0.245581 0.678209
893 4 0.0383355 0.383813 0.697995
892 2 0.0513475 0.362969 0.702623
894 4 0.0643595 0.342126 0.707252
1280 4 0.0430392 0.39828 0.682536
1279 2 0.0345304 0.417033 0.696718
941 4 0.146159 0.381719 0.731676
1028 4 0.206905 0.391 0.70653
1027 2 0.231155 0.385738 0.709596
1066 2 0.180519 0.392719 0.734099
1068 4 0.201158 0.400634 0.722414
1029 4 0.255406 0.380475 0.712662
807 4 0.327773 0.413813 0.669503
1204 2 0.409678 0.396003 0.691285
806 4 0.355807 0.381799 0.69577
805 2 0.34179 0.397806 0.682637
1281 4 0.0260215 0.435785 0.7109
1983 4 0.0241483 0.454769 0.704303
1981 2 0.0295258 0.472094 0.72151
1982 4 0.0349034 0.48942 0.738717
992 4 0.108711 0.467998 0.657487
1175 4 0.207894 0.484338 0.725349
1139 4 0.257826 0.480475 0.711759
1138 2 0.274621 0.474933 0.694084
1987 2 0.342381 0.489293 0.732241
1206 4 0.404348 0.417715 0.702481
1230 4 0.403055 0.432524 0.714631
1228 2 0.39111 0.454486 0.71502
1229 4 0.379166 0.476449 0.715408
1989 4 0.361283 0.485874 0.716235
3330 4 0.483656 0.442713 0.720159
2168 4 0.446462 0.492296 0.685505
1268 4 0.439658 0.48084 0.671694
1100 4 0.451058 0.474246 0.686601
1099 2 0.465576 0.455122 0.693577
1101 4 0.480095 0.435998 0.700553
1294 2 0.037989 0.0305481 0.793726
1295 4 0.0493458 0.0321944 0.771511
1296 4 0.0266321 0.0289017 0.815941
2049 4 0.124369 0.0131843 0.760187
1203 4 0.113878 0.0388836 0.813773
911 4 0.106081 0.0537726 0.82288
1202 4 0.116536 0.0312243 0.764427
1196 4 0.105201 0.0341482 0.829979
1201 2 0.115207 0.0350539 0.7891
1147 2 0.218412 0.0854404 0.760813
1149 4 0.236577 0.0683936 0.76296
1257 4 0.323722 0.0549871 0.79499
1255 2 0.305534 0.0715028 0.790341
974 4 0.361816 0.0113435 0.793258
1113 4 0.409441 0.0499085 0.797032
973 2 0.377358 0.0304723 0.789049
975 4 0.3929 0.0496011 0.784841
845 4 0.504061 0.0638271 0.823191
1111 2 0.42762 0.0400375 0.811077
844 2 0.482939 0.0508799 0.819816
846 4 0.461817 0.0379328 0.81644
1112 4 0.445798 0.0301665 0.825123
834 4 0.00752062 0.137519 0.820599
863 4 0.0254179 0.124262 0.755681
832 2 0.0161444 0.132016 0.797784
833 4 0.0247682 0.126513 0.774969
32 3 0.132362 0.149538 0.771189
1148 4 0.200247 0.102487 0.758667
839 4 0.25787 0.169072 0.800635
1256 4 0.287346 0.0880185 0.785693
838 2 0.277894 0.162928 0.81429
840 4 0.297919 0.156785 0.827945