ITEM: TIMESTEP
2220000
ITEM: NUMBER OF ATOMS
4590
ITEM: BOX BOUNDS pp pp pp
-9.9985700000000008e+00 9.9985700000000008e+00
-9.9985700000000008e+00 9.9985700000000008e+00
-9.9985700000000008e+00 9.9985700000000008e+00
ITEM: ATOMS id type xs ys zs
463 2 0.0510486 0.0333025 0.0232585
465 4 0.0447793 0.0466496 0.0434508
1667 4 0.0356865 0.0448678 0.061422
701 4 0.0494587 0.0577224 0.0585639
590 4 0.0324044 0.0576435 0.0475466
589 2 0.0152871 0.0727676 0.0373759
700 2 0.0664391 0.075985 0.0567409
994 2 0.126089 0.0334041 0.0153268
995 4 0.145989 0.0484075 0.0173444
567 4 0.156078 0.0606569 0.0280729
533 4 0.146411 0.0659789 0.0107842
2184 4 0.0919492 0.00817027 0.00416529
996 4 0.10619 0.0184006 0.0133092
565 2 0.17244 0.0606346 0.0469797
566 4 0.188802 0.0606123 0.0658865
1476 4 0.259786 0.0359382 0.0765867
490 2 0.352805 0.0200963 0.018409
491 4 0.364024 0.0338881 0.0359905
557 4 0.365682 0.0513178 0.0448605
296 4 0.369291 0.034206 0.0535463
295 2 0.370842 0.0143002 0.0685974
556 2 0.388409 0.0617179 0.0455703
558 4 0.411136 0.0721179 0.0462802
492 4 0.341587 0.00630457 0.000827512
1607 4 0.403207 0.00705231 0.00759921
746 4 0.422448 0.0633445 0.0314954
745 2 0.44407 0.0549018 0.0221998
747 4 0.465691 0.0464591 0.0129042
2975 4 0.475812 0.0579269 0.000401682
423 4 0.0976581 0.107672 0.0542113
702 4 0.0834195 0.0942476 0.0549179
421 2 0.109224 0.114794 0.0332191
422 4 0.12079 0.121917 0.0122269
770 4 0.470475 0.159824 0.0258729
769 2 0.456351 0.154625 0.0458394
771 4 0.442227 0.149425 0.0658058
1013 4 0.479509 0.145368 0.0153146
629 4 0.44819 0.161988 0.078671
827 4 0.464856 0.154825 0.00809868
1012 2 0.493735 0.12817 0.00404397
554 4 0.0940526 0.200694 0.0509566
553 2 0.0902114 0.218573 0.033905
555 4 0.0863703 0.236452 0.0168534
665 4 0.341558 0.202558 0.0264682
664 2 0.343042 0.224362 0.0386154
666 4 0.344525 0.246167 0.0507625
1055 4 0.0788553 0.254603 0.0111428
836 4 0.0964395 0.248771 0.00610379
355 2 0.227661 0.271136 0.0264522
357 4 0.240649 0.2776 0.0468167
356 4 0.214673 0.264673 0.0060877
571 2 0.31706 0.259228 0.0801654
572 4 0.338592 0.257145 0.0676263
460 2 0.376574 0.267108 0.0686542
461 4 0.354904 0.259737 0.0585917
462 4 0.398244 0.27448 0.0787167
255 4 0.41126 0.260653 0.0799587
324 4 0.416172 0.281032 0.0799407
322 2 0.427699 0.300993 0.0702527
1070 4 0.442 0.337287 0.051233
323 4 0.439225 0.320955 0.0605647
282 4 0.497083 0.317682 0.0422581
280 2 0.475928 0.324079 0.0539504
281 4 0.454772 0.330475 0.0656427
552 4 0.0753355 0.387308 0.0134767
550 2 0.0556949 0.374052 0.00549514
483 4 0.162741 0.337793 0.0853143
293 4 0.141757 0.333891 0.00952853
507 4 0.149621 0.348991 0.0187722
505 2 0.158114 0.345008 0.0419492
288 4 0.129937 0.348374 0.0162103
287 4 0.0950531 0.383097 0.00736872
286 2 0.112495 0.365736 0.0117895
506 4 0.166608 0.341025 0.0651262
523 2 0.28298 0.390476 0.0674983
525 4 0.306828 0.386016 0.0614539
608 4 0.317693 0.374506 0.0715196
252 4 0.317883 0.373338 0.051771
524 4 0.259131 0.394936 0.0735427
956 4 0.402186 0.342073 0.00198979
250 2 0.335456 0.371004 0.0341383
251 4 0.35303 0.368671 0.0165057
671 4 0.439879 0.33811 0.0692833
1071 4 0.417533 0.350855 0.00978408
1069 2 0.429766 0.344071 0.0305086
315 4 0.0768193 0.454264 0.0302429
313 2 0.0660146 0.441738 0.0489918
314 4 0.0552099 0.429211 0.0677407
1787 4 0.0457047 0.446828 0.0738913
243 4 0.240721 0.497893 0.0733097
1290 4 0.237855 0.478831 0.0244962
245 4 0.258399 0.490723 0.072434
244 2 0.26857 0.496197 0.0502584
562 2 0.488658 0.469623 0.0539453
564 4 0.481859 0.467331 0.0778971
563 4 0.495458 0.471915 0.0299935
40 3 0.416411 0.456013 0.00218497
1666 2 0.0382259 0.0369089 0.0849886
1806 4 0.0582588 0.0292671 0.119341
1421 4 0.0409223 0.0314034 0.125558
1668 4 0.0407653 0.0289501 0.108555
1420 2 0.0303703 0.0388743 0.146959
1416 4 0.0477181 0.0136463 0.117088
1422 4 0.0198184 0.0463452 0.168361
1804 2 0.0820385 0.0285476 0.127034
1805 4 0.105818 0.0278281 0.134728
1474 2 0.238446 0.034081 0.0894841
1475 4 0.217106 0.0322237 0.102382
690 4 0.241029 0.0402551 0.137256
688 2 0.233566 0.059491 0.151379
689 4 0.226102 0.0787269 0.165502
652 2 0.308352 0.0647356 0.125708
653 4 0.311527 0.064294 0.100911
654 4 0.305176 0.0651773 0.150505
311 4 0.318239 0.0517668 0.157543
1759 2 0.487915 0.000360696 0.144783
758 4 0.416862 0.0144294 0.163657
235 2 0.140259 0.103829 0.141868
237 4 0.133034 0.11968 0.123931
737 4 0.131598 0.136493 0.136339
736 2 0.141459 0.156333 0.124751
236 4 0.147484 0.0879779 0.159805
693 4 0.163231 0.0871731 0.166253
1504 2 0.236749 0.115037 0.15496
1506 4 0.24197 0.137345 0.144947
692 4 0.213226 0.0863942 0.166992
691 2 0.188228 0.0867836 0.166623
285 4 0.253673 0.153017 0.145067
476 4 0.0591573 0.195134 0.162424
475 2 0.0684616 0.217222 0.16955
738 4 0.151321 0.176173 0.113162
283 2 0.257039 0.175764 0.135246
284 4 0.260405 0.19851 0.125425
354 4 0.277156 0.203323 0.114679
352 2 0.280171 0.227732 0.110175
253 2 0.421749 0.238583 0.0852577
254 4 0.432237 0.216513 0.0905566
630 4 0.435852 0.202944 0.104576
628 2 0.442021 0.182466 0.0916236
481 2 0.174408 0.327876 0.105081
535 2 0.189889 0.290952 0.157553
536 4 0.18567 0.300218 0.134716
482 4 0.186075 0.31796 0.124848
353 4 0.283186 0.252141 0.105672
573 4 0.295528 0.261312 0.0927046
754 2 0.29923 0.275937 0.133205
755 4 0.296515 0.264617 0.111077
756 4 0.301945 0.287258 0.155333
278 4 0.295298 0.288164 0.173296
622 2 0.360076 0.325522 0.122241
624 4 0.364081 0.300888 0.123761
765 4 0.360418 0.302304 0.142985
763 2 0.365956 0.292879 0.165472
2652 4 0.490317 0.327143 0.108555
528 4 0.489904 0.324309 0.129414
620 4 0.0157125 0.348765 0.154358
619 2 0.0210884 0.351014 0.130043
621 4 0.0264644 0.353262 0.105728
456 4 0.128132 0.408063 0.12498
626 4 0.250961 0.410936 0.0824723
385 2 0.332443 0.368216 0.147217
607 2 0.331904 0.368723 0.0912628
623 4 0.356072 0.350156 0.120721
609 4 0.346115 0.362941 0.111006
740 4 0.364482 0.366372 0.117178
386 4 0.349316 0.368523 0.128767
739 2 0.388636 0.372169 0.114326
741 4 0.412791 0.377966 0.111475
670 2 0.432429 0.353777 0.0872892
13 3 0.432509 0.342784 0.141835
672 4 0.424978 0.369444 0.105295
15 3 0.420197 0.373577 0.159664
11 1 0.434379 0.365844 0.143611
526 2 0.482837 0.345052 0.141454
12 3 0.428842 0.375332 0.1234
14 3 0.45622 0.371637 0.148884
495 4 0.472925 0.38127 0.152699
493 2 0.475362 0.402329 0.139441
527 4 0.47577 0.365795 0.153494
597 4 0.48909 0.372349 0.164658
645 4 0.469401 0.373604 0.164677
1788 4 0.0250758 0.466681 0.114892
1786 2 0.0353903 0.456754 0.0943914
1466 4 0.0206978 0.477614 0.130076
1791 4 0.0326806 0.485411 0.117326
454 2 0.122186 0.424461 0.142894
455 4 0.116239 0.440859 0.160809
627 4 0.217987 0.439419 0.10701
625 2 0.234474 0.425177 0.094741
1440 4 0.251212 0.495539 0.0896803
1438 2 0.259963 0.495375 0.113102
639 4 0.260086 0.492464 0.153251
1439 4 0.268715 0.49521 0.136523
637 2 0.258737 0.470332 0.164806
494 4 0.477799 0.423387 0.126183
2480 4 0.0157743 0.0592425 0.176728
19 3 0.033584 0.0536732 0.180779
20 3 0.0588053 0.0579413 0.208407
16 1 0.0425239 0.0683574 0.196363
675 4 0.0787837 0.0595672 0.208341
18 3 0.0258245 0.0759776 0.210557
450 4 0.130356 0.0299566 0.178096
673 2 0.0835478 0.0355693 0.213497
674 4 0.0883119 0.0115714 0.218653
448 2 0.139533 0.05315 0.176354
449 4 0.148709 0.0763435 0.174611
30 3 0.244987 0.0624743 0.199242
26 1 0.22814 0.0774596 0.202447
27 3 0.208936 0.0661613 0.208165
582 4 0.305841 0.061193 0.168842
580 2 0.282265 0.0608847 0.177163
581 4 0.258688 0.0605765 0.185483
757 2 0.395422 0.0234943 0.172784
759 4 0.373981 0.0325592 0.181911
310 2 0.338918 0.0448797 0.169795
22 3 0.352578 0.0332662 0.233963
312 4 0.359597 0.0379925 0.182048
25 3 0.367935 0.0313081 0.200004
21 1 0.372149 0.029937 0.222342
24 3 0.380483 0.00891758 0.227551
23 3 0.387422 0.0462714 0.228535
744 4 0.406624 0.043775 0.220709
742 2 0.414432 0.0666261 0.227194
17 3 0.0516321 0.0863343 0.185271
511 2 0.0136134 0.147533 0.230137
513 4 0.037831 0.153724 0.229535
578 4 0.0478045 0.143961 0.245029
723 4 0.150675 0.0924913 0.179455
721 2 0.144896 0.10495 0.20035
722 4 0.139118 0.117408 0.221244
546 4 0.153651 0.128018 0.230334
1505 4 0.231527 0.0927285 0.164973
28 3 0.224304 0.0893592 0.1829
29 3 0.23367 0.0920321 0.219636
743 4 0.42224 0.0894771 0.233678
333 4 0.484084 0.152314 0.236018
351 4 0.436428 0.0967082 0.246175
477 4 0.077766 0.239309 0.176675
337 2 0.109777 0.246117 0.201712
338 4 0.131988 0.245297 0.213165
2616 4 0.00118035 0.289069 0.173223
750 4 0.0714478 0.256117 0.179914
703 2 0.998673 0.323791 0.177291
395 4 0.0263123 0.293792 0.208067
749 4 0.0304641 0.27595 0.200594
748 2 0.0509559 0.266033 0.190254
704 4 0.990324 0.300902 0.18291
394 2 0.0166996 0.2868 0.230064
396 4 0.00708697 0.279808 0.252062
339 4 0.0875666 0.246938 0.190258
363 4 0.142274 0.2625 0.218116
361 2 0.16322 0.269431 0.206352
537 4 0.194108 0.281686 0.18039
362 4 0.184167 0.276362 0.194588
372 4 0.19973 0.284575 0.200806
370 2 0.224266 0.281045 0.204072
610 2 0.311936 0.323393 0.166735
612 4 0.311925 0.298389 0.166671
371 4 0.248803 0.277515 0.207338
279 4 0.257194 0.263595 0.194396
277 2 0.276246 0.275879 0.183846
344 4 0.277797 0.319906 0.221742
343 2 0.296545 0.310251 0.235177
345 4 0.315293 0.300597 0.248611
308 4 0.329822 0.287189 0.243451
307 2 0.343962 0.287036 0.22283
764 4 0.371494 0.283454 0.187959
309 4 0.358102 0.286883 0.202209
705 4 0.00702114 0.346681 0.171673
2692 2 0.0116025 0.381403 0.243675
648 4 0.0175519 0.362676 0.167701
2694 4 0.0139082 0.394678 0.222613
647 4 0.0254037 0.384068 0.212215
646 2 0.0214778 0.373372 0.189958
603 4 0.0330073 0.400614 0.217564
768 4 0.211357 0.411122 0.201772
290 4 0.191357 0.409961 0.196799
387 4 0.31557 0.367909 0.165666
611 4 0.311947 0.348396 0.166798
302 4 0.317308 0.36043 0.180933
729 4 0.328865 0.374915 0.235241
301 2 0.313905 0.366131 0.205039
303 4 0.310501 0.371832 0.229145
446 4 0.398848 0.339903 0.23231
445 2 0.417124 0.353637 0.222182
447 4 0.435399 0.367371 0.212055
643 2 0.461523 0.374034 0.188403
644 4 0.453645 0.374464 0.21213
263 4 0.0625021 0.455648 0.225732
601 2 0.0493429 0.419529 0.216819
602 4 0.0656784 0.438443 0.216074
262 2 0.0712013 0.479031 0.227391
415 2 0.151909 0.476371 0.195863
413 4 0.151868 0.45223 0.226159
412 2 0.144032 0.458443 0.249076
417 4 0.140675 0.494929 0.18343
416 4 0.163142 0.457812 0.208295
766 2 0.232089 0.420643 0.191538
291 4 0.169527 0.447131 0.222149
289 2 0.180442 0.428546 0.209474
638 4 0.257387 0.448199 0.176362
767 4 0.25282 0.430165 0.181304
660 4 0.288823 0.437499 0.191905
658 2 0.31009 0.436192 0.204988
659 4 0.331358 0.434886 0.218071
1404 4 0.0140755 0.00994712 0.257919
233 4 0.010841 0.0533827 0.310504
1402 2 0.0140706 0.0277902 0.275435
1403 4 0.0140656 0.0456334 0.29295
317 4 0.0197994 0.0640909 0.296246
530 4 0.000936884 0.0595155 0.297928
316 2 0.0370197 0.0818405 0.29256
232 2 0.00799721 0.0553527 0.335267
1749 4 0.489746 0.014943 0.308662
480 4 0.477978 0.0300627 0.310486
478 2 0.457112 0.0338914 0.32372
2643 4 0.496166 0.0327755 0.308017
577 2 0.0533641 0.130632 0.26544
318 4 0.05424 0.0995901 0.288873
397 2 0.0531285 0.13096 0.320328
579 4 0.0589237 0.117303 0.285851
398 4 0.0597278 0.114722 0.302496
731 4 0.0696502 0.100384 0.295366
544 2 0.160608 0.124866 0.254142
732 4 0.118863 0.0950583 0.302469
600 4 0.125473 0.108192 0.315507
730 2 0.0942566 0.097721 0.298918
598 2 0.148511 0.112278 0.306691
599 4 0.171549 0.116365 0.297875
545 4 0.167564 0.121715 0.277951
392 4 0.184796 0.118597 0.284317
391 2 0.205078 0.121257 0.298696
393 4 0.22536 0.123918 0.313075
247 2 0.324804 0.104537 0.318328
249 4 0.30164 0.113948 0.318495
404 4 0.304517 0.122336 0.335887
683 4 0.287744 0.112731 0.332311
248 4 0.347968 0.0951265 0.31816
633 4 0.38536 0.143539 0.305802
707 4 0.371352 0.154226 0.314877
631 2 0.409872 0.140628 0.301814
632 4 0.434383 0.137718 0.297826
349 2 0.440079 0.11182 0.265758
350 4 0.44373 0.126932 0.285341
452 4 0.449258 0.127601 0.304108
451 2 0.463162 0.126242 0.324845
444 4 0.031301 0.244974 0.30056
331 2 0.48159 0.168857 0.2546
332 4 0.479096 0.1854 0.273182
521 4 0.491568 0.196711 0.281706
762 4 0.473274 0.203369 0.275668
760 2 0.463579 0.210448 0.297601
761 4 0.453883 0.217526 0.319535
2655 4 0.0350347 0.255219 0.317714
443 4 0.00299757 0.268549 0.266738
442 2 0.0171493 0.256762 0.283649
300 4 0.0918269 0.317659 0.271184
298 2 0.112304 0.308383 0.282131
733 2 0.155799 0.31521 0.325422
734 4 0.137671 0.309437 0.309197
299 4 0.132781 0.299107 0.293077
400 2 0.214738 0.298982 0.319803
401 4 0.195943 0.290022 0.30596
402 4 0.233533 0.307942 0.333647
378 4 0.253129 0.302348 0.33293
498 4 0.297541 0.26658 0.300212
377 4 0.286341 0.282767 0.301083
496 2 0.309005 0.276308 0.280234
497 4 0.320469 0.286036 0.260256
376 2 0.269735 0.292557 0.317007
615 4 0.396036 0.307352 0.278767
613 2 0.393555 0.327356 0.263972
543 4 0.415175 0.310985 0.284812
541 2 0.437756 0.315712 0.294453
542 4 0.460336 0.32044 0.304095
2536 2 0.491563 0.321506 0.281029
2538 4 0.478047 0.327716 0.301128
2924 4 0.474402 0.315739 0.316658
727 2 0.323367 0.387307 0.25625
728 4 0.31787 0.399698 0.27726
434 4 0.32454 0.395855 0.297068
433 2 0.311356 0.38292 0.313922
435 4 0.298172 0.369984 0.330775
614 4 0.391074 0.347359 0.249178
2923 2 0.474612 0.334443 0.333251
549 4 0.0395367 0.456131 0.318395
547 2 0.0637494 0.451023 0.321977
2463 4 0.0255433 0.449726 0.33035
548 4 0.087962 0.445915 0.32556
777 4 0.137024 0.447816 0.283347
775 2 0.121885 0.448011 0.303245
414 4 0.136196 0.464657 0.271992
776 4 0.106745 0.448206 0.323144
407 4 0.101822 0.437236 0.33803
1574 4 0.279178 0.496808 0.266479
436 2 0.319139 0.481381 0.280989
437 4 0.297857 0.491803 0.273013
438 4 0.340422 0.470959 0.288965
3 3 0.350644 0.476025 0.304773
4 3 0.372947 0.456581 0.328625
1 1 0.353858 0.469653 0.326852
234 4 0.00515345 0.0573228 0.36003
369 4 0.0782212 0.0784169 0.40504
368 4 0.1005 0.052238 0.368721
1780 2 0.0870654 0.012344 0.367982
1781 4 0.0895855 0.0365757 0.362356
367 2 0.0893609 0.0653274 0.386881
1699 2 0.191911 0.0131782 0.347437
1701 4 0.189018 0.0323927 0.363173
319 2 0.234948 0.0778209 0.380001
321 4 0.225469 0.0689938 0.401389
320 4 0.244427 0.086648 0.358614
684 4 0.263954 0.0804274 0.362164
257 4 0.38429 0.999207 0.391615
256 2 0.392757 0.0159679 0.408124
576 4 0.399799 0.0707112 0.374786
479 4 0.436246 0.0377202 0.336953
399 4 0.0465291 0.147197 0.33816
459 4 0.0416755 0.152112 0.35625
457 2 0.0239633 0.169682 0.357905
403 2 0.300643 0.145531 0.344382
682 2 0.275849 0.0965792 0.347238
405 4 0.296769 0.168725 0.352878
706 2 0.364191 0.143898 0.336492
708 4 0.357029 0.13357 0.358107
574 2 0.416455 0.0868882 0.384062
575 4 0.433112 0.103065 0.393338
453 4 0.477066 0.124884 0.345582
514 2 0.460141 0.126376 0.382676
515 4 0.475957 0.133107 0.364518
516 4 0.444326 0.119644 0.400835
458 4 0.00625102 0.187253 0.35956
2653 2 0.0279643 0.250711 0.341269
388 2 0.0273564 0.22424 0.399777
390 4 0.0173691 0.237527 0.381098
2654 4 0.0208938 0.246202 0.364825
687 4 0.161874 0.209877 0.340247
686 4 0.145603 0.246606 0.370028
685 2 0.153738 0.228241 0.355137
474 4 0.278684 0.176707 0.358768
472 2 0.277046 0.193727 0.377011
473 4 0.275409 0.210748 0.395253
489 4 0.276871 0.215669 0.413927
410 4 0.279235 0.197316 0.409559
419 4 0.45988 0.229664 0.334291
418 2 0.446937 0.239907 0.353072
268 2 0.424259 0.238388 0.406604
420 4 0.433993 0.250149 0.371854
306 4 0.439958 0.210866 0.419175
2850 4 0.00539933 0.25152 0.377443
346 2 0.0659378 0.319912 0.390305
348 4 0.0672371 0.308295 0.412408
275 4 0.240333 0.264353 0.380147
735 4 0.173927 0.320983 0.341646
677 4 0.176767 0.327551 0.360681
276 4 0.244529 0.302262 0.347804
676 2 0.183224 0.319188 0.383342
678 4 0.189681 0.310824 0.406003
274 2 0.242431 0.283308 0.363975
375 4 0.207351 0.311487 0.414274
510 4 0.245782 0.319308 0.335395
716 4 0.397133 0.306246 0.383511
715 2 0.413669 0.287828 0.379974
717 4 0.430204 0.269409 0.376437
269 4 0.424758 0.254899 0.387834
347 4 0.0646385 0.331529 0.368202
617 4 0.00553612 0.350913 0.345802
616 2 0.0297308 0.345579 0.349169
618 4 0.0539255 0.340245 0.352536
326 4 0.0618472 0.350362 0.366394
325 2 0.0777638 0.369645 0.36656
327 4 0.0936804 0.388927 0.366726
408 4 0.105444 0.38895 0.350523
508 2 0.256553 0.336804 0.349644
509 4 0.267324 0.354301 0.363894
503 4 0.262615 0.355713 0.382883
502 2 0.265419 0.348806 0.406749
587 4 0.406608 0.387046 0.381513
586 2 0.381952 0.390351 0.378996
588 4 0.357296 0.393655 0.376479
668 4 0.339238 0.399103 0.371011
753 4 0.417066 0.385094 0.363991
751 2 0.438149 0.371919 0.361324
561 4 0.478301 0.364866 0.364581
752 4 0.459232 0.358744 0.358658
559 2 0.488268 0.360097 0.38701
2925 4 0.474822 0.353146 0.349843
560 4 0.498236 0.355329 0.40944
2461 2 0.00473896 0.455169 0.343106
1383 4 0.0313042 0.492559 0.387787
680 4 0.043535 0.496444 0.402607
501 4 0.124192 0.488052 0.36506
500 4 0.0964636 0.455438 0.339211
406 2 0.103633 0.413093 0.344276
499 2 0.110328 0.471745 0.352136
5 3 0.335753 0.458016 0.334296
2 3 0.356549 0.488527 0.339723
714 4 0.384909 0.461328 0.343296
712 2 0.404877 0.44702 0.347958
669 4 0.334369 0.444051 0.349642
667 2 0.336803 0.421577 0.360327
713 4 0.424845 0.432712 0.35262
718 2 0.0598818 0.0694794 0.442015
720 4 0.0439875 0.0655455 0.460911
2236 2 0.00244487 0.0595088 0.45865
2237 4 0.0255621 0.0625078 0.467694
1127 4 0.0409975 0.0575483 0.47852
1126 2 0.0518369 0.061533 0.500697
719 4 0.0757761 0.0734132 0.423118
605 4 0.252065 0.00835338 0.468615
604 2 0.26643 0.012561 0.488643
606 4 0.280795 0.0167686 0.508671
258 4 0.401224 0.0327284 0.424634
426 4 0.411125 0.0373149 0.44137
424 2 0.432011 0.0499649 0.446748
425 4 0.452897 0.0626148 0.452127
260 4 0.040014 0.132809 0.481948
259 2 0.0552518 0.141856 0.499587
466 2 0.294299 0.135515 0.451851
467 4 0.279196 0.15435 0.458358
468 4 0.309401 0.116681 0.445344
725 4 0.321884 0.120082 0.461356
724 2 0.332158 0.108617 0.481058
411 4 0.271459 0.17109 0.45142
2880 4 0.482959 0.108826 0.493898
2879 4 0.490692 0.140027 0.455591
2878 2 0.486825 0.124426 0.474745
642 4 0.4871 0.0921226 0.504337
389 4 0.0373437 0.210953 0.418455
487 2 0.271138 0.238699 0.421797
409 2 0.275347 0.184203 0.43049
270 4 0.423759 0.221877 0.425374
3157 2 0.484665 0.207786 0.490061
3159 4 0.464715 0.200007 0.477152
305 4 0.468548 0.198585 0.458322
304 2 0.454253 0.204726 0.438748
695 4 0.11782 0.264815 0.449839
694 2 0.130288 0.281335 0.463868
696 4 0.142755 0.297855 0.477897
10 3 0.134491 0.312956 0.488494
1260 4 0.148828 0.300421 0.491956
6 1 0.129023 0.335017 0.48993
9 3 0.10819 0.337379 0.499871
983 4 0.0916588 0.325496 0.49654
373 2 0.206829 0.299792 0.436368
374 4 0.206308 0.288097 0.458462
488 4 0.265406 0.26173 0.429667
266 4 0.256916 0.278098 0.438513
265 2 0.265159 0.301693 0.439219
267 4 0.273402 0.325289 0.439924
584 4 0.491329 0.271611 0.446567
583 2 0.467104 0.26545 0.445979
585 4 0.442879 0.259288 0.445392
569 4 0.0779483 0.414383 0.470928
7 3 0.128232 0.34402 0.468777
568 2 0.08261 0.391266 0.462618
570 4 0.0872716 0.368149 0.454309
8 3 0.145039 0.346354 0.502313
711 4 0.161712 0.348352 0.494538
709 2 0.184031 0.355332 0.485689
710 4 0.206351 0.362311 0.476841
803 4 0.224228 0.37088 0.475724
802 2 0.233415 0.394064 0.473911
650 4 0.220786 0.355653 0.487299
649 2 0.234313 0.337176 0.49734
504 4 0.268223 0.341899 0.430616
334 2 0.390426 0.415998 0.450634
336 4 0.372927 0.415004 0.432803
335 4 0.407926 0.416993 0.468466
2508 4 0.504297 0.356467 0.477853
240 4 0.425023 0.407508 0.463507
238 2 0.438234 0.403197 0.484293
679 2 0.0347401 0.487553 0.424258
384 4 0.0627442 0.424989 0.466697
539 4 0.0758851 0.429342 0.481931
383 4 0.0323838 0.458264 0.444977
681 4 0.0259451 0.478662 0.445909
382 2 0.047564 0.441626 0.455837
538 2 0.0967607 0.433505 0.495048
774 4 0.155489 0.488111 0.493467
804 4 0.242603 0.417248 0.472099
636 4 0.200902 0.48698 0.447626
635 4 0.172699 0.48052 0.488413
634 2 0.186801 0.48375 0.46802
1454 4 0.314622 0.456414 0.478043
882 4 0.32145 0.449944 0.460964
1453 2 0.297245 0.469386 0.49049
880 2 0.338029 0.435557 0.448991
881 4 0.354608 0.42117 0.437019
1128 4 0.0626763 0.0655177 0.522873
939 4 0.0713401 0.0842356 0.521956
1057 2 0.138387 0.0591307 0.558579
1058 4 0.139197 0.041815 0.576598
1059 4 0.137577 0.0764464 0.54056
341 4 0.204298 0.00611737 0.551942
340 2 0.209935 0.0293338 0.544566
342 4 0.215572 0.0525503 0.537191
1182 4 0.23506 0.0516979 0.532308
1152 4 0.223713 0.0645907 0.524709
1150 2 0.206136 0.0795775 0.515138
1180 2 0.257386 0.0586976 0.541124
961 2 0.302791 0.0583267 0.575321
963 4 0.296672 0.0729081 0.555953
1181 4 0.279712 0.0656974 0.54994
432 4 0.291416 0.0742687 0.537463
430 2 0.310901 0.0853809 0.526416
842 4 0.380425 0.0510861 0.526252
841 2 0.362186 0.0668002 0.5195
1217 4 0.398491 0.0483676 0.516973
1581 4 0.383334 0.038451 0.512156
1579 2 0.380362 0.0140188 0.507749
1216 2 0.421432 0.0578225 0.520055
1218 4 0.444373 0.0672773 0.523136
641 4 0.443387 0.0872351 0.528127
261 4 0.0704895 0.150904 0.517226
1035 4 0.0725419 0.138264 0.531599
1033 2 0.0664565 0.141758 0.555598
1034 4 0.060371 0.145252 0.579597
937 2 0.0952449 0.0821035 0.52897
938 4 0.11915 0.0799714 0.535984
1155 4 0.134225 0.0926919 0.530857
1153 2 0.15267 0.098395 0.514969
1154 4 0.171115 0.104098 0.499081
1151 4 0.188558 0.0945644 0.505568
431 4 0.330386 0.0964931 0.515369
726 4 0.342432 0.0971516 0.50076
843 4 0.343947 0.0825142 0.512748
640 2 0.465244 0.0896788 0.516232
858 4 0.174912 0.209414 0.560489
857 4 0.209969 0.244964 0.563301
856 2 0.19244 0.227189 0.561895
872 4 0.321365 0.232022 0.532407
898 2 0.37138 0.185017 0.546189
900 4 0.383904 0.186544 0.524602
899 4 0.358856 0.183489 0.567776
3064 2 0.497034 0.246764 0.529832
3158 4 0.504616 0.215564 0.502971
1258 2 0.168142 0.297103 0.507484
1259 4 0.187456 0.293785 0.523013
651 4 0.24784 0.3187 0.507382
873 4 0.326658 0.281719 0.530695
811 2 0.284503 0.322636 0.52306
812 4 0.265176 0.329577 0.508796
1239 4 0.323913 0.312489 0.531681
813 4 0.30383 0.315695 0.537325
871 2 0.324011 0.25687 0.531551
1237 2 0.342392 0.306665 0.547485
952 2 0.392658 0.276752 0.562182
1238 4 0.360871 0.300841 0.56329
953 4 0.368607 0.283586 0.562024
792 4 0.354286 0.287316 0.57506
954 4 0.416709 0.269918 0.56234
3065 4 0.486981 0.261678 0.547202
905 4 0.46866 0.260421 0.555696
904 2 0.445152 0.255798 0.562852
906 4 0.421645 0.251176 0.570008
1136 4 0.062282 0.365378 0.533549
984 4 0.0570272 0.348195 0.524578
1135 2 0.0746053 0.373352 0.553791
982 2 0.074343 0.336846 0.510559
1137 4 0.0869285 0.381327 0.574032
896 4 0.14419 0.403712 0.557093
895 2 0.122299 0.398687 0.56808
1191 4 0.156033 0.393908 0.54413
1189 2 0.154173 0.376359 0.526417
1190 4 0.152313 0.35881 0.508704
1161 4 0.162646 0.408634 0.554238
897 4 0.100408 0.393662 0.579066
2243 4 0.148503 0.411489 0.5406
1159 2 0.178774 0.400394 0.571476
1001 4 0.406577 0.386598 0.567721
1000 2 0.383151 0.384959 0.576306
928 2 0.336694 0.412236 0.578518
925 2 0.439832 0.396763 0.538917
926 4 0.456105 0.402741 0.520899
3309 4 0.466511 0.392009 0.509415
927 4 0.42356 0.390785 0.556936
239 4 0.451444 0.398885 0.50508
663 4 0.465197 0.412074 0.506817
3307 2 0.484878 0.376303 0.503
2242 2 0.140859 0.430396 0.526135
2244 4 0.133215 0.449304 0.511669
540 4 0.117636 0.437668 0.508165
773 4 0.149984 0.493845 0.542839
772 2 0.152737 0.490978 0.518153
1171 2 0.293384 0.44616 0.572278
1172 4 0.317219 0.446802 0.56475
1455 4 0.279867 0.482359 0.502937
929 4 0.327697 0.431005 0.564664
891 4 0.334391 0.445403 0.575383
1173 4 0.269549 0.445517 0.579806
2153 4 0.261721 0.489555 0.509255
1911 4 0.372725 0.493926 0.573469
889 2 0.34428 0.468365 0.575011
1909 2 0.396451 0.489311 0.567068
890 4 0.354169 0.491327 0.574639
1910 4 0.420177 0.484695 0.560668
1330 2 0.453484 0.465852 0.557702
1331 4 0.435015 0.475358 0.57162
661 2 0.472721 0.433907 0.516404
662 4 0.480244 0.45574 0.52599
1332 4 0.471954 0.456347 0.543785
2319 4 0.0534984 0.030774 0.616269
2317 2 0.0553085 0.00780346 0.606561
945 4 0.0440448 0.043749 0.627619
943 2 0.0302831 0.0630143 0.619579
944 4 0.0165215 0.0822795 0.611538
2131 2 0.235799 0.0187745 0.655992
2133 4 0.215244 0.00493306 0.659325
2132 4 0.256353 0.032616 0.65266
949 2 0.288197 0.0291744 0.629099
962 4 0.308909 0.0437453 0.59469
950 4 0.301109 0.031493 0.607813
2196 4 0.306775 0.0249628 0.589724
951 4 0.275286 0.0268559 0.650385
2194 2 0.321344 0.00464325 0.589558
1005 4 0.332478 0.0405442 0.657953
89 3 0.380293 0.0076462 0.591727
1003 2 0.348803 0.0231026 0.650571
1004 4 0.365127 0.00566111 0.64319
1092 4 0.384197 0.00530472 0.644347
90 3 0.372865 0.00177733 0.628169
1090 2 0.405781 0.00533409 0.656968
1272 4 0.068116 0.13431 0.592241
879 4 0.0542218 0.148401 0.597459
877 2 0.0361991 0.165482 0.594529
1221 4 0.121515 0.149236 0.631031
1270 2 0.089433 0.136483 0.605127
1219 2 0.143165 0.160002 0.637398
1271 4 0.11075 0.138656 0.618013
1283 4 0.183176 0.0902508 0.643265
1031 4 0.240401 0.114316 0.637149
1284 4 0.22733 0.105976 0.625836
1282 2 0.205253 0.0981133 0.634551
909 4 0.18054 0.0981606 0.661713
888 4 0.246073 0.160782 0.660737
1030 2 0.264357 0.11263 0.63019
1032 4 0.288313 0.110944 0.62323
810 4 0.451521 0.142758 0.63834
808 2 0.457274 0.130236 0.659203
878 4 0.0181765 0.182564 0.591598
1220 4 0.164815 0.170768 0.643766
796 2 0.168557 0.212914 0.652074
798 4 0.167558 0.187943 0.651258
1210 2 0.204726 0.170566 0.654858
1212 4 0.183114 0.1764 0.643718
797 4 0.169556 0.237884 0.65289
1211 4 0.226337 0.164731 0.665997
1026 4 0.495535 0.221434 0.628529
1025 4 0.467864 0.183792 0.610693
1024 2 0.4817 0.202613 0.619611
1243 2 0.049256 0.266855 0.638144
1244 4 0.0488818 0.269067 0.613242
3044 4 0.0340886 0.267781 0.600167
3043 2 0.014082 0.254987 0.592342
1245 4 0.0496303 0.264643 0.663047
947 4 0.172163 0.249984 0.636677
948 4 0.199786 0.260122 0.596244
946 2 0.185975 0.255053 0.61646
791 4 0.329665 0.264923 0.612384
790 2 0.341975 0.276119 0.593722
993 4 0.0825365 0.379576 0.640609
3262 2 0.00743935 0.40155 0.632835
3263 4 0.0113474 0.408443 0.65655
1040 4 0.0826104 0.365708 0.627751
1039 2 0.0831854 0.380745 0.607783
1041 4 0.0837604 0.395782 0.587815
1160 4 0.194902 0.392154 0.588715
1002 4 0.359725 0.38332 0.584892
930 4 0.34569 0.393466 0.592373
807 4 0.355773 0.401478 0.652421
805 2 0.357846 0.395713 0.62818
806 4 0.359918 0.389948 0.603939
1138 2 0.232636 0.433723 0.661364
1140 4 0.251049 0.430557 0.644747
1187 4 0.255588 0.433961 0.588746
1188 4 0.262078 0.416858 0.635287
1186 2 0.258833 0.425409 0.612016
1269 4 0.452092 0.438839 0.60112
1267 2 0.451252 0.440584 0.626048
1268 4 0.450413 0.442329 0.650977
2168 4 0.447722 0.45825 0.663049
1298 4 0.2893 0.0808035 0.702949
2283 4 0.440414 0.997674 0.682198
43 3 0.451752 0.0684736 0.690251
1163 4 0.497024 0.0658871 0.706598
42 3 0.48346 0.0802849 0.706614
41 1 0.461036 0.0846974 0.703999
44 3 0.450818 0.0842243 0.724826
1091 4 0.427365 0.00536346 0.66959
862 2 0.000999405 0.119125 0.740207
908 4 0.1913 0.10126 0.71045
907 2 0.18592 0.0997104 0.686082
1227 4 0.183589 0.102944 0.728677
1225 2 0.194971 0.0937047 0.748932
831 4 0.292138 0.133944 0.741329
1299 4 0.300715 0.119748 0.732168
1297 2 0.295008 0.100276 0.717558
829 2 0.286487 0.155507 0.730003
809 4 0.463028 0.117714 0.680066
45 3 0.458489 0.105266 0.69456
852 4 0.0304736 0.226255 0.725286
850 2 0.0442522 0.206506 0.732015
1208 4 0.0318281 0.238987 0.710534
1207 2 0.0474718 0.247096 0.692794
851 4 0.0580308 0.186756 0.738745
1107 4 0.0756354 0.181503 0.733231
1178 4 0.0253905 0.240951 0.728731
3038 4 0.0165601 0.228371 0.717759
1215 4 0.0136235 0.228498 0.737024
1209 4 0.0631154 0.255205 0.675054
1105 2 0.0967667 0.184493 0.746258
1073 4 0.125406 0.205635 0.761776
1072 2 0.136602 0.226107 0.752789
1074 4 0.147797 0.246578 0.743802
1130 4 0.188867 0.170354 0.750826
886 2 0.258843 0.165945 0.681605
887 4 0.271612 0.171108 0.702473
830 4 0.280836 0.177069 0.718677
976 2 0.292659 0.204601 0.701469
978 4 0.288132 0.180053 0.700036
977 4 0.297187 0.22915 0.702902
918 4 0.300435 0.240152 0.718241
916 2 0.319459 0.243208 0.734177
1194 4 0.374913 0.191707 0.707371
1192 2 0.370323 0.19017 0.731902
814 2 0.0777654 0.293421 0.732737
1177 2 0.0352573 0.259609 0.742136
816 4 0.0632842 0.283607 0.750602
815 4 0.0922466 0.303236 0.714872
941 4 0.153913 0.320159 0.70714
940 2 0.129774 0.31834 0.713397
942 4 0.105634 0.316521 0.719655
1067 4 0.169582 0.317303 0.696958
894 4 0.0867846 0.321713 0.716492
821 4 0.161113 0.30298 0.709385
820 2 0.175743 0.283738 0.702992
822 4 0.190373 0.264495 0.696598
991 2 0.0747008 0.380038 0.664349
893 4 0.0686933 0.36519 0.699666
1280 4 0.0539585 0.378742 0.702628
892 2 0.0777389 0.343452 0.708079
1279 2 0.0432669 0.401257 0.704611
992 4 0.0668651 0.380499 0.688088
1066 2 0.180706 0.339424 0.700438
1028 4 0.191492 0.382558 0.70165
1027 2 0.202456 0.404856 0.698863
1068 4 0.19183 0.361545 0.703917
1206 4 0.431936 0.409032 0.710594
1204 2 0.432388 0.384108 0.712531
1205 4 0.432839 0.359183 0.714468
1281 4 0.0325753 0.423772 0.706594
1983 4 0.0232207 0.434848 0.718911
1981 2 0.0111396 0.452677 0.706208
885 4 0.0416983 0.43094 0.72278
883 2 0.0529393 0.438916 0.743642
1029 4 0.21342 0.427154 0.696075
1139 4 0.214223 0.436888 0.677981
1987 2 0.333234 0.432961 0.745307
1989 4 0.350255 0.434123 0.727029
1228 2 0.392549 0.428008 0.7197
1229 4 0.369156 0.435898 0.723661
2169 4 0.402446 0.452428 0.683467
1230 4 0.415942 0.420118 0.715739
1100 4 0.464261 0.448421 0.663423
2167 2 0.425084 0.455339 0.673258
1099 2 0.480002 0.449884 0.682795
1101 4 0.495743 0.451348 0.702166
1202 4 0.159072 0.0143258 0.792248
1201 2 0.154889 0.0187267 0.816503
2049 4 0.144038 0.00648745 0.782787
1147 2 0.219019 0.0704034 0.802525
1148 4 0.205708 0.0680837 0.781487
1149 4 0.232329 0.0727232 0.823564
1226 4 0.206354 0.0844655 0.769186
1257 4 0.249756 0.065999 0.826685
1255 2 0.270874 0.0772244 0.81939
973 2 0.36631 0.00392556 0.774018
975 4 0.377094 0.0256453 0.780112
1113 4 0.391922 0.0335733 0.792142
1111 2 0.403952 0.0482235 0.808447
2363 4 0.412784 0.0105327 0.820532
2320 2 0.486756 0.00457708 0.757659
1112 4 0.415981 0.0628736 0.824751
844 2 0.457684 0.0801061 0.82618
832 2 0.0152825 0.125686 0.793416