ITEM: TIMESTEP
2290000
ITEM: NUMBER OF ATOMS
4590
ITEM: BOX BOUNDS pp pp pp
-9.9985700000000008e+00 9.9985700000000008e+00
-9.9985700000000008e+00 9.9985700000000008e+00
-9.9985700000000008e+00 9.9985700000000008e+00
ITEM: ATOMS id type xs ys zs
463 2 0.045215 0.0311733 0.0289585
465 4 0.0414223 0.0491359 0.0459331
1667 4 0.0425693 0.0504276 0.0652919
701 4 0.0497175 0.064768 0.0546825
590 4 0.030265 0.0616573 0.0549385
589 2 0.00766616 0.070788 0.0493616
464 4 0.0490078 0.0132106 0.0119839
994 2 0.11858 0.0454528 0.0145685
995 4 0.138524 0.0593111 0.0205174
567 4 0.154574 0.0733401 0.0174661
533 4 0.140867 0.0699795 0.00546936
996 4 0.0986371 0.0315945 0.0086197
565 2 0.161018 0.0706584 0.0414757
566 4 0.167463 0.0679767 0.0654852
1476 4 0.26161 0.030713 0.0791085
490 2 0.360512 0.021683 0.0221064
491 4 0.373117 0.0218161 0.0437002
557 4 0.380419 0.0354113 0.0543457
296 4 0.370173 0.020096 0.0623351
295 2 0.375061 0.997442 0.0717191
556 2 0.398904 0.0521356 0.0524022
558 4 0.417389 0.0688599 0.0504587
1607 4 0.407965 0.0108323 0.0262596
746 4 0.419462 0.0670255 0.0315697
745 2 0.438668 0.0647581 0.0157213
747 4 0.457874 0.0624908 0.999873
2975 4 0.477536 0.0631155 0.0026884
2974 2 0.494673 0.0812803 0.00393399
700 2 0.0699435 0.0790902 0.0579936
423 4 0.105095 0.105098 0.0581761
702 4 0.0901696 0.0934123 0.0613046
421 2 0.115708 0.102155 0.0357285
422 4 0.12632 0.0992126 0.0132808
770 4 0.469722 0.156287 0.0363404
769 2 0.453859 0.15384 0.0555118
771 4 0.437995 0.151393 0.0746831
1013 4 0.483647 0.154033 0.0233615
827 4 0.463618 0.156847 0.0183021
1012 2 0.498917 0.136649 0.0138838
554 4 0.0798308 0.228677 0.061622
553 2 0.0831656 0.240359 0.0397685
1055 4 0.0759608 0.254905 0.00231937
555 4 0.0865005 0.252042 0.0179151
665 4 0.332341 0.214285 0.0251547
664 2 0.337615 0.233375 0.0404175
666 4 0.342888 0.252465 0.0556803
836 4 0.0940363 0.249771 0.998995
483 4 0.158919 0.332964 0.0919177
355 2 0.22761 0.286337 0.0194077
357 4 0.239555 0.299842 0.0367316
356 4 0.215665 0.272833 0.00208384
571 2 0.318289 0.262706 0.0832579
572 4 0.334851 0.267367 0.0651157
460 2 0.375795 0.261269 0.0749671
461 4 0.351008 0.261398 0.0716848
462 4 0.400582 0.26114 0.0782493
324 4 0.412982 0.274243 0.0717407
322 2 0.424161 0.296489 0.0694373
323 4 0.43534 0.318736 0.0671338
282 4 0.496732 0.313251 0.053997
280 2 0.472814 0.320477 0.0549228
281 4 0.448895 0.327703 0.0558486
104 3 0.501552 0.315791 0.0349852
552 4 0.0860725 0.389899 0.0034239
328 2 0.00182046 0.364789 0.00203381
293 4 0.146286 0.339129 0.00739173
507 4 0.148882 0.344319 0.0267456
505 2 0.155983 0.343169 0.0506921
288 4 0.132411 0.348715 0.0171414
287 4 0.0941875 0.380805 0.0202943
286 2 0.113299 0.36476 0.0187179
506 4 0.163084 0.34202 0.0746386
523 2 0.292432 0.390015 0.0690685
525 4 0.315725 0.391367 0.0600801
608 4 0.333719 0.387649 0.0646122
252 4 0.326539 0.385172 0.0456298
626 4 0.253926 0.399195 0.0703845
956 4 0.405527 0.353193 0.998737
250 2 0.339189 0.373167 0.0277122
251 4 0.351839 0.361163 0.00979456
1070 4 0.430795 0.333449 0.0562579
671 4 0.445136 0.334685 0.071016
1071 4 0.418871 0.357617 0.0141338
1069 2 0.424833 0.345533 0.0351959
313 2 0.0895031 0.451214 0.0553193
314 4 0.0821071 0.449984 0.0791723
315 4 0.0968991 0.452443 0.0314664
243 4 0.236105 0.489814 0.0887976
241 2 0.214513 0.498688 0.0798422
1290 4 0.261041 0.480376 0.0175696
245 4 0.25181 0.486218 0.0788132
244 2 0.270132 0.487049 0.0618196
246 4 0.288454 0.487881 0.0448261
37 3 0.399066 0.46166 0.000343143
564 4 0.504544 0.463168 0.0645303
1666 2 0.0491184 0.037929 0.0859334
1806 4 0.0681613 0.0227236 0.120763
1421 4 0.0490269 0.0289532 0.121826
1668 4 0.0556675 0.0254303 0.106575
1420 2 0.0375414 0.0400484 0.141065
1416 4 0.0532489 0.0104728 0.120272
1422 4 0.0260559 0.0511436 0.160305
1804 2 0.0909287 0.0311021 0.126815
1805 4 0.113696 0.0394807 0.132867
449 4 0.149638 0.088919 0.173762
1474 2 0.252714 0.0284121 0.102362
1475 4 0.243817 0.0261113 0.125616
690 4 0.228687 0.0277912 0.137632
688 2 0.226949 0.0508096 0.14724
689 4 0.225211 0.073828 0.156848
652 2 0.315078 0.049131 0.116949
653 4 0.318545 0.0453052 0.0924844
654 4 0.311611 0.0529569 0.141414
311 4 0.324276 0.0506249 0.154675
582 4 0.307358 0.0538584 0.161985
580 2 0.284028 0.053091 0.170946
758 4 0.426291 0.0208376 0.160944
1759 2 0.48575 0.996134 0.151772
235 2 0.148542 0.105606 0.13685
237 4 0.140415 0.114409 0.114903
737 4 0.139639 0.133351 0.111852
736 2 0.144345 0.15781 0.114039
236 4 0.156669 0.0968026 0.158796
693 4 0.167478 0.0979584 0.171797
1504 2 0.239196 0.110488 0.146525
1506 4 0.249733 0.13177 0.138699
692 4 0.215531 0.087223 0.163058
691 2 0.191505 0.0925907 0.167427
1505 4 0.22866 0.0892057 0.15435
285 4 0.244668 0.149396 0.146091
629 4 0.438914 0.163471 0.0911332
476 4 0.0923258 0.209774 0.151961
738 4 0.149051 0.18227 0.116225
284 4 0.253697 0.190962 0.119795
283 2 0.249183 0.170179 0.132943
354 4 0.268802 0.202473 0.115237
352 2 0.281689 0.2239 0.115121
353 4 0.294575 0.245327 0.115005
630 4 0.418954 0.208343 0.100555
253 2 0.427135 0.240863 0.0891616
254 4 0.435745 0.217444 0.0907856
628 2 0.428934 0.185907 0.0958441
481 2 0.164819 0.328654 0.11583
535 2 0.183845 0.30221 0.162339
536 4 0.18296 0.308698 0.138208
482 4 0.170719 0.324343 0.139742
573 4 0.301727 0.258045 0.1014
754 2 0.307946 0.273933 0.14054
755 4 0.306112 0.259296 0.120352
756 4 0.30978 0.288571 0.160729
255 4 0.418526 0.264281 0.0875375
622 2 0.35885 0.324762 0.117715
624 4 0.360474 0.300219 0.12221
765 4 0.366817 0.298657 0.141175
2652 4 0.511978 0.321059 0.125551
528 4 0.496542 0.313507 0.136305
620 4 0.00470426 0.348701 0.16942
619 2 0.0107617 0.353771 0.145697
621 4 0.0168191 0.35884 0.121974
456 4 0.128345 0.408694 0.138354
524 4 0.26914 0.388664 0.0780569
387 4 0.308308 0.366504 0.15352
385 2 0.328282 0.364882 0.138566
607 2 0.343656 0.377277 0.0850779
623 4 0.357226 0.349304 0.11322
609 4 0.353594 0.366905 0.105544
740 4 0.36739 0.362079 0.118442
386 4 0.348255 0.36326 0.123613
739 2 0.392204 0.365147 0.118684
741 4 0.417017 0.368216 0.118925
670 2 0.439859 0.349626 0.0903577
13 3 0.439182 0.331538 0.143522
672 4 0.434583 0.364567 0.109699
15 3 0.422551 0.360584 0.160768
11 1 0.438655 0.354623 0.14581
526 2 0.488083 0.334943 0.146007
12 3 0.433857 0.364014 0.125366
14 3 0.459338 0.36235 0.152945
495 4 0.475188 0.372483 0.15354
493 2 0.47534 0.39173 0.137581
527 4 0.479625 0.356379 0.15571
597 4 0.492151 0.368371 0.164295
1787 4 0.0652081 0.441076 0.0818585
1788 4 0.027507 0.467828 0.100929
1786 2 0.0463576 0.454452 0.0913936
1466 4 0.0166692 0.481427 0.114299
1791 4 0.0352842 0.48074 0.112074
1465 2 0.999733 0.469626 0.128409
454 2 0.116101 0.426077 0.151511
455 4 0.103858 0.443461 0.164667
627 4 0.226706 0.431657 0.0969546
625 2 0.240316 0.415426 0.0836696
1440 4 0.252651 0.495033 0.0965168
1438 2 0.267123 0.489665 0.116187
639 4 0.280842 0.472398 0.150455
1439 4 0.281595 0.484297 0.135858
637 2 0.265248 0.457718 0.163358
1559 4 0.2946 0.487671 0.148858
494 4 0.475493 0.410978 0.121622
2480 4 0.0159854 0.0536069 0.171975
19 3 0.0281869 0.0681553 0.172606
20 3 0.0557379 0.0652925 0.198109
16 1 0.0455454 0.0792522 0.18328
675 4 0.0748491 0.0579723 0.200255
18 3 0.0373838 0.0979503 0.194334
450 4 0.140297 0.041625 0.187057
673 2 0.0796116 0.0334383 0.201016
674 4 0.0843741 0.00890427 0.201777
448 2 0.144968 0.065272 0.18041
26 1 0.237464 0.0770105 0.195757
27 3 0.220157 0.0684625 0.208269
28 3 0.230095 0.0802674 0.173997
30 3 0.254845 0.0622953 0.195955
581 4 0.260698 0.0523236 0.179908
757 2 0.403145 0.0258765 0.168947
759 4 0.379999 0.0309154 0.17695
310 2 0.345736 0.0453966 0.166393
22 3 0.35414 0.0263029 0.227033
312 4 0.367196 0.0401682 0.178111
25 3 0.372994 0.0348619 0.195982
21 1 0.375075 0.0286602 0.217796
24 3 0.386234 0.00836645 0.219227
23 3 0.386684 0.044932 0.22958
744 4 0.397707 0.0396565 0.247077
742 2 0.407332 0.062731 0.246746
17 3 0.0608529 0.0860314 0.167505
511 2 0.012648 0.140363 0.227223
513 4 0.0362596 0.148527 0.226214
578 4 0.0481906 0.138324 0.239004
723 4 0.151229 0.104554 0.176353
721 2 0.152694 0.120246 0.195764
722 4 0.154158 0.135938 0.215175
546 4 0.163196 0.123286 0.226855
29 3 0.244112 0.097238 0.204981
743 4 0.416957 0.0858055 0.246416
333 4 0.485757 0.153953 0.235619
351 4 0.431814 0.0877134 0.260773
475 2 0.0867757 0.223958 0.17179
477 4 0.0812256 0.238142 0.191619
337 2 0.118347 0.244454 0.211802
338 4 0.141289 0.243061 0.221646
2616 4 0.991826 0.28272 0.201447
750 4 0.0806248 0.256871 0.200203
703 2 0.996715 0.318588 0.186452
395 4 0.0346357 0.295802 0.22399
749 4 0.0383995 0.280898 0.212053
748 2 0.0595122 0.268885 0.206128
394 2 0.0227429 0.284539 0.242881
339 4 0.0954051 0.245847 0.201959
363 4 0.147405 0.259606 0.230929
361 2 0.162255 0.274573 0.217487
537 4 0.184729 0.295722 0.18647
362 4 0.177104 0.289539 0.204046
372 4 0.194195 0.284211 0.199141
370 2 0.219047 0.281478 0.199454
371 4 0.243899 0.278746 0.199766
278 4 0.291302 0.282902 0.16726
610 2 0.302664 0.324603 0.167888
612 4 0.298617 0.300129 0.171025
279 4 0.258015 0.263907 0.199383
277 2 0.274658 0.273405 0.183322
344 4 0.27155 0.322892 0.209949
343 2 0.289615 0.309753 0.221185
345 4 0.307679 0.296615 0.23242
308 4 0.324681 0.286465 0.236458
763 2 0.367338 0.30139 0.166023
307 2 0.343122 0.28802 0.219645
764 4 0.367858 0.304124 0.190871
309 4 0.361563 0.289574 0.202831
705 4 0.000943025 0.343179 0.188056
648 4 0.0141622 0.355976 0.184152
2694 4 0.0217625 0.395424 0.237589
647 4 0.0294027 0.386511 0.220704
646 2 0.0217825 0.371243 0.202428
603 4 0.0387157 0.40001 0.230342
768 4 0.217539 0.402858 0.211116
290 4 0.197544 0.405139 0.206893
611 4 0.30671 0.349077 0.164752
302 4 0.306825 0.366297 0.172019
729 4 0.327008 0.390713 0.23115
301 2 0.31492 0.371307 0.19514
303 4 0.323014 0.376316 0.21826
446 4 0.403743 0.344964 0.238197
614 4 0.38479 0.345153 0.246355
645 4 0.473531 0.365004 0.166631
445 2 0.422418 0.356569 0.226292
447 4 0.441093 0.368174 0.214386
643 2 0.465279 0.372278 0.189085
644 4 0.457027 0.379551 0.211539
263 4 0.0527073 0.467942 0.225624
601 2 0.0450192 0.424064 0.227722
602 4 0.0513227 0.448117 0.225102
262 2 0.0660597 0.489074 0.22503
415 2 0.152618 0.468797 0.197284
413 4 0.161932 0.452583 0.231251
412 2 0.143828 0.449481 0.248216
417 4 0.142303 0.485805 0.182135
416 4 0.162934 0.451789 0.212434
291 4 0.160267 0.435185 0.221328
766 2 0.229564 0.413551 0.191979
289 2 0.178905 0.420162 0.214111
767 4 0.24159 0.424245 0.172842
638 4 0.249654 0.443038 0.176262
660 4 0.300591 0.426981 0.179614
658 2 0.31148 0.429964 0.201923
659 4 0.322369 0.432947 0.224233
1404 4 0.0168459 0.0145472 0.269109
233 4 0.0120846 0.0655275 0.314359
1402 2 0.0165017 0.0347155 0.283884
1403 4 0.0161575 0.0548838 0.298659
317 4 0.0243583 0.0724229 0.300897
530 4 0.00521608 0.0719025 0.299972
1799 4 0.022829 0.995582 0.263431
1700 4 0.203615 0.00286077 0.318401
1749 4 0.488421 0.0211503 0.320217
480 4 0.475549 0.0373355 0.324824
2643 4 0.489441 0.0376916 0.312317
316 2 0.0398188 0.0910121 0.294526
577 2 0.0551277 0.133384 0.262512
318 4 0.0552793 0.109601 0.288155
397 2 0.0475452 0.141436 0.315709
579 4 0.0620649 0.128444 0.286021
398 4 0.057194 0.123556 0.301137
731 4 0.0711169 0.111367 0.289178
732 4 0.116326 0.109652 0.310484
600 4 0.129097 0.118939 0.322245
730 2 0.0937212 0.110509 0.299831
598 2 0.148724 0.115485 0.307146
544 2 0.170303 0.119725 0.250561
599 4 0.168352 0.11203 0.292046
545 4 0.17741 0.116164 0.274267
392 4 0.186989 0.113406 0.290888
391 2 0.208465 0.117664 0.302965
393 4 0.22994 0.121922 0.315041
247 2 0.330414 0.103869 0.31751
249 4 0.31463 0.116579 0.332157
404 4 0.304244 0.131884 0.3279
683 4 0.295948 0.115078 0.324643
403 2 0.304674 0.153545 0.340382
248 4 0.346197 0.0911594 0.302863
633 4 0.385112 0.156351 0.312917
707 4 0.385088 0.157796 0.332438
631 2 0.406631 0.148164 0.303167
632 4 0.428151 0.139977 0.293417
349 2 0.434904 0.105721 0.277842
350 4 0.437994 0.123728 0.294911
452 4 0.441251 0.13954 0.307093
451 2 0.457259 0.132504 0.324964
444 4 0.0317436 0.253701 0.319012
2655 4 0.0479308 0.244178 0.326514
331 2 0.485899 0.173255 0.251512
332 4 0.48604 0.192557 0.267405
521 4 0.498422 0.206038 0.271095
762 4 0.48089 0.203539 0.282175
760 2 0.468834 0.218421 0.298248
761 4 0.456778 0.233303 0.314322
396 4 0.0108501 0.273275 0.261772
443 4 0.00493918 0.270676 0.280359
442 2 0.0183414 0.262188 0.299685
300 4 0.0849996 0.321151 0.276798
298 2 0.107015 0.318679 0.288391
733 2 0.155477 0.314734 0.31825
734 4 0.145034 0.304847 0.297795
299 4 0.12903 0.316206 0.299984
400 2 0.218711 0.30184 0.334111
401 4 0.196556 0.291343 0.329195
498 4 0.289829 0.271012 0.291674
377 4 0.286657 0.291304 0.296742
496 2 0.300368 0.280118 0.270909
497 4 0.310906 0.289223 0.250143
376 2 0.273458 0.299258 0.316432
615 4 0.397433 0.305019 0.273375
613 2 0.391111 0.325086 0.259865
543 4 0.409283 0.315182 0.285319
541 2 0.4315 0.310156 0.29563
542 4 0.453717 0.305129 0.305941
2536 2 0.492061 0.312488 0.286416
2538 4 0.46867 0.311786 0.29522
2924 4 0.466704 0.317507 0.313703
2692 2 0.00513155 0.387039 0.254271
2693 4 0.988501 0.378654 0.270952
727 2 0.334619 0.385138 0.254306
728 4 0.34223 0.379563 0.277461
434 4 0.326696 0.391349 0.282421
433 2 0.321054 0.386486 0.30629
2923 2 0.466229 0.332349 0.33382
549 4 0.0361497 0.435268 0.319674
547 2 0.0599577 0.441638 0.323891
2463 4 0.0180458 0.435129 0.325796
1757 4 0.121989 0.509667 0.273576
548 4 0.0837657 0.448008 0.328107
777 4 0.129495 0.452322 0.283701
775 2 0.115231 0.454493 0.304122
414 4 0.125724 0.446379 0.265181
776 4 0.100967 0.456664 0.324543
1574 4 0.282664 0.49275 0.268794
436 2 0.314094 0.475312 0.290439
437 4 0.301694 0.487923 0.272764
438 4 0.326493 0.462701 0.308113
3 3 0.342115 0.470519 0.316351
4 3 0.367437 0.453377 0.33892
1 1 0.35136 0.470058 0.337628
232 2 0.0138522 0.0539197 0.336434
234 4 0.0156197 0.0423119 0.358509
369 4 0.0654529 0.0834242 0.390159
367 2 0.0717867 0.0668814 0.372513
368 4 0.0781204 0.0503386 0.354866
1780 2 0.087523 0.00839098 0.366813
1781 4 0.0847729 0.0317885 0.358436
1699 2 0.191884 0.0158645 0.336247
1701 4 0.180154 0.0288681 0.354092
319 2 0.224629 0.0701521 0.365653
321 4 0.202098 0.0600035 0.369468
684 4 0.262129 0.0919885 0.353347
257 4 0.376838 0.997329 0.407771
256 2 0.391599 0.0169129 0.412645
576 4 0.393669 0.0668035 0.363848
574 2 0.409367 0.0755135 0.381251
478 2 0.457064 0.0327746 0.341031
479 4 0.438578 0.0282137 0.357238
399 4 0.0378963 0.159317 0.330282
459 4 0.0301626 0.159088 0.348621
719 4 0.0601494 0.0839666 0.408691
320 4 0.247159 0.0803007 0.361837
682 2 0.279039 0.103533 0.338995
405 4 0.305103 0.175206 0.352864
706 2 0.367067 0.144032 0.342973
708 4 0.349046 0.130269 0.353507
575 4 0.425065 0.0842236 0.398655
453 4 0.473268 0.125467 0.342836
514 2 0.454991 0.105889 0.377972
515 4 0.468038 0.117593 0.36014
516 4 0.441944 0.0941853 0.395803
457 2 0.0201194 0.181883 0.350787
458 4 0.0100762 0.204678 0.352953
2653 2 0.0339825 0.24314 0.34724
388 2 0.0126078 0.229022 0.408686
390 4 0.0109781 0.233561 0.384152
2654 4 0.0200342 0.242103 0.367965
686 4 0.138602 0.248279 0.363029
685 2 0.141596 0.224149 0.357202
687 4 0.144589 0.200019 0.351376
474 4 0.28676 0.183754 0.358718
472 2 0.284055 0.196537 0.380036
473 4 0.28135 0.209321 0.401353
489 4 0.279476 0.217552 0.417693
419 4 0.452266 0.228534 0.333729
418 2 0.439617 0.239916 0.35205
268 2 0.422896 0.239355 0.404203
2850 4 0.00512335 0.250725 0.376963
346 2 0.0616448 0.322401 0.38326
348 4 0.0715492 0.302026 0.39384
735 4 0.16592 0.324621 0.338704
677 4 0.160528 0.316578 0.356757
402 4 0.240866 0.312337 0.339027
676 2 0.1757 0.315307 0.376591
678 4 0.190871 0.314037 0.396425
375 4 0.204992 0.319844 0.408717
510 4 0.253248 0.32229 0.344743
378 4 0.260259 0.307212 0.336122
275 4 0.262469 0.273474 0.389664
276 4 0.252185 0.302441 0.350219
274 2 0.257327 0.287958 0.369942
716 4 0.412049 0.314856 0.382385
715 2 0.420169 0.291229 0.381392
420 4 0.426969 0.251298 0.370371
717 4 0.428289 0.267601 0.380399
269 4 0.414515 0.252722 0.384805
347 4 0.0517405 0.342775 0.372679
617 4 0.00615888 0.348515 0.3402
616 2 0.0294556 0.351876 0.348634
618 4 0.0527524 0.355237 0.357069
326 4 0.0687008 0.349429 0.366886
325 2 0.0809753 0.369898 0.359435
327 4 0.0932499 0.390367 0.351983
408 4 0.111618 0.397219 0.357687
435 4 0.315413 0.381622 0.330158
508 2 0.255239 0.343395 0.358002
509 4 0.257229 0.364499 0.371262
503 4 0.254666 0.359769 0.389986
502 2 0.263012 0.351398 0.412018
587 4 0.398039 0.383593 0.367278
586 2 0.374489 0.38922 0.373518
588 4 0.35094 0.394847 0.379757
668 4 0.332903 0.405884 0.376991
753 4 0.414227 0.38953 0.35629
751 2 0.435353 0.376177 0.357045
561 4 0.47382 0.364254 0.364733
752 4 0.456479 0.362824 0.357799
559 2 0.481419 0.362313 0.388475
2925 4 0.465755 0.347191 0.353936
560 4 0.489019 0.360372 0.412216
2461 2 0.00076962 0.44689 0.339521
1383 4 0.0380013 0.481886 0.375381
679 2 0.0424751 0.468911 0.416951
407 4 0.0996173 0.440707 0.336113
501 4 0.119116 0.490116 0.37127
500 4 0.0956834 0.458378 0.340539
406 2 0.105618 0.418963 0.3469
499 2 0.1074 0.474247 0.355904
5 3 0.335064 0.46636 0.353102
2 3 0.361343 0.490349 0.34184
714 4 0.385013 0.446955 0.342811
712 2 0.401821 0.454591 0.359674
669 4 0.323366 0.451023 0.357698
667 2 0.328135 0.428454 0.367344
713 4 0.41863 0.462227 0.376537
718 2 0.0528528 0.0738362 0.430354
720 4 0.0455562 0.0637058 0.452018
2236 2 0.00440689 0.0681354 0.462759
2237 4 0.0286933 0.0624118 0.46115
1127 4 0.045719 0.0637366 0.471154
1126 2 0.0515194 0.0700643 0.494638
1524 4 0.107503 0.99359 0.485063
605 4 0.25318 0.0156381 0.456173
604 2 0.265262 0.0135307 0.477962
258 4 0.406361 0.0364966 0.417519
426 4 0.414056 0.0370735 0.435512
424 2 0.429304 0.0567472 0.437881
425 4 0.444553 0.0764209 0.440251
260 4 0.0320277 0.138736 0.487535
466 2 0.28861 0.12663 0.453602
467 4 0.273711 0.146632 0.455363
468 4 0.303509 0.106628 0.45184
725 4 0.319679 0.0951697 0.448543
724 2 0.328348 0.0934378 0.471932
2880 4 0.487336 0.10707 0.494532
2879 4 0.49275 0.118607 0.446175
2878 2 0.490043 0.112838 0.470353
389 4 0.0142375 0.224483 0.43322
410 4 0.285142 0.199778 0.418185
411 4 0.275429 0.166908 0.454599
487 2 0.269377 0.238155 0.427628
409 2 0.280285 0.183343 0.436392
306 4 0.444674 0.213413 0.416891
270 4 0.431277 0.225989 0.423601
3157 2 0.483363 0.207989 0.492076
3159 4 0.468603 0.192383 0.479279
305 4 0.465773 0.201441 0.46062
304 2 0.455224 0.207427 0.438756
695 4 0.134037 0.272403 0.437427
694 2 0.138261 0.285986 0.457991
696 4 0.142484 0.299568 0.478554
10 3 0.140053 0.317837 0.484234
1260 4 0.152781 0.305477 0.49218
983 4 0.0901958 0.329238 0.480156
373 2 0.200548 0.304999 0.42834
374 4 0.196105 0.290153 0.447962
488 4 0.259278 0.258758 0.437564
266 4 0.266797 0.276782 0.442702
265 2 0.269218 0.301605 0.444467
267 4 0.271639 0.326429 0.446233
584 4 0.4924 0.266909 0.445154
583 2 0.467646 0.26423 0.442857
585 4 0.442893 0.261551 0.44056
568 2 0.0762299 0.393334 0.472736
570 4 0.0729094 0.36976 0.465091
6 1 0.131843 0.338704 0.480256
9 3 0.108677 0.338476 0.481547
7 3 0.138049 0.345389 0.459139
8 3 0.14049 0.353694 0.495714
709 2 0.18307 0.359264 0.49068
710 4 0.206273 0.36124 0.481576
803 4 0.224265 0.367311 0.485417
802 2 0.230534 0.391485 0.484178
650 4 0.216442 0.353625 0.496286
804 4 0.236802 0.415658 0.482939
504 4 0.271358 0.343027 0.434051
336 4 0.376461 0.415979 0.438018
3308 4 0.493871 0.358114 0.490418
2507 4 0.490953 0.348244 0.428894
240 4 0.435727 0.416857 0.459924
238 2 0.448214 0.414388 0.481446
239 4 0.4607 0.411919 0.502967
569 4 0.0795504 0.416907 0.480381
384 4 0.0623997 0.428556 0.477917
539 4 0.0771442 0.433006 0.489022
383 4 0.0315701 0.462805 0.458494
681 4 0.0417447 0.462751 0.441173
382 2 0.0469849 0.44568 0.468205
538 2 0.09979 0.441424 0.495462
774 4 0.14743 0.487293 0.489702
1557 4 0.201358 0.503914 0.440516
636 4 0.189115 0.490996 0.449901
635 4 0.152387 0.472478 0.478342
634 2 0.170751 0.481737 0.464122
1453 2 0.298052 0.460741 0.487227
882 4 0.335401 0.437064 0.482725
1454 4 0.316971 0.444485 0.485496
881 4 0.357854 0.424658 0.439799
880 2 0.346627 0.430861 0.461262
334 2 0.398714 0.42305 0.446961
335 4 0.420967 0.430121 0.455905
1128 4 0.0573198 0.0763921 0.518122
939 4 0.0727041 0.0799604 0.529738
1057 2 0.143024 0.0575497 0.558246
1058 4 0.14862 0.0415746 0.576649
1059 4 0.137427 0.0735249 0.539844
937 2 0.0971636 0.074839 0.530564
938 4 0.121623 0.0697176 0.53139
341 4 0.199922 0.0162086 0.559915
340 2 0.215282 0.0326302 0.54898
342 4 0.230643 0.0490518 0.538046
1182 4 0.231291 0.0678079 0.542859
1152 4 0.223031 0.0609197 0.525657
1150 2 0.206288 0.0737532 0.512235
1180 2 0.254519 0.0760355 0.547094
961 2 0.295376 0.0537519 0.57371
963 4 0.29188 0.0746248 0.560396
1181 4 0.277747 0.0842631 0.551328
432 4 0.292737 0.0754869 0.541251
430 2 0.310683 0.0764993 0.52387
606 4 0.277344 0.0114234 0.499751
842 4 0.381556 0.0497778 0.516918
841 2 0.362387 0.0614637 0.505911
1217 4 0.398379 0.0468257 0.526118
1581 4 0.390123 0.0323719 0.515111
1579 2 0.384712 0.00824442 0.511401
843 4 0.343218 0.0731496 0.494904
1216 2 0.415639 0.0633598 0.533459
1218 4 0.432899 0.0798939 0.5408
261 4 0.0632757 0.123321 0.523406
1033 2 0.0687077 0.148635 0.553782
1034 4 0.0683555 0.155283 0.577883
259 2 0.0476517 0.131028 0.505471
1035 4 0.06906 0.141988 0.529681
1155 4 0.133369 0.085076 0.525731
1153 2 0.155052 0.0927002 0.515887
1154 4 0.176735 0.100324 0.506043
1151 4 0.189545 0.0865867 0.498814
431 4 0.328629 0.0775118 0.506488
726 4 0.337016 0.0917059 0.495321
641 4 0.450411 0.0851074 0.531496
640 2 0.470913 0.096597 0.522962
642 4 0.491416 0.108087 0.514428
858 4 0.171508 0.211955 0.55489
857 4 0.215027 0.23268 0.568207
856 2 0.193267 0.222317 0.561548
872 4 0.341363 0.24734 0.546657
898 2 0.346415 0.196408 0.539091
900 4 0.348237 0.210928 0.518817
899 4 0.344593 0.181889 0.559365
3158 4 0.498123 0.223596 0.504873
982 2 0.0816597 0.337808 0.502039
1258 2 0.175369 0.307182 0.502765
1259 4 0.197957 0.308888 0.513351
651 4 0.250981 0.324497 0.517719
873 4 0.293988 0.249649 0.530814
811 2 0.291164 0.330367 0.523795
812 4 0.26826 0.334232 0.514539
1239 4 0.330447 0.318525 0.539874
813 4 0.314068 0.326502 0.53305
871 2 0.317675 0.248494 0.538736
1237 2 0.347656 0.303931 0.550646
952 2 0.393864 0.268571 0.573367
1238 4 0.364865 0.289337 0.561418
953 4 0.37333 0.281955 0.578308
792 4 0.354611 0.284431 0.576057
954 4 0.414397 0.255186 0.568427
3064 2 0.491345 0.248401 0.535202
3065 4 0.48301 0.255098 0.557804
905 4 0.474144 0.251221 0.576107
904 2 0.450313 0.245128 0.571622
906 4 0.426482 0.239035 0.567136
1136 4 0.0643911 0.354444 0.540391
984 4 0.0731236 0.346378 0.523922
1135 2 0.0727702 0.36798 0.559672
1137 4 0.0811493 0.381517 0.578952
896 4 0.139327 0.404335 0.561359
895 2 0.116111 0.400677 0.569892
1191 4 0.145692 0.394704 0.546429
1189 2 0.147991 0.377285 0.528638
1190 4 0.150289 0.359867 0.510848
1161 4 0.158208 0.402599 0.558205
897 4 0.092895 0.397019 0.578426
711 4 0.159866 0.357288 0.499783
1159 2 0.176444 0.405356 0.575088
649 2 0.233711 0.339061 0.507002
1001 4 0.419182 0.37478 0.562419
1000 2 0.404126 0.388527 0.576894
928 2 0.356241 0.414878 0.575249
925 2 0.448443 0.395543 0.537578
926 4 0.460379 0.408131 0.519571
3309 4 0.474218 0.400164 0.509028
927 4 0.436508 0.382955 0.555586
663 4 0.476142 0.417446 0.515978
3307 2 0.484045 0.379139 0.499723
2243 4 0.147745 0.415706 0.549173
2242 2 0.14333 0.433867 0.532563
2244 4 0.138916 0.452027 0.515953
540 4 0.122436 0.449843 0.501903
773 4 0.140324 0.494653 0.538651
772 2 0.143877 0.490973 0.514177
1171 2 0.300566 0.440765 0.574501
1172 4 0.323736 0.443353 0.565466
1455 4 0.279133 0.476998 0.488958
929 4 0.338718 0.431648 0.569175
891 4 0.341875 0.450235 0.570278
1173 4 0.277396 0.438176 0.583535
2153 4 0.258571 0.479858 0.492864
889 2 0.356742 0.470069 0.573558
1909 2 0.405547 0.49294 0.563696
890 4 0.371609 0.489904 0.576837
1910 4 0.429242 0.484968 0.563282
1330 2 0.463827 0.487635 0.557991
1331 4 0.444942 0.493412 0.573325
661 2 0.475866 0.440273 0.526178
662 4 0.47559 0.463099 0.536379
1332 4 0.482712 0.481858 0.542656
2319 4 0.0531896 0.0409038 0.613867
2317 2 0.0528048 0.016736 0.607468
945 4 0.0381082 0.0484375 0.625002
943 2 0.0223312 0.0639212 0.613317
944 4 0.00655428 0.0794048 0.601633
2131 2 0.233357 0.0196893 0.649713
2133 4 0.214011 0.00387295 0.650585
2132 4 0.252703 0.0355057 0.648841
949 2 0.281791 0.0236874 0.621913
962 4 0.298872 0.032879 0.587025
950 4 0.300446 0.0260455 0.605432
2196 4 0.303423 0.0145755 0.590092
951 4 0.263137 0.0213293 0.638394
2194 2 0.321483 0.997345 0.591557
1005 4 0.332295 0.0393822 0.632075
89 3 0.378458 0.00477901 0.583634
1003 2 0.35193 0.0240085 0.633888
1004 4 0.371565 0.00863468 0.635702
1092 4 0.385185 0.00406483 0.630835
1090 2 0.40678 0.00818582 0.642746
1091 4 0.428374 0.0123068 0.654657
1272 4 0.0736127 0.150783 0.595797
879 4 0.0549857 0.155578 0.592335
877 2 0.0310855 0.162835 0.593474
1221 4 0.123226 0.14158 0.63973
1270 2 0.0896451 0.142951 0.613313
1219 2 0.144732 0.152087 0.646959
1271 4 0.105677 0.135119 0.630829
1283 4 0.19257 0.0969202 0.648638
1031 4 0.249031 0.11063 0.619583
1284 4 0.22939 0.114128 0.619502
1282 2 0.21098 0.105524 0.63407
888 4 0.242991 0.166515 0.656455
1220 4 0.166238 0.162594 0.654189
1211 4 0.229877 0.157765 0.643683
1030 2 0.272336 0.108227 0.628317
1032 4 0.295642 0.105824 0.63705
810 4 0.442461 0.138674 0.646134
808 2 0.452604 0.124085 0.663725
878 4 0.00718529 0.170091 0.594614
796 2 0.163486 0.205813 0.649459
798 4 0.165695 0.181471 0.654727
797 4 0.161278 0.230156 0.64419
947 4 0.163873 0.241967 0.627742
1210 2 0.205787 0.164247 0.645359
1212 4 0.181696 0.170729 0.647034
946 2 0.182718 0.253229 0.615774
1026 4 0.504023 0.205664 0.628724
1025 4 0.472443 0.176061 0.603683
1024 2 0.488233 0.190863 0.616204
1243 2 0.0420633 0.260638 0.638878
1244 4 0.0328306 0.265693 0.616198
3044 4 0.0367109 0.268477 0.59539
3043 2 0.0158518 0.256689 0.58824
1245 4 0.051296 0.255582 0.661558
948 4 0.201562 0.264491 0.603806
791 4 0.329431 0.251839 0.604418
790 2 0.342021 0.268135 0.590237
3262 2 0.999635 0.411122 0.650307
1039 2 0.0847017 0.384821 0.611307
1041 4 0.0765492 0.395832 0.590392
3264 4 0.00409781 0.403157 0.62703
993 4 0.0957303 0.388863 0.64685
1040 4 0.0928542 0.373809 0.632223
991 2 0.0829392 0.384208 0.667823
1160 4 0.19468 0.408113 0.591971
1188 4 0.254005 0.416493 0.633429
1002 4 0.389069 0.402273 0.591369
930 4 0.373763 0.398108 0.581324
807 4 0.371644 0.39156 0.651426
805 2 0.373323 0.392986 0.62652
806 4 0.375001 0.394412 0.601614
3263 4 0.995173 0.419088 0.673584
1138 2 0.244059 0.428813 0.665946
1140 4 0.259713 0.430801 0.64655
1187 4 0.257276 0.438359 0.588575
1186 2 0.25564 0.427426 0.611002
1269 4 0.469441 0.416603 0.605887
1267 2 0.463993 0.4321 0.624738
1268 4 0.458544 0.447597 0.643588
2168 4 0.450873 0.4638 0.649844
1100 4 0.467625 0.45583 0.658117
2167 2 0.427017 0.465745 0.657075
1298 4 0.307702 0.0712902 0.713898
43 3 0.450894 0.0701983 0.681054
1163 4 0.496938 0.0753597 0.710026
2321 4 0.504831 0.0224963 0.754699
1162 2 0.502145 0.056308 0.725359
909 4 0.178906 0.0990448 0.663665
908 4 0.191615 0.105704 0.711569
907 2 0.18526 0.102374 0.687617
1227 4 0.2005 0.101805 0.729467
831 4 0.295635 0.128072 0.742121
1299 4 0.294375 0.10899 0.743928
1297 2 0.301038 0.0901403 0.728913
829 2 0.287558 0.146832 0.727699
886 2 0.256423 0.16849 0.677452
830 4 0.279481 0.165593 0.713277
42 3 0.48521 0.0766791 0.694949
41 1 0.462718 0.0799892 0.698454
44 3 0.456741 0.0701649 0.718607
809 4 0.462748 0.109495 0.681316
45 3 0.458444 0.102348 0.699139
3426 4 0.498129 0.0888604 0.704129
852 4 0.0268153 0.225012 0.728318
850 2 0.0376409 0.202494 0.727362
1208 4 0.0360963 0.238597 0.717865
1207 2 0.0494656 0.245274 0.697818
851 4 0.0484664 0.179976 0.726407
1107 4 0.0643355 0.186797 0.738299
1178 4 0.0291881 0.238551 0.73634
3038 4 0.0170007 0.235391 0.721213
1215 4 0.0115677 0.229933 0.739409
1105 2 0.0864621 0.191143 0.749102
1073 4 0.118707 0.206789 0.759833
1131 4 0.212875 0.188295 0.756712
887 4 0.269855 0.170466 0.698448
976 2 0.300047 0.199953 0.70029
978 4 0.288039 0.178166 0.702807
977 4 0.312055 0.221739 0.697773
918 4 0.316099 0.23916 0.707694
916 2 0.328401 0.246219 0.728286
1194 4 0.369126 0.205375 0.707072
1192 2 0.362138 0.199509 0.730351
1193 4 0.35515 0.193643 0.753631
1209 4 0.0628349 0.25195 0.677772
814 2 0.0766399 0.297781 0.734202
1177 2 0.0402758 0.256815 0.749327
816 4 0.0632135 0.285142 0.751089
3274 2 0.00630079 0.310937 0.71655
3275 4 0.0218138 0.295893 0.703971
815 4 0.0900663 0.310419 0.717314
941 4 0.148471 0.313298 0.689361
940 2 0.126026 0.318048 0.699305
942 4 0.103582 0.322797 0.709249
894 4 0.0875271 0.329794 0.717962
821 4 0.159557 0.299053 0.689632
1067 4 0.166993 0.318143 0.687957
820 2 0.164696 0.275306 0.695534
822 4 0.169836 0.251559 0.701436
893 4 0.0600756 0.367343 0.6996
1280 4 0.0522256 0.385042 0.693082
892 2 0.0738013 0.348568 0.708781
1279 2 0.0426304 0.406664 0.701183
992 4 0.0701482 0.379553 0.688797
1066 2 0.185226 0.335113 0.690139
1028 4 0.201234 0.370973 0.687081
1027 2 0.207884 0.394548 0.692096
1068 4 0.203459 0.352083 0.692321
1029 4 0.214534 0.418124 0.69711
1206 4 0.433124 0.412198 0.701715
1204 2 0.43741 0.387591 0.702853
1205 4 0.441697 0.362984 0.70399
2987 4 0.483678 0.386772 0.744519
1281 4 0.0330351 0.428285 0.709284
1983 4 0.0243008 0.438551 0.724778
1981 2 0.0106909 0.456735 0.714325
885 4 0.041872 0.431264 0.725952
883 2 0.0562222 0.437868 0.745333
1139 4 0.228406 0.426824 0.685342
1987 2 0.347758 0.436396 0.752619
1989 4 0.36646 0.441105 0.736705
1228 2 0.397063 0.421887 0.72209
1229 4 0.372939 0.425855 0.727328
2169 4 0.403161 0.46769 0.664306
1230 4 0.421188 0.417919 0.716851
1099 2 0.479545 0.445404 0.677466
1101 4 0.491466 0.434977 0.696815
1202 4 0.156035 0.0125616 0.794405
1201 2 0.145134 0.0236683 0.813975
2049 4 0.155307 0.00800374 0.774978
1203 4 0.134233 0.0347749 0.833545
1147 2 0.205672 0.0804329 0.810091
1148 4 0.189844 0.0943164 0.796604
1149 4 0.2215 0.0665494 0.823579
1257 4 0.239135 0.0734028 0.820996
1255 2 0.262737 0.0809223 0.817597