ITEM: TIMESTEP
900000
ITEM: NUMBER OF ATOMS
4590
ITEM: BOX BOUNDS pp pp pp
-9.9985700000000008e+00 9.9985700000000008e+00
-9.9985700000000008e+00 9.9985700000000008e+00
-9.9985700000000008e+00 9.9985700000000008e+00
ITEM: ATOMS id type xs ys zs
1668 4 0.0677045 0.0537621 0.0676603
1475 4 0.282453 0.0316829 0.0592178
492 4 0.290581 0.0391315 0.0760002
1474 2 0.294919 0.0100368 0.0581106
987 4 0.407741 0.00907552 0.00954366
747 4 0.454603 0.0553798 0.0173858
2974 2 0.476824 0.0243268 0.0391994
2976 4 0.4894 0.00549596 0.0498023
2975 4 0.464248 0.0431576 0.0285966
986 4 0.446324 0.0382736 0.0221749
745 2 0.44425 0.078114 0.0163052
985 2 0.427032 0.0236746 0.0158593
567 4 0.196355 0.149227 0.0365934
565 2 0.176024 0.154697 0.0500817
297 4 0.322788 0.0889863 0.064019
360 4 0.309312 0.167678 0.0601499
358 2 0.330663 0.155389 0.064431
295 2 0.341426 0.0998321 0.0513628
296 4 0.360064 0.110678 0.0387067
557 4 0.363769 0.108994 0.0187803
556 2 0.388477 0.105186 0.0192405
769 2 0.38471 0.156762 0.0562534
770 4 0.36093 0.159793 0.0633606
359 4 0.352013 0.1431 0.068712
558 4 0.413184 0.101377 0.0197007
746 4 0.433898 0.100848 0.0152246
771 4 0.40849 0.153731 0.0491462
566 4 0.155694 0.160166 0.0635699
664 2 0.361253 0.21021 0.0228267
665 4 0.350691 0.18791 0.0187878
666 4 0.371816 0.23251 0.0268656
323 4 0.393799 0.24317 0.0722388
554 4 0.0943735 0.241955 0.0141316
553 2 0.0843521 0.261835 0.0255123
555 4 0.0743308 0.281716 0.036893
656 4 0.00293976 0.303965 0.0711845
507 4 0.17381 0.306463 0.0379819
287 4 0.160148 0.319861 0.041939
292 2 0.153904 0.276598 0.0184086
293 4 0.165771 0.28872 0.036777
505 2 0.18734 0.297236 0.0568757
506 4 0.20087 0.288009 0.0757695
481 2 0.232744 0.262505 0.0684995
482 4 0.254808 0.254756 0.0596487
573 4 0.262614 0.248379 0.042106
572 4 0.295965 0.26754 0.0101486
571 2 0.279289 0.257959 0.0261273
957 4 0.327575 0.311244 0.00458958
322 2 0.402361 0.256992 0.053243
1069 2 0.399439 0.286293 0.00573851
324 4 0.410924 0.270813 0.0342472
741 4 0.352588 0.328488 0.0522783
1070 4 0.418518 0.273213 0.0152301
671 4 0.446643 0.32339 0.0672137
280 2 0.445153 0.300725 0.034623
281 4 0.455104 0.318148 0.0495429
282 4 0.435201 0.283303 0.0197031
286 2 0.155995 0.344144 0.0376628
288 4 0.151843 0.368426 0.0333866
456 4 0.17401 0.367605 0.0752564
955 2 0.334831 0.333997 0.997184
250 2 0.307993 0.404443 0.0336733
251 4 0.295695 0.390949 0.0165896
739 2 0.343339 0.338393 0.0732907
956 4 0.342087 0.35675 0.989778
245 4 0.222855 0.452844 0.0766884
626 4 0.207177 0.439662 0.0741944
244 2 0.23317 0.458192 0.0545488
246 4 0.243486 0.463541 0.0324092
1778 4 0.216615 0.497086 0.055174
272 4 0.245691 0.469652 0.0130851
252 4 0.32029 0.417938 0.050757
609 4 0.308513 0.418175 0.0672653
563 4 0.477753 0.470259 0.0313171
228 4 0.471606 0.460894 0.0477467
226 2 0.467865 0.447107 0.0682673
562 2 0.45739 0.483624 0.0256692
227 4 0.464124 0.433319 0.0887879
1666 2 0.0767564 0.0631354 0.089
19 3 0.0500918 0.0618023 0.141209
1667 4 0.0858082 0.0725087 0.11034
448 2 0.204249 0.0701767 0.164524
1506 4 0.243815 0.0207522 0.158105
1539 4 0.171042 0.00589683 0.132371
490 2 0.277054 0.0529779 0.0918264
652 2 0.284999 0.0176935 0.159547
491 4 0.263527 0.0668243 0.107653
654 4 0.261844 0.0180633 0.150121
311 4 0.3771 0.0644347 0.151279
2722 2 0.465041 0.0528578 0.148288
2723 4 0.443726 0.065852 0.146874
2724 4 0.486356 0.0398636 0.149702
1760 4 0.497636 0.0229003 0.148241
1759 2 0.499592 0.998398 0.143658
2744 4 0.502246 0.0372711 0.160101
701 4 0.0963864 0.0863103 0.120102
700 2 0.0931474 0.108649 0.130856
702 4 0.0899084 0.130988 0.141611
476 4 0.101954 0.14254 0.153045
449 4 0.19553 0.0889305 0.150473
236 4 0.191136 0.106873 0.159313
737 4 0.20281 0.154602 0.134454
582 4 0.26967 0.151057 0.159712
310 2 0.393076 0.0836581 0.150643
628 2 0.405385 0.136108 0.124558
630 4 0.394639 0.154115 0.110941
312 4 0.409053 0.102881 0.150008
629 4 0.416132 0.1181 0.138174
254 4 0.377093 0.160004 0.118889
2625 4 0.0201064 0.179412 0.104974
2623 2 0.00329492 0.164907 0.116469
736 2 0.188589 0.174718 0.130182
738 4 0.174368 0.194835 0.12591
461 4 0.302739 0.230581 0.0925849
460 2 0.322926 0.216678 0.0876453
354 4 0.286131 0.238976 0.100977
278 4 0.267392 0.243162 0.160041
352 2 0.282755 0.24364 0.125308
353 4 0.27938 0.248305 0.14964
284 4 0.287821 0.244404 0.165607
462 4 0.343112 0.202776 0.0827058
255 4 0.356436 0.200621 0.0982911
253 2 0.366764 0.180312 0.10859
765 4 0.380203 0.237947 0.145817
763 2 0.360678 0.228946 0.158582
518 4 0.475054 0.252822 0.108192
528 4 0.461995 0.250672 0.12338
339 4 0.0826966 0.274494 0.12275
337 2 0.0794081 0.263139 0.144782
483 4 0.210681 0.270254 0.0773504
536 4 0.183045 0.285408 0.122937
535 2 0.186566 0.310054 0.125245
754 2 0.258477 0.283916 0.156203
755 4 0.263855 0.260133 0.150669
756 4 0.253099 0.307698 0.161738
624 4 0.375857 0.247388 0.127583
622 2 0.37864 0.252499 0.103266
623 4 0.381422 0.25761 0.0789495
670 2 0.426008 0.327995 0.0805616
526 2 0.463403 0.267443 0.141872
527 4 0.464812 0.284213 0.160364
551 4 0.0713397 0.391778 0.0890419
648 4 0.0757247 0.352223 0.145064
550 2 0.0946405 0.382708 0.0890776
552 4 0.117941 0.373639 0.0891133
455 4 0.132266 0.387416 0.0943785
454 2 0.153138 0.37751 0.0848174
537 4 0.190087 0.334701 0.127554
417 4 0.176254 0.405271 0.161341
302 4 0.305178 0.357557 0.156395
387 4 0.321014 0.347094 0.150091
385 2 0.332424 0.353565 0.128805
672 4 0.405373 0.3326 0.0939095
740 4 0.334089 0.348298 0.0943031
15 3 0.362836 0.366439 0.104502
386 4 0.343834 0.360036 0.107518
11 1 0.384807 0.360504 0.10533
13 3 0.390227 0.353166 0.126665
14 3 0.398122 0.37861 0.0995595
495 4 0.411888 0.393418 0.0977285
12 3 0.388608 0.343421 0.0904009
493 2 0.409707 0.415241 0.109736
315 4 0.997467 0.438679 0.127547
625 2 0.195066 0.446031 0.0951217
627 4 0.182956 0.452399 0.116049
607 2 0.319055 0.432223 0.0850603
608 4 0.329598 0.446272 0.102855
658 2 0.368653 0.451626 0.11956
659 4 0.345549 0.455512 0.110827
660 4 0.391757 0.447739 0.128294
494 4 0.407526 0.437064 0.121744
18 3 0.0630386 0.0331592 0.162572
16 1 0.055632 0.0551483 0.162737
20 3 0.0718509 0.068748 0.171142
17 3 0.0369043 0.0565877 0.176017
2480 4 0.0220494 0.0424652 0.173897
1422 4 0.0237648 0.0216344 0.171866
1420 2 0.0298279 0.997443 0.170073
673 2 0.131 0.0235433 0.23838
674 4 0.147013 0.028013 0.219703
450 4 0.212969 0.0514229 0.178575
693 4 0.243318 0.0707525 0.227609
691 2 0.228206 0.0657786 0.246898
689 4 0.190245 0.0138374 0.23174
688 2 0.19261 0.996157 0.21422
1504 2 0.232667 0.00778075 0.176343
653 4 0.308155 0.0173238 0.168973
24 3 0.31798 0.064428 0.241684
25 3 0.336208 0.043812 0.215987
758 4 0.378772 0.0617867 0.17058
21 1 0.338361 0.0551342 0.235629
759 4 0.35157 0.0609211 0.212532
22 3 0.353747 0.0720292 0.232989
757 2 0.365171 0.0613539 0.191556
380 4 0.0201552 0.0940327 0.176917
578 4 0.0725914 0.103313 0.190688
379 2 0.0257337 0.116203 0.187043
381 4 0.0313122 0.138373 0.197169
512 4 0.0441678 0.141373 0.211779
511 2 0.0476719 0.157643 0.230439
475 2 0.101732 0.144045 0.178002
477 4 0.101509 0.145549 0.20296
577 2 0.0854548 0.10278 0.212122
579 4 0.0983183 0.102248 0.233556
237 4 0.218434 0.145178 0.176292
235 2 0.204785 0.126026 0.167802
581 4 0.313675 0.127335 0.160954
580 2 0.291673 0.139196 0.160333
28 3 0.309895 0.154027 0.242298
333 4 0.476674 0.122882 0.235081
331 2 0.475361 0.147552 0.238933
513 4 0.051176 0.173912 0.2491
363 4 0.0805591 0.241297 0.184068
443 4 0.996421 0.229904 0.246698
279 4 0.228785 0.220832 0.182658
546 4 0.180187 0.191399 0.240861
277 2 0.248088 0.231997 0.17135
283 2 0.308331 0.235174 0.176532
285 4 0.32884 0.225945 0.187457
764 4 0.341154 0.219944 0.171347
521 4 0.483871 0.186273 0.230996
332 4 0.474048 0.172222 0.242786
338 4 0.0761195 0.251784 0.166815
394 2 0.0107268 0.254811 0.215076
395 4 0.0253454 0.265424 0.197789
748 2 0.0788763 0.299506 0.242744
749 4 0.0769802 0.276519 0.233091
361 2 0.0862723 0.255141 0.204089
371 4 0.160334 0.279471 0.213734
370 2 0.136589 0.27449 0.219777
372 4 0.112843 0.26951 0.22582
362 4 0.0919855 0.268986 0.224111
343 2 0.233203 0.306864 0.248688
611 4 0.24889 0.338328 0.22133
344 4 0.241455 0.323496 0.231942
612 4 0.243562 0.314474 0.177703
610 2 0.246226 0.326401 0.199517
307 2 0.316835 0.299567 0.235035
308 4 0.31643 0.291354 0.211422
647 4 0.0878753 0.326668 0.186295
646 2 0.0818 0.339445 0.16568
415 2 0.19954 0.396171 0.161703
291 4 0.241728 0.393255 0.160189
416 4 0.222827 0.387072 0.162064
289 2 0.252736 0.409355 0.175835
303 4 0.315618 0.366508 0.204475
301 2 0.310398 0.362033 0.180435
729 4 0.313734 0.384392 0.212115
727 2 0.322288 0.37978 0.235152
447 4 0.40332 0.390917 0.241996
644 4 0.417618 0.377027 0.239533
595 2 0.471228 0.407157 0.187332
597 4 0.471613 0.385373 0.1996
643 2 0.438397 0.383787 0.227378
645 4 0.459175 0.390547 0.215223
262 2 0.0135238 0.426227 0.234581
264 4 0.0263019 0.416577 0.253785
767 4 0.275989 0.488388 0.172874
290 4 0.263745 0.425455 0.19148
768 4 0.268012 0.439198 0.177047
766 2 0.272 0.463793 0.174961
596 4 0.470843 0.42894 0.175064
231 4 0.430489 0.467794 0.206609
229 2 0.417815 0.485666 0.218655
232 2 0.0223137 0.0272884 0.290556
233 4 0.0424889 0.0249305 0.275976
1402 2 0.0858104 0.022895 0.276038
1404 4 0.0620407 0.0306286 0.276648
316 2 0.0580196 0.0622047 0.338404
317 4 0.0504798 0.0387809 0.342838
675 4 0.114988 0.0190736 0.257056
1403 4 0.10958 0.0151614 0.275429
1464 4 0.111787 0.999034 0.287986
692 4 0.213094 0.0608047 0.266187
723 4 0.223892 0.0665078 0.280389
23 3 0.345775 0.0407702 0.252275
1496 4 0.367491 0.00619858 0.272863
479 4 0.489197 0.0496511 0.307855
743 4 0.514038 0.0684717 0.25851
478 2 0.472723 0.0661409 0.298806
258 4 0.440412 0.0202862 0.336084
531 4 0.989035 0.160771 0.30043
398 4 0.0647148 0.134616 0.310726
397 2 0.0626793 0.117498 0.328836
318 4 0.0655593 0.0856284 0.33397
721 2 0.226168 0.0823711 0.299582
722 4 0.228444 0.0982344 0.318775
249 4 0.229681 0.112024 0.33205
404 4 0.245899 0.123296 0.337743
403 2 0.255699 0.146297 0.337411
405 4 0.265498 0.169297 0.337079
29 3 0.330588 0.162151 0.273123
632 4 0.381042 0.097175 0.266175
707 4 0.339706 0.149947 0.285748
633 4 0.350762 0.134174 0.280833
631 2 0.365902 0.115675 0.273504
706 2 0.348503 0.161799 0.30593
350 4 0.395529 0.110608 0.272171
480 4 0.45625 0.0826307 0.289757
351 4 0.441239 0.0911229 0.277792
349 2 0.418384 0.100866 0.274982
393 4 0.0607687 0.163855 0.264196
444 4 0.0179135 0.224264 0.291497
391 2 0.0745983 0.181946 0.274523
442 2 0.00716702 0.227084 0.269098
392 4 0.0884279 0.200036 0.28485
388 2 0.102515 0.234905 0.321993
545 4 0.155641 0.21588 0.276902
390 4 0.122975 0.248667 0.317851
544 2 0.167914 0.20364 0.258882
400 2 0.196886 0.22695 0.299342
402 4 0.194125 0.205562 0.28669
26 1 0.312322 0.168478 0.260289
27 3 0.315855 0.189761 0.252308
30 3 0.293439 0.168279 0.273019
708 4 0.3573 0.173651 0.326113
717 4 0.396485 0.224815 0.325479
762 4 0.486524 0.18492 0.249591
761 4 0.470548 0.198758 0.294911
760 2 0.478536 0.191839 0.272251
750 4 0.0807723 0.322493 0.252397
300 4 0.100604 0.316383 0.256044
298 2 0.120027 0.331 0.261898
345 4 0.22495 0.290231 0.265434
401 4 0.199647 0.248339 0.311994
676 2 0.205912 0.334695 0.322124
496 2 0.311601 0.323504 0.285133
497 4 0.301677 0.320856 0.307929
377 4 0.303722 0.303101 0.315518
498 4 0.321524 0.326151 0.262336
309 4 0.317241 0.307779 0.258648
376 2 0.284905 0.295018 0.329862
541 2 0.375056 0.299174 0.326536
543 4 0.356871 0.31633 0.326932
364 2 0.00519056 0.377287 0.284661
365 4 0.0219006 0.387053 0.268832
601 2 0.0546843 0.40328 0.291515
603 4 0.0378396 0.387294 0.282249
602 4 0.071529 0.419267 0.300781
299 4 0.13945 0.345617 0.267753
734 4 0.156151 0.358286 0.26636
677 4 0.208647 0.336295 0.297321
733 2 0.178378 0.355143 0.277371
735 4 0.200605 0.352 0.288383
433 2 0.305005 0.378242 0.322995
434 4 0.329799 0.379326 0.319954
615 4 0.365597 0.333038 0.320064
728 4 0.330842 0.375167 0.25819
613 2 0.355926 0.355422 0.314533
614 4 0.346255 0.377807 0.309002
445 2 0.391509 0.378606 0.260275
446 4 0.379698 0.366295 0.278553
1757 4 0.0875823 0.483896 0.263762
549 4 0.0693742 0.409051 0.317616
2463 4 0.0052295 0.472685 0.320796
2461 2 0.0229609 0.490043 0.323872
777 4 0.103071 0.457649 0.305362
775 2 0.103765 0.47334 0.324817
412 2 0.214784 0.487534 0.326231
413 4 0.236641 0.496864 0.318462
436 2 0.329268 0.463247 0.319602
1437 4 0.287541 0.471204 0.297845
1435 2 0.271301 0.487462 0.3077
437 4 0.34145 0.450069 0.302192
118 3 0.492974 0.426566 0.333226
428 4 0.0532205 0.0203195 0.347075
1781 4 0.124525 0.00769041 0.392117
368 4 0.119395 0.00622979 0.411468
439 2 0.309542 0.998024 0.424376
1700 4 0.288319 0.0334043 0.330237
1699 2 0.284108 0.0100646 0.338155
683 4 0.28075 0.0624269 0.398111
699 4 0.350114 0.0741485 0.35028
697 2 0.368194 0.0568934 0.351016
698 4 0.386274 0.0396384 0.351753
257 4 0.401606 0.0353895 0.363773
426 4 0.387586 0.0207949 0.421864
424 2 0.362788 0.0237745 0.423019
425 4 0.337989 0.0267541 0.424174
1428 4 0.457824 0.0155085 0.341642
256 2 0.421009 0.0278378 0.349928
399 4 0.0606437 0.100379 0.346947
732 4 0.0781434 0.0927735 0.34686
2586 4 0.99575 0.134474 0.392565
457 2 0.0332668 0.148437 0.408025
458 4 0.0149179 0.134341 0.398549
606 4 0.138567 0.0753105 0.362488
604 2 0.157391 0.090579 0.368628
731 4 0.122215 0.0863326 0.369597
730 2 0.100179 0.0895531 0.358228
598 2 0.149995 0.148405 0.372793
599 4 0.129163 0.149595 0.359016
600 4 0.170826 0.147215 0.38657
605 4 0.176216 0.105848 0.374768
248 4 0.18847 0.105522 0.359621
247 2 0.209075 0.108773 0.345835
473 4 0.235265 0.17272 0.359089
682 2 0.286122 0.084628 0.40828
684 4 0.291495 0.106829 0.41845
320 4 0.29105 0.125159 0.410225
452 4 0.452585 0.146807 0.388883
2879 4 0.485468 0.0725835 0.415016
389 4 0.0820543 0.221143 0.326134
686 4 0.145643 0.186175 0.403051
275 4 0.155651 0.233522 0.354795
474 4 0.206819 0.212552 0.369333
276 4 0.196644 0.223634 0.381674
472 2 0.221042 0.192636 0.364211
274 2 0.176148 0.228578 0.368234
715 2 0.400683 0.216169 0.348561
466 2 0.401934 0.193773 0.397456
468 4 0.391317 0.198021 0.419691
716 4 0.404881 0.207524 0.371644
467 4 0.41255 0.189525 0.37522
269 4 0.490155 0.204383 0.394813
268 2 0.474956 0.223453 0.400337
270 4 0.459758 0.242523 0.405862
347 4 0.0926451 0.31711 0.371975
346 2 0.06799 0.319783 0.375162
348 4 0.043335 0.322457 0.378349
618 4 0.104331 0.300632 0.373231
616 2 0.126769 0.296859 0.362865
617 4 0.149208 0.293087 0.352499
678 4 0.203178 0.333095 0.346926
375 4 0.197887 0.323852 0.363277
373 2 0.184174 0.31445 0.381951
374 4 0.170462 0.305048 0.400626
378 4 0.266087 0.286935 0.344207
542 4 0.393242 0.282019 0.326139
420 4 0.4074 0.278163 0.339866
418 2 0.43082 0.269583 0.341618
419 4 0.454239 0.261002 0.34337
510 4 0.213791 0.379073 0.363498
508 2 0.230897 0.360886 0.36484
435 4 0.280211 0.377159 0.326035
509 4 0.248003 0.342699 0.366181
561 4 0.469789 0.400567 0.384928
751 2 0.453392 0.41175 0.355331
752 4 0.459164 0.392321 0.369973
559 2 0.486072 0.394748 0.402989
547 2 0.0822521 0.4182 0.336997
548 4 0.09513 0.427348 0.356378
407 4 0.0792425 0.432192 0.365552
406 2 0.0856146 0.439711 0.388531
1545 4 0.158022 0.500859 0.414846
500 4 0.102082 0.504762 0.35729
570 4 0.146849 0.485665 0.412288
776 4 0.10446 0.489031 0.344272
1555 2 0.243336 0.489969 0.424092
414 4 0.192926 0.478203 0.334
5 3 0.283672 0.497531 0.355246
438 4 0.317085 0.476425 0.337012
3 3 0.303447 0.465761 0.351093
1 1 0.304414 0.488248 0.356733
4 3 0.31264 0.490659 0.378295
2 3 0.318581 0.498975 0.342126
1742 4 0.413744 0.482045 0.332002
594 4 0.407496 0.477647 0.350879
592 2 0.396586 0.473501 0.372991
593 4 0.385676 0.469355 0.395104
588 4 0.394252 0.466177 0.412875
713 4 0.416411 0.464726 0.339778
714 4 0.466223 0.460489 0.338575
753 4 0.44762 0.431178 0.340689
712 2 0.441317 0.462607 0.339176
119 3 0.485356 0.463527 0.337727
116 1 0.497867 0.445614 0.345539
117 3 0.492464 0.441817 0.367574
718 2 0.046878 0.0220062 0.459712
720 4 0.0323788 0.0171227 0.479489
2237 4 0.0142928 0.00764008 0.48493
719 4 0.0613771 0.0268897 0.439936
369 4 0.0735327 0.0152941 0.429223
367 2 0.0964637 0.0107619 0.420346
341 4 0.225489 0.0325947 0.509925
441 4 0.318705 0.0212817 0.424934
962 4 0.314241 0.0347879 0.439332
961 2 0.311742 0.0367692 0.464132
963 4 0.309243 0.0387506 0.488931
432 4 0.298662 0.0538029 0.493231
725 4 0.404369 0.074302 0.421821
724 2 0.409212 0.0815168 0.445266
1181 4 0.239459 0.109943 0.503523
321 4 0.304388 0.165523 0.43656
319 2 0.297719 0.145341 0.423393
726 4 0.414055 0.0887316 0.468711
516 4 0.386175 0.177797 0.461191
514 2 0.407162 0.167733 0.452056
2658 4 0.49613 0.125692 0.463771
451 2 0.449558 0.155243 0.412225
453 4 0.446532 0.163678 0.435568
2878 2 0.481436 0.0918474 0.430437
2880 4 0.477405 0.111111 0.445859
640 2 0.473924 0.130838 0.486583
642 4 0.476859 0.121918 0.463409
515 4 0.428148 0.157668 0.44292
459 4 0.0516156 0.162534 0.4175
260 4 0.0573834 0.168852 0.436181
259 2 0.0792445 0.177962 0.444198
685 2 0.131652 0.189614 0.423487
687 4 0.117662 0.193054 0.443923
261 4 0.101106 0.187072 0.452216
1035 4 0.110555 0.20142 0.461124
1033 2 0.116485 0.197048 0.485018
487 2 0.315596 0.237527 0.441858
489 4 0.32228 0.21401 0.447097
411 4 0.341019 0.209252 0.443182
409 2 0.361064 0.196201 0.435896
410 4 0.381108 0.18315 0.42861
575 4 0.389138 0.179607 0.480146
695 4 0.048623 0.248818 0.465968
694 2 0.072608 0.255881 0.466019
696 4 0.096593 0.262945 0.46607
1258 2 0.123824 0.288913 0.482361
1260 4 0.115351 0.268512 0.470648
1259 4 0.132297 0.309314 0.494075
9 3 0.143836 0.317097 0.480929
651 4 0.254694 0.282616 0.494053
649 2 0.261472 0.25946 0.500611
488 4 0.308912 0.261044 0.436619
266 4 0.378802 0.244565 0.454086
267 4 0.365793 0.286328 0.478322
265 2 0.372297 0.265447 0.466204
583 2 0.476244 0.267985 0.481832
585 4 0.454482 0.265536 0.469765
584 4 0.498006 0.270435 0.493899
2847 4 0.997695 0.329015 0.46198
681 4 0.0103977 0.417392 0.414014
326 4 0.0764674 0.354464 0.474936
6 1 0.150791 0.337757 0.488878
327 4 0.11845 0.353499 0.502088
325 2 0.0974586 0.353982 0.488512
7 3 0.132631 0.351841 0.48987
711 4 0.147298 0.403502 0.433326
10 3 0.166402 0.346621 0.474864
8 3 0.159677 0.335462 0.51019
502 2 0.223556 0.378156 0.423737
504 4 0.204442 0.388292 0.411204
709 2 0.171544 0.397661 0.431537
710 4 0.19579 0.391821 0.429748
503 4 0.242671 0.368019 0.43627
772 2 0.282385 0.402537 0.486057
669 4 0.295488 0.411887 0.453163
336 4 0.325367 0.363258 0.420075
668 4 0.3122 0.378496 0.419899
667 2 0.303844 0.395191 0.436531
882 4 0.359948 0.416293 0.467642
335 4 0.370341 0.361114 0.441834
334 2 0.347854 0.362186 0.430955
238 2 0.402213 0.380156 0.438283
240 4 0.390543 0.359802 0.446924
880 2 0.349303 0.418197 0.490186
239 4 0.413884 0.400511 0.429642
3307 2 0.493094 0.39246 0.486845
3309 4 0.480117 0.413494 0.483053
679 2 0.026739 0.435915 0.417894
680 4 0.0430804 0.454437 0.421773
1383 4 0.0337618 0.469778 0.432625
1381 2 0.0283583 0.491393 0.443974
569 4 0.108365 0.454492 0.419212
383 4 0.0981126 0.439495 0.427246
382 2 0.0945858 0.442127 0.451859
384 4 0.0910591 0.444759 0.476473
408 4 0.0919868 0.44723 0.41151
568 2 0.127607 0.470078 0.41575
634 2 0.288917 0.451752 0.458601
635 4 0.304335 0.435965 0.470358
1557 4 0.263819 0.47731 0.430825
774 4 0.296021 0.4183 0.472245
636 4 0.273499 0.467539 0.446843
586 2 0.399845 0.442995 0.42039
587 4 0.405438 0.419813 0.427906
661 2 0.449301 0.480437 0.45494
663 4 0.439275 0.461133 0.442612
1058 4 0.103856 0.0759285 0.580347
342 4 0.205736 0.0784681 0.507442
340 2 0.215613 0.0555314 0.508683
2430 4 0.21784 0.0158289 0.519124
430 2 0.313947 0.0623231 0.51109
431 4 0.329231 0.0708434 0.52895
841 2 0.358757 0.0879751 0.533308
842 4 0.383651 0.085687 0.532796
1217 4 0.391798 0.0742239 0.520618
1216 2 0.405766 0.0575175 0.532905
1218 4 0.419734 0.040811 0.545191
3007 2 0.48607 0.0366258 0.578935
1128 4 0.00736487 0.0992127 0.582452
470 4 0.036688 0.153206 0.525449
938 4 0.062966 0.138664 0.585312
937 2 0.0874744 0.137586 0.580479
1059 4 0.139382 0.110023 0.571617
1057 2 0.121619 0.0929758 0.575982
1151 4 0.193642 0.127941 0.5385
1150 2 0.199747 0.112336 0.519942
1152 4 0.205853 0.0967317 0.501384
843 4 0.333864 0.0902632 0.533819
1182 4 0.268033 0.150037 0.512286
1180 2 0.253746 0.12999 0.507905
900 4 0.271654 0.158776 0.529417
1032 4 0.252439 0.10448 0.573551
641 4 0.47099 0.139757 0.509756
469 2 0.0217715 0.173266 0.52599
878 4 0.0272026 0.236139 0.580537
471 4 0.00685495 0.193325 0.526531
1199 4 0.0094276 0.230306 0.582358
877 2 0.0452939 0.219046 0.582931
879 4 0.0633853 0.201954 0.585325
1034 4 0.122416 0.192677 0.508911
858 4 0.176757 0.228905 0.529166
1271 4 0.126836 0.208712 0.563952
1272 4 0.0799365 0.196915 0.576679
1270 2 0.103386 0.202814 0.570316
898 2 0.294775 0.167861 0.526575
899 4 0.317895 0.176946 0.523733
650 4 0.26825 0.236303 0.50717
576 4 0.366899 0.197765 0.52109
574 2 0.378018 0.188686 0.500618
983 4 0.0290497 0.310356 0.575623
1245 4 0.0400834 0.297478 0.566167
1243 2 0.0396137 0.274741 0.576558
982 2 0.0282328 0.334538 0.569319
856 2 0.178541 0.249615 0.515271
857 4 0.180326 0.270326 0.501376
947 4 0.172828 0.256911 0.579835
1238 4 0.296126 0.302355 0.580963
1237 2 0.308888 0.323273 0.585938
872 4 0.353558 0.278263 0.562552
871 2 0.367068 0.299296 0.562024
873 4 0.380578 0.320329 0.561495
813 4 0.37623 0.336192 0.550669
906 4 0.458915 0.262544 0.574861
953 4 0.441609 0.262581 0.56669
904 2 0.482712 0.26385 0.5673
984 4 0.027416 0.35872 0.563014
3354 4 0.0306259 0.379396 0.564399
3352 2 0.0124015 0.388189 0.549712
1190 4 0.235244 0.370426 0.567987
803 4 0.233504 0.365549 0.549135
802 2 0.244356 0.360382 0.52721
804 4 0.255208 0.355215 0.505285
773 4 0.268749 0.386774 0.499869
881 4 0.338658 0.420102 0.51273
929 4 0.353304 0.400596 0.586652
928 2 0.338782 0.38069 0.582405
811 2 0.39052 0.356661 0.549257
812 4 0.40481 0.37713 0.547846
927 4 0.412464 0.39528 0.550593
930 4 0.324261 0.360783 0.578159
926 4 0.462279 0.391791 0.547944
925 2 0.437371 0.393535 0.549269
539 4 0.0737085 0.46644 0.543693
538 2 0.0934877 0.479239 0.535318
540 4 0.113267 0.492039 0.526943
1160 4 0.13195 0.502857 0.558167
1159 2 0.148634 0.489493 0.571137
1951 2 0.35396 0.485106 0.575973
1953 4 0.376368 0.492864 0.568042
1002 4 0.438903 0.431936 0.572504
1000 2 0.439544 0.451623 0.557103
1001 4 0.440185 0.47131 0.541702
1911 4 0.450652 0.481499 0.555065
1082 4 0.0582496 0.0794624 0.663383
823 2 0.128992 0.0216035 0.63474
825 4 0.113483 0.0384641 0.624723
824 4 0.144502 0.00474292 0.644758
1031 4 0.271094 0.0665258 0.600238
951 4 0.288078 0.0574604 0.594416
1030 2 0.261767 0.0855028 0.586894
949 2 0.304376 0.0412069 0.604182
950 4 0.320674 0.0249534 0.613948
2281 2 0.407748 0.998339 0.61362
2283 4 0.401867 0.00881665 0.591692
3008 4 0.467127 0.0394115 0.595015
809 4 0.471715 0.0574952 0.601764
808 2 0.464408 0.0683018 0.623094
42 3 0.446624 0.0666717 0.661856
810 4 0.457101 0.0791084 0.644425
1083 4 0.063147 0.100774 0.618411
1126 2 0.0306196 0.097599 0.591496
1081 2 0.0606983 0.0901182 0.640897
1127 4 0.0538743 0.0959853 0.60054
939 4 0.111983 0.136509 0.575647
1155 4 0.128791 0.126221 0.574386
1153 2 0.140356 0.144364 0.587124
1194 4 0.329599 0.170318 0.668005
45 3 0.457629 0.100171 0.649626
1244 4 0.0391439 0.252004 0.586949
1154 4 0.151921 0.162507 0.599862
1221 4 0.168008 0.171363 0.610483
1212 4 0.220992 0.204793 0.63022
1219 2 0.186409 0.18767 0.615028
1220 4 0.204811 0.203977 0.619574
1210 2 0.232743 0.195676 0.650319
1193 4 0.361431 0.192283 0.636303
1192 2 0.345515 0.1813 0.652154
3159 4 0.484767 0.171635 0.589685
1136 4 0.138616 0.296801 0.597504
948 4 0.130974 0.279375 0.595463
946 2 0.151901 0.268143 0.587649
1135 2 0.141584 0.321628 0.597489
798 4 0.192145 0.257101 0.58637
796 2 0.213968 0.261906 0.597589
797 4 0.23579 0.266712 0.608808
791 4 0.254292 0.26147 0.601641
792 4 0.296258 0.284073 0.586517
790 2 0.275275 0.272772 0.594079
807 4 0.317419 0.292427 0.65702
805 2 0.3235 0.316638 0.658447
954 4 0.418241 0.297595 0.593685
806 4 0.329581 0.340848 0.659873
952 2 0.429925 0.280088 0.580187
3123 4 0.501264 0.289637 0.632243
1039 2 0.0679428 0.402614 0.625605
1041 4 0.0481861 0.400277 0.64075
3264 4 0.0295576 0.405162 0.642601
3262 2 0.026559 0.384384 0.656182
3263 4 0.0235604 0.363606 0.669764
3240 4 0.0216468 0.422739 0.637634
897 4 0.146607 0.365153 0.602567
1040 4 0.0876996 0.404951 0.610459
993 4 0.0890648 0.387156 0.60386
1137 4 0.144551 0.346455 0.597474
991 2 0.109259 0.373146 0.599267
992 4 0.129454 0.359137 0.594674
895 2 0.17102 0.368079 0.607112
1189 2 0.224464 0.373896 0.590279
1172 4 0.212082 0.397808 0.607703
1191 4 0.213684 0.377366 0.612571
896 4 0.195432 0.371006 0.611658
1171 2 0.212968 0.421882 0.6144
1239 4 0.321651 0.344191 0.590912
1206 4 0.414032 0.413528 0.651729
1161 4 0.165319 0.476129 0.584107
1188 4 0.169587 0.489574 0.598753
1173 4 0.213855 0.445956 0.621097
1187 4 0.209454 0.462371 0.61184
1186 2 0.189521 0.475972 0.605296
889 2 0.299172 0.462951 0.604919
891 4 0.278528 0.449452 0.609013
890 4 0.319816 0.476451 0.600826
1230 4 0.329232 0.437761 0.660063
1952 4 0.331553 0.477349 0.583904
1268 4 0.465812 0.493677 0.670601
1269 4 0.431821 0.484905 0.634986
1267 2 0.448816 0.489291 0.652793
945 4 0.0329106 0.023393 0.684004
943 2 0.045003 0.044587 0.68946
944 4 0.0570954 0.065781 0.694916
1076 4 0.0659247 0.077007 0.681411
1147 2 0.214998 0.0550826 0.739138
1148 4 0.226736 0.0660739 0.719992
1004 4 0.373468 0.0701047 0.697278
1163 4 0.460974 0.0678794 0.680168
1162 2 0.478031 0.0525571 0.690142
2320 2 0.485367 0.0346546 0.743097
2321 4 0.493538 0.0298724 0.719955
1164 4 0.495087 0.0372347 0.700116
864 4 0.0556655 0.115402 0.729792
1075 2 0.062876 0.0974757 0.695444
1077 4 0.0598274 0.117944 0.709477
1107 4 0.068061 0.127315 0.722864
851 4 0.0583743 0.137905 0.710652
850 2 0.0397649 0.147548 0.697019
852 4 0.0211554 0.157192 0.683385
1283 4 0.134779 0.0904898 0.684124
1105 2 0.088453 0.140352 0.72914
1282 2 0.130551 0.106456 0.702896
1284 4 0.126323 0.122422 0.721667
1106 4 0.108845 0.153389 0.735416
909 4 0.156006 0.15603 0.681765
908 4 0.200208 0.140784 0.699497
907 2 0.178107 0.148407 0.690631
1227 4 0.19894 0.123776 0.710033
1225 2 0.214777 0.105158 0.7153
1226 4 0.230614 0.0865398 0.720567
829 2 0.328348 0.14181 0.691018
830 4 0.309277 0.157967 0.690363
887 4 0.310693 0.172582 0.675545
1003 2 0.369758 0.0941061 0.691333
1005 4 0.366048 0.118108 0.685387
831 4 0.347418 0.125652 0.691673
41 1 0.449775 0.0887048 0.667667
3424 2 0.494325 0.113268 0.662814
3425 4 0.472975 0.100533 0.665489
43 3 0.429479 0.0976359 0.674502
44 3 0.46514 0.0897618 0.685022
1214 4 0.0133133 0.21973 0.74171
1073 4 0.127476 0.214113 0.721911
1072 2 0.120405 0.23809 0.722416
1211 4 0.244494 0.186559 0.670417
888 4 0.260896 0.175908 0.672404
886 2 0.285794 0.174245 0.673975
977 4 0.292297 0.232317 0.759883
918 4 0.305068 0.242731 0.751712
1025 4 0.458053 0.198065 0.663873
1262 4 0.461885 0.213948 0.721922
1142 4 0.451676 0.180374 0.718642
1024 2 0.454242 0.198746 0.688575
1141 2 0.452825 0.176835 0.743367
1026 4 0.450431 0.199426 0.713277
1261 2 0.458793 0.234425 0.735934
1145 4 0.495027 0.223039 0.726175
893 4 0.0025221 0.33232 0.740789
1074 4 0.113334 0.262068 0.722922
1209 4 0.136694 0.308362 0.690732
1207 2 0.120832 0.29446 0.704161
1208 4 0.10497 0.280559 0.717589
821 4 0.153277 0.315852 0.700532
820 2 0.175207 0.304674 0.69614
822 4 0.197138 0.293496 0.691747
1063 2 0.234032 0.289375 0.711394
1064 4 0.213187 0.284244 0.698575
1065 4 0.254878 0.294507 0.724213
916 2 0.309103 0.265417 0.76142
892 2 0.0169692 0.350729 0.731982
894 4 0.0314162 0.369138 0.723174
1280 4 0.0465204 0.380124 0.729708
1279 2 0.0424129 0.403465 0.721739
816 4 0.0620233 0.374656 0.740793
814 2 0.0833221 0.361642 0.742269
815 4 0.104621 0.348629 0.743746
1029 4 0.225532 0.406406 0.670129
1028 4 0.212452 0.369236 0.700919
1066 2 0.19922 0.378057 0.737854
1068 4 0.217168 0.374908 0.720733
1027 2 0.218992 0.387821 0.685524
1204 2 0.403116 0.427033 0.669719
1019 4 0.364841 0.400668 0.7086
1018 2 0.383265 0.40672 0.724384
1020 4 0.401688 0.412773 0.740168
1981 2 0.0622128 0.454005 0.712945
1281 4 0.0383054 0.426806 0.713769
1983 4 0.038659 0.446383 0.716452
1982 4 0.0857667 0.461628 0.709439
1140 4 0.238595 0.420874 0.665411
1138 2 0.253283 0.437817 0.676473
1139 4 0.267972 0.45476 0.687534
1988 4 0.314937 0.474012 0.752335
1987 2 0.327784 0.479215 0.731525
1205 4 0.392199 0.440539 0.687708
1228 2 0.335812 0.452757 0.678957
1989 4 0.340631 0.484419 0.710715
1229 4 0.342393 0.467753 0.697852
1100 4 0.417872 0.493994 0.726629
1099 2 0.43868 0.498916 0.713669
2991 4 0.0270824 0.031084 0.763331
2989 2 0.0186845 0.054635 0.76326
2990 4 0.0102866 0.078186 0.763188
1203 4 0.0883824 0.0789733 0.768166
1295 4 0.993804 0.0280408 0.831979
1202 4 0.123462 0.0434144 0.765785
2049 4 0.137178 0.0335648 0.754204
1201 2 0.105922 0.0611939 0.766976
2047 2 0.13469 0.00869018 0.754694
1149 4 0.203261 0.0440913 0.758285
817 2 0.323303 0.0440189 0.79949
819 4 0.311513 0.065492 0.804499
818 4 0.335092 0.0225459 0.794481
1050 4 0.351937 0.997273 0.775674
975 4 0.394235 0.020852 0.800645
974 4 0.348484 0.0176923 0.780704
973 2 0.37136 0.0192722 0.790675
1113 4 0.417312 0.0815938 0.762238
2322 4 0.477196 0.0394367 0.766239
1111 2 0.43727 0.0771503 0.77663
845 4 0.473799 0.0603946 0.79169
862 2 0.0381273 0.105472 0.74459
863 4 0.0205891 0.0955412 0.759388
833 4 0.00784574 0.0942289 0.773364
832 2 0.0175177 0.103298 0.794563
834 4 0.0271897 0.112366 0.815762
1125 4 0.0348003 0.114172 0.834637
911 4 0.103323 0.125119 0.819475
34 3 0.110808 0.116966 0.776455
31 1 0.117084 0.126565 0.796627
35 3 0.101026 0.141112 0.803638
32 3 0.119607 0.109929 0.812312
33 3 0.137303 0.137679 0.79416
1257 4 0.218126 0.0946513 0.770356
1255 2 0.234464 0.0925746 0.789169
1085 4 0.309156 0.0805329 0.815897
840 4 0.26253 0.103153 0.816025
1256 4 0.250803 0.0904979 0.807982
1084 2 0.302495 0.0973156 0.798601
1086 4 0.295835 0.114098 0.781304
1021 2 0.396639 0.170476 0.843422
844 2 0.493361 0.0734793 0.783246
1112 4 0.457228 0.0727069 0.791021
47 3 0.431723 0.170168 0.819592
1130 4 0.145955 0.219552 0.801521