ITEM: TIMESTEP
520000
ITEM: NUMBER OF ATOMS
4590
ITEM: BOX BOUNDS pp pp pp
-9.9985700000000008e+00 9.9985700000000008e+00
-9.9985700000000008e+00 9.9985700000000008e+00
-9.9985700000000008e+00 9.9985700000000008e+00
ITEM: ATOMS id type xs ys zs
463 2 0.0186867 0.0573233 0.0473298
465 4 0.0366397 0.0676216 0.0613589
464 4 0.000733684 0.0470251 0.0333007
1667 4 0.0524133 0.0568634 0.0670207
534 4 0.239655 0.0647668 0.0208605
490 2 0.305655 0.0217136 0.0520214
491 4 0.310792 0.0241934 0.0763656
492 4 0.300518 0.0192337 0.0276773
2264 4 0.283984 0.0224639 0.0179065
557 4 0.338299 0.0628555 0.0522976
1608 4 0.391721 0.0152338 0.0155995
556 2 0.344438 0.0808997 0.0361144
296 4 0.334884 0.0503163 0.0657103
1606 2 0.399742 0.00625079 0.0375119
745 2 0.484126 0.0568106 0.0563708
747 4 0.49128 0.0413387 0.0380782
2975 4 0.484553 0.0512432 0.0212023
746 4 0.476972 0.0722825 0.0746634
700 2 0.0742582 0.0838464 0.0491596
701 4 0.0546996 0.0743713 0.0615234
589 2 0.0280283 0.105202 0.0749429
590 4 0.0400978 0.0854225 0.0655475
3233 4 0.0247392 0.166546 0.0110606
3232 2 0.038763 0.152887 0.0266151
3234 4 0.0527868 0.139228 0.0421697
702 4 0.0938168 0.0933215 0.0367959
421 2 0.103463 0.133142 0.0291253
423 4 0.105854 0.109121 0.03564
422 4 0.101073 0.157163 0.0226105
566 4 0.161429 0.123298 0.0431166
565 2 0.184941 0.128714 0.0365575
567 4 0.208454 0.134129 0.0299984
358 2 0.29515 0.145625 0.0262078
360 4 0.280467 0.164254 0.0182996
359 4 0.309832 0.126995 0.034116
558 4 0.350577 0.0989438 0.0199311
827 4 0.408671 0.168865 0.0152842
1014 4 0.492627 0.160388 0.0109733
555 4 0.0835725 0.22754 0.00986917
553 2 0.0724217 0.247954 0.0190413
573 4 0.276027 0.257745 0.0579559
354 4 0.250591 0.221311 0.0951134
324 4 0.413695 0.234435 0.0876068
770 4 0.440416 0.166445 0.0658282
771 4 0.448251 0.191441 0.023231
769 2 0.444334 0.178943 0.0445296
554 4 0.0612709 0.268367 0.0282135
292 2 0.121531 0.310259 0.0152777
293 4 0.136202 0.296799 0.0304029
507 4 0.145677 0.290253 0.0491258
505 2 0.170527 0.292821 0.0501601
294 4 0.10686 0.323719 0.000152397
506 4 0.195377 0.295389 0.0511944
357 4 0.212625 0.252669 0.0217021
483 4 0.192265 0.314164 0.056021
481 2 0.214083 0.326374 0.055716
482 4 0.2359 0.338584 0.0554109
571 2 0.29786 0.257369 0.0457761
572 4 0.319694 0.256993 0.0335963
666 4 0.322251 0.265438 0.0141733
1071 4 0.377498 0.28951 0.0175493
1069 2 0.395713 0.272382 0.0174219
956 4 0.381664 0.308252 0.00911696
1070 4 0.413928 0.255253 0.0172945
322 2 0.409556 0.257764 0.0796202
323 4 0.405417 0.281094 0.0716336
519 4 0.487755 0.250927 0.0938412
328 2 0.0119068 0.391116 0.00218231
551 4 0.0518964 0.401792 0.993084
286 2 0.126292 0.383375 0.00702158
288 4 0.135331 0.406682 0.00750962
287 4 0.117254 0.360067 0.00653354
252 4 0.306927 0.403633 0.0569198
250 2 0.30563 0.402619 0.0319705
251 4 0.304333 0.401606 0.00702114
608 4 0.295229 0.41087 0.0702606
741 4 0.3475 0.335406 0.0702621
282 4 0.483322 0.33454 0.02086
281 4 0.438467 0.348843 0.0377178
671 4 0.445718 0.345111 0.0557941
280 2 0.460894 0.341692 0.0292889
670 2 0.432083 0.345218 0.0767523
550 2 0.0607444 0.424884 0.996775
1786 2 0.0632605 0.485513 0.0857156
1787 4 0.0530535 0.483723 0.0629606
242 4 0.150419 0.469971 0.0478118
241 2 0.161635 0.48541 0.0639686
793 2 0.140307 0.491623 0.00825559
795 4 0.14271 0.471251 0.993959
245 4 0.23807 0.443239 0.0107595
1440 4 0.193296 0.499307 0.0830581
244 2 0.259259 0.45612 0.0139716
246 4 0.280447 0.469 0.0171838
272 4 0.282913 0.48775 0.0256939
271 2 0.307363 0.492978 0.0258614
524 4 0.329328 0.472124 0.0714647
563 4 0.479795 0.481446 0.0310289
1668 4 0.0679352 0.0226183 0.0999912
1666 2 0.0601743 0.0397408 0.0835059
17 3 0.0583376 0.0626671 0.160092
1420 2 0.0244498 0.00394458 0.154551
450 4 0.143994 0.0694055 0.124373
652 2 0.315668 0.0462303 0.145088
653 4 0.31488 0.0669798 0.131159
654 4 0.316456 0.0254809 0.159017
295 2 0.353081 0.0403598 0.0796717
485 4 0.369628 0.01076 0.0935641
297 4 0.371278 0.0304034 0.0936331
758 4 0.388966 0.02015 0.142423
757 2 0.387077 0.0299308 0.165357
484 2 0.364739 0.990691 0.107653
591 4 0.0159587 0.124982 0.0843384
2760 4 0.011454 0.142542 0.0763168
448 2 0.158418 0.0837859 0.138875
475 2 0.107798 0.150287 0.122251
477 4 0.110867 0.136318 0.101742
237 4 0.20313 0.15378 0.130732
449 4 0.172843 0.0981662 0.153377
235 2 0.195087 0.132562 0.141233
236 4 0.187044 0.111344 0.151735
693 4 0.192077 0.0931264 0.153854
737 4 0.18827 0.163932 0.121799
582 4 0.330682 0.121828 0.144304
628 2 0.438204 0.150967 0.10969
629 4 0.44584 0.129108 0.100253
337 2 0.0899731 0.244951 0.156392
476 4 0.104728 0.164256 0.14276
338 4 0.108291 0.228453 0.16057
363 4 0.123271 0.216517 0.161984
736 2 0.187555 0.186627 0.132267
738 4 0.186841 0.209323 0.142735
352 2 0.259317 0.243319 0.103157
285 4 0.3039 0.205026 0.158782
283 2 0.284938 0.219458 0.166354
461 4 0.336292 0.227117 0.0853415
254 4 0.410333 0.17412 0.119981
253 2 0.387076 0.18038 0.113265
460 2 0.343185 0.203545 0.090033
255 4 0.36382 0.186641 0.10655
462 4 0.350077 0.179972 0.0947245
630 4 0.430568 0.172826 0.119128
517 2 0.48928 0.227456 0.102326
518 4 0.490805 0.203986 0.11081
339 4 0.071655 0.261448 0.152213
705 4 0.00410623 0.337619 0.136182
703 2 0.99769 0.31565 0.146251
537 4 0.186475 0.31893 0.105865
535 2 0.197233 0.317714 0.128403
536 4 0.207992 0.316499 0.150941
353 4 0.268043 0.265326 0.111202
754 2 0.273997 0.295408 0.129829
755 4 0.282283 0.279892 0.112058
756 4 0.265711 0.310924 0.147599
612 4 0.271197 0.326859 0.16018
622 2 0.388405 0.30271 0.159249
623 4 0.379012 0.295553 0.137209
528 4 0.472323 0.298656 0.142836
620 4 0.0244167 0.338058 0.13292
621 4 0.0355511 0.38622 0.125357
619 2 0.0299839 0.362139 0.129139
455 4 0.0850507 0.351865 0.117662
454 2 0.104608 0.366792 0.113202
456 4 0.124165 0.381719 0.108742
627 4 0.238238 0.417318 0.0983824
609 4 0.324504 0.385477 0.101866
607 2 0.309867 0.398174 0.0860635
610 2 0.286429 0.345691 0.153975
611 4 0.30166 0.364524 0.14777
740 4 0.329504 0.365994 0.105493
386 4 0.338354 0.379777 0.113349
387 4 0.338145 0.377208 0.16329
385 2 0.338249 0.378493 0.138319
739 2 0.338502 0.3507 0.0878778
15 3 0.402042 0.343627 0.145848
11 1 0.418799 0.350408 0.131997
14 3 0.414021 0.371468 0.123509
12 3 0.420637 0.335582 0.114506
672 4 0.418448 0.345326 0.0977105
13 3 0.438912 0.350903 0.143556
495 4 0.420962 0.389172 0.131371
597 4 0.47808 0.384001 0.162776
645 4 0.457655 0.385405 0.164784
1788 4 0.0734674 0.487303 0.108471
417 4 0.164331 0.460695 0.160325
639 4 0.25176 0.500802 0.120487
625 2 0.243594 0.42664 0.120957
243 4 0.172851 0.500848 0.0801253
626 4 0.24895 0.435962 0.143531
637 2 0.261919 0.48343 0.135326
638 4 0.272078 0.466058 0.150165
523 2 0.334445 0.461242 0.0933865
525 4 0.339562 0.450359 0.115308
658 2 0.376232 0.47369 0.169084
660 4 0.386378 0.481917 0.147763
493 2 0.429914 0.41215 0.135496
494 4 0.438866 0.435129 0.139621
1404 4 0.0442073 0.0223559 0.23265
20 3 0.0721636 0.0283313 0.164866
19 3 0.0371915 0.0362064 0.176381
16 1 0.0587892 0.0443455 0.173994
1422 4 0.0090426 0.0220393 0.162322
18 3 0.0671467 0.0508091 0.194653
2479 2 0.00695827 0.0565256 0.185522
2480 4 0.0163305 0.0360218 0.174708
673 2 0.124623 0.0426006 0.22421
674 4 0.130569 0.065817 0.231338
675 4 0.118677 0.0193841 0.217081
1505 4 0.227033 0.048009 0.191835
1504 2 0.24335 0.0343779 0.178678
689 4 0.2092 0.0494603 0.199076
688 2 0.201334 0.0483596 0.222785
692 4 0.214802 0.0636807 0.187279
690 4 0.193468 0.0472589 0.246493
691 2 0.203439 0.0784036 0.170566
1506 4 0.259668 0.0207468 0.165521
21 1 0.400034 0.0481652 0.225956
24 3 0.382846 0.0387231 0.238358
25 3 0.397008 0.0437049 0.203829
759 4 0.385188 0.0397116 0.18829
22 3 0.39989 0.0709405 0.229183
1496 4 0.371484 0.0216174 0.238238
312 4 0.424681 0.0780499 0.190131
1761 4 0.4452 0.00289937 0.170336
23 3 0.420461 0.0397182 0.233014
1759 2 0.467991 0.00860779 0.178891
1760 4 0.490781 0.0143162 0.187446
742 2 0.454802 0.05974 0.221275
744 4 0.431475 0.050769 0.220534
743 4 0.478129 0.0687111 0.222017
2744 4 0.501645 0.0244946 0.199116
379 2 0.00226226 0.150078 0.193384
381 4 0.00240828 0.164135 0.214061
577 2 0.102172 0.125017 0.235665
578 4 0.0966824 0.127564 0.211405
723 4 0.199848 0.0972955 0.205883
721 2 0.190291 0.116434 0.218828
722 4 0.180734 0.135572 0.231773
546 4 0.174976 0.145808 0.248472
580 2 0.31809 0.127703 0.165091
581 4 0.305498 0.133578 0.185879
30 3 0.285381 0.13543 0.189277
26 1 0.285237 0.132406 0.211848
28 3 0.26403 0.13663 0.220266
27 3 0.290928 0.110633 0.216612
29 3 0.300684 0.146553 0.22183
310 2 0.41472 0.0972086 0.202737
311 4 0.404759 0.116367 0.215342
511 2 0.0330682 0.155976 0.238329
512 4 0.0134328 0.149578 0.224233
361 2 0.13501 0.223731 0.182849
362 4 0.146748 0.230945 0.203713
372 4 0.160851 0.242866 0.209067
284 4 0.265977 0.233891 0.173926
764 4 0.344676 0.222018 0.213261
763 2 0.368541 0.228961 0.215989
765 4 0.392406 0.235904 0.218717
333 4 0.428088 0.175325 0.22435
521 4 0.471086 0.207598 0.24372
331 2 0.433925 0.170274 0.248132
748 2 0.077828 0.278564 0.237701
749 4 0.0668016 0.266413 0.218834
277 2 0.227402 0.266744 0.172094
370 2 0.184482 0.24708 0.202066
371 4 0.208112 0.251294 0.195064
279 4 0.212328 0.24726 0.176376
344 4 0.226307 0.262277 0.243454
343 2 0.245209 0.27686 0.250885
278 4 0.242477 0.286227 0.167812
307 2 0.319368 0.28037 0.225234
309 4 0.344068 0.281018 0.221408
624 4 0.397797 0.309867 0.181288
527 4 0.498052 0.32089 0.179501
526 2 0.485187 0.309773 0.161169
647 4 0.0183152 0.393905 0.207123
646 2 0.0357668 0.388224 0.190142
648 4 0.0532185 0.382544 0.173161
300 4 0.153986 0.355982 0.221601
298 2 0.144576 0.361875 0.244005
290 4 0.217477 0.381861 0.22474
289 2 0.209685 0.399888 0.209266
302 4 0.320474 0.376613 0.174744
303 4 0.291141 0.38552 0.214253
301 2 0.305808 0.381066 0.194498
729 4 0.291895 0.383221 0.233951
727 2 0.31076 0.37681 0.249057
643 2 0.448903 0.383859 0.188155
644 4 0.440152 0.382314 0.211525
447 4 0.450596 0.391119 0.225913
445 2 0.441753 0.379732 0.246341
262 2 0.0713402 0.463539 0.239062
264 4 0.0663109 0.469141 0.215219
1430 4 0.17539 0.503192 0.212783
415 2 0.180696 0.443691 0.168584
416 4 0.197061 0.426686 0.176843
291 4 0.201893 0.417916 0.193791
767 4 0.278374 0.478082 0.164968
768 4 0.266619 0.462966 0.211165
766 2 0.272497 0.470524 0.188066
659 4 0.366086 0.465464 0.190404
232 2 0.0352868 0.0692587 0.30154
233 4 0.0530558 0.0595686 0.286858
1402 2 0.0511901 0.0324275 0.254444
1403 4 0.0581729 0.042499 0.276238
234 4 0.0175179 0.0789487 0.316221
731 4 0.114139 0.0580165 0.307693
730 2 0.134705 0.0687551 0.317017
1464 4 0.128948 0.000432165 0.264361
1701 4 0.234197 0.0165099 0.333401
732 4 0.15527 0.0794936 0.32634
1699 2 0.256879 0.0252219 0.327499
1700 4 0.27956 0.0339339 0.321597
1495 2 0.367398 0.00215257 0.253391
480 4 0.471039 0.0274559 0.306619
351 4 0.437993 0.079682 0.272605
478 2 0.463332 0.0233731 0.330051
398 4 0.071018 0.0915106 0.311598
397 2 0.0675576 0.115397 0.305069
399 4 0.0640972 0.139284 0.298541
318 4 0.0867265 0.0822283 0.320454
579 4 0.107662 0.122469 0.259925
544 2 0.160941 0.160554 0.26299
599 4 0.183062 0.130367 0.318171
249 4 0.229775 0.137671 0.317033
247 2 0.238306 0.114358 0.314044
404 4 0.228867 0.152111 0.302429
598 2 0.176274 0.106423 0.315766
600 4 0.169486 0.0824786 0.313362
248 4 0.246837 0.0910459 0.311056
707 4 0.344253 0.151391 0.297718
706 2 0.336639 0.164167 0.317817
632 4 0.383029 0.141924 0.317639
631 2 0.401342 0.127051 0.309356
633 4 0.419654 0.112177 0.301074
349 2 0.450042 0.091206 0.291238
350 4 0.462091 0.10273 0.309871
762 4 0.451279 0.159532 0.288287
513 4 0.0527036 0.162375 0.252425
395 4 0.047723 0.223652 0.261709
394 2 0.0265573 0.235503 0.26777
388 2 0.0656888 0.24178 0.33634
396 4 0.00539149 0.247354 0.273831
392 4 0.129736 0.172571 0.287207
391 2 0.116334 0.193647 0.286039
393 4 0.102931 0.214723 0.284871
545 4 0.146906 0.175299 0.277508
403 2 0.228697 0.167489 0.322144
420 4 0.40334 0.236683 0.319156
717 4 0.390975 0.253189 0.320388
332 4 0.439762 0.165222 0.271914
760 2 0.446497 0.176013 0.306471
520 2 0.491222 0.195684 0.252538
418 2 0.418174 0.219718 0.329988
761 4 0.441715 0.192495 0.324655
419 4 0.433009 0.202754 0.340819
750 4 0.0888544 0.290714 0.256568
389 4 0.0557943 0.263271 0.328252
400 2 0.223658 0.26744 0.307906
402 4 0.230229 0.267491 0.332031
401 4 0.217086 0.267388 0.283781
308 4 0.294667 0.279723 0.22906
345 4 0.264111 0.291443 0.258316
496 2 0.28247 0.314379 0.279902
497 4 0.276119 0.306511 0.257034
498 4 0.288822 0.322246 0.30277
543 4 0.408576 0.316304 0.30317
615 4 0.394618 0.32586 0.292102
715 2 0.370076 0.264265 0.328493
541 2 0.431795 0.319665 0.294524
366 4 0.995885 0.372667 0.2981
364 2 0.016101 0.368559 0.312229
365 4 0.036317 0.364451 0.326357
601 2 0.0684627 0.415538 0.265815
603 4 0.0587582 0.392584 0.263782
735 4 0.147268 0.328099 0.320109
299 4 0.135167 0.367767 0.266408
734 4 0.146365 0.357993 0.280032
733 2 0.146816 0.343046 0.30007
433 2 0.315376 0.380932 0.301949
434 4 0.3299 0.381501 0.281604
728 4 0.329625 0.3704 0.264163
435 4 0.300853 0.380363 0.322295
613 2 0.382635 0.342579 0.306316
614 4 0.370652 0.359298 0.320531
542 4 0.455014 0.323027 0.285878
446 4 0.43291 0.368344 0.266769
263 4 0.0763695 0.457936 0.262905
602 4 0.0781672 0.438491 0.267847
2463 4 0.0183186 0.44776 0.336112
777 4 0.125975 0.445078 0.292214
775 2 0.111041 0.457679 0.307814
776 4 0.096107 0.470281 0.323414
414 4 0.140659 0.455667 0.283638
412 2 0.164283 0.450486 0.277297
413 4 0.187908 0.445305 0.270955
436 2 0.282475 0.447146 0.327314
437 4 0.262118 0.436849 0.337548
438 4 0.302831 0.457444 0.317079
713 4 0.442072 0.470284 0.297457
712 2 0.440182 0.464429 0.273222
714 4 0.438292 0.458573 0.248987
317 4 0.0651056 0.0599572 0.359662
427 2 0.0730851 0.998417 0.383055
429 4 0.0745908 0.013862 0.36345
316 2 0.075916 0.0710928 0.340058
1780 2 0.122516 0.0312678 0.383063
1781 4 0.119718 0.0499605 0.399431
368 4 0.128352 0.0464366 0.417224
606 4 0.176945 0.0424095 0.396773
604 2 0.169869 0.0581344 0.378667
605 4 0.162793 0.0738592 0.360561
439 2 0.293248 0.00536832 0.403402
257 4 0.384337 0.0590489 0.34337
698 4 0.373768 0.0432573 0.342203
697 2 0.371362 0.0183807 0.341468
256 2 0.39695 0.0663104 0.363702
258 4 0.409563 0.0735718 0.384033
479 4 0.455624 0.0192902 0.353484
426 4 0.420437 0.0821705 0.399807
457 2 0.00329754 0.150506 0.4052
685 2 0.149071 0.154628 0.397173
683 4 0.294704 0.120987 0.354413
682 2 0.276316 0.121879 0.371333
684 4 0.257928 0.122771 0.388252
320 4 0.270037 0.118937 0.402845
516 4 0.412056 0.15084 0.408788
452 4 0.481029 0.153693 0.343389
451 2 0.46171 0.141777 0.353875
453 4 0.442391 0.129861 0.364361
514 2 0.416637 0.141542 0.386034
515 4 0.421217 0.132245 0.363279
390 4 0.0755833 0.220289 0.344427
2653 2 0.00885592 0.225406 0.352681
2654 4 0.0283861 0.225373 0.368293
686 4 0.137268 0.168363 0.379934
405 4 0.228526 0.182867 0.341859
275 4 0.184009 0.250462 0.375686
474 4 0.262406 0.182421 0.377161
708 4 0.329026 0.176944 0.337916
472 2 0.27527 0.20326 0.372121
473 4 0.288135 0.2241 0.367082
268 2 0.464064 0.241752 0.387038
269 4 0.467066 0.255586 0.366428
270 4 0.461061 0.227917 0.407648
508 2 0.23462 0.303164 0.352756
510 4 0.230755 0.279024 0.347508
375 4 0.172061 0.304613 0.400849
274 2 0.204547 0.255836 0.362476
276 4 0.225085 0.261209 0.349266
373 2 0.195228 0.304208 0.410245
678 4 0.159398 0.305635 0.384812
509 4 0.238485 0.327303 0.358004
676 2 0.157661 0.311944 0.36068
378 4 0.243689 0.264047 0.344407
376 2 0.268066 0.261547 0.339436
377 4 0.292442 0.259046 0.334465
716 4 0.349176 0.275341 0.336599
2927 4 0.99909 0.349006 0.363856
616 2 0.0704043 0.355345 0.397423
618 4 0.0758368 0.344995 0.419526
677 4 0.155924 0.318253 0.336548
617 4 0.0649719 0.365696 0.37532
408 4 0.11148 0.393861 0.354596
406 2 0.0984946 0.415177 0.356075
502 2 0.243596 0.389628 0.415266
503 4 0.248335 0.370952 0.399331
753 4 0.40741 0.375861 0.380882
2923 2 0.498446 0.344339 0.346841
561 4 0.474038 0.396168 0.379596
752 4 0.452929 0.39656 0.381369
559 2 0.490953 0.387282 0.395725
751 2 0.430169 0.38621 0.381125
2925 4 0.491051 0.342662 0.370667
549 4 0.0338492 0.456 0.345578
547 2 0.0587868 0.455415 0.347296
548 4 0.0837244 0.45483 0.349014
407 4 0.085509 0.436493 0.357555
500 4 0.105077 0.485931 0.332971
501 4 0.106631 0.488999 0.382859
499 2 0.105854 0.487465 0.357915
570 4 0.15699 0.480075 0.410185
1557 4 0.258846 0.471446 0.39409
5 3 0.297747 0.460542 0.35678
1 1 0.308971 0.473832 0.371478
2 3 0.294884 0.490387 0.379006
4 3 0.316154 0.461272 0.389617
3 3 0.327161 0.483673 0.360956
1555 2 0.2582 0.494621 0.403453
594 4 0.416246 0.466282 0.3571
592 2 0.421682 0.490564 0.354641
718 2 0.0666169 0.0589946 0.479749
720 4 0.0446345 0.0547177 0.490869
2237 4 0.0413602 0.0354154 0.4899
2236 2 0.0331166 0.0130494 0.482351
719 4 0.0885993 0.0632716 0.468628
367 2 0.130083 0.0616769 0.43697
369 4 0.131814 0.0769171 0.456716
342 4 0.18311 0.0676544 0.49147
340 2 0.201334 0.0508096 0.494525
441 4 0.297329 0.016845 0.425238
1180 2 0.259989 0.0803218 0.497229
431 4 0.339567 0.0579103 0.503422
2878 2 0.494365 0.0864785 0.464263
458 4 0.014972 0.137966 0.423411
687 4 0.160875 0.140893 0.414413
1035 4 0.108136 0.174579 0.486714
1182 4 0.242816 0.0983225 0.49473
321 4 0.292431 0.103595 0.444844
319 2 0.281234 0.111266 0.423844
424 2 0.422697 0.0795341 0.424568
425 4 0.424956 0.0768977 0.449329
724 2 0.358778 0.0848781 0.481183
725 4 0.374386 0.0941507 0.46399
468 4 0.350946 0.146034 0.441915
574 2 0.423326 0.164958 0.449486
575 4 0.418505 0.158374 0.425852
642 4 0.488474 0.110273 0.500887
2880 4 0.486462 0.099972 0.483773
471 4 0.00433412 0.201087 0.467303
469 2 0.025303 0.189656 0.459899
470 4 0.0462718 0.178225 0.452495
260 4 0.114775 0.207582 0.435141
261 4 0.1105 0.169772 0.467588
259 2 0.112638 0.188677 0.451364
695 4 0.0936883 0.256059 0.487756
487 2 0.313515 0.234693 0.412776
489 4 0.29796 0.21866 0.401545
411 4 0.276393 0.211953 0.437812
409 2 0.277219 0.207369 0.462378
410 4 0.278046 0.202785 0.486944
488 4 0.32907 0.250726 0.424008
467 4 0.364141 0.194268 0.442274
466 2 0.357543 0.170151 0.442095
576 4 0.428146 0.171541 0.473121
305 4 0.47018 0.177452 0.44999
306 4 0.472921 0.213162 0.41509
304 2 0.471551 0.195307 0.43254
347 4 0.0669248 0.328419 0.421871
346 2 0.0532703 0.307474 0.421997
348 4 0.0396158 0.286528 0.422123
694 2 0.110574 0.272915 0.495234
696 4 0.127459 0.289771 0.502713
1260 4 0.14675 0.295405 0.502584
374 4 0.218395 0.303802 0.419642
649 2 0.237474 0.296508 0.478251
651 4 0.244098 0.272662 0.481811
650 4 0.230851 0.320354 0.474691
266 4 0.305574 0.28933 0.454647
265 2 0.329502 0.283738 0.459272
872 4 0.400515 0.256834 0.48073
267 4 0.353429 0.278147 0.463896
2456 4 0.48498 0.267496 0.484979
583 2 0.458605 0.283082 0.457466
584 4 0.468389 0.268643 0.475382
585 4 0.448821 0.297522 0.439551
326 4 0.0687874 0.339489 0.437374
325 2 0.0642819 0.358438 0.453053
327 4 0.0597764 0.377387 0.468731
681 4 0.0713562 0.433091 0.415609
383 4 0.0843032 0.423672 0.430175
7 3 0.141961 0.376139 0.466276
6 1 0.15536 0.358278 0.471808
10 3 0.161958 0.347669 0.452767
9 3 0.143269 0.343698 0.48521
8 3 0.173909 0.366106 0.483343
711 4 0.192036 0.362954 0.475121
709 2 0.216319 0.363502 0.469185
710 4 0.240601 0.36405 0.46325
504 4 0.238856 0.408304 0.431201
804 4 0.277181 0.38352 0.489302
812 4 0.300981 0.34216 0.505025
336 4 0.37195 0.403165 0.426928
334 2 0.369508 0.392538 0.449428
240 4 0.387406 0.377248 0.476112
335 4 0.367066 0.381911 0.471929
935 4 0.0157308 0.422716 0.489717
680 4 0.0274666 0.444989 0.436415
1381 2 0.0110703 0.480192 0.446873
1383 4 0.0255775 0.465163 0.433131
679 2 0.0494114 0.43904 0.426012
539 4 0.0987804 0.486248 0.458967
568 2 0.149313 0.464794 0.428426
569 4 0.141636 0.449512 0.446666
382 2 0.104022 0.433897 0.441655
384 4 0.123741 0.444122 0.453135
774 4 0.212346 0.427759 0.481079
635 4 0.20578 0.446886 0.478744
636 4 0.209779 0.469152 0.434147
634 2 0.207779 0.458019 0.456446
668 4 0.30005 0.441326 0.422265
667 2 0.317604 0.454602 0.43413
588 4 0.382801 0.426187 0.449628
586 2 0.396991 0.446208 0.454421
882 4 0.331844 0.488289 0.498265
587 4 0.411182 0.466228 0.459215
669 4 0.335158 0.467878 0.445995
1126 2 0.0613058 0.0467713 0.536333
1127 4 0.0756412 0.0262858 0.536195
1128 4 0.0469704 0.0672568 0.536471
1058 4 0.152053 0.0339697 0.553326
1057 2 0.144692 0.0576727 0.556352
341 4 0.219557 0.0339648 0.497581
2430 4 0.223281 0.0243693 0.515878
2428 2 0.214248 0.00119749 0.513297
1152 4 0.168685 0.0779674 0.500097
961 2 0.275282 0.050987 0.541267
963 4 0.283591 0.0532593 0.517794
962 4 0.266974 0.0487147 0.56474
430 2 0.31499 0.0535014 0.502128
1181 4 0.277162 0.062321 0.499728
432 4 0.290412 0.0490924 0.500834
1217 4 0.401354 0.0468362 0.536966
841 2 0.363917 0.0614291 0.529318
842 4 0.381481 0.0489575 0.542012
843 4 0.346352 0.0739008 0.516625
1216 2 0.422259 0.0411834 0.549464
1218 4 0.443164 0.0355307 0.561963
939 4 0.0800066 0.0832877 0.526568
938 4 0.118435 0.0889184 0.558069
937 2 0.0992205 0.0861031 0.542319
1059 4 0.137331 0.0813756 0.559379
1155 4 0.1334 0.10037 0.558301
1153 2 0.150009 0.118759 0.561641
1154 4 0.166619 0.137147 0.564982
1031 4 0.220601 0.09837 0.565717
1151 4 0.180534 0.116395 0.529824
1150 2 0.17461 0.0971811 0.51496
1030 2 0.245113 0.101591 0.569454
1032 4 0.269625 0.104813 0.57319
898 2 0.323258 0.129005 0.555515
900 4 0.313651 0.128062 0.57858
899 4 0.332865 0.129949 0.53245
726 4 0.343171 0.0756055 0.498377
641 4 0.444871 0.101836 0.523871
640 2 0.466672 0.106054 0.512379
877 2 0.0739459 0.219065 0.5761
878 4 0.0500048 0.220234 0.568984
1034 4 0.113251 0.161241 0.534638
1033 2 0.110693 0.16791 0.510676
1270 2 0.12876 0.198658 0.58775
1271 4 0.153002 0.194635 0.583132
857 4 0.248539 0.210181 0.519523
858 4 0.220664 0.179401 0.547385
856 2 0.234601 0.194791 0.533454
873 4 0.388257 0.245728 0.527922
871 2 0.394386 0.251281 0.504326
3065 4 0.479783 0.23753 0.552235
905 4 0.480909 0.232819 0.572208
982 2 0.0543577 0.33248 0.530898
984 4 0.0512411 0.330414 0.55562
1258 2 0.16335 0.294022 0.521231
1259 4 0.17995 0.29264 0.539878
813 4 0.314907 0.294496 0.51094
1239 4 0.306304 0.327778 0.587558
811 2 0.307944 0.318328 0.507983
792 4 0.315689 0.259284 0.590372
904 2 0.461778 0.24848 0.575935
983 4 0.0574743 0.334545 0.506176
1041 4 0.0842949 0.403347 0.56656
934 2 0.00313146 0.401841 0.495253
1136 4 0.108469 0.32972 0.575118
1137 4 0.128238 0.374391 0.585814
1135 2 0.118354 0.352055 0.580466
897 4 0.137783 0.38979 0.594548
895 2 0.156915 0.395064 0.579339
1189 2 0.206045 0.36969 0.57397
1190 4 0.217686 0.348508 0.580374
896 4 0.176047 0.400337 0.564129
1191 4 0.194403 0.390871 0.567566
802 2 0.271947 0.374678 0.512097
803 4 0.266712 0.365837 0.534892
239 4 0.400827 0.354659 0.518659
238 2 0.394117 0.365953 0.497386
925 2 0.453719 0.399066 0.552052
926 4 0.464244 0.400453 0.529414
927 4 0.443194 0.397679 0.57469
3309 4 0.484269 0.399036 0.526206
2244 4 0.126852 0.511815 0.508634
2243 4 0.14371 0.480997 0.544225
2242 2 0.135281 0.496406 0.526429
772 2 0.228738 0.4273 0.499954
773 4 0.245129 0.426842 0.518829
1187 4 0.245444 0.443462 0.581507
889 2 0.336275 0.463935 0.576291
891 4 0.314359 0.456526 0.566805
1173 4 0.256829 0.429218 0.574986
1171 2 0.280039 0.437965 0.578147
1172 4 0.303248 0.446712 0.581308
929 4 0.340226 0.416874 0.560896
890 4 0.35819 0.471343 0.585777
881 4 0.335965 0.448357 0.528084
1002 4 0.395861 0.445747 0.570493
880 2 0.333905 0.468323 0.513175
1000 2 0.420773 0.443632 0.570765
1001 4 0.445686 0.441517 0.571037
662 4 0.448945 0.477347 0.528241
1332 4 0.452922 0.497591 0.532862
661 2 0.442092 0.454066 0.522223
663 4 0.435239 0.430785 0.516206
943 2 0.0822646 0.0373103 0.651657
944 4 0.0877539 0.0615496 0.654396
2319 4 0.0808377 0.992492 0.650218
951 4 0.236181 0.000641917 0.587035
1283 4 0.171379 0.0761352 0.668223
1092 4 0.360538 0.00833998 0.659732
809 4 0.431321 0.0942668 0.605518
45 3 0.431348 0.0704004 0.659467
1083 4 0.0653027 0.0922922 0.616789
1082 4 0.0321377 0.118049 0.643944
1081 2 0.0487202 0.105171 0.630366
1076 4 0.0328616 0.109598 0.66183
1284 4 0.188915 0.0967973 0.626196
1282 2 0.180147 0.0864662 0.647209
808 2 0.45282 0.0869746 0.615995
810 4 0.47432 0.0796824 0.626473
1026 4 0.449387 0.173732 0.62932
1199 4 0.0111523 0.186067 0.609665
1245 4 0.069511 0.232485 0.629371
1243 2 0.0490542 0.24592 0.634489
879 4 0.097887 0.217896 0.583216
1272 4 0.104518 0.202682 0.592367
1209 4 0.083412 0.236196 0.642739
1207 2 0.103279 0.233992 0.65776
1221 4 0.171382 0.18931 0.577419
946 2 0.171213 0.247719 0.603236
1210 2 0.230396 0.183218 0.6414
1212 4 0.226317 0.183801 0.616738
1219 2 0.19306 0.188977 0.589874
1220 4 0.214738 0.188644 0.602329
796 2 0.238866 0.221883 0.598341
947 4 0.186732 0.240169 0.621328
798 4 0.231007 0.19911 0.605033
797 4 0.246725 0.244657 0.59165
791 4 0.322178 0.209794 0.587327
790 2 0.318934 0.234539 0.58885
1024 2 0.4598 0.191065 0.614613
1025 4 0.470213 0.208399 0.599906
1244 4 0.0285974 0.259355 0.639608
948 4 0.155693 0.255269 0.585144
1237 2 0.310973 0.303284 0.589413
1238 4 0.315643 0.27879 0.591269
906 4 0.442646 0.264141 0.579661
954 4 0.428503 0.275396 0.587746
952 2 0.425715 0.300028 0.59101
953 4 0.422926 0.324661 0.594273
928 2 0.346686 0.40445 0.58161
930 4 0.353145 0.392025 0.602325
1204 2 0.386145 0.391642 0.645467
1205 4 0.38026 0.367343 0.645752
1206 4 0.39203 0.415941 0.645183
806 4 0.350864 0.384969 0.671729
1161 4 0.142182 0.436345 0.584472
1039 2 0.0936524 0.41555 0.586275
1040 4 0.10301 0.427754 0.60599
1160 4 0.130202 0.483058 0.597704
1159 2 0.136192 0.459702 0.591088
991 2 0.113386 0.433441 0.648749
993 4 0.112379 0.430367 0.623955
1186 2 0.233297 0.463407 0.590441
1188 4 0.22115 0.483352 0.599375
1952 4 0.373852 0.484608 0.588862
1269 4 0.406958 0.466704 0.646654
945 4 0.0767752 0.0130709 0.648919
2991 4 0.0203404 0.0616687 0.71231
4338 4 0.0196258 0.00389494 0.701727
1147 2 0.211508 0.065806 0.735098
1149 4 0.205644 0.0430662 0.743683
1005 4 0.370511 0.0624471 0.678824
1004 4 0.365948 0.0414118 0.723961
1003 2 0.36823 0.0519294 0.701392
43 3 0.416126 0.0562044 0.690842
1163 4 0.471914 0.0559066 0.691605
1162 2 0.491718 0.043952 0.701094
42 3 0.452785 0.0643717 0.689417
41 1 0.431919 0.0708598 0.682229
44 3 0.427726 0.0923816 0.68982
862 2 0.0261385 0.117483 0.742085
864 4 0.0227001 0.11538 0.717408
1075 2 0.03287 0.105014 0.68641
1077 4 0.0328783 0.10043 0.71099
909 4 0.12128 0.147531 0.672673
907 2 0.140755 0.13902 0.685844
908 4 0.16023 0.130509 0.699015
1227 4 0.178163 0.134028 0.708634
1148 4 0.217371 0.0885457 0.726513
1225 2 0.197956 0.121654 0.717595
1226 4 0.217749 0.109279 0.726556
829 2 0.320247 0.167543 0.708243
831 4 0.338484 0.150545 0.706333
852 4 0.00943174 0.184761 0.716731
851 4 0.0560405 0.199226 0.727644
850 2 0.0327361 0.191994 0.722188
1107 4 0.0750546 0.205545 0.729281
1105 2 0.0894058 0.21941 0.744347
1106 4 0.103757 0.233275 0.759413
1208 4 0.123146 0.231787 0.67278
1211 4 0.234475 0.182636 0.666061
888 4 0.240118 0.187332 0.68504
1277 4 0.211297 0.226723 0.746834
830 4 0.302011 0.184542 0.710152
886 2 0.263636 0.190519 0.692909
887 4 0.287154 0.193706 0.700777
976 2 0.293462 0.205514 0.741584
978 4 0.28802 0.194145 0.71999
1193 4 0.384486 0.213567 0.683867
1141 2 0.389653 0.181929 0.746268
1142 4 0.398096 0.200153 0.731376
1192 2 0.361145 0.207989 0.690886
1194 4 0.337804 0.202411 0.697905
1262 4 0.415162 0.231645 0.748837
1261 2 0.430528 0.220355 0.732662
1263 4 0.445893 0.209066 0.716487
3121 2 0.487414 0.24625 0.681737
3123 4 0.462798 0.248671 0.678084
1179 4 0.0116258 0.295785 0.711072
821 4 0.158345 0.298701 0.710869
820 2 0.170617 0.279141 0.72046
1064 4 0.229645 0.29226 0.695718
1063 2 0.241692 0.291358 0.71761
822 4 0.182889 0.259581 0.730051
1065 4 0.253739 0.290455 0.739501
893 4 0.0383381 0.384852 0.70061
892 2 0.0411231 0.36125 0.70838
894 4 0.043908 0.337648 0.716151
1280 4 0.0425259 0.401035 0.71145
940 2 0.118638 0.38266 0.745066
1067 4 0.158742 0.394391 0.738953
941 4 0.141396 0.392709 0.747575
942 4 0.0958804 0.372612 0.742556
1029 4 0.251842 0.378142 0.677135
1028 4 0.217701 0.393188 0.710433
1066 2 0.180125 0.399396 0.727001
1068 4 0.201509 0.404402 0.715048
1027 2 0.234771 0.385665 0.693784
1019 4 0.404331 0.326843 0.73301
807 4 0.339832 0.374471 0.719361
805 2 0.345348 0.37972 0.695545
1018 2 0.406104 0.34342 0.751644
1279 2 0.0312866 0.422901 0.706898
1281 4 0.0200472 0.444767 0.702346
1983 4 0.0261005 0.455313 0.717867
1981 2 0.0390686 0.47318 0.729605
1982 4 0.0520367 0.491047 0.741342
992 4 0.114394 0.436514 0.673542
1174 2 0.206928 0.505594 0.712464
1175 4 0.229338 0.499115 0.721463
1139 4 0.281607 0.463719 0.703285
1138 2 0.294656 0.484936 0.705468
1140 4 0.307704 0.506153 0.707651
1228 2 0.356575 0.461868 0.704744
1229 4 0.363108 0.480829 0.719676
1230 4 0.350042 0.442907 0.689811
1989 4 0.353564 0.49209 0.735623
1987 2 0.331182 0.500242 0.743223
3330 4 0.482187 0.439248 0.722703
2168 4 0.437159 0.492787 0.697238
1268 4 0.439643 0.479861 0.682141
1267 2 0.4233 0.473283 0.664397
1100 4 0.447539 0.47632 0.699484
1099 2 0.455512 0.457808 0.714279
1101 4 0.463484 0.439295 0.729074
1294 2 0.0273662 0.0211377 0.821621
1295 4 0.0215927 0.0382481 0.804327
1203 4 0.0862432 0.0510894 0.787443
2049 4 0.114088 0.00807559 0.748653
911 4 0.0927202 0.0701882 0.793448
1202 4 0.114912 0.0252717 0.755627
1196 4 0.129475 0.00305052 0.791461
1201 2 0.100578 0.0381806 0.771535
910 2 0.092316 0.0814266 0.81578
1195 2 0.117894 0.00473703 0.813557
1255 2 0.311514 0.0849347 0.791623
1257 4 0.307077 0.0603917 0.789854
1050 4 0.360479 0.9942 0.779088
1113 4 0.406276 0.0459641 0.790802
973 2 0.382226 0.0230865 0.807474
975 4 0.386634 0.0409571 0.790552
974 4 0.377818 0.00521586 0.824397
1112 4 0.448468 0.0669976 0.80748
846 4 0.461408 0.0611316 0.820676
844 2 0.480976 0.0717381 0.809284
1111 2 0.427372 0.0564809 0.799141
834 4 0.0168472 0.12485 0.823809
863 4 0.0295769 0.119585 0.766762
832 2 0.0140852 0.125346 0.798963
833 4 0.0113231 0.125842 0.774118
34 3 0.110139 0.161023 0.802198
33 3 0.119595 0.156841 0.765626
31 1 0.124069 0.168469 0.785201
839 4 0.272494 0.147985 0.779594