ITEM: TIMESTEP
470000
ITEM: NUMBER OF ATOMS
4590
ITEM: BOX BOUNDS pp pp pp
-9.9985700000000008e+00 9.9985700000000008e+00
-9.9985700000000008e+00 9.9985700000000008e+00
-9.9985700000000008e+00 9.9985700000000008e+00
ITEM: ATOMS id type xs ys zs
463 2 0.0271879 0.0570659 0.043326
465 4 0.0453958 0.07398 0.046076
464 4 0.00897994 0.0401518 0.040576
700 2 0.0780105 0.083206 0.0464613
1667 4 0.066997 0.0645472 0.0806851
702 4 0.101402 0.0746978 0.0440869
534 4 0.223818 0.045725 0.0153606
1475 4 0.232772 0.0141052 0.0555148
490 2 0.293924 0.0291492 0.0589686
491 4 0.307962 0.0324886 0.0793881
492 4 0.279885 0.0258099 0.0385491
2264 4 0.281779 0.022371 0.0189611
557 4 0.343245 0.0666635 0.0450711
1608 4 0.388389 0.0443151 0.0371572
556 2 0.352505 0.0870705 0.0339814
296 4 0.348978 0.05911 0.0624366
1606 2 0.394232 0.0200046 0.0369665
295 2 0.353096 0.0441652 0.0820548
745 2 0.485925 0.0713544 0.0551428
747 4 0.492156 0.0576293 0.0351934
2975 4 0.485717 0.0424265 0.0234634
2974 2 0.473211 0.0464586 0.0021913
701 4 0.0546193 0.0917142 0.0488357
589 2 0.0302046 0.107538 0.0664033
590 4 0.0360414 0.089599 0.0499923
3233 4 0.0176273 0.140643 0.0114481
3232 2 0.0415428 0.141172 0.0187245
3234 4 0.0654584 0.141701 0.026001
421 2 0.104786 0.13944 0.0183072
423 4 0.0951988 0.118044 0.0269956
422 4 0.114373 0.160836 0.0096187
565 2 0.185081 0.113333 0.0488303
566 4 0.170506 0.118941 0.0293029
567 4 0.199655 0.107725 0.0683576
358 2 0.299307 0.142059 0.0161504
360 4 0.281103 0.154133 0.0283172
359 4 0.317511 0.129986 0.00398351
558 4 0.361766 0.107477 0.0228918
746 4 0.479694 0.0850795 0.0750922
827 4 0.410336 0.163053 0.0120718
770 4 0.479459 0.171 0.0595671
1014 4 0.496783 0.164704 0.00861921
555 4 0.077811 0.242699 0.00729978
553 2 0.0649613 0.248352 0.0279907
573 4 0.283696 0.248573 0.0594028
324 4 0.403844 0.232846 0.0592654
771 4 0.437659 0.18399 0.035386
769 2 0.458559 0.177495 0.0474765
554 4 0.0521116 0.254004 0.0486815
292 2 0.12163 0.301284 0.0168568
293 4 0.136379 0.298419 0.0368428
507 4 0.138848 0.309928 0.0523436
505 2 0.16068 0.297946 0.0545729
506 4 0.182512 0.285964 0.0568021
357 4 0.218243 0.273155 0.00879144
483 4 0.205561 0.309638 0.0703562
481 2 0.227696 0.318301 0.0625995
571 2 0.303626 0.258404 0.0479427
482 4 0.249832 0.326963 0.0548428
572 4 0.323556 0.268234 0.0364826
666 4 0.323169 0.267304 0.0170483
1071 4 0.361617 0.260004 0.0208772
1069 2 0.385344 0.263789 0.013958
956 4 0.375811 0.288311 0.000542257
1070 4 0.409071 0.267574 0.00703878
741 4 0.346314 0.331513 0.0744339
322 2 0.407885 0.253933 0.0720789
282 4 0.481918 0.330962 0.0178233
519 4 0.489239 0.258403 0.0852608
330 4 0.0341041 0.406158 0.99669
328 2 0.0130362 0.403718 0.00993268
286 2 0.135856 0.376622 0.00647424
288 4 0.139513 0.398957 0.017104
252 4 0.301458 0.406879 0.0602338
250 2 0.302216 0.408183 0.0352758
251 4 0.302974 0.409488 0.0103178
608 4 0.294548 0.415059 0.0772373
281 4 0.43869 0.347378 0.0368636
671 4 0.441525 0.357616 0.0545594
280 2 0.460304 0.33917 0.0273434
670 2 0.433887 0.356197 0.0783254
550 2 0.06666 0.427491 0.997685
1786 2 0.0510934 0.484875 0.0787262
1787 4 0.0365783 0.484066 0.0583833
314 4 0.999158 0.452536 0.0652665
552 4 0.0810804 0.447385 0.993053
242 4 0.14574 0.481348 0.0456666
241 2 0.160061 0.490805 0.0638505
793 2 0.144096 0.490332 0.00812733
245 4 0.239249 0.4262 0.0167551
244 2 0.253471 0.446702 0.018369
246 4 0.267693 0.467204 0.0199829
272 4 0.280726 0.482216 0.0158627
271 2 0.300991 0.489489 0.0285752
524 4 0.338465 0.47862 0.0655749
563 4 0.484777 0.493394 0.0334521
1668 4 0.0626254 0.0177393 0.0977325
1666 2 0.0648112 0.0411432 0.0892088
20 3 0.0730779 0.039911 0.163981
19 3 0.0368211 0.0491219 0.168254
17 3 0.0621668 0.0752295 0.158839
1420 2 0.0151991 0.00329505 0.162066
16 1 0.0587589 0.0561022 0.171155
450 4 0.141259 0.0748467 0.135918
652 2 0.316331 0.0485723 0.141294
653 4 0.303907 0.067734 0.131113
654 4 0.328755 0.0294106 0.151475
485 4 0.372727 0.0163388 0.106926
297 4 0.357214 0.0292204 0.101673
758 4 0.392968 0.0584749 0.14503
591 4 0.0243678 0.125476 0.0828142
2760 4 0.0115204 0.138377 0.0897276
380 4 0.999718 0.140357 0.161919
448 2 0.164032 0.0843695 0.139906
475 2 0.10371 0.153781 0.113238
477 4 0.10739 0.129088 0.114622
237 4 0.199729 0.151383 0.142331
449 4 0.186804 0.0938922 0.143895
235 2 0.199495 0.127476 0.14965
236 4 0.199261 0.103569 0.15697
693 4 0.202485 0.0859452 0.150607
582 4 0.328444 0.109664 0.147305
580 2 0.313301 0.121668 0.163173
628 2 0.451254 0.147223 0.103857
629 4 0.473324 0.136709 0.109107
630 4 0.429185 0.157738 0.0986066
337 2 0.0857681 0.245334 0.15223
476 4 0.10003 0.178473 0.111854
338 4 0.105575 0.234995 0.163453
737 4 0.189429 0.168175 0.141935
736 2 0.200698 0.187638 0.131007
738 4 0.211967 0.2071 0.12008
354 4 0.246923 0.218659 0.0907578
352 2 0.262084 0.234534 0.102729
285 4 0.291271 0.211625 0.152182
283 2 0.275585 0.226017 0.165297
254 4 0.409419 0.163373 0.100764
253 2 0.387227 0.174745 0.102601
461 4 0.327233 0.236974 0.103037
460 2 0.337446 0.214439 0.0994264
255 4 0.365035 0.186118 0.104438
462 4 0.347659 0.191904 0.0958157
517 2 0.492439 0.235542 0.0948686
339 4 0.0659611 0.255674 0.141006
705 4 0.0155136 0.328128 0.130162
537 4 0.186939 0.326353 0.114733
535 2 0.206524 0.32122 0.129405
536 4 0.226108 0.316087 0.144078
353 4 0.277245 0.25041 0.1147
754 2 0.275368 0.289033 0.131389
755 4 0.272126 0.270126 0.115352
756 4 0.278609 0.307941 0.147427
612 4 0.268982 0.32399 0.154815
622 2 0.395065 0.302869 0.161085
623 4 0.379763 0.315804 0.146128
323 4 0.411926 0.27502 0.0848924
527 4 0.502301 0.311731 0.167534
526 2 0.481341 0.298804 0.163207
528 4 0.460381 0.285877 0.158879
620 4 0.00421955 0.344478 0.12977
621 4 0.0353839 0.380143 0.113723
619 2 0.0198017 0.362311 0.121747
455 4 0.0903489 0.343746 0.0938452
454 2 0.108095 0.361245 0.0958529
456 4 0.125842 0.378744 0.0978607
627 4 0.242317 0.407993 0.107869
609 4 0.324031 0.38695 0.106242
607 2 0.30929 0.401004 0.0917399
610 2 0.27735 0.346802 0.148917
611 4 0.285718 0.369613 0.14302
740 4 0.325278 0.367533 0.102017
386 4 0.331814 0.374024 0.118749
739 2 0.335796 0.349523 0.0882255
387 4 0.340363 0.386883 0.166313
15 3 0.389417 0.356911 0.143803
385 2 0.336088 0.380453 0.142531
11 1 0.410198 0.358232 0.13458
14 3 0.418694 0.379659 0.137244
672 4 0.426249 0.354778 0.102091
12 3 0.408827 0.353516 0.112107
13 3 0.424317 0.342806 0.144635
495 4 0.41806 0.397923 0.130738
597 4 0.477346 0.391576 0.156796
645 4 0.462222 0.380286 0.165423
595 2 0.499994 0.396025 0.166412
1788 4 0.0656086 0.485684 0.0990692
417 4 0.149112 0.4672 0.161226
639 4 0.247796 0.498118 0.113875
625 2 0.254738 0.42039 0.125679
626 4 0.267159 0.432787 0.143489
637 2 0.262176 0.485211 0.129742
638 4 0.276557 0.472304 0.14561
767 4 0.276887 0.478959 0.165102
523 2 0.332984 0.468171 0.0876193
525 4 0.327502 0.457722 0.109664
658 2 0.380506 0.475742 0.15614
660 4 0.402632 0.48338 0.147349
659 4 0.358381 0.468103 0.164931
493 2 0.429347 0.419218 0.137394
494 4 0.440635 0.440512 0.144049
1422 4 0.00785875 0.0239995 0.174009
18 3 0.062685 0.0607935 0.193537
2479 2 0.999099 0.0665476 0.178199
2480 4 0.00306278 0.0434339 0.169526
673 2 0.135441 0.0387597 0.221449
674 4 0.145139 0.0602008 0.212999
675 4 0.125742 0.0173185 0.229899
1505 4 0.225426 0.0422022 0.19617
1504 2 0.241869 0.0264561 0.185832
689 4 0.221525 0.0565391 0.207834
688 2 0.203352 0.0446278 0.220206
692 4 0.213219 0.058952 0.191311
690 4 0.18518 0.0327166 0.232579
691 2 0.207852 0.0724486 0.170959
1506 4 0.258312 0.01071 0.175494
757 2 0.394147 0.046292 0.166833
21 1 0.399368 0.041293 0.22747
24 3 0.386075 0.0249083 0.237126
25 3 0.392454 0.045343 0.206152
759 4 0.395325 0.0341091 0.188636
22 3 0.397524 0.060605 0.239831
312 4 0.41405 0.082353 0.198333
1496 4 0.372315 0.0238788 0.250171
1761 4 0.439689 0.0112653 0.172071
23 3 0.421553 0.0344948 0.227441
1759 2 0.464607 0.0133179 0.172274
1760 4 0.489525 0.0153704 0.172477
742 2 0.456919 0.0577753 0.230249
744 4 0.433203 0.050941 0.226247
743 4 0.480635 0.0646097 0.234251
2744 4 0.495239 0.0125398 0.190828
2724 4 0.498667 0.0295009 0.183224
379 2 0.0102192 0.156361 0.178006
511 2 0.0466277 0.16697 0.229439
512 4 0.0272283 0.169941 0.213946
513 4 0.0660271 0.163999 0.244931
577 2 0.104601 0.129603 0.230108
578 4 0.103722 0.140706 0.207722
723 4 0.201337 0.100992 0.2107
721 2 0.19685 0.120828 0.225246
722 4 0.192362 0.140664 0.239791
546 4 0.188471 0.159433 0.24722
581 4 0.298158 0.133672 0.17904
30 3 0.284785 0.132519 0.193713
26 1 0.291283 0.127492 0.214954
28 3 0.272819 0.121532 0.227681
27 3 0.305959 0.109787 0.214396
29 3 0.301928 0.145761 0.22451
310 2 0.420141 0.106262 0.20239
311 4 0.426231 0.13017 0.206448
381 4 0.02072 0.172364 0.194093
395 4 0.0439824 0.234565 0.249312
363 4 0.115115 0.221431 0.173565
361 2 0.132429 0.237909 0.180903
362 4 0.149744 0.254387 0.188241
284 4 0.259898 0.240409 0.178411
764 4 0.343797 0.23666 0.208344
763 2 0.366844 0.227248 0.210679
765 4 0.389891 0.217836 0.213013
333 4 0.434912 0.182787 0.218023
521 4 0.477966 0.210953 0.238239
331 2 0.436072 0.172823 0.240926
748 2 0.0724793 0.277708 0.241875
372 4 0.157102 0.248539 0.20704
749 4 0.0841715 0.266747 0.222683
277 2 0.226946 0.278188 0.177458
370 2 0.177584 0.261467 0.200832
371 4 0.198066 0.274395 0.194625
279 4 0.208473 0.26219 0.18275
344 4 0.226139 0.269712 0.24298
278 4 0.245419 0.294185 0.172165
307 2 0.320486 0.268369 0.229523
309 4 0.332879 0.264942 0.208079
308 4 0.308094 0.271797 0.250967
624 4 0.410367 0.289934 0.176042
647 4 0.0303854 0.38595 0.184118
646 2 0.0488707 0.371115 0.19208
648 4 0.067356 0.35628 0.200042
300 4 0.150114 0.349586 0.215281
298 2 0.152509 0.359759 0.237996
290 4 0.216258 0.39961 0.225315
302 4 0.320059 0.389354 0.172185
303 4 0.290857 0.382288 0.21216
301 2 0.305458 0.385821 0.192172
729 4 0.297272 0.383406 0.230922
643 2 0.449525 0.383126 0.186775
644 4 0.436829 0.385966 0.208128
447 4 0.449002 0.374165 0.220594
445 2 0.441991 0.384908 0.242056
2618 4 0.0013162 0.500154 0.236656
262 2 0.0836457 0.458351 0.239582
264 4 0.0890228 0.471352 0.218912
415 2 0.164345 0.452994 0.175057
289 2 0.207454 0.417562 0.210302
416 4 0.179579 0.438787 0.188888
291 4 0.198649 0.435514 0.195289
768 4 0.276086 0.461072 0.211793
766 2 0.276486 0.470016 0.188447
232 2 0.0332939 0.0577748 0.292908
233 4 0.0538623 0.0435581 0.292973
1402 2 0.0574433 0.0187844 0.258578
1403 4 0.0622461 0.0344234 0.277487
234 4 0.0127254 0.0719914 0.292843
731 4 0.118643 0.0733014 0.299856
730 2 0.137322 0.0782993 0.315708
1464 4 0.141167 0.999244 0.277253
1699 2 0.264855 0.0324024 0.325116
1700 4 0.287177 0.0353884 0.314255
1495 2 0.37144 0.00453024 0.265984
480 4 0.466968 0.0412768 0.317822
351 4 0.448026 0.0821439 0.271754
530 4 0.995549 0.125769 0.319606
398 4 0.0775022 0.103609 0.314292
397 2 0.0696864 0.127347 0.313516
399 4 0.0618706 0.151085 0.31274
318 4 0.0686122 0.0860771 0.317401
579 4 0.105481 0.1185 0.252494
248 4 0.229749 0.092357 0.307143
599 4 0.182056 0.141612 0.322243
249 4 0.245216 0.139877 0.308975
247 2 0.237482 0.116117 0.308059
404 4 0.230995 0.153055 0.304488
598 2 0.176145 0.11733 0.323013
544 2 0.170177 0.163163 0.263851
600 4 0.170235 0.0930468 0.323782
707 4 0.307359 0.163775 0.296103
632 4 0.384644 0.148414 0.307286
631 2 0.402454 0.131014 0.305
633 4 0.420264 0.113614 0.302714
349 2 0.451936 0.0871509 0.295936
350 4 0.455847 0.0921579 0.320119
332 4 0.437231 0.162858 0.263828
762 4 0.447705 0.156266 0.280621
760 2 0.448019 0.165325 0.303924
394 2 0.0207294 0.241178 0.255696
388 2 0.0634536 0.2399 0.331541
392 4 0.137974 0.178265 0.288209
391 2 0.115908 0.189511 0.291643
393 4 0.093842 0.200758 0.295076
545 4 0.151883 0.166892 0.280483
403 2 0.224325 0.174322 0.315818
405 4 0.217654 0.19559 0.327148
706 2 0.314519 0.172027 0.318594
420 4 0.41501 0.234551 0.320316
717 4 0.395677 0.238324 0.324912
520 2 0.498296 0.213717 0.25253
418 2 0.426211 0.212589 0.324483
761 4 0.448332 0.174384 0.327226
419 4 0.437413 0.190626 0.32865
750 4 0.0607871 0.288669 0.261067
389 4 0.0601146 0.262099 0.320529
735 4 0.161317 0.336454 0.31336
400 2 0.22391 0.262663 0.311078
402 4 0.227905 0.275585 0.332108
401 4 0.219915 0.249741 0.290049
343 2 0.242921 0.284771 0.253785
345 4 0.259704 0.299831 0.264589
496 2 0.280952 0.317792 0.289671
497 4 0.275498 0.311685 0.266046
498 4 0.286407 0.323899 0.313296
543 4 0.405362 0.313646 0.308383
615 4 0.403811 0.331476 0.318692
541 2 0.426186 0.317463 0.29508
542 4 0.44701 0.321281 0.281776
366 4 0.00561587 0.360905 0.293158
364 2 0.0253464 0.358532 0.308332
365 4 0.045077 0.356159 0.323506
601 2 0.0685093 0.411182 0.274979
603 4 0.0557991 0.389675 0.273942
299 4 0.154905 0.369931 0.260711
734 4 0.142931 0.356496 0.271397
733 2 0.152124 0.346475 0.292378
677 4 0.165458 0.335251 0.334069
727 2 0.311854 0.380197 0.250978
433 2 0.307256 0.382644 0.30689
434 4 0.313672 0.370524 0.285983
728 4 0.326436 0.376988 0.271034
435 4 0.300839 0.394763 0.327797
613 2 0.38019 0.339235 0.321343
614 4 0.356569 0.346993 0.323995
446 4 0.434979 0.395651 0.263518
263 4 0.0782686 0.44535 0.260252
602 4 0.0812194 0.43269 0.276017
549 4 0.0392109 0.445754 0.325686
2463 4 0.0198909 0.440718 0.327085
777 4 0.130797 0.455657 0.286374
775 2 0.114457 0.467675 0.300994
776 4 0.0981164 0.479692 0.315615
414 4 0.145875 0.442392 0.285198
500 4 0.10299 0.483272 0.334987
412 2 0.169626 0.435963 0.280757
413 4 0.193377 0.429534 0.276317
436 2 0.285415 0.448374 0.313787
437 4 0.261893 0.456772 0.312634
438 4 0.308938 0.439976 0.314939
713 4 0.401114 0.473305 0.288002
712 2 0.424999 0.467 0.284136
714 4 0.448884 0.460696 0.280269
317 4 0.0680408 0.0684177 0.364183
428 4 0.0635946 0.997244 0.398151
427 2 0.0655281 0.00541502 0.374599
429 4 0.0674616 0.0135862 0.351048
316 2 0.0683265 0.0772474 0.340792
1780 2 0.122325 0.017884 0.39285
1781 4 0.116931 0.0414566 0.399208
1701 4 0.242532 0.0294164 0.335978
606 4 0.166188 0.0519623 0.397361
604 2 0.182197 0.063129 0.381734
605 4 0.198205 0.0742957 0.366106
439 2 0.280995 0.0095216 0.406378
257 4 0.374209 0.0583365 0.344995
698 4 0.375611 0.0413402 0.356476
697 2 0.36535 0.0199606 0.348552
256 2 0.392257 0.0667873 0.360096
258 4 0.410305 0.075238 0.375197
424 2 0.408922 0.0815964 0.414175
479 4 0.464431 0.00563965 0.352812
478 2 0.465699 0.0234582 0.335317
685 2 0.138532 0.1397 0.406222
686 4 0.128996 0.161127 0.397556
732 4 0.156001 0.0832972 0.331561
683 4 0.289718 0.109146 0.344036
682 2 0.285568 0.107522 0.368639
684 4 0.281418 0.105898 0.393243
320 4 0.272993 0.112153 0.409169
426 4 0.414583 0.0868273 0.390389
516 4 0.415726 0.153276 0.406674
452 4 0.493029 0.159834 0.339656
451 2 0.472524 0.155841 0.353396
453 4 0.452019 0.151847 0.367135
514 2 0.429529 0.143253 0.388393
515 4 0.443332 0.13323 0.370112
390 4 0.0667925 0.217702 0.342552
2653 2 0.0100684 0.22907 0.352964
2654 4 0.0330524 0.231036 0.36261
474 4 0.245642 0.196333 0.351079
708 4 0.321679 0.180279 0.341084
472 2 0.267504 0.207617 0.346616
473 4 0.289366 0.218901 0.342154
487 2 0.318174 0.222555 0.413732
489 4 0.297498 0.209846 0.419745
488 4 0.33885 0.235265 0.407719
268 2 0.476584 0.233899 0.382908
269 4 0.481951 0.239129 0.359054
270 4 0.471216 0.228669 0.406762
275 4 0.187432 0.258579 0.375593
508 2 0.237562 0.309616 0.353944
510 4 0.236903 0.286274 0.345005
375 4 0.180849 0.317935 0.388397
274 2 0.208284 0.263281 0.362622
276 4 0.229137 0.267982 0.349651
373 2 0.194888 0.304442 0.404082
678 4 0.171412 0.306305 0.374411
509 4 0.238221 0.332958 0.362883
676 2 0.168435 0.320778 0.35424
378 4 0.245548 0.269953 0.340441
376 2 0.267441 0.262491 0.349938
377 4 0.289334 0.255029 0.359434
715 2 0.385539 0.258868 0.33493
716 4 0.375401 0.279411 0.344948
616 2 0.0798754 0.347735 0.399044
617 4 0.0897699 0.36448 0.383332
408 4 0.106346 0.399516 0.371228
502 2 0.246497 0.399826 0.405933
503 4 0.262158 0.394244 0.387258
753 4 0.404563 0.383245 0.373884
2923 2 0.503057 0.336965 0.351787
561 4 0.465854 0.391189 0.38373
752 4 0.450591 0.40246 0.377479
559 2 0.481081 0.384856 0.402524
751 2 0.427577 0.392853 0.375681
2925 4 0.493633 0.335521 0.374902
2461 2 0.999787 0.451443 0.337381
547 2 0.0573272 0.449382 0.342532
548 4 0.0754435 0.453011 0.359379
407 4 0.0847672 0.444464 0.375072
501 4 0.106139 0.478834 0.384697
406 2 0.0955564 0.42199 0.37315
499 2 0.104564 0.481053 0.359842
570 4 0.146759 0.477189 0.404158
1557 4 0.251038 0.466252 0.408836
5 3 0.290162 0.462789 0.365947
1 1 0.304847 0.476616 0.37652
2 3 0.294054 0.49606 0.382402
4 3 0.312907 0.466404 0.395734
3 3 0.322455 0.481809 0.362328
1555 2 0.253594 0.491111 0.408025
594 4 0.39832 0.471615 0.347193
592 2 0.41689 0.488184 0.349607
3989 4 0.498488 0.500194 0.402653
718 2 0.0650685 0.0620808 0.468144
720 4 0.0592644 0.0485105 0.488327
2237 4 0.0465993 0.0375243 0.496204
2236 2 0.04443 0.0128928 0.492494
719 4 0.0708727 0.075651 0.447961
367 2 0.132833 0.0573176 0.436394
369 4 0.146537 0.0690528 0.453705
368 4 0.119129 0.0455824 0.419083
342 4 0.182934 0.0775092 0.491527
441 4 0.281586 0.0196091 0.429248
1180 2 0.252034 0.0780493 0.500296
425 4 0.403261 0.0763655 0.437961
726 4 0.352488 0.0812042 0.499332
458 4 0.0166803 0.16758 0.426251
687 4 0.148068 0.118272 0.414889
1182 4 0.232047 0.0892693 0.490305
321 4 0.282537 0.106743 0.457958
319 2 0.277765 0.109448 0.433564
724 2 0.361541 0.090982 0.478175
725 4 0.370593 0.10076 0.457018
468 4 0.345377 0.153489 0.438845
574 2 0.417578 0.160707 0.448346
575 4 0.420832 0.152903 0.424815
642 4 0.478345 0.112835 0.486096
2880 4 0.48493 0.0984572 0.475773
471 4 0.999682 0.19273 0.477727
469 2 0.0230221 0.18835 0.469902
470 4 0.0463623 0.18397 0.462077
260 4 0.103158 0.215629 0.437319
261 4 0.100457 0.176951 0.468901
259 2 0.101807 0.19629 0.45311
1035 4 0.115307 0.168408 0.481687
695 4 0.0948214 0.248426 0.490208
411 4 0.253738 0.217691 0.431992
409 2 0.265363 0.207328 0.451553
410 4 0.276989 0.196965 0.471114
467 4 0.373823 0.194599 0.44008
466 2 0.3596 0.174044 0.439462
576 4 0.414325 0.168511 0.471877
305 4 0.462109 0.180667 0.450166
306 4 0.472366 0.223701 0.426851
304 2 0.467237 0.202184 0.438508
618 4 0.069981 0.33099 0.414757
347 4 0.0674184 0.319386 0.430712
346 2 0.0504648 0.301404 0.434504
348 4 0.0335112 0.283421 0.438296
694 2 0.108723 0.268742 0.494585
696 4 0.122625 0.289058 0.498963
374 4 0.208927 0.290949 0.419767
649 2 0.246831 0.31038 0.466037
651 4 0.257418 0.288326 0.46087
266 4 0.311428 0.290413 0.451484
872 4 0.388335 0.253318 0.480005
267 4 0.357975 0.276546 0.463392
265 2 0.334702 0.28348 0.457438
2456 4 0.499239 0.265668 0.477235
583 2 0.468081 0.286851 0.453703
584 4 0.487947 0.276257 0.46458
585 4 0.448215 0.297444 0.442826
326 4 0.0642991 0.338748 0.430537
325 2 0.062735 0.354958 0.44951
935 4 0.0126777 0.408576 0.48932
327 4 0.0611709 0.371168 0.468483
383 4 0.0829889 0.409529 0.43599
7 3 0.137432 0.367744 0.471184
6 1 0.151748 0.353635 0.482372
8 3 0.167299 0.366374 0.49396
10 3 0.16235 0.340229 0.467322
9 3 0.13946 0.340706 0.497212
650 4 0.236243 0.332434 0.471204
711 4 0.178536 0.37841 0.482695
709 2 0.203143 0.378868 0.478287
710 4 0.227751 0.379327 0.473878
504 4 0.230836 0.405408 0.424608
804 4 0.285664 0.380099 0.497325
812 4 0.306148 0.331267 0.476842
336 4 0.364741 0.404304 0.423162
334 2 0.371428 0.393875 0.444881
240 4 0.38719 0.374867 0.482595
335 4 0.378114 0.383446 0.466599
560 4 0.496308 0.378523 0.421318
1382 4 0.00787529 0.500968 0.470843
681 4 0.0651499 0.415022 0.428021
680 4 0.0275691 0.446905 0.436497
1381 2 0.0185831 0.480887 0.460486
1383 4 0.0292909 0.460806 0.450129
679 2 0.0463595 0.430964 0.432259
568 2 0.140561 0.465011 0.425097
569 4 0.134363 0.452833 0.446037
382 2 0.101731 0.424103 0.443834
384 4 0.120473 0.438676 0.451677
774 4 0.218767 0.418529 0.48538
635 4 0.204745 0.431068 0.478068
636 4 0.219168 0.471558 0.452509
634 2 0.211957 0.451313 0.465288
669 4 0.328656 0.470189 0.459218
667 2 0.315476 0.455823 0.443564
668 4 0.302296 0.441456 0.427909
587 4 0.407984 0.460921 0.457964
880 2 0.340727 0.465917 0.501393
882 4 0.34473 0.487935 0.490241
586 2 0.393544 0.444452 0.445904
588 4 0.379104 0.427983 0.433844
1454 4 0.330083 0.500361 0.49651
1126 2 0.0516843 0.0451733 0.542803
1127 4 0.055086 0.0209083 0.537821
1128 4 0.0482827 0.0694383 0.547785
1058 4 0.158703 0.0460671 0.553254
1057 2 0.145729 0.0661521 0.560565
340 2 0.196895 0.0590972 0.501081
341 4 0.210856 0.0406852 0.510634
2430 4 0.219284 0.0247771 0.519454
2428 2 0.203609 0.00547404 0.516835
961 2 0.274223 0.0468815 0.538887
963 4 0.274519 0.0469213 0.513885
962 4 0.273927 0.0468417 0.563889
430 2 0.312493 0.0647988 0.505034
1181 4 0.272021 0.0668292 0.510287
432 4 0.288584 0.0578458 0.507309
1217 4 0.403678 0.0493786 0.530604
841 2 0.370461 0.0580758 0.526238
842 4 0.387497 0.051351 0.543259
843 4 0.353424 0.0648006 0.509217
431 4 0.336402 0.0717518 0.502759
1216 2 0.420664 0.0340761 0.540728
1218 4 0.43765 0.0187736 0.550852
939 4 0.0825782 0.103226 0.527946
938 4 0.121403 0.0983539 0.559085
937 2 0.101991 0.10079 0.543516
1059 4 0.132756 0.086237 0.567876
1155 4 0.132796 0.104094 0.574073
1153 2 0.143381 0.126702 0.572651
1154 4 0.153966 0.149309 0.57123
1031 4 0.225684 0.108104 0.56868
1152 4 0.170421 0.0866586 0.504836
1030 2 0.249756 0.102012 0.571614
1151 4 0.188752 0.128403 0.525382
1150 2 0.179586 0.107531 0.515109
1032 4 0.273828 0.0959198 0.574547
898 2 0.331127 0.129323 0.55325
900 4 0.321047 0.1382 0.574339
899 4 0.341208 0.120446 0.53216
641 4 0.458446 0.12795 0.529412
3159 4 0.500844 0.150153 0.535134
640 2 0.468395 0.120393 0.507754
877 2 0.0760737 0.21918 0.566575
878 4 0.0593189 0.232698 0.553858
1034 4 0.105983 0.167015 0.530798
1033 2 0.110645 0.167712 0.506242
879 4 0.0928285 0.205663 0.579292
1221 4 0.181506 0.187511 0.577516
857 4 0.246046 0.218968 0.512165
858 4 0.25149 0.189608 0.552278
856 2 0.248768 0.204288 0.532221
873 4 0.386966 0.242106 0.52872
3065 4 0.481235 0.242147 0.550111
904 2 0.460823 0.253527 0.572814
905 4 0.484821 0.24786 0.568675
982 2 0.0561131 0.330172 0.533467
984 4 0.041195 0.319439 0.550421
1258 2 0.156005 0.287284 0.516378
1260 4 0.14015 0.281667 0.497878
1259 4 0.17186 0.2929 0.534878
813 4 0.295915 0.305359 0.518372
1239 4 0.289583 0.322713 0.584404
1237 2 0.303007 0.301645 0.583364
811 2 0.301032 0.318313 0.497607
871 2 0.38765 0.247712 0.504362
906 4 0.436824 0.259195 0.576954
954 4 0.420769 0.272252 0.574916
952 2 0.421065 0.296375 0.581485
983 4 0.0710312 0.340904 0.516513
1041 4 0.0717832 0.41154 0.572644
934 2 0.998313 0.396778 0.506042
1136 4 0.0973468 0.342804 0.582372
1137 4 0.123181 0.385618 0.582907
1135 2 0.110264 0.364211 0.582639
1189 2 0.197701 0.370757 0.572406
1190 4 0.208954 0.349853 0.564561
896 4 0.172715 0.397448 0.56683
802 2 0.274862 0.373341 0.518838
803 4 0.264061 0.366583 0.540351
239 4 0.39369 0.358166 0.52928
928 2 0.3381 0.402002 0.577724
238 2 0.39044 0.366516 0.505938
925 2 0.460277 0.402294 0.542208
926 4 0.475542 0.400898 0.522455
927 4 0.445011 0.403689 0.561962
3309 4 0.492724 0.410321 0.519322
2244 4 0.131155 0.497101 0.508837
2243 4 0.15493 0.480204 0.549457
2242 2 0.143042 0.488652 0.529147
1161 4 0.158123 0.439349 0.587532
772 2 0.236034 0.418506 0.503464
773 4 0.2533 0.418483 0.521549
889 2 0.331548 0.457334 0.574248
891 4 0.307541 0.452994 0.56877
929 4 0.335243 0.424552 0.567306
890 4 0.355555 0.461675 0.579726
881 4 0.336725 0.443899 0.512544
1002 4 0.400606 0.426019 0.570425
1000 2 0.423315 0.436139 0.573077
1001 4 0.446025 0.446259 0.575729
662 4 0.454014 0.479327 0.517222
1332 4 0.460382 0.493055 0.529887
661 2 0.440004 0.45913 0.51264
663 4 0.425995 0.438933 0.508057
945 4 0.0798631 0.0238059 0.653015
943 2 0.0777918 0.048675 0.651461
944 4 0.0757206 0.0735442 0.649908
2319 4 0.0659473 0.0107854 0.646623
951 4 0.243083 0.00559002 0.602399
1092 4 0.366064 0.0200599 0.660914
809 4 0.430355 0.0762913 0.600021
45 3 0.42865 0.0730346 0.661388
1083 4 0.0695545 0.104765 0.613988
1082 4 0.0318192 0.119918 0.643094
1081 2 0.0506868 0.112341 0.628541
1076 4 0.0239017 0.126234 0.661144
1284 4 0.198116 0.0848046 0.62194
1282 2 0.190142 0.0829958 0.645569
808 2 0.450372 0.0864613 0.611025
810 4 0.470388 0.0966313 0.622029
1026 4 0.457833 0.164533 0.613101
1199 4 0.0251332 0.201994 0.614783
1245 4 0.0789193 0.23393 0.628842
1243 2 0.058321 0.248036 0.62746
1198 2 0.00507494 0.208868 0.601532
1272 4 0.0984446 0.197746 0.59732
1270 2 0.122431 0.197055 0.590295
1271 4 0.146417 0.196364 0.58327
1209 4 0.0851363 0.244922 0.645324
946 2 0.163733 0.245347 0.602297
1207 2 0.105233 0.248803 0.659685
1210 2 0.230925 0.193222 0.646252
1212 4 0.234623 0.192724 0.621528
1219 2 0.20009 0.192294 0.593544
1220 4 0.218675 0.197078 0.609572
796 2 0.243291 0.227369 0.603572
947 4 0.176091 0.223716 0.600155
798 4 0.23027 0.210628 0.616814
797 4 0.256312 0.24411 0.590329
791 4 0.31974 0.216712 0.585656
790 2 0.317468 0.241144 0.590466
1024 2 0.462865 0.188754 0.616732
1025 4 0.467896 0.212975 0.620364
1244 4 0.0377227 0.262142 0.626079
948 4 0.151376 0.266977 0.604438
792 4 0.315196 0.265575 0.595275
1238 4 0.316431 0.280576 0.582324
953 4 0.421362 0.320498 0.588055
897 4 0.129173 0.402591 0.59088
895 2 0.150944 0.400019 0.578855
1191 4 0.186447 0.391662 0.580251
930 4 0.340957 0.379452 0.588141
1204 2 0.380751 0.389185 0.644247
1205 4 0.391463 0.367341 0.638479
1206 4 0.370038 0.411029 0.650014
806 4 0.348395 0.380819 0.662756
1039 2 0.0839065 0.417798 0.593597
1040 4 0.0960298 0.424057 0.61455
1160 4 0.136886 0.48364 0.596915
1159 2 0.147504 0.461494 0.592223
991 2 0.111981 0.430029 0.643597
993 4 0.114427 0.421841 0.620099
1187 4 0.238368 0.439144 0.588311
1186 2 0.22145 0.453334 0.600042
1188 4 0.204532 0.467523 0.611773
1173 4 0.256264 0.433413 0.590388
1171 2 0.280869 0.436088 0.586832
1172 4 0.305473 0.438764 0.583277
1952 4 0.356296 0.482452 0.581918
1269 4 0.400803 0.483638 0.659742
2991 4 9.42576e-05 0.0601851 0.724309
2049 4 0.10223 0.00947873 0.750332
1147 2 0.214998 0.0733181 0.730936
1149 4 0.204204 0.0520663 0.723385
1005 4 0.362985 0.072201 0.693513
1004 4 0.367484 0.0382425 0.729945
1003 2 0.365234 0.0552217 0.711729
43 3 0.414107 0.057958 0.692675
1163 4 0.470041 0.0513988 0.684575
1162 2 0.490649 0.039856 0.692775
42 3 0.450875 0.0551083 0.685421
2320 2 0.499811 0.0138125 0.740844
41 1 0.432454 0.0687408 0.683428
44 3 0.436534 0.0885693 0.694767
862 2 0.0247936 0.110705 0.743867
864 4 0.0387694 0.107547 0.723376
1075 2 0.0342614 0.118549 0.682563
1077 4 0.0446211 0.110864 0.703983
909 4 0.120321 0.142246 0.685971
907 2 0.1402 0.137574 0.700399
908 4 0.160079 0.132902 0.714827
1283 4 0.182168 0.081187 0.669198
1227 4 0.176255 0.141013 0.725488
1148 4 0.225793 0.0945699 0.738487
1225 2 0.196248 0.126175 0.72779
1226 4 0.21624 0.111337 0.730092
829 2 0.317116 0.157868 0.716638
831 4 0.329195 0.13611 0.719063
3426 4 0.500773 0.0950688 0.684429
852 4 0.0125755 0.183518 0.713771
851 4 0.0571272 0.192248 0.734738
850 2 0.0348514 0.187883 0.724254
1107 4 0.063433 0.208445 0.7242
1105 2 0.0832651 0.219841 0.7343
1106 4 0.103097 0.231236 0.7444
1211 4 0.227228 0.19372 0.670976
888 4 0.246772 0.189306 0.676753
830 4 0.305038 0.179626 0.714213
886 2 0.267427 0.184827 0.690113
887 4 0.288082 0.180348 0.703473
976 2 0.283539 0.196366 0.743774
978 4 0.287855 0.184176 0.722373
1193 4 0.382833 0.206839 0.67844
1141 2 0.387654 0.175914 0.742457
1142 4 0.378478 0.188985 0.723219
1192 2 0.363802 0.196741 0.691129
1194 4 0.344771 0.186642 0.703818
1262 4 0.41502 0.240446 0.75082
1261 2 0.428703 0.225594 0.736076
1263 4 0.442386 0.210742 0.721332
3121 2 0.486824 0.234916 0.682889
3123 4 0.462835 0.233736 0.689842
1208 4 0.12533 0.252684 0.674046
821 4 0.161469 0.301646 0.704307
820 2 0.173885 0.28735 0.720636
1064 4 0.237164 0.300353 0.693893
1063 2 0.245981 0.302297 0.71721
822 4 0.1863 0.273054 0.736965
1236 4 0.255262 0.322452 0.750325
1065 4 0.254798 0.30424 0.740527
893 4 0.0506427 0.386268 0.693205
892 2 0.0450109 0.366316 0.707183
894 4 0.0393791 0.346364 0.72116
1280 4 0.0347232 0.399748 0.692528
3275 4 0.00239968 0.395466 0.694626
940 2 0.125342 0.380071 0.742455
1067 4 0.154233 0.396674 0.730532
941 4 0.150193 0.382459 0.74384
942 4 0.100491 0.377683 0.74107
1029 4 0.229969 0.376949 0.670355
1028 4 0.2159 0.393161 0.715521
1066 2 0.176473 0.39936 0.719425
1068 4 0.198713 0.402045 0.708319
1027 2 0.222935 0.385055 0.692938
1019 4 0.405654 0.347867 0.725066
807 4 0.343615 0.369657 0.711266
805 2 0.346005 0.375238 0.687011
1018 2 0.396101 0.345859 0.748086
1279 2 0.0405213 0.423324 0.698508
1281 4 0.0463194 0.446899 0.704487
1983 4 0.0317939 0.460215 0.708321
1981 2 0.0341193 0.472852 0.72977
1982 4 0.0364447 0.485489 0.75122
992 4 0.109535 0.438217 0.667095
1174 2 0.199474 0.488791 0.709318
1175 4 0.210816 0.473386 0.693217
1139 4 0.280299 0.445026 0.700829
1138 2 0.297346 0.462282 0.694762
1140 4 0.314394 0.479537 0.688695
1228 2 0.357939 0.461103 0.707566
1229 4 0.360155 0.48598 0.708752
1230 4 0.355722 0.436226 0.706381
1989 4 0.354078 0.491928 0.726912
3330 4 0.501462 0.421034 0.717041
2168 4 0.433151 0.480859 0.718766
1268 4 0.430005 0.477336 0.699844
1267 2 0.415404 0.480487 0.679793
1100 4 0.44331 0.467178 0.708668
1099 2 0.454684 0.445285 0.712732
1101 4 0.466058 0.423393 0.716797
1294 2 0.0350528 0.0175422 0.82262
1295 4 0.0313292 0.020245 0.798043
911 4 0.0970569 0.069375 0.798317
1202 4 0.0916768 0.0276693 0.746298
1196 4 0.123662 0.00838259 0.788903
1203 4 0.0962425 0.0653047 0.778908
1201 2 0.0939597 0.046487 0.762603
910 2 0.102742 0.0793593 0.820525
1255 2 0.294766 0.0750711 0.790806
1257 4 0.294574 0.0507489 0.7966
1050 4 0.348651 0.0117323 0.780431
1113 4 0.39845 0.0479774 0.787416
973 2 0.3756 0.0268823 0.807202
975 4 0.381179 0.0397101 0.786478
974 4 0.370021 0.0140545 0.827927
2322 4 0.493242 0.00650746 0.763837
845 4 0.497474 0.0544981 0.798402
1112 4 0.444303 0.0598989 0.80342
846 4 0.452918 0.0565395 0.821013
844 2 0.475196 0.0555188 0.809707
1111 2 0.421377 0.0539382 0.795418
834 4 0.0191604 0.130925 0.81893
863 4 0.0108177 0.113862 0.764358
832 2 0.0113685 0.1307 0.795172
833 4 0.00357654 0.130474 0.771415