ITEM: TIMESTEP
780000
ITEM: NUMBER OF ATOMS
4590
ITEM: BOX BOUNDS pp pp pp
-9.9985700000000008e+00 9.9985700000000008e+00
-9.9985700000000008e+00 9.9985700000000008e+00
-9.9985700000000008e+00 9.9985700000000008e+00
ITEM: ATOMS id type xs ys zs
463 2 0.00651517 0.0626112 0.0482273
465 4 0.025326 0.0775379 0.0551932
1667 4 0.0366583 0.0655878 0.0646999
701 4 0.0435852 0.0711789 0.0479654
590 4 0.0414251 0.0839239 0.062042
700 2 0.0560445 0.0801639 0.028237
702 4 0.0685039 0.0891489 0.0085085
1666 2 0.0539557 0.0514848 0.075973
1475 4 0.225551 0.013201 0.0426677
1474 2 0.221992 0.994105 0.0269246
490 2 0.294546 0.0338574 0.0465296
491 4 0.311514 0.0495877 0.0560079
492 4 0.277579 0.0181272 0.0370512
2264 4 0.267003 0.0149426 0.0190804
296 4 0.325384 0.0480607 0.069567
557 4 0.325375 0.062196 0.0549662
556 2 0.319392 0.0853889 0.0477919
1606 2 0.393656 0.0108958 0.998094
295 2 0.343302 0.0314637 0.0749197
745 2 0.462049 0.0633404 0.056299
747 4 0.469329 0.0645636 0.0324102
2975 4 0.474793 0.0821718 0.0253912
2974 2 0.462504 0.0860667 0.00396696
746 4 0.454768 0.0621172 0.0801877
1826 4 0.465391 0.00271027 0.0629358
589 2 0.0319687 0.104487 0.0726676
3232 2 0.00967101 0.145933 0.0170254
3234 4 0.997988 0.130504 0.0328566
3233 4 0.0213543 0.161362 0.00119424
423 4 0.080456 0.0989977 0.0206892
591 4 0.0225123 0.125051 0.0832932
421 2 0.0953963 0.11551 0.0093173
422 4 0.110337 0.132022 0.997945
534 4 0.2147 0.0838986 0.00785952
566 4 0.180796 0.0959966 0.0809234
565 2 0.180454 0.112533 0.0621718
567 4 0.180113 0.129069 0.0434202
558 4 0.313409 0.108582 0.0406176
770 4 0.438329 0.173601 0.0165239
629 4 0.444764 0.151276 0.0748403
554 4 0.0650673 0.235535 0.0514301
553 2 0.0773799 0.23056 0.0302444
555 4 0.0896925 0.225586 0.00905874
355 2 0.216937 0.245504 0.0144664
357 4 0.234261 0.252723 0.0309866
360 4 0.292834 0.179349 0.00507864
461 4 0.32359 0.210337 0.0502596
460 2 0.341329 0.20855 0.0677906
769 2 0.442422 0.171591 0.0411081
827 4 0.441435 0.16443 0.997994
771 4 0.446516 0.169581 0.0656923
1056 4 0.0581789 0.324604 0.00252195
292 2 0.13037 0.297051 0.0284396
293 4 0.144922 0.314827 0.0383117
507 4 0.157592 0.301406 0.0455074
294 4 0.115819 0.279276 0.0185675
505 2 0.175452 0.318035 0.050955
506 4 0.193312 0.334664 0.0564027
483 4 0.194789 0.33903 0.0762228
481 2 0.219575 0.342045 0.074904
666 4 0.309231 0.256972 0.0357024
572 4 0.292014 0.265855 0.033119
571 2 0.284634 0.266751 0.0569921
664 2 0.330256 0.251684 0.0232455
1071 4 0.373681 0.300779 0.00968782
1069 2 0.388531 0.288175 0.0253662
1070 4 0.40338 0.275571 0.0410447
322 2 0.406331 0.246069 0.0755988
956 4 0.361121 0.315533 0.00112383
323 4 0.403946 0.260372 0.0552296
671 4 0.447638 0.316215 0.0736212
314 4 0.994107 0.409894 0.0514672
288 4 0.123759 0.343154 0.034686
286 2 0.129939 0.35302 0.012558
252 4 0.310626 0.388647 0.0459482
250 2 0.309944 0.374897 0.0250756
251 4 0.309262 0.361148 0.00420302
608 4 0.316329 0.378293 0.0621529
281 4 0.444708 0.319389 0.0539392
282 4 0.476431 0.32684 0.0160069
280 2 0.460569 0.323114 0.034973
1787 4 0.0289627 0.482585 0.0661098
793 2 0.149901 0.491898 0.0133928
241 2 0.170418 0.493595 0.0669518
245 4 0.270109 0.44094 0.0269665
244 2 0.284797 0.457251 0.0149915
246 4 0.299485 0.473561 0.00301658
272 4 0.295317 0.492544 0.0031584
523 2 0.324587 0.442956 0.0739522
524 4 0.317956 0.455848 0.0943241
525 4 0.331219 0.430065 0.0535802
562 2 0.463566 0.472449 0.00845366
1668 4 0.071253 0.0373817 0.0872462
1420 2 0.0359724 0.0201044 0.143393
1422 4 0.0349902 0.0390398 0.159692
450 4 0.14742 0.0669902 0.136395
652 2 0.306473 0.0603706 0.134429
653 4 0.308 0.0842959 0.127328
654 4 0.304946 0.0364452 0.14153
485 4 0.368754 0.999091 0.092216
297 4 0.36122 0.0148666 0.0802724
758 4 0.408908 0.0517783 0.131308
757 2 0.407188 0.0563257 0.155834
1761 4 0.465447 0.9981 0.164879
477 4 0.0748488 0.17492 0.115558
2760 4 0.0125839 0.140947 0.0939533
448 2 0.160212 0.0820968 0.15167
237 4 0.194491 0.155503 0.144705
235 2 0.186288 0.134555 0.155616
236 4 0.178086 0.113607 0.166528
449 4 0.173004 0.0972034 0.166945
630 4 0.412256 0.162898 0.111019
254 4 0.398508 0.177377 0.116603
628 2 0.42851 0.157087 0.0929296
475 2 0.0972723 0.180856 0.124892
476 4 0.119696 0.186792 0.134226
737 4 0.182833 0.171404 0.150537
736 2 0.179979 0.192238 0.13701
738 4 0.177126 0.213072 0.123484
354 4 0.298929 0.213615 0.118353
352 2 0.291566 0.234528 0.106793
283 2 0.299017 0.204471 0.161098
284 4 0.296694 0.205202 0.136214
253 2 0.380299 0.181887 0.100072
255 4 0.36209 0.186396 0.0835406
462 4 0.359067 0.206763 0.0853216
324 4 0.408716 0.231765 0.095968
517 2 0.489939 0.207267 0.0953406
518 4 0.466172 0.200597 0.0993197
535 2 0.218235 0.282581 0.131455
536 4 0.224568 0.259193 0.125286
537 4 0.211901 0.305969 0.137624
482 4 0.244361 0.34506 0.0735851
573 4 0.277255 0.267646 0.0808651
353 4 0.284204 0.25544 0.0952326
754 2 0.272529 0.288474 0.11704
755 4 0.273128 0.270917 0.0992479
756 4 0.271929 0.306032 0.134832
612 4 0.271132 0.316081 0.151896
623 4 0.380965 0.292296 0.139507
670 2 0.432087 0.328099 0.0891813
528 4 0.477195 0.319657 0.142319
705 4 0.0266266 0.352823 0.155748
620 4 0.0224751 0.371795 0.14957
621 4 0.0280542 0.370381 0.0998949
619 2 0.0252647 0.371088 0.124732
455 4 0.101876 0.347586 0.133658
454 2 0.0903896 0.361495 0.116344
456 4 0.0789027 0.375404 0.0990301
627 4 0.251323 0.399001 0.121628
625 2 0.247783 0.389365 0.144427
626 4 0.244242 0.379729 0.167226
607 2 0.326893 0.373424 0.0842862
610 2 0.285409 0.336327 0.15528
387 4 0.318202 0.358643 0.155303
611 4 0.299687 0.356572 0.158664
385 2 0.334793 0.358573 0.136598
672 4 0.416536 0.339983 0.104741
741 4 0.400159 0.346474 0.0952738
609 4 0.337457 0.368555 0.106419
740 4 0.351627 0.357806 0.0993842
386 4 0.351384 0.358503 0.117892
739 2 0.375893 0.35214 0.097329
15 3 0.418164 0.378509 0.113087
13 3 0.405411 0.364127 0.145463
11 1 0.422674 0.363894 0.129961
526 2 0.470247 0.343634 0.143739
12 3 0.424599 0.342674 0.121293
14 3 0.442656 0.369627 0.14027
495 4 0.458263 0.381697 0.141119
493 2 0.463244 0.399146 0.123917
527 4 0.463299 0.367611 0.145159
597 4 0.474118 0.380524 0.154069
645 4 0.454977 0.375783 0.155157
595 2 0.495721 0.385666 0.165561
1786 2 0.0348612 0.494254 0.0874222
1788 4 0.0407598 0.505923 0.108735
1438 2 0.215445 0.498598 0.103469
243 4 0.179029 0.480986 0.0867521
1440 4 0.197569 0.484328 0.0933686
1430 4 0.186452 0.488723 0.162507
637 2 0.259931 0.49411 0.136927
638 4 0.268237 0.47741 0.153578
767 4 0.280919 0.462379 0.158482
660 4 0.410346 0.462159 0.165918
494 4 0.468224 0.416595 0.106715
226 2 0.486817 0.490178 0.099403
227 4 0.499454 0.471815 0.0880764
19 3 0.0476997 0.0431034 0.174243
2480 4 0.0291362 0.0490539 0.169603
17 3 0.0708369 0.052584 0.202304
16 1 0.0621429 0.0348959 0.190443
18 3 0.0506149 0.0210204 0.205037
2479 2 0.0168183 0.0697856 0.176209
20 3 0.0791475 0.0233936 0.180584
673 2 0.127061 0.0527998 0.245986
674 4 0.14255 0.0722802 0.248395
675 4 0.111573 0.0333194 0.243577
1505 4 0.22565 0.0552348 0.191979
1504 2 0.239428 0.0362968 0.183222
689 4 0.22684 0.0626658 0.209735
688 2 0.216812 0.0622721 0.232636
692 4 0.225894 0.0739516 0.193238
690 4 0.206784 0.0618785 0.255538
1506 4 0.253206 0.0173587 0.174465
21 1 0.403479 0.0410058 0.212755
24 3 0.396858 0.0188646 0.214837
25 3 0.395377 0.049747 0.193348
759 4 0.405467 0.0608732 0.18036
22 3 0.395112 0.0529724 0.230529
1496 4 0.383711 0.0202596 0.230776
312 4 0.39809 0.0689349 0.193511
1759 2 0.484563 0.0107387 0.174879
23 3 0.426639 0.0424052 0.213007
742 2 0.454455 0.040986 0.232804
744 4 0.446346 0.0392391 0.209217
743 4 0.462565 0.042733 0.256391
2481 4 0.00450039 0.0905174 0.182815
511 2 0.0151903 0.165511 0.229246
577 2 0.0861861 0.136222 0.232573
578 4 0.0810114 0.15067 0.212834
546 4 0.154134 0.128489 0.241528
721 2 0.157431 0.11408 0.203981
722 4 0.14558 0.120954 0.224898
693 4 0.18619 0.0999404 0.177462
691 2 0.206042 0.086946 0.18535
723 4 0.169282 0.107207 0.183065
582 4 0.327273 0.0788364 0.168904
580 2 0.309633 0.0886884 0.183634
581 4 0.291994 0.0985404 0.198364
30 3 0.292721 0.0892558 0.216288
26 1 0.271909 0.0921629 0.225067
28 3 0.256139 0.0816063 0.211716
29 3 0.267074 0.114802 0.226645
27 3 0.271209 0.0829243 0.246122
310 2 0.394526 0.0933256 0.197702
311 4 0.390962 0.117716 0.201894
333 4 0.424598 0.124898 0.253804
513 4 0.0357478 0.163311 0.243307
337 2 0.0816894 0.233389 0.170146
339 4 0.0588015 0.235956 0.179879
363 4 0.121416 0.237029 0.168593
338 4 0.104577 0.230823 0.160413
361 2 0.140587 0.225364 0.179617
362 4 0.159759 0.213699 0.190642
372 4 0.1737 0.227675 0.191267
370 2 0.18756 0.245602 0.201837
285 4 0.30134 0.203739 0.185983
703 2 0.0304729 0.329163 0.162862
704 4 0.0343193 0.305504 0.169977
748 2 0.0695096 0.279139 0.235664
749 4 0.050046 0.294427 0.232114
371 4 0.201419 0.263528 0.212407
277 2 0.23824 0.276743 0.1918
279 4 0.218131 0.273806 0.206366
344 4 0.284521 0.318251 0.224218
343 2 0.289484 0.301273 0.241889
278 4 0.258349 0.27968 0.177234
763 2 0.38141 0.251865 0.219111
765 4 0.387642 0.252642 0.194909
622 2 0.382124 0.275422 0.157921
764 4 0.375178 0.251089 0.243313
309 4 0.358423 0.257953 0.253174
624 4 0.383283 0.258548 0.176336
648 4 0.0173551 0.365082 0.16655
647 4 0.0295007 0.399911 0.200316
646 2 0.0234279 0.382497 0.183433
603 4 0.0295213 0.4157 0.260832
300 4 0.123403 0.340026 0.234303
290 4 0.219866 0.388276 0.218208
289 2 0.219321 0.409464 0.204945
302 4 0.312233 0.362247 0.173422
303 4 0.320645 0.375405 0.220928
301 2 0.316439 0.368826 0.197175
729 4 0.337117 0.386586 0.224759
445 2 0.416686 0.37029 0.228655
446 4 0.410507 0.350767 0.243003
727 2 0.344396 0.396708 0.246432
447 4 0.422865 0.389814 0.214308
643 2 0.44206 0.383823 0.174998
644 4 0.429144 0.391864 0.19484
262 2 0.0742122 0.488315 0.239256
263 4 0.0641415 0.465571 0.236709
417 4 0.179251 0.471314 0.170084
415 2 0.193824 0.457754 0.185215
416 4 0.208398 0.444195 0.200345
291 4 0.218775 0.430653 0.191681
768 4 0.30121 0.467549 0.203894
766 2 0.291064 0.464964 0.181188
658 2 0.392035 0.455153 0.181436
659 4 0.373724 0.448146 0.196953
530 4 0.0186185 0.0545016 0.276534
1404 4 0.0487457 0.00966766 0.255229
232 2 0.0160024 0.0291773 0.325312
233 4 0.0388873 0.0219128 0.318334
1402 2 0.0474191 0.0196106 0.278132
1403 4 0.0460926 0.0295536 0.301035
316 2 0.0675229 0.0540287 0.326262
317 4 0.051807 0.0362926 0.318286
529 2 0.00363326 0.0624796 0.258177
318 4 0.0832389 0.0717648 0.334239
731 4 0.0990359 0.0682817 0.346267
730 2 0.118979 0.0754831 0.333016
1701 4 0.220872 0.0064773 0.317466
1699 2 0.245568 0.00333047 0.31514
1700 4 0.270263 0.000183637 0.312813
248 4 0.27412 0.0767362 0.320441
699 4 0.384599 0.00270917 0.317599
697 2 0.373946 0.0234005 0.326741
698 4 0.363294 0.0440918 0.335882
1749 4 0.461773 0.0165812 0.304878
480 4 0.449444 0.0253466 0.316906
351 4 0.462248 0.0729596 0.283684
397 2 0.066505 0.111795 0.324136
399 4 0.0579295 0.135148 0.321636
579 4 0.0913607 0.121773 0.252313
732 4 0.138921 0.0826844 0.319764
544 2 0.148011 0.142907 0.261017
598 2 0.16146 0.109681 0.327309
600 4 0.152994 0.0868918 0.333154
545 4 0.141888 0.157324 0.280507
599 4 0.169927 0.132469 0.321463
405 4 0.264078 0.162902 0.284326
403 2 0.257284 0.151945 0.30575
404 4 0.250491 0.140987 0.327173
247 2 0.264448 0.0993713 0.324832
707 4 0.368562 0.152574 0.301403
632 4 0.422827 0.114629 0.316048
631 2 0.400755 0.125638 0.311951
633 4 0.378682 0.136646 0.307853
349 2 0.448952 0.0919786 0.292994
350 4 0.435656 0.110997 0.302304
331 2 0.435563 0.145926 0.261725
452 4 0.441387 0.115055 0.320957
395 4 0.0423197 0.213483 0.240145
394 2 0.0254858 0.230523 0.247317
392 4 0.133934 0.174991 0.272031
391 2 0.129225 0.198376 0.279525
393 4 0.124516 0.22176 0.287019
706 2 0.360758 0.176319 0.30207
708 4 0.352953 0.200064 0.302737
521 4 0.487231 0.19187 0.257632
332 4 0.446529 0.166954 0.269646
762 4 0.458487 0.181997 0.274363
760 2 0.457221 0.187173 0.298793
761 4 0.455956 0.192349 0.323222
419 4 0.445076 0.206177 0.330912
2493 4 0.0194541 0.303114 0.299816
750 4 0.0889732 0.26385 0.239214
400 2 0.231666 0.26831 0.318371
401 4 0.230852 0.268506 0.293381
307 2 0.336451 0.269028 0.257621
345 4 0.294447 0.284295 0.259561
308 4 0.314479 0.280102 0.262068
496 2 0.302361 0.282259 0.301353
497 4 0.302207 0.280661 0.276402
498 4 0.302515 0.283858 0.326305
615 4 0.407817 0.305903 0.306158
613 2 0.38345 0.308192 0.311276
543 4 0.412399 0.319518 0.319404
614 4 0.359083 0.310481 0.316394
541 2 0.434066 0.312689 0.329849
542 4 0.455733 0.305861 0.340293
364 2 0.0290799 0.361613 0.324439
298 2 0.124454 0.354122 0.254927
735 4 0.155014 0.337754 0.329775
299 4 0.125504 0.368219 0.275551
734 4 0.133089 0.363544 0.292967
733 2 0.144051 0.350649 0.311371
435 4 0.310624 0.403051 0.320701
433 2 0.329419 0.406137 0.304502
434 4 0.348214 0.409223 0.288303
728 4 0.351675 0.40683 0.268105
2924 4 0.497452 0.350577 0.328485
602 4 0.0652183 0.445699 0.242761
601 2 0.0473698 0.4307 0.251796
549 4 0.0385166 0.45474 0.33452
547 2 0.0630939 0.451421 0.3377
777 4 0.116334 0.440993 0.281011
775 2 0.108875 0.444473 0.304621
776 4 0.101416 0.447954 0.328231
414 4 0.135265 0.448202 0.277408
412 2 0.158836 0.455108 0.272731
413 4 0.182408 0.462013 0.268055
436 2 0.280815 0.473026 0.304927
437 4 0.258132 0.472234 0.294438
438 4 0.303498 0.473819 0.315417
714 4 0.416755 0.467244 0.25764
713 4 0.426999 0.437883 0.296802
712 2 0.421877 0.452563 0.277221
1782 4 0.124903 0.0130158 0.373033
1780 2 0.129777 0.0257871 0.393969
1781 4 0.134651 0.0385583 0.414905
604 2 0.181203 0.0464814 0.401673
605 4 0.191279 0.0270585 0.389573
439 2 0.267967 0.0101663 0.407418
257 4 0.361645 0.0533972 0.353225
256 2 0.379153 0.0668796 0.364923
258 4 0.396662 0.0803621 0.376621
426 4 0.40443 0.0835346 0.394304
478 2 0.460313 0.0437468 0.329886
479 4 0.471183 0.0621469 0.342865
398 4 0.0750805 0.0884414 0.326637
457 2 0.0214016 0.144582 0.400557
458 4 0.0324863 0.12237 0.403542
685 2 0.168649 0.14522 0.396959
686 4 0.191011 0.142001 0.386247
249 4 0.254776 0.122006 0.329224
683 4 0.267168 0.134295 0.336088
682 2 0.270273 0.145118 0.358413
684 4 0.273377 0.155941 0.380738
320 4 0.286071 0.148213 0.395001
319 2 0.282994 0.129266 0.411024
424 2 0.403084 0.0953788 0.416283
451 2 0.444981 0.121001 0.344976
453 4 0.448575 0.126947 0.368995
514 2 0.432822 0.153619 0.394244
515 4 0.45094 0.142969 0.380698
459 4 0.0103169 0.166794 0.397571
388 2 0.0559851 0.217105 0.393374
390 4 0.0388599 0.216212 0.375178
2653 2 0.00859336 0.240811 0.353359
2654 4 0.0224812 0.22521 0.367104
389 4 0.0731104 0.217997 0.41157
275 4 0.200804 0.224305 0.367774
274 2 0.21775 0.24237 0.364356
474 4 0.280923 0.1971 0.371807
472 2 0.301075 0.21116 0.376429
473 4 0.321228 0.225221 0.381052
489 4 0.324811 0.232181 0.399134
420 4 0.396436 0.213558 0.339881
717 4 0.390262 0.228738 0.351174
516 4 0.414704 0.164269 0.407791
418 2 0.420756 0.209867 0.335396
268 2 0.456523 0.23303 0.398913
270 4 0.468484 0.23024 0.420692
269 4 0.444561 0.23582 0.377134
347 4 0.0583352 0.335459 0.415156
677 4 0.172733 0.338271 0.340849
402 4 0.23248 0.268115 0.34336
676 2 0.172557 0.314802 0.349473
678 4 0.17238 0.291333 0.358096
508 2 0.230657 0.304944 0.360338
510 4 0.234603 0.280319 0.358544
375 4 0.18589 0.282983 0.369348
276 4 0.234696 0.260435 0.360938
373 2 0.191432 0.284609 0.393676
509 4 0.226711 0.329569 0.362132
374 4 0.196973 0.286236 0.418003
378 4 0.249455 0.26968 0.353458
377 4 0.298574 0.262268 0.359206
376 2 0.274015 0.265974 0.356332
487 2 0.326325 0.256767 0.394845
715 2 0.396788 0.246075 0.367968
716 4 0.403314 0.263412 0.384761
488 4 0.32784 0.281353 0.390555
365 4 0.0513093 0.3578 0.335233
2927 4 0.0258466 0.373826 0.356104
616 2 0.052855 0.353899 0.380271
617 4 0.0556357 0.356617 0.355571
618 4 0.0500744 0.351182 0.40497
408 4 0.104792 0.389064 0.362931
504 4 0.251303 0.388392 0.386549
753 4 0.429633 0.41451 0.332188
560 4 0.49311 0.39159 0.418329
2923 2 0.484206 0.366429 0.342572
561 4 0.473259 0.39534 0.372584
752 4 0.456337 0.389246 0.36609
559 2 0.483184 0.393465 0.395457
751 2 0.442985 0.401878 0.349139
2925 4 0.470961 0.382281 0.356659
2463 4 0.019823 0.451111 0.339422
548 4 0.0876712 0.448102 0.340881
681 4 0.0564564 0.450654 0.408148
679 2 0.0316319 0.451672 0.410956
383 4 0.0676657 0.460054 0.393848
407 4 0.10052 0.436104 0.346507
500 4 0.107861 0.452988 0.344671
406 2 0.102656 0.412584 0.354719
499 2 0.111172 0.477694 0.346628
568 2 0.144046 0.479186 0.420583
382 2 0.0837792 0.471919 0.40884
570 4 0.16863 0.480249 0.416146
1557 4 0.225174 0.477265 0.430264
1555 2 0.237034 0.48848 0.411324
1556 4 0.248894 0.499695 0.392384
5 3 0.296896 0.476027 0.372757
1 1 0.310599 0.471313 0.355188
4 3 0.315388 0.448613 0.354752
3 3 0.300447 0.47765 0.335309
669 4 0.330134 0.484678 0.425857
2 3 0.330259 0.483017 0.35756
594 4 0.441023 0.460546 0.343373
593 4 0.446068 0.508858 0.355257
592 2 0.443546 0.484702 0.349315
2238 4 0.00331635 0.0245364 0.445187
718 2 0.0729872 0.0472498 0.475379
720 4 0.048971 0.0519262 0.470228
2237 4 0.0356646 0.0402732 0.479924
2236 2 0.0194905 0.0324048 0.462556
368 4 0.136791 0.0556957 0.426072
719 4 0.0970034 0.0425734 0.48053
367 2 0.12527 0.0514212 0.447848
369 4 0.11375 0.0471468 0.469624
606 4 0.171126 0.0659043 0.413772
441 4 0.278018 0.0295282 0.419636
431 4 0.335835 0.0773174 0.501673
1035 4 0.0758991 0.157008 0.496847
687 4 0.146287 0.14844 0.407671
321 4 0.279916 0.110319 0.427046
466 2 0.3292 0.168325 0.467664
726 4 0.339406 0.0952901 0.493653
724 2 0.335196 0.115924 0.480174
725 4 0.330985 0.136559 0.466695
468 4 0.34148 0.149722 0.478992
425 4 0.401737 0.107223 0.438262
576 4 0.386318 0.16607 0.458139
574 2 0.401193 0.173096 0.43931
642 4 0.497345 0.0998802 0.496899
471 4 0.995851 0.206035 0.47978
469 2 0.019525 0.212462 0.474941
470 4 0.0431989 0.218889 0.470101
260 4 0.088418 0.18296 0.443986
261 4 0.0714482 0.175291 0.490397
259 2 0.0799331 0.179125 0.467191
467 4 0.316921 0.186928 0.456336
411 4 0.281385 0.200301 0.443383
409 2 0.281842 0.202451 0.468289
410 4 0.282298 0.204601 0.493196
575 4 0.416068 0.180123 0.42048
872 4 0.352953 0.254465 0.469229
871 2 0.371212 0.242333 0.481255
306 4 0.46622 0.222551 0.4388
305 4 0.492276 0.200252 0.475194
304 2 0.479248 0.211402 0.456997
348 4 0.0450984 0.291456 0.434886
346 2 0.0517168 0.313457 0.425021
695 4 0.114686 0.256228 0.47877
694 2 0.121943 0.279516 0.473276
1260 4 0.144026 0.307082 0.47963
696 4 0.129199 0.302804 0.467782
649 2 0.240435 0.304185 0.48271
650 4 0.238873 0.307188 0.457937
267 4 0.333245 0.282306 0.476069
266 4 0.323681 0.300521 0.43049
265 2 0.328463 0.291413 0.453279
2456 4 0.498073 0.278609 0.478876
583 2 0.463105 0.295059 0.459692
584 4 0.48342 0.283273 0.468267
585 4 0.442789 0.306845 0.451117
326 4 0.0559905 0.352314 0.423179
325 2 0.0632275 0.375746 0.428049
327 4 0.0704646 0.399179 0.43292
10 3 0.1427 0.377286 0.487888
709 2 0.19883 0.374162 0.502293
710 4 0.223211 0.375779 0.49699
803 4 0.235989 0.382416 0.482434
503 4 0.245601 0.392535 0.436057
502 2 0.248452 0.390464 0.411303
802 2 0.254697 0.388991 0.497665
336 4 0.342875 0.399315 0.459126
334 2 0.363768 0.389376 0.468607
240 4 0.399206 0.373067 0.490298
335 4 0.38466 0.379438 0.478088
2507 4 0.476352 0.383139 0.428143
2506 2 0.489729 0.381868 0.449229
680 4 0.00680737 0.452691 0.413764
1381 2 0.994207 0.494291 0.42448
569 4 0.119462 0.478122 0.425019
539 4 0.108707 0.4808 0.44052
540 4 0.0912277 0.486866 0.486978
538 2 0.0999675 0.483833 0.463749
384 4 0.0998927 0.483785 0.423831
2244 4 0.0945796 0.473113 0.501449
636 4 0.205302 0.476124 0.431386
774 4 0.203753 0.455808 0.485288
635 4 0.195866 0.473015 0.480396
634 2 0.200584 0.474569 0.455891
772 2 0.201163 0.447733 0.50881
668 4 0.293244 0.455519 0.408842
667 2 0.311689 0.470098 0.41735
881 4 0.363347 0.44012 0.480778
587 4 0.406156 0.442208 0.457517
586 2 0.382866 0.446628 0.449566
588 4 0.359575 0.451049 0.441616
880 2 0.34755 0.457313 0.489725
661 2 0.438285 0.436173 0.508177
662 4 0.453549 0.455278 0.502962
663 4 0.423021 0.417069 0.513392
1126 2 0.0496924 0.0425975 0.533097
1127 4 0.0362841 0.0246499 0.521994
1128 4 0.0631008 0.0605452 0.544199
1058 4 0.150037 0.0261298 0.547422
1057 2 0.137537 0.0473078 0.551939
1059 4 0.125036 0.0684858 0.556457
1155 4 0.134014 0.0865438 0.558409
938 4 0.116256 0.0827725 0.565387
937 2 0.0920954 0.078094 0.560967
2430 4 0.200367 0.0238267 0.53564
2428 2 0.194169 0.00241431 0.524315
341 4 0.209466 0.0297048 0.518751
340 2 0.217536 0.0533391 0.517539
342 4 0.225606 0.0769734 0.516327
961 2 0.28851 0.0640987 0.56219
430 2 0.314085 0.0768364 0.513998
432 4 0.292336 0.0763554 0.526323
2196 4 0.342923 0.0154494 0.549191
1217 4 0.400731 0.0629474 0.54373
841 2 0.369771 0.0824112 0.52292
842 4 0.387466 0.0772892 0.539827
843 4 0.352075 0.0875332 0.506014
1216 2 0.42116 0.0769977 0.540504
1218 4 0.44159 0.0910481 0.537279
939 4 0.0679345 0.0734155 0.556546
1153 2 0.151998 0.102301 0.551097
1033 2 0.0846409 0.134318 0.502668
1034 4 0.0933828 0.111627 0.50849
1154 4 0.169982 0.118058 0.543784
1151 4 0.177134 0.11952 0.524489
1031 4 0.202178 0.121004 0.5618
1150 2 0.198624 0.107215 0.521034
1030 2 0.201205 0.126048 0.58627
1182 4 0.238946 0.0900223 0.511482
1152 4 0.220115 0.0949097 0.51758
963 4 0.295984 0.0806326 0.544987
1181 4 0.283309 0.0919257 0.534483
1180 2 0.261127 0.090974 0.522983
900 4 0.327304 0.139829 0.551463
898 2 0.350945 0.147859 0.552811
899 4 0.374586 0.155889 0.554159
641 4 0.457358 0.0988913 0.526911
640 2 0.477351 0.0993857 0.511905
3159 4 0.495248 0.159215 0.527893
856 2 0.248208 0.192062 0.541585
857 4 0.241109 0.206921 0.522771
858 4 0.255308 0.177202 0.560399
797 4 0.233575 0.255173 0.583681
947 4 0.173427 0.244553 0.594876
873 4 0.38947 0.2302 0.49328
982 2 0.077559 0.327265 0.535866
983 4 0.0640806 0.319318 0.516363
984 4 0.0910375 0.335211 0.555369
1136 4 0.0872835 0.333918 0.574511
1258 2 0.160853 0.312854 0.4972
1259 4 0.17768 0.318625 0.514771
651 4 0.241996 0.301183 0.507484
811 2 0.297261 0.322871 0.525701
1239 4 0.31898 0.328859 0.574625
812 4 0.276085 0.32936 0.514099
813 4 0.318437 0.316382 0.537304
904 2 0.458357 0.257897 0.557795
906 4 0.436851 0.265497 0.568038
905 4 0.479862 0.250297 0.547551
954 4 0.426727 0.275489 0.582412
3065 4 0.494204 0.251361 0.560393
9 3 0.131016 0.350727 0.511883
1135 2 0.0959448 0.356364 0.581318
895 2 0.143554 0.395633 0.575645
6 1 0.139561 0.372206 0.509865
8 3 0.159673 0.373838 0.52132
1137 4 0.104606 0.37881 0.588126
897 4 0.119911 0.389862 0.581378
7 3 0.124568 0.387063 0.519009
896 4 0.167197 0.401405 0.569912
1189 2 0.195989 0.381532 0.559604
1190 4 0.207771 0.370702 0.540393
1191 4 0.184206 0.392362 0.578815
711 4 0.174449 0.372545 0.507595
804 4 0.273404 0.395567 0.512896
930 4 0.32878 0.392261 0.557603
928 2 0.340189 0.410299 0.570628
239 4 0.413337 0.40499 0.526103
238 2 0.406271 0.389028 0.508201
925 2 0.461057 0.397763 0.553376
926 4 0.477593 0.382053 0.543133
3309 4 0.476275 0.371618 0.524544
3307 2 0.491711 0.379356 0.50646
927 4 0.44452 0.413473 0.563619
2243 4 0.108452 0.478968 0.549135
2242 2 0.101516 0.47604 0.525292
773 4 0.198574 0.439659 0.532331
1173 4 0.262819 0.449069 0.566232
1171 2 0.287254 0.454153 0.564737
1172 4 0.31169 0.459237 0.563242
882 4 0.331753 0.474505 0.498671
891 4 0.321706 0.452002 0.580726
1187 4 0.257634 0.44565 0.584743
1454 4 0.322126 0.492436 0.500989
929 4 0.351598 0.428337 0.583653
1002 4 0.389082 0.438677 0.559959
1910 4 0.39496 0.481673 0.535859
1001 4 0.435103 0.426673 0.575408
1000 2 0.412092 0.432675 0.567683
1332 4 0.463855 0.47163 0.510588
943 2 0.0661222 0.0375353 0.594109
945 4 0.0661819 0.0126075 0.592164
944 4 0.0660626 0.062463 0.596054
1083 4 0.0691131 0.0819057 0.592747
1282 2 0.152279 0.0812665 0.623382
1284 4 0.154388 0.0647366 0.604741
950 4 0.28724 0.0324203 0.591576
949 2 0.268432 0.0159523 0.591084
962 4 0.281035 0.0475648 0.579393
1091 4 0.3987 0.999417 0.654103
1090 2 0.392989 0.0211714 0.665026
2283 4 0.418181 0.00257995 0.655432
808 2 0.470649 0.0752117 0.618319
810 4 0.476024 0.0557873 0.603521
1082 4 0.0472357 0.0985145 0.634535
1081 2 0.0581744 0.0902101 0.613641
1076 4 0.0381118 0.107661 0.650758
1283 4 0.150171 0.0977963 0.642023
909 4 0.146744 0.116658 0.647067
1032 4 0.200232 0.131092 0.61074
809 4 0.465274 0.094636 0.633117
45 3 0.455851 0.0875035 0.649621
877 2 0.0576545 0.195032 0.591471
878 4 0.0364294 0.204187 0.601004
1199 4 0.0261974 0.197761 0.617606
1198 2 0.00557058 0.208475 0.60839
1209 4 0.0687679 0.248129 0.661005
879 4 0.0788796 0.185877 0.581939
1271 4 0.146308 0.187923 0.584859
1270 2 0.121671 0.184559 0.587482
1272 4 0.0970337 0.181195 0.590105
1221 4 0.156863 0.17346 0.593154
1211 4 0.235893 0.184776 0.649122
1210 2 0.220906 0.192956 0.630856
1212 4 0.205919 0.201136 0.61259
1219 2 0.176158 0.18932 0.594317
1220 4 0.195452 0.20518 0.595479
796 2 0.222869 0.23393 0.591382
798 4 0.212163 0.212687 0.599082
791 4 0.310374 0.229319 0.584505
1025 4 0.450929 0.181167 0.599301
1026 4 0.467151 0.228431 0.601224
1024 2 0.45904 0.204799 0.600263
1245 4 0.0516255 0.252975 0.651534
1243 2 0.0344832 0.265862 0.664389
1244 4 0.0173408 0.27875 0.677243
946 2 0.159529 0.265315 0.593896
948 4 0.14563 0.286076 0.592916
790 2 0.324753 0.249677 0.586491
1237 2 0.329725 0.308851 0.585086
1238 4 0.34047 0.288844 0.595546
792 4 0.339132 0.270036 0.588477
952 2 0.408537 0.26134 0.592113
953 4 0.390347 0.247191 0.601814
1041 4 0.102976 0.397985 0.586052
1039 2 0.0997788 0.419064 0.599114
1205 4 0.409606 0.37864 0.685961
1160 4 0.151701 0.483652 0.598926
1161 4 0.120549 0.447505 0.583971
1040 4 0.0965815 0.440144 0.612176
1159 2 0.136125 0.465579 0.591448
991 2 0.103777 0.45099 0.647041
993 4 0.0974143 0.433447 0.6304
1186 2 0.249907 0.448778 0.608316
1188 4 0.242181 0.451906 0.631889
889 2 0.338544 0.465337 0.593527
1140 4 0.29933 0.472233 0.685832
890 4 0.355382 0.478671 0.606327
1269 4 0.392466 0.463911 0.649782
1952 4 0.359117 0.493627 0.618553
1267 2 0.413419 0.468589 0.6626
4338 4 0.0244626 0.0182464 0.696238
2991 4 0.0126959 0.081236 0.706717
2400 4 0.298703 0.00363214 0.720579
1092 4 0.387279 0.0429258 0.675949
1004 4 0.385399 0.0619604 0.669517
1003 2 0.377117 0.0666628 0.692635
43 3 0.447166 0.0601697 0.674015
1163 4 0.4879 0.073066 0.691518
1162 2 0.496306 0.054013 0.705357
42 3 0.476181 0.0831316 0.680612
41 1 0.455023 0.0818764 0.671673
862 2 0.0205271 0.107764 0.734404
864 4 0.0160797 0.101228 0.710683
1075 2 0.0263947 0.101035 0.671828
1077 4 0.0146776 0.0944086 0.692899
907 2 0.156191 0.115869 0.670204
34 3 0.114221 0.175056 0.747852
908 4 0.165637 0.115079 0.693341
1227 4 0.178387 0.0998691 0.692
1225 2 0.190265 0.102315 0.713866
1226 4 0.202144 0.10476 0.735731
831 4 0.328874 0.147061 0.701185
1005 4 0.368834 0.0713651 0.715754
44 3 0.441174 0.0965879 0.683083
3426 4 0.495006 0.0853657 0.68774
852 4 0.0404057 0.240556 0.702277
851 4 0.0603093 0.206497 0.73301
850 2 0.0503575 0.223526 0.717644
1207 2 0.0880476 0.251618 0.676539
1208 4 0.107327 0.255108 0.692073
1107 4 0.0686334 0.202319 0.751912
1105 2 0.0902224 0.212433 0.759449
888 4 0.236292 0.178694 0.668264
1277 4 0.204065 0.226052 0.75421
829 2 0.308518 0.16089 0.70561
830 4 0.288162 0.174718 0.710035
886 2 0.254299 0.181013 0.685455
887 4 0.272306 0.183332 0.702647
976 2 0.277484 0.205457 0.735896
978 4 0.276949 0.184779 0.721849
1193 4 0.381871 0.199355 0.712732
1142 4 0.388426 0.200323 0.732412
1192 2 0.392338 0.218231 0.700109
1194 4 0.402805 0.237107 0.687487
1141 2 0.388018 0.185329 0.752417
1263 4 0.457435 0.242583 0.743109
3121 2 0.497626 0.240723 0.671693
1179 4 0.0321622 0.26043 0.733229
1177 2 0.00903662 0.254205 0.740414
821 4 0.1864 0.265635 0.743646
820 2 0.1915 0.285168 0.728893
822 4 0.1966 0.304701 0.71414
1063 2 0.259581 0.296111 0.739969
1064 4 0.275574 0.31164 0.728642
1020 4 0.371008 0.320764 0.765702
3123 4 0.472813 0.237934 0.672997
893 4 0.0391302 0.379939 0.704415
892 2 0.0503531 0.357597 0.704665
894 4 0.061576 0.335255 0.704914
1280 4 0.0362927 0.394316 0.690977
1279 2 0.0370898 0.417545 0.700194
941 4 0.149631 0.384661 0.740097
1028 4 0.208958 0.399958 0.700753
1027 2 0.227886 0.384895 0.70708
1066 2 0.180388 0.393799 0.730452
1068 4 0.193507 0.404647 0.712138
1029 4 0.246813 0.369831 0.713407
807 4 0.324126 0.409275 0.675112
1204 2 0.410267 0.403404 0.689347
806 4 0.35765 0.380667 0.698743
805 2 0.340888 0.394971 0.686927
1281 4 0.0378869 0.440774 0.709412
1983 4 0.0219191 0.452915 0.704026
1981 2 0.0327172 0.470544 0.718091
1982 4 0.0435152 0.488172 0.732156
992 4 0.11014 0.468533 0.663682
1175 4 0.214829 0.485994 0.726719
1139 4 0.259105 0.483271 0.713416
1138 2 0.279217 0.477752 0.699624
1987 2 0.343843 0.488157 0.731106
1206 4 0.410929 0.428169 0.692733
1230 4 0.402781 0.432806 0.710239
1228 2 0.391152 0.453873 0.717027
1229 4 0.379523 0.474941 0.723816
1989 4 0.361073 0.478215 0.715957
3330 4 0.482033 0.438431 0.723477
2168 4 0.445918 0.486999 0.684003
1268 4 0.434371 0.473266 0.675417
1100 4 0.451397 0.468933 0.684212
1099 2 0.467405 0.452489 0.694138
1101 4 0.483414 0.436046 0.704063
1294 2 0.0431481 0.0379207 0.798694
1295 4 0.0622599 0.0352265 0.782799
1296 4 0.0240363 0.0406149 0.814589
2049 4 0.116306 0.0094878 0.76144
1203 4 0.118156 0.0456206 0.812607
911 4 0.10653 0.0545284 0.827343
1202 4 0.11103 0.0289553 0.766
1196 4 0.113371 0.037139 0.82874
1201 2 0.114593 0.037288 0.789303
1147 2 0.216527 0.0809946 0.7595
1149 4 0.235671 0.0666592 0.766792
1257 4 0.326371 0.0567644 0.781644
1255 2 0.305546 0.0702085 0.784922
974 4 0.358501 0.0189832 0.788544
1113 4 0.409432 0.0531236 0.801389
973 2 0.377251 0.0355013 0.787661
975 4 0.396001 0.0520194 0.786778
845 4 0.505022 0.059334 0.821682
1111 2 0.426827 0.0403661 0.814033
844 2 0.483179 0.0472918 0.819937
846 4 0.461335 0.0352495 0.818192
1112 4 0.444222 0.0276086 0.826676
834 4 0.0128368 0.134125 0.817062
863 4 0.0249745 0.1143 0.758125
832 2 0.0116646 0.129715 0.792478
833 4 0.0104924 0.125306 0.767895
32 3 0.132724 0.151127 0.770161
1148 4 0.197382 0.0953301 0.752209
839 4 0.252196 0.173856 0.799028
1256 4 0.284721 0.0836527 0.788199
838 2 0.274327 0.166588 0.808114