ITEM: TIMESTEP
970000
ITEM: NUMBER OF ATOMS
4590
ITEM: BOX BOUNDS pp pp pp
-9.9985700000000008e+00 9.9985700000000008e+00
-9.9985700000000008e+00 9.9985700000000008e+00
-9.9985700000000008e+00 9.9985700000000008e+00
ITEM: ATOMS id type xs ys zs
463 2 0.00395931 0.050118 0.0429424
465 4 0.0248099 0.0534958 0.0563223
1667 4 0.0384318 0.0469921 0.0676177
701 4 0.039815 0.0650089 0.058524
590 4 0.0291842 0.0619714 0.0741533
700 2 0.0577152 0.07199 0.0425232
702 4 0.0756154 0.0789712 0.0265225
566 4 0.16562 0.0908948 0.0593476
534 4 0.244011 0.0695867 0.997785
490 2 0.299509 0.0372322 0.0484677
491 4 0.31819 0.0500857 0.0590021
492 4 0.280828 0.0243787 0.0379333
2264 4 0.265957 0.0273305 0.0263332
296 4 0.330336 0.0402411 0.0690335
557 4 0.334053 0.0596428 0.0614374
556 2 0.346447 0.0811695 0.05858
558 4 0.358841 0.102696 0.0557226
745 2 0.484011 0.0626063 0.0300926
746 4 0.480385 0.0378671 0.0300762
589 2 0.024908 0.0845162 0.0840844
3232 2 0.017748 0.122876 0.0240031
423 4 0.0868269 0.0940818 0.0172117
3233 4 0.0389673 0.123849 0.0108133
421 2 0.108591 0.100487 0.00670147
422 4 0.130356 0.106892 0.996191
565 2 0.176073 0.084238 0.0376314
567 4 0.186527 0.0775812 0.0159152
747 4 0.487638 0.0873455 0.0301089
2975 4 0.48045 0.105273 0.0253415
771 4 0.436414 0.161617 0.0626821
769 2 0.447751 0.167507 0.0411891
2974 2 0.473089 0.121733 0.00801942
629 4 0.431433 0.159628 0.0827174
554 4 0.0593634 0.237165 0.0458796
553 2 0.0658363 0.239463 0.021838
555 4 0.0723092 0.241761 0.997796
355 2 0.225555 0.226564 0.0178467
357 4 0.239935 0.213133 0.0332738
356 4 0.211175 0.239995 0.00241962
461 4 0.325455 0.237611 0.0567209
664 2 0.325273 0.258679 0.0174525
460 2 0.338713 0.245336 0.0764624
322 2 0.390979 0.243978 0.0559273
324 4 0.377314 0.223629 0.0608622
1012 2 0.491033 0.177627 0.00749524
770 4 0.459089 0.173397 0.0196961
1013 4 0.467664 0.186475 0.00838629
827 4 0.449863 0.179732 0.00376011
1056 4 0.0555261 0.315903 0.00782834
292 2 0.123231 0.288116 0.048408
293 4 0.141286 0.304358 0.0424598
507 4 0.147434 0.322198 0.0448369
294 4 0.105177 0.271873 0.0543561
288 4 0.141026 0.318159 0.0274946
666 4 0.306246 0.2721 0.0265646
572 4 0.29378 0.258912 0.0352317
571 2 0.286664 0.267568 0.0575841
573 4 0.279548 0.276223 0.0799364
1071 4 0.366495 0.305302 0.0172359
1069 2 0.384193 0.293436 0.0303186
1070 4 0.401891 0.28157 0.0434014
323 4 0.404644 0.264327 0.0509924
956 4 0.353954 0.319514 0.0200535
671 4 0.44522 0.320951 0.0671073
281 4 0.450421 0.308852 0.0523903
282 4 0.458324 0.34013 0.0141811
280 2 0.454373 0.324491 0.0332857
328 2 0.0127406 0.382815 0.995234
330 4 0.0351592 0.378036 0.985246
505 2 0.167145 0.333471 0.0553056
286 2 0.132059 0.335732 0.0121337
506 4 0.186856 0.344743 0.0657742
483 4 0.187698 0.361701 0.0559753
481 2 0.210608 0.367386 0.0642213
482 4 0.233517 0.373071 0.0724674
252 4 0.311756 0.386031 0.0496372
250 2 0.304322 0.379163 0.0267735
251 4 0.296887 0.372296 0.0039098
608 4 0.325267 0.381137 0.0615004
525 4 0.315583 0.395397 0.0679091
607 2 0.335807 0.365346 0.0777711
1224 4 0.138639 0.478759 0.995248
245 4 0.266665 0.454085 0.013412
244 2 0.285146 0.470289 0.0180054
246 4 0.303626 0.486493 0.0225988
272 4 0.31032 0.499151 0.0103857
523 2 0.31292 0.414988 0.0832157
227 4 0.471502 0.47419 0.0787707
1806 4 0.0545766 0.00277987 0.11244
1421 4 0.0364466 0.0099417 0.120945
1666 2 0.0398143 0.0290579 0.0849853
1668 4 0.0411967 0.0111237 0.102353
1420 2 0.03238 0.0254143 0.14016
1422 4 0.0283133 0.0408869 0.159376
2479 2 0.993511 0.057672 0.160318
19 3 0.0298763 0.0602812 0.164972
450 4 0.134533 0.0628696 0.150082
1506 4 0.241625 0.0350031 0.152723
652 2 0.316221 0.0565192 0.142838
653 4 0.311073 0.0322526 0.139708
295 2 0.335983 0.0242088 0.0873707
297 4 0.341631 0.00817657 0.105708
485 4 0.359328 0.00595699 0.0971892
758 4 0.402729 0.0224863 0.144901
757 2 0.403494 0.0415897 0.161015
591 4 0.0206319 0.107061 0.0940155
2760 4 0.0157017 0.126275 0.0935743
448 2 0.148994 0.0793486 0.162103
237 4 0.198127 0.14213 0.137831
235 2 0.186908 0.125297 0.152525
737 4 0.206129 0.15146 0.121375
236 4 0.175688 0.108463 0.167219
654 4 0.32137 0.0807859 0.145968
582 4 0.316926 0.0992871 0.154263
628 2 0.413805 0.176192 0.0890473
339 4 0.0764436 0.21546 0.143792
477 4 0.0977801 0.21164 0.11404
475 2 0.108404 0.189956 0.120531
476 4 0.119028 0.168273 0.127022
337 2 0.0919407 0.223254 0.161799
738 4 0.200429 0.200582 0.128806
736 2 0.203279 0.176021 0.12509
354 4 0.269863 0.221294 0.118839
352 2 0.275916 0.240283 0.10374
283 2 0.266211 0.199498 0.152065
284 4 0.258603 0.211914 0.131739
462 4 0.351971 0.253061 0.096204
630 4 0.396177 0.192756 0.0953771
254 4 0.396404 0.204289 0.111641
253 2 0.377911 0.220954 0.109308
255 4 0.359418 0.23762 0.106976
535 2 0.227326 0.283366 0.130846
537 4 0.206937 0.296352 0.137233
536 4 0.247716 0.270379 0.124459
353 4 0.281969 0.259272 0.088642
754 2 0.286974 0.294691 0.111015
755 4 0.291976 0.276504 0.0946013
756 4 0.281972 0.312878 0.127428
612 4 0.275642 0.314311 0.146486
610 2 0.291973 0.331207 0.155031
623 4 0.345103 0.312845 0.153644
622 2 0.352644 0.289008 0.153995
528 4 0.462953 0.320547 0.160593
620 4 0.0340666 0.358717 0.158915
621 4 0.0108917 0.373797 0.117247
619 2 0.0224792 0.366257 0.138081
455 4 0.0719231 0.360134 0.158165
454 2 0.0764533 0.363879 0.133862
456 4 0.0809835 0.367623 0.109559
625 2 0.245103 0.386775 0.143307
627 4 0.248618 0.3911 0.118932
387 4 0.320615 0.359724 0.154303
611 4 0.308303 0.348103 0.163576
385 2 0.333402 0.359652 0.132817
741 4 0.406831 0.349438 0.106201
609 4 0.346347 0.349555 0.0940419
740 4 0.357234 0.343737 0.109076
386 4 0.346189 0.359579 0.111331
739 2 0.382033 0.346587 0.107638
13 3 0.409204 0.374776 0.146851
670 2 0.432043 0.335672 0.0824313
672 4 0.418866 0.350394 0.0977553
15 3 0.42205 0.392192 0.11604
11 1 0.425039 0.374366 0.129895
526 2 0.461977 0.344875 0.154903
12 3 0.42255 0.354918 0.117865
14 3 0.446385 0.37489 0.138977
495 4 0.463658 0.381957 0.14203
493 2 0.472627 0.395304 0.122884
527 4 0.461002 0.369203 0.149214
597 4 0.476896 0.381873 0.157482
645 4 0.456817 0.384201 0.155293
494 4 0.481595 0.408652 0.103738
1787 4 0.04543 0.461463 0.0749002
1786 2 0.0477175 0.479697 0.0918554
1439 4 0.244811 0.50834 0.101866
1438 2 0.220243 0.503692 0.101946
1440 4 0.195676 0.499044 0.102025
639 4 0.262039 0.50428 0.108077
524 4 0.310258 0.434579 0.0985223
637 2 0.266503 0.489851 0.128004
638 4 0.270967 0.475423 0.14793
228 4 0.460867 0.515056 0.105557
226 2 0.466185 0.494623 0.0921641
2480 4 0.0156792 0.0462879 0.162358
17 3 0.0482161 0.0775107 0.192891
16 1 0.0442296 0.0571605 0.182934
18 3 0.0344772 0.0429785 0.198496
20 3 0.0639468 0.0483642 0.175688
673 2 0.141092 0.0319656 0.239813
675 4 0.137209 0.0283505 0.215379
1505 4 0.228317 0.0565758 0.19583
1504 2 0.234971 0.0457894 0.174277
689 4 0.224499 0.0644114 0.214322
688 2 0.213174 0.053201 0.233589
692 4 0.218258 0.0698664 0.198926
28 3 0.23656 0.0669275 0.206089
27 3 0.263203 0.076911 0.230649
21 1 0.409322 0.0519787 0.213498
24 3 0.401204 0.0310305 0.207695
25 3 0.413629 0.0641192 0.194717
759 4 0.404259 0.0606932 0.177128
22 3 0.393453 0.0628764 0.226091
1496 4 0.385911 0.0175318 0.21365
312 4 0.398728 0.0715202 0.185793
1761 4 0.447561 0.000763345 0.170834
1760 4 0.49584 0.0106919 0.179276
1759 2 0.4717 0.00572761 0.175055
23 3 0.428676 0.0497606 0.226103
742 2 0.460766 0.0371304 0.238405
744 4 0.441701 0.0532657 0.239566
743 4 0.479831 0.0209952 0.237245
578 4 0.0544069 0.161801 0.2399
577 2 0.0728501 0.147515 0.248895
512 4 0.997443 0.151716 0.210959
511 2 0.018291 0.161039 0.22114
513 4 0.0391388 0.170361 0.23132
546 4 0.161308 0.127482 0.248539
721 2 0.163882 0.121142 0.207412
722 4 0.157352 0.130453 0.22968
449 4 0.163454 0.0958275 0.174124
691 2 0.198458 0.0825846 0.190475
723 4 0.170411 0.111832 0.185144
693 4 0.178659 0.0953029 0.182025
29 3 0.240725 0.103331 0.21618
26 1 0.251837 0.0834499 0.211748
30 3 0.266677 0.0864671 0.194739
580 2 0.296409 0.100081 0.168532
581 4 0.275892 0.100875 0.182801
310 2 0.403148 0.095809 0.181831
311 4 0.407568 0.120098 0.17787
333 4 0.43677 0.161019 0.23258
363 4 0.125469 0.231424 0.172787
338 4 0.107438 0.231049 0.179807
361 2 0.149929 0.236603 0.172585
362 4 0.17439 0.241782 0.172382
372 4 0.186959 0.256327 0.174191
285 4 0.273819 0.187083 0.172391
764 4 0.359485 0.245919 0.220872
331 2 0.455193 0.171734 0.245655
395 4 0.0589729 0.251529 0.218401
394 2 0.0464604 0.259378 0.238576
703 2 0.0354676 0.324082 0.175608
704 4 0.0287419 0.30037 0.179812
748 2 0.0831474 0.298084 0.226169
749 4 0.0963777 0.286982 0.208089
370 2 0.205076 0.260598 0.190886
371 4 0.223193 0.264869 0.20758
279 4 0.237836 0.263529 0.194115
277 2 0.258391 0.277118 0.189874
344 4 0.268941 0.308706 0.241137
278 4 0.278946 0.290707 0.185632
307 2 0.333554 0.256905 0.244965
763 2 0.359469 0.253689 0.197106
765 4 0.359453 0.261458 0.173341
309 4 0.343403 0.239435 0.230032
624 4 0.360186 0.265172 0.154346
705 4 0.0421933 0.347794 0.171404
648 4 0.0390277 0.365769 0.177446
647 4 0.0136 0.400822 0.202454
646 2 0.0263138 0.383296 0.18995
300 4 0.146525 0.356897 0.228528
626 4 0.241589 0.38245 0.167681
290 4 0.217011 0.390719 0.206013
302 4 0.317339 0.361265 0.173765
301 2 0.335413 0.372548 0.18685
303 4 0.353487 0.383832 0.199934
729 4 0.362076 0.3917 0.21595
727 2 0.354756 0.381982 0.237794
446 4 0.416928 0.363781 0.246695
445 2 0.419912 0.380211 0.228086
447 4 0.422896 0.396641 0.209476
595 2 0.498316 0.382632 0.170357
643 2 0.447928 0.393034 0.176929
644 4 0.439039 0.401867 0.198566
263 4 0.0697611 0.455804 0.245629
602 4 0.0574037 0.443159 0.2543
1467 4 0.00617641 0.501558 0.162021
1430 4 0.165448 0.497349 0.149342
417 4 0.163861 0.48229 0.162943
289 2 0.205882 0.412581 0.201183
415 2 0.172959 0.465542 0.179126
416 4 0.182058 0.448793 0.195309
291 4 0.194752 0.434444 0.196353
413 4 0.181594 0.43402 0.266833
767 4 0.28245 0.46435 0.158926
768 4 0.287356 0.439486 0.202035
766 2 0.284903 0.451918 0.180481
659 4 0.383342 0.465704 0.199731
658 2 0.403274 0.457355 0.187153
660 4 0.423205 0.449007 0.174574
714 4 0.427085 0.476901 0.247298
530 4 0.0114486 0.0556957 0.272507
232 2 0.014442 0.033791 0.326164
233 4 0.0385767 0.037059 0.320506
1402 2 0.0497983 0.00948306 0.286721
1403 4 0.0438241 0.0252865 0.305153
316 2 0.0689379 0.0594823 0.316926
317 4 0.0541855 0.0409321 0.308961
318 4 0.0836903 0.0780324 0.324891
674 4 0.144975 0.0355807 0.264247
1701 4 0.236008 0.0269506 0.276995
690 4 0.201848 0.0419907 0.252857
1699 2 0.250315 0.0209717 0.29661
248 4 0.281723 0.0722877 0.309755
1749 4 0.444373 0.000803969 0.312613
480 4 0.460462 0.0112404 0.317855
351 4 0.46755 0.079002 0.289291
478 2 0.447012 0.0273122 0.331492
579 4 0.0912933 0.133228 0.25789
399 4 0.0638865 0.138587 0.339375
544 2 0.144803 0.133701 0.266262
545 4 0.128299 0.139921 0.283984
392 4 0.117214 0.155182 0.290906
731 4 0.100284 0.0820377 0.33308
403 2 0.266067 0.155798 0.306524
404 4 0.274492 0.136352 0.319792
247 2 0.274353 0.0956825 0.314607
249 4 0.266983 0.119077 0.31946
631 2 0.410576 0.146211 0.290744
633 4 0.398251 0.163229 0.277191
632 4 0.422901 0.129193 0.304296
349 2 0.453228 0.097817 0.297419
350 4 0.438906 0.116632 0.305546
452 4 0.435077 0.130201 0.319105
444 4 0.0241428 0.241899 0.321419
442 2 0.0298431 0.251025 0.298849
443 4 0.0355434 0.26015 0.276279
391 2 0.122131 0.177126 0.301835
393 4 0.127049 0.19907 0.312765
405 4 0.257642 0.175245 0.293256
707 4 0.385836 0.173552 0.290004
706 2 0.371663 0.184897 0.307198
708 4 0.35749 0.196241 0.324391
520 2 0.501395 0.196274 0.263056
521 4 0.476857 0.201072 0.263227
332 4 0.473616 0.18245 0.258729
762 4 0.461675 0.192894 0.270593
760 2 0.453225 0.197342 0.293701
761 4 0.444776 0.201791 0.316809
419 4 0.441017 0.186577 0.331
2655 4 0.0139618 0.229341 0.333836
750 4 0.0699171 0.309186 0.244249
396 4 0.0339479 0.267227 0.25875
2493 4 0.00490071 0.327723 0.268235
677 4 0.154351 0.321552 0.333267
400 2 0.215977 0.281741 0.296361
401 4 0.208704 0.283626 0.272513
402 4 0.22325 0.279857 0.320209
343 2 0.290734 0.299093 0.248743
345 4 0.312526 0.289479 0.25635
308 4 0.323705 0.274374 0.259897
496 2 0.325179 0.292416 0.2932
497 4 0.326813 0.292282 0.26825
498 4 0.323544 0.292549 0.31815
615 4 0.405052 0.290949 0.310711
613 2 0.382014 0.281405 0.308883
614 4 0.358976 0.271861 0.307054
543 4 0.415312 0.303147 0.321871
541 2 0.436498 0.315398 0.326995
542 4 0.457683 0.327649 0.33212
366 4 0.0408145 0.368872 0.283618
364 2 0.0344549 0.368161 0.307789
603 4 0.0119218 0.422372 0.25411
298 2 0.137425 0.355353 0.251765
299 4 0.128326 0.353809 0.275003
734 4 0.14504 0.362982 0.283948
733 2 0.149035 0.352064 0.306085
735 4 0.153031 0.341147 0.328221
435 4 0.330599 0.364978 0.317504
433 2 0.344178 0.368315 0.296775
434 4 0.357756 0.371653 0.276047
728 4 0.347436 0.372264 0.259637
2538 4 0.490225 0.336505 0.324351
264 4 0.0779608 0.504986 0.249451
262 2 0.0738609 0.480395 0.24754
601 2 0.0346628 0.432765 0.254205
777 4 0.127069 0.427555 0.282249
775 2 0.118436 0.430855 0.305482
776 4 0.109803 0.434156 0.328715
414 4 0.131735 0.433121 0.263099
412 2 0.156664 0.433571 0.264966
436 2 0.286056 0.48128 0.300197
438 4 0.309171 0.475179 0.307521
3 3 0.309857 0.466119 0.32676
713 4 0.451214 0.452878 0.283923
712 2 0.43915 0.46489 0.265611
1782 4 0.118654 0.00466117 0.38431
1780 2 0.132794 0.0213077 0.396481
605 4 0.22729 0.00777566 0.41718
439 2 0.269026 0.0197182 0.420221
697 2 0.379103 0.00637748 0.341972
698 4 0.365405 0.0244707 0.352468
257 4 0.375247 0.0320068 0.368102
256 2 0.383819 0.048956 0.384364
426 4 0.40787 0.080064 0.400703
258 4 0.392392 0.0659051 0.400625
479 4 0.433562 0.043384 0.345128
398 4 0.08272 0.0922999 0.337493
397 2 0.0733033 0.115443 0.338434
457 2 0.0313181 0.145625 0.397038
458 4 0.052268 0.133201 0.391387
600 4 0.148317 0.113588 0.32932
732 4 0.148911 0.0936931 0.333586
598 2 0.17286 0.118186 0.330614
730 2 0.124597 0.0878654 0.333333
685 2 0.163873 0.154365 0.392484
687 4 0.139264 0.15064 0.390096
686 4 0.188482 0.158089 0.394872
599 4 0.197403 0.122784 0.331908
683 4 0.278698 0.125445 0.334793
682 2 0.277191 0.129053 0.359489
684 4 0.275685 0.132662 0.384185
320 4 0.279669 0.115608 0.392195
451 2 0.436086 0.137347 0.343044
453 4 0.437095 0.144493 0.366984
514 2 0.428748 0.150334 0.410139
515 4 0.428056 0.145615 0.385594
2850 4 0.0139211 0.242274 0.410823
388 2 0.050804 0.235413 0.401645
390 4 0.0268433 0.23593 0.394518
2653 2 0.0167254 0.238577 0.356907
2654 4 0.019489 0.247813 0.379977
389 4 0.0747647 0.234896 0.408772
275 4 0.189809 0.237392 0.347045
474 4 0.290682 0.179767 0.367645
472 2 0.303145 0.195766 0.382269
487 2 0.32805 0.251274 0.415264
489 4 0.322868 0.227891 0.408084
473 4 0.315608 0.211765 0.396893
420 4 0.414774 0.216538 0.361239
717 4 0.395303 0.217579 0.356411
715 2 0.378895 0.231656 0.368973
716 4 0.362487 0.245732 0.381535
418 2 0.427895 0.201558 0.34612
269 4 0.46103 0.246575 0.404784
274 2 0.205683 0.256256 0.342876
676 2 0.167151 0.315405 0.353847
678 4 0.17995 0.309257 0.374428
508 2 0.227535 0.308925 0.349732
510 4 0.231877 0.290972 0.332879
375 4 0.171087 0.313333 0.392931
276 4 0.221556 0.27512 0.338707
373 2 0.180218 0.292786 0.403868
378 4 0.239302 0.273411 0.330877
509 4 0.223194 0.326878 0.366585
374 4 0.189349 0.272239 0.414805
377 4 0.28085 0.246141 0.336424
376 2 0.260076 0.259776 0.33365
2926 2 0.996523 0.38734 0.351628
365 4 0.0280952 0.367449 0.33196
2927 4 0.011753 0.370333 0.341431
616 2 0.0444248 0.358921 0.365999
617 4 0.0306278 0.372501 0.350175
618 4 0.0582218 0.345341 0.381823
347 4 0.0494259 0.341126 0.398928
326 4 0.0677103 0.346428 0.399136
325 2 0.0818238 0.366534 0.403797
408 4 0.10053 0.385033 0.365218
406 2 0.100007 0.407009 0.353304
504 4 0.272044 0.408026 0.412419
753 4 0.40941 0.396962 0.342099
2924 4 0.498165 0.350864 0.336631
2923 2 0.48026 0.365033 0.346822
561 4 0.468259 0.390235 0.373229
752 4 0.455897 0.39677 0.360528
559 2 0.474755 0.397824 0.396151
751 2 0.432654 0.396866 0.351314
2925 4 0.462356 0.379202 0.357012
2461 2 0.00812596 0.45287 0.352062
2463 4 0.0309165 0.45086 0.341976
549 4 0.0476282 0.4592 0.333603
547 2 0.0718905 0.453263 0.334735
681 4 0.0592018 0.43734 0.395459
679 2 0.0391084 0.450294 0.402782
383 4 0.0753053 0.447839 0.398926
680 4 0.019015 0.463248 0.410106
501 4 0.143742 0.469277 0.373538
382 2 0.0935428 0.45405 0.414863
548 4 0.0961528 0.447327 0.335866
407 4 0.099485 0.428986 0.341391
500 4 0.110748 0.445555 0.344394
499 2 0.127245 0.457416 0.358966
5 3 0.296824 0.469637 0.361909
1 1 0.314801 0.463611 0.349292
4 3 0.320562 0.441577 0.353733
2 3 0.33263 0.477163 0.354546
667 2 0.299534 0.476181 0.407601
668 4 0.306987 0.452335 0.408594
594 4 0.467331 0.460385 0.360088
592 2 0.46345 0.484938 0.357393
718 2 0.0707151 0.0573787 0.469527
720 4 0.0515045 0.0517909 0.484523
2237 4 0.03558 0.0407346 0.481917
2236 2 0.014129 0.0324034 0.472139
1781 4 0.146934 0.0379542 0.408652
368 4 0.138915 0.0466861 0.426177
719 4 0.0899257 0.0629666 0.45453
367 2 0.121323 0.0494431 0.44373
369 4 0.10373 0.0522001 0.461282
604 2 0.214985 0.0180938 0.436345
606 4 0.20268 0.0284119 0.45551
441 4 0.281453 0.0410422 0.424227
843 4 0.352542 0.0824483 0.501554
1581 4 0.449444 0.983317 0.4872
424 2 0.418798 0.0736408 0.422256
425 4 0.429727 0.0672176 0.443808
2880 4 0.500492 0.0866225 0.471534
261 4 0.0922129 0.134552 0.479978
259 2 0.0790751 0.149751 0.465093
1035 4 0.0981072 0.144406 0.4965
319 2 0.293567 0.108973 0.411893
321 4 0.307465 0.102338 0.431591
468 4 0.340203 0.159654 0.477255
466 2 0.317663 0.165993 0.468482
724 2 0.339325 0.118251 0.493971
725 4 0.34237 0.142246 0.487639
576 4 0.380796 0.159893 0.474016
574 2 0.397515 0.163296 0.455738
726 4 0.336279 0.0942546 0.500304
642 4 0.491103 0.0976081 0.484508
516 4 0.429439 0.155053 0.434684
469 2 0.0165522 0.239723 0.473351
470 4 0.0318709 0.248391 0.455592
260 4 0.0659373 0.164951 0.450208
467 4 0.295124 0.172333 0.459709
411 4 0.292209 0.192407 0.46167
409 2 0.273566 0.208893 0.464087
410 4 0.254923 0.225379 0.466504
871 2 0.371465 0.241481 0.485192
873 4 0.366395 0.21705 0.4868
268 2 0.456 0.231441 0.424042
575 4 0.414233 0.166699 0.43746
305 4 0.495779 0.182434 0.477257
270 4 0.450969 0.216308 0.443299
306 4 0.470227 0.208883 0.443371
304 2 0.483003 0.195658 0.460314
348 4 0.0465446 0.307034 0.4354
346 2 0.0479852 0.32408 0.417164
694 2 0.117117 0.286795 0.487354
696 4 0.128671 0.308301 0.492756
10 3 0.131808 0.326955 0.494563
695 4 0.105563 0.265289 0.481952
1260 4 0.145429 0.313996 0.492815
649 2 0.232139 0.323133 0.48786
651 4 0.237813 0.299453 0.48218
1259 4 0.191429 0.299286 0.505789
1258 2 0.168429 0.306641 0.499302
266 4 0.321276 0.277503 0.439149
265 2 0.32083 0.297158 0.454597
267 4 0.320383 0.316814 0.470045
488 4 0.333232 0.274658 0.422443
872 4 0.376535 0.265913 0.483583
583 2 0.463663 0.295548 0.459593
584 4 0.485768 0.298102 0.470997
585 4 0.441559 0.292994 0.448189
934 2 0.00218346 0.394103 0.506034
327 4 0.0959373 0.386641 0.408457
7 3 0.123296 0.361424 0.48306
650 4 0.226466 0.346812 0.49354
503 4 0.259642 0.361158 0.424678
710 4 0.220457 0.364212 0.499379
803 4 0.238669 0.363096 0.493546
502 2 0.265843 0.384592 0.418549
804 4 0.282276 0.387571 0.493145
802 2 0.260473 0.375334 0.493346
336 4 0.338661 0.387459 0.482211
334 2 0.3602 0.375549 0.486619
335 4 0.381738 0.363639 0.491026
560 4 0.481251 0.405413 0.419072
2507 4 0.493094 0.419629 0.427441
2506 2 0.502087 0.405003 0.445617
663 4 0.449129 0.411332 0.477898
540 4 0.0941392 0.466541 0.49465
539 4 0.107726 0.469998 0.446649
569 4 0.124923 0.462803 0.446408
568 2 0.145172 0.461681 0.431783
538 2 0.100933 0.468269 0.47065
384 4 0.11178 0.460262 0.4308
635 4 0.188789 0.470033 0.47631
636 4 0.221025 0.492949 0.445709
774 4 0.196808 0.452265 0.48057
1557 4 0.213705 0.486971 0.428897
634 2 0.204907 0.481491 0.46101
570 4 0.165422 0.46056 0.417158
588 4 0.332581 0.421322 0.432112
587 4 0.374186 0.442514 0.414206
586 2 0.353383 0.431918 0.423159
661 2 0.454742 0.433962 0.48693
662 4 0.460355 0.456592 0.495961
1332 4 0.4518 0.47356 0.502201
1330 2 0.443132 0.496908 0.504418
1126 2 0.0626449 0.0576851 0.526606
1127 4 0.0590158 0.0534955 0.502225
1128 4 0.0662739 0.0618747 0.550988
939 4 0.0792895 0.0762927 0.556104
1057 2 0.152817 0.0573793 0.558773
1059 4 0.140488 0.0791313 0.558871
1058 4 0.165147 0.0356274 0.558674
2430 4 0.200722 0.00988125 0.549626
341 4 0.201618 0.0279708 0.539464
340 2 0.212021 0.048481 0.529651
342 4 0.222424 0.0689912 0.519838
961 2 0.287736 0.057466 0.568175
963 4 0.283723 0.0761767 0.552082
430 2 0.314683 0.077967 0.522909
432 4 0.293628 0.078901 0.536362
950 4 0.275436 0.027472 0.583956
1217 4 0.408024 0.0559024 0.527315
842 4 0.388763 0.05471 0.522031
841 2 0.370653 0.0685791 0.511793
431 4 0.335739 0.0770329 0.509456
1216 2 0.428829 0.0681043 0.520722
938 4 0.126519 0.091616 0.562044
1033 2 0.118937 0.131413 0.501242
1034 4 0.139767 0.11842 0.505984
937 2 0.102904 0.0839544 0.559074
1155 4 0.141775 0.0969385 0.551201
1153 2 0.161005 0.110511 0.542763
1154 4 0.180234 0.124083 0.534326
1182 4 0.237022 0.0831292 0.518872
1151 4 0.194062 0.12384 0.518399
1150 2 0.207888 0.103776 0.512791
1152 4 0.221714 0.0837114 0.507183
1181 4 0.280069 0.0920302 0.542715
1180 2 0.258546 0.0875797 0.530793
900 4 0.355955 0.127922 0.541922
898 2 0.380029 0.123546 0.547069
899 4 0.404103 0.11917 0.552215
1218 4 0.449634 0.0803063 0.51413
641 4 0.45564 0.0981267 0.519762
3159 4 0.469384 0.150271 0.518496
640 2 0.473371 0.0978674 0.502135
1272 4 0.0900282 0.201227 0.579104
856 2 0.225857 0.195584 0.525102
857 4 0.210954 0.206408 0.508193
858 4 0.240759 0.18476 0.542012
797 4 0.203254 0.247786 0.590788
3065 4 0.489132 0.240683 0.546912
905 4 0.471006 0.252263 0.550648
3157 2 0.487301 0.16758 0.520644
904 2 0.448151 0.255173 0.560362
984 4 0.0775282 0.330391 0.544703
3044 4 0.991673 0.280151 0.569909
982 2 0.0945644 0.319086 0.53031
983 4 0.111601 0.307781 0.515917
1190 4 0.172498 0.328614 0.53546
947 4 0.190369 0.256161 0.576965
1239 4 0.321848 0.319345 0.567763
813 4 0.309339 0.309759 0.555094
1237 2 0.332817 0.298294 0.575618
811 2 0.287532 0.321954 0.554119
812 4 0.265726 0.334148 0.553144
906 4 0.425296 0.258083 0.570076
935 4 0.0239277 0.405667 0.510352
9 3 0.116313 0.351432 0.518613
8 3 0.152071 0.356282 0.506687
1137 4 0.106623 0.376703 0.582079
1136 4 0.0763889 0.345608 0.557185
1135 2 0.0915059 0.361156 0.569632
895 2 0.141628 0.3839 0.577618
6 1 0.130904 0.348851 0.500757
1041 4 0.0988101 0.3947 0.578426
1189 2 0.174671 0.344861 0.554342
711 4 0.170514 0.361693 0.499133
709 2 0.195485 0.362953 0.499256
896 4 0.165336 0.375956 0.577726
1191 4 0.176843 0.361107 0.573223
930 4 0.3694 0.412397 0.568353
1000 2 0.410008 0.406433 0.567331
1002 4 0.387894 0.41785 0.569742
240 4 0.397804 0.372703 0.494428
925 2 0.454659 0.402602 0.532602
926 4 0.474984 0.400389 0.518209
3309 4 0.485802 0.384572 0.524275
927 4 0.434334 0.404814 0.546996
1001 4 0.432122 0.395016 0.564919
3307 2 0.499312 0.384136 0.50324
238 2 0.41961 0.38466 0.49183
239 4 0.441415 0.396616 0.489232
2243 4 0.125981 0.442466 0.546852
2242 2 0.112221 0.446576 0.526384
1161 4 0.11993 0.446588 0.56601
1159 2 0.141483 0.445812 0.57866
2244 4 0.0984616 0.450686 0.505915
773 4 0.192039 0.437428 0.528087
772 2 0.194423 0.444846 0.504328
1173 4 0.265876 0.452434 0.572701
1171 2 0.289762 0.446481 0.577086
1172 4 0.313647 0.440528 0.581472
1454 4 0.337517 0.490519 0.52233
882 4 0.338121 0.471754 0.514748
1910 4 0.380163 0.496197 0.54688
1909 2 0.384311 0.48631 0.569468
881 4 0.335435 0.425242 0.532916
880 2 0.336778 0.448498 0.523832
943 2 0.075552 0.0360447 0.608117
945 4 0.0870063 0.0168013 0.619238
944 4 0.0640977 0.055288 0.596997
2319 4 0.0732469 0.00583303 0.630163
1284 4 0.154249 0.0789582 0.592247
962 4 0.291748 0.0387553 0.584268
949 2 0.265173 0.0117533 0.600472
810 4 0.454448 0.0561284 0.600011
808 2 0.469389 0.0591143 0.619836
45 3 0.477146 0.0727467 0.655485
809 4 0.484331 0.0621002 0.63966
1083 4 0.0507387 0.07116 0.597949
1082 4 0.0217562 0.0947836 0.631155
1081 2 0.0362474 0.0829718 0.614552
1076 4 0.0217237 0.0953428 0.651223
1282 2 0.148618 0.0877223 0.614977
1283 4 0.142986 0.0964864 0.637707
909 4 0.161483 0.0976959 0.645587
1031 4 0.230375 0.0784673 0.58595
1030 2 0.21819 0.0986841 0.594196
1032 4 0.206005 0.118901 0.602441
907 2 0.174165 0.109537 0.66359
908 4 0.186847 0.121379 0.681594
879 4 0.0780094 0.186204 0.577564
877 2 0.0561927 0.190896 0.588843
878 4 0.034376 0.195588 0.600121
1199 4 0.0161956 0.196775 0.607837
1209 4 0.0504922 0.251166 0.668537
1271 4 0.133039 0.184496 0.598362
1270 2 0.111534 0.192862 0.588733
1221 4 0.140059 0.181305 0.617197
1219 2 0.164529 0.181875 0.612093
1211 4 0.244718 0.179205 0.638911
1210 2 0.226678 0.183205 0.622067
1212 4 0.208638 0.187206 0.605222
1220 4 0.189 0.182445 0.606988
796 2 0.198741 0.224084 0.597348
798 4 0.194227 0.200383 0.603908
791 4 0.325869 0.212287 0.586253
790 2 0.335778 0.235165 0.584366
1025 4 0.479206 0.189112 0.627231
1026 4 0.490019 0.232973 0.648679
1024 2 0.484613 0.211043 0.637955
1244 4 0.0172261 0.282206 0.638804
1245 4 0.0515298 0.270886 0.673385
1243 2 0.034378 0.276546 0.656094
948 4 0.174386 0.295865 0.602826
946 2 0.182377 0.276013 0.589895
954 4 0.409441 0.25737 0.581546
1238 4 0.343785 0.277242 0.583472
792 4 0.345687 0.258044 0.58248
952 2 0.385268 0.26311 0.584351
953 4 0.361094 0.26885 0.587155
3264 4 0.00226483 0.409939 0.643197
897 4 0.11792 0.391844 0.57751
805 2 0.335213 0.393073 0.654382
806 4 0.340919 0.369937 0.661953
3240 4 0.00235814 0.415615 0.624906
1039 2 0.0953396 0.409293 0.59843
1040 4 0.091869 0.423886 0.618435
1160 4 0.163036 0.445036 0.591311
991 2 0.108162 0.446214 0.653712
993 4 0.099609 0.437363 0.631948
992 4 0.116714 0.455065 0.675477
1188 4 0.225048 0.447666 0.625384
807 4 0.329508 0.41621 0.64681
1187 4 0.261875 0.449614 0.59161
929 4 0.332985 0.444771 0.579605
1186 2 0.243461 0.44864 0.608497
891 4 0.323063 0.453586 0.592722
928 2 0.351193 0.428584 0.573979
1911 4 0.38846 0.476423 0.592056
889 2 0.335776 0.472421 0.603153
890 4 0.348488 0.491257 0.613584
1269 4 0.388644 0.459056 0.651729
2398 2 0.30391 0.00571145 0.738952
2400 4 0.28202 0.0155906 0.731993
1090 2 0.396274 0.0186937 0.674551
1092 4 0.396542 0.0408826 0.686073
1004 4 0.390251 0.0563335 0.675065
1003 2 0.373552 0.0749425 0.675222
2321 4 0.504824 0.0250486 0.745267
43 3 0.456854 0.0512792 0.678831
1163 4 0.493377 0.0703648 0.701085
1162 2 0.501658 0.0504633 0.713756
41 1 0.464655 0.0727043 0.674528
42 3 0.477725 0.0795448 0.692178
3426 4 0.495395 0.0842714 0.696681
2991 4 0.993302 0.0937731 0.712385
862 2 0.0241839 0.100249 0.737849
864 4 0.0118946 0.0924443 0.717521
1075 2 0.0151923 0.096163 0.675344
1077 4 0.00866091 0.0969832 0.699466
34 3 0.135828 0.164303 0.750547
1148 4 0.195922 0.10687 0.750418
1226 4 0.201177 0.112319 0.733731
1227 4 0.201395 0.134355 0.688841
1225 2 0.201286 0.123337 0.711286
831 4 0.317383 0.150906 0.723814
829 2 0.30115 0.167792 0.715066
1299 4 0.337577 0.151805 0.73025
1005 4 0.356853 0.0935516 0.675379
44 3 0.446788 0.0873422 0.672309
852 4 0.0256146 0.222862 0.704544
851 4 0.0632865 0.220877 0.737371
850 2 0.0444505 0.221869 0.720958
1107 4 0.0760221 0.205192 0.739877
888 4 0.240039 0.191255 0.653545
886 2 0.254066 0.188461 0.674054
830 4 0.284918 0.184678 0.706318
887 4 0.268093 0.185668 0.694563
976 2 0.27718 0.219726 0.720385
978 4 0.274303 0.200259 0.70496
977 4 0.280057 0.239193 0.73581
1193 4 0.379043 0.224031 0.723685
1142 4 0.371612 0.213384 0.741554
1192 2 0.380195 0.228477 0.699107
1194 4 0.381347 0.232922 0.674529
1207 2 0.0732249 0.243682 0.675774
1177 2 0.00564 0.265533 0.743506
1179 4 0.029346 0.273183 0.741342
814 2 0.0724921 0.34155 0.750609
1208 4 0.0959577 0.236197 0.683012
821 4 0.131828 0.303543 0.727226
820 2 0.149756 0.291835 0.714316
822 4 0.167685 0.280127 0.701406
1063 2 0.240553 0.304007 0.748685
1064 4 0.249734 0.324257 0.737247
918 4 0.290752 0.249524 0.750543
916 2 0.298105 0.272241 0.757962
917 4 0.305459 0.294958 0.765382
1020 4 0.363931 0.328491 0.742606
1263 4 0.437312 0.258867 0.720961
3123 4 0.497515 0.268718 0.667273
1261 2 0.423769 0.262024 0.741741
3275 4 0.0154083 0.370747 0.74081
893 4 0.0451887 0.387327 0.693973
892 2 0.0642742 0.376136 0.705621
1280 4 0.0350762 0.398604 0.707453
894 4 0.0833598 0.364944 0.717269
940 2 0.115682 0.369874 0.729475
942 4 0.0913229 0.370146 0.735108
815 4 0.084386 0.352492 0.731531
941 4 0.140041 0.369602 0.723842
1067 4 0.159507 0.370593 0.722599
1028 4 0.226395 0.370409 0.707658
1027 2 0.231173 0.394693 0.711213
1066 2 0.18441 0.369267 0.720806
1068 4 0.209314 0.36794 0.719012
1029 4 0.235951 0.418977 0.714769
1205 4 0.408181 0.389723 0.687222
1204 2 0.403266 0.412494 0.696304
1279 2 0.0339156 0.420478 0.719511
1281 4 0.032755 0.442351 0.731568
1983 4 0.0465761 0.456596 0.737072
1981 2 0.0580262 0.477979 0.743144
1175 4 0.213889 0.486281 0.722088
1139 4 0.246626 0.446973 0.695781
1140 4 0.294897 0.459273 0.691386
1138 2 0.270762 0.453123 0.693583
1988 4 0.313003 0.49634 0.746075
1987 2 0.328634 0.488646 0.72814
1267 2 0.407346 0.466444 0.666588
1230 4 0.398856 0.451968 0.716777
1228 2 0.378444 0.465771 0.721017
1229 4 0.358031 0.479575 0.725256
1989 4 0.344265 0.480952 0.710206
1206 4 0.398351 0.435266 0.705386
3330 4 0.505529 0.450705 0.710093
2168 4 0.439715 0.485651 0.687745
1268 4 0.426048 0.473833 0.681448
1100 4 0.442318 0.464971 0.686123
1099 2 0.464814 0.459314 0.695456
1101 4 0.48731 0.453657 0.704789
1294 2 0.0322449 0.0475552 0.813445
1295 4 0.0503622 0.0476751 0.830676
1296 4 0.0141276 0.0474352 0.796213
2049 4 0.116841 0.00799919 0.769095
1203 4 0.11797 0.0426853 0.821008
911 4 0.101358 0.0481854 0.829955
1202 4 0.111466 0.027366 0.773851
1201 2 0.114718 0.0350257 0.797429
2399 4 0.325799 0.995832 0.745911
1257 4 0.274691 0.0474036 0.803853
1255 2 0.280898 0.0715386 0.805894
974 4 0.364928 0.993582 0.796469
1113 4 0.392555 0.0573607 0.8015
973 2 0.372823 0.0173057 0.796704
975 4 0.380717 0.0410291 0.796939
2322 4 0.472019 0.00412748 0.776682
2320 2 0.488422 0.014588 0.760975
1111 2 0.416555 0.0549308 0.808076