ITEM: TIMESTEP
1970000
ITEM: NUMBER OF ATOMS
4590
ITEM: BOX BOUNDS pp pp pp
-9.9985700000000008e+00 9.9985700000000008e+00
-9.9985700000000008e+00 9.9985700000000008e+00
-9.9985700000000008e+00 9.9985700000000008e+00
ITEM: ATOMS id type xs ys zs
1666 2 0.0417671 0.067755 0.0570067
1668 4 0.0385566 0.0682962 0.032216
1667 4 0.0449776 0.0672138 0.0817974
2974 2 0.470654 0.0237139 0.00436767
2976 4 0.479248 0.00462336 0.0180381
2468 4 0.481433 0.990914 0.0308709
2467 2 0.478184 0.999761 0.0540301
2264 4 0.218633 0.149113 0.00315344
2263 2 0.237117 0.132318 0.00195476
297 4 0.328902 0.123118 0.0245526
295 2 0.3452 0.114991 0.0074202
556 2 0.40329 0.114774 0.00203553
557 4 0.380371 0.114712 0.992041
558 4 0.426209 0.114836 0.0120305
746 4 0.441553 0.104716 0.005237
745 2 0.453207 0.083582 0.9987
566 4 0.171268 0.182765 0.0345483
565 2 0.19054 0.174733 0.0207922
567 4 0.209813 0.166701 0.00703613
360 4 0.341294 0.187317 0.00605419
769 2 0.416106 0.17838 0.00713399
770 4 0.402304 0.179915 0.0279267
359 4 0.383644 0.177596 0.0308085
358 2 0.362469 0.182456 0.0184313
664 2 0.402355 0.201937 0.0604009
665 4 0.393758 0.183289 0.0461347
666 4 0.410953 0.220585 0.0746671
323 4 0.415845 0.239251 0.0689825
623 4 0.406956 0.236136 0.0857964
1292 4 0.346287 0.191923 0.98721
555 4 0.0643175 0.272751 0.0153207
287 4 0.159539 0.319183 0.0299422
292 2 0.130627 0.287194 0.0307342
507 4 0.154325 0.314732 0.0498621
293 4 0.147687 0.305019 0.0347854
294 4 0.113566 0.26937 0.026683
286 2 0.172088 0.327157 0.00983962
505 2 0.172774 0.319444 0.0660675
482 4 0.242375 0.27841 0.0722348
481 2 0.224399 0.294701 0.0782879
483 4 0.206424 0.310993 0.0843411
573 4 0.250993 0.277495 0.0544211
571 2 0.266897 0.272454 0.0357977
572 4 0.282801 0.267413 0.0171744
357 4 0.294139 0.268026 0.00123522
322 2 0.416406 0.25595 0.0503816
1069 2 0.398634 0.298344 0.0214936
957 4 0.368596 0.328409 0.0206957
1071 4 0.376634 0.310112 0.0231343
955 2 0.352418 0.319661 0.00375657
741 4 0.369181 0.31987 0.0377043
739 2 0.371701 0.325667 0.0618959
1070 4 0.420634 0.286576 0.0198528
324 4 0.416967 0.27265 0.0317806
671 4 0.453413 0.328307 0.0779758
280 2 0.447807 0.304 0.0463087
281 4 0.459538 0.315894 0.064912
282 4 0.436075 0.292106 0.0277055
330 4 0.98274 0.418809 0.980656
551 4 0.102064 0.328398 0.0630037
455 4 0.15136 0.360037 0.080077
552 4 0.130557 0.364901 0.0818802
550 2 0.116311 0.346649 0.0724419
454 2 0.168088 0.374722 0.0686878
456 4 0.184817 0.389406 0.0572987
1290 4 0.269113 0.403922 0.00331804
252 4 0.264066 0.401983 0.0667197
609 4 0.278165 0.404202 0.081392
250 2 0.265857 0.409317 0.042883
493 2 0.382207 0.384609 0.0764371
494 4 0.374643 0.407922 0.0813859
495 4 0.38977 0.361297 0.0714883
626 4 0.22333 0.491357 0.0652325
625 2 0.204161 0.476614 0.0715856
627 4 0.184992 0.461871 0.0779387
245 4 0.241591 0.483044 0.0604062
244 2 0.252929 0.465646 0.0464805
246 4 0.264268 0.448248 0.0325547
251 4 0.267649 0.41665 0.0190463
272 4 0.263151 0.436038 0.0163857
1672 2 0.410789 0.43672 0.0607566
853 2 0.412452 0.442006 0.00451929
660 4 0.376007 0.42729 0.0802044
854 4 0.427408 0.437198 0.0239712
1674 4 0.426726 0.443286 0.0426436
563 4 0.483486 0.467574 0.0323204
562 2 0.459452 0.460796 0.031054
564 4 0.435418 0.454018 0.0297876
228 4 0.497041 0.456945 0.0223149
18 3 0.0706911 0.0373926 0.158743
1474 2 0.303246 0.00805257 0.0721598
1475 4 0.29906 0.032639 0.0739368
492 4 0.307117 0.0435867 0.089498
490 2 0.287569 0.0580354 0.0953552
491 4 0.268022 0.0724841 0.101212
2469 4 0.474934 0.00860769 0.0771894
2723 4 0.451129 0.079299 0.147102
2722 2 0.468445 0.061819 0.15155
2724 4 0.485761 0.0443389 0.155997
1761 4 0.486449 0.0144877 0.0936155
1759 2 0.487534 0.0234202 0.116944
701 4 0.0546589 0.0852021 0.086828
700 2 0.0639107 0.108092 0.0907844
702 4 0.0731625 0.130981 0.0947409
476 4 0.0801125 0.13959 0.110257
475 2 0.10326 0.142582 0.119224
477 4 0.126408 0.145575 0.12819
582 4 0.252876 0.13325 0.164717
580 2 0.268337 0.124099 0.147328
581 4 0.283798 0.114948 0.129938
628 2 0.360775 0.142433 0.141829
312 4 0.371821 0.107509 0.149158
629 4 0.368926 0.120353 0.133391
630 4 0.352624 0.164514 0.150266
310 2 0.374487 0.0975541 0.171938
339 4 0.0683262 0.226269 0.148799
337 2 0.0633933 0.241048 0.168355
736 2 0.22721 0.168226 0.105968
738 4 0.22744 0.170596 0.0810782
737 4 0.226979 0.165856 0.130858
755 4 0.24833 0.248455 0.14637
460 2 0.332721 0.239791 0.107848
352 2 0.280832 0.244999 0.125
353 4 0.267153 0.246869 0.145846
254 4 0.365664 0.178865 0.144016
462 4 0.353602 0.239479 0.121598
255 4 0.364843 0.225709 0.126532
253 2 0.365253 0.202287 0.135274
765 4 0.362677 0.242782 0.137832
624 4 0.37453 0.24123 0.123523
622 2 0.390743 0.238683 0.10466
506 4 0.191223 0.324157 0.0822728
537 4 0.177825 0.323957 0.0974127
535 2 0.178787 0.314397 0.120496
754 2 0.242196 0.271503 0.153875
536 4 0.179748 0.304837 0.14358
461 4 0.31184 0.240103 0.0940984
354 4 0.294511 0.243129 0.104154
387 4 0.3195 0.299602 0.112939
301 2 0.324006 0.303396 0.156752
302 4 0.324392 0.301092 0.131858
763 2 0.350485 0.250896 0.158097
385 2 0.340157 0.309169 0.102598
15 3 0.371772 0.320418 0.106778
386 4 0.360814 0.318737 0.0922579
740 4 0.37422 0.331463 0.0860875
527 4 0.465244 0.311775 0.082419
670 2 0.430855 0.334134 0.0870518
528 4 0.487402 0.270703 0.100387
526 2 0.476323 0.291239 0.091403
315 4 0.0033768 0.366401 0.12939
417 4 0.158423 0.391229 0.163514
415 2 0.181158 0.392695 0.153211
291 4 0.210959 0.384866 0.127085
289 2 0.231235 0.399259 0.129704
416 4 0.203894 0.394161 0.142909
290 4 0.251512 0.413653 0.132323
12 3 0.404547 0.333626 0.11879
672 4 0.408298 0.339962 0.0961279
14 3 0.389018 0.347908 0.0876847
11 1 0.384616 0.339126 0.108706
13 3 0.373709 0.354907 0.121759
595 2 0.48001 0.402512 0.144684
596 4 0.469713 0.405803 0.122138
102 3 0.486463 0.346145 0.123768
1791 4 0.045523 0.487605 0.136179
1466 4 0.0434308 0.477073 0.15248
1465 2 0.0348083 0.453844 0.155831
1467 4 0.0261857 0.430614 0.159182
638 4 0.262888 0.492388 0.122725
767 4 0.253581 0.477045 0.130577
766 2 0.257184 0.452906 0.136012
768 4 0.260787 0.428768 0.141448
607 2 0.294511 0.420649 0.090745
608 4 0.310857 0.437096 0.100098
1673 4 0.394852 0.430155 0.0788696
659 4 0.329757 0.436775 0.0966881
658 2 0.352882 0.432033 0.0884463
1559 4 0.366307 0.475745 0.113059
1558 2 0.346541 0.489238 0.105818
524 4 0.377771 0.48843 0.102155
16 1 0.0656768 0.051065 0.176808
19 3 0.0617862 0.0727404 0.169497
17 3 0.0466706 0.0431545 0.187071
2480 4 0.0303749 0.0326954 0.185769
1422 4 0.0364964 0.0142624 0.185501
2479 2 0.0128233 0.0500786 0.189635
20 3 0.0828901 0.0508652 0.191718
450 4 0.159142 0.0726924 0.172208
578 4 0.0969635 0.0613114 0.181961
674 4 0.161974 0.0102902 0.221006
673 2 0.14384 0.00191585 0.236047
689 4 0.178121 0.0175692 0.211977
577 2 0.119352 0.0722462 0.179874
579 4 0.141741 0.083181 0.177786
693 4 0.234485 0.0770547 0.24032
652 2 0.283545 0.00933764 0.188017
654 4 0.271562 0.994878 0.171509
653 4 0.295529 0.0237974 0.204524
25 3 0.319766 0.0502857 0.243929
311 4 0.377154 0.0875989 0.194719
758 4 0.35961 0.0801202 0.198348
759 4 0.337649 0.0620767 0.239493
757 2 0.348629 0.0710984 0.21892
744 4 0.503743 0.0315525 0.217082
2745 4 0.511268 0.0204778 0.201648
511 2 0.0367364 0.149191 0.191157
513 4 0.05742 0.162793 0.194671
512 4 0.0160529 0.135588 0.187642
393 4 0.0744528 0.172407 0.196197
381 4 0.0014098 0.134592 0.201548
237 4 0.24119 0.139554 0.178315
449 4 0.205284 0.0919649 0.172664
448 2 0.182213 0.0823286 0.172436
235 2 0.220891 0.124958 0.178054
236 4 0.200591 0.110363 0.177793
26 1 0.323697 0.156707 0.24478
28 3 0.334479 0.144228 0.228458
521 4 0.493105 0.146733 0.224038
332 4 0.497419 0.133725 0.237627
762 4 0.486339 0.149035 0.242062
760 2 0.461836 0.146135 0.246112
331 2 0.501249 0.109277 0.241201
394 2 0.0150791 0.247236 0.21702
395 4 0.0297758 0.251331 0.197211
396 4 0.000382452 0.243142 0.23683
391 2 0.0848595 0.180465 0.217456
278 4 0.262935 0.239767 0.160484
279 4 0.260426 0.194435 0.181446
277 2 0.261681 0.217101 0.170965
27 3 0.322084 0.178507 0.237619
338 4 0.0584604 0.255827 0.187911
363 4 0.0471501 0.259638 0.204197
361 2 0.0606423 0.279976 0.209631
749 4 0.0630892 0.315626 0.221929
648 4 0.0737839 0.317533 0.206307
362 4 0.0741344 0.300313 0.215065
748 2 0.0700855 0.32788 0.242571
646 2 0.0720814 0.333565 0.187195
370 2 0.112802 0.308963 0.21477
372 4 0.0899518 0.305223 0.205332
371 4 0.135652 0.312703 0.224208
734 4 0.142263 0.317001 0.242526
756 4 0.236062 0.294551 0.161381
610 2 0.239913 0.301671 0.202915
612 4 0.236361 0.305175 0.178415
611 4 0.243464 0.298168 0.227416
344 4 0.240573 0.296061 0.247127
284 4 0.276071 0.252034 0.165454
285 4 0.320258 0.267489 0.18304
283 2 0.298165 0.259762 0.174247
307 2 0.329648 0.288905 0.209987
308 4 0.321301 0.28628 0.186565
303 4 0.32362 0.305701 0.181647
729 4 0.306139 0.315723 0.184644
309 4 0.337996 0.291531 0.233409
764 4 0.338292 0.25901 0.178362
647 4 0.0703789 0.349596 0.168083
727 2 0.294869 0.336806 0.191968
728 4 0.283598 0.35789 0.199291
645 4 0.4919 0.403706 0.187027
445 2 0.4216 0.388249 0.229239
447 4 0.438842 0.383581 0.211743
644 4 0.458332 0.382981 0.217758
643 2 0.475116 0.393344 0.202392
597 4 0.490307 0.399222 0.16723
414 4 0.223783 0.478806 0.225882
229 2 0.46018 0.483334 0.22786
231 4 0.474458 0.467306 0.240682
234 4 0.0155088 0.0511839 0.286602
232 2 0.0375765 0.0397644 0.289393
233 4 0.0596441 0.0283449 0.292184
1404 4 0.0738818 0.015911 0.286006
317 4 0.0782798 0.0296914 0.297997
428 4 0.0804445 0.0118576 0.305037
2756 4 0.00373835 0.0621966 0.295651
316 2 0.0882442 0.0515448 0.304948
1402 2 0.0926553 0.00380101 0.274777
318 4 0.0982086 0.0733982 0.311899
732 4 0.106375 0.0897954 0.320863
730 2 0.1301 0.0831049 0.325052
731 4 0.153824 0.0764144 0.329242
24 3 0.317022 0.0631961 0.279191
21 1 0.330822 0.0528441 0.263674
23 3 0.337622 0.0321538 0.271679
22 3 0.349399 0.0659864 0.260307
349 2 0.383829 0.070626 0.268751
351 4 0.407172 0.0617028 0.269552
350 4 0.360485 0.0795492 0.26795
479 4 0.452303 0.0311405 0.293239
478 2 0.437394 0.0418436 0.276259
2664 4 0.471381 0.0368589 0.292327
480 4 0.422484 0.0525467 0.259278
1428 4 0.463395 0.0232807 0.303541
258 4 0.449162 0.0321665 0.313096
2662 2 0.49171 0.0512094 0.294775
399 4 0.0883788 0.0839039 0.323821
691 2 0.241696 0.0951908 0.25595
721 2 0.248685 0.129113 0.299825
722 4 0.233343 0.135638 0.318459
249 4 0.229993 0.117298 0.329082
30 3 0.302788 0.148418 0.248352
723 4 0.264027 0.122587 0.281192
692 4 0.248906 0.113327 0.271579
29 3 0.3359 0.156175 0.264508
632 4 0.358334 0.100269 0.27224
631 2 0.356337 0.125189 0.271779
707 4 0.344559 0.156679 0.281583
633 4 0.354339 0.150108 0.271319
706 2 0.347251 0.172241 0.300968
761 4 0.437334 0.143235 0.250162
443 4 0.00772616 0.253883 0.250467
392 4 0.0952662 0.188523 0.238715
546 4 0.154766 0.188999 0.309176
544 2 0.164026 0.199045 0.288236
545 4 0.173286 0.209091 0.267295
402 4 0.183312 0.226163 0.268093
400 2 0.1895 0.249403 0.274933
474 4 0.193053 0.230032 0.346929
708 4 0.349943 0.187802 0.320352
418 2 0.407872 0.250219 0.3212
419 4 0.409091 0.236824 0.342278
442 2 0.00986418 0.263227 0.27356
444 4 0.0120022 0.272571 0.296653
299 4 0.143343 0.334966 0.252475
733 2 0.161355 0.306366 0.254675
401 4 0.195687 0.272644 0.281773
676 2 0.18059 0.297121 0.306591
345 4 0.19838 0.290748 0.273437
677 4 0.184802 0.288232 0.283603
343 2 0.219476 0.293404 0.260282
735 4 0.180447 0.295732 0.266824
678 4 0.176377 0.306009 0.329579
498 4 0.331834 0.288591 0.253136
378 4 0.241987 0.26837 0.302107
376 2 0.2669 0.266257 0.301889
496 2 0.319328 0.281189 0.273482
497 4 0.306821 0.273787 0.293829
377 4 0.291813 0.264144 0.301671
541 2 0.396503 0.30026 0.304844
542 4 0.412766 0.283238 0.296421
543 4 0.380239 0.317281 0.313266
420 4 0.406652 0.263614 0.300123
2537 4 0.496503 0.332636 0.330503
264 4 0.0110219 0.394373 0.258543
365 4 0.0139945 0.358129 0.302832
601 2 0.0350061 0.392765 0.317286
603 4 0.0166559 0.377763 0.309324
750 4 0.0770817 0.340134 0.263212
298 2 0.119924 0.341249 0.258579
300 4 0.0965056 0.347532 0.264684
510 4 0.210741 0.340868 0.317594
433 2 0.309501 0.386586 0.309361
435 4 0.288637 0.390602 0.296178
434 4 0.330364 0.38257 0.322543
446 4 0.404357 0.392916 0.246734
614 4 0.350149 0.375627 0.320518
613 2 0.357187 0.351643 0.319888
1757 4 0.0642103 0.437205 0.284605
1756 2 0.0707826 0.455625 0.269027
1775 4 0.0694756 0.491576 0.259713
1758 4 0.0773548 0.474045 0.253448
412 2 0.224837 0.477635 0.250836
1436 4 0.218457 0.473088 0.294591
413 4 0.225892 0.476464 0.275789
1435 2 0.237799 0.460917 0.304737
3 3 0.280941 0.477991 0.327254
1437 4 0.257141 0.448747 0.314883
4 3 0.265675 0.443713 0.333281
1803 4 0.352866 0.511109 0.269137
1801 2 0.355154 0.506355 0.293577
1802 4 0.357443 0.5016 0.318018
437 4 0.34836 0.485277 0.323804
1742 4 0.429922 0.485207 0.325632
1780 2 0.126445 0.00252148 0.405533
606 4 0.158305 0.0575622 0.333565
1781 4 0.119036 0.0220889 0.419222
604 2 0.177747 0.0643003 0.34777
605 4 0.197189 0.0710384 0.361976
248 4 0.212151 0.0825233 0.360277
441 4 0.319282 0.0119852 0.404144
1701 4 0.32922 0.0152186 0.388104
425 4 0.334131 0.0197647 0.407872
698 4 0.402352 0.0567474 0.347456
1699 2 0.339073 0.0240943 0.366907
1700 4 0.348925 0.03297 0.34571
699 4 0.357881 0.0419485 0.330019
697 2 0.380116 0.0493479 0.338737
725 4 0.412118 0.0463962 0.421057
256 2 0.435377 0.0404495 0.332242
257 4 0.421593 0.0487325 0.351387
2489 4 0.992003 0.0926704 0.393436
397 2 0.0718347 0.0978289 0.336374
2584 2 0.0174185 0.110905 0.353833
398 4 0.0552906 0.111754 0.348926
2586 4 0.039468 0.120683 0.36042
458 4 0.0394885 0.120542 0.380937
457 2 0.0374385 0.137699 0.39901
459 4 0.0353885 0.154856 0.417083
600 4 0.151268 0.140294 0.395491
598 2 0.145509 0.164342 0.391788
247 2 0.221072 0.0999106 0.34468
404 4 0.225202 0.134404 0.335009
683 4 0.232758 0.121823 0.389825
403 2 0.221919 0.158695 0.339939
682 2 0.25622 0.129855 0.386633
319 2 0.317638 0.151648 0.379403
684 4 0.279682 0.137887 0.383442
320 4 0.298476 0.136479 0.384688
321 4 0.336799 0.166816 0.374117
717 4 0.442654 0.160524 0.340841
260 4 0.0331518 0.175941 0.416634
599 4 0.139751 0.18839 0.388085
389 4 0.104479 0.224124 0.357059
686 4 0.12662 0.188909 0.403785
685 2 0.10442 0.197813 0.411067
275 4 0.141705 0.199253 0.370438
274 2 0.159053 0.209168 0.355408
687 4 0.0822196 0.206718 0.418349
276 4 0.176402 0.219083 0.340379
472 2 0.210286 0.213408 0.339729
405 4 0.218635 0.182987 0.344869
473 4 0.227519 0.196784 0.332529
467 4 0.399143 0.183089 0.390758
716 4 0.412999 0.175737 0.378122
715 2 0.427827 0.168131 0.359481
269 4 0.425971 0.243473 0.351379
270 4 0.453976 0.211857 0.378153
452 4 0.473268 0.211174 0.381129
268 2 0.439974 0.227665 0.364766
451 2 0.476097 0.206812 0.405586
2800 2 0.998944 0.285849 0.416179
616 2 0.0941854 0.307539 0.377555
388 2 0.109265 0.248166 0.361985
390 4 0.114051 0.272208 0.366911
617 4 0.104301 0.287479 0.36658
374 4 0.125239 0.286513 0.363421
373 2 0.144866 0.299077 0.354361
375 4 0.164494 0.31164 0.3453
509 4 0.235965 0.337113 0.36061
615 4 0.364226 0.327659 0.319257
618 4 0.0840699 0.3276 0.388529
347 4 0.0722498 0.341419 0.397039
549 4 0.0698887 0.40346 0.335831
602 4 0.0533563 0.407767 0.325247
346 2 0.0496797 0.351008 0.392158
348 4 0.0271096 0.360597 0.387277
508 2 0.223353 0.338991 0.339102
668 4 0.313211 0.395167 0.413138
336 4 0.317389 0.375776 0.417276
334 2 0.335027 0.362029 0.406092
335 4 0.352666 0.348282 0.394909
240 4 0.367813 0.359294 0.404694
238 2 0.390083 0.370319 0.407468
239 4 0.412352 0.381345 0.410242
587 4 0.405664 0.400653 0.412737
586 2 0.411377 0.42199 0.401022
752 4 0.47501 0.3986 0.380712
561 4 0.483925 0.403326 0.399951
547 2 0.0774424 0.42084 0.352142
499 2 0.0798644 0.483848 0.350659
501 4 0.0864537 0.474094 0.372718
548 4 0.084996 0.438221 0.368452
407 4 0.0899581 0.454905 0.376736
406 2 0.103499 0.461376 0.396735
1556 4 0.249988 0.495666 0.411326
1544 4 0.229958 0.494305 0.407733
1555 2 0.274722 0.49204 0.411841
5 3 0.267859 0.468739 0.361326
1557 4 0.299456 0.488415 0.412356
1 1 0.278217 0.460842 0.342645
438 4 0.301881 0.470985 0.335476
2 3 0.298927 0.452624 0.348365
436 2 0.32512 0.478131 0.32964
593 4 0.40571 0.449473 0.373487
592 2 0.420188 0.462086 0.357471
588 4 0.417089 0.443328 0.389306
713 4 0.446021 0.489111 0.335509
712 2 0.467357 0.476126 0.336668
714 4 0.488692 0.46314 0.337827
753 4 0.498972 0.432045 0.352288
117 3 0.50085 0.454418 0.355483
751 2 0.486991 0.415322 0.3665
594 4 0.434665 0.474699 0.341455
367 2 0.0771183 0.0264016 0.428829
369 4 0.0543783 0.0281138 0.439083
719 4 0.0433601 0.0203473 0.454136
718 2 0.0184388 0.0198324 0.452176
368 4 0.0998583 0.0246894 0.418575
342 4 0.219511 0.0477546 0.51122
340 2 0.195818 0.0439938 0.504172
341 4 0.172125 0.040233 0.497125
962 4 0.316738 0.0255927 0.416692
961 2 0.300501 0.0392884 0.429882
963 4 0.284264 0.0529842 0.443072
432 4 0.298424 0.0652082 0.452154
430 2 0.31441 0.0770069 0.467334
424 2 0.355138 0.0245099 0.420576
426 4 0.376145 0.029255 0.433279
1216 2 0.418963 0.0450089 0.500782
724 2 0.422844 0.0652212 0.433537
1218 4 0.442304 0.0439277 0.491882
431 4 0.330396 0.0888056 0.482513
726 4 0.43357 0.0840461 0.446017
642 4 0.498419 0.112363 0.433592
640 2 0.475101 0.112965 0.442598
641 4 0.451784 0.113566 0.451604
259 2 0.0488073 0.19539 0.415292
261 4 0.0644629 0.21484 0.413949
1035 4 0.0718282 0.217416 0.431008
696 4 0.105075 0.243833 0.483537
1033 2 0.0844288 0.230633 0.448088
1034 4 0.0970294 0.243851 0.465167
694 2 0.0995292 0.229142 0.502995
488 4 0.319159 0.247314 0.431711
487 2 0.336048 0.243752 0.4498
466 2 0.402827 0.190757 0.414269
468 4 0.406511 0.198425 0.437781
411 4 0.372702 0.244349 0.465131
409 2 0.387442 0.224773 0.460164
410 4 0.402182 0.205196 0.455198
266 4 0.364253 0.246022 0.481879
489 4 0.352938 0.24019 0.46789
265 2 0.362088 0.245615 0.506785
574 2 0.412177 0.181749 0.490566
575 4 0.408213 0.194241 0.469272
516 4 0.419744 0.198982 0.452954
514 2 0.444566 0.200534 0.450373
515 4 0.469387 0.202085 0.447792
453 4 0.478925 0.202451 0.430043
584 4 0.504254 0.24977 0.493791
2847 4 0.994679 0.307324 0.446664
2802 4 0.00842719 0.301473 0.433242
1258 2 0.11367 0.281448 0.478111
1259 4 0.123249 0.304329 0.48125
9 3 0.145607 0.309416 0.481019
1260 4 0.10409 0.258567 0.474972
7 3 0.110656 0.323157 0.479536
6 1 0.132842 0.328774 0.481857
327 4 0.0916604 0.326104 0.484603
858 4 0.198281 0.246746 0.491049
326 4 0.0557056 0.36082 0.486258
325 2 0.073683 0.343462 0.485431
10 3 0.138844 0.342779 0.464931
709 2 0.150173 0.412484 0.476322
711 4 0.127715 0.413725 0.4654
8 3 0.135806 0.339339 0.502302
503 4 0.204921 0.349299 0.489728
502 2 0.193358 0.371421 0.488284
710 4 0.172631 0.411243 0.487244
504 4 0.181796 0.393544 0.486841
667 2 0.320686 0.418059 0.419865
882 4 0.390648 0.360616 0.507655
3307 2 0.487178 0.362229 0.467878
3308 4 0.478187 0.339783 0.47424
1383 4 0.997125 0.466738 0.462077
1381 2 0.0122669 0.486634 0.461904
408 4 0.117041 0.467847 0.416733
568 2 0.146217 0.488601 0.434868
383 4 0.110822 0.463038 0.434783
569 4 0.124959 0.475663 0.432445
382 2 0.112647 0.445076 0.452082
384 4 0.114472 0.427114 0.46938
1543 2 0.207216 0.496649 0.417858
634 2 0.321873 0.469858 0.435614
669 4 0.32816 0.440952 0.426592
636 4 0.306449 0.489017 0.431118
772 2 0.363383 0.436794 0.45343
773 4 0.383014 0.440815 0.468384
774 4 0.343752 0.432774 0.438475
635 4 0.337297 0.450699 0.44011
663 4 0.489415 0.465701 0.469828
661 2 0.491914 0.489236 0.477891
2430 4 0.162147 0.0239849 0.502441
1152 4 0.223842 0.0662529 0.513126
1150 2 0.227965 0.0780159 0.534801
1030 2 0.26355 0.0664206 0.577594
949 2 0.292571 0.0200492 0.564948
1217 4 0.395622 0.0460901 0.509682
842 4 0.376488 0.0508798 0.515423
841 2 0.361623 0.0681378 0.50511
3009 4 0.498342 0.0659882 0.56409
1058 4 0.08571 0.118388 0.522763
1057 2 0.0931 0.121567 0.546437
1059 4 0.10049 0.124746 0.570111
1155 4 0.106227 0.128783 0.587657
1153 2 0.131106 0.127084 0.585839
1032 4 0.246879 0.0796594 0.564479
1151 4 0.232088 0.0897789 0.556476
1180 2 0.216149 0.128386 0.552499
1181 4 0.222836 0.107022 0.563636
1182 4 0.209462 0.14975 0.541362
900 4 0.221236 0.165869 0.541038
576 4 0.416141 0.169257 0.511859
843 4 0.346757 0.0853957 0.494797
1198 2 0.00682986 0.232581 0.547942
1199 4 0.0269852 0.222503 0.558777
1244 4 0.0431266 0.243411 0.583298
878 4 0.0350391 0.226219 0.576739
877 2 0.0479915 0.205093 0.580075
695 4 0.0939836 0.214451 0.522453
898 2 0.24006 0.180705 0.533914
650 4 0.267891 0.205999 0.511752
899 4 0.258883 0.195542 0.52679
649 2 0.280606 0.223256 0.524625
651 4 0.29332 0.240513 0.537498
267 4 0.359923 0.245207 0.531691
1243 2 0.0353195 0.266046 0.590502
948 4 0.16218 0.272066 0.58024
856 2 0.199956 0.257371 0.513621
857 4 0.20163 0.267996 0.536193
798 4 0.22155 0.268516 0.566881
947 4 0.205387 0.264962 0.556086
946 2 0.183784 0.268514 0.568163
796 2 0.235194 0.27681 0.586122
792 4 0.303362 0.32082 0.586632
872 4 0.341422 0.288551 0.592664
2457 4 0.492106 0.29411 0.515129
1010 4 0.494755 0.313362 0.521156
1009 2 0.480225 0.319652 0.501805
2455 2 0.501062 0.270798 0.513907
803 4 0.258928 0.373627 0.572266
804 4 0.278795 0.37656 0.526469
802 2 0.268861 0.375094 0.549368
928 2 0.347973 0.391506 0.57518
929 4 0.356064 0.399574 0.55294
881 4 0.367409 0.395748 0.534606
880 2 0.379029 0.378182 0.521131
1011 4 0.465694 0.325942 0.482453
1002 4 0.456533 0.409241 0.584123
540 4 0.100287 0.469598 0.565251
2244 4 0.0967166 0.487631 0.565077
1160 4 0.113968 0.481155 0.573119
1159 2 0.13373 0.480864 0.588434
2154 4 0.217714 0.481873 0.54399
2152 2 0.232625 0.500089 0.552416
1953 4 0.411172 0.520592 0.544213
1910 4 0.427028 0.511734 0.551491
1909 2 0.440718 0.492558 0.559858
1000 2 0.459661 0.433835 0.580872
1911 4 0.454408 0.473381 0.568226
1001 4 0.462789 0.458428 0.57762
1081 2 0.0659697 0.0641052 0.639241
1082 4 0.0772113 0.0552416 0.659741
2114 4 0.00647649 0.000928211 0.615945
938 4 0.0718869 0.07833 0.611724
823 2 0.17458 0.0237688 0.67394
824 4 0.185835 0.00354967 0.66447
1031 4 0.280221 0.0531817 0.590708
951 4 0.287697 0.0405604 0.578391
1149 4 0.253317 0.040486 0.677806
3007 2 0.487352 0.052528 0.582068
3008 4 0.476361 0.0390678 0.600046
809 4 0.467944 0.0334118 0.617919
808 2 0.462473 0.0514271 0.634372
810 4 0.457002 0.0694423 0.650825
1083 4 0.0547281 0.0729688 0.618741
1127 4 0.0419877 0.0850154 0.612096
1126 2 0.0187277 0.0902146 0.604538
1271 4 0.0915031 0.133858 0.597197
939 4 0.0923526 0.116113 0.586144
937 2 0.0821198 0.0972213 0.598934
1270 2 0.0799633 0.155984 0.59877
1154 4 0.155985 0.125385 0.584021
1221 4 0.165721 0.116836 0.599968
1219 2 0.183988 0.131815 0.608159
1220 4 0.202255 0.146795 0.616351
1212 4 0.208593 0.162295 0.627682
1194 4 0.301111 0.144164 0.659648
1192 2 0.319481 0.134525 0.645691
1193 4 0.337851 0.124885 0.631734
45 3 0.456289 0.0931145 0.649838
3424 2 0.492743 0.110135 0.668132
879 4 0.0609439 0.183968 0.58341
1272 4 0.0684234 0.178109 0.600344
1210 2 0.224302 0.174854 0.642537
1211 4 0.240011 0.187414 0.657391
886 2 0.276189 0.167167 0.66229
888 4 0.25833 0.180242 0.65066
1245 4 0.0275124 0.28868 0.597707
982 2 0.9967 0.311055 0.591652
983 4 0.00982711 0.294206 0.60465
1136 4 0.152602 0.289833 0.577643
1135 2 0.156997 0.312525 0.58718
822 4 0.159799 0.304908 0.648875
1064 4 0.156742 0.323202 0.656224
820 2 0.15477 0.283335 0.660473
797 4 0.248838 0.285103 0.605364
791 4 0.265754 0.289386 0.596541
790 2 0.284558 0.305103 0.591587
1238 4 0.296339 0.333687 0.601742
871 2 0.359582 0.304113 0.59996
813 4 0.395941 0.319608 0.599685
873 4 0.377741 0.319675 0.607256
953 4 0.514097 0.303509 0.593041
1041 4 0.0622868 0.385634 0.646236
3264 4 0.0450956 0.376472 0.652581
3240 4 0.0322852 0.387076 0.664018
3238 2 0.016114 0.402658 0.653024
1039 2 0.0803539 0.388001 0.629114
1137 4 0.161392 0.335217 0.596717
1040 4 0.098421 0.390368 0.611993
993 4 0.116793 0.384396 0.609539
991 2 0.13209 0.364842 0.606571
992 4 0.147388 0.345288 0.603603
897 4 0.163471 0.35184 0.609486
1063 2 0.171989 0.341372 0.664133
1189 2 0.239485 0.371571 0.598642
896 4 0.20989 0.370368 0.611114
895 2 0.186681 0.361104 0.6103
1172 4 0.222406 0.404134 0.606175
1191 4 0.223117 0.384803 0.612139
930 4 0.339882 0.383437 0.59742
1190 4 0.255853 0.358338 0.585145
1239 4 0.321868 0.375356 0.591128
1237 2 0.309104 0.354522 0.596435
811 2 0.404963 0.342197 0.593895
1204 2 0.372963 0.380593 0.62384
1205 4 0.35016 0.381862 0.634019
1206 4 0.395766 0.379324 0.613662
927 4 0.412043 0.376946 0.603197
812 4 0.413985 0.364785 0.588104
926 4 0.458029 0.395984 0.598344
925 2 0.435036 0.386465 0.60077
539 4 0.0679436 0.441927 0.591499
538 2 0.0841152 0.455762 0.578375
3239 4 0.999943 0.418239 0.64203
1161 4 0.153492 0.480572 0.603748
1188 4 0.164684 0.486382 0.618771
1171 2 0.222496 0.429134 0.606577
1186 2 0.187488 0.476344 0.616668
1173 4 0.222587 0.454135 0.606979
1187 4 0.210291 0.466306 0.614566
891 4 0.333001 0.500947 0.612128
1099 2 0.446062 0.489814 0.660752
1269 4 0.46136 0.474807 0.58713
1267 2 0.465774 0.485463 0.609314
1268 4 0.470189 0.49612 0.631498
945 4 0.0560619 0.00603141 0.683678
943 2 0.0566802 0.0310264 0.683457
944 4 0.0572984 0.0560213 0.683235
1076 4 0.0702629 0.0692157 0.672383
1075 2 0.0716292 0.0836816 0.692731
825 4 0.163324 0.0439879 0.68341
1283 4 0.147064 0.0540166 0.679487
1282 2 0.151471 0.0722683 0.695999
1090 2 0.313085 0.998754 0.708785
1147 2 0.248554 0.0638803 0.670376
1092 4 0.31035 0.0150022 0.689979
1004 4 0.316459 0.0661242 0.739909
1148 4 0.243791 0.0872746 0.662947
42 3 0.448037 0.0624796 0.669492
1163 4 0.461747 0.0707534 0.686375
1162 2 0.477514 0.0576395 0.700679
1111 2 0.451302 0.0885724 0.750797
1164 4 0.493281 0.0445256 0.714983
864 4 0.0656209 0.0901627 0.731207
1077 4 0.0729955 0.0981474 0.71308
1107 4 0.0793453 0.103441 0.730093
851 4 0.0752376 0.117198 0.717074
862 2 0.0446252 0.0864453 0.744266
850 2 0.0772714 0.138938 0.704891
852 4 0.0793051 0.160678 0.692709
1284 4 0.155878 0.09052 0.71251
1105 2 0.0954072 0.109018 0.748425
909 4 0.169651 0.103694 0.716462
907 2 0.18878 0.112915 0.703263
908 4 0.207909 0.122136 0.690063
1227 4 0.219401 0.135893 0.681383
1225 2 0.237068 0.11852 0.678033
887 4 0.294049 0.154092 0.67392
1226 4 0.254735 0.101146 0.674684
829 2 0.305715 0.138553 0.708832
1005 4 0.331482 0.1095 0.720071
1003 2 0.32397 0.0878123 0.72999
830 4 0.296068 0.157245 0.695314
831 4 0.315361 0.119862 0.72235
3425 4 0.471112 0.0975982 0.667826
41 1 0.448332 0.0854794 0.669763
43 3 0.426721 0.0932194 0.673148
44 3 0.462093 0.0926009 0.687036
1113 4 0.442817 0.105474 0.734441
1177 2 0.0116717 0.253723 0.721912
1073 4 0.0731259 0.221314 0.743038
1072 2 0.0940899 0.234829 0.744783
1130 4 0.132887 0.241308 0.745534
978 4 0.307644 0.19634 0.723432
976 2 0.298037 0.203432 0.745399
1025 4 0.417372 0.186306 0.680334
1024 2 0.431242 0.186935 0.701128
1142 4 0.447733 0.180159 0.738853
1144 2 0.484375 0.175164 0.729339
1262 4 0.455173 0.203384 0.719504
1026 4 0.445113 0.187564 0.721922
1261 2 0.463939 0.22677 0.718311
1145 4 0.461773 0.184551 0.724223
1179 4 0.0334066 0.265649 0.725158
1074 4 0.115054 0.248344 0.746528
1208 4 0.12582 0.255097 0.732124
1209 4 0.150668 0.268712 0.690918
1207 2 0.138244 0.261904 0.711521
821 4 0.149741 0.261763 0.672071
1019 4 0.352879 0.312107 0.708305
1018 2 0.36375 0.328933 0.693342
3123 4 0.476353 0.272378 0.663764
1263 4 0.472705 0.250156 0.717117
3121 2 0.500794 0.276465 0.667093
892 2 0.0248351 0.332327 0.725776
3262 2 0.0543785 0.359387 0.668301
3263 4 0.0636614 0.342302 0.684021
1279 2 0.0431335 0.38833 0.740275
1281 4 0.0397899 0.413 0.737948
894 4 0.0429318 0.349072 0.729938
1065 4 0.187236 0.359542 0.672043
807 4 0.200748 0.345697 0.675516
1028 4 0.215662 0.387576 0.703614
1066 2 0.197762 0.369928 0.734063
1068 4 0.214722 0.371946 0.715802
1027 2 0.233737 0.400037 0.691647
805 2 0.22441 0.345934 0.683592
1067 4 0.180803 0.36791 0.752324
806 4 0.248072 0.346172 0.691668
1020 4 0.37462 0.345758 0.678378
1983 4 0.0522191 0.425231 0.74765
1981 2 0.0698141 0.438219 0.735529
1982 4 0.0874092 0.451206 0.723408
2172 4 0.12478 0.48005 0.672803
2016 4 0.159461 0.484163 0.741986
1029 4 0.251811 0.412499 0.67968
1175 4 0.184538 0.433463 0.709578
1174 2 0.180162 0.453341 0.7241
1176 4 0.175785 0.473218 0.738623
1140 4 0.242074 0.430616 0.679225
1138 2 0.261358 0.446416 0.681132
1139 4 0.280643 0.462216 0.683039
1987 2 0.288397 0.467269 0.73248
1229 4 0.298629 0.470564 0.687714
1989 4 0.295364 0.468942 0.708525
2028 4 0.28456 0.476229 0.69499
1228 2 0.318571 0.456105 0.68342
1230 4 0.338513 0.441647 0.679125
1100 4 0.428551 0.477046 0.673224
2991 4 0.0010854 0.0333269 0.784107
2989 2 0.00527226 0.0568446 0.77672
2990 4 0.00945911 0.0803623 0.769333
2049 4 0.11941 0.0224106 0.787069
1202 4 0.122872 0.0375962 0.774412
2047 2 0.129267 0.00232958 0.775899
1201 2 0.127325 0.0615125 0.780188
1203 4 0.131778 0.0854288 0.785964
817 2 0.324555 0.0487254 0.818342
1085 4 0.318676 0.0918911 0.816558
819 4 0.319343 0.0726977 0.823174
1050 4 0.337696 0.0094949 0.78252
818 4 0.329766 0.024753 0.81351
974 4 0.343056 0.0144234 0.802464
2322 4 0.487736 0.0543698 0.775996
845 4 0.474772 0.0701351 0.780429
1112 4 0.459787 0.0716705 0.767152
844 2 0.484727 0.0685513 0.80331
2320 2 0.49524 0.0476663 0.753106
833 4 0.0227163 0.0939457 0.774061
832 2 0.0258812 0.111063 0.79201
863 4 0.0236296 0.0827279 0.757325
1125 4 0.0409744 0.134059 0.822978
834 4 0.0290461 0.128181 0.809959
3083 4 0.0112012 0.0968663 0.758864
1106 4 0.111469 0.114596 0.766758
911 4 0.125094 0.105865 0.819395
34 3 0.127626 0.105898 0.775055
31 1 0.13611 0.110559 0.796143
35 3 0.122014 0.124567 0.807268
32 3 0.138063 0.0908782 0.80789
33 3 0.157091 0.12029 0.794268
1255 2 0.24614 0.107909 0.793215
1256 4 0.226858 0.103268 0.808441
840 4 0.233181 0.109873 0.8261
1257 4 0.265422 0.112549 0.777988
1084 2 0.300502 0.0978308 0.800446
1086 4 0.282328 0.10377 0.784334
1023 4 0.400912 0.151594 0.817989
1021 2 0.378782 0.139967 0.818502
1022 4 0.356653 0.12834 0.819015
1052 4 0.413559 0.141241 0.829549
846 4 0.494683 0.0669675 0.826192
1129 2 0.151856 0.240725 0.761813
1277 4 0.189938 0.235175 0.782079