ITEM: TIMESTEP
2080000
ITEM: NUMBER OF ATOMS
4590
ITEM: BOX BOUNDS pp pp pp
-9.9985700000000008e+00 9.9985700000000008e+00
-9.9985700000000008e+00 9.9985700000000008e+00
-9.9985700000000008e+00 9.9985700000000008e+00
ITEM: ATOMS id type xs ys zs
463 2 0.0463924 0.0395611 0.0236189
465 4 0.0504648 0.057645 0.0403988
1667 4 0.0429242 0.0533184 0.0568331
701 4 0.0565169 0.0690715 0.0538959
590 4 0.0383283 0.0697616 0.0493904
464 4 0.04232 0.0214772 0.0068389
589 2 0.0165017 0.0814172 0.0457957
1666 2 0.0470394 0.0420744 0.0787834
994 2 0.130118 0.0182768 0.0137604
996 4 0.115307 0.00051597 0.00425408
995 4 0.144929 0.0360376 0.0232667
567 4 0.157836 0.0487881 0.028737
533 4 0.149268 0.0488163 0.0096683
565 2 0.173607 0.0644643 0.0401693
566 4 0.189379 0.0801405 0.0516015
490 2 0.35623 0.0198853 0.014235
491 4 0.364649 0.0307049 0.0351449
557 4 0.373395 0.0475509 0.0407611
296 4 0.379994 0.030645 0.0480911
295 2 0.372858 0.0259011 0.0715804
556 2 0.390429 0.0640487 0.032834
558 4 0.407463 0.0805466 0.0249069
746 4 0.424239 0.0720819 0.0288629
745 2 0.444422 0.0698492 0.0142742
747 4 0.464605 0.0676165 0.999686
700 2 0.0718519 0.0880606 0.048471
423 4 0.10504 0.11301 0.0480865
702 4 0.087187 0.10705 0.0430462
421 2 0.112248 0.117226 0.0245186
770 4 0.462333 0.144726 0.0244502
769 2 0.460275 0.150593 0.0486682
771 4 0.458217 0.156461 0.0728863
1013 4 0.464767 0.145855 0.00581372
827 4 0.447529 0.151747 0.0147054
629 4 0.439373 0.157635 0.0804451
554 4 0.0795173 0.203399 0.0433431
553 2 0.0830475 0.216788 0.0225234
572 4 0.329742 0.246598 0.0698242
665 4 0.347611 0.209127 0.0173957
664 2 0.344066 0.22524 0.0361832
666 4 0.340521 0.241354 0.0549707
293 4 0.137551 0.33464 0.010154
355 2 0.227236 0.287732 0.0185925
357 4 0.232438 0.300801 0.0392642
483 4 0.184031 0.33434 0.0742347
460 2 0.371366 0.259156 0.0716545
461 4 0.347017 0.253844 0.0696339
324 4 0.413468 0.270626 0.0773855
956 4 0.385676 0.316811 0.00915873
462 4 0.395715 0.264469 0.0736751
1071 4 0.403458 0.326985 0.0104692
1069 2 0.419472 0.328564 0.0296062
322 2 0.423763 0.291956 0.0693723
1070 4 0.435487 0.330143 0.0487432
323 4 0.434059 0.313286 0.061359
282 4 0.494902 0.318462 0.0321411
280 2 0.472593 0.319006 0.0434178
281 4 0.450283 0.319549 0.0546946
671 4 0.442674 0.329656 0.0662155
552 4 0.0706744 0.377882 0.0246483
550 2 0.0519935 0.366713 0.0123409
551 4 0.0333126 0.355545 3.34084e-05
507 4 0.14195 0.346704 0.0240634
505 2 0.158082 0.346471 0.0431657
288 4 0.122822 0.344672 0.0170245
287 4 0.0899201 0.382056 0.0215581
286 2 0.106371 0.363364 0.0192913
315 4 0.0858299 0.419765 0.0414938
506 4 0.174213 0.346238 0.0622681
523 2 0.289515 0.389569 0.0802072
525 4 0.30976 0.385502 0.0661084
608 4 0.326942 0.377105 0.068332
252 4 0.319422 0.38076 0.0499137
251 4 0.351634 0.380445 0.0116639
250 2 0.335528 0.380603 0.0307888
313 2 0.067587 0.429972 0.0552119
314 4 0.0493441 0.440179 0.06893
795 4 0.150573 0.491745 0.0181006
793 2 0.165641 0.501689 0.0353992
1224 4 0.134311 0.482271 0.011448
243 4 0.230134 0.483741 0.0731433
245 4 0.247418 0.48714 0.0645503
244 2 0.267091 0.498139 0.0537256
37 3 0.38604 0.453808 0.997753
562 2 0.488942 0.46981 0.0527085
564 4 0.475515 0.460742 0.0717518
1806 4 0.0687259 0.0315856 0.108308
1421 4 0.0519354 0.0354395 0.117144
1668 4 0.0511546 0.0308305 0.100734
1420 2 0.0376763 0.0444508 0.1356
1416 4 0.0573358 0.016742 0.111866
1422 4 0.0234172 0.053462 0.154057
2480 4 0.0113396 0.0592995 0.16867
19 3 0.0275411 0.0594107 0.1694
1804 2 0.0930155 0.0359742 0.1123
1805 4 0.117305 0.0403628 0.116292
1474 2 0.222322 0.0276793 0.0857782
1475 4 0.242355 0.0422262 0.0892768
690 4 0.238912 0.0394625 0.146939
688 2 0.231781 0.059215 0.160509
1476 4 0.202289 0.0131324 0.0822796
652 2 0.310513 0.0796692 0.138239
653 4 0.301889 0.0770436 0.114917
654 4 0.319137 0.0822948 0.161561
757 2 0.396839 0.0234469 0.159147
758 4 0.409991 0.0135802 0.140309
297 4 0.365721 0.0211571 0.0950696
235 2 0.144535 0.111145 0.155858
237 4 0.137122 0.120947 0.134082
737 4 0.15439 0.125029 0.126751
736 2 0.156326 0.144453 0.111125
1504 2 0.232642 0.115416 0.15669
285 4 0.233341 0.156123 0.145951
1506 4 0.239756 0.136175 0.144707
738 4 0.158262 0.163876 0.0954994
1505 4 0.225527 0.0946561 0.168674
476 4 0.0855954 0.174208 0.143875
475 2 0.0866699 0.195363 0.15716
477 4 0.0877444 0.216518 0.170445
283 2 0.244379 0.174728 0.133412
284 4 0.255417 0.193332 0.120874
354 4 0.255024 0.200688 0.101848
352 2 0.264689 0.223689 0.103497
253 2 0.413803 0.23379 0.0965073
254 4 0.420058 0.210753 0.103946
630 4 0.435275 0.200353 0.106117
628 2 0.437324 0.178994 0.0932811
481 2 0.187321 0.315244 0.0900371
535 2 0.198927 0.295899 0.144768
536 4 0.203467 0.299965 0.120518
482 4 0.190611 0.296149 0.105839
571 2 0.309804 0.251055 0.0842386
353 4 0.274353 0.24669 0.105147
573 4 0.289865 0.255511 0.0986529
754 2 0.28538 0.27776 0.133378
755 4 0.278806 0.2629 0.114374
756 4 0.291954 0.29262 0.152381
610 2 0.301665 0.329641 0.166252
612 4 0.288957 0.308446 0.162447
255 4 0.407548 0.256828 0.0890683
622 2 0.36259 0.315708 0.116838
624 4 0.362744 0.290913 0.120059
765 4 0.36483 0.289943 0.138662
763 2 0.357232 0.280309 0.160448
2650 2 0.498709 0.304175 0.103835
2652 4 0.483369 0.323267 0.108871
620 4 0.0205502 0.358399 0.158001
619 2 0.0164271 0.368164 0.135356
621 4 0.012304 0.377929 0.11271
454 2 0.124925 0.405899 0.146763
456 4 0.141106 0.387212 0.143003
626 4 0.25901 0.405696 0.104801
524 4 0.269271 0.393637 0.0943061
387 4 0.331331 0.361715 0.16543
607 2 0.340846 0.364899 0.0851508
623 4 0.362436 0.340503 0.113618
385 2 0.340847 0.359529 0.142412
609 4 0.35475 0.352692 0.10197
740 4 0.369136 0.355492 0.116699
386 4 0.350363 0.357343 0.119393
739 2 0.392933 0.361818 0.112359
670 2 0.436262 0.346381 0.0836615
528 4 0.491678 0.334073 0.124142
741 4 0.416731 0.368144 0.108018
13 3 0.427307 0.36242 0.153342
672 4 0.42985 0.363105 0.101107
15 3 0.426019 0.398361 0.142198
11 1 0.436786 0.378472 0.139526
526 2 0.483952 0.353946 0.137202
12 3 0.434727 0.37162 0.117664
14 3 0.45931 0.380928 0.144528
495 4 0.477006 0.388492 0.152964
493 2 0.479576 0.41125 0.142932
527 4 0.476225 0.373818 0.150262
597 4 0.490173 0.380649 0.163593
645 4 0.471327 0.378875 0.165927
1788 4 0.0189762 0.471617 0.113353
1787 4 0.0532162 0.446628 0.086822
1786 2 0.0360962 0.459123 0.100087
1466 4 0.0163931 0.482611 0.12885
1791 4 0.0232192 0.489772 0.111245
455 4 0.108745 0.424587 0.150524
1440 4 0.247336 0.483208 0.0832889
627 4 0.244396 0.451543 0.118409
625 2 0.251703 0.428619 0.111605
1438 2 0.256957 0.485393 0.106264
639 4 0.272662 0.475238 0.142444
637 2 0.272908 0.453996 0.15563
1439 4 0.266579 0.487577 0.129238
1559 4 0.271519 0.495565 0.145739
494 4 0.482146 0.434008 0.132899
20 3 0.0426379 0.0434722 0.199989
16 1 0.0390797 0.0631948 0.189172
675 4 0.0619075 0.0446809 0.203545
17 3 0.0593467 0.0728827 0.184217
673 2 0.0770835 0.0265329 0.211639
674 4 0.0922596 0.00838479 0.219733
450 4 0.138345 0.0321545 0.179003
448 2 0.142672 0.0567222 0.177304
449 4 0.146998 0.0812898 0.175604
689 4 0.224649 0.0789675 0.17408
582 4 0.318034 0.0800545 0.181676
580 2 0.295554 0.0748455 0.191305
581 4 0.273075 0.0696365 0.200935
30 3 0.254485 0.071218 0.207079
1496 4 0.399771 0.00300039 0.237885
311 4 0.33256 0.0717827 0.171629
759 4 0.383687 0.0333136 0.177985
310 2 0.353729 0.0590709 0.175562
22 3 0.365772 0.0356378 0.231449
312 4 0.374898 0.0463591 0.179495
25 3 0.376481 0.0339071 0.195739
21 1 0.383767 0.0333258 0.217308
24 3 0.394134 0.0130191 0.221618
23 3 0.398597 0.0507584 0.221128
744 4 0.413709 0.0616461 0.226325
742 2 0.435777 0.0677487 0.236372
743 4 0.457845 0.0738513 0.246418
18 3 0.0269974 0.0776094 0.20276
511 2 0.00650092 0.148429 0.231612
513 4 0.0290005 0.158551 0.235673
578 4 0.0457881 0.147625 0.238013
236 4 0.151947 0.101343 0.177633
723 4 0.14644 0.0890582 0.190773
721 2 0.146916 0.10229 0.211984
722 4 0.147392 0.115521 0.233194
546 4 0.159723 0.131084 0.230142
693 4 0.163482 0.0888206 0.18
28 3 0.226261 0.08751 0.188221
26 1 0.239598 0.0884523 0.207185
27 3 0.226189 0.0867664 0.225799
692 4 0.213091 0.0948124 0.178049
691 2 0.188286 0.0918165 0.179024
29 3 0.250923 0.108692 0.207907
750 4 0.0707109 0.248585 0.177604
339 4 0.087184 0.236288 0.172941
337 2 0.111069 0.241734 0.177943
338 4 0.134955 0.24718 0.182944
363 4 0.151802 0.244327 0.19258
333 4 0.457666 0.172317 0.217695
331 2 0.465483 0.178691 0.240574
703 2 0.0186948 0.324539 0.180261
395 4 0.0341853 0.279207 0.22441
749 4 0.0509823 0.275704 0.2147
748 2 0.0608466 0.262145 0.196152
704 4 0.0179426 0.300255 0.186168
394 2 0.0177023 0.284542 0.242439
300 4 0.120937 0.318129 0.250242
361 2 0.165777 0.263845 0.185585
537 4 0.194388 0.291833 0.169017
362 4 0.179752 0.283363 0.17859
372 4 0.198781 0.283788 0.185413
370 2 0.22153 0.274331 0.189683
371 4 0.244279 0.264875 0.193954
278 4 0.29024 0.28919 0.171111
279 4 0.26186 0.261822 0.201872
277 2 0.27605 0.275506 0.186492
344 4 0.273491 0.324492 0.225368
343 2 0.293849 0.316139 0.237239
345 4 0.314208 0.307786 0.24911
308 4 0.329255 0.295648 0.243737
307 2 0.33634 0.286413 0.221608
764 4 0.349635 0.270675 0.182234
309 4 0.343425 0.277179 0.199478
2692 2 4.1358e-05 0.384408 0.244051
705 4 0.019447 0.348823 0.174354
648 4 0.0289741 0.365263 0.175166
2694 4 0.0121405 0.399689 0.228389
647 4 0.0251889 0.399482 0.211435
646 2 0.0270815 0.382373 0.193301
603 4 0.0270099 0.410723 0.226221
768 4 0.227616 0.406852 0.211508
290 4 0.212656 0.417541 0.218517
611 4 0.314373 0.350836 0.170056
302 4 0.330598 0.349472 0.179615
729 4 0.317191 0.368603 0.237491
301 2 0.330129 0.361925 0.201292
303 4 0.329659 0.374379 0.222968
614 4 0.378135 0.343561 0.243899
446 4 0.39618 0.340312 0.235768
445 2 0.414338 0.349356 0.221151
447 4 0.432496 0.358401 0.206534
643 2 0.461891 0.368484 0.186619
644 4 0.452455 0.358092 0.207311
263 4 0.0657631 0.46318 0.227606
601 2 0.0448779 0.427723 0.22211
602 4 0.0627458 0.444723 0.217998
262 2 0.0750653 0.486241 0.224984
417 4 0.145658 0.503278 0.179352
415 2 0.15449 0.482113 0.189313
416 4 0.163323 0.460948 0.199274
413 4 0.155936 0.452066 0.214917
412 2 0.145605 0.456703 0.237209
291 4 0.174217 0.447738 0.207963
289 2 0.193436 0.432639 0.21324
766 2 0.241519 0.415224 0.192487
638 4 0.273154 0.432753 0.168816
767 4 0.255421 0.423596 0.173466
660 4 0.322225 0.427413 0.197908
658 2 0.34031 0.427325 0.215173
659 4 0.358396 0.427236 0.232438
1799 4 0.0156432 0.997137 0.259908
1404 4 0.0183517 0.0170181 0.257412
233 4 0.0146905 0.0501456 0.308653
1402 2 0.0207552 0.0348284 0.274796
1403 4 0.0231587 0.0526387 0.29218
317 4 0.024604 0.0670512 0.300697
530 4 0.00653566 0.0617918 0.30053
1701 4 0.20507 0.00892799 0.335282
1747 2 0.487931 0.00340665 0.314192
479 4 0.428298 0.0514857 0.327259
1749 4 0.489863 0.0281078 0.317553
480 4 0.475561 0.0400355 0.315605
478 2 0.451929 0.0457606 0.321432
2643 4 0.485803 0.0388124 0.33309
577 2 0.0523698 0.13408 0.257973
316 2 0.0404597 0.084357 0.292079
318 4 0.0563153 0.101663 0.28346
397 2 0.0529996 0.134144 0.313058
579 4 0.0589516 0.120535 0.277933
398 4 0.0570959 0.117668 0.294703
731 4 0.0716516 0.108322 0.286669
399 4 0.0489034 0.150621 0.331413
544 2 0.166813 0.131979 0.254103
732 4 0.117151 0.0920486 0.299541
600 4 0.134583 0.0936845 0.311036
730 2 0.0944013 0.100186 0.293105
598 2 0.153225 0.103836 0.297822
599 4 0.171867 0.113987 0.284608
545 4 0.173904 0.132873 0.278063
392 4 0.18827 0.123371 0.287092
391 2 0.207674 0.131481 0.300615
393 4 0.227079 0.139591 0.314138
247 2 0.315922 0.117074 0.303255
249 4 0.296841 0.118067 0.319384
404 4 0.290043 0.123245 0.336396
683 4 0.29938 0.106466 0.335673
248 4 0.335002 0.116081 0.287127
633 4 0.393157 0.146874 0.300693
707 4 0.379515 0.134061 0.308131
706 2 0.361275 0.143545 0.322363
631 2 0.415334 0.135342 0.300098
351 4 0.460241 0.0925759 0.251397
632 4 0.437511 0.123809 0.299503
349 2 0.457891 0.107821 0.271076
350 4 0.45554 0.123065 0.290754
452 4 0.452952 0.116699 0.308357
451 2 0.461978 0.130144 0.327408
444 4 0.0108247 0.24467 0.30349
2655 4 0.00965037 0.238444 0.321548
687 4 0.171908 0.184508 0.325192
332 4 0.4733 0.185065 0.263453
521 4 0.478486 0.198569 0.275291
762 4 0.459064 0.190918 0.273454
760 2 0.449469 0.206033 0.290909
761 4 0.439874 0.221148 0.308363
419 4 0.446155 0.237021 0.318737
396 4 0.00121921 0.289877 0.260467
442 2 0.00200715 0.263482 0.289578
298 2 0.119066 0.309473 0.273625
733 2 0.148521 0.316768 0.322874
734 4 0.129594 0.313371 0.306892
299 4 0.117195 0.300817 0.297007
400 2 0.214496 0.292871 0.324451
401 4 0.193105 0.296976 0.312173
498 4 0.315175 0.274118 0.304492
377 4 0.29777 0.272194 0.313657
496 2 0.320154 0.286122 0.283131
497 4 0.325134 0.298126 0.26177
376 2 0.276443 0.279533 0.324449
543 4 0.404536 0.315477 0.290163
615 4 0.397006 0.333794 0.289167
541 2 0.428059 0.31579 0.298634
542 4 0.451581 0.316102 0.307106
2536 2 0.486537 0.32553 0.283797
2538 4 0.468344 0.321397 0.300444
2924 4 0.468283 0.317201 0.318821
727 2 0.317719 0.386274 0.255173
728 4 0.318248 0.403944 0.272855
434 4 0.305258 0.395424 0.287457
433 2 0.298722 0.387575 0.31028
435 4 0.292187 0.379727 0.333102
613 2 0.38757 0.338678 0.266533
549 4 0.0366438 0.462091 0.326424
547 2 0.0611328 0.457672 0.323988
548 4 0.0856219 0.453253 0.321551
777 4 0.12836 0.445498 0.268823
775 2 0.114311 0.447221 0.289435
414 4 0.135274 0.461341 0.259502
776 4 0.100262 0.448944 0.310047
407 4 0.0969828 0.442979 0.32927
500 4 0.103573 0.460423 0.325124
436 2 0.316435 0.480765 0.275456
438 4 0.314752 0.489555 0.298803
3 3 0.332935 0.487221 0.308926
437 4 0.318117 0.471975 0.252109
4 3 0.365502 0.468764 0.315493
1 1 0.347139 0.478989 0.325324
232 2 0.0244532 0.0500348 0.331672
234 4 0.0342159 0.0499241 0.354691
368 4 0.0807223 0.0542136 0.362705
369 4 0.0907815 0.0753407 0.4069
1780 2 0.0846928 0.0126892 0.362492
1781 4 0.0872914 0.036902 0.35682
367 2 0.0857519 0.0647771 0.384802
319 2 0.225723 0.0804998 0.371999
320 4 0.242158 0.0820415 0.353219
441 4 0.283871 0.0165505 0.373707
684 4 0.261837 0.076929 0.350469
698 4 0.377467 0.00760572 0.365589
257 4 0.390036 0.0218276 0.370322
256 2 0.397353 0.0287813 0.393197
576 4 0.390136 0.0780836 0.405642
458 4 0.999457 0.158983 0.358429
459 4 0.0393774 0.128935 0.360491
457 2 0.0194174 0.143959 0.35946
321 4 0.209289 0.078958 0.39078
403 2 0.283536 0.147373 0.33722
682 2 0.280608 0.0916973 0.343071
708 4 0.343036 0.15303 0.336594
574 2 0.409301 0.0939439 0.403129
575 4 0.428466 0.109804 0.400615
453 4 0.471004 0.143589 0.346459
514 2 0.452362 0.122811 0.38098
515 4 0.456118 0.134705 0.359309
516 4 0.448606 0.110918 0.402651
2653 2 0.00955328 0.241469 0.346367
388 2 0.0233977 0.228283 0.403331
389 4 0.0417683 0.220405 0.418352
390 4 0.00502711 0.23616 0.388309
685 2 0.167439 0.201062 0.343389
686 4 0.162971 0.217617 0.361587
275 4 0.223825 0.249001 0.383796
405 4 0.277029 0.171501 0.338043
474 4 0.278377 0.184492 0.353944
472 2 0.2767 0.19637 0.375882
473 4 0.275023 0.208247 0.39782
489 4 0.272256 0.222217 0.410198
410 4 0.280591 0.203993 0.415001
487 2 0.270871 0.246603 0.415544
418 2 0.42984 0.245221 0.335819
268 2 0.419236 0.237662 0.389025
270 4 0.425404 0.220213 0.405837
306 4 0.434885 0.205412 0.414818
2654 4 0.0094562 0.244494 0.371187
346 2 0.0486591 0.321562 0.384757
348 4 0.0406159 0.303238 0.399748
735 4 0.167447 0.320166 0.338856
402 4 0.235887 0.288767 0.336729
677 4 0.174132 0.325992 0.35604
276 4 0.246646 0.278857 0.350803
676 2 0.181529 0.315162 0.377328
678 4 0.188926 0.304333 0.398616
274 2 0.235236 0.263929 0.367299
375 4 0.196803 0.311702 0.415082
510 4 0.245113 0.297713 0.347983
378 4 0.255116 0.286872 0.335241
508 2 0.25071 0.321127 0.354739
269 4 0.413068 0.255111 0.372212
420 4 0.413524 0.25342 0.3529
716 4 0.388056 0.314024 0.349817
715 2 0.39908 0.292425 0.355912
717 4 0.410105 0.270827 0.362006
617 4 0.00763299 0.36471 0.337215
616 2 0.0292985 0.35464 0.344591
618 4 0.050964 0.344571 0.351966
326 4 0.0615752 0.357278 0.362857
347 4 0.0567023 0.339886 0.369767
325 2 0.077441 0.376576 0.363885
327 4 0.0933068 0.395873 0.364913
408 4 0.107062 0.410532 0.365963
509 4 0.256308 0.34454 0.361496
503 4 0.264269 0.359038 0.373206
502 2 0.275617 0.350739 0.393883
753 4 0.402797 0.37435 0.359491
587 4 0.386424 0.375536 0.348575
586 2 0.373409 0.392757 0.361193
588 4 0.360394 0.409978 0.373811
2923 2 0.466139 0.332243 0.338678
751 2 0.42672 0.367085 0.359804
561 4 0.461447 0.352653 0.376463
752 4 0.450642 0.359819 0.360117
559 2 0.480615 0.350622 0.392389
2925 4 0.463994 0.347285 0.358536
560 4 0.499783 0.34859 0.408315
2507 4 0.498727 0.366449 0.416856
2463 4 0.019533 0.454675 0.334073
1383 4 0.0291256 0.48517 0.380332
680 4 0.0442638 0.485812 0.392721
679 2 0.0380152 0.47111 0.411956
501 4 0.127331 0.499 0.34629
406 2 0.102022 0.426756 0.347616
499 2 0.115452 0.479712 0.335707
1557 4 0.187464 0.491618 0.41685
2 3 0.354451 0.496511 0.33831
714 4 0.41478 0.465448 0.339737
712 2 0.41374 0.441799 0.347788
669 4 0.330715 0.45417 0.354227
5 3 0.336029 0.464053 0.338445
667 2 0.346362 0.441328 0.368904
668 4 0.36201 0.428486 0.383581
713 4 0.4127 0.41815 0.35584
718 2 0.0650406 0.0580977 0.439008
720 4 0.0507764 0.0527319 0.45883
2236 2 0.0110451 0.044183 0.445126
2237 4 0.0307307 0.0473741 0.460209
1127 4 0.0393636 0.0592695 0.47226
1126 2 0.0501422 0.0609194 0.49476
719 4 0.0793048 0.0634636 0.419186
605 4 0.224885 0.00317065 0.451166
604 2 0.238052 0.0146102 0.469081
606 4 0.251219 0.0260498 0.486996
258 4 0.404671 0.0357349 0.416072
1579 2 0.380582 0.0295817 0.498571
1580 4 0.378707 0.0105417 0.482473
426 4 0.415001 0.030539 0.432675
424 2 0.43184 0.0463959 0.442172
425 4 0.448678 0.0622528 0.451669
642 4 0.48197 0.0743453 0.491865
259 2 0.048174 0.143182 0.496964
260 4 0.02922 0.136079 0.482285
466 2 0.303661 0.137535 0.444347
467 4 0.285528 0.15074 0.433301
468 4 0.321793 0.124331 0.455393
725 4 0.33827 0.118942 0.467301
724 2 0.335644 0.108417 0.489828
2880 4 0.467326 0.0814929 0.480905
2879 4 0.484656 0.120441 0.454762
2878 2 0.475991 0.100967 0.467834
411 4 0.279623 0.165035 0.44634
409 2 0.280107 0.184514 0.430671
872 4 0.342849 0.233254 0.490201
3157 2 0.477357 0.208275 0.481313
3159 4 0.459926 0.196856 0.467495
305 4 0.45375 0.182733 0.455197
304 2 0.444318 0.194073 0.435008
3158 4 0.494788 0.219694 0.495131
695 4 0.144899 0.250908 0.445753
694 2 0.141603 0.268958 0.462738
696 4 0.138307 0.287009 0.479723
10 3 0.13826 0.304963 0.488387
6 1 0.134122 0.326 0.480707
7 3 0.143603 0.328469 0.459895
9 3 0.11124 0.32944 0.478981
1260 4 0.153095 0.291702 0.488282
373 2 0.206249 0.298201 0.433888
374 4 0.215694 0.284699 0.452694
266 4 0.271692 0.283197 0.436774
265 2 0.282446 0.304947 0.430734
267 4 0.2932 0.326697 0.424693
488 4 0.269485 0.27099 0.42089
584 4 0.474635 0.277457 0.470257
2456 4 0.491612 0.272773 0.481655
583 2 0.454172 0.266217 0.461308
585 4 0.433709 0.254976 0.452359
568 2 0.0860714 0.385425 0.456126
569 4 0.0729448 0.402907 0.46826
384 4 0.0617377 0.415077 0.458732
539 4 0.0773793 0.421235 0.470137
983 4 0.0966827 0.342928 0.473793
570 4 0.0991981 0.367943 0.443992
8 3 0.143422 0.341652 0.495092
711 4 0.160945 0.349322 0.49041
982 2 0.0829615 0.343406 0.49469
709 2 0.184161 0.34761 0.481285
804 4 0.243794 0.401632 0.476059
710 4 0.207377 0.345897 0.47216
803 4 0.223836 0.355955 0.480058
802 2 0.233815 0.378793 0.478059
650 4 0.220634 0.33723 0.481857
504 4 0.286965 0.342441 0.41456
240 4 0.408235 0.382494 0.471202
334 2 0.378464 0.409826 0.467634
335 4 0.390875 0.389327 0.474772
238 2 0.428924 0.380775 0.485138
3307 2 0.485724 0.365514 0.493576
383 4 0.0254348 0.44771 0.447874
681 4 0.0317665 0.456408 0.431191
382 2 0.0435862 0.431394 0.453303
538 2 0.0963943 0.43085 0.483219
540 4 0.115409 0.440465 0.496302
636 4 0.187392 0.481043 0.433487
634 2 0.17794 0.470198 0.453937
635 4 0.168489 0.459354 0.474388
774 4 0.159664 0.467336 0.490704
1454 4 0.297729 0.456125 0.472493
882 4 0.310096 0.45696 0.456683
1453 2 0.298776 0.473012 0.490902
880 2 0.33439 0.451895 0.453632
881 4 0.358684 0.446829 0.450582
336 4 0.366053 0.430324 0.460495
1128 4 0.0609209 0.0625693 0.517261
939 4 0.0749856 0.0708944 0.531208
1057 2 0.145321 0.0630626 0.565365
1059 4 0.133616 0.0796722 0.550796
937 2 0.0966521 0.0804641 0.539218
1058 4 0.157027 0.0464529 0.579935
341 4 0.205176 0.00218993 0.540775
340 2 0.209488 0.0262616 0.535566
342 4 0.2138 0.0503333 0.530356
1182 4 0.229667 0.0610221 0.531631
1152 4 0.217596 0.0655043 0.518463
1150 2 0.200257 0.0820179 0.511261
961 2 0.292075 0.0648804 0.579935
963 4 0.285602 0.0821892 0.563091
1180 2 0.251611 0.0690323 0.540547
1181 4 0.273554 0.0770424 0.549464
431 4 0.322764 0.0816476 0.513044
842 4 0.382809 0.0625264 0.527182
841 2 0.360445 0.0736838 0.526444
1217 4 0.399586 0.0533857 0.526404
1581 4 0.382458 0.0486217 0.514668
89 3 0.398021 0.99852 0.575753
1216 2 0.422353 0.0566513 0.536209
1218 4 0.445121 0.0599168 0.546015
641 4 0.463361 0.0657583 0.537479
640 2 0.472665 0.0700518 0.514672
261 4 0.067128 0.150285 0.511643
1035 4 0.0754477 0.164143 0.52549
1033 2 0.0642084 0.162672 0.547776
1034 4 0.0529691 0.161201 0.570063
938 4 0.118319 0.0900339 0.547228
1155 4 0.137135 0.0960252 0.541531
1153 2 0.153488 0.104683 0.524714
1154 4 0.169841 0.113341 0.507898
1151 4 0.182919 0.0985315 0.504059
432 4 0.286979 0.0917439 0.546484
430 2 0.304871 0.0866958 0.529764
726 4 0.333018 0.0978921 0.512356
843 4 0.338081 0.0848412 0.525707
858 4 0.190257 0.193091 0.556948
857 4 0.234064 0.212695 0.570996
856 2 0.212161 0.202893 0.563972
898 2 0.385714 0.194185 0.547029
900 4 0.409501 0.193588 0.539349
899 4 0.361927 0.194783 0.55471
3064 2 0.483397 0.239174 0.528988
3066 4 0.49546 0.223102 0.51411
1258 2 0.166817 0.289793 0.509096
1259 4 0.18054 0.287885 0.52991
649 2 0.239707 0.328111 0.495208
651 4 0.258781 0.318992 0.508559
873 4 0.3305 0.266524 0.525433
811 2 0.290717 0.311566 0.513489
812 4 0.271794 0.325468 0.522082
1239 4 0.323669 0.302901 0.519098
813 4 0.309641 0.297664 0.504897
871 2 0.336674 0.249889 0.507817
1237 2 0.336923 0.29954 0.540031
952 2 0.38847 0.289448 0.576748
1238 4 0.350178 0.29618 0.560965
953 4 0.364796 0.296615 0.573092
792 4 0.347036 0.294315 0.580837
3065 4 0.471334 0.255245 0.543866
905 4 0.466693 0.264488 0.562464
904 2 0.4442 0.264033 0.573376
1136 4 0.0640293 0.353341 0.531948
984 4 0.0692403 0.343883 0.515586
1135 2 0.0791837 0.360949 0.550322
1137 4 0.0943382 0.368558 0.568697
896 4 0.139913 0.404978 0.547881
895 2 0.1229 0.393486 0.562152
1191 4 0.149291 0.394368 0.535576
1189 2 0.151015 0.374142 0.520976
1190 4 0.152738 0.353917 0.506377
1161 4 0.159952 0.400871 0.549235
897 4 0.105888 0.381994 0.576424
2243 4 0.152192 0.409918 0.534362
1159 2 0.182194 0.401871 0.560613
1160 4 0.204436 0.402871 0.571992
1001 4 0.411137 0.375703 0.566041
1000 2 0.38883 0.380393 0.576316
930 4 0.359465 0.403538 0.584689
1002 4 0.366523 0.385082 0.586592
925 2 0.443743 0.379204 0.539582
926 4 0.456905 0.382084 0.51852
3309 4 0.464287 0.373092 0.503978
927 4 0.43058 0.376325 0.560645
239 4 0.449612 0.379055 0.499074
663 4 0.459243 0.394007 0.504222
2242 2 0.139218 0.428253 0.523377
2244 4 0.126244 0.446588 0.512392
773 4 0.169667 0.498242 0.528723
772 2 0.164666 0.482789 0.509714
1171 2 0.288788 0.444559 0.574445
1172 4 0.312243 0.448538 0.566751
1455 4 0.299823 0.489899 0.509312
2153 4 0.280988 0.489475 0.517572
2152 2 0.258433 0.498634 0.523279
929 4 0.326834 0.44017 0.574994
891 4 0.323281 0.460666 0.576389
1173 4 0.265333 0.44058 0.582139
889 2 0.340054 0.478093 0.582725
928 2 0.34315 0.421854 0.579842
1909 2 0.389496 0.493875 0.565572
1910 4 0.409003 0.483955 0.55348
890 4 0.356827 0.49552 0.589062
1330 2 0.438647 0.467278 0.515574
1331 4 0.415866 0.471405 0.525016
661 2 0.462515 0.41875 0.50572
662 4 0.465787 0.443493 0.507218
1332 4 0.461429 0.463151 0.506133
2319 4 0.0365467 0.0300611 0.602006
2317 2 0.0380373 0.00571905 0.596491
945 4 0.0394242 0.0418313 0.616795
943 2 0.0270185 0.0605062 0.605725
944 4 0.0146127 0.079181 0.594656
2131 2 0.233291 0.00783962 0.656919
2132 4 0.256023 0.0110035 0.646997
949 2 0.27828 0.0307427 0.6298
962 4 0.298548 0.0475716 0.596778
950 4 0.291579 0.0326587 0.608714
2196 4 0.307612 0.0314422 0.597634
951 4 0.26498 0.0288266 0.650886
2194 2 0.327368 0.0176042 0.591046
1005 4 0.320983 0.0224928 0.641916
2195 4 0.347124 0.00376628 0.584459
1003 2 0.344178 0.0178248 0.650002
1004 4 0.367373 0.0131569 0.658088
90 3 0.384392 0.0103673 0.608791
1092 4 0.384486 0.0182035 0.651063
1090 2 0.407815 0.0097251 0.648047
2281 2 0.471656 0.00251257 0.6626
1091 4 0.431143 0.0012467 0.64503
2283 4 0.448486 0.00596195 0.653857
1083 4 0.00316256 0.0952002 0.589718
1272 4 0.0664492 0.166808 0.603428
879 4 0.0518314 0.16149 0.5894
877 2 0.0282464 0.168666 0.593575
1221 4 0.132834 0.15226 0.604808
1270 2 0.0913504 0.165092 0.601958
1219 2 0.153617 0.160813 0.615766
1271 4 0.116252 0.163375 0.600488
1283 4 0.177655 0.10481 0.641168
1031 4 0.242347 0.0915489 0.631072
1284 4 0.224561 0.102187 0.624029
1282 2 0.201108 0.103499 0.632598
1211 4 0.222993 0.155178 0.657931
1210 2 0.20021 0.163467 0.651815
909 4 0.171612 0.104166 0.661692
1030 2 0.26635 0.0984973 0.63023
1032 4 0.290354 0.105446 0.629389
810 4 0.453147 0.145035 0.637446
808 2 0.461316 0.136329 0.659415
878 4 0.00466139 0.175842 0.597751
1212 4 0.177427 0.171756 0.645699
1220 4 0.1744 0.169365 0.626725
796 2 0.173067 0.210074 0.639085
798 4 0.169958 0.185269 0.638606
797 4 0.176176 0.234879 0.639564
947 4 0.193344 0.244041 0.63563
1025 4 0.46886 0.211132 0.604771
1024 2 0.492288 0.21377 0.613097
1243 2 0.0413265 0.278658 0.643335
1244 4 0.0296049 0.290996 0.625017
3044 4 0.0208878 0.285068 0.608539
3043 2 0.0101956 0.264043 0.600243
948 4 0.212259 0.282788 0.6103
946 2 0.202801 0.263415 0.622965
791 4 0.314695 0.260498 0.59848
790 2 0.330866 0.277407 0.589659
954 4 0.412144 0.28228 0.580404
906 4 0.421708 0.263578 0.584287
1040 4 0.0774228 0.358923 0.630754
993 4 0.0727746 0.377714 0.637638
1039 2 0.0884931 0.36213 0.608565
3262 2 0.00429181 0.407412 0.641097
991 2 0.0666009 0.375722 0.661785
3263 4 0.0222587 0.406678 0.65847
1041 4 0.0995633 0.365336 0.586377
807 4 0.367811 0.40559 0.650759
805 2 0.365537 0.401037 0.626279
806 4 0.363263 0.396485 0.601799
1187 4 0.254089 0.448955 0.597323
1188 4 0.255574 0.424998 0.641193
1186 2 0.254831 0.436976 0.619258
1140 4 0.265941 0.427564 0.659882
1269 4 0.456486 0.431981 0.609053
1267 2 0.455377 0.443348 0.631296
1268 4 0.454268 0.454715 0.653538
2133 4 0.210559 0.00467575 0.66684
43 3 0.458888 0.0717825 0.672092
1162 2 0.490617 0.0492319 0.716557
1163 4 0.484278 0.0723779 0.709538
1164 4 0.496956 0.0260859 0.723576
2321 4 0.499293 0.0206775 0.74247
908 4 0.167201 0.0839954 0.707237
34 3 0.147611 0.147578 0.739882
907 2 0.169407 0.0940809 0.684464
1227 4 0.172523 0.0970528 0.721048
1225 2 0.181608 0.0902769 0.743336
888 4 0.237764 0.163336 0.669693
831 4 0.298668 0.137498 0.741769
1299 4 0.299857 0.119499 0.734019
1297 2 0.304559 0.107672 0.712497
1298 4 0.30926 0.0958445 0.690975
829 2 0.287421 0.157221 0.731295
1194 4 0.376604 0.169054 0.724158
809 4 0.469485 0.127623 0.681384
45 3 0.462136 0.109007 0.676723
42 3 0.474882 0.0858412 0.703063
41 1 0.458398 0.0892306 0.68738
44 3 0.437833 0.0897838 0.698112
3426 4 0.489761 0.0883645 0.697505
852 4 0.0286067 0.22503 0.728098
850 2 0.0415508 0.203819 0.730878
1208 4 0.0273327 0.234686 0.710221
1207 2 0.0407423 0.24193 0.6904
851 4 0.054495 0.182608 0.733658
1107 4 0.0728134 0.17348 0.735791
1178 4 0.0254002 0.24019 0.731416
3038 4 0.0142264 0.22834 0.722153
1215 4 0.0156496 0.227566 0.741986
1209 4 0.054152 0.249175 0.670579
1105 2 0.0960851 0.182515 0.737198
1106 4 0.119357 0.19155 0.738605
35 3 0.130883 0.179954 0.749348
1130 4 0.181933 0.188556 0.744548
1129 2 0.202967 0.20112 0.749537
1131 4 0.224001 0.213684 0.754527
886 2 0.256455 0.169043 0.685289
830 4 0.276175 0.176944 0.720821
887 4 0.275146 0.17475 0.700886
976 2 0.287215 0.214363 0.707889
978 4 0.275826 0.192147 0.709276
977 4 0.298604 0.236579 0.706502
1192 2 0.382572 0.18539 0.742122
1245 4 0.053048 0.26632 0.661653
814 2 0.0770803 0.299456 0.734555
1177 2 0.0352912 0.26073 0.741686
816 4 0.0637881 0.280844 0.744659
3275 4 0.0119393 0.298502 0.728491
815 4 0.0903724 0.318068 0.724451
941 4 0.144409 0.313358 0.686739
940 2 0.127185 0.316802 0.704533
942 4 0.109961 0.320247 0.722328
1067 4 0.159648 0.32354 0.690951
821 4 0.163552 0.305832 0.689491
820 2 0.171042 0.283489 0.697849
822 4 0.178532 0.261146 0.706207
918 4 0.313474 0.250504 0.705455
916 2 0.325271 0.256515 0.726666
893 4 0.0685068 0.368807 0.701941
1280 4 0.0558881 0.382024 0.705292
892 2 0.0835448 0.352299 0.713188
1279 2 0.0443163 0.401507 0.715859
992 4 0.0604273 0.37373 0.685933
894 4 0.0985828 0.33579 0.724436
1066 2 0.174026 0.343947 0.68954
1028 4 0.202968 0.366938 0.675581
1027 2 0.207061 0.391144 0.680325
1068 4 0.188405 0.364354 0.688129
1029 4 0.211154 0.415349 0.68507
1989 4 0.340881 0.423677 0.722771
1206 4 0.418784 0.408715 0.720569
3329 4 0.498359 0.400922 0.744419
1204 2 0.423572 0.384826 0.726186
1205 4 0.428361 0.360937 0.731803
1982 4 0.996828 0.456713 0.688817
1281 4 0.0327446 0.420991 0.726426
1983 4 0.0260395 0.439259 0.725461
1981 2 0.0114338 0.447986 0.707139
885 4 0.0418997 0.436295 0.735869
1139 4 0.224743 0.428089 0.688223
1138 2 0.245342 0.427826 0.674052
1987 2 0.331368 0.424073 0.745891
1230 4 0.406068 0.42436 0.716262
1228 2 0.381203 0.424892 0.713686
1229 4 0.356339 0.425424 0.71111
2169 4 0.410815 0.45519 0.703651
1100 4 0.465278 0.446462 0.666889
2168 4 0.448838 0.45781 0.671277
2167 2 0.429827 0.4565 0.687464
1099 2 0.485169 0.442699 0.681564
3135 4 0.0403878 0.0622111 0.835435
1202 4 0.130863 0.0251562 0.792549
1201 2 0.125968 0.0314542 0.816246
2049 4 0.132702 0.0114797 0.777774
1147 2 0.199624 0.0791024 0.798364
1257 4 0.23235 0.0804476 0.819137
1148 4 0.183944 0.0716807 0.780357
1149 4 0.215305 0.086524 0.81637
1226 4 0.190692 0.083501 0.765624
973 2 0.375053 0.00761947 0.768821
975 4 0.39459 0.0198225 0.778545
1113 4 0.404163 0.0280337 0.794506
818 4 0.385464 0.0839073 0.808845