ITEM: TIMESTEP
1740000
ITEM: NUMBER OF ATOMS
4590
ITEM: BOX BOUNDS pp pp pp
-9.9985700000000008e+00 9.9985700000000008e+00
-9.9985700000000008e+00 9.9985700000000008e+00
-9.9985700000000008e+00 9.9985700000000008e+00
ITEM: ATOMS id type xs ys zs
1666 2 0.0477817 0.0593104 0.0618436
1668 4 0.040751 0.0535635 0.0385473
1667 4 0.0548125 0.0650574 0.08514
3289 2 0.0399892 0.985877 0.012373
747 4 0.464458 0.0633054 0.99025
2974 2 0.471731 0.0274586 0.0165844
2975 4 0.465492 0.0467329 0.00193003
745 2 0.452617 0.0783765 0.00630666
2976 4 0.477971 0.00818432 0.0312387
566 4 0.196021 0.150402 0.0366716
2264 4 0.276298 0.153905 0.00521206
297 4 0.330866 0.118974 0.0427288
295 2 0.346313 0.110534 0.0249708
556 2 0.399345 0.104005 0.00853649
769 2 0.40808 0.167389 0.0010887
557 4 0.376871 0.113192 0.0025612
771 4 0.424059 0.160172 0.983263
558 4 0.421819 0.0948189 0.0145118
746 4 0.440775 0.0934477 0.0223635
565 2 0.211933 0.168084 0.0289681
567 4 0.227844 0.185767 0.0212646
1133 4 0.225268 0.182678 0.00108391
360 4 0.326717 0.170229 0.031903
358 2 0.351507 0.173488 0.0320918
770 4 0.392101 0.174606 0.0189146
359 4 0.376296 0.176748 0.0322805
664 2 0.397991 0.203152 0.0512383
665 4 0.39314 0.18499 0.0347525
666 4 0.402842 0.221314 0.0677241
323 4 0.416696 0.234319 0.0680162
623 4 0.398852 0.23745 0.076779
555 4 0.052835 0.287542 0.0272669
553 2 0.0576002 0.283131 0.00312118
287 4 0.16468 0.306027 0.0275788
292 2 0.133919 0.276155 0.0268482
507 4 0.161566 0.300735 0.0462883
293 4 0.154444 0.289452 0.0320521
294 4 0.113393 0.262859 0.0216442
505 2 0.174248 0.300705 0.0678369
481 2 0.229658 0.297585 0.0775651
483 4 0.205167 0.299471 0.0822365
506 4 0.18693 0.300674 0.0893854
573 4 0.272417 0.289578 0.0664006
482 4 0.254149 0.2957 0.0728937
571 2 0.27793 0.280572 0.0437361
572 4 0.283442 0.271566 0.0210717
322 2 0.419838 0.256862 0.0576674
1069 2 0.396095 0.293663 0.0218869
957 4 0.363075 0.312751 0.0295777
1071 4 0.374608 0.305087 0.0161474
955 2 0.345387 0.314899 0.0120356
741 4 0.359566 0.329922 0.039895
324 4 0.42298 0.279406 0.0473187
1070 4 0.417583 0.282239 0.0276264
671 4 0.455832 0.32867 0.0658139
280 2 0.447994 0.301204 0.0371759
281 4 0.460612 0.3139 0.0546338
282 4 0.435376 0.288508 0.0197179
286 2 0.163016 0.330149 0.0212117
454 2 0.163004 0.378551 0.053753
455 4 0.139662 0.37046 0.0498974
552 4 0.123061 0.359166 0.0498845
550 2 0.103382 0.349134 0.0616017
551 4 0.0837041 0.339102 0.073319
288 4 0.161351 0.354271 0.0148446
456 4 0.186346 0.386642 0.0576085
251 4 0.271547 0.418793 0.0263007
1290 4 0.266485 0.405268 0.0125349
739 2 0.369261 0.333736 0.0626247
495 4 0.398702 0.371563 0.0812166
493 2 0.390989 0.394755 0.0759399
14 3 0.39746 0.352317 0.0852318
670 2 0.435768 0.336539 0.0784912
245 4 0.238106 0.48418 0.0447105
626 4 0.22761 0.486739 0.0618823
625 2 0.208255 0.475164 0.0726801
244 2 0.243849 0.464512 0.0303797
627 4 0.188899 0.46359 0.0834779
250 2 0.275653 0.419159 0.0509621
252 4 0.27976 0.419524 0.0756235
246 4 0.249592 0.444844 0.016049
272 4 0.267737 0.435624 0.0161272
494 4 0.383276 0.417946 0.0706632
1672 2 0.401569 0.451793 0.0649901
853 2 0.405983 0.445526 0.00883221
854 4 0.418201 0.458631 0.0262722
1674 4 0.413412 0.45796 0.0438502
563 4 0.475198 0.431051 0.0444803
562 2 0.451458 0.438701 0.0427195
564 4 0.427719 0.446351 0.0409587
228 4 0.486801 0.437187 0.0307336
701 4 0.0709335 0.0691108 0.0947121
18 3 0.0574602 0.0460514 0.145145
1475 4 0.299193 0.0328394 0.0911359
492 4 0.306807 0.0377367 0.109694
490 2 0.291034 0.0570836 0.108248
491 4 0.275261 0.0764304 0.106802
1474 2 0.298491 0.00969815 0.0816929
485 4 0.378235 0.0125182 0.100361
2723 4 0.438347 0.0632488 0.144252
2722 2 0.457937 0.0477303 0.145013
2724 4 0.477528 0.0322119 0.145773
1760 4 0.489408 0.017011 0.144793
1759 2 0.496676 0.0179621 0.120888
2744 4 0.480413 0.0199481 0.161447
700 2 0.0736631 0.0933981 0.09999
702 4 0.0763927 0.117685 0.105268
476 4 0.0819193 0.131695 0.119153
475 2 0.0802018 0.133802 0.144008
737 4 0.244122 0.158379 0.103734
582 4 0.252421 0.133104 0.15439
628 2 0.362444 0.139146 0.155405
312 4 0.377059 0.105738 0.155083
629 4 0.358404 0.114476 0.155895
630 4 0.366483 0.163816 0.154915
339 4 0.0722022 0.227958 0.139871
337 2 0.0692784 0.248023 0.1545
738 4 0.254136 0.207262 0.107028
736 2 0.249129 0.18282 0.105381
461 4 0.305881 0.232722 0.0995001
460 2 0.329386 0.233703 0.10797
354 4 0.286205 0.235427 0.108097
352 2 0.280444 0.242736 0.131303
254 4 0.376068 0.176431 0.143804
462 4 0.35289 0.234684 0.116441
255 4 0.359818 0.220294 0.12612
253 2 0.367943 0.198363 0.134962
765 4 0.362139 0.237244 0.134636
624 4 0.371512 0.233667 0.11848
622 2 0.385182 0.235558 0.0976294
763 2 0.353974 0.247439 0.155956
537 4 0.185638 0.315359 0.102556
535 2 0.201592 0.317791 0.121654
353 4 0.274682 0.250046 0.15451
755 4 0.254574 0.255547 0.159787
387 4 0.325678 0.315733 0.12479
301 2 0.332644 0.304429 0.16086
302 4 0.337517 0.305597 0.136364
385 2 0.343964 0.324632 0.110244
15 3 0.375743 0.33154 0.107911
386 4 0.362251 0.333532 0.0956979
12 3 0.411696 0.336857 0.116393
518 4 0.492591 0.266027 0.0952371
528 4 0.474331 0.262901 0.102459
526 2 0.457786 0.280975 0.0974803
527 4 0.441241 0.299049 0.0925021
315 4 0.00611706 0.371731 0.119505
647 4 0.0737196 0.346117 0.149857
417 4 0.139746 0.396696 0.154689
415 2 0.161555 0.407964 0.149938
536 4 0.217546 0.320223 0.140752
291 4 0.193521 0.41138 0.130807
289 2 0.217563 0.411832 0.137657
290 4 0.241606 0.412283 0.144507
740 4 0.378955 0.33755 0.0853544
672 4 0.415705 0.344408 0.0911684
11 1 0.39292 0.346477 0.107225
13 3 0.387445 0.365406 0.119478
595 2 0.489277 0.417363 0.121323
597 4 0.486588 0.39804 0.136961
645 4 0.469815 0.39239 0.14695
104 3 0.497994 0.354996 0.141146
1791 4 0.0476472 0.48684 0.134625
1466 4 0.0515417 0.468089 0.138807
1465 2 0.0336007 0.467006 0.156188
416 4 0.183364 0.419233 0.145186
609 4 0.282703 0.418944 0.0961029
607 2 0.306572 0.421747 0.103001
608 4 0.330441 0.42455 0.1099
768 4 0.259602 0.42355 0.149816
767 4 0.264191 0.472468 0.140504
766 2 0.261897 0.448009 0.14516
638 4 0.264255 0.48978 0.131319
1673 4 0.389726 0.445627 0.08613
659 4 0.345982 0.431285 0.120475
660 4 0.375355 0.433895 0.0800874
658 2 0.360669 0.43259 0.100281
596 4 0.491966 0.436686 0.105684
380 4 0.00839198 0.0800931 0.202594
16 1 0.0584038 0.0500326 0.167985
19 3 0.0516521 0.0717633 0.172524
17 3 0.0441866 0.0354433 0.17867
2480 4 0.0259842 0.0331861 0.186577
1422 4 0.0284275 0.0153094 0.193549
2479 2 0.00961769 0.0501164 0.194984
20 3 0.0796218 0.0467425 0.175576
578 4 0.0981086 0.0464466 0.168079
674 4 0.1459 0.0190582 0.216127
673 2 0.123427 0.0129784 0.225247
689 4 0.165271 0.0155664 0.211251
577 2 0.116413 0.0629154 0.172427
579 4 0.134717 0.0793842 0.176775
675 4 0.100954 0.00689864 0.234366
653 4 0.297057 0.0142304 0.206677
311 4 0.38045 0.0749181 0.194317
758 4 0.371126 0.0597977 0.202769
759 4 0.346819 0.0617394 0.246429
757 2 0.358973 0.0607685 0.224599
511 2 0.0503343 0.154206 0.213454
513 4 0.0679801 0.163514 0.228526
381 4 0.0213145 0.128286 0.205942
512 4 0.0326885 0.144898 0.198382
379 2 0.0148532 0.104189 0.204268
477 4 0.0784842 0.13591 0.168864
450 4 0.138111 0.09953 0.17245
448 2 0.161117 0.10859 0.176168
449 4 0.184123 0.117651 0.179886
237 4 0.239398 0.146268 0.160077
691 2 0.244797 0.102638 0.240383
693 4 0.22976 0.0901217 0.224813
236 4 0.195878 0.133295 0.181015
235 2 0.217638 0.139781 0.170546
581 4 0.295544 0.118772 0.175264
580 2 0.273983 0.125938 0.164827
28 3 0.335437 0.144743 0.241798
310 2 0.378754 0.0903282 0.1747
333 4 0.487215 0.082075 0.241706
521 4 0.47463 0.14672 0.218498
332 4 0.477222 0.128052 0.224765
762 4 0.465186 0.14037 0.233377
760 2 0.44259 0.143812 0.243512
331 2 0.482218 0.105063 0.233236
396 4 0.00630203 0.249509 0.237359
394 2 0.0218339 0.23034 0.233297
395 4 0.0373658 0.211172 0.229235
277 2 0.253716 0.222361 0.176274
279 4 0.242381 0.201366 0.183751
26 1 0.324625 0.163287 0.25061
27 3 0.328695 0.181412 0.237043
278 4 0.265051 0.243356 0.168797
30 3 0.302188 0.159492 0.251527
338 4 0.0663545 0.268089 0.169128
363 4 0.0719192 0.268975 0.189245
361 2 0.0816351 0.289902 0.198879
749 4 0.073719 0.321108 0.210683
443 4 0.0182182 0.260915 0.248271
748 2 0.0791238 0.333402 0.231775
370 2 0.131018 0.307364 0.219127
372 4 0.109801 0.301231 0.207405
362 4 0.091351 0.31083 0.208514
371 4 0.152235 0.313496 0.230849
734 4 0.156553 0.326671 0.243222
648 4 0.0763544 0.336914 0.19894
285 4 0.328795 0.266061 0.182763
284 4 0.282328 0.250659 0.172546
283 2 0.305561 0.25836 0.177654
754 2 0.25073 0.27719 0.171703
756 4 0.246886 0.298833 0.183619
612 4 0.251952 0.304577 0.202413
610 2 0.249378 0.299148 0.226684
307 2 0.32899 0.291793 0.213716
308 4 0.328372 0.284677 0.189755
303 4 0.327771 0.303262 0.185357
729 4 0.326681 0.323546 0.186792
309 4 0.329608 0.298908 0.237678
764 4 0.345809 0.257634 0.177277
264 4 0.0101766 0.412369 0.23005
646 2 0.075037 0.341516 0.174398
727 2 0.319457 0.346937 0.191876
728 4 0.312232 0.370328 0.196961
446 4 0.446896 0.3667 0.250182
445 2 0.448102 0.380912 0.229645
447 4 0.449308 0.395123 0.209109
644 4 0.462946 0.402445 0.195452
643 2 0.466381 0.397417 0.171201
1467 4 0.0156596 0.465924 0.17357
1757 4 0.0965275 0.441131 0.26448
231 4 0.454298 0.478671 0.258242
229 2 0.453013 0.489162 0.235582
230 4 0.451729 0.499653 0.212923
232 2 0.022126 0.0297672 0.296266
233 4 0.0455426 0.0259254 0.288387
1404 4 0.0632234 0.0199352 0.288359
1402 2 0.075513 0.0120884 0.268047
316 2 0.0760339 0.0537622 0.305909
317 4 0.0633353 0.0346424 0.295991
428 4 0.0695581 0.0179877 0.306362
427 2 0.0702187 0.00305444 0.326406
318 4 0.0887325 0.072882 0.315827
732 4 0.0993105 0.0769992 0.33306
25 3 0.326946 0.0497228 0.245987
21 1 0.327488 0.0608839 0.265831
23 3 0.327478 0.0457565 0.283426
22 3 0.346683 0.0735166 0.266897
351 4 0.414819 0.0564839 0.266005
349 2 0.396607 0.0736077 0.265497
479 4 0.452408 0.020435 0.299499
478 2 0.439682 0.0307936 0.280633
2664 4 0.47325 0.0219126 0.297455
480 4 0.426956 0.0411523 0.261767
1428 4 0.462758 0.0177325 0.312637
258 4 0.445541 0.0253433 0.317625
2662 2 0.492555 0.0370806 0.292719
393 4 0.0597781 0.172012 0.243207
397 2 0.0708375 0.105711 0.328368
399 4 0.089803 0.0900615 0.323832
721 2 0.251212 0.127248 0.298375
722 4 0.250089 0.134983 0.322126
723 4 0.252335 0.119513 0.274625
24 3 0.309131 0.074978 0.267492
692 4 0.259834 0.115155 0.255952
632 4 0.379138 0.109705 0.261107
350 4 0.378395 0.0907316 0.264988
631 2 0.363182 0.128946 0.260493
707 4 0.350996 0.157917 0.274153
633 4 0.347227 0.148187 0.259879
761 4 0.419993 0.147254 0.253647
391 2 0.0711164 0.179128 0.264325
392 4 0.0824548 0.186245 0.285443
546 4 0.124569 0.189583 0.269968
544 2 0.148039 0.197701 0.272871
545 4 0.171509 0.205819 0.275775
402 4 0.17733 0.225332 0.272015
378 4 0.24809 0.26266 0.325808
400 2 0.180839 0.248869 0.279688
29 3 0.332758 0.167844 0.271858
706 2 0.356002 0.171909 0.294261
708 4 0.361007 0.1859 0.31437
717 4 0.435459 0.184485 0.326223
442 2 0.012548 0.280397 0.262882
444 4 0.0068778 0.299879 0.277493
611 4 0.246804 0.29372 0.250955
401 4 0.184349 0.272406 0.287362
676 2 0.179571 0.298704 0.31041
345 4 0.198089 0.28696 0.283117
677 4 0.182003 0.291906 0.286472
343 2 0.222137 0.288272 0.276399
735 4 0.187094 0.296436 0.268792
733 2 0.171824 0.311553 0.256007
344 4 0.246186 0.289584 0.269682
376 2 0.270822 0.26797 0.316852
496 2 0.31807 0.283006 0.277403
497 4 0.310826 0.271957 0.29863
377 4 0.293555 0.27328 0.307897
498 4 0.325314 0.294055 0.256175
541 2 0.392278 0.306901 0.326576
542 4 0.391961 0.281947 0.325028
365 4 0.0388753 0.374936 0.291928
601 2 0.0514845 0.381152 0.332782
603 4 0.0455008 0.370799 0.310824
364 2 0.0166435 0.36375 0.294337
750 4 0.0845286 0.345695 0.252866
299 4 0.152513 0.346045 0.249374
298 2 0.128121 0.348723 0.254175
300 4 0.103729 0.351401 0.258975
433 2 0.308644 0.388335 0.294532
435 4 0.295959 0.408666 0.287397
543 4 0.392595 0.331854 0.328124
434 4 0.32133 0.368004 0.301667
614 4 0.339739 0.368258 0.307853
615 4 0.378787 0.338535 0.317468
613 2 0.359263 0.353396 0.31266
1756 2 0.100614 0.465297 0.259532
1758 4 0.104701 0.489463 0.254584
412 2 0.223404 0.447137 0.27434
1436 4 0.224995 0.430168 0.309607
413 4 0.212494 0.43576 0.29375
414 4 0.234314 0.458514 0.254931
3 3 0.296062 0.460019 0.322121
1803 4 0.367976 0.484202 0.283877
1801 2 0.35677 0.504725 0.292733
119 3 0.499466 0.453166 0.316724
712 2 0.45838 0.466882 0.327168
713 4 0.435342 0.475528 0.322735
714 4 0.481419 0.458236 0.331602
1781 4 0.0955818 0.0145915 0.40739
730 2 0.120291 0.0670931 0.342379
1780 2 0.116741 0.00689208 0.396519
731 4 0.141272 0.057187 0.351698
606 4 0.15706 0.0688892 0.347526
604 2 0.179023 0.0751287 0.357719
605 4 0.200985 0.0813681 0.367913
439 2 0.309604 0.997917 0.404282
1701 4 0.325487 0.0349161 0.394834
441 4 0.312306 0.0227557 0.405244
1699 2 0.329107 0.0360256 0.370118
1700 4 0.332728 0.0371352 0.345403
699 4 0.353374 0.0360197 0.344329
697 2 0.377338 0.0425569 0.341474
698 4 0.401303 0.0490941 0.338619
257 4 0.414546 0.0437967 0.352259
256 2 0.430043 0.03457 0.334942
2584 2 0.0156551 0.112598 0.344652
398 4 0.0518721 0.121361 0.332904
2586 4 0.0343271 0.128819 0.340989
458 4 0.0381934 0.139695 0.358253
457 2 0.0454764 0.149142 0.380228
459 4 0.0527594 0.158589 0.402202
600 4 0.13822 0.120418 0.375321
598 2 0.140017 0.145357 0.37543
599 4 0.141814 0.170295 0.375539
248 4 0.211344 0.0861189 0.350937
249 4 0.240934 0.122481 0.333531
247 2 0.226139 0.1043 0.342234
683 4 0.234005 0.0904947 0.389775
403 2 0.249496 0.158078 0.348132
404 4 0.253943 0.134248 0.342005
682 2 0.257617 0.0987198 0.389743
319 2 0.307759 0.14334 0.388975
684 4 0.281229 0.106945 0.38971
321 4 0.322311 0.163649 0.387994
320 4 0.293207 0.123031 0.389957
260 4 0.0518626 0.163593 0.422236
389 4 0.109583 0.22787 0.356091
686 4 0.129627 0.182849 0.385619
685 2 0.112245 0.194067 0.399662
275 4 0.147199 0.1709 0.355415
388 2 0.112578 0.252119 0.361399
274 2 0.159024 0.19148 0.347552
472 2 0.211916 0.203451 0.338043
474 4 0.18875 0.20913 0.330545
276 4 0.170848 0.21206 0.33969
405 4 0.24505 0.181907 0.35426
473 4 0.235083 0.197772 0.345541
466 2 0.396549 0.204116 0.403495
467 4 0.407192 0.202206 0.380951
269 4 0.454748 0.238432 0.335922
715 2 0.424528 0.185259 0.348697
716 4 0.413596 0.186033 0.371171
270 4 0.480293 0.213593 0.37101
452 4 0.464152 0.208979 0.3824
268 2 0.467521 0.226013 0.353466
451 2 0.457252 0.207197 0.406367
419 4 0.439846 0.246217 0.346495
618 4 0.0607105 0.329811 0.382578
616 2 0.0815866 0.320024 0.372904
390 4 0.115573 0.276369 0.366707
617 4 0.102463 0.310237 0.36323
374 4 0.117525 0.296324 0.3676
373 2 0.137183 0.300551 0.352738
375 4 0.156841 0.304778 0.337876
678 4 0.177138 0.305502 0.334349
509 4 0.20386 0.321672 0.367538
508 2 0.225903 0.329488 0.358695
510 4 0.247946 0.337304 0.349852
420 4 0.405235 0.268392 0.318015
418 2 0.422541 0.257304 0.332255
347 4 0.0468547 0.342593 0.374957
549 4 0.073472 0.392756 0.366468
602 4 0.0574681 0.391506 0.354741
346 2 0.0425894 0.362595 0.38934
348 4 0.0383241 0.382598 0.403723
547 2 0.0725767 0.417735 0.367094
668 4 0.318919 0.386353 0.398368
336 4 0.338728 0.380261 0.392721
334 2 0.359172 0.366868 0.398
335 4 0.379616 0.353476 0.403279
240 4 0.387251 0.36304 0.41976
238 2 0.407673 0.377358 0.421522
587 4 0.428353 0.411025 0.418097
752 4 0.463345 0.40895 0.389044
561 4 0.477744 0.40985 0.402778
239 4 0.428096 0.391676 0.423283
548 4 0.0716815 0.442715 0.367721
407 4 0.0883405 0.447689 0.376511
406 2 0.103259 0.457643 0.393933
499 2 0.0881843 0.500309 0.345342
501 4 0.0957326 0.483949 0.362678
408 4 0.118177 0.467597 0.411356
1556 4 0.234534 0.495622 0.415634
1544 4 0.220744 0.481034 0.414968
1435 2 0.24453 0.433783 0.324789
1555 2 0.259097 0.497203 0.411238
5 3 0.275421 0.47973 0.346678
1557 4 0.28366 0.498784 0.406841
1 1 0.289635 0.462094 0.34432
438 4 0.314969 0.46087 0.335017
1437 4 0.264065 0.437398 0.339971
4 3 0.279287 0.44258 0.351429
2 3 0.308366 0.465688 0.35718
636 4 0.29347 0.482275 0.415976
437 4 0.362324 0.457714 0.319261
436 2 0.338647 0.459292 0.327139
593 4 0.405214 0.460068 0.3831
592 2 0.413255 0.467432 0.360599
588 4 0.419749 0.44641 0.383824
1742 4 0.4345 0.488578 0.336628
586 2 0.424051 0.428718 0.40096
753 4 0.494689 0.430526 0.356598
117 3 0.487176 0.451598 0.352209
751 2 0.479017 0.419738 0.372821
594 4 0.421295 0.474796 0.338098
367 2 0.0754919 0.0278805 0.426663
369 4 0.0528535 0.038375 0.425067
719 4 0.042795 0.0242807 0.435697
718 2 0.0211109 0.0198071 0.447315
368 4 0.0981302 0.017386 0.42826
962 4 0.304733 0.0303721 0.420258
961 2 0.293401 0.04843 0.433322
963 4 0.282069 0.0664879 0.446387
432 4 0.29441 0.0677126 0.462023
425 4 0.324852 0.0331998 0.41383
424 2 0.348437 0.0294235 0.421226
426 4 0.372021 0.0256472 0.428622
726 4 0.410819 0.0672083 0.42617
1218 4 0.402194 0.0637725 0.470088
1216 2 0.38726 0.0632474 0.490135
430 2 0.310333 0.0812106 0.475786
724 2 0.400267 0.0887411 0.419086
725 4 0.389716 0.110274 0.412002
642 4 0.491568 0.118216 0.438386
640 2 0.473766 0.128871 0.452341
641 4 0.455964 0.139526 0.466296
259 2 0.0658333 0.184268 0.423832
696 4 0.094435 0.24591 0.476639
687 4 0.0948622 0.205284 0.413704
261 4 0.0798041 0.204943 0.425428
1035 4 0.0918295 0.222185 0.42173
1033 2 0.095163 0.237849 0.440932
1034 4 0.0984965 0.253512 0.460134
651 4 0.311568 0.23586 0.517796
489 4 0.349869 0.247266 0.44752
468 4 0.385906 0.206026 0.42604
411 4 0.362671 0.237923 0.459416
516 4 0.40374 0.193863 0.458984
409 2 0.378484 0.2201 0.451835
410 4 0.394297 0.202277 0.444254
575 4 0.39412 0.191597 0.477534
266 4 0.365429 0.243363 0.478696
574 2 0.403092 0.179041 0.497208
514 2 0.426771 0.190783 0.44975
515 4 0.449802 0.187704 0.440517
453 4 0.450351 0.205414 0.430333
326 4 0.0582311 0.337854 0.48169
1258 2 0.105041 0.286326 0.474547
1259 4 0.117578 0.307928 0.473385
9 3 0.135795 0.314971 0.476421
1260 4 0.0925044 0.264724 0.47571
10 3 0.151228 0.335205 0.44867
488 4 0.30758 0.251722 0.421204
487 2 0.328725 0.249494 0.434362
584 4 0.490408 0.259383 0.492031
325 2 0.0831064 0.34038 0.481825
6 1 0.1395 0.336335 0.468159
7 3 0.119198 0.346405 0.464211
327 4 0.107982 0.342906 0.481961
709 2 0.155637 0.405011 0.472832
8 3 0.151217 0.348929 0.483732
711 4 0.135061 0.414232 0.462024
503 4 0.215156 0.366881 0.460724
502 2 0.202477 0.377709 0.479357
710 4 0.176212 0.39579 0.483639
504 4 0.189799 0.388536 0.497991
667 2 0.318161 0.403979 0.416086
882 4 0.377254 0.370738 0.463565
3309 4 0.498325 0.406358 0.462419
559 2 0.487856 0.401809 0.424185
3307 2 0.492804 0.397216 0.485027
1381 2 0.00956799 0.48695 0.470073
1383 4 0.00573527 0.463381 0.462658
680 4 0.994912 0.451851 0.449636
384 4 0.115447 0.419829 0.457994
569 4 0.123115 0.477869 0.427769
382 2 0.115372 0.440004 0.443225
568 2 0.144461 0.490727 0.429817
383 4 0.115297 0.460179 0.428455
1543 2 0.201954 0.491521 0.427702
1545 4 0.183164 0.502007 0.440436
570 4 0.165807 0.503585 0.431865
772 2 0.331562 0.443411 0.467709
634 2 0.305865 0.46128 0.421524
774 4 0.321489 0.436131 0.446014
773 4 0.341635 0.450692 0.489405
669 4 0.317403 0.421605 0.433803
635 4 0.318259 0.440286 0.427072
661 2 0.477048 0.485497 0.462668
663 4 0.473491 0.479951 0.438548
662 4 0.480604 0.491043 0.486788
2428 2 0.158493 0.996188 0.528582
342 4 0.193222 0.074819 0.521642
340 2 0.189368 0.0509499 0.515271
1152 4 0.210409 0.0778393 0.530566
341 4 0.185514 0.0270807 0.5089
2430 4 0.170951 0.0159712 0.519716
1150 2 0.227201 0.0885471 0.545684
1151 4 0.243993 0.0992549 0.560802
1032 4 0.257908 0.0838152 0.567557
1217 4 0.372326 0.0627224 0.510182
842 4 0.362625 0.0699376 0.527903
3007 2 0.483894 0.0439485 0.575624
3009 4 0.499939 0.0501434 0.557476
470 4 0.0200196 0.158179 0.52267
1058 4 0.0961418 0.119187 0.518691
1057 2 0.102928 0.11652 0.542608
1059 4 0.109714 0.113854 0.566525
1155 4 0.115319 0.126048 0.580237
939 4 0.0985082 0.117338 0.583178
1180 2 0.208589 0.143226 0.540651
1181 4 0.202563 0.128131 0.559651
1182 4 0.214616 0.158321 0.521651
900 4 0.225141 0.175673 0.517654
431 4 0.326257 0.0947087 0.489549
843 4 0.331293 0.103182 0.50756
841 2 0.346959 0.0865599 0.517731
576 4 0.412063 0.166485 0.516881
1199 4 0.0272364 0.214349 0.581069
1198 2 0.00583076 0.217863 0.568634
469 2 0.00483618 0.177559 0.527036
1244 4 0.0466685 0.241279 0.590597
695 4 0.0889023 0.22201 0.520215
694 2 0.0916686 0.23396 0.498427
898 2 0.246465 0.185709 0.526005
650 4 0.272602 0.214131 0.540383
899 4 0.267789 0.195745 0.534357
649 2 0.292085 0.224995 0.529089
982 2 0.0320445 0.320605 0.587834
1243 2 0.0479048 0.266252 0.590544
983 4 0.0547878 0.310244 0.587077
1245 4 0.0491412 0.291224 0.590491
857 4 0.20762 0.263931 0.541355
947 4 0.210153 0.251185 0.555573
798 4 0.223751 0.252595 0.568328
856 2 0.226848 0.261403 0.525573
946 2 0.190001 0.261024 0.566631
948 4 0.16985 0.270863 0.57769
796 2 0.244781 0.263092 0.576855
858 4 0.246075 0.258876 0.50979
797 4 0.265812 0.273588 0.585382
872 4 0.352738 0.277966 0.575342
871 2 0.372431 0.292837 0.57937
873 4 0.392123 0.307708 0.583398
267 4 0.358144 0.249433 0.527796
265 2 0.361786 0.246398 0.503246
906 4 0.499492 0.319446 0.591243
1010 4 0.503422 0.325141 0.531383
2457 4 0.496794 0.305717 0.527354
803 4 0.263416 0.369254 0.5629
804 4 0.291123 0.380971 0.522953
802 2 0.277269 0.375112 0.542926
930 4 0.339139 0.365236 0.571815
1239 4 0.328393 0.374727 0.585808
928 2 0.344884 0.374387 0.549266
929 4 0.350629 0.383538 0.526718
881 4 0.358162 0.379913 0.508864
880 2 0.367708 0.375326 0.486215
1011 4 0.492175 0.372706 0.520809
1009 2 0.497798 0.348924 0.526096
927 4 0.425182 0.368921 0.584821
925 2 0.439487 0.384157 0.571095
3308 4 0.487282 0.388075 0.507635
926 4 0.453793 0.399393 0.557369
1002 4 0.448377 0.415385 0.56713
539 4 0.0828513 0.425739 0.588853
538 2 0.0909702 0.44846 0.582296
540 4 0.0990891 0.471182 0.575739
1160 4 0.110212 0.488368 0.574436
1159 2 0.134121 0.48403 0.580329
2244 4 0.0919958 0.487425 0.569671
2154 4 0.210424 0.484846 0.594885
2152 2 0.23174 0.496662 0.589299
1952 4 0.354667 0.49933 0.547138
890 4 0.348994 0.486007 0.560861
889 2 0.341263 0.488386 0.58452
1953 4 0.40358 0.509706 0.546345
1951 2 0.379124 0.504518 0.546742
1909 2 0.424786 0.48518 0.570793
1000 2 0.450317 0.43802 0.577573
1081 2 0.0697108 0.0707047 0.645226
1083 4 0.066291 0.0754073 0.620908
2114 4 0.991068 0.00588809 0.622099
823 2 0.156499 0.0180462 0.654033
824 4 0.174083 0.000658331 0.650341
1031 4 0.26567 0.0392293 0.58883
1030 2 0.261789 0.0615222 0.578193
951 4 0.273814 0.0247365 0.600401
949 2 0.295172 0.0118732 0.598518
3008 4 0.467849 0.0377536 0.593773
809 4 0.479814 0.0349512 0.60867
808 2 0.471435 0.0469602 0.628937
810 4 0.463056 0.0589691 0.649204
45 3 0.458826 0.0814774 0.649525
1126 2 0.0245822 0.0859412 0.616032
1127 4 0.0470686 0.0789422 0.624432
938 4 0.0830763 0.0879481 0.620578
1128 4 0.00209582 0.0929402 0.607632
1271 4 0.101778 0.134161 0.592405
937 2 0.0907922 0.102643 0.601878
1153 2 0.13933 0.125838 0.587211
1270 2 0.0968442 0.158667 0.592923
1154 4 0.16334 0.125627 0.594185
1221 4 0.166089 0.134549 0.611139
1219 2 0.187046 0.145683 0.619015
1220 4 0.208003 0.156817 0.62689
1194 4 0.334924 0.15289 0.668969
1192 2 0.358289 0.153084 0.660067
1193 4 0.381653 0.153278 0.651165
3426 4 0.501883 0.128007 0.659824
3424 2 0.485012 0.110064 0.664137
3425 4 0.46814 0.0921223 0.668449
878 4 0.0394585 0.222994 0.595633
877 2 0.0552777 0.203668 0.594425
879 4 0.071097 0.184343 0.593217
1272 4 0.0919103 0.183174 0.593442
1210 2 0.240404 0.182979 0.638813
1212 4 0.218983 0.170261 0.636669
1211 4 0.261824 0.195697 0.640956
887 4 0.318266 0.164489 0.667954
886 2 0.297577 0.173049 0.656824
888 4 0.276889 0.18161 0.645694
1137 4 0.160607 0.330882 0.605602
1135 2 0.162925 0.306656 0.599867
1136 4 0.165244 0.282429 0.594132
822 4 0.187556 0.28127 0.657251
792 4 0.285247 0.325659 0.599907
791 4 0.283932 0.27616 0.592921
790 2 0.28459 0.300909 0.596414
1238 4 0.289877 0.344261 0.595242
806 4 0.286493 0.333414 0.640937
805 2 0.267768 0.328738 0.656833
813 4 0.384035 0.322764 0.593294
953 4 0.490856 0.303268 0.596183
952 2 0.482881 0.280921 0.604068
954 4 0.474907 0.258573 0.611954
1041 4 0.0512441 0.387955 0.63875
3264 4 0.0322845 0.391723 0.643401
3262 2 0.0234096 0.370402 0.652982
3240 4 0.0198608 0.406713 0.64424
1039 2 0.0724247 0.377124 0.631052
1040 4 0.0936052 0.366293 0.623355
993 4 0.103855 0.350011 0.624968
991 2 0.12695 0.348472 0.615512
992 4 0.150046 0.346934 0.606056
897 4 0.164578 0.344977 0.618969
1189 2 0.242237 0.364042 0.588918
896 4 0.209602 0.365646 0.612164
895 2 0.18709 0.355312 0.615566
1172 4 0.230128 0.391193 0.595455
1191 4 0.22266 0.373515 0.601254
1065 4 0.205506 0.344202 0.675853
1171 2 0.222344 0.414144 0.601604
1190 4 0.261815 0.354569 0.576582
1237 2 0.309135 0.359494 0.590525
811 2 0.404672 0.336694 0.591009
1206 4 0.413898 0.379207 0.596609
1204 2 0.403114 0.390391 0.6162
1205 4 0.392329 0.401575 0.635791
812 4 0.425309 0.350624 0.588724
1161 4 0.158029 0.479691 0.586222
1188 4 0.1706 0.483005 0.601343
1186 2 0.185075 0.462876 0.598107
1173 4 0.21456 0.437096 0.607752
1187 4 0.199549 0.442747 0.594871
891 4 0.333531 0.490765 0.608179
1230 4 0.362959 0.443097 0.671325
1911 4 0.445915 0.47806 0.58211
1001 4 0.452257 0.460655 0.588017
1269 4 0.454688 0.476296 0.599224
1267 2 0.466228 0.494852 0.611378
1082 4 0.0731307 0.0660021 0.669544
943 2 0.0575045 0.0205019 0.684788
944 4 0.0720529 0.0408206 0.685609
1076 4 0.0627661 0.0582733 0.684278
1075 2 0.0650331 0.0772598 0.700388
825 4 0.138915 0.0354341 0.657726
1283 4 0.139757 0.050752 0.669382
1282 2 0.138928 0.0667004 0.688621
1148 4 0.25814 0.0773573 0.699143
1147 2 0.266649 0.0538775 0.69793
1149 4 0.275158 0.0303977 0.696717
1092 4 0.318308 0.0173871 0.69061
1004 4 0.360681 0.0791657 0.745061
42 3 0.455573 0.0502667 0.66973
41 1 0.450479 0.0726799 0.668802
43 3 0.427414 0.0751576 0.6693
1163 4 0.46638 0.0622281 0.687202
1162 2 0.483663 0.0534576 0.702999
44 3 0.459984 0.083296 0.687115
864 4 0.0548271 0.101683 0.731265
1077 4 0.0673001 0.0962462 0.716499
1107 4 0.0719814 0.10919 0.730044
851 4 0.0811447 0.109905 0.71272
862 2 0.0338619 0.0999586 0.74478
850 2 0.0953646 0.126504 0.700576
852 4 0.109585 0.143102 0.688432
1284 4 0.1381 0.0826488 0.70786
1105 2 0.086142 0.0989656 0.747936
909 4 0.138627 0.102543 0.70791
907 2 0.161927 0.111604 0.708344
1226 4 0.238145 0.0838876 0.698709
908 4 0.185227 0.120665 0.708778
1227 4 0.201345 0.111901 0.717727
1225 2 0.219745 0.0978944 0.708218
829 2 0.324888 0.148212 0.705271
831 4 0.337743 0.138802 0.724542
1005 4 0.339585 0.11914 0.723666
1003 2 0.350133 0.0991527 0.734363
1177 2 0.00367414 0.234722 0.704227
1073 4 0.0808921 0.202725 0.738818
1072 2 0.0961799 0.221885 0.743754
1074 4 0.111468 0.241045 0.748689
830 4 0.312033 0.157622 0.685999
978 4 0.265938 0.188306 0.744594
1142 4 0.455491 0.167862 0.736919
1144 2 0.488459 0.174287 0.729437
1025 4 0.428045 0.178622 0.678078
1262 4 0.450976 0.19593 0.725343
1024 2 0.440776 0.178185 0.699593
1026 4 0.453508 0.177748 0.721108
1261 2 0.45538 0.220117 0.729903
1145 4 0.465455 0.183876 0.731444
1263 4 0.459783 0.244304 0.734463
1179 4 0.017969 0.250403 0.691001
1209 4 0.148378 0.258692 0.707555
1207 2 0.136982 0.256922 0.72974
821 4 0.153775 0.271659 0.692848
820 2 0.170665 0.276465 0.67505
1064 4 0.19324 0.300242 0.655413
807 4 0.249042 0.324061 0.672728
1019 4 0.367952 0.325692 0.7165
3123 4 0.485749 0.271562 0.67513
3263 4 0.0145348 0.34908 0.662563
1280 4 0.0505 0.369302 0.750092
1279 2 0.0510731 0.390182 0.736349
1281 4 0.0516462 0.411063 0.722606
894 4 0.0343738 0.356749 0.744246
816 4 0.060686 0.352915 0.756303
1063 2 0.199373 0.322222 0.665633
1028 4 0.211437 0.379448 0.715099
1066 2 0.195741 0.358683 0.734225
1068 4 0.209376 0.358733 0.713266
1027 2 0.224942 0.399508 0.708745
1018 2 0.379402 0.343044 0.702608
1020 4 0.390852 0.360396 0.688717
1983 4 0.0626269 0.419263 0.739892
1981 2 0.0606563 0.444074 0.742284
1982 4 0.0586858 0.468884 0.744676
1029 4 0.238448 0.419569 0.702392
1175 4 0.204375 0.45275 0.731846
1174 2 0.196188 0.475757 0.726479
1176 4 0.188 0.498764 0.721111
1138 2 0.261328 0.450318 0.685004
1140 4 0.248929 0.437027 0.702174
1139 4 0.273728 0.463608 0.667834
1987 2 0.294828 0.462625 0.726829
1229 4 0.319744 0.456382 0.692696
1989 4 0.302892 0.458027 0.703613
2028 4 0.284886 0.480821 0.673514
1228 2 0.341351 0.44974 0.682011
2991 4 0.00436378 0.0432379 0.797547
2989 2 0.00664196 0.0629386 0.78232
2049 4 0.113601 0.014557 0.777867
1202 4 0.10977 0.0324485 0.786135
2047 2 0.134976 0.00457436 0.769582
1201 2 0.116085 0.0561637 0.79092
1203 4 0.1224 0.0798788 0.795704
1106 4 0.100303 0.0887414 0.765828
1257 4 0.225241 0.0651856 0.777516
817 2 0.32764 0.0460999 0.820428
819 4 0.319363 0.063318 0.836559
1085 4 0.306787 0.0766803 0.827621
818 4 0.335916 0.0288817 0.804297
974 4 0.335782 0.00842212 0.804815
1050 4 0.331205 0.998311 0.787719
1113 4 0.430372 0.060266 0.768355
1111 2 0.455207 0.062501 0.766517
845 4 0.494424 0.059923 0.777779
1112 4 0.480043 0.064736 0.76468
2322 4 0.492058 0.038577 0.778564
2990 4 0.00892013 0.0826394 0.767093
863 4 0.0128968 0.0982342 0.758296
1125 4 0.0135749 0.135323 0.826539
1123 2 0.0384532 0.132889 0.827109
1124 4 0.0633315 0.130455 0.82768
832 2 0.000134765 0.115393 0.792871
834 4 0.999521 0.129951 0.81319
911 4 0.116936 0.101455 0.820141
34 3 0.11727 0.0934338 0.778293
31 1 0.126795 0.105301 0.79581
35 3 0.111424 0.119451 0.804875
32 3 0.133832 0.0904436 0.8119
33 3 0.145111 0.117337 0.788189
1255 2 0.231131 0.0792733 0.797315
1256 4 0.237021 0.093361 0.817115
840 4 0.242075 0.111141 0.823494
1084 2 0.29477 0.0887047 0.809285
1086 4 0.282753 0.100729 0.79095
1023 4 0.403658 0.15677 0.82818
844 2 0.501485 0.0819078 0.787371
1208 4 0.125585 0.255152 0.751925
1130 4 0.143232 0.253881 0.760806
1129 2 0.161037 0.24837 0.777472
1277 4 0.194864 0.25356 0.786173
1131 4 0.178843 0.24286 0.794139
977 4 0.29315 0.216186 0.775946
918 4 0.283284 0.228678 0.788363
976 2 0.279544 0.202246 0.76027
1298 4 0.293682 0.213903 0.79456
1297 2 0.309301 0.203046 0.810789
1299 4 0.32492 0.19219 0.827017