ITEM: TIMESTEP
2030000
ITEM: NUMBER OF ATOMS
4590
ITEM: BOX BOUNDS pp pp pp
-9.9985700000000008e+00 9.9985700000000008e+00
-9.9985700000000008e+00 9.9985700000000008e+00
-9.9985700000000008e+00 9.9985700000000008e+00
ITEM: ATOMS id type xs ys zs
463 2 0.0470347 0.0323226 0.0233829
465 4 0.0444852 0.0479908 0.042701
1667 4 0.0493917 0.0530018 0.0598221
701 4 0.0519743 0.0632483 0.0442762
590 4 0.0337575 0.0620586 0.0480551
700 2 0.0725173 0.0768186 0.0399162
464 4 0.0495841 0.0166545 0.00406478
589 2 0.0100419 0.0683671 0.0528459
994 2 0.122831 0.0229167 0.0141787
996 4 0.108417 0.0032621 0.00859877
995 4 0.137244 0.0425713 0.0197587
567 4 0.155146 0.0484569 0.0244492
565 2 0.169502 0.0573475 0.0428894
533 4 0.14996 0.0502603 0.0057828
1474 2 0.229181 0.0197134 0.0753033
566 4 0.183858 0.0662381 0.0613295
1475 4 0.226423 0.0428573 0.084355
490 2 0.351431 0.0262782 0.0146858
491 4 0.358094 0.0312858 0.0382592
557 4 0.374602 0.043827 0.0396585
296 4 0.374531 0.0261438 0.0464679
295 2 0.367831 0.0233181 0.0703908
556 2 0.39366 0.0598455 0.0373356
558 4 0.412717 0.0758641 0.0350126
746 4 0.417816 0.0763473 0.0159935
745 2 0.439873 0.0675707 0.00814246
747 4 0.46193 0.058794 0.000291417
423 4 0.100232 0.108385 0.0325021
702 4 0.0930603 0.0903889 0.0355562
421 2 0.120926 0.11336 0.0193798
422 4 0.14162 0.118335 0.00625753
770 4 0.472833 0.153753 0.0292772
769 2 0.461167 0.14947 0.0509738
1012 2 0.496582 0.135195 0.0010396
771 4 0.449501 0.145188 0.0726704
1013 4 0.480505 0.152006 0.0102118
827 4 0.462085 0.154475 0.0135541
554 4 0.0855619 0.196975 0.0373768
553 2 0.0845601 0.21376 0.0188715
555 4 0.0835584 0.230544 0.000366105
665 4 0.318585 0.197376 0.0284874
664 2 0.326268 0.219197 0.0379721
666 4 0.333951 0.241019 0.0474568
255 4 0.401024 0.242896 0.0806283
460 2 0.367381 0.250538 0.0720789
461 4 0.345072 0.24333 0.0633866
292 2 0.139387 0.309107 0.00107989
293 4 0.138039 0.331642 0.0118299
355 2 0.231303 0.288929 0.00616693
357 4 0.245146 0.308009 0.0145035
572 4 0.325873 0.249522 0.0629395
571 2 0.310046 0.251949 0.0821434
324 4 0.409653 0.259481 0.0768557
1069 2 0.414041 0.327966 0.0362483
956 4 0.391859 0.321995 0.00349495
955 2 0.368212 0.31488 0.999577
462 4 0.389689 0.257745 0.0807713
322 2 0.417653 0.280744 0.0664125
1070 4 0.43166 0.322012 0.0529601
323 4 0.425653 0.302008 0.0559694
282 4 0.493728 0.313851 0.0261065
280 2 0.471466 0.319476 0.0360033
281 4 0.449205 0.325102 0.0459001
552 4 0.0635612 0.38938 0.0229833
550 2 0.0518845 0.370643 0.0112463
551 4 0.0402077 0.351906 0.999509
507 4 0.140628 0.335695 0.0303576
505 2 0.154996 0.34227 0.0497358
288 4 0.12284 0.33821 0.0238767
287 4 0.102482 0.383393 0.0171811
286 2 0.112661 0.360801 0.0205289
483 4 0.18364 0.338339 0.0774808
506 4 0.169364 0.348845 0.069114
523 2 0.295558 0.397475 0.0732371
525 4 0.310998 0.383968 0.0589424
608 4 0.326387 0.370912 0.0608244
252 4 0.32726 0.385083 0.0483373
1071 4 0.396422 0.333921 0.0195365
251 4 0.345194 0.375468 0.00265759
250 2 0.336227 0.380276 0.0254974
607 2 0.338783 0.363552 0.0812542
671 4 0.445831 0.333484 0.0624188
315 4 0.0824281 0.434133 0.0409339
313 2 0.0612124 0.437158 0.0538147
314 4 0.0399967 0.440184 0.0666956
795 4 0.139082 0.491869 0.0160778
243 4 0.232943 0.491725 0.0663262
245 4 0.25128 0.496056 0.0721205
244 2 0.268115 0.496478 0.0536385
246 4 0.28495 0.496899 0.0351565
562 2 0.494639 0.489849 0.0541285
564 4 0.477552 0.472454 0.0596622
1666 2 0.0511509 0.0467776 0.0839747
1806 4 0.0625601 0.0316291 0.121912
1421 4 0.0422118 0.0328381 0.117206
1668 4 0.0529102 0.0405535 0.108127
1420 2 0.0309578 0.0434253 0.136864
1416 4 0.054139 0.0204121 0.109
1422 4 0.0197037 0.0540125 0.156522
2480 4 0.00988924 0.071195 0.160369
1804 2 0.0870567 0.0329363 0.126749
1805 4 0.111553 0.0342435 0.131585
690 4 0.227275 0.0322924 0.14514
688 2 0.228949 0.0529159 0.159177
652 2 0.320201 0.0730564 0.138584
653 4 0.319314 0.0773735 0.113972
654 4 0.321088 0.0687392 0.163196
757 2 0.399432 0.0264144 0.158109
758 4 0.412957 0.0267405 0.137082
485 4 0.376716 0.00850328 0.0987801
297 4 0.361132 0.0204924 0.0943137
235 2 0.145844 0.111278 0.150945
237 4 0.139109 0.122194 0.129482
737 4 0.147937 0.140611 0.12986
736 2 0.156024 0.159477 0.115583
1504 2 0.236082 0.111957 0.155073
285 4 0.239502 0.141777 0.125339
1506 4 0.244446 0.132134 0.142902
629 4 0.453388 0.162972 0.0805484
476 4 0.0828499 0.173257 0.159653
475 2 0.0948094 0.195101 0.157416
477 4 0.106769 0.216945 0.155179
738 4 0.164111 0.178343 0.101305
339 4 0.0965362 0.230064 0.16546
283 2 0.23937 0.165958 0.118981
284 4 0.239237 0.190139 0.112622
354 4 0.253731 0.204655 0.113451
352 2 0.264432 0.226208 0.106657
253 2 0.413894 0.227661 0.0957094
254 4 0.426763 0.212427 0.110791
630 4 0.424873 0.193014 0.108567
628 2 0.43913 0.177993 0.0945577
481 2 0.18362 0.322439 0.0967775
535 2 0.203393 0.296203 0.147931
536 4 0.201729 0.307124 0.1255
482 4 0.1836 0.306538 0.116074
353 4 0.275133 0.24776 0.0998639
573 4 0.294219 0.254376 0.101347
754 2 0.288793 0.279027 0.125575
755 4 0.279596 0.264946 0.107073
756 4 0.29799 0.293109 0.144077
610 2 0.305453 0.326449 0.161638
612 4 0.292424 0.305486 0.157643
278 4 0.297233 0.288016 0.163797
622 2 0.361073 0.318068 0.113823
624 4 0.360879 0.293699 0.119418
765 4 0.356567 0.288121 0.138364
763 2 0.356577 0.285738 0.163253
2650 2 0.497263 0.300235 0.115114
2652 4 0.478845 0.314499 0.124195
620 4 0.0126365 0.365697 0.152385
619 2 0.0159857 0.374083 0.129069
621 4 0.019335 0.382469 0.105753
454 2 0.117115 0.403519 0.14352
456 4 0.133217 0.38568 0.136613
626 4 0.250303 0.410012 0.102039
524 4 0.280117 0.410982 0.0875318
611 4 0.318482 0.347412 0.165634
387 4 0.327964 0.364438 0.158319
623 4 0.361268 0.342437 0.108228
385 2 0.342946 0.362684 0.138378
609 4 0.351178 0.356193 0.101684
740 4 0.37135 0.355621 0.106683
386 4 0.357928 0.360931 0.118437
739 2 0.395943 0.359915 0.108064
670 2 0.439765 0.346653 0.0827893
528 4 0.488211 0.333565 0.125374
741 4 0.420537 0.36421 0.109445
13 3 0.422931 0.357491 0.15494
672 4 0.433699 0.359822 0.10316
15 3 0.424741 0.394146 0.146528
11 1 0.43488 0.373943 0.143762
526 2 0.48199 0.352349 0.140659
12 3 0.43548 0.368771 0.121355
14 3 0.456614 0.374819 0.151842
495 4 0.473642 0.385261 0.154486
493 2 0.476168 0.40797 0.144333
527 4 0.475768 0.371133 0.155944
597 4 0.488689 0.382264 0.165221
1788 4 0.0338459 0.4749 0.117525
1787 4 0.0459423 0.43822 0.085762
1786 2 0.0398941 0.45656 0.101644
1466 4 0.0228654 0.47781 0.134176
1791 4 0.0317424 0.492335 0.12535
1465 2 0.000250236 0.470991 0.142376
455 4 0.101013 0.421357 0.150426
1440 4 0.237152 0.491813 0.0850607
625 2 0.245533 0.428116 0.118611
627 4 0.240763 0.446221 0.135184
1438 2 0.249716 0.491288 0.106672
639 4 0.270929 0.480801 0.142628
637 2 0.268875 0.461462 0.158343
1439 4 0.262281 0.490762 0.128283
1559 4 0.267069 0.499624 0.1458
494 4 0.478693 0.43068 0.13418
19 3 0.0211332 0.064158 0.169488
20 3 0.0428752 0.0577934 0.199562
16 1 0.034737 0.0738399 0.1856
675 4 0.0512613 0.040522 0.206893
17 3 0.0522952 0.0843973 0.175141
673 2 0.0646225 0.0194883 0.208953
674 4 0.0779836 0.998455 0.211013
450 4 0.136485 0.0415251 0.202282
448 2 0.145425 0.062807 0.192673
689 4 0.230622 0.0735393 0.173215
28 3 0.230736 0.0845548 0.184883
26 1 0.24327 0.079925 0.203853
27 3 0.231848 0.0647097 0.216783
582 4 0.320589 0.0789466 0.178766
580 2 0.300744 0.0698245 0.190938
581 4 0.2809 0.0607024 0.203111
30 3 0.263401 0.0710951 0.197901
311 4 0.33583 0.0664413 0.175411
759 4 0.385906 0.0260882 0.179137
310 2 0.354729 0.050237 0.177745
22 3 0.375812 0.045578 0.230903
312 4 0.373627 0.0340327 0.180078
25 3 0.385466 0.0341768 0.196701
21 1 0.391525 0.034079 0.218654
24 3 0.392627 0.0122578 0.226466
23 3 0.412115 0.044464 0.22123
744 4 0.426517 0.0589828 0.221865
742 2 0.440834 0.0733943 0.236442
18 3 0.0227037 0.0895335 0.197737
511 2 0.00619752 0.146168 0.23394
513 4 0.0302313 0.152669 0.23164
578 4 0.0479532 0.145454 0.238133
236 4 0.15258 0.100361 0.172408
449 4 0.154366 0.0840888 0.183064
723 4 0.150341 0.0985187 0.191237
721 2 0.145381 0.115753 0.208659
722 4 0.140422 0.132988 0.226082
546 4 0.151398 0.147668 0.232804
1505 4 0.227719 0.0917797 0.167243
692 4 0.215523 0.0842737 0.180284
691 2 0.191501 0.0912095 0.180411
693 4 0.167479 0.0981452 0.180538
29 3 0.246466 0.0993303 0.216167
743 4 0.455152 0.0878058 0.25102
351 4 0.467591 0.103082 0.245644
333 4 0.456377 0.156627 0.222196
331 2 0.469215 0.172374 0.236771
750 4 0.0473665 0.249809 0.169514
703 2 0.0127306 0.329662 0.175112
395 4 0.0403356 0.271768 0.233071
749 4 0.0494054 0.267975 0.21606
748 2 0.0483859 0.258892 0.192787
704 4 0.00824903 0.307842 0.18647
394 2 0.0234586 0.281943 0.24846
337 2 0.113923 0.247696 0.168921
338 4 0.131309 0.265329 0.172383
361 2 0.166451 0.268129 0.181287
363 4 0.144987 0.255698 0.184443
537 4 0.205058 0.285283 0.170362
362 4 0.187914 0.280559 0.178131
372 4 0.203764 0.270407 0.183323
370 2 0.22731 0.266725 0.19089
371 4 0.250855 0.263043 0.198456
279 4 0.270421 0.268146 0.20104
277 2 0.283827 0.278081 0.182419
344 4 0.263942 0.31426 0.232528
343 2 0.287601 0.308148 0.237828
345 4 0.311259 0.302037 0.243129
308 4 0.326176 0.29005 0.242641
307 2 0.342307 0.283365 0.224744
764 4 0.356587 0.283356 0.188143
309 4 0.358437 0.27668 0.206847
2692 2 0.00594284 0.389279 0.243917
705 4 0.0172122 0.351482 0.163755
648 4 0.0248431 0.367908 0.169362
2694 4 0.019339 0.402677 0.2276
647 4 0.0140365 0.396924 0.20863
646 2 0.0194398 0.382416 0.188996
603 4 0.0305648 0.405399 0.212436
768 4 0.216936 0.42015 0.208031
302 4 0.333666 0.355165 0.174004
614 4 0.379166 0.338632 0.23652
446 4 0.391658 0.338545 0.220538
729 4 0.338395 0.366158 0.2402
301 2 0.337774 0.363471 0.197227
303 4 0.341883 0.371777 0.22045
645 4 0.468204 0.376964 0.167425
445 2 0.414639 0.346984 0.215457
447 4 0.437621 0.355423 0.210376
643 2 0.461469 0.371329 0.190836
644 4 0.454735 0.365694 0.214247
263 4 0.0701369 0.46162 0.223021
601 2 0.0431696 0.426567 0.216701
602 4 0.0557744 0.447736 0.220966
262 2 0.0797176 0.484704 0.222287
415 2 0.148545 0.482777 0.186829
416 4 0.158268 0.462483 0.197728
413 4 0.156849 0.460828 0.21653
412 2 0.146933 0.458234 0.239336
291 4 0.17337 0.468203 0.207132
290 4 0.212322 0.43759 0.200329
289 2 0.192846 0.452896 0.20373
766 2 0.237055 0.422732 0.193411
638 4 0.266821 0.442123 0.174058
767 4 0.257173 0.425313 0.17879
660 4 0.345857 0.429413 0.192951
658 2 0.354825 0.432188 0.216125
659 4 0.363793 0.434963 0.239299
1799 4 0.0227788 0.00281231 0.261019
1404 4 0.0314173 0.0196027 0.262897
232 2 0.0199035 0.0569879 0.331492
233 4 0.019297 0.0662006 0.308256
1402 2 0.0221768 0.0383329 0.276644
1403 4 0.0129364 0.0570632 0.29039
317 4 0.0208495 0.0721879 0.290515
530 4 0.00464926 0.0709261 0.300654
1747 2 0.488164 0.00725178 0.306084
479 4 0.428891 0.0618538 0.323462
1749 4 0.486271 0.0310915 0.313382
480 4 0.475763 0.0444579 0.322394
478 2 0.452327 0.0531559 0.322928
2643 4 0.491743 0.0377007 0.330959
577 2 0.0512772 0.134204 0.260213
316 2 0.0394399 0.0889056 0.290208
318 4 0.0580302 0.105623 0.2899
397 2 0.0530465 0.13891 0.31799
579 4 0.0546012 0.122953 0.282294
398 4 0.0585483 0.123717 0.298908
731 4 0.0718144 0.115558 0.287533
544 2 0.161328 0.141294 0.254848
732 4 0.115949 0.0930278 0.294258
600 4 0.132601 0.0899896 0.305632
730 2 0.0938818 0.104293 0.290896
598 2 0.150723 0.104596 0.296498
599 4 0.168845 0.119202 0.287364
545 4 0.171258 0.13492 0.276892
392 4 0.186251 0.130009 0.287706
391 2 0.207094 0.140528 0.296656
393 4 0.227937 0.151047 0.305605
247 2 0.318504 0.120759 0.290075
249 4 0.308607 0.113576 0.311884
404 4 0.300597 0.127715 0.32158
403 2 0.293271 0.150162 0.329803
248 4 0.3284 0.127941 0.268266
633 4 0.394928 0.153719 0.295113
707 4 0.383827 0.139839 0.30417
706 2 0.363079 0.151692 0.311534
708 4 0.342332 0.163545 0.318897
631 2 0.417488 0.142986 0.294101
632 4 0.440047 0.132252 0.293089
349 2 0.463207 0.116136 0.266513
350 4 0.458822 0.12919 0.287383
452 4 0.45459 0.137643 0.30448
451 2 0.465036 0.130721 0.326116
444 4 0.0134225 0.244278 0.310647
2655 4 0.999601 0.234114 0.320277
332 4 0.482052 0.18812 0.251346
521 4 0.490771 0.187449 0.267403
762 4 0.472694 0.190721 0.270223
760 2 0.456079 0.201154 0.285725
761 4 0.439464 0.211586 0.301226
419 4 0.437732 0.22627 0.315861
443 4 0.000150871 0.282143 0.280801
396 4 0.00658168 0.292118 0.263849
442 2 0.00678668 0.263211 0.295724
300 4 0.11086 0.322431 0.258117
298 2 0.11913 0.306623 0.275636
733 2 0.149972 0.299925 0.328845
734 4 0.13384 0.291053 0.311927
299 4 0.127399 0.290815 0.293154
400 2 0.221445 0.306186 0.319665
401 4 0.204778 0.314671 0.303069
402 4 0.238111 0.297701 0.33626
498 4 0.309844 0.277603 0.304579
377 4 0.290507 0.283278 0.30432
496 2 0.31566 0.287157 0.282216
497 4 0.321475 0.296712 0.259854
376 2 0.270481 0.283262 0.31929
378 4 0.250454 0.283247 0.334261
613 2 0.38167 0.334382 0.261032
543 4 0.40272 0.322469 0.286595
615 4 0.384174 0.330132 0.285544
541 2 0.424965 0.317656 0.296947
542 4 0.44721 0.312843 0.307299
2536 2 0.483026 0.319052 0.282965
2538 4 0.462407 0.318531 0.297098
2924 4 0.464941 0.315974 0.315579
727 2 0.321773 0.376326 0.255868
728 4 0.305151 0.386495 0.271536
434 4 0.300492 0.373287 0.285911
433 2 0.301722 0.376938 0.310616
435 4 0.302952 0.38059 0.335321
549 4 0.035123 0.46808 0.321316
547 2 0.0584541 0.459782 0.324777
548 4 0.0817853 0.451484 0.328239
2463 4 0.0168067 0.4589 0.323274
777 4 0.119919 0.450496 0.27296
775 2 0.106866 0.454916 0.293824
414 4 0.137017 0.45564 0.262143
776 4 0.0938136 0.459335 0.314687
407 4 0.0979969 0.446126 0.328142
500 4 0.0956937 0.464022 0.333907
436 2 0.309297 0.479131 0.281661
438 4 0.312261 0.491225 0.303344
3 3 0.327333 0.487037 0.315083
437 4 0.306332 0.467038 0.259978
4 3 0.362822 0.474374 0.310128
714 4 0.407248 0.481219 0.328475
1 1 0.348132 0.484406 0.325026
712 2 0.412591 0.456945 0.3312
234 4 0.0205101 0.0477752 0.354729
369 4 0.0764064 0.0684267 0.407145
1780 2 0.0923397 0.014475 0.365456
1781 4 0.0987773 0.0386065 0.366643
368 4 0.100464 0.0585729 0.364426
367 2 0.0884351 0.0634998 0.385785
319 2 0.231945 0.0820805 0.374187
320 4 0.252037 0.0717532 0.36347
441 4 0.25806 0.00869811 0.376055
257 4 0.386031 0.0188812 0.37249
256 2 0.397494 0.0304793 0.391444
258 4 0.408957 0.0420774 0.410398
576 4 0.39167 0.0753989 0.408209
399 4 0.0475447 0.154102 0.337071
458 4 0.0124976 0.160703 0.360996
459 4 0.0453655 0.124909 0.372793
457 2 0.0289316 0.142806 0.366894
321 4 0.211853 0.0924078 0.384903
683 4 0.296913 0.11043 0.328445
682 2 0.281507 0.0956637 0.341476
684 4 0.266101 0.080898 0.354507
574 2 0.409116 0.0932961 0.408928
575 4 0.426562 0.111193 0.409647
453 4 0.475482 0.123799 0.347753
514 2 0.453854 0.116192 0.381065
515 4 0.465629 0.110261 0.35982
516 4 0.44208 0.122124 0.40231
388 2 0.0306911 0.23988 0.389902
389 4 0.049213 0.230141 0.403587
687 4 0.151182 0.182716 0.349806
685 2 0.167789 0.197316 0.361478
686 4 0.184396 0.211915 0.37315
275 4 0.226977 0.244423 0.377317
405 4 0.285946 0.17261 0.338027
474 4 0.275275 0.186488 0.347345
472 2 0.271878 0.198303 0.369118
473 4 0.268482 0.210117 0.390891
489 4 0.263901 0.223304 0.403579
410 4 0.266733 0.203949 0.408994
487 2 0.266321 0.246501 0.412589
269 4 0.428699 0.247296 0.377314
418 2 0.435729 0.238577 0.337534
268 2 0.424937 0.226977 0.391392
270 4 0.421176 0.206659 0.40547
420 4 0.433726 0.250883 0.359207
390 4 0.0121692 0.249619 0.376217
346 2 0.050515 0.333737 0.381984
348 4 0.0496619 0.315375 0.398934
735 4 0.166105 0.308796 0.345762
677 4 0.181467 0.321333 0.350626
276 4 0.235141 0.280951 0.344155
676 2 0.178851 0.319572 0.37543
678 4 0.176235 0.317812 0.400234
274 2 0.231059 0.262687 0.360736
375 4 0.187744 0.306605 0.413578
510 4 0.249935 0.295622 0.348086
508 2 0.258193 0.31597 0.36004
716 4 0.402072 0.308701 0.356209
715 2 0.411867 0.286181 0.360908
2923 2 0.46389 0.33119 0.335391
717 4 0.421661 0.26366 0.365606
617 4 0.00533574 0.372528 0.339755
616 2 0.0293784 0.368702 0.345455
618 4 0.0534211 0.364877 0.351155
326 4 0.0644169 0.366184 0.367734
347 4 0.0513682 0.352099 0.365035
325 2 0.0862017 0.374216 0.358455
327 4 0.107987 0.382247 0.349176
408 4 0.107443 0.401986 0.349663
509 4 0.266452 0.336319 0.371994
503 4 0.277417 0.353639 0.375563
502 2 0.276214 0.349439 0.400182
753 4 0.409737 0.382017 0.358574
587 4 0.389727 0.377476 0.357187
586 2 0.372065 0.394454 0.362187
588 4 0.354403 0.411432 0.367187
751 2 0.433083 0.373102 0.359382
561 4 0.453091 0.347976 0.371743
752 4 0.456429 0.364187 0.360191
559 2 0.468509 0.345861 0.391313
2925 4 0.462839 0.346407 0.355204
560 4 0.483926 0.343745 0.410884
1383 4 0.0445669 0.483833 0.384712
680 4 0.0290759 0.483776 0.398658
501 4 0.126904 0.491764 0.36142
406 2 0.10272 0.424056 0.338903
499 2 0.111299 0.477893 0.347664
669 4 0.354615 0.468867 0.361771
5 3 0.34621 0.471671 0.343809
667 2 0.354824 0.446193 0.372307
668 4 0.355033 0.423518 0.382843
713 4 0.417935 0.432672 0.333925
2238 4 0.00237847 0.0480139 0.419799
718 2 0.0756602 0.0583072 0.439495
720 4 0.0597351 0.0548128 0.458451
2236 2 0.0222866 0.0484558 0.43492
2237 4 0.0421948 0.0488977 0.450041
1127 4 0.042552 0.0556306 0.467737
1126 2 0.0511557 0.065621 0.488982
719 4 0.0915853 0.0618015 0.420538
605 4 0.223451 0.0167257 0.463755
604 2 0.243749 0.0221701 0.477301
606 4 0.264048 0.0276146 0.490848
426 4 0.402264 0.0276684 0.422879
424 2 0.411847 0.03762 0.44372
425 4 0.421429 0.0475715 0.46456
259 2 0.045984 0.123834 0.494784
260 4 0.0247065 0.115177 0.484909
466 2 0.302803 0.151201 0.459754
467 4 0.279587 0.159298 0.455209
468 4 0.326018 0.143104 0.464299
725 4 0.326543 0.123896 0.469572
724 2 0.333074 0.107953 0.487693
2880 4 0.472067 0.0908775 0.483405
2879 4 0.485375 0.132286 0.458728
2878 2 0.478721 0.111582 0.471066
411 4 0.280733 0.17837 0.449619
409 2 0.273733 0.191159 0.429306
872 4 0.352394 0.232757 0.494885
3157 2 0.478908 0.196779 0.48196
3159 4 0.464498 0.185677 0.464805
305 4 0.448411 0.17971 0.455457
306 4 0.431413 0.213008 0.422246
304 2 0.439912 0.196359 0.438851
3158 4 0.493317 0.20788 0.499115
695 4 0.156699 0.250802 0.446446
694 2 0.151384 0.268146 0.463654
696 4 0.14607 0.285489 0.480863
10 3 0.14234 0.301322 0.486438
6 1 0.134985 0.322744 0.48406
7 3 0.132439 0.32744 0.461686
9 3 0.114493 0.325299 0.494641
1260 4 0.156915 0.296343 0.496295
983 4 0.0979106 0.322295 0.484806
373 2 0.195927 0.294914 0.43411
374 4 0.20411 0.283223 0.454641
266 4 0.263556 0.282744 0.436293
265 2 0.270163 0.306825 0.437578
267 4 0.27677 0.330905 0.438864
488 4 0.268741 0.269699 0.421599
584 4 0.469819 0.262585 0.456558
2456 4 0.485926 0.274872 0.45651
583 2 0.446191 0.259074 0.463946
585 4 0.422564 0.255563 0.471335
568 2 0.0793447 0.390882 0.446887
569 4 0.0763142 0.411352 0.460923
384 4 0.0583187 0.416226 0.464136
570 4 0.0823752 0.370412 0.432852
8 3 0.150462 0.337478 0.493104
711 4 0.163188 0.352862 0.496305
709 2 0.185986 0.34746 0.487574
804 4 0.241339 0.400874 0.490529
710 4 0.208784 0.342058 0.478842
803 4 0.224261 0.355484 0.47833
802 2 0.2328 0.378179 0.484429
650 4 0.225868 0.337941 0.484866
504 4 0.275011 0.34524 0.424801
336 4 0.355893 0.417876 0.463046
240 4 0.413172 0.382476 0.474796
334 2 0.375306 0.403462 0.469416
335 4 0.394718 0.389048 0.475787
3308 4 0.501838 0.362701 0.482677
2507 4 0.474902 0.359452 0.42029
238 2 0.431711 0.383184 0.491559
3307 2 0.485416 0.373654 0.498024
2506 2 0.488368 0.357845 0.441296
383 4 0.0215914 0.447263 0.450406
681 4 0.0293777 0.464918 0.444972
539 4 0.0724704 0.419673 0.478151
382 2 0.039955 0.431744 0.457271
679 2 0.0292268 0.474347 0.421815
538 2 0.0941247 0.4278 0.487649
540 4 0.115779 0.435927 0.497148
1557 4 0.197734 0.492014 0.42746
636 4 0.199345 0.477423 0.43938
634 2 0.189301 0.471764 0.461567
635 4 0.179257 0.466105 0.483755
880 2 0.330063 0.444047 0.44915
1453 2 0.28782 0.467442 0.479644
882 4 0.308817 0.457227 0.449363
1454 4 0.297187 0.45075 0.463556
881 4 0.351309 0.430866 0.448936
1128 4 0.0597594 0.0756114 0.510227
939 4 0.0764529 0.0737552 0.523917
1057 2 0.143128 0.0556943 0.562784
1059 4 0.13338 0.0785792 0.56025
937 2 0.0983742 0.0752532 0.53585
938 4 0.120295 0.0767511 0.547782
1058 4 0.152877 0.0328094 0.565319
341 4 0.211193 0.00201144 0.539205
340 2 0.220512 0.0250718 0.541765
342 4 0.229832 0.0481321 0.544324
1182 4 0.235134 0.0562865 0.527563
1152 4 0.219768 0.0627864 0.536806
1150 2 0.202206 0.075677 0.524535
961 2 0.293381 0.0590175 0.577732
963 4 0.283328 0.0755972 0.561945
1180 2 0.255846 0.0676955 0.535687
1181 4 0.276559 0.0791045 0.543811
842 4 0.377932 0.0597931 0.524239
841 2 0.360098 0.0773184 0.524173
1217 4 0.393678 0.0530436 0.534139
1581 4 0.380224 0.0408472 0.527501
1579 2 0.377328 0.0201245 0.513812
1580 4 0.374432 0.999402 0.500124
1216 2 0.417696 0.0599743 0.533591
1218 4 0.441713 0.0669049 0.533044
641 4 0.460028 0.0656247 0.540717
640 2 0.469617 0.0793235 0.522127
261 4 0.0672614 0.132491 0.504658
1035 4 0.0653572 0.141763 0.522514
1033 2 0.0661294 0.154476 0.544031
1034 4 0.0669016 0.167189 0.565547
1155 4 0.134077 0.0868385 0.540174
1153 2 0.151646 0.0931198 0.523529
1154 4 0.169215 0.099401 0.506883
1151 4 0.184644 0.0885675 0.512264
432 4 0.289492 0.0913381 0.551392
430 2 0.307379 0.0890819 0.534068
431 4 0.325266 0.0868258 0.516743
843 4 0.342264 0.0948436 0.524106
726 4 0.339605 0.0920101 0.505813
642 4 0.479206 0.0930223 0.503538
858 4 0.21253 0.177114 0.54564
857 4 0.218826 0.217723 0.574135
856 2 0.215678 0.197418 0.559888
898 2 0.377419 0.186036 0.557632
900 4 0.400507 0.190631 0.549205
899 4 0.354332 0.181441 0.56606
871 2 0.334455 0.24705 0.504839
3065 4 0.474697 0.252887 0.548181
3064 2 0.481413 0.237059 0.530027
3066 4 0.488128 0.221232 0.511873
982 2 0.0823193 0.328811 0.503236
1258 2 0.170502 0.287145 0.515162
1259 4 0.184089 0.277947 0.534029
649 2 0.23436 0.325884 0.505058
651 4 0.242852 0.313827 0.525249
873 4 0.316516 0.261343 0.514793
811 2 0.285054 0.318255 0.526468
812 4 0.261509 0.30987 0.527189
1239 4 0.321378 0.31203 0.521676
813 4 0.308599 0.326639 0.525748
1237 2 0.334738 0.296003 0.535454
952 2 0.387808 0.280567 0.568565
954 4 0.410562 0.278619 0.578747
1238 4 0.348097 0.279976 0.549232
953 4 0.365054 0.282516 0.558384
792 4 0.348947 0.282653 0.569177
905 4 0.466058 0.255962 0.565778
904 2 0.447322 0.268143 0.576994
1136 4 0.0845435 0.339433 0.532533
984 4 0.0667279 0.335327 0.521665
1135 2 0.089498 0.354017 0.552229
1137 4 0.0944526 0.3686 0.571925
896 4 0.138298 0.408331 0.554826
895 2 0.121599 0.395528 0.56833
1191 4 0.150624 0.398747 0.540872
1189 2 0.151882 0.37762 0.527559
1190 4 0.15314 0.356493 0.514246
1161 4 0.1574 0.409533 0.555146
897 4 0.104899 0.382725 0.581835
2243 4 0.146106 0.415187 0.539398
1159 2 0.175927 0.404042 0.571013
925 2 0.444844 0.379959 0.545916
926 4 0.45461 0.391057 0.52575
3309 4 0.468994 0.384606 0.513372
927 4 0.435079 0.368862 0.566082
239 4 0.45025 0.383891 0.508322
663 4 0.459523 0.400928 0.51266
1001 4 0.418458 0.369754 0.577387
2242 2 0.134661 0.432165 0.525047
2244 4 0.123215 0.449142 0.510697
772 2 0.171319 0.493351 0.513613
774 4 0.16672 0.476089 0.49612
1171 2 0.290289 0.45524 0.577751
1172 4 0.314208 0.452885 0.570857
1455 4 0.278452 0.484135 0.495731
2153 4 0.277857 0.485005 0.516042
2152 2 0.254576 0.493771 0.518563
929 4 0.328659 0.441605 0.575724
891 4 0.330933 0.462011 0.57315
889 2 0.342074 0.484375 0.574102
928 2 0.343721 0.421951 0.579189
1909 2 0.396969 0.494773 0.575721
1330 2 0.41626 0.462129 0.509998
1331 4 0.39165 0.466024 0.512084
661 2 0.45677 0.425493 0.516421
662 4 0.454018 0.450059 0.520182
1332 4 0.44087 0.458234 0.507912
2319 4 0.0418518 0.0263163 0.607076
2317 2 0.0369274 0.00205975 0.603534
945 4 0.0334954 0.0392553 0.593307
943 2 0.01836 0.0582177 0.587263
944 4 0.00322453 0.0771801 0.58122
2131 2 0.227405 0.00298126 0.655235
2132 4 0.251153 0.0103348 0.652567
949 2 0.277347 0.0314464 0.626042
962 4 0.303434 0.0424378 0.593519
950 4 0.297628 0.0365814 0.612348
2196 4 0.30901 0.026389 0.601265
951 4 0.257067 0.0263113 0.639735
2194 2 0.333626 0.0226739 0.59894
1005 4 0.318408 0.0302694 0.664333
2195 4 0.358243 0.0189588 0.596616
1003 2 0.340189 0.0179923 0.664325
1004 4 0.361971 0.00571509 0.664317
87 3 0.364908 0.00520139 0.582498
2283 4 0.442391 0.0112011 0.655207
1083 4 0.0119838 0.0892712 0.595439
1272 4 0.0640202 0.161657 0.601768
879 4 0.0579154 0.163973 0.583083
1221 4 0.128978 0.15122 0.598694
1270 2 0.0886586 0.161719 0.59751
1219 2 0.150252 0.162212 0.60589
1271 4 0.113297 0.161782 0.593253
1283 4 0.187116 0.0963141 0.653539
1031 4 0.245125 0.121215 0.62579
1284 4 0.23058 0.110295 0.633138
1282 2 0.208848 0.103304 0.643338
1211 4 0.221097 0.15776 0.659611
1210 2 0.202302 0.163313 0.644084
1030 2 0.263707 0.104497 0.62643
1032 4 0.282289 0.0877801 0.627069
809 4 0.469359 0.105206 0.652532
810 4 0.450593 0.145991 0.630506
808 2 0.459976 0.125598 0.641519
45 3 0.457634 0.0961436 0.66672
878 4 0.0112336 0.176608 0.595807
877 2 0.0345745 0.17029 0.589445
1212 4 0.183507 0.168867 0.628557
1220 4 0.171526 0.173203 0.613086
796 2 0.173127 0.210532 0.631685
798 4 0.175203 0.186103 0.626777
797 4 0.17105 0.234961 0.636594
947 4 0.187231 0.244638 0.630257
1025 4 0.462865 0.227207 0.620601
1024 2 0.487532 0.230101 0.623493
1243 2 0.0365463 0.282338 0.65071
1244 4 0.0336738 0.295096 0.629399
3044 4 0.0287918 0.282912 0.612911
3043 2 0.0114212 0.267756 0.603229
948 4 0.228214 0.261208 0.606878
946 2 0.207723 0.252923 0.618567
791 4 0.32523 0.25948 0.60661
790 2 0.337089 0.271067 0.587893
906 4 0.428586 0.280323 0.588209
1040 4 0.0677703 0.357404 0.63163
993 4 0.0671054 0.373895 0.643679
1039 2 0.0786047 0.365852 0.610738
3262 2 0.0124733 0.416911 0.644193
991 2 0.0616362 0.379127 0.66751
1041 4 0.0894391 0.374299 0.589847
1160 4 0.194454 0.398551 0.586881
1000 2 0.397789 0.382766 0.582739
930 4 0.358783 0.402297 0.582654
807 4 0.372358 0.395648 0.649777
1002 4 0.37712 0.395779 0.588091
805 2 0.368571 0.398526 0.62523
806 4 0.364784 0.401404 0.600683
3263 4 0.03043 0.423147 0.660437
1173 4 0.266371 0.457596 0.584646
1187 4 0.256685 0.454471 0.601621
1188 4 0.268541 0.431742 0.644557
1186 2 0.262613 0.443107 0.623089
1140 4 0.268015 0.439109 0.663153
1910 4 0.420271 0.486294 0.578932
1269 4 0.450566 0.443389 0.607878
1267 2 0.450387 0.440619 0.632727
1268 4 0.450208 0.437849 0.657576
1100 4 0.462619 0.44792 0.666895
908 4 0.155803 0.0797568 0.70455
43 3 0.450183 0.060674 0.67692
42 3 0.477719 0.0799799 0.693706
1162 2 0.488592 0.0514764 0.722422
1163 4 0.484783 0.0727721 0.709886
1164 4 0.492401 0.0301807 0.734959
2321 4 0.490497 0.0145442 0.744724
41 1 0.456804 0.0816612 0.684276
34 3 0.14287 0.145609 0.750581
909 4 0.181802 0.105655 0.670579
907 2 0.168803 0.0927059 0.687564
1227 4 0.168787 0.0848225 0.719159
1225 2 0.178041 0.0861371 0.74235
831 4 0.291208 0.125828 0.744301
1299 4 0.292301 0.114303 0.728945
1297 2 0.305597 0.103524 0.710718
1298 4 0.318892 0.0927442 0.692492
839 4 0.286904 0.10618 0.744339
829 2 0.281712 0.14693 0.734831
1194 4 0.398153 0.156012 0.724797
44 3 0.441958 0.0894867 0.700299
3426 4 0.494628 0.0826986 0.705212
852 4 0.0234726 0.226053 0.732099
850 2 0.0398781 0.207373 0.734762
1208 4 0.0251691 0.233442 0.714972
1207 2 0.0331585 0.240831 0.692461
851 4 0.0562837 0.188693 0.737426
1107 4 0.0660917 0.172927 0.731152
1178 4 0.0244475 0.24276 0.733912
3038 4 0.0101071 0.232651 0.726502
1215 4 0.0114043 0.232383 0.74534
1209 4 0.041148 0.248221 0.66995
1105 2 0.0892728 0.181327 0.735306
1106 4 0.112454 0.189727 0.73946
35 3 0.125377 0.178907 0.752278
888 4 0.226548 0.164739 0.678573
886 2 0.244801 0.17052 0.694652
830 4 0.272216 0.168033 0.725361
887 4 0.263055 0.176301 0.710732
976 2 0.286744 0.203128 0.716466
978 4 0.270801 0.186618 0.726387
977 4 0.302686 0.219638 0.706545
918 4 0.308069 0.237185 0.716533
1192 2 0.390253 0.173445 0.740886
1245 4 0.0394188 0.269579 0.672021
814 2 0.0811239 0.299324 0.730613
1177 2 0.0398041 0.260765 0.741984
816 4 0.0746883 0.279871 0.744942
815 4 0.0875594 0.318777 0.716283
941 4 0.149824 0.315288 0.70005
940 2 0.127901 0.321161 0.710541
942 4 0.105978 0.327034 0.721032
1067 4 0.162926 0.330659 0.701267
821 4 0.168354 0.312782 0.705424
820 2 0.177866 0.290049 0.70119
822 4 0.187378 0.267317 0.696955
916 2 0.315743 0.252439 0.734798
917 4 0.323417 0.267693 0.753063
893 4 0.0656101 0.373094 0.703592
1280 4 0.0472626 0.375632 0.707619
892 2 0.0769944 0.353415 0.713999
1279 2 0.0430635 0.398693 0.716323
992 4 0.0561669 0.384358 0.691341
894 4 0.0883786 0.333736 0.724407
1066 2 0.18383 0.343585 0.696668
1028 4 0.20515 0.369199 0.675538
1027 2 0.210994 0.392879 0.681044
1068 4 0.204733 0.356511 0.692068
1206 4 0.409976 0.406081 0.736799
3329 4 0.497428 0.403837 0.746656
1204 2 0.422314 0.384343 0.736174
1205 4 0.434653 0.362604 0.735549
2987 4 0.478711 0.398889 0.748266
1982 4 0.00200115 0.469753 0.692848
1281 4 0.0388645 0.421753 0.725027
1983 4 0.0250571 0.435008 0.72045
1981 2 0.0135291 0.45238 0.706649
1029 4 0.216838 0.416558 0.68655
1139 4 0.228556 0.43145 0.692903
1138 2 0.248285 0.43528 0.678028
1987 2 0.33299 0.427474 0.745857
1230 4 0.409684 0.424349 0.728517
1228 2 0.385115 0.428985 0.728651
1229 4 0.360545 0.433621 0.728785
1989 4 0.347005 0.418727 0.727088
2169 4 0.410034 0.454177 0.699753
2168 4 0.444662 0.456058 0.663724
2167 2 0.427348 0.455117 0.681738
1099 2 0.481722 0.442865 0.682215
3135 4 0.0384691 0.0555126 0.828777
786 4 0.0341634 0.0750134 0.828482
1202 4 0.152669 0.0206827 0.800083
1201 2 0.138962 0.028604 0.819436
2049 4 0.16079 0.0144404 0.783617
1147 2 0.202123 0.082672 0.800172
1257 4 0.235387 0.0720013 0.817595
1148 4 0.183443 0.0811171 0.783625
1255 2 0.258395 0.0756576 0.808514
1256 4 0.281403 0.0793138 0.799434
973 2 0.383734 0.0064139 0.768986
975 4 0.399087 0.0219333 0.781177
1113 4 0.409332 0.0263944 0.798699
1111 2 0.414225 0.0406573 0.818644
3479 4 0.482861 0.0699199 0.820793
845 4 0.472364 0.0844188 0.828198
834 4 0.00120632 0.131599 0.815186
785 4 0.00952963 0.117927 0.821248
1124 4 0.0101519 0.135427 0.831793
784 2 0.0218465 0.0964701 0.824865
1149 4 0.220803 0.0842269 0.81672
1226 4 0.187296 0.0874517 0.76554