ITEM: TIMESTEP
3070000
ITEM: NUMBER OF ATOMS
4590
ITEM: BOX BOUNDS pp pp pp
-9.9985700000000008e+00 9.9985700000000008e+00
-9.9985700000000008e+00 9.9985700000000008e+00
-9.9985700000000008e+00 9.9985700000000008e+00
ITEM: ATOMS id type xs ys zs
463 2 0.0417545 0.0240398 0.0387523
465 4 0.0379296 0.0418347 0.0558955
1667 4 0.0376187 0.0478487 0.0739774
701 4 0.0479124 0.0572973 0.0640112
590 4 0.0301077 0.0569039 0.0570373
589 2 0.0140941 0.0731073 0.0467323
464 4 0.0455793 0.00624483 0.0216091
700 2 0.0715815 0.0650471 0.0662224
702 4 0.0952507 0.072797 0.0684336
995 4 0.150122 0.0755473 0.00877381
567 4 0.168009 0.0780684 0.012345
490 2 0.354639 0.0147737 0.0141919
491 4 0.351057 0.0218328 0.0379094
557 4 0.369064 0.0278719 0.0409623
296 4 0.359894 0.0212087 0.0558836
556 2 0.386071 0.0451786 0.0469959
295 2 0.352213 0.00526138 0.0735431
558 4 0.403078 0.0624854 0.0530295
746 4 0.419489 0.0522135 0.0585493
745 2 0.439762 0.0581631 0.0451779
747 4 0.460035 0.0641127 0.0318064
2975 4 0.475102 0.076903 0.0256139
591 4 0.99808 0.0893106 0.0364272
566 4 0.165262 0.0980391 0.058109
422 4 0.146454 0.0947014 0.061716
565 2 0.166636 0.0880537 0.035227
423 4 0.0966622 0.092333 0.0657037
421 2 0.121558 0.0935172 0.0637099
360 4 0.318666 0.133642 0.0345085
358 2 0.335033 0.127616 0.0165918
1012 2 0.489805 0.149193 0.0178452
827 4 0.452355 0.157853 0.0201915
2974 2 0.490493 0.0956814 0.0196423
1013 4 0.470194 0.164696 0.017369
554 4 0.0559577 0.224035 0.0507766
553 2 0.0596391 0.238024 0.0303822
771 4 0.451128 0.182806 0.0792375
769 2 0.454435 0.178208 0.0548838
770 4 0.457742 0.17361 0.03053
555 4 0.0633204 0.252013 0.00998777
836 4 0.0842997 0.253379 0.0109843
292 2 0.131314 0.320094 0.0190065
835 2 0.106022 0.265111 0.00702001
294 4 0.135714 0.297268 0.00979865
837 4 0.127744 0.276842 0.00305572
355 2 0.21377 0.279585 0.0272732
356 4 0.198031 0.278135 0.00789911
914 4 0.187643 0.262238 0.00247656
357 4 0.229509 0.281036 0.0466474
666 4 0.322471 0.265056 0.0636941
665 4 0.286534 0.256564 0.0299726
664 2 0.304502 0.26081 0.0468333
461 4 0.340224 0.272261 0.0623051
324 4 0.401409 0.271683 0.0627377
460 2 0.364059 0.266322 0.0576369
462 4 0.387894 0.260383 0.0529687
255 4 0.398529 0.252792 0.0670187
322 2 0.413013 0.293661 0.0600022
955 2 0.368863 0.319264 0.999979
323 4 0.424618 0.315639 0.0572666
281 4 0.442323 0.318811 0.0521863
280 2 0.462842 0.318761 0.037898
282 4 0.48336 0.318711 0.0236097
671 4 0.430648 0.333294 0.0611969
1070 4 0.429253 0.330398 0.044566
315 4 0.0647846 0.391907 0.0504992
313 2 0.0718303 0.414469 0.0586518
328 2 0.000455102 0.358333 0.00623498
287 4 0.0868034 0.388175 0.999607
293 4 0.126914 0.34292 0.0282143
507 4 0.128899 0.355122 0.0424793
505 2 0.136704 0.35032 0.0657429
288 4 0.120157 0.360388 0.0244273
286 2 0.10348 0.374281 0.012017
523 2 0.308032 0.384146 0.051682
524 4 0.283178 0.38681 0.0523021
626 4 0.27064 0.402761 0.0570237
525 4 0.332885 0.381481 0.0510619
625 2 0.265715 0.416046 0.0776255
956 4 0.382192 0.336706 0.011951
1069 2 0.413179 0.339763 0.0278604
608 4 0.336302 0.376088 0.069029
252 4 0.343263 0.367889 0.0515487
250 2 0.362392 0.36022 0.037391
251 4 0.381521 0.352551 0.0232333
1071 4 0.397104 0.349128 0.0111547
670 2 0.431378 0.345037 0.0832592
1787 4 0.0692416 0.454151 0.0689846
314 4 0.078876 0.437032 0.0668044
793 2 0.145906 0.482989 0.0534337
795 4 0.134382 0.477287 0.0319895
1224 4 0.132371 0.46934 0.0140842
794 4 0.157431 0.48869 0.0748778
242 4 0.17192 0.498687 0.0672231
1666 2 0.0361722 0.0321509 0.0933852
1806 4 0.0477465 0.00812457 0.124415
1421 4 0.0372247 0.0186497 0.132846
1668 4 0.0347257 0.016453 0.112793
1420 2 0.0306494 0.034191 0.151296
1416 4 0.0279944 0.00471528 0.123065
1804 2 0.0722565 0.003181 0.124425
448 2 0.136191 0.0643737 0.161003
688 2 0.226994 0.0616093 0.132032
690 4 0.232335 0.0433556 0.115801
689 4 0.221652 0.079863 0.148263
1475 4 0.243482 0.0260593 0.111293
652 2 0.297207 0.0339721 0.13873
653 4 0.296589 0.0436641 0.115689
654 4 0.297825 0.0242802 0.16177
1474 2 0.25462 0.00370116 0.110187
449 4 0.146131 0.0852611 0.151511
235 2 0.148443 0.106833 0.12163
237 4 0.148087 0.11241 0.0972586
737 4 0.144857 0.131373 0.0913705
236 4 0.148799 0.101255 0.146001
736 2 0.138352 0.15543 0.0934002
693 4 0.163964 0.0939854 0.154238
692 4 0.212712 0.0842918 0.159747
691 2 0.188338 0.0891386 0.156992
1505 4 0.230669 0.091831 0.153494
1504 2 0.237797 0.115068 0.147628
1506 4 0.244925 0.138305 0.141763
285 4 0.236196 0.149563 0.127809
738 4 0.131846 0.179487 0.0954298
283 2 0.240632 0.174006 0.124974
284 4 0.245068 0.198449 0.122139
354 4 0.262065 0.208957 0.128578
352 2 0.273856 0.231004 0.128821
253 2 0.409832 0.240644 0.0857237
629 4 0.452869 0.178305 0.0988473
630 4 0.437316 0.222994 0.115023
254 4 0.421134 0.228497 0.104429
628 2 0.445092 0.200649 0.106935
482 4 0.142841 0.331552 0.141608
536 4 0.132687 0.331332 0.159316
353 4 0.285646 0.253052 0.129064
573 4 0.302425 0.257989 0.119041
755 4 0.299664 0.263483 0.13758
754 2 0.29921 0.283451 0.152621
571 2 0.317351 0.26242 0.0994758
572 4 0.332276 0.26685 0.0799108
622 2 0.355587 0.3267 0.129655
624 4 0.352966 0.301867 0.130934
765 4 0.357122 0.290367 0.146363
13 3 0.460095 0.333326 0.122723
481 2 0.15162 0.342004 0.120659
483 4 0.160399 0.352456 0.0997104
506 4 0.14451 0.345518 0.0890065
387 4 0.31704 0.382609 0.163109
385 2 0.335889 0.37611 0.148021
607 2 0.345377 0.370991 0.0917633
623 4 0.358208 0.351533 0.128377
609 4 0.354452 0.365894 0.114498
740 4 0.370076 0.366108 0.126338
386 4 0.354738 0.36961 0.132933
739 2 0.394749 0.366388 0.122296
741 4 0.419422 0.366667 0.118254
672 4 0.432109 0.35678 0.105322
11 1 0.449943 0.351309 0.133304
12 3 0.437673 0.36309 0.117817
14 3 0.46608 0.365331 0.142327
495 4 0.477424 0.380537 0.146178
493 2 0.469082 0.401118 0.134689
527 4 0.486202 0.368713 0.14407
15 3 0.436074 0.343831 0.149746
597 4 0.494055 0.38282 0.154947
645 4 0.479864 0.369557 0.157072
1465 2 0.00275467 0.468091 0.115184
1786 2 0.0538607 0.460501 0.0876471
1788 4 0.0384798 0.46685 0.10631
1466 4 0.0238483 0.479171 0.107603
1791 4 0.0420594 0.485868 0.110858
638 4 0.240732 0.449184 0.156682
627 4 0.26079 0.429331 0.0982273
1439 4 0.254187 0.497403 0.128547
639 4 0.25981 0.494163 0.146021
637 2 0.250271 0.471673 0.151351
659 4 0.357401 0.465204 0.16803
494 4 0.460741 0.4217 0.1232
1422 4 0.024074 0.0497323 0.169747
2480 4 0.0111249 0.052385 0.179355
19 3 0.0270644 0.0535164 0.189782
20 3 0.05519 0.0512388 0.21471
675 4 0.0759589 0.0537379 0.210713
16 1 0.0428792 0.0654502 0.20186
18 3 0.0323701 0.0811815 0.215294
17 3 0.0568029 0.076349 0.187146
673 2 0.0982494 0.0485459 0.200646
450 4 0.12625 0.0434864 0.170494
674 4 0.12054 0.0433539 0.190578
28 3 0.231516 0.0827028 0.165435
26 1 0.231386 0.0746732 0.187205
30 3 0.250387 0.0627761 0.191212
27 3 0.213131 0.06095 0.18996
581 4 0.2643 0.062283 0.20368
311 4 0.314111 0.0269252 0.170976
582 4 0.296628 0.0365078 0.175551
580 2 0.280464 0.0493954 0.189616
24 3 0.385574 0.00305134 0.21676
310 2 0.338908 0.0237183 0.170836
759 4 0.376254 0.0106389 0.167013
22 3 0.371431 0.0378234 0.218644
312 4 0.363705 0.0205113 0.170696
25 3 0.377217 0.0220251 0.18533
21 1 0.385201 0.0238976 0.206576
23 3 0.406571 0.0329312 0.206237
744 4 0.413858 0.0500502 0.213172
742 2 0.408281 0.0740057 0.217667
513 4 0.0194647 0.131633 0.236691
578 4 0.0396414 0.132709 0.236396
723 4 0.151491 0.0969531 0.165371
721 2 0.146954 0.117272 0.179219
722 4 0.142418 0.13759 0.193066
546 4 0.160096 0.14063 0.201998
544 2 0.162275 0.151425 0.224446
545 4 0.164455 0.16222 0.246894
29 3 0.229809 0.0923465 0.202157
743 4 0.402704 0.0979612 0.222163
351 4 0.41602 0.104258 0.236524
333 4 0.483858 0.152969 0.235096
476 4 0.0678358 0.206427 0.200551
475 2 0.0718309 0.229716 0.208728
331 2 0.488838 0.176603 0.241565
332 4 0.493819 0.200236 0.248034
477 4 0.0758261 0.253004 0.216906
750 4 0.0718471 0.267381 0.229842
395 4 0.0163101 0.300833 0.244251
749 4 0.0357633 0.298007 0.245988
748 2 0.0538052 0.282694 0.237915
339 4 0.0878378 0.257391 0.231761
535 2 0.150686 0.320749 0.173072
337 2 0.110967 0.264174 0.238412
338 4 0.134095 0.270957 0.245063
363 4 0.150871 0.266873 0.234764
361 2 0.160343 0.280945 0.216396
537 4 0.168685 0.310166 0.186827
362 4 0.169816 0.295018 0.198027
372 4 0.180611 0.30995 0.203483
370 2 0.204967 0.30872 0.197964
371 4 0.229323 0.30749 0.192444
279 4 0.244401 0.304799 0.204659
756 4 0.298757 0.30342 0.167661
278 4 0.289834 0.301588 0.184014
612 4 0.293353 0.31953 0.179876
277 2 0.267117 0.303193 0.194336
343 2 0.315141 0.32356 0.249351
308 4 0.325879 0.287979 0.242448
307 2 0.331953 0.27414 0.222529
497 4 0.307705 0.282739 0.247405
763 2 0.351377 0.28426 0.169919
764 4 0.345631 0.278152 0.193475
309 4 0.338027 0.260301 0.202609
614 4 0.405193 0.339422 0.246644
647 4 0.0141836 0.40114 0.233411
2694 4 0.0253572 0.406463 0.249617
456 4 0.0855366 0.389311 0.169321
454 2 0.107238 0.397573 0.178593
455 4 0.128939 0.405835 0.187865
290 4 0.189905 0.412693 0.200266
768 4 0.207886 0.409293 0.192918
610 2 0.300976 0.342618 0.174046
344 4 0.316383 0.348039 0.244408
611 4 0.3086 0.365706 0.168216
302 4 0.303026 0.381856 0.176622
301 2 0.313948 0.400395 0.189357
446 4 0.405345 0.352092 0.230725
445 2 0.429006 0.358007 0.225214
447 4 0.452666 0.363922 0.219703
643 2 0.472392 0.365469 0.180581
644 4 0.464921 0.361381 0.204089
603 4 0.01866 0.419196 0.237782
263 4 0.0582314 0.468358 0.230919
601 2 0.0343039 0.436797 0.229377
602 4 0.0499479 0.454398 0.220972
262 2 0.0680273 0.490023 0.223181
415 2 0.140051 0.468424 0.20516
417 4 0.134216 0.491557 0.197677
291 4 0.146611 0.427791 0.220227
413 4 0.142097 0.443851 0.231067
416 4 0.145887 0.445291 0.212644
1430 4 0.137987 0.499773 0.180954
767 4 0.240035 0.443859 0.176413
289 2 0.168258 0.420242 0.210246
766 2 0.22396 0.426576 0.184666
303 4 0.324871 0.418935 0.202092
727 2 0.345119 0.416318 0.238658
729 4 0.33265 0.424104 0.218432
660 4 0.337085 0.43355 0.200985
658 2 0.347243 0.449377 0.184508
3800 4 0.466052 0.496797 0.186368
233 4 0.0121346 0.0494687 0.311306
1402 2 0.0193249 0.0258027 0.277819
1403 4 0.019052 0.0457816 0.29285
317 4 0.019698 0.0616311 0.299242
530 4 0.00219002 0.0546436 0.295522
316 2 0.0362141 0.0792506 0.292765
232 2 0.0245793 0.0438788 0.332259
1700 4 0.183404 0.0131967 0.331025
319 2 0.228785 0.0793871 0.326214
320 4 0.244161 0.079652 0.306499
1749 4 0.498166 0.0314775 0.29834
480 4 0.487211 0.0239282 0.311774
478 2 0.464906 0.0341376 0.316618
479 4 0.442602 0.044347 0.321462
577 2 0.0454229 0.124013 0.259115
318 4 0.0527301 0.0968702 0.286288
397 2 0.0497878 0.127149 0.319366
579 4 0.0512044 0.115318 0.281833
398 4 0.0500674 0.110492 0.300721
731 4 0.0671106 0.108132 0.292141
732 4 0.116047 0.112848 0.282993
600 4 0.115869 0.132465 0.280662
730 2 0.0915788 0.11049 0.287567
598 2 0.136191 0.144041 0.27182
599 4 0.156513 0.155617 0.262978
392 4 0.175309 0.164984 0.262357
684 4 0.260839 0.0890284 0.313688
249 4 0.306505 0.126281 0.306788
404 4 0.300684 0.144844 0.304268
682 2 0.274313 0.109974 0.311481
683 4 0.287788 0.13092 0.309273
247 2 0.329361 0.1212 0.315563
403 2 0.294454 0.164416 0.318526
248 4 0.352216 0.116119 0.324338
633 4 0.365839 0.1157 0.311244
631 2 0.386822 0.126668 0.303208
632 4 0.407805 0.137637 0.295172
349 2 0.415137 0.118715 0.256906
350 4 0.414254 0.133172 0.277287
707 4 0.360783 0.0984979 0.317878
452 4 0.424271 0.146292 0.289014
451 2 0.441384 0.146122 0.307243
453 4 0.458497 0.145952 0.325472
2655 4 0.00822644 0.234786 0.322525
444 4 0.00939876 0.227114 0.302887
391 2 0.19974 0.170301 0.26247
393 4 0.224172 0.175619 0.262583
762 4 0.488807 0.196799 0.267389
760 2 0.476726 0.207517 0.286477
761 4 0.464646 0.218235 0.305565
419 4 0.466423 0.223135 0.325233
394 2 0.997477 0.290865 0.257333
300 4 0.160838 0.339814 0.268703
378 4 0.248804 0.300504 0.335744
345 4 0.3139 0.299081 0.254294
498 4 0.275602 0.264923 0.281357
377 4 0.269426 0.276988 0.296725
496 2 0.291654 0.273831 0.264381
376 2 0.259115 0.288746 0.316235
613 2 0.408844 0.319039 0.260658
615 4 0.412494 0.298655 0.274671
543 4 0.430318 0.291596 0.281009
541 2 0.453246 0.292887 0.290899
542 4 0.476175 0.294178 0.300788
2538 4 0.492652 0.303443 0.305734
2924 4 0.476055 0.305153 0.316898
2923 2 0.476377 0.32565 0.331215
364 2 0.0193867 0.370026 0.319924
2693 4 0.0192217 0.387696 0.295561
2692 2 0.0222895 0.397079 0.272589
366 4 0.0230197 0.367434 0.295322
298 2 0.150344 0.343455 0.291103
299 4 0.13985 0.347097 0.313504
734 4 0.145876 0.351834 0.332416
728 4 0.357588 0.408531 0.258883
435 4 0.376681 0.371841 0.3093
433 2 0.369008 0.389672 0.29354
434 4 0.361336 0.407503 0.277781
3715 2 0.00393928 0.50279 0.280586
2463 4 0.0168682 0.461679 0.328849
549 4 0.0359734 0.46715 0.325513
547 2 0.0598251 0.463306 0.331955
412 2 0.139295 0.447988 0.255566
777 4 0.119587 0.444128 0.288381
775 2 0.111205 0.451449 0.310771
414 4 0.136494 0.452125 0.280065
776 4 0.102823 0.45877 0.333162
1574 4 0.282444 0.48408 0.270336
436 2 0.30366 0.459721 0.296596
437 4 0.286296 0.467267 0.280264
438 4 0.321023 0.452174 0.312929
3 3 0.334669 0.443625 0.323709
234 4 0.037024 0.0382889 0.353213
367 2 0.0572714 0.0581676 0.373479
368 4 0.0552498 0.0381731 0.358603
1780 2 0.0603338 0.000674832 0.354455
1781 4 0.0501538 0.0228241 0.348892
369 4 0.059293 0.0781621 0.388356
719 4 0.0556568 0.0891644 0.405031
321 4 0.213408 0.0791222 0.345928
441 4 0.275509 0.00923921 0.398699
257 4 0.411808 0.0230345 0.401286
708 4 0.379023 0.0800391 0.360625
698 4 0.405109 0.00990741 0.386826
256 2 0.422051 0.0432974 0.411758
576 4 0.419268 0.076782 0.416265
459 4 0.0685162 0.148344 0.338353
399 4 0.0495083 0.143807 0.338011
706 2 0.369903 0.0892685 0.339251
575 4 0.409154 0.118837 0.39117
574 2 0.414211 0.0978096 0.403718
514 2 0.4354 0.137702 0.360955
515 4 0.451724 0.146355 0.344109
516 4 0.419075 0.129049 0.377801
457 2 0.0706383 0.168994 0.35229
458 4 0.0727604 0.189644 0.366227
2653 2 0.0150161 0.242558 0.345299
388 2 0.0246224 0.233517 0.405878
390 4 0.0282035 0.249363 0.386871
687 4 0.0912249 0.197727 0.371845
686 4 0.106576 0.24308 0.386273
685 2 0.0989007 0.220403 0.379059
405 4 0.288225 0.183988 0.332785
474 4 0.293555 0.197219 0.346564
472 2 0.289976 0.199481 0.371206
473 4 0.286396 0.201743 0.395848
489 4 0.286976 0.216075 0.410098
487 2 0.279818 0.23996 0.408241
715 2 0.398989 0.248063 0.363345
418 2 0.45063 0.230789 0.343043
268 2 0.436983 0.223013 0.402192
420 4 0.434838 0.238442 0.360853
269 4 0.437158 0.229313 0.377996
717 4 0.42011 0.238623 0.372829
2654 4 0.0218057 0.250329 0.368074
2850 4 0.0230073 0.265838 0.379823
2848 2 0.00648727 0.284395 0.382637
733 2 0.158486 0.335223 0.346208
401 4 0.185311 0.309555 0.351755
735 4 0.171096 0.318611 0.36
677 4 0.179183 0.305895 0.370851
400 2 0.210118 0.3103 0.348714
402 4 0.234925 0.311045 0.345674
676 2 0.18216 0.299076 0.394722
276 4 0.246461 0.298583 0.354054
510 4 0.251158 0.316613 0.345639
274 2 0.254737 0.288461 0.375367
275 4 0.263013 0.278339 0.396679
488 4 0.272659 0.263844 0.406385
266 4 0.27397 0.281665 0.412798
265 2 0.287668 0.301929 0.417989
716 4 0.377868 0.257504 0.353862
365 4 0.0157537 0.372618 0.344526
617 4 0.00989086 0.379799 0.36119
616 2 0.0201554 0.388834 0.382123
618 4 0.0304199 0.397869 0.403056
326 4 0.0486906 0.392804 0.402858
325 2 0.0696215 0.406267 0.400445
508 2 0.260122 0.338004 0.354979
509 4 0.269085 0.359396 0.364318
503 4 0.27016 0.366848 0.382928
502 2 0.282125 0.354485 0.401071
504 4 0.29409 0.342123 0.419215
669 4 0.327975 0.416405 0.3627
668 4 0.359857 0.378312 0.368456
586 2 0.397625 0.384598 0.349264
588 4 0.373554 0.379769 0.354
667 2 0.343916 0.397358 0.365578
587 4 0.421696 0.389428 0.344527
559 2 0.500836 0.35026 0.380342
753 4 0.43788 0.39401 0.356609
751 2 0.453521 0.374603 0.358588
561 4 0.485278 0.342732 0.362274
752 4 0.469162 0.355197 0.360568
2925 4 0.4767 0.346146 0.345531
1383 4 0.0150307 0.499002 0.378985
680 4 0.0347024 0.497928 0.382924
679 2 0.0472816 0.479395 0.394035
681 4 0.0598609 0.460862 0.405147
327 4 0.0905525 0.41973 0.398033
548 4 0.0836767 0.459463 0.338398
499 2 0.104409 0.496394 0.342553
500 4 0.0940559 0.474718 0.335614
408 4 0.106678 0.427678 0.387401
407 4 0.0989387 0.459317 0.349457
406 2 0.102808 0.443498 0.368429
1556 4 0.191815 0.423853 0.397918
2 3 0.331556 0.466563 0.35332
1 1 0.343024 0.448538 0.344791
4 3 0.365532 0.45398 0.343321
336 4 0.383875 0.430006 0.421882
714 4 0.368458 0.457638 0.362654
5 3 0.340241 0.430653 0.358613
712 2 0.391349 0.453991 0.372028
713 4 0.41424 0.450343 0.381403
2237 4 0.0130547 0.0733727 0.45716
1127 4 0.0305229 0.0770074 0.463361
1126 2 0.0501396 0.075107 0.478748
1128 4 0.0697563 0.0732065 0.494135
606 4 0.277022 0.997255 0.465555
258 4 0.432295 0.0635603 0.422231
426 4 0.422997 0.0743749 0.435573
718 2 0.0412782 0.0847918 0.425014
720 4 0.0268995 0.0804192 0.444997
260 4 0.0465813 0.127753 0.494255
939 4 0.0885024 0.081045 0.492417
466 2 0.308933 0.136472 0.472234
467 4 0.296531 0.140575 0.450915
468 4 0.321335 0.132368 0.493554
724 2 0.324723 0.0905533 0.497368
725 4 0.321938 0.113571 0.488009
411 4 0.301712 0.158422 0.442777
424 2 0.436887 0.0831301 0.45443
2879 4 0.4958 0.138068 0.465492
425 4 0.450777 0.0918853 0.473287
2878 2 0.481874 0.118259 0.471723
642 4 0.455986 0.0947967 0.492184
2880 4 0.467948 0.0984495 0.477954
389 4 0.0210414 0.217672 0.424885
410 4 0.293571 0.198327 0.41376
409 2 0.297641 0.178374 0.428268
872 4 0.33754 0.222074 0.489425
3159 4 0.452647 0.164721 0.471264
270 4 0.436809 0.216713 0.426388
305 4 0.439251 0.168926 0.457893
306 4 0.437038 0.217572 0.446516
304 2 0.438145 0.193249 0.452204
585 4 0.444204 0.231406 0.435349
583 2 0.458132 0.2507 0.443025
3157 2 0.463163 0.168753 0.493587
678 4 0.185137 0.292256 0.418593
373 2 0.221007 0.29408 0.436783
374 4 0.23692 0.298704 0.455506
375 4 0.205093 0.289456 0.41806
651 4 0.243337 0.318219 0.461422
812 4 0.252322 0.302323 0.46524
811 2 0.264005 0.299694 0.487189
267 4 0.301366 0.322192 0.42318
584 4 0.47206 0.269994 0.4507
2456 4 0.48979 0.261582 0.447603
347 4 0.0405776 0.390868 0.420055
346 2 0.0242352 0.391029 0.438978
348 4 0.00789276 0.391189 0.457901
7 3 0.146459 0.331959 0.479684
649 2 0.236328 0.341866 0.465533
709 2 0.194749 0.363731 0.494505
710 4 0.214093 0.370542 0.480203
803 4 0.228737 0.383481 0.473487
802 2 0.217823 0.404232 0.464801
650 4 0.229319 0.365512 0.469643
240 4 0.422239 0.401534 0.44356
335 4 0.42952 0.41013 0.426595
238 2 0.436414 0.39668 0.463577
3307 2 0.487505 0.377669 0.482186
239 4 0.450589 0.391825 0.483594
3309 4 0.467367 0.388662 0.492126
663 4 0.460685 0.406436 0.490176
383 4 0.0759939 0.454985 0.413894
570 4 0.0421319 0.427632 0.495457
568 2 0.0629409 0.436563 0.484854
569 4 0.08375 0.445493 0.474252
538 2 0.119232 0.458417 0.488504
382 2 0.0838497 0.455963 0.437611
384 4 0.0917056 0.456941 0.461328
539 4 0.0960779 0.46119 0.479484
635 4 0.158397 0.456525 0.493024
1555 2 0.192148 0.42957 0.422257
1557 4 0.19248 0.435288 0.446595
636 4 0.190292 0.429807 0.465284
634 2 0.174345 0.443166 0.479154
804 4 0.206909 0.424983 0.456116
2152 2 0.263149 0.499007 0.457913
1455 4 0.278477 0.464861 0.470927
1454 4 0.325041 0.453352 0.456782
882 4 0.327325 0.433815 0.451132
2153 4 0.275608 0.484184 0.473733
1453 2 0.301759 0.459107 0.463854
881 4 0.374641 0.42223 0.439832
334 2 0.406697 0.420068 0.424239
880 2 0.350983 0.428022 0.445482
2318 4 0.015641 0.0237603 0.546562
2317 2 0.0220528 0.0383224 0.565849
2115 4 0.0104055 0.00477407 0.544024
1057 2 0.157995 0.0646063 0.54317
1059 4 0.142872 0.0803956 0.531039
1058 4 0.173119 0.048817 0.555301
341 4 0.194799 0.0450279 0.557802
340 2 0.212467 0.0626446 0.556164
342 4 0.230134 0.0802614 0.554527
2430 4 0.180825 0.0361006 0.566606
2428 2 0.173379 0.0134982 0.558933
963 4 0.295715 0.0659611 0.58044
432 4 0.309572 0.0686517 0.566705
430 2 0.323334 0.0665812 0.545932
431 4 0.337096 0.0645108 0.525159
1181 4 0.293845 0.0806965 0.567152
726 4 0.327509 0.0675353 0.506727
843 4 0.342288 0.0557413 0.509057
1216 2 0.415498 0.0370243 0.531288
1217 4 0.392505 0.0272235 0.531965
842 4 0.379649 0.02376 0.518116
841 2 0.360969 0.0397506 0.513586
1581 4 0.393158 0.00975605 0.523971
1218 4 0.438491 0.0468252 0.53061
641 4 0.44807 0.0631288 0.530068
640 2 0.452028 0.0789628 0.511126
261 4 0.0556487 0.146198 0.539843
1033 2 0.0596368 0.137891 0.573246
259 2 0.051115 0.136975 0.517049
1035 4 0.0540899 0.128547 0.550728
938 4 0.132816 0.0832157 0.515488
1155 4 0.143499 0.0980506 0.520638
1153 2 0.163073 0.112901 0.515999
937 2 0.110659 0.0821303 0.503953
1182 4 0.247164 0.0898739 0.551746
1154 4 0.182646 0.127751 0.51136
1152 4 0.230071 0.0985553 0.54988
1150 2 0.21567 0.112453 0.534891
1151 4 0.201269 0.12635 0.519903
1180 2 0.270505 0.0852852 0.559449
899 4 0.379313 0.160263 0.546207
857 4 0.199778 0.211618 0.543218
856 2 0.218109 0.203415 0.558112
858 4 0.236441 0.195211 0.573006
871 2 0.33222 0.211112 0.511258
873 4 0.326899 0.200149 0.533091
898 2 0.360914 0.177095 0.544386
900 4 0.342514 0.193927 0.542566
904 2 0.414814 0.232528 0.523902
906 4 0.392673 0.238512 0.513946
954 4 0.377811 0.251154 0.519318
3064 2 0.461293 0.204789 0.541264
3065 4 0.449845 0.225518 0.54929
3158 4 0.473678 0.172785 0.515911
3066 4 0.472741 0.184059 0.533238
905 4 0.436956 0.226543 0.533857
3060 4 0.487069 0.185526 0.520946
984 4 0.0883712 0.323847 0.558866
695 4 0.127152 0.254006 0.504334
10 3 0.157137 0.312409 0.509629
983 4 0.112689 0.317492 0.515634
982 2 0.10053 0.32067 0.53725
696 4 0.153339 0.296058 0.511163
694 2 0.140246 0.275032 0.507748
1260 4 0.169207 0.306799 0.519078
1259 4 0.1876 0.309389 0.565508
1258 2 0.178404 0.308094 0.542293
948 4 0.196323 0.290773 0.567456
1239 4 0.291316 0.288681 0.517564
1237 2 0.308422 0.282729 0.534802
1238 4 0.325528 0.276777 0.55204
790 2 0.333866 0.269773 0.584057
792 4 0.332625 0.260772 0.560762
813 4 0.275688 0.297066 0.509138
952 2 0.361477 0.261563 0.53513
953 4 0.345143 0.271973 0.550942
1136 4 0.0742031 0.334048 0.568818
1135 2 0.0772829 0.358779 0.570848
1137 4 0.0803627 0.383509 0.572878
9 3 0.124581 0.331314 0.510239
6 1 0.146518 0.331319 0.502678
896 4 0.138329 0.411687 0.561884
895 2 0.116082 0.404273 0.570559
1191 4 0.151922 0.399262 0.551463
1189 2 0.160407 0.381413 0.536147
1161 4 0.157429 0.410719 0.562541
8 3 0.157648 0.350042 0.510675
897 4 0.0938342 0.396858 0.579234
1190 4 0.168892 0.363563 0.520831
711 4 0.175404 0.35692 0.508808
1000 2 0.410377 0.375712 0.559163
930 4 0.380908 0.407566 0.568077
1002 4 0.391485 0.391704 0.562698
806 4 0.388874 0.395486 0.581494
1001 4 0.42927 0.35972 0.555628
925 2 0.449897 0.377778 0.521975
926 4 0.45591 0.393689 0.503648
927 4 0.443885 0.361867 0.540302
1936 2 0.0604481 0.484186 0.57272
1938 4 0.0756203 0.476014 0.554604
2243 4 0.146046 0.416424 0.547375
2242 2 0.149898 0.433731 0.529745
2244 4 0.153749 0.451037 0.512114
772 2 0.15897 0.490664 0.517356
774 4 0.156404 0.467523 0.50824
540 4 0.142387 0.455645 0.497524
1159 2 0.170872 0.422352 0.580123
1171 2 0.312282 0.44192 0.576097
1172 4 0.32927 0.44882 0.559096
928 2 0.364289 0.425356 0.562377
929 4 0.34767 0.443146 0.556677
891 4 0.341092 0.460258 0.549284
889 2 0.353414 0.479711 0.559028
1909 2 0.404309 0.494868 0.573332
890 4 0.365736 0.499163 0.568772
1331 4 0.43107 0.472048 0.559375
1330 2 0.444189 0.466111 0.538935
661 2 0.466115 0.429461 0.498272
662 4 0.471545 0.452487 0.506367
1332 4 0.457307 0.460173 0.518494
1910 4 0.427415 0.485316 0.573173
2169 4 0.441348 0.470717 0.575834
2319 4 0.0284646 0.0528846 0.585137
945 4 0.0428657 0.0618171 0.594703
1893 4 0.0655981 0.013484 0.632406
943 2 0.0423587 0.082103 0.609312
2132 4 0.241664 0.0208386 0.658938
2131 2 0.218143 0.0124215 0.659976
951 4 0.256655 0.00990214 0.651903
961 2 0.296514 0.043281 0.590936
962 4 0.297313 0.020601 0.601431
950 4 0.295223 0.017632 0.621025
949 2 0.275939 0.0137671 0.636464
2196 4 0.301197 0.00393282 0.608315
1003 2 0.363045 0.0221241 0.646615
1005 4 0.349078 0.0426192 0.649785
1004 4 0.377012 0.00162895 0.643446
1091 4 0.439408 0.998782 0.654577
2283 4 0.452714 0.0150491 0.654222
1090 2 0.415245 0.000330926 0.648335
1034 4 0.0651838 0.147236 0.595765
944 4 0.0418517 0.102389 0.62392
879 4 0.0681092 0.159984 0.612187
877 2 0.045523 0.165455 0.621413
1083 4 0.0236433 0.10411 0.632418
1081 2 0.00504804 0.103802 0.649131
1272 4 0.0782022 0.160691 0.596387
1221 4 0.136612 0.157631 0.626587
1270 2 0.102392 0.160875 0.602711
1271 4 0.126582 0.161059 0.609036
1283 4 0.217582 0.101755 0.661643
1282 2 0.240903 0.105951 0.653662
1284 4 0.264225 0.110148 0.645682
1031 4 0.27464 0.124878 0.636121
1030 2 0.298615 0.117983 0.637805
1032 4 0.32259 0.111088 0.639488
3266 4 0.00508568 0.237994 0.589729
878 4 0.0229368 0.170925 0.630639
1199 4 0.0064758 0.180848 0.627884
3045 4 0.0232103 0.229466 0.594462
1198 2 0.006793 0.202509 0.6154
1200 4 0.0071102 0.224171 0.602915
3043 2 0.0439071 0.243415 0.595964
1219 2 0.153459 0.176078 0.627627
1220 4 0.170306 0.194525 0.628667
796 2 0.175668 0.228206 0.624201
798 4 0.171653 0.209795 0.640636
1212 4 0.177989 0.192425 0.646561
1210 2 0.199153 0.193962 0.659786
797 4 0.179683 0.246617 0.607766
947 4 0.196887 0.251475 0.598376
810 4 0.453038 0.164671 0.650161
1025 4 0.461123 0.181544 0.654354
1024 2 0.483564 0.191099 0.659856
3044 4 0.0646039 0.257364 0.597467
1243 2 0.0675134 0.257639 0.642433
1244 4 0.0650073 0.261957 0.617933
946 2 0.196605 0.271124 0.582916
791 4 0.335107 0.278774 0.607351
1041 4 0.0840609 0.389273 0.590929
1040 4 0.083942 0.399169 0.639947
1039 2 0.0840015 0.394221 0.615438
993 4 0.0927661 0.412716 0.652861
1068 4 0.193384 0.367615 0.658839
807 4 0.364556 0.374426 0.61978
805 2 0.376715 0.384956 0.600637
1099 2 0.453485 0.410711 0.638695
1100 4 0.453692 0.414877 0.614042
1101 4 0.453278 0.406545 0.663348
1160 4 0.184316 0.433985 0.597705
1138 2 0.242946 0.452189 0.666506
1173 4 0.295295 0.435021 0.593097
1187 4 0.296667 0.448686 0.607178
1140 4 0.263627 0.465952 0.663665
1188 4 0.267829 0.457821 0.646999
1186 2 0.282248 0.453254 0.627089
1267 2 0.491636 0.417643 0.599372
1268 4 0.466974 0.420989 0.60178
2168 4 0.448748 0.430595 0.604751
2167 2 0.445048 0.450656 0.590293
825 4 0.146676 0.00452942 0.690357
2255 4 0.144379 0.00572397 0.710675
2133 4 0.194621 0.00400441 0.661014
1298 4 0.300332 0.0795836 0.699218
1163 4 0.497509 0.0821564 0.715109
2282 4 0.491585 0.004141 0.683731
2281 2 0.472149 0.00959506 0.668976
1162 2 0.502842 0.0643952 0.73188
909 4 0.212682 0.0913991 0.678715
908 4 0.210814 0.106683 0.726293
1227 4 0.194453 0.100191 0.737112
907 2 0.211748 0.0990411 0.702504
1299 4 0.298506 0.116875 0.732485
1297 2 0.299419 0.0982294 0.715851
829 2 0.290808 0.157845 0.722133
831 4 0.293008 0.136582 0.735103
839 4 0.306689 0.12864 0.745028
43 3 0.457855 0.0830124 0.676379
42 3 0.481982 0.0890556 0.704557
44 3 0.445064 0.089353 0.711601
808 2 0.450244 0.144859 0.665156
41 1 0.461398 0.0948022 0.696047
809 4 0.44745 0.125047 0.680151
45 3 0.460991 0.117186 0.69187
852 4 0.028172 0.235015 0.72743
850 2 0.0409371 0.213993 0.731936
1208 4 0.0284665 0.246999 0.712426
851 4 0.0537023 0.192971 0.736442
3038 4 0.0140431 0.24102 0.723225
1215 4 0.01681 0.239438 0.742651
1107 4 0.0711524 0.202833 0.737962
1072 2 0.133517 0.250395 0.729218
1073 4 0.133838 0.225556 0.732067
1105 2 0.0949388 0.210387 0.736439
1106 4 0.118725 0.217941 0.734915
35 3 0.133846 0.209663 0.743996
33 3 0.164022 0.187231 0.74595
1211 4 0.220317 0.195499 0.673011
888 4 0.236052 0.18719 0.680939
1130 4 0.171134 0.178724 0.72882
1129 2 0.193221 0.188644 0.735059
1131 4 0.215309 0.198565 0.741297
1277 4 0.22919 0.207874 0.751576
886 2 0.257868 0.192143 0.692108
830 4 0.288609 0.179108 0.709162
887 4 0.279683 0.197095 0.703276
976 2 0.308742 0.215714 0.713309
978 4 0.297738 0.194869 0.704967
977 4 0.319747 0.236558 0.72165
918 4 0.337072 0.247962 0.727475
916 2 0.345929 0.235878 0.747492
1245 4 0.0700194 0.25332 0.666933
1178 4 0.0279329 0.25153 0.73194
1207 2 0.0401442 0.254264 0.691545
1209 4 0.051822 0.26153 0.670664
1177 2 0.0378771 0.270845 0.744318
816 4 0.0624362 0.297235 0.74614
814 2 0.0786624 0.309498 0.731597
941 4 0.148555 0.31949 0.674754
940 2 0.127639 0.323098 0.68797
1074 4 0.133195 0.275233 0.726369
942 4 0.106722 0.326707 0.701186
1067 4 0.164621 0.328925 0.672123
815 4 0.0948887 0.321762 0.717054
821 4 0.161984 0.310782 0.664429
822 4 0.180241 0.271438 0.689318
820 2 0.171112 0.29111 0.676874
1205 4 0.397018 0.329019 0.675033
3274 2 0.0178234 0.35279 0.712008
3275 4 0.0355942 0.335561 0.715548
1279 2 0.0613602 0.413166 0.723342
1280 4 0.0846076 0.405297 0.718566
893 4 0.0958729 0.389455 0.717237
991 2 0.0926508 0.406075 0.676966
992 4 0.0925356 0.399434 0.701071
892 2 0.096473 0.364654 0.714113
894 4 0.0970731 0.339854 0.710989
1028 4 0.195743 0.383217 0.670622
1027 2 0.21019 0.402919 0.675942
1066 2 0.179003 0.34827 0.665481
1228 2 0.365311 0.398152 0.710259
1230 4 0.379949 0.387881 0.692783
1229 4 0.350673 0.408424 0.727734
1206 4 0.39264 0.373385 0.697688
1204 2 0.394829 0.351202 0.686361
1989 4 0.349646 0.404053 0.747222
3328 2 0.460983 0.400509 0.702779
3330 4 0.449642 0.397367 0.680719
2987 4 0.486747 0.417773 0.729296
3329 4 0.472325 0.403652 0.72484
1281 4 0.0381128 0.421035 0.728118
885 4 0.0280537 0.421886 0.746628
1983 4 0.0277378 0.435857 0.734245
1981 2 0.0134637 0.452885 0.722778
1029 4 0.224636 0.422621 0.681262
1139 4 0.222266 0.438426 0.669347
975 4 0.382468 0.00929114 0.798041
1113 4 0.385846 0.0291742 0.79604
1111 2 0.399796 0.0494352 0.800519
1112 4 0.413746 0.0696962 0.804998
846 4 0.43136 0.0756146 0.811028
844 2 0.455732 0.0731758 0.816052
2320 2 0.487032 0.0116765 0.757327
845 4 0.480104 0.0707369 0.821077
3479 4 0.497271 0.0818882 0.819126
2442 4 0.447713 0.996109 0.823873
834 4 0.00901974 0.126861 0.82933
1149 4 0.246186 0.0873323 0.823107
1225 2 0.195053 0.105604 0.761515
1148 4 0.205354 0.106412 0.801439
1147 2 0.22577 0.0968722 0.812273
1226 4 0.195654 0.111017 0.785918
921 4 0.192445 0.119512 0.804652
919 2 0.189803 0.139043 0.820038
1257 4 0.264497 0.0923854 0.820229
1255 2 0.287716 0.0952748 0.811414