ITEM: TIMESTEP
2400000
ITEM: NUMBER OF ATOMS
4590
ITEM: BOX BOUNDS pp pp pp
-9.9985700000000008e+00 9.9985700000000008e+00
-9.9985700000000008e+00 9.9985700000000008e+00
-9.9985700000000008e+00 9.9985700000000008e+00
ITEM: ATOMS id type xs ys zs
463 2 0.0384007 0.0286966 0.035271
465 4 0.0364222 0.0441694 0.0548122
1667 4 0.0396582 0.0442385 0.0740487
701 4 0.0458326 0.0586349 0.0631079
590 4 0.0259302 0.0551329 0.0665575
589 2 0.00908167 0.0731541 0.0624902
464 4 0.0403793 0.0132238 0.0157299
700 2 0.0640847 0.0752671 0.0591824
994 2 0.121832 0.0324633 0.0110749
995 4 0.134176 0.0536277 0.0160618
567 4 0.149723 0.0659606 0.0136163
996 4 0.109487 0.011299 0.00608806
565 2 0.152224 0.0710307 0.0379723
566 4 0.154725 0.0761009 0.0623284
490 2 0.351559 0.00884931 0.0281042
491 4 0.369032 0.0167247 0.0441617
557 4 0.378782 0.033237 0.0511498
296 4 0.377448 0.0173779 0.061364
556 2 0.397956 0.0433173 0.038663
1606 2 0.410484 0.00126705 0.00314232
492 4 0.334085 0.000973917 0.0120467
558 4 0.41713 0.0533976 0.0261762
746 4 0.429673 0.0665759 0.0349673
745 2 0.45139 0.0651261 0.0226601
747 4 0.473107 0.0636762 0.010353
702 4 0.0823367 0.0918994 0.055257
423 4 0.0966639 0.1037 0.0616418
421 2 0.104244 0.112495 0.0394979
422 4 0.111825 0.121291 0.0173539
2974 2 0.497791 0.0894893 0.00255693
770 4 0.473 0.158264 0.0373471
769 2 0.458735 0.158205 0.0578819
771 4 0.44447 0.158146 0.0784167
1013 4 0.484693 0.164584 0.0229439
827 4 0.466404 0.158434 0.0192275
826 2 0.448867 0.151483 0.00281672
554 4 0.0577374 0.215513 0.0435407
553 2 0.0695194 0.233154 0.0303067
665 4 0.329072 0.228878 0.0237962
664 2 0.334851 0.241718 0.044458
629 4 0.428739 0.16913 0.0804354
555 4 0.0813015 0.250796 0.0170726
1056 4 0.0495137 0.302078 0.0156384
1054 2 0.065514 0.283832 0.00961586
1055 4 0.0815143 0.265587 0.00359333
836 4 0.0971565 0.255107 0.00628612
506 4 0.132332 0.326934 0.0734847
355 2 0.225006 0.268381 0.0242665
357 4 0.236361 0.264665 0.0462309
356 4 0.213652 0.272098 0.00230215
666 4 0.340629 0.254558 0.0651197
460 2 0.380609 0.265207 0.0731593
461 4 0.355767 0.263053 0.0713144
462 4 0.405451 0.267361 0.0750042
324 4 0.419097 0.279417 0.0703567
322 2 0.430766 0.301363 0.0676422
323 4 0.442435 0.32331 0.0649277
103 3 0.493258 0.312499 0.00336596
552 4 0.0794033 0.391351 0.005779
293 4 0.136999 0.340606 0.00845403
507 4 0.139041 0.345004 0.0273416
505 2 0.135686 0.335969 0.0504132
288 4 0.13625 0.358886 0.0131831
286 2 0.117491 0.374032 0.00655929
523 2 0.298132 0.38941 0.0665167
525 4 0.320473 0.378868 0.062651
524 4 0.275791 0.399951 0.0703825
252 4 0.331986 0.370491 0.0501
608 4 0.33556 0.369919 0.0701712
956 4 0.393617 0.357345 0.0193021
250 2 0.337247 0.376028 0.0262916
251 4 0.342509 0.381565 0.00248328
1071 4 0.413484 0.361487 0.0156721
955 2 0.379772 0.343856 0.00344222
280 2 0.475493 0.339724 0.053232
281 4 0.451754 0.338411 0.0609721
1070 4 0.433892 0.335714 0.0533546
671 4 0.437968 0.342692 0.0701211
1069 2 0.423688 0.3486 0.0345133
282 4 0.499233 0.341037 0.045492
314 4 0.05964 0.446098 0.0685061
313 2 0.0780965 0.447111 0.0516683
315 4 0.0965531 0.448123 0.0348305
626 4 0.272991 0.416395 0.0819044
1290 4 0.276847 0.484451 0.0133837
245 4 0.256965 0.497148 0.0730928
244 2 0.269683 0.491523 0.0523136
246 4 0.282402 0.485898 0.0315345
272 4 0.292901 0.495687 0.0187883
1666 2 0.0500444 0.0344338 0.0945711
1806 4 0.0738189 0.0188009 0.129003
1421 4 0.0622642 0.0305814 0.133665
1668 4 0.0604307 0.0246291 0.115094
1420 2 0.0483191 0.0419645 0.151018
1416 4 0.0554929 0.0125974 0.129281
1804 2 0.0970924 0.0279385 0.12883
1805 4 0.120366 0.0370761 0.128658
690 4 0.235258 0.0249637 0.130697
688 2 0.229912 0.0467352 0.14177
689 4 0.224565 0.0685066 0.152842
1475 4 0.254671 0.0192075 0.127406
1476 4 0.293108 0.0206162 0.0954475
1474 2 0.27389 0.0199119 0.111427
652 2 0.315869 0.0565035 0.116564
653 4 0.314954 0.0560993 0.09158
654 4 0.316784 0.0569078 0.141547
311 4 0.32435 0.0458428 0.155048
582 4 0.305856 0.0489495 0.15705
758 4 0.424177 0.0101194 0.161561
235 2 0.152217 0.114927 0.131305
237 4 0.147235 0.127784 0.110446
737 4 0.150687 0.147224 0.114141
236 4 0.157199 0.10207 0.152163
693 4 0.171389 0.0943744 0.157949
1504 2 0.245213 0.103548 0.145959
1505 4 0.234098 0.0834678 0.155878
691 2 0.194876 0.0870518 0.162411
1506 4 0.256329 0.123629 0.13604
285 4 0.2531 0.142465 0.130153
283 2 0.253125 0.167327 0.132804
736 2 0.137767 0.167498 0.121011
738 4 0.124847 0.187773 0.12788
571 2 0.327444 0.246876 0.0996486
284 4 0.253149 0.19219 0.135455
354 4 0.2679 0.198116 0.123224
352 2 0.280628 0.218853 0.117467
353 4 0.293357 0.23959 0.11171
573 4 0.311783 0.234215 0.114468
755 4 0.304709 0.246821 0.126983
630 4 0.420627 0.212432 0.104096
253 2 0.428631 0.24623 0.0972327
254 4 0.433552 0.225596 0.11047
628 2 0.424683 0.190781 0.0922656
481 2 0.152103 0.321568 0.1106
482 4 0.159264 0.31319 0.133043
483 4 0.144942 0.329946 0.0881565
536 4 0.176605 0.317282 0.143512
754 2 0.301907 0.266238 0.142485
756 4 0.299105 0.285655 0.157987
572 4 0.343105 0.259538 0.0848296
622 2 0.359133 0.324374 0.128726
624 4 0.360407 0.300067 0.134446
765 4 0.361586 0.287626 0.151381
255 4 0.423709 0.266864 0.0839959
619 2 0.00805985 0.353725 0.15462
621 4 0.0160076 0.351684 0.131001
625 2 0.249637 0.41037 0.0884978
627 4 0.226283 0.404344 0.0950913
385 2 0.326659 0.363653 0.147749
387 4 0.304613 0.366407 0.159219
611 4 0.301735 0.346136 0.164354
607 2 0.339562 0.365464 0.0944467
623 4 0.357859 0.348681 0.123006
609 4 0.343565 0.361008 0.118722
740 4 0.362394 0.365194 0.123411
386 4 0.348705 0.360899 0.136278
739 2 0.387217 0.368157 0.12297
741 4 0.412041 0.37112 0.12253
13 3 0.443262 0.334833 0.138539
670 2 0.433195 0.352628 0.0925635
672 4 0.428421 0.362564 0.115006
15 3 0.422473 0.352414 0.164546
11 1 0.437033 0.3554 0.147291
526 2 0.49032 0.346448 0.14148
12 3 0.426792 0.367714 0.13078
14 3 0.4558 0.366882 0.154665
495 4 0.471303 0.37903 0.150363
493 2 0.46588 0.400621 0.13898
527 4 0.476884 0.365555 0.1504
597 4 0.488357 0.380169 0.160344
645 4 0.470475 0.374095 0.163681
1787 4 0.0568885 0.451266 0.0876624
1788 4 0.0345092 0.490042 0.10994
1786 2 0.0456988 0.470654 0.0988011
1466 4 0.0196833 0.480752 0.11601
1791 4 0.0197433 0.501179 0.113337
456 4 0.0809712 0.423092 0.156577
1440 4 0.244661 0.489411 0.0856468
638 4 0.248171 0.440693 0.165343
1438 2 0.257885 0.480569 0.104937
639 4 0.279601 0.471497 0.141595
1439 4 0.27111 0.471727 0.124228
637 2 0.263886 0.456095 0.153469
1559 4 0.276356 0.488693 0.133816
494 4 0.460456 0.422212 0.127596
227 4 0.465167 0.485143 0.102447
1422 4 0.034374 0.0533475 0.168372
2480 4 0.0198354 0.0590492 0.175907
19 3 0.0331047 0.0735963 0.178131
20 3 0.0647502 0.0676809 0.197656
16 1 0.0519072 0.0834856 0.187462
675 4 0.0796917 0.0598847 0.209102
673 2 0.0911021 0.0396152 0.218274
450 4 0.128861 0.0509877 0.188016
674 4 0.102512 0.0193458 0.227446
448 2 0.141929 0.0687777 0.176273
692 4 0.218363 0.0797293 0.166872
26 1 0.24296 0.0706117 0.191061
27 3 0.225759 0.0731231 0.206126
28 3 0.234516 0.0729509 0.169575
30 3 0.252179 0.0499397 0.193579
580 2 0.284441 0.0433574 0.168682
581 4 0.263026 0.0377654 0.180315
757 2 0.401572 0.0162875 0.170287
759 4 0.378967 0.0224555 0.179013
310 2 0.341792 0.0343063 0.168755
22 3 0.34953 0.0296996 0.221819
312 4 0.359234 0.0227698 0.182461
25 3 0.372343 0.0230476 0.19304
21 1 0.371181 0.0249004 0.215709
24 3 0.377515 0.00489989 0.225622
23 3 0.385004 0.0420655 0.222968
744 4 0.390896 0.0516278 0.240068
742 2 0.411401 0.0654743 0.243675
743 4 0.431905 0.0793207 0.247282
18 3 0.0455464 0.0996484 0.202847
17 3 0.0641016 0.0935267 0.17074
511 2 0.0064312 0.138004 0.224387
513 4 0.031107 0.142025 0.224046
578 4 0.0509517 0.137468 0.228573
449 4 0.154998 0.0865677 0.16453
723 4 0.160166 0.103954 0.171441
721 2 0.163315 0.119889 0.19045
722 4 0.166464 0.135824 0.209459
546 4 0.15761 0.140109 0.226243
544 2 0.162847 0.126343 0.246448
29 3 0.25893 0.0869493 0.195118
333 4 0.482192 0.14945 0.234238
351 4 0.44115 0.0970015 0.243314
476 4 0.0643298 0.194529 0.18498
475 2 0.0720118 0.216984 0.192851
477 4 0.0796938 0.239439 0.200721
339 4 0.092218 0.249625 0.190397
750 4 0.0735792 0.254799 0.188969
395 4 0.0412429 0.287179 0.227269
749 4 0.0449242 0.290947 0.20828
748 2 0.0592517 0.272873 0.198625
394 2 0.0303974 0.287201 0.249798
337 2 0.115476 0.251494 0.199382
338 4 0.138735 0.253363 0.208368
363 4 0.149445 0.258168 0.224952
361 2 0.165493 0.272212 0.211899
535 2 0.183552 0.308742 0.165961
537 4 0.190499 0.300201 0.18841
362 4 0.181542 0.286257 0.198846
372 4 0.200676 0.289012 0.200325
370 2 0.222024 0.281234 0.210763
371 4 0.243372 0.273457 0.2212
610 2 0.298323 0.321697 0.168392
278 4 0.29036 0.279331 0.175079
612 4 0.294912 0.297259 0.17243
279 4 0.261884 0.272106 0.215546
277 2 0.276122 0.275719 0.195313
344 4 0.273857 0.328678 0.236555
343 2 0.292175 0.312274 0.241087
345 4 0.310494 0.29587 0.245618
308 4 0.313179 0.281229 0.233804
763 2 0.361302 0.291942 0.176008
307 2 0.336451 0.282272 0.224722
764 4 0.361018 0.296257 0.200635
309 4 0.359724 0.283315 0.215639
614 4 0.388696 0.322902 0.237904
446 4 0.400393 0.333239 0.224542
2694 4 0.0142121 0.399902 0.237452
647 4 0.019325 0.393507 0.219132
646 2 0.00898715 0.37372 0.207873
603 4 0.020564 0.411175 0.226234
620 4 0.000112138 0.355766 0.178239
768 4 0.212886 0.404138 0.204053
290 4 0.193467 0.401328 0.202013
766 2 0.23116 0.413688 0.189909
302 4 0.297471 0.36089 0.175652
729 4 0.320087 0.396057 0.21909
301 2 0.299433 0.378139 0.193647
303 4 0.301395 0.395388 0.211641
727 2 0.330147 0.394504 0.241928
445 2 0.420238 0.347397 0.218981
447 4 0.440082 0.361555 0.21342
643 2 0.464103 0.373026 0.187835
644 4 0.457731 0.371957 0.21199
263 4 0.0523538 0.462767 0.23958
601 2 0.0384777 0.427195 0.233136
602 4 0.0563913 0.443215 0.240038
262 2 0.0639554 0.483709 0.232368
454 2 0.100716 0.423757 0.171903
455 4 0.120461 0.424423 0.187229
415 2 0.153043 0.475721 0.186965
413 4 0.147182 0.448515 0.210111
412 2 0.134313 0.445059 0.231268
417 4 0.149388 0.499608 0.180546
291 4 0.155411 0.433712 0.200096
416 4 0.156698 0.451833 0.193383
289 2 0.174439 0.41752 0.201055
767 4 0.249434 0.423238 0.175766
660 4 0.340466 0.423594 0.177726
658 2 0.34008 0.440657 0.195998
659 4 0.339695 0.457721 0.21427
1569 4 0.494517 0.501199 0.207632
1799 4 0.0172047 0.00516492 0.264062
1404 4 0.0156104 0.0248608 0.267254
233 4 0.0214501 0.0716533 0.319529
1402 2 0.0171539 0.0403081 0.286854
1403 4 0.0186973 0.0557554 0.306454
317 4 0.027688 0.0694085 0.301482
530 4 0.00817523 0.071709 0.305834
1700 4 0.185523 0.998091 0.304035
1699 2 0.176687 0.0117777 0.323003
1749 4 0.477881 0.0210083 0.302379
480 4 0.463609 0.0328484 0.30722
2643 4 0.483722 0.0385593 0.306583
478 2 0.444552 0.0419873 0.32058
479 4 0.425495 0.0511262 0.333941
316 2 0.0388046 0.0910529 0.295727
577 2 0.0540821 0.129212 0.251966
318 4 0.0499212 0.112697 0.289972
397 2 0.0470673 0.148596 0.304164
579 4 0.0572124 0.120956 0.275359
398 4 0.0558184 0.133678 0.286107
731 4 0.0656944 0.120705 0.295444
399 4 0.0383162 0.163514 0.322221
732 4 0.113664 0.106577 0.295378
600 4 0.123623 0.098222 0.311471
730 2 0.0896792 0.113641 0.295411
598 2 0.143303 0.0981963 0.296048
599 4 0.162983 0.0981706 0.280624
545 4 0.168085 0.112576 0.266653
392 4 0.180011 0.105306 0.279652
391 2 0.204824 0.107093 0.28216
393 4 0.229637 0.108881 0.284667
684 4 0.249333 0.0885825 0.331577
247 2 0.318612 0.115456 0.303025
249 4 0.299546 0.123422 0.317102
404 4 0.292588 0.132291 0.333876
682 2 0.271165 0.100764 0.33196
248 4 0.337679 0.10749 0.288947
633 4 0.385012 0.125695 0.323884
707 4 0.380882 0.14215 0.332711
631 2 0.404737 0.130524 0.309297
632 4 0.424462 0.135354 0.29471
349 2 0.439219 0.112923 0.262496
350 4 0.437288 0.128845 0.281678
452 4 0.443181 0.137265 0.298997
451 2 0.457342 0.133631 0.319281
331 2 0.482739 0.164716 0.254032
2655 4 0.030177 0.224211 0.323259
444 4 0.0283794 0.233676 0.30509
332 4 0.483285 0.179983 0.273827
521 4 0.490908 0.19737 0.273723
762 4 0.479739 0.190262 0.289248
760 2 0.464958 0.20715 0.30027
761 4 0.450177 0.224039 0.311293
419 4 0.436855 0.236492 0.319371
2493 4 0.00127978 0.281933 0.278014
396 4 0.0195519 0.287224 0.272327
443 4 0.015876 0.279663 0.289938
442 2 0.0221277 0.25667 0.297514
300 4 0.0894122 0.310888 0.281547
298 2 0.112748 0.317922 0.287125
733 2 0.160914 0.315318 0.328619
734 4 0.144764 0.320797 0.310334
299 4 0.136085 0.324957 0.292703
498 4 0.302357 0.26849 0.30046
377 4 0.284737 0.276799 0.301481
496 2 0.306648 0.272434 0.276145
497 4 0.310938 0.276377 0.25183
376 2 0.275293 0.293544 0.317468
615 4 0.405869 0.292932 0.274065
613 2 0.397282 0.307917 0.255985
543 4 0.412894 0.306354 0.286838
541 2 0.433609 0.31273 0.299305
542 4 0.454324 0.319105 0.311772
2538 4 0.468951 0.328786 0.302995
2924 4 0.470051 0.322581 0.321923
2692 2 0.00617092 0.393857 0.260342
433 2 0.330538 0.403438 0.304224
435 4 0.327419 0.402748 0.329023
434 4 0.333656 0.404127 0.279425
728 4 0.340208 0.39295 0.264765
2536 2 0.492453 0.335278 0.297457
549 4 0.0393613 0.444395 0.32183
547 2 0.0641388 0.44504 0.325122
2463 4 0.0204672 0.450467 0.324991
548 4 0.0889164 0.445685 0.328414
777 4 0.119368 0.450899 0.269799
775 2 0.112035 0.44906 0.293632
414 4 0.121444 0.441603 0.252426
776 4 0.104701 0.447221 0.317466
1574 4 0.280084 0.488918 0.292337
436 2 0.304419 0.466779 0.299181
437 4 0.281296 0.469455 0.290051
438 4 0.327541 0.464103 0.30831
3 3 0.344592 0.454462 0.311253
4 3 0.374766 0.467288 0.330472
1 1 0.351596 0.467343 0.329236
2 3 0.344365 0.488963 0.326161
232 2 0.0206336 0.0604803 0.341882
234 4 0.0198172 0.0493074 0.364235
367 2 0.0715198 0.0736113 0.371694
368 4 0.0643434 0.0560588 0.355398
1780 2 0.0760799 0.0132001 0.360742
1781 4 0.0702704 0.0359419 0.352126
1701 4 0.16785 0.025464 0.341971
319 2 0.225191 0.0658517 0.361023
321 4 0.213671 0.0508746 0.377399
320 4 0.236711 0.0808287 0.344648
441 4 0.312535 0.00898921 0.364039
257 4 0.375086 0.00413026 0.412245
576 4 0.404538 0.0609473 0.369068
574 2 0.409631 0.0814855 0.382388
369 4 0.0786963 0.0911638 0.387991
459 4 0.0293877 0.15359 0.337851
719 4 0.0748566 0.0935606 0.40738
683 4 0.292997 0.112945 0.332343
403 2 0.291685 0.155327 0.343557
706 2 0.363647 0.134374 0.349071
708 4 0.346412 0.126598 0.365432
575 4 0.414723 0.102024 0.395708
453 4 0.471503 0.129997 0.339565
514 2 0.447108 0.120253 0.373949
515 4 0.466886 0.126628 0.360043
516 4 0.427331 0.113878 0.387855
2850 4 0.00555678 0.249699 0.37764
457 2 0.0256795 0.170304 0.356074
458 4 0.0219714 0.187018 0.374297
2653 2 0.0247967 0.231676 0.346507
388 2 0.0212244 0.225775 0.410383
390 4 0.0141503 0.235869 0.388629
2654 4 0.0194163 0.239141 0.369756
686 4 0.120628 0.223336 0.388296
685 2 0.127177 0.210016 0.368175
687 4 0.133726 0.196695 0.348054
405 4 0.290781 0.178362 0.353238
474 4 0.27627 0.191321 0.360076
472 2 0.280378 0.197726 0.383893
473 4 0.284486 0.204132 0.407711
268 2 0.422984 0.242907 0.398218
418 2 0.429637 0.247767 0.340489
346 2 0.0520947 0.3259 0.381182
348 4 0.0522702 0.306235 0.396623
401 4 0.197567 0.307684 0.346901
735 4 0.177063 0.309839 0.346904
677 4 0.187199 0.307194 0.362927
400 2 0.222161 0.310007 0.34304
402 4 0.246755 0.312331 0.339179
676 2 0.184573 0.311404 0.387433
678 4 0.181948 0.315614 0.411939
510 4 0.260344 0.323503 0.346661
378 4 0.265849 0.310289 0.333455
275 4 0.274297 0.27725 0.390193
276 4 0.258981 0.303573 0.350529
274 2 0.266639 0.290411 0.370361
269 4 0.414011 0.255227 0.378397
716 4 0.424291 0.323742 0.37138
715 2 0.423545 0.298778 0.372567
420 4 0.422419 0.259043 0.361606
717 4 0.422799 0.273813 0.373753
2923 2 0.463959 0.332104 0.344226
347 4 0.0519193 0.345566 0.365741
617 4 0.00428676 0.361326 0.337333
616 2 0.0276005 0.361481 0.346368
618 4 0.0509143 0.361636 0.355402
326 4 0.061143 0.36314 0.370834
325 2 0.0853499 0.368254 0.367222
327 4 0.109557 0.373369 0.363611
408 4 0.106911 0.392774 0.358888
406 2 0.105372 0.413866 0.345549
508 2 0.265051 0.344409 0.359544
509 4 0.269759 0.365315 0.372426
503 4 0.268029 0.365887 0.392231
502 2 0.27402 0.350932 0.411353
587 4 0.401228 0.383679 0.363242
586 2 0.376264 0.384975 0.362739
588 4 0.351299 0.386272 0.362236
668 4 0.337565 0.39754 0.36991
753 4 0.416689 0.395327 0.359326
560 4 0.498774 0.366532 0.40283
751 2 0.432123 0.37567 0.358557
561 4 0.45932 0.358782 0.373097
752 4 0.447557 0.356014 0.357788
559 2 0.479047 0.362657 0.387963
2925 4 0.457867 0.341626 0.366528
2461 2 0.00278305 0.456185 0.341717
1383 4 0.0276408 0.479549 0.371394
680 4 0.0224636 0.472738 0.390144
679 2 0.0409368 0.470267 0.406812
407 4 0.103833 0.434958 0.332209
501 4 0.117376 0.498298 0.355173
500 4 0.104645 0.455622 0.332427
499 2 0.111011 0.47696 0.3438
5 3 0.342764 0.459157 0.348566
669 4 0.338147 0.447151 0.363655
667 2 0.337856 0.422346 0.366782
714 4 0.382831 0.46761 0.349544
712 2 0.399529 0.467258 0.368151
713 4 0.416228 0.466905 0.386758
718 2 0.0604001 0.0826065 0.42459
720 4 0.0459436 0.0716525 0.4418
2236 2 0.00861748 0.0634011 0.460071
2237 4 0.0327717 0.0650668 0.453828
1127 4 0.0457937 0.0783304 0.45973
1126 2 0.0566969 0.0777946 0.482225
606 4 0.302309 0.00331453 0.463871
605 4 0.263841 0.0345899 0.470416
604 2 0.283075 0.0189522 0.467144
256 2 0.393013 0.0190747 0.421216
258 4 0.410939 0.0340191 0.430187
726 4 0.339926 0.0824097 0.493143
426 4 0.428278 0.0429267 0.432694
424 2 0.419308 0.0660519 0.435848
260 4 0.0395978 0.130052 0.486711
466 2 0.292434 0.133456 0.465456
467 4 0.272013 0.147692 0.463111
468 4 0.312854 0.119219 0.467801
411 4 0.272907 0.156784 0.44501
425 4 0.410338 0.089177 0.439002
725 4 0.332741 0.121372 0.462631
724 2 0.336333 0.101891 0.477887
2880 4 0.478978 0.101638 0.489552
2878 2 0.49903 0.0994674 0.474774
389 4 0.0282985 0.215681 0.432137
489 4 0.288229 0.219244 0.4189
410 4 0.282165 0.202745 0.427616
487 2 0.284594 0.242975 0.425886
409 2 0.277536 0.179764 0.436313
306 4 0.444154 0.213261 0.419911
270 4 0.431956 0.230587 0.418039
3157 2 0.475853 0.195264 0.486523
3159 4 0.457144 0.1903 0.470695
305 4 0.451218 0.179277 0.45591
304 2 0.447686 0.196269 0.437911
585 4 0.450484 0.230918 0.42174
3158 4 0.494562 0.200228 0.50235
695 4 0.15908 0.258405 0.454387
694 2 0.159572 0.279975 0.467024
696 4 0.160063 0.301545 0.47966
10 3 0.153179 0.317195 0.481185
983 4 0.104486 0.321016 0.496797
9 3 0.1216 0.331492 0.495883
1260 4 0.161527 0.309929 0.497217
375 4 0.198302 0.322177 0.421905
373 2 0.205905 0.308317 0.441276
374 4 0.213509 0.294456 0.460648
488 4 0.28096 0.266706 0.432872
266 4 0.280815 0.28051 0.447156
265 2 0.284172 0.305272 0.448037
267 4 0.287528 0.330033 0.448918
2455 2 0.497837 0.270412 0.474413
2456 4 0.482534 0.260052 0.457571
584 4 0.478731 0.268174 0.439482
583 2 0.464607 0.249546 0.430611
568 2 0.0803717 0.398 0.476098
570 4 0.0867171 0.374306 0.471247
6 1 0.141332 0.33633 0.484674
7 3 0.136209 0.345876 0.464382
8 3 0.153993 0.351336 0.49704
711 4 0.172714 0.351989 0.496249
709 2 0.193728 0.360374 0.485606
710 4 0.214742 0.368759 0.474963
803 4 0.230624 0.378343 0.469982
802 2 0.230386 0.401814 0.478598
650 4 0.232648 0.361553 0.479537
504 4 0.28001 0.335976 0.430474
649 2 0.251722 0.349848 0.490689
651 4 0.270796 0.338143 0.501841
240 4 0.421508 0.409274 0.460319
238 2 0.43866 0.404681 0.477923
3307 2 0.488598 0.382315 0.492932
239 4 0.455812 0.400088 0.495527
569 4 0.0740263 0.421694 0.480948
382 2 0.0569883 0.446615 0.457866
681 4 0.05941 0.467796 0.423479
384 4 0.0647797 0.438316 0.480128
539 4 0.0826611 0.435516 0.490758
383 4 0.0491968 0.454913 0.435603
538 2 0.10374 0.445985 0.4992
635 4 0.15389 0.466782 0.494512
1557 4 0.193959 0.493354 0.44505
634 2 0.168609 0.478419 0.477986
804 4 0.230148 0.425284 0.487215
636 4 0.183329 0.490055 0.46146
1453 2 0.298644 0.461917 0.487444
882 4 0.31939 0.429643 0.471208
2153 4 0.27522 0.497709 0.484313
1455 4 0.290718 0.485434 0.490495
1454 4 0.30657 0.438399 0.484394
336 4 0.372542 0.424085 0.437359
334 2 0.397332 0.42204 0.439896
880 2 0.343353 0.42848 0.464165
881 4 0.367316 0.427317 0.457122
335 4 0.422122 0.419995 0.442433
1128 4 0.0676001 0.0772588 0.50472
939 4 0.0757252 0.0815767 0.523007
1057 2 0.146799 0.0466209 0.552451
1058 4 0.156005 0.023387 0.553232
1059 4 0.137593 0.0698547 0.55167
937 2 0.0971304 0.0780879 0.53545
938 4 0.118536 0.074599 0.547892
341 4 0.203088 0.0180962 0.550408
340 2 0.208728 0.0420569 0.546019
342 4 0.214367 0.0660177 0.541631
1182 4 0.231883 0.075497 0.543252
1152 4 0.220467 0.0795603 0.529382
2430 4 0.20004 0.000814845 0.560775
1180 2 0.255979 0.0788106 0.549046
961 2 0.299345 0.0485399 0.573308
963 4 0.292779 0.0690138 0.560545
1181 4 0.280076 0.0821242 0.554839
432 4 0.291626 0.071052 0.541864
430 2 0.308198 0.0752557 0.523619
431 4 0.32477 0.0794593 0.505374
842 4 0.382747 0.0478332 0.517926
841 2 0.360649 0.0569894 0.510645
1217 4 0.396611 0.0452495 0.527471
1581 4 0.396811 0.0405457 0.507614
1579 2 0.401711 0.0160792 0.509214
1216 2 0.408801 0.0648404 0.537103
843 4 0.338551 0.0661456 0.503364
641 4 0.437872 0.0793877 0.535598
261 4 0.0642398 0.141517 0.528688
1033 2 0.077629 0.142935 0.556593
1034 4 0.0720105 0.144835 0.580883
259 2 0.0519188 0.135784 0.5077
1155 4 0.133529 0.0868368 0.544172
1035 4 0.0832476 0.141035 0.532303
1153 2 0.149302 0.0986047 0.528747
1154 4 0.165074 0.110373 0.513322
1150 2 0.20235 0.0931333 0.518766
1151 4 0.184232 0.106706 0.50815
1218 4 0.420991 0.0844312 0.546735
640 2 0.457479 0.0865403 0.521829
642 4 0.477086 0.0936929 0.508061
3045 4 0.00918534 0.242277 0.576062
858 4 0.189548 0.182562 0.574948
857 4 0.209424 0.22773 0.56685
856 2 0.199486 0.205146 0.570899
871 2 0.331653 0.24709 0.526704
899 4 0.333859 0.183901 0.541994
872 4 0.354289 0.236488 0.52734
898 2 0.35208 0.198982 0.550102
900 4 0.370301 0.214063 0.55821
906 4 0.411833 0.244533 0.549689
3064 2 0.486484 0.228249 0.529655
904 2 0.436509 0.242071 0.552885
3065 4 0.481135 0.23756 0.552236
905 4 0.461185 0.23961 0.556081
3066 4 0.491833 0.218938 0.507075
1259 4 0.203852 0.300506 0.522128
1258 2 0.182689 0.305217 0.509673
873 4 0.309018 0.257692 0.526068
811 2 0.289963 0.32755 0.529107
1239 4 0.33042 0.331499 0.541007
813 4 0.312899 0.322658 0.537778
1237 2 0.343067 0.316908 0.556891
952 2 0.388402 0.276867 0.55994
1238 4 0.355715 0.302317 0.572776
953 4 0.370288 0.289544 0.571615
954 4 0.406517 0.264189 0.548264
1136 4 0.0614191 0.356183 0.536462
984 4 0.0786268 0.348549 0.529568
1135 2 0.0717625 0.374009 0.550619
1137 4 0.0821059 0.391835 0.564776
982 2 0.0915565 0.334782 0.513183
896 4 0.13907 0.403105 0.552371
895 2 0.116503 0.40309 0.563138
1191 4 0.149348 0.398524 0.536766
1189 2 0.158646 0.378961 0.524276
1190 4 0.167943 0.359397 0.511786
1161 4 0.157552 0.398086 0.555334
897 4 0.0939366 0.403075 0.573905
2243 4 0.15113 0.414278 0.547487
1159 2 0.169734 0.400585 0.577026
812 4 0.267027 0.332442 0.520437
1000 2 0.411642 0.381047 0.578352
928 2 0.356734 0.413057 0.579999
1001 4 0.431394 0.371272 0.566542
925 2 0.44235 0.387418 0.529634
926 4 0.457761 0.396444 0.512135
3309 4 0.474585 0.400346 0.503116
927 4 0.42694 0.378391 0.547133
663 4 0.462298 0.414754 0.506308
2242 2 0.147738 0.432728 0.530955
2244 4 0.144347 0.451177 0.514424
540 4 0.124819 0.456454 0.507641
772 2 0.132407 0.488152 0.52186
774 4 0.139464 0.468164 0.508599
1171 2 0.301323 0.430621 0.574827
1172 4 0.323986 0.439893 0.569768
1173 4 0.27866 0.421349 0.579886
929 4 0.339917 0.430838 0.57488
891 4 0.342637 0.448965 0.569642
889 2 0.353956 0.470742 0.574421
1909 2 0.402669 0.498471 0.568533
890 4 0.365275 0.492518 0.579201
1910 4 0.426698 0.493077 0.564211
1330 2 0.454743 0.478835 0.546762
1331 4 0.443551 0.499677 0.554858
661 2 0.465648 0.438686 0.512729
662 4 0.468997 0.462618 0.519149
1332 4 0.465934 0.457993 0.538666
1269 4 0.462722 0.447504 0.579259
2319 4 0.0385553 0.0272009 0.601137
2317 2 0.0388511 0.00837929 0.58468
945 4 0.0298802 0.0377944 0.61535
943 2 0.0279802 0.0626618 0.613566
2131 2 0.229865 0.00670422 0.635945
2133 4 0.205028 0.0041045 0.634694
2132 4 0.254701 0.00930395 0.637197
949 2 0.282484 0.0238077 0.621165
962 4 0.30591 0.0280661 0.586071
950 4 0.299092 0.0213657 0.602634
2196 4 0.307367 0.00884288 0.589364
951 4 0.265875 0.0262497 0.639695
1005 4 0.341196 0.0229683 0.655309
1003 2 0.362748 0.0151869 0.645302
1004 4 0.3843 0.00740538 0.635295
1090 2 0.415572 0.0119523 0.634034
2281 2 0.466517 0.000874123 0.661061
2283 4 0.450437 0.0186114 0.653852
1091 4 0.436389 0.0249073 0.638935
944 4 0.0260803 0.0875292 0.611782
1272 4 0.0732393 0.140445 0.599247
879 4 0.0568045 0.149141 0.590327
877 2 0.0355318 0.16228 0.590419
1081 2 0.00302014 0.114735 0.633404
1083 4 0.0200013 0.106955 0.616782
1221 4 0.123147 0.1518 0.633356
1270 2 0.0912999 0.138005 0.616366
1219 2 0.145807 0.160662 0.639115
1271 4 0.10936 0.135565 0.633484
1283 4 0.188878 0.0955531 0.659139
1284 4 0.229003 0.1009 0.629777
1282 2 0.208941 0.0982264 0.644458
1031 4 0.24371 0.113796 0.627801
1211 4 0.223076 0.15643 0.660932
1210 2 0.20366 0.166842 0.649108
1030 2 0.262111 0.118781 0.643979
1032 4 0.280512 0.123766 0.660157
810 4 0.466938 0.150954 0.652315
808 2 0.459065 0.129646 0.662762
1200 4 0.00351161 0.227345 0.587174
878 4 0.0142591 0.175419 0.590512
1245 4 0.0609241 0.249071 0.655549
1220 4 0.168468 0.169524 0.644873
796 2 0.17086 0.206736 0.621742
798 4 0.167475 0.184726 0.633111
797 4 0.174246 0.228746 0.610372
947 4 0.181979 0.24554 0.615974
1212 4 0.184243 0.177253 0.637284
1025 4 0.456143 0.175373 0.608141
1024 2 0.472755 0.185071 0.624115
1026 4 0.489367 0.19477 0.640088
1243 2 0.0525795 0.255939 0.633002
1244 4 0.044235 0.262808 0.610455
3044 4 0.0397324 0.27643 0.59609
3043 2 0.0244589 0.259354 0.586076
946 2 0.197513 0.264282 0.610263
948 4 0.213047 0.283024 0.604552
792 4 0.367476 0.298025 0.588475
791 4 0.337146 0.268426 0.615022
790 2 0.352311 0.283226 0.601748
1041 4 0.0796453 0.392429 0.583676
993 4 0.0745722 0.393803 0.638963
991 2 0.0689537 0.386604 0.662239
1039 2 0.0838781 0.386849 0.607678
1040 4 0.0881108 0.38127 0.631681
1160 4 0.181916 0.403084 0.598718
1140 4 0.258977 0.415542 0.657191
930 4 0.373551 0.395276 0.585117
1002 4 0.391891 0.390823 0.590163
807 4 0.37895 0.367579 0.647061
805 2 0.379398 0.380554 0.625693
806 4 0.379847 0.393529 0.604324
1188 4 0.263338 0.415778 0.637439
1187 4 0.266408 0.4333 0.590703
1186 2 0.264873 0.424539 0.614071
2169 4 0.402231 0.45719 0.654745
1267 2 0.461236 0.441808 0.60356
1268 4 0.45975 0.436111 0.627861
2168 4 0.448006 0.441444 0.6422
1100 4 0.46647 0.442124 0.645574
2167 2 0.425118 0.449317 0.648473
1099 2 0.480658 0.43044 0.662526
1298 4 0.298408 0.0724066 0.716072
43 3 0.450597 0.0726655 0.674419
1163 4 0.489707 0.0757788 0.715245
42 3 0.478882 0.0789698 0.698354
41 1 0.456626 0.083093 0.694252
44 3 0.444061 0.0745915 0.711809
2320 2 0.488572 0.00652121 0.746946
888 4 0.239917 0.147808 0.669067
909 4 0.18013 0.109478 0.671275
908 4 0.204801 0.115072 0.714411
907 2 0.192466 0.112275 0.692843
1227 4 0.190402 0.107743 0.728049
1225 2 0.192802 0.0934444 0.74842
831 4 0.29556 0.137442 0.7387
1299 4 0.301049 0.119681 0.732162
1297 2 0.299728 0.0960438 0.724117
829 2 0.290073 0.157107 0.724266
886 2 0.256138 0.161303 0.682482
809 4 0.451191 0.108338 0.67321
45 3 0.453355 0.105564 0.692522
3426 4 0.495295 0.0858989 0.706675
852 4 0.0307638 0.229864 0.728149
850 2 0.0437616 0.209933 0.73583
1208 4 0.0363656 0.23593 0.710941
1207 2 0.0519497 0.238149 0.691515
851 4 0.0567594 0.190003 0.743512
1178 4 0.0311029 0.245652 0.726337
3038 4 0.0182275 0.233585 0.719075
1215 4 0.0164545 0.238226 0.737899
1209 4 0.0675338 0.240368 0.672088
1107 4 0.0733702 0.199737 0.750398
830 4 0.284585 0.176773 0.709833
887 4 0.272358 0.174797 0.695898
976 2 0.300242 0.201679 0.692196
978 4 0.289273 0.179387 0.689386
977 4 0.311212 0.223971 0.695006
918 4 0.317975 0.231066 0.713396
916 2 0.317753 0.236124 0.737881
1194 4 0.377829 0.185161 0.733135
1192 2 0.35716 0.192726 0.744999
814 2 0.0810051 0.303435 0.742818
1177 2 0.0406434 0.264982 0.739007
3274 2 0.0155335 0.322508 0.727352
3275 4 0.0254114 0.304792 0.712733
894 4 0.0836388 0.327932 0.714188
815 4 0.0924434 0.320498 0.728562
941 4 0.141659 0.310942 0.682913
940 2 0.121049 0.316542 0.695916
942 4 0.10044 0.322142 0.708919
821 4 0.162078 0.311033 0.682126
1067 4 0.151317 0.325216 0.675022
820 2 0.167159 0.287942 0.690262
822 4 0.17224 0.264852 0.698399
3276 4 0.00565552 0.340225 0.741972
893 4 0.0675803 0.374033 0.703347
1280 4 0.0496679 0.379852 0.701445
892 2 0.0756095 0.350983 0.708767
1279 2 0.041654 0.401425 0.71122
992 4 0.0633352 0.379406 0.685516
3263 4 0.00299447 0.412131 0.678424
1066 2 0.161235 0.348132 0.676316
1028 4 0.176917 0.388752 0.687708
1027 2 0.192541 0.407747 0.69221
1068 4 0.171154 0.371048 0.677609
1228 2 0.399585 0.405093 0.72789
3328 2 0.494667 0.410073 0.715976
1230 4 0.419052 0.390188 0.722985
1206 4 0.421823 0.397997 0.704187
1204 2 0.435118 0.380548 0.692188
1205 4 0.448412 0.3631 0.680189
2987 4 0.49634 0.38132 0.745191
1281 4 0.0336401 0.422998 0.720996
1983 4 0.0339522 0.442347 0.721551
1981 2 0.0185197 0.456675 0.708071
885 4 0.0440859 0.431091 0.734671
1982 4 0.0030873 0.471004 0.69459
1029 4 0.208165 0.426741 0.696713
1138 2 0.242048 0.42396 0.673554
1139 4 0.225119 0.432377 0.689917
1989 4 0.360852 0.428273 0.730439
1229 4 0.380119 0.419999 0.732795
1987 2 0.344506 0.427337 0.749337
3330 4 0.484493 0.421731 0.696335
1101 4 0.494846 0.418756 0.679477
1201 2 0.152657 0.0210311 0.816095
2049 4 0.157537 0.00798464 0.782112
911 4 0.121892 0.0398695 0.831776
1202 4 0.168918 0.0172589 0.79748
1147 2 0.219291 0.0776935 0.806296
1149 4 0.230128 0.0823233 0.828348
1148 4 0.208455 0.0730638 0.784243
1257 4 0.248944 0.079932 0.829216
1226 4 0.195203 0.0791453 0.76879
973 2 0.362075 0.00199415 0.781469
975 4 0.365029 0.0263957 0.786053
1113 4 0.384343 0.0288371 0.79207
1111 2 0.396366 0.0484104 0.801945
1112 4 0.408389 0.0679836 0.81182
844 2 0.448516 0.0738426 0.813971
846 4 0.424184 0.0780097 0.809999
845 4 0.472848 0.0696755 0.817943
3479 4 0.486307 0.0808321 0.825816
832 2 0.00813225 0.136044 0.79806
833 4 0.012374 0.134905 0.773445