ITEM: TIMESTEP
1280000
ITEM: NUMBER OF ATOMS
4590
ITEM: BOX BOUNDS pp pp pp
-9.9985700000000008e+00 9.9985700000000008e+00
-9.9985700000000008e+00 9.9985700000000008e+00
-9.9985700000000008e+00 9.9985700000000008e+00
ITEM: ATOMS id type xs ys zs
463 2 0.0117685 0.0485979 0.0320639
465 4 0.0316745 0.0567405 0.0448164
1667 4 0.0339533 0.0564777 0.063781
701 4 0.0477634 0.05819 0.049576
590 4 0.0376567 0.0731464 0.0552315
700 2 0.067268 0.0605121 0.0341047
1666 2 0.0434569 0.0418902 0.0817271
702 4 0.0867725 0.0628341 0.0186334
565 2 0.152575 0.0751205 0.0318514
423 4 0.0873912 0.0805658 0.0101191
994 2 0.152265 0.0196537 0.017571
995 4 0.158747 0.0435653 0.0141944
567 4 0.164806 0.0615189 0.0148054
996 4 0.145783 0.995742 0.0209476
534 4 0.224264 0.0590296 0.999399
533 4 0.177109 0.0454711 0.009059
532 2 0.200687 0.0522503 0.00422925
490 2 0.306275 0.0406193 0.0492968
491 4 0.328746 0.0444746 0.0595618
492 4 0.283804 0.036764 0.0390318
2264 4 0.289999 0.0275344 0.0232658
557 4 0.345984 0.0525214 0.0596243
296 4 0.342739 0.0374368 0.0710785
556 2 0.353267 0.0762052 0.0562748
745 2 0.457628 0.0692231 0.0161036
746 4 0.438229 0.0625623 0.030403
589 2 0.03051 0.0970981 0.0558794
591 4 0.0233634 0.12105 0.0565272
2760 4 0.0153944 0.138678 0.0643797
566 4 0.140343 0.088722 0.0488975
558 4 0.36055 0.099889 0.0529253
629 4 0.4182 0.141273 0.0842183
867 4 0.354426 0.147155 0.993736
359 4 0.339216 0.158404 0.996642
771 4 0.428317 0.136865 0.0674928
769 2 0.437692 0.147084 0.046687
770 4 0.447066 0.157302 0.0258813
1012 2 0.484001 0.154868 0.0104037
1013 4 0.459071 0.156274 0.0117035
554 4 0.0277448 0.230672 0.000558996
553 2 0.0503554 0.241344 0.000368394
656 4 0.993809 0.25701 0.0794397
837 4 0.133773 0.232332 0.997191
913 2 0.173999 0.246258 0.00100046
914 4 0.198401 0.245655 0.0064226
665 4 0.322734 0.242344 0.00284625
827 4 0.445003 0.169876 0.0103481
555 4 0.072966 0.252017 0.000177792
1055 4 0.0811721 0.27032 0.00443876
292 2 0.120617 0.284643 0.0572818
293 4 0.11979 0.307873 0.0480706
507 4 0.129876 0.32302 0.041757
294 4 0.121443 0.261413 0.066493
288 4 0.119255 0.313842 0.028792
286 2 0.124485 0.316294 0.00446482
355 2 0.227585 0.272823 0.00910902
357 4 0.244944 0.286882 0.0203425
664 2 0.314661 0.258035 0.0205609
666 4 0.306589 0.273726 0.0382756
572 4 0.305149 0.267707 0.0577841
571 2 0.292265 0.266292 0.0791661
1071 4 0.381024 0.317816 0.028369
1069 2 0.396315 0.300345 0.0376494
1070 4 0.411606 0.282874 0.0469298
956 4 0.380484 0.331531 0.0137026
955 2 0.360263 0.32165 0.00280891
323 4 0.410445 0.276159 0.0655202
281 4 0.461844 0.316678 0.0597935
280 2 0.463267 0.319959 0.035047
282 4 0.464689 0.32324 0.0103005
671 4 0.461749 0.325686 0.0769634
315 4 0.00675537 0.395345 0.0709867
552 4 0.0668015 0.409987 0.0176563
505 2 0.145225 0.339125 0.0531677
506 4 0.160575 0.35523 0.0645785
483 4 0.178378 0.348829 0.0713606
481 2 0.194538 0.335146 0.0846568
252 4 0.324235 0.383944 0.038827
250 2 0.318253 0.369054 0.019652
525 4 0.315516 0.396598 0.049644
608 4 0.323817 0.378109 0.0565419
607 2 0.336909 0.362812 0.0713663
523 2 0.32353 0.418019 0.0597494
3212 4 0.499097 0.352103 0.00837013
795 4 0.147558 0.491078 0.998398
245 4 0.247717 0.483493 0.0582432
244 2 0.272097 0.487846 0.0548016
246 4 0.296477 0.492199 0.05136
524 4 0.331543 0.43944 0.0698547
39 3 0.404785 0.457414 0.0140609
37 3 0.383616 0.428384 0.00302697
36 1 0.404595 0.437735 0.00176799
563 4 0.476005 0.482083 0.0213445
40 3 0.419847 0.423115 0.0102689
1806 4 0.0684731 0.0175712 0.104883
1421 4 0.0537123 0.0188767 0.117231
1668 4 0.0529606 0.0273027 0.0996733
1420 2 0.0475517 0.0338162 0.13631
1422 4 0.0413912 0.0487557 0.15539
2480 4 0.023296 0.050791 0.153471
1416 4 0.0543015 0.00858105 0.10164
1805 4 0.118136 0.0143412 0.109767
1804 2 0.0933047 0.0159562 0.107325
1506 4 0.260907 0.0602176 0.147386
652 2 0.327882 0.0664616 0.136961
653 4 0.333573 0.0457991 0.124083
295 2 0.347236 0.0194852 0.0878918
297 4 0.351734 0.00153368 0.104705
757 2 0.407854 0.0402648 0.143906
758 4 0.408797 0.0340561 0.119704
485 4 0.370363 0.00542948 0.110673
759 4 0.406912 0.0464736 0.168108
1761 4 0.481177 0.00851609 0.134821
1759 2 0.494439 0.0114315 0.155817
476 4 0.112791 0.154696 0.150424
237 4 0.181511 0.140204 0.141297
235 2 0.176996 0.12427 0.160029
737 4 0.196006 0.153368 0.141137
654 4 0.322191 0.0871241 0.14984
285 4 0.286754 0.152064 0.157949
582 4 0.306012 0.0992774 0.152708
628 2 0.409107 0.16388 0.0898223
339 4 0.110837 0.218698 0.136907
477 4 0.101223 0.203258 0.147486
475 2 0.107007 0.178977 0.148955
337 2 0.124078 0.231624 0.153722
738 4 0.210429 0.200943 0.135727
736 2 0.203217 0.177155 0.138432
354 4 0.266498 0.202065 0.125685
283 2 0.272287 0.169287 0.147029
352 2 0.27093 0.224546 0.115677
284 4 0.257819 0.18651 0.136109
462 4 0.36575 0.236327 0.085655
630 4 0.400014 0.186487 0.0954263
254 4 0.386375 0.187091 0.110648
253 2 0.382396 0.211393 0.106318
255 4 0.378417 0.235696 0.101988
455 4 0.110346 0.341939 0.14834
535 2 0.209154 0.303658 0.133222
537 4 0.197921 0.29275 0.152715
536 4 0.220388 0.314567 0.113728
353 4 0.275362 0.247026 0.105668
461 4 0.331505 0.272477 0.0902498
573 4 0.279381 0.264878 0.100548
754 2 0.283916 0.275811 0.133487
755 4 0.289134 0.258955 0.115772
756 4 0.278698 0.292667 0.151202
610 2 0.30173 0.321499 0.157862
623 4 0.334404 0.311821 0.115822
322 2 0.406051 0.268171 0.0888026
460 2 0.348627 0.254402 0.0879524
324 4 0.401656 0.260184 0.112085
622 2 0.3424 0.295037 0.132542
624 4 0.350396 0.278254 0.149262
765 4 0.367922 0.278124 0.158993
528 4 0.480963 0.333298 0.118169
313 2 0.0187445 0.416687 0.0760833
619 2 0.00526225 0.384936 0.139106
620 4 0.0147848 0.372366 0.158509
482 4 0.210699 0.321463 0.0979531
626 4 0.283588 0.402207 0.132962
625 2 0.285408 0.379841 0.121933
627 4 0.287229 0.357476 0.110904
387 4 0.328556 0.354921 0.149458
611 4 0.319915 0.337597 0.151915
609 4 0.350001 0.347514 0.0861906
740 4 0.363911 0.345737 0.0989607
385 2 0.336482 0.348915 0.126517
741 4 0.412472 0.357673 0.0993423
386 4 0.344409 0.342908 0.103577
739 2 0.388191 0.351705 0.0991515
13 3 0.410381 0.385602 0.127733
670 2 0.441722 0.335595 0.0881856
672 4 0.421696 0.345504 0.0994078
15 3 0.431187 0.401549 0.100706
11 1 0.429743 0.383924 0.115057
526 2 0.472811 0.35467 0.128267
12 3 0.429053 0.364358 0.10298
14 3 0.448308 0.383501 0.12897
495 4 0.464623 0.390458 0.136847
493 2 0.471824 0.412986 0.128735
527 4 0.46466 0.376043 0.138364
597 4 0.476953 0.384786 0.150323
645 4 0.45629 0.383028 0.147743
595 2 0.497638 0.384743 0.164369
1788 4 0.0207611 0.486314 0.115238
314 4 0.0307337 0.438029 0.08118
1787 4 0.022853 0.455474 0.0759293
1786 2 0.0218071 0.470894 0.0955838
639 4 0.259166 0.503086 0.135312
637 2 0.268189 0.484692 0.149645
638 4 0.277212 0.466298 0.163977
494 4 0.479026 0.435514 0.120623
19 3 0.0320129 0.0561274 0.170456
20 3 0.0652497 0.048549 0.186442
16 1 0.0477447 0.0631107 0.186017
18 3 0.0380358 0.0644343 0.20705
17 3 0.0553814 0.0839659 0.180026
675 4 0.137733 0.00353881 0.209621
450 4 0.120711 0.0674068 0.192466
673 2 0.122645 0.0130032 0.227169
674 4 0.107556 0.0224677 0.244717
448 2 0.13976 0.083572 0.19146
1504 2 0.245552 0.0622352 0.167016
1505 4 0.230198 0.0642529 0.186646
689 4 0.228929 0.059202 0.200393
688 2 0.224154 0.036611 0.209986
28 3 0.235998 0.0750278 0.202693
690 4 0.21938 0.0140199 0.219579
692 4 0.223052 0.0765279 0.192543
27 3 0.258876 0.0782095 0.232343
24 3 0.410197 0.0186486 0.208662
22 3 0.398708 0.0515306 0.222785
1496 4 0.4137 0.00861127 0.223919
312 4 0.399253 0.0601112 0.173965
310 2 0.380287 0.0741817 0.182181
25 3 0.409837 0.049592 0.187214
21 1 0.413501 0.0416116 0.208227
23 3 0.435138 0.0466298 0.21494
744 4 0.437857 0.0610075 0.229133
742 2 0.453791 0.0550941 0.247472
511 2 0.0236924 0.153318 0.231
513 4 0.0462185 0.143159 0.234815
449 4 0.158808 0.0997372 0.190453
721 2 0.172537 0.129047 0.214354
722 4 0.172481 0.147548 0.231173
723 4 0.172593 0.110545 0.197536
546 4 0.162333 0.162321 0.240808
236 4 0.172481 0.108335 0.178761
691 2 0.199766 0.0851046 0.189481
693 4 0.17648 0.0936812 0.186418
29 3 0.235648 0.106538 0.223939
26 1 0.248981 0.0897434 0.215075
30 3 0.265165 0.0988241 0.201874
580 2 0.294295 0.0943782 0.174246
581 4 0.282578 0.0894791 0.195785
311 4 0.361322 0.0882522 0.190398
333 4 0.456433 0.154378 0.229638
338 4 0.137319 0.244551 0.170538
395 4 0.0275944 0.268378 0.241193
704 4 0.0398763 0.316631 0.173191
749 4 0.0556175 0.306701 0.235999
748 2 0.0730172 0.289461 0.24102
363 4 0.134246 0.262396 0.177142
361 2 0.158822 0.266795 0.178514
750 4 0.0904169 0.272221 0.246041
372 4 0.192591 0.285985 0.170591
362 4 0.183397 0.271194 0.179887
370 2 0.209288 0.283031 0.188967
371 4 0.225985 0.280076 0.207342
279 4 0.247333 0.278784 0.20227
612 4 0.283546 0.305401 0.163809
278 4 0.283177 0.284602 0.167888
277 2 0.265255 0.281693 0.185079
344 4 0.289783 0.324532 0.248272
343 2 0.301953 0.302867 0.251053
307 2 0.339077 0.259673 0.240851
764 4 0.359894 0.26013 0.204955
309 4 0.352373 0.251834 0.22118
763 2 0.363908 0.269127 0.181974
2694 4 0.0148465 0.417752 0.225212
703 2 0.0308049 0.33993 0.173001
705 4 0.0217335 0.36323 0.172811
648 4 0.0263649 0.382415 0.170471
647 4 0.0251543 0.412771 0.210192
646 2 0.0257596 0.397593 0.190331
603 4 0.0345773 0.417672 0.225993
454 2 0.120349 0.356639 0.165919
456 4 0.130351 0.371339 0.183498
298 2 0.157346 0.364337 0.256281
300 4 0.171284 0.371335 0.236737
302 4 0.323516 0.348414 0.166613
301 2 0.327097 0.363829 0.18597
727 2 0.328983 0.384352 0.247647
303 4 0.330677 0.379245 0.205328
729 4 0.3277 0.37472 0.224609
445 2 0.422514 0.358146 0.219465
447 4 0.419142 0.37021 0.197825
643 2 0.442185 0.384068 0.168363
644 4 0.428081 0.385108 0.188982
446 4 0.425886 0.346083 0.241104
262 2 0.0647787 0.487271 0.238364
263 4 0.0522557 0.465636 0.238885
602 4 0.0527551 0.45362 0.255624
601 2 0.0436662 0.435646 0.240808
417 4 0.162509 0.496826 0.174675
290 4 0.239997 0.434865 0.214619
413 4 0.18656 0.441548 0.249149
289 2 0.218219 0.440269 0.203587
415 2 0.180237 0.479499 0.177942
416 4 0.197965 0.462172 0.181209
291 4 0.196441 0.445672 0.192556
767 4 0.287763 0.460041 0.180511
768 4 0.258475 0.432931 0.210644
766 2 0.273119 0.446486 0.195577
660 4 0.371455 0.462307 0.22391
658 2 0.386779 0.450829 0.207829
659 4 0.402103 0.43935 0.191747
232 2 0.0272485 0.0282706 0.328255
233 4 0.0379696 0.040112 0.309019
1402 2 0.0447607 0.015251 0.274986
1403 4 0.0363586 0.0333281 0.290079
316 2 0.0636284 0.0654907 0.303424
317 4 0.0501838 0.0461028 0.295145
530 4 0.0308102 0.0509533 0.295449
529 2 0.0116815 0.0663036 0.290587
1699 2 0.225274 0.0182348 0.278917
1701 4 0.205372 0.0146203 0.26422
1700 4 0.245176 0.0218493 0.293615
248 4 0.3106 0.076446 0.303409
479 4 0.409661 0.0602238 0.33637
743 4 0.469725 0.0491807 0.265811
1749 4 0.451109 0.0177413 0.299303
480 4 0.442517 0.0329589 0.310334
478 2 0.426089 0.0465914 0.323352
318 4 0.0770729 0.0848786 0.311702
578 4 0.0456261 0.14732 0.255137
398 4 0.0804553 0.102697 0.316328
577 2 0.066955 0.14069 0.266376
397 2 0.0684555 0.120055 0.329739
732 4 0.125329 0.114013 0.279725
579 4 0.0882839 0.134061 0.277614
544 2 0.158623 0.165937 0.265269
600 4 0.145229 0.115879 0.284416
731 4 0.0955328 0.0918912 0.313243
730 2 0.110431 0.102952 0.296484
598 2 0.168831 0.110082 0.290295
599 4 0.192432 0.104286 0.296174
247 2 0.307036 0.0934857 0.321357
249 4 0.303471 0.110525 0.339304
631 2 0.419022 0.150932 0.283113
351 4 0.459846 0.0788106 0.278135
632 4 0.431122 0.131408 0.292993
349 2 0.455496 0.102987 0.282802
350 4 0.451147 0.127163 0.287469
452 4 0.44594 0.135086 0.303718
451 2 0.449619 0.139051 0.32813
444 4 0.0382384 0.247941 0.336551
545 4 0.154912 0.169553 0.28973
392 4 0.152592 0.1712 0.309844
391 2 0.143531 0.194182 0.313709
393 4 0.134471 0.217163 0.317573
633 4 0.406922 0.170456 0.273234
707 4 0.39967 0.179069 0.290259
706 2 0.38163 0.186202 0.306035
708 4 0.363591 0.193335 0.32181
331 2 0.46432 0.165583 0.250553
521 4 0.482189 0.185926 0.285219
332 4 0.472206 0.176789 0.271467
762 4 0.462506 0.185829 0.286032
760 2 0.452463 0.202619 0.301601
761 4 0.44242 0.219409 0.317171
394 2 0.0184574 0.274038 0.263769
442 2 0.0310569 0.26194 0.317118
2491 2 0.00332671 0.313741 0.304883
443 4 0.0238755 0.275939 0.297686
396 4 0.00932041 0.279699 0.286345
2493 4 0.0167412 0.29334 0.299497
400 2 0.230544 0.282816 0.299667
401 4 0.22013 0.285995 0.277159
402 4 0.240959 0.279637 0.322175
308 4 0.325782 0.267511 0.260523
345 4 0.314123 0.281203 0.253833
496 2 0.307364 0.264943 0.294833
497 4 0.311278 0.274684 0.27214
498 4 0.30345 0.255203 0.317526
377 4 0.29358 0.244567 0.33208
615 4 0.394321 0.313875 0.271659
613 2 0.373709 0.313493 0.285808
614 4 0.353098 0.313112 0.299958
543 4 0.413016 0.311044 0.277502
541 2 0.428353 0.319489 0.295352
542 4 0.44369 0.327934 0.313202
2536 2 0.48171 0.327224 0.314465
366 4 0.0318399 0.359212 0.306658
364 2 0.0254333 0.359219 0.330827
299 4 0.143409 0.35734 0.275825
734 4 0.155253 0.371408 0.285841
733 2 0.153552 0.365295 0.310026
677 4 0.138578 0.345815 0.341266
728 4 0.330267 0.393984 0.270685
434 4 0.322115 0.385559 0.285788
433 2 0.333255 0.378289 0.306959
435 4 0.344395 0.37102 0.328131
2538 4 0.459201 0.337455 0.318187
2924 4 0.440776 0.341805 0.325606
549 4 0.0494163 0.474282 0.328203
547 2 0.0722061 0.464015 0.328835
777 4 0.141732 0.456074 0.280153
775 2 0.126693 0.455859 0.300127
414 4 0.13875 0.447371 0.262603
548 4 0.0949959 0.453748 0.329466
776 4 0.111654 0.455644 0.320101
412 2 0.162655 0.44446 0.255876
437 4 0.297858 0.471671 0.272553
436 2 0.304651 0.487415 0.29075
438 4 0.311444 0.503159 0.308948
3 3 0.316347 0.494495 0.326572
714 4 0.397575 0.457227 0.272509
712 2 0.408736 0.4637 0.293926
713 4 0.419898 0.470174 0.315344
234 4 0.0165274 0.0164292 0.347491
1782 4 0.105425 0.00589312 0.388492
1780 2 0.122204 0.0213378 0.398745
1781 4 0.138983 0.0367825 0.408998
429 4 0.0928582 0.00126198 0.404318
439 2 0.300081 0.0193966 0.380139
441 4 0.301823 0.0431248 0.37245
697 2 0.37944 0.00840753 0.350277
698 4 0.375049 0.0327194 0.354128
257 4 0.364276 0.0453001 0.367156
256 2 0.380246 0.0510369 0.38552
258 4 0.396215 0.0567736 0.403885
426 4 0.406536 0.0462207 0.4172
459 4 0.0187668 0.143226 0.353991
399 4 0.0564556 0.137413 0.343151
457 2 0.014535 0.157205 0.374285
403 2 0.30278 0.154314 0.342816
404 4 0.302291 0.129524 0.339584
683 4 0.290564 0.12057 0.351792
682 2 0.269841 0.116681 0.36523
684 4 0.249117 0.112791 0.378668
320 4 0.247538 0.118233 0.398528
453 4 0.453297 0.143016 0.352541
514 2 0.444776 0.143056 0.395541
515 4 0.454951 0.142035 0.372724
2655 4 0.0324004 0.230067 0.34547
2848 2 0.00518835 0.25184 0.413855
2850 4 0.0292426 0.248051 0.40818
390 4 0.0462344 0.239509 0.410046
2653 2 0.0339716 0.231808 0.370363
2654 4 0.0355428 0.233549 0.395256
458 4 0.0103032 0.171184 0.39458
685 2 0.15007 0.168031 0.388727
687 4 0.137393 0.177517 0.369376
686 4 0.162748 0.158545 0.408078
275 4 0.196185 0.238299 0.35331
405 4 0.30327 0.179103 0.346048
474 4 0.308894 0.182289 0.36484
472 2 0.302251 0.203905 0.375507
473 4 0.295608 0.225521 0.386175
489 4 0.285756 0.233966 0.40047
717 4 0.420913 0.237561 0.381752
419 4 0.446801 0.210242 0.335191
420 4 0.416513 0.218895 0.37403
418 2 0.431657 0.214569 0.35461
269 4 0.429459 0.221775 0.38701
268 2 0.43939 0.222883 0.40993
388 2 0.0699633 0.247289 0.408789
389 4 0.0936923 0.25507 0.407532
676 2 0.146842 0.32725 0.355833
678 4 0.155106 0.308685 0.370401
378 4 0.248517 0.266204 0.333465
510 4 0.24455 0.283957 0.338346
508 2 0.239872 0.303517 0.353203
274 2 0.213045 0.254181 0.343892
375 4 0.167701 0.294651 0.378494
276 4 0.229905 0.270063 0.334475
373 2 0.190323 0.288829 0.387412
374 4 0.212945 0.283007 0.39633
509 4 0.235194 0.323076 0.36806
376 2 0.271049 0.255386 0.332773
715 2 0.414236 0.2616 0.383402
716 4 0.40756 0.285639 0.385052
365 4 0.0190267 0.359226 0.354996
2927 4 0.00275656 0.37011 0.360178
616 2 0.0371848 0.364544 0.387484
617 4 0.0186039 0.369021 0.371363
618 4 0.0557657 0.360066 0.403605
326 4 0.0726938 0.349827 0.396875
347 4 0.0583686 0.341882 0.406715
735 4 0.151852 0.359183 0.334211
408 4 0.101301 0.399591 0.356507
325 2 0.0940105 0.359668 0.388277
327 4 0.115327 0.369509 0.379678
503 4 0.293555 0.345791 0.388725
502 2 0.313617 0.346426 0.403635
2923 2 0.444471 0.361384 0.340711
561 4 0.446856 0.388027 0.374623
752 4 0.435874 0.395166 0.360366
559 2 0.457036 0.389203 0.39743
751 2 0.417451 0.412048 0.359475
2925 4 0.448166 0.380964 0.355816
2463 4 0.0354118 0.46989 0.341706
2461 2 0.0116339 0.465219 0.347868
681 4 0.0672135 0.432541 0.386097
679 2 0.0462557 0.44178 0.396127
680 4 0.0252979 0.45102 0.406156
1383 4 0.0225784 0.462761 0.421765
1751 4 0.146283 0.49838 0.378799
500 4 0.11284 0.462593 0.335759
406 2 0.105464 0.421706 0.34561
383 4 0.0834721 0.443785 0.391023
501 4 0.147544 0.484902 0.364019
407 4 0.109628 0.443822 0.334713
499 2 0.130192 0.473747 0.349889
382 2 0.103896 0.447287 0.405014
669 4 0.307812 0.466583 0.374755
5 3 0.312541 0.470739 0.355535
1 1 0.324665 0.488165 0.347289
667 2 0.321443 0.455307 0.392426
753 4 0.399029 0.42893 0.358584
587 4 0.393291 0.431603 0.377457
586 2 0.373459 0.433287 0.392591
4 3 0.34697 0.482073 0.345344
588 4 0.353627 0.434972 0.407724
668 4 0.335073 0.444032 0.410096
594 4 0.454964 0.485387 0.384175
2238 4 0.0187674 0.999945 0.483944
718 2 0.0634602 0.0546101 0.467991
720 4 0.0426542 0.0515289 0.481511
2236 2 0.022181 0.0246363 0.485915
2237 4 0.0255946 0.0493273 0.487886
1127 4 0.0408978 0.0475717 0.500588
368 4 0.134901 0.0521639 0.421031
719 4 0.0842662 0.0576912 0.454471
367 2 0.119171 0.0585794 0.439377
369 4 0.103441 0.0649948 0.457723
606 4 0.198075 0.0127952 0.493149
1579 2 0.421495 0.00720307 0.478579
1581 4 0.439322 0.0120677 0.495422
424 2 0.426075 0.0571827 0.428301
3488 4 0.490974 0.00983751 0.500064
259 2 0.067058 0.140287 0.471709
260 4 0.0519845 0.153246 0.456542
261 4 0.0821316 0.127328 0.486876
319 2 0.261489 0.115162 0.41905
321 4 0.27544 0.112092 0.439571
466 2 0.328196 0.159149 0.486517
468 4 0.343058 0.140014 0.492691
574 2 0.410396 0.11306 0.427763
576 4 0.389727 0.0989903 0.427866
725 4 0.359968 0.13116 0.48687
2880 4 0.4977 0.0941054 0.494403
2878 2 0.498879 0.09618 0.469514
425 4 0.445615 0.0681447 0.439401
575 4 0.431065 0.12713 0.427659
516 4 0.434601 0.144076 0.418357
3159 4 0.492515 0.154174 0.477412
2916 4 0.00481981 0.225825 0.48459
471 4 0.010075 0.244762 0.484217
857 4 0.216414 0.188797 0.492464
487 2 0.286822 0.244982 0.422891
467 4 0.313334 0.178285 0.480342
411 4 0.31863 0.192419 0.46747
409 2 0.295233 0.199467 0.462169
410 4 0.271836 0.206515 0.456868
871 2 0.37303 0.249254 0.463608
873 4 0.374655 0.244532 0.488108
305 4 0.470813 0.186427 0.471629
270 4 0.449321 0.223992 0.43285
306 4 0.454945 0.229364 0.451496
304 2 0.462879 0.207896 0.461562
3157 2 0.499143 0.170396 0.495247
348 4 0.0431726 0.31555 0.44642
346 2 0.0507706 0.328716 0.426568
695 4 0.110713 0.253452 0.489165
694 2 0.130916 0.266485 0.482295
696 4 0.151118 0.279518 0.475426
10 3 0.144878 0.298879 0.475238
1260 4 0.162363 0.288322 0.4761
6 1 0.139123 0.320335 0.470223
7 3 0.129418 0.320901 0.449375
9 3 0.123887 0.328294 0.485808
983 4 0.104646 0.329697 0.490043
1258 2 0.187022 0.284634 0.474231
1259 4 0.211681 0.280946 0.472363
266 4 0.297887 0.272315 0.452158
265 2 0.290496 0.295505 0.446433
267 4 0.283105 0.318695 0.440707
488 4 0.287889 0.255997 0.445312
872 4 0.371405 0.253977 0.439108
583 2 0.473573 0.29392 0.444022
584 4 0.491694 0.28203 0.45649
585 4 0.455453 0.305811 0.431554
8 3 0.158038 0.333773 0.470058
711 4 0.172943 0.336903 0.456686
710 4 0.20234 0.358761 0.490727
803 4 0.22271 0.362692 0.490361
709 2 0.187641 0.347832 0.473707
802 2 0.231177 0.385651 0.495495
804 4 0.239644 0.40861 0.50063
504 4 0.333678 0.34706 0.418545
334 2 0.371571 0.392181 0.501443
335 4 0.393428 0.384326 0.492183
240 4 0.409383 0.373627 0.487644
560 4 0.467216 0.390379 0.420237
2507 4 0.478761 0.403877 0.428782
2506 2 0.489742 0.395135 0.449474
238 2 0.426435 0.382624 0.503565
1381 2 0.0216004 0.487617 0.419238
539 4 0.124523 0.445359 0.437007
569 4 0.141124 0.444592 0.425434
568 2 0.164222 0.439442 0.433507
538 2 0.117564 0.449478 0.460667
540 4 0.110605 0.453597 0.484326
384 4 0.12432 0.450789 0.419006
2244 4 0.122508 0.452375 0.501059
635 4 0.196147 0.466247 0.481909
570 4 0.187319 0.434292 0.44158
1557 4 0.214822 0.479059 0.416544
634 2 0.204476 0.471954 0.459034
774 4 0.204095 0.467017 0.499789
636 4 0.212805 0.477661 0.43616
1126 2 0.05005 0.0573481 0.521703
1128 4 0.0592023 0.0671245 0.542818
939 4 0.0761648 0.0766737 0.545294
1057 2 0.154425 0.043562 0.568991
1059 4 0.142011 0.0646494 0.563854
937 2 0.0990113 0.0695613 0.552549
938 4 0.121858 0.0624488 0.559804
1058 4 0.166839 0.0224745 0.574128
1155 4 0.129852 0.0792099 0.564285
2430 4 0.209404 0.00854901 0.554647
341 4 0.20804 0.0216542 0.540202
340 2 0.216588 0.0449771 0.537346
342 4 0.225136 0.0682999 0.534491
961 2 0.290097 0.0494434 0.581822
963 4 0.288563 0.063671 0.561319
430 2 0.315888 0.0807987 0.535662
432 4 0.296088 0.067005 0.542209
1181 4 0.281473 0.0766921 0.549454
1180 2 0.258645 0.0799361 0.539782
2196 4 0.31864 0.014224 0.579937
842 4 0.388871 0.0495221 0.520071
841 2 0.369407 0.0644722 0.524851
843 4 0.349944 0.0794223 0.529631
1217 4 0.405006 0.0409077 0.530035
2194 2 0.336773 0.00368865 0.566322
1216 2 0.423652 0.0530541 0.541435
1218 4 0.442298 0.0652006 0.552835
1061 4 0.499898 0.0155854 0.515431
641 4 0.452075 0.0817211 0.545634
1060 2 0.496335 0.0383925 0.525039
1062 4 0.492772 0.0611997 0.534648
1033 2 0.095857 0.154649 0.51988
1153 2 0.143762 0.0981762 0.555802
1035 4 0.0916639 0.137397 0.502273
1182 4 0.235817 0.0831802 0.530111
1154 4 0.157673 0.117143 0.547319
1151 4 0.177463 0.110963 0.544075
1150 2 0.19725 0.0982417 0.5356
1152 4 0.217037 0.0855208 0.527125
431 4 0.335688 0.0945925 0.529115
898 2 0.387756 0.152863 0.57974
726 4 0.348058 0.0916969 0.515181
724 2 0.354013 0.111428 0.501026
899 4 0.401513 0.164504 0.562408
640 2 0.467091 0.0858708 0.526077
642 4 0.482107 0.0900205 0.506521
1034 4 0.10005 0.1719 0.537486
856 2 0.237853 0.179161 0.500989
858 4 0.259292 0.169525 0.509514
3065 4 0.470448 0.215319 0.558448
3064 2 0.487909 0.207585 0.542308
905 4 0.453981 0.224976 0.555435
904 2 0.433455 0.236426 0.563965
3066 4 0.505369 0.199851 0.526168
649 2 0.233627 0.330482 0.500743
651 4 0.251983 0.314103 0.505212
1239 4 0.321347 0.318035 0.545716
1237 2 0.329994 0.298773 0.559109
811 2 0.284102 0.324188 0.531852
812 4 0.262665 0.317717 0.520726
906 4 0.412929 0.247876 0.572495
954 4 0.402627 0.261985 0.581718
952 2 0.377904 0.265644 0.580953
1238 4 0.338641 0.279512 0.572503
792 4 0.335684 0.267923 0.58786
953 4 0.353182 0.269303 0.580188
1136 4 0.0780981 0.355771 0.536994
984 4 0.0716984 0.354026 0.518736
1135 2 0.08607 0.372208 0.554066
982 2 0.0881721 0.341862 0.504389
896 4 0.162666 0.392514 0.570843
895 2 0.137721 0.39304 0.572471
1137 4 0.094042 0.388646 0.571137
897 4 0.112776 0.393565 0.574099
1190 4 0.206552 0.337734 0.560051
1191 4 0.175218 0.376058 0.567136
1189 2 0.190885 0.356896 0.563594
650 4 0.215271 0.346861 0.496274
813 4 0.305538 0.330658 0.542977
1002 4 0.37732 0.384607 0.597984
336 4 0.349714 0.400035 0.510704
925 2 0.448079 0.383077 0.559749
926 4 0.452197 0.388504 0.535691
3309 4 0.461615 0.393255 0.5174
927 4 0.44396 0.377649 0.583806
3307 2 0.481974 0.392 0.502939
239 4 0.443486 0.391622 0.519486
663 4 0.455083 0.404534 0.53065
935 4 0.00313897 0.426159 0.539777
2243 4 0.136045 0.425731 0.541153
2242 2 0.129276 0.439053 0.521106
1161 4 0.13501 0.440924 0.554898
1159 2 0.14202 0.452191 0.57609
773 4 0.195123 0.480667 0.547053
772 2 0.199609 0.473842 0.523421
882 4 0.318812 0.469901 0.509848
1171 2 0.299253 0.435625 0.588837
1172 4 0.32344 0.439773 0.584042
929 4 0.335264 0.438527 0.600086
1454 4 0.324666 0.487545 0.505064
880 2 0.341362 0.460367 0.504772
1910 4 0.413342 0.477642 0.577683
881 4 0.363913 0.450833 0.499696
1330 2 0.438903 0.48786 0.520503
1332 4 0.429886 0.464722 0.517589
661 2 0.449527 0.428709 0.527508
662 4 0.443972 0.452884 0.524365
943 2 0.053255 0.0490737 0.615362
944 4 0.0522939 0.0723033 0.606162
2319 4 0.0402624 0.0128248 0.620859
945 4 0.0542161 0.0258442 0.624563
950 4 0.282924 0.0159859 0.598861
962 4 0.291631 0.0352158 0.602326
1032 4 0.262344 0.0660191 0.608934
1091 4 0.418981 0.0184187 0.647481
2283 4 0.437528 0.0140761 0.654653
2281 2 0.458364 0.000255763 0.654488
1083 4 0.0444363 0.0912929 0.610011
1076 4 0.00462278 0.101122 0.660668
1081 2 0.0277938 0.0990796 0.626969
1272 4 0.088029 0.15199 0.600471
1221 4 0.147309 0.158722 0.619974
1271 4 0.135745 0.166027 0.605653
1270 2 0.111887 0.159008 0.603062
1283 4 0.179248 0.0938075 0.634914
1031 4 0.222147 0.0939454 0.598683
909 4 0.172084 0.0831697 0.649076
1284 4 0.21172 0.112201 0.601628
1282 2 0.195484 0.103004 0.618271
1030 2 0.242245 0.0799822 0.603809
1219 2 0.170022 0.168997 0.621906
1211 4 0.248869 0.179178 0.643331
900 4 0.373999 0.141222 0.597072
45 3 0.465126 0.0876616 0.66154
809 4 0.453394 0.103193 0.654315
810 4 0.427847 0.0997641 0.611463
808 2 0.44062 0.101479 0.632889
878 4 0.0307738 0.171704 0.598207
877 2 0.0546552 0.169184 0.605171
879 4 0.0785367 0.166663 0.612135
1199 4 0.0185604 0.185524 0.606529
1210 2 0.228811 0.178687 0.628411
1212 4 0.208753 0.178195 0.613491
1220 4 0.192735 0.179271 0.623838
796 2 0.192323 0.219538 0.622164
798 4 0.201319 0.196228 0.621221
797 4 0.183327 0.242848 0.623107
888 4 0.252054 0.199412 0.647682
791 4 0.32198 0.222817 0.604546
790 2 0.328832 0.24537 0.596203
1025 4 0.468698 0.192336 0.63657
1024 2 0.493106 0.194509 0.631596
1244 4 0.0038096 0.294945 0.625546
1243 2 0.0213272 0.284591 0.640076
1245 4 0.0388447 0.274237 0.654606
1209 4 0.0505518 0.258476 0.656326
3044 4 0.990594 0.281051 0.620673
948 4 0.175325 0.294751 0.580209
947 4 0.185425 0.253756 0.607008
946 2 0.180375 0.274253 0.593609
3264 4 0.00919914 0.415595 0.641913
3262 2 0.994166 0.396545 0.64794
1041 4 0.0989693 0.406958 0.577772
1039 2 0.0961845 0.415912 0.600951
807 4 0.316235 0.403355 0.658469
1000 2 0.401165 0.386123 0.590614
930 4 0.370506 0.4037 0.593316
805 2 0.334001 0.388798 0.648587
806 4 0.351767 0.374241 0.638705
1001 4 0.425009 0.387639 0.583243
3240 4 0.0159867 0.432825 0.631072
3238 2 0.00746459 0.434914 0.607658
991 2 0.118791 0.425179 0.653184
1040 4 0.0933997 0.424865 0.62413
1160 4 0.149029 0.463457 0.597282
993 4 0.11063 0.432113 0.630589
1188 4 0.249391 0.441406 0.641777
1173 4 0.275067 0.431476 0.593631
891 4 0.322352 0.45263 0.598702
1186 2 0.25243 0.437522 0.617264
1187 4 0.255469 0.433639 0.592752
1140 4 0.257177 0.458024 0.65431
890 4 0.351128 0.492864 0.60604
928 2 0.352885 0.421114 0.596701
1909 2 0.391908 0.483279 0.589259
889 2 0.33674 0.472747 0.602371
1911 4 0.370475 0.488916 0.600835
1269 4 0.390786 0.455301 0.646162
1267 2 0.413564 0.4629 0.653134
2991 4 0.00702661 0.0642822 0.718554
864 4 0.00862138 0.0832645 0.716892
1077 4 0.0113443 0.0731012 0.701538
1090 2 0.403054 0.0230262 0.666197
1092 4 0.387127 0.0276338 0.684913
1004 4 0.372889 0.0426779 0.68773
1003 2 0.366564 0.0630983 0.674762
43 3 0.470991 0.0506499 0.6652
41 1 0.468585 0.0707995 0.676452
42 3 0.487821 0.0750229 0.688337
1163 4 0.494718 0.0738134 0.707548
44 3 0.450753 0.0695312 0.691245
2321 4 0.499371 0.0180211 0.740221
862 2 0.0232251 0.0943239 0.733909
1075 2 0.00798356 0.0871114 0.681103
907 2 0.173093 0.097585 0.669481
908 4 0.174102 0.112 0.689886
1226 4 0.193454 0.102403 0.751329
1227 4 0.183891 0.121114 0.705951
1225 2 0.188673 0.111759 0.72864
831 4 0.310972 0.146833 0.713608
1005 4 0.36024 0.0835188 0.661793
1299 4 0.324775 0.137712 0.724811
1297 2 0.33274 0.14671 0.746738
3426 4 0.497632 0.0871393 0.701809
852 4 0.0460999 0.242218 0.71625
851 4 0.0728214 0.209631 0.743171
850 2 0.0594607 0.225925 0.729711
1208 4 0.0512683 0.233305 0.699531
1207 2 0.05091 0.24589 0.677929
1107 4 0.082184 0.192138 0.744291
1105 2 0.107025 0.191569 0.741498
1072 2 0.148858 0.227375 0.743688
1106 4 0.131865 0.190999 0.738705
1073 4 0.142694 0.203282 0.741103
1131 4 0.210921 0.224664 0.739678
1277 4 0.195184 0.238564 0.744015
1129 2 0.198853 0.203232 0.74417
1130 4 0.186784 0.1818 0.748662
829 2 0.29395 0.164448 0.70859
886 2 0.260608 0.19826 0.671149
830 4 0.276928 0.182062 0.703572
887 4 0.269161 0.197108 0.694616
976 2 0.271411 0.220763 0.721462
978 4 0.2805 0.201039 0.709073
977 4 0.262321 0.240488 0.733852
918 4 0.279418 0.250005 0.736074
1193 4 0.378765 0.200021 0.732016
1192 2 0.391653 0.216315 0.718103
1194 4 0.404542 0.23261 0.704191
1142 4 0.382898 0.205504 0.752878
821 4 0.135523 0.330603 0.700586
820 2 0.140409 0.306465 0.696268
822 4 0.145294 0.282326 0.69195
1064 4 0.262271 0.326906 0.761419
916 2 0.297858 0.260428 0.749359
1261 2 0.42216 0.27502 0.743426
1263 4 0.426101 0.272089 0.718909
893 4 0.0554287 0.390701 0.719764
892 2 0.0762117 0.380844 0.729566
1280 4 0.0553656 0.404834 0.705368
3275 4 0.000884338 0.323426 0.702431
992 4 0.126952 0.418245 0.675778
894 4 0.0969947 0.370987 0.739368
940 2 0.123822 0.356866 0.710752
941 4 0.14406 0.348546 0.698654
1067 4 0.160984 0.35478 0.691075
942 4 0.103584 0.365186 0.722851
815 4 0.10005 0.352168 0.738877
1028 4 0.226198 0.367182 0.67704
1027 2 0.235845 0.390106 0.679609
1066 2 0.184278 0.358618 0.682839
1068 4 0.207572 0.362455 0.674603
1029 4 0.245491 0.413031 0.682178
1205 4 0.417711 0.414713 0.758368
1018 2 0.344438 0.356772 0.746208
1020 4 0.35576 0.336053 0.754438
1279 2 0.0496061 0.427905 0.713095
1281 4 0.0438467 0.450977 0.720821
1983 4 0.0450103 0.468634 0.712092
1981 2 0.0590609 0.489059 0.715343
1139 4 0.259318 0.425372 0.692124
1138 2 0.258248 0.441698 0.673217
1988 4 0.304563 0.47053 0.742713
1987 2 0.324237 0.468814 0.727378
1204 2 0.413628 0.421284 0.734592
1230 4 0.403796 0.447562 0.714868
1228 2 0.383167 0.461169 0.711069
1229 4 0.362537 0.474777 0.707269
1989 4 0.343911 0.467098 0.712043
1206 4 0.409545 0.427856 0.710815
1268 4 0.436342 0.4705 0.660105
3330 4 0.494667 0.441209 0.70159
2168 4 0.447705 0.480256 0.672052
1100 4 0.441065 0.461494 0.675958