ITEM: TIMESTEP
1590000
ITEM: NUMBER OF ATOMS
4590
ITEM: BOX BOUNDS pp pp pp
-9.9985700000000008e+00 9.9985700000000008e+00
-9.9985700000000008e+00 9.9985700000000008e+00
-9.9985700000000008e+00 9.9985700000000008e+00
ITEM: ATOMS id type xs ys zs
463 2 0.0346005 0.0906819 0.0085819
465 4 0.0531563 0.0757026 0.00106654
701 4 0.0651282 0.0691989 0.0150895
2576 4 0.0374617 0.0117885 0.0825299
3290 4 0.973491 0.0523086 0.993799
700 2 0.0878994 0.0635203 0.0237154
702 4 0.110671 0.0578416 0.0323414
566 4 0.112803 0.0774753 0.0282316
565 2 0.13506 0.0855668 0.0362516
567 4 0.157317 0.0936584 0.0442715
491 4 0.263532 0.0100008 0.0455871
2264 4 0.252456 0.0204812 0.0324209
2263 2 0.256064 0.0397642 0.0169183
2265 4 0.259671 0.0590472 0.00141562
653 4 0.341688 0.00209244 0.0783459
557 4 0.338282 0.097326 0.0879156
745 2 0.466691 0.04767 0.00861915
746 4 0.472503 0.0406332 0.0318975
2469 4 0.489449 0.0303797 0.0385215
2467 2 0.49191 0.00673275 0.0462637
464 4 0.0160447 0.105661 0.0160973
590 4 0.00675878 0.117933 0.0300213
422 4 0.123344 0.10212 0.0035068
558 4 0.306659 0.0987802 0.0492045
556 2 0.32247 0.0980531 0.06856
865 2 0.344335 0.158593 0.00505857
866 4 0.345201 0.134104 8.34391e-05
771 4 0.463005 0.13608 0.0852597
769 2 0.466415 0.159315 0.0938453
554 4 0.0504139 0.213457 0.03875
553 2 0.0633299 0.224677 0.0205163
837 4 0.137083 0.240788 0.996587
665 4 0.344399 0.179079 0.0292098
666 4 0.340884 0.223305 0.0522843
664 2 0.342642 0.201192 0.040747
461 4 0.333251 0.225583 0.0697669
573 4 0.341643 0.241133 0.0615262
867 4 0.343469 0.183081 0.0100337
1070 4 0.37422 0.217082 0.0588143
1069 2 0.392878 0.233645 0.0571627
555 4 0.0762459 0.235896 0.00228253
294 4 0.0948018 0.265254 0.056162
2808 4 0.986134 0.293706 0.00585905
648 4 0.060596 0.338441 0.0866891
2806 2 0.984017 0.28413 0.0288589
292 2 0.106018 0.277822 0.0376848
507 4 0.135053 0.290746 0.0289412
293 4 0.117235 0.29039 0.0192076
505 2 0.147698 0.31221 0.0310741
506 4 0.160343 0.333675 0.033207
571 2 0.332115 0.259787 0.0478726
356 4 0.326977 0.297466 0.0287257
572 4 0.322587 0.278441 0.0342189
355 2 0.306963 0.310907 0.0220952
357 4 0.286949 0.324348 0.0154647
1071 4 0.411536 0.250209 0.0555111
324 4 0.404728 0.268606 0.058553
322 2 0.424378 0.280666 0.0682269
672 4 0.442695 0.313505 0.0790106
323 4 0.444029 0.292726 0.0779009
620 4 0.00768364 0.375289 0.0719905
646 2 0.0378586 0.348194 0.0830745
456 4 0.0706356 0.333624 0.102403
483 4 0.168061 0.351111 0.0405213
481 2 0.191484 0.359834 0.041202
609 4 0.224708 0.378839 0.0277817
607 2 0.242129 0.394867 0.0358295
482 4 0.214907 0.368557 0.0418828
608 4 0.259551 0.410895 0.0438774
957 4 0.380013 0.351051 0.0148801
670 2 0.456818 0.33413 0.0795793
671 4 0.470942 0.354755 0.080148
280 2 0.475474 0.393477 0.0713789
281 4 0.481796 0.369436 0.0740713
282 4 0.469151 0.417518 0.0686864
552 4 0.11084 0.488108 0.0783554
550 2 0.099931 0.466714 0.0853153
627 4 0.237736 0.468987 0.0768671
252 4 0.272223 0.413179 0.0600342
244 2 0.258447 0.488364 0.0502181
245 4 0.256551 0.473908 0.0705309
250 2 0.28872 0.43077 0.0534314
251 4 0.305216 0.448361 0.0468287
272 4 0.255597 0.490691 0.0151339
523 2 0.372191 0.506772 0.0380785
525 4 0.370507 0.488649 0.0552217
226 2 0.454231 0.455611 0.0507312
228 4 0.446606 0.477219 0.0407245
227 4 0.461856 0.434003 0.0607378
563 4 0.440876 0.490643 0.0284794
2575 2 0.013047 0.0151301 0.0867649
16 1 0.060733 0.0557461 0.132622
20 3 0.0437988 0.0654915 0.120921
1806 4 0.0585201 0.0132761 0.129912
18 3 0.0563605 0.0331453 0.135536
17 3 0.0803743 0.0580664 0.120875
1804 2 0.0603152 0.998905 0.109529
19 3 0.0630704 0.0660874 0.153262
1505 4 0.186943 0.0429256 0.148301
450 4 0.179616 0.0529333 0.133011
448 2 0.184089 0.0775183 0.132141
652 2 0.329751 0.00309435 0.100294
654 4 0.317815 0.00409625 0.122241
484 2 0.387923 0.00648703 0.101284
295 2 0.362571 0.0619783 0.0935193
297 4 0.377186 0.043853 0.102632
485 4 0.373679 0.0251553 0.109874
237 4 0.144557 0.154942 0.124355
578 4 0.123068 0.150486 0.122625
577 2 0.104985 0.133264 0.121364
579 4 0.0869019 0.116042 0.120102
235 2 0.16146 0.136861 0.127896
236 4 0.178363 0.11878 0.131437
693 4 0.191943 0.116501 0.144907
449 4 0.188561 0.102103 0.131271
691 2 0.212727 0.118892 0.158599
296 4 0.347955 0.0801036 0.0844071
310 2 0.417621 0.154868 0.147903
311 4 0.415931 0.131787 0.157368
339 4 0.0560514 0.189777 0.137427
337 2 0.0780366 0.191284 0.14924
476 4 0.15278 0.172857 0.127959
475 2 0.133834 0.184989 0.138869
477 4 0.114888 0.197121 0.149779
737 4 0.170536 0.180566 0.129256
338 4 0.100022 0.192791 0.161054
736 2 0.185514 0.199615 0.123092
738 4 0.200491 0.218664 0.116929
460 2 0.3315 0.226492 0.0946925
283 2 0.318132 0.198059 0.141797
462 4 0.329749 0.2274 0.119618
354 4 0.319808 0.235731 0.131632
285 4 0.308878 0.175734 0.148212
284 4 0.327385 0.220384 0.135382
255 4 0.337231 0.234818 0.133665
254 4 0.384159 0.235131 0.15094
253 2 0.360695 0.234974 0.142303
630 4 0.40057 0.225241 0.150899
628 2 0.414656 0.208543 0.138736
765 4 0.400497 0.241545 0.160166
770 4 0.469824 0.182549 0.102431
1014 4 0.477715 0.200692 0.0978867
312 4 0.419312 0.177949 0.138438
629 4 0.428742 0.191845 0.126573
749 4 0.0778866 0.288071 0.148955
455 4 0.100931 0.343932 0.14083
353 4 0.292562 0.268807 0.157408
754 2 0.268484 0.303936 0.14735
755 4 0.281602 0.282953 0.150931
278 4 0.274857 0.271218 0.165521
352 2 0.306185 0.252269 0.14452
519 4 0.501706 0.289829 0.0965786
517 2 0.502512 0.285346 0.121164
647 4 0.0151211 0.357947 0.07946
454 2 0.0857834 0.338778 0.121617
537 4 0.198894 0.377899 0.141364
535 2 0.205739 0.397225 0.127053
611 4 0.215185 0.365356 0.142198
610 2 0.237932 0.355184 0.144267
612 4 0.260679 0.345012 0.146337
756 4 0.255366 0.324918 0.143769
741 4 0.379952 0.380037 0.0832175
739 2 0.388264 0.382246 0.106695
740 4 0.396576 0.384456 0.130173
15 3 0.393876 0.371026 0.144408
385 2 0.367553 0.399047 0.155359
386 4 0.388744 0.389405 0.146241
495 4 0.404769 0.399648 0.139914
11 1 0.414584 0.373881 0.153446
387 4 0.346361 0.408689 0.164478
2651 4 0.4887 0.358505 0.08786
12 3 0.429503 0.360033 0.142729
14 3 0.421458 0.395872 0.1507
1465 2 0.0123386 0.478615 0.135634
1466 4 0.030328 0.492674 0.145827
551 4 0.0890214 0.445319 0.0922751
625 2 0.226165 0.450555 0.0891778
626 4 0.214594 0.432123 0.101489
536 4 0.212585 0.416551 0.112741
767 4 0.25517 0.470094 0.140457
638 4 0.247259 0.489045 0.139479
766 2 0.262372 0.446641 0.14528
768 4 0.269574 0.423188 0.150104
493 2 0.411742 0.423046 0.134522
494 4 0.418715 0.446444 0.12913
660 4 0.424184 0.446405 0.148532
658 2 0.435415 0.466231 0.158825
2480 4 0.00397045 0.0111179 0.217862
380 4 0.0464247 0.0764288 0.158239
1422 4 0.0169503 0.996164 0.223744
673 2 0.121252 0.0584764 0.1967
675 4 0.096914 0.0633335 0.193659
674 4 0.14559 0.0536193 0.199741
1504 2 0.184925 0.0332761 0.171279
689 4 0.194007 0.0147992 0.209829
1506 4 0.182907 0.0236265 0.194257
21 1 0.395394 0.0107528 0.235387
25 3 0.417443 0.0161349 0.233514
22 3 0.382692 0.0274438 0.225941
23 3 0.389622 0.00868707 0.257766
757 2 0.419278 0.0504985 0.207185
759 4 0.420594 0.032707 0.224704
351 4 0.473379 0.0259736 0.258393
349 2 0.454376 0.0231524 0.24239
350 4 0.435372 0.0203311 0.226387
758 4 0.417963 0.0682901 0.189667
379 2 0.0411205 0.0945932 0.174582
512 4 0.0329039 0.112242 0.210469
381 4 0.0358163 0.112758 0.190925
511 2 0.0497329 0.117903 0.228073
513 4 0.066562 0.123564 0.245677
692 4 0.233512 0.121283 0.17229
721 2 0.198101 0.150864 0.232878
723 4 0.20705 0.132603 0.218329
582 4 0.249092 0.113623 0.162764
580 2 0.268091 0.119317 0.177988
581 4 0.28709 0.125011 0.193213
30 3 0.301696 0.135004 0.182395
26 1 0.314114 0.144828 0.198764
29 3 0.314769 0.131148 0.217494
27 3 0.304495 0.164906 0.204552
28 3 0.335649 0.148769 0.191076
363 4 0.117664 0.196588 0.169053
362 4 0.131809 0.210399 0.214986
361 2 0.124737 0.203493 0.19202
372 4 0.130356 0.224417 0.229103
370 2 0.146485 0.241879 0.236855
371 4 0.162614 0.259342 0.244606
722 4 0.189152 0.169124 0.247426
521 4 0.460702 0.183037 0.221548
520 2 0.485665 0.182775 0.220142
394 2 0.0592848 0.304343 0.234138
396 4 0.0422046 0.30724 0.252167
750 4 0.0783451 0.29025 0.198913
748 2 0.0781159 0.28916 0.173934
395 4 0.0763651 0.301446 0.216109
300 4 0.125018 0.311454 0.201571
298 2 0.125388 0.32565 0.22215
279 4 0.24659 0.249301 0.200468
277 2 0.260723 0.260259 0.182994
307 2 0.31827 0.301973 0.228038
309 4 0.312775 0.307896 0.204376
763 2 0.406235 0.263176 0.171317
764 4 0.411972 0.284808 0.182467
623 4 0.419458 0.29534 0.197018
526 2 0.494995 0.287091 0.179009
528 4 0.482146 0.301218 0.19515
622 2 0.443277 0.301337 0.201696
624 4 0.467096 0.307334 0.206374
262 2 0.0538775 0.400081 0.230881
264 4 0.0289396 0.401288 0.232231
263 4 0.0788154 0.398874 0.22953
602 4 0.0774812 0.385471 0.241766
299 4 0.125757 0.339846 0.242729
603 4 0.118996 0.357879 0.245751
601 2 0.0982388 0.371675 0.243758
290 4 0.196091 0.38757 0.233934
289 2 0.182681 0.402037 0.21857
13 3 0.414193 0.368462 0.176004
416 4 0.178035 0.433297 0.210138
291 4 0.169271 0.416504 0.203206
1430 4 0.180001 0.499069 0.210882
417 4 0.190822 0.481642 0.210091
415 2 0.184428 0.45747 0.210114
301 2 0.310926 0.425672 0.161211
303 4 0.285981 0.42456 0.162498
302 4 0.335872 0.426785 0.159924
713 4 0.358627 0.492004 0.236656
2860 2 0.459182 0.413869 0.262736
659 4 0.446647 0.486058 0.169119
597 4 0.498548 0.464921 0.204221
595 2 0.479209 0.476626 0.193537
596 4 0.45987 0.488331 0.182852
2861 4 0.438635 0.427854 0.260015
231 4 0.441992 0.493006 0.187238
1568 4 0.450669 0.503976 0.174549
1799 4 0.024934 0.0271609 0.309195
233 4 0.0305225 0.0232932 0.290753
1402 2 0.0615397 0.00459613 0.298859
1403 4 0.0395633 0.0142539 0.305855
232 2 0.0236631 0.0422186 0.275922
234 4 0.0168037 0.0611441 0.261091
1798 2 0.012528 0.0157077 0.327636
697 2 0.359977 0.0236891 0.328718
699 4 0.355876 0.999139 0.326338
633 4 0.375097 0.0589204 0.319258
631 2 0.375125 0.0756404 0.300667
743 4 0.479885 0.0472644 0.318172
744 4 0.467103 0.0400069 0.270374
742 2 0.473494 0.0436356 0.294273
479 4 0.491002 0.0572069 0.330715
2664 4 0.495343 0.0385204 0.32542
399 4 0.0580011 0.107312 0.318474
317 4 0.0491716 0.112579 0.335306
731 4 0.0580034 0.0949836 0.332879
398 4 0.0996054 0.128915 0.301063
397 2 0.0788033 0.118114 0.309768
393 4 0.108579 0.142425 0.290362
390 4 0.104894 0.145927 0.309133
391 2 0.109215 0.158959 0.271616
249 4 0.201122 0.144636 0.323524
247 2 0.208083 0.124872 0.337167
404 4 0.192185 0.147851 0.305812
403 2 0.187397 0.161628 0.285503
632 4 0.375152 0.0923605 0.282076
333 4 0.466934 0.150379 0.324042
331 2 0.465049 0.169094 0.307569
544 2 0.152562 0.185361 0.249909
545 4 0.127613 0.18588 0.251473
392 4 0.109851 0.175492 0.25287
546 4 0.177511 0.184842 0.248344
405 4 0.182608 0.175404 0.265194
420 4 0.406442 0.218615 0.274984
717 4 0.39372 0.233032 0.278518
332 4 0.463165 0.187809 0.291095
418 2 0.426052 0.20347 0.278342
419 4 0.445661 0.188326 0.2817
760 2 0.480331 0.214934 0.273657
762 4 0.4595 0.201808 0.27801
444 4 0.0131247 0.257219 0.284354
443 4 0.0383297 0.297333 0.268346
365 4 0.0270183 0.312208 0.263675
364 2 0.0103798 0.330852 0.264534
442 2 0.0257272 0.277276 0.27635
401 4 0.210103 0.270148 0.269678
400 2 0.222468 0.273583 0.291137
402 4 0.234833 0.277019 0.312596
345 4 0.244998 0.275744 0.328519
510 4 0.243248 0.293416 0.320088
508 2 0.229881 0.313932 0.325147
308 4 0.323765 0.29605 0.2517
496 2 0.295662 0.307905 0.285328
498 4 0.27685 0.312023 0.301275
497 4 0.314474 0.303787 0.269381
715 2 0.404089 0.255425 0.282544
716 4 0.414457 0.277819 0.28657
542 4 0.425756 0.291243 0.295591
541 2 0.429649 0.312077 0.308857
549 4 0.0266422 0.417201 0.30693
777 4 0.0412269 0.429535 0.311536
547 2 0.0148238 0.401901 0.322786
734 4 0.134158 0.352282 0.255798
733 2 0.139741 0.351654 0.280162
735 4 0.145324 0.351026 0.304526
677 4 0.152491 0.35708 0.321947
509 4 0.216514 0.334449 0.330206
676 2 0.175213 0.348151 0.327347
435 4 0.212226 0.353217 0.331681
437 4 0.344314 0.434457 0.310592
728 4 0.35849 0.372099 0.317125
727 2 0.355136 0.395367 0.308607
729 4 0.351783 0.418635 0.30009
615 4 0.423087 0.345348 0.311856
543 4 0.433542 0.33291 0.322123
613 2 0.430105 0.369188 0.314605
2538 4 0.472427 0.355604 0.309709
2536 2 0.479254 0.36801 0.289101
614 4 0.437124 0.393029 0.317354
2537 4 0.48608 0.380415 0.268493
2862 4 0.479729 0.399883 0.265457
753 4 0.467292 0.35716 0.328592
775 2 0.0639551 0.439596 0.308817
414 4 0.0977828 0.459859 0.318673
776 4 0.0866832 0.449656 0.306097
412 2 0.11224 0.475365 0.33193
438 4 0.30766 0.459373 0.287433
436 2 0.325987 0.446915 0.299013
594 4 0.402012 0.486126 0.309847
1772 4 0.0208763 0.0160038 0.399775
1771 2 0.00779533 0.00567794 0.381135
732 4 0.0720229 0.0524437 0.355117
730 2 0.0650131 0.0737136 0.343998
2238 4 0.0175335 0.0355579 0.403154
1782 4 0.10129 0.996022 0.405429
369 4 0.0835247 0.0385019 0.363394
367 2 0.0969149 0.0256416 0.380142
368 4 0.110305 0.0127812 0.39689
604 2 0.134178 0.0998461 0.386001
605 4 0.153947 0.0846223 0.387616
1701 4 0.170083 0.0734983 0.388563
1699 2 0.185062 0.0821552 0.370511
1700 4 0.200042 0.090812 0.35246
698 4 0.364078 0.048239 0.331098
256 2 0.390517 0.061996 0.358466
257 4 0.375918 0.0626656 0.338178
258 4 0.405117 0.0613263 0.378753
426 4 0.399228 0.0530055 0.395435
424 2 0.401748 0.0355614 0.41317
478 2 0.476041 0.0689049 0.346979
458 4 0.0159394 0.149407 0.371574
318 4 0.0214027 0.150394 0.352616
316 2 0.0352872 0.131487 0.343961
388 2 0.111706 0.158371 0.329722
606 4 0.114409 0.11507 0.384387
248 4 0.215044 0.105108 0.35081
600 4 0.229486 0.145165 0.391746
683 4 0.24156 0.134765 0.402824
598 2 0.2241 0.166451 0.403708
682 2 0.262458 0.121183 0.404822
319 2 0.31839 0.11943 0.394256
320 4 0.302792 0.106798 0.409167
321 4 0.333988 0.132061 0.379345
708 4 0.31922 0.13831 0.366544
706 2 0.312929 0.15794 0.352393
480 4 0.46108 0.0806029 0.363242
516 4 0.426887 0.118068 0.359294
515 4 0.460208 0.151133 0.342055
575 4 0.424714 0.109253 0.37756
574 2 0.432974 0.114561 0.400555
514 2 0.443547 0.1346 0.350674
453 4 0.475976 0.16187 0.337731
459 4 0.00432314 0.18735 0.402006
457 2 0.0101313 0.168379 0.38679
389 4 0.118517 0.170816 0.350311
473 4 0.223947 0.232335 0.391083
374 4 0.213417 0.249017 0.395503
472 2 0.248896 0.230754 0.39152
378 4 0.267457 0.21577 0.352578
376 2 0.288784 0.206373 0.343522
377 4 0.310112 0.196976 0.334466
707 4 0.306638 0.17757 0.338241
474 4 0.273846 0.229173 0.391958
488 4 0.274804 0.215859 0.406213
451 2 0.490249 0.164477 0.358095
452 4 0.504522 0.167083 0.378459
347 4 0.0673834 0.317015 0.401696
618 4 0.0791414 0.303045 0.410566
275 4 0.129069 0.295162 0.376558
617 4 0.126661 0.301444 0.395073
616 2 0.102901 0.302245 0.402819
274 2 0.153266 0.301076 0.378735
343 2 0.252882 0.255048 0.340126
276 4 0.177462 0.30699 0.380911
373 2 0.198977 0.268848 0.390671
375 4 0.184536 0.28868 0.385838
344 4 0.260766 0.234353 0.351733
408 4 0.0206147 0.359681 0.392315
548 4 0.00300532 0.3866 0.338642
406 2 0.0184964 0.365556 0.368104
407 4 0.0163781 0.371431 0.343893
678 4 0.197935 0.339221 0.332747
433 2 0.232213 0.367552 0.336179
434 4 0.252199 0.381887 0.340677
334 2 0.326984 0.411581 0.397483
502 2 0.269982 0.402505 0.396531
504 4 0.252974 0.385868 0.404222
503 4 0.28699 0.419141 0.388841
335 4 0.348848 0.399995 0.401077
240 4 0.366917 0.393509 0.405312
561 4 0.485652 0.33796 0.388537
559 2 0.504349 0.337982 0.405139
752 4 0.483021 0.353307 0.375904
751 2 0.475157 0.355233 0.352248
413 4 0.126698 0.490871 0.345186
500 4 0.127739 0.505518 0.35891
1544 4 0.143553 0.497247 0.350904
1545 4 0.193271 0.499309 0.345946
1543 2 0.168412 0.498278 0.348425
636 4 0.219058 0.429663 0.409469
669 4 0.294493 0.437461 0.387387
336 4 0.30512 0.423167 0.393888
667 2 0.290637 0.450411 0.408425
592 2 0.406685 0.496135 0.332278
593 4 0.411357 0.506144 0.354709
3990 4 0.487867 0.49904 0.378726
2237 4 0.0127881 0.0681133 0.440814
2236 2 0.0151608 0.0518356 0.421984
1127 4 0.00908936 0.06556 0.460097
720 4 0.0260195 0.0736059 0.454062
724 2 0.288398 0.0563402 0.488816
725 4 0.294183 0.0348429 0.5002
1182 4 0.296855 0.085893 0.466391
1580 4 0.387734 0.0153687 0.441539
425 4 0.404268 0.0181173 0.430905
2878 2 0.468376 0.0633353 0.491266
2880 4 0.464263 0.0611722 0.466698
642 4 0.453062 0.0774718 0.461523
718 2 0.0484442 0.0841618 0.457362
719 4 0.0708688 0.0947177 0.460661
1033 2 0.111359 0.13776 0.464019
1035 4 0.121571 0.147102 0.443195
1034 4 0.101148 0.128417 0.484843
261 4 0.130072 0.16578 0.447558
939 4 0.11121 0.129533 0.502423
726 4 0.282613 0.0778374 0.477433
684 4 0.283356 0.107601 0.40682
1180 2 0.29441 0.0988861 0.445169
1181 4 0.291965 0.111879 0.423947
641 4 0.455396 0.121143 0.437273
576 4 0.441234 0.119869 0.42355
640 2 0.454229 0.0993075 0.449398
306 4 0.455571 0.132281 0.421601
304 2 0.465274 0.152586 0.432498
471 4 0.0142204 0.201277 0.478721
259 2 0.14322 0.185584 0.455309
694 2 0.151268 0.235413 0.478952
696 4 0.134974 0.253167 0.485619
599 4 0.218715 0.187736 0.415671
260 4 0.156369 0.205389 0.463059
695 4 0.167562 0.217658 0.472284
687 4 0.213845 0.197976 0.43204
686 4 0.17183 0.213915 0.453982
685 2 0.192837 0.205945 0.443011
411 4 0.238413 0.199959 0.48391
487 2 0.290583 0.215382 0.425604
489 4 0.306361 0.214904 0.444994
467 4 0.406185 0.215722 0.421528
466 2 0.388466 0.232114 0.428048
468 4 0.370747 0.248506 0.434568
873 4 0.373001 0.239643 0.501072
305 4 0.474977 0.172891 0.443394
585 4 0.427862 0.245194 0.477641
1260 4 0.119486 0.261257 0.475916
1258 2 0.100823 0.259881 0.492498
813 4 0.252477 0.279352 0.475348
811 2 0.253507 0.298815 0.491011
266 4 0.330796 0.276256 0.452615
812 4 0.254538 0.318278 0.506673
267 4 0.367053 0.264684 0.420177
265 2 0.348925 0.27047 0.436396
2456 4 0.460243 0.301732 0.497652
584 4 0.455827 0.285598 0.486925
583 2 0.441845 0.265396 0.482283
2455 2 0.478915 0.316982 0.504281
2813 4 0.0011546 0.401491 0.434575
346 2 0.0600597 0.33427 0.418244
348 4 0.052736 0.351524 0.434791
326 4 0.0527664 0.366166 0.448819
325 2 0.07535 0.36789 0.459411
383 4 0.0802048 0.407878 0.466605
384 4 0.128105 0.418078 0.476719
382 2 0.104155 0.412978 0.471662
10 3 0.14349 0.344254 0.486928
327 4 0.0979335 0.369614 0.470003
7 3 0.115084 0.367709 0.480942
6 1 0.135332 0.365015 0.49152
711 4 0.162201 0.396101 0.476567
8 3 0.150052 0.381196 0.483779
774 4 0.226415 0.419031 0.468378
635 4 0.212276 0.412947 0.456109
709 2 0.186221 0.402989 0.47571
772 2 0.240732 0.408919 0.48621
710 4 0.210242 0.409877 0.474852
239 4 0.403128 0.397751 0.439539
586 2 0.414537 0.421511 0.471183
238 2 0.385023 0.39563 0.422426
588 4 0.404584 0.415027 0.449182
681 4 0.0624109 0.412811 0.457404
679 2 0.0624856 0.434689 0.445298
680 4 0.0625603 0.456567 0.433193
1381 2 0.0691853 0.48825 0.422675
1383 4 0.0508233 0.47228 0.428417
569 4 0.144579 0.42484 0.467686
539 4 0.0926868 0.471593 0.485329
570 4 0.146219 0.474235 0.475314
538 2 0.108068 0.488985 0.49461
568 2 0.145399 0.449538 0.4715
634 2 0.215667 0.421305 0.432789
1 1 0.293853 0.493829 0.444202
5 3 0.278831 0.484954 0.458839
4 3 0.301276 0.47743 0.42956
668 4 0.286781 0.463362 0.429463
880 2 0.31799 0.491601 0.49691
587 4 0.424491 0.427995 0.493185
1184 4 0.999463 0.0377338 0.570129
1059 4 0.147206 0.0730066 0.569711
1057 2 0.141175 0.0500762 0.577649
1058 4 0.135145 0.0271459 0.585587
340 2 0.19543 0.0460607 0.515347
342 4 0.182081 0.0661905 0.521811
2430 4 0.204121 0.01158 0.523056
341 4 0.208779 0.0259309 0.508884
430 2 0.322396 0.0274027 0.526016
432 4 0.310146 0.0243434 0.504435
963 4 0.295124 0.0155215 0.495265
961 2 0.274132 0.00194529 0.495728
431 4 0.334646 0.030462 0.547597
843 4 0.35212 0.03413 0.540846
1217 4 0.421732 0.0381313 0.546521
842 4 0.401464 0.0354408 0.548859
841 2 0.376792 0.0347854 0.544853
1216 2 0.434534 0.0182521 0.554651
1218 4 0.447337 0.998373 0.56278
2879 4 0.47249 0.0654983 0.515833
1272 4 0.0903062 0.168444 0.548622
938 4 0.0888344 0.149681 0.542349
1150 2 0.173157 0.0858761 0.550248
937 2 0.100022 0.139607 0.522386
1151 4 0.160778 0.0872252 0.57193
1270 2 0.105395 0.170249 0.568478
1155 4 0.144822 0.0882482 0.582409
1152 4 0.185536 0.084527 0.528566
879 4 0.0771683 0.164016 0.534992
877 2 0.0529317 0.163918 0.541137
878 4 0.0286951 0.163821 0.547281
1199 4 0.0209585 0.180498 0.55678
1198 2 0.996267 0.184163 0.558214
409 2 0.255916 0.209313 0.499119
898 2 0.296088 0.227289 0.54945
791 4 0.318334 0.232923 0.583663
899 4 0.303113 0.2294 0.573353
900 4 0.289063 0.225178 0.525546
410 4 0.273419 0.218668 0.514328
871 2 0.381326 0.248493 0.522925
906 4 0.430708 0.229592 0.568608
1259 4 0.0821595 0.258504 0.509081
649 2 0.279645 0.308557 0.538833
651 4 0.298209 0.298886 0.552509
650 4 0.261081 0.318229 0.525157
872 4 0.389651 0.257343 0.544778
790 2 0.334527 0.251967 0.583094
792 4 0.350719 0.271011 0.582525
9 3 0.132227 0.367421 0.514389
1135 2 0.139741 0.397624 0.572881
1136 4 0.121315 0.414526 0.573029
897 4 0.176336 0.386722 0.574897
1189 2 0.243052 0.410512 0.543341
895 2 0.195561 0.402704 0.575272
896 4 0.214786 0.418687 0.575647
1191 4 0.230953 0.418521 0.563703
1190 4 0.255152 0.402502 0.522978
804 4 0.253275 0.334699 0.517152
803 4 0.258456 0.384437 0.517381
802 2 0.255865 0.359568 0.517266
773 4 0.255049 0.398808 0.504041
930 4 0.272357 0.397692 0.513785
928 2 0.29083 0.41378 0.518798
929 4 0.309302 0.429868 0.523811
927 4 0.418756 0.372994 0.533625
925 2 0.422729 0.393939 0.52056
2457 4 0.497588 0.332232 0.51091
1172 4 0.225982 0.43439 0.57381
1171 2 0.21536 0.454039 0.585047
889 2 0.304482 0.491511 0.556638
891 4 0.317367 0.48717 0.535654
890 4 0.291597 0.495852 0.577621
1953 4 0.366996 0.440568 0.541013
1951 2 0.346783 0.454981 0.538028
1952 4 0.326571 0.469394 0.535043
881 4 0.322168 0.479306 0.518278
926 4 0.426702 0.414884 0.507495
663 4 0.429162 0.434484 0.510777
1001 4 0.417282 0.489176 0.542101
662 4 0.430685 0.478961 0.533585
661 2 0.429923 0.456723 0.522181
1911 4 0.42903 0.47787 0.552813
1909 2 0.433175 0.470469 0.576334
1332 4 0.435929 0.494078 0.54511
945 4 0.0731103 0.00901028 0.62906
1185 4 0.0159748 0.0105675 0.60873
1183 2 0.00771867 0.0241506 0.589429
2375 4 0.135099 0.0171902 0.602619
943 2 0.0918903 0.00144218 0.64373
1284 4 0.134892 0.0535646 0.66257
944 4 0.11067 0.993874 0.6584
950 4 0.241972 0.00535727 0.630269
949 2 0.251142 0.0285405 0.632172
951 4 0.260312 0.0517238 0.634076
1031 4 0.272453 0.0677451 0.634282
45 3 0.425108 0.080073 0.663344
1271 4 0.120483 0.172055 0.588334
1153 2 0.154938 0.103329 0.599596
1221 4 0.164763 0.123441 0.637921
1154 4 0.165055 0.11841 0.616783
1219 2 0.17962 0.143519 0.636785
1220 4 0.194478 0.163597 0.635648
1030 2 0.283781 0.0898302 0.631265
1032 4 0.295109 0.111915 0.628248
808 2 0.483784 0.091367 0.640137
810 4 0.474337 0.0888503 0.66315
809 4 0.493232 0.0938837 0.617124
1245 4 0.0830461 0.214653 0.659647
1243 2 0.0845021 0.215966 0.634721
1244 4 0.0859581 0.217279 0.609794
797 4 0.170439 0.225152 0.638722
1212 4 0.209838 0.175616 0.633571
1210 2 0.229429 0.176799 0.649061
796 2 0.181385 0.203334 0.633305
798 4 0.192331 0.181517 0.627887
857 4 0.302654 0.225862 0.592262
856 2 0.294109 0.217898 0.614369
858 4 0.285563 0.209933 0.636476
905 4 0.459326 0.241943 0.607712
3123 4 0.470572 0.232609 0.621684
904 2 0.445017 0.235767 0.58816
3121 2 0.487193 0.219567 0.635056
983 4 0.0478652 0.286012 0.590952
982 2 0.045995 0.302265 0.60986
3263 4 0.0521282 0.32902 0.643254
984 4 0.0441249 0.318518 0.628768
947 4 0.313426 0.290459 0.67648
805 2 0.321355 0.322839 0.649245
1239 4 0.335426 0.319626 0.617743
807 4 0.338146 0.310543 0.635387
1238 4 0.346266 0.290351 0.578676
1237 2 0.340846 0.304989 0.59821
952 2 0.478296 0.325186 0.603377
953 4 0.456987 0.318931 0.614865
1041 4 0.0462333 0.337827 0.627282
1039 2 0.0420846 0.362146 0.623211
1040 4 0.0379359 0.386464 0.619139
993 4 0.0476307 0.404095 0.61986
1137 4 0.158166 0.380722 0.572734
1029 4 0.219226 0.424587 0.638512
1206 4 0.465429 0.405481 0.598399
991 2 0.0592337 0.420783 0.605298
992 4 0.0708367 0.437472 0.590737
1159 2 0.179441 0.502501 0.586298
1160 4 0.20101 0.492423 0.593939
1173 4 0.204738 0.473688 0.596285
1188 4 0.198866 0.46416 0.656782
1187 4 0.202794 0.485759 0.611852
1186 2 0.20083 0.47496 0.634317
1204 2 0.451526 0.425445 0.60417
1910 4 0.437321 0.463068 0.599854
1269 4 0.435241 0.462605 0.618892
1267 2 0.433728 0.468304 0.64319
1205 4 0.437623 0.445409 0.609941
1075 2 0.0318996 0.0793323 0.732406
825 4 0.111007 0.984018 0.674385
1282 2 0.135557 0.074095 0.676827
1004 4 0.31954 0.00964383 0.710144
1003 2 0.319515 0.0345652 0.708119
1005 4 0.31949 0.0594867 0.706094
2399 4 0.315485 0.993896 0.721106
1162 2 0.489491 0.0642444 0.688944
42 3 0.437772 0.07049 0.697118
1163 4 0.470875 0.0776342 0.678977
44 3 0.458803 0.0922955 0.674873
41 1 0.437105 0.0872128 0.681336
1083 4 0.0213296 0.144203 0.686008
1081 2 0.0290629 0.121496 0.693063
1082 4 0.0367962 0.0987894 0.700118
1076 4 0.0307982 0.0811427 0.707492
850 2 0.0685749 0.151353 0.728821
1214 4 0.0347271 0.16426 0.731567
3179 4 0.0202043 0.163588 0.681303
852 4 0.0478782 0.153313 0.742713
909 4 0.101955 0.151604 0.700496
907 2 0.118221 0.132823 0.697685
908 4 0.134487 0.114043 0.694874
1283 4 0.136222 0.0946253 0.691083
1227 4 0.1392 0.10169 0.709062
851 4 0.0892716 0.149392 0.71493
1225 2 0.156937 0.0932659 0.724542
1226 4 0.174673 0.0848418 0.740022
1149 4 0.2346 0.102457 0.748019
888 4 0.253921 0.164731 0.678344
886 2 0.27267 0.162424 0.694724
831 4 0.351059 0.154297 0.7048
1141 2 0.390229 0.159326 0.711061
829 2 0.327868 0.163634 0.705192
1142 4 0.367416 0.150157 0.715607
43 3 0.427027 0.105922 0.690653
1025 4 0.469554 0.14824 0.704293
3424 2 0.482214 0.118579 0.691015
3426 4 0.476834 0.096365 0.680877
3425 4 0.487595 0.140793 0.701152
3269 4 0.483784 0.151435 0.716798
3268 2 0.485075 0.160597 0.740026
1024 2 0.448943 0.161908 0.700615
1213 2 0.0183753 0.182999 0.734146
1107 4 0.100909 0.165271 0.713897
1209 4 0.0705595 0.21502 0.675011
1207 2 0.0767183 0.226243 0.696488
1208 4 0.0828772 0.237466 0.717966
1105 2 0.11502 0.18588 0.712734
1106 4 0.12913 0.206489 0.711571
1130 4 0.14634 0.211365 0.722172
1129 2 0.15902 0.225709 0.738254
1211 4 0.24902 0.177983 0.664552
887 4 0.29142 0.160117 0.711104
830 4 0.304676 0.172971 0.705584
978 4 0.296873 0.174256 0.723421
1194 4 0.375367 0.224142 0.711227
1192 2 0.351859 0.231971 0.714585
1193 4 0.328351 0.239799 0.717944
1143 4 0.413043 0.168495 0.706515
1262 4 0.416611 0.187316 0.707835
1026 4 0.428331 0.175576 0.696937
1261 2 0.4211 0.200173 0.728804
1263 4 0.425589 0.21303 0.749774
3262 2 0.0571682 0.327077 0.667668
3264 4 0.0622082 0.325135 0.692081
779 4 0.0578015 0.317192 0.709336
893 4 0.0488982 0.3333 0.703258
778 2 0.066408 0.295627 0.718612
780 4 0.0750146 0.274061 0.727888
1065 4 0.216781 0.282487 0.722315
1063 2 0.240426 0.279142 0.714905
946 2 0.297741 0.285 0.695171
948 4 0.282056 0.279541 0.713862
1064 4 0.264071 0.275797 0.707494
1008 4 0.419961 0.307577 0.722835
1006 2 0.427334 0.299166 0.745198
892 2 0.0446805 0.345666 0.724577
894 4 0.0404628 0.358031 0.745895
816 4 0.0466139 0.376095 0.750258
3276 4 0.027178 0.372336 0.749409
814 2 0.0662063 0.391 0.745879
1066 2 0.16556 0.397982 0.701147
1067 4 0.14105 0.39436 0.704511
940 2 0.110924 0.415452 0.715734
941 4 0.128121 0.409113 0.698726
942 4 0.0937261 0.42179 0.732741
1027 2 0.210839 0.414038 0.659573
1068 4 0.19007 0.401603 0.697783
1028 4 0.202452 0.403489 0.680634
806 4 0.304564 0.335136 0.663102
1280 4 0.0485837 0.489439 0.696727
1176 4 0.163005 0.471843 0.708869
1175 4 0.188686 0.453519 0.670069
1174 2 0.175845 0.462681 0.689469
1140 4 0.318807 0.471393 0.707447
1138 2 0.325516 0.488814 0.690813
1139 4 0.332225 0.506234 0.674179
1230 4 0.388737 0.435754 0.730335
1100 4 0.406258 0.428792 0.734923
1019 4 0.3994 0.410036 0.733454
1268 4 0.432214 0.474003 0.667488
1101 4 0.452854 0.446836 0.732917
1099 2 0.429556 0.437814 0.73392
3330 4 0.472433 0.447308 0.734449
1251 4 0.461916 0.46209 0.741308
3328 2 0.482856 0.436104 0.714675
2168 4 0.427602 0.492162 0.67388
1295 4 0.0264829 0.00650662 0.785981
1296 4 0.0411985 0.05356 0.794356
1294 2 0.0338407 0.0300333 0.790169
1077 4 0.0330009 0.0775218 0.757319
1203 4 0.171141 0.0785669 0.75809
2049 4 0.17126 0.0114238 0.759297
2255 4 0.239388 0.0153701 0.771119
1201 2 0.174537 0.0539291 0.760664
1202 4 0.177932 0.0292913 0.763239
2254 2 0.214657 0.0150165 0.767456
2256 4 0.189926 0.0146629 0.763793
1113 4 0.377694 0.0486828 0.832173
2442 4 0.475198 0.997629 0.775616
2321 4 0.472186 0.00962539 0.790688
2322 4 0.450263 0.0544424 0.794083
2320 2 0.461224 0.0320339 0.792385
846 4 0.453766 0.059612 0.812082
864 4 0.0479776 0.0825715 0.770947
862 2 0.0510455 0.105066 0.781424
863 4 0.0541135 0.127561 0.7919
832 2 0.0254424 0.134429 0.8227
833 4 0.0387347 0.134359 0.801523
1125 4 0.0513857 0.147016 0.795142
1123 2 0.0693864 0.164361 0.795702
911 4 0.0760318 0.0775522 0.837142
35 3 0.116309 0.135629 0.817766
1148 4 0.18646 0.0906004 0.754552
1147 2 0.21053 0.0965286 0.751286
1257 4 0.240931 0.0950475 0.764275
921 4 0.201089 0.154484 0.826118
1255 2 0.259385 0.0914489 0.780757
1256 4 0.27784 0.0878503 0.797238
840 4 0.287888 0.104408 0.800871
838 2 0.293711 0.120296 0.819279
839 4 0.299534 0.136184 0.837687
844 2 0.452364 0.084431 0.809393
845 4 0.450962 0.10925 0.806704
1215 4 0.00202347 0.201738 0.736725
1072 2 0.0762447 0.222963 0.808357
1073 4 0.0867086 0.20074 0.803684
1124 4 0.0873871 0.181705 0.796261
1131 4 0.1717 0.240053 0.754336
1277 4 0.174353 0.244033 0.773388
1276 2 0.178633 0.22987 0.793544
1278 4 0.182913 0.215708 0.8137
920 4 0.198261 0.203503 0.816638
919 2 0.199675 0.178994 0.821378
976 2 0.297474 0.188644 0.743861
977 4 0.298074 0.203033 0.7643
916 2 0.284791 0.245248 0.762654
918 4 0.293564 0.221841 0.763233
1298 4 0.299141 0.214805 0.780538
1297 2 0.321969 0.209714 0.789377
1299 4 0.344797 0.204622 0.798216
50 3 0.389252 0.193106 0.780933
1086 4 0.348762 0.188898 0.808249
1043 4 0.403002 0.246536 0.797612
49 3 0.398921 0.227609 0.792497
1084 2 0.359738 0.174312 0.825336
46 1 0.406736 0.206613 0.786458
3468 4 0.501114 0.181622 0.766656
1146 4 0.483391 0.189192 0.765703
1145 4 0.439514 0.213078 0.76347