ITEM: TIMESTEP
1290000
ITEM: NUMBER OF ATOMS
4590
ITEM: BOX BOUNDS pp pp pp
-9.9985700000000008e+00 9.9985700000000008e+00
-9.9985700000000008e+00 9.9985700000000008e+00
-9.9985700000000008e+00 9.9985700000000008e+00
ITEM: ATOMS id type xs ys zs
1668 4 0.097353 0.0396114 0.0643726
1666 2 0.0862963 0.0568603 0.0787045
297 4 0.356787 0.0536664 0.0536406
295 2 0.362523 0.0688074 0.0345874
296 4 0.368259 0.0839484 0.0155341
1607 4 0.400095 0.0183757 0.992629
747 4 0.463659 0.059479 0.00993075
2974 2 0.467411 0.0207175 0.0291123
2976 4 0.4739 0.00188009 0.0442193
2975 4 0.460922 0.039555 0.0140054
745 2 0.452229 0.0799639 0.0185856
566 4 0.14962 0.170734 0.0257236
2264 4 0.295697 0.100694 0.995774
360 4 0.325145 0.146207 0.087589
358 2 0.341586 0.155737 0.0713388
557 4 0.377277 0.0969195 0.00503359
556 2 0.401839 0.0987295 0.00934713
769 2 0.395108 0.141635 0.0446658
359 4 0.358027 0.165266 0.0550885
770 4 0.374526 0.152641 0.0536359
771 4 0.415689 0.13063 0.0356957
558 4 0.426402 0.10054 0.0136607
746 4 0.440799 0.100449 0.0272404
565 2 0.172445 0.178691 0.0321196
567 4 0.195269 0.186648 0.0385156
664 2 0.381319 0.195031 0.0458107
665 4 0.375649 0.171098 0.0503082
666 4 0.386988 0.218965 0.0413131
555 4 0.0878324 0.292394 0.0438582
553 2 0.083821 0.284491 0.0204779
286 2 0.142483 0.327673 0.0347036
287 4 0.161075 0.311071 0.0327338
293 4 0.167844 0.291813 0.0352444
292 2 0.171777 0.279173 0.014032
507 4 0.178341 0.307227 0.0391768
505 2 0.193236 0.303838 0.0589715
506 4 0.208131 0.300448 0.0787663
481 2 0.240853 0.278231 0.0709684
573 4 0.258625 0.264779 0.0411923
482 4 0.26273 0.272625 0.0602363
571 2 0.260756 0.268908 0.0166243
322 2 0.397507 0.281484 0.0605887
1069 2 0.388781 0.306592 0.0114357
324 4 0.402745 0.282821 0.0361764
1070 4 0.407182 0.292485 0.0207939
741 4 0.349329 0.327732 0.0326505
323 4 0.39227 0.280147 0.0850009
671 4 0.459371 0.325523 0.0577611
280 2 0.440514 0.299554 0.0274598
281 4 0.456412 0.31079 0.0431491
282 4 0.424615 0.288318 0.0117705
670 2 0.44524 0.33154 0.077492
288 4 0.123892 0.344276 0.0366733
454 2 0.15405 0.367525 0.0753827
552 4 0.113772 0.362601 0.0840993
456 4 0.175718 0.36737 0.0629056
250 2 0.276899 0.402525 0.030772
251 4 0.264847 0.39295 0.011068
252 4 0.288951 0.4121 0.050476
957 4 0.358599 0.329362 0.0156283
739 2 0.36106 0.334684 0.0536083
740 4 0.372791 0.341636 0.0745662
495 4 0.390878 0.372684 0.0599139
493 2 0.389836 0.394801 0.0715303
14 3 0.391361 0.357594 0.0728853
3347 4 0.505886 0.334736 0.995599
245 4 0.236065 0.445864 0.0552836
626 4 0.216857 0.446246 0.0624125
625 2 0.196979 0.456647 0.0734509
627 4 0.1771 0.467048 0.0844892
244 2 0.246568 0.448373 0.032732
609 4 0.303757 0.424915 0.0514481
246 4 0.257071 0.450883 0.0101803
272 4 0.272696 0.456812 0.99837
494 4 0.388794 0.416918 0.0831467
563 4 0.482512 0.477018 0.0368036
228 4 0.50071 0.470835 0.0437599
562 2 0.459115 0.473919 0.028547
564 4 0.435718 0.47082 0.0202904
854 4 0.421564 0.475478 0.00694281
1674 4 0.431849 0.48576 0.0345381
226 2 0.503007 0.453955 0.0620626
19 3 0.0518625 0.0750919 0.169306
18 3 0.0705024 0.0536731 0.144043
16 1 0.0589812 0.0536094 0.164185
1667 4 0.0752395 0.0741092 0.0930364
701 4 0.080672 0.0751939 0.111336
17 3 0.0405766 0.0399563 0.16218
1475 4 0.263694 0.00774528 0.0877954
492 4 0.274939 0.0223845 0.0988366
491 4 0.282006 0.0499394 0.139964
490 2 0.278473 0.0361619 0.119401
486 4 0.382446 0.0291508 0.0819639
484 2 0.380541 0.00814288 0.0953885
2723 4 0.453475 0.0599996 0.144956
2722 2 0.475819 0.0515081 0.152292
700 2 0.0895711 0.0916935 0.127881
476 4 0.0943976 0.122797 0.157358
702 4 0.0984702 0.108193 0.144427
582 4 0.249028 0.134286 0.175197
581 4 0.284883 0.109019 0.151181
580 2 0.266955 0.121653 0.163189
628 2 0.385064 0.133484 0.140112
630 4 0.381563 0.156404 0.130754
312 4 0.405651 0.10842 0.160179
629 4 0.388565 0.110563 0.14947
737 4 0.192428 0.196116 0.118301
736 2 0.198283 0.220425 0.118163
461 4 0.300027 0.215569 0.0985842
460 2 0.324528 0.21722 0.103293
354 4 0.285265 0.223813 0.109344
352 2 0.279552 0.235439 0.13073
462 4 0.349029 0.218871 0.108002
254 4 0.377064 0.171023 0.117627
255 4 0.364305 0.219336 0.11957
253 2 0.370685 0.195179 0.118598
765 4 0.362883 0.232614 0.132622
624 4 0.357564 0.236048 0.113214
763 2 0.349885 0.232122 0.153976
339 4 0.0811814 0.236686 0.13116
337 2 0.0780686 0.242751 0.155217
648 4 0.0493283 0.313727 0.155446
738 4 0.204137 0.244733 0.118025
483 4 0.218977 0.283837 0.0817005
537 4 0.194681 0.308529 0.0929487
536 4 0.196074 0.322655 0.140899
535 2 0.195378 0.315592 0.116924
353 4 0.273839 0.247066 0.152116
755 4 0.267374 0.264201 0.161449
387 4 0.325345 0.317678 0.121439
302 4 0.315334 0.324623 0.137707
301 2 0.310248 0.331321 0.161254
622 2 0.37574 0.247783 0.10068
623 4 0.393916 0.259518 0.0881464
385 2 0.342678 0.32516 0.105046
15 3 0.37701 0.330444 0.0946694
528 4 0.473306 0.264386 0.111647
518 4 0.481561 0.267237 0.0932207
526 2 0.462435 0.274259 0.131884
527 4 0.451565 0.284132 0.152121
104 3 0.492384 0.319852 0.125543
551 4 0.0920017 0.356541 0.128709
455 4 0.132383 0.367681 0.0878598
550 2 0.102887 0.359571 0.106404
386 4 0.360012 0.332642 0.088652
12 3 0.413918 0.332579 0.08956
11 1 0.394532 0.344731 0.0919351
13 3 0.396521 0.358469 0.110529
672 4 0.43111 0.337556 0.0972228
596 4 0.494989 0.40928 0.17706
1791 4 0.0388493 0.477108 0.141231
1466 4 0.036439 0.488903 0.1571
1789 2 0.0512112 0.493199 0.126621
417 4 0.157931 0.455468 0.131762
291 4 0.215345 0.429152 0.134679
416 4 0.206708 0.44676 0.138522
415 2 0.182319 0.451114 0.135142
289 2 0.234893 0.433054 0.149773
639 4 0.212763 0.508274 0.15313
637 2 0.236781 0.501523 0.154783
607 2 0.316296 0.4323 0.0717809
638 4 0.260799 0.494772 0.156437
768 4 0.274925 0.437638 0.169327
290 4 0.25444 0.436957 0.164868
608 4 0.328835 0.439685 0.0921137
767 4 0.281301 0.485542 0.15647
766 2 0.278113 0.46159 0.162899
525 4 0.381349 0.487069 0.118882
658 2 0.362177 0.427805 0.106514
659 4 0.338331 0.434587 0.109762
660 4 0.386023 0.421023 0.103266
523 2 0.356945 0.492105 0.11681
20 3 0.0724104 0.0457068 0.180793
2480 4 0.0219401 0.0382626 0.171997
1422 4 0.0181396 0.0188132 0.174262
2479 2 0.00733689 0.0554058 0.182861
675 4 0.09483 0.010729 0.236074
674 4 0.140429 0.0292146 0.227146
673 2 0.11763 0.0199718 0.23161
689 4 0.156659 0.0191648 0.232294
450 4 0.173124 0.0541801 0.17608
448 2 0.172656 0.0791094 0.174212
1506 4 0.243302 0.0209128 0.169371
1504 2 0.228364 0.00377552 0.17978
688 2 0.177013 0.00853913 0.222395
1505 4 0.213427 0.986638 0.19019
654 4 0.261049 0.0190285 0.179243
652 2 0.285263 0.0248137 0.181563
653 4 0.309478 0.0305989 0.183882
25 3 0.339319 0.0434313 0.242281
21 1 0.332929 0.062784 0.252444
24 3 0.310718 0.0673522 0.247519
311 4 0.392271 0.0661887 0.183378
758 4 0.387333 0.0727537 0.200683
759 4 0.352102 0.0610081 0.234172
757 2 0.369718 0.0668809 0.217427
22 3 0.345972 0.0800757 0.244696
379 2 0.00033533 0.113025 0.205936
380 4 0.00313031 0.0885511 0.201649
512 4 0.00218605 0.155186 0.216653
511 2 0.0235809 0.162108 0.227586
391 2 0.0770517 0.163573 0.252068
475 2 0.100731 0.139138 0.175192
578 4 0.130599 0.0666453 0.219052
477 4 0.107065 0.155478 0.193025
577 2 0.124091 0.0830985 0.201385
579 4 0.117584 0.0995518 0.183718
449 4 0.172188 0.104039 0.172344
237 4 0.229973 0.14244 0.17167
691 2 0.224379 0.106958 0.238057
693 4 0.226471 0.122676 0.218725
236 4 0.186191 0.118779 0.176569
235 2 0.208082 0.130609 0.174119
692 4 0.222286 0.0912402 0.25739
310 2 0.398961 0.0873045 0.171779
28 3 0.340381 0.139856 0.245018
762 4 0.482417 0.157575 0.248646
521 4 0.484804 0.157052 0.22948
332 4 0.489259 0.141691 0.240948
513 4 0.0449758 0.16903 0.238519
393 4 0.0627139 0.178314 0.237844
394 2 0.011978 0.227013 0.225826
338 4 0.0749559 0.248815 0.179273
395 4 0.025566 0.221044 0.205703
277 2 0.24078 0.236706 0.173583
279 4 0.219035 0.226527 0.180564
284 4 0.277641 0.237447 0.17039
283 2 0.300867 0.238052 0.179629
285 4 0.324094 0.238657 0.188867
764 4 0.336886 0.231631 0.175329
27 3 0.332028 0.176399 0.242281
760 2 0.459968 0.167492 0.253428
761 4 0.437519 0.17741 0.25821
646 2 0.0535733 0.330109 0.173851
647 4 0.0578182 0.346492 0.192257
363 4 0.0828258 0.267271 0.179759
749 4 0.0942605 0.289921 0.232507
361 2 0.0953414 0.274789 0.200057
371 4 0.172906 0.298602 0.23912
370 2 0.150447 0.290564 0.231626
372 4 0.127988 0.282526 0.224133
362 4 0.107857 0.282308 0.220354
748 2 0.0978041 0.307194 0.250234
278 4 0.262524 0.246886 0.166601
754 2 0.268249 0.285769 0.174067
756 4 0.269123 0.307338 0.186684
612 4 0.277769 0.320118 0.19742
610 2 0.267447 0.318218 0.220114
307 2 0.312952 0.28342 0.226009
308 4 0.320511 0.280175 0.202398
611 4 0.257125 0.316317 0.242808
264 4 0.0102812 0.408117 0.216007
734 4 0.163004 0.35681 0.246128
303 4 0.305162 0.338019 0.184801
729 4 0.312893 0.353036 0.195267
727 2 0.311355 0.37363 0.209363
728 4 0.309817 0.394224 0.223459
447 4 0.408154 0.395575 0.234925
644 4 0.424881 0.385383 0.240181
595 2 0.473493 0.396532 0.176305
597 4 0.451996 0.383785 0.175549
643 2 0.435054 0.385215 0.217341
645 4 0.445226 0.385047 0.194501
262 2 0.993448 0.423557 0.226178
1465 2 0.0354801 0.484969 0.181774
1467 4 0.0345213 0.481035 0.206447
1758 4 0.0988 0.487522 0.245063
231 4 0.465942 0.475394 0.211905
229 2 0.454728 0.494668 0.200593
232 2 0.0229694 0.0335695 0.302385
233 4 0.0470898 0.0292633 0.2974
1404 4 0.0616526 0.0176923 0.295007
1402 2 0.073227 0.0120637 0.27357
316 2 0.0704061 0.0500642 0.320373
317 4 0.0628121 0.0284529 0.31035
428 4 0.0740377 0.0132628 0.310291
318 4 0.0780001 0.0716754 0.330396
1403 4 0.0848015 0.00643512 0.252134
23 3 0.335741 0.0609718 0.275405
699 4 0.367306 0.0605959 0.327858
351 4 0.423562 0.0685192 0.273935
479 4 0.454915 0.0394378 0.312958
478 2 0.442697 0.0442654 0.291684
2664 4 0.471187 0.03281 0.307089
480 4 0.430478 0.049093 0.27041
1428 4 0.464481 0.0229478 0.321282
258 4 0.452762 0.0341286 0.330615
2662 2 0.495602 0.0369763 0.303662
392 4 0.0913896 0.148832 0.266292
723 4 0.233119 0.101191 0.270305
721 2 0.234069 0.110509 0.293488
403 2 0.253818 0.15392 0.333142
249 4 0.242424 0.114581 0.334539
722 4 0.235019 0.119827 0.316671
404 4 0.255599 0.129015 0.334475
30 3 0.312857 0.154798 0.265919
26 1 0.333369 0.15859 0.256778
632 4 0.392353 0.11133 0.264857
350 4 0.408916 0.112131 0.254335
631 2 0.373097 0.12725 0.263866
707 4 0.353297 0.147998 0.28187
633 4 0.353842 0.143169 0.262875
706 2 0.353526 0.153153 0.306336
29 3 0.348666 0.163645 0.273476
708 4 0.353756 0.158308 0.330801
349 2 0.416239 0.0903253 0.264135
333 4 0.491962 0.0931965 0.252853
331 2 0.490611 0.117444 0.2469
546 4 0.148169 0.19854 0.255789
388 2 0.11616 0.234061 0.317015
389 4 0.124425 0.211529 0.310001
545 4 0.188853 0.201384 0.284727
544 2 0.168511 0.199962 0.270258
402 4 0.18576 0.21655 0.297112
400 2 0.188498 0.241236 0.299987
405 4 0.252037 0.178824 0.33181
473 4 0.257169 0.198675 0.33284
717 4 0.419219 0.184603 0.330833
390 4 0.107896 0.256592 0.324029
750 4 0.101348 0.324468 0.267961
401 4 0.191237 0.265923 0.302862
676 2 0.184333 0.320468 0.310588
345 4 0.21816 0.330446 0.296438
677 4 0.197857 0.328291 0.291067
343 2 0.235762 0.327949 0.278856
678 4 0.170809 0.312645 0.330109
344 4 0.253364 0.325452 0.261274
496 2 0.277759 0.291688 0.283895
497 4 0.262915 0.287356 0.303543
377 4 0.272039 0.270215 0.309527
498 4 0.292604 0.29602 0.264247
309 4 0.305392 0.286665 0.249621
376 2 0.263205 0.26706 0.332705
420 4 0.428829 0.284017 0.327261
419 4 0.450015 0.2388 0.329951
418 2 0.439422 0.261408 0.328606
542 4 0.424997 0.30448 0.330236
365 4 0.0319749 0.35879 0.288162
601 2 0.0646594 0.368385 0.311028
603 4 0.0498023 0.353902 0.297076
602 4 0.0795166 0.382869 0.324981
549 4 0.0910908 0.397657 0.331135
364 2 0.0104841 0.371569 0.288298
299 4 0.150319 0.365534 0.259667
300 4 0.105568 0.343233 0.260492
298 2 0.127943 0.354384 0.26008
735 4 0.198626 0.33248 0.271423
733 2 0.180815 0.344645 0.258776
433 2 0.314245 0.373795 0.315084
435 4 0.289833 0.37413 0.320479
434 4 0.338657 0.373459 0.309689
614 4 0.340856 0.35565 0.319286
613 2 0.358832 0.341114 0.328812
445 2 0.391994 0.404937 0.25155
446 4 0.375834 0.4143 0.268175
615 4 0.376808 0.326578 0.338338
1756 2 0.114202 0.468025 0.242266
1757 4 0.129605 0.448529 0.239468
777 4 0.142275 0.485669 0.276775
1435 2 0.239752 0.462864 0.322191
1436 4 0.251649 0.483091 0.31356
436 2 0.353853 0.476521 0.33193
437 4 0.374178 0.475837 0.317383
1803 4 0.356939 0.495807 0.25534
119 3 0.492027 0.457987 0.318391
118 3 0.492808 0.421545 0.329151
367 2 0.0822511 0.00476929 0.408423
399 4 0.0833887 0.0897473 0.334863
732 4 0.0959956 0.074962 0.337695
730 2 0.115734 0.067712 0.351223
731 4 0.135473 0.060462 0.36475
606 4 0.149111 0.0748927 0.363616
368 4 0.105529 0.000557265 0.400325
604 2 0.170194 0.0876177 0.359285
1701 4 0.312051 0.0267001 0.386191
1699 2 0.310883 0.0273452 0.361223
1700 4 0.309715 0.0279904 0.336255
425 4 0.328464 0.0251873 0.397853
441 4 0.316852 0.0207123 0.414478
697 2 0.384042 0.0605455 0.346435
698 4 0.400778 0.0604952 0.365011
426 4 0.378317 0.0213362 0.397135
424 2 0.353391 0.0232617 0.397494
2879 4 0.507361 0.0750597 0.4091
726 4 0.427296 0.0762255 0.409956
257 4 0.419221 0.0546603 0.361505
256 2 0.435992 0.0443944 0.34606
397 2 0.0807665 0.110635 0.348354
398 4 0.0781443 0.131523 0.361844
2586 4 0.0174988 0.137967 0.376732
2584 2 0.00288931 0.11834 0.371581
458 4 0.0282086 0.151187 0.387951
457 2 0.0408895 0.155765 0.409008
598 2 0.146654 0.156403 0.354079
600 4 0.141374 0.134989 0.342301
605 4 0.191277 0.100343 0.354954
248 4 0.207787 0.09767 0.366398
247 2 0.225106 0.106126 0.350469
683 4 0.270041 0.0981409 0.364101
682 2 0.281034 0.107582 0.384477
319 2 0.31577 0.140195 0.410614
684 4 0.292026 0.117023 0.404854
321 4 0.337247 0.14907 0.401386
725 4 0.396548 0.114484 0.419524
724 2 0.411922 0.0953549 0.41474
599 4 0.151934 0.177818 0.365857
686 4 0.136071 0.181115 0.376164
685 2 0.129708 0.18892 0.39905
687 4 0.123346 0.196725 0.421937
472 2 0.238478 0.209166 0.345715
275 4 0.166808 0.191212 0.36488
474 4 0.219787 0.219657 0.358591
276 4 0.209138 0.215162 0.376513
274 2 0.187973 0.203187 0.370696
715 2 0.407602 0.199776 0.346957
466 2 0.385977 0.19141 0.400308
716 4 0.395984 0.214948 0.363081
467 4 0.394699 0.201025 0.378938
270 4 0.466152 0.203751 0.386322
452 4 0.478881 0.190988 0.394527
451 2 0.459758 0.185715 0.409749
268 2 0.463322 0.216464 0.364979
269 4 0.460492 0.229177 0.343635
618 4 0.0753474 0.330641 0.397885
616 2 0.0903493 0.314737 0.385752
617 4 0.105351 0.298833 0.373619
374 4 0.121573 0.309349 0.369846
373 2 0.143561 0.305918 0.358448
375 4 0.16555 0.302487 0.347051
509 4 0.247498 0.317842 0.387665
378 4 0.254372 0.263904 0.355882
508 2 0.249663 0.328574 0.365186
541 2 0.40446 0.311774 0.342491
543 4 0.383922 0.319068 0.354746
488 4 0.336605 0.257926 0.393962
347 4 0.0697824 0.341652 0.41409
346 2 0.049803 0.352655 0.403845
348 4 0.0298236 0.363658 0.393601
510 4 0.251828 0.339305 0.342706
668 4 0.322057 0.38432 0.398291
336 4 0.336738 0.375458 0.410308
335 4 0.378977 0.361579 0.433198
334 2 0.357857 0.368519 0.421753
753 4 0.49321 0.414984 0.349658
561 4 0.497252 0.406534 0.404478
751 2 0.490082 0.403943 0.371873
752 4 0.486955 0.392903 0.394088
547 2 0.0992187 0.417592 0.343851
407 4 0.117762 0.455326 0.358721
548 4 0.107347 0.437527 0.356567
406 2 0.117142 0.459148 0.383423
408 4 0.116522 0.46297 0.408125
1437 4 0.227855 0.442637 0.330823
3 3 0.315605 0.465748 0.340235
5 3 0.29317 0.487577 0.361159
1 1 0.312083 0.474891 0.361268
4 3 0.310182 0.457978 0.37704
438 4 0.333529 0.477205 0.346477
2 3 0.330071 0.488153 0.366719
586 2 0.421133 0.440303 0.413315
588 4 0.420511 0.458284 0.395952
593 4 0.408831 0.466323 0.381131
592 2 0.422714 0.483211 0.368997
713 4 0.454026 0.499299 0.349888
714 4 0.486206 0.462479 0.339427
712 2 0.470116 0.480889 0.344657
117 3 0.495027 0.44897 0.354756
594 4 0.436597 0.5001 0.356863
369 4 0.0589731 0.00898131 0.416521
718 2 0.0293505 0.00887266 0.444818
720 4 0.00931688 0.00102671 0.457556
719 4 0.0493841 0.0167186 0.432079
962 4 0.31985 0.0280106 0.433002
961 2 0.312577 0.0426395 0.45193
963 4 0.305303 0.0572684 0.470858
432 4 0.30741 0.0688493 0.486936
459 4 0.0535704 0.160343 0.430066
260 4 0.0689535 0.167459 0.440727
320 4 0.294293 0.13132 0.419842
640 2 0.489138 0.12761 0.469095
641 4 0.471777 0.138432 0.483471
471 4 0.978479 0.196484 0.500058
259 2 0.0886333 0.182525 0.437427
261 4 0.108313 0.197591 0.434127
1035 4 0.124372 0.210033 0.435256
1033 2 0.122914 0.230141 0.450044
1034 4 0.121455 0.25025 0.464833
651 4 0.286597 0.248745 0.510165
489 4 0.343514 0.238764 0.439632
487 2 0.34006 0.248345 0.416797
468 4 0.377256 0.181794 0.421677
514 2 0.412314 0.182876 0.448632
411 4 0.343506 0.223924 0.453007
516 4 0.38785 0.186683 0.452128
409 2 0.358146 0.204675 0.446656
410 4 0.372786 0.185427 0.440305
575 4 0.392966 0.186668 0.472131
515 4 0.436777 0.179068 0.445136
453 4 0.440636 0.180442 0.424971
584 4 0.48616 0.252936 0.484909
583 2 0.489633 0.24135 0.463026
585 4 0.493106 0.229764 0.441142
694 2 0.075167 0.254605 0.48917
1258 2 0.123553 0.284771 0.485216
1259 4 0.131755 0.307901 0.490001
9 3 0.133794 0.327916 0.490544
696 4 0.0998308 0.250525 0.488683
1260 4 0.11535 0.26164 0.480431
10 3 0.13924 0.333976 0.453785
266 4 0.370253 0.246799 0.465294
267 4 0.385748 0.293266 0.475367
265 2 0.378 0.270033 0.470331
2847 4 0.0236817 0.334189 0.463329
2845 2 0.00474097 0.350016 0.467319
326 4 0.0540932 0.376795 0.451299
325 2 0.0725191 0.362342 0.460059
6 1 0.132125 0.343338 0.473288
7 3 0.11012 0.349663 0.471071
327 4 0.0909451 0.347888 0.46882
709 2 0.163057 0.401838 0.457963
8 3 0.144868 0.362103 0.478175
503 4 0.236659 0.385879 0.443013
504 4 0.188699 0.372779 0.4484
502 2 0.212679 0.379329 0.445707
710 4 0.185199 0.391406 0.452853
667 2 0.315334 0.403569 0.412763
773 4 0.31638 0.410408 0.485366
238 2 0.402532 0.394502 0.444003
240 4 0.396013 0.370427 0.442251
239 4 0.40905 0.418577 0.445754
3307 2 0.495312 0.393545 0.485923
3309 4 0.497018 0.410385 0.46752
559 2 0.502931 0.404506 0.428743
1381 2 0.00186223 0.489917 0.471221
1383 4 0.0131702 0.468089 0.466657
680 4 0.999594 0.460466 0.452107
679 2 0.993844 0.437268 0.44476
568 2 0.133269 0.48982 0.431923
383 4 0.116174 0.450644 0.423109
384 4 0.127967 0.427752 0.465976
382 2 0.12207 0.439198 0.444543
711 4 0.140915 0.412269 0.463073
569 4 0.119332 0.469937 0.425955
1555 2 0.24842 0.492436 0.424604
772 2 0.309325 0.422054 0.464395
634 2 0.298858 0.468753 0.434766
774 4 0.302269 0.433701 0.443425
669 4 0.308612 0.422819 0.427235
635 4 0.313087 0.450742 0.444683
636 4 0.284629 0.486764 0.42485
1557 4 0.269039 0.484957 0.436608
587 4 0.421756 0.422322 0.430678
882 4 0.373521 0.411048 0.489516
661 2 0.454379 0.490614 0.464754
662 4 0.463528 0.50848 0.479663
663 4 0.44523 0.472747 0.449846
342 4 0.211239 0.0687762 0.514274
340 2 0.21257 0.0445149 0.508375
341 4 0.213901 0.0202537 0.502475
1152 4 0.217221 0.0841194 0.525396
430 2 0.310866 0.0771217 0.510277
1217 4 0.386189 0.069064 0.533227
1216 2 0.404737 0.0623268 0.517872
1218 4 0.423284 0.0555896 0.502517
1058 4 0.104411 0.109504 0.520416
1057 2 0.110269 0.119453 0.542594
1059 4 0.116128 0.129402 0.564773
939 4 0.107495 0.123995 0.581103
1032 4 0.231554 0.0782519 0.576972
1150 2 0.215254 0.0859335 0.550256
1151 4 0.213288 0.0877476 0.575116
1181 4 0.217484 0.148863 0.561564
1180 2 0.238558 0.146869 0.548256
843 4 0.330155 0.0898552 0.544948
431 4 0.314323 0.0853942 0.533618
1182 4 0.259631 0.144875 0.534948
900 4 0.271053 0.147644 0.520417
841 2 0.354797 0.0889493 0.54081
842 4 0.37944 0.0880433 0.536672
1199 4 0.0280833 0.214102 0.576757
1198 2 0.0056196 0.224502 0.573234
878 4 0.0404796 0.228935 0.568586
877 2 0.0589846 0.21604 0.579378
857 4 0.221785 0.241626 0.526494
898 2 0.282811 0.169693 0.519538
650 4 0.279574 0.202177 0.52698
899 4 0.29457 0.191741 0.518659
649 2 0.283085 0.225461 0.518572
576 4 0.370322 0.189458 0.51663
574 2 0.381644 0.188063 0.49438
872 4 0.4039 0.25703 0.542342
1244 4 0.0372685 0.249112 0.568354
1245 4 0.0356982 0.29332 0.591677
1243 2 0.0364834 0.271216 0.580015
695 4 0.0505033 0.258684 0.489657
796 2 0.237532 0.253814 0.574905
858 4 0.182085 0.271406 0.520351
856 2 0.201935 0.256516 0.523422
947 4 0.195298 0.251951 0.579233
946 2 0.183587 0.273374 0.584627
797 4 0.260586 0.263339 0.573191
1238 4 0.30978 0.31247 0.576556
791 4 0.274289 0.263048 0.586562
871 2 0.394301 0.27897 0.54953
873 4 0.384703 0.30091 0.556719
813 4 0.393855 0.318301 0.556761
906 4 0.485471 0.303943 0.554995
953 4 0.473373 0.319217 0.549583
904 2 0.502066 0.290247 0.567731
952 2 0.45108 0.31255 0.558735
954 4 0.428788 0.305883 0.567887
2457 4 0.505242 0.303221 0.511859
982 2 0.0285291 0.325288 0.582463
984 4 0.0157471 0.339336 0.566201
3354 4 0.000610435 0.347616 0.556011
993 4 0.0937323 0.370981 0.582859
1190 4 0.237896 0.364637 0.569706
803 4 0.250621 0.354103 0.560969
804 4 0.290962 0.346145 0.532509
1237 2 0.316026 0.336679 0.576199
802 2 0.270792 0.350124 0.546739
930 4 0.316725 0.374557 0.563351
1239 4 0.322271 0.360887 0.575841
811 2 0.403133 0.341499 0.5558
812 4 0.412411 0.364698 0.554839
927 4 0.40885 0.380492 0.568236
929 4 0.355425 0.400029 0.54453
928 2 0.336075 0.387293 0.55394
881 4 0.361432 0.386374 0.531298
880 2 0.367476 0.398711 0.510407
926 4 0.448021 0.411188 0.573143
925 2 0.428435 0.39584 0.57069
538 2 0.0733858 0.457996 0.564968
539 4 0.0517936 0.447364 0.571744
540 4 0.094978 0.468627 0.558191
1160 4 0.123872 0.484485 0.547652
1159 2 0.133725 0.463283 0.556514
1161 4 0.143578 0.44208 0.565377
2244 4 0.105288 0.477568 0.542536
891 4 0.310965 0.425246 0.566531
1953 4 0.389432 0.482906 0.56698
1000 2 0.447569 0.446834 0.575106
1002 4 0.450281 0.426223 0.561212
2114 4 0.00537487 0.0148277 0.610581
4338 4 0.0211083 0.00532132 0.618041
823 2 0.154117 0.0287427 0.65059
825 4 0.136496 0.0440812 0.659502
824 4 0.171738 0.0134043 0.641679
1283 4 0.127716 0.0622149 0.654989
1082 4 0.0592307 0.0728935 0.659749
1282 2 0.124543 0.0786589 0.673556
1030 2 0.248473 0.076483 0.595298
1031 4 0.265391 0.074714 0.613623
951 4 0.285177 0.068867 0.612234
949 2 0.29867 0.0478472 0.611095
950 4 0.312162 0.0268274 0.609957
2283 4 0.391406 0.0195578 0.647313
809 4 0.484119 0.0479527 0.604116
808 2 0.472998 0.0551767 0.625314
810 4 0.461877 0.0624007 0.646511
42 3 0.456778 0.0531487 0.666715
938 4 0.0812678 0.0951973 0.612464
1126 2 0.0270877 0.0954304 0.587108
1083 4 0.0626178 0.0864256 0.611727
1081 2 0.0609242 0.0796595 0.635738
1127 4 0.0494049 0.0892099 0.596512
1128 4 0.00477042 0.101651 0.577705
937 2 0.0943815 0.109596 0.596784
1155 4 0.126382 0.12897 0.582265
1153 2 0.143215 0.145142 0.591226
1154 4 0.160048 0.161314 0.600188
1221 4 0.173418 0.157424 0.614041
887 4 0.323006 0.171687 0.671413
45 3 0.457106 0.0853581 0.647864
3425 4 0.468536 0.0970809 0.665914
3424 2 0.487148 0.113777 0.666086
3426 4 0.505759 0.130473 0.666258
879 4 0.0774897 0.203146 0.59017
1272 4 0.0971016 0.204819 0.586962
1271 4 0.114679 0.163947 0.564133
1270 2 0.10589 0.184383 0.575547
1212 4 0.208341 0.188162 0.660251
1219 2 0.181974 0.170703 0.633423
1220 4 0.190529 0.183983 0.652804
1210 2 0.232454 0.18202 0.657793
888 4 0.275442 0.167223 0.656632
886 2 0.299224 0.169455 0.664023
1194 4 0.335412 0.179848 0.658116
1193 4 0.383869 0.185279 0.647017
1192 2 0.359641 0.182563 0.652566
983 4 0.0413111 0.311241 0.598726
1136 4 0.155051 0.289246 0.599443
1135 2 0.143928 0.31127 0.603493
948 4 0.171877 0.294796 0.590021
798 4 0.214477 0.244289 0.57662
792 4 0.289629 0.310006 0.578795
790 2 0.281959 0.286527 0.582679
807 4 0.285417 0.320866 0.660865
805 2 0.309724 0.324791 0.656512
806 4 0.33403 0.328717 0.652159
3123 4 0.484639 0.264211 0.64258
1039 2 0.0678806 0.377993 0.617048
1041 4 0.0514625 0.386735 0.633757
3264 4 0.0345573 0.385068 0.644255
3262 2 0.0310825 0.361914 0.653029
3240 4 0.0235612 0.402378 0.642212
1040 4 0.0842987 0.36925 0.600339
3263 4 0.0276078 0.33876 0.661803
897 4 0.1481 0.345476 0.602665
1137 4 0.132806 0.333294 0.607543
991 2 0.113578 0.356293 0.586805
992 4 0.133424 0.341605 0.590751
895 2 0.168178 0.359179 0.60852
1189 2 0.222495 0.369972 0.588667
1172 4 0.211785 0.387518 0.622696
1191 4 0.207094 0.375307 0.607629
896 4 0.188256 0.372881 0.614376
1171 2 0.207002 0.411988 0.620822
1206 4 0.396236 0.405893 0.641865
3238 2 0.0100717 0.423207 0.639146
1188 4 0.149051 0.453217 0.581298
1186 2 0.167015 0.449755 0.598342
1173 4 0.202218 0.436458 0.618948
1187 4 0.184978 0.446293 0.615386
1139 4 0.242345 0.460962 0.652021
889 2 0.323585 0.443408 0.578196
1230 4 0.350315 0.437896 0.646275
890 4 0.336206 0.461569 0.58986
1951 2 0.368536 0.480237 0.580449
1204 2 0.39628 0.428667 0.652186
1952 4 0.34764 0.477568 0.593918
1205 4 0.396323 0.45144 0.662508
1001 4 0.444858 0.467445 0.588999
1911 4 0.445936 0.486558 0.584238
1269 4 0.444906 0.481552 0.602888
1267 2 0.45105 0.49441 0.623433
945 4 0.0575418 0.011731 0.692986
943 2 0.0609162 0.0364969 0.692324
944 4 0.0642907 0.0612629 0.691662
1076 4 0.0575363 0.0740804 0.679193
1147 2 0.243634 0.0436487 0.724451
1148 4 0.233463 0.0576431 0.706398
1226 4 0.232388 0.0777557 0.699625
1149 4 0.253805 0.0296542 0.742503
1092 4 0.340387 0.00967415 0.693427
1004 4 0.3799 0.0737934 0.711831
41 1 0.451543 0.0755292 0.66764
43 3 0.428763 0.0777526 0.671455
1163 4 0.470174 0.0631134 0.681895
1162 2 0.487569 0.0510514 0.695203
864 4 0.0602564 0.106095 0.734834
1075 2 0.0597505 0.091512 0.696981
1077 4 0.0619647 0.108944 0.714769
1107 4 0.0769395 0.112207 0.726827
851 4 0.0730443 0.123734 0.710874
850 2 0.0774728 0.145092 0.698651
862 2 0.0415807 0.100005 0.750304
1105 2 0.0955256 0.115714 0.743181
1284 4 0.12137 0.0951029 0.692122
909 4 0.144732 0.117081 0.744977
852 4 0.0819013 0.16645 0.686428
907 2 0.167819 0.114553 0.735714
908 4 0.190905 0.112026 0.726452
1227 4 0.200093 0.114943 0.708276
1225 2 0.21624 0.0963495 0.703951
829 2 0.33038 0.133695 0.695048
830 4 0.32455 0.153211 0.680545
831 4 0.336209 0.114179 0.70955
1003 2 0.366117 0.0941763 0.716274
1005 4 0.352334 0.114559 0.720717
44 3 0.463469 0.0853119 0.684975
1072 2 0.107987 0.228232 0.724475
1074 4 0.101858 0.247811 0.710183
1073 4 0.114115 0.208652 0.738767
1211 4 0.256566 0.175878 0.655335
1144 2 0.489125 0.172703 0.734357
1025 4 0.438552 0.178931 0.673312
1262 4 0.46472 0.201152 0.72483
1142 4 0.4481 0.174532 0.735155
1024 2 0.44642 0.182297 0.696805
1026 4 0.454288 0.185664 0.720299
1261 2 0.464436 0.222419 0.737976
1145 4 0.46599 0.181952 0.732251
1177 2 0.0186381 0.255397 0.705081
1179 4 0.0349703 0.263448 0.687946
1209 4 0.129451 0.300669 0.714388
1207 2 0.111603 0.283299 0.712177
1208 4 0.0937544 0.265928 0.709967
821 4 0.144071 0.313527 0.719336
820 2 0.159849 0.317768 0.700409
822 4 0.175627 0.32201 0.681481
1063 2 0.216566 0.309085 0.688482
1064 4 0.192396 0.310568 0.682252
1065 4 0.240735 0.307602 0.694713
892 2 0.0236693 0.361896 0.747304
894 4 0.0376555 0.369616 0.728069
1280 4 0.0512867 0.362686 0.716425
1279 2 0.0549409 0.386387 0.709347
816 4 0.0640548 0.35377 0.727329
1281 4 0.0585952 0.410087 0.702269
814 2 0.0864369 0.348617 0.737212
942 4 0.127175 0.349911 0.749511
815 4 0.108819 0.343464 0.747095
1028 4 0.239747 0.395227 0.743365
1066 2 0.210889 0.374177 0.747317
1068 4 0.23174 0.379162 0.734451
1027 2 0.245007 0.410855 0.72457
1020 4 0.405637 0.407764 0.753332
1018 2 0.385231 0.397368 0.743296
1019 4 0.364826 0.386971 0.733261
1983 4 0.0648155 0.424799 0.714034
1981 2 0.0587041 0.4445 0.728166
1982 4 0.0525928 0.4642 0.742298
1176 4 0.1832 0.491074 0.713562
1140 4 0.23863 0.440096 0.697314
2016 4 0.170583 0.493324 0.729674
1138 2 0.240487 0.450529 0.674668
1029 4 0.250267 0.426484 0.705775
1987 2 0.327144 0.483799 0.722937
1989 4 0.340913 0.471777 0.705876
1228 2 0.347718 0.450671 0.667611
1229 4 0.345122 0.463447 0.688947
2991 4 0.0278138 0.0440308 0.803396
2989 2 0.0199048 0.0631494 0.789357
2990 4 0.0119958 0.0822679 0.775317
3083 4 0.00305796 0.0874537 0.75964
2048 4 0.152846 0.0102279 0.756786
2049 4 0.11803 0.034153 0.783547
1202 4 0.107593 0.0500674 0.779609
2047 2 0.135438 0.0221905 0.770167
1201 2 0.11069 0.074151 0.785573
1257 4 0.259203 0.0816274 0.749124
817 2 0.321143 0.0378244 0.822489
819 4 0.308253 0.0586183 0.82765
1085 4 0.316725 0.0758205 0.823497
818 4 0.334033 0.0170305 0.817328
974 4 0.348033 0.00531884 0.808566
973 2 0.37175 1.7153e-05 0.814448
1050 4 0.349294 0.00830665 0.78876
2322 4 0.48982 0.0458303 0.771497
1113 4 0.410538 0.0587943 0.770285
1111 2 0.43549 0.0573323 0.770963
845 4 0.479742 0.0629943 0.769523
1112 4 0.460441 0.0558703 0.771642
863 4 0.0229049 0.0939152 0.765774
833 4 0.00672771 0.101091 0.771491
832 2 0.00773054 0.120757 0.7869
834 4 0.00873337 0.140422 0.802309
1125 4 0.0152807 0.156582 0.810554
1123 2 0.0342767 0.151612 0.826034
1106 4 0.114112 0.11922 0.759535
1203 4 0.113786 0.0982345 0.791538
911 4 0.0995031 0.117928 0.819837
34 3 0.1092 0.11481 0.776737
31 1 0.11487 0.123088 0.797659
35 3 0.0986386 0.137233 0.80508
32 3 0.116866 0.105483 0.812331
33 3 0.135183 0.134246 0.796524
1256 4 0.245992 0.0880876 0.79692
840 4 0.237206 0.10105 0.810475
838 2 0.235136 0.115815 0.830548
1255 2 0.252598 0.0848575 0.773022
1084 2 0.319484 0.0903378 0.803328
1086 4 0.322244 0.104855 0.783158
47 3 0.39347 0.158751 0.808512
1023 4 0.396602 0.154267 0.827667
846 4 0.49255 0.110776 0.776845
844 2 0.486146 0.086885 0.773184
1130 4 0.132186 0.238357 0.774632
1129 2 0.155462 0.233785 0.766726
1131 4 0.178738 0.229212 0.75882
1277 4 0.188849 0.234376 0.774715
978 4 0.257086 0.190154 0.758964
977 4 0.294139 0.21861 0.776797
918 4 0.302964 0.234 0.770927
976 2 0.275612 0.204382 0.76788
1298 4 0.307001 0.225562 0.789258
1297 2 0.322294 0.207602 0.797549
48 3 0.394258 0.178206 0.776363
1299 4 0.337587 0.189642 0.805841
1042 2 0.386629 0.233228 0.80469
1043 4 0.395926 0.211005 0.797988
49 3 0.401697 0.195414 0.809423
46 1 0.404054 0.175795 0.797258
1263 4 0.464152 0.243685 0.751123
1143 4 0.417548 0.175687 0.774727
1141 2 0.432824 0.175109 0.754941
50 3 0.426127 0.170688 0.79495
1306 2 0.478015 0.250111 0.806592