ITEM: TIMESTEP
570000
ITEM: NUMBER OF ATOMS
4590
ITEM: BOX BOUNDS pp pp pp
-9.9985700000000008e+00 9.9985700000000008e+00
-9.9985700000000008e+00 9.9985700000000008e+00
-9.9985700000000008e+00 9.9985700000000008e+00
ITEM: ATOMS id type xs ys zs
463 2 0.0472196 0.0857837 0.0142262
464 4 0.0708602 0.0839682 0.00628848
465 4 0.023579 0.0875993 0.0221639
591 4 0.00878911 0.0671673 0.0657318
1475 4 0.28107 0.0173167 0.0704694
492 4 0.26862 0.0712825 0.0772866
297 4 0.314816 0.0562646 0.036196
295 2 0.333277 0.0731163 0.0368217
486 4 0.360955 0.00040526 0.0497156
985 2 0.402346 0.0456802 0.00100708
987 4 0.402779 0.028411 0.0190837
747 4 0.458943 0.0639546 0.00639311
2974 2 0.480499 0.0270426 0.0225218
2976 4 0.488492 0.00509943 0.0314547
2468 4 0.495719 0.0026268 0.0503875
1607 4 0.41423 0.0123832 0.0202461
2975 4 0.472507 0.0489858 0.0135889
422 4 0.118738 0.122162 0.012155
421 2 0.114519 0.145287 0.00363307
565 2 0.198623 0.168442 0.0652035
566 4 0.18038 0.153695 0.0738587
567 4 0.216866 0.183188 0.0565482
358 2 0.303826 0.146806 0.0722331
359 4 0.286453 0.139636 0.0887241
360 4 0.321199 0.153976 0.0557421
296 4 0.351738 0.0899681 0.0374475
557 4 0.356652 0.10986 0.0370124
556 2 0.376487 0.10792 0.0521119
558 4 0.396322 0.105981 0.0672114
745 2 0.453049 0.0847711 0.0189274
746 4 0.447155 0.105588 0.0314617
771 4 0.4411 0.167732 0.06844
554 4 0.0768468 0.223774 0.0344533
553 2 0.0602456 0.241884 0.0391027
666 4 0.314771 0.197743 0.0143356
665 4 0.354927 0.192983 0.0437549
664 2 0.334849 0.195363 0.0290452
323 4 0.413459 0.248691 0.0824967
769 2 0.42586 0.182464 0.0551773
324 4 0.450106 0.237383 0.0504051
770 4 0.41062 0.197196 0.0419146
322 2 0.431783 0.243037 0.0664509
555 4 0.0436444 0.259994 0.0437522
836 4 0.0996303 0.271296 0.00670375
292 2 0.139406 0.298787 0.00255477
293 4 0.136229 0.296197 0.0272202
507 4 0.146616 0.30117 0.0443073
483 4 0.209625 0.29932 0.0712697
505 2 0.170621 0.298522 0.0507852
506 4 0.194625 0.295874 0.0572631
481 2 0.231376 0.287014 0.0704779
573 4 0.262599 0.266598 0.0543139
572 4 0.288787 0.254221 0.0135494
357 4 0.288102 0.264023 0.997001
571 2 0.275693 0.26041 0.0339317
482 4 0.253127 0.274708 0.0696861
1071 4 0.381002 0.267408 0.0161826
1069 2 0.396979 0.286025 0.011354
1070 4 0.412957 0.304642 0.00652545
741 4 0.345574 0.335581 0.0509441
671 4 0.45451 0.310339 0.0768157
280 2 0.43999 0.310966 0.0405834
281 4 0.454468 0.319913 0.0589004
282 4 0.425511 0.30202 0.0222663
550 2 0.0714043 0.40865 0.0676551
288 4 0.153227 0.337525 0.026074
552 4 0.0958587 0.404123 0.0650725
287 4 0.195408 0.353769 0.00468058
286 2 0.174317 0.345647 0.0153773
252 4 0.286211 0.404272 0.0416875
250 2 0.306013 0.40177 0.0266277
251 4 0.325815 0.399267 0.0115679
609 4 0.286815 0.396696 0.0608963
607 2 0.29637 0.40745 0.0813473
739 2 0.353318 0.349231 0.0704087
551 4 0.04695 0.413177 0.0702378
328 2 0.0190529 0.427305 0.0150191
329 4 0.0314849 0.448998 0.0151963
455 4 0.108212 0.412798 0.0793305
245 4 0.208649 0.461949 0.0409121
626 4 0.215504 0.454625 0.0579125
244 2 0.229794 0.456321 0.0288112
625 2 0.206183 0.452774 0.0810398
246 4 0.250938 0.450693 0.0167103
272 4 0.26779 0.459782 0.0173284
271 2 0.285786 0.458848 0.999996
563 4 0.465568 0.477452 0.064671
228 4 0.483878 0.477998 0.0726257
562 2 0.451864 0.498271 0.0666596
1666 2 0.0753888 0.0550978 0.0868338
1668 4 0.0671173 0.0357086 0.073387
19 3 0.0533595 0.0367541 0.151958
20 3 0.0591533 0.0667419 0.173976
1667 4 0.0836604 0.0744871 0.100281
450 4 0.16124 0.0405244 0.127137
448 2 0.170514 0.0637133 0.125938
490 2 0.288175 0.0767307 0.0918834
652 2 0.302449 0.0123785 0.156606
491 4 0.307731 0.082179 0.10648
653 4 0.323931 0.0247544 0.159849
2722 2 0.48902 0.0548016 0.147558
1759 2 0.481569 0.999798 0.122944
1760 4 0.487669 0.0175046 0.139511
2724 4 0.498691 0.0319172 0.144735
2723 4 0.47935 0.0776859 0.15038
2744 4 0.49353 0.0155536 0.156918
380 4 0.00645023 0.134897 0.148041
701 4 0.0763433 0.0907446 0.110452
700 2 0.0919969 0.108804 0.117801
702 4 0.107651 0.126863 0.125151
476 4 0.123512 0.133573 0.13585
475 2 0.114258 0.151588 0.150513
237 4 0.197775 0.144446 0.14177
449 4 0.179789 0.0869021 0.124739
235 2 0.190596 0.120495 0.141801
236 4 0.183417 0.0965441 0.141832
582 4 0.309136 0.103176 0.171798
580 2 0.285204 0.109196 0.175823
310 2 0.410444 0.0787664 0.153744
629 4 0.411755 0.114894 0.131818
628 2 0.412127 0.139477 0.127269
312 4 0.413632 0.0959131 0.135827
630 4 0.412499 0.164061 0.12272
337 2 0.0675219 0.236657 0.148164
338 4 0.0775471 0.225372 0.168097
737 4 0.194622 0.19523 0.136222
736 2 0.212786 0.201387 0.120179
738 4 0.230949 0.207544 0.104137
461 4 0.306523 0.232045 0.0879501
460 2 0.327046 0.217777 0.0885888
354 4 0.288853 0.240354 0.0913676
352 2 0.279461 0.241859 0.114491
284 4 0.283215 0.240138 0.153962
353 4 0.270068 0.243363 0.137615
278 4 0.263931 0.240479 0.152912
255 4 0.357544 0.191828 0.100942
462 4 0.34757 0.20351 0.0892275
254 4 0.391968 0.161429 0.120729
253 2 0.374756 0.176629 0.110836
765 4 0.38103 0.226105 0.143997
624 4 0.389597 0.228708 0.126136
763 2 0.371271 0.222563 0.166743
518 4 0.490105 0.222423 0.10521
656 4 0.996951 0.272381 0.0938979
339 4 0.0574968 0.247941 0.128231
536 4 0.207198 0.305143 0.142941
535 2 0.197039 0.327989 0.142785
754 2 0.265231 0.281344 0.15312
755 4 0.259506 0.258016 0.146179
756 4 0.270956 0.304673 0.160061
612 4 0.258101 0.317219 0.168877
622 2 0.395679 0.251806 0.118744
623 4 0.401762 0.274905 0.111352
670 2 0.439307 0.309883 0.096661
672 4 0.424104 0.309427 0.116506
528 4 0.465016 0.266838 0.151809
526 2 0.475139 0.260145 0.17367
621 4 0.00835619 0.3723 0.137321
619 2 0.00371838 0.364279 0.114097
620 4 0.999081 0.356258 0.0908736
454 2 0.12569 0.395435 0.0835981
456 4 0.143168 0.378071 0.0878658
537 4 0.18688 0.350836 0.14263
302 4 0.316661 0.386731 0.146501
387 4 0.329547 0.372572 0.144026
385 2 0.346479 0.366636 0.126611
740 4 0.361062 0.362881 0.0898733
15 3 0.38223 0.361056 0.114135
386 4 0.36341 0.360699 0.109197
11 1 0.400815 0.370832 0.122948
13 3 0.396663 0.377481 0.144787
12 3 0.418087 0.355639 0.122956
14 3 0.406957 0.389165 0.110118
495 4 0.42079 0.404338 0.109726
596 4 0.489161 0.398757 0.148705
315 4 0.986985 0.471058 0.0998855
313 2 0.996421 0.462822 0.121526
314 4 0.00585676 0.454586 0.143167
637 2 0.2414 0.49513 0.143261
627 4 0.196862 0.450923 0.104167
608 4 0.305924 0.418204 0.101798
638 4 0.261078 0.487841 0.156856
523 2 0.331493 0.491749 0.10224
525 4 0.333168 0.474065 0.119836
658 2 0.371461 0.448293 0.138851
659 4 0.384887 0.455586 0.119058
660 4 0.358036 0.441 0.158644
226 2 0.492363 0.467004 0.0934176
227 4 0.500848 0.456009 0.11421
493 2 0.430604 0.415896 0.129608
494 4 0.440419 0.427453 0.149489
16 1 0.0536961 0.0446324 0.17378
17 3 0.0327959 0.0419051 0.182994
2480 4 0.0136687 0.0410488 0.188024
18 3 0.0690528 0.0325758 0.186319
1422 4 0.00722504 0.0250073 0.198889
1420 2 0.0192302 0.00369959 0.193689
578 4 0.0607983 0.063657 0.217961
673 2 0.108454 0.0322797 0.239664
674 4 0.119652 0.0431474 0.220128
689 4 0.175645 0.0468134 0.227987
577 2 0.0789028 0.0781878 0.227249
688 2 0.180882 0.0261948 0.241126
692 4 0.219195 0.0721287 0.242337
723 4 0.204384 0.0761793 0.254887
691 2 0.22935 0.077219 0.220062
24 3 0.323069 0.0406982 0.237626
21 1 0.345067 0.0336291 0.235501
25 3 0.34964 0.0289095 0.213696
759 4 0.363331 0.0446134 0.221136
22 3 0.359011 0.050449 0.242698
757 2 0.377989 0.0533736 0.202871
758 4 0.392646 0.0621338 0.184607
311 4 0.407255 0.0616197 0.17166
742 2 0.47028 0.0501264 0.209383
744 4 0.489855 0.036283 0.21648
743 4 0.450705 0.0639698 0.202287
379 2 0.00463004 0.144656 0.170989
381 4 0.00280984 0.154414 0.193938
511 2 0.031908 0.15502 0.219877
512 4 0.0157939 0.143462 0.204648
477 4 0.105004 0.169603 0.165176
579 4 0.0970073 0.0927187 0.236536
693 4 0.239506 0.0823092 0.197788
581 4 0.261272 0.115216 0.179847
28 3 0.298547 0.136536 0.234559
26 1 0.307195 0.150017 0.251348
27 3 0.329326 0.154315 0.246776
331 2 0.452688 0.150026 0.242526
333 4 0.435846 0.131955 0.238657
513 4 0.048022 0.166578 0.235106
394 2 0.0146418 0.248679 0.230048
396 4 0.00913882 0.231799 0.247653
363 4 0.0818236 0.228087 0.187731
361 2 0.0910965 0.249175 0.19745
277 2 0.244419 0.22935 0.163895
279 4 0.224907 0.218222 0.174877
283 2 0.305566 0.238896 0.165099
285 4 0.327918 0.237654 0.176237
30 3 0.295751 0.169689 0.252186
764 4 0.361512 0.21902 0.18949
520 2 0.485372 0.205654 0.216243
521 4 0.463372 0.195731 0.209708
395 4 0.0201448 0.26556 0.212442
371 4 0.164551 0.283324 0.232045
370 2 0.143335 0.276679 0.220604
372 4 0.122118 0.270033 0.209163
748 2 0.0937055 0.30571 0.229362
362 4 0.100369 0.270264 0.207169
749 4 0.0978706 0.281794 0.223371
750 4 0.0895404 0.329625 0.235352
343 2 0.236557 0.30777 0.242396
307 2 0.313411 0.288426 0.242515
308 4 0.31502 0.267045 0.229653
610 2 0.274869 0.32906 0.183153
527 4 0.485262 0.253453 0.195531
647 4 0.0633081 0.368922 0.186705
646 2 0.0832521 0.355492 0.179846
648 4 0.103196 0.342062 0.172986
300 4 0.101856 0.359051 0.251664
417 4 0.156368 0.394468 0.187367
415 2 0.179747 0.40319 0.185767
291 4 0.213912 0.395893 0.18868
416 4 0.203125 0.411911 0.184167
289 2 0.230627 0.411471 0.198834
345 4 0.235708 0.331066 0.233354
611 4 0.291637 0.340901 0.197429
303 4 0.323641 0.398277 0.194653
301 2 0.320151 0.392504 0.170577
729 4 0.311493 0.395444 0.209765
727 2 0.308336 0.389268 0.233787
595 2 0.471449 0.392899 0.165353
597 4 0.453738 0.387041 0.182002
643 2 0.428416 0.376209 0.206321
644 4 0.422882 0.373933 0.230598
645 4 0.43395 0.378484 0.182043
447 4 0.418237 0.364778 0.247736
110 3 0.508226 0.403208 0.198816
262 2 0.0200866 0.422547 0.231864
263 4 0.0394802 0.422917 0.247641
1756 2 0.0794801 0.500886 0.248054
290 4 0.247342 0.427049 0.208989
768 4 0.250303 0.444765 0.202629
766 2 0.255919 0.465241 0.189425
767 4 0.261535 0.485718 0.176221
229 2 0.411973 0.491688 0.239985
232 2 0.00885008 0.0441299 0.290466
233 4 0.0261814 0.0351664 0.274831
1402 2 0.0670415 0.0209712 0.272304
1404 4 0.045517 0.0336051 0.273807
234 4 0.991519 0.0530935 0.306102
675 4 0.0972554 0.021412 0.2592
1403 4 0.088566 0.00833738 0.270801
429 4 0.120525 0.0113698 0.325655
1464 4 0.10476 0.00376177 0.282559
690 4 0.186118 0.00557627 0.254265
1701 4 0.230719 0.0220645 0.328883
1699 2 0.25215 0.0336223 0.3232
721 2 0.210417 0.0784559 0.279045
722 4 0.21645 0.0807325 0.303202
1700 4 0.273582 0.0451801 0.317518
23 3 0.348639 0.0148074 0.248593
478 2 0.477608 0.0437137 0.290891
480 4 0.470662 0.0608111 0.274021
351 4 0.45297 0.0707382 0.278472
479 4 0.484553 0.0266162 0.307762
349 2 0.431434 0.083438 0.278745
531 4 0.0148003 0.163767 0.277128
732 4 0.0861001 0.100634 0.340659
391 2 0.0734572 0.164496 0.257279
392 4 0.0983958 0.165247 0.258917
249 4 0.228657 0.0905104 0.315486
247 2 0.212066 0.0918908 0.334142
403 2 0.242321 0.129791 0.300219
404 4 0.230487 0.109822 0.309513
405 4 0.254155 0.14976 0.290924
29 3 0.305735 0.139132 0.271788
633 4 0.345309 0.13332 0.28964
632 4 0.36841 0.0991033 0.261421
631 2 0.356859 0.116212 0.275531
706 2 0.346282 0.159158 0.32312
707 4 0.34963 0.139523 0.308005
332 4 0.46953 0.168097 0.246394
350 4 0.409898 0.0961379 0.279018
393 4 0.0485187 0.163746 0.25564
442 2 0.010602 0.242662 0.287733
443 4 0.0185441 0.234 0.265664
546 4 0.141356 0.172278 0.268784
544 2 0.163904 0.17094 0.279507
545 4 0.186452 0.169603 0.29023
717 4 0.394739 0.202414 0.331232
762 4 0.467591 0.174244 0.26475
418 2 0.438166 0.236967 0.330587
761 4 0.475934 0.216955 0.289385
760 2 0.471763 0.195599 0.277068
390 4 0.0838242 0.268634 0.31022
388 2 0.0945842 0.256034 0.328946
344 4 0.237407 0.284474 0.251438
400 2 0.194529 0.28785 0.300583
402 4 0.212954 0.304727 0.301528
401 4 0.176104 0.270974 0.299638
309 4 0.311802 0.309807 0.255378
496 2 0.310773 0.320629 0.293031
497 4 0.299754 0.331734 0.312536
498 4 0.321793 0.309523 0.273527
377 4 0.288244 0.317846 0.319088
543 4 0.376514 0.30171 0.320359
615 4 0.382677 0.315685 0.308133
541 2 0.392078 0.282328 0.323062
542 4 0.407641 0.262946 0.325764
420 4 0.424205 0.253778 0.318435
364 2 0.0208411 0.362491 0.285856
365 4 0.0377497 0.377749 0.275537
601 2 0.0739846 0.393942 0.287819
603 4 0.0572434 0.378774 0.277102
2493 4 0.999114 0.336465 0.312229
298 2 0.121921 0.371428 0.259996
299 4 0.141985 0.383804 0.268328
602 4 0.0907258 0.409109 0.298536
734 4 0.158551 0.374625 0.262477
733 2 0.171893 0.365371 0.281491
677 4 0.173406 0.341225 0.304734
735 4 0.185235 0.356117 0.300505
676 2 0.184807 0.33725 0.326629
433 2 0.324418 0.37779 0.326531
728 4 0.305179 0.383092 0.257809
435 4 0.302612 0.384184 0.336962
613 2 0.365674 0.333566 0.312177
434 4 0.346223 0.371396 0.3161
614 4 0.348671 0.351447 0.31622
118 3 0.494171 0.413466 0.318188
445 2 0.439289 0.369862 0.260231
446 4 0.460342 0.374946 0.272726
1757 4 0.0552332 0.502454 0.253954
549 4 0.0902282 0.409814 0.318196
777 4 0.0817781 0.469341 0.293491
775 2 0.0908033 0.483865 0.311733
414 4 0.231536 0.474879 0.312446
412 2 0.207079 0.474754 0.307249
413 4 0.182621 0.47463 0.302053
1803 4 0.316246 0.502115 0.274283
436 2 0.336402 0.467539 0.311979
437 4 0.351139 0.454393 0.296644
438 4 0.321665 0.480686 0.327315
231 4 0.396517 0.477138 0.253198
116 1 0.49648 0.435588 0.324797
119 3 0.483867 0.449335 0.311001
713 4 0.415873 0.455221 0.315949
712 2 0.440583 0.451544 0.316991
714 4 0.465293 0.447866 0.318033
316 2 0.0688509 0.0664831 0.339531
317 4 0.0676588 0.0415444 0.340881
428 4 0.0731494 0.023275 0.336357
1781 4 0.114434 0.00997141 0.413378
606 4 0.13856 0.0842549 0.347431
427 2 0.0968372 0.0173224 0.331006
683 4 0.30474 0.0712182 0.354776
682 2 0.302038 0.0790331 0.378373
698 4 0.391678 0.0736436 0.360335
699 4 0.346285 0.0685259 0.339989
257 4 0.412745 0.0698122 0.360554
697 2 0.368982 0.0710848 0.350162
426 4 0.383862 0.0208047 0.406968
256 2 0.430488 0.0530523 0.355126
258 4 0.448231 0.0362924 0.349698
2879 4 0.484714 0.0694945 0.414014
2586 4 0.0105586 0.121151 0.386538
318 4 0.070043 0.0914217 0.338182
398 4 0.0572447 0.14791 0.376028
397 2 0.0644783 0.129306 0.36097
399 4 0.0717119 0.110702 0.345911
457 2 0.0350027 0.146936 0.410185
458 4 0.0158033 0.13317 0.401997
459 4 0.0542021 0.160703 0.418373
731 4 0.135948 0.104129 0.342577
730 2 0.111024 0.102382 0.341618
604 2 0.16035 0.0913236 0.35745
599 4 0.138693 0.153823 0.390941
600 4 0.165589 0.144729 0.349775
598 2 0.152141 0.149276 0.370358
605 4 0.182141 0.0983923 0.367469
248 4 0.195476 0.0932713 0.352797
684 4 0.299336 0.0868481 0.401969
452 4 0.47977 0.125326 0.390711
451 2 0.46137 0.138391 0.401478
453 4 0.44297 0.151456 0.412245
260 4 0.0548497 0.179626 0.418833
474 4 0.20551 0.223995 0.378617
276 4 0.211135 0.237688 0.392912
472 2 0.223423 0.206754 0.381273
473 4 0.241336 0.189513 0.383928
708 4 0.342934 0.178792 0.338235
715 2 0.389891 0.21131 0.354091
716 4 0.385043 0.220205 0.37695
467 4 0.379268 0.20264 0.384822
466 2 0.37261 0.206255 0.40865
306 4 0.495926 0.167585 0.402099
419 4 0.452127 0.220156 0.342739
268 2 0.476437 0.240207 0.412109
270 4 0.452246 0.23643 0.407039
347 4 0.057318 0.306722 0.380371
346 2 0.0520377 0.297137 0.402853
618 4 0.0623433 0.30704 0.359926
389 4 0.105344 0.243435 0.347672
616 2 0.0784303 0.325616 0.355309
274 2 0.199722 0.258276 0.384481
275 4 0.18831 0.278863 0.376049
375 4 0.193002 0.333528 0.369212
376 2 0.284634 0.30108 0.337283
378 4 0.281024 0.284315 0.355478
617 4 0.0945173 0.344192 0.350692
510 4 0.227585 0.352951 0.322751
374 4 0.180171 0.348852 0.415052
373 2 0.186586 0.34119 0.392132
678 4 0.196208 0.333274 0.348524
508 2 0.237413 0.35466 0.345679
509 4 0.247242 0.356369 0.368606
503 4 0.270211 0.392045 0.424397
336 4 0.333127 0.380606 0.417591
334 2 0.352004 0.367242 0.427091
559 2 0.491351 0.399433 0.397492
561 4 0.479005 0.398837 0.375757
752 4 0.46061 0.404518 0.378121
547 2 0.0780682 0.417368 0.338696
548 4 0.0659081 0.424923 0.359196
407 4 0.0712565 0.435139 0.37638
406 2 0.0832437 0.438671 0.398036
500 4 0.0848758 0.499433 0.344342
499 2 0.0904008 0.49838 0.368705
501 4 0.0959259 0.497327 0.393067
570 4 0.162944 0.487931 0.39744
1436 4 0.258328 0.489111 0.3277
3 3 0.314145 0.473079 0.345466
5 3 0.291944 0.49389 0.367639
1 1 0.31319 0.491237 0.35988
4 3 0.327763 0.488021 0.377648
594 4 0.408948 0.476936 0.37737
592 2 0.395096 0.489704 0.36093
117 3 0.488868 0.437729 0.346398
751 2 0.454327 0.423193 0.362727
753 4 0.448045 0.441868 0.347334
2237 4 0.0395592 0.0207308 0.494872
718 2 0.0631537 0.0491987 0.480835
720 4 0.0569998 0.0303479 0.496066
719 4 0.0693076 0.0680495 0.465605
369 4 0.075843 0.0379522 0.451037
2236 2 0.0293436 0.999174 0.502363
368 4 0.11546 0.0123602 0.434415
367 2 0.0956514 0.0251562 0.442726
341 4 0.222382 0.0442558 0.501272
2430 4 0.21818 0.0265638 0.509971
439 2 0.301887 0.00600937 0.420307
441 4 0.310359 0.028991 0.425332
962 4 0.318029 0.026132 0.443731
961 2 0.314928 0.0400225 0.464289
963 4 0.311828 0.0539131 0.484847
432 4 0.301157 0.0536649 0.501329
424 2 0.373225 0.0373077 0.422449
425 4 0.362587 0.0538107 0.437931
725 4 0.39002 0.0702781 0.46853
724 2 0.368907 0.0789868 0.458353
726 4 0.347793 0.0876955 0.448177
321 4 0.253009 0.127493 0.432948
320 4 0.290829 0.10108 0.413642
319 2 0.271919 0.114286 0.423295
1181 4 0.249223 0.103845 0.496084
1182 4 0.278078 0.144248 0.490108
1180 2 0.263651 0.124046 0.493096
515 4 0.44772 0.167976 0.422073
2878 2 0.488459 0.0844792 0.433677
2880 4 0.492205 0.0994638 0.453339
640 2 0.497265 0.108164 0.487308
641 4 0.487607 0.112463 0.509967
471 4 0.021061 0.185164 0.487735
259 2 0.0766931 0.180018 0.430994
685 2 0.139783 0.167153 0.430257
687 4 0.115877 0.173732 0.433487
261 4 0.0985365 0.180411 0.443155
1035 4 0.0912038 0.182682 0.460754
1033 2 0.108177 0.196523 0.472818
1034 4 0.12515 0.210364 0.484882
686 4 0.163688 0.160574 0.427027
695 4 0.088144 0.228156 0.471067
856 2 0.215896 0.231305 0.510645
487 2 0.296798 0.251575 0.42651
489 4 0.305657 0.232895 0.440573
411 4 0.310068 0.214925 0.447485
409 2 0.334927 0.21757 0.447988
574 2 0.388449 0.182327 0.487888
410 4 0.359785 0.220216 0.44849
468 4 0.365952 0.209869 0.432478
575 4 0.404625 0.183453 0.468855
516 4 0.421556 0.189326 0.458957
514 2 0.434638 0.178651 0.440515
304 2 0.494894 0.18507 0.419943
305 4 0.493862 0.202555 0.437786
348 4 0.0467574 0.287551 0.425334
694 2 0.0923221 0.249911 0.482663
696 4 0.0965003 0.271665 0.494258
9 3 0.148999 0.312669 0.476327
1260 4 0.107522 0.287061 0.496899
651 4 0.246627 0.305591 0.466351
857 4 0.215786 0.2489 0.492881
488 4 0.287938 0.270254 0.412446
649 2 0.262541 0.286564 0.469495
650 4 0.278456 0.267537 0.472639
266 4 0.381148 0.300893 0.465023
267 4 0.38434 0.251 0.466148
265 2 0.382744 0.275946 0.465585
583 2 0.469948 0.287363 0.477149
585 4 0.454675 0.30025 0.462121
584 4 0.485221 0.274476 0.492176
2846 4 0.0071707 0.366018 0.486501
681 4 0.00507363 0.396731 0.423576
326 4 0.0853018 0.357361 0.440532
6 1 0.154211 0.333214 0.48577
327 4 0.131209 0.348628 0.458336
325 2 0.108255 0.352995 0.449434
7 3 0.145307 0.349893 0.472668
10 3 0.176816 0.335768 0.48683
711 4 0.163963 0.381007 0.453024
502 2 0.245705 0.394575 0.428664
504 4 0.221198 0.397105 0.432931
709 2 0.183157 0.393357 0.442813
710 4 0.202351 0.405706 0.432603
668 4 0.316539 0.38287 0.428946
667 2 0.299743 0.398708 0.438549
804 4 0.260754 0.353782 0.507703
335 4 0.370881 0.353878 0.436592
812 4 0.356869 0.373447 0.495191
238 2 0.399224 0.380949 0.454681
240 4 0.388048 0.360234 0.446246
239 4 0.410401 0.401664 0.463116
560 4 0.503698 0.400028 0.419226
680 4 0.0164749 0.4434 0.43746
1383 4 0.0136776 0.462474 0.440424
679 2 0.0107743 0.420066 0.430518
1381 2 0.0120887 0.485317 0.450466
568 2 0.15363 0.489969 0.420554
384 4 0.11329 0.416293 0.475584
569 4 0.144316 0.492006 0.443669
383 4 0.0898084 0.428963 0.433289
382 2 0.101549 0.422628 0.454436
408 4 0.0952309 0.442203 0.419693
636 4 0.253722 0.490559 0.447966
772 2 0.275543 0.419689 0.485432
635 4 0.26928 0.444344 0.459051
774 4 0.27117 0.423272 0.461076
669 4 0.282947 0.414546 0.448152
634 2 0.261501 0.467451 0.453508
1401 4 0.3612 0.514417 0.411661
587 4 0.411921 0.432399 0.429637
880 2 0.359778 0.446592 0.48284
588 4 0.380597 0.464403 0.451892
881 4 0.357805 0.469617 0.492386
586 2 0.396259 0.448401 0.440764
882 4 0.361751 0.423567 0.473293
663 4 0.459894 0.450037 0.482445
662 4 0.473861 0.497965 0.485378
661 2 0.466878 0.474001 0.483911
1126 2 0.0239743 0.0689721 0.574797
1127 4 0.0487966 0.0695361 0.571845
1058 4 0.123703 0.0763204 0.576811
1031 4 0.234508 0.0711396 0.580212
340 2 0.215643 0.0675 0.507555
342 4 0.208904 0.0907442 0.513837
2428 2 0.213922 0.00197088 0.508479
430 2 0.316625 0.0540741 0.520969
431 4 0.332094 0.0544833 0.540609
1217 4 0.417076 0.0564263 0.523616
1216 2 0.422924 0.037165 0.538448
841 2 0.373573 0.0604565 0.526546
842 4 0.398353 0.0615181 0.523382
843 4 0.348794 0.0593949 0.529711
1218 4 0.428772 0.0179037 0.553279
938 4 0.0835164 0.152873 0.545661
937 2 0.102955 0.153126 0.561386
939 4 0.122393 0.153379 0.577111
1059 4 0.135741 0.124679 0.572652
1057 2 0.129722 0.1005 0.574732
1155 4 0.13327 0.138831 0.586247
1030 2 0.225103 0.0916649 0.569467
1152 4 0.209948 0.104971 0.527309
1151 4 0.173076 0.129308 0.503881
1150 2 0.191512 0.117139 0.515595
1032 4 0.215699 0.11219 0.558723
3159 4 0.485315 0.158863 0.538429
877 2 0.0503338 0.214382 0.57842
1199 4 0.0100748 0.213202 0.585709
879 4 0.0720317 0.225348 0.572577
470 4 0.0428806 0.184464 0.532725
469 2 0.0319708 0.184814 0.51023
1272 4 0.0911674 0.222819 0.571336
1270 2 0.110102 0.235522 0.581596
1271 4 0.129037 0.248226 0.591856
858 4 0.216006 0.213709 0.528409
898 2 0.314077 0.184996 0.566075
900 4 0.297267 0.202965 0.561632
899 4 0.330888 0.167028 0.570517
576 4 0.372273 0.181202 0.50692
3065 4 0.497487 0.251101 0.515962
983 4 0.0427483 0.328238 0.527909
982 2 0.0260074 0.335394 0.545046
1245 4 0.063415 0.28701 0.577317
1258 2 0.131672 0.283338 0.502202
1259 4 0.155821 0.279616 0.507504
872 4 0.363519 0.281402 0.539727
871 2 0.354096 0.304492 0.537933
873 4 0.344673 0.327583 0.536139
984 4 0.00926643 0.34255 0.562184
8 3 0.145069 0.334701 0.507045
1189 2 0.224168 0.378282 0.570114
1191 4 0.203519 0.391902 0.573755
1172 4 0.235707 0.414306 0.573135
1190 4 0.244818 0.364661 0.566473
803 4 0.260544 0.358007 0.55753
802 2 0.260649 0.355895 0.532616
1239 4 0.318521 0.342355 0.572103
813 4 0.358881 0.342597 0.534497
928 2 0.338818 0.373538 0.571253
811 2 0.357875 0.358022 0.514844
929 4 0.35554 0.388078 0.559671
926 4 0.441689 0.346115 0.539253
925 2 0.440637 0.369796 0.531299
927 4 0.439585 0.393478 0.523346
3307 2 0.497789 0.361814 0.509089
3309 4 0.479538 0.36601 0.525657
539 4 0.0756486 0.461072 0.495558
2244 4 0.116215 0.495221 0.517086
538 2 0.0931562 0.469419 0.511338
1159 2 0.143792 0.476788 0.579966
540 4 0.110664 0.477766 0.527117
1161 4 0.15637 0.498388 0.580611
1160 4 0.131213 0.455188 0.579321
1171 2 0.229616 0.438071 0.577962
773 4 0.279915 0.416106 0.509789
1953 4 0.359453 0.508362 0.568779
1002 4 0.411337 0.427526 0.559197
1911 4 0.459886 0.494642 0.567368
1000 2 0.434523 0.436105 0.55546
1001 4 0.45771 0.444685 0.551722
1083 4 0.0381164 0.0740813 0.619707
1081 2 0.050463 0.0805672 0.640459
825 4 0.119726 0.0168236 0.645304
951 4 0.256873 0.0264164 0.602709
949 2 0.280099 0.0350167 0.606135
950 4 0.303326 0.0436171 0.609562
2283 4 0.396685 0.0112436 0.649201
3008 4 0.478512 0.0761574 0.587557
809 4 0.462692 0.0792602 0.600987
808 2 0.46147 0.0829231 0.62569
810 4 0.460248 0.086586 0.650394
1082 4 0.0628095 0.0870531 0.661212
1153 2 0.151967 0.150316 0.598233
1283 4 0.175868 0.124853 0.640454
1282 2 0.177642 0.10591 0.656678
909 4 0.166972 0.16538 0.666885
45 3 0.455902 0.105177 0.659825
878 4 0.0286359 0.203417 0.584262
1221 4 0.176459 0.179409 0.603071
1154 4 0.170665 0.161802 0.610218
1210 2 0.244431 0.181963 0.63602
1212 4 0.231919 0.189389 0.615686
1219 2 0.197093 0.190985 0.611161
1220 4 0.217726 0.20256 0.619251
797 4 0.248841 0.249686 0.585327
796 2 0.224015 0.250238 0.582404
1194 4 0.335073 0.185895 0.657026
1193 4 0.384519 0.193116 0.658933
1192 2 0.359796 0.189505 0.65798
1025 4 0.419993 0.21626 0.661986
1244 4 0.0411946 0.26812 0.617939
1243 2 0.0523048 0.277565 0.597628
1209 4 0.117952 0.265859 0.653335
1136 4 0.130679 0.317052 0.609539
948 4 0.146253 0.27925 0.609208
946 2 0.168246 0.270162 0.601533
798 4 0.199189 0.25079 0.57948
947 4 0.190239 0.261074 0.593859
791 4 0.26433 0.253932 0.596589
792 4 0.294318 0.293834 0.593545
790 2 0.279324 0.273883 0.595067
1238 4 0.300484 0.309123 0.60483
1237 2 0.309503 0.325739 0.588467
805 2 0.339035 0.293449 0.646672
807 4 0.328316 0.271238 0.650788
954 4 0.402104 0.298534 0.602857
806 4 0.349754 0.315661 0.642557
953 4 0.44676 0.280992 0.588758
904 2 0.477972 0.260342 0.603718
906 4 0.461808 0.279207 0.600884
952 2 0.424432 0.289763 0.595808
3263 4 0.0132556 0.3385 0.62163
1039 2 0.0630143 0.391212 0.618552
1041 4 0.0412445 0.380178 0.613121
3264 4 0.0218251 0.386916 0.612514
3262 2 0.0175403 0.362708 0.617072
3240 4 0.0174181 0.400885 0.626021
1040 4 0.0847842 0.402247 0.623983
993 4 0.100972 0.416291 0.623731
1137 4 0.13971 0.366232 0.610274
897 4 0.149575 0.379053 0.59671
1135 2 0.135194 0.341642 0.609906
991 2 0.118419 0.400249 0.615765
992 4 0.135867 0.384208 0.607799
896 4 0.19928 0.380813 0.591515
895 2 0.174427 0.379933 0.594112
930 4 0.322097 0.358997 0.582834
1204 2 0.392297 0.392332 0.64933
1206 4 0.378664 0.375274 0.63715
1205 4 0.40593 0.40939 0.661509
1173 4 0.223525 0.461836 0.582789
1187 4 0.22114 0.48062 0.588289
1186 2 0.197745 0.489364 0.58946
1188 4 0.17435 0.498109 0.590632
889 2 0.303485 0.476625 0.613698
891 4 0.282845 0.473135 0.627373
890 4 0.324125 0.480114 0.600023
1951 2 0.347731 0.488789 0.579009
1952 4 0.336008 0.469216 0.58924
1230 4 0.375944 0.470193 0.644882
1269 4 0.471383 0.465987 0.630254
1267 2 0.46689 0.48588 0.644719
943 2 0.0533996 0.0540535 0.700357
945 4 0.0535489 0.0322211 0.712543
2991 4 0.993401 0.0379731 0.730239
1203 4 0.137239 0.0779393 0.736698
1201 2 0.12308 0.0603498 0.747437
1147 2 0.22626 0.0504858 0.721065
1149 4 0.243096 0.0326469 0.716215
1148 4 0.209425 0.0683247 0.725914
1004 4 0.392089 0.0638411 0.707794
1163 4 0.468611 0.0714057 0.683506
1162 2 0.483208 0.053194 0.692475
42 3 0.453394 0.0684051 0.665691
2320 2 0.484316 0.0273847 0.740262
2322 4 0.470984 0.0288365 0.761364
2321 4 0.497649 0.025933 0.719159
1164 4 0.497805 0.0349823 0.701443
944 4 0.0532503 0.075886 0.688171
1076 4 0.0559246 0.0930036 0.678591
862 2 0.0219751 0.127722 0.743969
864 4 0.0397938 0.133843 0.727531
1075 2 0.0533578 0.111849 0.694822
1077 4 0.050791 0.130695 0.711052
1107 4 0.0547843 0.144497 0.723377
851 4 0.0577663 0.149026 0.705445
1105 2 0.070586 0.155795 0.739119
1284 4 0.179416 0.0869682 0.672902
908 4 0.188054 0.145775 0.707773
907 2 0.177513 0.155578 0.687329
1227 4 0.200488 0.136189 0.720079
1225 2 0.20221 0.111265 0.721089
1226 4 0.203932 0.0863413 0.7221
1003 2 0.383165 0.0823768 0.693582
829 2 0.345828 0.156039 0.702217
830 4 0.339211 0.162907 0.679104
1005 4 0.374241 0.100913 0.679371
831 4 0.352444 0.149171 0.725331
43 3 0.43007 0.0917391 0.683696
41 1 0.451601 0.0891643 0.675437
44 3 0.466963 0.0906695 0.692762
3425 4 0.472027 0.103642 0.67443
3424 2 0.493731 0.115931 0.672661
852 4 0.0551497 0.183816 0.669619
850 2 0.056458 0.166421 0.687532
1177 2 0.032939 0.219073 0.700994
1178 4 0.0103902 0.213339 0.710151
1179 4 0.0554878 0.224807 0.691837
1215 4 0.00742773 0.221385 0.728754
1073 4 0.13954 0.227768 0.742769
1072 2 0.129236 0.250098 0.747282
1130 4 0.181356 0.181903 0.763805
1211 4 0.256943 0.174537 0.656355
888 4 0.276741 0.167532 0.659188
886 2 0.301317 0.169444 0.663378
887 4 0.325892 0.171356 0.667568
976 2 0.269153 0.203521 0.736427
978 4 0.247923 0.193343 0.728008
977 4 0.290383 0.213699 0.744845
918 4 0.291103 0.233725 0.749476
1262 4 0.439463 0.22503 0.725032
1142 4 0.443566 0.192657 0.708325
1024 2 0.427147 0.213732 0.685811
1141 2 0.44008 0.183662 0.731393
1026 4 0.434301 0.211203 0.709635
1261 2 0.460578 0.234844 0.734143
1263 4 0.481694 0.244658 0.743254
3123 4 0.486423 0.248332 0.685199
1207 2 0.109695 0.276566 0.674367
1208 4 0.101438 0.287274 0.695399
1074 4 0.118932 0.272428 0.751796
821 4 0.160212 0.313181 0.688021
820 2 0.16888 0.289868 0.685465
822 4 0.177547 0.266554 0.68291
1065 4 0.230545 0.31829 0.702612
1064 4 0.271149 0.297158 0.682476
1063 2 0.250847 0.307724 0.692544
916 2 0.288105 0.258544 0.74992
892 2 0.0293434 0.359058 0.693039
893 4 0.0150802 0.344179 0.678884
894 4 0.0436066 0.373937 0.707193
1280 4 0.0547496 0.378498 0.722207
1279 2 0.0565169 0.402513 0.715475
814 2 0.0803741 0.364608 0.751176
816 4 0.060283 0.364501 0.736293
1028 4 0.206452 0.382582 0.695933
1066 2 0.188072 0.382027 0.734809
1068 4 0.201868 0.387922 0.714807
1027 2 0.230194 0.38862 0.69093
1029 4 0.253936 0.394658 0.685927
1140 4 0.262118 0.411413 0.680516
1138 2 0.281138 0.427454 0.682982
1019 4 0.351952 0.359639 0.746132
1981 2 0.0576034 0.460927 0.729223
1281 4 0.0582842 0.426528 0.708744
1983 4 0.0682053 0.441476 0.717628
1982 4 0.0470016 0.480378 0.740817
2016 4 0.195741 0.500521 0.736098
1139 4 0.300159 0.443495 0.685447
1987 2 0.332657 0.461187 0.725096
1988 4 0.313642 0.464097 0.741069
1228 2 0.366505 0.467841 0.667916
1229 4 0.357066 0.465488 0.69095
1989 4 0.351671 0.458277 0.709122
1268 4 0.462397 0.505773 0.659185
1100 4 0.416724 0.435263 0.709076
1099 2 0.421651 0.459645 0.706547
1101 4 0.426577 0.484028 0.704018
1202 4 0.108921 0.0427604 0.758175
2049 4 0.108708 0.0269466 0.768193
2047 2 0.122253 0.00764888 0.776518
819 4 0.327379 0.0870552 0.799447
817 2 0.33381 0.0674128 0.813518
818 4 0.340241 0.0477703 0.827589
1113 4 0.421203 0.0821974 0.816027
1112 4 0.444135 0.0859793 0.771749
1111 2 0.432669 0.0840883 0.793888
911 4 0.0830253 0.132796 0.828234
863 4 0.00415641 0.121601 0.760407
832 2 0.997589 0.108215 0.799758
833 4 0.00826116 0.112408 0.777539
34 3 0.125389 0.163522 0.813697
31 1 0.107305 0.151978 0.804859
35 3 0.113214 0.142175 0.785171
32 3 0.100853 0.135709 0.819787
1106 4 0.0863878 0.167093 0.754862
1257 4 0.240079 0.0996318 0.809359
1256 4 0.283078 0.0891808 0.786066