ITEM: TIMESTEP
1330000
ITEM: NUMBER OF ATOMS
4590
ITEM: BOX BOUNDS pp pp pp
-9.9985700000000008e+00 9.9985700000000008e+00
-9.9985700000000008e+00 9.9985700000000008e+00
-9.9985700000000008e+00 9.9985700000000008e+00
ITEM: ATOMS id type xs ys zs
1666 2 0.0714263 0.0629062 0.0697573
1668 4 0.0582415 0.0489559 0.0537345
297 4 0.342878 0.0657798 0.0570245
295 2 0.35366 0.0795408 0.0391486
486 4 0.37503 0.0133971 0.0732618
747 4 0.465269 0.060126 0.00675019
2974 2 0.467215 0.0273982 0.0347922
2976 4 0.473974 0.0103475 0.0517856
2975 4 0.460457 0.044449 0.0177988
745 2 0.454334 0.0818062 0.0127157
296 4 0.364443 0.0933019 0.0212727
358 2 0.349557 0.168228 0.0708264
557 4 0.377012 0.0858194 0.00832438
556 2 0.400322 0.0933039 0.0134068
769 2 0.390464 0.148205 0.034534
770 4 0.383523 0.170622 0.0431664
771 4 0.397404 0.125789 0.0259017
827 4 0.359352 0.0889908 0.00217147
558 4 0.423631 0.100788 0.0184892
746 4 0.4434 0.103486 0.0186812
566 4 0.140614 0.172188 0.0280731
565 2 0.165398 0.169756 0.0258412
567 4 0.190183 0.167324 0.0236093
359 4 0.367863 0.17431 0.054919
664 2 0.385387 0.203168 0.0460711
665 4 0.370953 0.1844 0.0380328
666 4 0.399821 0.221935 0.0541094
555 4 0.091038 0.273059 0.0456443
553 2 0.0829786 0.268959 0.0223331
286 2 0.144949 0.338402 0.0272677
287 4 0.16169 0.319926 0.0291576
293 4 0.156302 0.302569 0.0302513
292 2 0.164138 0.283939 0.0155306
507 4 0.166708 0.304651 0.045237
505 2 0.180444 0.301488 0.0658884
506 4 0.194181 0.298324 0.0865398
481 2 0.233457 0.287774 0.071468
483 4 0.209887 0.287818 0.0798127
573 4 0.256142 0.2807 0.0451032
482 4 0.257027 0.28773 0.0631232
571 2 0.259039 0.273467 0.0213447
322 2 0.394694 0.27744 0.0561027
1069 2 0.385311 0.303432 0.0108906
324 4 0.395197 0.280882 0.0313423
1070 4 0.40663 0.293148 0.0189483
741 4 0.356639 0.320216 0.0343091
957 4 0.351825 0.324709 0.0163249
955 2 0.336821 0.325446 0.996337
1071 4 0.363992 0.313716 0.00283278
671 4 0.457624 0.318869 0.0547299
280 2 0.443749 0.293374 0.0302046
281 4 0.46329 0.303011 0.0424705
282 4 0.424208 0.283737 0.0179387
670 2 0.446195 0.331788 0.0728302
288 4 0.128208 0.356877 0.0253778
454 2 0.147978 0.369458 0.0791005
552 4 0.104199 0.366695 0.0748725
456 4 0.172809 0.366728 0.0780129
250 2 0.283042 0.405192 0.0290149
251 4 0.265178 0.402743 0.0116927
252 4 0.300906 0.407641 0.0463371
739 2 0.366536 0.329036 0.0555094
740 4 0.376433 0.337855 0.0767097
495 4 0.387899 0.369623 0.0617948
493 2 0.391922 0.393543 0.0678646
14 3 0.390048 0.356522 0.0766442
4210 2 0.0334143 0.497829 0.992548
245 4 0.240166 0.434375 0.0434344
626 4 0.227557 0.446315 0.0530662
625 2 0.207651 0.455215 0.0653031
244 2 0.246541 0.451242 0.0261121
1778 4 0.237856 0.488188 0.0338783
609 4 0.298085 0.422285 0.0585949
246 4 0.252915 0.468108 0.00878973
272 4 0.272049 0.466996 0.00497751
607 2 0.318039 0.426765 0.0729801
494 4 0.395945 0.417462 0.0739344
1672 2 0.394481 0.495168 0.0301349
1673 4 0.372478 0.506393 0.0262586
563 4 0.470085 0.460875 0.0415716
228 4 0.487864 0.45875 0.0510022
562 2 0.445891 0.463769 0.0359631
564 4 0.421697 0.466663 0.0303546
854 4 0.419951 0.465627 0.0120712
1674 4 0.416485 0.483943 0.0340112
19 3 0.0586949 0.0794589 0.159554
18 3 0.0728637 0.0509627 0.138778
16 1 0.0647695 0.0570648 0.159651
1667 4 0.084611 0.0768565 0.0857801
701 4 0.0899074 0.0691104 0.10372
17 3 0.04621 0.0443459 0.164439
1475 4 0.277374 0.0137056 0.0846449
492 4 0.264846 0.0252521 0.0933719
491 4 0.29515 0.0507148 0.123934
490 2 0.279998 0.0379834 0.108653
484 2 0.378844 0.996401 0.0911997
2723 4 0.446915 0.0597937 0.149634
2722 2 0.46821 0.0476143 0.154468
2724 4 0.489505 0.035435 0.159303
700 2 0.0951632 0.0888994 0.118071
476 4 0.105973 0.100875 0.150904
702 4 0.100419 0.108688 0.132422
360 4 0.33125 0.162145 0.0867338
581 4 0.287744 0.12102 0.149601
580 2 0.267857 0.129662 0.16205
628 2 0.388836 0.135137 0.139726
630 4 0.386692 0.157961 0.129745
312 4 0.406283 0.109288 0.16276
629 4 0.39098 0.112312 0.149707
337 2 0.0803285 0.233483 0.158494
2625 4 0.998269 0.177149 0.117294
339 4 0.0828717 0.21436 0.142588
737 4 0.204586 0.210302 0.12184
736 2 0.211201 0.229879 0.107763
738 4 0.217816 0.249456 0.0936865
461 4 0.301004 0.225662 0.103664
460 2 0.325526 0.225843 0.108545
354 4 0.286475 0.232551 0.11423
352 2 0.280299 0.240713 0.137042
353 4 0.274124 0.248875 0.159855
462 4 0.350048 0.226023 0.113426
254 4 0.379044 0.172294 0.118117
255 4 0.360877 0.218065 0.126816
253 2 0.369961 0.195179 0.122466
765 4 0.365902 0.230773 0.140422
624 4 0.366567 0.23524 0.121028
763 2 0.35493 0.23105 0.162888
622 2 0.381839 0.24473 0.103654
648 4 0.0566273 0.326154 0.145915
537 4 0.187215 0.310475 0.0999376
536 4 0.198832 0.33676 0.140862
535 2 0.193024 0.323617 0.1204
755 4 0.263086 0.264092 0.162228
387 4 0.326587 0.324183 0.123367
302 4 0.341006 0.329992 0.136099
301 2 0.333089 0.330495 0.15981
323 4 0.39419 0.273997 0.080863
623 4 0.397111 0.254221 0.0862792
385 2 0.346118 0.327502 0.108112
15 3 0.382242 0.325758 0.0968992
386 4 0.365649 0.33082 0.0928574
528 4 0.469607 0.279916 0.103768
518 4 0.484878 0.267917 0.0975725
526 2 0.468018 0.268998 0.126205
527 4 0.466429 0.258079 0.148643
104 3 0.486231 0.343675 0.132231
551 4 0.0927631 0.357117 0.122603
455 4 0.123148 0.372188 0.0801881
550 2 0.0984812 0.361906 0.0987377
12 3 0.417432 0.33795 0.0944715
11 1 0.395363 0.34433 0.0956574
13 3 0.392349 0.357432 0.114569
672 4 0.434765 0.344708 0.0909305
1791 4 0.0486427 0.4736 0.140466
1466 4 0.0426946 0.468683 0.15892
1789 2 0.0533694 0.494089 0.126937
417 4 0.173272 0.461603 0.132112
627 4 0.187745 0.464114 0.07754
291 4 0.214881 0.419624 0.146712
416 4 0.205064 0.423129 0.12899
415 2 0.189168 0.442366 0.130551
289 2 0.238703 0.425285 0.151774
768 4 0.274538 0.444269 0.167165
290 4 0.262526 0.430946 0.156836
608 4 0.337994 0.431245 0.0873654
767 4 0.271477 0.49314 0.157018
766 2 0.273007 0.468705 0.162092
525 4 0.382926 0.481296 0.14108
658 2 0.368694 0.434403 0.0960773
659 4 0.345348 0.43835 0.104113
660 4 0.39204 0.430456 0.0880421
523 2 0.367554 0.498536 0.131506
524 4 0.352181 0.515776 0.121933
20 3 0.0806768 0.0533971 0.17553
2480 4 0.0294485 0.0401318 0.176696
1422 4 0.0261273 0.0233525 0.167805
2479 2 0.0140327 0.0542859 0.190378
675 4 0.096278 0.0154017 0.24393
674 4 0.140767 0.0298119 0.226215
673 2 0.118522 0.0226068 0.235073
689 4 0.154 0.0158886 0.226809
578 4 0.119632 0.0520187 0.214431
577 2 0.118179 0.0718395 0.199259
450 4 0.165741 0.0573648 0.185686
448 2 0.173213 0.0802693 0.178999
1506 4 0.252904 0.0239696 0.181151
1504 2 0.232547 0.0095649 0.182956
688 2 0.173269 0.0025774 0.218051
654 4 0.264905 0.0252246 0.196407
652 2 0.286353 0.0290809 0.184147
653 4 0.3078 0.0329372 0.171887
24 3 0.315011 0.0765475 0.237845
25 3 0.341952 0.050287 0.23934
311 4 0.394451 0.0618489 0.17326
758 4 0.388837 0.0589047 0.192608
759 4 0.35711 0.0657007 0.230659
757 2 0.372974 0.0623027 0.211634
381 4 0.00616597 0.137113 0.209624
512 4 0.00964324 0.146819 0.228764
511 2 0.0337567 0.153311 0.227511
475 2 0.101614 0.11658 0.169865
477 4 0.097255 0.132285 0.188826
579 4 0.116726 0.0916604 0.184086
449 4 0.180686 0.103174 0.172311
237 4 0.229599 0.136247 0.180442
691 2 0.221099 0.116469 0.242011
693 4 0.216467 0.125282 0.219076
236 4 0.18438 0.115865 0.186804
235 2 0.20699 0.126056 0.183623
582 4 0.247969 0.138304 0.1745
22 3 0.351235 0.0864353 0.239496
310 2 0.400367 0.0855685 0.16801
28 3 0.329462 0.141483 0.247757
762 4 0.480043 0.149358 0.244633
521 4 0.490926 0.15911 0.231821
332 4 0.495641 0.140836 0.23517
760 2 0.461633 0.16459 0.251995
333 4 0.485691 0.0936502 0.248406
331 2 0.490666 0.117243 0.241788
513 4 0.0578702 0.159803 0.226257
393 4 0.0561861 0.159687 0.24616
394 2 0.0153431 0.235903 0.229583
395 4 0.031637 0.239685 0.210998
546 4 0.15762 0.196234 0.251821
277 2 0.240896 0.235238 0.17683
279 4 0.219639 0.22223 0.178871
284 4 0.27913 0.239997 0.178203
283 2 0.302532 0.236968 0.186471
285 4 0.325934 0.23394 0.194738
27 3 0.329535 0.178778 0.243094
278 4 0.262152 0.248245 0.174789
764 4 0.343958 0.231327 0.185354
338 4 0.0777853 0.252606 0.174401
646 2 0.0590486 0.320399 0.170127
363 4 0.0878624 0.269406 0.172637
749 4 0.0823803 0.294876 0.224399
361 2 0.0938027 0.282287 0.193228
370 2 0.141318 0.291712 0.220196
372 4 0.116781 0.287448 0.222419
362 4 0.099743 0.295167 0.213819
748 2 0.0916753 0.309479 0.242441
371 4 0.165855 0.295975 0.217974
754 2 0.271796 0.283992 0.174608
756 4 0.280507 0.303893 0.186989
612 4 0.26794 0.310913 0.202095
610 2 0.260727 0.312949 0.225948
307 2 0.312907 0.292118 0.225188
308 4 0.319941 0.296106 0.201528
611 4 0.253513 0.314985 0.249802
647 4 0.0614698 0.314644 0.194338
734 4 0.167786 0.360361 0.247298
303 4 0.325172 0.330998 0.183522
729 4 0.316462 0.344342 0.197185
727 2 0.307046 0.366029 0.205323
728 4 0.29763 0.387715 0.21346
447 4 0.408829 0.386881 0.229909
445 2 0.393547 0.396789 0.24704
596 4 0.498898 0.397919 0.156832
644 4 0.428896 0.387037 0.232144
595 2 0.482582 0.388732 0.173401
597 4 0.466265 0.379545 0.189971
643 2 0.438583 0.386483 0.2091
645 4 0.448271 0.38593 0.186056
264 4 0.020221 0.414185 0.213157
1465 2 0.0336979 0.475042 0.181366
1467 4 0.0247012 0.481402 0.203811
1758 4 0.102753 0.484856 0.234176
1756 2 0.114306 0.462686 0.233746
1757 4 0.125859 0.440515 0.233316
1775 4 0.0860108 0.494678 0.239844
231 4 0.46606 0.482323 0.207531
229 2 0.452696 0.499247 0.194875
232 2 0.0229162 0.0408896 0.297571
233 4 0.0472552 0.0378731 0.292703
1404 4 0.0604219 0.0247354 0.293443
1402 2 0.0690626 0.0184077 0.270849
316 2 0.0721328 0.0572111 0.32021
317 4 0.0644999 0.0387964 0.305116
428 4 0.0641464 0.0199926 0.311847
1403 4 0.0777032 0.01208 0.248256
21 1 0.335762 0.0709663 0.246599
23 3 0.334926 0.0712953 0.269786
699 4 0.359189 0.0753952 0.327104
351 4 0.426214 0.0641039 0.259449
1426 2 0.461597 0.996655 0.32556
479 4 0.452528 0.0335318 0.307909
478 2 0.43786 0.0401049 0.288757
2664 4 0.471312 0.0299368 0.306979
480 4 0.423191 0.0466779 0.269605
1428 4 0.457006 0.0197115 0.317045
258 4 0.443026 0.0328025 0.324422
2662 2 0.492755 0.0336851 0.294678
391 2 0.0781578 0.158844 0.258065
392 4 0.100129 0.158 0.269969
692 4 0.225731 0.107656 0.264947
723 4 0.244891 0.103212 0.270224
721 2 0.241685 0.112466 0.29323
722 4 0.238478 0.12172 0.316236
403 2 0.260335 0.152123 0.333603
30 3 0.308792 0.163594 0.270151
26 1 0.328406 0.161916 0.258701
632 4 0.37293 0.0992555 0.260721
350 4 0.392292 0.100785 0.257324
631 2 0.359999 0.120613 0.262061
707 4 0.353625 0.150931 0.281752
633 4 0.347067 0.141971 0.2634
706 2 0.362267 0.160444 0.303199
29 3 0.346308 0.16401 0.273314
708 4 0.37091 0.169956 0.324646
349 2 0.409253 0.0824445 0.258387
388 2 0.110075 0.240102 0.320423
389 4 0.110149 0.221817 0.303368
544 2 0.169541 0.200525 0.273376
545 4 0.181463 0.204816 0.294932
402 4 0.181868 0.225473 0.295577
400 2 0.189662 0.248811 0.300024
405 4 0.261228 0.176853 0.330023
473 4 0.264263 0.195795 0.336691
717 4 0.414949 0.179624 0.331153
761 4 0.443222 0.179823 0.259357
419 4 0.45942 0.251644 0.326722
390 4 0.110001 0.258386 0.337478
750 4 0.10097 0.324082 0.260484
401 4 0.197456 0.272149 0.304471
676 2 0.181595 0.314499 0.313987
345 4 0.211141 0.330481 0.290025
677 4 0.193541 0.328348 0.296938
343 2 0.233333 0.32613 0.279358
344 4 0.255524 0.32178 0.268691
496 2 0.284667 0.290186 0.2801
497 4 0.262751 0.292017 0.291997
377 4 0.268141 0.278572 0.306504
498 4 0.306583 0.288356 0.268204
309 4 0.305873 0.28813 0.248848
420 4 0.422397 0.282021 0.341118
418 2 0.440908 0.266833 0.33392
365 4 0.0324106 0.356508 0.288822
601 2 0.067167 0.373527 0.311016
603 4 0.0498764 0.364928 0.295133
602 4 0.0844576 0.382126 0.326898
364 2 0.0120611 0.366948 0.298927
299 4 0.148364 0.360378 0.253607
300 4 0.103216 0.342322 0.265285
298 2 0.12579 0.35135 0.259446
735 4 0.197445 0.333744 0.277507
733 2 0.182615 0.347052 0.262402
433 2 0.312212 0.373446 0.320167
435 4 0.288551 0.380151 0.324687
434 4 0.335872 0.366742 0.315648
614 4 0.333664 0.347042 0.319414
613 2 0.355276 0.339103 0.329167
446 4 0.378266 0.406698 0.264171
777 4 0.134475 0.480165 0.275443
775 2 0.128171 0.481625 0.299595
776 4 0.121868 0.483086 0.323747
1435 2 0.23354 0.459557 0.319048
1436 4 0.238963 0.464191 0.295083
1437 4 0.228117 0.454922 0.343012
413 4 0.247138 0.481384 0.291671
437 4 0.375537 0.472362 0.319622
1803 4 0.363485 0.502452 0.252129
119 3 0.492097 0.454872 0.317652
118 3 0.501998 0.422122 0.3342
318 4 0.0797657 0.0756259 0.335303
732 4 0.0957921 0.0777504 0.3455
730 2 0.115555 0.0672375 0.356641
731 4 0.135317 0.0567246 0.367781
606 4 0.154246 0.0610906 0.36207
1701 4 0.318146 0.0194503 0.381126
1699 2 0.308395 0.0260581 0.359071
1700 4 0.298645 0.0326658 0.337015
425 4 0.328331 0.0158293 0.397664
441 4 0.310462 0.015963 0.410516
697 2 0.376882 0.0619702 0.33859
698 4 0.394575 0.0485453 0.350076
426 4 0.375694 0.0314659 0.401266
424 2 0.352012 0.0236476 0.399465
257 4 0.412625 0.049136 0.360611
726 4 0.430939 0.0657729 0.400606
256 2 0.427825 0.0409693 0.342517
399 4 0.0771532 0.0837787 0.351972
397 2 0.0730094 0.108429 0.351371
398 4 0.0688657 0.13308 0.350769
2586 4 0.0169772 0.146988 0.374618
458 4 0.0313154 0.156687 0.385233
457 2 0.0441383 0.152271 0.406239
598 2 0.136922 0.155642 0.359037
600 4 0.12495 0.135679 0.349908
249 4 0.239041 0.127486 0.335342
604 2 0.173231 0.0773624 0.361986
605 4 0.192215 0.0936342 0.361903
248 4 0.211796 0.0912893 0.356513
247 2 0.225418 0.109388 0.345928
404 4 0.259442 0.127394 0.337184
683 4 0.257218 0.0977266 0.367531
682 2 0.26825 0.105806 0.388464
319 2 0.311185 0.131276 0.415785
684 4 0.279282 0.113885 0.409397
321 4 0.329281 0.145916 0.406655
725 4 0.410947 0.108353 0.417575
724 2 0.420943 0.0870631 0.409091
599 4 0.148893 0.175605 0.368167
686 4 0.143247 0.183217 0.386153
685 2 0.130644 0.187821 0.407252
275 4 0.163799 0.179722 0.35649
472 2 0.24392 0.206301 0.346737
474 4 0.223576 0.216807 0.356783
276 4 0.204547 0.208397 0.360742
274 2 0.184173 0.19406 0.358616
715 2 0.41124 0.190935 0.353142
466 2 0.379568 0.193684 0.403059
716 4 0.407531 0.202246 0.37513
467 4 0.389014 0.196962 0.380142
487 2 0.337337 0.248172 0.417583
270 4 0.464827 0.205614 0.37455
452 4 0.477456 0.204576 0.389172
451 2 0.465204 0.197612 0.409825
268 2 0.463274 0.219369 0.353727
269 4 0.461721 0.233123 0.332904
618 4 0.0715546 0.325617 0.388791
616 2 0.0926953 0.313991 0.382227
617 4 0.113836 0.302365 0.375663
374 4 0.123106 0.293255 0.360679
373 2 0.145303 0.302619 0.353988
375 4 0.1675 0.311983 0.347297
678 4 0.169649 0.30065 0.331036
509 4 0.258179 0.302972 0.386751
376 2 0.27003 0.267764 0.328971
378 4 0.27192 0.256956 0.351439
508 2 0.261108 0.312714 0.363911
615 4 0.376887 0.331164 0.33892
541 2 0.406742 0.311334 0.347763
543 4 0.385643 0.32204 0.355849
488 4 0.327447 0.260347 0.398112
542 4 0.427842 0.300628 0.339677
347 4 0.0566289 0.334215 0.398084
346 2 0.0426771 0.35493 0.396893
348 4 0.0287252 0.375645 0.395701
549 4 0.0880295 0.397352 0.340331
510 4 0.264038 0.322456 0.34107
668 4 0.327119 0.379783 0.405705
667 2 0.317595 0.398335 0.419499
336 4 0.344405 0.373851 0.396669
753 4 0.502623 0.412323 0.351721
751 2 0.493351 0.410796 0.374892
752 4 0.48408 0.409268 0.398063
547 2 0.0967475 0.419876 0.3468
407 4 0.118202 0.45321 0.364107
548 4 0.105466 0.4424 0.353269
406 2 0.122264 0.458356 0.388236
408 4 0.126326 0.463502 0.412365
1544 4 0.20965 0.50687 0.409282
3 3 0.317778 0.448937 0.340069
5 3 0.286401 0.469742 0.339472
1 1 0.306281 0.466431 0.350078
4 3 0.302603 0.461695 0.372494
438 4 0.329258 0.468709 0.338212
2 3 0.318984 0.485544 0.348503
436 2 0.352398 0.470535 0.328917
593 4 0.408336 0.469246 0.383184
586 2 0.413997 0.444613 0.419182
588 4 0.407099 0.459846 0.400594
592 2 0.419595 0.480217 0.363741
714 4 0.485955 0.463661 0.338345
712 2 0.466166 0.478882 0.336964
117 3 0.497987 0.453342 0.354741
594 4 0.430853 0.491189 0.344297
369 4 0.0473431 0.0115037 0.412694
718 2 0.0143486 0.0107487 0.440731
719 4 0.0286629 0.0120999 0.420275
962 4 0.305523 0.0223215 0.42736
961 2 0.30844 0.0375525 0.446973
963 4 0.311357 0.0527834 0.466587
432 4 0.31071 0.0617588 0.485947
459 4 0.0569613 0.147855 0.427245
320 4 0.293089 0.116635 0.424915
640 2 0.492625 0.125965 0.468515
641 4 0.476124 0.136107 0.484328
260 4 0.0680012 0.161159 0.436629
687 4 0.118042 0.192426 0.42835
259 2 0.0851246 0.179377 0.436936
261 4 0.102248 0.197594 0.437243
1035 4 0.119404 0.208567 0.438463
1033 2 0.119547 0.224807 0.457474
1034 4 0.11969 0.241048 0.476484
489 4 0.347228 0.235996 0.437054
468 4 0.370123 0.190406 0.425977
514 2 0.414319 0.187736 0.449706
411 4 0.340306 0.225913 0.455596
516 4 0.390522 0.183091 0.455812
409 2 0.356886 0.207826 0.450787
410 4 0.373466 0.189739 0.445977
575 4 0.382669 0.177008 0.473338
266 4 0.39144 0.255133 0.475906
574 2 0.386477 0.180852 0.49775
515 4 0.438117 0.192382 0.4436
453 4 0.452952 0.190647 0.430479
583 2 0.488407 0.245303 0.473029
585 4 0.495166 0.227027 0.457361
694 2 0.0686762 0.257903 0.486528
695 4 0.0439171 0.25964 0.489552
1258 2 0.122259 0.28308 0.483396
1259 4 0.131547 0.306125 0.486197
9 3 0.131753 0.326931 0.484156
696 4 0.0934352 0.256165 0.483503
1260 4 0.112972 0.260035 0.480596
267 4 0.376029 0.302704 0.475506
265 2 0.383735 0.278918 0.475706
584 4 0.481648 0.263578 0.488698
2847 4 0.0181484 0.326367 0.467857
2845 2 0.999209 0.342673 0.467092
326 4 0.046114 0.362678 0.456707
325 2 0.0699264 0.363989 0.464218
711 4 0.13934 0.41494 0.459557
10 3 0.141455 0.352578 0.458354
6 1 0.132721 0.349571 0.47917
7 3 0.11142 0.358236 0.479773
327 4 0.0937389 0.3653 0.47173
709 2 0.158384 0.40076 0.467397
8 3 0.145751 0.360594 0.494891
503 4 0.221576 0.358069 0.43024
504 4 0.191836 0.37654 0.465949
502 2 0.206706 0.367305 0.448094
710 4 0.177427 0.38658 0.475236
882 4 0.377095 0.398183 0.486594
335 4 0.379884 0.356394 0.427283
334 2 0.362145 0.365122 0.411976
238 2 0.399457 0.394149 0.439424
240 4 0.386043 0.374506 0.431713
239 4 0.41287 0.413791 0.447134
3307 2 0.499071 0.400715 0.487478
3308 4 0.489911 0.386045 0.505535
1381 2 0.00766764 0.492139 0.466833
1383 4 0.00475599 0.467487 0.463832
680 4 0.99418 0.462238 0.448147
569 4 0.117569 0.476296 0.425687
382 2 0.118255 0.436728 0.44082
384 4 0.12069 0.415899 0.454437
568 2 0.132362 0.495741 0.431002
383 4 0.11582 0.457556 0.427203
1556 4 0.223749 0.493786 0.416721
1555 2 0.246097 0.489404 0.427044
1557 4 0.268445 0.485021 0.437366
636 4 0.284216 0.491142 0.426487
635 4 0.311306 0.449114 0.425764
669 4 0.308071 0.416887 0.433294
773 4 0.299728 0.425965 0.489165
774 4 0.31324 0.436077 0.442092
634 2 0.297761 0.470128 0.426126
772 2 0.306484 0.431021 0.465629
663 4 0.440602 0.47618 0.449567
661 2 0.455063 0.487182 0.466743
587 4 0.420895 0.429379 0.437771
342 4 0.208591 0.0690636 0.515951
340 2 0.215849 0.0452423 0.513705
341 4 0.223107 0.021421 0.511459
1032 4 0.225834 0.0880543 0.594542
1151 4 0.211011 0.0808673 0.583007
2430 4 0.210484 0.0078594 0.502962
430 2 0.32743 0.0741096 0.499843
431 4 0.34415 0.0864604 0.513738
1217 4 0.402503 0.0855392 0.526767
1216 2 0.413293 0.0676966 0.512969
1218 4 0.424083 0.049854 0.49917
3007 2 0.495862 0.046165 0.567123
3009 4 0.500265 0.0519863 0.543209
1128 4 0.00504199 0.100211 0.590626
1058 4 0.110031 0.111584 0.524951
1057 2 0.114344 0.116178 0.549148
1059 4 0.118658 0.120771 0.573344
1152 4 0.199891 0.0737218 0.534779
1150 2 0.205451 0.0772946 0.558893
1181 4 0.227055 0.153711 0.565628
1180 2 0.242207 0.146497 0.547093
843 4 0.342163 0.0940463 0.533151
1182 4 0.257359 0.139282 0.528558
900 4 0.272909 0.151743 0.524207
841 2 0.366946 0.0958084 0.535956
842 4 0.391729 0.0975705 0.538762
1199 4 0.0260584 0.21243 0.565054
1198 2 0.00330362 0.222686 0.563563
878 4 0.0386265 0.224062 0.576695
877 2 0.0595779 0.214935 0.58684
1244 4 0.0285348 0.241025 0.571484
1271 4 0.123319 0.168035 0.567039
1270 2 0.10914 0.187209 0.574555
857 4 0.225036 0.253791 0.50947
898 2 0.285074 0.173453 0.526624
650 4 0.286599 0.210278 0.537049
899 4 0.29724 0.195164 0.529041
649 2 0.2941 0.232796 0.529185
576 4 0.390285 0.184696 0.522161
1243 2 0.0355886 0.262893 0.581344
982 2 0.02783 0.32086 0.570417
796 2 0.232578 0.253271 0.570468
858 4 0.177517 0.253119 0.525035
856 2 0.201277 0.253455 0.517253
947 4 0.188561 0.258654 0.561224
946 2 0.179672 0.271459 0.580774
798 4 0.209157 0.259645 0.564467
797 4 0.255999 0.246898 0.576469
792 4 0.30141 0.299173 0.581257
651 4 0.301601 0.255314 0.521321
872 4 0.384501 0.246699 0.535053
871 2 0.386133 0.27062 0.542144
873 4 0.387765 0.294541 0.549235
813 4 0.391524 0.313759 0.54872
906 4 0.490437 0.300439 0.562172
953 4 0.471997 0.308209 0.565658
952 2 0.454274 0.302633 0.58239
954 4 0.43655 0.297058 0.599123
1010 4 0.501885 0.317882 0.509062
984 4 0.0154856 0.33869 0.557971
1190 4 0.250788 0.362826 0.569926
803 4 0.255687 0.346922 0.55829
804 4 0.287659 0.348223 0.51986
1237 2 0.326934 0.333243 0.578184
802 2 0.271673 0.347572 0.539075
930 4 0.332848 0.363436 0.56649
1239 4 0.339651 0.354294 0.58269
811 2 0.401151 0.336435 0.552999
812 4 0.410778 0.359111 0.557277
927 4 0.427485 0.36049 0.569204
929 4 0.350992 0.406308 0.548227
928 2 0.34192 0.384872 0.557359
881 4 0.35209 0.39718 0.52989
880 2 0.364592 0.397682 0.508242
926 4 0.430849 0.409721 0.577312
925 2 0.429167 0.385106 0.573258
538 2 0.0714536 0.453914 0.567899
539 4 0.0545895 0.437285 0.575916
540 4 0.0883178 0.470542 0.559882
1160 4 0.116468 0.482599 0.547752
1159 2 0.12605 0.464689 0.562333
1161 4 0.135631 0.446778 0.576913
2244 4 0.0957425 0.483283 0.546523
891 4 0.302296 0.423779 0.580382
889 2 0.319196 0.442071 0.582618
1953 4 0.389358 0.497215 0.570772
1951 2 0.367312 0.485569 0.572649
1000 2 0.43976 0.448734 0.583321
1002 4 0.444909 0.425348 0.576126
2114 4 0.00353359 0.0137537 0.612791
4338 4 0.0185325 0.00170344 0.618683
1082 4 0.0647223 0.0668465 0.658559
1083 4 0.0602223 0.0872509 0.613127
1081 2 0.0624723 0.0770487 0.635843
823 2 0.152577 0.0260039 0.658477
825 4 0.135338 0.0423038 0.666372
1283 4 0.129011 0.0627502 0.663149
2133 4 0.188317 0.00147075 0.649141
824 4 0.169815 0.00970387 0.650582
1030 2 0.247102 0.0768099 0.601356
1031 4 0.26837 0.0655655 0.608169
951 4 0.282311 0.0563784 0.619159
949 2 0.300958 0.0407344 0.613438
950 4 0.319605 0.0250903 0.607717
2283 4 0.399279 0.00993301 0.635991
809 4 0.480719 0.0482995 0.605379
808 2 0.47297 0.0562035 0.627799
810 4 0.46522 0.0641076 0.650219
42 3 0.46035 0.0548424 0.670431
41 1 0.45802 0.0776442 0.672381
3008 4 0.491458 0.0403436 0.591038
938 4 0.0759071 0.10023 0.613336
1126 2 0.0289032 0.0930594 0.592788
1127 4 0.0527645 0.0859078 0.59495
939 4 0.118534 0.109955 0.589065
937 2 0.0972205 0.105093 0.601201
1155 4 0.132172 0.125406 0.585717
1153 2 0.147827 0.144047 0.591431
1154 4 0.163481 0.162687 0.597145
1221 4 0.170316 0.159128 0.616594
887 4 0.323342 0.157941 0.663987
45 3 0.460705 0.0872375 0.651902
3425 4 0.475594 0.0956692 0.666944
3424 2 0.491876 0.114029 0.662149
879 4 0.0805293 0.205808 0.596984
1272 4 0.0949609 0.206382 0.582072
1212 4 0.212553 0.18549 0.645039
1219 2 0.181988 0.175442 0.631521
1220 4 0.19366 0.191756 0.646447
1210 2 0.236124 0.180819 0.651951
888 4 0.274323 0.166789 0.668413
886 2 0.298832 0.162365 0.6662
1194 4 0.333867 0.167567 0.649703
1211 4 0.259695 0.176147 0.658863
1193 4 0.383463 0.167853 0.656099
1192 2 0.358665 0.16771 0.652901
1245 4 0.0426423 0.284761 0.591204
983 4 0.0401744 0.303031 0.582863
1136 4 0.158997 0.283867 0.617819
1135 2 0.151845 0.307253 0.612615
948 4 0.170783 0.284264 0.600324
1137 4 0.144693 0.33064 0.60741
1238 4 0.314216 0.312192 0.573678
791 4 0.270656 0.259742 0.581422
790 2 0.286033 0.279457 0.58134
807 4 0.283085 0.318508 0.67011
805 2 0.306484 0.322115 0.662071
806 4 0.329884 0.325721 0.654033
3123 4 0.492408 0.262315 0.637077
1039 2 0.0597792 0.376797 0.607158
1041 4 0.0425339 0.37662 0.625262
3264 4 0.0321449 0.383886 0.63918
3262 2 0.0297735 0.362143 0.651295
3240 4 0.0295558 0.401524 0.649509
993 4 0.0919014 0.363273 0.587965
1040 4 0.0770245 0.376975 0.589054
897 4 0.155524 0.344893 0.601197
991 2 0.114159 0.352318 0.591086
992 4 0.136418 0.341362 0.594207
895 2 0.175447 0.359422 0.605338
1189 2 0.232113 0.370099 0.584875
1172 4 0.218173 0.396552 0.598923
1191 4 0.213437 0.377372 0.599825
896 4 0.19537 0.373952 0.609478
1206 4 0.390341 0.401006 0.644578
3238 2 0.00891563 0.415579 0.650786
1188 4 0.142276 0.450157 0.596068
1171 2 0.207802 0.416885 0.609131
1186 2 0.164504 0.452037 0.607364
1173 4 0.197432 0.437218 0.619338
1187 4 0.186731 0.453918 0.618659
1139 4 0.234411 0.472747 0.65395
1230 4 0.348293 0.436892 0.650151
890 4 0.336096 0.460362 0.584855
1204 2 0.395916 0.423623 0.653667
1952 4 0.345266 0.473923 0.574526
1205 4 0.401491 0.446239 0.662756
1001 4 0.434612 0.47212 0.590517
1911 4 0.446559 0.480594 0.576832
1269 4 0.449679 0.483627 0.595519
1267 2 0.452683 0.490919 0.619246
945 4 0.066068 0.00168965 0.675025
943 2 0.0639093 0.0258131 0.681236
944 4 0.0617507 0.0499366 0.687447
1076 4 0.0602018 0.0677382 0.678038
1282 2 0.125599 0.0774843 0.68306
1147 2 0.239528 0.0412429 0.719782
1148 4 0.224466 0.0478937 0.700966
1226 4 0.223798 0.0675499 0.697738
1149 4 0.25459 0.034592 0.738599
1092 4 0.348766 0.00974857 0.696961
1004 4 0.400006 0.090898 0.70301
43 3 0.43684 0.082344 0.680609
1163 4 0.47485 0.0632477 0.685811
1162 2 0.492553 0.0507961 0.698329
2320 2 0.503915 0.0362646 0.75104
864 4 0.0604477 0.0985321 0.73311
1075 2 0.0635472 0.0839275 0.696797
1077 4 0.0668927 0.100117 0.715556
1107 4 0.0770547 0.109367 0.729339
851 4 0.0761403 0.117079 0.712073
850 2 0.0791902 0.136042 0.696064
862 2 0.0392844 0.0972145 0.746359
852 4 0.0822401 0.155005 0.680056
1105 2 0.0924074 0.117411 0.74736
1284 4 0.122187 0.0922184 0.70297
909 4 0.155868 0.112441 0.750293
907 2 0.17356 0.119324 0.734021
908 4 0.191253 0.126207 0.717749
1227 4 0.198197 0.108749 0.709902
1225 2 0.210997 0.0881493 0.70382
829 2 0.337399 0.135038 0.698452
830 4 0.333624 0.15063 0.679274
831 4 0.341174 0.119445 0.717631
1003 2 0.376999 0.0975314 0.71021
1005 4 0.353991 0.104165 0.71741
44 3 0.474156 0.0856072 0.687031
1178 4 0.00414272 0.248512 0.72361
1072 2 0.0971624 0.221583 0.727881
1074 4 0.0940551 0.243707 0.716653
1073 4 0.10027 0.199459 0.739108
1144 2 0.490434 0.170122 0.740741
1025 4 0.428928 0.172851 0.68412
1262 4 0.467604 0.199615 0.730813
1142 4 0.45223 0.171068 0.737934
1024 2 0.442283 0.17943 0.704208
1026 4 0.455639 0.186009 0.724296
1261 2 0.464602 0.223664 0.736961
1145 4 0.468559 0.18013 0.733922
1177 2 0.0204713 0.250392 0.704768
1179 4 0.0368 0.252273 0.685926
1209 4 0.136198 0.287874 0.730128
1207 2 0.114939 0.275411 0.725896
1208 4 0.0936804 0.262949 0.721663
821 4 0.139115 0.30519 0.718984
820 2 0.153767 0.307777 0.698889
822 4 0.168419 0.310363 0.678794
1063 2 0.211568 0.312559 0.68428
1064 4 0.186879 0.31635 0.683148
1065 4 0.236256 0.308767 0.685412
3263 4 0.0274021 0.340399 0.66341
892 2 0.0239556 0.348053 0.741835
894 4 0.0395062 0.342682 0.723006
1280 4 0.0526942 0.353251 0.71154
1279 2 0.0527682 0.377682 0.706221
816 4 0.0723381 0.347229 0.713099
1281 4 0.0528423 0.402113 0.700902
814 2 0.0888126 0.347499 0.731906
942 4 0.117607 0.344424 0.766197
815 4 0.105287 0.34777 0.750713
1028 4 0.240692 0.391362 0.740562
1066 2 0.203169 0.372546 0.750904
1068 4 0.224763 0.37956 0.74043
1027 2 0.241617 0.406587 0.72075
1018 2 0.395472 0.393709 0.747915
1019 4 0.37361 0.385584 0.738904
1983 4 0.0666939 0.404431 0.716505
1981 2 0.0683537 0.427092 0.726942
1982 4 0.0700135 0.449752 0.737379
1140 4 0.243099 0.435411 0.686064
2016 4 0.163501 0.492018 0.730017
1138 2 0.238755 0.454079 0.670007
1029 4 0.242541 0.421813 0.700937
1987 2 0.328344 0.486545 0.724881
1988 4 0.318446 0.503264 0.740618
1989 4 0.338243 0.469826 0.709143
1228 2 0.345979 0.452718 0.669369
1229 4 0.343665 0.468545 0.688588
2991 4 0.0200036 0.0407344 0.797305
2989 2 0.0154279 0.0606847 0.782944
2990 4 0.0108521 0.080635 0.768583
2048 4 0.148885 0.000560874 0.754528
2049 4 0.128989 0.0360519 0.783602
1202 4 0.112652 0.0438029 0.776099
2047 2 0.138937 0.0183064 0.769065
1201 2 0.113925 0.0675998 0.783666
1257 4 0.275793 0.0863831 0.772442
817 2 0.318543 0.0422868 0.824912
1085 4 0.31249 0.0835558 0.834954
818 4 0.327026 0.0191747 0.820546
1255 2 0.259457 0.0847371 0.791299
974 4 0.338492 0.011924 0.804757
973 2 0.360837 0.00595678 0.81426
1050 4 0.343964 0.00509246 0.788268
1113 4 0.413551 0.0494154 0.784768
2322 4 0.492091 0.0411691 0.772519
1111 2 0.437871 0.0523762 0.779771
845 4 0.481917 0.0587302 0.774258
1112 4 0.462191 0.0553371 0.774774
3083 4 0.999485 0.08929 0.755704
863 4 0.0181211 0.0958968 0.759609
833 4 0.00441847 0.0957815 0.772766
832 2 0.00611277 0.115012 0.788656
834 4 0.00780706 0.134243 0.804546
1125 4 0.0103518 0.148512 0.818466
1123 2 0.0341937 0.156045 0.818409
1124 4 0.0580356 0.163577 0.818352
1106 4 0.10776 0.125455 0.765382
1203 4 0.115197 0.0913967 0.791233
911 4 0.101634 0.11605 0.822222
34 3 0.11245 0.110211 0.777625
31 1 0.11543 0.11762 0.799411
35 3 0.0983871 0.131538 0.805284
32 3 0.115559 0.099436 0.813498
33 3 0.135721 0.128716 0.801298
1256 4 0.243121 0.0830911 0.810157
840 4 0.240037 0.101644 0.815448
1084 2 0.314537 0.0953293 0.812991
1086 4 0.316583 0.107103 0.791028
47 3 0.391412 0.158448 0.808161
1023 4 0.396142 0.153521 0.826192
846 4 0.483763 0.108686 0.775589
844 2 0.48284 0.0837079 0.774924
1130 4 0.122311 0.234369 0.78509
1129 2 0.145955 0.23213 0.777273
1131 4 0.1696 0.229891 0.769457
1277 4 0.183506 0.241207 0.780372
978 4 0.263825 0.187673 0.754327
977 4 0.29829 0.215325 0.77774
918 4 0.288786 0.231873 0.777627
976 2 0.281057 0.201499 0.766034
1298 4 0.298871 0.224178 0.794313
1297 2 0.319126 0.215087 0.805813
48 3 0.397794 0.168733 0.772579
1299 4 0.339381 0.205996 0.817314
1042 2 0.38863 0.233918 0.792906
1043 4 0.400043 0.211795 0.790568
49 3 0.392315 0.195007 0.799487
46 1 0.401515 0.174225 0.794814
1263 4 0.461599 0.247713 0.74311
1143 4 0.421819 0.171258 0.777631
1141 2 0.437025 0.171163 0.757783
50 3 0.423877 0.174481 0.799117
1306 2 0.477502 0.250982 0.803558
1307 4 0.496557 0.234801 0.803064
1276 2 0.202601 0.256038 0.786746