ITEM: TIMESTEP
1140000
ITEM: NUMBER OF ATOMS
4590
ITEM: BOX BOUNDS pp pp pp
-9.9985700000000008e+00 9.9985700000000008e+00
-9.9985700000000008e+00 9.9985700000000008e+00
-9.9985700000000008e+00 9.9985700000000008e+00
ITEM: ATOMS id type xs ys zs
463 2 0.0226464 0.0392353 0.0395423
465 4 0.0430537 0.0498365 0.0493572
1667 4 0.0521414 0.0481556 0.0658254
701 4 0.0559485 0.0635333 0.054327
590 4 0.0395523 0.0626765 0.064164
700 2 0.0749118 0.0706652 0.0396741
589 2 0.033187 0.0852481 0.072835
464 4 0.00223899 0.0286342 0.0297273
702 4 0.0938751 0.0777971 0.0250212
534 4 0.236846 0.0598116 0.00311732
567 4 0.171318 0.0596359 0.0183847
533 4 0.187408 0.0542859 0.0082251
532 2 0.212127 0.0570488 0.00567121
995 4 0.169962 0.0521138 0.00102644
490 2 0.2974 0.0443348 0.0623246
491 4 0.316011 0.0480844 0.0785955
492 4 0.278789 0.0405852 0.0460537
2264 4 0.278015 0.0259618 0.0314575
2263 2 0.287007 0.0131413 0.011965
557 4 0.331665 0.0539938 0.0707382
556 2 0.343815 0.0704947 0.0564104
296 4 0.329787 0.036047 0.0822225
1606 2 0.396509 0.00400389 0.00282994
745 2 0.464114 0.0652369 0.0224155
746 4 0.465428 0.0417568 0.0309089
423 4 0.0945125 0.0878597 0.00730902
421 2 0.107901 0.108101 0.013327
422 4 0.12129 0.128342 0.0193451
566 4 0.147234 0.0961153 0.042673
565 2 0.159276 0.0778756 0.0305288
558 4 0.355964 0.0869956 0.0420826
747 4 0.462801 0.088717 0.013922
2975 4 0.455334 0.102773 0.00149916
771 4 0.444041 0.163506 0.0756765
769 2 0.451078 0.165239 0.0517462
770 4 0.458115 0.166973 0.0278159
554 4 0.0415428 0.209467 0.0331654
553 2 0.054523 0.228711 0.023873
555 4 0.0675032 0.247956 0.0145807
324 4 0.401379 0.235368 0.0851325
665 4 0.3455 0.2444 0.00384356
322 2 0.414125 0.252282 0.0718419
1012 2 0.494126 0.172533 0.00894493
1013 4 0.469309 0.17207 0.0119511
827 4 0.450773 0.169393 0.009848
519 4 0.50109 0.216466 0.0556664
1055 4 0.0679239 0.260877 0.000874532
836 4 0.0812389 0.245409 0.00213503
292 2 0.139207 0.285677 0.0554754
293 4 0.137242 0.307187 0.0428797
507 4 0.147004 0.321729 0.0360497
294 4 0.141173 0.264167 0.0680711
288 4 0.145121 0.303362 0.0258828
286 2 0.140723 0.308746 0.00186519
355 2 0.233582 0.255385 0.994927
357 4 0.250981 0.27026 0.0049863
664 2 0.33151 0.255132 0.0215717
666 4 0.317519 0.265863 0.0392999
572 4 0.297254 0.273897 0.037463
571 2 0.288687 0.269185 0.0604757
461 4 0.333568 0.285478 0.0736455
1071 4 0.382713 0.316689 0.0321919
1069 2 0.398683 0.300188 0.0420842
1070 4 0.414653 0.283687 0.0519765
956 4 0.378662 0.321321 0.0133669
323 4 0.426871 0.269196 0.0585514
671 4 0.451238 0.324628 0.065165
281 4 0.465777 0.319577 0.0518166
280 2 0.454542 0.318595 0.0295011
282 4 0.443307 0.317613 0.00718553
670 2 0.436795 0.332056 0.0841758
505 2 0.16239 0.335476 0.0501731
506 4 0.177777 0.349222 0.0642964
483 4 0.176725 0.363173 0.0799136
252 4 0.326105 0.386593 0.041037
250 2 0.311188 0.373905 0.0254918
251 4 0.29627 0.361216 0.00994652
525 4 0.326104 0.399898 0.0548156
523 2 0.315161 0.420537 0.0637301
608 4 0.329717 0.381962 0.0607198
607 2 0.338519 0.362861 0.0742429
552 4 0.0776666 0.420809 0.00515213
795 4 0.148794 0.48716 0.00698009
244 2 0.284353 0.487793 0.066255
246 4 0.288832 0.489642 0.0417254
272 4 0.29416 0.501917 0.0265577
39 3 0.40009 0.448415 0.0112724
227 4 0.471333 0.480431 0.0760975
1666 2 0.0526816 0.0320975 0.0849833
1421 4 0.0444464 0.00871387 0.11951
1668 4 0.0532217 0.0160394 0.104141
1420 2 0.0377584 0.0259297 0.136365
1422 4 0.0310703 0.0431455 0.153219
2480 4 0.0163511 0.0537174 0.159483
19 3 0.0338269 0.0613811 0.160027
20 3 0.0695209 0.0665014 0.170862
450 4 0.130315 0.0644929 0.167844
1506 4 0.249777 0.0488796 0.144277
652 2 0.315776 0.063874 0.133355
653 4 0.318523 0.0390223 0.133175
295 2 0.34708 0.0270423 0.0978756
297 4 0.364374 0.0180375 0.113529
757 2 0.40966 0.0331156 0.16279
485 4 0.364048 0.998466 0.113015
758 4 0.415377 0.0183201 0.143461
1759 2 0.472024 0.018373 0.174243
1761 4 0.447427 0.0167508 0.170059
17 3 0.0460147 0.0954802 0.170095
591 4 0.0268217 0.10782 0.0815059
2760 4 0.0109194 0.119436 0.0768825
476 4 0.100929 0.152212 0.132972
237 4 0.19549 0.137379 0.126306
235 2 0.186766 0.125063 0.146241
737 4 0.194874 0.156466 0.117499
236 4 0.178043 0.112748 0.166175
654 4 0.31303 0.0887256 0.133536
582 4 0.303759 0.0971587 0.148879
311 4 0.37619 0.100371 0.175707
629 4 0.426287 0.167985 0.0833078
339 4 0.100078 0.208377 0.151833
477 4 0.102267 0.2022 0.133279
475 2 0.101598 0.177206 0.133126
337 2 0.107756 0.226486 0.16727
738 4 0.198799 0.202489 0.136661
736 2 0.196837 0.179477 0.12708
283 2 0.250199 0.180551 0.148897
354 4 0.257037 0.216177 0.126182
352 2 0.264122 0.235702 0.112263
284 4 0.24908 0.199289 0.13238
630 4 0.393022 0.196652 0.107233
254 4 0.395651 0.210107 0.121756
253 2 0.381869 0.229332 0.113656
628 2 0.409654 0.182319 0.0952703
455 4 0.0783602 0.331376 0.146646
535 2 0.211109 0.281951 0.133628
537 4 0.202556 0.277204 0.156638
536 4 0.219662 0.286699 0.110617
573 4 0.280121 0.264473 0.0834885
353 4 0.271208 0.255227 0.0983439
754 2 0.281255 0.290195 0.118452
755 4 0.278763 0.272086 0.101392
756 4 0.283748 0.308304 0.135512
612 4 0.27306 0.320155 0.148217
460 2 0.341112 0.269666 0.0914858
255 4 0.368087 0.248557 0.105555
462 4 0.348656 0.253855 0.109326
623 4 0.348839 0.321185 0.134691
622 2 0.354318 0.299269 0.14541
624 4 0.359797 0.277354 0.156128
740 4 0.357762 0.334569 0.101061
528 4 0.474822 0.318347 0.12915
620 4 0.0233821 0.366082 0.162962
621 4 0.00339341 0.374922 0.117984
619 2 0.0133877 0.370502 0.140473
456 4 0.127223 0.335683 0.13692
454 2 0.102792 0.33353 0.141783
481 2 0.200246 0.359591 0.0876017
482 4 0.223767 0.35601 0.0952898
626 4 0.247585 0.394439 0.137251
610 2 0.292084 0.33442 0.155949
625 2 0.272425 0.393351 0.134616
627 4 0.297266 0.392264 0.13198
387 4 0.324308 0.347888 0.15014
611 4 0.311107 0.348685 0.163681
302 4 0.315812 0.363925 0.157562
385 2 0.335365 0.349307 0.127759
741 4 0.406625 0.345191 0.101673
609 4 0.347321 0.34376 0.0877659
386 4 0.346421 0.350727 0.105378
739 2 0.382193 0.33988 0.101367
13 3 0.405765 0.383171 0.133027
672 4 0.422352 0.339483 0.103187
15 3 0.424028 0.382606 0.100105
11 1 0.422384 0.372796 0.120593
526 2 0.467143 0.341377 0.135137
12 3 0.416937 0.350604 0.117952
14 3 0.442689 0.374263 0.131725
495 4 0.458524 0.380153 0.141242
493 2 0.469912 0.395391 0.125017
527 4 0.459464 0.364407 0.141123
597 4 0.46915 0.373965 0.156324
645 4 0.44973 0.37226 0.150427
494 4 0.4813 0.41063 0.108791
1787 4 0.0244518 0.480312 0.0789827
1786 2 0.02454 0.489054 0.102408
245 4 0.279875 0.485944 0.0907846
524 4 0.304218 0.441175 0.0726446
637 2 0.266877 0.481386 0.136047
638 4 0.277839 0.467856 0.15399
767 4 0.288363 0.463426 0.170048
16 1 0.0479588 0.072955 0.174336
18 3 0.0419435 0.0689261 0.196381
673 2 0.134335 0.0193586 0.218077
675 4 0.149103 0.0102118 0.200093
448 2 0.14917 0.0808567 0.169214
674 4 0.119567 0.0285055 0.236061
1505 4 0.235884 0.0684839 0.188133
1504 2 0.24283 0.0586818 0.166205
689 4 0.230936 0.0644189 0.205634
688 2 0.218079 0.0471039 0.218286
692 4 0.223131 0.0800693 0.200134
28 3 0.238941 0.0805402 0.198297
690 4 0.205221 0.0297888 0.230937
27 3 0.27069 0.0767393 0.218051
21 1 0.413941 0.0438978 0.219122
24 3 0.410703 0.0209674 0.217667
759 4 0.403943 0.0479112 0.182118
22 3 0.398559 0.0526626 0.233811
1496 4 0.402272 0.00123643 0.220042
312 4 0.410841 0.0649104 0.182231
25 3 0.411067 0.0534652 0.198656
1760 4 0.496622 0.0199953 0.178427
23 3 0.435283 0.0483975 0.227039
742 2 0.464924 0.025897 0.247509
744 4 0.449802 0.0449142 0.241605
743 4 0.480045 0.00687982 0.253414
578 4 0.0625865 0.151358 0.237672
511 2 0.0209656 0.148935 0.241375
513 4 0.045159 0.150852 0.24739
721 2 0.160354 0.127476 0.201063
722 4 0.152655 0.144439 0.217741
546 4 0.156774 0.140215 0.237639
449 4 0.168026 0.0972204 0.170584
723 4 0.168054 0.110513 0.184385
691 2 0.203664 0.0916244 0.18952
693 4 0.184196 0.103179 0.178905
29 3 0.244251 0.100545 0.230172
285 4 0.251319 0.161813 0.165415
26 1 0.254545 0.0916944 0.211354
30 3 0.2643 0.108354 0.199273
580 2 0.293569 0.0993633 0.171605
581 4 0.283378 0.101568 0.194331
310 2 0.393516 0.0826407 0.178969
338 4 0.115435 0.244595 0.182706
309 4 0.354483 0.253426 0.233671
333 4 0.435775 0.17808 0.226955
331 2 0.450068 0.177046 0.247444
395 4 0.0126997 0.276594 0.218349
394 2 0.0203817 0.268965 0.240887
703 2 0.0136788 0.327176 0.180495
704 4 0.0101126 0.304935 0.191348
749 4 0.0597888 0.276816 0.20705
363 4 0.133849 0.251384 0.183322
361 2 0.158219 0.256873 0.184387
748 2 0.0757618 0.293801 0.216079
750 4 0.0917347 0.310787 0.225109
362 4 0.182589 0.262362 0.185452
372 4 0.19559 0.271561 0.173445
370 2 0.215981 0.271303 0.187912
371 4 0.236372 0.271046 0.202379
279 4 0.249359 0.284528 0.200442
277 2 0.268195 0.290344 0.185061
344 4 0.267926 0.317125 0.227279
278 4 0.287031 0.296159 0.169681
343 2 0.288824 0.30748 0.237047
308 4 0.317108 0.281511 0.251419
307 2 0.335796 0.267469 0.242545
764 4 0.360838 0.250321 0.214165
763 2 0.367061 0.261167 0.192513
765 4 0.373284 0.272013 0.170861
705 4 0.0172449 0.349417 0.169641
648 4 0.0128345 0.36766 0.17872
647 4 0.0147601 0.404674 0.21229
646 2 0.0137973 0.386167 0.195505
300 4 0.16391 0.374255 0.215414
298 2 0.158034 0.367819 0.238849
290 4 0.217659 0.411439 0.221544
301 2 0.330234 0.371936 0.17635
303 4 0.344657 0.379946 0.195138
729 4 0.339441 0.379135 0.213677
727 2 0.334114 0.372414 0.237164
595 2 0.489735 0.376035 0.170365
446 4 0.430018 0.330022 0.24561
445 2 0.428811 0.348283 0.228573
447 4 0.427604 0.366544 0.211536
643 2 0.435855 0.372436 0.171227
644 4 0.42198 0.372612 0.192027
2694 4 0.00824257 0.421364 0.22093
262 2 0.0776023 0.477595 0.240959
263 4 0.0664815 0.455201 0.240801
602 4 0.0672451 0.441015 0.254497
417 4 0.158107 0.497169 0.17549
289 2 0.20716 0.431268 0.210508
415 2 0.173889 0.483679 0.189424
416 4 0.18967 0.47019 0.203357
291 4 0.196662 0.451096 0.199472
413 4 0.18706 0.4221 0.244615
768 4 0.259238 0.44217 0.204699
766 2 0.2738 0.452798 0.187373
660 4 0.387864 0.445706 0.204374
658 2 0.41278 0.444065 0.203095
659 4 0.437697 0.442424 0.201816
530 4 0.0213277 0.0803231 0.309598
232 2 0.011569 0.0427957 0.322719
233 4 0.0307144 0.0359069 0.308187
1402 2 0.0433991 0.0178426 0.276725
1403 4 0.0347065 0.0377414 0.289121
316 2 0.0643704 0.0610523 0.305846
317 4 0.0487624 0.0417487 0.302856
1700 4 0.230388 0.995832 0.310639
1699 2 0.234942 0.0186062 0.301377
1701 4 0.239496 0.0413803 0.292115
248 4 0.294128 0.0663851 0.309493
1749 4 0.455482 0.00539152 0.328259
480 4 0.451263 0.0196201 0.314145
478 2 0.436262 0.0396006 0.315107
479 4 0.421261 0.0595812 0.316069
318 4 0.0799785 0.0803558 0.308837
529 2 0.00630156 0.0951839 0.296236
577 2 0.0747457 0.146371 0.258943
732 4 0.144047 0.0993236 0.313198
579 4 0.0869048 0.141385 0.280214
544 2 0.15312 0.148889 0.260803
545 4 0.149466 0.157563 0.283967
600 4 0.157073 0.113053 0.321582
731 4 0.0947676 0.0918995 0.30906
730 2 0.119407 0.0956116 0.311129
598 2 0.177092 0.121256 0.309047
599 4 0.197112 0.129459 0.296512
403 2 0.288757 0.15267 0.309148
404 4 0.285478 0.129661 0.318368
247 2 0.29621 0.0907958 0.314489
249 4 0.298293 0.115207 0.319485
631 2 0.401969 0.152235 0.295614
351 4 0.451229 0.0946452 0.273063
632 4 0.42304 0.139216 0.299033
349 2 0.434415 0.107508 0.286368
350 4 0.417602 0.120371 0.299673
452 4 0.427105 0.128251 0.314917
444 4 0.0409981 0.231652 0.320358
2655 4 0.0231737 0.228289 0.329745
442 2 0.0369563 0.247713 0.301626
392 4 0.146909 0.171051 0.297119
391 2 0.143527 0.190021 0.313053
393 4 0.140145 0.208991 0.328987
405 4 0.292036 0.17568 0.299929
633 4 0.380897 0.165253 0.292194
707 4 0.382376 0.175809 0.309465
706 2 0.374396 0.199171 0.313431
708 4 0.366417 0.222532 0.317398
521 4 0.480881 0.184368 0.27121
332 4 0.464361 0.176012 0.267934
762 4 0.464395 0.187499 0.283203
760 2 0.452907 0.19357 0.304565
761 4 0.441418 0.199641 0.325927
2491 2 0.00804268 0.309367 0.30606
443 4 0.0329145 0.263774 0.282894
396 4 0.0280637 0.261336 0.263425
2493 4 0.026259 0.294426 0.297686
400 2 0.231547 0.274508 0.295979
401 4 0.226554 0.274452 0.271479
402 4 0.236541 0.274564 0.320479
510 4 0.239914 0.288297 0.333245
508 2 0.240505 0.313294 0.333267
345 4 0.309723 0.297836 0.246815
496 2 0.309164 0.282112 0.288651
497 4 0.312864 0.292537 0.266227
498 4 0.305464 0.271688 0.311074
377 4 0.300136 0.271946 0.330141
376 2 0.275192 0.272084 0.331866
615 4 0.395761 0.32139 0.28791
613 2 0.383374 0.300338 0.293252
614 4 0.370987 0.279286 0.298595
543 4 0.406948 0.334542 0.29911
541 2 0.429831 0.333235 0.309101
603 4 0.0320555 0.411758 0.234337
366 4 0.0358097 0.35369 0.298668
364 2 0.0256858 0.360647 0.320446
677 4 0.140024 0.345987 0.333493
735 4 0.139626 0.352445 0.314417
299 4 0.152158 0.361384 0.262285
734 4 0.140052 0.375205 0.269891
733 2 0.139839 0.363825 0.292154
434 4 0.340067 0.377074 0.271277
728 4 0.328787 0.365694 0.260651
435 4 0.347613 0.377046 0.320712
433 2 0.34384 0.37706 0.295995
542 4 0.452714 0.331927 0.319093
2538 4 0.470946 0.329529 0.320473
2924 4 0.462226 0.345935 0.327877
601 2 0.0496503 0.426386 0.244417
549 4 0.0460941 0.470422 0.320055
547 2 0.0674612 0.457935 0.323616
777 4 0.146075 0.428341 0.294764
775 2 0.126893 0.433371 0.309993
414 4 0.148101 0.421454 0.27596
548 4 0.0888284 0.445447 0.327178
412 2 0.16758 0.421777 0.260287
436 2 0.293955 0.487439 0.297191
438 4 0.313451 0.490778 0.312487
714 4 0.405717 0.462745 0.273941
713 4 0.44492 0.449035 0.301795
712 2 0.425318 0.45589 0.287868
234 4 0.992424 0.0496845 0.337251
1782 4 0.119101 8.83496e-05 0.386258
1780 2 0.128221 0.0211083 0.396267
1781 4 0.137341 0.0421284 0.406275
368 4 0.128787 0.0589884 0.413102
439 2 0.280229 0.0118813 0.412451
441 4 0.270886 0.0347732 0.416174
697 2 0.381288 0.00857059 0.340096
698 4 0.368945 0.0298146 0.344736
257 4 0.377174 0.0447994 0.356563
256 2 0.382874 0.0435006 0.380873
426 4 0.407114 0.0368008 0.411022
258 4 0.388574 0.0422017 0.405184
459 4 0.0358971 0.153402 0.376399
399 4 0.0559131 0.127775 0.349495
397 2 0.0679747 0.110227 0.336388
457 2 0.026488 0.158576 0.39898
458 4 0.0170789 0.163751 0.42156
398 4 0.0800363 0.092679 0.323282
685 2 0.15713 0.152775 0.393184
687 4 0.137495 0.141052 0.383075
686 4 0.176766 0.164498 0.403293
683 4 0.28906 0.121177 0.335886
682 2 0.278961 0.119609 0.358706
684 4 0.268863 0.118041 0.381526
320 4 0.254302 0.117594 0.395298
319 2 0.260863 0.104771 0.415735
451 2 0.441038 0.133194 0.335082
453 4 0.45497 0.138137 0.355247
514 2 0.445913 0.139714 0.398582
515 4 0.454382 0.141833 0.375153
2850 4 0.0207211 0.233116 0.393616
390 4 0.0323471 0.248215 0.393669
2653 2 0.0282515 0.232886 0.353792
2654 4 0.0333293 0.237483 0.377839
474 4 0.298243 0.167476 0.378688
472 2 0.299203 0.191002 0.387102
473 4 0.300164 0.214528 0.395516
489 4 0.293523 0.232046 0.406224
717 4 0.409591 0.236416 0.390429
419 4 0.434618 0.209212 0.343303
420 4 0.425916 0.225929 0.389623
418 2 0.430267 0.21757 0.366463
269 4 0.437145 0.215344 0.401993
388 2 0.0541831 0.258808 0.399682
389 4 0.0760191 0.269401 0.405695
676 2 0.153777 0.329827 0.346718
378 4 0.250248 0.272223 0.333592
275 4 0.188978 0.24618 0.348973
274 2 0.209391 0.259518 0.343442
678 4 0.167531 0.313668 0.359943
375 4 0.172896 0.305194 0.376957
276 4 0.229804 0.272856 0.337911
373 2 0.178736 0.294977 0.399019
715 2 0.393893 0.255628 0.393542
716 4 0.378195 0.274839 0.396654
365 4 0.0155619 0.367603 0.342224
2927 4 0.00969612 0.364851 0.360128
616 2 0.0417293 0.355749 0.374689
617 4 0.0277566 0.359017 0.354213
618 4 0.055702 0.352481 0.395164
347 4 0.0558502 0.338454 0.410925
326 4 0.070397 0.349294 0.406096
408 4 0.0899483 0.387865 0.360152
325 2 0.0944583 0.355208 0.40274
406 2 0.092734 0.410223 0.349309
327 4 0.11852 0.361121 0.399385
509 4 0.241096 0.33829 0.333289
503 4 0.263706 0.377103 0.391483
502 2 0.28466 0.380603 0.404668
504 4 0.305615 0.384103 0.417853
753 4 0.395065 0.402899 0.358187
2923 2 0.457662 0.365062 0.343321
561 4 0.447997 0.395119 0.374899
752 4 0.445037 0.401599 0.356869
559 2 0.464805 0.401319 0.392341
751 2 0.420051 0.402249 0.357528
2925 4 0.453098 0.384188 0.358765
560 4 0.481613 0.407518 0.409783
2463 4 0.0348706 0.466717 0.336627
2461 2 0.0171011 0.460285 0.353
681 4 0.0680562 0.423982 0.391062
679 2 0.0448487 0.433071 0.393058
383 4 0.0782656 0.441188 0.393179
680 4 0.0216412 0.44216 0.395054
1383 4 0.0258311 0.456407 0.408912
776 4 0.10771 0.438401 0.325222
501 4 0.125078 0.488499 0.362555
407 4 0.0955198 0.43258 0.338466
500 4 0.102676 0.45037 0.339209
499 2 0.113877 0.469434 0.350882
382 2 0.0977711 0.443076 0.408708
3 3 0.31438 0.497374 0.330866
669 4 0.293488 0.475421 0.400742
5 3 0.315284 0.469489 0.356149
1 1 0.327668 0.485519 0.345741
667 2 0.314902 0.465161 0.408577
587 4 0.392067 0.448421 0.411961
586 2 0.367632 0.444519 0.408374
4 3 0.34541 0.475723 0.334441
2 3 0.336005 0.500067 0.361489
588 4 0.343196 0.440616 0.404787
594 4 0.453571 0.474271 0.384486
592 2 0.451182 0.495866 0.372113
2238 4 0.0090637 0.00617256 0.470742
718 2 0.0722025 0.0534796 0.471911
720 4 0.0628259 0.0411738 0.491553
2236 2 0.0288755 0.017697 0.480735
719 4 0.081579 0.0657854 0.452268
367 2 0.115127 0.0660106 0.432832
369 4 0.101467 0.0730329 0.452562
606 4 0.211521 0.997623 0.484432
1581 4 0.449725 0.991025 0.494301
424 2 0.421958 0.0532464 0.422615
425 4 0.436802 0.0696919 0.434207
259 2 0.0840016 0.14956 0.465326
260 4 0.0900306 0.156699 0.442135
261 4 0.0779725 0.14242 0.488518
1035 4 0.0813952 0.136923 0.507325
321 4 0.267425 0.0919469 0.436173
725 4 0.356276 0.143046 0.491994
468 4 0.34631 0.150584 0.475271
574 2 0.405251 0.140016 0.435727
576 4 0.380717 0.135836 0.43332
575 4 0.429785 0.144196 0.438134
642 4 0.497494 0.101978 0.499405
516 4 0.437444 0.137594 0.422012
469 2 0.0109908 0.253163 0.461416
470 4 0.0287542 0.262935 0.446782
857 4 0.235132 0.205018 0.500822
487 2 0.289075 0.250042 0.423002
467 4 0.306311 0.179404 0.483649
411 4 0.291066 0.190959 0.477682
409 2 0.276588 0.190075 0.457316
410 4 0.262109 0.18919 0.436951
466 2 0.326311 0.164994 0.47946
871 2 0.37165 0.226952 0.488472
873 4 0.368238 0.202937 0.494537
268 2 0.451441 0.218981 0.422181
305 4 0.470748 0.179039 0.486115
270 4 0.465737 0.222619 0.442369
306 4 0.478333 0.207904 0.445991
304 2 0.474541 0.193472 0.466053
2847 4 0.00817047 0.310655 0.449958
346 2 0.0476193 0.320031 0.42569
348 4 0.0393884 0.301607 0.440455
695 4 0.121832 0.244597 0.461719
694 2 0.132859 0.265857 0.468905
696 4 0.143886 0.287116 0.47609
10 3 0.137726 0.306513 0.47061
1260 4 0.154605 0.297356 0.476292
6 1 0.132785 0.328371 0.466553
7 3 0.122439 0.330127 0.446082
374 4 0.184576 0.284761 0.42108
1258 2 0.179404 0.300347 0.477407
1259 4 0.204202 0.303339 0.478522
266 4 0.295847 0.283684 0.435021
265 2 0.31601 0.298055 0.4385
267 4 0.336172 0.312427 0.441979
488 4 0.284626 0.268039 0.439781
872 4 0.375062 0.250968 0.482407
583 2 0.472567 0.281609 0.453722
584 4 0.492464 0.275576 0.46761
585 4 0.452669 0.287643 0.439834
570 4 0.17123 0.422105 0.417203
8 3 0.152272 0.340962 0.466213
983 4 0.121053 0.339557 0.503451
9 3 0.11844 0.336415 0.482921
711 4 0.168132 0.350015 0.474612
650 4 0.222251 0.343821 0.492126
710 4 0.215499 0.360586 0.486667
803 4 0.23247 0.361264 0.494899
709 2 0.191816 0.3553 0.480639
802 2 0.248271 0.380553 0.496756
804 4 0.264073 0.399841 0.498613
336 4 0.346907 0.377809 0.499987
334 2 0.370417 0.382855 0.493133
335 4 0.393927 0.387901 0.486279
240 4 0.405576 0.398809 0.472657
2507 4 0.474613 0.400425 0.427545
238 2 0.420385 0.40858 0.490276
2506 2 0.488322 0.395875 0.447955
1381 2 0.0207246 0.480025 0.415338
538 2 0.108727 0.449951 0.465336
568 2 0.150787 0.431327 0.428258
569 4 0.130344 0.440548 0.439313
539 4 0.115978 0.453044 0.441607
540 4 0.101476 0.446858 0.489064
384 4 0.117277 0.444963 0.424237
1557 4 0.217052 0.494332 0.432327
635 4 0.214466 0.460111 0.481109
636 4 0.200583 0.490071 0.443554
774 4 0.200712 0.468581 0.495496
634 2 0.207525 0.475091 0.462332
668 4 0.336315 0.454901 0.416412
239 4 0.435194 0.418351 0.507894
662 4 0.451977 0.471245 0.506962
1126 2 0.057896 0.0535175 0.528462
1127 4 0.0525711 0.0410326 0.507463
1128 4 0.0632208 0.0660025 0.549461
939 4 0.0832206 0.06543 0.543833
2237 4 0.0486873 0.0292215 0.490728
1057 2 0.156553 0.0503958 0.562562
1059 4 0.144655 0.0720573 0.558769
937 2 0.107666 0.0706411 0.544514
938 4 0.132111 0.0758522 0.545195
1058 4 0.168452 0.0287343 0.566354
2430 4 0.205055 0.0152335 0.542185
341 4 0.192498 0.0263555 0.530421
340 2 0.207842 0.0460632 0.529256
342 4 0.223186 0.0657708 0.528091
1182 4 0.239051 0.0763119 0.53327
2428 2 0.192784 0.000692552 0.558408
961 2 0.293791 0.0466812 0.582621
963 4 0.293252 0.0670853 0.56818
430 2 0.323931 0.0767769 0.539087
432 4 0.303455 0.0682014 0.550593
1181 4 0.285248 0.0737651 0.552244
1180 2 0.26215 0.0750385 0.542757
2196 4 0.325459 0.0134308 0.55042
950 4 0.279491 0.0160087 0.587582
842 4 0.396642 0.0534097 0.511538
841 2 0.379662 0.0703305 0.518649
843 4 0.362683 0.0872513 0.52576
2194 2 0.340889 0.996955 0.561175
1217 4 0.416012 0.0533031 0.516921
1216 2 0.437189 0.0649927 0.523251
1218 4 0.458366 0.0766823 0.529581
1061 4 0.489714 0.00998572 0.517357
1062 4 0.505354 0.047969 0.545877
1060 2 0.497534 0.0289774 0.531617
641 4 0.478259 0.0764341 0.537852
1155 4 0.143366 0.0903697 0.549634
1033 2 0.101326 0.139998 0.522107
1034 4 0.121256 0.143073 0.536888
1153 2 0.163389 0.102248 0.540514
1154 4 0.183412 0.114126 0.531395
1151 4 0.194508 0.117778 0.51569
1150 2 0.21172 0.0996651 0.516607
1152 4 0.228933 0.0815526 0.517524
431 4 0.344407 0.0853523 0.527582
898 2 0.399956 0.11723 0.574598
899 4 0.416321 0.105689 0.559626
726 4 0.354428 0.0975561 0.512681
724 2 0.355352 0.120301 0.502338
3159 4 0.493607 0.141963 0.510782
640 2 0.487877 0.089206 0.518628
3157 2 0.496114 0.166834 0.510217
877 2 0.0563357 0.178413 0.58192
878 4 0.031478 0.176051 0.583221
879 4 0.0811935 0.180775 0.580619
856 2 0.250478 0.193475 0.516836
858 4 0.265824 0.181932 0.53285
3065 4 0.460212 0.22046 0.546438
3064 2 0.479918 0.214456 0.532268
905 4 0.448544 0.219169 0.562505
904 2 0.431446 0.237412 0.562541
3066 4 0.499624 0.208452 0.518097
651 4 0.245391 0.313026 0.524016
649 2 0.233821 0.328424 0.508071
1239 4 0.30803 0.310454 0.567621
813 4 0.291505 0.310781 0.556272
1237 2 0.322441 0.293259 0.57866
811 2 0.276873 0.310479 0.536
812 4 0.26224 0.310176 0.515727
906 4 0.414347 0.255655 0.562578
954 4 0.397099 0.258373 0.569688
952 2 0.376569 0.267742 0.580455
1136 4 0.0737376 0.347928 0.552841
1135 2 0.085186 0.36677 0.564636
934 2 0.999226 0.408501 0.5269
982 2 0.10214 0.34097 0.519744
984 4 0.0832263 0.342382 0.536037
896 4 0.160047 0.364701 0.580388
1137 4 0.0966344 0.385611 0.576431
1190 4 0.214227 0.349882 0.55141
1191 4 0.173096 0.373229 0.567652
1189 2 0.193662 0.361556 0.559531
1000 2 0.404472 0.392729 0.577795
925 2 0.458607 0.389442 0.548039
926 4 0.482081 0.395713 0.542138
3309 4 0.483659 0.404812 0.523504
927 4 0.435133 0.38317 0.553941
1001 4 0.420538 0.376766 0.5672
3307 2 0.497993 0.398667 0.503961
935 4 0.0200058 0.42085 0.533294
1938 4 0.0308871 0.500105 0.540404
2243 4 0.105498 0.435304 0.550289
2242 2 0.103603 0.446517 0.528021
1161 4 0.120956 0.434324 0.562583
1159 2 0.141776 0.442686 0.573619
2244 4 0.101708 0.45773 0.505753
773 4 0.223726 0.469988 0.539871
772 2 0.212219 0.469284 0.517684
1171 2 0.301672 0.448058 0.569679
1172 4 0.324733 0.45771 0.570124
891 4 0.327274 0.4558 0.589173
1454 4 0.336733 0.50294 0.512469
1173 4 0.278611 0.438405 0.569233
881 4 0.343912 0.435029 0.514606
882 4 0.337309 0.484187 0.520984
880 2 0.34061 0.459608 0.517795
929 4 0.335191 0.442153 0.577949
928 2 0.352271 0.423947 0.579358
1910 4 0.399601 0.481884 0.560277
1332 4 0.432899 0.473565 0.514491
661 2 0.453355 0.44628 0.507142
663 4 0.454733 0.421315 0.507321
1330 2 0.43999 0.497428 0.516821
943 2 0.0584511 0.0444673 0.621506
944 4 0.0533002 0.0656013 0.609178
2319 4 0.0515349 0.0102801 0.623981
945 4 0.0636019 0.0233333 0.633835
1031 4 0.208356 0.0837707 0.594353
1284 4 0.189728 0.0761863 0.592184
962 4 0.29433 0.0262771 0.597063
949 2 0.261073 0.00700847 0.601897
1091 4 0.408 0.998253 0.669509
2283 4 0.428236 0.998146 0.669182
810 4 0.458232 0.0738695 0.587841
808 2 0.458802 0.0775613 0.612564
45 3 0.453112 0.0792669 0.656914
809 4 0.459372 0.0812531 0.637287
1083 4 0.0419724 0.0844184 0.609547
1082 4 0.0138164 0.101332 0.647255
1081 2 0.0278944 0.0928751 0.628401
1283 4 0.165791 0.0868537 0.634774
1221 4 0.152403 0.156413 0.607052
1271 4 0.136896 0.167542 0.599816
1282 2 0.177759 0.08152 0.613479
909 4 0.178699 0.0916361 0.650383
1030 2 0.230263 0.0955836 0.59196
1032 4 0.252169 0.107397 0.589566
900 4 0.383591 0.128772 0.58957
1199 4 0.0211825 0.184162 0.599274
1198 2 0.00687756 0.204654 0.598491
1272 4 0.089749 0.184114 0.598003
1270 2 0.113322 0.175828 0.598909
1211 4 0.247906 0.181903 0.638951
1219 2 0.171131 0.172926 0.605741
1210 2 0.227291 0.182158 0.624805
1212 4 0.206675 0.182412 0.610659
1220 4 0.18986 0.18944 0.604431
796 2 0.19766 0.22602 0.609264
798 4 0.203752 0.201818 0.610778
888 4 0.251426 0.196839 0.650714
791 4 0.315693 0.221347 0.601753
790 2 0.331027 0.240931 0.599203
1025 4 0.467084 0.198664 0.633263
1024 2 0.490843 0.205339 0.629248
1244 4 0.0146019 0.280874 0.629585
1243 2 0.0281311 0.275314 0.649864
1245 4 0.0416603 0.269754 0.670143
3044 4 0.0154887 0.278052 0.610685
948 4 0.196598 0.307485 0.595459
797 4 0.191567 0.250223 0.607749
947 4 0.205592 0.258294 0.595237
946 2 0.201095 0.282889 0.595348
1238 4 0.336852 0.276064 0.589698
792 4 0.346361 0.260516 0.596654
953 4 0.356039 0.277111 0.591223
3264 4 0.00805894 0.423478 0.631327
3262 2 0.99948 0.402999 0.642825
3263 4 0.990902 0.38252 0.654322
895 2 0.136586 0.372654 0.58378
1041 4 0.100014 0.393103 0.593708
897 4 0.113125 0.380607 0.587171
1039 2 0.103323 0.408135 0.613413
930 4 0.369351 0.405741 0.580767
807 4 0.33833 0.407202 0.655188
805 2 0.35396 0.387963 0.651906
1002 4 0.388406 0.408691 0.58839
806 4 0.36959 0.368725 0.648624
3240 4 0.00616664 0.433613 0.613203
1040 4 0.106631 0.423167 0.633117
1160 4 0.162596 0.451047 0.584654
991 2 0.13488 0.427109 0.65293
993 4 0.119666 0.438478 0.636668
1188 4 0.258976 0.426819 0.633509
1186 2 0.262862 0.431644 0.609285
1187 4 0.266747 0.436469 0.585061
1909 2 0.387133 0.474509 0.580657
1911 4 0.374664 0.467134 0.601036
889 2 0.335042 0.474954 0.603244
1269 4 0.390958 0.45493 0.653317
890 4 0.342811 0.494107 0.617314
1267 2 0.413555 0.46482 0.65741
1268 4 0.436151 0.474709 0.661503
2991 4 0.00664773 0.0733641 0.707533
1090 2 0.387851 0.0125358 0.67341
1092 4 0.367703 0.0268187 0.677311
1004 4 0.374123 0.0463046 0.68387
1003 2 0.375995 0.0711403 0.681664
43 3 0.440995 0.0516771 0.679489
41 1 0.454785 0.0702584 0.677763
42 3 0.476532 0.0637503 0.681483
3426 4 0.492514 0.0709668 0.691322
1162 2 0.493367 0.0424807 0.715475
1163 4 0.486738 0.060071 0.698988
862 2 0.0255382 0.0949805 0.739128
864 4 0.0171713 0.0858809 0.717393
1075 2 0.00502292 0.103164 0.679247
1077 4 0.00826896 0.0926382 0.701694
907 2 0.181901 0.109259 0.667828
908 4 0.185103 0.126882 0.685274
1226 4 0.196077 0.0958175 0.744329
1227 4 0.195669 0.118378 0.699701
1225 2 0.195873 0.107098 0.722015
831 4 0.312979 0.155613 0.72491
1299 4 0.33084 0.166874 0.728157
829 2 0.295397 0.171809 0.717582
1005 4 0.377867 0.0959759 0.679459
44 3 0.448846 0.0860378 0.693705
852 4 0.016954 0.211292 0.715547
851 4 0.0551122 0.191456 0.741066
850 2 0.0360331 0.201374 0.728307
1107 4 0.0737085 0.18502 0.734979
1207 2 0.0605365 0.251061 0.688089
1208 4 0.0606528 0.229252 0.700317
1072 2 0.146584 0.217042 0.755479
1074 4 0.157408 0.239427 0.758111
1105 2 0.0970677 0.185851 0.743858
1131 4 0.204208 0.207108 0.737526
1277 4 0.201787 0.217354 0.754578
1129 2 0.195052 0.187887 0.750637
1276 2 0.213804 0.239262 0.755478
886 2 0.25736 0.192618 0.674634
830 4 0.277814 0.188006 0.710254
887 4 0.263294 0.188396 0.698553
976 2 0.259971 0.222177 0.726293
978 4 0.261915 0.201738 0.712023
918 4 0.278837 0.24476 0.736295
1193 4 0.386899 0.213723 0.736438
1192 2 0.402333 0.222158 0.718666
1194 4 0.417767 0.230592 0.700895
1209 4 0.0604203 0.27287 0.675861
821 4 0.121406 0.316352 0.729098
820 2 0.136393 0.307001 0.711403
822 4 0.151379 0.29765 0.693707
1063 2 0.243864 0.287643 0.754386
1064 4 0.26551 0.296203 0.745257
1263 4 0.434582 0.274553 0.727383
1261 2 0.418821 0.277292 0.7466
893 4 0.0563761 0.386063 0.705623
892 2 0.075728 0.376652 0.718355
1280 4 0.0514138 0.404308 0.71256
3275 4 0.0252735 0.363918 0.733353
992 4 0.150095 0.41574 0.669191
894 4 0.0950799 0.36724 0.731087
815 4 0.0901832 0.354412 0.744008
940 2 0.131022 0.358833 0.739942
942 4 0.107288 0.362652 0.74682
941 4 0.154755 0.355013 0.733063
1067 4 0.16311 0.367039 0.719728
1028 4 0.219258 0.371618 0.69814
1027 2 0.236939 0.389034 0.701182
1066 2 0.182499 0.370033 0.704228
1068 4 0.201888 0.373028 0.688727
1029 4 0.254619 0.40645 0.704224
1204 2 0.400595 0.416901 0.708716
1205 4 0.38588 0.398293 0.70082
1279 2 0.0420252 0.425888 0.721005
1281 4 0.0326366 0.447469 0.72945
1983 4 0.0456451 0.460537 0.721241
1981 2 0.0629854 0.477326 0.727771
1982 4 0.0803257 0.494114 0.7343
1140 4 0.292463 0.446781 0.675856
1139 4 0.258634 0.425577 0.705968
1138 2 0.275549 0.436179 0.690912
1988 4 0.313482 0.487638 0.738251
1987 2 0.334232 0.481224 0.725862
1230 4 0.40805 0.454229 0.719395
1228 2 0.389781 0.470886 0.715657
1229 4 0.371513 0.487544 0.711919
1989 4 0.354982 0.474811 0.713473
1206 4 0.415311 0.435509 0.716613
3330 4 0.490988 0.438095 0.702931
2168 4 0.449927 0.485581 0.670982
1100 4 0.451119 0.466269 0.670682
1099 2 0.46745 0.460998 0.688866
1101 4 0.483781 0.455727 0.707051
3329 4 0.506524 0.42486 0.748584
3328 2 0.498756 0.431478 0.725758
1294 2 0.000723889 0.0320369 0.833903
1296 4 0.00186112 0.0342085 0.80902
2049 4 0.13988 0.0210323 0.765996
1203 4 0.109035 0.0454571 0.821633
1202 4 0.133802 0.0365528 0.779112
1201 2 0.121419 0.041005 0.800373
911 4 0.102182 0.0607802 0.833307
1257 4 0.24477 0.0656561 0.807915
1149 4 0.2323 0.0682388 0.791625
1147 2 0.214753 0.0745582 0.774972
1148 4 0.197206 0.0808776 0.758318