ITEM: TIMESTEP
1280000
ITEM: NUMBER OF ATOMS
4590
ITEM: BOX BOUNDS pp pp pp
-9.9985700000000008e+00 9.9985700000000008e+00
-9.9985700000000008e+00 9.9985700000000008e+00
-9.9985700000000008e+00 9.9985700000000008e+00
ITEM: ATOMS id type xs ys zs
463 2 0.0463561 0.070921 0.0247015
465 4 0.057912 0.0534539 0.0383595
701 4 0.0768657 0.0585668 0.0402003
700 2 0.0976864 0.0694717 0.0487301
702 4 0.118507 0.0803766 0.05726
566 4 0.133137 0.0717788 0.0674351
565 2 0.151572 0.0851815 0.077717
491 4 0.271891 0.0182651 0.039615
2264 4 0.279515 0.0344378 0.0293856
2263 2 0.286729 0.0467706 0.00886631
745 2 0.473083 0.0491457 0.00375943
746 4 0.480599 0.0481315 0.027585
2469 4 0.481601 0.0342695 0.041985
2467 2 0.495468 0.0144603 0.0483468
464 4 0.0348002 0.0883881 0.0110435
590 4 0.0287659 0.0996086 0.0746088
421 2 0.108268 0.111414 0.00267675
422 4 0.094714 0.0904914 0.00460391
360 4 0.211984 0.166896 0.99487
827 4 0.388246 0.129311 0.987296
865 2 0.363328 0.152761 0.00742774
867 4 0.344858 0.156854 0.0237772
826 2 0.406168 0.11302 0.993507
771 4 0.438364 0.149057 0.0800779
554 4 0.0524349 0.193091 0.0195195
553 2 0.0597118 0.216113 0.0130228
835 2 0.111879 0.241496 0.00391403
837 4 0.136706 0.243963 0.00554718
836 4 0.0870507 0.239028 0.00228087
915 4 0.154445 0.234435 0.0127595
666 4 0.312264 0.211922 0.0366329
664 2 0.320217 0.1892 0.0298777
573 4 0.302253 0.227913 0.0316956
461 4 0.31027 0.225717 0.0499094
460 2 0.319701 0.225817 0.0730656
665 4 0.328171 0.166478 0.0231226
1070 4 0.40943 0.212844 0.0363298
1069 2 0.411066 0.230633 0.0538241
1071 4 0.412702 0.248422 0.0713184
1012 2 0.49218 0.211448 0.065829
769 2 0.448612 0.170998 0.0738534
770 4 0.458859 0.192939 0.0676289
1014 4 0.468239 0.209478 0.0727665
294 4 0.0642468 0.308355 0.0506701
292 2 0.0878575 0.303876 0.0437677
507 4 0.127533 0.303233 0.0495363
293 4 0.111468 0.299396 0.0368652
505 2 0.151512 0.30635 0.0431767
506 4 0.175492 0.309468 0.0368172
483 4 0.194212 0.317192 0.0349319
355 2 0.29369 0.319627 0.0134469
571 2 0.301639 0.252135 0.0255232
356 4 0.30203 0.296071 0.0143196
572 4 0.301024 0.276357 0.0193507
957 4 0.388164 0.310569 0.00927763
324 4 0.423314 0.264218 0.0592274
322 2 0.435554 0.285319 0.053738
672 4 0.447105 0.320956 0.034104
323 4 0.447793 0.30642 0.0482486
620 4 0.00682369 0.349644 0.0703929
481 2 0.19704 0.337431 0.0493389
609 4 0.22041 0.357553 0.065999
607 2 0.234667 0.376004 0.0569736
482 4 0.199869 0.35767 0.0637459
608 4 0.248924 0.394456 0.0479482
357 4 0.28535 0.343182 0.0125743
252 4 0.257944 0.408597 0.0375182
250 2 0.282361 0.411775 0.0331685
741 4 0.404162 0.367854 0.0799478
670 2 0.456959 0.33816 0.0493383
671 4 0.466813 0.355365 0.0645726
281 4 0.469286 0.372308 0.0739147
280 2 0.473397 0.396911 0.0721922
282 4 0.477509 0.421514 0.0704697
2651 4 0.484137 0.359454 0.0722564
551 4 0.0962927 0.438918 0.0600534
550 2 0.0975426 0.461302 0.0711241
552 4 0.0987925 0.483687 0.0821949
244 2 0.248687 0.488818 0.057969
245 4 0.246637 0.474161 0.078122
251 4 0.306777 0.414953 0.0288189
246 4 0.250736 0.503476 0.0378161
272 4 0.261822 0.490023 0.0284737
271 2 0.267697 0.481859 0.00558281
523 2 0.348181 0.492577 0.0492035
524 4 0.329246 0.497524 0.0336427
525 4 0.367117 0.487629 0.0647643
226 2 0.462868 0.456565 0.0303799
228 4 0.459702 0.478045 0.0179805
227 4 0.466035 0.435084 0.0427793
563 4 0.439253 0.477596 0.0153649
562 2 0.433343 0.501879 0.0146013
16 1 0.0530659 0.0620961 0.150175
20 3 0.0339959 0.0507475 0.145058
1806 4 0.0739308 0.0298994 0.142999
18 3 0.0711807 0.0475963 0.150059
2576 4 0.0341349 0.0189721 0.0941561
2575 2 0.00918576 0.0188026 0.0957959
1804 2 0.0849322 0.012202 0.12918
450 4 0.170031 0.0546374 0.130619
1505 4 0.16641 0.0445128 0.147612
448 2 0.177907 0.0777318 0.136079
652 2 0.311065 0.0218852 0.120151
653 4 0.31151 0.027153 0.0957122
654 4 0.310621 0.0166173 0.144589
557 4 0.359676 0.0748864 0.0950491
296 4 0.379378 0.0674969 0.0963814
295 2 0.380944 0.0445048 0.106081
297 4 0.38251 0.0215126 0.115781
485 4 0.399587 0.011188 0.117043
589 2 0.00861004 0.101751 0.0892488
17 3 0.0565731 0.0785038 0.134439
567 4 0.170006 0.0985842 0.0879989
237 4 0.156608 0.153314 0.141318
578 4 0.139064 0.158381 0.132883
577 2 0.120624 0.144128 0.14194
579 4 0.102184 0.129876 0.150997
235 2 0.174154 0.135886 0.137635
236 4 0.1917 0.118458 0.133952
693 4 0.204149 0.106589 0.142617
449 4 0.185782 0.100826 0.141539
691 2 0.221036 0.108512 0.160955
558 4 0.339492 0.120559 0.0977651
556 2 0.349584 0.0977225 0.0964071
337 2 0.0639268 0.189968 0.155984
339 4 0.0397466 0.185598 0.151358
338 4 0.088107 0.194337 0.16061
476 4 0.145629 0.201596 0.125613
475 2 0.125435 0.20123 0.140354
477 4 0.105242 0.200863 0.155094
737 4 0.16086 0.19885 0.114704
736 2 0.180713 0.213543 0.110811
738 4 0.200566 0.228235 0.106917
462 4 0.329133 0.225917 0.0962219
284 4 0.304126 0.192658 0.143552
255 4 0.336965 0.236903 0.110659
254 4 0.381188 0.241633 0.133523
253 2 0.359076 0.239268 0.122091
630 4 0.39278 0.226392 0.137993
628 2 0.406774 0.205804 0.135654
765 4 0.386509 0.238743 0.152164
629 4 0.420768 0.185216 0.133314
352 2 0.332345 0.289394 0.133811
353 4 0.310946 0.292334 0.146405
754 2 0.289521 0.324134 0.154322
755 4 0.306587 0.306484 0.159057
278 4 0.299824 0.288885 0.163017
354 4 0.353744 0.286454 0.121217
763 2 0.399219 0.252759 0.16851
519 4 0.509509 0.278268 0.0818938
526 2 0.488946 0.293269 0.159717
647 4 0.0259442 0.348531 0.0765807
646 2 0.0471231 0.352925 0.0891238
648 4 0.068302 0.357318 0.101667
456 4 0.082473 0.345927 0.111352
455 4 0.116358 0.382696 0.112067
454 2 0.0994155 0.364311 0.11171
537 4 0.212569 0.366437 0.128449
535 2 0.208005 0.387047 0.115048
536 4 0.203441 0.407657 0.101647
611 4 0.224694 0.352303 0.134581
610 2 0.24733 0.357791 0.143675
302 4 0.333218 0.419228 0.15543
387 4 0.33911 0.401009 0.149065
739 2 0.397598 0.372239 0.103673
740 4 0.391034 0.376624 0.127397
15 3 0.396844 0.369579 0.145044
385 2 0.35872 0.386334 0.144038
386 4 0.378331 0.37166 0.139011
11 1 0.417104 0.371962 0.155169
12 3 0.425913 0.351155 0.159482
14 3 0.431616 0.383507 0.141222
495 4 0.429018 0.399278 0.127954
1465 2 0.019955 0.480531 0.141643
1466 4 0.0423373 0.488636 0.133993
242 4 0.114288 0.494831 0.0800711
627 4 0.228817 0.466527 0.0841159
625 2 0.215536 0.446399 0.0907237
626 4 0.202254 0.426272 0.0973315
637 2 0.227381 0.50167 0.148793
767 4 0.240888 0.469684 0.152358
638 4 0.248751 0.488785 0.147223
766 2 0.2589 0.454204 0.160176
768 4 0.276911 0.438723 0.167994
301 2 0.313722 0.433116 0.162656
303 4 0.294226 0.447004 0.169882
660 4 0.416117 0.46487 0.135059
494 4 0.416666 0.445545 0.14236
493 2 0.422842 0.422411 0.135157
658 2 0.427255 0.475337 0.154847
2480 4 0.0148882 0.0150832 0.207182
19 3 0.051007 0.0720332 0.171042
1422 4 0.00124022 0.000384611 0.204824
673 2 0.14185 0.0550605 0.21722
675 4 0.131806 0.0452687 0.196521
674 4 0.151893 0.0648523 0.237918
1504 2 0.168642 0.0324618 0.169406
689 4 0.184987 0.0195688 0.206498
1506 4 0.170873 0.0204108 0.1912
688 2 0.201079 0.00254673 0.215243
21 1 0.398178 0.0175949 0.232662
25 3 0.409431 0.033789 0.221271
759 4 0.415463 0.0420306 0.204054
757 2 0.40696 0.0655011 0.202634
22 3 0.375922 0.023276 0.2339
351 4 0.473018 0.0359278 0.239485
349 2 0.450127 0.0380443 0.229651
350 4 0.427236 0.0401608 0.219816
380 4 0.0489134 0.0903104 0.163342
2483 4 0.990759 0.132438 0.170222
512 4 0.0503395 0.128043 0.205748
379 2 0.040491 0.104873 0.18184
381 4 0.0320686 0.119435 0.200338
511 2 0.0487046 0.148903 0.219437
392 4 0.103075 0.177688 0.246454
544 2 0.147128 0.175079 0.25411
545 4 0.123195 0.173595 0.247026
692 4 0.237924 0.110435 0.179293
582 4 0.251495 0.113766 0.194061
722 4 0.179385 0.169756 0.245423
721 2 0.193336 0.165498 0.225115
580 2 0.27152 0.12445 0.204551
581 4 0.291544 0.135134 0.215042
30 3 0.309127 0.128904 0.220827
26 1 0.329892 0.135184 0.227757
29 3 0.33224 0.131065 0.250471
27 3 0.33266 0.157701 0.223958
28 3 0.346064 0.123529 0.215881
758 4 0.398457 0.0889717 0.201214
312 4 0.448989 0.171361 0.170313
310 2 0.444956 0.149995 0.18266
311 4 0.440923 0.12863 0.195006
513 4 0.0470698 0.169762 0.233126
363 4 0.0993093 0.202508 0.173785
362 4 0.116976 0.236386 0.206048
361 2 0.108143 0.219447 0.189917
372 4 0.128184 0.247074 0.220895
370 2 0.147954 0.253525 0.234777
371 4 0.167724 0.259975 0.248659
723 4 0.207287 0.16124 0.204807
283 2 0.321757 0.188112 0.160688
285 4 0.339389 0.183566 0.177824
521 4 0.462891 0.180343 0.230562
520 2 0.48466 0.175746 0.219154
395 4 0.0713112 0.286954 0.217568
394 2 0.0497975 0.285295 0.2302
396 4 0.0282837 0.283636 0.242833
749 4 0.0975532 0.31301 0.16439
750 4 0.0807887 0.282154 0.199994
748 2 0.0891709 0.297582 0.182192
300 4 0.109509 0.326772 0.219421
279 4 0.27668 0.256 0.192744
277 2 0.288252 0.272442 0.17788
308 4 0.327533 0.269297 0.234619
307 2 0.332832 0.276355 0.211224
497 4 0.329388 0.288831 0.238678
309 4 0.338132 0.283412 0.18783
764 4 0.411929 0.266775 0.184856
623 4 0.410566 0.287481 0.185225
528 4 0.470769 0.304675 0.172549
622 2 0.434492 0.294514 0.187027
624 4 0.458418 0.301547 0.188829
262 2 0.0586451 0.388285 0.226889
264 4 0.0469324 0.371283 0.212786
263 4 0.0703577 0.405287 0.240993
298 2 0.11992 0.345282 0.232619
299 4 0.130332 0.363792 0.245816
290 4 0.206062 0.400306 0.212463
612 4 0.269966 0.363279 0.152768
756 4 0.272455 0.341784 0.149587
13 3 0.414639 0.383369 0.175224
643 2 0.498088 0.411589 0.205497
1757 4 0.0763935 0.502021 0.217955
416 4 0.169714 0.445082 0.205974
289 2 0.186538 0.415405 0.216464
417 4 0.167908 0.49461 0.199309
415 2 0.168811 0.469846 0.202642
291 4 0.167014 0.430504 0.220465
645 4 0.489168 0.434852 0.203394
597 4 0.485335 0.453052 0.207522
595 2 0.470383 0.469186 0.195633
596 4 0.455431 0.48532 0.183745
659 4 0.438393 0.485804 0.174635
231 4 0.440326 0.495596 0.191079
1799 4 0.0337282 0.02587 0.32028
233 4 0.0353242 0.0317403 0.302028
1402 2 0.0723522 0.0171883 0.301006
1403 4 0.0497037 0.0214016 0.310726
232 2 0.0187551 0.0406235 0.285544
1404 4 0.0950007 0.012975 0.291286
1701 4 0.177933 0.0418237 0.319364
1699 2 0.187586 0.0648608 0.318229
1700 4 0.197239 0.087898 0.317094
23 3 0.406648 0.0157142 0.254183
697 2 0.365999 0.0383064 0.31143
699 4 0.358247 0.0221098 0.294031
1518 4 0.352402 0.00811363 0.280308
633 4 0.375468 0.074015 0.333168
698 4 0.373752 0.0545029 0.32883
743 4 0.490433 0.0457773 0.306158
744 4 0.481848 0.0385395 0.257428
742 2 0.486141 0.0421584 0.281793
478 2 0.471677 0.0445551 0.335336
479 4 0.493693 0.0499257 0.324769
398 4 0.0902731 0.154854 0.302387
397 2 0.0848514 0.133963 0.31501
546 4 0.171061 0.176564 0.261193
248 4 0.213885 0.0920355 0.327957
249 4 0.21484 0.14123 0.319029
247 2 0.214362 0.116633 0.323493
404 4 0.21182 0.144444 0.299985
403 2 0.200126 0.156535 0.281486
405 4 0.188432 0.168627 0.262986
632 4 0.388666 0.119136 0.31612
631 2 0.382067 0.0965753 0.324644
333 4 0.46382 0.137199 0.273749
331 2 0.466421 0.161742 0.277758
390 4 0.0987869 0.171665 0.30702
393 4 0.0854015 0.171183 0.29278
391 2 0.0942383 0.174435 0.269617
388 2 0.102885 0.185445 0.327477
344 4 0.273553 0.244385 0.334845
717 4 0.41152 0.227236 0.31482
420 4 0.409032 0.208255 0.307266
332 4 0.469022 0.186285 0.281767
418 2 0.430496 0.20124 0.296529
419 4 0.451959 0.194226 0.285792
760 2 0.479919 0.226909 0.288957
762 4 0.46768 0.205114 0.288388
444 4 0.0451294 0.256839 0.29642
364 2 0.998167 0.30849 0.2618
442 2 0.0324787 0.268848 0.278506
443 4 0.019828 0.280858 0.260592
365 4 0.0117278 0.293241 0.247352
401 4 0.221642 0.27379 0.266322
400 2 0.228406 0.276967 0.290182
402 4 0.23517 0.280144 0.314043
510 4 0.240898 0.29668 0.323123
508 2 0.233902 0.320587 0.325279
345 4 0.238247 0.279744 0.33287
343 2 0.2559 0.262064 0.333857
496 2 0.334033 0.299874 0.260625
715 2 0.411216 0.252129 0.317159
498 4 0.338678 0.310918 0.282571
543 4 0.426816 0.333374 0.287823
716 4 0.410911 0.277021 0.319497
541 2 0.42401 0.313919 0.303277
542 4 0.421204 0.294464 0.31873
601 2 0.108361 0.397683 0.248126
603 4 0.128932 0.383476 0.248559
602 4 0.0877894 0.411889 0.247692
734 4 0.145053 0.37377 0.253305
733 2 0.149004 0.369489 0.27762
735 4 0.152955 0.365208 0.301936
677 4 0.161395 0.365511 0.319373
676 2 0.18485 0.357407 0.322433
509 4 0.226906 0.344495 0.327435
435 4 0.221355 0.362512 0.332621
433 2 0.238348 0.378897 0.32438
434 4 0.255342 0.395283 0.316139
728 4 0.369072 0.379458 0.304904
727 2 0.355896 0.399133 0.296876
615 4 0.436825 0.350718 0.287704
613 2 0.432651 0.372328 0.299569
2538 4 0.474114 0.372865 0.309494
2536 2 0.485393 0.389708 0.294855
614 4 0.428478 0.393937 0.311435
2537 4 0.496671 0.406551 0.280216
2862 4 0.478296 0.413736 0.272846
777 4 0.0650622 0.447781 0.309852
549 4 0.0574233 0.437607 0.325638
775 2 0.0897925 0.444106 0.309552
414 4 0.129726 0.451227 0.317283
776 4 0.114523 0.440432 0.309253
412 2 0.145202 0.463479 0.33263
438 4 0.279333 0.447611 0.286001
436 2 0.302927 0.439454 0.28741
729 4 0.342719 0.418808 0.288848
437 4 0.326521 0.431298 0.288818
2861 4 0.440315 0.440273 0.254033
2860 2 0.459306 0.427005 0.26344
593 4 0.434496 0.457643 0.327978
1772 4 0.0209493 0.995575 0.414611
1798 2 0.0213526 0.0125557 0.337448
369 4 0.0744457 0.0515762 0.371896
367 2 0.0804338 0.0314876 0.385526
368 4 0.0864219 0.0113991 0.399156
732 4 0.0850724 0.0681453 0.375411
605 4 0.163018 0.0778504 0.352261
604 2 0.165036 0.087195 0.375364
256 2 0.39803 0.0552765 0.362428
257 4 0.387841 0.0612177 0.340381
258 4 0.408219 0.0493354 0.384475
426 4 0.412538 0.0557427 0.402968
480 4 0.449662 0.0391846 0.345903
458 4 0.0225304 0.141352 0.384667
318 4 0.039207 0.142277 0.372999
316 2 0.0480468 0.1189 0.373762
317 4 0.0568865 0.095524 0.374524
606 4 0.167054 0.0965397 0.398468
730 2 0.0862551 0.0820354 0.354654
399 4 0.0794297 0.113072 0.327634
731 4 0.0874377 0.0959254 0.333898
600 4 0.219268 0.151058 0.394103
598 2 0.201536 0.168534 0.396423
683 4 0.253531 0.116231 0.376026
682 2 0.269211 0.12023 0.395087
684 4 0.284892 0.124228 0.414147
575 4 0.403994 0.136763 0.381017
516 4 0.407577 0.135678 0.360907
321 4 0.339024 0.141602 0.402848
574 2 0.418739 0.138453 0.401139
451 2 0.485385 0.153767 0.342579
514 2 0.427705 0.138423 0.346329
453 4 0.46039 0.153317 0.342083
515 4 0.447833 0.141168 0.331751
457 2 0.0231535 0.16556 0.390894
2654 4 0.0106197 0.200194 0.406823
459 4 0.0237766 0.189768 0.39712
389 4 0.106983 0.199225 0.347935
687 4 0.188462 0.199878 0.412609
599 4 0.183805 0.18601 0.398744
473 4 0.233934 0.234181 0.400081
472 2 0.252453 0.217877 0.404127
374 4 0.232568 0.252776 0.392322
378 4 0.277972 0.225399 0.332783
376 2 0.297247 0.21917 0.347441
377 4 0.316522 0.212941 0.362099
474 4 0.270973 0.201573 0.408173
708 4 0.352722 0.156239 0.375055
707 4 0.330425 0.200706 0.369928
706 2 0.341574 0.178473 0.372491
467 4 0.387943 0.209799 0.420423
305 4 0.477521 0.183437 0.427136
275 4 0.170716 0.334161 0.404108
616 2 0.131326 0.326773 0.415734
617 4 0.15515 0.333824 0.418537
618 4 0.107501 0.319722 0.412932
274 2 0.181119 0.313519 0.394575
276 4 0.191523 0.292877 0.385043
373 2 0.212901 0.265127 0.383056
375 4 0.193235 0.277478 0.37379
406 2 0.026355 0.374264 0.370264
407 4 0.0478061 0.382618 0.360505
548 4 0.0464631 0.401858 0.358843
408 4 0.00490396 0.365909 0.380023
347 4 0.0889006 0.321258 0.417462
678 4 0.208305 0.349303 0.325494
504 4 0.257026 0.385404 0.377908
503 4 0.289789 0.405525 0.409885
334 2 0.327396 0.405176 0.402396
502 2 0.273407 0.395465 0.393896
336 4 0.306807 0.414706 0.412905
335 4 0.347985 0.395646 0.391886
240 4 0.366247 0.391 0.400484
561 4 0.485032 0.320522 0.376975
753 4 0.469099 0.367102 0.328918
752 4 0.473052 0.330932 0.363223
751 2 0.471075 0.349017 0.34607
547 2 0.0519432 0.419732 0.34224
413 4 0.160678 0.475731 0.347978
500 4 0.159993 0.488931 0.363508
1545 4 0.219044 0.487588 0.330544
1543 2 0.197709 0.48533 0.343385
1544 4 0.176374 0.483073 0.356226
667 2 0.296561 0.448273 0.416577
669 4 0.290705 0.424794 0.41028
594 4 0.389401 0.479064 0.330863
592 2 0.411949 0.468353 0.32942
1524 4 0.0410757 0.0145531 0.468569
720 4 0.0235147 0.0694612 0.451883
2237 4 0.0167916 0.05086 0.450647
2236 2 0.0228257 0.029672 0.438821
1127 4 0.0207721 0.0590742 0.467666
2238 4 0.0288597 0.00848408 0.426996
1522 2 0.0553033 0.00680355 0.487614
2428 2 0.225256 0.00891202 0.492444
2430 4 0.205355 0.0225441 0.485865
726 4 0.292998 0.0507875 0.449474
724 2 0.297848 0.0430549 0.472752
725 4 0.302699 0.0353223 0.496029
424 2 0.407265 0.0352925 0.416353
425 4 0.401992 0.0148422 0.429738
1580 4 0.396862 0.998375 0.419217
2878 2 0.475811 0.0650856 0.470185
2880 4 0.469006 0.0762608 0.448878
2879 4 0.482616 0.0539104 0.491492
718 2 0.0266922 0.094197 0.453677
719 4 0.0298697 0.118933 0.455472
1033 2 0.114001 0.13975 0.479056
1035 4 0.12058 0.15272 0.458718
1182 4 0.290184 0.103269 0.47936
320 4 0.300665 0.115951 0.422118
1180 2 0.287885 0.113012 0.456448
1181 4 0.285585 0.122756 0.433536
319 2 0.319844 0.128776 0.412483
411 4 0.271062 0.152992 0.475582
3157 2 0.493821 0.156238 0.471315
642 4 0.470917 0.0925567 0.436847
640 2 0.456562 0.113026 0.437174
641 4 0.442208 0.133496 0.437501
306 4 0.438739 0.153033 0.435634
576 4 0.433484 0.140143 0.421262
3159 4 0.512236 0.141131 0.478919
304 2 0.45813 0.168235 0.431385
469 2 0.0334856 0.216297 0.496686
470 4 0.0322266 0.195611 0.482697
685 2 0.172266 0.209323 0.429151
686 4 0.156069 0.218769 0.445693
260 4 0.140065 0.209666 0.451619
261 4 0.119913 0.168675 0.471974
259 2 0.129989 0.189171 0.461797
695 4 0.139907 0.22875 0.450698
694 2 0.129162 0.249645 0.45925
488 4 0.279391 0.194115 0.42501
487 2 0.294288 0.209273 0.438181
489 4 0.309186 0.224431 0.451352
409 2 0.264194 0.176345 0.481297
410 4 0.257326 0.199697 0.487013
900 4 0.262465 0.208863 0.504447
468 4 0.360168 0.25076 0.427599
466 2 0.374055 0.230279 0.424011
3158 4 0.475405 0.171345 0.46371
585 4 0.438927 0.236703 0.481074
348 4 0.0643517 0.348755 0.451256
1260 4 0.129035 0.268992 0.48578
696 4 0.118417 0.27054 0.467802
811 2 0.264238 0.290824 0.486016
813 4 0.271383 0.273889 0.469065
266 4 0.316702 0.262487 0.466215
265 2 0.337464 0.265367 0.452584
267 4 0.358227 0.268247 0.438953
2455 2 0.488825 0.295955 0.497417
2456 4 0.473606 0.294164 0.477659
584 4 0.470058 0.275245 0.474286
583 2 0.454493 0.255974 0.47768
326 4 0.0613774 0.339641 0.469725
346 2 0.0766261 0.335006 0.434359
325 2 0.0757922 0.348995 0.487888
383 4 0.0843154 0.410576 0.443076
10 3 0.129473 0.360765 0.475055
7 3 0.107916 0.366389 0.504998
6 1 0.128912 0.369434 0.496107
711 4 0.146595 0.407652 0.497789
709 2 0.169158 0.417164 0.492728
774 4 0.203679 0.411413 0.485736
239 4 0.38476 0.401432 0.445751
238 2 0.375504 0.396216 0.423117
588 4 0.381541 0.40655 0.465213
586 2 0.387309 0.415673 0.487766
681 4 0.0644547 0.415927 0.443521
680 4 0.0380674 0.45725 0.433683
1381 2 0.0564676 0.492706 0.4388
1383 4 0.0480881 0.470002 0.445085
679 2 0.0512611 0.436589 0.438602
382 2 0.108181 0.41754 0.445748
570 4 0.167525 0.477597 0.4667
569 4 0.133272 0.441874 0.459535
568 2 0.150398 0.459736 0.463117
384 4 0.132046 0.424503 0.44842
539 4 0.100522 0.476067 0.473333
538 2 0.111368 0.489289 0.491575
636 4 0.208238 0.450013 0.429126
634 2 0.203713 0.436835 0.449887
635 4 0.199188 0.423656 0.470649
710 4 0.191721 0.426675 0.487666
4 3 0.313686 0.488097 0.419497
668 4 0.302417 0.471751 0.422874
880 2 0.329524 0.500727 0.487546
881 4 0.335225 0.486287 0.507146
1523 4 0.0695309 0.999054 0.506658
1057 2 0.124964 0.060647 0.577338
2374 2 0.119955 0.00545537 0.570387
1152 4 0.173383 0.0763121 0.519166
1059 4 0.131791 0.081701 0.565706
1150 2 0.155327 0.0842164 0.534551
2375 4 0.107783 0.0261021 0.577509
340 2 0.196171 0.0534193 0.513672
342 4 0.185157 0.0668862 0.531631
341 4 0.207184 0.0399523 0.495713
430 2 0.316521 0.0408087 0.525215
432 4 0.294272 0.0384891 0.514045
963 4 0.29772 0.0205956 0.507785
431 4 0.33877 0.0431282 0.536386
843 4 0.346534 0.0429914 0.51805
1217 4 0.406842 0.048108 0.54284
842 4 0.391866 0.0568928 0.533939
841 2 0.3692 0.0499421 0.525994
1216 2 0.416683 0.0251754 0.544399
879 4 0.0678323 0.156472 0.560714
1272 4 0.0786308 0.140267 0.564903
938 4 0.070965 0.142674 0.546999
937 2 0.0827295 0.129397 0.529378
1151 4 0.137272 0.0921207 0.549936
1155 4 0.147402 0.0940717 0.566541
939 4 0.094494 0.11612 0.511757
1153 2 0.161759 0.106628 0.582708
1034 4 0.107421 0.126779 0.499395
878 4 0.0241022 0.179222 0.552299
1199 4 0.00889284 0.179402 0.539255
877 2 0.0459672 0.167847 0.556507
471 4 0.0347446 0.236983 0.510674
857 4 0.289028 0.220812 0.559102
856 2 0.276114 0.212258 0.578729
898 2 0.278927 0.212591 0.522894
791 4 0.300994 0.233322 0.550166
899 4 0.295389 0.21632 0.541341
871 2 0.384541 0.236449 0.537122
872 4 0.375535 0.241999 0.514467
873 4 0.393548 0.230898 0.559777
3352 2 0.992723 0.27886 0.5211
3354 4 0.0058355 0.295253 0.507517
1259 4 0.107833 0.278235 0.530116
1258 2 0.118434 0.273613 0.507948
649 2 0.234816 0.299071 0.537874
651 4 0.221734 0.28774 0.555919
650 4 0.247898 0.310402 0.519828
804 4 0.250476 0.326057 0.509078
790 2 0.310054 0.253387 0.562019
812 4 0.257093 0.307759 0.502967
792 4 0.319114 0.273452 0.573871
1238 4 0.33325 0.288579 0.571607
1237 2 0.334294 0.312311 0.579409
1010 4 0.495355 0.301726 0.535879
935 4 0.0157987 0.399047 0.538203
1135 2 0.135947 0.418647 0.556128
9 3 0.144398 0.358582 0.509554
897 4 0.152801 0.382664 0.5704
1137 4 0.139609 0.397388 0.568771
8 3 0.133551 0.392159 0.495437
327 4 0.0902069 0.358348 0.506051
1189 2 0.230361 0.389757 0.557269
773 4 0.238338 0.390435 0.515052
1190 4 0.239884 0.389383 0.534153
772 2 0.221008 0.400924 0.500394
1191 4 0.220837 0.390131 0.580385
803 4 0.243978 0.37345 0.523649
895 2 0.177048 0.386536 0.575122
802 2 0.247227 0.349754 0.516363
930 4 0.255736 0.389545 0.52283
928 2 0.279607 0.396985 0.522753
929 4 0.303479 0.404424 0.522676
1239 4 0.335337 0.336043 0.587211
927 4 0.390255 0.382657 0.558474
925 2 0.397389 0.397584 0.539726
926 4 0.404522 0.412511 0.520977
1136 4 0.132285 0.439905 0.543485
1161 4 0.158685 0.487895 0.577625
2243 4 0.140657 0.487258 0.569239
1159 2 0.177882 0.475378 0.587623
889 2 0.312054 0.472869 0.561504
890 4 0.307535 0.479235 0.585257
891 4 0.316574 0.466502 0.53775
1953 4 0.38124 0.478278 0.542797
1951 2 0.359572 0.474544 0.530893
1000 2 0.406486 0.499134 0.540693
1952 4 0.337903 0.47081 0.518989
663 4 0.412487 0.425747 0.508843
587 4 0.393078 0.424796 0.51032
1001 4 0.424318 0.481953 0.544157
662 4 0.428969 0.466641 0.532438
661 2 0.420728 0.446194 0.52064
1911 4 0.43352 0.466197 0.551697
1909 2 0.438762 0.452858 0.572185
1332 4 0.442758 0.477741 0.539414
1330 2 0.460879 0.494914 0.538043
945 4 0.0591917 0.00684819 0.64699
2319 4 0.0578778 0.00774742 0.626818
943 2 0.0802904 0.00138372 0.659244
1058 4 0.118137 0.0395931 0.58897
1284 4 0.165404 0.0810372 0.641922
944 4 0.101389 0.995919 0.671498
950 4 0.288759 0.0170644 0.624325
949 2 0.285122 0.0363823 0.608873
951 4 0.281484 0.0557003 0.593421
1031 4 0.274573 0.0691125 0.605637
3179 4 0.0260498 0.157503 0.664713
1083 4 0.012046 0.147245 0.674663
3178 2 0.0145619 0.165644 0.644051
1270 2 0.08669 0.142191 0.588494
1271 4 0.0947493 0.144115 0.612085
1282 2 0.15226 0.0915541 0.660409
1154 4 0.176116 0.119185 0.598876
1221 4 0.188891 0.126743 0.612364
1219 2 0.19928 0.147885 0.620748
1032 4 0.252135 0.101367 0.636571
1030 2 0.263354 0.0852399 0.621104
888 4 0.282063 0.16709 0.6619
45 3 0.428131 0.0755912 0.651492
808 2 0.486234 0.0914786 0.63846
810 4 0.476551 0.0853097 0.660671
809 4 0.495917 0.0976475 0.616248
1243 2 0.0631299 0.211191 0.637558
1244 4 0.0656548 0.216004 0.613152
1245 4 0.0606051 0.206377 0.661963
3180 4 0.00307391 0.173786 0.623388
1212 4 0.22815 0.175603 0.629859
1220 4 0.209668 0.169027 0.629132
796 2 0.208848 0.20447 0.606879
798 4 0.215675 0.18222 0.616016
797 4 0.202021 0.22672 0.597741
1210 2 0.245535 0.16998 0.646926
858 4 0.2632 0.203704 0.598356
1211 4 0.262921 0.164356 0.663993
3121 2 0.487324 0.230232 0.657182
905 4 0.46795 0.235565 0.621759
3123 4 0.467342 0.235099 0.642961
904 2 0.450011 0.247189 0.608788
983 4 0.0499643 0.307566 0.595992
982 2 0.0491909 0.319768 0.617803
3263 4 0.0448687 0.32363 0.657347
984 4 0.0484176 0.33197 0.639613
947 4 0.242626 0.277159 0.644641
946 2 0.248442 0.278253 0.668934
805 2 0.328781 0.32452 0.654053
906 4 0.432072 0.258813 0.595816
952 2 0.484162 0.32491 0.60789
953 4 0.468141 0.312169 0.622249
1041 4 0.0476661 0.342929 0.655592
1039 2 0.0536717 0.36694 0.652045
1040 4 0.0596772 0.390951 0.648497
993 4 0.0470429 0.403774 0.636332
896 4 0.201295 0.390407 0.579843
1172 4 0.21096 0.406576 0.583211
1029 4 0.236539 0.410945 0.671574
807 4 0.332763 0.33505 0.631727
1206 4 0.466035 0.409166 0.64804
992 4 0.0690335 0.445611 0.619998
991 2 0.0580382 0.424693 0.628165
1175 4 0.192808 0.490963 0.672835
1160 4 0.19708 0.462862 0.597621
1173 4 0.208475 0.450549 0.606895
1171 2 0.209718 0.428563 0.595053
1188 4 0.199419 0.47246 0.666121
1187 4 0.202139 0.466225 0.616579
1186 2 0.200779 0.469342 0.64135
1204 2 0.461776 0.432923 0.65457
1910 4 0.444004 0.43952 0.592674
1269 4 0.458241 0.472114 0.648076
1267 2 0.442905 0.491712 0.645649
1205 4 0.457518 0.45668 0.6611
1077 4 0.0401038 0.0901845 0.754215
2255 4 0.228463 0.0380254 0.738848
2254 2 0.209431 0.0262362 0.749982
1004 4 0.3159 0.0115996 0.733261
1003 2 0.331466 0.0294243 0.741334
1163 4 0.47772 0.074388 0.676695
1162 2 0.496253 0.0621876 0.688222
42 3 0.432128 0.0586638 0.684513
44 3 0.460333 0.0792786 0.670651
1081 2 0.0237971 0.126824 0.683033
1082 4 0.0355482 0.106402 0.691404
1076 4 0.0257631 0.106425 0.709145
1075 2 0.0329335 0.0983047 0.73168
850 2 0.0643609 0.14461 0.729757
852 4 0.04174 0.139606 0.739161
1214 4 0.0294248 0.155937 0.737179
909 4 0.0975524 0.146997 0.704816
907 2 0.114624 0.129622 0.699173
908 4 0.131696 0.112247 0.693531
1283 4 0.139115 0.102071 0.678897
1227 4 0.149035 0.10303 0.695207
851 4 0.0869818 0.149614 0.720354
1225 2 0.155756 0.0961625 0.71829
1107 4 0.105123 0.157698 0.719132
1226 4 0.162478 0.0892946 0.741374
830 4 0.319859 0.142231 0.706909
978 4 0.311294 0.150793 0.722829
887 4 0.303257 0.152831 0.704891
886 2 0.29266 0.15996 0.683396
831 4 0.368047 0.129446 0.710803
1141 2 0.39412 0.154051 0.717732
829 2 0.343953 0.135839 0.708856
1142 4 0.377447 0.137322 0.725937
41 1 0.437258 0.0774527 0.672274
43 3 0.428581 0.0960545 0.683094
1025 4 0.474592 0.150252 0.697453
3424 2 0.480124 0.114528 0.686731
3426 4 0.47108 0.0930145 0.677756
1024 2 0.452205 0.160439 0.701953
3425 4 0.489167 0.136042 0.695705
3269 4 0.489196 0.149749 0.709028
1209 4 0.0765758 0.206293 0.675733
1215 4 0.00869688 0.200991 0.743599
1213 2 0.0190608 0.178464 0.740389
1207 2 0.0901794 0.223528 0.687694
1105 2 0.116638 0.171835 0.736241
1208 4 0.103783 0.240763 0.699655
976 2 0.310031 0.172954 0.734339
916 2 0.288339 0.225122 0.750849
918 4 0.310482 0.213514 0.750548
1194 4 0.390677 0.231785 0.711355
1193 4 0.343124 0.232002 0.695883
1192 2 0.3669 0.231893 0.703619
1143 4 0.410793 0.17078 0.709526
1026 4 0.429819 0.170626 0.706453
1261 2 0.429676 0.196916 0.734859
1262 4 0.421593 0.186628 0.713551
1179 4 0.992759 0.260365 0.773038
3262 2 0.0405368 0.321006 0.681832
3264 4 0.0362048 0.318382 0.706318
779 4 0.0454781 0.314926 0.722977
893 4 0.0343434 0.331189 0.721421
778 2 0.0653374 0.310658 0.737557
780 4 0.0851967 0.30639 0.752137
821 4 0.127053 0.274385 0.746582
1064 4 0.236417 0.286359 0.699656
1065 4 0.216233 0.274867 0.743942
1063 2 0.226325 0.280613 0.721799
948 4 0.254259 0.279348 0.693227
806 4 0.324799 0.31399 0.676379
1008 4 0.42037 0.322618 0.725692
1006 2 0.431687 0.313139 0.745873
892 2 0.0275894 0.354719 0.726515
894 4 0.0208355 0.378248 0.731608
3276 4 0.013473 0.389848 0.74519
814 2 0.0528042 0.399078 0.750219
816 4 0.0328804 0.384998 0.744743
1066 2 0.158767 0.406521 0.702006
1068 4 0.168471 0.396318 0.681345
1027 2 0.21239 0.406509 0.676303
1028 4 0.188242 0.402073 0.681032
1019 4 0.404946 0.401056 0.733236
1280 4 0.0674057 0.497569 0.693134
1067 4 0.149063 0.416725 0.722668
940 2 0.108777 0.413713 0.735621
941 4 0.130589 0.422439 0.72706
1174 2 0.173878 0.484787 0.687958
1176 4 0.154948 0.478612 0.703081
1140 4 0.297762 0.455306 0.683806
1138 2 0.304626 0.447404 0.706514
1139 4 0.31149 0.439503 0.729221
1230 4 0.398049 0.480143 0.729229
1228 2 0.382751 0.46795 0.744801
1100 4 0.415082 0.472296 0.721673
1101 4 0.456753 0.448225 0.735268
1099 2 0.435918 0.460261 0.72847
1251 4 0.470207 0.45426 0.748076
3330 4 0.474746 0.440955 0.734776
3328 2 0.494532 0.438691 0.719657
1201 2 0.159092 0.0515269 0.763232
2047 2 0.153224 0.996083 0.770432
1202 4 0.157732 0.0285083 0.7729
1203 4 0.160453 0.0745455 0.753564
2049 4 0.170062 0.0140473 0.76608
2256 4 0.190399 0.014447 0.761116
1005 4 0.347031 0.047249 0.749406
2321 4 0.464006 0.00608004 0.787828
2322 4 0.467613 0.0556174 0.793638
2320 2 0.465809 0.0308487 0.790733
846 4 0.462946 0.0755455 0.791815
980 4 0.458182 0.0121091 0.819426
864 4 0.052354 0.0856044 0.770401
862 2 0.0441899 0.1047 0.784325
863 4 0.0360258 0.123795 0.79825
832 2 0.00737951 0.124836 0.822335
833 4 0.0205076 0.134322 0.803287
1125 4 0.0361719 0.143272 0.795525
1123 2 0.0335894 0.167839 0.799393
31 1 0.123966 0.150166 0.818323
35 3 0.135825 0.145033 0.79957
33 3 0.101273 0.147418 0.814339
1147 2 0.19875 0.0903207 0.754495
1149 4 0.223351 0.0933502 0.75121
1148 4 0.174149 0.0872913 0.757781
1257 4 0.239934 0.0883148 0.762065
921 4 0.196844 0.157559 0.823985
1255 2 0.262225 0.0967488 0.769625
1256 4 0.284516 0.105183 0.777186
840 4 0.279253 0.119224 0.790644
838 2 0.294954 0.131321 0.805886
844 2 0.471943 0.0940111 0.806072
845 4 0.48094 0.112477 0.820328
1124 4 0.0310069 0.192407 0.80326
1072 2 0.0562009 0.233976 0.764337
1073 4 0.0325115 0.231355 0.771895
1106 4 0.128153 0.185972 0.753351
1130 4 0.147361 0.182186 0.753657
1129 2 0.153324 0.204383 0.763501
1131 4 0.159288 0.226581 0.773344
1277 4 0.167496 0.237933 0.786672
1074 4 0.0798903 0.236597 0.756779
920 4 0.190346 0.205977 0.834667
1276 2 0.172904 0.229787 0.809684
1278 4 0.178312 0.221641 0.832696
919 2 0.193595 0.181768 0.829326
977 4 0.308767 0.195115 0.745849
1298 4 0.321686 0.200266 0.76001