ITEM: TIMESTEP
180000
ITEM: NUMBER OF ATOMS
4590
ITEM: BOX BOUNDS pp pp pp
-9.9985700000000008e+00 9.9985700000000008e+00
-9.9985700000000008e+00 9.9985700000000008e+00
-9.9985700000000008e+00 9.9985700000000008e+00
ITEM: ATOMS id type xs ys zs
463 2 0.0473423 0.041763 0.0299556
465 4 0.0567346 0.0649233 0.0292057
464 4 0.03795 0.0186027 0.0307054
1666 2 0.0720319 0.0113334 0.0730476
1668 4 0.0499894 0.00301617 0.081422
1667 4 0.0940744 0.0196505 0.0646732
532 2 0.198685 0.0567793 0.000317407
534 4 0.199605 0.0667105 0.0232456
490 2 0.275234 0.053565 0.0405267
491 4 0.282256 0.0581017 0.0640911
492 4 0.268211 0.0490282 0.0169624
295 2 0.355239 0.0535467 0.0815404
296 4 0.368153 0.0347296 0.0713259
557 4 0.37044 0.0821912 0.0303236
745 2 0.454787 0.0602843 0.035818
746 4 0.441711 0.0762866 0.0498938
747 4 0.467863 0.044282 0.0217422
2975 4 0.479717 0.056978 0.013932
589 2 0.0358551 0.124505 0.0760524
590 4 0.018076 0.138928 0.0659985
3233 4 0.0161464 0.139571 0.0160528
701 4 0.0850609 0.0871627 0.0423162
700 2 0.0923154 0.0840841 0.0660453
422 4 0.136528 0.122435 0.0122106
565 2 0.20855 0.115058 0.0406928
566 4 0.202678 0.104595 0.0187561
567 4 0.214423 0.125521 0.0626294
358 2 0.280242 0.140041 0.0295626
359 4 0.286622 0.132883 0.00647082
360 4 0.273862 0.1472 0.0526544
556 2 0.374829 0.101158 0.0460137
558 4 0.379219 0.120124 0.0617038
553 2 0.0500904 0.216966 0.0220401
555 4 0.046776 0.192189 0.0214926
554 4 0.0534049 0.241743 0.0225875
571 2 0.326128 0.228909 0.0513322
573 4 0.303717 0.239179 0.0555129
666 4 0.316246 0.22027 0.014061
572 4 0.348538 0.218639 0.0471515
1071 4 0.392504 0.243851 0.0171809
324 4 0.398192 0.236305 0.0740816
255 4 0.364008 0.178196 0.0829476
771 4 0.445901 0.197664 0.0455738
770 4 0.485499 0.171196 0.0608099
769 2 0.4657 0.18443 0.0531919
322 2 0.418568 0.24996 0.0789315
1014 4 0.482098 0.190149 0.000114012
292 2 0.138588 0.317819 0.0204092
294 4 0.116522 0.316996 0.0086799
293 4 0.160654 0.318642 0.0321385
483 4 0.226504 0.29628 0.0593624
505 2 0.181716 0.279572 0.0423821
507 4 0.17101 0.301073 0.0354358
506 4 0.192423 0.258071 0.0493284
481 2 0.24629 0.308472 0.0501403
357 4 0.268061 0.267466 0.99991
482 4 0.266076 0.320664 0.0409183
1069 2 0.407211 0.263819 0.0139961
1070 4 0.421919 0.283787 0.0108114
281 4 0.4689 0.329907 0.0508477
323 4 0.438944 0.263616 0.0837814
671 4 0.467624 0.330817 0.0715826
330 4 0.0134454 0.384916 0.0202492
621 4 0.00445218 0.350822 0.0809383
454 2 0.121776 0.368707 0.0791257
455 4 0.12526 0.371643 0.0545409
287 4 0.176917 0.358735 0.0188723
288 4 0.17117 0.408399 0.0199604
286 2 0.174043 0.383567 0.0194164
252 4 0.27973 0.364911 0.0345882
250 2 0.284838 0.389385 0.0341897
251 4 0.289945 0.413858 0.0337911
956 4 0.37849 0.344734 0.00313047
280 2 0.465089 0.331858 0.0262133
282 4 0.461279 0.333809 0.00157895
552 4 0.0627978 0.420647 0.0701552
550 2 0.0603496 0.442094 0.0575366
551 4 0.0579014 0.46354 0.0449179
315 4 0.0164501 0.442116 0.0658567
241 2 0.165785 0.494033 0.0770929
242 4 0.149324 0.498029 0.0587021
245 4 0.229961 0.446839 0.0195103
244 2 0.251916 0.454862 0.0283877
246 4 0.273871 0.462884 0.0372651
272 4 0.286122 0.470197 0.0221853
271 2 0.296278 0.488319 0.0082709
524 4 0.348374 0.497645 0.0766473
564 4 0.440977 0.491821 0.0471994
227 4 0.481593 0.435026 0.0421479
562 2 0.449053 0.484357 0.024744
563 4 0.45713 0.476893 0.00228861
226 2 0.496821 0.454844 0.042877
16 1 0.058746 0.057707 0.168755
19 3 0.0642035 0.0414351 0.15314
20 3 0.0709367 0.076557 0.16492
17 3 0.0363599 0.062641 0.16684
702 4 0.0995699 0.0810055 0.0897745
448 2 0.16013 0.0717333 0.133862
450 4 0.15346 0.0484793 0.140182
652 2 0.311072 0.0326796 0.141813
654 4 0.290156 0.0288859 0.154979
653 4 0.331987 0.0364732 0.128648
297 4 0.342326 0.0723638 0.0917548
1760 4 0.490127 0.012591 0.151294
758 4 0.426623 0.0623975 0.167372
591 4 0.0536342 0.110083 0.0861064
476 4 0.138661 0.157651 0.100649
449 4 0.1668 0.0949874 0.127542
237 4 0.160982 0.148539 0.146351
475 2 0.1263 0.160763 0.122159
477 4 0.113939 0.163875 0.143669
235 2 0.172125 0.127369 0.13908
236 4 0.183267 0.1062 0.131808
693 4 0.242185 0.0964701 0.162438
582 4 0.296042 0.10702 0.147537
628 2 0.420331 0.165075 0.13312
629 4 0.435995 0.155036 0.149824
380 4 0.0105019 0.165551 0.145748
737 4 0.183887 0.214465 0.115113
736 2 0.199823 0.195273 0.113417
738 4 0.215759 0.17608 0.111722
354 4 0.258234 0.213954 0.112264
284 4 0.266394 0.212033 0.152523
352 2 0.267884 0.237011 0.111615
460 2 0.328718 0.20114 0.0992051
461 4 0.306649 0.211472 0.10481
462 4 0.350786 0.190809 0.0935997
630 4 0.404667 0.175114 0.116415
254 4 0.399641 0.193826 0.11436
253 2 0.381825 0.186011 0.0986538
517 2 0.48878 0.244733 0.101862
518 4 0.475355 0.224708 0.108491
337 2 0.0937531 0.253136 0.14934
339 4 0.0931631 0.266928 0.128492
353 4 0.277534 0.260069 0.110966
754 2 0.27929 0.298327 0.122676
755 4 0.275599 0.273833 0.126086
756 4 0.28298 0.32282 0.119267
741 4 0.327846 0.311507 0.0957566
278 4 0.268263 0.269932 0.156906
622 2 0.388055 0.273755 0.138969
624 4 0.375262 0.261787 0.15681
739 2 0.345953 0.327384 0.102483
623 4 0.400848 0.285722 0.121128
528 4 0.462824 0.255383 0.165733
672 4 0.42806 0.321607 0.100748
670 2 0.447842 0.326212 0.0861654
619 2 0.0240029 0.350956 0.0965245
620 4 0.0435537 0.351089 0.112111
456 4 0.118291 0.36577 0.10371
537 4 0.146315 0.353905 0.150213
535 2 0.167198 0.353396 0.163955
626 4 0.22098 0.397613 0.119614
609 4 0.296883 0.372892 0.0936714
608 4 0.33008 0.410289 0.0933556
607 2 0.313482 0.39159 0.0935135
612 4 0.289782 0.355576 0.145679
610 2 0.27446 0.342871 0.160811
740 4 0.36406 0.34326 0.10921
387 4 0.338763 0.387728 0.142701
15 3 0.39832 0.343197 0.140915
385 2 0.353284 0.375936 0.12611
386 4 0.367805 0.364145 0.109518
11 1 0.412108 0.360392 0.146646
14 3 0.411165 0.37702 0.130489
12 3 0.433714 0.352627 0.148073
495 4 0.428204 0.385701 0.125008
2652 4 0.497553 0.351949 0.104868
493 2 0.436071 0.409306 0.122534
313 2 0.013275 0.450667 0.089137
314 4 0.0101 0.459218 0.112417
243 4 0.182247 0.490037 0.0954838
625 2 0.223199 0.421874 0.113984
627 4 0.225418 0.446134 0.108355
639 4 0.249799 0.495666 0.122115
637 2 0.255636 0.487515 0.145021
525 4 0.323519 0.476142 0.114338
523 2 0.335947 0.486893 0.0954926
658 2 0.371115 0.460867 0.15331
659 4 0.356948 0.475788 0.139102
660 4 0.385281 0.445947 0.167518
494 4 0.443938 0.43291 0.12006
18 3 0.0628835 0.0498263 0.190184
1422 4 0.00242306 0.0289984 0.178533
579 4 0.0798851 0.0831839 0.221533
1420 2 0.00947207 0.00644959 0.186721
673 2 0.129656 0.0434395 0.227167
674 4 0.153365 0.0438568 0.219238
675 4 0.105947 0.0430223 0.235096
1505 4 0.216146 0.0347747 0.173447
689 4 0.212501 0.0276406 0.227218
1504 2 0.231487 0.0150576 0.174482
688 2 0.214004 0.0183802 0.250395
1784 4 0.388923 0.00323498 0.181224
21 1 0.372611 0.0588008 0.230718
23 3 0.368679 0.0376136 0.239323
24 3 0.354059 0.07231 0.234143
25 3 0.377212 0.0574158 0.208457
759 4 0.396419 0.0532849 0.206172
22 3 0.390643 0.0680266 0.241622
757 2 0.411521 0.0578412 0.186772
742 2 0.448755 0.0580161 0.232975
743 4 0.464044 0.0777835 0.233788
744 4 0.433466 0.0382487 0.232161
379 2 0.0244027 0.162702 0.166335
381 4 0.0383035 0.159852 0.186923
511 2 0.0320106 0.15458 0.223121
513 4 0.0400529 0.148613 0.246031
512 4 0.0239683 0.160548 0.20021
577 2 0.0945824 0.102918 0.217091
578 4 0.10928 0.122652 0.212649
692 4 0.217546 0.0956099 0.205946
723 4 0.180896 0.0952072 0.21982
691 2 0.229866 0.09604 0.184192
721 2 0.173962 0.110698 0.23818
580 2 0.28459 0.111008 0.169403
581 4 0.273138 0.114996 0.191269
30 3 0.301475 0.149256 0.219314
26 1 0.310516 0.130851 0.229223
28 3 0.299684 0.111728 0.221782
27 3 0.33279 0.129423 0.223659
312 4 0.416491 0.108921 0.163944
310 2 0.431624 0.110805 0.183759
311 4 0.446758 0.112689 0.203574
395 4 0.0467345 0.241599 0.221699
338 4 0.0943432 0.239344 0.170187
363 4 0.0905049 0.246856 0.188149
283 2 0.261493 0.201154 0.174496
285 4 0.256593 0.190276 0.19647
764 4 0.379433 0.22141 0.176509
763 2 0.392751 0.226773 0.19698
765 4 0.406069 0.232137 0.21745
520 2 0.476472 0.213439 0.241548
521 4 0.458295 0.196352 0.239874
522 4 0.494649 0.230526 0.243222
396 4 0.0042699 0.265769 0.232342
394 2 0.0255022 0.253684 0.22702
370 2 0.161184 0.260853 0.223685
361 2 0.104901 0.261988 0.201895
362 4 0.119297 0.277119 0.215642
372 4 0.139091 0.271443 0.218693
300 4 0.121026 0.31983 0.229515
371 4 0.183278 0.250263 0.228677
279 4 0.231456 0.296776 0.177529
277 2 0.249859 0.283354 0.167217
343 2 0.257159 0.284236 0.242352
344 4 0.279732 0.280559 0.232247
307 2 0.30857 0.280593 0.213128
309 4 0.297438 0.296227 0.197103
308 4 0.319702 0.264958 0.229153
611 4 0.259139 0.330165 0.175943
526 2 0.484559 0.267161 0.169478
647 4 0.0652447 0.379733 0.181778
263 4 0.0616007 0.414025 0.197332
298 2 0.125478 0.341662 0.240859
648 4 0.107754 0.35404 0.175987
646 2 0.0864992 0.366887 0.178883
417 4 0.144124 0.413711 0.186456
536 4 0.18808 0.352887 0.177697
303 4 0.3354 0.378906 0.186573
13 3 0.40586 0.369016 0.167262
301 2 0.338675 0.403518 0.183621
597 4 0.482456 0.392683 0.175474
643 2 0.454587 0.374946 0.196004
644 4 0.445816 0.362463 0.215813
645 4 0.463358 0.38743 0.176194
447 4 0.45226 0.361906 0.234704
262 2 0.0431106 0.417549 0.21379
264 4 0.0246205 0.421074 0.230248
415 2 0.161682 0.430997 0.182203
416 4 0.179241 0.448282 0.177949
291 4 0.190582 0.43646 0.190623
289 2 0.213211 0.438998 0.200952
290 4 0.235839 0.441536 0.211281
768 4 0.237581 0.472436 0.226978
766 2 0.248207 0.480522 0.205839
638 4 0.261473 0.479364 0.167927
767 4 0.258832 0.488608 0.184699
302 4 0.341949 0.42813 0.18067
229 2 0.399943 0.493045 0.225672
231 4 0.384785 0.479135 0.211462
232 2 0.00912353 0.0507294 0.296245
233 4 0.000974556 0.0284146 0.288446
1402 2 0.0676563 0.016159 0.267665
1403 4 0.0707116 0.0396219 0.275748
234 4 0.0172725 0.0730443 0.304044
690 4 0.215507 0.00911984 0.273571
248 4 0.223268 0.0767512 0.308995
1701 4 0.239114 0.0115158 0.33087
1699 2 0.251584 0.00331327 0.31081
478 2 0.471088 0.0298617 0.312307
480 4 0.468155 0.0066225 0.30356
351 4 0.437906 0.0595519 0.293917
479 4 0.474021 0.053101 0.321054
349 2 0.449918 0.0814416 0.295241
529 2 0.0235069 0.136967 0.281084
530 4 0.0387939 0.151008 0.295025
531 4 0.00821988 0.122927 0.267143
731 4 0.152026 0.100841 0.320884
546 4 0.161829 0.145211 0.256527
722 4 0.167027 0.12619 0.25654
392 4 0.107369 0.160381 0.273289
544 2 0.157911 0.168038 0.265947
249 4 0.238466 0.124265 0.305504
247 2 0.230867 0.100508 0.307249
403 2 0.235135 0.160034 0.298248
600 4 0.18703 0.144529 0.331643
29 3 0.30864 0.132551 0.252288
404 4 0.250475 0.140575 0.3016
632 4 0.334303 0.108256 0.297452
631 2 0.357573 0.106897 0.306499
633 4 0.380843 0.105538 0.315546
333 4 0.430029 0.113547 0.259041
331 2 0.450213 0.127946 0.262272
332 4 0.470397 0.142345 0.265503
350 4 0.461929 0.103331 0.296565
762 4 0.467756 0.163166 0.265092
444 4 0.0246069 0.242244 0.311019
391 2 0.101723 0.184735 0.273704
393 4 0.0960769 0.20909 0.274119
545 4 0.153992 0.190866 0.275368
405 4 0.219795 0.179492 0.294896
706 2 0.319753 0.186913 0.303224
708 4 0.312358 0.179268 0.325852
707 4 0.327148 0.194558 0.280596
418 2 0.428226 0.23042 0.294708
419 4 0.431316 0.205837 0.298068
761 4 0.47523 0.177525 0.312407
760 2 0.471493 0.170346 0.288749
443 4 0.0169384 0.261511 0.265513
750 4 0.060062 0.289754 0.255201
442 2 0.0207726 0.251877 0.288266
390 4 0.0854842 0.270154 0.321356
748 2 0.0849364 0.287592 0.253873
749 4 0.109811 0.285429 0.252544
345 4 0.234586 0.287913 0.252458
400 2 0.200248 0.270527 0.314395
402 4 0.220795 0.259425 0.323324
401 4 0.179701 0.28163 0.305465
676 2 0.168148 0.328727 0.330717
496 2 0.296156 0.302344 0.291036
497 4 0.318633 0.297115 0.300661
498 4 0.273679 0.307572 0.281412
543 4 0.400244 0.29949 0.3171
615 4 0.363224 0.308598 0.315509
613 2 0.367145 0.333236 0.317167
420 4 0.425135 0.255003 0.291348
541 2 0.419883 0.306071 0.303095
542 4 0.439522 0.312653 0.289089
364 2 0.0103964 0.336938 0.285147
365 4 0.0259292 0.338292 0.304694
602 4 0.067162 0.394427 0.286358
299 4 0.12993 0.363495 0.252204
601 2 0.0882411 0.382992 0.293436
603 4 0.10932 0.371558 0.300514
734 4 0.148594 0.36224 0.259514
733 2 0.163949 0.354532 0.27768
677 4 0.182832 0.336317 0.311956
735 4 0.179303 0.346823 0.295846
509 4 0.237945 0.354221 0.329885
727 2 0.330209 0.383241 0.268499
728 4 0.320932 0.401455 0.2829
433 2 0.314497 0.402857 0.334548
729 4 0.339486 0.365027 0.254098
614 4 0.371067 0.357874 0.318825
434 4 0.336152 0.411521 0.32554
445 2 0.448583 0.379376 0.252209
446 4 0.444907 0.396847 0.269714
1757 4 0.0727145 0.500095 0.256445
777 4 0.0754635 0.460165 0.283585
549 4 0.0439273 0.438439 0.325865
775 2 0.0923852 0.458182 0.301885
776 4 0.109307 0.456199 0.320185
414 4 0.15562 0.470553 0.263622
412 2 0.158131 0.464391 0.287724
413 4 0.160642 0.458229 0.311826
436 2 0.292927 0.441962 0.272514
437 4 0.308101 0.438494 0.252946
438 4 0.277752 0.44543 0.292081
713 4 0.412762 0.456113 0.292234
712 2 0.435657 0.465718 0.289273
714 4 0.458551 0.475324 0.286313
316 2 0.0371177 0.0680722 0.358588
317 4 0.0237339 0.0548322 0.375043
318 4 0.0505014 0.0813122 0.342133
428 4 0.0727684 0.048228 0.369464
427 2 0.0815512 0.0291763 0.35586
429 4 0.090334 0.0101245 0.342256
732 4 0.130022 0.0805941 0.360966
606 4 0.165075 0.0513062 0.374621
604 2 0.187848 0.0481752 0.364783
605 4 0.210621 0.0450441 0.354946
441 4 0.256122 0.0331145 0.412806
439 2 0.266694 0.0105869 0.410372
683 4 0.290691 0.057898 0.381195
682 2 0.28397 0.0789326 0.392923
698 4 0.390396 0.0399191 0.331904
697 2 0.369149 0.0282138 0.337963
699 4 0.347902 0.0165085 0.344023
256 2 0.416366 0.0511079 0.360799
257 4 0.394285 0.0504466 0.349087
258 4 0.438447 0.0517693 0.372511
426 4 0.417724 0.0436455 0.407513
398 4 0.0710277 0.143673 0.338539
730 2 0.141024 0.0907173 0.340925
397 2 0.089448 0.12685 0.336847
399 4 0.107868 0.110027 0.335155
687 4 0.130117 0.144084 0.410678
685 2 0.153293 0.151871 0.415914
598 2 0.189535 0.153886 0.354694
599 4 0.19204 0.163244 0.377744
684 4 0.277249 0.0999672 0.404651
467 4 0.370312 0.156705 0.407762
451 2 0.472712 0.139833 0.382291
453 4 0.449283 0.147775 0.378656
514 2 0.429216 0.145229 0.414626
515 4 0.44741 0.149246 0.397952
452 4 0.49614 0.13189 0.385926
2654 4 0.0262268 0.204801 0.357314
474 4 0.243632 0.196771 0.382268
274 2 0.20605 0.238318 0.391773
276 4 0.230935 0.23593 0.392233
275 4 0.181165 0.240705 0.391314
472 2 0.250953 0.194173 0.358502
473 4 0.258274 0.191575 0.334735
488 4 0.278651 0.227119 0.383085
487 2 0.295363 0.238413 0.397861
715 2 0.35583 0.238788 0.366308
716 4 0.336111 0.225958 0.374778
616 2 0.0747472 0.326979 0.367694
618 4 0.0567225 0.314387 0.3796
347 4 0.0552212 0.313903 0.400411
346 2 0.0530391 0.29253 0.413203
389 4 0.125523 0.262025 0.350192
388 2 0.105503 0.26609 0.335774
678 4 0.153464 0.321138 0.349478
375 4 0.177267 0.315837 0.392048
373 2 0.196068 0.320141 0.40796
510 4 0.227401 0.316675 0.361187
508 2 0.232673 0.335448 0.345536
376 2 0.28423 0.295584 0.350666
377 4 0.308859 0.291492 0.352033
378 4 0.259602 0.299676 0.3493
489 4 0.312074 0.249707 0.412637
717 4 0.375548 0.251618 0.357837
268 2 0.490578 0.260142 0.397702
270 4 0.465871 0.262393 0.400811
408 4 0.0657891 0.405023 0.418394
406 2 0.0735158 0.407336 0.394727
407 4 0.0812426 0.409649 0.37106
617 4 0.0927718 0.33957 0.355789
502 2 0.231438 0.397954 0.411693
503 4 0.247133 0.415045 0.40238
435 4 0.292841 0.394192 0.343556
336 4 0.366822 0.358534 0.404295
561 4 0.447516 0.391262 0.404966
752 4 0.447169 0.391078 0.384127
751 2 0.43865 0.410658 0.37112
548 4 0.0790631 0.426416 0.359356
547 2 0.0614952 0.432428 0.34261
680 4 0.0443621 0.462093 0.416641
499 2 0.113706 0.472418 0.37542
500 4 0.115029 0.490281 0.357975
501 4 0.112384 0.454554 0.392865
570 4 0.173993 0.466727 0.409758
5 3 0.311531 0.444385 0.361459
1 1 0.325535 0.45689 0.374349
2 3 0.315177 0.476702 0.379768
4 3 0.330597 0.445478 0.393908
3 3 0.345013 0.461567 0.362639
594 4 0.372712 0.482535 0.346661
592 2 0.39544 0.49273 0.344496
753 4 0.430131 0.430239 0.358112
2237 4 0.0711815 0.00940876 0.497256
718 2 0.0528517 0.0684083 0.473053
720 4 0.0343338 0.0519546 0.469656
367 2 0.133361 0.0609246 0.457423
369 4 0.146273 0.0641828 0.478585
368 4 0.120448 0.0576664 0.436261
342 4 0.191027 0.0717092 0.490423
340 2 0.192968 0.0468182 0.491782
341 4 0.194909 0.0219271 0.493141
1181 4 0.238729 0.0552511 0.494047
2430 4 0.210271 0.00914407 0.49552
724 2 0.33333 0.0823587 0.440796
726 4 0.310001 0.0751657 0.435392
424 2 0.395196 0.039496 0.417534
425 4 0.372667 0.0353465 0.427555
719 4 0.0713696 0.0848619 0.47645
457 2 0.00329996 0.155213 0.436543
458 4 0.0107104 0.131894 0.441691
686 4 0.176469 0.159657 0.421149
1180 2 0.248041 0.0783883 0.492275
321 4 0.279191 0.150634 0.425337
319 2 0.274689 0.126062 0.424263
320 4 0.270187 0.101491 0.42319
468 4 0.328022 0.161997 0.433919
1182 4 0.257353 0.101525 0.490502
466 2 0.349167 0.159351 0.420841
725 4 0.356659 0.0895518 0.446201
574 2 0.391902 0.158943 0.459779
575 4 0.396019 0.153618 0.435698
516 4 0.411022 0.141213 0.431301
2878 2 0.488558 0.0902765 0.458778
642 4 0.465877 0.121974 0.468589
2880 4 0.47191 0.103845 0.471582
640 2 0.47174 0.132023 0.490721
469 2 0.0214822 0.178303 0.494366
470 4 0.0292069 0.201244 0.488104
260 4 0.096691 0.223204 0.427688
261 4 0.100391 0.189866 0.464776
259 2 0.098541 0.206535 0.446232
1035 4 0.115876 0.176257 0.469623
1033 2 0.115557 0.176943 0.494615
695 4 0.105067 0.229415 0.489577
411 4 0.271681 0.20366 0.48727
409 2 0.295023 0.198744 0.479777
410 4 0.318366 0.193827 0.472284
576 4 0.387785 0.164269 0.483859
267 4 0.341502 0.246043 0.445836
306 4 0.489294 0.218489 0.422252
304 2 0.489792 0.194557 0.429478
305 4 0.49029 0.170625 0.436703
348 4 0.0508571 0.271158 0.425996
327 4 0.120668 0.32154 0.480707
694 2 0.109272 0.253942 0.487143
696 4 0.113478 0.278469 0.48471
325 2 0.102996 0.321157 0.463024
326 4 0.085323 0.320773 0.44534
10 3 0.162974 0.321611 0.478455
374 4 0.214868 0.324444 0.423872
651 4 0.257162 0.27451 0.447262
649 2 0.262424 0.297854 0.454513
650 4 0.267687 0.321197 0.461764
265 2 0.347899 0.266517 0.432988
266 4 0.354297 0.286991 0.42014
812 4 0.351124 0.302637 0.485291
583 2 0.471477 0.285123 0.475272
584 4 0.488988 0.268834 0.467976
585 4 0.453967 0.301412 0.482569
6 1 0.157174 0.334246 0.496493
7 3 0.142451 0.350625 0.489851
711 4 0.161498 0.376229 0.472683
504 4 0.215743 0.380863 0.421006
709 2 0.181222 0.382303 0.458569
710 4 0.200947 0.388378 0.444454
668 4 0.320836 0.417821 0.433027
334 2 0.357687 0.367632 0.425718
238 2 0.377191 0.382111 0.474228
240 4 0.361445 0.389858 0.456417
335 4 0.348553 0.376731 0.447142
239 4 0.392936 0.374364 0.492039
559 2 0.461387 0.375181 0.418163
560 4 0.475259 0.359099 0.431359
1383 4 0.0293529 0.492785 0.429658
681 4 0.0404131 0.41857 0.44095
679 2 0.0423876 0.440332 0.428795
383 4 0.0746619 0.430759 0.443711
935 4 0.00301199 0.420812 0.48402
539 4 0.0734323 0.467254 0.498978
540 4 0.115995 0.493248 0.495313
568 2 0.157615 0.462341 0.428134
569 4 0.141237 0.457955 0.446511
382 2 0.0858511 0.432645 0.465991
384 4 0.0970403 0.434532 0.488272
538 2 0.0947136 0.480251 0.497146
636 4 0.237479 0.449921 0.428384
634 2 0.240058 0.443536 0.452421
635 4 0.242638 0.437151 0.476457
774 4 0.246783 0.419111 0.485129
667 2 0.310554 0.431042 0.451593
669 4 0.300273 0.444262 0.470159
586 2 0.412025 0.430103 0.433376
588 4 0.394679 0.421084 0.417788
663 4 0.448306 0.482131 0.473752
661 2 0.45849 0.474395 0.495237
1332 4 0.499161 0.493834 0.49806
587 4 0.42937 0.439121 0.448964
1126 2 0.0416133 0.0593364 0.528748
1127 4 0.0399489 0.0348714 0.523862
2238 4 0.025457 0.00309352 0.516494
2236 2 0.0483193 0.00625114 0.506875
1058 4 0.132348 0.0789791 0.557182
1057 2 0.142638 0.0744482 0.579515
1030 2 0.238504 0.0742024 0.564812
961 2 0.283004 0.0360408 0.522112
963 4 0.285388 0.0600007 0.515374
962 4 0.280619 0.0120808 0.528851
432 4 0.293243 0.0784343 0.509988
1032 4 0.247907 0.0734274 0.541657
1217 4 0.401161 0.0498537 0.549562
1216 2 0.398095 0.0358842 0.570072
841 2 0.375304 0.0793126 0.53945
842 4 0.39293 0.0674775 0.552657
1060 2 0.492286 0.0184882 0.536265
1062 4 0.468722 0.0247493 0.53072
1128 4 0.0432777 0.0838015 0.533633
938 4 0.0707874 0.132288 0.534952
471 4 0.0137574 0.155361 0.500627
937 2 0.0951162 0.127712 0.538466
939 4 0.119445 0.123136 0.541979
1154 4 0.163266 0.15491 0.578444
1151 4 0.189952 0.137418 0.516245
1150 2 0.191605 0.113651 0.508656
1152 4 0.193258 0.0898846 0.501067
430 2 0.317569 0.0834674 0.512834
899 4 0.325826 0.141931 0.536294
843 4 0.357677 0.0911477 0.526244
431 4 0.341895 0.0885005 0.51568
641 4 0.477603 0.142071 0.512853
877 2 0.0730637 0.21605 0.572217
878 4 0.0534097 0.229144 0.564005
1199 4 0.00583789 0.200031 0.55169
1034 4 0.115238 0.177629 0.519607
879 4 0.0927178 0.202955 0.580429
1272 4 0.104742 0.219758 0.57999
856 2 0.229892 0.223404 0.544438
858 4 0.240555 0.210137 0.562754
1221 4 0.190598 0.188745 0.576573
857 4 0.219229 0.236671 0.526123
791 4 0.317731 0.239209 0.571754
898 2 0.327611 0.166381 0.531375
900 4 0.329395 0.190831 0.526457
871 2 0.415867 0.252145 0.514871
3065 4 0.499506 0.235588 0.534067
3159 4 0.497982 0.167476 0.552772
872 4 0.430037 0.232861 0.507627
983 4 0.0421222 0.320047 0.557462
1258 2 0.15103 0.283352 0.545905
1260 4 0.126358 0.283613 0.54996
9 3 0.146889 0.320955 0.512492
1259 4 0.175701 0.283091 0.54185
792 4 0.312386 0.288498 0.578289
790 2 0.315058 0.263854 0.575021
813 4 0.340425 0.296458 0.533748
873 4 0.401697 0.27143 0.522116
811 2 0.345775 0.299547 0.50952
954 4 0.453194 0.28903 0.574976
982 2 0.0265987 0.335569 0.569432
8 3 0.176037 0.34432 0.505498
1189 2 0.227718 0.370214 0.576898
773 4 0.217642 0.391994 0.515398
1190 4 0.248345 0.370947 0.562784
772 2 0.232212 0.405553 0.500264
802 2 0.281848 0.348447 0.552147
803 4 0.28866 0.345028 0.575961
804 4 0.275036 0.351865 0.528333
928 2 0.369946 0.376502 0.565551
929 4 0.368816 0.389026 0.54394
925 2 0.458706 0.393054 0.537658
927 4 0.467843 0.393267 0.560931
926 4 0.449569 0.39284 0.514384
1161 4 0.157427 0.449868 0.546333
1159 2 0.166993 0.446683 0.569214
1171 2 0.23361 0.448821 0.5668
1173 4 0.220775 0.464687 0.552352
1172 4 0.246445 0.432956 0.581247
882 4 0.326435 0.465927 0.546492
880 2 0.349292 0.474824 0.541634
881 4 0.372149 0.483721 0.536776
1952 4 0.36691 0.468768 0.584597
1002 4 0.403639 0.431343 0.581897
1000 2 0.425096 0.441957 0.574679
1001 4 0.446553 0.452571 0.567461
662 4 0.468674 0.466659 0.516723
1909 2 0.449705 0.497457 0.563123
1911 4 0.425498 0.496558 0.569322
1185 4 0.00988644 0.0529232 0.653096
2319 4 0.0561214 0.00180004 0.653479
1059 4 0.152928 0.0699172 0.601848
825 4 0.137496 0.045059 0.640489
823 2 0.153581 0.0259457 0.639425
824 4 0.169666 0.00683235 0.638362
1031 4 0.229101 0.0749773 0.587967
949 2 0.262386 0.0239812 0.608246
951 4 0.249401 0.0421646 0.597023
950 4 0.27537 0.00579789 0.619468
1005 4 0.331842 0.0752092 0.649315
1218 4 0.395029 0.0219147 0.590581
809 4 0.473021 0.0716147 0.604943
808 2 0.461558 0.0799197 0.625554
1083 4 0.0639102 0.0959249 0.60441
1082 4 0.0537063 0.0857427 0.652294
1076 4 0.0389281 0.0893029 0.666323
1081 2 0.0588083 0.0908338 0.628352
1153 2 0.146403 0.141548 0.591182
1155 4 0.129539 0.128187 0.60392
909 4 0.133627 0.159393 0.656769
1284 4 0.174025 0.0974196 0.628049
1283 4 0.217198 0.122084 0.62271
1282 2 0.195612 0.109752 0.62538
810 4 0.450096 0.0882248 0.646165
1270 2 0.126508 0.214637 0.591178
1271 4 0.148275 0.209515 0.602366
1209 4 0.0854355 0.24719 0.663393
1210 2 0.236205 0.183548 0.652415
1212 4 0.216661 0.175505 0.639055
1219 2 0.198638 0.18624 0.600116
1220 4 0.206678 0.183735 0.623658
796 2 0.229711 0.240848 0.611363
798 4 0.247646 0.228393 0.623544
1211 4 0.25575 0.191591 0.665775
904 2 0.471476 0.232825 0.600702
906 4 0.450709 0.219563 0.604949
1024 2 0.429923 0.195101 0.662387
1025 4 0.441133 0.203874 0.641831
905 4 0.492243 0.246087 0.596455
1243 2 0.0518543 0.26523 0.63047
1244 4 0.0464996 0.274339 0.607809
1245 4 0.0572089 0.256121 0.653132
797 4 0.211776 0.253302 0.599181
946 2 0.18894 0.276128 0.634929
947 4 0.192298 0.254147 0.646363
948 4 0.185582 0.29811 0.623496
1238 4 0.297194 0.291903 0.590979
1239 4 0.303829 0.332387 0.619576
1237 2 0.300512 0.312145 0.605278
952 2 0.458896 0.305311 0.593076
953 4 0.464598 0.321591 0.611176
984 4 0.0110751 0.351091 0.581401
1040 4 0.0757391 0.404293 0.635571
1039 2 0.0569861 0.394102 0.622547
1041 4 0.0382332 0.38391 0.609522
1137 4 0.108756 0.389833 0.587078
897 4 0.158067 0.40134 0.587826
1136 4 0.127206 0.348529 0.608392
1135 2 0.117981 0.369181 0.597735
992 4 0.129777 0.410695 0.63278
991 2 0.106085 0.415408 0.639237
1191 4 0.207092 0.36948 0.591012
896 4 0.19791 0.377172 0.605969
895 2 0.177988 0.389256 0.596897
806 4 0.334503 0.349481 0.656747
930 4 0.371076 0.363977 0.587162
1204 2 0.403234 0.405657 0.635013
1206 4 0.378692 0.410082 0.633201
1205 4 0.427776 0.401231 0.636826
993 4 0.082394 0.420122 0.645693
1187 4 0.212482 0.485007 0.609484
1160 4 0.176559 0.443499 0.592095
1186 2 0.216233 0.499005 0.629859
889 2 0.320178 0.454617 0.600428
891 4 0.295195 0.455073 0.601344
890 4 0.34516 0.454161 0.599512
1951 2 0.37205 0.491554 0.593517
1267 2 0.444848 0.480367 0.661572
1269 4 0.424132 0.46824 0.654572
944 4 0.058985 0.0530827 0.684661
943 2 0.0774209 0.0376015 0.677906
945 4 0.0958568 0.0221203 0.671152
1147 2 0.215555 0.0694661 0.727693
1149 4 0.211791 0.0450404 0.731487
1091 4 0.352906 0.0112723 0.700544
1163 4 0.46632 0.033641 0.66914
1162 2 0.484353 0.0405197 0.685036
1164 4 0.502386 0.0473983 0.700933
42 3 0.449691 0.0744044 0.702318
2320 2 0.483428 0.00252409 0.747842
2283 4 0.435518 0.00369564 0.679586
862 2 0.0503963 0.129346 0.737734
864 4 0.0474557 0.126384 0.713081
1075 2 0.0422078 0.0981242 0.689487
1077 4 0.0454876 0.106946 0.712652
907 2 0.145226 0.148963 0.67631
908 4 0.156824 0.138532 0.695852
1148 4 0.219319 0.0938917 0.723898
1225 2 0.190187 0.12402 0.717999
1226 4 0.205402 0.108578 0.730458
1227 4 0.174973 0.139463 0.705539
829 2 0.328321 0.15144 0.719398
1003 2 0.33549 0.0852464 0.671923
831 4 0.337522 0.129315 0.726538
1004 4 0.339139 0.0952835 0.694531
43 3 0.417342 0.0923192 0.709044
45 3 0.425963 0.0808348 0.674238
41 1 0.434418 0.0892537 0.693636
1142 4 0.42129 0.146408 0.707042
44 3 0.44509 0.109442 0.689517
851 4 0.0735607 0.168683 0.708627
852 4 0.0262939 0.180005 0.696864
850 2 0.0499273 0.174344 0.702745
1213 2 0.0175483 0.220327 0.743706
1107 4 0.0762649 0.18731 0.712688
1178 4 0.0108948 0.242176 0.72089
1105 2 0.0883554 0.19494 0.733201
1207 2 0.105632 0.24721 0.678134
1277 4 0.204872 0.238237 0.741643
1129 2 0.195804 0.195392 0.749818
1131 4 0.198373 0.220126 0.747206
830 4 0.31912 0.173566 0.712258
886 2 0.293896 0.19089 0.689357
888 4 0.27531 0.190337 0.672641
887 4 0.312482 0.191443 0.706073
976 2 0.290468 0.196982 0.742962
978 4 0.281708 0.174603 0.736061
1193 4 0.368145 0.201248 0.670057
1143 4 0.412873 0.188358 0.732928
1192 2 0.358289 0.208324 0.691919
1194 4 0.348433 0.215399 0.713782
1298 4 0.349924 0.201986 0.744951
1141 2 0.417082 0.167383 0.719985
1026 4 0.418714 0.186327 0.682943
1261 2 0.445654 0.221173 0.719286
1263 4 0.461141 0.213266 0.701319
1262 4 0.430168 0.229079 0.737254
1177 2 0.00655513 0.262293 0.70669
1179 4 0.0022155 0.28241 0.69249
1208 4 0.125828 0.24723 0.692874
822 4 0.156981 0.279218 0.744513
820 2 0.174093 0.280299 0.726315
821 4 0.191206 0.281379 0.708118
1065 4 0.228116 0.286931 0.698305
1063 2 0.252253 0.291184 0.693356
1064 4 0.276391 0.295437 0.688408
807 4 0.317023 0.316838 0.690356
805 2 0.325763 0.333159 0.673551
3123 4 0.479626 0.274809 0.667161
3121 2 0.501414 0.265534 0.675188
892 2 0.0474066 0.377911 0.702289
893 4 0.070055 0.368996 0.708012
894 4 0.0247582 0.386826 0.696566
3276 4 0.0142563 0.377508 0.733323
940 2 0.132321 0.389924 0.729615
1067 4 0.158066 0.376459 0.695049
941 4 0.145673 0.384645 0.709146
1028 4 0.21549 0.402112 0.694455
1066 2 0.179351 0.388181 0.700944
1068 4 0.200636 0.399902 0.706838
1027 2 0.237701 0.401945 0.682975
1029 4 0.259913 0.401777 0.671495
1019 4 0.395941 0.363747 0.717636
1018 2 0.38758 0.374798 0.738448
1281 4 0.0147924 0.456657 0.696255
1280 4 0.0627623 0.447803 0.707265
1279 2 0.0387773 0.45223 0.70176
1983 4 0.0320225 0.474934 0.721144
1981 2 0.0347793 0.49447 0.736503
1176 4 0.199701 0.494318 0.714905
1139 4 0.278725 0.428497 0.740067
1138 2 0.284346 0.437242 0.717327
1140 4 0.289967 0.445987 0.694587
1228 2 0.365126 0.47561 0.7068
1229 4 0.35912 0.499685 0.703715
1230 4 0.371133 0.451536 0.709885
1268 4 0.465563 0.492494 0.668571
1100 4 0.440262 0.454328 0.700855
1099 2 0.459469 0.444209 0.713259
1101 4 0.478676 0.43409 0.725664
1295 4 0.00310316 0.0272231 0.784003
1294 2 0.00470643 0.0257459 0.808912
1203 4 0.10078 0.0754449 0.778695
1201 2 0.101743 0.0520027 0.770051
1202 4 0.102705 0.0285605 0.761407
2049 4 0.106103 0.0114941 0.754114
1255 2 0.286444 0.0548015 0.805894
1256 4 0.288564 0.0752048 0.820191
1257 4 0.284324 0.0343981 0.791598
975 4 0.371219 0.00521945 0.817076
1112 4 0.415116 0.0622809 0.812713
846 4 0.495887 0.0635065 0.757335
1113 4 0.428278 0.0256452 0.781324
844 2 0.474611 0.0537849 0.766168
1111 2 0.421697 0.043963 0.797019
845 4 0.453336 0.0440633 0.775
863 4 0.053337 0.132308 0.762387
832 2 0.0115226 0.144527 0.790445
833 4 0.035451 0.15178 0.790513
34 3 0.102928 0.13385 0.822935
31 1 0.116398 0.150326 0.813688
33 3 0.130521 0.141021 0.797803
32 3 0.129141 0.159741 0.830365
839 4 0.272288 0.126013 0.788586
838 2 0.273368 0.125118 0.813551
960 4 0.330422 0.160767 0.830589
1084 2 0.370638 0.132299 0.7827
1085 4 0.365166 0.128302 0.806768
1086 4 0.376109 0.136296 0.758632
819 4 0.366243 0.113183 0.820498
1214 4 0.0381196 0.211645 0.754959
1073 4 0.0720551 0.245381 0.784463
1106 4 0.100446 0.202569 0.753714
35 3 0.103482 0.166452 0.804108
1072 2 0.0943381 0.234148 0.782891
1074 4 0.116621 0.222915 0.781319
1130 4 0.193235 0.170658 0.75243
1276 2 0.201633 0.248557 0.764186
977 4 0.299229 0.219361 0.749864
918 4 0.309244 0.234502 0.757401
916 2 0.29273 0.245549 0.772581
47 3 0.41706 0.181916 0.793913