ITEM: TIMESTEP
1130000
ITEM: NUMBER OF ATOMS
4590
ITEM: BOX BOUNDS pp pp pp
-9.9985700000000008e+00 9.9985700000000008e+00
-9.9985700000000008e+00 9.9985700000000008e+00
-9.9985700000000008e+00 9.9985700000000008e+00
ITEM: ATOMS id type xs ys zs
463 2 0.0240441 0.0442281 0.0376762
465 4 0.0425704 0.050598 0.0532126
1667 4 0.0527881 0.0476538 0.0692276
701 4 0.0588198 0.0602774 0.0542275
590 4 0.0460569 0.0653454 0.0665799
700 2 0.0774559 0.0719301 0.0423074
589 2 0.0333002 0.0840284 0.0772286
464 4 0.00551783 0.0378581 0.0221397
702 4 0.0960919 0.0835829 0.0303872
534 4 0.234584 0.0668509 0.0114084
567 4 0.174393 0.0637493 0.0186276
533 4 0.186304 0.0548505 0.00633621
532 2 0.210444 0.0608507 0.00887231
995 4 0.168682 0.0473658 0.0086478
490 2 0.295342 0.0397612 0.063036
491 4 0.316898 0.0483968 0.0723058
492 4 0.273785 0.0311256 0.0537662
2264 4 0.27937 0.0237233 0.0356154
2263 2 0.287005 0.0135157 0.014105
557 4 0.335627 0.0534614 0.0721201
556 2 0.343395 0.0721046 0.0573801
296 4 0.329142 0.0374298 0.0824755
1606 2 0.40105 0.00777091 0.00348696
745 2 0.459257 0.0647524 0.0174307
746 4 0.461156 0.042862 0.0293632
423 4 0.0989776 0.0864608 0.0114609
421 2 0.10725 0.110048 0.0120875
422 4 0.115522 0.133635 0.0127142
566 4 0.149174 0.101743 0.0391505
565 2 0.161783 0.0827459 0.028889
558 4 0.351163 0.0907478 0.0426401
747 4 0.457358 0.0866428 0.00549825
2975 4 0.457616 0.105882 0.999671
771 4 0.44043 0.159372 0.0727876
769 2 0.452315 0.16339 0.0511592
770 4 0.4642 0.167408 0.0295308
554 4 0.0485949 0.201457 0.0286819
553 2 0.0574612 0.222698 0.0189159
555 4 0.0663274 0.243939 0.00914991
324 4 0.407598 0.228601 0.0782056
665 4 0.345104 0.247191 0.00975654
322 2 0.416498 0.251025 0.0716355
1012 2 0.493765 0.172095 0.00612652
1013 4 0.470294 0.165644 0.0118438
827 4 0.452093 0.173845 0.0162786
519 4 0.500695 0.210188 0.0557871
1055 4 0.072395 0.261045 0.00360616
836 4 0.0846496 0.246853 0.000636665
292 2 0.14078 0.283649 0.0552011
293 4 0.141689 0.305327 0.0427748
507 4 0.152539 0.320967 0.0409323
294 4 0.139872 0.261971 0.0676275
288 4 0.147214 0.308468 0.0247413
286 2 0.140745 0.309469 0.000609882
355 2 0.2353 0.257883 0.995688
357 4 0.254485 0.269091 0.00715461
664 2 0.331058 0.254447 0.0291275
666 4 0.317012 0.261704 0.0484985
572 4 0.300897 0.271667 0.0405871
571 2 0.288055 0.268832 0.0618525
461 4 0.325208 0.281163 0.0764884
1071 4 0.385596 0.310766 0.0272634
1069 2 0.396596 0.294326 0.042557
1070 4 0.407595 0.277885 0.0578506
956 4 0.374147 0.320282 0.0135391
323 4 0.425397 0.273448 0.0650655
671 4 0.449218 0.324542 0.0597312
281 4 0.466195 0.317654 0.0526624
280 2 0.45634 0.315401 0.0297935
282 4 0.446485 0.313147 0.00692464
670 2 0.437358 0.33208 0.080412
505 2 0.167839 0.338102 0.0508064
506 4 0.183138 0.355237 0.0606805
483 4 0.186803 0.36719 0.0763615
252 4 0.332677 0.381344 0.0360944
250 2 0.314292 0.369116 0.0243617
251 4 0.295908 0.356888 0.0126291
525 4 0.325787 0.395139 0.0490597
523 2 0.316388 0.414082 0.0624018
608 4 0.334866 0.379405 0.0552676
607 2 0.342937 0.366539 0.0751295
552 4 0.0775359 0.424386 0.00560607
795 4 0.14588 0.48961 0.00611133
244 2 0.276822 0.485485 0.0640519
246 4 0.273382 0.488674 0.0394923
272 4 0.286541 0.501758 0.0303893
39 3 0.397615 0.449531 0.0062909
227 4 0.483957 0.485553 0.0800581
1666 2 0.0490157 0.0286877 0.085078
1421 4 0.0397909 0.0117354 0.119553
1668 4 0.0452433 0.00972162 0.100928
1420 2 0.0332722 0.027985 0.137404
1422 4 0.0267536 0.0442346 0.155254
2480 4 0.0192121 0.0567797 0.164674
19 3 0.0373355 0.0597622 0.156669
20 3 0.0722538 0.0555731 0.170116
450 4 0.13093 0.0640613 0.168997
1506 4 0.246152 0.0420961 0.146775
652 2 0.311552 0.0614698 0.136131
653 4 0.315673 0.0369052 0.138316
295 2 0.346384 0.0277152 0.0977574
297 4 0.363626 0.0180007 0.113039
757 2 0.410765 0.0321911 0.160733
485 4 0.368205 6.22475e-05 0.106997
758 4 0.410834 0.0133009 0.144352
1759 2 0.471501 0.0160612 0.173949
1761 4 0.448196 0.0163764 0.164897
17 3 0.0595322 0.0896575 0.16179
591 4 0.0205435 0.102711 0.0878773
2760 4 0.00654388 0.115899 0.0807421
476 4 0.0951971 0.15375 0.128102
237 4 0.187616 0.138148 0.127653
235 2 0.181544 0.122903 0.146518
737 4 0.191104 0.15694 0.126937
236 4 0.175472 0.107658 0.165384
654 4 0.30743 0.0860343 0.133946
582 4 0.302832 0.0966356 0.151679
311 4 0.385087 0.110656 0.180243
629 4 0.423172 0.16663 0.0815191
339 4 0.0958833 0.2114 0.146544
477 4 0.107616 0.201802 0.13422
475 2 0.101407 0.177776 0.131161
337 2 0.105025 0.225717 0.164893
738 4 0.202531 0.205363 0.121903
736 2 0.196817 0.181152 0.12442
283 2 0.252208 0.180714 0.152566
354 4 0.261301 0.21459 0.125889
352 2 0.265002 0.23468 0.111472
284 4 0.252047 0.199645 0.136233
630 4 0.397834 0.198996 0.11
254 4 0.403187 0.214231 0.122255
253 2 0.386236 0.231133 0.115033
628 2 0.410503 0.182813 0.0957597
455 4 0.0784205 0.318232 0.154199
535 2 0.210214 0.278357 0.135922
537 4 0.200095 0.271641 0.157778
536 4 0.220334 0.285074 0.114067
573 4 0.275213 0.265996 0.0831179
353 4 0.268703 0.254771 0.0970538
754 2 0.28226 0.290533 0.116888
755 4 0.280152 0.271691 0.100587
756 4 0.284368 0.309375 0.133188
612 4 0.271633 0.318099 0.145327
460 2 0.339945 0.270712 0.0937735
255 4 0.369285 0.248035 0.107811
462 4 0.354681 0.26026 0.111059
623 4 0.340636 0.320672 0.134211
622 2 0.351532 0.301026 0.145189
624 4 0.362428 0.281381 0.156168
740 4 0.357361 0.334263 0.098012
528 4 0.473597 0.319956 0.126207
620 4 0.0287115 0.362267 0.160621
621 4 0.00643904 0.382228 0.120544
619 2 0.0175753 0.372248 0.140583
456 4 0.123467 0.334172 0.139452
454 2 0.100944 0.326202 0.146825
481 2 0.208519 0.360488 0.0867865
482 4 0.230235 0.353786 0.0972116
626 4 0.248982 0.390944 0.144115
610 2 0.289383 0.333293 0.154229
625 2 0.271652 0.394984 0.134372
627 4 0.294322 0.399024 0.124629
387 4 0.319042 0.355891 0.148134
611 4 0.307133 0.348488 0.163132
302 4 0.315113 0.365876 0.163721
385 2 0.335161 0.350621 0.12976
741 4 0.406422 0.341821 0.10406
609 4 0.351009 0.353672 0.0949913
386 4 0.35128 0.345352 0.111387
739 2 0.381891 0.338042 0.101036
13 3 0.403776 0.379984 0.128485
672 4 0.425498 0.339618 0.101093
15 3 0.427213 0.379627 0.099019
11 1 0.423031 0.370639 0.119522
526 2 0.465476 0.341753 0.135379
12 3 0.419972 0.347943 0.117364
14 3 0.441021 0.374473 0.133666
495 4 0.458492 0.379228 0.142385
493 2 0.46695 0.396882 0.126829
527 4 0.457356 0.363549 0.144552
597 4 0.468677 0.372778 0.156533
645 4 0.449203 0.376001 0.152054
494 4 0.475407 0.414537 0.111274
1787 4 0.0232896 0.4751 0.0846425
1786 2 0.0239149 0.490783 0.104107
245 4 0.280261 0.482296 0.0886116
524 4 0.306989 0.433025 0.075744
637 2 0.269097 0.4837 0.131906
638 4 0.280283 0.463754 0.142017
767 4 0.288194 0.462209 0.160058
16 1 0.0538456 0.0689816 0.170116
18 3 0.0459132 0.0715379 0.191771
673 2 0.134134 0.0230296 0.221974
675 4 0.148388 0.00724986 0.208821
448 2 0.149989 0.079484 0.173906
674 4 0.119879 0.0388093 0.235126
1505 4 0.233999 0.0704265 0.186151
1504 2 0.240076 0.0562613 0.166463
689 4 0.229615 0.0659544 0.203888
688 2 0.219976 0.0474785 0.217705
692 4 0.224934 0.0814129 0.198459
28 3 0.244182 0.0771099 0.198216
690 4 0.210337 0.0290027 0.231522
27 3 0.270093 0.0735662 0.22521
21 1 0.411779 0.0448332 0.214385
24 3 0.409963 0.0222093 0.209562
759 4 0.410697 0.0510812 0.177114
22 3 0.395111 0.050655 0.22913
1496 4 0.408249 0.00722801 0.221782
312 4 0.405709 0.0652273 0.176829
25 3 0.409517 0.0570529 0.195301
1760 4 0.494806 0.0157459 0.183002
23 3 0.432344 0.0492137 0.2242
742 2 0.460678 0.027597 0.246082
744 4 0.445493 0.0463551 0.239544
743 4 0.475862 0.00883894 0.25262
578 4 0.058128 0.152487 0.236683
511 2 0.018978 0.149069 0.239352
513 4 0.041215 0.156554 0.247992
721 2 0.160694 0.126247 0.20326
722 4 0.153316 0.138587 0.223716
546 4 0.153603 0.134485 0.242883
449 4 0.169047 0.0949067 0.178815
723 4 0.168072 0.113906 0.182804
691 2 0.205336 0.0935015 0.188714
693 4 0.185738 0.10559 0.178969
29 3 0.244237 0.100701 0.228013
285 4 0.252369 0.161783 0.168899
26 1 0.257522 0.0886817 0.213266
30 3 0.271431 0.102808 0.202057
580 2 0.296656 0.0992641 0.175765
581 4 0.290481 0.101893 0.199851
310 2 0.395398 0.0879417 0.178536
338 4 0.114166 0.240033 0.183241
309 4 0.3504 0.24732 0.232325
333 4 0.443352 0.175502 0.221955
331 2 0.454664 0.175829 0.244251
395 4 0.0189142 0.271524 0.212384
394 2 0.0238299 0.269649 0.236828
703 2 0.0132717 0.329253 0.179857
704 4 0.00771021 0.305277 0.184261
749 4 0.0704346 0.279569 0.203556
363 4 0.128423 0.253675 0.181475
361 2 0.153284 0.256331 0.181233
748 2 0.0820261 0.295655 0.218788
750 4 0.0936177 0.311742 0.234021
362 4 0.178145 0.258987 0.180991
372 4 0.194716 0.268969 0.17762
370 2 0.215849 0.270773 0.190861
371 4 0.236982 0.272577 0.204101
279 4 0.248537 0.289752 0.204556
277 2 0.26783 0.294981 0.189535
344 4 0.274744 0.321656 0.224783
278 4 0.287123 0.30021 0.174514
343 2 0.290592 0.308588 0.23904
308 4 0.320245 0.281372 0.253106
307 2 0.335323 0.264346 0.242716
764 4 0.363581 0.253069 0.217825
763 2 0.367537 0.262238 0.194902
765 4 0.371493 0.271407 0.171979
705 4 0.0188332 0.353229 0.175452
648 4 0.016874 0.372545 0.172283
647 4 0.00618312 0.398718 0.213531
646 2 0.0115286 0.385632 0.192907
300 4 0.164301 0.378784 0.215695
298 2 0.154283 0.369588 0.236677
290 4 0.219087 0.415344 0.222587
301 2 0.331261 0.373126 0.18138
303 4 0.34741 0.380377 0.199039
729 4 0.344303 0.376977 0.218623
727 2 0.332204 0.370721 0.239591
595 2 0.488137 0.377568 0.171485
446 4 0.426329 0.330652 0.239596
445 2 0.427589 0.351569 0.225955
447 4 0.428849 0.372486 0.212315
643 2 0.435578 0.371595 0.172551
644 4 0.421952 0.367189 0.193048
2694 4 0.999256 0.418291 0.208942
262 2 0.0731936 0.481285 0.241282
263 4 0.0621997 0.458885 0.242878
602 4 0.0672956 0.440293 0.248886
417 4 0.157366 0.493975 0.178562
289 2 0.207501 0.435051 0.212459
415 2 0.170365 0.48026 0.194935
416 4 0.183365 0.466544 0.211309
291 4 0.195914 0.454758 0.202331
413 4 0.194254 0.426695 0.245443
768 4 0.269033 0.446463 0.203482
766 2 0.278613 0.454336 0.18177
660 4 0.390024 0.445841 0.201189
658 2 0.414963 0.445915 0.202983
659 4 0.439902 0.44599 0.204777
530 4 0.0237147 0.081628 0.30699
232 2 0.0104254 0.0433487 0.323301
233 4 0.0299051 0.039043 0.308229
1402 2 0.0458814 0.0206125 0.280633
1403 4 0.0404052 0.0427173 0.290956
316 2 0.0633141 0.0671907 0.311421
317 4 0.0445211 0.0511812 0.307459
1700 4 0.230588 0.00722561 0.315945
1699 2 0.239082 0.0256294 0.301305
1701 4 0.247576 0.0440331 0.286666
248 4 0.295702 0.0665941 0.310894
1749 4 0.46339 0.0127263 0.326094
480 4 0.444165 0.0167397 0.319554
478 2 0.437878 0.040807 0.322086
479 4 0.431591 0.0648744 0.324618
318 4 0.0821072 0.0832002 0.315383
529 2 0.00993178 0.0949545 0.29094
577 2 0.0717146 0.141226 0.254396
732 4 0.146098 0.10063 0.312977
579 4 0.0853012 0.129965 0.27211
544 2 0.147772 0.148318 0.262879
545 4 0.141941 0.162151 0.282875
600 4 0.156829 0.113189 0.325604
731 4 0.0963691 0.0953686 0.312759
730 2 0.121234 0.0979992 0.312868
598 2 0.176873 0.118123 0.311494
599 4 0.196917 0.123057 0.297384
403 2 0.288473 0.150953 0.308077
404 4 0.284248 0.131089 0.322662
247 2 0.29623 0.0914036 0.313957
249 4 0.296758 0.116213 0.317021
631 2 0.406632 0.151465 0.294766
351 4 0.451907 0.0943181 0.264302
632 4 0.426703 0.137357 0.299593
349 2 0.437422 0.106566 0.280592
350 4 0.422937 0.118813 0.296882
452 4 0.431951 0.126211 0.314112
444 4 0.0391502 0.234123 0.319492
2655 4 0.0247496 0.225124 0.328055
442 2 0.036655 0.249574 0.299994
392 4 0.144795 0.176526 0.295514
391 2 0.139831 0.193838 0.312858
393 4 0.134867 0.21115 0.330202
405 4 0.292699 0.170818 0.293492
633 4 0.386561 0.165573 0.28994
707 4 0.381338 0.175232 0.30797
706 2 0.372836 0.195685 0.319571
708 4 0.364335 0.216138 0.331172
521 4 0.480387 0.188598 0.268957
332 4 0.465976 0.176155 0.266547
762 4 0.465593 0.185639 0.282812
760 2 0.452227 0.192786 0.302698
761 4 0.438861 0.199932 0.322584
2491 2 0.00166047 0.312164 0.304676
443 4 0.0341599 0.265026 0.280495
396 4 0.0287455 0.267774 0.261272
2493 4 0.0172384 0.293994 0.297439
400 2 0.233891 0.272339 0.294453
401 4 0.229047 0.270501 0.269993
402 4 0.238736 0.274176 0.318914
510 4 0.237001 0.290032 0.329377
508 2 0.236495 0.315016 0.328536
345 4 0.306439 0.29552 0.253298
496 2 0.312711 0.277312 0.290499
497 4 0.315484 0.290507 0.269442
498 4 0.309938 0.264117 0.311556
377 4 0.299598 0.269548 0.327163
376 2 0.274996 0.272466 0.330541
615 4 0.39353 0.317445 0.293644
613 2 0.381699 0.295418 0.293393
614 4 0.369869 0.273392 0.293142
543 4 0.405077 0.331502 0.305007
541 2 0.429075 0.335811 0.310548
603 4 0.0340206 0.402981 0.247734
366 4 0.0343732 0.353358 0.300551
364 2 0.0258962 0.36451 0.321262
677 4 0.147751 0.335483 0.326879
735 4 0.144384 0.35479 0.318957
299 4 0.144264 0.360391 0.257659
734 4 0.134178 0.369564 0.272285
733 2 0.139281 0.362177 0.295621
434 4 0.334493 0.370978 0.273755
728 4 0.320104 0.364465 0.260559
435 4 0.345403 0.37767 0.322097
433 2 0.339948 0.374324 0.297926
542 4 0.453073 0.34012 0.31609
2538 4 0.481316 0.330835 0.329256
2924 4 0.46624 0.34431 0.332029
601 2 0.0506581 0.421637 0.24831
549 4 0.0441353 0.462894 0.31761
547 2 0.0667537 0.454316 0.323934
777 4 0.139607 0.430008 0.290125
775 2 0.123055 0.43439 0.308345
414 4 0.153989 0.430328 0.274875
548 4 0.0893722 0.445737 0.330258
412 2 0.174121 0.428511 0.260159
436 2 0.293923 0.493882 0.299327
438 4 0.314506 0.493375 0.313513
714 4 0.413303 0.453703 0.266939
713 4 0.451374 0.458931 0.29894
712 2 0.432338 0.456317 0.28294
234 4 0.990946 0.0476543 0.338374
1782 4 0.122496 0.996134 0.38963
1780 2 0.126855 0.0203466 0.394093
1781 4 0.131213 0.0445595 0.398556
368 4 0.134956 0.0582349 0.412368
439 2 0.278859 0.0119091 0.413041
441 4 0.270996 0.0353621 0.409393
697 2 0.381946 0.00685639 0.344222
698 4 0.371619 0.0287421 0.350511
257 4 0.377716 0.0474008 0.355397
256 2 0.385234 0.0498215 0.379121
426 4 0.406028 0.0395033 0.410739
258 4 0.392751 0.0522423 0.402844
459 4 0.0361992 0.155994 0.375181
399 4 0.0579652 0.128926 0.354174
397 2 0.0718254 0.111961 0.342122
457 2 0.0276969 0.154509 0.398648
458 4 0.0191946 0.153024 0.422115
398 4 0.0856856 0.0949955 0.330069
685 2 0.15678 0.152426 0.39942
687 4 0.134079 0.145435 0.39161
686 4 0.17948 0.159417 0.407229
683 4 0.291329 0.117933 0.335245
682 2 0.282806 0.118916 0.35873
684 4 0.274282 0.119898 0.382215
320 4 0.26137 0.121351 0.397349
319 2 0.265329 0.104396 0.415293
451 2 0.442813 0.128016 0.336561
453 4 0.453674 0.129821 0.35901
514 2 0.447916 0.144199 0.394884
515 4 0.447784 0.146599 0.369996
2850 4 0.024596 0.237477 0.394011
390 4 0.0410222 0.247125 0.390195
2653 2 0.028514 0.230093 0.352269
2654 4 0.0322784 0.235062 0.376483
474 4 0.298139 0.167595 0.381612
472 2 0.296753 0.189316 0.393917
473 4 0.295367 0.211038 0.406223
489 4 0.289714 0.229333 0.407536
717 4 0.408725 0.234169 0.38637
419 4 0.434836 0.204529 0.34153
420 4 0.425391 0.224097 0.38657
418 2 0.430114 0.214313 0.36405
269 4 0.430075 0.212589 0.402917
388 2 0.0606371 0.259062 0.400091
389 4 0.080252 0.271 0.409988
676 2 0.156957 0.318653 0.342916
378 4 0.250394 0.275384 0.333919
275 4 0.188945 0.251369 0.348593
274 2 0.210492 0.262909 0.343327
678 4 0.166162 0.301823 0.358953
375 4 0.168213 0.307915 0.378168
276 4 0.232039 0.27445 0.33806
373 2 0.179135 0.297675 0.398194
715 2 0.390458 0.250467 0.391457
716 4 0.372192 0.266765 0.396543
365 4 0.0174191 0.375662 0.341974
2927 4 0.00798365 0.374017 0.359692
616 2 0.0357645 0.354218 0.376033
617 4 0.0246873 0.36492 0.356337
618 4 0.0468417 0.343515 0.395729
347 4 0.0467287 0.34026 0.414627
326 4 0.0605279 0.352312 0.405444
408 4 0.0893134 0.39384 0.37032
325 2 0.0848911 0.354403 0.400225
406 2 0.0943197 0.414415 0.357025
327 4 0.109254 0.356494 0.395006
509 4 0.235989 0.34 0.327696
503 4 0.260369 0.386296 0.40098
502 2 0.283414 0.384148 0.41044
504 4 0.306459 0.382 0.419899
753 4 0.394397 0.40653 0.3586
2923 2 0.46145 0.364157 0.346462
561 4 0.449347 0.397479 0.373419
752 4 0.442897 0.394854 0.355118
559 2 0.466956 0.39905 0.391101
751 2 0.418647 0.400692 0.356859
2925 4 0.456661 0.384005 0.360895
560 4 0.484565 0.400621 0.408782
2463 4 0.0359507 0.465931 0.336471
2461 2 0.0181116 0.461554 0.353435
681 4 0.0669706 0.427413 0.4004
679 2 0.0426772 0.433329 0.40026
383 4 0.0807063 0.440662 0.392187
680 4 0.0183838 0.439244 0.400121
1383 4 0.0223881 0.459024 0.405393
776 4 0.106503 0.438772 0.326566
501 4 0.133547 0.489463 0.357243
407 4 0.0993261 0.434991 0.34373
500 4 0.103025 0.453879 0.339839
499 2 0.118286 0.471671 0.348541
382 2 0.0987808 0.443012 0.409303
3 3 0.318242 0.497016 0.33248
669 4 0.290813 0.475625 0.409957
5 3 0.310365 0.46851 0.355783
1 1 0.327146 0.480632 0.346289
667 2 0.313206 0.465836 0.415238
587 4 0.38574 0.437003 0.415648
586 2 0.362455 0.443005 0.408797
4 3 0.34106 0.466663 0.334055
2 3 0.33948 0.490764 0.362853
588 4 0.339169 0.449008 0.401947
594 4 0.450131 0.474375 0.380863
592 2 0.446674 0.496745 0.37024
2238 4 0.00202713 0.0217458 0.476666
718 2 0.0724436 0.05493 0.475603
720 4 0.0605556 0.0444733 0.494956
2236 2 0.0243067 0.0264716 0.486984
719 4 0.0843317 0.0653866 0.456251
367 2 0.118177 0.0629062 0.430308
369 4 0.101398 0.0675775 0.448247
606 4 0.207382 0.00113743 0.476482
1581 4 0.451588 0.993076 0.490614
424 2 0.421517 0.0549447 0.422856
425 4 0.437007 0.0703861 0.434973
259 2 0.0784871 0.147814 0.46842
260 4 0.082163 0.154189 0.444524
261 4 0.0748112 0.141439 0.492317
1035 4 0.0829865 0.133439 0.509733
321 4 0.269288 0.0874398 0.433238
725 4 0.35834 0.140236 0.490281
468 4 0.348254 0.154145 0.481005
574 2 0.40552 0.137791 0.435059
576 4 0.380964 0.13556 0.439207
575 4 0.430076 0.140023 0.430911
642 4 0.494647 0.107134 0.497578
516 4 0.448049 0.1418 0.419772
469 2 0.0103455 0.248048 0.455769
470 4 0.0196964 0.259014 0.435336
857 4 0.234144 0.210871 0.498517
487 2 0.291636 0.250717 0.42035
467 4 0.305197 0.178718 0.487561
411 4 0.293917 0.190129 0.476991
409 2 0.280001 0.193557 0.456502
410 4 0.266085 0.196985 0.436014
466 2 0.326725 0.166432 0.484283
871 2 0.36632 0.227611 0.485301
873 4 0.366803 0.203078 0.490106
268 2 0.447213 0.218902 0.419994
305 4 0.477376 0.173672 0.478526
270 4 0.464351 0.225216 0.43707
306 4 0.475347 0.211225 0.445566
304 2 0.476361 0.192449 0.462046
2847 4 0.0116536 0.307103 0.448117
346 2 0.0469545 0.318533 0.427
348 4 0.0471803 0.296807 0.439373
695 4 0.118744 0.25141 0.464962
694 2 0.131324 0.271614 0.472626
696 4 0.143903 0.291818 0.48029
10 3 0.139262 0.30852 0.47264
1260 4 0.157044 0.297925 0.47484
6 1 0.13331 0.329797 0.467116
7 3 0.121402 0.329467 0.447438
374 4 0.190056 0.287435 0.41822
1258 2 0.181714 0.297106 0.478828
1259 4 0.206383 0.296287 0.482817
266 4 0.305087 0.287385 0.440722
265 2 0.31785 0.307283 0.432576
267 4 0.330614 0.32718 0.424429
488 4 0.293558 0.272102 0.433163
872 4 0.365837 0.252144 0.480496
583 2 0.465446 0.284963 0.455578
584 4 0.485318 0.279394 0.469694
585 4 0.445575 0.290533 0.441461
570 4 0.1695 0.415057 0.41996
8 3 0.152289 0.342819 0.464182
983 4 0.115771 0.329841 0.500589
9 3 0.119978 0.338872 0.483799
711 4 0.168223 0.349622 0.473943
650 4 0.222885 0.355046 0.504507
710 4 0.213652 0.363576 0.489506
803 4 0.227753 0.373243 0.498871
709 2 0.190938 0.356599 0.481724
802 2 0.250229 0.384177 0.49954
804 4 0.272705 0.395112 0.500209
336 4 0.34625 0.38576 0.49931
334 2 0.369209 0.381724 0.490267
335 4 0.392168 0.377688 0.481224
240 4 0.408678 0.387051 0.474887
2507 4 0.476931 0.393118 0.425425
238 2 0.423342 0.401932 0.488624
2506 2 0.491292 0.393403 0.445892
1381 2 0.0194643 0.482885 0.412267
538 2 0.10718 0.45183 0.466474
568 2 0.152157 0.431161 0.428025
569 4 0.134813 0.447265 0.43609
539 4 0.118316 0.452125 0.444089
540 4 0.0960441 0.451536 0.488859
384 4 0.116855 0.445362 0.426419
1557 4 0.218883 0.489977 0.436175
635 4 0.218429 0.46436 0.483726
636 4 0.19986 0.487183 0.443291
774 4 0.204132 0.466324 0.496633
634 2 0.209144 0.475771 0.463508
668 4 0.3356 0.456048 0.420519
239 4 0.438007 0.416813 0.50236
662 4 0.454399 0.466934 0.509518
1126 2 0.0549232 0.0565076 0.529229
1127 4 0.0457362 0.0473651 0.507847
1128 4 0.0641102 0.0656501 0.550611
939 4 0.0842896 0.0661477 0.547987
2237 4 0.0465864 0.0311974 0.497302
1057 2 0.15829 0.0539325 0.562932
1059 4 0.151009 0.0775178 0.558945
937 2 0.10802 0.0734304 0.550992
938 4 0.13175 0.0807131 0.553997
1058 4 0.165571 0.0303472 0.566919
2430 4 0.198982 0.0200807 0.551632
341 4 0.193312 0.0279979 0.532922
340 2 0.207765 0.0481296 0.529607
342 4 0.222219 0.0682612 0.526292
1182 4 0.241053 0.0756221 0.529396
2428 2 0.189894 0.000404757 0.564099
961 2 0.290436 0.0535563 0.580318
963 4 0.295103 0.0734483 0.565906
430 2 0.324528 0.0784182 0.534715
432 4 0.306074 0.0754356 0.55132
1181 4 0.287954 0.0776716 0.546626
1180 2 0.264504 0.0766469 0.538011
2196 4 0.315823 0.00896693 0.55068
950 4 0.281365 0.016486 0.587082
842 4 0.396377 0.0537758 0.522398
841 2 0.378087 0.0708176 0.522888
843 4 0.359797 0.0878595 0.523378
2194 2 0.336056 0.998928 0.561405
1217 4 0.415093 0.0533152 0.515407
1216 2 0.436003 0.0626914 0.525409
1218 4 0.456913 0.0720676 0.53541
1061 4 0.485693 0.0145038 0.510664
1062 4 0.500103 0.0471334 0.545712
1060 2 0.492898 0.0308186 0.528188
641 4 0.475768 0.0757977 0.53167
1155 4 0.144396 0.0949421 0.553424
1033 2 0.10242 0.141326 0.523347
1034 4 0.121853 0.149212 0.536961
1153 2 0.163906 0.104006 0.540681
1154 4 0.183416 0.113071 0.527939
1151 4 0.196884 0.12008 0.515429
1150 2 0.213093 0.101042 0.515586
1152 4 0.229301 0.0820042 0.515742
431 4 0.342982 0.0814008 0.51811
898 2 0.394387 0.116206 0.571468
899 4 0.407718 0.10282 0.555089
726 4 0.350074 0.0936553 0.506486
724 2 0.354207 0.116946 0.498384
3159 4 0.495234 0.140669 0.511967
640 2 0.485208 0.091466 0.514624
3157 2 0.498241 0.165435 0.513633
877 2 0.0547587 0.181865 0.581294
878 4 0.0300259 0.178206 0.581574
879 4 0.0794916 0.185524 0.581013
856 2 0.249362 0.201019 0.515737
858 4 0.26458 0.191167 0.532957
3065 4 0.460031 0.222747 0.546969
3064 2 0.478211 0.215571 0.531375
905 4 0.454168 0.227308 0.56625
904 2 0.435069 0.242744 0.561549
3066 4 0.496391 0.208396 0.515781
651 4 0.241461 0.309687 0.514418
649 2 0.232173 0.332366 0.509462
1239 4 0.307952 0.309685 0.572571
813 4 0.298226 0.308797 0.55422
1237 2 0.323738 0.292663 0.581859
811 2 0.279487 0.310626 0.537768
812 4 0.260748 0.312456 0.521315
906 4 0.415969 0.258181 0.556848
954 4 0.4013 0.262914 0.568388
952 2 0.379793 0.267808 0.580165
1136 4 0.0738549 0.353028 0.548148
1135 2 0.0834637 0.368819 0.564985
934 2 0.00117866 0.408013 0.521617
982 2 0.100742 0.335549 0.519739
984 4 0.0857121 0.341256 0.538889
896 4 0.161189 0.367928 0.584659
1137 4 0.0930725 0.38461 0.581822
1190 4 0.209075 0.344142 0.560528
1191 4 0.171111 0.375724 0.568406
1189 2 0.190093 0.359933 0.564467
1000 2 0.403901 0.394976 0.579061
925 2 0.45216 0.386926 0.549027
926 4 0.475719 0.388585 0.540819
3309 4 0.480106 0.401017 0.525145
927 4 0.4286 0.385267 0.557234
1001 4 0.418056 0.375761 0.571603
3307 2 0.495113 0.398085 0.505362
935 4 0.0176626 0.425703 0.527982
1938 4 0.0317314 0.497222 0.541713
2243 4 0.105568 0.43169 0.548728
2242 2 0.0991021 0.444512 0.528259
1161 4 0.120748 0.440918 0.558372
1159 2 0.141468 0.44242 0.572287
2244 4 0.0926366 0.457334 0.507791
773 4 0.224248 0.471741 0.542094
772 2 0.21419 0.469033 0.519364
1171 2 0.294072 0.444643 0.56874
1172 4 0.317685 0.452855 0.569144
891 4 0.323903 0.45686 0.586843
1454 4 0.336681 0.495629 0.516728
1173 4 0.270459 0.436431 0.568336
881 4 0.343563 0.43691 0.509286
882 4 0.328811 0.480769 0.528246
880 2 0.336187 0.45884 0.518766
929 4 0.333242 0.444082 0.573796
928 2 0.351838 0.427761 0.577403
1910 4 0.395555 0.480595 0.560168
1332 4 0.435854 0.475146 0.507744
661 2 0.455773 0.442031 0.507741
663 4 0.457147 0.417129 0.505964
1330 2 0.446592 0.497507 0.510887
943 2 0.0597475 0.0473495 0.624911
944 4 0.0544895 0.0717362 0.623232
2319 4 0.0473222 0.011974 0.622413
945 4 0.0650055 0.0229628 0.62659
1031 4 0.205756 0.0855439 0.589703
1284 4 0.190046 0.0725434 0.592634
962 4 0.285768 0.0336643 0.59473
949 2 0.262711 0.00434376 0.598473
1091 4 0.410344 0.997235 0.671614
2283 4 0.425581 0.00421857 0.662096
810 4 0.447038 0.0676533 0.589803
808 2 0.450247 0.0705064 0.614435
45 3 0.457766 0.0755142 0.657529
809 4 0.453456 0.0733595 0.639068
1083 4 0.0468025 0.0872962 0.616411
1082 4 0.0150808 0.111118 0.646857
1081 2 0.0309417 0.099207 0.631634
1283 4 0.167177 0.0912007 0.633003
1221 4 0.150086 0.158909 0.605799
1271 4 0.13669 0.166713 0.5935
1282 2 0.178611 0.081872 0.612819
909 4 0.177002 0.0961214 0.649937
1030 2 0.22827 0.0963672 0.590776
1032 4 0.250784 0.107191 0.591849
900 4 0.381057 0.129592 0.587848
1199 4 0.0222713 0.185197 0.597923
1198 2 0.00625209 0.204366 0.596867
1272 4 0.088791 0.180219 0.598396
1270 2 0.112741 0.173466 0.595948
1211 4 0.247316 0.174258 0.638526
1219 2 0.170101 0.173814 0.607354
1210 2 0.228158 0.179193 0.623235
1212 4 0.209001 0.184128 0.607945
1220 4 0.190116 0.188719 0.608909
796 2 0.197499 0.226665 0.609228
798 4 0.204874 0.202792 0.608291
888 4 0.254594 0.186326 0.652164
791 4 0.310902 0.223915 0.598749
790 2 0.329408 0.240681 0.597491
1025 4 0.468264 0.193824 0.62413
1024 2 0.490643 0.204696 0.626613
1244 4 0.0107707 0.276342 0.626747
1243 2 0.0242574 0.270259 0.646903
1245 4 0.0377441 0.264177 0.66706
3044 4 0.0142561 0.279554 0.605992
948 4 0.197145 0.303432 0.595954
797 4 0.190123 0.250537 0.610165
947 4 0.205416 0.254177 0.598444
946 2 0.20128 0.278804 0.597199
1238 4 0.339523 0.275641 0.591147
792 4 0.347915 0.257448 0.596234
953 4 0.358287 0.272703 0.591941
3264 4 0.0100473 0.424061 0.629959
3262 2 0.00129683 0.405788 0.644612
3263 4 0.992546 0.387515 0.659265
895 2 0.136645 0.372632 0.58384
1041 4 0.106696 0.394278 0.590998
897 4 0.112102 0.377336 0.583021
1039 2 0.105252 0.411996 0.608581
930 4 0.370434 0.41144 0.58101
807 4 0.334571 0.410799 0.660319
805 2 0.348431 0.390355 0.656427
1002 4 0.389745 0.41419 0.586518
806 4 0.362291 0.369912 0.652534
3240 4 0.0151561 0.426224 0.609993
1040 4 0.103808 0.429713 0.626165
1160 4 0.162187 0.443921 0.586202
991 2 0.133909 0.422086 0.655034
993 4 0.122928 0.429101 0.633694
1188 4 0.249022 0.428831 0.630169
1186 2 0.26183 0.429271 0.608699
1187 4 0.274638 0.42971 0.58723
1909 2 0.387177 0.474293 0.582867
1911 4 0.378798 0.467991 0.605566
889 2 0.334411 0.477306 0.596678
1269 4 0.389845 0.459443 0.654372
890 4 0.344919 0.497751 0.606513
1267 2 0.41326 0.466825 0.659107
1268 4 0.436675 0.474208 0.663842
2991 4 0.00387405 0.0782064 0.715653
1090 2 0.391368 0.0120892 0.678281
1092 4 0.372392 0.0269434 0.684947
1004 4 0.374298 0.0460265 0.673729
1003 2 0.373622 0.0709285 0.675877
43 3 0.445494 0.0486601 0.680894
41 1 0.458012 0.0681116 0.679065
42 3 0.479697 0.0636116 0.685282
3426 4 0.49789 0.0712621 0.683902
1162 2 0.493382 0.0447868 0.718345
1163 4 0.487432 0.0617584 0.700975
862 2 0.028055 0.0934411 0.739622
864 4 0.0201715 0.0877922 0.716576
1075 2 0.00357248 0.0990534 0.678487
1077 4 0.00984529 0.0908142 0.701246
907 2 0.183945 0.114452 0.66546
908 4 0.190888 0.132784 0.680982
1226 4 0.200061 0.0917092 0.738081
1227 4 0.194956 0.124964 0.701084
1225 2 0.197508 0.108337 0.719583
831 4 0.313724 0.153216 0.716574
1299 4 0.329179 0.157593 0.72799
829 2 0.297965 0.172602 0.715563
1005 4 0.372946 0.0958304 0.678026
44 3 0.449404 0.0844246 0.693143
852 4 0.0142476 0.203623 0.710454
851 4 0.0545674 0.194294 0.738525
850 2 0.0344075 0.198958 0.72449
1107 4 0.0731211 0.18627 0.743455
1207 2 0.0608048 0.244553 0.686769
1208 4 0.0642872 0.223037 0.699021
1072 2 0.141127 0.22019 0.748226
1074 4 0.143978 0.244278 0.74216
1105 2 0.0967106 0.187898 0.751583
1131 4 0.203731 0.209988 0.736201
1277 4 0.200807 0.22151 0.752529
1129 2 0.194694 0.190672 0.749255
1276 2 0.210415 0.244553 0.753891
886 2 0.263842 0.190236 0.675063
830 4 0.282206 0.191988 0.714552
887 4 0.273089 0.194146 0.697962
976 2 0.264334 0.218043 0.729936
978 4 0.263824 0.19726 0.716044
918 4 0.283672 0.240369 0.740199
1193 4 0.384149 0.217239 0.732625
1192 2 0.401626 0.224962 0.716497
1194 4 0.419103 0.232684 0.700369
1209 4 0.0573225 0.266069 0.674516
821 4 0.130408 0.321031 0.725491
820 2 0.142453 0.307103 0.708576
822 4 0.154498 0.293176 0.691661
1063 2 0.242832 0.290927 0.752928
1064 4 0.265184 0.295834 0.742853
1263 4 0.431298 0.279465 0.725311
1261 2 0.417855 0.279164 0.746391
893 4 0.0469689 0.380925 0.706915
892 2 0.0685714 0.374284 0.717611
1280 4 0.0401649 0.400208 0.711564
3275 4 0.0232738 0.370407 0.742167
992 4 0.14489 0.415071 0.676373
894 4 0.0901739 0.367643 0.728307
815 4 0.0880991 0.35509 0.742014
940 2 0.129593 0.365801 0.736037
942 4 0.104968 0.36811 0.739706
941 4 0.154218 0.363492 0.732368
1067 4 0.161632 0.35572 0.715817
1028 4 0.221548 0.373947 0.686777
1027 2 0.237888 0.389441 0.697645
1066 2 0.182713 0.361927 0.70389
1068 4 0.203794 0.368134 0.691964
1029 4 0.254229 0.404935 0.708512
1204 2 0.39943 0.417577 0.713424
1205 4 0.386474 0.398549 0.703663
1279 2 0.0367181 0.422651 0.722032
1281 4 0.0332713 0.445095 0.7325
1983 4 0.0404223 0.457943 0.718457
1981 2 0.0608042 0.471451 0.723681
1982 4 0.081186 0.48496 0.728905
1140 4 0.288573 0.454639 0.685868
1139 4 0.254451 0.42451 0.706571
1138 2 0.271512 0.439574 0.696219
1988 4 0.309776 0.486451 0.735285
1987 2 0.331137 0.481647 0.723211
1230 4 0.405153 0.455265 0.723045
1228 2 0.386345 0.471193 0.718831
1229 4 0.367537 0.48712 0.714616
1989 4 0.352499 0.476844 0.711136
1206 4 0.412386 0.436604 0.723185
3330 4 0.495262 0.434716 0.702174
2168 4 0.448036 0.485189 0.674335
1100 4 0.451114 0.46493 0.67187
1099 2 0.467766 0.458016 0.689193
1101 4 0.484418 0.451102 0.706516
3329 4 0.510039 0.419899 0.747593
3328 2 0.502651 0.427307 0.724884
1294 2 0.00268669 0.031226 0.834241
1296 4 0.00770014 0.0247886 0.810606
2049 4 0.14283 0.0205292 0.763687
1203 4 0.111197 0.0451002 0.819869
1202 4 0.139238 0.0323183 0.780485
1201 2 0.125218 0.0387093 0.800177
911 4 0.105752 0.0615358 0.828169
1257 4 0.245582 0.0675758 0.80884
1149 4 0.235544 0.064114 0.791254
1147 2 0.221903 0.0739919 0.772774
1148 4 0.208262 0.0838698 0.754293