ITEM: TIMESTEP
1020000
ITEM: NUMBER OF ATOMS
4590
ITEM: BOX BOUNDS pp pp pp
-9.9985700000000008e+00 9.9985700000000008e+00
-9.9985700000000008e+00 9.9985700000000008e+00
-9.9985700000000008e+00 9.9985700000000008e+00
ITEM: ATOMS id type xs ys zs
463 2 0.0138417 0.0466071 0.0367071
465 4 0.0329723 0.0496378 0.0525189
1667 4 0.0424524 0.0435438 0.0671391
701 4 0.0476239 0.0602501 0.0556107
590 4 0.0353255 0.0604195 0.0692878
700 2 0.0648867 0.0743089 0.0442298
534 4 0.245347 0.0639818 0.0101184
565 2 0.173294 0.0710325 0.030113
567 4 0.179892 0.0572878 0.0102958
995 4 0.181995 0.0495164 0.993064
533 4 0.196819 0.0601001 0.998688
532 2 0.221083 0.062041 0.00440344
490 2 0.303301 0.0329898 0.0500756
491 4 0.326997 0.0364731 0.0572554
492 4 0.279605 0.0295064 0.0428958
2264 4 0.278866 0.0281769 0.0238004
557 4 0.338187 0.0513831 0.0584815
2263 2 0.279211 0.0136839 0.00342852
296 4 0.331092 0.0436907 0.0753839
745 2 0.488068 0.070332 0.0364967
746 4 0.486105 0.0459394 0.0416273
702 4 0.0821495 0.0883677 0.0328489
3232 2 0.00915841 0.12445 0.0239345
3233 4 0.024969 0.116146 0.00643431
566 4 0.166695 0.0847772 0.0499302
423 4 0.0853487 0.103443 0.016905
421 2 0.109292 0.109749 0.0134235
422 4 0.133236 0.116055 0.00994202
556 2 0.34221 0.0760609 0.0584445
558 4 0.346233 0.100739 0.0584076
747 4 0.490032 0.0947246 0.0313661
2975 4 0.478756 0.100948 0.0165218
2974 2 0.468621 0.11361 0.997492
554 4 0.0412209 0.215276 0.0327839
553 2 0.0566812 0.229476 0.019201
355 2 0.228098 0.234102 0.0192884
357 4 0.242331 0.232311 0.039768
356 4 0.213866 0.235892 0.998809
461 4 0.340634 0.263588 0.0583064
460 2 0.347659 0.259193 0.0818969
322 2 0.393615 0.239017 0.0547406
324 4 0.379353 0.220194 0.0629533
665 4 0.345371 0.235116 0.00829975
771 4 0.433351 0.163716 0.0623605
769 2 0.439656 0.173288 0.0401386
1012 2 0.486568 0.171698 0.00762512
770 4 0.445961 0.182859 0.0179167
1013 4 0.464459 0.178783 0.016908
827 4 0.454733 0.17452 0.00123966
555 4 0.0721416 0.243677 0.00561817
1055 4 0.0658418 0.262234 0.00936567
292 2 0.12845 0.28675 0.0421915
293 4 0.144079 0.305289 0.0360897
507 4 0.141815 0.3242 0.042736
294 4 0.112821 0.268211 0.0482933
288 4 0.145512 0.320198 0.0243222
836 4 0.0846609 0.256983 0.0115869
664 2 0.331122 0.251765 0.0203388
666 4 0.316873 0.268415 0.0323778
572 4 0.296542 0.271065 0.0289645
571 2 0.288405 0.26839 0.0524551
573 4 0.280267 0.265715 0.0759458
1071 4 0.381635 0.304558 0.00561616
1069 2 0.39247 0.290684 0.0233732
1070 4 0.403304 0.27681 0.0411302
323 4 0.407877 0.257841 0.0465279
956 4 0.368989 0.318398 0.012583
671 4 0.452435 0.316933 0.0679321
281 4 0.441504 0.31626 0.0513871
280 2 0.450371 0.325851 0.0300666
505 2 0.160538 0.333847 0.0562107
286 2 0.134972 0.334818 0.0069912
506 4 0.179261 0.343494 0.0696854
483 4 0.180343 0.360529 0.0581615
481 2 0.198019 0.371599 0.0719535
482 4 0.215694 0.382669 0.0857455
252 4 0.316896 0.381163 0.0547481
250 2 0.311437 0.368285 0.034023
251 4 0.305978 0.355407 0.0132979
608 4 0.33618 0.385685 0.0603411
525 4 0.321211 0.396175 0.0653566
607 2 0.347454 0.369028 0.0751941
282 4 0.459239 0.335442 0.00874608
1787 4 0.0436702 0.459129 0.0912907
314 4 0.00322722 0.452679 0.075561
245 4 0.261167 0.448499 0.0364324
244 2 0.278081 0.463142 0.0252655
246 4 0.294994 0.477785 0.0140987
272 4 0.302213 0.496371 0.0187244
227 4 0.46918 0.477771 0.085007
39 3 0.418986 0.453353 0.998435
1421 4 0.0444287 0.0109499 0.121252
1666 2 0.0467676 0.0261094 0.0845345
1668 4 0.0510828 0.00867492 0.10193
1420 2 0.0328691 0.0261906 0.137354
1422 4 0.0213095 0.0414314 0.153456
1804 2 0.0855777 0.00335732 0.122479
19 3 0.0275058 0.0423608 0.173654
2480 4 0.0119487 0.0487181 0.162095
1805 4 0.109973 0.00229412 0.127858
450 4 0.136189 0.0667432 0.152853
1506 4 0.241802 0.025354 0.156636
652 2 0.31134 0.0614468 0.143081
653 4 0.313826 0.0378739 0.135124
295 2 0.344338 0.0340137 0.0942539
297 4 0.357584 0.0243366 0.113124
485 4 0.360236 0.00524515 0.112989
758 4 0.419742 0.0461407 0.128707
757 2 0.418192 0.0538872 0.15243
1761 4 0.457933 0.00703182 0.157585
589 2 0.0225569 0.0780071 0.0816497
591 4 0.00978831 0.0955948 0.0940117
2760 4 0.997427 0.111832 0.0981046
237 4 0.197729 0.140749 0.136375
235 2 0.189391 0.126356 0.155043
737 4 0.194167 0.154393 0.122956
654 4 0.308854 0.0850197 0.151038
582 4 0.304946 0.104617 0.15175
339 4 0.07662 0.218842 0.143936
477 4 0.090196 0.206686 0.116374
475 2 0.108064 0.189321 0.118466
476 4 0.125933 0.171957 0.120558
337 2 0.0922932 0.228825 0.160665
738 4 0.199184 0.203921 0.127693
736 2 0.196676 0.179157 0.125324
354 4 0.269503 0.219612 0.120649
352 2 0.278793 0.236808 0.105056
283 2 0.266117 0.19546 0.156003
284 4 0.260865 0.207425 0.134685
628 2 0.414971 0.180664 0.0960979
630 4 0.398353 0.189031 0.112802
254 4 0.398888 0.204913 0.124449
253 2 0.3824 0.222723 0.11844
255 4 0.365911 0.240533 0.112431
629 4 0.431589 0.172297 0.0793939
535 2 0.232397 0.289371 0.129891
537 4 0.216977 0.30207 0.144928
536 4 0.247818 0.276672 0.114853
362 4 0.168706 0.24838 0.165768
353 4 0.288083 0.254005 0.0894624
754 2 0.2868 0.29098 0.109299
755 4 0.290017 0.272826 0.0924097
756 4 0.283583 0.309134 0.126189
612 4 0.278681 0.312339 0.145709
462 4 0.354684 0.254798 0.105487
623 4 0.339712 0.320828 0.149242
622 2 0.346008 0.29685 0.152495
624 4 0.352303 0.272871 0.155747
528 4 0.469396 0.320979 0.149266
670 2 0.439315 0.33097 0.0839321
620 4 0.0216363 0.359113 0.159912
621 4 0.00262635 0.363716 0.113888
619 2 0.0121313 0.361415 0.1369
455 4 0.0787216 0.353511 0.163496
454 2 0.0876208 0.348843 0.140601
456 4 0.0965199 0.344174 0.117706
625 2 0.263616 0.386441 0.152199
626 4 0.254559 0.384862 0.175452
523 2 0.317862 0.414103 0.0824614
610 2 0.290921 0.333308 0.15168
627 4 0.272672 0.38802 0.128947
387 4 0.319749 0.35488 0.145133
611 4 0.303162 0.354277 0.15765
385 2 0.337484 0.353166 0.127591
741 4 0.410533 0.347504 0.106039
609 4 0.358728 0.35237 0.0900471
740 4 0.361951 0.337008 0.10053
386 4 0.355218 0.351452 0.110049
739 2 0.386242 0.342256 0.103285
13 3 0.4091 0.380212 0.134349
672 4 0.426194 0.345007 0.099932
15 3 0.432376 0.388654 0.105983
11 1 0.429115 0.374932 0.123864
526 2 0.465997 0.345745 0.148779
12 3 0.428183 0.353123 0.116608
14 3 0.446713 0.377112 0.13883
495 4 0.465177 0.385282 0.143904
493 2 0.475701 0.40188 0.128447
527 4 0.462599 0.370512 0.148291
597 4 0.475587 0.379372 0.160389
645 4 0.456956 0.382445 0.157257
494 4 0.486224 0.418479 0.112989
1786 2 0.0421402 0.480196 0.104671
1788 4 0.0406101 0.501262 0.118051
1465 2 0.0108627 0.495198 0.150175
1430 4 0.173662 0.496845 0.154229
417 4 0.17137 0.481394 0.16614
524 4 0.314512 0.43203 0.0995662
637 2 0.268084 0.485816 0.134521
638 4 0.279279 0.468428 0.148575
767 4 0.275803 0.456087 0.163733
226 2 0.464999 0.498567 0.0982448
17 3 0.0491445 0.0724725 0.167514
16 1 0.0442163 0.0557771 0.182552
18 3 0.0369237 0.065429 0.202352
20 3 0.062926 0.043371 0.186384
448 2 0.149222 0.0853293 0.163336
673 2 0.137845 0.0408332 0.225816
675 4 0.128022 0.0466807 0.203578
1505 4 0.225831 0.0574364 0.191512
1504 2 0.233816 0.0413952 0.174074
689 4 0.224187 0.0566775 0.206491
688 2 0.215765 0.045433 0.227175
692 4 0.218241 0.0706731 0.194495
28 3 0.234949 0.0697984 0.20415
690 4 0.207344 0.0341886 0.247859
27 3 0.269409 0.0706394 0.21913
26 1 0.253806 0.0828987 0.207494
21 1 0.411034 0.0470454 0.213934
24 3 0.394651 0.0311807 0.209652
759 4 0.416642 0.0616337 0.176152
22 3 0.401654 0.0644231 0.225732
1496 4 0.40081 0.0158734 0.22076
312 4 0.408647 0.0703569 0.188302
25 3 0.419476 0.0549832 0.194329
1759 2 0.48232 0.00705334 0.163104
23 3 0.428024 0.037656 0.226645
742 2 0.465317 0.0328656 0.234735
744 4 0.444016 0.045925 0.235691
743 4 0.486617 0.0198063 0.233779
578 4 0.0638194 0.158985 0.248455
511 2 0.0218064 0.155057 0.232303
513 4 0.044777 0.154396 0.242156
546 4 0.156936 0.123996 0.252868
721 2 0.161901 0.120482 0.211291
722 4 0.154014 0.128256 0.233709
236 4 0.181053 0.111964 0.173712
449 4 0.162255 0.103915 0.173818
691 2 0.19746 0.0833731 0.188833
723 4 0.169787 0.112709 0.188873
693 4 0.17668 0.096073 0.183171
29 3 0.248282 0.101715 0.219897
30 3 0.262601 0.0891235 0.18743
580 2 0.285596 0.105888 0.167534
581 4 0.266246 0.107158 0.183318
310 2 0.398935 0.0933557 0.186919
311 4 0.389223 0.116355 0.185536
363 4 0.11896 0.252711 0.168468
338 4 0.107966 0.238808 0.177394
361 2 0.143833 0.250546 0.167118
285 4 0.271369 0.183496 0.177321
764 4 0.355096 0.257588 0.221664
309 4 0.341309 0.248703 0.233227
333 4 0.435499 0.167088 0.226759
331 2 0.450278 0.174801 0.245394
395 4 0.0464031 0.262441 0.208915
394 2 0.0406682 0.263552 0.233227
703 2 0.0280905 0.331506 0.184203
704 4 0.0217598 0.312244 0.198835
748 2 0.0912715 0.289166 0.234951
749 4 0.102142 0.274523 0.217846
750 4 0.0804006 0.303808 0.252057
372 4 0.183122 0.259211 0.175157
370 2 0.201992 0.270003 0.187511
371 4 0.220862 0.280795 0.199865
279 4 0.239633 0.276292 0.193286
277 2 0.261725 0.286153 0.186969
344 4 0.276716 0.32259 0.221376
278 4 0.283817 0.296013 0.180652
307 2 0.327017 0.264828 0.245911
343 2 0.290872 0.310304 0.237924
763 2 0.357652 0.262532 0.197288
765 4 0.360207 0.267476 0.172911
705 4 0.0344211 0.350768 0.169572
648 4 0.0302679 0.367264 0.176422
647 4 0.00867935 0.402911 0.204062
646 2 0.0194736 0.385088 0.190242
300 4 0.152096 0.353261 0.221221
298 2 0.140383 0.358311 0.242727
290 4 0.218937 0.400936 0.223123
289 2 0.213637 0.414657 0.202904
302 4 0.317622 0.365926 0.160666
301 2 0.332393 0.376934 0.177572
303 4 0.347163 0.387941 0.194479
729 4 0.352726 0.375766 0.211001
727 2 0.343557 0.371304 0.233831
446 4 0.429868 0.350292 0.240769
445 2 0.430492 0.37006 0.225472
447 4 0.431116 0.389828 0.210175
643 2 0.44239 0.391444 0.175479
644 4 0.427824 0.400442 0.193701
2694 4 0.992004 0.412937 0.200697
1467 4 0.992569 0.492814 0.167053
262 2 0.0738836 0.480012 0.242522
415 2 0.181331 0.460109 0.174678
416 4 0.191292 0.438824 0.183216
291 4 0.208336 0.428377 0.182685
768 4 0.286092 0.448026 0.212002
766 2 0.280948 0.452056 0.187867
659 4 0.410701 0.441416 0.218308
658 2 0.405841 0.448782 0.194914
660 4 0.40098 0.456147 0.171519
529 2 0.00280346 0.0788999 0.275826
530 4 0.0223215 0.0633031 0.274843
232 2 0.0122875 0.0404083 0.325782
233 4 0.0329612 0.0346038 0.312972
1402 2 0.0540355 0.00613753 0.284828
1403 4 0.0443794 0.0236042 0.29989
316 2 0.0640485 0.0590863 0.315351
317 4 0.0505666 0.0391717 0.308508
318 4 0.0775305 0.0790009 0.322193
674 4 0.147667 0.0349856 0.248053
1701 4 0.260705 0.0264854 0.286351
1700 4 0.259123 0.00734572 0.332523
1699 2 0.259914 0.0169155 0.309437
248 4 0.272376 0.0760523 0.30945
1749 4 0.439036 0.0119168 0.305844
480 4 0.431962 0.00508922 0.324231
351 4 0.456309 0.0773287 0.287036
577 2 0.0711809 0.136347 0.256105
579 4 0.0785424 0.113709 0.263755
544 2 0.143317 0.139953 0.266471
545 4 0.129697 0.155911 0.280074
392 4 0.129383 0.15157 0.299186
600 4 0.162482 0.0893477 0.313261
598 2 0.179614 0.10728 0.316435
403 2 0.277773 0.158786 0.305333
404 4 0.27557 0.135075 0.312955
247 2 0.280123 0.0991104 0.315236
249 4 0.28787 0.122168 0.321023
631 2 0.409618 0.146852 0.290101
633 4 0.394872 0.166213 0.284368
632 4 0.424364 0.12749 0.295835
349 2 0.449199 0.100201 0.29421
350 4 0.442089 0.123074 0.301385
452 4 0.432336 0.133122 0.314013
444 4 0.0298792 0.24556 0.315012
442 2 0.0253745 0.249049 0.290667
443 4 0.0208698 0.252538 0.266321
2655 4 0.0212183 0.236073 0.329508
391 2 0.125785 0.174762 0.307808
393 4 0.122187 0.197954 0.316431
405 4 0.279976 0.182497 0.29771
707 4 0.375037 0.170704 0.288166
706 2 0.373238 0.191248 0.302303
708 4 0.371438 0.211792 0.316441
521 4 0.479126 0.19558 0.268593
332 4 0.465058 0.182515 0.264028
762 4 0.4603 0.19798 0.273457
760 2 0.448888 0.19893 0.295684
761 4 0.437475 0.19988 0.317911
419 4 0.425853 0.188847 0.332124
396 4 0.0349334 0.264663 0.257539
677 4 0.152105 0.318057 0.331065
400 2 0.215935 0.286431 0.296973
401 4 0.203717 0.284178 0.275274
402 4 0.228153 0.288684 0.318671
510 4 0.236529 0.295272 0.334592
378 4 0.242727 0.278745 0.325057
345 4 0.305028 0.298017 0.254472
308 4 0.312724 0.280953 0.258595
496 2 0.322202 0.287116 0.294571
497 4 0.316344 0.294131 0.271298
498 4 0.32806 0.280102 0.317845
377 4 0.289246 0.26734 0.339431
376 2 0.265986 0.273043 0.332244
615 4 0.399605 0.305767 0.320227
613 2 0.382422 0.288655 0.314136
614 4 0.36524 0.271543 0.308045
543 4 0.417969 0.30587 0.327321
541 2 0.436021 0.322459 0.332231
366 4 0.0534342 0.363413 0.303866
364 2 0.035567 0.365954 0.321172
603 4 0.015055 0.427716 0.245158
365 4 0.0176998 0.368494 0.338478
299 4 0.12867 0.36336 0.264232
734 4 0.132621 0.346793 0.274805
733 2 0.134208 0.336151 0.297375
735 4 0.135795 0.32551 0.319946
435 4 0.348129 0.363202 0.311779
433 2 0.343582 0.373312 0.289367
434 4 0.339036 0.383422 0.266955
728 4 0.334387 0.366842 0.25666
542 4 0.454073 0.339047 0.337142
2538 4 0.488248 0.330459 0.327013
263 4 0.0700561 0.455981 0.248268
602 4 0.063854 0.437862 0.249213
601 2 0.0394545 0.432789 0.247185
777 4 0.131836 0.424715 0.291331
775 2 0.120601 0.428879 0.313276
414 4 0.141926 0.422171 0.273152
412 2 0.158471 0.434376 0.258921
413 4 0.175015 0.446581 0.244691
437 4 0.275791 0.500996 0.288566
436 2 0.290941 0.496185 0.307866
438 4 0.306092 0.491375 0.327167
3 3 0.307608 0.480616 0.343791
714 4 0.439881 0.464638 0.257317
713 4 0.450626 0.469282 0.305935
712 2 0.445254 0.46696 0.281626
731 4 0.0958808 0.0821592 0.320804
1782 4 0.117466 0.0108874 0.384799
1780 2 0.128914 0.0276058 0.399448
1781 4 0.140363 0.0443243 0.414098
605 4 0.22993 0.997725 0.423482
697 2 0.373318 0.00149072 0.344454
698 4 0.362468 0.0228582 0.351588
257 4 0.363223 0.040373 0.359148
256 2 0.375851 0.0553665 0.374669
426 4 0.403682 0.072864 0.403494
258 4 0.388478 0.07036 0.390191
478 2 0.429032 0.025454 0.338439
479 4 0.426102 0.0458188 0.352647
459 4 0.0192779 0.154872 0.388083
399 4 0.0510925 0.123427 0.354414
397 2 0.0668561 0.110137 0.34027
457 2 0.0380774 0.142765 0.399272
458 4 0.0568769 0.130659 0.410461
398 4 0.0826198 0.096848 0.326125
732 4 0.144281 0.0946579 0.322193
730 2 0.120081 0.0884085 0.321498
685 2 0.162268 0.157725 0.404335
687 4 0.150765 0.135813 0.407902
686 4 0.173772 0.179636 0.400769
599 4 0.196747 0.125212 0.31961
683 4 0.280657 0.13775 0.331317
682 2 0.279409 0.1358 0.356213
684 4 0.278161 0.133851 0.381109
320 4 0.28538 0.129235 0.400191
319 2 0.291088 0.10906 0.413814
451 2 0.432784 0.135414 0.338907
453 4 0.433231 0.137706 0.363801
514 2 0.440652 0.142201 0.405495
515 4 0.444046 0.140649 0.380772
2850 4 0.0253504 0.232884 0.396673
388 2 0.061117 0.248501 0.403237
390 4 0.0392956 0.246919 0.391133
2653 2 0.0236991 0.238245 0.354293
389 4 0.0829383 0.250083 0.415341
275 4 0.198419 0.24515 0.359356
474 4 0.293519 0.183298 0.375737
472 2 0.289831 0.198975 0.394863
487 2 0.311593 0.249327 0.421904
489 4 0.301479 0.227109 0.416495
473 4 0.286143 0.214652 0.413989
717 4 0.392056 0.230039 0.361832
715 2 0.377957 0.24477 0.376302
716 4 0.363858 0.259501 0.390773
420 4 0.412837 0.224552 0.364627
418 2 0.419345 0.206699 0.348376
269 4 0.443752 0.2271 0.397778
2654 4 0.02618 0.240417 0.379078
274 2 0.212644 0.262172 0.347819
676 2 0.168747 0.313109 0.349057
678 4 0.185389 0.308161 0.36705
508 2 0.232676 0.319515 0.339344
375 4 0.179226 0.307128 0.385764
276 4 0.226869 0.279194 0.336283
373 2 0.182043 0.290109 0.403863
509 4 0.228823 0.343759 0.344096
374 4 0.18486 0.273089 0.421962
2927 4 0.00630252 0.374154 0.352793
616 2 0.0399115 0.364045 0.374961
617 4 0.0258736 0.372643 0.356141
618 4 0.0539494 0.355447 0.393781
347 4 0.0601305 0.336465 0.392807
326 4 0.0725064 0.350704 0.398528
325 2 0.0945706 0.361508 0.393878
408 4 0.0923899 0.390738 0.372254
406 2 0.094711 0.412226 0.359683
327 4 0.116635 0.372311 0.389227
504 4 0.273089 0.403506 0.38594
502 2 0.272425 0.381786 0.398307
753 4 0.407905 0.403118 0.340426
2924 4 0.474149 0.343233 0.333983
2923 2 0.468355 0.360675 0.350936
561 4 0.450022 0.380621 0.384137
752 4 0.447766 0.390056 0.367651
559 2 0.467126 0.390658 0.399365
751 2 0.427836 0.396587 0.354038
2925 4 0.462561 0.378117 0.367888
560 4 0.48423 0.400694 0.414593
2461 2 0.0121209 0.454697 0.344021
2463 4 0.0354353 0.454028 0.335012
549 4 0.0501958 0.46293 0.327251
547 2 0.0738637 0.455499 0.330381
681 4 0.0580728 0.435277 0.396404
679 2 0.0357112 0.445674 0.400532
383 4 0.0769261 0.440396 0.396575
680 4 0.0133497 0.456071 0.40466
776 4 0.109365 0.433043 0.335221
501 4 0.134757 0.477553 0.378546
548 4 0.0975315 0.448068 0.333511
407 4 0.0970321 0.433715 0.347112
500 4 0.107795 0.449542 0.347095
499 2 0.121276 0.463548 0.362821
669 4 0.285895 0.480735 0.413947
5 3 0.307098 0.468576 0.379462
1 1 0.320538 0.474177 0.36195
4 3 0.333915 0.456128 0.356148
667 2 0.30946 0.472492 0.41533
2 3 0.334033 0.491768 0.36808
594 4 0.451541 0.462375 0.358265
592 2 0.459829 0.485887 0.360174
718 2 0.0706417 0.0605988 0.46849
720 4 0.0522656 0.056757 0.485004
2237 4 0.0358085 0.0477565 0.489158
2236 2 0.0170632 0.0361 0.477414
368 4 0.138882 0.0395356 0.432568
719 4 0.0890177 0.0644405 0.451975
367 2 0.122567 0.050678 0.447894
369 4 0.106253 0.0618205 0.46322
604 2 0.216474 0.0144905 0.43625
606 4 0.203018 0.0312564 0.449018
439 2 0.271807 0.0207814 0.414472
441 4 0.274445 0.0425498 0.426487
424 2 0.419336 0.0685574 0.422509
3488 4 0.493626 0.00166872 0.500307
425 4 0.434991 0.0642507 0.441524
259 2 0.072384 0.143945 0.467872
260 4 0.0565547 0.14711 0.448778
261 4 0.0882133 0.14078 0.486966
1035 4 0.0842069 0.126532 0.502063
1033 2 0.108638 0.121922 0.504717
1034 4 0.133069 0.117312 0.50737
321 4 0.296796 0.0888859 0.427437
725 4 0.343432 0.141649 0.487775
468 4 0.338466 0.15979 0.49225
724 2 0.345593 0.118522 0.49703
574 2 0.404112 0.160829 0.44355
726 4 0.347754 0.0953949 0.506285
575 4 0.419226 0.151807 0.425792
642 4 0.500932 0.094093 0.489784
516 4 0.437257 0.143752 0.430219
469 2 0.0138895 0.237059 0.464659
470 4 0.0279735 0.244742 0.445481
466 2 0.321673 0.169742 0.476626
467 4 0.304879 0.179693 0.461001
411 4 0.298156 0.196446 0.451651
409 2 0.278185 0.205859 0.463387
410 4 0.258213 0.215271 0.475122
576 4 0.388998 0.169852 0.461307
871 2 0.36994 0.239152 0.488624
873 4 0.365822 0.214752 0.485038
268 2 0.453381 0.224974 0.420755
305 4 0.493957 0.172302 0.478401
270 4 0.463009 0.222849 0.443733
306 4 0.469409 0.209727 0.456097
304 2 0.481683 0.191014 0.467249
348 4 0.0522962 0.317719 0.438501
346 2 0.0562133 0.327092 0.415654
694 2 0.125357 0.278228 0.480952
696 4 0.141128 0.297163 0.485187
10 3 0.147981 0.315442 0.491809
695 4 0.109586 0.259294 0.476717
1260 4 0.155 0.29706 0.487707
649 2 0.242302 0.321587 0.49101
651 4 0.252731 0.300776 0.500138
266 4 0.305203 0.277882 0.434977
265 2 0.315842 0.297846 0.445628
267 4 0.326481 0.31781 0.456278
488 4 0.321706 0.271544 0.427314
872 4 0.374058 0.263552 0.492211
583 2 0.456465 0.291916 0.459046
584 4 0.478803 0.284444 0.467434
585 4 0.434127 0.299387 0.450658
7 3 0.128392 0.344789 0.479647
6 1 0.137003 0.334331 0.498238
650 4 0.231873 0.342399 0.481882
710 4 0.218947 0.354008 0.493529
803 4 0.237154 0.358566 0.490761
709 2 0.194242 0.354498 0.497349
503 4 0.271761 0.360065 0.410674
804 4 0.268651 0.394775 0.476705
802 2 0.252902 0.37667 0.483733
336 4 0.333513 0.371302 0.485603
334 2 0.35826 0.367783 0.485
335 4 0.383008 0.364264 0.484397
240 4 0.403021 0.368171 0.484036
238 2 0.415153 0.389965 0.482308
239 4 0.427286 0.41176 0.48058
1383 4 0.013128 0.469189 0.420168
1381 2 0.00907297 0.49378 0.422171
382 2 0.0939011 0.446267 0.413969
384 4 0.110876 0.452138 0.431364
540 4 0.106992 0.476895 0.494744
539 4 0.111488 0.465024 0.446375
569 4 0.126858 0.463308 0.434837
568 2 0.146229 0.447624 0.432856
538 2 0.10924 0.470959 0.470559
774 4 0.20624 0.467694 0.491456
1557 4 0.218954 0.498813 0.429137
570 4 0.1656 0.431939 0.430875
636 4 0.201988 0.496142 0.439855
635 4 0.192149 0.481322 0.486592
634 2 0.197069 0.488732 0.463223
588 4 0.33937 0.444498 0.417165
668 4 0.333025 0.464249 0.416712
586 2 0.364152 0.441498 0.418575
587 4 0.388935 0.438497 0.419984
661 2 0.452708 0.44043 0.494094
2507 4 0.500761 0.411473 0.417791
663 4 0.446444 0.421093 0.479534
1126 2 0.057081 0.0550161 0.524343
1127 4 0.0524364 0.0468184 0.501182
1128 4 0.0617255 0.0632138 0.547503
939 4 0.0787066 0.0696954 0.554547
1057 2 0.154606 0.0568512 0.562386
1059 4 0.138035 0.0713315 0.550516
1058 4 0.171176 0.0423709 0.574257
937 2 0.102529 0.077145 0.556023
2430 4 0.192738 0.0210494 0.545524
341 4 0.21067 0.0303626 0.550163
340 2 0.217729 0.0517378 0.53928
342 4 0.224788 0.0731129 0.528396
1031 4 0.225902 0.0782399 0.600095
961 2 0.295201 0.0497207 0.572115
963 4 0.295148 0.0688521 0.556016
430 2 0.315688 0.072527 0.523376
432 4 0.296496 0.064275 0.537115
431 4 0.33488 0.0807791 0.509637
2196 4 0.311247 0.998811 0.565043
962 4 0.295254 0.0305893 0.588213
1217 4 0.406297 0.0532 0.523154
842 4 0.387728 0.0465409 0.524654
841 2 0.370046 0.0639898 0.521813
843 4 0.352365 0.0814387 0.518973
1216 2 0.42865 0.0643211 0.524522
1218 4 0.451002 0.0754422 0.52589
938 4 0.126351 0.0845946 0.557499
1155 4 0.140592 0.0895076 0.54374
1153 2 0.158922 0.102714 0.533027
1154 4 0.177253 0.115921 0.522314
1182 4 0.239901 0.0852055 0.527428
1151 4 0.195277 0.123907 0.515642
1150 2 0.210683 0.104251 0.514436
1152 4 0.226088 0.0845936 0.513229
1181 4 0.287499 0.0805571 0.542039
1180 2 0.2637 0.0828813 0.534734
900 4 0.378911 0.146069 0.566507
898 2 0.398138 0.130179 0.564775
899 4 0.417366 0.11429 0.563042
641 4 0.456437 0.0889033 0.512011
3159 4 0.487351 0.135034 0.528996
640 2 0.478685 0.0914982 0.500898
3157 2 0.494049 0.159121 0.529321
1272 4 0.101903 0.194373 0.587569
856 2 0.227939 0.195096 0.51386
857 4 0.217536 0.198166 0.491331
858 4 0.238341 0.192026 0.536389
3065 4 0.472711 0.228719 0.550442
3064 2 0.489519 0.214625 0.53844
982 2 0.0855751 0.336223 0.526873
983 4 0.101215 0.33177 0.507879
1190 4 0.181289 0.335135 0.530263
947 4 0.200753 0.258548 0.592358
1259 4 0.203797 0.304643 0.495584
1258 2 0.179398 0.300851 0.491646
1239 4 0.308977 0.307963 0.561659
813 4 0.291269 0.311129 0.571042
1237 2 0.326409 0.294689 0.573704
811 2 0.275546 0.310078 0.551629
812 4 0.259824 0.309028 0.532215
954 4 0.405747 0.270618 0.575738
905 4 0.454902 0.232584 0.541878
904 2 0.436749 0.244596 0.554182
906 4 0.418597 0.256607 0.566487
984 4 0.0699354 0.340677 0.545866
1136 4 0.0691243 0.343498 0.565772
934 2 0.000638864 0.402661 0.506312
9 3 0.119557 0.328872 0.512529
8 3 0.151705 0.348808 0.508854
1135 2 0.0834848 0.361554 0.575411
895 2 0.139997 0.378969 0.578323
1041 4 0.104217 0.396277 0.577278
896 4 0.163362 0.371659 0.573244
1189 2 0.171224 0.343298 0.551646
711 4 0.169537 0.354987 0.501169
1191 4 0.161159 0.351462 0.573029
930 4 0.374924 0.412099 0.580319
1000 2 0.404335 0.40211 0.569213
1002 4 0.380451 0.405461 0.562618
925 2 0.46431 0.40001 0.547276
926 4 0.481513 0.399713 0.529134
3309 4 0.478406 0.388691 0.512233
927 4 0.447107 0.400307 0.565418
1001 4 0.42822 0.398759 0.575808
935 4 0.0157726 0.422509 0.504832
2243 4 0.114427 0.438278 0.549247
2242 2 0.108308 0.449958 0.528003
1161 4 0.126473 0.427678 0.564467
1159 2 0.142102 0.440457 0.579219
2244 4 0.102189 0.461637 0.506758
773 4 0.201146 0.443225 0.534769
772 2 0.203693 0.45546 0.513113
1173 4 0.275789 0.431213 0.579868
1171 2 0.298421 0.440509 0.574714
1172 4 0.321053 0.449805 0.56956
881 4 0.330919 0.440085 0.53776
1454 4 0.338051 0.499275 0.520834
882 4 0.34775 0.482661 0.517644
1910 4 0.4081 0.492533 0.552153
1909 2 0.38747 0.486649 0.564997
880 2 0.339334 0.461373 0.527702
929 4 0.338368 0.446052 0.576919
928 2 0.356646 0.429075 0.578619
1911 4 0.36684 0.480766 0.57784
1330 2 0.457626 0.505049 0.509079
1332 4 0.456131 0.480101 0.508354
662 4 0.458973 0.459768 0.508654
943 2 0.070183 0.0390364 0.6208
944 4 0.0628899 0.0628944 0.62247
2319 4 0.0587911 0.00976419 0.625654
1083 4 0.0418957 0.0652278 0.619574
945 4 0.077476 0.0151784 0.61913
950 4 0.280768 0.0175208 0.596238
949 2 0.262282 0.0115848 0.611992
810 4 0.445677 0.0774284 0.601818
808 2 0.463777 0.073446 0.618602
45 3 0.472351 0.0701072 0.652798
809 4 0.481878 0.0694636 0.635386
1082 4 0.0382945 0.111301 0.638679
1081 2 0.0400951 0.0882644 0.629127
1076 4 0.0268796 0.11511 0.654158
1284 4 0.167765 0.0848128 0.596681
1282 2 0.160788 0.0878388 0.6205
1283 4 0.15381 0.0908649 0.644318
909 4 0.166142 0.103963 0.654759
1030 2 0.230443 0.101323 0.591626
1032 4 0.234983 0.124406 0.583157
907 2 0.176812 0.116101 0.673838
879 4 0.0867871 0.181995 0.593092
877 2 0.0620102 0.185176 0.59417
878 4 0.0372333 0.188358 0.595249
1199 4 0.024849 0.197259 0.607504
1271 4 0.129532 0.166651 0.618695
1270 2 0.115717 0.180512 0.603132
1221 4 0.146656 0.156358 0.624327
1219 2 0.167783 0.168394 0.618496
797 4 0.203143 0.243634 0.606381
1211 4 0.239573 0.166518 0.645082
1210 2 0.222745 0.17372 0.628049
1212 4 0.205917 0.180922 0.611016
1220 4 0.188909 0.180429 0.612665
796 2 0.200008 0.219002 0.603441
798 4 0.196872 0.194371 0.6005
888 4 0.247756 0.184212 0.652287
791 4 0.314541 0.220437 0.585918
790 2 0.32906 0.240746 0.587315
1025 4 0.495232 0.190928 0.611543
1026 4 0.498336 0.215451 0.655014
1024 2 0.496784 0.20319 0.633279
1244 4 0.00826828 0.274582 0.633154
1243 2 0.0245915 0.270303 0.651605
948 4 0.194546 0.306932 0.581351
946 2 0.19765 0.28274 0.586854
1238 4 0.343841 0.281414 0.58575
792 4 0.343578 0.261055 0.588712
952 2 0.382158 0.271073 0.584018
953 4 0.35857 0.271528 0.592298
3264 4 0.01254 0.394672 0.624004
3240 4 6.48582e-05 0.407485 0.615326
1137 4 0.0978452 0.379611 0.585051
897 4 0.116631 0.386278 0.583402
1039 2 0.0993801 0.40862 0.598478
807 4 0.324301 0.399839 0.655311
805 2 0.342358 0.38301 0.659304
806 4 0.360414 0.366182 0.663298
1040 4 0.0945437 0.420964 0.619678
1160 4 0.15773 0.453236 0.593971
991 2 0.112062 0.433555 0.64408
993 4 0.0896331 0.435422 0.633187
1188 4 0.222831 0.444278 0.618856
1186 2 0.243578 0.445314 0.60494
1187 4 0.264326 0.44635 0.591024
891 4 0.326079 0.457201 0.586735
889 2 0.334939 0.477664 0.598046
890 4 0.343799 0.498127 0.609357
1269 4 0.388719 0.451488 0.661381
1267 2 0.41033 0.46368 0.664463
4338 4 0.0135623 0.0098406 0.713252
2398 2 0.304487 0.99965 0.740225
2400 4 0.290911 0.0206235 0.741219
1090 2 0.394423 0.0158975 0.672612
1092 4 0.385909 0.0340061 0.687604
1004 4 0.38413 0.0542577 0.684088
1003 2 0.365233 0.0706087 0.684952
1005 4 0.346337 0.0869596 0.685815
43 3 0.455919 0.0532227 0.682168
1163 4 0.493751 0.072696 0.702448
41 1 0.467132 0.072181 0.674869
42 3 0.486505 0.0745143 0.687049
862 2 0.0203697 0.106015 0.743227
864 4 0.0154957 0.10329 0.718855
1075 2 0.0228032 0.107233 0.677536
1077 4 0.0187268 0.0993554 0.700913
908 4 0.187481 0.12824 0.692917
1226 4 0.198406 0.103827 0.740129
1227 4 0.204938 0.133905 0.700715
1225 2 0.201672 0.118866 0.720422
831 4 0.308066 0.141993 0.72458
1299 4 0.317751 0.146796 0.741715
44 3 0.453903 0.0909609 0.678145
852 4 0.0186594 0.221834 0.714211
851 4 0.0641586 0.213292 0.73312
850 2 0.041409 0.217563 0.723665
1107 4 0.0785914 0.21545 0.747094
1207 2 0.0726977 0.243702 0.674943
1208 4 0.0846209 0.223505 0.683608
1277 4 0.21117 0.218912 0.754355
829 2 0.29612 0.161021 0.713608
886 2 0.257736 0.186316 0.675116
830 4 0.284174 0.18005 0.702636
887 4 0.267716 0.188419 0.697945
976 2 0.272422 0.209974 0.729302
978 4 0.272744 0.188521 0.716461
977 4 0.272099 0.231426 0.742143
1193 4 0.374563 0.208567 0.728945
1142 4 0.387963 0.201532 0.741961
1192 2 0.382343 0.21843 0.707326
1194 4 0.390122 0.228293 0.685707
1209 4 0.0607745 0.2639 0.666278
1245 4 0.0409148 0.266024 0.670055
1177 2 0.0116762 0.256727 0.751437
1179 4 0.0327298 0.265287 0.741013
821 4 0.132116 0.305989 0.726371
820 2 0.143542 0.291327 0.709648
822 4 0.154968 0.276666 0.692924
1063 2 0.228827 0.300597 0.744431
1064 4 0.244031 0.314522 0.730285
1020 4 0.36444 0.334363 0.744374
1263 4 0.437403 0.262243 0.72484
3123 4 0.499266 0.284838 0.668686
1261 2 0.42624 0.270538 0.745619
814 2 0.0743084 0.339543 0.756794
3275 4 0.011019 0.342106 0.738026
893 4 0.0449158 0.391956 0.706159
892 2 0.061847 0.375045 0.713406
1280 4 0.0516662 0.409154 0.696473
894 4 0.0787783 0.358134 0.720653
815 4 0.0845486 0.347228 0.735317
940 2 0.117232 0.365804 0.736326
942 4 0.0925767 0.365546 0.732173
941 4 0.141886 0.366063 0.740479
1067 4 0.154623 0.361603 0.724837
1028 4 0.212254 0.377108 0.692425
1027 2 0.228802 0.394884 0.698369
1066 2 0.174963 0.370859 0.713621
1068 4 0.195302 0.380115 0.702405
1204 2 0.397552 0.413624 0.699397
1205 4 0.394699 0.399034 0.679293
1279 2 0.0426472 0.427598 0.710745
1281 4 0.0336283 0.446041 0.725016
1983 4 0.0402085 0.464159 0.7271
1981 2 0.0590679 0.479872 0.731854
1982 4 0.0779273 0.495585 0.736608
992 4 0.13449 0.431689 0.654973
1029 4 0.245351 0.412661 0.704314
1175 4 0.175807 0.502882 0.701732
1139 4 0.252148 0.430078 0.698809
1140 4 0.292304 0.45005 0.676687
1138 2 0.272226 0.440064 0.687748
1987 2 0.336425 0.49041 0.725749
1230 4 0.403188 0.447504 0.725538
1228 2 0.384546 0.463808 0.7221
1229 4 0.365903 0.480111 0.718662
1989 4 0.35468 0.493556 0.708955
1206 4 0.400405 0.428214 0.719502
2168 4 0.445068 0.486995 0.677685
1268 4 0.43194 0.475873 0.667545
1100 4 0.444979 0.46813 0.679178
1099 2 0.464544 0.462071 0.693519
1101 4 0.48411 0.456012 0.70786
1294 2 0.0130565 0.0393631 0.814516
1295 4 0.0223941 0.0270514 0.834173
1296 4 0.00371889 0.0516747 0.794859
2049 4 0.13255 0.0161863 0.78345
1203 4 0.110144 0.0469441 0.820402
911 4 0.100502 0.0459777 0.836999
1202 4 0.143345 0.0333207 0.785577
1201 2 0.126744 0.0401324 0.802989
910 2 0.0887088 0.0679865 0.835693
1257 4 0.250345 0.0562125 0.805736
1255 2 0.265544 0.072973 0.816379
1113 4 0.389056 0.0597936 0.813209
973 2 0.374347 0.01942 0.80094
975 4 0.380715 0.0432159 0.805228
1111 2 0.413995 0.0609427 0.81459
2441 4 0.485314 0.990657 0.793524
845 4 0.487769 0.0740905 0.823848
2322 4 0.485754 0.00905757 0.785623
2320 2 0.493382 0.019207 0.764083
844 2 0.466507 0.0610635 0.825687
1112 4 0.438934 0.0620918 0.815971
846 4 0.445244 0.0480364 0.827525
834 4 0.0151765 0.164237 0.800657
863 4 0.0252438 0.108741 0.767599
832 2 0.0219235 0.141877 0.791729