ITEM: TIMESTEP
390000
ITEM: NUMBER OF ATOMS
4590
ITEM: BOX BOUNDS pp pp pp
-9.9985700000000008e+00 9.9985700000000008e+00
-9.9985700000000008e+00 9.9985700000000008e+00
-9.9985700000000008e+00 9.9985700000000008e+00
ITEM: ATOMS id type xs ys zs
463 2 0.0136153 0.0478491 0.0447784
465 4 0.0322623 0.0642386 0.0418027
464 4 0.994968 0.0314596 0.0477542
701 4 0.0594574 0.0699165 0.0475958
1667 4 0.096806 0.0392841 0.0656136
2184 4 0.0919753 0.997253 0.0190439
700 2 0.0814395 0.0816135 0.049865
534 4 0.22672 0.0711074 0.00749126
490 2 0.293729 0.0282342 0.0541248
491 4 0.301977 0.0387012 0.0752812
492 4 0.285481 0.0177673 0.0329684
2264 4 0.291097 0.0154644 0.0154732
296 4 0.361423 0.0710131 0.0901518
557 4 0.360542 0.0760804 0.0710089
556 2 0.363249 0.0787516 0.0462962
1608 4 0.386453 0.0110253 0.0300874
745 2 0.473361 0.0682065 0.0503432
747 4 0.471986 0.0450261 0.0410718
2975 4 0.469916 0.0319052 0.0258589
2974 2 0.475499 0.0304333 0.00153113
589 2 0.0250669 0.0975983 0.0662098
590 4 0.0290307 0.0740015 0.0589531
3233 4 0.00975226 0.134611 0.0167743
3232 2 0.0313767 0.146048 0.0116025
702 4 0.103421 0.0933105 0.0521342
421 2 0.11193 0.140921 0.0280564
423 4 0.105805 0.120146 0.0155632
422 4 0.118056 0.161695 0.0405496
565 2 0.198078 0.114739 0.0470415
566 4 0.182853 0.111185 0.0275284
567 4 0.213303 0.118292 0.0665545
358 2 0.285353 0.131338 0.0115406
360 4 0.268871 0.148935 0.018162
558 4 0.365956 0.0814229 0.0215835
746 4 0.474735 0.0913869 0.0596146
770 4 0.462555 0.169603 0.0555121
553 2 0.0659367 0.250885 0.0305326
555 4 0.0594563 0.233788 0.0134776
664 2 0.338739 0.246504 0.000408725
324 4 0.401644 0.23386 0.072389
771 4 0.44332 0.215741 0.0541024
769 2 0.452938 0.192672 0.0548072
554 4 0.0724171 0.267982 0.0475877
292 2 0.13676 0.307931 0.0109851
293 4 0.143259 0.293293 0.0301862
507 4 0.151425 0.292529 0.0478706
506 4 0.200388 0.282381 0.0484767
505 2 0.175906 0.287455 0.0481736
481 2 0.248798 0.302476 0.0753772
666 4 0.33496 0.266973 0.0142622
571 2 0.302385 0.269381 0.0343981
573 4 0.290183 0.267091 0.0561016
482 4 0.265809 0.31936 0.0682561
572 4 0.314587 0.27167 0.0126945
1071 4 0.372599 0.262381 0.0238622
1069 2 0.39614 0.267914 0.0175051
956 4 0.362878 0.307772 0.0208681
330 4 0.0337207 0.407404 0.0210185
328 2 0.00898922 0.4038 0.0202826
551 4 0.0495224 0.419521 0.0167198
1169 4 0.0518182 0.349692 0.00607487
286 2 0.158949 0.374115 0.00348436
288 4 0.175956 0.392434 0.00292675
252 4 0.292187 0.390235 0.0553122
250 2 0.294752 0.395469 0.0309976
251 4 0.297318 0.400704 0.00668311
608 4 0.289435 0.404794 0.0689085
281 4 0.448019 0.351706 0.0426377
671 4 0.436877 0.361701 0.0564365
280 2 0.460975 0.347548 0.021661
670 2 0.434557 0.353868 0.0800677
282 4 0.473932 0.34339 0.000684244
550 2 0.0733661 0.427046 0.0165498
1786 2 0.0691626 0.49001 0.0804877
1787 4 0.0556058 0.471783 0.0700394
314 4 0.0193178 0.426915 0.0797773
313 2 0.994688 0.426696 0.0754775
552 4 0.0972097 0.434572 0.0163798
242 4 0.144162 0.491603 0.0612894
245 4 0.236183 0.431554 0.0211793
244 2 0.252958 0.450092 0.0215041
246 4 0.269734 0.46863 0.021829
272 4 0.28806 0.468818 0.0143409
271 2 0.300741 0.489136 0.0215207
273 4 0.313421 0.509455 0.0287004
524 4 0.326525 0.472131 0.0635592
523 2 0.331298 0.475316 0.0878955
562 2 0.467949 0.502179 0.0350318
563 4 0.467764 0.494967 0.0110915
1668 4 0.0756731 0.0157914 0.104372
1666 2 0.0862395 0.0275377 0.0849928
20 3 0.0816077 0.0610443 0.160098
450 4 0.129204 0.0650173 0.141436
448 2 0.148852 0.0782915 0.14937
652 2 0.314191 0.0497248 0.136835
653 4 0.309322 0.0677175 0.12017
654 4 0.319061 0.031732 0.1535
295 2 0.355495 0.048716 0.0997886
485 4 0.362647 0.010972 0.110727
297 4 0.349566 0.0264189 0.109425
758 4 0.398924 0.051641 0.13858
757 2 0.395678 0.0441431 0.162211
1761 4 0.450627 0.00247218 0.142791
1760 4 0.483591 0.0253579 0.172629
1759 2 0.467109 0.0139151 0.15771
591 4 0.0211032 0.121195 0.0734666
475 2 0.118056 0.161411 0.113822
477 4 0.115327 0.147272 0.134263
237 4 0.193117 0.151209 0.140997
449 4 0.1685 0.0915656 0.157304
235 2 0.187744 0.127452 0.146649
236 4 0.18237 0.103696 0.1523
582 4 0.306624 0.096387 0.14893
312 4 0.416227 0.0937183 0.169255
628 2 0.446709 0.152078 0.114232
629 4 0.46585 0.136005 0.114902
339 4 0.0773734 0.248497 0.123086
476 4 0.120786 0.175551 0.0933823
337 2 0.0933408 0.247794 0.142314
338 4 0.109308 0.247091 0.161543
363 4 0.109327 0.232873 0.17378
737 4 0.18633 0.169526 0.136745
736 2 0.197388 0.190998 0.130275
738 4 0.208446 0.21247 0.123804
354 4 0.239762 0.224441 0.110657
352 2 0.257307 0.242079 0.108158
285 4 0.283029 0.211423 0.160245
461 4 0.333536 0.238622 0.101921
283 2 0.274395 0.23469 0.163291
322 2 0.413267 0.251641 0.0855758
254 4 0.409373 0.161102 0.106082
460 2 0.341576 0.215068 0.104322
255 4 0.361385 0.175164 0.105811
462 4 0.349615 0.191514 0.106724
253 2 0.385379 0.168133 0.105946
624 4 0.395387 0.254536 0.161797
630 4 0.427569 0.168152 0.113561
518 4 0.481798 0.226349 0.105856
620 4 0.00646199 0.330431 0.12311
705 4 0.00883022 0.311519 0.13102
483 4 0.231787 0.285591 0.0824982
537 4 0.201037 0.326276 0.12609
535 2 0.204557 0.329607 0.15062
353 4 0.274852 0.259717 0.10566
754 2 0.284731 0.294541 0.125699
755 4 0.282404 0.269825 0.122719
756 4 0.287059 0.319257 0.128679
612 4 0.296949 0.326079 0.144408
741 4 0.333727 0.314751 0.0775667
622 2 0.399833 0.273911 0.146631
623 4 0.40428 0.293287 0.131466
323 4 0.424891 0.269423 0.0987625
527 4 0.485252 0.300511 0.158388
526 2 0.472593 0.281064 0.167701
621 4 0.0275677 0.374451 0.133952
619 2 0.0170148 0.352441 0.128531
454 2 0.106182 0.362274 0.0963087
455 4 0.0816551 0.366769 0.0981517
456 4 0.130709 0.357779 0.0944656
609 4 0.315643 0.375376 0.0997042
607 2 0.302539 0.390085 0.0843063
610 2 0.288312 0.349437 0.142182
611 4 0.279674 0.372796 0.139955
302 4 0.327616 0.390916 0.169602
740 4 0.326079 0.360325 0.0966772
386 4 0.334582 0.373772 0.106224
626 4 0.255392 0.426714 0.120374
739 2 0.329903 0.337538 0.0871219
387 4 0.342049 0.387415 0.153751
15 3 0.395857 0.337829 0.137404
385 2 0.338316 0.380593 0.129988
11 1 0.413819 0.351705 0.139267
14 3 0.407284 0.373657 0.135551
672 4 0.432237 0.346034 0.103699
12 3 0.429564 0.34587 0.123545
13 3 0.423211 0.349704 0.16039
495 4 0.421373 0.38754 0.137395
493 2 0.434041 0.4086 0.132795
597 4 0.478725 0.386242 0.158219
417 4 0.152442 0.44896 0.155883
625 2 0.232592 0.42208 0.111217
627 4 0.209792 0.417446 0.102059
639 4 0.254607 0.482581 0.112959
637 2 0.262563 0.477723 0.136159
638 4 0.27052 0.472865 0.15936
525 4 0.33607 0.4785 0.112232
658 2 0.380307 0.472481 0.160663
660 4 0.400601 0.469929 0.146283
494 4 0.44671 0.42966 0.128195
19 3 0.0469214 0.0507038 0.170471
16 1 0.0659431 0.062513 0.176564
2479 2 0.993574 0.0543459 0.184865
2481 4 0.993653 0.0756239 0.197996
18 3 0.0744981 0.0540595 0.196407
673 2 0.134285 0.0326069 0.214648
674 4 0.144087 0.0516065 0.201683
675 4 0.124482 0.0136073 0.227613
1505 4 0.213501 0.0419576 0.194302
1504 2 0.235403 0.0300565 0.192337
689 4 0.203731 0.0430515 0.210579
688 2 0.188065 0.0341993 0.22794
692 4 0.203213 0.0589554 0.199402
690 4 0.172399 0.025347 0.245301
691 2 0.194409 0.0719773 0.179957
1506 4 0.257304 0.0181554 0.190371
21 1 0.393052 0.0355596 0.224999
23 3 0.410606 0.0205513 0.222766
24 3 0.375134 0.0252762 0.235563
25 3 0.386669 0.0431569 0.2045
759 4 0.392432 0.0366453 0.185842
22 3 0.400045 0.0533287 0.237824
742 2 0.449121 0.0574593 0.222805
744 4 0.449009 0.0380561 0.207035
743 4 0.449232 0.0768626 0.238574
17 3 0.060301 0.0845911 0.179706
379 2 0.00962404 0.15136 0.183087
381 4 0.0154385 0.172972 0.194234
511 2 0.0380807 0.156988 0.228664
512 4 0.0223153 0.165945 0.211448
579 4 0.100927 0.112889 0.248901
577 2 0.0950405 0.126014 0.22845
578 4 0.0891535 0.13914 0.207999
546 4 0.178565 0.143582 0.254796
693 4 0.185605 0.0849991 0.160512
723 4 0.214261 0.105464 0.217065
721 2 0.196229 0.11958 0.227102
722 4 0.178196 0.133697 0.237139
580 2 0.294889 0.105681 0.168957
581 4 0.283155 0.114975 0.188984
30 3 0.289923 0.125178 0.204844
26 1 0.299559 0.124713 0.225474
28 3 0.283463 0.128238 0.241811
27 3 0.309209 0.104109 0.228866
29 3 0.316 0.141024 0.226902
310 2 0.42652 0.0992292 0.191366
311 4 0.436813 0.10474 0.213476
333 4 0.441842 0.172762 0.225779
395 4 0.0212487 0.241813 0.221273
394 2 0.0114825 0.239836 0.244205
361 2 0.125127 0.244921 0.188958
284 4 0.265761 0.257957 0.166336
764 4 0.366027 0.228877 0.23606
763 2 0.388328 0.23559 0.226963
765 4 0.410629 0.242303 0.217865
521 4 0.460792 0.207754 0.226199
520 2 0.475974 0.217646 0.243428
362 4 0.140928 0.256969 0.204136
372 4 0.156429 0.267125 0.211592
536 4 0.208077 0.332938 0.175149
277 2 0.246505 0.289783 0.175794
370 2 0.174838 0.283768 0.208547
371 4 0.193247 0.300411 0.205501
279 4 0.222491 0.285822 0.181522
344 4 0.254857 0.255559 0.233278
278 4 0.270519 0.293745 0.170066
307 2 0.310106 0.261072 0.228989
309 4 0.314876 0.256092 0.204955
528 4 0.459935 0.261616 0.177013
647 4 0.0444248 0.368342 0.161636
646 2 0.0632898 0.358765 0.174962
648 4 0.0821547 0.349188 0.188287
300 4 0.144035 0.343124 0.213814
298 2 0.144343 0.354344 0.236157
290 4 0.227836 0.392513 0.206988
289 2 0.218214 0.413897 0.198308
303 4 0.330225 0.404142 0.217758
301 2 0.328921 0.397529 0.19368
729 4 0.313767 0.401759 0.226615
645 4 0.469783 0.374852 0.171575
643 2 0.456265 0.369358 0.19188
644 4 0.442748 0.363865 0.212185
447 4 0.456106 0.371697 0.223939
445 2 0.45598 0.372593 0.248926
263 4 0.0701449 0.438464 0.250124
262 2 0.060219 0.456361 0.235758
264 4 0.0502931 0.474257 0.221392
415 2 0.170579 0.443622 0.172246
416 4 0.188716 0.438284 0.188608
291 4 0.208592 0.43528 0.189628
768 4 0.263115 0.466975 0.21327
766 2 0.275315 0.467898 0.191464
767 4 0.287514 0.468822 0.169658
659 4 0.360013 0.475033 0.175044
229 2 0.411333 0.49481 0.208239
231 4 0.409834 0.485447 0.185103
232 2 0.0313926 0.0610167 0.293799
233 4 0.0508173 0.0471338 0.286374
1402 2 0.0659187 0.0179956 0.256416
1403 4 0.059932 0.0355682 0.273165
234 4 0.0119679 0.0748996 0.301223
1464 4 0.143211 0.995811 0.294829
731 4 0.122821 0.0673122 0.321205
1699 2 0.248725 0.0227019 0.325135
1700 4 0.269117 0.0157955 0.31242
478 2 0.478425 0.0254122 0.332455
480 4 0.480069 0.0338662 0.308982
351 4 0.450749 0.0603723 0.29394
513 4 0.0538461 0.148031 0.24588
530 4 0.0179439 0.116289 0.290225
398 4 0.0613904 0.117913 0.322204
397 2 0.0712765 0.137066 0.30953
399 4 0.0811625 0.156219 0.296857
248 4 0.237116 0.0876342 0.309626
599 4 0.176654 0.152491 0.329264
249 4 0.234944 0.135049 0.293883
247 2 0.23603 0.111342 0.301755
600 4 0.173112 0.102667 0.326859
404 4 0.23452 0.152852 0.284602
598 2 0.174883 0.127579 0.328062
632 4 0.391571 0.130907 0.307932
631 2 0.400432 0.111854 0.321484
633 4 0.409293 0.0928013 0.335036
707 4 0.337344 0.159438 0.310622
349 2 0.454494 0.0846959 0.298357
331 2 0.450712 0.167001 0.248435
350 4 0.45824 0.10902 0.302774
443 4 0.999084 0.258152 0.269423
388 2 0.0577478 0.237177 0.330986
390 4 0.0607358 0.212973 0.3365
544 2 0.180691 0.168462 0.256089
392 4 0.120702 0.187644 0.270427
391 2 0.106254 0.191317 0.2905
393 4 0.0918051 0.19499 0.310573
545 4 0.182817 0.193341 0.257381
403 2 0.231602 0.172233 0.300126
405 4 0.228684 0.191615 0.315651
708 4 0.291644 0.179351 0.314585
706 2 0.314494 0.169395 0.312604
420 4 0.421215 0.239443 0.32164
332 4 0.459582 0.16124 0.271092
762 4 0.465705 0.152626 0.288781
522 4 0.491157 0.227538 0.260656
418 2 0.435456 0.219684 0.327292
760 2 0.455737 0.170874 0.302668
761 4 0.44577 0.189122 0.316555
748 2 0.0767784 0.269677 0.26906
750 4 0.0673962 0.292835 0.26813
389 4 0.0547598 0.261382 0.325472
749 4 0.0861607 0.24652 0.26999
400 2 0.230912 0.263336 0.30687
402 4 0.239725 0.278809 0.324423
401 4 0.222099 0.247863 0.289317
343 2 0.260952 0.272861 0.250269
345 4 0.267047 0.290162 0.26726
496 2 0.289188 0.288462 0.300901
497 4 0.302073 0.270799 0.288769
498 4 0.276303 0.306125 0.313033
308 4 0.305336 0.266053 0.253023
717 4 0.362804 0.236157 0.319296
543 4 0.410172 0.330071 0.280144
615 4 0.393964 0.331319 0.291295
613 2 0.377628 0.335082 0.309846
541 2 0.433187 0.321911 0.285523
542 4 0.456202 0.313752 0.290901
366 4 0.0212183 0.332049 0.286115
364 2 0.0342047 0.352049 0.293634
365 4 0.047191 0.372049 0.301152
601 2 0.0709464 0.40182 0.26936
602 4 0.0622946 0.420554 0.255241
299 4 0.144651 0.365563 0.2585
603 4 0.0795983 0.383085 0.283479
734 4 0.162296 0.356153 0.26195
733 2 0.170471 0.351042 0.28502
735 4 0.178645 0.345931 0.30809
677 4 0.175337 0.344633 0.32745
433 2 0.318668 0.388917 0.307893
434 4 0.315169 0.37757 0.28589
727 2 0.315835 0.386207 0.246085
728 4 0.317903 0.370656 0.265554
435 4 0.322168 0.400265 0.329897
614 4 0.361292 0.338845 0.328398
446 4 0.455854 0.373488 0.273913
549 4 0.0396188 0.439367 0.323195
777 4 0.113949 0.455554 0.281726
775 2 0.118455 0.467429 0.303263
776 4 0.122961 0.479303 0.324801
414 4 0.150088 0.466301 0.291885
412 2 0.168074 0.449269 0.288483
413 4 0.186061 0.432237 0.285081
436 2 0.284089 0.45378 0.290731
437 4 0.265065 0.46987 0.292818
438 4 0.303114 0.437691 0.288644
713 4 0.406113 0.461708 0.306078
712 2 0.424302 0.461861 0.288923
714 4 0.442492 0.462013 0.271768
1772 4 0.0380818 0.993001 0.433835
316 2 0.0519915 0.0829693 0.349884
317 4 0.0439207 0.0632506 0.362969
428 4 0.0628796 0.017657 0.373143
429 4 0.0963066 0.99507 0.343594
427 2 0.0795931 0.00636331 0.358368
1782 4 0.105284 0.0143393 0.38338
1780 2 0.112972 0.0244444 0.404919
730 2 0.136919 0.0773961 0.339226
606 4 0.168411 0.053556 0.386915
604 2 0.189954 0.0524129 0.374275
605 4 0.211496 0.0512697 0.361634
1701 4 0.228333 0.0296083 0.337849
257 4 0.38324 0.0492593 0.336118
698 4 0.371559 0.0377839 0.348485
697 2 0.359542 0.0158957 0.349777
699 4 0.347525 0.994007 0.35107
256 2 0.398381 0.0604456 0.352574
424 2 0.411963 0.0677223 0.414115
479 4 0.47678 0.0169582 0.355929
258 4 0.413522 0.0716319 0.36903
426 4 0.413623 0.0673346 0.38917
318 4 0.0600623 0.102688 0.336799
685 2 0.137538 0.135958 0.406056
686 4 0.135617 0.155352 0.390392
687 4 0.139459 0.116563 0.42172
732 4 0.151017 0.0874801 0.357246
683 4 0.283267 0.110375 0.352912
682 2 0.271421 0.108281 0.374832
684 4 0.259576 0.106186 0.396752
320 4 0.265035 0.106425 0.416427
516 4 0.42685 0.134895 0.418377
451 2 0.47942 0.155304 0.35384
453 4 0.457743 0.144191 0.359479
514 2 0.441131 0.135164 0.397855
515 4 0.455412 0.135432 0.377333
2653 2 0.00739478 0.227349 0.358139
2654 4 0.0278868 0.221671 0.371293
275 4 0.175846 0.257571 0.369674
474 4 0.253688 0.175165 0.344412
472 2 0.268529 0.194881 0.340386
473 4 0.283369 0.214598 0.336361
488 4 0.332149 0.231799 0.398857
487 2 0.311767 0.223624 0.410812
467 4 0.367466 0.206284 0.432178
269 4 0.490141 0.249276 0.381103
452 4 0.501097 0.166416 0.348201
419 4 0.449698 0.199926 0.332945
268 2 0.484864 0.254163 0.40505
618 4 0.0689663 0.327464 0.410571
347 4 0.0629958 0.312147 0.420185
508 2 0.237677 0.314208 0.346061
510 4 0.245297 0.293145 0.334949
375 4 0.197275 0.319138 0.384377
274 2 0.200224 0.262874 0.368009
276 4 0.224601 0.268177 0.366344
373 2 0.209866 0.311503 0.404585
678 4 0.19233 0.334079 0.373283
376 2 0.271995 0.263962 0.347836
377 4 0.29227 0.250621 0.353846
378 4 0.251719 0.277302 0.341825
715 2 0.371213 0.25512 0.333254
716 4 0.379623 0.274084 0.347213
616 2 0.0784311 0.345137 0.39563
617 4 0.0878959 0.362811 0.380688
509 4 0.230058 0.33527 0.357173
676 2 0.183833 0.339356 0.350367
503 4 0.269403 0.401715 0.389392
753 4 0.405857 0.409643 0.36406
561 4 0.4663 0.388344 0.381095
752 4 0.453428 0.404509 0.378599
559 2 0.476457 0.374164 0.39901
751 2 0.429643 0.407076 0.37133
2925 4 0.486587 0.351583 0.365633
560 4 0.486613 0.359983 0.416924
548 4 0.0839852 0.449441 0.343952
547 2 0.061802 0.444404 0.333574
2461 2 0.00419225 0.461992 0.337619
2463 4 0.0250175 0.448701 0.333768
407 4 0.0978404 0.437541 0.352933
408 4 0.0851081 0.421234 0.39846
406 2 0.0914743 0.429388 0.375696
499 2 0.0983245 0.490757 0.349772
500 4 0.103267 0.4846 0.326047
501 4 0.0933821 0.496913 0.373496
5 3 0.296851 0.455579 0.3647
1 1 0.314851 0.468033 0.370988
2 3 0.307572 0.486713 0.382267
4 3 0.328532 0.455639 0.385046
3 3 0.326764 0.474755 0.352245
594 4 0.386569 0.479842 0.361714
592 2 0.406034 0.490594 0.350281
718 2 0.0460044 0.0599226 0.456953
720 4 0.0361937 0.0399317 0.468324
2237 4 0.0463187 0.0377815 0.486531
2236 2 0.0337639 0.0169047 0.492163
1781 4 0.12066 0.0345496 0.426459
367 2 0.124896 0.0571845 0.452411
369 4 0.134898 0.0619824 0.474819
368 4 0.114893 0.0523866 0.430003
1180 2 0.258872 0.0761013 0.492283
1182 4 0.238676 0.0902837 0.488263
441 4 0.291237 0.0303487 0.424671
439 2 0.284387 0.00915962 0.413301
425 4 0.410302 0.0681099 0.439061
719 4 0.0558151 0.0799135 0.445582
458 4 0.0233361 0.166618 0.417155
321 4 0.2615 0.135766 0.456767
319 2 0.263267 0.121096 0.436597
726 4 0.349563 0.0877758 0.492592
724 2 0.362698 0.088258 0.471322
725 4 0.375832 0.0887401 0.450051
2878 2 0.501301 0.0922841 0.457316
574 2 0.421575 0.164349 0.441132
575 4 0.426545 0.154802 0.418563
642 4 0.475698 0.107554 0.470645
2880 4 0.495515 0.107579 0.476231
640 2 0.470508 0.124172 0.488592
457 2 0.000252335 0.175003 0.421846
471 4 0.00460198 0.186731 0.488605
469 2 0.0158123 0.19758 0.469065
470 4 0.0270227 0.208429 0.449525
260 4 0.0952769 0.195146 0.422009
261 4 0.0905008 0.186655 0.471058
259 2 0.0928889 0.1909 0.446534
1035 4 0.100821 0.171117 0.477792
489 4 0.291386 0.215448 0.422768
411 4 0.258362 0.213168 0.453626
409 2 0.272324 0.198247 0.468034
410 4 0.286287 0.183325 0.482441
468 4 0.359987 0.158591 0.445223
466 2 0.363727 0.182438 0.438701
270 4 0.479587 0.25905 0.428997
576 4 0.416604 0.173896 0.4637
305 4 0.445522 0.198171 0.452091
306 4 0.486364 0.227016 0.451288
304 2 0.465943 0.212594 0.451689
346 2 0.0507156 0.292417 0.429411
348 4 0.0384354 0.272688 0.438637
326 4 0.0641309 0.327878 0.43033
695 4 0.100173 0.262308 0.464068
694 2 0.107931 0.272356 0.485609
325 2 0.0735048 0.339431 0.450426
374 4 0.222457 0.303869 0.424793
10 3 0.171185 0.332779 0.468656
650 4 0.254098 0.307328 0.469696
651 4 0.261628 0.281324 0.42765
649 2 0.257863 0.294326 0.448673
266 4 0.311555 0.315377 0.458157
872 4 0.382758 0.253667 0.488703
267 4 0.357462 0.29594 0.45422
265 2 0.334508 0.305658 0.456188
2456 4 0.492463 0.278541 0.462076
583 2 0.455073 0.288381 0.468771
584 4 0.475862 0.287098 0.454938
585 4 0.434284 0.289663 0.482603
681 4 0.0592122 0.405674 0.452495
383 4 0.0802328 0.410243 0.452279
935 4 0.00979491 0.389458 0.486721
327 4 0.0828787 0.350984 0.470521
7 3 0.138665 0.35109 0.468904
6 1 0.157857 0.346692 0.480798
8 3 0.168907 0.366685 0.484868
711 4 0.187669 0.374409 0.483636
709 2 0.20437 0.374324 0.465028
710 4 0.221071 0.374238 0.446421
774 4 0.226674 0.411634 0.486068
504 4 0.249497 0.420345 0.431313
812 4 0.304803 0.351147 0.496244
502 2 0.25945 0.41103 0.410352
336 4 0.381203 0.400228 0.420941
334 2 0.37742 0.391635 0.444115
238 2 0.399363 0.364486 0.495052
240 4 0.393719 0.374445 0.472823
335 4 0.373638 0.383042 0.467289
1382 4 0.0278058 0.498391 0.484095
680 4 0.0298908 0.445239 0.443799
1381 2 0.0268236 0.48128 0.465889
1383 4 0.0258414 0.46417 0.447684
679 2 0.0445515 0.425457 0.448147
539 4 0.0851505 0.493726 0.470695
570 4 0.124329 0.485355 0.414635
568 2 0.130169 0.468297 0.431959
569 4 0.136008 0.451239 0.449282
382 2 0.101027 0.423923 0.454655
384 4 0.121821 0.437603 0.457031
538 2 0.101598 0.497852 0.48907
636 4 0.217622 0.478221 0.474512
634 2 0.221564 0.453533 0.474927
635 4 0.225506 0.428846 0.475341
668 4 0.305066 0.432093 0.425401
667 2 0.314448 0.446199 0.44379
588 4 0.372919 0.452474 0.419797
586 2 0.394135 0.453919 0.432948
669 4 0.32383 0.460305 0.46218
881 4 0.343422 0.442044 0.496264
587 4 0.415351 0.455364 0.4461
663 4 0.446463 0.441493 0.483249
661 2 0.449509 0.459669 0.500146
1126 2 0.0523648 0.0616 0.543673
1127 4 0.0685718 0.0597484 0.524723
1128 4 0.0361577 0.0634517 0.562622
2238 4 0.0212091 0.996028 0.497795
1058 4 0.138038 0.0582007 0.554715
1057 2 0.145061 0.0818324 0.558887
342 4 0.182877 0.0768553 0.507609
340 2 0.194316 0.0548032 0.504772
341 4 0.205754 0.0327511 0.501934
2430 4 0.213663 0.0175997 0.513517
1031 4 0.229816 0.09425 0.586549
950 4 0.222572 0.99946 0.573106
961 2 0.269446 0.0329289 0.52486
963 4 0.27786 0.0451154 0.504714
962 4 0.261031 0.0207424 0.545007
432 4 0.294759 0.0527494 0.507616
430 2 0.316109 0.0656082 0.505613
1181 4 0.279068 0.0619188 0.496303
1217 4 0.406869 0.0667782 0.538621
841 2 0.372114 0.071645 0.526025
842 4 0.387466 0.062822 0.543678
843 4 0.356763 0.080468 0.508371
1216 2 0.425503 0.0508223 0.543454
1218 4 0.444137 0.0348664 0.548287
938 4 0.105125 0.117886 0.567901
937 2 0.0964971 0.10597 0.547683
939 4 0.087869 0.0940545 0.527466
1059 4 0.152083 0.105464 0.56306
1152 4 0.195955 0.0880445 0.518718
1030 2 0.244883 0.102671 0.56846
1151 4 0.180476 0.135594 0.518355
1150 2 0.188216 0.111819 0.518537
1032 4 0.259951 0.111092 0.55037
898 2 0.327695 0.159 0.548962
431 4 0.337459 0.078467 0.50361
899 4 0.342919 0.140299 0.542353
641 4 0.465319 0.140789 0.506539
3159 4 0.495974 0.157197 0.540925
877 2 0.0690735 0.222143 0.569491
878 4 0.0445549 0.221387 0.574333
1034 4 0.118849 0.172418 0.524419
1033 2 0.109835 0.171767 0.501106
879 4 0.0935922 0.222899 0.564649
1272 4 0.0994132 0.226415 0.584088
857 4 0.266161 0.245604 0.516171
1221 4 0.191135 0.203377 0.567181
856 2 0.260823 0.221387 0.519364
858 4 0.255485 0.197169 0.522556
900 4 0.31247 0.1777 0.555572
871 2 0.394627 0.247089 0.509703
873 4 0.406497 0.240511 0.530704
906 4 0.451514 0.255341 0.584335
904 2 0.469514 0.248009 0.568606
905 4 0.487514 0.240677 0.552877
983 4 0.0483185 0.325255 0.521348
982 2 0.0378465 0.336757 0.540924
1258 2 0.149218 0.295132 0.529548
1260 4 0.129829 0.295037 0.513761
696 4 0.115688 0.282404 0.50715
1259 4 0.168607 0.295226 0.545335
811 2 0.308481 0.326754 0.500327
813 4 0.312158 0.302362 0.50441
3065 4 0.502964 0.254722 0.552104
954 4 0.43394 0.261013 0.59255
984 4 0.0273746 0.348259 0.5605
9 3 0.152089 0.336599 0.50088
1189 2 0.206736 0.359623 0.576627
1190 4 0.218219 0.337614 0.573643
896 4 0.188891 0.393441 0.593615
772 2 0.240255 0.410094 0.507005
773 4 0.253836 0.408554 0.527942
802 2 0.274835 0.369285 0.514379
803 4 0.264956 0.360019 0.535396
804 4 0.284714 0.378552 0.493362
239 4 0.405007 0.354527 0.517281
925 2 0.456495 0.40115 0.538731
926 4 0.469354 0.382331 0.549012
927 4 0.443636 0.419968 0.528451
3309 4 0.486657 0.405587 0.510107
2243 4 0.152108 0.482617 0.554064
540 4 0.118045 0.501978 0.507445
1173 4 0.233002 0.443526 0.575635
1171 2 0.257193 0.437216 0.575273
882 4 0.331802 0.489548 0.506704
889 2 0.314567 0.456284 0.575241
1172 4 0.281385 0.430905 0.574911
880 2 0.337612 0.465796 0.501484
890 4 0.337663 0.46551 0.572665
1952 4 0.354409 0.478422 0.574913
1000 2 0.422994 0.443247 0.577431
929 4 0.361053 0.421513 0.573406
1001 4 0.444419 0.450822 0.567002
662 4 0.452555 0.477846 0.517043
1332 4 0.464183 0.493143 0.513184
1911 4 0.402801 0.502093 0.572832
945 4 0.0712717 0.0153981 0.665208
944 4 0.0584083 0.0632077 0.672242
943 2 0.06484 0.0393029 0.668725
825 4 0.156618 0.00673105 0.650097
1284 4 0.182427 0.0874598 0.627707
949 2 0.223603 0.00800025 0.596583
951 4 0.224634 0.0165403 0.62006
809 4 0.452906 0.0774253 0.615002
1083 4 0.0554754 0.10537 0.603129
1082 4 0.0519397 0.11691 0.651658
1081 2 0.0537075 0.11114 0.627394
1076 4 0.0365626 0.10486 0.657832
1155 4 0.148554 0.110202 0.58285
1153 2 0.156823 0.132843 0.589496
1154 4 0.165092 0.155485 0.596142
1283 4 0.203543 0.115738 0.663136
1282 2 0.192985 0.101599 0.645422
808 2 0.446861 0.100981 0.620811
810 4 0.440816 0.124538 0.626621
1199 4 0.0227908 0.193462 0.601723
1243 2 0.0690082 0.249406 0.628087
1270 2 0.121165 0.215139 0.589075
1271 4 0.142918 0.203863 0.594062
1245 4 0.0925954 0.241119 0.62848
1209 4 0.107388 0.24873 0.638905
1210 2 0.223227 0.183809 0.646118
1212 4 0.210913 0.178878 0.624923
1219 2 0.197582 0.198838 0.590909
1220 4 0.204029 0.194299 0.614637
796 2 0.245112 0.226099 0.614717
797 4 0.235412 0.245444 0.602193
798 4 0.254813 0.206754 0.627241
791 4 0.307349 0.227597 0.584463
790 2 0.313322 0.250849 0.591452
1026 4 0.458124 0.16509 0.609137
1024 2 0.458783 0.185674 0.623317
1025 4 0.459442 0.206258 0.637496
3123 4 0.472176 0.235179 0.67248
1244 4 0.045421 0.257692 0.627694
948 4 0.14911 0.263598 0.63645
946 2 0.172745 0.264342 0.628326
947 4 0.19638 0.265086 0.620202
792 4 0.319295 0.274101 0.59844
1238 4 0.302279 0.282309 0.587491
1237 2 0.291029 0.304539 0.585375
952 2 0.432825 0.285634 0.588335
953 4 0.43171 0.310255 0.584121
1039 2 0.0642644 0.406485 0.601808
1041 4 0.0521447 0.388638 0.589168
1137 4 0.12067 0.387036 0.593178
897 4 0.138978 0.393443 0.596682
1136 4 0.108229 0.339777 0.603787
1135 2 0.114449 0.363407 0.598482
992 4 0.111909 0.417414 0.660456
895 2 0.163935 0.393442 0.595148
1191 4 0.195253 0.381633 0.579611
1239 4 0.279779 0.326768 0.583259
928 2 0.346249 0.404065 0.583484
930 4 0.331445 0.386617 0.593563
1204 2 0.374684 0.39868 0.65717
1205 4 0.37017 0.37424 0.654424
1206 4 0.379197 0.423119 0.659915
1040 4 0.0763841 0.424332 0.614448
1159 2 0.15444 0.464615 0.591259
1161 4 0.154004 0.440348 0.597268
991 2 0.102728 0.426451 0.639026
993 4 0.0935474 0.435489 0.617597
1160 4 0.154876 0.488882 0.58525
1187 4 0.214527 0.450971 0.578467
1186 2 0.213577 0.469876 0.594802
1188 4 0.212628 0.488782 0.611138
891 4 0.291471 0.447058 0.577817
1002 4 0.401569 0.435671 0.58786
1269 4 0.397638 0.474066 0.66618
1951 2 0.354904 0.497873 0.590616
2049 4 0.0952818 0.0141534 0.75353
1202 4 0.105971 0.0304884 0.751688
1147 2 0.228168 0.0737059 0.740763
1149 4 0.233921 0.0493968 0.739695
1005 4 0.344181 0.0686378 0.681144
1004 4 0.357055 0.0635546 0.729197
1003 2 0.350618 0.0660962 0.70517
45 3 0.417757 0.0695319 0.666657
43 3 0.421697 0.0597074 0.70279
1163 4 0.471101 0.0641745 0.679641
1162 2 0.490184 0.0526357 0.69095
42 3 0.451859 0.0671287 0.681629
2320 2 0.487752 0.0115068 0.732013
41 1 0.429951 0.0729157 0.685591
2322 4 0.474856 0.00745839 0.753048
862 2 0.0301681 0.112056 0.742449
864 4 0.0392167 0.0974556 0.724279
1075 2 0.0340953 0.10017 0.682267
1077 4 0.031628 0.0954796 0.706703
852 4 0.0237662 0.173063 0.700031
909 4 0.130322 0.144409 0.681578
907 2 0.147039 0.143267 0.700137
908 4 0.163757 0.142124 0.718695
1227 4 0.1721 0.146623 0.735703
1148 4 0.222414 0.0980151 0.741831
1225 2 0.189404 0.128576 0.735891
829 2 0.306532 0.15208 0.719851
831 4 0.304222 0.12957 0.730488
1141 2 0.386017 0.162677 0.740457
1086 4 0.358521 0.107108 0.74814
3426 4 0.490083 0.107508 0.679072
44 3 0.429085 0.0952913 0.691673
3424 2 0.500041 0.129972 0.674446
851 4 0.0521389 0.191389 0.736907
850 2 0.0379526 0.182226 0.718469
1107 4 0.06095 0.210249 0.736773
1105 2 0.0852847 0.215107 0.739838
1207 2 0.111638 0.241263 0.662386
1208 4 0.115888 0.233796 0.685867
1106 4 0.109619 0.219966 0.742904
1211 4 0.235541 0.18874 0.667313
830 4 0.308841 0.17459 0.709214
886 2 0.273109 0.184465 0.691152
888 4 0.251606 0.184375 0.678392
887 4 0.294612 0.184555 0.703911
976 2 0.292357 0.200533 0.741957
978 4 0.297557 0.185901 0.72236
1142 4 0.392951 0.176464 0.720784
1193 4 0.376637 0.210128 0.67006
1192 2 0.359542 0.19685 0.682575
1194 4 0.342447 0.183572 0.69509
1261 2 0.432783 0.215151 0.727964
1263 4 0.437329 0.192922 0.717457
1262 4 0.428236 0.23738 0.738471
3121 2 0.496256 0.241046 0.675783
1177 2 0.00289539 0.256919 0.715291
1179 4 0.0139193 0.277155 0.705588
821 4 0.160373 0.2856 0.706113
820 2 0.168895 0.288566 0.729431
1064 4 0.229626 0.295965 0.70449
1065 4 0.266416 0.291827 0.738107
1063 2 0.248021 0.293896 0.721299
893 4 0.060709 0.383161 0.6936
892 2 0.056759 0.368115 0.713176
894 4 0.052809 0.35307 0.732752
3276 4 0.0208346 0.372469 0.714876
1280 4 0.0513721 0.399378 0.685578
940 2 0.131807 0.381366 0.738221
1067 4 0.159296 0.389076 0.719336
941 4 0.156283 0.386477 0.738223
942 4 0.107332 0.376255 0.738219
1029 4 0.240398 0.38567 0.665526
1028 4 0.205836 0.405599 0.695677
1066 2 0.180339 0.402168 0.716024
1068 4 0.201382 0.41526 0.712712
1027 2 0.223117 0.395635 0.680602
806 4 0.328223 0.366543 0.668928
807 4 0.327196 0.349425 0.715903
805 2 0.32771 0.357984 0.692416
3330 4 0.494369 0.422217 0.724001
1281 4 0.0482203 0.446391 0.70233
1279 2 0.0497962 0.422885 0.693954
1983 4 0.0352503 0.460446 0.70544
1981 2 0.0285977 0.462296 0.729471
1982 4 0.0219451 0.464147 0.753502
2172 4 0.0852143 0.500214 0.676291
1176 4 0.191674 0.479789 0.736405
1174 2 0.193675 0.48064 0.711497
1175 4 0.195675 0.481491 0.686588
1139 4 0.262902 0.452341 0.71469
1138 2 0.286607 0.459228 0.710712
1140 4 0.310311 0.466115 0.706733
1987 2 0.344345 0.502896 0.747533
1228 2 0.361116 0.464624 0.708239
1229 4 0.365883 0.48866 0.71321
1230 4 0.35635 0.440587 0.703268
1989 4 0.362451 0.496623 0.731471
2168 4 0.439189 0.48409 0.711922
1268 4 0.436165 0.472528 0.698022
1267 2 0.416902 0.473297 0.682101
1100 4 0.440361 0.465769 0.716792
1099 2 0.448523 0.442156 0.715801
1101 4 0.456684 0.418542 0.714809
1294 2 0.0288104 0.0124941 0.817513
911 4 0.0960293 0.0585103 0.801084
1295 4 0.03184 0.0289659 0.798947
1196 4 0.119557 0.0118197 0.807226
1203 4 0.101725 0.068093 0.784377
1201 2 0.103848 0.0492907 0.768032
910 2 0.0998082 0.0665405 0.82446
1255 2 0.305458 0.0721209 0.81293
1257 4 0.293044 0.0621678 0.793642
1256 4 0.317872 0.082074 0.832217
1113 4 0.401203 0.0468903 0.782311
1050 4 0.375094 0.995617 0.765603
973 2 0.385626 0.0175927 0.811764
975 4 0.390909 0.0318927 0.791945
1112 4 0.447317 0.0533395 0.80055
846 4 0.45595 0.0451075 0.818279
844 2 0.475372 0.0579679 0.809191
1111 2 0.42426 0.0501149 0.79143
845 4 0.494793 0.0708282 0.800102
863 4 0.0211196 0.126657 0.760618
832 2 0.0116887 0.127641 0.795537
833 4 0.0105647 0.137658 0.772656
34 3 0.0994878 0.160527 0.811532
33 3 0.123152 0.135057 0.79618
1226 4 0.206708 0.110529 0.736079
839 4 0.239739 0.145484 0.778583
838 2 0.259345 0.147718 0.793938
840 4 0.278952 0.149953 0.809294
1084 2 0.362526 0.11915 0.769684
1085 4 0.366532 0.131191 0.791227
819 4 0.367272 0.124815 0.809974
817 2 0.383093 0.110341 0.822835