ITEM: TIMESTEP
1850000
ITEM: NUMBER OF ATOMS
4590
ITEM: BOX BOUNDS pp pp pp
-9.9985700000000008e+00 9.9985700000000008e+00
-9.9985700000000008e+00 9.9985700000000008e+00
-9.9985700000000008e+00 9.9985700000000008e+00
ITEM: ATOMS id type xs ys zs
701 4 0.0835542 0.0842776 0.0201035
465 4 0.0696299 0.071421 0.0151218
463 2 0.0500194 0.0869232 0.0145837
2575 2 0.0177012 0.00204638 0.0787793
700 2 0.102071 0.0717776 0.0313307
702 4 0.120588 0.0592775 0.0425578
566 4 0.135868 0.0679441 0.0346658
565 2 0.159862 0.07298 0.0297567
567 4 0.183856 0.078016 0.0248477
491 4 0.290395 0.00354902 0.0352997
2264 4 0.276106 0.0138279 0.0418903
2263 2 0.271181 0.0325001 0.0260073
2265 4 0.266256 0.0511723 0.0101242
746 4 0.460577 0.061811 0.0253298
2469 4 0.465182 0.0432313 0.0305247
2467 2 0.470063 0.0214569 0.0418041
464 4 0.0304089 0.102425 0.0140457
590 4 0.023407 0.104778 0.0328079
589 2 0.00706679 0.109613 0.0511055
558 4 0.313306 0.11151 0.0441363
556 2 0.31648 0.10856 0.0687614
865 2 0.364572 0.161358 0.0200931
867 4 0.363662 0.167905 0.0442071
771 4 0.462583 0.140803 0.0581482
769 2 0.476376 0.148688 0.077455
554 4 0.0406042 0.223179 0.0503043
553 2 0.058087 0.231194 0.0343267
555 4 0.0755698 0.23921 0.0183491
837 4 0.141331 0.228993 0.00145201
835 2 0.118329 0.236065 0.00823931
836 4 0.0953265 0.243137 0.0150266
738 4 0.149125 0.18503 0.074058
573 4 0.323674 0.245033 0.0562973
666 4 0.329027 0.22667 0.0528735
461 4 0.331172 0.235583 0.070928
664 2 0.340915 0.204707 0.0516502
665 4 0.352802 0.182744 0.0504269
1070 4 0.396397 0.221008 0.0290204
1069 2 0.397655 0.242383 0.0419327
294 4 0.0809953 0.311839 0.0459925
292 2 0.103706 0.31956 0.0389371
507 4 0.134232 0.337069 0.0466987
293 4 0.126417 0.327281 0.0318817
356 4 0.314312 0.308042 0.0419401
572 4 0.313015 0.288521 0.0340284
355 2 0.31142 0.323486 0.0224901
571 2 0.318344 0.266777 0.0451628
1071 4 0.398912 0.263757 0.054845
324 4 0.404391 0.279819 0.0472826
322 2 0.418956 0.298291 0.0557583
672 4 0.434311 0.336717 0.0706933
323 4 0.43352 0.316763 0.0642341
620 4 0.00585611 0.372219 0.0632434
647 4 0.0169953 0.355727 0.0684596
505 2 0.156653 0.339021 0.0575933
483 4 0.193987 0.346481 0.0550816
506 4 0.179073 0.340972 0.0684879
481 2 0.206952 0.364828 0.0441062
609 4 0.223527 0.403007 0.0318527
482 4 0.219918 0.383175 0.0331308
607 2 0.246427 0.412408 0.035378
357 4 0.308527 0.33893 0.00304021
957 4 0.394649 0.38437 0.0129348
670 2 0.449284 0.355547 0.0775062
280 2 0.478109 0.411921 0.0792156
281 4 0.478931 0.387451 0.0842865
671 4 0.464257 0.374377 0.0843191
551 4 0.0916685 0.438956 0.0848124
552 4 0.0989076 0.486582 0.0713926
1787 4 0.102983 0.503465 0.0634831
550 2 0.095288 0.462769 0.0781025
1788 4 0.119127 0.494112 0.0170869
1786 2 0.111055 0.498789 0.040285
625 2 0.227655 0.428735 0.0884404
626 4 0.211033 0.410065 0.0878682
608 4 0.269327 0.421808 0.0389033
246 4 0.244997 0.4944 0.0405117
252 4 0.271519 0.441327 0.0347833
244 2 0.248404 0.475893 0.0569747
245 4 0.251811 0.457385 0.0734378
250 2 0.292192 0.450852 0.0244362
251 4 0.312866 0.460378 0.0140891
272 4 0.248377 0.494371 0.0209618
282 4 0.477286 0.436391 0.0741446
226 2 0.480209 0.472475 0.0493434
228 4 0.486503 0.490936 0.0336984
227 4 0.473914 0.454015 0.0649883
2576 4 0.0362116 0.993185 0.0930626
16 1 0.0640976 0.0543299 0.141703
20 3 0.0595904 0.0680417 0.124087
1806 4 0.0607159 0.0193663 0.138717
18 3 0.0503156 0.0356782 0.140946
1804 2 0.0535029 0.00141767 0.122874
19 3 0.0608875 0.0657473 0.161646
17 3 0.0860119 0.047436 0.140525
450 4 0.156357 0.0477535 0.156208
673 2 0.119036 0.0446101 0.160301
675 4 0.0955846 0.0526078 0.156946
448 2 0.166384 0.0691317 0.147986
1661 4 0.317195 0.00817889 0.159381
652 2 0.322209 0.0437057 0.149494
654 4 0.321083 0.0194445 0.143552
653 4 0.323336 0.0679669 0.155435
486 4 0.398186 0.999422 0.114401
484 2 0.38069 0.0172212 0.112897
295 2 0.345873 0.0698078 0.0935682
297 4 0.360555 0.0498193 0.0967413
485 4 0.363194 0.0350202 0.111393
2625 4 0.997096 0.128229 0.136203
579 4 0.0947347 0.0994816 0.116904
237 4 0.14472 0.139385 0.123083
578 4 0.12561 0.138814 0.117502
577 2 0.110172 0.119148 0.117203
476 4 0.133096 0.154976 0.125472
737 4 0.137945 0.15005 0.108001
736 2 0.143535 0.16754 0.0910295
235 2 0.16376 0.123899 0.127861
236 4 0.1828 0.108412 0.132639
693 4 0.194761 0.0935051 0.134315
449 4 0.176411 0.09051 0.139763
691 2 0.219561 0.0913664 0.136674
692 4 0.244361 0.0892277 0.139032
582 4 0.254981 0.103699 0.148188
557 4 0.319655 0.105609 0.0933865
580 2 0.27302 0.111152 0.163816
296 4 0.331191 0.0897963 0.0903951
770 4 0.490169 0.156574 0.0967619
311 4 0.450322 0.146773 0.131752
310 2 0.439461 0.16692 0.141819
339 4 0.0495886 0.20748 0.157277
337 2 0.0742238 0.203207 0.157106
475 2 0.124378 0.17162 0.141969
477 4 0.11566 0.188264 0.158466
338 4 0.0988589 0.198933 0.156935
283 2 0.317581 0.20467 0.137645
354 4 0.326036 0.239211 0.135227
285 4 0.305055 0.185453 0.147596
284 4 0.330106 0.223886 0.127695
460 2 0.333468 0.2373 0.0957667
462 4 0.335763 0.239018 0.120605
255 4 0.342513 0.233569 0.135843
254 4 0.383852 0.243352 0.162226
253 2 0.363183 0.23846 0.149035
629 4 0.420617 0.185584 0.170619
1012 2 0.48465 0.195485 0.109438
1013 4 0.472918 0.216474 0.116294
1014 4 0.496383 0.174496 0.102583
312 4 0.4286 0.187066 0.151885
456 4 0.0712912 0.337755 0.0994796
454 2 0.0960614 0.33462 0.0981426
352 2 0.311103 0.257968 0.142325
353 4 0.29617 0.276724 0.149423
754 2 0.279871 0.308409 0.141137
755 4 0.289277 0.292622 0.158092
278 4 0.283671 0.275845 0.164505
756 4 0.270466 0.324196 0.124181
763 2 0.415523 0.263081 0.170601
764 4 0.434246 0.278983 0.165939
646 2 0.0351291 0.344167 0.0812153
648 4 0.053263 0.332607 0.0939709
455 4 0.120832 0.331485 0.0968056
612 4 0.259459 0.340183 0.123361
537 4 0.192248 0.359178 0.120805
535 2 0.194204 0.378296 0.10481
611 4 0.210512 0.349316 0.118721
610 2 0.234986 0.34475 0.121041
536 4 0.19616 0.397414 0.0888145
741 4 0.380717 0.357479 0.0949455
739 2 0.384678 0.369718 0.116386
740 4 0.388639 0.381957 0.137827
15 3 0.385265 0.372023 0.154462
385 2 0.358121 0.400033 0.15287
386 4 0.381585 0.391401 0.153188
495 4 0.399804 0.395453 0.147932
11 1 0.403654 0.372909 0.167867
12 3 0.416008 0.353708 0.165061
14 3 0.416765 0.391171 0.162125
387 4 0.334657 0.408666 0.152553
2651 4 0.482744 0.368333 0.0861045
1467 4 0.00132317 0.447263 0.0788196
1465 2 0.012556 0.462352 0.0952909
1466 4 0.0237889 0.477442 0.111762
1791 4 0.0414096 0.479233 0.12025
1789 2 0.0454098 0.500275 0.13315
242 4 0.107154 0.50047 0.0821649
637 2 0.212247 0.481079 0.149948
638 4 0.236616 0.47577 0.148171
627 4 0.244277 0.447404 0.0890126
767 4 0.246256 0.459832 0.155448
639 4 0.187879 0.486389 0.151724
303 4 0.300707 0.453852 0.140822
766 2 0.268818 0.464955 0.145969
768 4 0.291381 0.470079 0.136489
301 2 0.320537 0.440534 0.148209
302 4 0.340367 0.427217 0.155596
493 2 0.410644 0.414779 0.136348
494 4 0.421485 0.434105 0.124765
660 4 0.421396 0.452544 0.133519
658 2 0.429355 0.466228 0.152873
2480 4 0.00895275 0.015167 0.227291
1422 4 0.02751 0.00669803 0.22836
380 4 0.0639322 0.0618088 0.180424
1505 4 0.153491 0.0471298 0.175079
674 4 0.142487 0.0366124 0.163657
1504 2 0.161998 0.0363246 0.195961
689 4 0.186568 0.0175511 0.22581
1506 4 0.170504 0.0255194 0.216843
22 3 0.387612 0.0200696 0.209505
21 1 0.400533 0.0105505 0.225984
758 4 0.413683 0.0820559 0.212651
757 2 0.422809 0.0592226 0.217183
25 3 0.420427 0.0215661 0.227219
759 4 0.431935 0.0363893 0.221715
350 4 0.437549 0.0255402 0.235953
349 2 0.460603 0.0211706 0.244589
379 2 0.0559934 0.0835606 0.189859
512 4 0.0436431 0.120098 0.213029
381 4 0.0480545 0.105312 0.199293
511 2 0.0465632 0.141645 0.200684
513 4 0.0494832 0.163192 0.188339
545 4 0.128351 0.161209 0.257098
723 4 0.242655 0.16728 0.231228
581 4 0.291058 0.118605 0.179444
30 3 0.298272 0.135566 0.186582
26 1 0.319283 0.138074 0.195001
29 3 0.330961 0.118102 0.193223
27 3 0.3179 0.143929 0.217204
28 3 0.330469 0.15484 0.183505
521 4 0.482564 0.135741 0.207455
520 2 0.49535 0.156865 0.211389
363 4 0.102747 0.187771 0.172622
362 4 0.125734 0.207465 0.212428
361 2 0.114241 0.197618 0.192525
372 4 0.134225 0.2224 0.200846
370 2 0.151692 0.236259 0.212161
721 2 0.219948 0.167529 0.241693
279 4 0.241732 0.248928 0.168667
628 2 0.409608 0.207922 0.168386
630 4 0.398599 0.23026 0.166153
394 2 0.0400153 0.3106 0.243235
750 4 0.0671219 0.319884 0.215419
395 4 0.0615072 0.320955 0.235749
748 2 0.0786093 0.30129 0.203275
749 4 0.0900968 0.282696 0.19113
300 4 0.142212 0.323822 0.213624
371 4 0.169158 0.250118 0.223476
277 2 0.262702 0.262387 0.166586
307 2 0.318468 0.299662 0.207978
309 4 0.31971 0.279908 0.1927
308 4 0.317226 0.319417 0.223255
497 4 0.306522 0.30996 0.236784
765 4 0.3968 0.247178 0.175262
623 4 0.436958 0.292379 0.181561
528 4 0.501214 0.302692 0.196525
622 2 0.460839 0.291979 0.188957
624 4 0.484721 0.291579 0.196353
2618 4 0.0121718 0.397669 0.23697
262 2 0.0399124 0.395046 0.211714
263 4 0.0609309 0.384167 0.203649
602 4 0.0675002 0.382091 0.223866
264 4 0.0188939 0.405925 0.219779
298 2 0.125458 0.335682 0.227901
299 4 0.108704 0.347541 0.242178
603 4 0.107441 0.365717 0.249112
601 2 0.0874704 0.373904 0.236489
290 4 0.186147 0.363071 0.202562
289 2 0.18069 0.385659 0.211792
291 4 0.175234 0.408246 0.221023
13 3 0.39718 0.374481 0.190094
2861 4 0.451213 0.409751 0.232931
2860 2 0.467503 0.397838 0.247693
416 4 0.17569 0.424085 0.209828
415 2 0.188074 0.445784 0.20884
1430 4 0.211924 0.482216 0.215356
417 4 0.200458 0.467483 0.207852
713 4 0.34946 0.491558 0.227082
712 2 0.372025 0.502227 0.228562
659 4 0.437314 0.479911 0.172227
597 4 0.495381 0.456184 0.196784
595 2 0.4758 0.468192 0.186907
596 4 0.456219 0.4802 0.177029
231 4 0.4433 0.490306 0.187212
1568 4 0.448318 0.496241 0.169068
1799 4 0.0236409 0.0238598 0.30142
233 4 0.0165698 0.0370279 0.289904
1402 2 0.0544321 0.0301408 0.284979
1403 4 0.0347786 0.0389885 0.297653
1798 2 0.0171502 0.0136411 0.323298
1404 4 0.0740857 0.0212932 0.272305
23 3 0.389299 0.0122045 0.246219
633 4 0.386064 0.0462232 0.320567
631 2 0.381391 0.0633232 0.302933
257 4 0.381132 0.0420108 0.339004
351 4 0.483658 0.016801 0.253224
743 4 0.506589 0.0343571 0.312481
744 4 0.487433 0.0122373 0.271929
742 2 0.497011 0.0232972 0.292205
399 4 0.0458732 0.10986 0.323012
397 2 0.0614126 0.129274 0.320405
398 4 0.076952 0.148688 0.317797
392 4 0.111036 0.152723 0.263376
393 4 0.0808791 0.159746 0.302643
390 4 0.0898128 0.164075 0.319251
391 2 0.0959578 0.156234 0.28301
544 2 0.153107 0.164653 0.256441
404 4 0.196389 0.148251 0.315021
249 4 0.213496 0.148937 0.324907
247 2 0.217817 0.124694 0.329241
632 4 0.376718 0.0804232 0.2853
444 4 0.0138009 0.239409 0.271259
403 2 0.193453 0.159312 0.292789
546 4 0.177863 0.168098 0.255783
722 4 0.197241 0.167778 0.252158
405 4 0.190517 0.170372 0.270558
420 4 0.411397 0.238786 0.262496
331 2 0.456759 0.187274 0.307092
332 4 0.45403 0.198787 0.285065
418 2 0.430344 0.222622 0.264711
419 4 0.449291 0.206458 0.266926
760 2 0.489869 0.211303 0.268269
762 4 0.466032 0.209797 0.275665
333 4 0.459489 0.175761 0.329119
396 4 0.0185234 0.300245 0.250722
443 4 0.0259064 0.287305 0.263505
365 4 0.0100191 0.2978 0.267602
442 2 0.0198536 0.263357 0.267382
510 4 0.245529 0.304447 0.307815
508 2 0.22622 0.31877 0.314683
400 2 0.234047 0.275571 0.280846
402 4 0.244722 0.286568 0.300602
401 4 0.223371 0.264574 0.261091
509 4 0.206911 0.333093 0.321551
345 4 0.254285 0.288725 0.316904
496 2 0.293525 0.310442 0.258139
498 4 0.280529 0.310925 0.279494
343 2 0.264966 0.267927 0.325767
344 4 0.275648 0.24713 0.334631
715 2 0.394008 0.268874 0.269835
716 4 0.385948 0.283916 0.28811
717 4 0.402068 0.253833 0.251561
542 4 0.39025 0.298162 0.301196
541 2 0.404568 0.311039 0.317144
543 4 0.418886 0.323915 0.333093
547 2 0.0283157 0.384652 0.31153
548 4 0.0202602 0.361229 0.314941
549 4 0.0363712 0.408075 0.308118
734 4 0.11699 0.352506 0.259563
733 2 0.119367 0.350284 0.284354
735 4 0.121744 0.348062 0.309145
677 4 0.140846 0.34791 0.310517
676 2 0.164826 0.344274 0.316592
435 4 0.203946 0.352051 0.326949
678 4 0.188806 0.340639 0.322666
433 2 0.214801 0.37093 0.339234
728 4 0.354676 0.393343 0.26661
727 2 0.347817 0.40484 0.287728
615 4 0.420734 0.343699 0.335106
2538 4 0.476157 0.369811 0.314072
2536 2 0.485771 0.369901 0.290991
2862 4 0.483792 0.385925 0.262455
753 4 0.478697 0.348985 0.315253
751 2 0.483392 0.337597 0.337012
777 4 0.0474793 0.415822 0.32248
775 2 0.0642073 0.434402 0.322121
776 4 0.0809353 0.452983 0.321763
414 4 0.0891103 0.456846 0.304133
412 2 0.104668 0.474355 0.312883
413 4 0.120225 0.491865 0.321633
1545 4 0.188492 0.492263 0.323638
438 4 0.315073 0.479376 0.308751
436 2 0.320524 0.454975 0.308979
729 4 0.340957 0.416336 0.308846
437 4 0.325976 0.430574 0.309206
1771 2 0.0222857 0.00380786 0.383791
1772 4 0.0339794 0.0120421 0.4043
732 4 0.0660302 0.0749518 0.378838
2238 4 0.0374075 0.0303777 0.411873
369 4 0.0686896 0.0554119 0.384916
1800 4 0.0106595 0.00342233 0.345175
367 2 0.0859926 0.040126 0.394514
368 4 0.103296 0.0248401 0.404112
1701 4 0.174 0.0826502 0.380474
697 2 0.356833 0.0188034 0.332745
698 4 0.368077 0.0394481 0.324228
256 2 0.392512 0.0544987 0.357436
258 4 0.403892 0.0669866 0.375868
426 4 0.409877 0.0659706 0.394687
424 2 0.393479 0.0588968 0.412187
479 4 0.496253 0.0390981 0.327633
478 2 0.478548 0.0547782 0.335746
480 4 0.460842 0.0704584 0.343859
318 4 0.998543 0.136676 0.361093
730 2 0.0592047 0.0894234 0.359625
317 4 0.0341932 0.109145 0.339372
458 4 0.995749 0.142236 0.379873
731 4 0.0523791 0.103895 0.340411
316 2 0.0163679 0.12291 0.350232
457 2 0.99779 0.166943 0.383121
388 2 0.102096 0.166166 0.340929
604 2 0.134688 0.0921912 0.397634
606 4 0.115179 0.096803 0.412578
605 4 0.154196 0.0875793 0.38269
1699 2 0.189657 0.0882994 0.361817
1700 4 0.205314 0.0939486 0.343159
248 4 0.222139 0.100451 0.333575
600 4 0.234896 0.146897 0.395752
683 4 0.243413 0.129602 0.396125
682 2 0.264893 0.122102 0.406493
319 2 0.321662 0.119165 0.391509
320 4 0.304532 0.114046 0.408989
684 4 0.286374 0.114602 0.416861
708 4 0.339326 0.144535 0.369938
321 4 0.338791 0.124284 0.374029
516 4 0.448214 0.124268 0.371876
575 4 0.428702 0.118263 0.377671
574 2 0.437343 0.113715 0.400689
514 2 0.455821 0.142319 0.356337
515 4 0.463428 0.160371 0.340799
389 4 0.114379 0.168257 0.362607
598 2 0.231195 0.169663 0.405404
473 4 0.231801 0.25153 0.378817
599 4 0.227494 0.19243 0.415057
378 4 0.292921 0.237849 0.33796
376 2 0.313059 0.22509 0.345498
377 4 0.333198 0.212331 0.353035
707 4 0.331679 0.192914 0.359854
474 4 0.276847 0.240682 0.39763
488 4 0.287696 0.225979 0.408083
487 2 0.282002 0.201633 0.408321
489 4 0.276307 0.177288 0.408558
472 2 0.254324 0.246106 0.388224
706 2 0.335502 0.168724 0.364896
453 4 0.468904 0.178392 0.346486
451 2 0.490995 0.187382 0.35399
347 4 0.0591962 0.309507 0.387791
618 4 0.0800885 0.305524 0.388972
346 2 0.0533307 0.327122 0.404539
275 4 0.136667 0.307686 0.371216
617 4 0.129564 0.312791 0.388724
616 2 0.104826 0.309157 0.388848
274 2 0.156794 0.293335 0.374976
374 4 0.215493 0.246169 0.386686
276 4 0.176921 0.278984 0.378737
373 2 0.198585 0.263444 0.39308
375 4 0.181677 0.280719 0.399474
266 4 0.345807 0.292881 0.404364
265 2 0.353085 0.271445 0.41498
561 4 0.497627 0.322116 0.375143
752 4 0.488088 0.326208 0.358771
408 4 0.0240778 0.339771 0.373371
406 2 0.0163482 0.351232 0.352537
407 4 0.00861872 0.362693 0.331702
434 4 0.225656 0.38981 0.351518
334 2 0.337082 0.409264 0.388493
502 2 0.275924 0.393656 0.398397
503 4 0.296644 0.407636 0.397755
336 4 0.31371 0.41531 0.395005
504 4 0.255204 0.379675 0.399039
613 2 0.414871 0.359389 0.35367
335 4 0.360453 0.403217 0.381982
240 4 0.373754 0.397785 0.395146
614 4 0.409009 0.37508 0.372234
238 2 0.383604 0.400898 0.417916
668 4 0.301809 0.47142 0.414766
669 4 0.297639 0.426604 0.392974
667 2 0.299724 0.449012 0.40387
3990 4 0.468668 0.494605 0.352162
2237 4 0.00754022 0.0597294 0.439207
2236 2 0.0224739 0.0450535 0.42554
720 4 0.0135044 0.0727926 0.453586
1782 4 0.108456 0.0246994 0.423313
1780 2 0.0966621 0.0146743 0.44295
961 2 0.264194 0.00436566 0.501726
724 2 0.29939 0.0471273 0.477811
963 4 0.285325 0.016337 0.495777
726 4 0.298814 0.0712432 0.471233
725 4 0.299967 0.0230113 0.484389
1182 4 0.3115 0.0813491 0.45881
1579 2 0.359679 0.0136131 0.437106
1580 4 0.368771 0.0368761 0.438264
425 4 0.377081 0.051823 0.429686
2880 4 0.454618 0.0801331 0.48523
642 4 0.444606 0.0719348 0.470665
718 2 0.0285103 0.088069 0.466494
719 4 0.0435163 0.103345 0.479403
1033 2 0.127344 0.137816 0.465332
1035 4 0.133175 0.148963 0.443724
1034 4 0.121513 0.12667 0.486941
261 4 0.138893 0.163055 0.428507
1180 2 0.306367 0.100362 0.443405
1181 4 0.301234 0.119376 0.428
640 2 0.439366 0.0903888 0.454629
3157 2 0.486308 0.159049 0.487066
641 4 0.434125 0.108843 0.438593
576 4 0.445985 0.109167 0.423707
306 4 0.445182 0.12503 0.434204
304 2 0.450394 0.146265 0.446332
305 4 0.455606 0.1675 0.458459
259 2 0.152974 0.180781 0.439121
694 2 0.148682 0.227323 0.474596
260 4 0.167055 0.198508 0.449735
695 4 0.164293 0.210476 0.464714
696 4 0.133072 0.244171 0.484478
687 4 0.22347 0.202478 0.432188
686 4 0.179779 0.212666 0.454281
685 2 0.201625 0.207572 0.443234
411 4 0.250979 0.214765 0.482403
409 2 0.268897 0.202938 0.495219
267 4 0.360362 0.250008 0.425595
467 4 0.348283 0.181767 0.425199
466 2 0.353688 0.206179 0.425205
468 4 0.359093 0.230591 0.42521
3158 4 0.473415 0.163134 0.466036
585 4 0.475129 0.243399 0.479855
813 4 0.214637 0.301063 0.492797
584 4 0.465941 0.292351 0.484335
583 2 0.470535 0.267875 0.482095
2456 4 0.458067 0.300535 0.500752
2812 2 0.0116783 0.3477 0.438998
2813 4 0.0348895 0.354659 0.432834
348 4 0.0474653 0.344737 0.421287
326 4 0.053254 0.360934 0.429512
325 2 0.0757471 0.367581 0.438175
935 4 0.0120954 0.34986 0.505845
10 3 0.139158 0.355029 0.472473
327 4 0.0982402 0.374228 0.446839
7 3 0.108586 0.375083 0.464981
6 1 0.126832 0.373086 0.478848
711 4 0.144421 0.411508 0.480337
8 3 0.139627 0.392376 0.477232
774 4 0.208133 0.409585 0.478556
635 4 0.210424 0.404382 0.459826
709 2 0.168353 0.407573 0.474258
772 2 0.223486 0.398672 0.494999
710 4 0.192285 0.403639 0.468179
586 2 0.396087 0.421589 0.476505
239 4 0.393453 0.40401 0.440686
588 4 0.392159 0.419556 0.451896
1383 4 0.0607437 0.464233 0.442243
1381 2 0.0648865 0.48792 0.435392
680 4 0.04789 0.44859 0.436651
679 2 0.0626066 0.436747 0.453032
568 2 0.15554 0.462595 0.482434
569 4 0.147491 0.43903 0.484687
382 2 0.111216 0.429723 0.488038
681 4 0.0773232 0.424904 0.469413
384 4 0.135425 0.424964 0.492098
383 4 0.0870077 0.434482 0.483979
636 4 0.233447 0.43619 0.428859
570 4 0.163589 0.48616 0.480182
634 2 0.221936 0.420286 0.444343
1 1 0.303054 0.493256 0.434903
5 3 0.296764 0.474791 0.446656
880 2 0.326896 0.494749 0.488996
4 3 0.314143 0.486913 0.415533
1184 4 0.99846 0.014214 0.563512
1150 2 0.161756 0.0782009 0.539926
1151 4 0.169155 0.0808583 0.563661
342 4 0.162208 0.0563143 0.511372
1152 4 0.154357 0.0755434 0.516191
340 2 0.175198 0.0352437 0.507839
2430 4 0.195776 0.0102826 0.523008
341 4 0.188187 0.0141731 0.504306
430 2 0.324484 0.0111807 0.514027
432 4 0.303583 0.0116555 0.500312
431 4 0.345385 0.0107058 0.527742
843 4 0.353677 0.0279417 0.527983
842 4 0.374744 0.0470685 0.569105
841 2 0.36421 0.0375051 0.548544
1217 4 0.389682 0.0353519 0.573505
1216 2 0.406132 0.0171153 0.578195
2879 4 0.471527 0.0436356 0.51494
2878 2 0.463072 0.0618844 0.500085
1218 4 0.422583 0.998879 0.582884
879 4 0.0812059 0.152832 0.547133
877 2 0.0565281 0.153249 0.543132
1199 4 0.0130159 0.160019 0.533203
878 4 0.0318502 0.153666 0.53913
938 4 0.0979919 0.143816 0.546517
937 2 0.109894 0.134504 0.526596
939 4 0.121795 0.125192 0.506676
1272 4 0.0960912 0.16239 0.554696
3009 4 0.490505 0.066978 0.569999
1259 4 0.0725633 0.244846 0.508722
1270 2 0.101864 0.178013 0.573345
1260 4 0.11966 0.232344 0.497483
1258 2 0.0961116 0.238595 0.503103
1271 4 0.107637 0.193636 0.591994
898 2 0.302788 0.203853 0.542724
899 4 0.303529 0.213234 0.565889
900 4 0.302047 0.194471 0.519559
410 4 0.286815 0.191111 0.508035
791 4 0.313092 0.223857 0.57876
790 2 0.324934 0.245211 0.573381
811 2 0.234133 0.310962 0.504925
812 4 0.253629 0.320861 0.517053
650 4 0.268268 0.319371 0.529913
649 2 0.272355 0.313323 0.553827
651 4 0.276443 0.307275 0.577741
871 2 0.363504 0.269096 0.54072
872 4 0.354827 0.271875 0.564004
792 4 0.336776 0.266566 0.568002
1238 4 0.346013 0.279474 0.579514
873 4 0.372181 0.266317 0.517436
2455 2 0.477316 0.313855 0.509538
2457 4 0.496566 0.327176 0.518324
1136 4 0.123716 0.397665 0.548552
1135 2 0.141636 0.389679 0.564052
9 3 0.11941 0.370307 0.500656
773 4 0.238839 0.387759 0.511442
1190 4 0.241559 0.394338 0.529551
1189 2 0.229572 0.403017 0.549705
1191 4 0.217585 0.411695 0.569858
804 4 0.268088 0.33359 0.515706
802 2 0.260729 0.357279 0.518846
803 4 0.25337 0.380968 0.521987
930 4 0.253904 0.399321 0.515175
926 4 0.39867 0.417722 0.51959
927 4 0.433973 0.383971 0.530326
925 2 0.416322 0.400846 0.524958
1010 4 0.488311 0.340913 0.530179
1009 2 0.498078 0.341739 0.553181
1161 4 0.154568 0.490835 0.570902
1172 4 0.221704 0.430294 0.574989
1159 2 0.177723 0.490336 0.580325
928 2 0.274393 0.413463 0.517494
929 4 0.294882 0.427604 0.519814
891 4 0.308354 0.490362 0.516728
1952 4 0.318904 0.474722 0.520369
881 4 0.328117 0.490662 0.513633
1951 2 0.323718 0.450504 0.524308
1953 4 0.328532 0.426287 0.528248
587 4 0.400014 0.423621 0.501115
1001 4 0.405188 0.491556 0.554526
662 4 0.408436 0.473805 0.547503
661 2 0.404547 0.455465 0.530959
1911 4 0.413159 0.477915 0.566089
663 4 0.400659 0.437125 0.514415
1909 2 0.422273 0.464349 0.585012
1332 4 0.423063 0.485666 0.550977
1330 2 0.443768 0.494525 0.540114
4085 4 0.481806 0.500983 0.537413
945 4 0.0557703 0.00194453 0.631102
1057 2 0.15435 0.0556975 0.593305
1058 4 0.147937 0.0346762 0.605228
2375 4 0.147799 0.0172808 0.614048
1284 4 0.129165 0.0917679 0.650572
1059 4 0.160764 0.0767188 0.581383
950 4 0.235149 0.0193266 0.586918
949 2 0.246206 0.0294951 0.606905
951 4 0.257264 0.0396637 0.626893
1031 4 0.264045 0.0574262 0.634513
1030 2 0.277052 0.0755049 0.645878
3007 2 0.496204 0.0744606 0.593166
3008 4 0.501902 0.0819432 0.616334
808 2 0.496174 0.0822348 0.653555
1083 4 0.0444063 0.137699 0.655899
3179 4 0.0420255 0.157039 0.650743
1081 2 0.0416597 0.116375 0.668663
1155 4 0.158441 0.0940251 0.572997
1153 2 0.159703 0.111653 0.590684
1154 4 0.160964 0.129281 0.608371
1221 4 0.153195 0.132717 0.626526
1219 2 0.17024 0.150135 0.632118
1210 2 0.220498 0.161641 0.652951
1212 4 0.202623 0.176748 0.644151
1032 4 0.290059 0.0935836 0.657242
3178 2 0.024634 0.173421 0.643371
1245 4 0.0860113 0.213658 0.644972
3180 4 0.00724246 0.189803 0.635999
1243 2 0.091281 0.198576 0.625738
1244 4 0.0965507 0.183494 0.606504
1209 4 0.0843881 0.212596 0.665405
1220 4 0.187285 0.167553 0.637709
797 4 0.195654 0.225893 0.602645
796 2 0.195059 0.204082 0.614855
798 4 0.194464 0.182271 0.627066
857 4 0.298765 0.212355 0.585215
856 2 0.295855 0.21761 0.609487
858 4 0.292944 0.222865 0.633758
905 4 0.458821 0.243791 0.626676
3123 4 0.473446 0.2462 0.641081
3121 2 0.484108 0.22363 0.642522
3122 4 0.494771 0.20106 0.643963
983 4 0.0342725 0.298795 0.590935
982 2 0.0464546 0.316101 0.604249
984 4 0.0586366 0.333408 0.617562
3263 4 0.0553581 0.33143 0.636832
3262 2 0.0553647 0.321364 0.65972
805 2 0.310829 0.309437 0.646867
806 4 0.287586 0.309707 0.656081
947 4 0.30583 0.257691 0.661451
807 4 0.334071 0.309167 0.637653
1239 4 0.347654 0.298524 0.625722
1237 2 0.346834 0.288999 0.602618
906 4 0.452685 0.290617 0.610231
904 2 0.455753 0.267204 0.618454
952 2 0.487302 0.315823 0.599645
953 4 0.468313 0.30248 0.608948
1041 4 0.0610898 0.348822 0.629251
1039 2 0.0515388 0.370873 0.622341
1040 4 0.0419878 0.392923 0.615431
993 4 0.0584936 0.404644 0.614615
1137 4 0.159557 0.381693 0.579552
897 4 0.17297 0.38614 0.593573
895 2 0.189724 0.403779 0.5878
896 4 0.206479 0.421418 0.582028
1029 4 0.227295 0.4065 0.644801
954 4 0.506292 0.329166 0.590343
1206 4 0.487372 0.410409 0.611705
3309 4 0.491815 0.391689 0.612108
3307 2 0.500244 0.369994 0.602972
991 2 0.0448317 0.425554 0.613471
992 4 0.0311698 0.446464 0.612328
1171 2 0.21905 0.45397 0.582577
1160 4 0.200877 0.489836 0.589748
1173 4 0.216396 0.477646 0.590166
1188 4 0.197428 0.471854 0.652666
1187 4 0.210183 0.486177 0.606483
1186 2 0.203805 0.479015 0.629574
1175 4 0.193588 0.489879 0.662466
1204 2 0.466706 0.424073 0.608331
1910 4 0.431387 0.450783 0.603934
1269 4 0.438204 0.44497 0.620656
1267 2 0.427165 0.456843 0.639691
1205 4 0.44604 0.437737 0.604957
1268 4 0.416126 0.468715 0.658727
2168 4 0.416127 0.487076 0.669348
1226 4 0.165135 0.0775806 0.742214
1148 4 0.184575 0.0738372 0.744134
1203 4 0.171642 0.0588852 0.742035
1003 2 0.327581 0.0260075 0.695592
1005 4 0.315649 0.0477044 0.699064
1004 4 0.339513 0.00431061 0.692121
45 3 0.448749 0.0463875 0.686767
1162 2 0.499305 0.0582471 0.706781
42 3 0.439786 0.073634 0.710645
41 1 0.446391 0.0689161 0.689121
1163 4 0.482903 0.0709287 0.692805
44 3 0.466641 0.0794696 0.685005
810 4 0.482756 0.0768793 0.673963
1075 2 0.039217 0.087503 0.717845
1076 4 0.0275348 0.093563 0.696585
1082 4 0.0389131 0.0950513 0.681427
1077 4 0.0508992 0.0814431 0.739105
1214 4 0.0331749 0.1668 0.752595
1282 2 0.127018 0.0933978 0.67543
909 4 0.103598 0.160635 0.706608
907 2 0.112763 0.137404 0.705386
908 4 0.121929 0.114173 0.704163
1283 4 0.12487 0.0950278 0.700288
1227 4 0.138355 0.105121 0.710197
1225 2 0.151745 0.0913507 0.726206
1211 4 0.238373 0.146533 0.66175
888 4 0.254196 0.152488 0.671079
886 2 0.272725 0.153703 0.687824
829 2 0.334866 0.149065 0.703076
830 4 0.309915 0.148274 0.70448
887 4 0.291253 0.154917 0.704569
978 4 0.303927 0.160087 0.718573
831 4 0.359818 0.149857 0.701672
1142 4 0.377729 0.142244 0.696466
1141 2 0.393289 0.15963 0.705455
43 3 0.430238 0.0767641 0.674428
1025 4 0.469166 0.151545 0.707537
3424 2 0.481338 0.112826 0.698468
3426 4 0.481831 0.0896162 0.689181
3425 4 0.480844 0.136035 0.707756
3269 4 0.488232 0.152871 0.714244
3268 2 0.495949 0.165282 0.734532
850 2 0.0667678 0.171107 0.725775
852 4 0.0477606 0.17502 0.741542
1213 2 0.016349 0.184081 0.746005
851 4 0.0857751 0.167195 0.710009
1208 4 0.097574 0.177682 0.69869
1207 2 0.0909811 0.195139 0.682047
1107 4 0.101654 0.177067 0.716788
1105 2 0.120704 0.189599 0.727045
1106 4 0.139754 0.202131 0.737302
1130 4 0.153644 0.207256 0.72408
1129 2 0.166036 0.21883 0.742455
976 2 0.301743 0.180326 0.733091
1193 4 0.370452 0.23214 0.701111
1194 4 0.403134 0.195172 0.709239
1192 2 0.386793 0.213656 0.705175
1143 4 0.408849 0.177016 0.714443
1262 4 0.420592 0.192385 0.717647
1261 2 0.429412 0.204095 0.737902
1024 2 0.447797 0.164497 0.706638
1026 4 0.426429 0.177449 0.705739
3264 4 0.0553714 0.311297 0.682607
779 4 0.0440746 0.296386 0.684589
778 2 0.056588 0.275971 0.691789
780 4 0.0691014 0.255557 0.698989
893 4 0.0380975 0.314095 0.690323
892 2 0.034636 0.329717 0.709537
1065 4 0.224195 0.302264 0.676594
1063 2 0.246149 0.294023 0.685271
946 2 0.29324 0.265059 0.681759
948 4 0.280651 0.272427 0.702066
1064 4 0.268103 0.285781 0.693948
917 4 0.26559 0.252532 0.74068
1008 4 0.431811 0.295454 0.716259
1006 2 0.438916 0.291193 0.73985
894 4 0.0311746 0.345339 0.72875
816 4 0.0370242 0.357626 0.742673
814 2 0.052597 0.377071 0.744811
3276 4 0.0179154 0.353832 0.74078
815 4 0.0681697 0.396516 0.746948
942 4 0.0801396 0.393236 0.731539
1067 4 0.143815 0.394813 0.711351
940 2 0.102083 0.397454 0.720321
941 4 0.124027 0.401672 0.709102
1066 2 0.156589 0.405907 0.692942
1027 2 0.207175 0.415579 0.656545
1019 4 0.391571 0.405966 0.739978
1176 4 0.163299 0.479892 0.700982
1174 2 0.178443 0.484885 0.681724
1068 4 0.169363 0.417002 0.674532
1028 4 0.187054 0.424659 0.668289
1140 4 0.352661 0.46285 0.723744
1230 4 0.387323 0.433409 0.735642
1100 4 0.398915 0.41924 0.727141
1138 2 0.355709 0.473585 0.701368
1139 4 0.358756 0.48432 0.678993
3329 4 0.510115 0.45567 0.723011
1101 4 0.442671 0.442847 0.73251
1099 2 0.420793 0.431044 0.729825
3330 4 0.462349 0.445045 0.733316
1251 4 0.449973 0.45756 0.742724
3328 2 0.486232 0.450358 0.728164
1296 4 0.0302284 0.0387707 0.78122
1294 2 0.0101302 0.0244297 0.777273
864 4 0.0440494 0.0799971 0.758097
2049 4 0.190396 0.000211462 0.774168
1201 2 0.178284 0.0371087 0.752372
1202 4 0.184926 0.0153322 0.762708
2256 4 0.198869 0.00256879 0.756981
975 4 0.341171 0.0507883 0.821683
2322 4 0.461017 0.0468445 0.779319
2320 2 0.462662 0.0221169 0.782638
846 4 0.471446 0.0617133 0.772697
844 2 0.486422 0.0817359 0.77267
862 2 0.052259 0.0987369 0.772471
863 4 0.0604687 0.117477 0.786844
833 4 0.0554634 0.119162 0.805528
1125 4 0.0648359 0.134092 0.795894
1123 2 0.0710299 0.158155 0.79868
832 2 0.0494693 0.108106 0.827139
34 3 0.13781 0.146966 0.829918
1149 4 0.222962 0.102683 0.758102
1147 2 0.203769 0.0882603 0.751118
1257 4 0.23578 0.111874 0.769266
919 2 0.207548 0.166268 0.83171
1255 2 0.253826 0.117995 0.785454
1256 4 0.271872 0.124116 0.801642
840 4 0.281822 0.116627 0.81824
845 4 0.501398 0.101758 0.772643
1072 2 0.0781478 0.206614 0.822372
1074 4 0.0637032 0.218181 0.839187
1124 4 0.0772238 0.182219 0.801467
1073 4 0.0925923 0.195046 0.805558
1131 4 0.178427 0.230405 0.760831
1277 4 0.179484 0.227427 0.779989
1276 2 0.189291 0.217802 0.800879
1278 4 0.199098 0.208177 0.821768
920 4 0.202679 0.190637 0.828951
977 4 0.29956 0.200565 0.74761
918 4 0.302856 0.219654 0.746244
916 2 0.284223 0.236093 0.743462
1298 4 0.306456 0.210579 0.762646
1297 2 0.317187 0.202091 0.783573
1086 4 0.336384 0.205615 0.817116
1299 4 0.327918 0.193603 0.804501
50 3 0.395784 0.213516 0.779112
49 3 0.414593 0.241347 0.796121
46 1 0.41496 0.218931 0.790139
48 3 0.417203 0.205714 0.809078
47 3 0.432961 0.21522 0.776307
1263 4 0.438233 0.215804 0.758157
1146 4 0.495181 0.185248 0.770778
1145 4 0.450616 0.207923 0.771549
1144 2 0.472899 0.196586 0.771163
1022 4 0.419483 0.189624 0.819937
3188 4 0.0106272 0.269914 0.783127
3187 2 0.0167466 0.276942 0.80633
821 4 0.153829 0.289425 0.77591