ITEM: TIMESTEP
700000
ITEM: NUMBER OF ATOMS
4590
ITEM: BOX BOUNDS pp pp pp
-9.9985700000000008e+00 9.9985700000000008e+00
-9.9985700000000008e+00 9.9985700000000008e+00
-9.9985700000000008e+00 9.9985700000000008e+00
ITEM: ATOMS id type xs ys zs
463 2 0.0312343 0.052934 0.0467393
464 4 0.0100768 0.0427459 0.0381522
465 4 0.0523918 0.0631222 0.0553265
701 4 0.0668233 0.0771764 0.054558
491 4 0.27928 0.00406739 0.0371448
558 4 0.358306 0.0612274 0.0313967
556 2 0.359382 0.0620406 0.0563639
745 2 0.477624 0.0573411 0.00399907
746 4 0.495663 0.0601009 0.0210918
589 2 0.0131912 0.135894 0.0627985
591 4 0.998751 0.13059 0.0430878
700 2 0.0872396 0.0894097 0.0468964
702 4 0.107656 0.101643 0.0392347
566 4 0.127529 0.10311 0.0430681
565 2 0.151752 0.108009 0.0392715
423 4 0.0900502 0.151272 0.0338264
421 2 0.0862573 0.156576 0.00968813
567 4 0.175975 0.112908 0.0354749
360 4 0.283227 0.153499 0.0288566
358 2 0.282672 0.131674 0.0166675
359 4 0.282117 0.10985 0.00447837
770 4 0.4493 0.129321 0.0783846
1013 4 0.49021 0.166714 0.0406803
553 2 0.0416351 0.201946 0.00995125
554 4 0.0241643 0.187743 0.0208237
666 4 0.328577 0.220437 0.0282324
664 2 0.330934 0.198017 0.0174172
573 4 0.324585 0.236528 0.0385919
665 4 0.333291 0.175597 0.00660205
461 4 0.340761 0.226666 0.0422014
460 2 0.346082 0.221311 0.0660382
1014 4 0.461665 0.204835 0.0254255
1012 2 0.475937 0.185775 0.0330529
292 2 0.125899 0.309787 0.0466308
293 4 0.134183 0.304118 0.0695311
294 4 0.117615 0.315455 0.0237305
507 4 0.154601 0.301267 0.0701641
505 2 0.179333 0.304329 0.0722032
355 2 0.242434 0.274511 0.0287949
357 4 0.222722 0.288908 0.0233797
483 4 0.217071 0.320737 0.0677615
506 4 0.204064 0.307391 0.0742423
481 2 0.241876 0.319255 0.0705348
356 4 0.262147 0.260114 0.03421
571 2 0.307795 0.25415 0.0328674
572 4 0.291006 0.271771 0.0271429
482 4 0.266681 0.317773 0.0733082
1071 4 0.411059 0.249925 0.0292148
1069 2 0.417393 0.258602 0.00663646
324 4 0.418154 0.257151 0.0475592
322 2 0.429664 0.268541 0.0666108
670 2 0.453478 0.318861 0.0676931
519 4 0.477185 0.270641 0.0738087
287 4 0.144618 0.355959 0.0143009
456 4 0.113135 0.342899 0.0851706
609 4 0.28153 0.333057 0.0780507
251 4 0.295508 0.410184 0.018823
252 4 0.282432 0.389792 0.062571
250 2 0.28897 0.399988 0.040697
608 4 0.288424 0.382439 0.0818729
607 2 0.284977 0.357748 0.0799618
957 4 0.365811 0.342342 0.0047104
671 4 0.461823 0.340431 0.0581894
281 4 0.476906 0.352528 0.0543016
280 2 0.484942 0.360965 0.0321793
282 4 0.492979 0.369403 0.010057
551 4 0.0704012 0.426744 0.0621629
550 2 0.0816769 0.449033 0.0610504
330 4 0.00117696 0.421048 0.0609866
1786 2 0.0885664 0.50389 0.0721457
552 4 0.0929526 0.471322 0.0599379
1787 4 0.103747 0.48414 0.0699866
242 4 0.118728 0.493385 0.079108
241 2 0.143312 0.496651 0.0822922
625 2 0.212055 0.448648 0.0755311
245 4 0.235212 0.484201 0.0795819
626 4 0.197232 0.428927 0.0795994
244 2 0.239209 0.49245 0.0563192
271 2 0.264366 0.480599 0.00768025
273 4 0.275726 0.459958 0.999307
246 4 0.243207 0.500699 0.0330565
227 4 0.463079 0.46172 0.0632362
226 2 0.482664 0.449853 0.0732747
228 4 0.50225 0.437987 0.0833131
1667 4 0.0857978 0.0146998 0.0823964
20 3 0.0307147 0.0720529 0.139015
1506 4 0.230812 0.0271306 0.160875
652 2 0.306232 0.00473832 0.134118
653 4 0.293208 0.025869 0.131108
557 4 0.360458 0.0628537 0.0813311
296 4 0.356155 0.0559987 0.100746
295 2 0.360786 0.0325064 0.107947
297 4 0.365417 0.00901413 0.115147
2724 4 0.508333 0.00210069 0.150436
590 4 0.0276318 0.141198 0.0825093
380 4 0.0274459 0.0971567 0.169011
237 4 0.14486 0.148847 0.158162
769 2 0.454943 0.15277 0.0849788
312 4 0.443248 0.13213 0.160809
337 2 0.0655541 0.225384 0.134575
339 4 0.0414394 0.220693 0.129921
705 4 0.999988 0.242821 0.151095
338 4 0.0896689 0.230075 0.139228
476 4 0.152205 0.217376 0.122993
475 2 0.127727 0.217173 0.128086
477 4 0.103248 0.216971 0.133179
737 4 0.160686 0.204084 0.111534
363 4 0.0872494 0.236305 0.158777
738 4 0.2058 0.225493 0.11421
736 2 0.183243 0.214788 0.112872
285 4 0.251281 0.194897 0.152744
354 4 0.298048 0.237039 0.133641
283 2 0.268699 0.177315 0.14919
284 4 0.286118 0.159733 0.145636
254 4 0.389213 0.196207 0.121349
255 4 0.343344 0.201448 0.102134
462 4 0.351403 0.215956 0.089875
253 2 0.366278 0.198828 0.111742
630 4 0.401881 0.211696 0.12081
771 4 0.460586 0.176219 0.0915731
629 4 0.447504 0.191637 0.124921
628 2 0.424693 0.201667 0.122866
2895 4 0.492455 0.225093 0.114481
518 4 0.501134 0.243423 0.108252
352 2 0.294689 0.261488 0.137661
353 4 0.291329 0.285936 0.141682
754 2 0.283982 0.32842 0.132413
755 4 0.291249 0.305548 0.139429
278 4 0.279927 0.297563 0.152467
277 2 0.258797 0.292556 0.164863
741 4 0.351133 0.315813 0.0925261
323 4 0.441174 0.279931 0.0856624
672 4 0.445134 0.297292 0.0771967
517 2 0.489159 0.257032 0.0910303
620 4 0.0172048 0.362816 0.0900307
647 4 0.0226777 0.358223 0.109076
646 2 0.0469178 0.356458 0.114948
648 4 0.071158 0.354693 0.12082
455 4 0.122289 0.390939 0.095614
454 2 0.117712 0.366919 0.0903923
537 4 0.209837 0.383153 0.166826
535 2 0.205861 0.379333 0.142438
536 4 0.201885 0.375514 0.11805
756 4 0.276714 0.351292 0.125396
612 4 0.269451 0.355292 0.142636
610 2 0.257585 0.369163 0.159724
739 2 0.361136 0.337061 0.101107
387 4 0.339985 0.362038 0.169689
740 4 0.371139 0.358309 0.109688
15 3 0.385607 0.361229 0.12261
385 2 0.353707 0.359932 0.148893
386 4 0.367429 0.357826 0.128098
11 1 0.40347 0.373815 0.129026
13 3 0.403236 0.376739 0.152043
14 3 0.402842 0.39444 0.118414
495 4 0.388247 0.402037 0.129853
12 3 0.422884 0.362992 0.123101
645 4 0.474819 0.401787 0.158553
597 4 0.473441 0.417123 0.145824
315 4 0.996813 0.456989 0.113256
1467 4 0.0117609 0.46016 0.126222
1465 2 0.0182312 0.481514 0.137506
1466 4 0.0247016 0.502868 0.14879
627 4 0.226877 0.468369 0.0714629
524 4 0.322624 0.482162 0.0922222
766 2 0.261499 0.487788 0.159296
523 2 0.341128 0.465826 0.0882315
525 4 0.359633 0.44949 0.0842409
658 2 0.398767 0.478156 0.150368
493 2 0.384956 0.426728 0.132032
660 4 0.390455 0.468768 0.128736
494 4 0.381666 0.451418 0.134212
659 4 0.407078 0.487545 0.172
595 2 0.48073 0.439371 0.154604
596 4 0.488018 0.461619 0.163384
16 1 0.0379818 0.0639749 0.15903
2480 4 0.994146 0.0161833 0.167236
17 3 0.0601203 0.0580005 0.157202
18 3 0.0256261 0.0452541 0.164969
1404 4 0.0616484 0.0266877 0.231176
673 2 0.126429 0.0729873 0.216938
674 4 0.149792 0.0641625 0.215722
1504 2 0.20962 0.0343655 0.171998
450 4 0.170638 0.0494395 0.180149
1505 4 0.188427 0.0416003 0.18312
448 2 0.173574 0.0742494 0.179137
689 4 0.224922 0.0248768 0.254578
28 3 0.332073 0.0771616 0.233816
758 4 0.378641 0.0672495 0.171831
21 1 0.372666 0.0130576 0.234337
25 3 0.380317 0.0322076 0.224673
759 4 0.389048 0.0489737 0.217201
757 2 0.383845 0.0581116 0.194516
22 3 0.355907 0.0041747 0.221322
744 4 0.462146 0.0290534 0.243442
742 2 0.483549 0.0185746 0.251011
351 4 0.455803 0.0469838 0.238032
349 2 0.437801 0.063004 0.231363
350 4 0.419799 0.0790242 0.224695
19 3 0.0359484 0.0803198 0.175374
512 4 0.023613 0.159164 0.172312
379 2 0.0240339 0.120428 0.177494
381 4 0.020622 0.1437 0.185978
579 4 0.0714625 0.10543 0.179711
235 2 0.161985 0.131039 0.162007
675 4 0.103066 0.0818122 0.218154
577 2 0.082545 0.127826 0.180599
578 4 0.0936274 0.150222 0.181488
449 4 0.176511 0.0990593 0.178124
236 4 0.17911 0.113231 0.165853
693 4 0.193213 0.110606 0.178876
691 2 0.217643 0.109331 0.184044
692 4 0.242074 0.108056 0.189211
723 4 0.217261 0.106804 0.227949
721 2 0.199431 0.122501 0.23575
722 4 0.181601 0.138199 0.24355
582 4 0.258684 0.113785 0.198166
580 2 0.280802 0.118087 0.209004
581 4 0.30292 0.12239 0.219842
30 3 0.309375 0.103142 0.218735
26 1 0.321439 0.0975035 0.23721
27 3 0.33735 0.113657 0.24109
310 2 0.434235 0.133114 0.184111
311 4 0.425222 0.134097 0.207413
511 2 0.0309212 0.179001 0.185664
513 4 0.0382295 0.198837 0.199017
362 4 0.111147 0.23889 0.202629
361 2 0.099198 0.237598 0.180703
372 4 0.120422 0.221533 0.208986
370 2 0.140057 0.228087 0.22301
371 4 0.159693 0.234641 0.237034
763 2 0.364737 0.236278 0.184657
765 4 0.352124 0.216348 0.176358
520 2 0.486661 0.222873 0.229627
521 4 0.464025 0.233211 0.232059
395 4 0.0495816 0.268787 0.230328
750 4 0.0597108 0.286492 0.233797
748 2 0.0826124 0.293816 0.226938
749 4 0.105514 0.30114 0.220078
279 4 0.237668 0.287549 0.177259
307 2 0.304835 0.261706 0.210623
308 4 0.306429 0.255048 0.234671
309 4 0.303242 0.268363 0.186575
764 4 0.377351 0.256208 0.192957
623 4 0.38701 0.263422 0.176173
622 2 0.409122 0.274302 0.1804
624 4 0.431234 0.285182 0.184626
528 4 0.444651 0.289671 0.198741
527 4 0.492539 0.275568 0.201669
526 2 0.468595 0.28262 0.200205
263 4 0.0680825 0.411065 0.238089
300 4 0.135805 0.336332 0.215443
298 2 0.137288 0.35228 0.234643
602 4 0.0862882 0.412501 0.24612
611 4 0.245719 0.383034 0.176811
290 4 0.202954 0.405466 0.235177
302 4 0.330262 0.379359 0.166242
301 2 0.32368 0.398908 0.180374
643 2 0.470581 0.390986 0.180702
644 4 0.466342 0.380186 0.202851
447 4 0.466495 0.361148 0.207946
445 2 0.483964 0.360514 0.225823
446 4 0.501434 0.359881 0.243701
262 2 0.0647393 0.416994 0.21403
264 4 0.0613962 0.422922 0.18997
417 4 0.156303 0.483793 0.174646
415 2 0.160754 0.463784 0.188964
289 2 0.193297 0.42399 0.221437
291 4 0.18364 0.442514 0.207698
416 4 0.165206 0.443775 0.203282
303 4 0.317098 0.418457 0.194505
768 4 0.268221 0.464017 0.163162
231 4 0.410247 0.497265 0.188852
1568 4 0.493796 0.47848 0.17225
1798 2 0.0182563 0.010447 0.30998
1799 4 0.0253266 0.0192086 0.287655
233 4 0.0205466 0.030522 0.272881
1402 2 0.0477679 0.0211688 0.251227
1403 4 0.0338874 0.0156499 0.271278
1699 2 0.215036 0.0456014 0.299472
1701 4 0.214914 0.0205983 0.299574
1700 4 0.215159 0.0706044 0.299369
248 4 0.218191 0.08341 0.313523
1516 2 0.382591 0.00440335 0.29488
23 3 0.36414 0.0176857 0.255415
697 2 0.384821 0.0669684 0.320978
699 4 0.378784 0.0456433 0.309403
1518 4 0.380985 0.0249929 0.308975
743 4 0.504952 0.00809586 0.258579
478 2 0.467683 0.038774 0.3087
479 4 0.469167 0.022657 0.289642
480 4 0.466199 0.0548909 0.327759
398 4 0.0742627 0.127246 0.327208
544 2 0.150391 0.162224 0.265895
249 4 0.212686 0.133031 0.310659
247 2 0.215439 0.10822 0.312091
404 4 0.21783 0.152177 0.304554
546 4 0.167912 0.14656 0.25736
403 2 0.206216 0.155623 0.282681
29 3 0.307463 0.0961509 0.255683
698 4 0.390858 0.0882935 0.332553
333 4 0.426724 0.134507 0.301565
331 2 0.447596 0.148207 0.300203
444 4 0.00465169 0.246232 0.32301
393 4 0.0884353 0.22483 0.262827
392 4 0.12825 0.196915 0.274498
391 2 0.108343 0.210873 0.268663
545 4 0.13287 0.177888 0.274429
405 4 0.194603 0.159069 0.260807
378 4 0.283732 0.218543 0.316642
332 4 0.468468 0.161907 0.29884
762 4 0.486251 0.168659 0.308311
394 2 0.0423501 0.269296 0.254257
396 4 0.0351185 0.269805 0.278187
442 2 0.0116664 0.262004 0.304921
443 4 0.018681 0.277775 0.286832
364 2 0.0311763 0.31941 0.282557
365 4 0.0423327 0.298655 0.274194
401 4 0.18909 0.263239 0.258154
345 4 0.223127 0.298699 0.296136
400 2 0.197447 0.275905 0.278027
402 4 0.205803 0.28857 0.2979
510 4 0.211404 0.301687 0.310694
508 2 0.208612 0.322378 0.324452
343 2 0.244853 0.305845 0.286032
344 4 0.26658 0.312991 0.275928
498 4 0.384209 0.269962 0.321575
496 2 0.378097 0.283794 0.301663
497 4 0.371985 0.297626 0.281751
542 4 0.442805 0.30491 0.295314
541 2 0.42703 0.321551 0.305284
2493 4 0.00965547 0.346976 0.307834
366 4 0.0200199 0.340165 0.290921
299 4 0.138772 0.368228 0.253843
601 2 0.105305 0.396984 0.250892
603 4 0.124322 0.381467 0.255663
734 4 0.142667 0.385377 0.259493
733 2 0.158264 0.395012 0.276495
735 4 0.173861 0.404646 0.293498
677 4 0.184432 0.402988 0.31155
676 2 0.194744 0.383078 0.322615
678 4 0.205056 0.363168 0.333679
727 2 0.330552 0.386315 0.282136
728 4 0.330551 0.397581 0.304458
438 4 0.275866 0.400428 0.268764
729 4 0.330553 0.375048 0.259814
543 4 0.411254 0.338191 0.315254
615 4 0.398192 0.335636 0.330192
613 2 0.378141 0.34844 0.322499
614 4 0.35809 0.361244 0.314805
2538 4 0.473528 0.380388 0.312953
2536 2 0.47717 0.396111 0.293856
2537 4 0.480813 0.411835 0.27476
753 4 0.460998 0.390119 0.324344
549 4 0.05709 0.416071 0.305272
777 4 0.0942774 0.447784 0.28969
775 2 0.114565 0.462389 0.289176
776 4 0.134853 0.476994 0.288662
414 4 0.150826 0.470745 0.298705
412 2 0.155885 0.491349 0.311937
437 4 0.299468 0.44451 0.268155
436 2 0.287667 0.422469 0.268459
2862 4 0.481614 0.469481 0.27554
594 4 0.442167 0.459241 0.338701
732 4 0.116022 0.0682773 0.399092
730 2 0.114137 0.0811868 0.377762
367 2 0.0890612 0.00406302 0.409538
605 4 0.174239 0.0894882 0.375548
604 2 0.198226 0.0828961 0.378066
439 2 0.321562 0.994986 0.384765
441 4 0.327219 0.00332976 0.361884
426 4 0.414813 0.0621217 0.401203
258 4 0.425326 0.0695092 0.386055
318 4 0.0201431 0.0969222 0.341987
316 2 0.0430491 0.097447 0.351998
317 4 0.065955 0.0979717 0.362009
457 2 0.0497465 0.154797 0.396925
459 4 0.0328052 0.166624 0.382843
458 4 0.0666878 0.142971 0.411007
397 2 0.0925488 0.120413 0.342832
399 4 0.110835 0.11358 0.358456
731 4 0.112253 0.0940962 0.356432
599 4 0.176419 0.168441 0.389455
606 4 0.222214 0.076304 0.380584
600 4 0.212169 0.147146 0.361721
598 2 0.194294 0.157793 0.375588
683 4 0.265651 0.100825 0.363455
682 2 0.273388 0.100133 0.387221
684 4 0.281125 0.0994412 0.410987
256 2 0.414837 0.0809014 0.366424
257 4 0.404348 0.0922935 0.346793
632 4 0.347525 0.129168 0.354982
631 2 0.366695 0.113501 0.351483
633 4 0.385865 0.0978342 0.347984
516 4 0.41682 0.1506 0.382826
575 4 0.406199 0.13957 0.395574
451 2 0.490851 0.15172 0.362938
514 2 0.436121 0.162464 0.372249
2653 2 0.00628624 0.201574 0.387011
2654 4 0.0219451 0.182437 0.390718
388 2 0.0855457 0.234374 0.338968
389 4 0.105015 0.219196 0.335002
473 4 0.246371 0.183026 0.363192
687 4 0.174829 0.170363 0.410356
685 2 0.164804 0.192677 0.415531
377 4 0.322958 0.2275 0.346337
376 2 0.303345 0.223022 0.33149
474 4 0.268401 0.207422 0.400878
472 2 0.257386 0.195224 0.382035
488 4 0.267672 0.225055 0.390622
487 2 0.286512 0.23617 0.402735
717 4 0.399627 0.246592 0.340474
707 4 0.337546 0.216245 0.355051
420 4 0.391004 0.229217 0.333108
418 2 0.399772 0.205803 0.333363
706 2 0.347811 0.193456 0.355755
708 4 0.358075 0.170668 0.356459
715 2 0.380348 0.250782 0.355836
419 4 0.40854 0.182388 0.333617
515 4 0.455423 0.174328 0.361671
453 4 0.470045 0.163314 0.370546
390 4 0.0660761 0.249553 0.342935
618 4 0.0676615 0.317045 0.387815
347 4 0.0504837 0.31606 0.397586
616 2 0.0873287 0.327384 0.376348
275 4 0.136705 0.320871 0.385273
274 2 0.143727 0.297323 0.389896
276 4 0.15075 0.273775 0.394518
373 2 0.209645 0.307816 0.393727
374 4 0.230557 0.29911 0.383141
375 4 0.188733 0.316522 0.404314
716 4 0.36107 0.254973 0.371197
406 2 0.0592285 0.418464 0.394348
408 4 0.0695431 0.417541 0.417106
548 4 0.0441308 0.414965 0.353558
617 4 0.106996 0.337723 0.364882
509 4 0.205821 0.343068 0.338209
504 4 0.238868 0.389416 0.398447
435 4 0.250519 0.374733 0.335619
433 2 0.269033 0.388784 0.344839
434 4 0.287546 0.402834 0.354059
336 4 0.288486 0.382405 0.412094
334 2 0.313435 0.383592 0.41324
561 4 0.45502 0.365197 0.38593
752 4 0.460026 0.362166 0.365798
559 2 0.468676 0.368206 0.406658
751 2 0.460512 0.376143 0.345071
2463 4 0.00470063 0.498089 0.339286
547 2 0.0506104 0.415518 0.329415
407 4 0.0489139 0.419388 0.37159
499 2 0.148626 0.49448 0.379258
501 4 0.123809 0.49524 0.382208
1544 4 0.176031 0.50128 0.357232
668 4 0.287198 0.465877 0.408294
1 1 0.316218 0.491673 0.409087
3 3 0.323093 0.487767 0.387272
4 3 0.304212 0.473457 0.41699
593 4 0.402161 0.489236 0.339455
592 2 0.422164 0.474239 0.339078
1772 4 0.0386392 0.00139817 0.423057
718 2 0.0328113 0.0733689 0.458158
720 4 0.0332817 0.0512206 0.469752
2237 4 0.0318303 0.0332291 0.475903
2236 2 0.0284918 0.0084824 0.477181
1127 4 0.0252146 0.0478393 0.487298
369 4 0.0746924 0.0226651 0.418063
1181 4 0.222731 0.0916753 0.488254
1180 2 0.240607 0.0772695 0.478351
2430 4 0.184448 0.02584 0.517624
341 4 0.181614 0.0372982 0.499481
1182 4 0.258484 0.0628636 0.468447
726 4 0.311579 0.0527531 0.436214
724 2 0.305456 0.0565321 0.46016
432 4 0.317178 0.059213 0.491794
725 4 0.299332 0.0603111 0.484106
424 2 0.404708 0.0475381 0.418821
425 4 0.394603 0.0329545 0.436439
2879 4 0.473959 0.0721339 0.492342
719 4 0.0323408 0.0955172 0.446565
1033 2 0.105422 0.156897 0.487949
1034 4 0.0907117 0.13741 0.493339
320 4 0.291815 0.116347 0.414158
321 4 0.293462 0.129619 0.462343
319 2 0.292638 0.122983 0.43825
411 4 0.240151 0.165872 0.470981
574 2 0.404675 0.144144 0.420108
576 4 0.403151 0.148719 0.444643
2878 2 0.486352 0.0870846 0.476592
642 4 0.487304 0.117787 0.457114
640 2 0.470099 0.13539 0.452722
641 4 0.452894 0.152994 0.448329
306 4 0.439175 0.167255 0.442365
469 2 0.00893129 0.200915 0.483917
470 4 0.0270464 0.194571 0.499941
260 4 0.115316 0.231311 0.453002
261 4 0.121198 0.182905 0.464093
259 2 0.118257 0.207108 0.458547
1035 4 0.120133 0.176384 0.482559
686 4 0.15478 0.214991 0.420707
409 2 0.256706 0.174724 0.487497
410 4 0.27326 0.183577 0.504012
468 4 0.415857 0.235647 0.419606
466 2 0.401575 0.216647 0.427364
467 4 0.387292 0.197647 0.435122
3159 4 0.493561 0.202513 0.489445
305 4 0.45888 0.212706 0.449194
304 2 0.449028 0.189981 0.44578
346 2 0.0504799 0.317543 0.422546
326 4 0.0604566 0.32865 0.4619
695 4 0.102713 0.247717 0.454136
694 2 0.0996523 0.256622 0.477298
10 3 0.150876 0.333444 0.462873
651 4 0.233922 0.276507 0.494281
649 2 0.254465 0.290597 0.496434
489 4 0.305351 0.247284 0.414847
650 4 0.275008 0.304686 0.498586
266 4 0.332787 0.266499 0.4426
267 4 0.373439 0.274978 0.470462
265 2 0.353113 0.270738 0.456531
584 4 0.491569 0.291825 0.465423
583 2 0.469376 0.288091 0.476318
585 4 0.447182 0.284356 0.487212
348 4 0.0504761 0.319025 0.447506
325 2 0.0796665 0.330247 0.477825
2813 4 0.012695 0.371169 0.450684
7 3 0.126961 0.35431 0.482509
327 4 0.0988764 0.331845 0.49375
6 1 0.148994 0.351615 0.476472
8 3 0.156085 0.370657 0.465268
9 3 0.161698 0.348509 0.495639
711 4 0.173704 0.376487 0.458143
709 2 0.193599 0.389716 0.465516
710 4 0.213494 0.402946 0.472888
774 4 0.222371 0.407101 0.489811
502 2 0.244848 0.388299 0.422699
503 4 0.250828 0.387183 0.446952
586 2 0.402853 0.413666 0.481359
335 4 0.338384 0.384779 0.414386
238 2 0.359372 0.399112 0.447777
240 4 0.344328 0.384687 0.433964
239 4 0.374415 0.413537 0.46159
587 4 0.418284 0.400598 0.496065
560 4 0.482331 0.371215 0.427387
2507 4 0.498519 0.381594 0.427342
1381 2 0.0365928 0.49908 0.436795
679 2 0.0559903 0.449248 0.469355
1383 4 0.0353745 0.479389 0.452155
681 4 0.0767251 0.437293 0.476588
680 4 0.0352554 0.461203 0.462121
382 2 0.110387 0.440358 0.456453
568 2 0.152667 0.474792 0.449937
383 4 0.0905514 0.428264 0.465698
569 4 0.150104 0.45054 0.444423
384 4 0.130222 0.452452 0.447208
635 4 0.22421 0.419169 0.475295
634 2 0.223653 0.443849 0.471325
636 4 0.223096 0.46853 0.467356
669 4 0.254739 0.435596 0.431319
882 4 0.284044 0.481515 0.493766
667 2 0.270969 0.450736 0.419807
880 2 0.308539 0.486495 0.49441
588 4 0.387421 0.426734 0.466653
663 4 0.448397 0.452652 0.494987
1126 2 0.0132105 0.0501467 0.509109
1128 4 0.00120645 0.0524541 0.530921
1057 2 0.139334 0.0706109 0.573805
1058 4 0.124523 0.0507624 0.577247
1523 4 0.111375 0.0118689 0.505422
340 2 0.18492 0.060465 0.508287
2428 2 0.202192 0.00890476 0.522475
430 2 0.328156 0.0755798 0.507182
950 4 0.312735 0.0285564 0.573023
962 4 0.283924 0.00361745 0.514905
963 4 0.304459 0.0449863 0.49573
961 2 0.294191 0.0243019 0.505317
1217 4 0.386688 0.0573948 0.563858
1216 2 0.391115 0.0335097 0.56978
842 4 0.391516 0.0690687 0.547936
1218 4 0.395543 0.00962449 0.575703
938 4 0.0771855 0.11602 0.553304
937 2 0.0865829 0.126724 0.532754
939 4 0.0959802 0.137428 0.512204
1151 4 0.164153 0.105524 0.562416
1059 4 0.154145 0.0904594 0.570362
1155 4 0.157832 0.10672 0.580588
342 4 0.188225 0.0836319 0.517093
1150 2 0.177405 0.104771 0.541226
1152 4 0.190656 0.104018 0.520036
858 4 0.246058 0.174406 0.550305
841 2 0.371416 0.0829292 0.542545
843 4 0.351316 0.0967896 0.537155
431 4 0.339134 0.0919466 0.52257
878 4 0.0381222 0.213834 0.543198
1199 4 0.0182827 0.210254 0.538878
877 2 0.0590394 0.206274 0.554621
879 4 0.0799567 0.198713 0.566044
857 4 0.28257 0.200756 0.572059
856 2 0.264314 0.187581 0.561182
898 2 0.303079 0.199745 0.519513
791 4 0.290455 0.240619 0.554547
899 4 0.324059 0.197861 0.532984
900 4 0.2821 0.201629 0.506041
871 2 0.389076 0.252842 0.526056
3158 4 0.472647 0.163089 0.512009
872 4 0.412888 0.248029 0.53197
3157 2 0.483104 0.182801 0.500727
906 4 0.436082 0.220739 0.589709
983 4 0.0581808 0.333953 0.570083
1258 2 0.131304 0.29111 0.513198
1259 4 0.148881 0.308463 0.517084
1260 4 0.113727 0.273757 0.509311
696 4 0.0965918 0.265527 0.500461
790 2 0.300634 0.253498 0.573407
811 2 0.300241 0.324701 0.505469
804 4 0.26819 0.324556 0.526239
812 4 0.27536 0.322598 0.506773
813 4 0.325121 0.326804 0.504166
873 4 0.365263 0.257656 0.520142
1239 4 0.34647 0.309917 0.575818
954 4 0.493791 0.305505 0.58749
952 2 0.472952 0.318797 0.591261
1135 2 0.107003 0.403657 0.572659
897 4 0.139983 0.377956 0.560329
1137 4 0.128046 0.393515 0.563742
895 2 0.163331 0.379318 0.569173
1189 2 0.222582 0.379219 0.562573
773 4 0.237748 0.380062 0.528966
1190 4 0.239825 0.371087 0.546395
803 4 0.23467 0.361446 0.530268
772 2 0.230059 0.393581 0.509388
1191 4 0.205339 0.387352 0.578751
802 2 0.25143 0.343001 0.528253
930 4 0.335984 0.396843 0.529783
928 2 0.311481 0.39264 0.527113
929 4 0.286978 0.388436 0.524443
927 4 0.433205 0.377368 0.55287
925 2 0.431031 0.392103 0.532787
926 4 0.428856 0.406838 0.512704
1161 4 0.1639 0.4782 0.546751
2243 4 0.149446 0.488821 0.539338
1159 2 0.176147 0.471099 0.56736
891 4 0.301374 0.458573 0.580681
889 2 0.323924 0.452792 0.571557
881 4 0.333033 0.491475 0.495053
1952 4 0.333368 0.492583 0.514766
1002 4 0.393541 0.425382 0.541466
1000 2 0.409345 0.444758 0.54162
890 4 0.346474 0.447011 0.562433
1001 4 0.425148 0.464133 0.541774
662 4 0.453286 0.483483 0.534055
661 2 0.450841 0.468067 0.514521
1911 4 0.443737 0.470534 0.545142
1909 2 0.454031 0.47398 0.567666
1332 4 0.466286 0.497384 0.53058
943 2 0.0749138 0.0257773 0.640387
945 4 0.0680799 0.00207439 0.636306
944 4 0.0817477 0.0494801 0.644467
825 4 0.140938 0.0301196 0.62607
823 2 0.1472 0.00779921 0.635438
1030 2 0.250585 0.0796661 0.595009
949 2 0.292932 0.0388952 0.584254
1031 4 0.272272 0.0681531 0.599735
951 4 0.27313 0.0492341 0.595485
1092 4 0.334625 0.0164067 0.653913
3008 4 0.492889 0.0942009 0.602986
1083 4 0.00725259 0.127069 0.631793
1081 2 0.0258453 0.122998 0.648008
3179 4 0.00587196 0.148304 0.629487
1153 2 0.158686 0.125616 0.59694
1154 4 0.15954 0.144512 0.613293
1282 2 0.160904 0.108464 0.658411
1032 4 0.228899 0.0911791 0.590284
1284 4 0.174892 0.109901 0.637736
1221 4 0.172315 0.15988 0.613132
45 3 0.442065 0.0754773 0.658522
808 2 0.487189 0.0975668 0.643154
810 4 0.487772 0.0923638 0.667603
809 4 0.486607 0.10277 0.618704
1243 2 0.0773545 0.227358 0.637659
1244 4 0.0826197 0.210516 0.619945
1245 4 0.0720894 0.2442 0.655373
1272 4 0.0845769 0.193183 0.583565
1270 2 0.100307 0.193572 0.602997
1271 4 0.116036 0.19396 0.622429
1210 2 0.228961 0.189567 0.655844
1212 4 0.207878 0.199041 0.646308
1219 2 0.185754 0.179364 0.621191
1220 4 0.199193 0.198848 0.62925
796 2 0.210411 0.229191 0.613769
798 4 0.20711 0.215452 0.634397
797 4 0.213712 0.24293 0.593141
1211 4 0.250045 0.180094 0.665379
888 4 0.268619 0.173184 0.668659
904 2 0.452595 0.226481 0.607584
905 4 0.469108 0.232222 0.62546
3123 4 0.472176 0.241942 0.642392
3121 2 0.491501 0.240368 0.658179
947 4 0.187672 0.247175 0.642647
946 2 0.197174 0.265201 0.657137
792 4 0.310813 0.266377 0.592267
1238 4 0.31159 0.285784 0.602307
1237 2 0.32903 0.297851 0.589062
953 4 0.452113 0.332089 0.595031
982 2 0.0550767 0.339184 0.594336
984 4 0.0519726 0.344414 0.618588
1041 4 0.0584902 0.352613 0.63457
3263 4 0.0445787 0.339906 0.636777
3262 2 0.0320052 0.336505 0.65812
1136 4 0.0859606 0.413799 0.581577
1039 2 0.0818 0.361441 0.636543
1040 4 0.10511 0.370269 0.638516
991 2 0.108404 0.409333 0.644065
993 4 0.115602 0.385535 0.64672
896 4 0.186679 0.38068 0.578017
1172 4 0.191007 0.397806 0.586323
1206 4 0.447707 0.391525 0.659222
3309 4 0.48869 0.377288 0.614744
992 4 0.101206 0.43313 0.641409
1175 4 0.240608 0.503292 0.63397
1188 4 0.230276 0.487756 0.62881
1173 4 0.191321 0.446771 0.596474
1171 2 0.191164 0.422289 0.591399
1187 4 0.19324 0.462067 0.607153
1160 4 0.188395 0.463998 0.58797
1186 2 0.211758 0.474911 0.617982
1204 2 0.44293 0.415052 0.652234
1910 4 0.464324 0.477427 0.59019
1205 4 0.438152 0.438579 0.645247
1269 4 0.427822 0.450724 0.633968
1267 2 0.436631 0.473367 0.639872
1268 4 0.445441 0.49601 0.645777
2254 2 0.19822 0.0226138 0.730109
1147 2 0.220306 0.0825102 0.728462
1149 4 0.242669 0.0716725 0.725701
2255 4 0.178691 0.0381403 0.72846
1003 2 0.329839 0.0634539 0.706056
1004 4 0.339438 0.0652813 0.729071
1005 4 0.320241 0.0616264 0.68304
42 3 0.45234 0.0569771 0.689264
41 1 0.450752 0.0777229 0.679454
1163 4 0.488936 0.0787282 0.681431
1082 4 0.0444381 0.118927 0.664222
1076 4 0.0330775 0.107616 0.677053
864 4 0.0555818 0.106539 0.740934
1075 2 0.0449957 0.105867 0.698964
1077 4 0.0569139 0.104117 0.720875
909 4 0.103756 0.154717 0.703188
907 2 0.120027 0.136848 0.696773
908 4 0.136298 0.118979 0.690359
1283 4 0.146917 0.107027 0.679086
1227 4 0.153287 0.114337 0.696198
1225 2 0.167625 0.109317 0.716058
1148 4 0.197943 0.0933478 0.731224
1226 4 0.181963 0.104298 0.735917
1142 4 0.383824 0.168777 0.717003
831 4 0.37536 0.158259 0.70137
1141 2 0.407702 0.173463 0.722751
1025 4 0.464962 0.141688 0.681162
3425 4 0.502983 0.137958 0.710571
44 3 0.471943 0.0871003 0.678267
43 3 0.436886 0.0910955 0.692388
3424 2 0.495098 0.11767 0.698267
3426 4 0.487214 0.0973807 0.685964
1024 2 0.452244 0.156305 0.696967
852 4 0.0467062 0.204336 0.736351
1213 2 0.0110269 0.211735 0.724597
1214 4 0.0316241 0.19762 0.725895
1209 4 0.0839359 0.243477 0.672232
1207 2 0.0947468 0.232057 0.691671
1208 4 0.105558 0.220637 0.711111
1106 4 0.139299 0.199436 0.734475
1105 2 0.119245 0.185268 0.739196
1107 4 0.099191 0.171101 0.743918
1130 4 0.179589 0.186537 0.739358
1129 2 0.178011 0.211225 0.742986
1131 4 0.176434 0.235914 0.746615
830 4 0.32677 0.169878 0.699192
886 2 0.292302 0.174576 0.676553
887 4 0.315986 0.175967 0.684447
976 2 0.315184 0.202036 0.719969
978 4 0.314291 0.185325 0.701392
977 4 0.316077 0.218748 0.738546
1193 4 0.337868 0.24999 0.691505
829 2 0.351065 0.164069 0.700281
1192 2 0.352289 0.229565 0.691351
1194 4 0.36671 0.209139 0.691198
1143 4 0.43158 0.178149 0.7285
1026 4 0.439527 0.170921 0.712772
1261 2 0.455576 0.205412 0.734932
1262 4 0.445173 0.188652 0.719567
1263 4 0.465978 0.222171 0.750297
1074 4 0.0728406 0.273989 0.750731
893 4 0.0289354 0.32634 0.69567
948 4 0.206675 0.283228 0.671626
821 4 0.172001 0.274487 0.709348
820 2 0.173284 0.263823 0.731927
1064 4 0.219219 0.297146 0.676958
1065 4 0.210487 0.289802 0.725646
1063 2 0.214853 0.293474 0.701302
3264 4 0.0194317 0.333104 0.679463
3274 2 0.00284724 0.38636 0.739943
892 2 0.0326851 0.343953 0.713016
894 4 0.0364348 0.361567 0.730362
3276 4 0.0211732 0.373715 0.728566
814 2 0.0583766 0.381108 0.74854
816 4 0.0345472 0.37741 0.741932
941 4 0.147188 0.387432 0.739298
1067 4 0.163694 0.383684 0.730059
1066 2 0.164875 0.400034 0.711179
940 2 0.123897 0.384716 0.747977
1029 4 0.229737 0.413172 0.674787
1027 2 0.204755 0.413227 0.675828
1068 4 0.166056 0.416385 0.6923
806 4 0.305661 0.364547 0.670439
805 2 0.328138 0.372664 0.677791
807 4 0.350616 0.380781 0.685144
1019 4 0.388319 0.375109 0.704372
1018 2 0.374119 0.363528 0.721384
1020 4 0.359919 0.351947 0.738396
1280 4 0.0549756 0.470749 0.688234
1279 2 0.0368178 0.486964 0.693939
1281 4 0.01866 0.50318 0.699643
1028 4 0.179774 0.413282 0.676869
1140 4 0.26453 0.457904 0.693125
1139 4 0.275316 0.461268 0.741839
1138 2 0.269923 0.459586 0.717482
1228 2 0.388958 0.445518 0.734309
1229 4 0.368321 0.458364 0.740167
1230 4 0.409594 0.432673 0.728452
1989 4 0.35816 0.474412 0.74182
1100 4 0.428357 0.439331 0.725556
1101 4 0.475961 0.450989 0.735486
1099 2 0.452159 0.44516 0.730521
1251 4 0.478087 0.46934 0.745022
3330 4 0.493737 0.445894 0.727688
1294 2 0.0308568 0.0352349 0.779219
1295 4 0.0136995 0.0533521 0.780823
1296 4 0.0480141 0.0171177 0.777615
911 4 0.0860267 0.0595649 0.825181
2047 2 0.139388 0.00355057 0.778351
1203 4 0.107005 0.0685689 0.763048
1201 2 0.118658 0.0542538 0.779914
1202 4 0.130312 0.0399387 0.796779
2049 4 0.138443 0.0213132 0.795923
1257 4 0.26487 0.044229 0.759355
1255 2 0.259467 0.0534937 0.781941
1256 4 0.254063 0.0627584 0.804528
840 4 0.255636 0.0823007 0.806154
1113 4 0.394965 0.0544073 0.805283
1111 2 0.385945 0.0716615 0.820971
2321 4 0.483919 0.00297497 0.784558
2322 4 0.479566 0.0515059 0.795805
2320 2 0.481743 0.0272404 0.790181
980 4 0.432899 0.0252591 0.835172
846 4 0.478529 0.0697133 0.787628
862 2 0.0487409 0.112718 0.764176
863 4 0.0419 0.118898 0.787418
832 2 0.0286466 0.0979465 0.825003
833 4 0.0344022 0.106783 0.802332
1125 4 0.0254821 0.16118 0.813566
31 1 0.112237 0.145378 0.825834
34 3 0.121292 0.12488 0.819812
32 3 0.0956246 0.150847 0.810891
35 3 0.128366 0.161448 0.825331
838 2 0.270824 0.0969925 0.819521
844 2 0.466589 0.0866242 0.773605
845 4 0.45465 0.103535 0.759582
850 2 0.064603 0.189678 0.745839
1073 4 0.0453226 0.237146 0.770381
851 4 0.0824997 0.17502 0.755326
1277 4 0.185834 0.238912 0.763123
1276 2 0.199504 0.244431 0.783318
920 4 0.194874 0.200945 0.822142
1241 4 0.227007 0.237546 0.809809
918 4 0.314987 0.234672 0.749386
1298 4 0.331286 0.223285 0.75036
916 2 0.293712 0.242162 0.760177
1084 2 0.356853 0.17191 0.821496
50 3 0.397943 0.18473 0.784618
1086 4 0.359432 0.185823 0.800882
1299 4 0.343217 0.194062 0.789146
1297 2 0.337252 0.208673 0.769753
1043 4 0.394933 0.229526 0.785077
49 3 0.411794 0.219603 0.781509
46 1 0.417009 0.197185 0.784445
48 3 0.428545 0.194279 0.804367
1145 4 0.480191 0.217966 0.764523
47 3 0.430386 0.19032 0.767036
1022 4 0.435712 0.201865 0.82081