ITEM: TIMESTEP
1420000
ITEM: NUMBER OF ATOMS
4590
ITEM: BOX BOUNDS pp pp pp
-9.9985700000000008e+00 9.9985700000000008e+00
-9.9985700000000008e+00 9.9985700000000008e+00
-9.9985700000000008e+00 9.9985700000000008e+00
ITEM: ATOMS id type xs ys zs
463 2 0.0422897 0.0747336 0.0201841
465 4 0.0569112 0.0591552 0.0331727
701 4 0.0735685 0.0605293 0.0454039
2576 4 0.0233968 0.0199141 0.0560705
2575 2 0.00896332 0.0146727 0.0758033
3290 4 0.00256749 0.0574673 0.998476
700 2 0.0974972 0.0627762 0.0522993
702 4 0.121426 0.0650231 0.0591947
566 4 0.140358 0.0639377 0.0651293
491 4 0.275893 0.015641 0.0360173
2264 4 0.268937 0.0176976 0.0169699
2263 2 0.275556 0.0399658 0.00772384
745 2 0.476827 0.0470101 0.00355458
746 4 0.483997 0.0441416 0.0273357
2469 4 0.489599 0.026039 0.0331471
2467 2 0.498264 0.00321736 0.0385576
464 4 0.0276681 0.090312 0.00719556
590 4 0.0154735 0.128022 0.0599
589 2 0.00424072 0.124367 0.0819373
422 4 0.0884584 0.11442 0.0112358
565 2 0.152072 0.0853281 0.0596152
567 4 0.163787 0.106718 0.0541011
867 4 0.335874 0.165981 0.0130332
865 2 0.353854 0.148641 0.0141488
866 4 0.371834 0.131302 0.0152644
827 4 0.386112 0.11683 0.0125628
558 4 0.316433 0.132584 0.0751923
556 2 0.327397 0.114147 0.0880396
771 4 0.428139 0.162131 0.0748886
554 4 0.0438599 0.20268 0.0327404
553 2 0.0593033 0.221043 0.0257076
555 4 0.0747468 0.239407 0.0186748
835 2 0.113357 0.238557 0.00796569
837 4 0.134808 0.22796 0.000705628
836 4 0.0919054 0.249155 0.0152258
915 4 0.152174 0.23908 0.000254931
665 4 0.318941 0.170112 0.0229161
666 4 0.325355 0.217154 0.0386218
664 2 0.322148 0.193633 0.030769
573 4 0.318454 0.234486 0.0336763
461 4 0.33131 0.232298 0.0487039
460 2 0.330579 0.227916 0.0733098
1070 4 0.386868 0.217125 0.0670134
1069 2 0.39824 0.239258 0.0694639
1012 2 0.49567 0.210504 0.059347
769 2 0.452043 0.169198 0.0768499
770 4 0.475947 0.176264 0.0788112
1014 4 0.48282 0.189799 0.0649485
294 4 0.0732905 0.286357 0.0483274
292 2 0.0940144 0.293965 0.0365877
507 4 0.126459 0.309071 0.0398335
293 4 0.114738 0.301573 0.0248481
505 2 0.151002 0.307263 0.0354086
506 4 0.175544 0.305455 0.0309838
483 4 0.180133 0.324574 0.0358303
571 2 0.311342 0.256798 0.0249126
356 4 0.296124 0.296413 0.0236293
572 4 0.304231 0.279109 0.016149
1071 4 0.409612 0.26139 0.0719145
324 4 0.423587 0.264712 0.0586086
322 2 0.434142 0.28486 0.048224
672 4 0.441125 0.323528 0.0450849
323 4 0.444698 0.305007 0.0378394
620 4 0.00601985 0.36003 0.0646883
647 4 0.0252747 0.354936 0.0682808
646 2 0.0487454 0.350039 0.0753746
481 2 0.193461 0.3441 0.0439719
609 4 0.21334 0.377964 0.0622201
607 2 0.23448 0.388634 0.0541946
482 4 0.206789 0.363626 0.0521135
608 4 0.25562 0.399304 0.0461691
252 4 0.274659 0.401658 0.0513275
250 2 0.279835 0.421343 0.0368062
957 4 0.371112 0.3501 0.0175403
670 2 0.45568 0.339113 0.0581395
671 4 0.470236 0.354697 0.0711941
281 4 0.463348 0.371427 0.0784106
280 2 0.463848 0.395902 0.0733226
2651 4 0.482014 0.366163 0.081878
551 4 0.0898156 0.453551 0.0919096
550 2 0.105633 0.472655 0.08874
244 2 0.249643 0.482371 0.0552033
245 4 0.24768 0.469154 0.076337
272 4 0.246781 0.491652 0.015986
251 4 0.285011 0.441029 0.0222848
524 4 0.348711 0.495506 0.0139161
523 2 0.350691 0.490032 0.0382327
282 4 0.464348 0.420378 0.0682346
226 2 0.465572 0.442952 0.0374823
228 4 0.45598 0.461726 0.02404
227 4 0.475164 0.424177 0.0509246
563 4 0.445289 0.478672 0.0205188
16 1 0.0434881 0.0582363 0.140463
20 3 0.0322282 0.0446038 0.154816
1806 4 0.0605779 0.0284957 0.138883
18 3 0.0623487 0.0473912 0.132397
17 3 0.0298091 0.0635364 0.122744
1804 2 0.0794543 0.0158439 0.128453
19 3 0.0496346 0.0778059 0.15131
450 4 0.171969 0.05761 0.130258
1505 4 0.165991 0.0404084 0.140017
448 2 0.179235 0.0813355 0.12718
1504 2 0.177271 0.0356733 0.161824
652 2 0.31388 0.0150647 0.102326
653 4 0.316016 0.0191421 0.0777497
654 4 0.311744 0.0109872 0.126902
1661 4 0.313802 0.993993 0.138093
484 2 0.382699 0.999113 0.10963
296 4 0.340459 0.0771948 0.0922256
295 2 0.354216 0.0571047 0.097911
297 4 0.367972 0.0370146 0.103596
485 4 0.3773 0.0228552 0.115319
237 4 0.149043 0.149141 0.135296
578 4 0.130859 0.141423 0.14405
577 2 0.114439 0.127136 0.131744
579 4 0.0980178 0.11285 0.119438
235 2 0.169922 0.136371 0.130178
236 4 0.190801 0.123601 0.12506
693 4 0.201665 0.111892 0.135424
449 4 0.186502 0.105061 0.124103
691 2 0.220656 0.109554 0.15152
557 4 0.338361 0.0957104 0.100887
337 2 0.0734125 0.195996 0.166781
339 4 0.0496585 0.188203 0.166337
476 4 0.143191 0.185952 0.121671
475 2 0.129516 0.192648 0.141503
477 4 0.115841 0.199344 0.161336
737 4 0.149713 0.195023 0.105184
736 2 0.166438 0.213337 0.10201
738 4 0.183163 0.23165 0.0988354
283 2 0.325197 0.205615 0.147416
284 4 0.337519 0.213664 0.127203
462 4 0.329849 0.223535 0.0979157
255 4 0.344421 0.225389 0.11168
254 4 0.387067 0.24161 0.132148
253 2 0.365744 0.2335 0.121914
630 4 0.405445 0.234772 0.134925
628 2 0.41433 0.211724 0.138803
765 4 0.400517 0.251153 0.142585
629 4 0.423214 0.188676 0.14268
749 4 0.0983796 0.300149 0.155291
353 4 0.299016 0.286624 0.142486
754 2 0.278361 0.314009 0.141133
755 4 0.282003 0.291215 0.150742
278 4 0.290467 0.274208 0.154963
352 2 0.319648 0.272972 0.138861
756 4 0.274719 0.336803 0.131525
354 4 0.340279 0.259319 0.135236
763 2 0.407087 0.261387 0.164431
519 4 0.504727 0.281171 0.0875075
517 2 0.508081 0.279539 0.112231
648 4 0.0722162 0.345142 0.0824684
456 4 0.0830536 0.335977 0.0981723
455 4 0.121546 0.366604 0.0891716
454 2 0.1023 0.35129 0.0936719
537 4 0.195985 0.373445 0.133861
535 2 0.199505 0.393524 0.119383
611 4 0.21617 0.368069 0.134293
610 2 0.240193 0.361137 0.134409
612 4 0.264217 0.354206 0.134525
741 4 0.383684 0.367653 0.091571
387 4 0.334694 0.404722 0.160858
739 2 0.388589 0.37839 0.113613
740 4 0.393494 0.389127 0.135654
15 3 0.387991 0.381313 0.151912
385 2 0.358629 0.402339 0.154029
386 4 0.382563 0.399956 0.147199
11 1 0.406937 0.384686 0.16409
495 4 0.400362 0.405664 0.144929
12 3 0.421837 0.367698 0.159785
14 3 0.416676 0.404891 0.158147
1465 2 0.00584952 0.484579 0.148707
1466 4 0.0210037 0.504455 0.149409
552 4 0.12145 0.491758 0.0855703
627 4 0.229936 0.459672 0.0767764
536 4 0.203026 0.413603 0.104905
625 2 0.213408 0.446181 0.0898139
626 4 0.19688 0.43269 0.102851
637 2 0.234729 0.498632 0.139426
767 4 0.259287 0.469125 0.122697
638 4 0.253082 0.488673 0.125673
766 2 0.265762 0.452224 0.139948
301 2 0.313601 0.430937 0.161841
302 4 0.337245 0.424145 0.157364
494 4 0.403289 0.450964 0.123952
493 2 0.401825 0.428314 0.13444
660 4 0.409007 0.461166 0.139576
658 2 0.426022 0.475327 0.1512
2480 4 0.0100021 0.0161323 0.20124
673 2 0.127697 0.0475515 0.201664
675 4 0.106371 0.0443655 0.214322
674 4 0.149023 0.0507374 0.189005
689 4 0.1957 0.0266338 0.201594
1506 4 0.18855 0.0309382 0.18363
688 2 0.21079 0.0110204 0.213992
21 1 0.392201 0.0135532 0.220871
25 3 0.407629 0.0268731 0.210713
22 3 0.371903 0.0243713 0.221213
23 3 0.398709 0.00912432 0.242698
757 2 0.414337 0.0667171 0.195464
759 4 0.41513 0.0434681 0.204631
351 4 0.468059 0.0294886 0.242506
349 2 0.446737 0.030486 0.229484
350 4 0.425415 0.0314834 0.216462
380 4 0.0392447 0.0762974 0.168092
512 4 0.057277 0.117307 0.21615
379 2 0.0416453 0.0900718 0.188821
381 4 0.0440459 0.103846 0.209549
511 2 0.0669606 0.139973 0.220351
513 4 0.0766442 0.162639 0.224552
692 4 0.239646 0.107217 0.167616
721 2 0.194124 0.153885 0.226834
723 4 0.194235 0.136573 0.208793
582 4 0.2578 0.0987573 0.172153
580 2 0.271753 0.114347 0.185844
581 4 0.285707 0.129936 0.199535
30 3 0.303358 0.136538 0.189741
26 1 0.320235 0.143738 0.20323
29 3 0.326202 0.126948 0.218093
27 3 0.313096 0.162054 0.215177
28 3 0.338576 0.14984 0.190393
758 4 0.413543 0.089966 0.186297
310 2 0.418541 0.148363 0.171643
311 4 0.418038 0.124011 0.177292
521 4 0.457981 0.174189 0.214801
338 4 0.0971665 0.203789 0.167224
363 4 0.109741 0.195564 0.179558
362 4 0.129077 0.231108 0.208943
361 2 0.119409 0.213336 0.194251
372 4 0.139801 0.234897 0.226049
544 2 0.16564 0.192757 0.252498
722 4 0.194013 0.171197 0.244875
546 4 0.190031 0.18745 0.253933
285 4 0.312875 0.197565 0.167628
279 4 0.260916 0.254093 0.189933
312 4 0.419044 0.172715 0.165995
520 2 0.482597 0.177709 0.212181
395 4 0.074004 0.286093 0.208931
394 2 0.0552009 0.290346 0.224853
396 4 0.0363977 0.2946 0.240776
750 4 0.0734161 0.303632 0.198481
748 2 0.0858978 0.301891 0.176886
370 2 0.160038 0.249422 0.228219
300 4 0.151145 0.335523 0.208156
371 4 0.180274 0.263946 0.230389
277 2 0.275691 0.264151 0.172448
308 4 0.324144 0.266734 0.233362
307 2 0.322436 0.283176 0.214603
309 4 0.320728 0.299618 0.195844
764 4 0.413657 0.271622 0.186278
623 4 0.422326 0.287778 0.195961
526 2 0.496633 0.287559 0.169673
528 4 0.480228 0.300479 0.183426
622 2 0.446598 0.293321 0.198263
624 4 0.470871 0.298865 0.200565
262 2 0.0446244 0.396077 0.240459
264 4 0.0211013 0.391159 0.233555
263 4 0.0681475 0.400995 0.247362
298 2 0.138916 0.345993 0.227287
299 4 0.126687 0.356464 0.246418
603 4 0.121711 0.373838 0.25227
290 4 0.168091 0.380379 0.226106
289 2 0.16934 0.403904 0.217728
13 3 0.401895 0.384682 0.186739
644 4 0.510131 0.399059 0.202743
1757 4 0.076095 0.500108 0.228811
1430 4 0.195713 0.508688 0.205151
416 4 0.165101 0.44677 0.210885
417 4 0.190511 0.489475 0.205286
415 2 0.177806 0.468122 0.208086
291 4 0.170589 0.427429 0.20935
768 4 0.272237 0.435323 0.1572
303 4 0.289958 0.437728 0.166318
643 2 0.499701 0.421646 0.20523
645 4 0.48927 0.444234 0.207716
597 4 0.469939 0.442238 0.205421
595 2 0.459934 0.460473 0.191545
596 4 0.449928 0.478708 0.177669
659 4 0.443038 0.489488 0.162823
1799 4 0.0232648 0.0328285 0.323553
233 4 0.0188865 0.0223959 0.307561
1402 2 0.0617588 0.0187687 0.310102
1403 4 0.0373666 0.0233562 0.313127
232 2 0.0123215 0.0311117 0.285064
234 4 0.00575644 0.0398276 0.262567
1404 4 0.086151 0.0141811 0.307076
1699 2 0.181076 0.0760768 0.337174
1518 4 0.35639 0.00629333 0.309921
697 2 0.368393 0.0421336 0.315595
699 4 0.361346 0.0232196 0.300837
698 4 0.375439 0.0610476 0.330352
633 4 0.380004 0.0773215 0.320881
2664 4 0.497988 0.0263733 0.315338
743 4 0.493371 0.0409169 0.303781
744 4 0.47567 0.0217069 0.261139
742 2 0.484521 0.0313119 0.28246
479 4 0.483508 0.0384606 0.320885
398 4 0.112204 0.142771 0.305252
397 2 0.100919 0.121787 0.312835
393 4 0.107058 0.158207 0.29421
399 4 0.0896332 0.100803 0.320419
390 4 0.112383 0.160702 0.312606
1700 4 0.198314 0.0877269 0.323306
248 4 0.212744 0.101053 0.320143
249 4 0.203801 0.149616 0.328038
247 2 0.208272 0.125335 0.324091
404 4 0.200926 0.161337 0.312922
403 2 0.199452 0.16713 0.288643
632 4 0.396254 0.115614 0.293126
631 2 0.388129 0.0964676 0.307004
333 4 0.475259 0.143002 0.306585
515 4 0.446687 0.155516 0.330219
331 2 0.465748 0.165174 0.300017
545 4 0.141248 0.198064 0.251063
392 4 0.128693 0.182322 0.256117
391 2 0.117875 0.170264 0.275163
388 2 0.107312 0.174711 0.332686
405 4 0.197977 0.172923 0.264365
420 4 0.399509 0.215841 0.300924
717 4 0.403786 0.234355 0.295412
332 4 0.456238 0.187346 0.293449
418 2 0.41989 0.203899 0.292727
419 4 0.440271 0.191958 0.28453
760 2 0.473104 0.221006 0.285087
762 4 0.457397 0.201887 0.281494
761 4 0.488812 0.240125 0.288679
444 4 0.0420545 0.254551 0.29031
364 2 0.00766679 0.319135 0.262659
442 2 0.0338387 0.269123 0.271727
443 4 0.0256228 0.283696 0.253145
365 4 0.020358 0.302091 0.249482
401 4 0.197398 0.260774 0.273125
400 2 0.209586 0.263554 0.294779
402 4 0.221774 0.266333 0.316434
345 4 0.239281 0.271181 0.320292
510 4 0.225513 0.28517 0.318837
508 2 0.218227 0.307582 0.327193
497 4 0.324222 0.277205 0.249775
496 2 0.324436 0.284532 0.273679
498 4 0.32465 0.29186 0.297584
715 2 0.408373 0.258423 0.300397
542 4 0.421202 0.29928 0.298546
716 4 0.41296 0.282492 0.305381
541 2 0.415731 0.321211 0.309237
602 4 0.0730775 0.384265 0.257439
601 2 0.0973945 0.379051 0.254855
734 4 0.136429 0.364288 0.260886
733 2 0.142802 0.362687 0.28501
735 4 0.149176 0.361086 0.309135
677 4 0.154034 0.348071 0.324395
676 2 0.178651 0.347789 0.328761
433 2 0.239571 0.363034 0.332658
678 4 0.203269 0.347508 0.333127
435 4 0.222656 0.34477 0.330314
434 4 0.256486 0.381298 0.335002
728 4 0.38018 0.36823 0.316831
727 2 0.36383 0.38621 0.310951
729 4 0.34748 0.404189 0.30507
543 4 0.410259 0.343142 0.319927
615 4 0.407965 0.362444 0.314067
613 2 0.421001 0.383533 0.317307
2538 4 0.476529 0.387457 0.324044
2536 2 0.479272 0.394516 0.300215
614 4 0.434037 0.404622 0.320547
2537 4 0.482016 0.401575 0.276386
777 4 0.0602644 0.42497 0.32648
775 2 0.0821394 0.433384 0.31777
414 4 0.117971 0.451481 0.31849
776 4 0.104014 0.441798 0.30906
438 4 0.299151 0.434099 0.295938
436 2 0.323318 0.427695 0.295575
437 4 0.347485 0.421291 0.295212
594 4 0.383477 0.464433 0.318706
592 2 0.395827 0.479447 0.33443
2862 4 0.467293 0.408619 0.262253
2861 4 0.452157 0.452929 0.244696
2860 2 0.459725 0.430774 0.253474
1798 2 0.0138005 0.0146688 0.3379
369 4 0.096219 0.0459767 0.362067
367 2 0.0925202 0.0294356 0.380449
732 4 0.100909 0.0654121 0.367075
368 4 0.0888215 0.0128946 0.398831
1701 4 0.163839 0.0644267 0.351042
1782 4 0.0782237 0.00354538 0.412531
256 2 0.398371 0.0633282 0.354555
257 4 0.382906 0.0758831 0.339442
424 2 0.406783 0.0290054 0.404701
478 2 0.471992 0.0523189 0.33822
258 4 0.413835 0.0507733 0.369668
426 4 0.416159 0.035348 0.382406
480 4 0.460475 0.0661772 0.355555
458 4 0.0240114 0.156396 0.361727
318 4 0.0258438 0.137383 0.357539
316 2 0.0436598 0.121826 0.34943
317 4 0.0614757 0.106269 0.341321
605 4 0.156504 0.0742594 0.366088
730 2 0.0917877 0.0840533 0.353128
604 2 0.150125 0.0955289 0.377582
606 4 0.143746 0.116798 0.389075
731 4 0.0826669 0.102694 0.339182
600 4 0.22105 0.150175 0.386929
683 4 0.231537 0.138816 0.39846
682 2 0.253365 0.131877 0.408489
319 2 0.308337 0.125405 0.399738
320 4 0.290445 0.114467 0.413353
708 4 0.339254 0.149002 0.376211
684 4 0.275192 0.124938 0.418519
575 4 0.403069 0.135552 0.379348
321 4 0.32623 0.136344 0.386122
516 4 0.410285 0.140645 0.361114
574 2 0.417712 0.132781 0.399426
451 2 0.483022 0.151117 0.354538
514 2 0.428486 0.14808 0.345667
2655 4 0.00146766 0.247814 0.39477
457 2 0.0172831 0.167249 0.383224
2653 2 0.00361046 0.22343 0.39987
2654 4 0.00575326 0.199046 0.40497
459 4 0.0105549 0.178103 0.404721
389 4 0.10224 0.188719 0.352766
598 2 0.218309 0.174144 0.393498
687 4 0.206157 0.202143 0.417746
599 4 0.215569 0.198114 0.400066
473 4 0.234799 0.232413 0.384653
374 4 0.215301 0.23132 0.386743
472 2 0.256044 0.226501 0.396438
378 4 0.283169 0.239947 0.354623
376 2 0.290437 0.216313 0.35091
377 4 0.297704 0.192679 0.347197
707 4 0.313798 0.188283 0.358611
706 2 0.326526 0.168642 0.367411
474 4 0.277289 0.220589 0.408222
453 4 0.462971 0.158477 0.341539
2849 4 0.00153887 0.261127 0.381428
347 4 0.0719951 0.323136 0.401339
275 4 0.151058 0.318239 0.37769
617 4 0.142406 0.317177 0.395973
616 2 0.117566 0.319133 0.39806
618 4 0.0927266 0.321088 0.400147
274 2 0.16894 0.302399 0.385073
276 4 0.186823 0.28656 0.392456
373 2 0.209381 0.254686 0.393388
375 4 0.203462 0.278052 0.400033
509 4 0.21094 0.329993 0.335548
344 4 0.280132 0.256222 0.344953
343 2 0.259706 0.263702 0.332622
406 2 0.00677545 0.362716 0.369156
407 4 0.0206529 0.368202 0.349094
548 4 0.036677 0.378204 0.341268
547 2 0.0387424 0.402906 0.337992
504 4 0.248263 0.405298 0.421097
334 2 0.328651 0.405747 0.391932
502 2 0.26957 0.413478 0.410885
336 4 0.308361 0.420353 0.392349
335 4 0.348941 0.391142 0.391515
240 4 0.357492 0.39627 0.410228
559 2 0.500726 0.336569 0.401156
561 4 0.479553 0.335195 0.387929
753 4 0.475059 0.368952 0.330118
752 4 0.468789 0.339592 0.37011
751 2 0.471924 0.354272 0.350114
549 4 0.0408079 0.427608 0.334716
412 2 0.134999 0.461864 0.33357
413 4 0.152027 0.472247 0.348651
500 4 0.145415 0.486595 0.360207
1543 2 0.181965 0.500611 0.340658
1544 4 0.161265 0.488642 0.347966
593 4 0.408176 0.494461 0.350154
720 4 0.02957 0.0745684 0.457096
2237 4 0.0237836 0.0573673 0.450927
2236 2 0.0253089 0.0441294 0.42977
1127 4 0.0115358 0.0684817 0.461219
2238 4 0.0268342 0.0308916 0.408614
726 4 0.294013 0.0723765 0.474934
724 2 0.295951 0.0523586 0.489791
1580 4 0.380691 0.0157748 0.436796
425 4 0.397406 0.0226627 0.426995
2878 2 0.472613 0.0703498 0.480795
718 2 0.0395449 0.0928385 0.470949
719 4 0.0495197 0.111109 0.484801
1033 2 0.119266 0.141222 0.471241
1035 4 0.140171 0.149224 0.4601
1034 4 0.0983605 0.13322 0.482382
1182 4 0.282437 0.088664 0.473779
1180 2 0.284453 0.102342 0.452946
1181 4 0.286469 0.116019 0.432112
3158 4 0.503861 0.167199 0.437725
2880 4 0.476702 0.0845684 0.460638
642 4 0.471034 0.0888357 0.441473
640 2 0.461136 0.107905 0.428684
641 4 0.451237 0.126975 0.415895
306 4 0.443231 0.14517 0.418189
576 4 0.432354 0.13001 0.419503
469 2 0.0187382 0.197767 0.478299
470 4 0.0120572 0.17401 0.474285
686 4 0.174835 0.217021 0.453777
260 4 0.161646 0.209641 0.465878
261 4 0.133681 0.168309 0.462658
259 2 0.147663 0.188975 0.464268
695 4 0.156908 0.223678 0.453301
694 2 0.14551 0.244598 0.460891
411 4 0.229552 0.167512 0.502497
685 2 0.190496 0.209582 0.435761
488 4 0.272574 0.225558 0.426157
487 2 0.29245 0.217119 0.438762
489 4 0.312327 0.20868 0.451368
467 4 0.37546 0.211089 0.422587
466 2 0.375715 0.232588 0.43535
305 4 0.464293 0.189686 0.426874
304 2 0.453762 0.167428 0.422531
585 4 0.452198 0.235845 0.493993
2847 4 0.996252 0.316282 0.494435
1260 4 0.135593 0.27713 0.484034
696 4 0.134112 0.265519 0.468481
811 2 0.26197 0.308279 0.49109
813 4 0.262848 0.296959 0.468813
266 4 0.322169 0.259042 0.477627
468 4 0.375971 0.254087 0.448113
265 2 0.346605 0.259431 0.472343
267 4 0.37104 0.259821 0.467059
2456 4 0.475639 0.292719 0.478693
584 4 0.476867 0.273138 0.471601
583 2 0.464532 0.254491 0.482797
348 4 0.0532702 0.348381 0.440234
326 4 0.0594492 0.343702 0.459255
346 2 0.0626326 0.335758 0.420787
681 4 0.0710619 0.414739 0.436442
325 2 0.078765 0.356607 0.468504
383 4 0.0779927 0.424138 0.453414
10 3 0.149738 0.365926 0.473681
327 4 0.0980807 0.369513 0.477752
7 3 0.115527 0.373016 0.486804
6 1 0.137032 0.367202 0.492537
635 4 0.203374 0.416193 0.458811
709 2 0.179669 0.400631 0.486141
774 4 0.218727 0.415147 0.471624
772 2 0.234926 0.407928 0.489249
710 4 0.201132 0.408172 0.475765
503 4 0.290878 0.421657 0.400673
239 4 0.391602 0.418541 0.439232
238 2 0.374547 0.407405 0.42473
588 4 0.392876 0.402815 0.451584
586 2 0.39913 0.409445 0.474867
587 4 0.405384 0.416075 0.49815
680 4 0.0390045 0.452011 0.427286
1381 2 0.0502448 0.489871 0.413998
1383 4 0.0499027 0.465036 0.416879
679 2 0.0550332 0.433375 0.431864
570 4 0.168446 0.470838 0.462569
538 2 0.105942 0.486599 0.490879
382 2 0.0996559 0.428137 0.465242
569 4 0.141476 0.431292 0.477041
568 2 0.154961 0.451065 0.469805
384 4 0.121319 0.432136 0.47707
539 4 0.0938043 0.479102 0.470345
636 4 0.202454 0.434945 0.412462
634 2 0.202914 0.425569 0.435636
880 2 0.334226 0.493455 0.498741
5 3 0.2882 0.489109 0.45063
669 4 0.306201 0.428149 0.410781
668 4 0.312872 0.476328 0.4224
667 2 0.309536 0.452238 0.416591
4 3 0.313766 0.496281 0.423936
3077 4 0.988443 0.031599 0.565489
1057 2 0.130993 0.0588038 0.585129
2375 4 0.133798 0.0203888 0.598598
340 2 0.191306 0.0415905 0.518671
342 4 0.177097 0.0606057 0.526525
2430 4 0.193122 0.00675199 0.507484
341 4 0.205516 0.0225753 0.510818
430 2 0.317195 0.0317065 0.537783
432 4 0.298109 0.0260984 0.522636
963 4 0.290369 0.0147752 0.508327
725 4 0.297889 0.0323407 0.504647
431 4 0.336282 0.0373146 0.552929
843 4 0.345747 0.0476769 0.539457
1217 4 0.414169 0.0467541 0.542702
842 4 0.395279 0.0501351 0.545879
841 2 0.370513 0.048906 0.542668
1216 2 0.424765 0.0244206 0.546461
2879 4 0.468523 0.0561313 0.500952
879 4 0.0667261 0.153063 0.545625
1272 4 0.0763747 0.143476 0.559729
877 2 0.0468879 0.167973 0.548681
938 4 0.0780711 0.1396 0.540325
1059 4 0.138049 0.0822093 0.579877
1150 2 0.156129 0.0835567 0.541749
937 2 0.0923414 0.13622 0.520074
1151 4 0.145715 0.0909534 0.563244
1155 4 0.15689 0.0866038 0.578454
939 4 0.106612 0.132841 0.499822
1270 2 0.0953585 0.147934 0.575379
1152 4 0.166542 0.0761601 0.520254
878 4 0.0270497 0.182882 0.551738
1199 4 0.0153442 0.186438 0.535485
471 4 0.0254193 0.221525 0.482314
409 2 0.249465 0.179815 0.511291
857 4 0.296381 0.225196 0.583067
898 2 0.292632 0.215019 0.54251
791 4 0.298108 0.242818 0.573985
899 4 0.299811 0.225723 0.563936
900 4 0.285453 0.204316 0.521084
410 4 0.269377 0.192117 0.520084
871 2 0.37736 0.236306 0.513458
872 4 0.354957 0.225235 0.512605
873 4 0.399762 0.247377 0.514312
3354 4 0.995199 0.297353 0.50271
1259 4 0.10962 0.258258 0.522375
1258 2 0.122607 0.267694 0.503204
649 2 0.266812 0.316303 0.552316
651 4 0.271641 0.304021 0.573553
650 4 0.261983 0.328585 0.531079
804 4 0.249555 0.334887 0.517231
812 4 0.261092 0.3196 0.513366
790 2 0.318217 0.257482 0.576396
792 4 0.338325 0.272146 0.578806
1238 4 0.339751 0.292858 0.578067
906 4 0.430123 0.234734 0.576925
2455 2 0.487268 0.306396 0.496096
935 4 0.0194194 0.407414 0.534297
9 3 0.136639 0.346612 0.503228
897 4 0.170909 0.381692 0.562977
1137 4 0.155632 0.391558 0.554416
711 4 0.158206 0.39309 0.496516
8 3 0.145624 0.383367 0.506795
1189 2 0.241617 0.405964 0.54799
773 4 0.251126 0.40071 0.506874
1190 4 0.253211 0.400959 0.526409
1191 4 0.230023 0.410968 0.56957
803 4 0.249082 0.384892 0.517414
895 2 0.192593 0.391746 0.570319
802 2 0.249319 0.35989 0.517323
896 4 0.214277 0.4018 0.577661
930 4 0.266912 0.392248 0.514791
928 2 0.291604 0.395249 0.512243
929 4 0.316296 0.39825 0.509695
927 4 0.401561 0.390699 0.558827
925 2 0.406588 0.401435 0.536812
926 4 0.411614 0.41217 0.514797
1135 2 0.143409 0.413167 0.551445
1136 4 0.131186 0.434776 0.548475
2243 4 0.145188 0.509992 0.569519
2242 2 0.139294 0.504002 0.54597
2244 4 0.1334 0.498011 0.522421
1172 4 0.217253 0.420799 0.580751
1171 2 0.215713 0.444117 0.589644
889 2 0.317234 0.473675 0.573361
891 4 0.332838 0.482042 0.555706
890 4 0.301631 0.465309 0.591016
1953 4 0.386981 0.457978 0.53506
1951 2 0.364557 0.46894 0.536526
1952 4 0.342132 0.479902 0.537992
663 4 0.412858 0.430966 0.509191
881 4 0.342332 0.480426 0.518481
1001 4 0.430324 0.49085 0.538252
662 4 0.428338 0.473871 0.529689
661 2 0.420598 0.452419 0.51944
1911 4 0.436028 0.474517 0.547524
1909 2 0.437712 0.473447 0.572447
1332 4 0.445782 0.481224 0.53177
1330 2 0.467121 0.493381 0.527076
1184 4 0.994772 0.0171391 0.577033
2374 2 0.135577 0.997151 0.589543
1058 4 0.123937 0.0353984 0.59038
825 4 0.127607 0.00796144 0.664901
1284 4 0.16284 0.0791011 0.650688
950 4 0.258033 0.0102836 0.635602
949 2 0.268682 0.032129 0.629723
951 4 0.279331 0.0539743 0.623844
1031 4 0.274325 0.068794 0.611221
45 3 0.426756 0.0684805 0.654019
3008 4 0.506185 0.0765037 0.609893
3178 2 0.993099 0.16703 0.666459
1271 4 0.114342 0.152393 0.591028
1153 2 0.169737 0.0957877 0.597839
1154 4 0.182584 0.104972 0.617225
1221 4 0.194535 0.121769 0.615998
1219 2 0.200825 0.144867 0.623217
1220 4 0.207114 0.167965 0.630436
1032 4 0.269678 0.11183 0.636261
1030 2 0.272001 0.090312 0.623741
808 2 0.480079 0.0913273 0.633016
810 4 0.467718 0.0927184 0.654706
43 3 0.42926 0.0980581 0.677183
809 4 0.492441 0.0899361 0.611327
1243 2 0.066991 0.215093 0.64641
1244 4 0.0618354 0.22255 0.623108
1210 2 0.236035 0.175559 0.661582
1212 4 0.217463 0.176018 0.644847
796 2 0.194424 0.200658 0.620394
798 4 0.201298 0.185384 0.638958
797 4 0.187549 0.215932 0.60183
856 2 0.282704 0.210048 0.597511
858 4 0.269026 0.1949 0.611955
1211 4 0.254606 0.1751 0.678317
3121 2 0.497311 0.230089 0.638096
905 4 0.470481 0.239751 0.606026
3123 4 0.477796 0.235751 0.623525
904 2 0.450302 0.237243 0.591475
983 4 0.0369901 0.291617 0.608955
982 2 0.0420571 0.308373 0.626807
3263 4 0.0328972 0.327363 0.65672
947 4 0.248851 0.300708 0.644432
805 2 0.313549 0.320971 0.646676
1237 2 0.339382 0.301204 0.601634
1239 4 0.339014 0.30955 0.625201
807 4 0.319881 0.310656 0.624798
806 4 0.307217 0.331287 0.668555
952 2 0.485148 0.329236 0.609812
953 4 0.468467 0.323573 0.627556
984 4 0.0471241 0.32513 0.64466
1041 4 0.0387648 0.343177 0.64773
1039 2 0.0397331 0.367031 0.640297
1040 4 0.0407014 0.390884 0.632865
993 4 0.0550818 0.400215 0.642282
991 2 0.0619036 0.416883 0.624939
992 4 0.0687254 0.433552 0.607595
1159 2 0.180432 0.494317 0.58904
1160 4 0.200002 0.480733 0.596633
1173 4 0.214172 0.467435 0.598537
1188 4 0.194634 0.480384 0.660211
1187 4 0.210281 0.480447 0.612715
1186 2 0.202457 0.480415 0.636463
1206 4 0.469032 0.40807 0.647795
1204 2 0.464763 0.431239 0.639419
1910 4 0.439395 0.472377 0.597371
1269 4 0.442194 0.454768 0.63861
1267 2 0.43301 0.475757 0.648625
1205 4 0.460494 0.454408 0.631043
1226 4 0.157683 0.0812606 0.744867
2255 4 0.229463 0.0209716 0.744493
1004 4 0.335003 0.002064 0.706879
1003 2 0.331531 0.0249051 0.71644
1005 4 0.32806 0.0477463 0.726001
41 1 0.438058 0.0772945 0.671717
1162 2 0.495075 0.0690996 0.68112
42 3 0.435875 0.0632903 0.689835
3179 4 0.00965865 0.166615 0.685189
1083 4 0.00979177 0.1468 0.686659
1081 2 0.0190987 0.12433 0.692459
1082 4 0.0284057 0.10186 0.69826
1076 4 0.0217095 0.0857464 0.709168
1075 2 0.033294 0.0880625 0.731204
850 2 0.0691232 0.159725 0.716524
852 4 0.0503595 0.16167 0.732935
1214 4 0.0334084 0.154165 0.741085
1282 2 0.155187 0.08916 0.672262
909 4 0.104075 0.15366 0.69031
907 2 0.119179 0.133734 0.690101
908 4 0.134282 0.113809 0.689893
1283 4 0.147534 0.0992188 0.693836
1227 4 0.134832 0.104035 0.706659
851 4 0.0878869 0.15778 0.700113
1225 2 0.146257 0.0926476 0.725763
1148 4 0.174039 0.0856042 0.753064
1147 2 0.198759 0.0832301 0.75015
1149 4 0.223478 0.080856 0.747237
888 4 0.273178 0.170195 0.668027
830 4 0.324327 0.150951 0.705248
978 4 0.31688 0.160138 0.720286
887 4 0.307454 0.161931 0.70349
886 2 0.290316 0.166063 0.685759
831 4 0.368418 0.131292 0.718296
1141 2 0.39959 0.153718 0.719257
829 2 0.346372 0.141122 0.711772
1142 4 0.38252 0.139141 0.730268
1163 4 0.47939 0.0823433 0.666845
44 3 0.460573 0.0793558 0.6665
1025 4 0.475524 0.161626 0.688556
3424 2 0.473464 0.11998 0.680683
3426 4 0.467434 0.0969132 0.673151
3425 4 0.479494 0.143047 0.688215
3269 4 0.490061 0.1544 0.700027
3268 2 0.496262 0.162086 0.722998
1245 4 0.0721466 0.207635 0.669712
1209 4 0.079921 0.214121 0.685759
1207 2 0.0823287 0.235663 0.698222
1213 2 0.016027 0.171391 0.746216
1215 4 0.998646 0.188617 0.751347
1107 4 0.104613 0.165344 0.706602
1105 2 0.118129 0.185836 0.711354
1208 4 0.0847364 0.257206 0.710684
1106 4 0.131645 0.206327 0.716106
1130 4 0.140414 0.196255 0.731819
976 2 0.308998 0.178008 0.735897
1194 4 0.38554 0.236235 0.720687
1192 2 0.363966 0.23847 0.733127
1024 2 0.451619 0.168422 0.691304
1143 4 0.416661 0.168296 0.708245
1026 4 0.427714 0.175219 0.694052
1261 2 0.426858 0.198492 0.7301
1262 4 0.420664 0.1869 0.708829
3262 2 0.0330774 0.321178 0.680946
3264 4 0.0332577 0.314992 0.705172
779 4 0.038375 0.320552 0.723195
893 4 0.0277843 0.332813 0.712026
778 2 0.0573296 0.309212 0.734912
1064 4 0.2548 0.280046 0.706149
1065 4 0.215064 0.283454 0.736318
1063 2 0.234932 0.28175 0.721233
946 2 0.250891 0.288486 0.666149
948 4 0.252931 0.276265 0.687867
917 4 0.265747 0.241105 0.754691
1193 4 0.342393 0.240704 0.745568
1008 4 0.434289 0.307428 0.715111
1006 2 0.436702 0.294438 0.736338
892 2 0.0256031 0.352751 0.726956
894 4 0.0234219 0.372688 0.741886
1066 2 0.160055 0.401242 0.69183
1067 4 0.141418 0.405822 0.707857
940 2 0.112019 0.404441 0.723278
942 4 0.100934 0.395991 0.744036
1068 4 0.178691 0.396662 0.675802
1027 2 0.214753 0.402175 0.677247
1028 4 0.195245 0.387265 0.68197
1279 2 0.0323671 0.508779 0.686458
1280 4 0.0507776 0.502486 0.670753
941 4 0.123105 0.412891 0.70252
1176 4 0.174754 0.466022 0.723704
1029 4 0.234261 0.417086 0.672523
1175 4 0.182913 0.480399 0.676508
1174 2 0.178833 0.47321 0.700106
1140 4 0.271896 0.457566 0.692133
1138 2 0.293559 0.46308 0.703335
1139 4 0.315222 0.468594 0.714538
1019 4 0.403565 0.433186 0.74438
1230 4 0.402994 0.467444 0.722693
1228 2 0.383008 0.467608 0.737718
1100 4 0.421758 0.470114 0.726864
1101 4 0.463332 0.4434 0.734525
1099 2 0.442545 0.456757 0.730695
3330 4 0.482553 0.437821 0.734521
1296 4 0.0161487 0.0471799 0.798026
1294 2 0.0235372 0.0251624 0.788762
1201 2 0.160991 0.0487691 0.771824
1202 4 0.159379 0.0263657 0.782809
1203 4 0.162603 0.0711725 0.760839
2254 2 0.211918 0.0249303 0.761862
2049 4 0.178323 0.0187719 0.783251
2256 4 0.194373 0.0288891 0.779231
1113 4 0.387221 0.044714 0.822048
975 4 0.322095 0.0720704 0.836946
1111 2 0.394739 0.0672764 0.829767
2442 4 0.466025 0.00850819 0.758881
980 4 0.466643 0.0135652 0.795228
2321 4 0.465566 0.0180689 0.776158
2322 4 0.460759 0.0678425 0.77571
2320 2 0.463162 0.0429557 0.775934
846 4 0.457751 0.0687179 0.795578
1077 4 0.0448784 0.0903786 0.753241
864 4 0.0543308 0.0975914 0.770243
862 2 0.0452657 0.110855 0.789402
863 4 0.0362006 0.124119 0.808562
832 2 0.0123024 0.135235 0.834896
833 4 0.0316807 0.14031 0.819933
1125 4 0.0437823 0.141675 0.80588
31 1 0.128883 0.134218 0.808314
35 3 0.134356 0.117302 0.794083
33 3 0.109814 0.128628 0.820294
32 3 0.146204 0.137613 0.823066
34 3 0.125276 0.153771 0.796353
1257 4 0.235454 0.0906397 0.758901
1255 2 0.249423 0.0991783 0.777799
1256 4 0.263392 0.107717 0.796697
840 4 0.274738 0.123603 0.798736
838 2 0.286155 0.135774 0.817355
839 4 0.297572 0.147946 0.835975
844 2 0.458843 0.0928946 0.801861
845 4 0.459934 0.117071 0.808144
1123 2 0.049833 0.16592 0.805016
1124 4 0.0558837 0.190165 0.804152
1072 2 0.054376 0.220503 0.789138
1073 4 0.0479614 0.207877 0.809745
1074 4 0.0607905 0.233129 0.768532
1129 2 0.147582 0.212149 0.749741
822 4 0.152233 0.247175 0.766822
1131 4 0.15475 0.228042 0.767662
1277 4 0.168898 0.239685 0.772858
1276 2 0.175166 0.22904 0.794597
1278 4 0.181434 0.218395 0.816335
920 4 0.173602 0.203433 0.826201
977 4 0.301115 0.195878 0.751508
916 2 0.283296 0.224417 0.760913
918 4 0.300845 0.207729 0.767134
1298 4 0.317872 0.199802 0.761661
1297 2 0.334034 0.199614 0.780738
1299 4 0.350195 0.199427 0.799816
50 3 0.399333 0.205773 0.77951
1086 4 0.356227 0.195472 0.818244
49 3 0.417986 0.233926 0.796157