ITEM: TIMESTEP
3100000
ITEM: NUMBER OF ATOMS
4590
ITEM: BOX BOUNDS pp pp pp
-9.9985700000000008e+00 9.9985700000000008e+00
-9.9985700000000008e+00 9.9985700000000008e+00
-9.9985700000000008e+00 9.9985700000000008e+00
ITEM: ATOMS id type xs ys zs
465 4 0.0787891 0.0734407 0.0236185
463 2 0.0580307 0.0803931 0.0356988
701 4 0.0906394 0.0598215 0.0316912
700 2 0.113446 0.0638026 0.0222467
702 4 0.136252 0.0677836 0.0128022
566 4 0.143737 0.0809196 0.000879046
746 4 0.489344 0.0536472 0.0400641
2469 4 0.487935 0.0373444 0.0524032
745 2 0.477324 0.0554007 0.0182091
2467 2 0.500262 0.0179418 0.0622389
464 4 0.0372724 0.0873454 0.0477791
590 4 0.0367794 0.100068 0.0635445
589 2 0.0160418 0.100415 0.0775091
558 4 0.368985 0.120738 0.0389402
556 2 0.361795 0.105068 0.0570492
866 4 0.376986 0.133725 0.0262614
865 2 0.372422 0.156985 0.03422
827 4 0.366058 0.118612 0.0194027
557 4 0.354604 0.0893987 0.0751582
826 2 0.375595 0.103624 0.00180785
554 4 0.0328826 0.226684 0.0329132
553 2 0.0563331 0.218749 0.0294075
555 4 0.0797837 0.210815 0.0259018
835 2 0.119631 0.215597 0.0185053
836 4 0.0981208 0.215174 0.0312458
837 4 0.141141 0.21602 0.00576475
573 4 0.334731 0.257525 0.0698309
666 4 0.343864 0.241177 0.0665267
664 2 0.351697 0.218813 0.0585467
665 4 0.35953 0.196449 0.0505667
867 4 0.367858 0.180244 0.0421785
1070 4 0.413662 0.241785 0.0548631
2808 4 0.0511938 0.281666 0.0451346
2806 2 0.0262565 0.283466 0.044866
2807 4 0.0013193 0.285267 0.0445975
292 2 0.100935 0.335123 0.0818905
356 4 0.300299 0.316195 0.0479129
572 4 0.313143 0.299395 0.0530511
355 2 0.312685 0.334329 0.035958
571 2 0.323937 0.27846 0.061441
1069 2 0.425143 0.256993 0.0710515
323 4 0.449254 0.333294 0.0936904
620 4 0.0148183 0.37638 0.0851755
647 4 0.0238294 0.360682 0.0775073
293 4 0.123419 0.343691 0.0750912
507 4 0.137681 0.339613 0.0610872
505 2 0.145913 0.362456 0.0551184
483 4 0.168926 0.399462 0.0488413
506 4 0.154144 0.385299 0.0491495
481 2 0.189215 0.410114 0.0388368
607 2 0.253555 0.420307 0.0195837
357 4 0.325071 0.352463 0.024003
902 4 0.314249 0.355081 0.007031
608 4 0.278421 0.420182 0.01697
671 4 0.485961 0.376427 0.0744313
280 2 0.483209 0.413666 0.0669044
670 2 0.471739 0.362668 0.0897156
672 4 0.457518 0.348909 0.105
550 2 0.0551967 0.449791 0.0709391
552 4 0.0678875 0.471014 0.0672384
1787 4 0.0710412 0.479422 0.049837
1786 2 0.0625248 0.485741 0.0271935
1788 4 0.0540085 0.492059 0.00455005
242 4 0.0861755 0.474162 0.0617867
241 2 0.106936 0.479498 0.074659
626 4 0.195888 0.42323 0.0896485
482 4 0.209504 0.420765 0.0288323
609 4 0.228689 0.420431 0.0221975
246 4 0.245761 0.499022 0.0259691
244 2 0.241998 0.483109 0.0448847
245 4 0.238234 0.467196 0.0638003
272 4 0.247673 0.48716 0.0102315
627 4 0.230132 0.458366 0.0799803
625 2 0.21301 0.440798 0.0848144
1778 4 0.260055 0.502449 0.0134989
252 4 0.287554 0.432092 0.0297233
250 2 0.300308 0.451294 0.0200374
251 4 0.313062 0.470496 0.0103515
2289 4 0.327348 0.475811 0.0243343
957 4 0.404317 0.427666 0.00771672
525 4 0.446123 0.494964 0.0905146
226 2 0.464158 0.474174 0.0663571
227 4 0.474966 0.452253 0.0610816
228 4 0.45335 0.496095 0.0716325
282 4 0.470125 0.433556 0.0592657
16 1 0.0717095 0.044493 0.13437
20 3 0.0687675 0.0508722 0.112707
18 3 0.0676299 0.0217553 0.136551
19 3 0.0573991 0.0564673 0.148162
1806 4 0.0586862 0.0171613 0.117905
380 4 0.072159 0.0606248 0.161883
17 3 0.0934172 0.0487896 0.140652
675 4 0.0932359 0.0562283 0.159067
673 2 0.117094 0.0500731 0.163318
674 4 0.140953 0.043918 0.16757
652 2 0.316125 0.0250407 0.144152
654 4 0.296383 0.016143 0.156653
653 4 0.335867 0.0339384 0.131652
484 2 0.364217 0.00479477 0.121222
297 4 0.343145 0.0363046 0.113569
485 4 0.352232 0.0260549 0.126658
295 2 0.352193 0.056124 0.101302
296 4 0.361242 0.0759433 0.0890335
2625 4 0.983922 0.107389 0.1564
579 4 0.102649 0.148679 0.0934569
237 4 0.148334 0.162928 0.138753
577 2 0.12058 0.158214 0.108043
235 2 0.156544 0.1412 0.148008
236 4 0.164754 0.119471 0.157264
693 4 0.182652 0.118505 0.163191
691 2 0.205205 0.114727 0.153076
692 4 0.227757 0.110948 0.142961
582 4 0.24364 0.0976857 0.147259
580 2 0.264992 0.110503 0.149491
581 4 0.286343 0.123321 0.151722
30 3 0.306013 0.127154 0.15289
29 3 0.319291 0.153295 0.176512
771 4 0.408639 0.172776 0.078825
578 4 0.138511 0.167748 0.122629
737 4 0.157949 0.172288 0.125007
476 4 0.144088 0.182022 0.134444
475 2 0.129642 0.194302 0.150744
736 2 0.177962 0.183617 0.115196
738 4 0.197976 0.194947 0.105384
354 4 0.31956 0.223784 0.144019
285 4 0.322804 0.167301 0.163052
462 4 0.329862 0.224139 0.129821
460 2 0.332402 0.234022 0.106994
352 2 0.298894 0.236764 0.149463
353 4 0.278229 0.249743 0.154906
461 4 0.334942 0.243905 0.0841678
283 2 0.327508 0.189376 0.152295
284 4 0.332212 0.211452 0.141538
255 4 0.33628 0.227998 0.145508
253 2 0.355852 0.236101 0.158793
769 2 0.429194 0.173109 0.0930573
770 4 0.449749 0.173442 0.10729
1014 4 0.459362 0.189211 0.112973
1013 4 0.473184 0.236812 0.119588
1012 2 0.466273 0.213011 0.11628
294 4 0.0784512 0.326555 0.0886898
456 4 0.0762408 0.328271 0.10835
455 4 0.0605541 0.333756 0.155515
454 2 0.0683974 0.331013 0.131933
648 4 0.0646054 0.338707 0.0963525
749 4 0.0514352 0.332199 0.173326
610 2 0.226253 0.331413 0.127586
612 4 0.232818 0.307736 0.132223
756 4 0.241679 0.289997 0.129734
754 2 0.250351 0.27152 0.144177
755 4 0.259022 0.253043 0.158619
322 2 0.449368 0.308348 0.0953767
1071 4 0.436625 0.272202 0.0872398
324 4 0.449482 0.283401 0.0970631
519 4 0.487355 0.250056 0.116083
646 2 0.0442174 0.349694 0.0869299
536 4 0.194271 0.40945 0.104441
611 4 0.219689 0.355089 0.122949
535 2 0.204798 0.386773 0.104823
537 4 0.215324 0.364097 0.105204
387 4 0.329404 0.409434 0.126239
739 2 0.394607 0.377074 0.107721
740 4 0.391348 0.38763 0.130151
385 2 0.352313 0.401318 0.132112
386 4 0.375222 0.393203 0.137985
495 4 0.391216 0.403909 0.141365
15 3 0.382926 0.375775 0.142755
741 4 0.397866 0.366517 0.0852903
11 1 0.393705 0.38248 0.161662
12 3 0.414371 0.372417 0.162576
14 3 0.396579 0.405503 0.161396
551 4 0.042506 0.428568 0.0746398
1466 4 0.995341 0.485541 0.112017
1791 4 0.00161556 0.494598 0.127471
243 4 0.127697 0.484833 0.0875313
1440 4 0.135035 0.474437 0.104199
1438 2 0.159969 0.473079 0.105484
1439 4 0.184903 0.471721 0.106769
639 4 0.198288 0.483248 0.115319
637 2 0.21855 0.490949 0.102855
303 4 0.312204 0.474198 0.108223
768 4 0.299373 0.488369 0.101545
301 2 0.320952 0.451366 0.11345
302 4 0.329701 0.428533 0.118678
493 2 0.400593 0.425653 0.133336
660 4 0.405656 0.457359 0.143065
494 4 0.40997 0.447397 0.125307
524 4 0.407057 0.483786 0.119662
523 2 0.42659 0.489375 0.105088
658 2 0.416825 0.473022 0.159037
379 2 0.0688402 0.0797512 0.177642
450 4 0.153224 0.0583045 0.163552
1505 4 0.159847 0.0425159 0.173484
1504 2 0.166281 0.0336624 0.195965
1506 4 0.172715 0.024809 0.218446
757 2 0.46325 0.0276445 0.211586
25 3 0.433462 0.00939045 0.228175
759 4 0.442489 0.0264453 0.225468
758 4 0.484011 0.0288437 0.197704
350 4 0.443056 0.0180895 0.242204
512 4 0.0700843 0.113142 0.181522
381 4 0.0655213 0.0988776 0.193401
511 2 0.0768694 0.135512 0.190397
513 4 0.0836544 0.157881 0.199271
448 2 0.161706 0.081699 0.165986
449 4 0.170188 0.105094 0.168421
26 1 0.309127 0.132506 0.174806
28 3 0.288735 0.132726 0.185876
27 3 0.322732 0.11675 0.184594
521 4 0.495913 0.135836 0.243255
339 4 0.0871893 0.175633 0.207456
337 2 0.092642 0.193783 0.191145
477 4 0.115196 0.206582 0.167044
363 4 0.114451 0.221107 0.180125
338 4 0.0980947 0.211932 0.174835
362 4 0.140652 0.252426 0.208994
361 2 0.127551 0.236767 0.19456
370 2 0.154003 0.242052 0.245716
628 2 0.395154 0.219537 0.194665
629 4 0.406303 0.19767 0.199432
630 4 0.384005 0.241403 0.189898
312 4 0.423521 0.203568 0.190595
311 4 0.46213 0.182594 0.166717
310 2 0.442826 0.193081 0.178656
750 4 0.0506986 0.290493 0.200909
395 4 0.0472814 0.28861 0.218949
748 2 0.0510669 0.311346 0.187118
394 2 0.0360854 0.28495 0.241004
372 4 0.138746 0.251976 0.228572
300 4 0.141922 0.316359 0.17917
298 2 0.130732 0.329532 0.197238
278 4 0.271917 0.250037 0.17353
277 2 0.269919 0.258623 0.196927
279 4 0.267922 0.26721 0.220325
401 4 0.266922 0.312874 0.223943
496 2 0.305873 0.327011 0.2062
497 4 0.328148 0.32939 0.195094
254 4 0.375424 0.244204 0.172077
308 4 0.33156 0.335242 0.17687
765 4 0.382049 0.259362 0.182981
763 2 0.400998 0.273346 0.19138
528 4 0.494831 0.312346 0.204139
764 4 0.419948 0.287329 0.199779
624 4 0.476864 0.310525 0.198026
622 2 0.45239 0.307857 0.202396
623 4 0.427916 0.30519 0.206765
262 2 0.0595112 0.406617 0.22646
264 4 0.0347104 0.404625 0.223983
263 4 0.0843119 0.408608 0.228937
299 4 0.119543 0.342704 0.215306
734 4 0.118844 0.349484 0.234073
602 4 0.101056 0.403706 0.221905
601 2 0.113764 0.382203 0.220757
603 4 0.126471 0.3607 0.219608
290 4 0.159017 0.391102 0.221164
289 2 0.166928 0.413791 0.214249
498 4 0.283598 0.324632 0.217307
307 2 0.351112 0.350201 0.172497
309 4 0.370664 0.36516 0.168124
13 3 0.381489 0.376238 0.180376
2617 2 0.995168 0.417358 0.239896
2618 4 0.0184316 0.409519 0.235149
291 4 0.174839 0.436479 0.207333
416 4 0.189382 0.437459 0.193993
415 2 0.192412 0.461602 0.188237
1430 4 0.206245 0.490949 0.199268
417 4 0.195442 0.485745 0.182481
597 4 0.481947 0.456101 0.19589
596 4 0.443915 0.487164 0.186437
659 4 0.427994 0.488685 0.17501
595 2 0.462931 0.471633 0.191163
1799 4 0.00879653 0.0114593 0.300911
233 4 0.00232583 0.0271437 0.290907
1402 2 0.0449947 0.0284436 0.302108
1403 4 0.0209151 0.0253563 0.296123
1404 4 0.0690743 0.031531 0.308093
1798 2 0.999618 0.000436146 0.32139
633 4 0.374176 0.0279069 0.289743
631 2 0.38646 0.0444055 0.275528
257 4 0.364204 0.0289738 0.305825
698 4 0.374809 0.0127924 0.300972
256 2 0.35876 0.045658 0.323634
258 4 0.353315 0.0623423 0.341443
632 4 0.398744 0.0609042 0.261313
349 2 0.444421 0.0172049 0.267155
744 4 0.466159 0.0150185 0.28956
742 2 0.48258 0.0209427 0.30746
351 4 0.445787 0.0163202 0.292105
393 4 0.0831498 0.153939 0.309317
398 4 0.0867004 0.147897 0.327756
390 4 0.0772736 0.164528 0.323703
392 4 0.126022 0.154613 0.283583
391 2 0.104586 0.154276 0.29645
545 4 0.128427 0.172689 0.275808
403 2 0.19193 0.158067 0.313882
404 4 0.197257 0.141934 0.332226
249 4 0.212873 0.129844 0.33343
444 4 0.0191416 0.240567 0.30966
544 2 0.152986 0.176865 0.27795
371 4 0.169259 0.232127 0.26286
546 4 0.177545 0.181041 0.280092
723 4 0.229348 0.220217 0.26868
721 2 0.211688 0.205233 0.278101
405 4 0.186602 0.174201 0.295537
722 4 0.194027 0.190249 0.287522
376 2 0.304978 0.22744 0.332219
378 4 0.303411 0.248663 0.319093
377 4 0.306545 0.206217 0.345345
420 4 0.390863 0.235467 0.285687
717 4 0.375262 0.242439 0.297307
418 2 0.409578 0.219404 0.281574
761 4 0.484617 0.214348 0.248946
331 2 0.450265 0.196788 0.315777
332 4 0.437409 0.202719 0.295168
419 4 0.428292 0.203341 0.277461
760 2 0.466084 0.206751 0.263911
762 4 0.44755 0.199155 0.278877
442 2 0.0247484 0.260306 0.295372
364 2 0.0256736 0.313302 0.288764
396 4 0.0248894 0.28129 0.263059
443 4 0.0303552 0.280044 0.281084
365 4 0.0339059 0.296699 0.271978
407 4 0.0205917 0.332921 0.32389
735 4 0.146481 0.324286 0.267269
733 2 0.132662 0.336885 0.250671
677 4 0.161065 0.33083 0.279539
676 2 0.180509 0.333249 0.295072
508 2 0.231374 0.313343 0.30222
509 4 0.215202 0.325017 0.317299
678 4 0.199952 0.335667 0.310605
510 4 0.247546 0.301669 0.287141
400 2 0.259154 0.304571 0.246212
402 4 0.251386 0.296267 0.26848
345 4 0.261304 0.288612 0.28346
343 2 0.277569 0.277387 0.298778
344 4 0.293834 0.266163 0.314096
715 2 0.362368 0.263597 0.300661
716 4 0.349473 0.284755 0.304016
542 4 0.362151 0.298729 0.309071
541 2 0.381553 0.310533 0.319529
543 4 0.400955 0.322338 0.329988
751 2 0.474856 0.318971 0.321741
753 4 0.466881 0.322521 0.29831
2538 4 0.479203 0.334922 0.287621
366 4 0.0174412 0.329905 0.305549
548 4 0.0211039 0.347878 0.310924
547 2 0.0311677 0.370494 0.314447
549 4 0.0412314 0.39311 0.317969
777 4 0.047532 0.411134 0.311728
2493 4 0.00456256 0.339325 0.316577
435 4 0.213152 0.343662 0.323149
728 4 0.366277 0.401025 0.291522
727 2 0.378038 0.41286 0.310145
1543 2 0.140132 0.474126 0.312081
1545 4 0.164114 0.468564 0.307708
1544 4 0.11615 0.479687 0.316454
1436 4 0.165339 0.483709 0.294967
729 4 0.389798 0.424695 0.328768
437 4 0.372552 0.43089 0.338247
730 2 0.0792556 0.0774009 0.36441
2238 4 0.0120347 0.0430388 0.394682
2236 2 0.0153028 0.0460048 0.419293
732 4 0.0980021 0.0620195 0.370506
369 4 0.102685 0.0423108 0.373769
367 2 0.101434 0.0263645 0.392987
604 2 0.171688 0.0165048 0.383235
1701 4 0.195332 0.0460285 0.398796
1699 2 0.200684 0.069184 0.391027
605 4 0.185853 0.0370739 0.384437
424 2 0.37722 0.0635861 0.374769
425 4 0.398388 0.0629742 0.388063
1580 4 0.402003 0.0440455 0.395539
426 4 0.356052 0.0641979 0.361475
1579 2 0.39645 0.0209262 0.403274
743 4 0.499002 0.0268668 0.32536
478 2 0.486127 0.0391274 0.364945
480 4 0.476667 0.0422579 0.387878
479 4 0.495587 0.0359969 0.342013
397 2 0.0769391 0.126638 0.336585
399 4 0.0671779 0.105379 0.345414
317 4 0.0477323 0.103587 0.348775
731 4 0.0605091 0.0927824 0.358314
316 2 0.0259971 0.113785 0.355757
318 4 0.00426189 0.123984 0.362738
247 2 0.215933 0.111619 0.350274
248 4 0.218992 0.0933954 0.367117
1700 4 0.206036 0.0923394 0.383257
319 2 0.320661 0.129289 0.400994
708 4 0.324932 0.146954 0.364121
321 4 0.331095 0.134862 0.378966
516 4 0.453912 0.150925 0.371629
575 4 0.460993 0.135727 0.382537
574 2 0.455768 0.12571 0.404843
2654 4 0.996549 0.197758 0.380444
389 4 0.0889739 0.200937 0.355925
388 2 0.0831237 0.182732 0.339814
600 4 0.247763 0.171592 0.412669
707 4 0.30762 0.186812 0.339374
706 2 0.316276 0.166883 0.351748
489 4 0.298784 0.247658 0.416476
467 4 0.347626 0.235801 0.363382
333 4 0.46312 0.190857 0.336386
453 4 0.481496 0.198516 0.338269
515 4 0.471206 0.194424 0.354036
514 2 0.462559 0.172674 0.362832
406 2 0.0317427 0.32659 0.345355
408 4 0.0428937 0.32026 0.366821
347 4 0.0545665 0.335495 0.372371
274 2 0.145163 0.309103 0.355957
276 4 0.157384 0.290166 0.366784
373 2 0.182002 0.281445 0.403598
375 4 0.16772 0.288598 0.384362
374 4 0.196284 0.274292 0.422834
466 2 0.356908 0.25273 0.37927
615 4 0.419069 0.311525 0.331513
267 4 0.358566 0.268952 0.413178
468 4 0.36619 0.26966 0.395158
613 2 0.426925 0.316818 0.354652
752 4 0.48283 0.31542 0.345171
614 4 0.434782 0.322111 0.377792
561 4 0.498964 0.311155 0.354677
346 2 0.0565659 0.337229 0.397234
618 4 0.0709341 0.344661 0.365825
348 4 0.0585654 0.338963 0.422097
275 4 0.132942 0.328039 0.345129
617 4 0.114378 0.325892 0.349667
616 2 0.0926558 0.335276 0.357746
433 2 0.204334 0.35195 0.345029
434 4 0.195516 0.360238 0.366909
504 4 0.281239 0.412448 0.386037
240 4 0.399769 0.410188 0.393652
335 4 0.384006 0.406888 0.406141
334 2 0.362076 0.417274 0.412174
336 4 0.340146 0.42766 0.418207
775 2 0.0495725 0.429226 0.328865
776 4 0.051613 0.447318 0.346003
414 4 0.066215 0.459937 0.351625
413 4 0.107235 0.482548 0.334109
412 2 0.0867249 0.471242 0.342867
500 4 0.110555 0.497837 0.321849
502 2 0.301916 0.420265 0.397721
503 4 0.322593 0.428083 0.409404
436 2 0.381751 0.450549 0.35066
438 4 0.39095 0.470208 0.363073
593 4 0.40019 0.485755 0.354943
3990 4 0.462089 0.490451 0.358424
1126 2 0.00628917 0.0402836 0.484696
1127 4 0.011248 0.0482396 0.461517
2237 4 0.018571 0.0489709 0.443904
720 4 0.0219418 0.0639022 0.457328
368 4 0.100184 0.0104183 0.412205
1782 4 0.106919 0.0136723 0.430844
1780 2 0.0863807 0.00307331 0.440385
2429 4 0.24765 0.0205419 0.499889
341 4 0.179645 0.0177896 0.502565
962 4 0.26057 0.0106775 0.487134
961 2 0.285151 0.0148769 0.488964
724 2 0.315274 0.0603466 0.492891
726 4 0.319173 0.0840152 0.485836
963 4 0.309731 0.0190762 0.490793
2879 4 0.412115 0.0140699 0.467446
642 4 0.452603 0.0583039 0.454575
2878 2 0.421791 0.0362222 0.461056
2880 4 0.431468 0.0583745 0.454667
640 2 0.452014 0.0827593 0.449402
469 2 0.00654327 0.144575 0.464915
470 4 0.0254726 0.132574 0.453833
718 2 0.0253701 0.0885285 0.454688
719 4 0.0287985 0.113155 0.452049
937 2 0.0849034 0.159176 0.495278
939 4 0.0910069 0.149221 0.473168
1033 2 0.13215 0.139748 0.464011
1035 4 0.156986 0.13714 0.465264
1034 4 0.107315 0.142356 0.462758
261 4 0.17496 0.141213 0.470491
259 2 0.183645 0.162853 0.479517
683 4 0.249501 0.151956 0.409061
320 4 0.310228 0.123716 0.423023
684 4 0.290945 0.12758 0.422807
682 2 0.270223 0.139768 0.415934
1181 4 0.298709 0.118925 0.437597
1182 4 0.327126 0.0985423 0.473342
1180 2 0.312917 0.108734 0.455469
576 4 0.450543 0.115692 0.427148
641 4 0.451425 0.107215 0.444228
306 4 0.452202 0.12681 0.443095
304 2 0.4431 0.141245 0.46137
3158 4 0.437925 0.151142 0.498844
305 4 0.433998 0.15568 0.479645
695 4 0.18137 0.200125 0.488493
260 4 0.192329 0.184493 0.488543
687 4 0.234511 0.218234 0.452668
686 4 0.194178 0.198967 0.47509
685 2 0.214345 0.2086 0.463879
474 4 0.24143 0.229378 0.44072
599 4 0.247393 0.213019 0.440675
598 2 0.247578 0.192305 0.426672
411 4 0.251686 0.224123 0.453613
409 2 0.263573 0.224537 0.475606
488 4 0.258776 0.226426 0.437671
487 2 0.27878 0.237042 0.427074
410 4 0.27546 0.224951 0.497599
2814 4 0.993619 0.335565 0.444584
2812 2 0.0173997 0.339172 0.437754
472 2 0.228279 0.249581 0.43408
473 4 0.215128 0.269783 0.42744
266 4 0.335689 0.311742 0.42528
265 2 0.347127 0.290347 0.419229
2813 4 0.0411805 0.34278 0.430925
326 4 0.0552378 0.356589 0.430309
325 2 0.0614172 0.375286 0.445717
327 4 0.0675966 0.393984 0.461125
7 3 0.0829384 0.388102 0.474337
6 1 0.105235 0.386169 0.479656
709 2 0.151868 0.411261 0.493734
10 3 0.117606 0.387036 0.460555
8 3 0.111137 0.403661 0.493712
9 3 0.108654 0.365883 0.490389
813 4 0.261344 0.354026 0.463302
811 2 0.260655 0.348565 0.487693
238 2 0.416282 0.415451 0.411675
239 4 0.432796 0.420713 0.429697
1383 4 0.0610369 0.497914 0.469342
680 4 0.067916 0.482944 0.47994
679 2 0.0652557 0.465102 0.497253
634 2 0.180563 0.448398 0.462085
636 4 0.173483 0.467059 0.447023
635 4 0.187642 0.429738 0.477146
774 4 0.189587 0.422796 0.496097
710 4 0.173932 0.420118 0.485994
4 3 0.335133 0.502484 0.450201
667 2 0.327405 0.461858 0.436394
668 4 0.327512 0.482736 0.450152
588 4 0.423443 0.434663 0.440151
669 4 0.327298 0.44098 0.422637
586 2 0.424954 0.434825 0.465108
587 4 0.426466 0.434987 0.490066
1184 4 0.029614 0.0164787 0.570145
3077 4 0.0175739 0.00414092 0.559357
3076 2 0.00473432 0.0118008 0.539315
3078 4 0.991895 0.0194606 0.519274
1152 4 0.136913 0.0652575 0.529746
1150 2 0.141479 0.0743298 0.552594
1151 4 0.146045 0.0834021 0.575442
342 4 0.1552 0.055151 0.525088
1059 4 0.140178 0.0893191 0.5926
340 2 0.167422 0.0364703 0.513826
2428 2 0.223255 0.0190989 0.505176
2430 4 0.198859 0.0176559 0.510464
430 2 0.328889 0.0161325 0.529121
432 4 0.314205 0.0196337 0.509189
725 4 0.311374 0.036678 0.499945
841 2 0.380761 0.0309297 0.55074
842 4 0.400628 0.0448957 0.544786
843 4 0.360895 0.0169636 0.556694
431 4 0.343573 0.0126314 0.549054
2195 4 0.356366 0.998381 0.55198
1217 4 0.420178 0.0398078 0.545418
1216 2 0.432441 0.0185206 0.540765
877 2 0.0351464 0.161397 0.520737
878 4 0.0109306 0.155841 0.523548
938 4 0.0787998 0.16913 0.517387
1155 4 0.138078 0.100263 0.576255
1153 2 0.150511 0.12037 0.584398
3159 4 0.458066 0.127741 0.538182
3157 2 0.447995 0.139441 0.518513
1062 4 0.475233 0.119402 0.534213
1060 2 0.485905 0.0974228 0.528901
1061 4 0.496577 0.0754438 0.52359
879 4 0.0593622 0.166953 0.517925
1272 4 0.0696584 0.173204 0.533929
1270 2 0.0724234 0.181311 0.55742
1271 4 0.0751885 0.189418 0.580911
1258 2 0.132938 0.224119 0.551168
1259 4 0.128227 0.218946 0.575172
1260 4 0.13765 0.229291 0.527163
696 4 0.146571 0.229988 0.508442
694 2 0.163971 0.215056 0.498467
898 2 0.285807 0.233509 0.534519
899 4 0.300311 0.231076 0.55474
857 4 0.302977 0.213876 0.563638
791 4 0.316868 0.227488 0.56548
900 4 0.271302 0.235943 0.514299
856 2 0.295289 0.193726 0.57629
790 2 0.338053 0.239285 0.55938
651 4 0.293335 0.314984 0.559631
649 2 0.27824 0.329153 0.545611
792 4 0.359237 0.251083 0.553279
872 4 0.372268 0.264263 0.547778
1238 4 0.373834 0.256985 0.565646
871 2 0.38702 0.268077 0.527953
873 4 0.401772 0.271891 0.508129
1135 2 0.108463 0.355947 0.58007
1136 4 0.100977 0.332592 0.584936
1137 4 0.115948 0.379302 0.575203
897 4 0.132028 0.391156 0.573645
895 2 0.154508 0.396442 0.583231
711 4 0.129803 0.402405 0.501474
773 4 0.223394 0.414403 0.531976
1189 2 0.207353 0.407232 0.571205
1190 4 0.219191 0.406745 0.549186
803 4 0.227416 0.396336 0.535278
802 2 0.237239 0.374113 0.529373
804 4 0.247061 0.351891 0.523468
930 4 0.237553 0.409714 0.54391
650 4 0.263146 0.343322 0.53159
812 4 0.259965 0.343105 0.512083
925 2 0.43279 0.398136 0.514198
927 4 0.434118 0.376671 0.526952
539 4 0.0806457 0.495963 0.533345
383 4 0.0795563 0.43935 0.52197
681 4 0.0625953 0.44726 0.514567
384 4 0.123995 0.417618 0.514649
382 2 0.101776 0.428484 0.51831
569 4 0.135666 0.427413 0.529217
568 2 0.153082 0.442891 0.53829
570 4 0.170498 0.458368 0.547363
772 2 0.20649 0.418599 0.514037
928 2 0.256834 0.425272 0.540533
929 4 0.276114 0.44083 0.537156
1951 2 0.294605 0.477241 0.531267
1953 4 0.292627 0.452343 0.530112
1952 4 0.296583 0.502139 0.532422
663 4 0.42119 0.434345 0.508489
661 2 0.416258 0.451995 0.525499
1001 4 0.412161 0.484557 0.555195
662 4 0.411325 0.469644 0.542509
1330 2 0.447407 0.494958 0.539758
926 4 0.431462 0.419602 0.501445
1911 4 0.422669 0.468761 0.558505
1332 4 0.426659 0.481552 0.54363
1909 2 0.431009 0.45925 0.580072
2374 2 0.137183 0.0104602 0.606907
2375 4 0.129902 0.0343604 0.60788
1057 2 0.1363 0.069324 0.607103
1058 4 0.132422 0.0493289 0.621606
950 4 0.232041 0.00977896 0.600419
2398 2 0.323919 0.000886608 0.667942
2400 4 0.30629 0.0109577 0.653349
949 2 0.24909 0.0247916 0.610865
951 4 0.266139 0.0398042 0.621311
1031 4 0.271395 0.0570878 0.62977
1030 2 0.291556 0.0616943 0.643824
1032 4 0.311716 0.0663008 0.657878
43 3 0.453838 0.0536237 0.638601
810 4 0.481679 0.0870435 0.654667
1154 4 0.162945 0.140477 0.59254
1221 4 0.178834 0.148888 0.583206
1219 2 0.192171 0.166748 0.594534
808 2 0.487172 0.0984576 0.63311
809 4 0.492666 0.109872 0.611553
3250 2 0.496154 0.141335 0.600168
3251 4 0.500567 0.165055 0.60673
3252 4 0.491741 0.117615 0.593606
3008 4 0.50154 0.100529 0.59701
1244 4 0.0694268 0.199272 0.596511
1209 4 0.10416 0.166011 0.640225
1207 2 0.107385 0.160645 0.664432
1245 4 0.0883426 0.178313 0.637787
1243 2 0.0788847 0.188792 0.617149
1220 4 0.205508 0.184609 0.605861
1210 2 0.237575 0.179302 0.62742
1212 4 0.224192 0.189643 0.609004
797 4 0.191885 0.249303 0.605827
796 2 0.20085 0.226064 0.60801
798 4 0.209814 0.202825 0.610193
1211 4 0.250957 0.168961 0.645836
888 4 0.266222 0.171742 0.660073
858 4 0.287602 0.173576 0.588942
3121 2 0.488002 0.204554 0.612871
3122 4 0.49949 0.182467 0.61519
3123 4 0.476515 0.226641 0.610552
905 4 0.472683 0.243956 0.603554
806 4 0.308885 0.323281 0.570737
805 2 0.330994 0.317662 0.580973
1237 2 0.371417 0.277743 0.579374
807 4 0.353103 0.312043 0.59121
1239 4 0.369 0.2985 0.593102
906 4 0.460161 0.291952 0.597211
904 2 0.466422 0.267954 0.600383
953 4 0.456632 0.30875 0.586581
952 2 0.477645 0.321966 0.589573
3263 4 0.0624159 0.342688 0.665748
982 2 0.0259778 0.338051 0.64982
984 4 0.0448338 0.349731 0.661361
1041 4 0.0605495 0.358359 0.653637
1039 2 0.063056 0.374984 0.63513
993 4 0.0712326 0.401918 0.598021
1040 4 0.0655625 0.391608 0.616622
896 4 0.176988 0.401727 0.592817
1028 4 0.17916 0.382935 0.65183
1027 2 0.181969 0.395767 0.630555
1029 4 0.184778 0.408598 0.60928
1191 4 0.195516 0.407719 0.593223
1068 4 0.165951 0.397017 0.658075
954 4 0.498658 0.335182 0.592565
1206 4 0.484864 0.407593 0.632868
3309 4 0.495336 0.392268 0.626715
3307 2 0.498137 0.373357 0.6106
3308 4 0.500937 0.354446 0.594484
991 2 0.0632018 0.423873 0.606889
992 4 0.0551709 0.445828 0.615758
1172 4 0.18139 0.421059 0.594079
1160 4 0.174044 0.475457 0.603883
1171 2 0.183171 0.443293 0.605377
1173 4 0.184952 0.465527 0.616675
1187 4 0.168771 0.473995 0.623099
1186 2 0.171656 0.47855 0.647514
1268 4 0.449825 0.489502 0.652887
1267 2 0.444763 0.470925 0.636936
1204 2 0.468382 0.4234 0.622687
1910 4 0.439349 0.449739 0.60164
1269 4 0.439701 0.452347 0.620985
1205 4 0.451899 0.439206 0.612505
2168 4 0.464966 0.494528 0.640544
1284 4 0.0979137 0.0473759 0.713137
1282 2 0.114992 0.0654548 0.715719
2047 2 0.156929 0.99877 0.744923
1283 4 0.13207 0.0835336 0.718301
2048 4 0.135074 0.986624 0.744746
2049 4 0.178784 0.0109147 0.7451
1201 2 0.197311 0.0362839 0.731636
1202 4 0.197767 0.0142551 0.743455
1203 4 0.196854 0.0583126 0.719816
1226 4 0.193361 0.0650424 0.701437
1148 4 0.201237 0.0763558 0.715879
45 3 0.475805 0.0311555 0.659345
41 1 0.465266 0.0513326 0.658665
1163 4 0.497383 0.0790422 0.662213
44 3 0.48077 0.0684439 0.660949
42 3 0.450192 0.0525944 0.675995
1077 4 0.0191237 0.13955 0.731386
1075 2 0.0061998 0.119262 0.724565
864 4 0.0316332 0.133086 0.746945
850 2 0.0755888 0.16553 0.710149
909 4 0.110138 0.143535 0.703919
907 2 0.122349 0.121805 0.705893
908 4 0.13456 0.100075 0.707867
1227 4 0.148309 0.0858443 0.707626
851 4 0.09863 0.15937 0.702643
1208 4 0.11061 0.155278 0.688639
1107 4 0.117815 0.161784 0.705334
1225 2 0.170835 0.0754434 0.704531
1147 2 0.220394 0.0900772 0.724241
1149 4 0.239551 0.103799 0.732603
829 2 0.317264 0.15286 0.708638
830 4 0.298133 0.168898 0.710039
887 4 0.280724 0.175484 0.707784
831 4 0.336395 0.136821 0.707237
1142 4 0.353801 0.146431 0.708901
1141 2 0.377417 0.154535 0.710237
1143 4 0.401033 0.162639 0.711572
3426 4 0.482168 0.0834414 0.673584
1025 4 0.452152 0.118648 0.721284
3424 2 0.47482 0.095734 0.69408
3425 4 0.467472 0.108027 0.714576
3269 4 0.46898 0.119823 0.730377
1024 2 0.435767 0.13721 0.717799
3268 2 0.480158 0.134648 0.747124
1026 4 0.419381 0.155772 0.714314
845 4 0.459042 0.103 0.731477
844 2 0.45804 0.0833534 0.74691
852 4 0.0525476 0.171689 0.717655
1214 4 0.0330519 0.170262 0.714662
1213 2 0.0107816 0.178404 0.722594
1105 2 0.140553 0.171973 0.707424
1106 4 0.16329 0.182161 0.709514
1130 4 0.167431 0.186654 0.72784
886 2 0.273473 0.173613 0.683929
978 4 0.285609 0.171513 0.725898
976 2 0.291979 0.188966 0.742632
916 2 0.321081 0.238717 0.741607
1192 2 0.411953 0.192926 0.690473
1194 4 0.416632 0.173404 0.705378
1262 4 0.41324 0.171479 0.724204
1193 4 0.407273 0.212448 0.675568
1261 2 0.421394 0.183121 0.744774
1044 4 0.458583 0.24861 0.746933
3262 2 0.0710237 0.328942 0.684778
3264 4 0.0796316 0.315195 0.703807
893 4 0.0899559 0.313518 0.720808
892 2 0.0801222 0.325132 0.740646
779 4 0.0991624 0.315689 0.704101
778 2 0.122574 0.308566 0.709234
780 4 0.145986 0.301444 0.714367
1065 4 0.256836 0.290468 0.681811
1064 4 0.28838 0.303266 0.718444
1063 2 0.272608 0.296867 0.700127
947 4 0.335336 0.276239 0.737736
946 2 0.321021 0.294443 0.72831
948 4 0.306706 0.312647 0.718884
917 4 0.331755 0.257427 0.728911
1008 4 0.466063 0.308551 0.715101
1006 2 0.462476 0.288357 0.729403
1007 4 0.458889 0.268164 0.743705
941 4 0.141139 0.403785 0.714311
1067 4 0.157154 0.394797 0.707252
940 2 0.132368 0.397622 0.7369
1066 2 0.161552 0.395907 0.682663
1019 4 0.385176 0.422811 0.751133
1230 4 0.375863 0.424359 0.734181
1176 4 0.109677 0.486413 0.688635
1174 2 0.1343 0.488856 0.685035
1175 4 0.158922 0.4913 0.681435
1188 4 0.174542 0.483104 0.67193
1139 4 0.294606 0.474462 0.689132
1138 2 0.306693 0.461573 0.706822
1140 4 0.31878 0.448683 0.724511
1989 4 0.317847 0.438845 0.740489
1229 4 0.327409 0.431886 0.724371
1100 4 0.394634 0.430453 0.735623
1228 2 0.351636 0.428122 0.729276
1099 2 0.413869 0.44531 0.72975
1101 4 0.433103 0.460166 0.723877
3330 4 0.451573 0.464818 0.722236
3328 2 0.466039 0.45407 0.704904
1251 4 0.441619 0.475198 0.734438
3329 4 0.480506 0.443322 0.687572
834 4 0.0395174 0.0631926 0.814308
2256 4 0.191175 0.00198616 0.756854
1113 4 0.366575 0.0813058 0.779332
2321 4 0.442644 0.0104441 0.800452
2322 4 0.455419 0.0439948 0.76564
2320 2 0.449031 0.0272195 0.783046
846 4 0.457038 0.0637067 0.762344
980 4 0.443724 0.00866872 0.819787
785 4 0.0272419 0.0642905 0.829953
832 2 0.0451805 0.0857337 0.805088
862 2 0.044092 0.129275 0.768286
863 4 0.0565508 0.125464 0.789626
833 4 0.0508435 0.108275 0.795868
1125 4 0.0598241 0.120871 0.808152
1123 2 0.0672443 0.139389 0.823225
1124 4 0.0746646 0.157907 0.838298
911 4 0.170338 0.118262 0.837365
1257 4 0.232669 0.111283 0.750785
1255 2 0.223649 0.119791 0.772498
921 4 0.205087 0.142441 0.802254
919 2 0.194552 0.161598 0.814387
840 4 0.225417 0.139983 0.804766
1256 4 0.214629 0.128299 0.79421
838 2 0.247012 0.147556 0.814841
839 4 0.268606 0.155129 0.824916
1111 2 0.384546 0.086734 0.795848
1112 4 0.402517 0.0921621 0.812363
3270 4 0.491335 0.149473 0.763871
1146 4 0.483918 0.163529 0.776165
34 3 0.11049 0.167616 0.810142
1277 4 0.163342 0.220379 0.781883
1276 2 0.170405 0.209797 0.803408
1129 2 0.169567 0.203758 0.745954
1131 4 0.171702 0.220862 0.764067
822 4 0.160972 0.235795 0.769348
920 4 0.184016 0.180755 0.826519
1278 4 0.177467 0.199215 0.824932
977 4 0.298349 0.206418 0.759366
918 4 0.310406 0.220008 0.754303
1298 4 0.316669 0.204915 0.76548
1297 2 0.336236 0.201956 0.780762
1299 4 0.355803 0.198997 0.796044
1086 4 0.359815 0.189341 0.81429
50 3 0.395693 0.19493 0.795507
1084 2 0.36484 0.172021 0.831608
46 1 0.417701 0.200674 0.794361
49 3 0.420001 0.221103 0.783602
1043 4 0.435601 0.211694 0.771626
48 3 0.426681 0.201915 0.815721
47 3 0.4291 0.184655 0.78242
1263 4 0.429549 0.194763 0.765345
1145 4 0.444782 0.194659 0.776252
1144 2 0.46435 0.179094 0.776208
1042 2 0.447092 0.230152 0.75928
1022 4 0.445244 0.197068 0.816865
3187 2 0.00653329 0.286139 0.762212
3189 4 0.0236263 0.301718 0.771714
820 2 0.162544 0.260117 0.774931
821 4 0.164117 0.284438 0.780515
1236 4 0.224481 0.310762 0.775195
1234 2 0.231586 0.314463 0.798881
1098 4 0.234488 0.330998 0.837687
1235 4 0.23869 0.318165 0.822566
1166 4 0.472221 0.25948 0.75495
1165 2 0.492008 0.262577 0.769919
3275 4 0.0134745 0.363406 0.778559
894 4 0.0702884 0.336746 0.760485
3276 4 0.0610281 0.352095 0.768002
3274 2 0.0372513 0.35775 0.773281
816 4 0.0805732 0.350849 0.76959