ITEM: TIMESTEP
570000
ITEM: NUMBER OF ATOMS
4590
ITEM: BOX BOUNDS pp pp pp
-9.9985700000000008e+00 9.9985700000000008e+00
-9.9985700000000008e+00 9.9985700000000008e+00
-9.9985700000000008e+00 9.9985700000000008e+00
ITEM: ATOMS id type xs ys zs
463 2 0.0380206 0.0659241 0.0350828
464 4 0.0164981 0.0576398 0.0254221
465 4 0.0595431 0.0742085 0.0447436
1667 4 0.0892761 0.0155549 0.0683037
700 2 0.0942673 0.0866355 0.0378775
702 4 0.119146 0.0855695 0.0401339
492 4 0.264009 0.993774 0.0675211
490 2 0.269552 0.0117036 0.050999
491 4 0.275095 0.0296333 0.0344769
558 4 0.323093 0.0790803 0.0596434
296 4 0.364067 0.0418101 0.079106
557 4 0.367358 0.0566866 0.065956
1608 4 0.405792 0.00787461 0.0144724
556 2 0.345225 0.0678834 0.0627997
745 2 0.466935 0.0577051 0.0164726
2469 4 0.492029 0.0372215 0.0339314
746 4 0.478326 0.0668863 0.036749
701 4 0.0693886 0.0877015 0.0356211
589 2 0.0339688 0.127696 0.069937
591 4 0.0183461 0.109019 0.0642542
590 4 0.0495915 0.146373 0.0756198
3234 4 0.00520508 0.140956 0.994097
3232 2 0.995621 0.160906 0.00572882
566 4 0.136647 0.0958582 0.0431476
565 2 0.146398 0.118713 0.0459332
567 4 0.156149 0.141567 0.0487187
423 4 0.0962136 0.163967 0.0151364
360 4 0.259485 0.135795 0.0139577
358 2 0.280231 0.124846 0.00530295
770 4 0.467487 0.131343 0.073345
769 2 0.465614 0.15577 0.0783423
553 2 0.0481431 0.214026 0.00668404
836 4 0.0798187 0.233001 0.0239322
555 4 0.066084 0.231161 0.00979296
835 2 0.10343 0.229925 0.0163025
837 4 0.127042 0.226848 0.00867288
461 4 0.326609 0.217426 0.0561794
573 4 0.333725 0.227809 0.0415154
666 4 0.317499 0.218285 0.0389184
664 2 0.311879 0.198477 0.0247319
665 4 0.30626 0.17867 0.0105453
1071 4 0.394705 0.240648 0.0273558
460 2 0.337765 0.210268 0.077381
771 4 0.463741 0.180198 0.0833397
1014 4 0.474313 0.224909 0.0088777
1012 2 0.475163 0.200681 0.00275896
2808 4 0.99354 0.299214 0.00751815
292 2 0.135213 0.308125 0.033988
293 4 0.15874 0.308531 0.0424433
294 4 0.111686 0.30772 0.0255328
507 4 0.163787 0.298773 0.058354
505 2 0.181911 0.305701 0.0741238
355 2 0.246124 0.260315 0.0179194
357 4 0.231489 0.280216 0.0217847
609 4 0.278976 0.321924 0.0717708
482 4 0.268372 0.310699 0.0838234
356 4 0.26076 0.240414 0.014054
571 2 0.327788 0.252091 0.0409711
322 2 0.421565 0.257805 0.0754931
572 4 0.321851 0.276374 0.0404267
1069 2 0.406096 0.262184 0.021733
1070 4 0.417487 0.283721 0.0161103
670 2 0.45764 0.32421 0.0729462
323 4 0.444234 0.263327 0.0665024
672 4 0.437297 0.312206 0.0811471
286 2 0.156392 0.37713 0.0113488
287 4 0.159502 0.363082 0.0317976
251 4 0.27444 0.396988 0.0178471
252 4 0.285598 0.380788 0.063823
250 2 0.280019 0.388888 0.0408351
608 4 0.289459 0.370087 0.0802026
607 2 0.284217 0.346006 0.0759867
281 4 0.477063 0.352344 0.0535716
671 4 0.477983 0.336214 0.0647453
280 2 0.474945 0.368492 0.034599
282 4 0.472828 0.384639 0.0156265
330 4 0.00945507 0.434488 0.0662989
551 4 0.0622384 0.440255 0.0318904
550 2 0.080528 0.434545 0.0479545
552 4 0.0988176 0.428834 0.0640187
627 4 0.216946 0.469867 0.0790596
625 2 0.200954 0.451235 0.0743405
245 4 0.236796 0.470402 0.0792475
626 4 0.184962 0.432603 0.0696214
244 2 0.247738 0.485617 0.0626953
246 4 0.258679 0.500832 0.0461432
272 4 0.265507 0.502821 0.0275234
271 2 0.286304 0.490845 0.020506
524 4 0.320008 0.473407 0.0908315
273 4 0.307101 0.47887 0.0134886
227 4 0.46603 0.455735 0.0752941
226 2 0.469186 0.44139 0.0550592
228 4 0.472343 0.427046 0.0348244
562 2 0.442798 0.472033 0.997545
20 3 0.0481083 0.0642363 0.145444
19 3 0.0155739 0.0785426 0.157874
16 1 0.0369078 0.0716379 0.16384
1806 4 0.0893012 0.00787974 0.143542
1506 4 0.200513 0.00434143 0.150428
1504 2 0.209086 0.0235484 0.163948
652 2 0.303715 0.00697493 0.1496
653 4 0.285907 0.0243936 0.151761
295 2 0.365433 0.0207047 0.0924428
297 4 0.3668 0.999599 0.10578
758 4 0.386522 0.0605398 0.15406
2724 4 0.491184 0.00920293 0.146525
2722 2 0.503955 0.0306911 0.147103
380 4 0.00649086 0.0957588 0.156575
237 4 0.143053 0.138895 0.135547
235 2 0.158371 0.127208 0.151483
449 4 0.178047 0.0982427 0.160967
693 4 0.191205 0.111141 0.16103
337 2 0.0639856 0.230779 0.149717
339 4 0.0391352 0.2323 0.152024
338 4 0.088836 0.229258 0.147409
476 4 0.143714 0.201778 0.12822
475 2 0.121799 0.213804 0.128764
477 4 0.0998837 0.22583 0.129307
737 4 0.15794 0.214906 0.123964
363 4 0.102153 0.219715 0.160005
738 4 0.198571 0.243063 0.116413
736 2 0.178256 0.228984 0.120189
285 4 0.254181 0.208521 0.167485
354 4 0.280431 0.245039 0.107727
324 4 0.398897 0.252283 0.0844838
254 4 0.395638 0.184637 0.1207
255 4 0.347904 0.199107 0.117119
462 4 0.34892 0.203111 0.0985826
253 2 0.371771 0.191872 0.11891
630 4 0.413933 0.181188 0.112284
629 4 0.454686 0.198906 0.135218
628 2 0.43431 0.190047 0.123751
506 4 0.200035 0.31263 0.0898936
483 4 0.219284 0.3074 0.0927765
481 2 0.243828 0.30905 0.0882999
352 2 0.282688 0.264483 0.123284
353 4 0.284946 0.283927 0.138841
754 2 0.295021 0.315931 0.153045
755 4 0.288782 0.291895 0.155959
278 4 0.27593 0.278247 0.154936
741 4 0.357729 0.302656 0.0938099
739 2 0.36306 0.325866 0.101429
624 4 0.420435 0.297459 0.158917
519 4 0.485718 0.272395 0.0741315
517 2 0.499648 0.255505 0.0862075
620 4 0.00920813 0.348437 0.113907
647 4 0.0251675 0.354054 0.125561
646 2 0.0358458 0.354327 0.148168
648 4 0.0465241 0.354599 0.170775
456 4 0.12024 0.355086 0.0807692
455 4 0.109171 0.397705 0.104471
454 2 0.114706 0.376395 0.0926202
537 4 0.173998 0.362943 0.132982
535 2 0.19779 0.365606 0.140195
536 4 0.221582 0.368269 0.147408
756 4 0.301261 0.339968 0.150131
612 4 0.285624 0.353244 0.149202
610 2 0.267026 0.360016 0.16448
387 4 0.330484 0.379681 0.153765
740 4 0.368391 0.349077 0.109048
15 3 0.373933 0.364693 0.119582
385 2 0.342864 0.370887 0.133901
386 4 0.355244 0.362093 0.114036
11 1 0.396499 0.36765 0.120403
13 3 0.406406 0.349911 0.131608
14 3 0.401483 0.387593 0.131166
12 3 0.404815 0.368485 0.0989723
495 4 0.396818 0.400617 0.14713
645 4 0.478237 0.386061 0.151114
597 4 0.488228 0.400921 0.144549
643 2 0.467776 0.371185 0.168272
315 4 0.00602114 0.448814 0.114164
1467 4 0.0198942 0.485224 0.11362
1465 2 0.0287306 0.493287 0.135576
638 4 0.270729 0.49869 0.145293
767 4 0.271325 0.50191 0.165564
523 2 0.339965 0.458344 0.0908884
525 4 0.359922 0.443281 0.0909453
658 2 0.383886 0.484366 0.143917
493 2 0.395111 0.423272 0.136689
660 4 0.385446 0.463721 0.129899
494 4 0.393405 0.445926 0.126247
595 2 0.486272 0.425749 0.146764
596 4 0.484316 0.450578 0.14898
18 3 0.0356212 0.0547176 0.179666
1404 4 0.0713395 0.0180927 0.239946
2480 4 0.000512784 0.00341048 0.170552
450 4 0.167048 0.0503738 0.170363
673 2 0.12422 0.0644311 0.228969
674 4 0.148509 0.0600144 0.225005
675 4 0.0999311 0.0688478 0.232933
1505 4 0.21766 0.0427553 0.177467
448 2 0.172547 0.0743082 0.165665
688 2 0.206081 0.998848 0.242274
28 3 0.321959 0.0777057 0.242756
21 1 0.369855 0.0277766 0.227582
24 3 0.357201 0.0161494 0.211991
25 3 0.380212 0.0454223 0.217582
759 4 0.389774 0.0562953 0.20378
757 2 0.388148 0.0584176 0.17892
22 3 0.355924 0.0355636 0.244149
23 3 0.385645 0.013671 0.237075
742 2 0.484114 0.0227768 0.24991
744 4 0.471823 0.0436448 0.243694
351 4 0.454478 0.0532215 0.240652
379 2 0.00575111 0.119241 0.165133
17 3 0.0482274 0.0894798 0.172933
381 4 0.00501137 0.142722 0.173691
511 2 0.0237574 0.162182 0.200651
512 4 0.017031 0.158152 0.176909
578 4 0.0786289 0.14021 0.185073
579 4 0.122318 0.120218 0.171204
577 2 0.100473 0.130214 0.178139
236 4 0.173688 0.115521 0.167419
691 2 0.213658 0.109802 0.171949
692 4 0.236112 0.108462 0.182868
723 4 0.197622 0.124367 0.224176
721 2 0.196386 0.143259 0.240509
582 4 0.254056 0.110294 0.194278
580 2 0.275363 0.114504 0.206666
581 4 0.29667 0.118714 0.219054
30 3 0.307762 0.101818 0.217563
26 1 0.315962 0.0997524 0.238708
27 3 0.334594 0.113057 0.240943
312 4 0.422253 0.151041 0.178912
310 2 0.432624 0.134353 0.194377
311 4 0.442994 0.117666 0.209842
513 4 0.0304837 0.166212 0.224393
362 4 0.115733 0.23657 0.205085
361 2 0.108943 0.228143 0.182545
372 4 0.134028 0.234596 0.213233
370 2 0.155801 0.246421 0.216594
722 4 0.195149 0.16215 0.256841
283 2 0.271923 0.191381 0.171565
284 4 0.289665 0.174242 0.175645
307 2 0.301412 0.250036 0.203509
308 4 0.318141 0.247238 0.22188
309 4 0.284683 0.252833 0.185138
763 2 0.384005 0.237229 0.192528
765 4 0.383251 0.213148 0.185839
395 4 0.0473633 0.290958 0.229172
394 2 0.0338185 0.277054 0.244933
750 4 0.0583672 0.308273 0.228977
748 2 0.0811222 0.298182 0.22662
749 4 0.103877 0.288091 0.224262
300 4 0.151771 0.328677 0.236051
371 4 0.177573 0.258247 0.219956
279 4 0.232398 0.275399 0.179381
277 2 0.254164 0.276823 0.167158
764 4 0.384759 0.261309 0.199217
623 4 0.385777 0.278068 0.189306
622 2 0.403106 0.287764 0.174111
528 4 0.445905 0.259265 0.220074
527 4 0.485222 0.269574 0.190943
526 2 0.465564 0.26442 0.205508
298 2 0.139987 0.350485 0.239329
602 4 0.0751664 0.411047 0.25122
299 4 0.128204 0.372293 0.242607
601 2 0.0968441 0.398671 0.252668
290 4 0.23361 0.403065 0.223096
289 2 0.221864 0.422957 0.21353
611 4 0.248427 0.366787 0.179758
302 4 0.320827 0.386059 0.170949
301 2 0.330987 0.397952 0.190456
303 4 0.341147 0.409844 0.209963
644 4 0.457314 0.356309 0.185431
447 4 0.462454 0.366478 0.202803
445 2 0.4752 0.371364 0.223751
446 4 0.487946 0.37625 0.2447
262 2 0.0539806 0.430727 0.224316
264 4 0.0337647 0.433436 0.209854
263 4 0.0741966 0.428018 0.238779
1430 4 0.173408 0.491261 0.181163
417 4 0.162218 0.476531 0.186683
415 2 0.176565 0.458646 0.196656
291 4 0.210118 0.442848 0.203963
416 4 0.190913 0.440762 0.20663
768 4 0.259738 0.461398 0.192494
766 2 0.265532 0.481654 0.179029
437 4 0.282291 0.442853 0.245635
231 4 0.404395 0.499882 0.191952
1799 4 0.0264103 0.00173214 0.280147
232 2 0.00120918 0.0375882 0.284299
233 4 0.0168934 0.0184269 0.280831
1402 2 0.0525959 0.0182806 0.256493
1403 4 0.0338524 0.0184685 0.273041
318 4 0.0431996 0.0682651 0.325252
689 4 0.213416 0.0174006 0.257346
1699 2 0.228092 0.0423344 0.312143
1701 4 0.228492 0.0200576 0.300795
1700 4 0.227692 0.0646111 0.32349
248 4 0.229295 0.0847135 0.321122
697 2 0.391517 0.0538998 0.315374
699 4 0.376735 0.0385041 0.30235
1518 4 0.36218 0.0228477 0.303851
698 4 0.406299 0.0692954 0.328399
478 2 0.479076 0.0362276 0.303562
349 2 0.444392 0.0708245 0.255267
479 4 0.488813 0.0438149 0.281818
480 4 0.469339 0.0286402 0.325306
398 4 0.0757439 0.144802 0.305765
397 2 0.0893741 0.124484 0.310921
399 4 0.103004 0.104166 0.316077
249 4 0.207721 0.126656 0.304505
247 2 0.218508 0.105685 0.312814
404 4 0.206108 0.145673 0.296296
546 4 0.179182 0.167245 0.26658
403 2 0.214842 0.166933 0.286452
29 3 0.299988 0.106569 0.254096
350 4 0.434306 0.0884274 0.269882
331 2 0.441167 0.161745 0.288974
333 4 0.418218 0.158408 0.279626
332 4 0.464117 0.165083 0.298321
389 4 0.0794439 0.214795 0.346435
393 4 0.0925794 0.208487 0.261886
392 4 0.130289 0.186716 0.286478
391 2 0.111434 0.197601 0.274182
545 4 0.132307 0.165937 0.283949
544 2 0.155745 0.166591 0.275265
405 4 0.223576 0.188193 0.276608
377 4 0.322041 0.227772 0.339549
376 2 0.304597 0.240057 0.326511
717 4 0.384538 0.236998 0.33041
762 4 0.475977 0.182956 0.296165
520 2 0.491601 0.230984 0.248
760 2 0.493252 0.198612 0.305202
396 4 0.0202737 0.263151 0.260694
442 2 0.998379 0.263318 0.286028
443 4 0.00639983 0.275094 0.265482
364 2 0.0191249 0.32572 0.289905
365 4 0.0262984 0.310803 0.271165
401 4 0.191575 0.265265 0.29129
345 4 0.236758 0.317645 0.29927
400 2 0.207568 0.284022 0.295485
402 4 0.223561 0.302778 0.299679
510 4 0.22805 0.313351 0.315363
508 2 0.218784 0.336171 0.319667
378 4 0.287154 0.252342 0.313474
344 4 0.280584 0.29758 0.285951
343 2 0.258671 0.307612 0.29261
498 4 0.370368 0.309375 0.288821
496 2 0.351153 0.293649 0.291765
497 4 0.331939 0.277923 0.294708
543 4 0.408836 0.323877 0.331378
521 4 0.473297 0.247923 0.246201
542 4 0.422615 0.301473 0.288847
541 2 0.415725 0.312675 0.310113
366 4 0.0119515 0.340637 0.308645
603 4 0.118522 0.386295 0.254116
734 4 0.135961 0.380061 0.258025
733 2 0.151766 0.391718 0.273501
735 4 0.16757 0.403374 0.288977
677 4 0.188883 0.402688 0.290444
676 2 0.201835 0.390492 0.308014
678 4 0.214786 0.378296 0.325584
509 4 0.209518 0.358992 0.323971
435 4 0.274362 0.379092 0.307472
433 2 0.285678 0.384584 0.329082
729 4 0.338464 0.372636 0.260186
727 2 0.337893 0.390791 0.277369
615 4 0.396454 0.338735 0.328678
613 2 0.381715 0.356109 0.318379
728 4 0.337321 0.408946 0.294552
614 4 0.366976 0.373484 0.30808
2538 4 0.45857 0.385686 0.287321
2536 2 0.483477 0.387819 0.286807
753 4 0.466672 0.406167 0.331779
549 4 0.0539065 0.42081 0.311191
547 2 0.0561064 0.429286 0.334611
777 4 0.0829141 0.464757 0.28775
775 2 0.105861 0.464011 0.297653
776 4 0.128808 0.463264 0.307555
414 4 0.144425 0.466217 0.295695
412 2 0.157423 0.485387 0.305116
413 4 0.170421 0.504556 0.314537
436 2 0.279925 0.42924 0.266474
438 4 0.277559 0.415627 0.287313
2860 2 0.491893 0.461847 0.26994
2861 4 0.480779 0.484142 0.272085
316 2 0.0429971 0.0741156 0.349561
317 4 0.0427945 0.0799661 0.373869
1772 4 0.0264122 0.0216465 0.403965
604 2 0.201131 0.0855875 0.386585
605 4 0.184597 0.0684133 0.379045
439 2 0.316858 0.00578784 0.392901
441 4 0.317116 0.0177831 0.370965
683 4 0.264268 0.0739045 0.371422
257 4 0.415661 0.0768621 0.343351
425 4 0.399817 0.0169306 0.41385
424 2 0.416393 0.0349191 0.40867
256 2 0.421418 0.0725825 0.367303
426 4 0.432969 0.0529076 0.403491
258 4 0.427175 0.0683029 0.391256
459 4 0.0121338 0.16569 0.390386
457 2 0.0257448 0.156061 0.409019
732 4 0.133871 0.0805588 0.367208
731 4 0.103404 0.104176 0.335353
730 2 0.118638 0.0923674 0.35128
599 4 0.171341 0.1488 0.387787
606 4 0.217665 0.102762 0.394126
600 4 0.203475 0.14331 0.349867
598 2 0.187408 0.146055 0.368827
682 2 0.277544 0.0922326 0.382053
684 4 0.290819 0.110561 0.392684
320 4 0.296565 0.119071 0.409438
473 4 0.268571 0.171326 0.349928
632 4 0.371784 0.126222 0.342215
631 2 0.385101 0.105145 0.340313
633 4 0.398417 0.0840682 0.338412
516 4 0.406355 0.144818 0.402145
451 2 0.484649 0.162366 0.382427
515 4 0.442524 0.15662 0.369692
514 2 0.42444 0.150719 0.385919
453 4 0.460786 0.163471 0.375044
388 2 0.0762776 0.239436 0.349255
687 4 0.173441 0.16765 0.39181
685 2 0.178669 0.1906 0.400247
686 4 0.183898 0.213549 0.408683
474 4 0.265959 0.209982 0.381545
472 2 0.267265 0.190654 0.365737
488 4 0.274702 0.227712 0.375911
487 2 0.278208 0.237304 0.398733
707 4 0.334482 0.216627 0.348733
420 4 0.403601 0.233152 0.340642
418 2 0.415308 0.21271 0.332261
706 2 0.349528 0.19672 0.350321
708 4 0.364574 0.176813 0.351908
468 4 0.383193 0.229955 0.410787
419 4 0.427016 0.192268 0.32388
390 4 0.0731114 0.264078 0.352074
618 4 0.0729314 0.318855 0.402859
347 4 0.0537708 0.311328 0.398979
616 2 0.0868895 0.329676 0.385161
275 4 0.148443 0.295513 0.386157
274 2 0.157293 0.272585 0.390761
276 4 0.166142 0.249658 0.395365
373 2 0.202294 0.320756 0.39534
374 4 0.216434 0.301436 0.388129
715 2 0.371188 0.249441 0.347502
716 4 0.357837 0.261884 0.364594
406 2 0.0654259 0.413776 0.387782
408 4 0.0746595 0.393378 0.398911
617 4 0.100848 0.340498 0.367463
375 4 0.188155 0.340076 0.40255
504 4 0.203636 0.38217 0.42051
434 4 0.296994 0.390075 0.350691
336 4 0.297101 0.391678 0.408407
334 2 0.317084 0.378967 0.416428
561 4 0.464119 0.359447 0.380757
752 4 0.461164 0.37679 0.371871
559 2 0.470822 0.370378 0.402222
751 2 0.463918 0.391479 0.351825
407 4 0.0561923 0.434173 0.376653
548 4 0.0583062 0.437763 0.358031
499 2 0.137307 0.498293 0.379307
501 4 0.118945 0.484942 0.389786
668 4 0.283793 0.446375 0.424089
5 3 0.303742 0.478516 0.38218
1 1 0.307609 0.475983 0.40448
3 3 0.329445 0.468961 0.407981
592 2 0.4169 0.485209 0.352461
594 4 0.408884 0.462084 0.347344
718 2 0.0299626 0.0603158 0.456055
720 4 0.0236514 0.0461061 0.475636
2237 4 0.0372798 0.0369336 0.485687
2236 2 0.034261 0.0124532 0.481592
1127 4 0.0217957 0.0427563 0.495365
719 4 0.0362737 0.0745255 0.436473
368 4 0.0842121 0.00422316 0.44616
367 2 0.103765 0.019796 0.445578
369 4 0.123319 0.0353688 0.444996
1182 4 0.267134 0.0844005 0.474384
726 4 0.290825 0.043798 0.439124
724 2 0.306018 0.0625437 0.445678
432 4 0.310446 0.0520754 0.491788
963 4 0.293729 0.053419 0.480268
725 4 0.321211 0.0812895 0.452232
961 2 0.282258 0.0343545 0.491677
2878 2 0.489174 0.0789267 0.475403
458 4 0.0393559 0.146432 0.427652
1181 4 0.221474 0.0939241 0.492418
1180 2 0.244304 0.0891623 0.483401
321 4 0.280952 0.122013 0.456854
319 2 0.288758 0.120542 0.433146
574 2 0.393182 0.138146 0.433675
575 4 0.402871 0.126891 0.413559
576 4 0.383493 0.149401 0.45379
642 4 0.484343 0.114763 0.471003
2880 4 0.480568 0.100669 0.484258
640 2 0.462953 0.127633 0.46959
641 4 0.441563 0.140504 0.468177
469 2 0.00603914 0.183977 0.461956
470 4 0.0276571 0.194919 0.468128
260 4 0.088113 0.238939 0.450625
261 4 0.113327 0.197331 0.462189
259 2 0.10072 0.218135 0.456407
1035 4 0.10279 0.188978 0.47719
411 4 0.27155 0.174892 0.439063
409 2 0.271789 0.190659 0.458467
410 4 0.272028 0.206426 0.477872
900 4 0.285142 0.205213 0.493706
489 4 0.281715 0.246896 0.421556
466 2 0.393696 0.210047 0.421675
467 4 0.404198 0.190139 0.432563
266 4 0.345794 0.243234 0.44541
305 4 0.468654 0.203726 0.432958
304 2 0.451562 0.202032 0.451129
306 4 0.434471 0.200337 0.469299
346 2 0.0532731 0.307856 0.423735
348 4 0.0527754 0.304383 0.448491
326 4 0.068627 0.306876 0.460316
325 2 0.0822373 0.326814 0.46683
695 4 0.0867085 0.260249 0.453636
694 2 0.0915272 0.268501 0.476742
7 3 0.141298 0.328891 0.500124
6 1 0.162754 0.335709 0.495399
10 3 0.176067 0.3174 0.492915
651 4 0.229622 0.294253 0.481757
650 4 0.277327 0.305073 0.492143
649 2 0.253475 0.299663 0.48695
267 4 0.371501 0.286086 0.44351
265 2 0.358648 0.26466 0.44446
583 2 0.480052 0.292355 0.470132
585 4 0.455187 0.294178 0.472029
2812 2 0.00463283 0.388522 0.440788
2813 4 0.015382 0.36748 0.448966
935 4 0.995461 0.404529 0.492282
327 4 0.0958476 0.346751 0.473345
711 4 0.164554 0.368575 0.474651
502 2 0.228546 0.381949 0.422662
635 4 0.207295 0.411294 0.474241
8 3 0.162544 0.348067 0.475761
709 2 0.186535 0.380363 0.472902
710 4 0.208516 0.392151 0.471153
774 4 0.221378 0.400613 0.482588
503 4 0.253456 0.381728 0.424814
238 2 0.366355 0.384679 0.447429
240 4 0.34429 0.378952 0.437155
335 4 0.337066 0.366256 0.424448
239 4 0.388419 0.390406 0.457703
587 4 0.411571 0.409096 0.475381
560 4 0.477526 0.38131 0.423687
926 4 0.423928 0.399436 0.487471
2507 4 0.490606 0.395678 0.433168
539 4 0.0793888 0.495741 0.474441
679 2 0.0549076 0.461652 0.46649
1383 4 0.036745 0.478579 0.435714
681 4 0.0719433 0.44696 0.477403
680 4 0.037872 0.476344 0.455576
382 2 0.105737 0.437338 0.458566
568 2 0.160172 0.466685 0.446961
383 4 0.0822606 0.434057 0.46652
569 4 0.149403 0.444123 0.446529
384 4 0.129213 0.440618 0.450611
570 4 0.17094 0.489247 0.447394
636 4 0.21353 0.451529 0.445206
634 2 0.210413 0.431412 0.459723
667 2 0.296989 0.432064 0.439783
2 3 0.304505 0.496177 0.41505
4 3 0.292788 0.460504 0.413376
669 4 0.310184 0.417754 0.455476
882 4 0.313591 0.471707 0.480578
586 2 0.410045 0.434043 0.476104
588 4 0.408519 0.458989 0.476827
663 4 0.471625 0.453997 0.483378
1126 2 0.018166 0.0598622 0.513236
1128 4 0.0145363 0.076968 0.531108
1058 4 0.133005 0.0454956 0.580078
2430 4 0.170097 0.0189139 0.506578
340 2 0.182401 0.0607545 0.509269
341 4 0.177074 0.0371452 0.502992
1031 4 0.257196 0.0746291 0.558804
951 4 0.269642 0.059413 0.559774
962 4 0.270788 0.0152899 0.503085
430 2 0.328131 0.0613686 0.506823
949 2 0.275499 0.0352372 0.562305
950 4 0.281356 0.0110614 0.564837
1217 4 0.401228 0.0516022 0.571278
1216 2 0.394505 0.0277539 0.574631
841 2 0.375403 0.0632555 0.535927
842 4 0.387274 0.0570196 0.557031
431 4 0.345817 0.0706617 0.521858
843 4 0.363532 0.0694914 0.514823
938 4 0.0768927 0.107973 0.548102
937 2 0.0837365 0.126336 0.532573
1034 4 0.0849519 0.16453 0.517
939 4 0.0905804 0.144699 0.517045
1155 4 0.154776 0.110714 0.578016
1151 4 0.169212 0.110362 0.564531
342 4 0.187729 0.0843638 0.515546
1150 2 0.176562 0.106684 0.540916
1030 2 0.235452 0.0835401 0.567345
1152 4 0.183912 0.103006 0.517302
1032 4 0.213707 0.092451 0.575885
858 4 0.255478 0.154098 0.508986
878 4 0.046465 0.215617 0.542695
1199 4 0.029299 0.21825 0.552617
1198 2 0.00430384 0.21852 0.552028
877 2 0.0625884 0.208622 0.56048
1033 2 0.093871 0.176754 0.497095
1272 4 0.0969362 0.208009 0.581573
857 4 0.268928 0.196523 0.531789
856 2 0.262203 0.17531 0.520387
898 2 0.308363 0.204933 0.502973
791 4 0.283071 0.23465 0.559814
790 2 0.294742 0.247822 0.577576
899 4 0.331584 0.204653 0.512241
871 2 0.403409 0.230373 0.531577
873 4 0.384421 0.226288 0.547323
872 4 0.422398 0.234457 0.515831
3158 4 0.481188 0.170141 0.529472
904 2 0.482203 0.238869 0.581731
3157 2 0.496313 0.17851 0.511406
983 4 0.042993 0.319613 0.565593
1258 2 0.127083 0.287996 0.514863
1260 4 0.113654 0.268583 0.506619
1259 4 0.140512 0.307409 0.523107
696 4 0.096346 0.276753 0.499847
811 2 0.30424 0.319426 0.506562
804 4 0.263401 0.324483 0.511004
813 4 0.328221 0.315891 0.512693
812 4 0.280259 0.322961 0.500431
954 4 0.474068 0.305498 0.559409
1011 4 0.488439 0.317733 0.557094
952 2 0.460704 0.299159 0.579569
906 4 0.462715 0.251489 0.572451
1136 4 0.0932347 0.370118 0.564367
1135 2 0.107613 0.381039 0.581664
9 3 0.170492 0.348807 0.512919
1189 2 0.224483 0.374865 0.556191
773 4 0.238391 0.387564 0.527766
1190 4 0.244724 0.375355 0.541519
1191 4 0.204242 0.374375 0.570862
772 2 0.229884 0.394088 0.505177
896 4 0.187021 0.380877 0.579259
803 4 0.244207 0.369113 0.522857
802 2 0.253804 0.346798 0.51693
930 4 0.302914 0.379661 0.553392
928 2 0.299968 0.380925 0.528594
929 4 0.297022 0.382189 0.503797
927 4 0.442149 0.377217 0.528399
3309 4 0.496858 0.381151 0.562804
925 2 0.433038 0.388327 0.507935
934 2 0.995914 0.419288 0.512459
1161 4 0.16241 0.489929 0.561363
1159 2 0.175922 0.475382 0.576562
891 4 0.314868 0.441115 0.560185
880 2 0.328186 0.480654 0.498803
889 2 0.329281 0.457796 0.571981
881 4 0.34278 0.4896 0.517027
1952 4 0.354714 0.48436 0.531371
1002 4 0.394051 0.445404 0.549472
1951 2 0.359133 0.503354 0.54702
1000 2 0.414725 0.45916 0.552394
1001 4 0.435399 0.472916 0.555315
662 4 0.45822 0.487576 0.517925
661 2 0.464923 0.470787 0.500651
1911 4 0.455489 0.478376 0.553085
1909 2 0.455269 0.496923 0.569852
943 2 0.067237 0.0237643 0.642758
945 4 0.0608475 0.00794052 0.661033
944 4 0.0736265 0.039588 0.624483
1057 2 0.14205 0.0686157 0.583047
825 4 0.125183 0.0103579 0.608635
823 2 0.137199 0.999061 0.627428
1090 2 0.307188 0.00475298 0.65071
808 2 0.487173 0.0785257 0.632188
810 4 0.487269 0.0793207 0.657179
809 4 0.487078 0.0777308 0.607197
1083 4 0.0198742 0.145809 0.630856
1081 2 0.0219493 0.127125 0.647341
1082 4 0.0240244 0.108441 0.663827
3179 4 0.00143971 0.147043 0.637485
1059 4 0.151096 0.0917358 0.586016
1153 2 0.151199 0.134574 0.584578
1154 4 0.147622 0.158435 0.591139
1284 4 0.174858 0.106657 0.626289
1282 2 0.170242 0.115238 0.649316
45 3 0.437017 0.080295 0.65468
879 4 0.0787119 0.201628 0.578264
1243 2 0.0682922 0.22708 0.633642
1244 4 0.0511412 0.234188 0.616894
1245 4 0.0854432 0.219973 0.65039
1270 2 0.115903 0.222617 0.588788
1271 4 0.13487 0.237224 0.596003
1209 4 0.0951448 0.205414 0.658733
1221 4 0.15982 0.173082 0.59951
1210 2 0.231411 0.19099 0.642311
1212 4 0.213301 0.20293 0.629874
1219 2 0.179247 0.185701 0.608918
1220 4 0.198675 0.198321 0.618326
796 2 0.224502 0.230884 0.606043
798 4 0.213373 0.20901 0.610825
1211 4 0.24952 0.17905 0.654747
888 4 0.267507 0.182792 0.661189
3123 4 0.472747 0.258003 0.643371
982 2 0.0478677 0.326171 0.589223
947 4 0.168225 0.271678 0.650914
797 4 0.23563 0.252758 0.601261
946 2 0.191665 0.278208 0.656666
948 4 0.215106 0.284738 0.662417
792 4 0.306412 0.260993 0.595338
1238 4 0.294899 0.276241 0.599734
1237 2 0.31134 0.291396 0.610924
1239 4 0.32778 0.306551 0.622115
953 4 0.44734 0.292821 0.599728
984 4 0.0527425 0.332729 0.612854
1039 2 0.0796653 0.353315 0.628662
1041 4 0.0646167 0.333356 0.628068
3263 4 0.0469711 0.342542 0.629042
3262 2 0.0245869 0.347617 0.63896
3264 4 0.00220263 0.352691 0.648878
897 4 0.138698 0.390238 0.588091
895 2 0.16286 0.385558 0.583675
1137 4 0.121992 0.39196 0.59896
1040 4 0.0947138 0.373275 0.629255
991 2 0.12228 0.3975 0.651359
993 4 0.108156 0.388968 0.632574
1172 4 0.225891 0.405345 0.603932
1029 4 0.232503 0.399871 0.657685
1206 4 0.412233 0.385516 0.650752
1204 2 0.426935 0.405409 0.654401
1188 4 0.203316 0.492185 0.650387
1173 4 0.197519 0.446483 0.602095
1171 2 0.211705 0.425914 0.603013
1187 4 0.192498 0.463929 0.610571
1160 4 0.189435 0.460836 0.591761
1186 2 0.197907 0.478057 0.630479
890 4 0.343695 0.474478 0.583778
1205 4 0.441638 0.425301 0.65805
1269 4 0.452251 0.467414 0.639437
1267 2 0.448063 0.483425 0.65818
1147 2 0.209029 0.0782429 0.740595
1149 4 0.225281 0.0602724 0.734421
2255 4 0.189168 0.015486 0.741376
1091 4 0.30688 0.0240109 0.666654
1004 4 0.343247 0.071938 0.725234
44 3 0.472054 0.0768596 0.668033
1163 4 0.488503 0.082754 0.676704
42 3 0.44705 0.0491872 0.672694
41 1 0.449661 0.0720209 0.671718
43 3 0.442782 0.0812264 0.691876
1076 4 0.0343809 0.0958989 0.675015
864 4 0.0591806 0.109791 0.73386
1075 2 0.0447925 0.106543 0.695102
1077 4 0.0552042 0.117187 0.715189
909 4 0.105341 0.126252 0.693742
907 2 0.129814 0.129488 0.689767
908 4 0.154286 0.132724 0.685793
1106 4 0.134535 0.164143 0.736181
1283 4 0.165627 0.123818 0.672343
1227 4 0.171279 0.125141 0.691238
1148 4 0.192777 0.0962135 0.746769
1225 2 0.179763 0.119087 0.713965
1226 4 0.188247 0.113032 0.736693
1005 4 0.305902 0.0965013 0.702813
1003 2 0.324574 0.0842196 0.714023
1142 4 0.389636 0.162021 0.707876
831 4 0.369771 0.162165 0.711793
845 4 0.466946 0.0861666 0.754484
1025 4 0.474002 0.166349 0.669773
3424 2 0.494921 0.117285 0.703743
3426 4 0.489115 0.0985997 0.688176
852 4 0.0362961 0.186232 0.731437
850 2 0.0602762 0.185547 0.738484
1213 2 0.0102254 0.2151 0.7313
1207 2 0.0944078 0.203257 0.683633
1208 4 0.0936709 0.2011 0.708532
1130 4 0.181821 0.198946 0.70532
1129 2 0.179809 0.213725 0.725388
1131 4 0.177797 0.228504 0.745456
830 4 0.324284 0.179459 0.700278
886 2 0.287295 0.184181 0.67641
887 4 0.307083 0.185571 0.691631
976 2 0.307315 0.195562 0.733241
978 4 0.309027 0.184204 0.711032
918 4 0.310074 0.224581 0.749312
829 2 0.347028 0.170812 0.706036
1192 2 0.358992 0.242101 0.687053
1194 4 0.381659 0.237582 0.677515
1141 2 0.411368 0.172413 0.714579
1193 4 0.336326 0.24662 0.696592
1024 2 0.458546 0.174234 0.687777
1143 4 0.433099 0.182806 0.721281
1026 4 0.443089 0.182119 0.70578
1261 2 0.44435 0.213033 0.729624
1262 4 0.435062 0.199099 0.711057
1263 4 0.453639 0.226967 0.748192
820 2 0.175539 0.269254 0.732723
821 4 0.179326 0.291533 0.722025
1064 4 0.228279 0.292347 0.674323
1065 4 0.217924 0.308074 0.72065
1063 2 0.223102 0.300211 0.697487
822 4 0.171751 0.246974 0.743422
3121 2 0.484359 0.253824 0.665117
3122 4 0.495971 0.249644 0.686863
893 4 0.0338578 0.347071 0.68271
3275 4 0.00107359 0.408759 0.752292
3274 2 0.0179824 0.391054 0.747213
892 2 0.0372043 0.352772 0.706824
894 4 0.0405507 0.358472 0.730938
3276 4 0.0348912 0.373348 0.742135
816 4 0.0515037 0.374867 0.731809
814 2 0.072598 0.37338 0.745151
940 2 0.127789 0.377597 0.752789
941 4 0.146401 0.376986 0.736103
992 4 0.136404 0.406033 0.670144
1067 4 0.156934 0.376094 0.718059
1027 2 0.212298 0.406301 0.670936
1066 2 0.166294 0.389185 0.698922
1068 4 0.175653 0.402276 0.679785
1028 4 0.192093 0.41273 0.684187
806 4 0.295062 0.366382 0.670177
805 2 0.314507 0.367172 0.685876
807 4 0.333951 0.367963 0.701575
1281 4 0.0315148 0.501667 0.727053
1280 4 0.0660587 0.465766 0.72275
1279 2 0.0487867 0.483717 0.724901
1140 4 0.249797 0.44199 0.699853
1139 4 0.281848 0.428561 0.735812
1138 2 0.265822 0.435275 0.717832
1228 2 0.39684 0.456405 0.734564
1229 4 0.380023 0.472815 0.743114
1230 4 0.413656 0.439995 0.726013
1989 4 0.373354 0.489072 0.735177
1100 4 0.423532 0.431863 0.711025
1101 4 0.468237 0.429471 0.733305
1099 2 0.445884 0.430667 0.722165
1268 4 0.443875 0.499436 0.676923
1294 2 0.0563096 0.0299677 0.77627
1295 4 0.0531385 0.0536764 0.768988
1296 4 0.0594806 0.00625904 0.783552
2047 2 0.125391 0.00431934 0.769602
1203 4 0.102907 0.0777861 0.80107
1201 2 0.102562 0.0537022 0.79436
1202 4 0.102217 0.0296183 0.78765
2049 4 0.114875 0.0267362 0.773077
911 4 0.0759201 0.0634351 0.824697
1257 4 0.239899 0.0408886 0.78169
1255 2 0.248749 0.0586739 0.796873
974 4 0.325343 0.0138394 0.829982
1256 4 0.2576 0.0764592 0.812057
1111 2 0.390475 0.0500813 0.827757
1113 4 0.400323 0.031363 0.814422
2321 4 0.467623 0.010535 0.771776
2322 4 0.497101 0.0469012 0.789363
2320 2 0.482362 0.0287181 0.78057
862 2 0.0441354 0.107664 0.753717
863 4 0.0290903 0.105537 0.773573
832 2 0.0296702 0.0999126 0.815303
833 4 0.0341063 0.106453 0.791581
1105 2 0.1137 0.170201 0.748607
31 1 0.115367 0.155762 0.811762
35 3 0.127338 0.150618 0.793084
34 3 0.0990679 0.139653 0.815406
838 2 0.245991 0.11166 0.829838
840 4 0.260311 0.0970985 0.815414
959 4 0.300842 0.15215 0.81625
1084 2 0.364655 0.160919 0.804231
1085 4 0.376393 0.145673 0.820199
50 3 0.42396 0.164489 0.777466
844 2 0.491254 0.080396 0.755492
1214 4 0.0291288 0.202381 0.741599
1072 2 0.0752045 0.241959 0.752572
1074 4 0.0510787 0.245629 0.758017
1073 4 0.0993304 0.238288 0.747127
32 3 0.105141 0.176157 0.80883
851 4 0.0842564 0.184861 0.745531
1107 4 0.0928656 0.176259 0.761032
1277 4 0.181463 0.242121 0.759433
1276 2 0.187464 0.245133 0.783518
1278 4 0.193465 0.248145 0.807603
1241 4 0.209977 0.245907 0.818816
1298 4 0.323222 0.213416 0.758923
977 4 0.305602 0.206921 0.755449
916 2 0.30005 0.245956 0.757548
1086 4 0.352917 0.176165 0.788263
1299 4 0.362708 0.212644 0.789597
1297 2 0.342965 0.21303 0.77426
1043 4 0.410851 0.217568 0.782452
49 3 0.406061 0.197602 0.778378
1042 2 0.420769 0.240386 0.784938
48 3 0.419049 0.181928 0.810473
1022 4 0.424624 0.180161 0.830729
1145 4 0.467977 0.229082 0.764725
46 1 0.422955 0.18477 0.787777
47 3 0.44301 0.195687 0.784993
1144 2 0.487547 0.213605 0.763085
1146 4 0.507116 0.198129 0.761445