ITEM: TIMESTEP
260000
ITEM: NUMBER OF ATOMS
4590
ITEM: BOX BOUNDS pp pp pp
-9.9985700000000008e+00 9.9985700000000008e+00
-9.9985700000000008e+00 9.9985700000000008e+00
-9.9985700000000008e+00 9.9985700000000008e+00
ITEM: ATOMS id type xs ys zs
463 2 0.0280834 0.0465879 0.0332025
465 4 0.0226843 0.0709488 0.034807
464 4 0.0334826 0.022227 0.031598
1667 4 0.0694228 0.0145436 0.0630727
534 4 0.190466 0.0722379 0.0130289
490 2 0.279979 0.041705 0.0442195
491 4 0.270573 0.0644075 0.0488352
492 4 0.289385 0.0190024 0.0396038
296 4 0.363996 0.0515325 0.0583735
557 4 0.361667 0.0672265 0.0493926
295 2 0.363321 0.0430934 0.0819001
745 2 0.457916 0.0665014 0.036065
746 4 0.454718 0.0750809 0.0593317
747 4 0.461115 0.0579219 0.0127983
589 2 0.0283765 0.115503 0.074845
590 4 0.027657 0.138594 0.0652809
3233 4 0.00820429 0.13126 0.00820882
701 4 0.0732877 0.0870433 0.0268613
702 4 0.108367 0.0814161 0.0620541
700 2 0.0908271 0.0842297 0.0444577
422 4 0.122897 0.157552 0.00501243
421 2 0.105466 0.139747 0.0070869
565 2 0.192412 0.112313 0.0463171
566 4 0.170567 0.105083 0.0365341
567 4 0.214257 0.119543 0.0561
358 2 0.280612 0.124673 0.0198135
359 4 0.295447 0.120502 0.000122774
360 4 0.265778 0.128844 0.0395043
556 2 0.369491 0.0903524 0.0547914
558 4 0.377315 0.113478 0.0601902
553 2 0.0507175 0.228 0.0202072
554 4 0.0381461 0.232475 0.0413522
666 4 0.310771 0.215618 0.0184116
664 2 0.329679 0.202537 0.00858319
572 4 0.34407 0.249348 0.0492718
324 4 0.403234 0.244233 0.058238
322 2 0.417592 0.247203 0.0784916
771 4 0.445272 0.180704 0.0666497
770 4 0.487692 0.168293 0.0432564
769 2 0.466482 0.174498 0.054953
1013 4 0.501601 0.208312 0.00477917
292 2 0.127378 0.317045 0.0184309
294 4 0.113177 0.333438 0.00598821
293 4 0.141578 0.300653 0.0308735
506 4 0.190884 0.259644 0.0387882
483 4 0.21968 0.306841 0.0715233
505 2 0.176374 0.279984 0.0378208
507 4 0.161864 0.300324 0.0368533
481 2 0.241357 0.312492 0.0604164
357 4 0.220671 0.261893 0.0126326
571 2 0.319384 0.253248 0.0485245
573 4 0.294698 0.257148 0.0477773
482 4 0.263034 0.318142 0.0493096
1071 4 0.375467 0.26222 0.0236895
1069 2 0.399623 0.266625 0.0284042
956 4 0.372766 0.322886 0.00745108
955 2 0.350714 0.325341 0.995924
1070 4 0.42378 0.271031 0.0331189
280 2 0.465477 0.332152 0.021952
281 4 0.458633 0.322941 0.044167
330 4 0.0316368 0.41401 0.0386556
328 2 0.0219793 0.396266 0.0239233
455 4 0.104038 0.361529 0.0641009
286 2 0.159004 0.393603 0.0112771
287 4 0.162244 0.368817 0.0106697
552 4 0.0942063 0.41278 0.0517853
252 4 0.281614 0.397214 0.0674303
250 2 0.278935 0.398792 0.0426208
251 4 0.276256 0.40037 0.0178113
608 4 0.2955 0.382658 0.0729772
671 4 0.457263 0.332513 0.062494
550 2 0.0733737 0.426517 0.0502152
551 4 0.0525411 0.440254 0.048645
315 4 0.992546 0.42734 0.0697253
1788 4 0.0792 0.496781 0.0887609
288 4 0.155765 0.418388 0.0118846
242 4 0.149385 0.485732 0.0532943
1786 2 0.0977699 0.489295 0.0737842
1787 4 0.11634 0.48181 0.0588075
1224 4 0.13104 0.46423 0.997899
245 4 0.223201 0.440308 0.0385538
244 2 0.240964 0.45775 0.0408795
246 4 0.258727 0.475193 0.0432053
272 4 0.277925 0.468574 0.0404942
271 2 0.293546 0.480926 0.0253751
273 4 0.309167 0.493278 0.010256
227 4 0.483846 0.437483 0.0498208
562 2 0.440795 0.493413 0.0235365
563 4 0.457363 0.490224 0.00508321
226 2 0.498938 0.456174 0.0428905
564 4 0.424228 0.496602 0.0419897
1666 2 0.0829271 0.0180935 0.0838142
19 3 0.0396717 0.0404898 0.163135
20 3 0.0753696 0.0490188 0.154734
1422 4 0.00141312 0.0124078 0.172598
1668 4 0.0964313 0.0216435 0.104556
450 4 0.166245 0.0637208 0.13001
448 2 0.170147 0.081434 0.14722
1506 4 0.232091 0.0106465 0.152982
652 2 0.303434 0.0338137 0.143141
653 4 0.301625 0.0328302 0.118222
297 4 0.362645 0.0346544 0.105427
758 4 0.419923 0.0494397 0.154505
1760 4 0.484867 0.0133903 0.153914
591 4 0.029096 0.0924125 0.084409
476 4 0.127692 0.166088 0.106382
237 4 0.17694 0.16013 0.131355
449 4 0.17405 0.0991471 0.16443
235 2 0.177021 0.139362 0.145278
236 4 0.177102 0.118594 0.159202
693 4 0.220688 0.0997515 0.149549
582 4 0.303672 0.109183 0.144099
312 4 0.425543 0.114394 0.160494
475 2 0.114262 0.173923 0.125964
477 4 0.100833 0.181757 0.145546
737 4 0.181447 0.2039 0.110005
736 2 0.205483 0.199024 0.105142
738 4 0.22952 0.194147 0.100279
354 4 0.265908 0.208895 0.115976
352 2 0.271746 0.232925 0.112281
460 2 0.333575 0.205224 0.0981213
461 4 0.319887 0.220155 0.0834629
255 4 0.356166 0.181549 0.0961741
462 4 0.347264 0.190293 0.11278
630 4 0.411236 0.177484 0.106866
254 4 0.404099 0.168557 0.0903128
253 2 0.380133 0.175053 0.0932435
629 4 0.459815 0.165836 0.109131
628 2 0.435526 0.17166 0.107998
517 2 0.499733 0.242449 0.102679
518 4 0.490428 0.219821 0.10783
339 4 0.0705886 0.252559 0.126045
620 4 0.013594 0.329029 0.125545
337 2 0.0800343 0.248026 0.148747
353 4 0.277585 0.256955 0.108586
754 2 0.27279 0.293538 0.110848
755 4 0.275462 0.273382 0.0962959
756 4 0.270118 0.313695 0.1254
278 4 0.267162 0.272278 0.161791
612 4 0.280678 0.328598 0.135379
741 4 0.351812 0.30685 0.0946392
622 2 0.384996 0.266832 0.158817
624 4 0.400288 0.247761 0.15356
739 2 0.353156 0.331535 0.0983859
623 4 0.369704 0.285902 0.164075
323 4 0.43195 0.250174 0.0987452
672 4 0.444276 0.324663 0.110143
670 2 0.45077 0.328588 0.0863185
621 4 0.0142081 0.365232 0.0910545
619 2 0.013901 0.34713 0.1083
647 4 0.0691251 0.372915 0.151733
454 2 0.118115 0.368287 0.0836287
456 4 0.132193 0.375044 0.103157
537 4 0.164925 0.331911 0.131606
535 2 0.181379 0.343672 0.146307
626 4 0.225583 0.409963 0.128065
536 4 0.197833 0.355434 0.161008
609 4 0.314006 0.354918 0.110244
607 2 0.304753 0.368788 0.0916105
610 2 0.270758 0.337498 0.156534
740 4 0.354499 0.356219 0.102133
387 4 0.340173 0.397098 0.141781
15 3 0.386196 0.36672 0.132748
385 2 0.352351 0.378253 0.130747
386 4 0.364529 0.359408 0.119714
11 1 0.408486 0.362225 0.134019
13 3 0.415565 0.363455 0.156082
12 3 0.412392 0.340973 0.12613
302 4 0.33826 0.410807 0.156281
14 3 0.420365 0.377348 0.121034
495 4 0.427704 0.389835 0.136095
493 2 0.432044 0.413461 0.129154
595 2 0.495452 0.405422 0.157707
313 2 0.00528952 0.443637 0.0837677
314 4 0.0180327 0.459934 0.0978102
625 2 0.227085 0.422108 0.106261
627 4 0.228587 0.434254 0.0844573
637 2 0.257904 0.485509 0.135223
638 4 0.267306 0.470236 0.152644
525 4 0.344409 0.490091 0.120468
523 2 0.343106 0.498037 0.096797
658 2 0.389941 0.46853 0.148862
659 4 0.368003 0.480151 0.151837
660 4 0.41188 0.45691 0.145888
494 4 0.436384 0.437087 0.122214
16 1 0.0596116 0.0492169 0.171175
17 3 0.0560328 0.0708975 0.177979
18 3 0.0669553 0.0367728 0.18933
2480 4 0.00372643 0.0324528 0.168741
673 2 0.129363 0.0487774 0.219422
674 4 0.151141 0.05883 0.212363
675 4 0.107585 0.0387248 0.226481
1505 4 0.217632 0.0420376 0.189123
1504 2 0.224862 0.026342 0.171053
689 4 0.219041 0.0147544 0.204739
688 2 0.207562 0.0117598 0.226749
692 4 0.230055 0.084399 0.196211
654 4 0.305242 0.0347972 0.16806
1784 4 0.422227 0.994063 0.187789
21 1 0.374666 0.0415536 0.229297
23 3 0.383011 0.0204576 0.234169
24 3 0.351726 0.0419914 0.232756
25 3 0.37937 0.0469691 0.207683
759 4 0.392508 0.0572744 0.195588
22 3 0.384589 0.0568874 0.243282
757 2 0.406215 0.053357 0.175046
742 2 0.458431 0.0583969 0.224801
743 4 0.471861 0.0793641 0.222519
744 4 0.445002 0.0374297 0.227084
379 2 0.0110082 0.145005 0.175907
381 4 0.0268134 0.159082 0.189219
511 2 0.0415656 0.156777 0.228205
513 4 0.0472666 0.147955 0.250895
579 4 0.0957422 0.0899474 0.213104
577 2 0.0950623 0.114939 0.212756
578 4 0.0943824 0.139931 0.212408
723 4 0.204712 0.108614 0.228923
691 2 0.225372 0.0920752 0.17288
721 2 0.18451 0.12078 0.237232
722 4 0.164308 0.132947 0.245541
580 2 0.296112 0.110917 0.167869
581 4 0.288551 0.11265 0.191639
30 3 0.294385 0.119346 0.209698
26 1 0.305575 0.113526 0.22866
28 3 0.291771 0.100985 0.242465
27 3 0.323945 0.100875 0.223036
29 3 0.312718 0.132584 0.239803
333 4 0.416007 0.152752 0.236868
310 2 0.436868 0.117845 0.182517
311 4 0.448194 0.121296 0.20454
512 4 0.0358646 0.1656 0.205514
338 4 0.0894801 0.243492 0.17145
284 4 0.283615 0.228327 0.170007
283 2 0.272348 0.206293 0.166439
285 4 0.261081 0.184259 0.162871
764 4 0.358933 0.206373 0.198166
763 2 0.37739 0.220895 0.206748
765 4 0.395846 0.235417 0.21533
520 2 0.473371 0.217607 0.248782
521 4 0.450404 0.226464 0.244393
522 4 0.496337 0.208749 0.25317
395 4 0.0301571 0.263278 0.20078
394 2 0.0212676 0.257995 0.223545
750 4 0.0658146 0.294847 0.237759
396 4 0.012378 0.252711 0.24631
363 4 0.0882467 0.258158 0.184827
361 2 0.108372 0.255324 0.199391
362 4 0.128497 0.25249 0.213956
372 4 0.142737 0.262617 0.223745
300 4 0.113315 0.333927 0.225495
277 2 0.246252 0.280542 0.172729
370 2 0.167431 0.264461 0.227203
371 4 0.192126 0.266305 0.230661
279 4 0.225342 0.288807 0.183667
343 2 0.257038 0.287944 0.245079
344 4 0.276835 0.277429 0.234001
307 2 0.32059 0.269182 0.221463
309 4 0.310896 0.287344 0.207273
308 4 0.330283 0.25102 0.235652
528 4 0.459061 0.255237 0.176355
526 2 0.47977 0.268523 0.171904
263 4 0.0705355 0.425724 0.227215
646 2 0.0819268 0.353896 0.16171
648 4 0.0947285 0.334877 0.171688
298 2 0.130985 0.341612 0.241428
611 4 0.260837 0.346397 0.17769
303 4 0.322859 0.398678 0.202286
301 2 0.33056 0.404743 0.179283
729 4 0.3161 0.376125 0.251811
597 4 0.474732 0.393754 0.165439
643 2 0.454966 0.378152 0.187474
644 4 0.455248 0.362061 0.20661
645 4 0.454684 0.394243 0.168338
447 4 0.467949 0.364117 0.221778
262 2 0.0497678 0.439646 0.227453
264 4 0.0290002 0.453568 0.22769
417 4 0.138564 0.445393 0.196952
415 2 0.162641 0.43867 0.197509
416 4 0.186717 0.431947 0.198065
291 4 0.204783 0.437449 0.191717
289 2 0.222477 0.433063 0.208831
290 4 0.24017 0.428676 0.225945
768 4 0.241507 0.483923 0.211226
766 2 0.255785 0.477898 0.191604
767 4 0.270062 0.471872 0.171982
229 2 0.407299 0.4951 0.227622
231 4 0.407867 0.485851 0.204399
108 3 0.49851 0.41221 0.21969
232 2 0.0259937 0.0481414 0.291934
233 4 0.0453855 0.0323597 0.291656
1402 2 0.0676084 0.00983704 0.283374
1403 4 0.0647763 0.0307621 0.296764
234 4 0.00660199 0.0639231 0.292213
429 4 0.0960249 0.995908 0.333042
731 4 0.138682 0.0746894 0.316233
690 4 0.196084 0.00876525 0.248759
1701 4 0.239695 0.0268351 0.325443
1699 2 0.252795 0.0263516 0.304151
1700 4 0.265894 0.0258681 0.282859
257 4 0.39566 0.0553025 0.33599
698 4 0.378741 0.0488191 0.346399
478 2 0.477481 0.0401072 0.328865
480 4 0.470223 0.0179331 0.319876
351 4 0.441172 0.0672478 0.256931
349 2 0.447212 0.0801724 0.277465
529 2 0.998447 0.137709 0.268861
530 4 0.0189488 0.14081 0.282833
398 4 0.0472265 0.129984 0.314995
397 2 0.0685364 0.117166 0.317598
546 4 0.1685 0.140307 0.263307
544 2 0.156883 0.161118 0.270865
399 4 0.0898463 0.104349 0.320202
248 4 0.227484 0.084185 0.287378
249 4 0.239287 0.12753 0.309346
247 2 0.233386 0.105858 0.298362
403 2 0.221807 0.159513 0.289996
600 4 0.210683 0.140698 0.337644
404 4 0.237042 0.140115 0.29409
632 4 0.353215 0.108448 0.298049
631 2 0.375974 0.105717 0.308036
633 4 0.398733 0.102986 0.318024
331 2 0.435663 0.155414 0.252091
332 4 0.455318 0.158075 0.267314
350 4 0.453251 0.093097 0.298
444 4 0.012873 0.261633 0.311594
392 4 0.126468 0.178295 0.273467
391 2 0.103688 0.1866 0.279574
393 4 0.0809086 0.194905 0.285682
545 4 0.145265 0.181929 0.278423
405 4 0.206572 0.178912 0.285903
401 4 0.18845 0.260277 0.287602
706 2 0.31515 0.183877 0.309178
708 4 0.308027 0.176056 0.331834
707 4 0.322272 0.191699 0.286523
762 4 0.465795 0.173202 0.27663
418 2 0.430861 0.213059 0.30984
419 4 0.439411 0.197841 0.327743
761 4 0.479939 0.169283 0.324435
760 2 0.472867 0.171243 0.300532
420 4 0.422311 0.228276 0.291937
443 4 0.0199151 0.261745 0.262085
442 2 0.0163941 0.261689 0.286839
390 4 0.0652117 0.270327 0.322042
748 2 0.0812605 0.277142 0.246312
749 4 0.0967064 0.259437 0.254864
388 2 0.0857016 0.260031 0.332009
345 4 0.237242 0.298459 0.256157
400 2 0.208079 0.257204 0.302783
402 4 0.227707 0.25413 0.317964
508 2 0.23371 0.310338 0.32584
510 4 0.219043 0.290663 0.330633
496 2 0.312454 0.292663 0.292172
497 4 0.334132 0.281815 0.286041
498 4 0.290776 0.30351 0.298302
543 4 0.40328 0.314963 0.316462
615 4 0.38786 0.327841 0.317816
541 2 0.426486 0.322105 0.31049
542 4 0.449691 0.329247 0.304518
366 4 0.00618583 0.351898 0.274703
364 2 0.0290971 0.348188 0.284003
365 4 0.0520083 0.344478 0.293303
602 4 0.0704704 0.408243 0.28815
601 2 0.0870676 0.389554 0.287477
299 4 0.148656 0.349297 0.257362
603 4 0.103665 0.370866 0.286803
734 4 0.147493 0.368498 0.265438
733 2 0.15868 0.363487 0.287231
735 4 0.169866 0.358477 0.309024
677 4 0.176526 0.366504 0.324999
509 4 0.248376 0.330013 0.321046
433 2 0.315383 0.385711 0.325683
613 2 0.373343 0.340679 0.333614
727 2 0.330231 0.389873 0.26719
728 4 0.344361 0.403621 0.28257
434 4 0.329899 0.389046 0.3056
445 2 0.462707 0.370424 0.245398
446 4 0.457466 0.376731 0.269018
549 4 0.0418737 0.440999 0.32005
547 2 0.0595166 0.428331 0.332437
777 4 0.0855273 0.447711 0.281391
775 2 0.0953036 0.463643 0.297998
776 4 0.10508 0.479574 0.314605
414 4 0.137908 0.476382 0.285744
412 2 0.158133 0.464931 0.294964
413 4 0.178358 0.453479 0.304184
436 2 0.294898 0.455226 0.279927
437 4 0.288091 0.450358 0.256365
438 4 0.301705 0.460093 0.303488
230 4 0.40673 0.504349 0.250845
713 4 0.408548 0.459326 0.290435
2861 4 0.493675 0.470437 0.263683
712 2 0.432077 0.467744 0.289581
714 4 0.455605 0.476162 0.288727
316 2 0.0421372 0.0758143 0.347196
317 4 0.041391 0.0554882 0.361738
428 4 0.069155 0.0233085 0.365104
427 2 0.0825899 0.00960835 0.349073
1782 4 0.146398 0.0180166 0.385217
1780 2 0.131003 0.0012823 0.395616
606 4 0.169507 0.0596702 0.379552
604 2 0.191847 0.0588653 0.368351
605 4 0.214186 0.0580603 0.357149
683 4 0.289192 0.0731545 0.359748
682 2 0.283094 0.0814448 0.382536
697 2 0.362971 0.0294733 0.347885
699 4 0.3472 0.0101274 0.349372
256 2 0.411483 0.0562754 0.355325
424 2 0.40805 0.0331468 0.404843
479 4 0.48474 0.0622813 0.337855
258 4 0.427306 0.0572483 0.374661
426 4 0.422462 0.050714 0.39441
318 4 0.0428835 0.0961405 0.332654
732 4 0.120212 0.0909253 0.359776
730 2 0.129447 0.0828074 0.338005
685 2 0.159266 0.153532 0.412103
598 2 0.191615 0.156197 0.342268
686 4 0.18138 0.164371 0.407779
684 4 0.276995 0.0897351 0.405323
452 4 0.497992 0.142365 0.372785
451 2 0.475021 0.150183 0.378816
453 4 0.45205 0.158001 0.384847
514 2 0.424467 0.145549 0.403798
515 4 0.443397 0.140192 0.388366
2653 2 0.00874598 0.222218 0.368884
2654 4 0.0327318 0.217566 0.374197
599 4 0.172548 0.171696 0.346892
474 4 0.237626 0.204247 0.340487
274 2 0.196428 0.246338 0.396607
275 4 0.173151 0.239249 0.390852
472 2 0.262302 0.20828 0.340276
473 4 0.286977 0.212312 0.340066
488 4 0.294654 0.214274 0.389655
487 2 0.291151 0.234796 0.403504
715 2 0.356896 0.245217 0.358026
716 4 0.340394 0.236108 0.374455
304 2 0.487968 0.2009 0.41707
305 4 0.490843 0.18964 0.394931
616 2 0.0728919 0.317806 0.373227
618 4 0.0656754 0.300114 0.389355
347 4 0.0501207 0.31013 0.394365
389 4 0.106192 0.249736 0.341977
375 4 0.16795 0.329621 0.38943
276 4 0.219705 0.253426 0.402362
373 2 0.190441 0.319619 0.393823
374 4 0.212932 0.309616 0.398216
376 2 0.293964 0.289868 0.352488
377 4 0.318532 0.285293 0.351677
378 4 0.269396 0.294443 0.353299
489 4 0.287649 0.255317 0.417352
717 4 0.373397 0.254325 0.341597
268 2 0.498345 0.273746 0.40245
408 4 0.0670589 0.419915 0.407499
548 4 0.0771594 0.415663 0.344824
617 4 0.0801084 0.335497 0.357099
676 2 0.192177 0.348728 0.333011
678 4 0.207829 0.330951 0.341023
503 4 0.275842 0.401617 0.403647
435 4 0.300867 0.382376 0.345767
614 4 0.358826 0.353518 0.349413
336 4 0.386433 0.365006 0.39775
561 4 0.468518 0.381228 0.395224
752 4 0.471732 0.39904 0.385653
559 2 0.478744 0.373484 0.416686
751 2 0.454542 0.408267 0.370015
406 2 0.0766927 0.41904 0.384443
407 4 0.0863264 0.418165 0.361386
499 2 0.111146 0.477946 0.37752
500 4 0.116348 0.488192 0.355313
501 4 0.105945 0.4677 0.399727
570 4 0.164221 0.477267 0.417406
5 3 0.295803 0.447126 0.364963
1 1 0.313031 0.46187 0.367072
2 3 0.304785 0.482231 0.3739
4 3 0.328128 0.454191 0.382931
3 3 0.323691 0.464565 0.346639
594 4 0.378441 0.471891 0.356947
592 2 0.399611 0.475265 0.344077
117 3 0.4952 0.442382 0.343564
593 4 0.42078 0.478639 0.331207
753 4 0.437352 0.417494 0.354377
718 2 0.0523052 0.0579987 0.476807
720 4 0.0411854 0.0429089 0.493355
719 4 0.0634251 0.0730886 0.46026
367 2 0.11841 0.0522426 0.443012
369 4 0.114291 0.0743936 0.453853
368 4 0.12253 0.0300916 0.43217
340 2 0.181054 0.0569362 0.497692
341 4 0.181409 0.0320163 0.495679
1181 4 0.249917 0.0578657 0.479435
2430 4 0.19778 0.0208117 0.49179
1180 2 0.250845 0.0810653 0.488714
441 4 0.274617 0.0338246 0.425902
439 2 0.284464 0.0122989 0.417848
726 4 0.314582 0.0722702 0.449986
425 4 0.393637 0.0155795 0.415275
2878 2 0.487515 0.0768975 0.452725
458 4 0.0350843 0.1627 0.42064
687 4 0.137153 0.142693 0.416428
1152 4 0.198808 0.0893166 0.495984
320 4 0.283805 0.102596 0.4181
321 4 0.261411 0.145854 0.429409
319 2 0.272608 0.124225 0.423755
1182 4 0.251772 0.104265 0.497992
724 2 0.338175 0.0803703 0.451695
725 4 0.361768 0.0884705 0.453404
574 2 0.399957 0.150882 0.46041
575 4 0.410957 0.151943 0.437981
516 4 0.405537 0.150906 0.41923
576 4 0.388956 0.149822 0.482838
642 4 0.471825 0.10891 0.468196
2880 4 0.468666 0.0908544 0.461391
640 2 0.47653 0.12059 0.489797
457 2 0.0126332 0.1701 0.428787
471 4 0.00985508 0.169634 0.490043
469 2 0.0238571 0.188942 0.482536
470 4 0.037859 0.208249 0.47503
260 4 0.114258 0.201954 0.419241
261 4 0.118961 0.184388 0.465825
259 2 0.116609 0.193171 0.442533
1035 4 0.119662 0.181792 0.485895
695 4 0.118767 0.244408 0.467774
468 4 0.323871 0.172937 0.433215
411 4 0.261005 0.205644 0.474345
409 2 0.284836 0.198825 0.471061
410 4 0.308666 0.192006 0.467777
467 4 0.37369 0.173723 0.428962
466 2 0.348781 0.17333 0.431088
872 4 0.406946 0.237169 0.49635
306 4 0.485093 0.212159 0.439209
346 2 0.046364 0.298161 0.415995
348 4 0.0426074 0.286193 0.437624
327 4 0.105962 0.3337 0.485952
694 2 0.116035 0.262159 0.485169
696 4 0.113303 0.279911 0.502564
10 3 0.175257 0.325271 0.479333
651 4 0.244636 0.266063 0.433125
649 2 0.256514 0.284483 0.445159
650 4 0.268391 0.302903 0.457193
266 4 0.322499 0.287072 0.442514
812 4 0.309897 0.30089 0.483495
267 4 0.364463 0.261715 0.452347
265 2 0.343481 0.274393 0.447431
270 4 0.488581 0.261071 0.421664
583 2 0.459822 0.28305 0.46302
584 4 0.484707 0.285341 0.463852
585 4 0.434938 0.280759 0.462188
681 4 0.0495552 0.416978 0.451938
383 4 0.0790496 0.417739 0.462203
325 2 0.102238 0.335353 0.461283
6 1 0.16159 0.336205 0.493905
326 4 0.0985131 0.337006 0.436613
7 3 0.14006 0.32853 0.491313
711 4 0.163404 0.378506 0.484233
504 4 0.240746 0.397752 0.43906
709 2 0.181105 0.380641 0.466703
710 4 0.198807 0.382777 0.449174
774 4 0.233354 0.415052 0.485373
8 3 0.162003 0.358995 0.489564
502 2 0.258294 0.399685 0.421354
334 2 0.378397 0.37469 0.419356
238 2 0.387954 0.373621 0.473667
240 4 0.368688 0.374871 0.457779
335 4 0.370361 0.384375 0.440962
239 4 0.40722 0.372372 0.489556
560 4 0.488971 0.36574 0.438149
934 2 0.00143824 0.44534 0.502357
680 4 0.034569 0.458722 0.428839
1381 2 0.0223814 0.485941 0.452492
1383 4 0.0185279 0.472777 0.431587
679 2 0.0420621 0.43785 0.440389
539 4 0.0721094 0.488875 0.496854
540 4 0.121777 0.494153 0.494416
568 2 0.14714 0.464805 0.430753
569 4 0.13006 0.452342 0.444099
382 2 0.101254 0.425502 0.453724
384 4 0.123458 0.433265 0.445245
538 2 0.0969434 0.491514 0.495635
1557 4 0.236415 0.500223 0.425568
636 4 0.246367 0.476613 0.45673
634 2 0.239777 0.454131 0.465466
635 4 0.233187 0.43165 0.474203
669 4 0.304381 0.421505 0.472019
667 2 0.302889 0.440888 0.456295
668 4 0.301396 0.460271 0.440571
1401 4 0.335599 0.497003 0.443472
586 2 0.39813 0.436131 0.437049
588 4 0.374286 0.443361 0.434963
663 4 0.450106 0.479337 0.476213
587 4 0.421974 0.428901 0.439135
661 2 0.470222 0.485263 0.489829
1126 2 0.0442786 0.0468304 0.530055
1127 4 0.0364802 0.0338871 0.510134
1128 4 0.052077 0.0597737 0.549976
2237 4 0.0285299 0.0291262 0.493113
2236 2 0.0232304 0.00525296 0.498325
1058 4 0.116233 0.0795271 0.550864
2428 2 0.20431 0.00703203 0.511605
342 4 0.180698 0.081856 0.499705
1030 2 0.250418 0.0767033 0.569064
961 2 0.281265 0.0399103 0.517607
963 4 0.301778 0.0542033 0.517894
962 4 0.260751 0.0256173 0.517321
432 4 0.303337 0.0713313 0.508675
430 2 0.326911 0.0796604 0.508956
1217 4 0.413089 0.0475598 0.553866
1216 2 0.406131 0.0250684 0.562287
841 2 0.382073 0.0715327 0.533456
842 4 0.402202 0.0585585 0.540644
1218 4 0.399173 0.00257691 0.570707
1062 4 0.48928 0.0214182 0.516487
938 4 0.0806418 0.111536 0.538837
1057 2 0.13212 0.0865235 0.56886
937 2 0.0983721 0.125979 0.548946
939 4 0.116102 0.140422 0.559056
1151 4 0.196162 0.131213 0.523158
1150 2 0.197485 0.110265 0.509571
1032 4 0.254503 0.0933873 0.550895
899 4 0.325924 0.146675 0.553075
843 4 0.361943 0.084507 0.526268
431 4 0.350485 0.0879895 0.509237
641 4 0.481235 0.13227 0.511399
877 2 0.0667972 0.212465 0.579686
878 4 0.0426945 0.206864 0.576099
1199 4 0.0135459 0.195742 0.561528
1034 4 0.10877 0.172753 0.533857
879 4 0.0908999 0.218066 0.583273
1033 2 0.114216 0.177273 0.509876
856 2 0.235464 0.210896 0.546524
1221 4 0.193582 0.18103 0.580588
857 4 0.213012 0.210133 0.535545
797 4 0.215232 0.235825 0.577718
898 2 0.325736 0.166709 0.538115
858 4 0.257915 0.21166 0.557503
900 4 0.325548 0.186743 0.523155
791 4 0.308926 0.229499 0.571569
871 2 0.392498 0.252324 0.510017
905 4 0.491841 0.223075 0.569953
1258 2 0.138385 0.287948 0.529556
1260 4 0.116244 0.291185 0.518397
1259 4 0.160525 0.284711 0.540714
9 3 0.168418 0.332169 0.51571
811 2 0.325547 0.304306 0.502694
804 4 0.292803 0.330126 0.521213
792 4 0.318744 0.277572 0.58123
790 2 0.313835 0.253536 0.576399
813 4 0.341196 0.307723 0.521893
873 4 0.37805 0.267478 0.523683
983 4 0.0375864 0.340869 0.558095
982 2 0.0281738 0.345658 0.580759
1189 2 0.231226 0.365129 0.558603
773 4 0.240158 0.381062 0.521416
1190 4 0.24373 0.372617 0.538287
1191 4 0.218722 0.35764 0.578919
772 2 0.236756 0.398057 0.503395
802 2 0.277354 0.348257 0.528813
803 4 0.261905 0.366388 0.536414
930 4 0.325729 0.387261 0.57522
928 2 0.345176 0.383918 0.559863
929 4 0.364622 0.380575 0.544505
925 2 0.457345 0.393109 0.529153
927 4 0.477058 0.400563 0.542608
926 4 0.437633 0.385656 0.515699
936 4 0.0138095 0.454275 0.522163
1161 4 0.162249 0.452817 0.560199
1171 2 0.230514 0.450762 0.572912
1173 4 0.206304 0.456792 0.574554
1172 4 0.254724 0.444732 0.57127
882 4 0.316479 0.451979 0.53299
880 2 0.341015 0.456791 0.532836
881 4 0.365551 0.461603 0.532682
1952 4 0.341545 0.478733 0.567103
1951 2 0.359568 0.493992 0.575322
1000 2 0.431874 0.432986 0.57559
1001 4 0.439567 0.444591 0.554822
662 4 0.490337 0.49119 0.503445
1083 4 0.0660886 0.0894671 0.623614
945 4 0.0684938 0.0104128 0.653457
825 4 0.133921 0.0245533 0.633164
823 2 0.152642 0.00798403 0.632753
951 4 0.251949 0.041717 0.593623
1031 4 0.246332 0.0600193 0.587234
949 2 0.271368 0.0272526 0.599859
950 4 0.290786 0.0127883 0.606095
1092 4 0.337141 0.0205483 0.653425
809 4 0.477837 0.08085 0.60908
808 2 0.469491 0.0793403 0.632601
810 4 0.461145 0.0778307 0.656122
1082 4 0.035342 0.0998864 0.661651
1081 2 0.0507153 0.0946768 0.642632
1154 4 0.169507 0.153418 0.585005
1059 4 0.148006 0.0935198 0.586856
1153 2 0.166665 0.128578 0.585263
1155 4 0.163823 0.103738 0.585521
909 4 0.134421 0.137641 0.663746
1284 4 0.166787 0.0984789 0.62675
1283 4 0.204744 0.101269 0.659188
1282 2 0.185765 0.0998739 0.642969
1272 4 0.105024 0.21507 0.596911
1270 2 0.128269 0.223573 0.600454
1271 4 0.151514 0.232076 0.603996
1210 2 0.237459 0.194727 0.648033
1212 4 0.213184 0.197688 0.642825
1219 2 0.204572 0.186993 0.602241
1220 4 0.215562 0.192956 0.623893
796 2 0.232487 0.235057 0.595797
798 4 0.249741 0.234289 0.613877
947 4 0.191314 0.248368 0.61655
1211 4 0.261734 0.191766 0.653241
888 4 0.273165 0.203208 0.664591
1193 4 0.368889 0.229937 0.661315
904 2 0.468299 0.221917 0.578295
906 4 0.444756 0.220758 0.586636
1024 2 0.445928 0.190813 0.665128
1025 4 0.450251 0.19039 0.640505
1243 2 0.0588832 0.249954 0.627533
1244 4 0.0536469 0.247592 0.603199
1245 4 0.0641195 0.252315 0.651868
946 2 0.187355 0.272606 0.621244
948 4 0.183395 0.296844 0.625937
1238 4 0.309557 0.293899 0.588224
1237 2 0.310298 0.315743 0.600366
954 4 0.4352 0.29874 0.600006
952 2 0.457164 0.289585 0.607683
953 4 0.479128 0.28043 0.615361
984 4 0.0187613 0.350447 0.603423
1040 4 0.0771009 0.396982 0.642402
1039 2 0.0590991 0.381806 0.633987
1041 4 0.0410973 0.36663 0.625573
3263 4 0.0245963 0.365931 0.615567
3262 2 0.00696859 0.361141 0.63264
1137 4 0.120578 0.400136 0.584877
897 4 0.159845 0.376061 0.599213
1136 4 0.105553 0.357047 0.60533
1135 2 0.113065 0.378591 0.595104
991 2 0.119045 0.402408 0.649937
993 4 0.097481 0.393321 0.641127
896 4 0.20874 0.369036 0.591425
895 2 0.184293 0.372549 0.595319
1239 4 0.31104 0.337588 0.612508
806 4 0.320125 0.359606 0.663284
1029 4 0.260253 0.388644 0.66849
1204 2 0.402118 0.398943 0.644739
1205 4 0.417981 0.37973 0.646829
992 4 0.140608 0.411496 0.658746
1159 2 0.16787 0.454576 0.5845
1187 4 0.22208 0.47261 0.603304
1160 4 0.17349 0.456335 0.6088
1186 2 0.2147 0.489002 0.620682
889 2 0.315466 0.44556 0.600856
891 4 0.290937 0.445384 0.596009
1206 4 0.386255 0.418157 0.642649
890 4 0.339994 0.445735 0.605704
1002 4 0.42418 0.42138 0.596358
1269 4 0.43589 0.456687 0.662796
944 4 0.0759744 0.0493973 0.68387
943 2 0.0722341 0.0299051 0.668663
1147 2 0.204241 0.069157 0.739713
1090 2 0.335635 0.0212889 0.678372
1091 4 0.334129 0.0220295 0.703319
1003 2 0.333836 0.0831158 0.695846
1004 4 0.333234 0.0798777 0.720632
1163 4 0.472403 0.0557258 0.672453
1162 2 0.494692 0.0483283 0.681035
42 3 0.43079 0.063514 0.701723
2320 2 0.482141 0.0147235 0.736984
2283 4 0.430437 0.00286567 0.683325
1076 4 0.0292091 0.111849 0.677118
864 4 0.068611 0.117785 0.733493
1075 2 0.0406356 0.114894 0.699148
1077 4 0.052062 0.117939 0.721179
907 2 0.147883 0.144229 0.68376
908 4 0.161344 0.150817 0.703775
1227 4 0.174811 0.136627 0.706071
1148 4 0.202222 0.0902125 0.726381
1225 2 0.180592 0.117226 0.720747
1226 4 0.186372 0.0978259 0.735423
1005 4 0.334439 0.0863538 0.67106
829 2 0.340847 0.161459 0.70506
831 4 0.356638 0.142463 0.708933
45 3 0.416934 0.0897411 0.679073
43 3 0.442729 0.099012 0.704886
41 1 0.435638 0.0826962 0.689989
1142 4 0.409403 0.15013 0.709146
44 3 0.452467 0.0780822 0.674695
3425 4 0.501029 0.143639 0.701665
851 4 0.0779176 0.183618 0.700665
852 4 0.02839 0.190334 0.699043
850 2 0.0531538 0.186976 0.699854
1213 2 0.0209812 0.225144 0.741204
1215 4 0.00423298 0.226795 0.722712
1209 4 0.0864437 0.23613 0.665352
1107 4 0.0796834 0.185468 0.720927
1105 2 0.0934467 0.187009 0.741745
1207 2 0.105751 0.244749 0.678697
1208 4 0.125059 0.253368 0.692043
1130 4 0.184653 0.176798 0.750858
830 4 0.325055 0.180454 0.701187
886 2 0.290135 0.195934 0.681451
887 4 0.307105 0.188659 0.698312
976 2 0.288098 0.196833 0.737686
978 4 0.280794 0.173363 0.733105
977 4 0.295403 0.220303 0.742267
1192 2 0.367572 0.214282 0.680766
1194 4 0.366255 0.198627 0.700218
1143 4 0.426381 0.191351 0.731801
1141 2 0.417892 0.170741 0.720473
1026 4 0.441605 0.191236 0.689752
1261 2 0.442993 0.225223 0.714791
1263 4 0.458031 0.239286 0.700605
1262 4 0.427954 0.21116 0.728978
820 2 0.18967 0.285225 0.742203
821 4 0.182226 0.30402 0.727489
1065 4 0.22564 0.284644 0.705147
1063 2 0.238497 0.290968 0.684657
1064 4 0.251355 0.297293 0.664166
3123 4 0.468025 0.274524 0.679383
3121 2 0.489959 0.263046 0.682894
3274 2 0.00482845 0.401011 0.730362
892 2 0.0483681 0.368095 0.707748
893 4 0.0573064 0.355247 0.688249
894 4 0.0394298 0.380943 0.727248
3276 4 0.0238119 0.386996 0.738631
940 2 0.140422 0.397047 0.738996
941 4 0.162366 0.407706 0.733518
942 4 0.118478 0.386387 0.744473
1067 4 0.165433 0.399944 0.714225
1028 4 0.22624 0.416122 0.692754
1066 2 0.186477 0.404905 0.701666
1068 4 0.207521 0.409866 0.689108
1027 2 0.243247 0.402383 0.680622
805 2 0.329462 0.347913 0.683316
807 4 0.338799 0.336219 0.703347
1019 4 0.387814 0.371269 0.723079
1018 2 0.384276 0.370749 0.747826
1281 4 0.0307469 0.454468 0.688292
1280 4 0.0672175 0.430893 0.713088
1279 2 0.0489822 0.442681 0.70069
1983 4 0.0390064 0.495491 0.724378
1981 2 0.025942 0.48954 0.74485
1176 4 0.22637 0.474407 0.725553
1174 2 0.221604 0.487804 0.704987
1139 4 0.271701 0.431645 0.721594
1138 2 0.285986 0.439107 0.702477
1140 4 0.30027 0.446568 0.68336
1228 2 0.368184 0.458063 0.711203
1229 4 0.363404 0.482452 0.713938
1230 4 0.372965 0.433673 0.708468
1989 4 0.352711 0.492089 0.728464
1268 4 0.458723 0.4975 0.680508
1267 2 0.447307 0.477094 0.671652
1100 4 0.427772 0.455648 0.710295
1099 2 0.44709 0.44033 0.71446
1101 4 0.466408 0.425013 0.718626
1294 2 0.0145217 0.0250445 0.802119
911 4 0.0711504 0.057197 0.833423
1296 4 0.010151 0.0320127 0.825731
1295 4 0.0188923 0.0180763 0.778507
1203 4 0.117328 0.0786284 0.759338
1201 2 0.106869 0.0590072 0.770775
1202 4 0.0964103 0.039386 0.782212
2049 4 0.0958724 0.0199653 0.777183
910 2 0.0854585 0.0775166 0.830671
1149 4 0.206261 0.0481014 0.753046
1255 2 0.265072 0.0663143 0.821622
1257 4 0.255402 0.0469808 0.809057
975 4 0.370388 0.0073832 0.814267
1113 4 0.414806 0.0347951 0.782035
1112 4 0.42736 0.0463365 0.829044
844 2 0.481765 0.0620753 0.766832
1111 2 0.421083 0.0405658 0.80554
845 4 0.462935 0.0630495 0.783253
862 2 0.0555789 0.11867 0.754813
863 4 0.0425467 0.119556 0.776133
832 2 0.00733283 0.128128 0.795611
833 4 0.0248871 0.127169 0.777832
34 3 0.101205 0.152899 0.826006
31 1 0.106807 0.164247 0.806557
33 3 0.127216 0.156646 0.798551
35 3 0.0906418 0.161141 0.790819
912 4 0.0997666 0.0978362 0.827919
839 4 0.237501 0.118284 0.808382
838 2 0.259711 0.125208 0.817545
840 4 0.281921 0.132133 0.826707
1086 4 0.318397 0.150301 0.793209
1084 2 0.334093 0.141468 0.810552
1085 4 0.349789 0.132635 0.827895
3468 4 0.494464 0.161877 0.826975
1214 4 0.0377294 0.223493 0.759696
1073 4 0.0818969 0.226143 0.776145
32 3 0.108566 0.18669 0.811286