ITEM: TIMESTEP
90000
ITEM: NUMBER OF ATOMS
4590
ITEM: BOX BOUNDS pp pp pp
-9.9985700000000008e+00 9.9985700000000008e+00
-9.9985700000000008e+00 9.9985700000000008e+00
-9.9985700000000008e+00 9.9985700000000008e+00
ITEM: ATOMS id type xs ys zs
463 2 0.0636307 0.0413028 0.0212447
465 4 0.0541224 0.064314 0.0189518
1667 4 0.0694899 0.0184976 0.0833854
464 4 0.0731389 0.0182916 0.0235376
532 2 0.195898 0.0384667 0.0162105
534 4 0.191748 0.0462605 0.039603
490 2 0.268516 0.0449556 0.0411537
491 4 0.28584 0.0528128 0.0573806
492 4 0.251192 0.0370984 0.0249267
295 2 0.386903 0.0646854 0.075539
296 4 0.394689 0.0786825 0.0563389
987 4 0.400715 0.0542645 0.995985
745 2 0.444929 0.0526243 0.0469337
746 4 0.429756 0.0349462 0.0560143
747 4 0.460101 0.0703023 0.037853
2975 4 0.478346 0.0659229 0.0133252
589 2 0.0319164 0.108732 0.0568308
590 4 0.00938303 0.0996691 0.0627719
591 4 0.0544498 0.117794 0.0508898
421 2 0.120312 0.132048 0.0111864
423 4 0.0984133 0.140593 0.0197068
701 4 0.104917 0.11243 0.0748079
565 2 0.215085 0.128779 0.0551415
566 4 0.227446 0.115211 0.0381619
567 4 0.202723 0.142346 0.0721211
358 2 0.283946 0.127368 0.0284799
359 4 0.279187 0.111364 0.0098685
360 4 0.288706 0.143373 0.0470913
556 2 0.360205 0.115149 0.0451157
557 4 0.350705 0.109516 0.0226835
558 4 0.369704 0.120783 0.0675479
553 2 0.0550379 0.216406 0.0185775
555 4 0.0345357 0.20582 0.0282102
476 4 0.111838 0.163333 0.0847638
571 2 0.319917 0.227495 0.0568237
573 4 0.295741 0.232743 0.0531988
572 4 0.344094 0.222247 0.0604485
664 2 0.345234 0.189742 0.00186416
665 4 0.369073 0.184017 0.996956
255 4 0.36039 0.190709 0.0903198
324 4 0.411327 0.239703 0.0809068
1071 4 0.393809 0.240948 0.013353
771 4 0.447536 0.191419 0.0512661
770 4 0.490628 0.172558 0.068238
769 2 0.469082 0.181988 0.059752
1014 4 0.484376 0.218566 0.00494366
292 2 0.118921 0.30444 0.0171791
294 4 0.0999404 0.319714 0.0228026
914 4 0.188409 0.256274 0.00378671
483 4 0.23793 0.290514 0.0602502
505 2 0.19586 0.279618 0.0519898
507 4 0.187102 0.300487 0.0413612
506 4 0.204618 0.258749 0.0626184
355 2 0.256447 0.260957 0.00410816
357 4 0.264422 0.265499 0.0273663
481 2 0.255383 0.305353 0.0502319
482 4 0.272836 0.320193 0.0402137
957 4 0.334345 0.322512 0.00156165
1069 2 0.413093 0.256852 0.0139785
280 2 0.472177 0.313293 0.0124755
281 4 0.479734 0.311315 0.0362275
322 2 0.418895 0.262386 0.0736014
323 4 0.426464 0.285069 0.066296
1070 4 0.432376 0.272755 0.0146041
672 4 0.417339 0.329475 0.0803177
328 2 0.0132342 0.409558 0.0136804
330 4 0.0198878 0.394144 0.032209
552 4 0.0494678 0.412429 0.053793
454 2 0.125623 0.355688 0.0721098
455 4 0.137581 0.372723 0.0582532
288 4 0.167592 0.39114 0.0054044
286 2 0.166108 0.366564 0.00976188
287 4 0.164624 0.341988 0.0141193
252 4 0.260202 0.374226 0.0571056
250 2 0.276466 0.39265 0.0524978
251 4 0.292729 0.411074 0.0478901
670 2 0.438906 0.3419 0.0779371
671 4 0.460473 0.354324 0.0755564
550 2 0.0528504 0.43552 0.0448183
551 4 0.056233 0.458611 0.0358436
315 4 0.00915515 0.408184 0.0780388
241 2 0.161231 0.489526 0.0862303
244 2 0.237844 0.455647 0.0307106
245 4 0.220116 0.458505 0.0133117
243 4 0.178559 0.473028 0.0934935
246 4 0.255572 0.452788 0.0481095
271 2 0.282652 0.488232 0.00435786
272 4 0.296946 0.485045 0.0246236
608 4 0.334048 0.406878 0.0896295
564 4 0.414321 0.481576 0.0438582
227 4 0.48465 0.440446 0.0525182
562 2 0.436413 0.477398 0.032918
563 4 0.458504 0.473221 0.0219778
16 1 0.0629354 0.0668286 0.153609
19 3 0.0593003 0.0618917 0.13123
2576 4 0.000901367 0.0288799 0.133136
18 3 0.0612031 0.047522 0.166363
450 4 0.152936 0.0419381 0.129138
20 3 0.0835764 0.0760753 0.156273
448 2 0.158748 0.0644395 0.138362
449 4 0.164561 0.0869409 0.147586
1505 4 0.239396 0.0143028 0.148498
652 2 0.32103 0.0469686 0.141224
654 4 0.297336 0.0532259 0.136264
582 4 0.275842 0.0870162 0.123931
653 4 0.344725 0.0407114 0.146185
297 4 0.379117 0.0506883 0.0947391
1760 4 0.485054 0.0106321 0.127669
702 4 0.0781951 0.071703 0.0861196
17 3 0.0469556 0.0818227 0.160607
700 2 0.0915559 0.0920667 0.0804638
235 2 0.156578 0.138098 0.148313
237 4 0.141572 0.148098 0.165634
236 4 0.171584 0.128099 0.130992
580 2 0.274624 0.0904927 0.148662
581 4 0.273406 0.0939693 0.173393
628 2 0.412766 0.159358 0.142811
462 4 0.326819 0.159609 0.100422
629 4 0.431079 0.146386 0.131788
379 2 0.032308 0.171821 0.160377
380 4 0.0262167 0.188202 0.142496
656 4 0.0142306 0.237568 0.093296
475 2 0.126439 0.169519 0.104096
477 4 0.14104 0.175704 0.123428
337 2 0.0936867 0.257433 0.138187
338 4 0.106333 0.25433 0.159533
339 4 0.0810409 0.260536 0.116842
736 2 0.172183 0.200391 0.127883
737 4 0.165606 0.206342 0.104505
738 4 0.178759 0.194441 0.151261
354 4 0.224008 0.222863 0.0987679
352 2 0.247245 0.23089 0.103328
353 4 0.270482 0.238917 0.107889
460 2 0.327742 0.180702 0.113817
461 4 0.328666 0.201794 0.127212
254 4 0.40524 0.172019 0.102145
253 2 0.382815 0.181364 0.0962324
630 4 0.394452 0.172329 0.153835
517 2 0.479124 0.232352 0.0971546
518 4 0.475322 0.208088 0.101845
705 4 0.017507 0.32858 0.152736
655 2 0.997949 0.256541 0.0929453
703 2 0.0027387 0.308501 0.154712
704 4 0.98797 0.288421 0.156688
536 4 0.179257 0.324568 0.166832
754 2 0.278583 0.303507 0.114363
755 4 0.29378 0.295194 0.132394
756 4 0.263386 0.31182 0.0963317
741 4 0.328677 0.302175 0.10987
622 2 0.378557 0.271873 0.156165
624 4 0.354807 0.277717 0.161358
739 2 0.343194 0.32158 0.103716
623 4 0.402307 0.266028 0.150973
519 4 0.482926 0.256615 0.0924641
619 2 0.00792663 0.350181 0.112169
620 4 0.0165102 0.371362 0.122312
456 4 0.113666 0.338653 0.0859665
537 4 0.152675 0.361123 0.145436
535 2 0.165966 0.342845 0.156134
625 2 0.202946 0.418369 0.109379
626 4 0.209582 0.395676 0.101245
607 2 0.310184 0.405247 0.0969116
609 4 0.28632 0.403616 0.104194
610 2 0.276257 0.352732 0.177445
612 4 0.29505 0.361128 0.16325
740 4 0.357712 0.340985 0.0975622
387 4 0.354513 0.398474 0.148372
15 3 0.395467 0.349676 0.126976
385 2 0.364451 0.392742 0.126156
386 4 0.374388 0.387009 0.10394
11 1 0.400149 0.351668 0.149174
12 3 0.40197 0.330695 0.158445
13 3 0.383051 0.36314 0.159874
14 3 0.420242 0.362911 0.15205
495 4 0.434475 0.396214 0.121468
595 2 0.498562 0.399345 0.165202
597 4 0.477212 0.386672 0.168158
313 2 0.00514841 0.431125 0.0871406
314 4 0.00114166 0.454065 0.0962424
416 4 0.147545 0.451117 0.166631
627 4 0.19631 0.441062 0.117513
639 4 0.247681 0.490813 0.134115
637 2 0.262083 0.472056 0.142233
523 2 0.347162 0.486922 0.103432
525 4 0.342044 0.473562 0.123938
658 2 0.389305 0.482439 0.150645
659 4 0.388187 0.499854 0.132738
660 4 0.390424 0.465024 0.168551
493 2 0.444284 0.419055 0.118784
494 4 0.454094 0.441897 0.1161
2479 2 0.995691 0.0475597 0.200758
2480 4 0.00281771 0.0338905 0.181072
673 2 0.122261 0.0365268 0.225124
674 4 0.147215 0.0353298 0.226127
675 4 0.0973059 0.0377237 0.224121
689 4 0.230756 0.00850279 0.234731
1506 4 0.252636 0.998189 0.193948
1504 2 0.246016 0.00624588 0.171223
21 1 0.37621 0.055532 0.236847
23 3 0.379792 0.0342827 0.245451
24 3 0.356534 0.0558872 0.224554
25 3 0.393735 0.0616232 0.22364
759 4 0.403113 0.0522736 0.209167
757 2 0.413064 0.0570377 0.186729
22 3 0.374346 0.070404 0.254297
758 4 0.423015 0.0618018 0.164291
742 2 0.447324 0.0512073 0.240639
743 4 0.45888 0.073341 0.241959
381 4 0.0383994 0.155439 0.178258
511 2 0.020578 0.157021 0.225866
513 4 0.0402981 0.142537 0.231013
577 2 0.0912188 0.109901 0.226651
578 4 0.0880225 0.13072 0.213176
579 4 0.0944152 0.089083 0.240125
723 4 0.18931 0.102625 0.217013
691 2 0.230134 0.0977899 0.193548
693 4 0.214031 0.0999006 0.174538
721 2 0.181538 0.113597 0.238094
692 4 0.246237 0.0956792 0.212559
30 3 0.298028 0.149187 0.222668
26 1 0.311419 0.131961 0.229194
28 3 0.31066 0.114938 0.213445
27 3 0.333088 0.139469 0.23099
310 2 0.421501 0.124632 0.190054
312 4 0.409438 0.127755 0.168376
311 4 0.433563 0.121509 0.211732
512 4 0.000857939 0.171506 0.220718
363 4 0.0898168 0.237637 0.180534
394 2 0.015918 0.241615 0.212417
395 4 0.0379206 0.252275 0.20718
391 2 0.102295 0.192321 0.251795
392 4 0.1057 0.177946 0.231622
370 2 0.16234 0.250285 0.233923
371 4 0.162594 0.228327 0.245878
284 4 0.239471 0.211967 0.159237
283 2 0.254842 0.20324 0.176923
285 4 0.270212 0.194513 0.194608
765 4 0.386889 0.251656 0.224462
764 4 0.384248 0.219193 0.186517
763 2 0.385569 0.235425 0.20549
520 2 0.462199 0.217559 0.230022
521 4 0.44443 0.218173 0.212441
648 4 0.0901224 0.335301 0.16831
361 2 0.0927056 0.258351 0.194237
362 4 0.0955944 0.279065 0.20794
372 4 0.162087 0.272244 0.221967
300 4 0.122605 0.318953 0.246234
279 4 0.22111 0.256012 0.169672
343 2 0.231507 0.290295 0.24126
344 4 0.243068 0.268289 0.243947
345 4 0.219946 0.312302 0.238573
277 2 0.243428 0.262138 0.179133
278 4 0.265747 0.268264 0.188595
307 2 0.312247 0.277853 0.223557
309 4 0.306597 0.283767 0.199929
527 4 0.496024 0.290566 0.180585
526 2 0.478542 0.273276 0.185126
528 4 0.461061 0.255986 0.189666
262 2 0.0309484 0.409926 0.216347
264 4 0.0106773 0.402361 0.228878
646 2 0.0933632 0.359355 0.174318
298 2 0.131561 0.341544 0.240347
299 4 0.140516 0.364134 0.234461
647 4 0.0966039 0.383409 0.180325
417 4 0.147516 0.405609 0.187361
611 4 0.257463 0.344335 0.19164
301 2 0.339156 0.419308 0.191079
302 4 0.361688 0.419729 0.201909
643 2 0.446271 0.373653 0.206206
644 4 0.436149 0.384171 0.226506
645 4 0.456393 0.363134 0.185906
263 4 0.0512195 0.417491 0.203816
2618 4 0.0022553 0.478389 0.200287
415 2 0.147531 0.428363 0.176996
291 4 0.189459 0.443511 0.176086
289 2 0.208188 0.44323 0.192649
290 4 0.226916 0.442949 0.209213
768 4 0.230455 0.473626 0.218064
303 4 0.316624 0.418888 0.180248
767 4 0.280346 0.475888 0.215516
766 2 0.255401 0.474757 0.21679
638 4 0.276485 0.453298 0.150352
229 2 0.387047 0.486624 0.246612
231 4 0.380797 0.462439 0.247692
1568 4 0.492565 0.519005 0.207769
232 2 0.00575022 0.049594 0.273279
233 4 0.0230801 0.0321502 0.277814
1402 2 0.077374 0.0104342 0.280252
1464 4 0.13332 0.0126871 0.290044
1403 4 0.0978765 0.021345 0.270991
730 2 0.156123 0.0817638 0.316026
731 4 0.169215 0.0875523 0.295525
688 2 0.226481 0.00396365 0.258945
690 4 0.222206 0.999425 0.283159
1699 2 0.251515 0.999051 0.319791
1700 4 0.264254 0.994554 0.298752
744 4 0.435769 0.0290735 0.239318
478 2 0.47781 0.0299048 0.314793
480 4 0.47801 0.00842736 0.301992
351 4 0.434193 0.0725587 0.303134
479 4 0.47761 0.0513823 0.327593
2756 4 0.00257575 0.096952 0.321189
529 2 0.0367708 0.144629 0.27648
530 4 0.0591036 0.155217 0.280263
531 4 0.014438 0.13404 0.272696
546 4 0.180405 0.143054 0.25808
722 4 0.173765 0.124568 0.259174
249 4 0.218942 0.124701 0.297472
247 2 0.230861 0.105123 0.28748
403 2 0.220502 0.160298 0.305916
404 4 0.220505 0.136686 0.314141
29 3 0.304518 0.123955 0.24985
248 4 0.242779 0.0855456 0.277489
631 2 0.34465 0.101591 0.30094
632 4 0.33538 0.0918087 0.279879
633 4 0.35392 0.111373 0.322001
331 2 0.457051 0.137855 0.259199
332 4 0.478245 0.151091 0.258303
333 4 0.435857 0.124619 0.260095
349 2 0.447237 0.0897027 0.315827
350 4 0.460281 0.106847 0.32852
444 4 0.0318258 0.235725 0.283761
393 4 0.0988889 0.206696 0.271968
544 2 0.17524 0.167465 0.256475
545 4 0.170076 0.191877 0.25487
405 4 0.220498 0.18391 0.297691
706 2 0.326558 0.196477 0.307604
708 4 0.317758 0.186675 0.328856
707 4 0.335358 0.206279 0.286351
420 4 0.434402 0.238346 0.271547
418 2 0.4366 0.24149 0.296255
419 4 0.438798 0.244635 0.320962
522 4 0.479969 0.216946 0.247602
762 4 0.448848 0.177094 0.271914
761 4 0.473669 0.195591 0.311189
760 2 0.461258 0.186343 0.291551
443 4 0.996761 0.271371 0.284455
748 2 0.0806409 0.280881 0.267789
750 4 0.0646443 0.263557 0.276105
442 2 0.0142931 0.253548 0.284108
366 4 0.0249032 0.328731 0.270132
390 4 0.0923378 0.256321 0.328774
749 4 0.0966375 0.298206 0.259474
388 2 0.112961 0.270372 0.327212
389 4 0.133584 0.284423 0.32565
677 4 0.152087 0.323433 0.314514
400 2 0.201725 0.265511 0.320946
402 4 0.222144 0.279325 0.32512
401 4 0.181306 0.251698 0.316772
308 4 0.317897 0.271939 0.247185
496 2 0.301207 0.282618 0.288051
497 4 0.307392 0.262684 0.30182
498 4 0.295022 0.302552 0.274283
543 4 0.402607 0.317221 0.296504
615 4 0.362154 0.301131 0.330204
613 2 0.371602 0.32202 0.320227
541 2 0.425139 0.308644 0.303128
542 4 0.447672 0.300066 0.309753
364 2 0.0150029 0.345053 0.28628
365 4 0.00510264 0.361376 0.302427
601 2 0.0695491 0.389207 0.298039
602 4 0.0504805 0.403281 0.290072
603 4 0.0886178 0.375133 0.306006
734 4 0.162544 0.368156 0.254465
735 4 0.187236 0.357095 0.29652
733 2 0.17489 0.362626 0.275493
729 4 0.364207 0.36285 0.247057
727 2 0.352843 0.38064 0.260457
728 4 0.341479 0.398431 0.273856
614 4 0.38105 0.342909 0.310249
434 4 0.340778 0.395889 0.331027
447 4 0.43481 0.381625 0.247041
445 2 0.440715 0.385117 0.271085
446 4 0.44662 0.388608 0.295129
777 4 0.0575424 0.472584 0.317482
775 2 0.0813568 0.469673 0.324523
776 4 0.105171 0.466761 0.331564
414 4 0.14796 0.4627 0.282479
412 2 0.162842 0.46983 0.301264
413 4 0.177723 0.476961 0.320049
436 2 0.298727 0.432132 0.287943
437 4 0.312175 0.433335 0.266899
438 4 0.285279 0.430929 0.308988
713 4 0.404362 0.464121 0.300924
712 2 0.428258 0.469178 0.295578
714 4 0.452155 0.474235 0.290231
119 3 0.491902 0.43149 0.320708
316 2 0.0317909 0.0668224 0.357242
317 4 0.0116048 0.0650271 0.371887
318 4 0.051977 0.0686178 0.342597
732 4 0.143031 0.0759753 0.336527
427 2 0.0898466 0.0190049 0.36405
428 4 0.0767862 0.0298282 0.38242
429 4 0.102907 0.00818163 0.34568
606 4 0.168762 0.0335662 0.389847
441 4 0.22955 0.0158301 0.399123
604 2 0.179387 0.0488166 0.373122
605 4 0.190011 0.064067 0.356397
439 2 0.254186 0.0168319 0.403279
698 4 0.377895 0.0426425 0.343563
697 2 0.360208 0.0268243 0.351445
699 4 0.342521 0.0110061 0.359327
256 2 0.42978 0.0486715 0.36543
258 4 0.428525 0.0307695 0.382841
257 4 0.431035 0.0665735 0.34802
398 4 0.06339 0.124848 0.332497
397 2 0.0870463 0.12127 0.33976
399 4 0.110703 0.117693 0.347024
600 4 0.16194 0.161714 0.33303
598 2 0.173797 0.158096 0.354744
599 4 0.185653 0.154477 0.376458
682 2 0.286394 0.0920662 0.383063
683 4 0.303105 0.0797574 0.36912
684 4 0.269682 0.104375 0.397006
466 2 0.350665 0.149778 0.412164
467 4 0.368423 0.145114 0.39519
451 2 0.46933 0.144328 0.364656
452 4 0.492326 0.14188 0.355149
453 4 0.446334 0.146777 0.374162
514 2 0.437227 0.151608 0.409791
515 4 0.432492 0.156424 0.385717
2654 4 0.0194493 0.201756 0.365021
474 4 0.237854 0.170677 0.362018
274 2 0.225313 0.244311 0.391021
276 4 0.246441 0.235453 0.401036
472 2 0.25989 0.175883 0.351412
473 4 0.281927 0.181089 0.340807
488 4 0.290687 0.220751 0.384818
715 2 0.361079 0.233261 0.361263
716 4 0.348342 0.214301 0.35109
267 4 0.348826 0.24837 0.413804
617 4 0.0843636 0.316268 0.349905
616 2 0.0766673 0.320223 0.373364
676 2 0.1438 0.326824 0.33786
275 4 0.204185 0.25317 0.381007
510 4 0.207791 0.341638 0.347767
375 4 0.18618 0.303101 0.394424
376 2 0.294153 0.290839 0.354268
377 4 0.310772 0.272158 0.354152
378 4 0.277534 0.30952 0.354384
717 4 0.373815 0.25222 0.371437
268 2 0.48125 0.281065 0.391188
269 4 0.481489 0.25769 0.382314
270 4 0.48101 0.304439 0.400063
618 4 0.068971 0.324177 0.396823
2927 4 0.0189089 0.369562 0.372184
548 4 0.0665195 0.418391 0.351889
408 4 0.0650776 0.391299 0.404103
406 2 0.0735795 0.399988 0.382254
678 4 0.135514 0.330216 0.361205
407 4 0.0820814 0.408677 0.360405
509 4 0.256414 0.331741 0.341551
508 2 0.232103 0.33669 0.344659
502 2 0.217819 0.400919 0.3979
504 4 0.206491 0.380337 0.40646
435 4 0.293666 0.396001 0.347795
433 2 0.317222 0.395945 0.339411
336 4 0.358094 0.381516 0.403962
561 4 0.431249 0.352393 0.397821
751 2 0.436707 0.405891 0.378683
752 4 0.444469 0.383193 0.385733
2925 4 0.476587 0.349835 0.390365
547 2 0.0454844 0.43171 0.349586
549 4 0.0244494 0.445029 0.347283
499 2 0.117353 0.471265 0.371269
500 4 0.133135 0.455644 0.382763
501 4 0.101571 0.486886 0.359776
1557 4 0.230752 0.493613 0.388173
503 4 0.229147 0.4215 0.38934
5 3 0.319883 0.462895 0.352337
1 1 0.334101 0.468692 0.369157
4 3 0.340661 0.449759 0.380857
2 3 0.323325 0.482995 0.383595
3 3 0.352713 0.479458 0.360433
594 4 0.385729 0.484767 0.347184
586 2 0.408702 0.446852 0.424332
588 4 0.389505 0.451171 0.408904
587 4 0.427898 0.442533 0.439759
753 4 0.428945 0.42859 0.371632
592 2 0.40894 0.477725 0.353253
593 4 0.432151 0.470684 0.359323
718 2 0.0495244 0.0690009 0.464119
719 4 0.0306154 0.0781611 0.477673
720 4 0.0684334 0.0598408 0.450565
367 2 0.118331 0.0640039 0.460967
369 4 0.136497 0.0555195 0.475907
368 4 0.100165 0.0724883 0.446027
342 4 0.176089 0.0594533 0.460317
340 2 0.179425 0.0423492 0.478248
440 4 0.278821 0.0178338 0.407436
430 2 0.320232 0.0802987 0.50476
724 2 0.323564 0.0728963 0.44403
726 4 0.30541 0.077426 0.427445
424 2 0.386095 0.0361632 0.42855
425 4 0.371792 0.0156965 0.429861
426 4 0.400398 0.05663 0.427238
725 4 0.341719 0.0683666 0.460615
457 2 0.0082543 0.159203 0.436467
458 4 0.0141331 0.139944 0.451291
471 4 0.989496 0.160757 0.485551
687 4 0.152989 0.154169 0.437568
1152 4 0.171361 0.0940903 0.468871
938 4 0.0753542 0.140528 0.499048
321 4 0.233989 0.132134 0.418331
319 2 0.257075 0.123528 0.414074
1150 2 0.183218 0.102663 0.489147
1182 4 0.25436 0.0924781 0.507659
320 4 0.280162 0.114922 0.409817
468 4 0.332908 0.154441 0.429138
431 4 0.339895 0.0957426 0.50467
574 2 0.377053 0.162509 0.464237
576 4 0.374131 0.142009 0.478251
642 4 0.47202 0.102848 0.480155
516 4 0.441963 0.146793 0.433865
2880 4 0.488768 0.0942403 0.473433
640 2 0.464552 0.115331 0.500492
459 4 0.00237553 0.178461 0.421644
469 2 0.00557432 0.17925 0.490516
470 4 0.0216525 0.197744 0.495481
260 4 0.0753055 0.212166 0.438034
261 4 0.109176 0.19818 0.472062
259 2 0.0922406 0.205173 0.455048
1035 4 0.118542 0.203273 0.489691
685 2 0.175184 0.161508 0.428697
686 4 0.197379 0.168848 0.419826
857 4 0.222734 0.223117 0.508431
411 4 0.26217 0.187747 0.481105
409 2 0.281148 0.204027 0.481125
410 4 0.300125 0.220307 0.481144
487 2 0.291846 0.231002 0.407594
489 4 0.293004 0.241254 0.43037
575 4 0.379976 0.183008 0.450222
872 4 0.421087 0.244197 0.494055
304 2 0.489736 0.208779 0.425355
305 4 0.479818 0.186853 0.418569
346 2 0.0575068 0.28884 0.416596
348 4 0.0444876 0.273318 0.43125
347 4 0.070526 0.304363 0.401942
327 4 0.105071 0.308761 0.467545
694 2 0.107292 0.247549 0.491133
696 4 0.115678 0.267099 0.477993
6 1 0.16159 0.329075 0.491415
9 3 0.144267 0.313967 0.488242
325 2 0.102119 0.320282 0.445551
373 2 0.192719 0.302151 0.418538
374 4 0.199258 0.301202 0.442653
10 3 0.173344 0.331595 0.472072
651 4 0.267255 0.259461 0.488403
649 2 0.265755 0.283783 0.4828
650 4 0.264254 0.308104 0.477198
265 2 0.357357 0.268784 0.425453
266 4 0.365887 0.289197 0.437101
583 2 0.463281 0.315358 0.477389
584 4 0.474459 0.302242 0.459274
585 4 0.452102 0.328475 0.495504
681 4 0.0305144 0.410984 0.44679
326 4 0.0991657 0.331803 0.423557
7 3 0.152713 0.349379 0.497586
773 4 0.224866 0.393063 0.490139
709 2 0.190419 0.389798 0.452972
710 4 0.200341 0.410068 0.442208
711 4 0.180497 0.369528 0.463736
772 2 0.245326 0.388706 0.503835
334 2 0.347916 0.379503 0.426711
238 2 0.368563 0.371253 0.479376
239 4 0.38006 0.370146 0.501552
240 4 0.357066 0.37236 0.4572
335 4 0.337738 0.37749 0.44946
559 2 0.448844 0.3606 0.413577
560 4 0.46644 0.368807 0.429332
926 4 0.448135 0.402007 0.495102
1383 4 0.0356682 0.492403 0.452731
680 4 0.0572438 0.44329 0.41954
679 2 0.0438791 0.427137 0.433165
538 2 0.0767323 0.499763 0.496464
539 4 0.0596582 0.482153 0.501317
568 2 0.176698 0.462709 0.420256
569 4 0.152581 0.469266 0.41951
383 4 0.0933244 0.438034 0.455858
382 2 0.0869151 0.425662 0.476619
384 4 0.0805058 0.41329 0.497381
635 4 0.243762 0.465772 0.482599
570 4 0.200815 0.456152 0.421003
634 2 0.239726 0.458562 0.459
669 4 0.284016 0.432499 0.459035
667 2 0.295892 0.425827 0.438068
636 4 0.235691 0.451352 0.435401
668 4 0.307769 0.419155 0.417101
1401 4 0.343642 0.501904 0.426098
1332 4 0.505046 0.500964 0.485693
663 4 0.428366 0.495078 0.497498
1126 2 0.0473507 0.0533803 0.530943
1127 4 0.0516635 0.0299362 0.523396
1128 4 0.0430378 0.0768244 0.538489
2238 4 0.0457157 0.990836 0.519487
1057 2 0.151017 0.0605812 0.582775
1058 4 0.163383 0.0670715 0.562035
1181 4 0.212041 0.0660822 0.511281
2430 4 0.196669 0.0183785 0.508738
1180 2 0.2332 0.0792801 0.50947
341 4 0.182761 0.0252452 0.496178
961 2 0.291541 0.0345714 0.518555
963 4 0.30691 0.0542623 0.519671
962 4 0.276173 0.0148805 0.517438
1031 4 0.241959 0.0660749 0.593765
432 4 0.300568 0.0648548 0.50485
841 2 0.380314 0.0771135 0.534038
843 4 0.359834 0.0641904 0.540264
1217 4 0.419857 0.0405462 0.568561
3008 4 0.494689 0.0578195 0.565482
1060 2 0.49025 0.0137001 0.523573
1062 4 0.479117 0.0321925 0.510953
937 2 0.094727 0.132762 0.512816
939 4 0.1141 0.124995 0.526584
1154 4 0.152236 0.132371 0.579728
1151 4 0.195075 0.111235 0.509422
1030 2 0.246377 0.0849368 0.577957
842 4 0.400793 0.0900367 0.527812
899 4 0.347694 0.139171 0.529923
641 4 0.457084 0.127813 0.520829
3159 4 0.504758 0.153677 0.546173
877 2 0.0728663 0.227447 0.580432
878 4 0.0571769 0.244682 0.571378
1200 4 0.981897 0.214765 0.57362
1033 2 0.124456 0.187356 0.508046
1034 4 0.130369 0.17144 0.5264
695 4 0.0989056 0.227999 0.504273
879 4 0.0885557 0.210211 0.589485
856 2 0.21657 0.215379 0.531394
858 4 0.210405 0.207641 0.554357
1221 4 0.177797 0.181505 0.571075
898 2 0.345286 0.163821 0.526493
900 4 0.342877 0.188471 0.523062
871 2 0.412944 0.252296 0.516265
873 4 0.404802 0.260395 0.538475
983 4 0.029838 0.310184 0.559891
1258 2 0.152376 0.267362 0.573918
1260 4 0.128114 0.261881 0.576462
8 3 0.175638 0.321588 0.508297
1259 4 0.176638 0.272844 0.571373
790 2 0.311834 0.255952 0.577779
792 4 0.314918 0.279649 0.570423
813 4 0.307829 0.300221 0.539874
811 2 0.331173 0.29981 0.530927
812 4 0.354518 0.299399 0.521981
954 4 0.457665 0.292181 0.581797
982 2 0.0201529 0.330244 0.571248
897 4 0.174235 0.39002 0.568352
1189 2 0.24375 0.382408 0.576999
802 2 0.291319 0.350898 0.549056
803 4 0.313023 0.358408 0.558942
804 4 0.269616 0.343387 0.53917
1190 4 0.266237 0.391978 0.571709
774 4 0.265786 0.384349 0.517531
928 2 0.356198 0.379746 0.576018
929 4 0.342724 0.384278 0.555448
925 2 0.460342 0.396928 0.516324
927 4 0.472549 0.39185 0.537546
934 2 0.00165421 0.446939 0.526267
935 4 0.0127147 0.427518 0.515057
1938 4 0.0618224 0.494598 0.541555
936 4 0.990594 0.46636 0.537477
1159 2 0.16665 0.444684 0.565868
1161 4 0.164408 0.446369 0.541022
1171 2 0.225079 0.461557 0.565813
1173 4 0.200599 0.462818 0.560885
882 4 0.329932 0.48166 0.530744
1172 4 0.24956 0.460296 0.570741
880 2 0.349385 0.468424 0.539204
881 4 0.368838 0.455188 0.547664
1000 2 0.42355 0.442582 0.571044
1001 4 0.442455 0.435676 0.556209
662 4 0.472657 0.474546 0.508335
661 2 0.450512 0.484812 0.502917
1185 4 0.00594633 0.0492983 0.650401
1059 4 0.138652 0.0540909 0.603516
825 4 0.142795 0.028115 0.643608
823 2 0.160057 0.017034 0.629311
824 4 0.17732 0.00595291 0.615015
949 2 0.261971 0.0311043 0.626626
951 4 0.265168 0.036034 0.602322
950 4 0.258774 0.0261747 0.650929
1092 4 0.343078 0.0154276 0.655827
1216 2 0.408428 0.0203969 0.577973
2196 4 0.343934 0.994808 0.56369
809 4 0.459891 0.0723406 0.609774
1082 4 0.0387177 0.0936303 0.644439
1076 4 0.0249251 0.101499 0.655759
1081 2 0.0480623 0.0997915 0.62208
1083 4 0.0574069 0.105953 0.599722
1153 2 0.142049 0.12821 0.60218
1155 4 0.131861 0.124048 0.624631
1284 4 0.171499 0.0903826 0.629534
1283 4 0.209915 0.114808 0.608839
1282 2 0.190707 0.102595 0.619187
1032 4 0.250796 0.103799 0.562149
1005 4 0.32832 0.068116 0.65671
808 2 0.456016 0.0963681 0.615504
810 4 0.452141 0.120396 0.621235
852 4 0.0227005 0.157874 0.685892
1272 4 0.107142 0.209803 0.598774
1270 2 0.124898 0.20302 0.615019
1271 4 0.142655 0.196237 0.631263
1210 2 0.233149 0.187924 0.652906
1212 4 0.216543 0.180571 0.63572
1219 2 0.190249 0.176693 0.592217
1220 4 0.2027 0.171881 0.613359
796 2 0.231547 0.250444 0.612929
797 4 0.208875 0.255494 0.603672
798 4 0.254218 0.245395 0.622186
791 4 0.308749 0.232255 0.585136
1026 4 0.408474 0.213866 0.649807
1193 4 0.352178 0.184714 0.65647
904 2 0.47982 0.243042 0.592123
906 4 0.465505 0.222543 0.592229
1024 2 0.42941 0.200419 0.652263
1025 4 0.450346 0.186971 0.654718
1243 2 0.0285839 0.275304 0.637522
1244 4 0.0170296 0.272208 0.615565
1136 4 0.133468 0.347206 0.596187
946 2 0.178808 0.284838 0.639041
947 4 0.176718 0.259993 0.640934
948 4 0.180897 0.309682 0.637148
1239 4 0.295834 0.320773 0.636231
1237 2 0.310408 0.319863 0.615935
905 4 0.494136 0.263542 0.592017
952 2 0.450829 0.29689 0.605382
953 4 0.443992 0.3016 0.628967
984 4 0.0104677 0.350304 0.582604
1040 4 0.0661306 0.394472 0.630451
1039 2 0.0651125 0.408471 0.609759
3275 4 0.999037 0.407401 0.678907
1137 4 0.0927016 0.373442 0.583921
1135 2 0.113085 0.360324 0.590054
896 4 0.153668 0.375402 0.611526
1191 4 0.221264 0.372839 0.582289
895 2 0.163952 0.382711 0.589939
1028 4 0.213798 0.409027 0.673514
1238 4 0.324982 0.318953 0.595638
930 4 0.369672 0.375215 0.596587
1204 2 0.409786 0.410135 0.643075
1205 4 0.41937 0.389116 0.633509
1041 4 0.0640944 0.42247 0.589066
992 4 0.14004 0.436076 0.643774
991 2 0.118914 0.423961 0.638107
993 4 0.097788 0.411847 0.632439
1160 4 0.168891 0.442999 0.590713
1188 4 0.214262 0.487678 0.649999
889 2 0.325531 0.443703 0.601222
891 4 0.302597 0.446703 0.61072
1002 4 0.404645 0.449487 0.585879
890 4 0.348465 0.440703 0.591723
1206 4 0.400201 0.431154 0.652642
1951 2 0.352346 0.495541 0.59346
1952 4 0.370012 0.483026 0.580951
1268 4 0.474669 0.488248 0.654382
2990 4 0.00361591 0.0743117 0.717001
944 4 0.0572685 0.0647958 0.690233
943 2 0.0799458 0.0569655 0.68319
945 4 0.102623 0.0491351 0.676147
1147 2 0.209078 0.0718804 0.721567
1149 4 0.201962 0.0479136 0.721202
1090 2 0.355212 0.00480978 0.674937
1163 4 0.464054 0.0305433 0.683552
41 1 0.43726 0.0742574 0.690142
43 3 0.426501 0.0554268 0.698391
45 3 0.450779 0.0684877 0.672746
1162 2 0.48402 0.0405468 0.694798
1164 4 0.503986 0.0505504 0.706044
862 2 0.0579686 0.123114 0.730219
864 4 0.0377134 0.128918 0.716757
1075 2 0.0308247 0.114353 0.676378
863 4 0.0782237 0.11731 0.743681
1077 4 0.0367243 0.127207 0.696997
907 2 0.155493 0.150426 0.688156
909 4 0.134329 0.150202 0.674843
1148 4 0.216194 0.0958472 0.721931
1225 2 0.204035 0.12897 0.715552
1226 4 0.212883 0.112453 0.732108
1227 4 0.195187 0.145486 0.698996
908 4 0.176656 0.15065 0.701469
829 2 0.319904 0.14635 0.712917
830 4 0.324361 0.161324 0.693395
831 4 0.315447 0.131376 0.732439
1003 2 0.337639 0.0814956 0.675666
44 3 0.421611 0.0899003 0.683157
1004 4 0.346958 0.0948751 0.694622
1141 2 0.393884 0.148831 0.719039
1142 4 0.404319 0.151389 0.696461
1143 4 0.383448 0.146272 0.741616
42 3 0.450018 0.0834795 0.706915
3426 4 0.503166 0.102489 0.675417
851 4 0.0657373 0.176008 0.703772
850 2 0.0442189 0.166941 0.694832
1213 2 0.0184181 0.233067 0.741644
1179 4 0.000646746 0.260651 0.673315
1105 2 0.101565 0.198329 0.737577
1106 4 0.0971263 0.222904 0.738828
1107 4 0.106004 0.173754 0.736325
1208 4 0.0922645 0.233354 0.676248
1211 4 0.249756 0.195277 0.670091
1277 4 0.220796 0.239089 0.742055
886 2 0.297482 0.183016 0.680954
888 4 0.289566 0.204996 0.672044
887 4 0.305398 0.161035 0.689864
976 2 0.296023 0.211173 0.731958
977 4 0.306943 0.227072 0.74787
978 4 0.285103 0.195275 0.716047
1192 2 0.353262 0.203762 0.672631
1194 4 0.354347 0.222809 0.688792
1298 4 0.365533 0.218087 0.751396
1261 2 0.437377 0.224593 0.721245
1263 4 0.418708 0.221982 0.704819
1262 4 0.456046 0.227204 0.737672
1245 4 0.0401382 0.2784 0.659478
1177 2 0.0185427 0.261053 0.690772
1178 4 0.0364387 0.261455 0.70823
1209 4 0.0948157 0.283107 0.680593
1207 2 0.0935401 0.258231 0.67842
820 2 0.151278 0.294757 0.734478
821 4 0.157912 0.279007 0.716227
1276 2 0.206035 0.257243 0.750871
1063 2 0.256509 0.285794 0.703156
1065 4 0.239813 0.28566 0.684544
1064 4 0.273205 0.285928 0.721768
807 4 0.331864 0.308956 0.678629
805 2 0.331114 0.33216 0.669344
1006 2 0.368462 0.299093 0.75269
1007 4 0.391574 0.28972 0.754478
1008 4 0.345351 0.308466 0.750903
3123 4 0.484059 0.276723 0.682866
892 2 0.0550634 0.358512 0.701308
893 4 0.0742261 0.349883 0.714854
894 4 0.0359007 0.367142 0.687761
940 2 0.149591 0.389813 0.738983
942 4 0.129163 0.398261 0.750665
1067 4 0.16335 0.401219 0.706403
1066 2 0.187055 0.400402 0.698493
1068 4 0.210761 0.399585 0.690583
1027 2 0.237548 0.401228 0.674084
941 4 0.17002 0.381365 0.7273
1029 4 0.261297 0.39343 0.674653
806 4 0.330364 0.355363 0.660058
1100 4 0.470525 0.430773 0.686268
1281 4 0.0138833 0.462233 0.691849
1280 4 0.0612329 0.461836 0.707929
1279 2 0.0375581 0.462034 0.699889
1174 2 0.22222 0.496804 0.695492
1175 4 0.239364 0.48077 0.686879
1176 4 0.205077 0.512838 0.704105
1138 2 0.299094 0.430926 0.718994
1139 4 0.286834 0.414058 0.73279
1140 4 0.311355 0.447794 0.705198
1989 4 0.323155 0.495528 0.703765
1228 2 0.370509 0.465915 0.709477
1229 4 0.365933 0.485627 0.724163
1230 4 0.375086 0.446203 0.694792
1267 2 0.450189 0.485607 0.658732
1099 2 0.453586 0.440702 0.70175
1101 4 0.436648 0.450631 0.717231
1269 4 0.425709 0.482966 0.663082
1249 2 0.474757 0.492043 0.739888
1250 4 0.492929 0.479367 0.751476
1296 4 0.0114472 0.0229215 0.822628
1295 4 0.998453 0.0447528 0.779555
1294 2 0.00495024 0.0338371 0.801091
1201 2 0.107043 0.0619664 0.772756
1202 4 0.131544 0.0669513 0.772917
1203 4 0.0825418 0.0569815 0.772595
1196 4 0.132463 0.0159439 0.832583
875 4 0.212895 0.0459238 0.823463
1255 2 0.276098 0.0485306 0.801616
1256 4 0.288938 0.0505034 0.822981
1257 4 0.263259 0.0465578 0.780252
1113 4 0.410708 0.0246188 0.777309
975 4 0.363521 0.0115054 0.814865
844 2 0.502348 0.0694199 0.770831
1111 2 0.422834 0.0445699 0.786258
1112 4 0.43496 0.064521 0.795207
832 2 0.00964313 0.142534 0.787624
833 4 0.0324627 0.152726 0.788377
34 3 0.113645 0.139448 0.807214
1287 4 0.0865965 0.104117 0.840956
31 1 0.124779 0.159602 0.804337
35 3 0.129429 0.162831 0.782278
839 4 0.267588 0.110316 0.796554
838 2 0.263797 0.130459 0.810873
840 4 0.260006 0.150603 0.825192
960 4 0.309545 0.135794 0.82484
1084 2 0.352983 0.109424 0.783325