ITEM: TIMESTEP
1870000
ITEM: NUMBER OF ATOMS
4590
ITEM: BOX BOUNDS pp pp pp
-9.9985700000000008e+00 9.9985700000000008e+00
-9.9985700000000008e+00 9.9985700000000008e+00
-9.9985700000000008e+00 9.9985700000000008e+00
ITEM: ATOMS id type xs ys zs
701 4 0.0813672 0.0759877 0.0224035
465 4 0.065669 0.0659867 0.0200985
463 2 0.0482825 0.0838328 0.0179999
2575 2 0.0182409 0.00116065 0.0876549
700 2 0.102017 0.0642678 0.0302395
702 4 0.122667 0.0525479 0.0380756
566 4 0.140459 0.0599139 0.0350549
565 2 0.159446 0.0751036 0.0292288
567 4 0.178433 0.0902934 0.0234027
491 4 0.281317 0.999881 0.0379694
2264 4 0.274148 0.0162057 0.0451012
2263 2 0.268149 0.0314129 0.0261822
2265 4 0.26215 0.0466202 0.00726313
746 4 0.458823 0.0563944 0.023436
2469 4 0.469981 0.0382433 0.0252353
2467 2 0.476942 0.0199522 0.0407969
464 4 0.030896 0.101679 0.0159013
590 4 0.0233723 0.103968 0.0341769
589 2 0.0103041 0.105345 0.055449
558 4 0.3207 0.115673 0.0450005
556 2 0.319913 0.110913 0.0695343
865 2 0.368581 0.165108 0.0213154
867 4 0.368275 0.168271 0.0461161
771 4 0.47608 0.129288 0.0604332
769 2 0.482148 0.148355 0.0754275
554 4 0.0397587 0.221553 0.0513744
553 2 0.0537747 0.23044 0.032673
555 4 0.0677907 0.239328 0.0139717
837 4 0.134178 0.228323 0.0083498
835 2 0.110534 0.236297 0.00993488
836 4 0.0868889 0.244272 0.01152
738 4 0.160575 0.183638 0.0845246
573 4 0.335278 0.246364 0.0553334
666 4 0.334414 0.227206 0.0568344
461 4 0.336344 0.237164 0.0728011
664 2 0.347714 0.206639 0.0518097
665 4 0.361015 0.186072 0.0467851
1070 4 0.394217 0.224488 0.0247225
1069 2 0.399957 0.241864 0.0417605
294 4 0.0830158 0.30935 0.0445925
292 2 0.104075 0.322295 0.0408342
507 4 0.137394 0.332793 0.0540566
293 4 0.125134 0.33524 0.0370759
356 4 0.313337 0.30327 0.0407214
572 4 0.316751 0.286108 0.0312943
355 2 0.312855 0.320096 0.022233
571 2 0.326014 0.266236 0.0433138
1071 4 0.405697 0.259241 0.0587985
324 4 0.39808 0.275643 0.0503269
322 2 0.412325 0.295869 0.0539494
672 4 0.435447 0.333675 0.0627911
323 4 0.426571 0.316096 0.0575719
620 4 0.00482929 0.376969 0.0627818
647 4 0.0183438 0.363609 0.072124
505 2 0.161198 0.338377 0.0592892
483 4 0.183912 0.354797 0.0476381
506 4 0.185001 0.34396 0.0645219
481 2 0.204296 0.368051 0.0418069
609 4 0.230084 0.400213 0.0349188
482 4 0.22468 0.381305 0.0359757
607 2 0.252336 0.411251 0.0377743
357 4 0.312374 0.336922 0.00374458
957 4 0.395492 0.393643 0.00355715
670 2 0.449207 0.353954 0.0677529
280 2 0.476427 0.416212 0.0737001
281 4 0.47004 0.392048 0.0744014
671 4 0.462967 0.374232 0.0727147
551 4 0.0959953 0.435585 0.0792884
552 4 0.107204 0.482954 0.067833
1787 4 0.107288 0.500009 0.0585631
550 2 0.1016 0.459269 0.0735607
1788 4 0.122082 0.490012 0.0118521
1786 2 0.114685 0.495011 0.0352076
625 2 0.224852 0.422811 0.0857904
626 4 0.208807 0.404554 0.0916558
608 4 0.274589 0.42229 0.0406297
246 4 0.24161 0.487274 0.0324806
252 4 0.280706 0.434822 0.0268104
244 2 0.244547 0.473212 0.0529459
245 4 0.247483 0.459151 0.0734113
250 2 0.29757 0.448435 0.0143416
251 4 0.314434 0.462048 0.00187281
272 4 0.247669 0.48829 0.0140038
282 4 0.482813 0.440376 0.0729988
226 2 0.480056 0.472307 0.0460967
228 4 0.48485 0.493961 0.0345508
227 4 0.475263 0.450654 0.0576426
2576 4 0.039646 0.998169 0.100227
16 1 0.0654912 0.056831 0.135352
20 3 0.062917 0.0672726 0.115277
1806 4 0.0524818 0.0224735 0.144341
18 3 0.0487359 0.0410469 0.138272
1804 2 0.0518683 0.00427931 0.127201
19 3 0.0647759 0.0724131 0.15253
17 3 0.0858845 0.0461978 0.135802
450 4 0.15795 0.0511623 0.158752
673 2 0.120612 0.0414101 0.158928
675 4 0.0981659 0.0374673 0.148641
448 2 0.167186 0.0710155 0.146681
1661 4 0.313347 0.00626622 0.164804
652 2 0.320152 0.0409419 0.147569
654 4 0.315699 0.0163484 0.148281
653 4 0.324605 0.0655354 0.146857
486 4 0.393837 0.998186 0.121504
484 2 0.373988 0.0122017 0.115608
295 2 0.343631 0.0692096 0.104881
297 4 0.356378 0.0479934 0.108428
485 4 0.354139 0.0262174 0.109712
2625 4 0.985227 0.136166 0.138643
579 4 0.0892918 0.10169 0.104542
237 4 0.143754 0.137857 0.124415
578 4 0.125691 0.133514 0.117312
577 2 0.107491 0.117602 0.110927
476 4 0.128673 0.149768 0.12697
737 4 0.136266 0.14742 0.10898
736 2 0.14842 0.165529 0.0967524
235 2 0.163652 0.123235 0.128348
236 4 0.183549 0.108614 0.13228
693 4 0.194936 0.0937663 0.130503
449 4 0.176423 0.0908688 0.13461
691 2 0.218336 0.0944941 0.139282
692 4 0.241736 0.0952219 0.148062
582 4 0.260996 0.0950508 0.151373
557 4 0.319126 0.106153 0.094068
580 2 0.278492 0.103418 0.167154
296 4 0.330885 0.0904258 0.101334
770 4 0.488216 0.167421 0.0904218
311 4 0.44232 0.142912 0.128829
310 2 0.439831 0.164962 0.140351
339 4 0.0468836 0.198173 0.157971
337 2 0.0717048 0.198813 0.160917
475 2 0.116541 0.166911 0.14054
477 4 0.10441 0.184054 0.154109
338 4 0.0965259 0.199454 0.163863
283 2 0.324548 0.205473 0.145224
354 4 0.326976 0.242468 0.132101
285 4 0.31527 0.183375 0.152347
284 4 0.333827 0.227572 0.138101
460 2 0.337707 0.23569 0.0977239
462 4 0.339071 0.234217 0.122647
255 4 0.343538 0.242171 0.137881
254 4 0.388307 0.242282 0.160163
253 2 0.365922 0.242226 0.149022
629 4 0.428961 0.190489 0.169985
1012 2 0.493117 0.198853 0.106514
1013 4 0.482392 0.219478 0.115721
1014 4 0.503843 0.178228 0.0973074
312 4 0.437343 0.187013 0.151873
456 4 0.0776782 0.339121 0.0952681
454 2 0.101805 0.345674 0.0956133
352 2 0.312279 0.260248 0.141747
353 4 0.297582 0.278029 0.151393
754 2 0.278699 0.311879 0.143865
755 4 0.285301 0.292326 0.157981
278 4 0.279956 0.273687 0.158606
756 4 0.272097 0.331432 0.129748
763 2 0.415717 0.259289 0.17864
764 4 0.429852 0.279268 0.183767
646 2 0.0389956 0.351561 0.0794391
648 4 0.0596474 0.339512 0.0867542
455 4 0.125932 0.352227 0.0959586
612 4 0.267035 0.344073 0.115676
537 4 0.20082 0.355312 0.11463
535 2 0.195733 0.376225 0.101905
611 4 0.217362 0.345139 0.121348
610 2 0.242198 0.344606 0.118512
536 4 0.190646 0.397139 0.0891804
741 4 0.390401 0.360704 0.097143
739 2 0.391557 0.370447 0.120141
740 4 0.392713 0.38019 0.143139
15 3 0.384845 0.371428 0.159228
385 2 0.358229 0.397199 0.151677
386 4 0.382081 0.38972 0.152256
495 4 0.398967 0.396443 0.152816
11 1 0.40218 0.374474 0.17368
12 3 0.414363 0.355014 0.175107
14 3 0.416016 0.391437 0.165985
387 4 0.334378 0.404679 0.151098
2651 4 0.481987 0.376553 0.0754207
1467 4 0.00134272 0.440519 0.0917056
1465 2 0.0157285 0.459799 0.0985273
1466 4 0.0301142 0.479078 0.105349
1791 4 0.0337318 0.494185 0.118067
1789 2 0.0394581 0.504456 0.140132
242 4 0.105062 0.499048 0.0780829
637 2 0.217978 0.486127 0.150567
638 4 0.235934 0.468961 0.147727
627 4 0.240897 0.441068 0.079925
767 4 0.247747 0.457006 0.159808
639 4 0.200021 0.503294 0.153407
303 4 0.301907 0.453392 0.132787
766 2 0.269838 0.462922 0.149703
768 4 0.29193 0.468838 0.139597
301 2 0.319842 0.439119 0.142776
302 4 0.337777 0.424845 0.152765
493 2 0.407523 0.417641 0.142685
494 4 0.416078 0.438838 0.132553
660 4 0.415612 0.45825 0.138947
658 2 0.427695 0.470823 0.156866
2480 4 0.0110471 0.00970103 0.230245
1422 4 0.0236998 0.00247369 0.215976
380 4 0.0524657 0.0644545 0.166669
1505 4 0.158688 0.0491457 0.178065
674 4 0.143058 0.0453529 0.169214
1504 2 0.169653 0.0408794 0.19896
689 4 0.189155 0.0190846 0.231915
1506 4 0.180618 0.0326131 0.219856
22 3 0.3889 0.0133714 0.20586
21 1 0.399747 0.0101634 0.22589
758 4 0.420612 0.081042 0.216193
757 2 0.427411 0.0576087 0.221654
25 3 0.419635 0.021254 0.225511
759 4 0.43421 0.0341753 0.227115
350 4 0.43865 0.0158968 0.224746
349 2 0.45832 0.0144791 0.240117
379 2 0.0551658 0.0802582 0.185856
512 4 0.0466852 0.111845 0.201594
381 4 0.0578659 0.0960619 0.205043
511 2 0.0517006 0.136119 0.198308
513 4 0.056716 0.160393 0.195022
545 4 0.131251 0.171612 0.254252
723 4 0.232989 0.197481 0.235475
581 4 0.295989 0.111785 0.182935
30 3 0.296713 0.13216 0.182888
26 1 0.313588 0.141401 0.195072
29 3 0.332279 0.127668 0.194398
27 3 0.306797 0.143649 0.216935
28 3 0.318861 0.162374 0.186662
521 4 0.483287 0.139899 0.200648
520 2 0.4986 0.158153 0.208227
363 4 0.110532 0.187831 0.17166
362 4 0.134376 0.208896 0.21024
361 2 0.122454 0.198363 0.19095
372 4 0.146927 0.220002 0.201574
370 2 0.1498 0.242562 0.211964
721 2 0.216611 0.181645 0.245779
279 4 0.243578 0.246591 0.179657
628 2 0.410479 0.20718 0.167749
630 4 0.391997 0.223872 0.165514
394 2 0.0401609 0.314487 0.246616
750 4 0.0740811 0.315984 0.225382
395 4 0.0606391 0.324819 0.236662
748 2 0.0787447 0.303264 0.204367
749 4 0.0834083 0.290544 0.183352
300 4 0.144305 0.32648 0.214587
371 4 0.152673 0.265123 0.222354
277 2 0.261767 0.260139 0.169132
307 2 0.308233 0.295246 0.206636
309 4 0.30494 0.274839 0.192568
308 4 0.311525 0.315653 0.220704
497 4 0.29933 0.316205 0.236979
765 4 0.401583 0.239311 0.173514
623 4 0.432787 0.297703 0.187096
528 4 0.498977 0.311144 0.194662
622 2 0.457488 0.298873 0.190794
624 4 0.482189 0.300044 0.194491
2618 4 0.0176711 0.40586 0.233723
262 2 0.0441606 0.399229 0.208575
263 4 0.0659574 0.388541 0.202588
602 4 0.0697071 0.379562 0.220349
264 4 0.0223639 0.409917 0.214562
298 2 0.128595 0.338071 0.230208
299 4 0.112885 0.349662 0.245829
603 4 0.0989901 0.35792 0.254625
601 2 0.0843486 0.368741 0.237487
290 4 0.196112 0.367598 0.205891
289 2 0.181037 0.386297 0.212839
291 4 0.165961 0.404996 0.219787
13 3 0.394073 0.379811 0.194756
2861 4 0.45789 0.41708 0.235816
2860 2 0.469611 0.398904 0.248364
416 4 0.17002 0.422556 0.208774
415 2 0.183858 0.443282 0.210811
1430 4 0.196621 0.48102 0.221242
417 4 0.197696 0.464008 0.212847
713 4 0.350012 0.496274 0.229673
712 2 0.373633 0.504381 0.228462
659 4 0.439777 0.483396 0.174786
597 4 0.489565 0.446077 0.197136
595 2 0.47371 0.463462 0.188677
596 4 0.457855 0.480847 0.180219
231 4 0.446184 0.492241 0.190726
1568 4 0.45275 0.498002 0.172828
1799 4 0.0262166 0.0276886 0.305272
233 4 0.0196773 0.041022 0.293247
1402 2 0.0563683 0.0346868 0.289389
1403 4 0.0366849 0.0434666 0.302064
1798 2 0.0155289 0.0128492 0.322323
1404 4 0.0760517 0.025907 0.276713
23 3 0.386432 0.0183688 0.24303
633 4 0.3852 0.0440293 0.318732
631 2 0.386538 0.0597174 0.299308
257 4 0.381097 0.0503303 0.337178
351 4 0.47799 0.0130614 0.255488
743 4 0.50137 0.0305384 0.317816
744 4 0.491264 0.0182508 0.270407
742 2 0.496317 0.0243946 0.294111
399 4 0.0449612 0.108607 0.322202
397 2 0.0606838 0.127274 0.316769
398 4 0.0764064 0.145941 0.311336
392 4 0.111255 0.168145 0.25727
393 4 0.0861526 0.157225 0.299119
390 4 0.0877753 0.16044 0.318288
391 2 0.0987037 0.162685 0.278195
544 2 0.15624 0.170938 0.254766
404 4 0.201695 0.158669 0.320247
249 4 0.218153 0.146139 0.320456
247 2 0.220558 0.123884 0.331596
632 4 0.387876 0.0754055 0.279885
444 4 0.0247017 0.237608 0.261664
403 2 0.19622 0.164184 0.296482
546 4 0.181229 0.170265 0.255279
722 4 0.200233 0.16581 0.256083
405 4 0.190746 0.169699 0.272716
420 4 0.410483 0.233353 0.243497
331 2 0.455903 0.190262 0.30471
332 4 0.456971 0.204219 0.283992
418 2 0.42946 0.224465 0.257136
419 4 0.448438 0.215577 0.270776
760 2 0.491823 0.21533 0.263127
762 4 0.468244 0.214205 0.271369
333 4 0.454835 0.176304 0.325428
396 4 0.0196828 0.304156 0.25657
443 4 0.0229084 0.287359 0.266396
365 4 0.00930463 0.300287 0.272837
442 2 0.023805 0.262484 0.26403
510 4 0.242509 0.300806 0.309369
508 2 0.223146 0.315562 0.31507
400 2 0.232123 0.275882 0.276381
402 4 0.241557 0.285706 0.297349
401 4 0.222688 0.266059 0.255412
509 4 0.203783 0.330318 0.320772
345 4 0.254577 0.286073 0.31122
496 2 0.282967 0.317271 0.255855
498 4 0.266605 0.318337 0.274732
343 2 0.265878 0.266016 0.320976
344 4 0.277179 0.245959 0.330732
715 2 0.397449 0.264952 0.271886
716 4 0.393466 0.282378 0.289368
717 4 0.401432 0.247526 0.254403
542 4 0.400761 0.28396 0.308151
541 2 0.407079 0.305619 0.318926
543 4 0.413397 0.327279 0.329702
547 2 0.0324063 0.385303 0.313132
548 4 0.0200963 0.363594 0.311586
549 4 0.0447162 0.407011 0.314677
734 4 0.116765 0.356378 0.26307
733 2 0.121041 0.353407 0.287525
735 4 0.125317 0.350436 0.311981
677 4 0.138948 0.348565 0.325954
676 2 0.162685 0.343065 0.320342
435 4 0.199047 0.348536 0.325596
678 4 0.186422 0.337565 0.31473
433 2 0.209365 0.365933 0.340295
728 4 0.366391 0.390482 0.263767
727 2 0.356131 0.403796 0.282277
615 4 0.423567 0.344746 0.325722
2538 4 0.480002 0.365917 0.31478
2536 2 0.489435 0.37276 0.292658
2862 4 0.481332 0.380728 0.260912
753 4 0.482191 0.345332 0.312322
751 2 0.48188 0.34119 0.336978
777 4 0.0479935 0.414531 0.332778
775 2 0.0682262 0.428695 0.328881
776 4 0.0884589 0.442859 0.324983
414 4 0.0893106 0.45711 0.311433
412 2 0.105278 0.475439 0.31729
413 4 0.121245 0.493767 0.323147
1545 4 0.186897 0.496444 0.318111
438 4 0.322027 0.479065 0.321017
436 2 0.330053 0.456025 0.315544
729 4 0.345871 0.417111 0.300788
437 4 0.338079 0.432986 0.310071
1771 2 0.0139294 0.0079512 0.377618
1772 4 0.0255327 0.0200445 0.396173
732 4 0.0608102 0.0639227 0.366466
2238 4 0.0281091 0.0387259 0.402067
369 4 0.0645403 0.0604238 0.385581
1800 4 0.00484129 0.99801 0.339374
367 2 0.0828139 0.0481157 0.397403
368 4 0.101088 0.0358076 0.409226
1701 4 0.168768 0.0834247 0.376403
697 2 0.360288 0.0178029 0.337401
698 4 0.368551 0.038889 0.326805
256 2 0.395229 0.0566815 0.356803
258 4 0.409361 0.0630326 0.376427
426 4 0.396969 0.0621932 0.392202
424 2 0.390721 0.0544006 0.415124
479 4 0.496511 0.0417401 0.331983
478 2 0.479263 0.0591069 0.337091
480 4 0.462016 0.0764738 0.3422
318 4 0.99574 0.132626 0.3614
730 2 0.0521796 0.0835365 0.353582
317 4 0.0275314 0.108914 0.330941
458 4 0.992368 0.144587 0.377766
731 4 0.043549 0.10315 0.340698
316 2 0.0116358 0.12077 0.34617
457 2 0.998139 0.16891 0.377232
388 2 0.0961464 0.166831 0.340966
604 2 0.137313 0.0968646 0.39277
606 4 0.121944 0.0961699 0.41248
605 4 0.152682 0.0975593 0.37306
1699 2 0.18575 0.0925193 0.360464
1700 4 0.202733 0.101614 0.344525
248 4 0.222963 0.101629 0.342737
600 4 0.240801 0.144172 0.403872
683 4 0.247466 0.125628 0.397908
682 2 0.269981 0.121616 0.408014
319 2 0.3218 0.121781 0.390993
320 4 0.303394 0.110296 0.403422
684 4 0.292497 0.117604 0.41812
708 4 0.333915 0.149524 0.369112
321 4 0.340207 0.133266 0.378564
516 4 0.450936 0.1281 0.365595
575 4 0.43555 0.115892 0.370984
574 2 0.436964 0.114725 0.39592
514 2 0.457018 0.149272 0.353765
515 4 0.463099 0.170443 0.341935
389 4 0.104518 0.173221 0.363643
598 2 0.232943 0.165777 0.413703
473 4 0.232267 0.255006 0.36981
599 4 0.225084 0.187382 0.423534
378 4 0.288747 0.234179 0.339863
376 2 0.31007 0.222704 0.346098
377 4 0.331392 0.211229 0.352333
707 4 0.337859 0.199355 0.367702
474 4 0.267736 0.239842 0.401634
488 4 0.277369 0.228967 0.414333
487 2 0.277096 0.204289 0.418341
489 4 0.276822 0.17961 0.422349
472 2 0.250002 0.247424 0.385722
706 2 0.335887 0.17444 0.368407
453 4 0.467099 0.188069 0.336295
451 2 0.486934 0.193706 0.350436
347 4 0.0614465 0.318581 0.382605
618 4 0.0771931 0.310255 0.392395
346 2 0.0536395 0.33324 0.401296
275 4 0.135465 0.316428 0.367032
617 4 0.126476 0.311251 0.383972
616 2 0.101834 0.310753 0.388183
274 2 0.155545 0.303551 0.374526
374 4 0.21631 0.254839 0.380842
276 4 0.175624 0.290673 0.38202
373 2 0.19563 0.266022 0.389355
375 4 0.17495 0.277204 0.397868
266 4 0.351236 0.296591 0.419493
265 2 0.357626 0.272443 0.418378
561 4 0.497107 0.324067 0.363237
752 4 0.48157 0.337047 0.361634
408 4 0.0240334 0.339551 0.376305
406 2 0.0199139 0.348297 0.353246
407 4 0.0157944 0.357043 0.330187
434 4 0.219682 0.383331 0.354994
334 2 0.337199 0.40156 0.392189
502 2 0.27488 0.390154 0.397171
503 4 0.298432 0.398327 0.395248
336 4 0.314969 0.405054 0.403088
504 4 0.251328 0.381982 0.399094
613 2 0.422523 0.354778 0.348601
335 4 0.35943 0.398067 0.381291
240 4 0.369483 0.406496 0.397339
614 4 0.421478 0.364811 0.37148
238 2 0.385107 0.405529 0.416836
668 4 0.299234 0.465253 0.413092
669 4 0.300172 0.416923 0.400286
667 2 0.299703 0.441088 0.406689
3990 4 0.487096 0.494969 0.353552
2237 4 0.0121564 0.0523687 0.447455
2236 2 0.0201328 0.0455473 0.424761
720 4 0.0149536 0.0712035 0.449396
1782 4 0.108755 0.0194782 0.419495
1780 2 0.0987078 0.0137375 0.44166
961 2 0.266742 0.00820962 0.49698
724 2 0.30535 0.0494002 0.481017
963 4 0.288552 0.0180233 0.489687
726 4 0.308854 0.0684902 0.465254
725 4 0.301846 0.0303101 0.49678
1182 4 0.321971 0.0831653 0.463238
1579 2 0.357663 0.0132803 0.434767
1580 4 0.367765 0.0353352 0.440826
425 4 0.384473 0.046608 0.438046
2880 4 0.4483 0.0854713 0.492655
642 4 0.436498 0.0767375 0.478864
718 2 0.030365 0.0855998 0.462828
719 4 0.0457765 0.0999961 0.47626
1033 2 0.124563 0.145045 0.470398
1035 4 0.134344 0.157054 0.450769
1034 4 0.114781 0.133036 0.490027
261 4 0.144805 0.163416 0.43321
1180 2 0.315806 0.0960981 0.442746
1181 4 0.309641 0.109031 0.422254
640 2 0.438581 0.0883935 0.456842
3157 2 0.485156 0.161197 0.486466
641 4 0.440664 0.10005 0.434819
576 4 0.438378 0.113558 0.420856
306 4 0.442985 0.118903 0.439083
304 2 0.453084 0.141225 0.444077
305 4 0.463183 0.163546 0.449071
259 2 0.158038 0.182308 0.442863
694 2 0.15073 0.231272 0.475382
260 4 0.171271 0.201199 0.452515
695 4 0.166591 0.217313 0.462012
696 4 0.13487 0.245231 0.488753
687 4 0.224783 0.207893 0.426174
686 4 0.183013 0.21766 0.451876
685 2 0.203898 0.212777 0.439025
411 4 0.253576 0.213925 0.480668
409 2 0.268247 0.203062 0.497755
267 4 0.364017 0.248296 0.417264
467 4 0.359206 0.181638 0.423347
466 2 0.35831 0.206573 0.424971
468 4 0.357413 0.231507 0.426596
3158 4 0.469618 0.168518 0.468296
585 4 0.480964 0.241307 0.485496
813 4 0.216427 0.296137 0.496308
584 4 0.475782 0.290968 0.482733
583 2 0.478373 0.266138 0.484114
2456 4 0.46269 0.301773 0.493726
2812 2 0.0146096 0.347612 0.440556
2813 4 0.0385378 0.35376 0.436706
348 4 0.0458326 0.347899 0.419986
326 4 0.0507725 0.365174 0.428797
325 2 0.070374 0.36729 0.444175
935 4 0.00928657 0.344948 0.499239
10 3 0.139925 0.349095 0.465393
327 4 0.0899754 0.369405 0.459553
7 3 0.109915 0.371183 0.463298
6 1 0.128028 0.365246 0.476175
711 4 0.147161 0.402715 0.482477
8 3 0.141319 0.383971 0.479513
774 4 0.210135 0.407581 0.477349
635 4 0.210839 0.414871 0.458862
709 2 0.170555 0.406291 0.474408
772 2 0.224146 0.39886 0.496133
710 4 0.193949 0.409867 0.466339
586 2 0.392318 0.421584 0.475654
239 4 0.400731 0.404562 0.436333
588 4 0.390828 0.413259 0.452124
1383 4 0.0508934 0.468406 0.44076
1381 2 0.0614302 0.490095 0.434148
680 4 0.0518772 0.448187 0.434135
679 2 0.066658 0.438352 0.451742
568 2 0.162872 0.459818 0.489953
569 4 0.153441 0.436775 0.492242
382 2 0.120201 0.426466 0.485379
681 4 0.0814387 0.428518 0.469348
384 4 0.143787 0.419303 0.489568
383 4 0.0966141 0.433629 0.48119
636 4 0.23176 0.431229 0.416489
570 4 0.172302 0.482862 0.487663
634 2 0.221299 0.42305 0.437675
1 1 0.308158 0.490736 0.436565
5 3 0.298862 0.479663 0.454161
880 2 0.328719 0.494037 0.487121
4 3 0.315674 0.475538 0.420724
1184 4 0.998116 0.0225825 0.555845
1150 2 0.15465 0.0754906 0.541824
1151 4 0.154431 0.0776309 0.566735
342 4 0.158565 0.0548689 0.511984
1152 4 0.15487 0.0733503 0.516914
340 2 0.174924 0.0370004 0.505797
2430 4 0.192145 0.0057425 0.514255
341 4 0.191283 0.0191319 0.499611
430 2 0.321308 0.00949511 0.517569
432 4 0.302048 0.0122269 0.501859
431 4 0.340567 0.00676333 0.533278
843 4 0.347702 0.027013 0.536609
842 4 0.385499 0.0444434 0.564326
841 2 0.3666 0.0357282 0.550467
1217 4 0.401894 0.0444418 0.576552
1216 2 0.412511 0.0222111 0.580824
2879 4 0.46714 0.0497358 0.522129
2878 2 0.45772 0.0676036 0.507392
1218 4 0.423129 0.999981 0.585096
879 4 0.0846712 0.155784 0.548165
877 2 0.0599196 0.155877 0.544626
1199 4 0.0159729 0.156854 0.534541
878 4 0.0351679 0.15597 0.541087
938 4 0.102708 0.148727 0.546708
937 2 0.111253 0.136481 0.526653
939 4 0.119799 0.124235 0.506598
1272 4 0.0947835 0.153622 0.564067
3009 4 0.479941 0.0637598 0.578701
1259 4 0.0836031 0.23697 0.52713
1270 2 0.0984911 0.174905 0.576656
1260 4 0.114199 0.239686 0.487668
1258 2 0.0989011 0.238328 0.507399
1271 4 0.102199 0.196187 0.589245
898 2 0.297489 0.209907 0.542704
899 4 0.296575 0.215063 0.567153
900 4 0.298403 0.204751 0.518255
410 4 0.282917 0.192199 0.514841
791 4 0.310282 0.222856 0.579419
790 2 0.327034 0.241245 0.576889
811 2 0.237257 0.304499 0.507326
812 4 0.258086 0.312861 0.518344
650 4 0.269459 0.318656 0.533017
649 2 0.272056 0.3182 0.557881
651 4 0.274652 0.317744 0.582745
871 2 0.364922 0.265046 0.543886
872 4 0.357782 0.271036 0.567087
792 4 0.343785 0.259634 0.574359
1238 4 0.344631 0.278849 0.578978
873 4 0.372062 0.259055 0.520684
2455 2 0.477944 0.318471 0.504388
2457 4 0.493198 0.335168 0.51505
1136 4 0.113593 0.377354 0.564978
1135 2 0.137566 0.376706 0.572053
9 3 0.120421 0.357195 0.496564
773 4 0.238156 0.390139 0.514917
1190 4 0.241629 0.391315 0.533915
1189 2 0.22882 0.402272 0.552383
1191 4 0.216011 0.413229 0.57085
804 4 0.262578 0.331892 0.519769
802 2 0.257919 0.356414 0.521236
803 4 0.25326 0.380935 0.522703
930 4 0.253218 0.400805 0.521802
926 4 0.396517 0.419005 0.514858
927 4 0.421611 0.37974 0.533002
925 2 0.409064 0.399372 0.52393
1010 4 0.495258 0.349 0.529075
1009 2 0.50164 0.347103 0.553176
1161 4 0.153929 0.495198 0.569394
1172 4 0.22159 0.43086 0.575262
1159 2 0.175264 0.488667 0.580678
928 2 0.27182 0.416953 0.517517
929 4 0.290422 0.433102 0.513231
891 4 0.319683 0.492579 0.52861
1952 4 0.315057 0.475634 0.520274
881 4 0.327639 0.487404 0.511205
1951 2 0.326135 0.453399 0.523112
1953 4 0.337212 0.431164 0.52595
587 4 0.393809 0.42991 0.499183
1001 4 0.403063 0.486408 0.554785
662 4 0.415065 0.47548 0.544721
661 2 0.405464 0.456966 0.530928
1911 4 0.418403 0.477743 0.563658
663 4 0.395863 0.438452 0.517135
1909 2 0.423992 0.462322 0.58253
1332 4 0.421049 0.492698 0.551161
1330 2 0.443732 0.498226 0.542212
4085 4 0.480896 0.509735 0.544176
945 4 0.0567538 0.00330097 0.637822
1057 2 0.157639 0.0481957 0.593333
1058 4 0.157521 0.0246668 0.601792
2375 4 0.149 0.0146835 0.617561
1284 4 0.13121 0.0771075 0.657733
1059 4 0.157757 0.0717246 0.584874
950 4 0.233796 0.0322587 0.593871
949 2 0.252145 0.0353703 0.610569
951 4 0.270494 0.0384818 0.627266
1031 4 0.263987 0.0566541 0.63596
1030 2 0.272102 0.0751563 0.65069
3007 2 0.492657 0.0762722 0.59622
3008 4 0.505373 0.0887845 0.613739
808 2 0.49178 0.0782345 0.651578
1083 4 0.0458614 0.139567 0.657178
3179 4 0.0350326 0.156295 0.657852
1081 2 0.042235 0.119205 0.671229
1155 4 0.157067 0.0906418 0.580263
1153 2 0.15809 0.113832 0.589555
1154 4 0.159114 0.137023 0.598846
1221 4 0.155 0.142292 0.61657
1219 2 0.171918 0.157344 0.627171
1210 2 0.217256 0.175234 0.654476
1212 4 0.196675 0.187258 0.646922
1032 4 0.280218 0.0936586 0.665421
3178 2 0.0168655 0.170594 0.64833
1245 4 0.0825186 0.208898 0.646167
3180 4 0.998698 0.184894 0.638809
1243 2 0.086404 0.19772 0.624142
1244 4 0.0902893 0.186542 0.602116
1209 4 0.0969341 0.206439 0.660384
1220 4 0.188836 0.172397 0.637773
797 4 0.19926 0.233548 0.607163
796 2 0.195291 0.211326 0.617916
798 4 0.191322 0.189104 0.628668
857 4 0.299333 0.208675 0.585492
856 2 0.290037 0.21302 0.608293
858 4 0.280742 0.217365 0.631094
905 4 0.457338 0.247643 0.632535
3123 4 0.463607 0.236542 0.649021
3121 2 0.477445 0.216603 0.643013
3122 4 0.491284 0.196663 0.637005
983 4 0.0237587 0.299269 0.59583
982 2 0.0373662 0.316491 0.607805
984 4 0.0509738 0.333714 0.61978
3263 4 0.0490578 0.333428 0.639625
3262 2 0.0535439 0.325578 0.662937
805 2 0.306604 0.311696 0.639314
806 4 0.28717 0.322968 0.650288
947 4 0.317526 0.259188 0.666015
807 4 0.326039 0.300424 0.62834
1239 4 0.344992 0.294623 0.62643
1237 2 0.344812 0.286736 0.602704
906 4 0.451174 0.291645 0.609589
904 2 0.454256 0.269644 0.621062
952 2 0.485799 0.314307 0.597023
953 4 0.469501 0.297033 0.604844
1041 4 0.0584441 0.34781 0.631281
1039 2 0.0492299 0.370058 0.62455
1040 4 0.0400158 0.392306 0.617818
993 4 0.0468349 0.402753 0.601889
1137 4 0.161539 0.376058 0.579128
897 4 0.163549 0.396403 0.583496
895 2 0.18465 0.409813 0.583774
896 4 0.205752 0.423223 0.584053
1029 4 0.223961 0.412645 0.639352
954 4 0.502098 0.33158 0.589202
1206 4 0.483738 0.409154 0.612371
3309 4 0.487301 0.390937 0.615719
3307 2 0.49718 0.370215 0.605811
991 2 0.0369073 0.422961 0.612763
992 4 0.0269798 0.44317 0.623637
1171 2 0.218756 0.454661 0.58238
1160 4 0.196598 0.482135 0.591963
1173 4 0.215922 0.478462 0.589498
1188 4 0.188915 0.46805 0.650251
1187 4 0.209613 0.482121 0.606958
1186 2 0.199264 0.475086 0.628604
1175 4 0.179562 0.484442 0.65582
1204 2 0.462398 0.422178 0.611956
1910 4 0.42958 0.446901 0.601402
1269 4 0.424171 0.44141 0.619505
1267 2 0.424272 0.456131 0.639716
1205 4 0.441058 0.435201 0.611541
1268 4 0.424374 0.470852 0.659926
2168 4 0.41555 0.484263 0.670454
1226 4 0.166593 0.0795082 0.740858
1148 4 0.18578 0.0769861 0.740704
1203 4 0.173764 0.0624385 0.746057
1003 2 0.330309 0.0280774 0.694918
1005 4 0.317771 0.0493891 0.69863
1004 4 0.342848 0.00676565 0.691207
45 3 0.440477 0.0492385 0.69373
1162 2 0.496495 0.0593192 0.704808
42 3 0.435446 0.0824138 0.710069
41 1 0.441406 0.0717724 0.690566
1163 4 0.479333 0.0704211 0.690407
44 3 0.462997 0.0780846 0.684873
810 4 0.478224 0.0772276 0.672563
1075 2 0.0388111 0.0904565 0.720181
1076 4 0.026037 0.0976196 0.699915
1082 4 0.0386086 0.0988437 0.68528
1077 4 0.0515851 0.0832934 0.740446
1214 4 0.0313635 0.174638 0.751829
1282 2 0.128106 0.0898213 0.679038
909 4 0.107691 0.164404 0.704185
907 2 0.112542 0.140239 0.708392
908 4 0.117394 0.116075 0.712599
1283 4 0.125002 0.102535 0.700343
1227 4 0.135403 0.109071 0.715286
1225 2 0.150998 0.0942894 0.728072
1211 4 0.237836 0.163211 0.66203
888 4 0.251394 0.158465 0.675503
886 2 0.269828 0.152484 0.691301
829 2 0.331026 0.150584 0.700284
830 4 0.307684 0.149983 0.709227
887 4 0.288262 0.146503 0.707099
978 4 0.29432 0.162438 0.716466
831 4 0.354367 0.151185 0.691341
1142 4 0.375221 0.148549 0.686857
1141 2 0.390966 0.16583 0.695725
43 3 0.426642 0.0780274 0.673794
1025 4 0.46778 0.150379 0.702958
3424 2 0.480409 0.113974 0.693057
3426 4 0.478279 0.089738 0.687292
3425 4 0.482539 0.138211 0.698822
3269 4 0.484413 0.151501 0.712894
3268 2 0.491007 0.161801 0.734703
850 2 0.0690394 0.16732 0.725465
852 4 0.0473605 0.171537 0.737187
1213 2 0.0109876 0.187831 0.745834
851 4 0.0907183 0.163104 0.713742
1208 4 0.0931132 0.177541 0.701017
1207 2 0.0950237 0.19199 0.680701
1107 4 0.102424 0.177378 0.718102
1105 2 0.121291 0.19035 0.72815
1106 4 0.140157 0.203322 0.738199
1130 4 0.155303 0.210272 0.72764
1129 2 0.165816 0.223252 0.746246
976 2 0.296328 0.180681 0.733447
1193 4 0.371719 0.238891 0.702139
1194 4 0.406525 0.203013 0.703555
1192 2 0.389122 0.220952 0.702847
1143 4 0.406711 0.183111 0.704593
1262 4 0.421093 0.193398 0.711895
1261 2 0.427404 0.200868 0.734907
1024 2 0.446004 0.162658 0.703387
1026 4 0.424227 0.174937 0.703817
3264 4 0.0580301 0.317728 0.686248
779 4 0.0522262 0.298853 0.684052
778 2 0.0562462 0.276704 0.694937
780 4 0.0602663 0.254556 0.705821
893 4 0.0469555 0.310441 0.69935
892 2 0.0410579 0.326566 0.717526
1065 4 0.235929 0.314521 0.675939
1063 2 0.251201 0.297499 0.686048
946 2 0.301234 0.267713 0.682958
948 4 0.284941 0.276238 0.699901
1064 4 0.266474 0.280478 0.696157
917 4 0.271922 0.25536 0.736139
1008 4 0.44016 0.291944 0.719516
1006 2 0.446128 0.285796 0.743005
894 4 0.0351604 0.342692 0.735702
816 4 0.0394235 0.355689 0.749867
814 2 0.0582408 0.372153 0.749759
3276 4 0.0225368 0.356732 0.74018
815 4 0.0770582 0.388618 0.74965
942 4 0.0791935 0.391057 0.730597
1067 4 0.14508 0.399821 0.708868
940 2 0.102612 0.39506 0.722805
941 4 0.126031 0.399063 0.715012
1066 2 0.155461 0.412467 0.689961
1027 2 0.204644 0.415728 0.654925
1019 4 0.388945 0.408104 0.737355
1176 4 0.166332 0.472036 0.702423
1174 2 0.172947 0.478239 0.679122
1068 4 0.165841 0.425113 0.671053
1028 4 0.185326 0.418811 0.670498
1140 4 0.370785 0.456554 0.726675
1230 4 0.384373 0.426559 0.741074
1100 4 0.398778 0.422918 0.729523
1138 2 0.364457 0.466717 0.704724
1139 4 0.358129 0.47688 0.682773
3329 4 0.508668 0.460384 0.717674
1101 4 0.442358 0.447367 0.731467
1099 2 0.420568 0.435143 0.730495
3330 4 0.461962 0.448061 0.730611
1251 4 0.452297 0.45443 0.746817
3328 2 0.485315 0.454222 0.724142
1296 4 0.0212016 0.041304 0.784087
1294 2 0.00582485 0.0243936 0.773949
864 4 0.04329 0.0841057 0.75908
2049 4 0.186484 0.998177 0.76263
1201 2 0.178101 0.0379295 0.748439
1202 4 0.182438 0.0134204 0.750822
2256 4 0.201141 0.009133 0.75468
975 4 0.339019 0.042915 0.823246
2322 4 0.46151 0.0443298 0.78048
2320 2 0.462044 0.0195568 0.783826
846 4 0.472858 0.0614457 0.774208
844 2 0.482934 0.0841681 0.776919
862 2 0.0529945 0.100991 0.774762
863 4 0.0626989 0.117875 0.790443
833 4 0.0527893 0.126606 0.805457
1125 4 0.0632264 0.137057 0.79317
1123 2 0.0734773 0.159818 0.791744
832 2 0.0448568 0.11874 0.827826
34 3 0.135566 0.140642 0.831204
1149 4 0.229111 0.0955539 0.757387
1147 2 0.207446 0.08627 0.749046
1257 4 0.230846 0.10878 0.771051
919 2 0.206364 0.169159 0.829453
1255 2 0.246841 0.116595 0.788608
1256 4 0.262837 0.12441 0.806165
840 4 0.278021 0.120244 0.817571
845 4 0.493009 0.106891 0.779629
1072 2 0.0760783 0.208998 0.824338
1074 4 0.0681065 0.220631 0.844985
1124 4 0.0837283 0.182579 0.790317
1073 4 0.0840502 0.197365 0.803691
1131 4 0.17633 0.236232 0.764851
1277 4 0.170634 0.226127 0.780914
1276 2 0.184459 0.216013 0.799129
1278 4 0.198284 0.205898 0.817343
920 4 0.199479 0.193055 0.832051
977 4 0.298336 0.198924 0.750427
918 4 0.303017 0.216965 0.743863
916 2 0.287469 0.236162 0.740001
1298 4 0.311179 0.21024 0.760574
1297 2 0.322496 0.203878 0.781942
1086 4 0.343752 0.205616 0.817715
1299 4 0.333813 0.197516 0.803311
50 3 0.391699 0.207046 0.788294
49 3 0.414927 0.236085 0.794195
46 1 0.413247 0.212995 0.792647
48 3 0.42032 0.203192 0.812453
47 3 0.426734 0.20569 0.775504
1263 4 0.433716 0.208338 0.757919
1146 4 0.488721 0.180951 0.771486
1145 4 0.446254 0.207344 0.772332
1144 2 0.467488 0.194148 0.771909
1022 4 0.419964 0.184573 0.823314
3188 4 0.00564369 0.278392 0.777224
3187 2 0.0115355 0.282122 0.801235
821 4 0.151662 0.289825 0.782281
820 2 0.163032 0.267557 0.782245