ITEM: TIMESTEP
970000
ITEM: NUMBER OF ATOMS
4590
ITEM: BOX BOUNDS pp pp pp
-9.9985700000000008e+00 9.9985700000000008e+00
-9.9985700000000008e+00 9.9985700000000008e+00
-9.9985700000000008e+00 9.9985700000000008e+00
ITEM: ATOMS id type xs ys zs
464 4 0.0129791 0.0613125 0.0223132
701 4 0.0619685 0.0741555 0.0400482
567 4 0.158803 0.0649002 0.0733457
1668 4 0.0860511 0.974645 0.0632879
565 2 0.137762 0.0746685 0.0640162
566 4 0.116721 0.0844368 0.0546868
491 4 0.294496 0.0170954 0.0288392
2264 4 0.286555 0.02655 0.0133607
558 4 0.359663 0.0610808 0.0253181
556 2 0.359368 0.049025 0.0472213
557 4 0.359073 0.0369692 0.0691244
745 2 0.474898 0.0568476 0.00774217
746 4 0.482634 0.0533304 0.0312575
2467 2 0.492967 0.0109975 0.0416441
2469 4 0.488306 0.0354686 0.0394959
463 2 0.03506 0.0730421 0.0224803
465 4 0.0571409 0.0847718 0.0226474
589 2 0.0074585 0.134087 0.0796735
590 4 0.0230677 0.122029 0.0643065
554 4 0.0605577 0.165999 0.00336592
700 2 0.0823284 0.0784042 0.0539264
423 4 0.0977002 0.106966 0.999069
421 2 0.104081 0.128388 0.0102731
702 4 0.102688 0.082653 0.0678045
422 4 0.110463 0.149811 0.0214773
359 4 0.261543 0.140338 0.0136676
770 4 0.440869 0.148289 0.0763247
553 2 0.0650378 0.18983 0.00946567
836 4 0.0761874 0.222891 0.0312945
555 4 0.0695179 0.213661 0.0155654
835 2 0.0957471 0.238077 0.0278316
666 4 0.328427 0.222421 0.0307357
664 2 0.332226 0.216196 0.00681945
573 4 0.314766 0.229572 0.0431665
461 4 0.327985 0.216014 0.0487124
460 2 0.32697 0.214534 0.0736515
769 2 0.433738 0.171287 0.0695838
1012 2 0.48513 0.203544 0.0404235
771 4 0.426607 0.194284 0.0628429
1014 4 0.472427 0.212473 0.0600211
1013 4 0.497834 0.194615 0.0208259
837 4 0.115307 0.253262 0.0243688
915 4 0.129438 0.254562 0.00973197
292 2 0.112591 0.293264 0.0593349
294 4 0.0938914 0.294674 0.0427971
507 4 0.150411 0.288471 0.0727343
293 4 0.131291 0.291855 0.0758728
505 2 0.17538 0.28719 0.0724328
481 2 0.22029 0.324215 0.0689613
506 4 0.200348 0.285909 0.0721313
483 4 0.208839 0.303877 0.0779295
482 4 0.231741 0.344552 0.0599932
355 2 0.283521 0.303717 0.0164043
571 2 0.308816 0.253422 0.0385906
356 4 0.304701 0.296157 0.0273336
572 4 0.302866 0.277273 0.0340147
1069 2 0.416464 0.247264 0.0373882
1070 4 0.407676 0.242186 0.0145372
957 4 0.367649 0.309335 0.019034
1071 4 0.425252 0.252342 0.0602392
324 4 0.431554 0.27066 0.0592296
322 2 0.444569 0.289643 0.0689978
672 4 0.45322 0.319174 0.0622863
323 4 0.457584 0.308626 0.078766
620 4 0.0182063 0.357951 0.0764041
455 4 0.109076 0.384864 0.089786
609 4 0.245117 0.355257 0.0693347
252 4 0.279653 0.40415 0.0500643
608 4 0.279641 0.385042 0.0488
607 2 0.262379 0.37015 0.0590673
670 2 0.465586 0.340262 0.0675406
671 4 0.477951 0.361349 0.0727949
281 4 0.470872 0.380835 0.0749567
280 2 0.486693 0.394435 0.0611744
551 4 0.0707146 0.440397 0.0674476
550 2 0.0867184 0.459499 0.0653976
552 4 0.102722 0.4786 0.0633475
1787 4 0.0999935 0.497816 0.0609451
242 4 0.115775 0.491853 0.0686906
241 2 0.139283 0.494506 0.0767855
250 2 0.289568 0.425848 0.0425762
244 2 0.257863 0.468854 0.0634868
251 4 0.299482 0.447547 0.0350882
271 2 0.272534 0.479732 0.009708
246 4 0.262655 0.487796 0.0478849
272 4 0.266232 0.493128 0.029858
245 4 0.253071 0.449912 0.0790886
525 4 0.335601 0.504124 0.0622414
226 2 0.478493 0.468116 0.0547666
228 4 0.45841 0.455621 0.0628736
563 4 0.443583 0.473333 0.0141581
562 2 0.443277 0.496847 0.00566278
2576 4 0.0104016 0.0323453 0.093712
16 1 0.0533333 0.0633875 0.163808
17 3 0.0702387 0.0720622 0.150842
1804 2 0.0716999 0.0101515 0.142079
20 3 0.0357405 0.0578276 0.150457
1667 4 0.0848944 0.00743341 0.101028
1666 2 0.0854728 0.991039 0.0821578
448 2 0.181451 0.0777362 0.148654
450 4 0.178221 0.0535015 0.153891
1505 4 0.171752 0.0384868 0.165921
652 2 0.307096 0.0184335 0.135164
653 4 0.294016 0.0352947 0.122134
296 4 0.360875 0.0451701 0.0878302
295 2 0.374238 0.0326184 0.104832
297 4 0.387601 0.0200667 0.121834
485 4 0.377275 0.00364667 0.118145
579 4 0.104326 0.0939291 0.161135
237 4 0.135838 0.139667 0.164932
235 2 0.157347 0.129241 0.157595
236 4 0.178856 0.118815 0.150257
693 4 0.197165 0.113276 0.153413
449 4 0.184682 0.101971 0.143418
284 4 0.277436 0.156145 0.169298
312 4 0.443303 0.13918 0.153958
337 2 0.0551723 0.206751 0.153619
339 4 0.0309025 0.200847 0.152477
338 4 0.0794421 0.212654 0.15476
476 4 0.133321 0.204047 0.122004
475 2 0.115458 0.204621 0.13949
477 4 0.0975952 0.205194 0.156976
737 4 0.145975 0.214334 0.132546
738 4 0.193646 0.226926 0.124199
736 2 0.169811 0.22063 0.128373
283 2 0.282968 0.169145 0.148668
285 4 0.2885 0.182144 0.128039
255 4 0.33244 0.199339 0.11154
462 4 0.325955 0.213054 0.0985906
254 4 0.375892 0.203554 0.13593
253 2 0.354166 0.201446 0.123735
630 4 0.390362 0.211411 0.14681
628 2 0.410502 0.214352 0.132286
518 4 0.486011 0.254464 0.140766
629 4 0.430641 0.217294 0.117763
352 2 0.31689 0.277322 0.127281
353 4 0.294445 0.280854 0.137719
754 2 0.286218 0.321424 0.149037
755 4 0.292993 0.297371 0.148175
278 4 0.295553 0.279589 0.156651
354 4 0.339335 0.273791 0.116843
2895 4 0.498509 0.255737 0.155697
519 4 0.473993 0.291958 0.109937
517 2 0.480002 0.273211 0.125351
647 4 0.0163816 0.35971 0.0972896
646 2 0.0384837 0.351206 0.105312
648 4 0.0605858 0.342702 0.113335
456 4 0.0766879 0.352727 0.110253
454 2 0.0928819 0.368795 0.10002
537 4 0.217474 0.375959 0.153373
535 2 0.201135 0.369215 0.135689
536 4 0.184796 0.362471 0.118005
611 4 0.232655 0.373494 0.139667
756 4 0.279444 0.345477 0.149899
612 4 0.280743 0.365477 0.150802
610 2 0.256699 0.369486 0.145235
387 4 0.328098 0.389409 0.156063
741 4 0.365449 0.349075 0.0768932
739 2 0.368178 0.355831 0.100812
740 4 0.370907 0.362586 0.12473
15 3 0.38589 0.356996 0.135907
385 2 0.349008 0.377251 0.149728
386 4 0.369919 0.365093 0.143394
11 1 0.405544 0.364189 0.144888
14 3 0.41028 0.385641 0.137417
495 4 0.412302 0.404614 0.142503
12 3 0.422492 0.350105 0.13829
2651 4 0.496515 0.366751 0.0798647
1467 4 0.0163819 0.459708 0.113004
1465 2 0.0289218 0.474743 0.128557
1466 4 0.0414616 0.489778 0.144109
243 4 0.162791 0.497158 0.0848804
625 2 0.219796 0.460705 0.106119
626 4 0.198858 0.466928 0.118286
627 4 0.240735 0.454482 0.0939528
638 4 0.24721 0.500253 0.157436
523 2 0.345714 0.483993 0.0730885
524 4 0.355826 0.463862 0.0839356
493 2 0.404233 0.427832 0.147088
660 4 0.3992 0.466118 0.140073
494 4 0.396164 0.451049 0.151673
658 2 0.408091 0.487249 0.150055
1673 4 0.442624 0.497025 0.104357
18 3 0.0612196 0.0445228 0.174777
2480 4 0.0190559 0.0226656 0.187643
19 3 0.0467827 0.0793897 0.179281
380 4 0.0346184 0.0810624 0.194779
1806 4 0.0715323 0.0104169 0.167081
673 2 0.130156 0.070405 0.194095
674 4 0.121139 0.0752067 0.216917
675 4 0.139173 0.0656032 0.171274
1506 4 0.18103 0.0184701 0.210798
1504 2 0.176391 0.0284785 0.18836
689 4 0.193848 0.00760401 0.199248
21 1 0.396773 0.0142721 0.239808
25 3 0.407441 0.0252654 0.222956
759 4 0.411201 0.0434355 0.217731
757 2 0.396705 0.0595811 0.205307
22 3 0.37423 0.018707 0.238671
758 4 0.382208 0.0757267 0.192883
744 4 0.469569 0.00947213 0.238063
351 4 0.468551 0.0289483 0.235162
349 2 0.448441 0.0416377 0.227432
350 4 0.428331 0.054327 0.219702
512 4 0.0354113 0.150295 0.196615
379 2 0.0371383 0.105937 0.194481
381 4 0.0396583 0.130811 0.194184
511 2 0.0566173 0.156039 0.208552
578 4 0.106386 0.139436 0.181765
577 2 0.105356 0.116683 0.17145
546 4 0.157907 0.153894 0.253353
691 2 0.210669 0.121436 0.17281
692 4 0.224173 0.129595 0.192207
723 4 0.20645 0.162202 0.203992
721 2 0.188388 0.158733 0.220931
582 4 0.244211 0.126919 0.194681
580 2 0.264587 0.116948 0.205197
581 4 0.284962 0.106977 0.215713
30 3 0.282881 0.102376 0.236866
26 1 0.305272 0.103165 0.240948
28 3 0.316541 0.0895176 0.225943
27 3 0.312689 0.124785 0.238354
310 2 0.436523 0.136616 0.177888
311 4 0.429743 0.134052 0.201818
513 4 0.0778233 0.161784 0.220488
363 4 0.0872875 0.211768 0.172344
362 4 0.114626 0.238431 0.204631
361 2 0.100957 0.225099 0.188488
372 4 0.134125 0.229523 0.207773
370 2 0.157139 0.227641 0.217366
722 4 0.170327 0.155265 0.23787
371 4 0.180152 0.225759 0.226959
279 4 0.275954 0.248095 0.190188
765 4 0.387093 0.216679 0.165108
763 2 0.387712 0.239507 0.175289
308 4 0.345584 0.238324 0.220578
520 2 0.496412 0.205363 0.237331
521 4 0.484312 0.22419 0.24848
395 4 0.0375364 0.285898 0.210742
750 4 0.0583172 0.281624 0.214576
748 2 0.06383 0.286421 0.190664
749 4 0.0693428 0.291217 0.166752
394 2 0.0243757 0.283137 0.231822
277 2 0.285753 0.263842 0.17342
309 4 0.325693 0.281404 0.204794
307 2 0.335638 0.259864 0.212686
764 4 0.38833 0.262336 0.18547
623 4 0.392316 0.280432 0.190355
622 2 0.415319 0.289978 0.18814
624 4 0.438322 0.299525 0.185926
528 4 0.456866 0.293731 0.188563
527 4 0.494489 0.264182 0.174
526 2 0.475677 0.278957 0.181282
262 2 0.0658439 0.409278 0.212587
264 4 0.0575251 0.40795 0.189045
263 4 0.0741627 0.410606 0.236128
300 4 0.132983 0.327408 0.239807
298 2 0.135291 0.352185 0.242238
603 4 0.137621 0.395695 0.250862
299 4 0.1376 0.376963 0.244669
290 4 0.201167 0.392055 0.222706
289 2 0.194764 0.415305 0.216101
302 4 0.312076 0.383423 0.167006
301 2 0.306585 0.407156 0.172641
13 3 0.404208 0.363983 0.168052
645 4 0.463585 0.407521 0.172828
643 2 0.47493 0.393003 0.18973
644 4 0.486276 0.378485 0.206632
447 4 0.473254 0.374403 0.221258
445 2 0.492171 0.3673 0.235985
417 4 0.179879 0.492086 0.205466
415 2 0.17586 0.468446 0.212551
291 4 0.188361 0.438555 0.209497
416 4 0.171841 0.444807 0.219637
767 4 0.260398 0.484921 0.161701
303 4 0.301094 0.43089 0.178276
766 2 0.274019 0.465159 0.168709
768 4 0.28764 0.445397 0.175718
597 4 0.458216 0.426636 0.176914
595 2 0.465886 0.450293 0.17433
596 4 0.473556 0.473951 0.171747
1568 4 0.476337 0.491608 0.18172
2861 4 0.453203 0.455366 0.249405
1799 4 0.0326659 0.0236115 0.315616
233 4 0.0301862 0.0251177 0.296466
1402 2 0.0638328 0.0281325 0.290697
1403 4 0.0448628 0.0346785 0.305612
232 2 0.00778655 0.0330504 0.288687
1404 4 0.0828029 0.0215865 0.275782
1699 2 0.21342 0.0573655 0.301958
1701 4 0.198067 0.0389744 0.294801
23 3 0.404818 0.0215228 0.260329
1516 2 0.373356 0.00607197 0.29409
697 2 0.384181 0.0522448 0.321626
699 4 0.393779 0.0387478 0.302894
1518 4 0.375987 0.0306704 0.29772
742 2 0.483801 0.00826113 0.258586
478 2 0.466183 0.0429859 0.322732
479 4 0.472716 0.022048 0.310728
480 4 0.459649 0.0639238 0.334736
545 4 0.110416 0.162099 0.266696
398 4 0.0678804 0.137514 0.316656
544 2 0.134161 0.157997 0.260025
1700 4 0.228773 0.0757566 0.309116
248 4 0.223224 0.0950725 0.307368
249 4 0.200397 0.139527 0.305515
247 2 0.21181 0.1173 0.306441
404 4 0.199789 0.157395 0.297355
403 2 0.187171 0.160839 0.276045
405 4 0.174553 0.164283 0.254736
29 3 0.309603 0.0963067 0.262688
632 4 0.338377 0.117298 0.331135
631 2 0.356732 0.101147 0.336367
333 4 0.446528 0.115335 0.311565
331 2 0.454578 0.138894 0.309252
332 4 0.462629 0.162453 0.306939
393 4 0.0884728 0.208869 0.300696
444 4 0.0251646 0.255813 0.309191
392 4 0.116348 0.18061 0.270281
391 2 0.102411 0.19474 0.285488
390 4 0.103923 0.21502 0.312388
378 4 0.281353 0.2162 0.325586
376 2 0.303446 0.204493 0.325409
707 4 0.345344 0.197431 0.321376
377 4 0.325539 0.192787 0.325232
420 4 0.42171 0.222689 0.324024
418 2 0.426275 0.198283 0.321074
419 4 0.430841 0.173878 0.318124
760 2 0.480541 0.189364 0.288318
762 4 0.468351 0.167557 0.287289
396 4 0.0112149 0.280376 0.252902
442 2 0.0246753 0.269729 0.288423
443 4 0.0241861 0.283644 0.267655
364 2 0.996994 0.316179 0.272202
365 4 0.0096934 0.296248 0.264036
401 4 0.186258 0.263545 0.279288
345 4 0.239164 0.296879 0.30823
400 2 0.205611 0.276293 0.288675
402 4 0.224964 0.289041 0.298063
510 4 0.22042 0.304294 0.308423
343 2 0.263846 0.2962 0.304291
344 4 0.288528 0.295522 0.300351
498 4 0.393022 0.292251 0.290183
496 2 0.370426 0.292283 0.279478
497 4 0.34783 0.292314 0.268773
543 4 0.417884 0.332257 0.297832
541 2 0.428392 0.313132 0.310038
542 4 0.4389 0.294006 0.322243
2493 4 0.995693 0.350094 0.288168
602 4 0.0898264 0.410228 0.248588
601 2 0.113724 0.402961 0.249725
734 4 0.145685 0.382078 0.261547
733 2 0.157642 0.389857 0.282082
508 2 0.219691 0.32726 0.318283
735 4 0.1696 0.397635 0.302617
677 4 0.176345 0.391099 0.32
676 2 0.198632 0.380332 0.323543
509 4 0.218962 0.350225 0.328143
678 4 0.220918 0.369566 0.327086
728 4 0.315522 0.402333 0.289569
438 4 0.260026 0.416438 0.261954
727 2 0.337762 0.398747 0.278719
729 4 0.360002 0.395162 0.26787
615 4 0.400007 0.340861 0.305093
613 2 0.401574 0.363173 0.316269
2536 2 0.491092 0.395188 0.297443
2537 4 0.488791 0.404841 0.274493
2862 4 0.486122 0.419441 0.260651
753 4 0.49189 0.379918 0.339796
549 4 0.0371865 0.43946 0.324832
777 4 0.0852268 0.431784 0.305308
775 2 0.0992766 0.449669 0.315696
776 4 0.113326 0.467554 0.326084
414 4 0.131213 0.474804 0.328979
437 4 0.258678 0.43948 0.306316
436 2 0.259352 0.427959 0.284135
713 4 0.350227 0.491409 0.249767
2860 2 0.469663 0.437403 0.255028
593 4 0.442226 0.450013 0.312405
592 2 0.430607 0.471017 0.319408
1798 2 0.0242927 0.0117575 0.335976
369 4 0.0707298 0.0469942 0.392052
1800 4 0.0159194 0.999903 0.356337
367 2 0.0842304 0.0259655 0.392893
368 4 0.097731 0.00493682 0.393733
605 4 0.139772 0.0705944 0.371802
604 2 0.16007 0.0592887 0.381041
606 4 0.180367 0.0479831 0.390281
698 4 0.374582 0.0657418 0.340357
256 2 0.39196 0.0644264 0.377321
257 4 0.381411 0.0743743 0.356951
633 4 0.375088 0.084995 0.341598
258 4 0.40251 0.0544786 0.397691
426 4 0.416961 0.0407618 0.389784
424 2 0.422787 0.0257122 0.408882
318 4 0.0119079 0.12755 0.380319
316 2 0.0349693 0.130357 0.371074
317 4 0.0580306 0.133164 0.361829
397 2 0.0785621 0.122523 0.333578
730 2 0.096889 0.0989423 0.386545
399 4 0.0892438 0.107533 0.350501
731 4 0.103459 0.106866 0.363759
600 4 0.211907 0.165096 0.364974
598 2 0.198878 0.173127 0.384746
683 4 0.27844 0.108278 0.362962
682 2 0.278717 0.110881 0.387829
684 4 0.278995 0.113484 0.412695
516 4 0.409202 0.147629 0.37586
575 4 0.394719 0.146611 0.388654
574 2 0.404632 0.154117 0.410347
451 2 0.489807 0.142711 0.356357
514 2 0.429557 0.147412 0.361342
453 4 0.466464 0.135335 0.351267
515 4 0.449913 0.147196 0.346824
2653 2 0.997072 0.213896 0.378107
459 4 0.0161021 0.189752 0.406783
2654 4 0.0128538 0.198044 0.389279
457 2 0.00685793 0.166523 0.406443
388 2 0.101145 0.220509 0.336623
389 4 0.0983672 0.225997 0.360858
685 2 0.156622 0.208922 0.407361
687 4 0.166168 0.185821 0.408026
686 4 0.147077 0.232022 0.406696
599 4 0.185848 0.181158 0.404517
473 4 0.231828 0.196293 0.378801
472 2 0.254585 0.188549 0.385678
474 4 0.277343 0.180805 0.392555
488 4 0.297049 0.184397 0.39008
487 2 0.305919 0.20605 0.398891
489 4 0.314789 0.227704 0.407701
706 2 0.361442 0.197958 0.3405
708 4 0.37754 0.198484 0.359625
715 2 0.398313 0.244846 0.352632
717 4 0.40784 0.228491 0.336294
347 4 0.0739824 0.31386 0.414115
618 4 0.0764491 0.333812 0.412341
275 4 0.139729 0.314585 0.3936
274 2 0.160177 0.306198 0.381908
276 4 0.180625 0.29781 0.370216
373 2 0.214757 0.278012 0.383588
374 4 0.237923 0.268722 0.385086
375 4 0.191592 0.287302 0.38209
716 4 0.388785 0.261201 0.368969
406 2 0.0462252 0.389742 0.393379
407 4 0.0347742 0.411797 0.390616
408 4 0.0576762 0.367687 0.396141
616 2 0.0842939 0.340263 0.389493
617 4 0.0921387 0.346714 0.366646
435 4 0.229198 0.359618 0.34189
434 4 0.274684 0.379752 0.347026
433 2 0.251941 0.369685 0.344458
503 4 0.270685 0.409956 0.415025
614 4 0.403141 0.385485 0.327445
561 4 0.457741 0.362998 0.394541
752 4 0.458691 0.374238 0.376759
559 2 0.475242 0.364637 0.412323
751 2 0.475291 0.377078 0.358278
548 4 0.0367435 0.419494 0.370678
547 2 0.036965 0.429477 0.347755
412 2 0.153305 0.48161 0.338508
499 2 0.159755 0.498825 0.391031
501 4 0.141451 0.490947 0.406134
413 4 0.175397 0.488417 0.348036
668 4 0.308656 0.465459 0.407972
1 1 0.32273 0.49228 0.40621
3 3 0.338278 0.482745 0.391867
594 4 0.418989 0.49202 0.326412
1524 4 0.0585032 0.997175 0.491374
718 2 0.0259668 0.078191 0.449522
720 4 0.0316626 0.0612464 0.467004
2237 4 0.0317759 0.0429301 0.47534
2236 2 0.0288099 0.0197238 0.466517
1127 4 0.0199991 0.0569578 0.481877
1522 2 0.083005 0.997276 0.486391
1523 4 0.107507 0.997376 0.481407
340 2 0.185858 0.0541711 0.493809
2430 4 0.195081 0.0118079 0.499721
341 4 0.187097 0.0297067 0.498823
1182 4 0.253975 0.0755947 0.483974
726 4 0.310345 0.0462107 0.434545
724 2 0.304254 0.0385426 0.457551
725 4 0.298164 0.0308745 0.480557
432 4 0.300642 0.0387183 0.497576
963 4 0.288905 0.0236829 0.49638
425 4 0.428614 0.0106627 0.42798
2878 2 0.464768 0.0737395 0.484922
2879 4 0.458782 0.0569981 0.502503
719 4 0.020271 0.0951355 0.43204
732 4 0.0903194 0.0910181 0.409332
1033 2 0.124015 0.147788 0.478837
1034 4 0.113357 0.140421 0.500222
1035 4 0.134673 0.155155 0.457452
1152 4 0.179475 0.0949154 0.500253
320 4 0.27707 0.115486 0.432
1180 2 0.261934 0.0899364 0.465102
1181 4 0.269894 0.104278 0.44623
321 4 0.322361 0.131534 0.445854
319 2 0.299715 0.12351 0.438927
576 4 0.414545 0.161622 0.43204
2880 4 0.470754 0.0904809 0.467342
642 4 0.46315 0.101127 0.452425
640 2 0.450649 0.119307 0.440661
641 4 0.438148 0.137487 0.428897
306 4 0.433013 0.158084 0.430284
471 4 0.00778579 0.209925 0.474605
469 2 0.019101 0.188553 0.468251
470 4 0.0304163 0.167181 0.461896
260 4 0.108483 0.217324 0.442601
261 4 0.132273 0.175252 0.455435
259 2 0.120378 0.196288 0.449018
695 4 0.106177 0.233414 0.454375
411 4 0.252779 0.181531 0.457675
409 2 0.273461 0.194087 0.463981
410 4 0.294144 0.206642 0.470288
900 4 0.289793 0.213599 0.489488
265 2 0.336178 0.2493 0.464431
468 4 0.388783 0.223902 0.417701
466 2 0.377255 0.210073 0.435052
467 4 0.365727 0.196244 0.452402
267 4 0.356902 0.243775 0.451579
3157 2 0.501804 0.173097 0.480054
3159 4 0.502626 0.183638 0.502712
305 4 0.468255 0.193167 0.435564
304 2 0.450634 0.175626 0.432924
346 2 0.0766547 0.310202 0.438705
326 4 0.0803097 0.326728 0.468175
348 4 0.0793269 0.306544 0.463295
694 2 0.102683 0.251949 0.470789
1260 4 0.0991785 0.286352 0.498873
696 4 0.0991893 0.270483 0.487204
266 4 0.315455 0.254825 0.477283
811 2 0.27906 0.311798 0.487986
813 4 0.292741 0.312061 0.467059
584 4 0.482845 0.259696 0.48267
583 2 0.466583 0.268459 0.46582
585 4 0.45032 0.277222 0.44897
2812 2 0.00648944 0.360024 0.44347
2813 4 0.0269551 0.373086 0.449446
325 2 0.0942881 0.346343 0.474887
327 4 0.108266 0.365958 0.4816
10 3 0.15208 0.335774 0.465985
7 3 0.127464 0.361095 0.478061
6 1 0.148537 0.352398 0.481142
8 3 0.164142 0.369307 0.478141
681 4 0.0830956 0.413971 0.453977
383 4 0.102324 0.41351 0.456676
9 3 0.15008 0.343928 0.502689
711 4 0.172291 0.373956 0.46041
635 4 0.212842 0.413154 0.478982
504 4 0.223814 0.399519 0.428986
709 2 0.191666 0.384323 0.472339
710 4 0.211041 0.394689 0.484269
774 4 0.220152 0.408128 0.496061
336 4 0.289159 0.408924 0.417205
502 2 0.24725 0.404738 0.422006
334 2 0.307323 0.393421 0.424613
335 4 0.325487 0.377917 0.432021
239 4 0.390533 0.380135 0.43558
238 2 0.366144 0.384175 0.431838
240 4 0.341754 0.388215 0.428096
588 4 0.399337 0.392838 0.447873
587 4 0.432843 0.387151 0.484557
560 4 0.492743 0.366275 0.430105
586 2 0.41609 0.389994 0.466215
1382 4 0.0548872 0.501996 0.425106
680 4 0.0432943 0.434727 0.431937
1383 4 0.0431479 0.454439 0.435169
1381 2 0.0490176 0.478218 0.430137
679 2 0.063195 0.424349 0.442957
539 4 0.0847412 0.50346 0.46373
568 2 0.160863 0.479928 0.455324
382 2 0.120933 0.430157 0.457995
384 4 0.139543 0.446804 0.459314
569 4 0.155335 0.458233 0.466457
634 2 0.216428 0.433888 0.465477
570 4 0.166391 0.501623 0.44419
636 4 0.220014 0.454623 0.451972
4 3 0.316384 0.476892 0.422376
669 4 0.27913 0.42648 0.418438
667 2 0.293893 0.44597 0.413205
880 2 0.342946 0.501997 0.486572
882 4 0.344876 0.487729 0.46613
1002 4 0.399174 0.505405 0.511036
663 4 0.452348 0.433288 0.498035
1057 2 0.158939 0.071311 0.569126
1058 4 0.156618 0.0538235 0.586846
342 4 0.184619 0.0786356 0.488796
430 2 0.311821 0.0555121 0.512347
431 4 0.323001 0.0723059 0.527117
961 2 0.271304 0.012077 0.509823
962 4 0.253704 0.000471065 0.523265
843 4 0.341874 0.070654 0.536407
1217 4 0.397945 0.032269 0.530177
1216 2 0.403746 0.0121566 0.543852
842 4 0.382012 0.0409024 0.538542
841 2 0.361943 0.0557782 0.537475
1218 4 0.409548 0.992044 0.557527
938 4 0.0891911 0.167326 0.554098
937 2 0.0948388 0.161025 0.53057
1151 4 0.154782 0.10452 0.542664
1059 4 0.161261 0.0887984 0.551407
1155 4 0.164057 0.105822 0.559672
939 4 0.100486 0.154724 0.507041
1150 2 0.167129 0.0997177 0.521459
1153 2 0.17024 0.125299 0.57408
878 4 0.0233038 0.20511 0.549039
1199 4 0.0207162 0.224299 0.553412
877 2 0.0460203 0.197564 0.556264
879 4 0.0687368 0.190018 0.563489
858 4 0.259206 0.197948 0.570712
857 4 0.305042 0.213931 0.558696
856 2 0.282124 0.20594 0.564704
898 2 0.301834 0.218148 0.510924
791 4 0.316927 0.229118 0.552625
899 4 0.313875 0.222698 0.53236
790 2 0.316408 0.251692 0.563362
3353 4 0.00776768 0.280356 0.527712
1258 2 0.114068 0.294872 0.517063
1259 4 0.128957 0.303392 0.535254
649 2 0.227158 0.290948 0.50771
651 4 0.206572 0.276773 0.508385
650 4 0.247743 0.305124 0.507035
804 4 0.251752 0.323263 0.515476
792 4 0.315889 0.274267 0.5741
1238 4 0.332818 0.285757 0.574515
812 4 0.265379 0.311535 0.508913
873 4 0.411114 0.261907 0.551614
1239 4 0.331851 0.329641 0.550556
871 2 0.402078 0.265943 0.528652
1237 2 0.332335 0.307699 0.562535
872 4 0.393042 0.269979 0.50569
935 4 0.015557 0.394231 0.507981
1137 4 0.139818 0.379764 0.575954
1189 2 0.235166 0.383982 0.570103
773 4 0.241647 0.383697 0.534032
1190 4 0.251473 0.381541 0.551307
772 2 0.2309 0.395913 0.515047
803 4 0.250062 0.367198 0.5393
802 2 0.250907 0.34523 0.527388
930 4 0.296756 0.357151 0.575282
928 2 0.288246 0.374288 0.559185
929 4 0.279737 0.391425 0.543089
927 4 0.407273 0.389577 0.542083
925 2 0.414603 0.395541 0.518934
926 4 0.421934 0.401506 0.495785
1161 4 0.161343 0.49592 0.558912
1159 2 0.177589 0.48321 0.573045
889 2 0.3102 0.474898 0.543763
890 4 0.31117 0.494716 0.52855
891 4 0.30923 0.455079 0.558977
1000 2 0.417679 0.495134 0.524349
1953 4 0.3747 0.483695 0.558688
1951 2 0.363396 0.49584 0.539983
1001 4 0.436185 0.484863 0.537662
662 4 0.446708 0.469572 0.531981
661 2 0.449528 0.45143 0.515008
1911 4 0.452581 0.480304 0.547362
1909 2 0.447159 0.476743 0.57151
1332 4 0.453949 0.487436 0.529327
2319 4 0.0417285 0.00870293 0.634783
945 4 0.058967 0.0146402 0.644588
2375 4 0.106361 0.00823481 0.602427
943 2 0.0812035 0.024969 0.64949
944 4 0.10344 0.0352977 0.654392
825 4 0.122542 0.0296493 0.653314
823 2 0.137818 0.0114857 0.645447
1030 2 0.250055 0.0779582 0.605305
950 4 0.326629 0.036472 0.596541
949 2 0.304869 0.0435521 0.606618
951 4 0.283109 0.0506321 0.616695
1031 4 0.271321 0.0669455 0.612491
43 3 0.434094 0.096535 0.663097
810 4 0.480724 0.081451 0.66856
1081 2 0.0330385 0.110656 0.658056
3179 4 0.0291114 0.150172 0.646248
1083 4 0.0379527 0.133322 0.648714
3178 2 0.00757533 0.161576 0.64065
1282 2 0.158447 0.110856 0.656771
1154 4 0.176423 0.144776 0.588488
1032 4 0.228788 0.0889709 0.598119
1284 4 0.172346 0.108527 0.636117
1221 4 0.196433 0.146465 0.592947
808 2 0.492088 0.0858127 0.64672
809 4 0.503453 0.0901745 0.62488
1272 4 0.066337 0.183426 0.582452
1243 2 0.078554 0.236285 0.626667
1244 4 0.0550471 0.239222 0.618668
1270 2 0.0903103 0.186732 0.588739
1271 4 0.114284 0.190038 0.595026
1209 4 0.100034 0.234676 0.65513
1245 4 0.102061 0.233348 0.634666
1210 2 0.232487 0.190243 0.657539
1212 4 0.215768 0.185205 0.639643
1219 2 0.200458 0.166097 0.607899
1220 4 0.204483 0.18573 0.62285
796 2 0.187656 0.218253 0.631562
798 4 0.204513 0.200164 0.635277
797 4 0.1708 0.236343 0.627847
888 4 0.260989 0.178439 0.67124
906 4 0.480777 0.254017 0.59244
904 2 0.468438 0.243805 0.61164
905 4 0.456098 0.233593 0.63084
3123 4 0.46798 0.238692 0.646643
3121 2 0.486485 0.238675 0.663458
983 4 0.0375273 0.328642 0.596295
982 2 0.0454667 0.330835 0.619902
3263 4 0.0609327 0.325184 0.659736
984 4 0.0534061 0.333029 0.64351
947 4 0.194644 0.280226 0.638415
946 2 0.195064 0.267262 0.659791
952 2 0.487641 0.323239 0.595857
953 4 0.471445 0.321909 0.61486
1041 4 0.0628596 0.344717 0.655789
1039 2 0.0684341 0.368904 0.65277
897 4 0.154922 0.37124 0.587003
1135 2 0.126585 0.399303 0.584217
1040 4 0.0740085 0.393091 0.649751
993 4 0.0753841 0.404703 0.633002
1136 4 0.113351 0.418842 0.592481
896 4 0.200989 0.388949 0.59506
895 2 0.177955 0.380094 0.591032
1191 4 0.218858 0.386423 0.588899
1172 4 0.213305 0.4046 0.592382
807 4 0.338742 0.332893 0.646473
1206 4 0.484193 0.412801 0.663494
3309 4 0.497734 0.403377 0.586523
991 2 0.086738 0.426177 0.63893
992 4 0.098092 0.447651 0.644858
1160 4 0.193834 0.470501 0.587177
1175 4 0.222229 0.499231 0.654787
1173 4 0.196026 0.451415 0.58915
1171 2 0.204666 0.428007 0.590766
1188 4 0.216863 0.49874 0.635686
1187 4 0.199626 0.46352 0.604651
1186 2 0.208245 0.48113 0.620168
1910 4 0.441737 0.473182 0.595657
1204 2 0.472761 0.431231 0.651051
1205 4 0.461329 0.449661 0.638607
1269 4 0.447816 0.45606 0.6515
1267 2 0.430122 0.473384 0.64804
2255 4 0.226556 0.996227 0.751339
2254 2 0.207119 0.00620968 0.739184
2256 4 0.187683 0.0161922 0.727029
1003 2 0.31733 0.0552003 0.71185
1005 4 0.301755 0.0724454 0.702619
1004 4 0.332904 0.0379552 0.721082
45 3 0.437564 0.060075 0.671831
42 3 0.433382 0.0853487 0.698972
41 1 0.442691 0.0812905 0.678332
1163 4 0.47823 0.0686891 0.682457
44 3 0.465712 0.0837542 0.679871
1162 2 0.49295 0.0502894 0.69082
1082 4 0.0281243 0.0879899 0.667398
1076 4 0.0258985 0.0911257 0.68711
1075 2 0.0269234 0.0963609 0.711538
1077 4 0.0279482 0.101596 0.735966
850 2 0.0689068 0.15638 0.716451
852 4 0.0458587 0.15764 0.726062
909 4 0.0882654 0.144866 0.691335
907 2 0.111555 0.13628 0.688328
908 4 0.134845 0.127694 0.685321
1283 4 0.144549 0.113185 0.677425
1227 4 0.152122 0.121882 0.692913
851 4 0.0919548 0.155119 0.70684
1225 2 0.162558 0.108719 0.711434
1107 4 0.104635 0.168197 0.712943
1226 4 0.172993 0.0955562 0.729955
1148 4 0.191556 0.0885108 0.726482
1147 2 0.215478 0.0874638 0.733682
1149 4 0.239399 0.0864168 0.740882
887 4 0.299772 0.1536 0.690724
831 4 0.36713 0.145706 0.69411
1141 2 0.399062 0.165133 0.707641
829 2 0.342704 0.150965 0.695068
1025 4 0.475683 0.148742 0.680134
3424 2 0.492729 0.105186 0.700959
3426 4 0.482941 0.0874491 0.686303
1024 2 0.458317 0.155871 0.69665
1143 4 0.422844 0.168824 0.714421
1026 4 0.440951 0.162999 0.713166
1215 4 0.00452398 0.209194 0.724991
1213 2 0.0230306 0.192589 0.72235
1214 4 0.0415371 0.175985 0.719709
1074 4 0.0784141 0.24467 0.735439
1178 4 0.998397 0.221573 0.738692
1177 2 0.000377655 0.246457 0.740124
1207 2 0.105284 0.232581 0.679486
1208 4 0.110533 0.230486 0.703843
1106 4 0.141659 0.170836 0.746454
1105 2 0.123147 0.169516 0.729699
1130 4 0.157934 0.17997 0.756131
1211 4 0.249206 0.19528 0.675436
948 4 0.195484 0.254298 0.681167
830 4 0.318279 0.156225 0.696026
886 2 0.280381 0.166019 0.680982
976 2 0.304586 0.174348 0.729075
978 4 0.304789 0.159792 0.708746
1194 4 0.329098 0.230932 0.662899
1142 4 0.37528 0.161442 0.700862
1193 4 0.343853 0.220144 0.709446
1192 2 0.336475 0.225538 0.686173
1261 2 0.448052 0.189491 0.742983
1262 4 0.435233 0.173369 0.728806
1263 4 0.460871 0.205612 0.757159
3262 2 0.0472528 0.323486 0.680597
3264 4 0.0335729 0.321788 0.701457
893 4 0.0184052 0.321541 0.714797
821 4 0.160044 0.2705 0.727135
820 2 0.174031 0.256263 0.742197
1064 4 0.208423 0.253654 0.696018
1065 4 0.23832 0.285104 0.720874
1063 2 0.223372 0.269379 0.708446
805 2 0.324964 0.322006 0.664272
806 4 0.311186 0.311119 0.682072
3274 2 0.0189234 0.399607 0.753689
892 2 0.0223277 0.343545 0.726006
894 4 0.0262502 0.365548 0.737215
3276 4 0.0245963 0.383937 0.735049
814 2 0.061014 0.382411 0.724964
816 4 0.0374702 0.374042 0.72405
815 4 0.0845578 0.39078 0.725879
941 4 0.132306 0.416312 0.73652
940 2 0.114498 0.398807 0.737786
1066 2 0.15792 0.417382 0.707019
942 4 0.0966889 0.381302 0.739053
1068 4 0.164359 0.414415 0.683041
1019 4 0.374029 0.403916 0.718244
1018 2 0.360185 0.386105 0.729029
1020 4 0.34634 0.368295 0.739813
1280 4 0.0527223 0.489257 0.698098
1279 2 0.0309675 0.49578 0.708556
1067 4 0.151481 0.42035 0.730996
1029 4 0.23208 0.426376 0.688116
1027 2 0.207527 0.423771 0.684174
1028 4 0.182973 0.421166 0.680233
1140 4 0.274667 0.474057 0.709719
1138 2 0.260036 0.470714 0.729717
1139 4 0.245406 0.467371 0.749716
1230 4 0.408138 0.432047 0.735718
3328 2 0.494018 0.460687 0.700193
1100 4 0.421915 0.435503 0.720649
1101 4 0.45862 0.469426 0.722284
1099 2 0.440268 0.452465 0.721466
1251 4 0.470391 0.482734 0.730242
3330 4 0.477199 0.469341 0.716545
1249 2 0.474912 0.487922 0.75428
1294 2 0.00257018 0.0154026 0.80032
1296 4 0.0193569 0.0116333 0.818463
2047 2 0.151429 0.00495662 0.776982
1203 4 0.132521 0.0810426 0.753829
1201 2 0.143006 0.0584496 0.756021
1202 4 0.153491 0.0358566 0.758213
2049 4 0.143212 0.0189185 0.757937
1255 2 0.268546 0.0800611 0.772483
1256 4 0.283173 0.074709 0.792043
1113 4 0.410528 0.0512344 0.836143
1111 2 0.392312 0.0682106 0.833877
2321 4 0.45106 0.00984996 0.796874
2322 4 0.471072 0.0483855 0.77207
2320 2 0.461066 0.0291177 0.784472
846 4 0.477483 0.0676092 0.770478
864 4 0.0387359 0.111486 0.750468
862 2 0.040461 0.103727 0.774175
863 4 0.0421861 0.095968 0.797881
832 2 0.0147618 0.100166 0.8316
833 4 0.0286067 0.103611 0.811067
1125 4 0.0368471 0.12228 0.810672
1123 2 0.0358566 0.147258 0.810121
31 1 0.132318 0.146586 0.805831
35 3 0.145946 0.128938 0.801198
33 3 0.110999 0.142491 0.797637
32 3 0.131103 0.14944 0.828624
1257 4 0.253918 0.0854131 0.752924
840 4 0.294509 0.0827173 0.80776
838 2 0.291324 0.0999002 0.825642
1112 4 0.374095 0.0851868 0.831611
844 2 0.465684 0.0886749 0.776975
845 4 0.453885 0.109741 0.783471
1072 2 0.0625676 0.250457 0.753893
1124 4 0.0348661 0.172236 0.809569
34 3 0.14089 0.165925 0.796296
822 4 0.188018 0.242027 0.757259
1129 2 0.166525 0.20345 0.755906
1131 4 0.175116 0.22693 0.75568
920 4 0.216011 0.203783 0.835632
1277 4 0.188988 0.226952 0.769859
1276 2 0.197428 0.233126 0.792571
919 2 0.192911 0.194234 0.835036
1241 4 0.204951 0.246605 0.83518