ITEM: TIMESTEP
560000
ITEM: NUMBER OF ATOMS
4590
ITEM: BOX BOUNDS pp pp pp
-9.9985700000000008e+00 9.9985700000000008e+00
-9.9985700000000008e+00 9.9985700000000008e+00
-9.9985700000000008e+00 9.9985700000000008e+00
ITEM: ATOMS id type xs ys zs
463 2 0.0409663 0.0648944 0.0347584
464 4 0.0188563 0.0534391 0.0324995
465 4 0.0630763 0.0763497 0.0370174
1667 4 0.093839 0.014223 0.0676823
700 2 0.0959986 0.0844613 0.0351216
702 4 0.118563 0.0818891 0.0455806
492 4 0.265841 8.97363e-05 0.0745246
490 2 0.273478 0.0140598 0.0552453
491 4 0.281115 0.0280298 0.035966
558 4 0.324235 0.0854926 0.0556258
296 4 0.359219 0.0390913 0.0739363
557 4 0.363658 0.0573283 0.0680062
1608 4 0.405561 0.00435502 0.0170942
556 2 0.343947 0.0714105 0.061816
745 2 0.461901 0.0626383 0.0180757
2469 4 0.489723 0.0322186 0.026275
746 4 0.471968 0.0707894 0.0394628
701 4 0.0734337 0.0870335 0.0246626
589 2 0.0305453 0.125999 0.0710421
591 4 0.0154439 0.108052 0.0623793
590 4 0.0456466 0.143945 0.0797049
3234 4 0.0170308 0.142594 0.00714469
3232 2 3.71845e-06 0.160747 0.00475366
566 4 0.134929 0.0916908 0.037853
565 2 0.142721 0.11513 0.0417374
567 4 0.150513 0.138568 0.0456219
423 4 0.0948101 0.1632 0.0169504
360 4 0.262871 0.131854 0.0201921
358 2 0.279388 0.122329 0.00401597
770 4 0.452675 0.136508 0.0788087
769 2 0.465535 0.157923 0.0798935
553 2 0.0452684 0.212693 0.00587189
836 4 0.0809289 0.228479 0.0238261
555 4 0.0618688 0.226383 0.0186068
835 2 0.105256 0.229482 0.0181366
837 4 0.129583 0.230485 0.0124472
461 4 0.33072 0.21268 0.0559067
573 4 0.334229 0.230665 0.0495973
666 4 0.322786 0.218816 0.0387915
664 2 0.318662 0.198301 0.025105
665 4 0.314539 0.177787 0.0114186
1071 4 0.398605 0.239299 0.0261122
460 2 0.338769 0.213052 0.0795764
771 4 0.478396 0.179338 0.0809784
1014 4 0.471957 0.227267 0.0129015
1012 2 0.471646 0.203157 0.00628545
2808 4 0.000409522 0.292437 0.00503663
292 2 0.137755 0.309584 0.0386402
293 4 0.160209 0.299395 0.042786
294 4 0.115302 0.319774 0.0344944
507 4 0.16147 0.296175 0.0611678
505 2 0.180701 0.306087 0.0737019
355 2 0.24348 0.265078 0.0158629
357 4 0.233366 0.283658 0.0291908
609 4 0.280276 0.32635 0.080109
482 4 0.262612 0.320553 0.0784176
356 4 0.253595 0.246497 0.00253498
571 2 0.336498 0.253669 0.040066
322 2 0.414965 0.255867 0.0735737
572 4 0.338767 0.276673 0.0305346
1069 2 0.406927 0.262203 0.0205138
1070 4 0.415248 0.285107 0.0149154
670 2 0.449204 0.32068 0.0689121
323 4 0.435455 0.26391 0.061714
672 4 0.43039 0.306698 0.0776123
286 2 0.156176 0.380468 0.00735771
287 4 0.150667 0.368519 0.0286197
251 4 0.269609 0.401421 0.0245024
252 4 0.295915 0.378326 0.0602147
250 2 0.282762 0.389873 0.0423586
608 4 0.294089 0.374411 0.0798326
607 2 0.287182 0.350381 0.0799708
281 4 0.472147 0.350841 0.0478472
671 4 0.468019 0.334662 0.0602118
280 2 0.473297 0.368182 0.0298706
282 4 0.474446 0.385523 0.011894
330 4 0.0143776 0.439451 0.064642
551 4 0.0720724 0.443833 0.0289911
550 2 0.0899204 0.432206 0.0420851
552 4 0.107769 0.42058 0.0551791
627 4 0.215929 0.466946 0.0705185
625 2 0.199301 0.448282 0.0711053
245 4 0.235482 0.46775 0.0763521
626 4 0.182672 0.429618 0.0716921
244 2 0.245678 0.483204 0.0595472
246 4 0.255874 0.498658 0.0427424
272 4 0.26258 0.499283 0.024409
271 2 0.283714 0.487048 0.0190383
524 4 0.323215 0.476833 0.0823343
273 4 0.304848 0.474813 0.0136675
227 4 0.468558 0.463905 0.0714441
226 2 0.46503 0.445444 0.0549542
228 4 0.461501 0.426983 0.0384643
562 2 0.440823 0.475597 0.003872
20 3 0.0440761 0.0711163 0.14615
19 3 0.0120443 0.0821432 0.162582
16 1 0.0340552 0.0756877 0.166083
1806 4 0.0949479 0.00577879 0.140466
1506 4 0.209318 0.00363582 0.151103
1504 2 0.216374 0.0246411 0.162686
652 2 0.305682 0.0084653 0.155296
653 4 0.290001 0.0279383 0.154988
295 2 0.36362 0.0213889 0.0910371
297 4 0.36802 0.0036865 0.108138
758 4 0.397765 0.0481463 0.154465
2724 4 0.490654 0.00642693 0.146551
2722 2 0.501877 0.0287702 0.146618
380 4 0.00813789 0.100962 0.156116
237 4 0.14045 0.136034 0.134944
235 2 0.157583 0.126122 0.150221
449 4 0.180036 0.0974191 0.163729
693 4 0.191079 0.112185 0.156637
337 2 0.0655489 0.232953 0.145934
339 4 0.0420625 0.241525 0.145615
338 4 0.0890353 0.224382 0.146253
476 4 0.145808 0.207957 0.132535
475 2 0.122598 0.217163 0.131224
477 4 0.0993885 0.22637 0.129913
737 4 0.156501 0.224503 0.131769
363 4 0.0905488 0.227842 0.16552
738 4 0.200078 0.242627 0.115241
736 2 0.178289 0.233565 0.123505
285 4 0.256344 0.204817 0.163399
354 4 0.277978 0.246885 0.107422
324 4 0.394475 0.247824 0.0854334
254 4 0.402565 0.185573 0.115172
255 4 0.355992 0.203668 0.117233
462 4 0.346818 0.213425 0.103246
253 2 0.379278 0.194621 0.116202
630 4 0.417655 0.174654 0.105944
629 4 0.45188 0.202017 0.13004
628 2 0.434767 0.188336 0.117992
506 4 0.199931 0.315999 0.0862361
483 4 0.216917 0.304437 0.0907846
481 2 0.239765 0.312495 0.0846011
352 2 0.281364 0.265968 0.123219
353 4 0.284751 0.28505 0.139017
754 2 0.29614 0.310821 0.153811
755 4 0.293395 0.286116 0.156513
278 4 0.274323 0.281602 0.155827
741 4 0.346262 0.310489 0.088157
739 2 0.353522 0.333059 0.0960967
624 4 0.417555 0.305739 0.160195
519 4 0.48201 0.274525 0.0885507
517 2 0.495667 0.253629 0.0871262
620 4 0.0135915 0.349407 0.121699
647 4 0.0345044 0.35507 0.11647
646 2 0.0400669 0.351787 0.140625
648 4 0.0456293 0.348503 0.16478
456 4 0.112082 0.356463 0.0911833
455 4 0.117439 0.404564 0.103765
454 2 0.11476 0.380514 0.097474
537 4 0.177013 0.355131 0.138565
535 2 0.200657 0.357488 0.146349
536 4 0.2243 0.359846 0.154134
756 4 0.298884 0.335526 0.151108
612 4 0.284919 0.349509 0.151818
610 2 0.267481 0.363217 0.163359
387 4 0.327976 0.380471 0.159999
740 4 0.360782 0.35563 0.104036
15 3 0.370804 0.367207 0.116615
385 2 0.340256 0.371138 0.14032
386 4 0.352537 0.361805 0.120641
11 1 0.3935 0.367492 0.118477
13 3 0.401121 0.346761 0.125587
14 3 0.400003 0.38391 0.133529
12 3 0.40273 0.372162 0.0979312
495 4 0.391019 0.399094 0.143551
645 4 0.475958 0.385124 0.146045
597 4 0.486049 0.401994 0.142572
643 2 0.465248 0.37325 0.165267
315 4 0.00189521 0.44563 0.118181
1467 4 0.0162302 0.489051 0.117026
1465 2 0.0317932 0.497196 0.13482
638 4 0.267328 0.498924 0.146476
767 4 0.271444 0.494993 0.165031
523 2 0.340752 0.459717 0.0872991
525 4 0.35829 0.442601 0.0922638
658 2 0.386141 0.484837 0.13863
493 2 0.394178 0.422057 0.134174
660 4 0.389367 0.463444 0.126094
494 4 0.397336 0.44502 0.124797
595 2 0.48784 0.425491 0.150931
596 4 0.489631 0.448988 0.159289
18 3 0.0347371 0.0569604 0.179766
1404 4 0.0743347 0.0160246 0.244582
2480 4 0.00304817 0.0109225 0.172347
450 4 0.16253 0.0511161 0.17082
673 2 0.118535 0.0678852 0.22808
674 4 0.143531 0.0681162 0.228663
675 4 0.0935395 0.0676541 0.227497
1505 4 0.223429 0.0456463 0.17427
448 2 0.171283 0.0742676 0.167274
688 2 0.205751 0.00166417 0.246518
28 3 0.316236 0.074514 0.238205
21 1 0.368841 0.0287847 0.224463
24 3 0.354873 0.0168972 0.21025
25 3 0.376475 0.0475088 0.213985
759 4 0.383236 0.0596496 0.200912
757 2 0.3905 0.053898 0.177689
22 3 0.356948 0.0348929 0.243182
23 3 0.386721 0.0154911 0.230942
742 2 0.484117 0.0206375 0.247396
744 4 0.463063 0.0335081 0.243366
351 4 0.452693 0.0512877 0.242501
379 2 0.00837669 0.122853 0.168195
17 3 0.0452891 0.0928807 0.176444
381 4 0.00861549 0.144744 0.180274
511 2 0.0254933 0.16339 0.201134
512 4 0.0192641 0.161169 0.177021
578 4 0.0836037 0.139787 0.19209
579 4 0.124922 0.122337 0.169976
577 2 0.104263 0.131062 0.181033
236 4 0.174716 0.116209 0.165497
691 2 0.212344 0.110354 0.169661
692 4 0.233609 0.108523 0.182686
723 4 0.197178 0.123038 0.219153
721 2 0.197258 0.144339 0.232246
582 4 0.24776 0.112615 0.195119
580 2 0.270247 0.115211 0.205737
581 4 0.292735 0.117807 0.216355
30 3 0.308148 0.105737 0.218779
26 1 0.316755 0.0977116 0.238277
27 3 0.338587 0.104655 0.240347
312 4 0.426333 0.15436 0.178341
310 2 0.434636 0.136757 0.194037
311 4 0.44294 0.119154 0.209734
513 4 0.0317226 0.165612 0.225247
362 4 0.122737 0.234811 0.20315
361 2 0.106643 0.231327 0.184335
372 4 0.129749 0.238403 0.22165
370 2 0.153487 0.245232 0.217768
722 4 0.197337 0.16564 0.245339
283 2 0.273727 0.18898 0.171895
284 4 0.291111 0.173143 0.180391
307 2 0.304267 0.246918 0.20086
308 4 0.318608 0.251268 0.220874
309 4 0.289925 0.242568 0.180846
763 2 0.385273 0.232786 0.18715
765 4 0.38844 0.208016 0.185889
395 4 0.0465562 0.292398 0.224735
394 2 0.0338498 0.275889 0.238561
750 4 0.0618074 0.301955 0.233862
748 2 0.0840701 0.29495 0.22489
749 4 0.106333 0.287946 0.215918
300 4 0.152787 0.328291 0.236782
371 4 0.177225 0.252061 0.213886
279 4 0.240773 0.271826 0.191597
277 2 0.257548 0.276714 0.173712
764 4 0.382106 0.257556 0.188412
623 4 0.392422 0.274791 0.190382
622 2 0.404988 0.290265 0.175289
528 4 0.449183 0.257535 0.222875
527 4 0.48416 0.267974 0.188693
526 2 0.466672 0.262755 0.205784
298 2 0.140615 0.349055 0.243555
602 4 0.084683 0.411187 0.238657
299 4 0.128443 0.36982 0.250327
601 2 0.104421 0.399302 0.248368
290 4 0.226435 0.397209 0.223526
289 2 0.214759 0.418289 0.216855
611 4 0.250043 0.376925 0.1749
302 4 0.31661 0.386446 0.175049
301 2 0.331166 0.395653 0.193175
303 4 0.345721 0.404859 0.211301
644 4 0.454537 0.361376 0.184489
447 4 0.465356 0.366956 0.199757
445 2 0.477843 0.375298 0.219749
446 4 0.49033 0.383641 0.23974
262 2 0.052558 0.43453 0.23272
264 4 0.0307059 0.440658 0.222227
263 4 0.0744102 0.428401 0.243213
1430 4 0.178612 0.490814 0.169396
417 4 0.174917 0.471895 0.175778
415 2 0.179787 0.458738 0.196475
291 4 0.203084 0.439368 0.210183
416 4 0.184658 0.445582 0.217171
768 4 0.254201 0.461713 0.198134
766 2 0.262822 0.478353 0.181583
437 4 0.279016 0.445457 0.246646
231 4 0.405999 0.495523 0.192616
1799 4 0.0302052 0.00407149 0.28077
232 2 0.00532284 0.0397397 0.284587
233 4 0.0177676 0.0181088 0.283034
1402 2 0.0521826 0.0173748 0.256099
1403 4 0.0300305 0.018725 0.267616
318 4 0.0381669 0.067879 0.326899
689 4 0.216731 0.0224564 0.25502
1699 2 0.228038 0.0452018 0.310509
1701 4 0.234636 0.0253749 0.296779
1700 4 0.221439 0.0650286 0.32424
248 4 0.224113 0.0835695 0.320326
697 2 0.390804 0.0521196 0.316443
699 4 0.380943 0.0345925 0.301585
1518 4 0.362515 0.0251358 0.304082
698 4 0.400665 0.0696467 0.3313
478 2 0.480392 0.033574 0.303554
349 2 0.444335 0.0707701 0.255759
479 4 0.489343 0.0349429 0.280247
480 4 0.471442 0.0322052 0.32686
398 4 0.0762055 0.143498 0.299145
397 2 0.0876453 0.125595 0.312328
399 4 0.099085 0.107692 0.32551
249 4 0.20498 0.128659 0.310248
247 2 0.214547 0.106114 0.315287
404 4 0.215111 0.144401 0.304285
546 4 0.182097 0.169326 0.257762
403 2 0.212734 0.164751 0.289953
29 3 0.304558 0.105852 0.256259
350 4 0.435977 0.0902525 0.269016
331 2 0.444725 0.159686 0.290541
333 4 0.42261 0.155177 0.27978
332 4 0.466839 0.164196 0.301301
389 4 0.0779691 0.219132 0.330148
393 4 0.087155 0.203336 0.273967
392 4 0.133733 0.191517 0.287805
391 2 0.110444 0.197426 0.280886
545 4 0.141197 0.171418 0.286459
544 2 0.161647 0.170372 0.27211
405 4 0.210357 0.185101 0.275621
377 4 0.322157 0.229214 0.333655
376 2 0.30435 0.243708 0.323755
717 4 0.38418 0.244197 0.328201
762 4 0.479846 0.17864 0.302153
520 2 0.486975 0.234759 0.250184
760 2 0.494281 0.198537 0.306726
396 4 0.0211435 0.259379 0.252387
442 2 0.00207359 0.265417 0.285216
443 4 0.0122392 0.273504 0.263851
364 2 0.0219603 0.327285 0.289101
365 4 0.0373844 0.318984 0.271258
401 4 0.190138 0.27057 0.294073
345 4 0.237812 0.312354 0.298727
400 2 0.211563 0.282495 0.298964
402 4 0.232989 0.294421 0.303855
510 4 0.221632 0.30967 0.309314
508 2 0.217469 0.333634 0.315107
378 4 0.286543 0.258202 0.313855
344 4 0.285183 0.309536 0.282954
343 2 0.261497 0.310945 0.29084
498 4 0.377898 0.299286 0.287784
496 2 0.355886 0.287648 0.290072
497 4 0.333875 0.276011 0.292359
543 4 0.405241 0.32884 0.3264
521 4 0.473278 0.255583 0.252159
542 4 0.423563 0.296302 0.293139
541 2 0.414402 0.312571 0.30977
366 4 0.00653622 0.335586 0.306944
603 4 0.12416 0.387416 0.25808
734 4 0.14226 0.38078 0.259033
733 2 0.156717 0.39193 0.276117
735 4 0.171174 0.40308 0.293201
677 4 0.190782 0.405445 0.287928
676 2 0.203381 0.391731 0.304612
678 4 0.21598 0.378016 0.321296
509 4 0.213305 0.357598 0.320899
435 4 0.278041 0.374583 0.307056
433 2 0.286266 0.382502 0.329301
729 4 0.332692 0.373946 0.262885
727 2 0.339925 0.390272 0.280387
615 4 0.396835 0.346974 0.326026
613 2 0.381052 0.366352 0.326771
728 4 0.347158 0.406598 0.297889
614 4 0.365269 0.38573 0.327517
2538 4 0.458423 0.384077 0.284559
2536 2 0.483298 0.386393 0.2856
753 4 0.474444 0.409371 0.330974
549 4 0.0471857 0.420239 0.310913
547 2 0.0513445 0.427677 0.33442
777 4 0.0844992 0.453682 0.290078
775 2 0.106851 0.458385 0.300249
776 4 0.129203 0.463088 0.310419
414 4 0.144112 0.463957 0.294722
412 2 0.159937 0.479908 0.30569
413 4 0.175762 0.49586 0.316658
436 2 0.279777 0.431373 0.267292
438 4 0.280538 0.41729 0.287938
2860 2 0.493921 0.458541 0.270541
2861 4 0.484532 0.48141 0.274287
316 2 0.0432832 0.0708065 0.351198
317 4 0.0483995 0.073734 0.375497
1772 4 0.0339067 0.0143483 0.406414
604 2 0.197485 0.0831066 0.384432
605 4 0.183169 0.0699359 0.368723
439 2 0.311157 0.00570371 0.390711
441 4 0.305826 0.0210048 0.371668
683 4 0.266379 0.06759 0.373469
257 4 0.411709 0.081586 0.342803
425 4 0.403306 0.0208687 0.409531
424 2 0.417689 0.0412211 0.40751
256 2 0.420947 0.0755512 0.36524
426 4 0.432072 0.0615736 0.405488
258 4 0.430185 0.0695165 0.387677
459 4 0.0123805 0.165081 0.387451
457 2 0.0230011 0.157041 0.40861
732 4 0.137326 0.0867847 0.360989
731 4 0.0927669 0.0952353 0.339923
730 2 0.115047 0.09101 0.350456
599 4 0.163702 0.153885 0.384831
606 4 0.211801 0.0962772 0.40014
600 4 0.197068 0.136386 0.351948
598 2 0.180385 0.145136 0.368389
682 2 0.278195 0.0880105 0.38175
684 4 0.29001 0.108431 0.390031
320 4 0.294887 0.121522 0.40285
473 4 0.269855 0.162024 0.361711
632 4 0.36641 0.128297 0.340167
631 2 0.381462 0.108571 0.337083
633 4 0.396515 0.088846 0.334
516 4 0.410093 0.140283 0.404998
451 2 0.491657 0.158155 0.378489
515 4 0.447234 0.156038 0.375451
514 2 0.428663 0.148161 0.390224
453 4 0.467172 0.157746 0.373437
388 2 0.0708456 0.238639 0.344074
687 4 0.163609 0.172839 0.391324
685 2 0.172961 0.193429 0.40199
686 4 0.182313 0.214019 0.412657
474 4 0.269363 0.210898 0.372285
472 2 0.269609 0.186461 0.366998
488 4 0.266072 0.230995 0.376808
487 2 0.277358 0.234335 0.398868
707 4 0.334568 0.2137 0.339931
420 4 0.400322 0.233269 0.333989
418 2 0.413638 0.212123 0.334827
706 2 0.3449 0.192184 0.34738
708 4 0.355232 0.170668 0.354829
468 4 0.385819 0.229475 0.414063
419 4 0.426954 0.190977 0.335666
390 4 0.0637221 0.258145 0.358
618 4 0.0741493 0.31619 0.402832
347 4 0.0606643 0.30066 0.399283
616 2 0.087725 0.327921 0.385418
275 4 0.149291 0.294183 0.383944
274 2 0.161128 0.275186 0.395086
276 4 0.172966 0.256189 0.406229
373 2 0.199844 0.319976 0.397404
374 4 0.214152 0.303304 0.385467
715 2 0.368943 0.254121 0.345363
716 4 0.353706 0.264044 0.362525
406 2 0.0654049 0.411267 0.3909
408 4 0.0773239 0.395507 0.406221
617 4 0.101301 0.339651 0.368003
375 4 0.185535 0.336648 0.409341
504 4 0.215287 0.386777 0.412886
434 4 0.294491 0.390421 0.351545
336 4 0.300041 0.386251 0.407207
334 2 0.321933 0.377383 0.415411
561 4 0.458076 0.363624 0.38002
752 4 0.458145 0.37965 0.36774
559 2 0.467781 0.367713 0.402698
751 2 0.466295 0.39451 0.349357
407 4 0.0534859 0.427026 0.375578
548 4 0.0555034 0.435115 0.357926
499 2 0.136565 0.494905 0.377894
501 4 0.116151 0.487541 0.390314
668 4 0.296343 0.439074 0.419336
5 3 0.29923 0.47887 0.385677
1 1 0.310379 0.476431 0.405385
3 3 0.332991 0.473158 0.401336
592 2 0.41848 0.484769 0.353958
594 4 0.418183 0.460985 0.346251
718 2 0.0323347 0.063734 0.456771
720 4 0.0282233 0.0528876 0.478922
2237 4 0.0332428 0.0342918 0.480617
2236 2 0.0322347 0.00932215 0.481439
1127 4 0.0197754 0.0400641 0.492215
719 4 0.0364461 0.0745803 0.434621
368 4 0.0857381 0.00707622 0.461491
367 2 0.106554 0.0164416 0.451284
369 4 0.127369 0.0258069 0.441077
1182 4 0.272716 0.0832428 0.487387
726 4 0.287849 0.0481864 0.437319
724 2 0.306013 0.0640197 0.443993
432 4 0.314262 0.0497505 0.485583
963 4 0.297661 0.0461089 0.474542
725 4 0.324177 0.079853 0.450667
961 2 0.283021 0.0333282 0.490274
2878 2 0.491208 0.0741433 0.467916
458 4 0.0336218 0.149001 0.42977
1181 4 0.223543 0.0871093 0.479157
1180 2 0.248129 0.0851761 0.483272
321 4 0.285539 0.114555 0.451479
319 2 0.290213 0.118038 0.427164
574 2 0.396047 0.137632 0.437202
575 4 0.406038 0.125821 0.417559
576 4 0.386056 0.149444 0.456845
642 4 0.484525 0.107927 0.467563
2880 4 0.479144 0.0928045 0.479379
640 2 0.463658 0.121698 0.467278
641 4 0.44279 0.135469 0.466992
469 2 0.0109175 0.179024 0.46579
470 4 0.0336692 0.187231 0.47213
260 4 0.097971 0.239922 0.449469
261 4 0.112454 0.195474 0.467226
259 2 0.105212 0.217698 0.458347
1035 4 0.10093 0.188823 0.482024
411 4 0.275551 0.17649 0.433276
409 2 0.275585 0.187176 0.455881
410 4 0.275618 0.197863 0.478486
900 4 0.290309 0.20307 0.491166
489 4 0.288644 0.237676 0.420927
466 2 0.394107 0.208149 0.424147
467 4 0.402395 0.186823 0.43423
266 4 0.336111 0.24922 0.439933
305 4 0.466592 0.205336 0.433216
304 2 0.448946 0.203641 0.45085
306 4 0.431301 0.201945 0.468483
346 2 0.0568247 0.304812 0.423638
348 4 0.0529852 0.308964 0.447994
326 4 0.0572253 0.310748 0.467411
325 2 0.0760198 0.327203 0.468507
695 4 0.0898207 0.25827 0.45448
694 2 0.0936784 0.265478 0.478109
7 3 0.141495 0.325286 0.492783
6 1 0.163856 0.330225 0.494959
10 3 0.17606 0.311235 0.491945
651 4 0.229099 0.293653 0.49012
650 4 0.276971 0.308071 0.48907
649 2 0.253035 0.300862 0.489595
267 4 0.372654 0.283113 0.444013
265 2 0.354383 0.266167 0.441973
583 2 0.481136 0.287094 0.46621
585 4 0.456381 0.283662 0.466977
2812 2 0.00134787 0.391745 0.446126
2813 4 0.011265 0.370862 0.455652
935 4 0.000506958 0.416388 0.489453
327 4 0.0948143 0.343657 0.469603
711 4 0.165351 0.36531 0.47823
502 2 0.237321 0.386045 0.424681
635 4 0.206455 0.411183 0.473548
8 3 0.16965 0.345985 0.478945
709 2 0.186328 0.378907 0.477687
710 4 0.207304 0.392504 0.477144
774 4 0.222755 0.40381 0.480826
503 4 0.259355 0.385314 0.436476
238 2 0.367282 0.382518 0.449087
240 4 0.343826 0.381126 0.440537
335 4 0.343824 0.368515 0.423615
239 4 0.390737 0.383911 0.457637
587 4 0.412614 0.411651 0.478239
560 4 0.477486 0.371801 0.425375
926 4 0.426385 0.397356 0.47995
2507 4 0.484712 0.390418 0.425386
539 4 0.0755083 0.494567 0.476146
679 2 0.0570626 0.463753 0.459667
1383 4 0.0494291 0.482434 0.429326
681 4 0.0701603 0.445289 0.470283
680 4 0.043965 0.482217 0.44905
382 2 0.109482 0.438577 0.459599
568 2 0.154641 0.464975 0.435443
383 4 0.088971 0.436664 0.47377
569 4 0.143731 0.44276 0.431889
384 4 0.129993 0.44049 0.445428
570 4 0.165551 0.487191 0.438996
636 4 0.215537 0.451961 0.446063
634 2 0.210996 0.431572 0.459805
667 2 0.303141 0.42725 0.440292
2 3 0.307764 0.495501 0.41798
4 3 0.301754 0.458408 0.417182
669 4 0.309939 0.415426 0.461249
882 4 0.313223 0.471722 0.487898
586 2 0.409311 0.436353 0.480264
588 4 0.406009 0.461055 0.48229
663 4 0.473752 0.462073 0.481621
1126 2 0.0226224 0.0555501 0.511638
1128 4 0.0254694 0.0710361 0.531061
1058 4 0.134562 0.0455873 0.58591
2430 4 0.16841 0.0166185 0.511212
340 2 0.183532 0.0584503 0.509242
341 4 0.177907 0.0342306 0.506608
1031 4 0.251767 0.0669302 0.558961
951 4 0.265521 0.0528653 0.557436
962 4 0.268381 0.0205476 0.506007
430 2 0.330104 0.060226 0.501845
949 2 0.274131 0.0307515 0.565312
950 4 0.28274 0.00863778 0.573189
1217 4 0.399067 0.0471913 0.57007
1216 2 0.394579 0.0232871 0.575869
841 2 0.374971 0.0629108 0.538846
842 4 0.384858 0.0578825 0.561255
431 4 0.345947 0.0707015 0.518107
843 4 0.365085 0.0679392 0.516437
938 4 0.0661857 0.109363 0.545589
937 2 0.0795554 0.125405 0.531839
1034 4 0.0879075 0.160927 0.521432
939 4 0.092925 0.141447 0.518088
1155 4 0.156032 0.111438 0.5769
1151 4 0.16689 0.110871 0.56007
342 4 0.189158 0.0826701 0.511876
1150 2 0.172292 0.104953 0.536384
1030 2 0.2369 0.0865331 0.563419
1152 4 0.177694 0.099036 0.512699
1032 4 0.222033 0.106136 0.567878
858 4 0.255561 0.156909 0.501901
878 4 0.0455387 0.214063 0.549952
1199 4 0.0272504 0.219774 0.545514
1198 2 0.0024407 0.216667 0.54562
877 2 0.0625071 0.207799 0.567215
1033 2 0.094419 0.174875 0.501728
1272 4 0.0989428 0.208221 0.5813
857 4 0.270342 0.194086 0.531903
856 2 0.262952 0.175498 0.516902
898 2 0.31271 0.201167 0.502108
791 4 0.279105 0.236193 0.563481
790 2 0.295651 0.245836 0.579557
899 4 0.335112 0.199264 0.51305
871 2 0.403176 0.231999 0.533204
873 4 0.383137 0.23038 0.54807
872 4 0.423215 0.233619 0.518338
3158 4 0.477844 0.17848 0.535906
904 2 0.484686 0.242373 0.579247
3157 2 0.493305 0.179086 0.516265
983 4 0.0424641 0.322076 0.566562
1258 2 0.12898 0.29365 0.51305
1260 4 0.116515 0.275894 0.500618
1259 4 0.141445 0.311405 0.525482
696 4 0.0975361 0.272685 0.501739
811 2 0.302999 0.318046 0.509804
804 4 0.260918 0.325875 0.514945
813 4 0.327785 0.317911 0.513094
812 4 0.278213 0.318181 0.506515
954 4 0.468882 0.320396 0.563946
1011 4 0.488796 0.314124 0.56003
952 2 0.457213 0.30486 0.579682
906 4 0.464738 0.249446 0.565934
1136 4 0.0958511 0.365755 0.5619
1135 2 0.109209 0.379539 0.577924
9 3 0.167619 0.338765 0.516203
1189 2 0.224408 0.378779 0.557681
773 4 0.240746 0.390888 0.525659
1190 4 0.243804 0.381146 0.54208
1191 4 0.205013 0.376412 0.573282
772 2 0.23175 0.397349 0.503242
896 4 0.187859 0.37371 0.581314
803 4 0.245717 0.372371 0.525326
802 2 0.253318 0.349123 0.520135
930 4 0.29619 0.38429 0.553197
928 2 0.298924 0.383022 0.528376
929 4 0.301657 0.381754 0.503555
927 4 0.433764 0.380799 0.526556
3309 4 0.487063 0.384565 0.571169
925 2 0.430075 0.389078 0.503253
934 2 0.999412 0.42641 0.512334
1161 4 0.158987 0.488542 0.564095
1159 2 0.173247 0.476592 0.5808
891 4 0.308391 0.44245 0.555992
880 2 0.325894 0.481253 0.507232
889 2 0.323647 0.45688 0.569565
881 4 0.338564 0.490783 0.526566
1952 4 0.356323 0.481686 0.532456
1002 4 0.40071 0.439205 0.552017
1951 2 0.361737 0.498497 0.550155
1000 2 0.419634 0.455546 0.552071
1001 4 0.438559 0.471887 0.552125
662 4 0.466034 0.486473 0.524584
661 2 0.469893 0.474273 0.503103
1911 4 0.455744 0.484997 0.55085
1909 2 0.447975 0.49961 0.569592
943 2 0.0666873 0.0279277 0.638392
945 4 0.0627694 0.00888029 0.654109
944 4 0.0706051 0.0469752 0.622675
1057 2 0.144379 0.0685828 0.586028
825 4 0.126433 0.0072098 0.604095
823 2 0.136192 0.998767 0.625512
1090 2 0.309238 0.00618312 0.650198
808 2 0.486692 0.0811289 0.634027
810 4 0.484442 0.0841799 0.658742
809 4 0.488942 0.0780779 0.609313
1083 4 0.0156819 0.138621 0.625022
1081 2 0.0213891 0.123407 0.644026
1082 4 0.0270963 0.108193 0.66303
3179 4 0.00380591 0.152777 0.633263
1059 4 0.154196 0.0915782 0.586145
1153 2 0.154966 0.135276 0.58437
1154 4 0.153899 0.159113 0.591841
1284 4 0.177647 0.0923638 0.631084
1282 2 0.171191 0.105426 0.651404
45 3 0.435747 0.0840248 0.654325
879 4 0.0794756 0.201535 0.584478
1243 2 0.0694888 0.228442 0.631251
1244 4 0.0545883 0.240892 0.615498
1245 4 0.0843892 0.215991 0.647003
1270 2 0.118685 0.220045 0.591078
1271 4 0.138428 0.231869 0.600855
1209 4 0.0930389 0.210145 0.664595
1221 4 0.156377 0.177411 0.598807
1210 2 0.231434 0.186923 0.641326
1212 4 0.216775 0.196897 0.623697
1219 2 0.178255 0.187029 0.60616
1220 4 0.200132 0.196646 0.613512
796 2 0.225436 0.233549 0.610296
798 4 0.212356 0.21235 0.612461
1211 4 0.246093 0.176948 0.658956
888 4 0.26444 0.171672 0.664679
3123 4 0.465298 0.248406 0.654068
982 2 0.0473718 0.331249 0.589298
947 4 0.165456 0.271581 0.655737
797 4 0.238515 0.254749 0.608132
946 2 0.188979 0.278072 0.661185
948 4 0.212503 0.284564 0.666634
792 4 0.312197 0.255478 0.595632
1238 4 0.302747 0.273619 0.594785
1237 2 0.311314 0.288852 0.612665
1239 4 0.319881 0.304085 0.630546
953 4 0.445545 0.289323 0.595419
984 4 0.0522794 0.340422 0.612035
1039 2 0.0808532 0.356919 0.625974
1041 4 0.0654161 0.337255 0.625513
3263 4 0.0486157 0.344695 0.631347
3262 2 0.0258268 0.347653 0.641201
3264 4 0.0030379 0.350611 0.651054
897 4 0.14019 0.387333 0.587855
895 2 0.164025 0.380521 0.584584
1137 4 0.122567 0.393322 0.593948
1040 4 0.0962902 0.376583 0.626435
991 2 0.123109 0.399419 0.653995
993 4 0.104915 0.389341 0.640119
1172 4 0.226624 0.4087 0.6048
1029 4 0.231967 0.409255 0.662148
1206 4 0.405949 0.388909 0.659304
1204 2 0.426441 0.401806 0.653064
1188 4 0.202351 0.495464 0.651184
1173 4 0.197383 0.449192 0.602339
1171 2 0.212003 0.428946 0.603569
1187 4 0.201609 0.465722 0.61099
1160 4 0.187508 0.464643 0.597504
1186 2 0.20198 0.480593 0.631087
890 4 0.338903 0.471309 0.583138
1205 4 0.446933 0.414703 0.646823
1269 4 0.453502 0.463559 0.635149
1267 2 0.446312 0.477744 0.654444
1147 2 0.210438 0.0761604 0.737136
1149 4 0.223797 0.0563617 0.729738
2255 4 0.183475 0.00728496 0.736702
1091 4 0.310509 0.0230453 0.668616
1004 4 0.348693 0.0839736 0.725442
44 3 0.469476 0.0789619 0.670273
1163 4 0.487462 0.079952 0.677078
42 3 0.444086 0.0512498 0.67011
41 1 0.446835 0.0740439 0.671532
43 3 0.438249 0.0813845 0.6918
1076 4 0.0357979 0.0965425 0.676509
864 4 0.061646 0.114972 0.735353
1075 2 0.048079 0.106379 0.695941
1077 4 0.0603601 0.116216 0.715372
909 4 0.104018 0.122105 0.678997
907 2 0.12869 0.125401 0.681357
908 4 0.153363 0.128697 0.683716
1106 4 0.130251 0.153516 0.73809
1283 4 0.164736 0.118489 0.671723
1227 4 0.168925 0.11919 0.691138
1148 4 0.197079 0.095959 0.744534
1225 2 0.181312 0.116798 0.712725
1226 4 0.1937 0.114405 0.734312
1005 4 0.302157 0.0921355 0.709055
1003 2 0.325425 0.0880545 0.717249
1142 4 0.385794 0.160165 0.703328
831 4 0.365801 0.158585 0.701449
845 4 0.47227 0.090919 0.751173
1025 4 0.474744 0.158891 0.676362
3424 2 0.495328 0.115659 0.702417
3426 4 0.488089 0.0955993 0.689364
852 4 0.0443683 0.188013 0.715818
850 2 0.062532 0.189063 0.732969
1213 2 0.0121513 0.214391 0.735118
1207 2 0.0945283 0.200425 0.687583
1208 4 0.0960177 0.190705 0.710572
1130 4 0.183205 0.198762 0.706873
1129 2 0.183992 0.217192 0.723751
1131 4 0.18478 0.235622 0.74063
830 4 0.322053 0.180948 0.692138
886 2 0.284362 0.180377 0.67703
887 4 0.304284 0.189081 0.68938
976 2 0.307136 0.195466 0.729806
978 4 0.309664 0.185404 0.707056
918 4 0.310582 0.223075 0.747459
829 2 0.343927 0.169766 0.696793
1192 2 0.360888 0.237603 0.685057
1194 4 0.384914 0.232341 0.680555
1141 2 0.406987 0.170918 0.711103
1193 4 0.336863 0.242866 0.689559
1024 2 0.457559 0.170883 0.690001
1143 4 0.42818 0.18167 0.718877
1026 4 0.440374 0.182875 0.703641
1261 2 0.441513 0.214156 0.724641
1262 4 0.430183 0.198196 0.709082
1263 4 0.452843 0.230116 0.7402
820 2 0.171874 0.27083 0.731995
821 4 0.170924 0.291527 0.717998
1064 4 0.229731 0.288409 0.676433
1065 4 0.22214 0.311397 0.720189
1063 2 0.225935 0.299903 0.698311
822 4 0.172825 0.250132 0.745991
3121 2 0.481105 0.251978 0.673109
3122 4 0.496912 0.255551 0.69215
893 4 0.0271228 0.342725 0.683745
3275 4 0.00104394 0.411801 0.747375
3274 2 0.0183696 0.394167 0.743625
892 2 0.0349139 0.354268 0.704511
894 4 0.0427051 0.365811 0.725278
3276 4 0.0356953 0.376534 0.739875
816 4 0.0531459 0.380597 0.73197
814 2 0.0757349 0.375631 0.741471
940 2 0.132037 0.378269 0.748513
941 4 0.152105 0.375502 0.733857
992 4 0.141304 0.409498 0.667871
1067 4 0.16723 0.373741 0.719232
1027 2 0.208975 0.410825 0.671848
1066 2 0.167572 0.389528 0.699845
1068 4 0.167914 0.405315 0.680458
1028 4 0.185983 0.412395 0.681548
806 4 0.292685 0.363556 0.67455
805 2 0.314822 0.368666 0.684992
807 4 0.336958 0.373776 0.695434
1281 4 0.0300542 0.497535 0.734683
1280 4 0.0622507 0.462417 0.719488
1279 2 0.0461525 0.479976 0.727085
1140 4 0.2406 0.439129 0.709558
1139 4 0.280541 0.425014 0.736132
1138 2 0.260571 0.432072 0.722845
1228 2 0.394277 0.457306 0.729151
1229 4 0.377324 0.473869 0.737116
1230 4 0.411229 0.440743 0.721185
1989 4 0.371046 0.492065 0.733525
1100 4 0.426493 0.437571 0.709812
1101 4 0.469857 0.424758 0.731171
1099 2 0.448175 0.431164 0.720492
1268 4 0.439123 0.49193 0.673738
1294 2 0.058319 0.0300304 0.785674
1295 4 0.06148 0.0535558 0.777817
1296 4 0.055158 0.00650496 0.793532
2047 2 0.121644 0.00179865 0.770761
1203 4 0.11591 0.0776706 0.796453
1201 2 0.108098 0.0544324 0.79154
1202 4 0.100285 0.0311943 0.786628
2049 4 0.106672 0.0218197 0.770332
911 4 0.0893727 0.0655894 0.824457
1257 4 0.245045 0.035688 0.78514
1255 2 0.249335 0.0533129 0.802348
974 4 0.324714 0.00395845 0.830196
1256 4 0.253626 0.0709377 0.819557
1111 2 0.393945 0.0522036 0.823897
1113 4 0.402997 0.0369708 0.806257
2321 4 0.460297 0.00831822 0.778644
2322 4 0.492686 0.0462076 0.782654
2320 2 0.476492 0.0272629 0.780649
862 2 0.0481753 0.111069 0.756053
863 4 0.0347045 0.107167 0.776753
832 2 0.0259323 0.102559 0.819804
833 4 0.0279128 0.108949 0.795712
1105 2 0.112527 0.166617 0.749897
31 1 0.112325 0.151678 0.814963
35 3 0.1278 0.139048 0.804025
34 3 0.0917994 0.140857 0.814902
838 2 0.248891 0.112547 0.829624
840 4 0.255956 0.0917246 0.81772
959 4 0.299138 0.15188 0.823403
1084 2 0.365175 0.161067 0.805916
1085 4 0.379564 0.146818 0.820583
50 3 0.423249 0.163393 0.782615
844 2 0.495415 0.0843072 0.757939
1214 4 0.0280643 0.20072 0.748723
1072 2 0.0808222 0.236561 0.756544
1074 4 0.0573768 0.240613 0.76423
1073 4 0.104268 0.232509 0.748858
32 3 0.110101 0.171905 0.804236
851 4 0.0806958 0.190113 0.75012
1107 4 0.0948027 0.179718 0.761703
1277 4 0.185439 0.243747 0.758753
1276 2 0.186602 0.246883 0.783532
1278 4 0.187766 0.250019 0.808311
1241 4 0.204865 0.246165 0.817689
1298 4 0.32364 0.210863 0.754883
977 4 0.304608 0.205528 0.752555
916 2 0.300722 0.24573 0.751289
1086 4 0.350786 0.175315 0.791249
1299 4 0.3666 0.213041 0.780386
1297 2 0.34512 0.211952 0.767635
1043 4 0.412325 0.217033 0.77406
49 3 0.408802 0.197059 0.773923
1042 2 0.41977 0.238929 0.783562
48 3 0.418491 0.189024 0.809783
1022 4 0.425323 0.179709 0.825977
1145 4 0.468991 0.233842 0.752746
46 1 0.423803 0.185641 0.787451
47 3 0.444983 0.19372 0.783538
1144 2 0.483372 0.214706 0.75997
1146 4 0.497753 0.195571 0.767195