ITEM: TIMESTEP
810000
ITEM: NUMBER OF ATOMS
4590
ITEM: BOX BOUNDS pp pp pp
-9.9985700000000008e+00 9.9985700000000008e+00
-9.9985700000000008e+00 9.9985700000000008e+00
-9.9985700000000008e+00 9.9985700000000008e+00
ITEM: ATOMS id type xs ys zs
463 2 0.0502589 0.0694672 0.0262301
464 4 0.0297396 0.0570881 0.0190962
491 4 0.264142 0.0212669 0.0496087
558 4 0.349799 0.0698728 0.0394407
556 2 0.350365 0.0603237 0.0625421
557 4 0.350931 0.0507745 0.0856434
745 2 0.476262 0.0509362 0.0101647
746 4 0.484731 0.0467813 0.0333207
2469 4 0.486392 0.0274845 0.0379523
465 4 0.0707783 0.0818463 0.0333641
701 4 0.0703497 0.0829086 0.0535595
589 2 0.0121737 0.15573 0.0729363
591 4 0.989045 0.164856 0.0702964
421 2 0.0949399 0.145059 0.0127522
422 4 0.0952624 0.169395 0.00702203
700 2 0.0897723 0.0984911 0.0558238
702 4 0.109195 0.114074 0.0580881
566 4 0.129182 0.111023 0.0589074
565 2 0.151613 0.101586 0.0531636
423 4 0.0946175 0.120723 0.0184823
567 4 0.174044 0.0921499 0.0474198
360 4 0.253581 0.147407 0.0266412
358 2 0.268762 0.131929 0.0141858
359 4 0.283944 0.116451 0.00173036
770 4 0.434441 0.147324 0.0717109
769 2 0.448816 0.162934 0.0849346
553 2 0.0461313 0.191676 0.0173206
554 4 0.0349715 0.172812 0.029354
836 4 0.0733166 0.200148 0.00633201
555 4 0.0572911 0.210539 0.0052871
835 2 0.094045 0.214038 0.00471957
837 4 0.114773 0.227927 0.00310713
666 4 0.327081 0.223335 0.0284885
664 2 0.33045 0.200715 0.0183805
573 4 0.323266 0.234587 0.0437924
461 4 0.336864 0.220103 0.0447218
460 2 0.341924 0.22385 0.0689197
1069 2 0.415296 0.256369 0.0185342
1013 4 0.473742 0.179631 0.0355741
1014 4 0.49373 0.225464 0.0348685
1012 2 0.483736 0.202548 0.0352213
1071 4 0.424028 0.259091 0.0418048
292 2 0.120206 0.303723 0.0508958
293 4 0.127899 0.299588 0.0743242
294 4 0.112512 0.307858 0.0274673
507 4 0.147583 0.301072 0.0705834
505 2 0.172578 0.300817 0.071167
355 2 0.257034 0.288999 0.0206454
357 4 0.240531 0.300302 0.00564253
481 2 0.2291 0.321486 0.0742089
506 4 0.197574 0.300563 0.0717506
571 2 0.307877 0.253866 0.0397066
356 4 0.273536 0.277695 0.0356483
572 4 0.292488 0.273144 0.0356208
482 4 0.252421 0.325008 0.0825094
324 4 0.41242 0.258308 0.0580257
957 4 0.372936 0.328163 0.00624553
322 2 0.428265 0.271989 0.0716983
670 2 0.449175 0.326121 0.0672623
519 4 0.4738 0.26389 0.0736516
672 4 0.440151 0.30503 0.0772055
287 4 0.139287 0.353469 0.000983743
455 4 0.133757 0.381591 0.0664213
454 2 0.109904 0.376185 0.0716176
609 4 0.250102 0.340346 0.070897
252 4 0.292859 0.393006 0.0512142
608 4 0.282211 0.377203 0.0603499
607 2 0.266157 0.358775 0.0656234
741 4 0.355925 0.339542 0.0836925
671 4 0.4582 0.347213 0.0573192
281 4 0.475696 0.35498 0.0534536
280 2 0.481415 0.376589 0.042251
282 4 0.487134 0.398199 0.0310483
551 4 0.0875451 0.424145 0.0638891
550 2 0.0888279 0.448359 0.0699869
552 4 0.0901107 0.472574 0.0760847
1787 4 0.0970893 0.489899 0.0687318
625 2 0.218309 0.448559 0.0891411
245 4 0.250228 0.474939 0.0782475
626 4 0.198285 0.433602 0.08984
627 4 0.238334 0.463515 0.0884422
250 2 0.295383 0.417647 0.0478058
244 2 0.256805 0.485475 0.0565473
251 4 0.297907 0.442289 0.0443973
271 2 0.27722 0.480358 6.61013e-05
272 4 0.273542 0.497171 0.0182034
246 4 0.263382 0.496012 0.0348471
525 4 0.369067 0.487052 0.0475024
523 2 0.365058 0.473191 0.0679221
227 4 0.471303 0.476963 0.069694
16 1 0.037488 0.0702189 0.151665
17 3 0.0576114 0.0799199 0.14618
18 3 0.0373978 0.0483055 0.144036
1804 2 0.0812541 0.00685972 0.141044
2576 4 0.00801902 0.0376225 0.0711255
1667 4 0.0940965 0.0106298 0.104386
1805 4 0.0978936 0.0021538 0.122984
652 2 0.305137 0.00861024 0.151063
653 4 0.287014 0.0257649 0.152623
296 4 0.359789 0.0541316 0.102262
295 2 0.370369 0.0349421 0.114304
297 4 0.380948 0.0157526 0.126346
485 4 0.377926 6.37486e-05 0.11364
20 3 0.0205952 0.0819298 0.14186
590 4 0.0353022 0.146604 0.0755761
237 4 0.136679 0.144717 0.1495
235 2 0.158225 0.132071 0.148485
236 4 0.17977 0.119425 0.14747
693 4 0.185827 0.109231 0.163211
283 2 0.266619 0.150315 0.138462
284 4 0.279306 0.128934 0.14112
312 4 0.449996 0.130119 0.156471
337 2 0.0541215 0.221401 0.142148
339 4 0.0315357 0.231413 0.138298
363 4 0.0830103 0.223916 0.16025
338 4 0.0767073 0.211389 0.145998
476 4 0.138998 0.196562 0.116952
475 2 0.116577 0.202018 0.126582
477 4 0.0941569 0.207473 0.136212
737 4 0.157675 0.193305 0.123268
738 4 0.197185 0.223152 0.130253
736 2 0.17743 0.208228 0.126761
285 4 0.253932 0.171697 0.135805
462 4 0.346983 0.227598 0.0931176
254 4 0.385122 0.204361 0.131458
255 4 0.347309 0.208416 0.0989863
253 2 0.366216 0.206389 0.115222
630 4 0.402409 0.200054 0.124061
765 4 0.3523 0.217669 0.175586
771 4 0.463192 0.178543 0.0981583
629 4 0.43602 0.231468 0.143661
628 2 0.419214 0.215761 0.133861
2895 4 0.495073 0.239905 0.116681
518 4 0.474821 0.239903 0.117518
483 4 0.205779 0.317965 0.0659084
354 4 0.308524 0.256657 0.107606
352 2 0.308126 0.270034 0.128726
353 4 0.307729 0.283412 0.149846
754 2 0.297466 0.324404 0.145852
755 4 0.297766 0.299744 0.149971
278 4 0.291323 0.284172 0.159945
323 4 0.444111 0.28567 0.0853709
517 2 0.47431 0.251896 0.0955849
620 4 0.0202333 0.347533 0.0965528
647 4 0.0361236 0.356063 0.0869522
646 2 0.0522719 0.359061 0.105805
648 4 0.0684201 0.362059 0.124658
456 4 0.0860516 0.370779 0.0768138
537 4 0.231309 0.394584 0.157538
535 2 0.213499 0.386364 0.142032
536 4 0.19569 0.378144 0.126526
611 4 0.245982 0.387136 0.168937
756 4 0.297165 0.349064 0.141734
612 4 0.283901 0.36256 0.147516
610 2 0.264941 0.374848 0.158226
387 4 0.328083 0.392037 0.158035
739 2 0.366073 0.345758 0.105682
740 4 0.37622 0.351975 0.127672
15 3 0.380085 0.367673 0.13942
385 2 0.345186 0.378357 0.145971
386 4 0.362289 0.364677 0.133908
11 1 0.402055 0.373591 0.138461
14 3 0.404046 0.396708 0.138711
495 4 0.402504 0.409694 0.124787
12 3 0.411225 0.365548 0.118958
13 3 0.413507 0.36446 0.156458
1467 4 0.0167633 0.46567 0.119696
1465 2 0.0290913 0.487361 0.121347
1466 4 0.0414192 0.509051 0.122997
242 4 0.11106 0.493957 0.083155
524 4 0.361049 0.459329 0.0883417
658 2 0.413415 0.482812 0.15197
493 2 0.396193 0.431874 0.134453
660 4 0.402495 0.467403 0.135583
494 4 0.389883 0.454053 0.144119
226 2 0.480218 0.460488 0.0862553
228 4 0.489133 0.444013 0.102817
2480 4 0.00531852 0.0148707 0.181942
1404 4 0.0781965 0.00697532 0.254592
19 3 0.0350252 0.0705852 0.174735
673 2 0.129489 0.0688141 0.222146
674 4 0.133457 0.0556949 0.243059
675 4 0.125521 0.0819332 0.201234
1506 4 0.22112 0.0114485 0.170801
1504 2 0.202396 0.0269306 0.176707
450 4 0.174782 0.0547361 0.168681
1505 4 0.183672 0.0424128 0.182613
448 2 0.176273 0.077342 0.158101
689 4 0.185621 0.0153614 0.241594
28 3 0.317427 0.0811193 0.232934
758 4 0.404096 0.0763381 0.173751
21 1 0.377025 0.0256042 0.231881
25 3 0.390945 0.043567 0.23337
759 4 0.388934 0.0522717 0.21488
757 2 0.396515 0.0643049 0.194315
22 3 0.374193 0.0200275 0.209744
24 3 0.386256 0.00748666 0.243059
23 3 0.356342 0.0308389 0.241003
744 4 0.470071 0.0297865 0.237144
351 4 0.45466 0.042164 0.243384
349 2 0.438725 0.0612724 0.240909
350 4 0.42279 0.0803808 0.238434
380 4 0.02629 0.0821835 0.188102
512 4 0.0286554 0.151748 0.187798
379 2 0.023761 0.107025 0.189406
381 4 0.0212319 0.131866 0.190711
579 4 0.0698502 0.100541 0.182156
577 2 0.0809787 0.122785 0.179602
578 4 0.0921072 0.14503 0.177049
449 4 0.177764 0.0999478 0.147521
691 2 0.20762 0.119905 0.169238
692 4 0.229413 0.130579 0.175266
723 4 0.203217 0.12567 0.209761
721 2 0.19611 0.142461 0.226871
722 4 0.189003 0.159251 0.243981
582 4 0.247312 0.132596 0.186365
580 2 0.265704 0.126637 0.20222
581 4 0.284096 0.120679 0.218076
30 3 0.302724 0.114779 0.224658
26 1 0.312386 0.102265 0.24105
29 3 0.298041 0.100567 0.259209
27 3 0.331851 0.112446 0.247876
310 2 0.447124 0.132972 0.181145
311 4 0.444253 0.135824 0.205818
511 2 0.0437841 0.168635 0.198339
513 4 0.0589127 0.185523 0.208881
362 4 0.0953347 0.220093 0.208563
361 2 0.0891725 0.222004 0.184407
372 4 0.114404 0.212991 0.207741
370 2 0.135072 0.216667 0.221323
371 4 0.155741 0.220343 0.234906
763 2 0.362478 0.235581 0.189754
764 4 0.372656 0.253493 0.203923
520 2 0.487172 0.198626 0.223508
521 4 0.465716 0.210291 0.228871
395 4 0.0516425 0.271753 0.228697
750 4 0.0711164 0.26806 0.223432
748 2 0.073977 0.289291 0.210539
749 4 0.0768376 0.310523 0.197647
279 4 0.254662 0.267406 0.189536
277 2 0.272992 0.275789 0.174741
307 2 0.316903 0.258917 0.224598
308 4 0.319755 0.247406 0.24661
309 4 0.314051 0.270428 0.202586
623 4 0.388196 0.25497 0.192464
622 2 0.406919 0.269877 0.185224
624 4 0.425642 0.284784 0.177985
528 4 0.44323 0.292961 0.184024
527 4 0.484364 0.276755 0.207391
526 2 0.463797 0.284858 0.195708
263 4 0.0724436 0.417172 0.247607
262 2 0.0594165 0.41132 0.227083
300 4 0.147301 0.347367 0.219608
298 2 0.14373 0.362772 0.238976
603 4 0.131234 0.391256 0.270634
290 4 0.230473 0.400766 0.232673
302 4 0.320176 0.40709 0.167767
301 2 0.305484 0.409148 0.187894
303 4 0.290791 0.411207 0.20802
645 4 0.454549 0.406218 0.168584
643 2 0.455642 0.385553 0.182618
644 4 0.456736 0.364887 0.196651
447 4 0.466199 0.354974 0.211922
445 2 0.484837 0.365151 0.225122
264 4 0.0463893 0.405468 0.206559
417 4 0.169597 0.482554 0.193757
1430 4 0.176787 0.498631 0.201255
415 2 0.174804 0.461203 0.205682
289 2 0.213044 0.418559 0.230484
291 4 0.195614 0.436352 0.228295
416 4 0.18001 0.439851 0.217606
766 2 0.264709 0.488556 0.166103
768 4 0.256795 0.470314 0.181261
659 4 0.424334 0.498221 0.168356
597 4 0.467016 0.413354 0.182717
595 2 0.473333 0.437385 0.179923
231 4 0.424317 0.505009 0.187765
596 4 0.479651 0.461415 0.177129
1568 4 0.480157 0.480442 0.181914
1798 2 0.0235196 0.0123153 0.319998
1799 4 0.0259427 0.0221293 0.297129
233 4 0.0245505 0.0263272 0.278344
1402 2 0.0600358 0.014014 0.270271
1403 4 0.0418751 0.0210527 0.28595
232 2 0.00834223 0.0413789 0.266686
1699 2 0.210956 0.0530525 0.307323
1701 4 0.202707 0.0318014 0.29705
1700 4 0.219204 0.0743037 0.317596
1516 2 0.384852 0.00893008 0.296641
697 2 0.392987 0.0651957 0.313011
699 4 0.389184 0.0507704 0.292945
1518 4 0.379598 0.0333188 0.298304
742 2 0.484659 0.0200723 0.254977
478 2 0.460904 0.0366335 0.304938
479 4 0.482355 0.0248444 0.29983
480 4 0.439454 0.0484225 0.310045
398 4 0.0924166 0.135094 0.316256
248 4 0.221845 0.0908702 0.305978
249 4 0.214053 0.138737 0.318177
247 2 0.217949 0.114803 0.312078
404 4 0.20796 0.151176 0.303461
546 4 0.171681 0.158283 0.253085
403 2 0.197263 0.159593 0.282487
333 4 0.439542 0.127115 0.308778
331 2 0.448569 0.145554 0.294505
332 4 0.457595 0.163992 0.280232
544 2 0.152215 0.173782 0.255537
393 4 0.0886492 0.213177 0.291352
392 4 0.118348 0.20184 0.252749
391 2 0.103498 0.207509 0.272051
545 4 0.132749 0.189282 0.25799
405 4 0.186567 0.16801 0.261513
378 4 0.289097 0.229807 0.320849
377 4 0.328148 0.206525 0.341674
376 2 0.308623 0.218166 0.331262
418 2 0.410169 0.195388 0.319278
419 4 0.406722 0.172586 0.309613
760 2 0.488198 0.184774 0.280101
762 4 0.465549 0.180213 0.289661
394 2 0.0384704 0.272087 0.249947
396 4 0.0252984 0.272421 0.271197
442 2 0.0139949 0.260715 0.312256
443 4 0.0228007 0.268729 0.290269
364 2 0.0157924 0.311242 0.28079
365 4 0.0190787 0.286527 0.282673
366 4 0.0125061 0.335957 0.278907
401 4 0.174313 0.277608 0.281145
345 4 0.226968 0.298813 0.304116
400 2 0.192187 0.285182 0.296903
402 4 0.210062 0.292756 0.312661
510 4 0.215529 0.311888 0.310879
508 2 0.205818 0.329927 0.325212
343 2 0.250626 0.303416 0.297465
344 4 0.274285 0.30802 0.290813
498 4 0.393731 0.288817 0.303958
496 2 0.36939 0.284919 0.299771
497 4 0.34505 0.281021 0.295584
543 4 0.402594 0.32881 0.315506
542 4 0.437146 0.293024 0.310379
541 2 0.41987 0.310917 0.312943
602 4 0.0903163 0.416889 0.257619
2493 4 0.00953836 0.343898 0.296473
299 4 0.14016 0.378177 0.258344
601 2 0.110775 0.404072 0.264127
734 4 0.147817 0.39536 0.261482
733 2 0.165628 0.395357 0.279031
735 4 0.183438 0.395354 0.296579
677 4 0.189893 0.40476 0.313
676 2 0.197517 0.385618 0.327164
509 4 0.196106 0.347967 0.339545
435 4 0.238833 0.36256 0.33033
727 2 0.33037 0.382584 0.282598
728 4 0.308509 0.375387 0.292369
438 4 0.272853 0.415084 0.265788
729 4 0.352231 0.38978 0.272826
615 4 0.409608 0.344737 0.305076
613 2 0.3954 0.360084 0.318779
614 4 0.381192 0.375431 0.332482
2538 4 0.483309 0.409554 0.325562
2536 2 0.481057 0.413383 0.300956
2537 4 0.478805 0.417212 0.276351
753 4 0.478648 0.390288 0.327786
549 4 0.0433562 0.426542 0.302454
547 2 0.0353745 0.419919 0.325205
777 4 0.0999688 0.443125 0.303022
775 2 0.11982 0.456905 0.296602
776 4 0.139671 0.470686 0.290182
414 4 0.151291 0.472847 0.306924
412 2 0.155671 0.494981 0.317698
413 4 0.160051 0.517115 0.328473
437 4 0.263502 0.457125 0.291202
436 2 0.268178 0.436105 0.278495
2860 2 0.488686 0.450851 0.250289
2862 4 0.4691 0.453323 0.265634
594 4 0.402441 0.454669 0.32035
592 2 0.418245 0.470452 0.331588
1800 4 0.0210966 0.00250117 0.342867
367 2 0.0877501 0.0167873 0.412985
605 4 0.172046 0.0681938 0.363995
604 2 0.187941 0.055875 0.378853
606 4 0.203835 0.0435562 0.393712
441 4 0.322243 0.011948 0.370949
698 4 0.396789 0.0796209 0.333076
256 2 0.407313 0.059773 0.37012
257 4 0.402416 0.0761455 0.351868
258 4 0.412211 0.0434004 0.388371
426 4 0.423724 0.0388197 0.402806
318 4 0.0341303 0.0891514 0.343775
316 2 0.0468833 0.106866 0.35597
317 4 0.0596362 0.124581 0.368166
457 2 0.0323376 0.144065 0.405459
458 4 0.0411637 0.121006 0.409401
732 4 0.110669 0.0769742 0.414334
730 2 0.110683 0.0896813 0.392801
397 2 0.0994495 0.12648 0.33865
399 4 0.106482 0.117866 0.361045
731 4 0.110698 0.102388 0.371267
599 4 0.169553 0.159159 0.392535
600 4 0.210862 0.147162 0.367034
598 2 0.190208 0.153161 0.379784
683 4 0.272366 0.094855 0.362292
682 2 0.287265 0.101995 0.38106
684 4 0.302165 0.109136 0.399827
632 4 0.339707 0.1046 0.350183
631 2 0.362644 0.0947004 0.349166
633 4 0.385582 0.0848004 0.348149
516 4 0.407126 0.148649 0.376227
575 4 0.394677 0.145199 0.390391
574 2 0.405397 0.145056 0.412979
451 2 0.487996 0.154255 0.364407
514 2 0.427604 0.156285 0.364082
459 4 0.0235114 0.167125 0.401516
2653 2 0.00453304 0.205837 0.384964
2654 4 0.0130311 0.184436 0.39471
388 2 0.0963339 0.227437 0.35159
389 4 0.0888443 0.206157 0.362372
685 2 0.152833 0.190271 0.403426
687 4 0.174101 0.178056 0.398562
473 4 0.233859 0.201084 0.357448
472 2 0.243112 0.204338 0.380447
474 4 0.252365 0.207592 0.403446
488 4 0.27207 0.211668 0.40319
487 2 0.291937 0.225662 0.397304
489 4 0.311804 0.239656 0.391418
717 4 0.413622 0.229813 0.34443
707 4 0.347084 0.210149 0.339043
420 4 0.413615 0.218189 0.328942
706 2 0.355723 0.186985 0.342784
708 4 0.364363 0.163822 0.346525
715 2 0.398102 0.244603 0.357299
466 2 0.38387 0.229873 0.416823
468 4 0.395217 0.245665 0.401106
515 4 0.448083 0.163922 0.351937
453 4 0.466507 0.16591 0.35916
444 4 0.00518908 0.252701 0.334243
390 4 0.103823 0.248717 0.340809
618 4 0.0671183 0.304065 0.389384
347 4 0.0535728 0.296541 0.401616
616 2 0.0731943 0.322184 0.373259
275 4 0.127094 0.297499 0.397188
274 2 0.148209 0.29326 0.384485
276 4 0.169323 0.289022 0.371781
373 2 0.210096 0.290408 0.380803
374 4 0.234449 0.295946 0.379613
375 4 0.185742 0.28487 0.381993
716 4 0.382583 0.259393 0.370167
406 2 0.0476633 0.397959 0.377354
408 4 0.0580099 0.398395 0.400112
548 4 0.0273928 0.413296 0.347956
407 4 0.0373167 0.397523 0.354596
617 4 0.0792702 0.340302 0.357135
678 4 0.205141 0.366475 0.341328
433 2 0.260758 0.371972 0.337809
434 4 0.282682 0.381383 0.345288
336 4 0.291557 0.397653 0.423341
561 4 0.451945 0.367914 0.386344
752 4 0.466106 0.375085 0.373746
559 2 0.467741 0.367048 0.405706
751 2 0.472377 0.382686 0.350766
499 2 0.162058 0.497396 0.388521
500 4 0.185305 0.490468 0.382457
1544 4 0.188449 0.506146 0.368684
667 2 0.290884 0.435091 0.410024
668 4 0.296292 0.45411 0.39472
1 1 0.312446 0.487542 0.404223
3 3 0.324183 0.486949 0.384215
4 3 0.303218 0.46671 0.408613
593 4 0.434049 0.486236 0.342826
718 2 0.037932 0.0768313 0.465271
720 4 0.0249278 0.0568339 0.472767
2237 4 0.0240838 0.0391059 0.4649
2236 2 0.0261271 0.0148362 0.459245
1127 4 0.0266916 0.0402168 0.483994
369 4 0.0784539 0.0255478 0.434479
1523 4 0.115139 0.0104041 0.499573
1180 2 0.243469 0.084195 0.477331
341 4 0.190668 0.032291 0.501213
1182 4 0.245498 0.0594923 0.480623
726 4 0.298589 0.0453036 0.432075
724 2 0.296206 0.0496851 0.456576
432 4 0.294674 0.0646506 0.497604
725 4 0.293823 0.0540665 0.481077
963 4 0.293811 0.0446921 0.498264
961 2 0.288228 0.0207192 0.502657
424 2 0.407183 0.0322093 0.420353
425 4 0.390642 0.0255989 0.437899
2878 2 0.465621 0.0840529 0.483424
719 4 0.0509362 0.0968286 0.457776
1033 2 0.116863 0.161145 0.488225
1035 4 0.132523 0.170003 0.470862
939 4 0.0892578 0.138163 0.512056
1034 4 0.101203 0.152287 0.505589
1181 4 0.241439 0.108898 0.474038
320 4 0.296584 0.103889 0.419196
411 4 0.256837 0.168423 0.461598
321 4 0.291467 0.125771 0.46387
319 2 0.294026 0.11483 0.441533
576 4 0.416116 0.144913 0.435568
2880 4 0.478231 0.104104 0.475417
642 4 0.484603 0.108904 0.456941
640 2 0.471091 0.125348 0.443819
641 4 0.457579 0.141793 0.430697
306 4 0.446189 0.153423 0.442473
3158 4 0.488551 0.144618 0.482023
471 4 0.0192157 0.20553 0.475918
469 2 0.0217971 0.185706 0.490934
470 4 0.0243785 0.165881 0.505951
260 4 0.12317 0.227961 0.448365
261 4 0.118491 0.180477 0.463334
259 2 0.120831 0.204219 0.455849
686 4 0.131566 0.202486 0.40829
695 4 0.108491 0.234743 0.457989
409 2 0.26719 0.180951 0.480599
410 4 0.277543 0.193479 0.4996
467 4 0.372522 0.214081 0.43254
3159 4 0.492563 0.194431 0.480199
305 4 0.445643 0.202633 0.451348
304 2 0.445916 0.178028 0.446911
3157 2 0.490557 0.169524 0.481111
346 2 0.0590354 0.305032 0.424491
326 4 0.0793501 0.313063 0.461892
348 4 0.064498 0.313523 0.447365
694 2 0.101766 0.255063 0.470913
10 3 0.142734 0.333497 0.453978
1260 4 0.113378 0.281486 0.491527
696 4 0.0950409 0.275384 0.483837
650 4 0.255781 0.300535 0.492098
266 4 0.319782 0.241953 0.464935
811 2 0.289033 0.304063 0.495863
812 4 0.266723 0.314033 0.501157
813 4 0.311344 0.294094 0.490569
267 4 0.362668 0.257858 0.444723
265 2 0.341225 0.249906 0.454829
584 4 0.488278 0.267244 0.482547
583 2 0.464009 0.271945 0.486302
325 2 0.0806066 0.336417 0.470734
2813 4 0.0236292 0.372804 0.467472
7 3 0.119534 0.360309 0.465629
327 4 0.0818631 0.359772 0.479576
6 1 0.14054 0.351257 0.468064
8 3 0.156332 0.367455 0.462901
9 3 0.143213 0.344309 0.490041
504 4 0.226918 0.408697 0.440738
711 4 0.168479 0.380597 0.452588
709 2 0.189426 0.389704 0.462759
710 4 0.210373 0.398812 0.472929
774 4 0.212994 0.408035 0.490281
502 2 0.251495 0.405128 0.437835
334 2 0.313384 0.385547 0.424823
503 4 0.276072 0.40156 0.434932
804 4 0.264844 0.335009 0.497767
239 4 0.396213 0.392189 0.452382
588 4 0.418089 0.395946 0.452376
586 2 0.4188 0.404047 0.47602
335 4 0.335212 0.373442 0.426306
238 2 0.374622 0.387923 0.440517
240 4 0.35303 0.383657 0.428651
587 4 0.41951 0.412148 0.499664
560 4 0.483537 0.366183 0.425069
1381 2 0.0429304 0.489573 0.430765
679 2 0.0503979 0.444327 0.463423
1383 4 0.0285271 0.475671 0.445747
681 4 0.0694482 0.433735 0.475674
680 4 0.0313476 0.454918 0.451172
570 4 0.180027 0.485283 0.441887
538 2 0.0903108 0.503334 0.494138
539 4 0.0862487 0.48897 0.474079
382 2 0.108751 0.439327 0.463155
568 2 0.156836 0.47777 0.447447
383 4 0.0887307 0.427892 0.472829
569 4 0.133645 0.470257 0.453007
384 4 0.128771 0.450762 0.45348
636 4 0.205543 0.466101 0.470183
635 4 0.21658 0.417424 0.473265
634 2 0.211062 0.441762 0.471724
669 4 0.285477 0.416071 0.425328
880 2 0.325663 0.50055 0.490784
881 4 0.348237 0.507573 0.498923
663 4 0.470419 0.451856 0.480764
1126 2 0.0140753 0.0485433 0.503911
1128 4 0.00145886 0.0568698 0.523827
1057 2 0.144432 0.0716652 0.570145
1058 4 0.144823 0.0506864 0.583743
340 2 0.183844 0.055899 0.505826
2428 2 0.208071 0.00200145 0.525353
2430 4 0.191992 0.014067 0.510484
2429 4 0.22415 0.989936 0.540221
1030 2 0.246719 0.0719656 0.581325
430 2 0.311594 0.0728794 0.514072
950 4 0.328795 0.0503451 0.584498
949 2 0.303956 0.0483013 0.586504
951 4 0.279117 0.0462575 0.58851
962 4 0.282644 0.996746 0.50705
1031 4 0.270069 0.0633921 0.58386
1217 4 0.381786 0.0503561 0.551646
1216 2 0.391437 0.0278557 0.556722
842 4 0.385763 0.0667533 0.54053
1218 4 0.401088 0.00535528 0.561799
431 4 0.328514 0.0811083 0.530539
841 2 0.364931 0.0797673 0.535855
2879 4 0.453011 0.0640016 0.491431
938 4 0.0935106 0.16079 0.556448
937 2 0.0913842 0.149477 0.534252
1151 4 0.161023 0.102394 0.555262
1059 4 0.144042 0.092644 0.556546
1155 4 0.145274 0.111358 0.562421
342 4 0.177021 0.079507 0.510439
1150 2 0.170669 0.101148 0.532228
1152 4 0.180316 0.099902 0.509194
843 4 0.3441 0.0927813 0.53118
878 4 0.0368265 0.22053 0.547523
1199 4 0.0194593 0.218752 0.539248
877 2 0.0542752 0.207567 0.55988
879 4 0.0717239 0.194604 0.572236
858 4 0.253256 0.204014 0.559907
857 4 0.299353 0.222748 0.554924
856 2 0.276305 0.213381 0.557416
898 2 0.306655 0.201584 0.511401
791 4 0.314406 0.218828 0.56595
899 4 0.321864 0.197974 0.530916
900 4 0.291446 0.205194 0.491886
790 2 0.322199 0.241786 0.572066
873 4 0.386033 0.248766 0.525307
983 4 0.0542144 0.316872 0.574394
1258 2 0.12898 0.288646 0.509706
1259 4 0.144582 0.295807 0.527886
651 4 0.212058 0.28171 0.507416
649 2 0.23392 0.291123 0.499757
792 4 0.329992 0.264743 0.578182
871 2 0.402485 0.266603 0.519276
872 4 0.418937 0.284439 0.513244
1239 4 0.352227 0.319372 0.573446
1238 4 0.347032 0.269967 0.567716
1237 2 0.349629 0.294669 0.570581
954 4 0.495687 0.317131 0.583135
1011 4 0.489674 0.307565 0.567318
585 4 0.43974 0.276646 0.490056
895 2 0.170377 0.379261 0.590827
1189 2 0.223598 0.379282 0.564084
773 4 0.231127 0.384307 0.530392
1190 4 0.238618 0.373302 0.54501
803 4 0.24369 0.370026 0.526524
772 2 0.222061 0.396171 0.510336
1191 4 0.208578 0.385263 0.583159
896 4 0.189891 0.386383 0.576912
802 2 0.254267 0.352517 0.512145
930 4 0.315268 0.35233 0.553503
928 2 0.299355 0.371571 0.554831
929 4 0.283442 0.390811 0.55616
927 4 0.409455 0.369072 0.542952
925 2 0.419754 0.386519 0.528299
926 4 0.430053 0.403966 0.513646
2243 4 0.143804 0.482325 0.548777
1161 4 0.157697 0.494931 0.554262
2242 2 0.12683 0.496239 0.536799
1159 2 0.175334 0.481161 0.56542
889 2 0.310568 0.452168 0.569802
890 4 0.318456 0.464699 0.549654
891 4 0.302679 0.439637 0.58995
1952 4 0.362524 0.508233 0.51351
1002 4 0.392628 0.462619 0.527758
1000 2 0.417318 0.466552 0.528081
1001 4 0.442008 0.470485 0.528405
662 4 0.461493 0.468806 0.526956
661 2 0.465956 0.460331 0.50386
1911 4 0.452849 0.47648 0.542882
1909 2 0.454272 0.475904 0.567838
1332 4 0.468791 0.485092 0.535007
1330 2 0.489711 0.49842 0.531858
945 4 0.0616051 0.0150744 0.635129
2319 4 0.0543556 0.99682 0.638835
943 2 0.0851664 0.0233344 0.633781
944 4 0.108728 0.0315944 0.632433
825 4 0.120637 0.0148953 0.631641
823 2 0.136914 0.996011 0.629739
1032 4 0.223368 0.0805392 0.57879
1092 4 0.322996 0.00315835 0.640557
1081 2 0.0244989 0.119195 0.650524
3179 4 0.0182817 0.151045 0.63547
1082 4 0.0416536 0.102911 0.658631
1083 4 0.00734417 0.135479 0.642417
1153 2 0.152153 0.129287 0.578434
1154 4 0.159032 0.147215 0.594448
1282 2 0.15821 0.113418 0.643461
1284 4 0.169955 0.107122 0.622305
1221 4 0.167762 0.16488 0.593722
1211 4 0.243686 0.167127 0.667024
888 4 0.263007 0.164383 0.673331
3008 4 0.497916 0.0887965 0.611213
808 2 0.489721 0.0971825 0.648572
809 4 0.492281 0.103385 0.624486
1243 2 0.0724228 0.233123 0.622159
1244 4 0.0702536 0.226351 0.598189
1272 4 0.0841852 0.195198 0.589086
1245 4 0.0745921 0.239896 0.64613
1270 2 0.0971895 0.188622 0.609403
1271 4 0.110194 0.182045 0.629721
1209 4 0.0935951 0.237757 0.652406
1210 2 0.229773 0.179778 0.650545
1212 4 0.21586 0.192428 0.634066
1219 2 0.186855 0.174733 0.60651
1220 4 0.205948 0.184585 0.619299
796 2 0.192365 0.225531 0.624604
798 4 0.202046 0.202483 0.624072
906 4 0.451965 0.205937 0.586786
904 2 0.459172 0.220038 0.606135
905 4 0.46638 0.23414 0.625484
3123 4 0.475704 0.225557 0.64145
3121 2 0.497564 0.231019 0.652288
982 2 0.0622505 0.320381 0.59781
3263 4 0.058567 0.327059 0.636312
3262 2 0.0436042 0.327736 0.656333
797 4 0.182685 0.248578 0.625137
947 4 0.192275 0.294435 0.62786
946 2 0.19477 0.288204 0.651946
952 2 0.478208 0.316181 0.600989
953 4 0.460729 0.315232 0.618843
984 4 0.0702866 0.323891 0.621225
1041 4 0.0721591 0.339103 0.63278
897 4 0.150862 0.372138 0.604743
1137 4 0.132187 0.371416 0.602333
1039 2 0.0832284 0.360993 0.637625
1135 2 0.116732 0.390265 0.596762
1136 4 0.101276 0.409114 0.591191
1040 4 0.0942976 0.382883 0.64247
991 2 0.0992023 0.413489 0.643614
993 4 0.110236 0.392351 0.651139
1172 4 0.199291 0.402048 0.584446
1206 4 0.479408 0.407948 0.663692
3309 4 0.493752 0.385689 0.602176
992 4 0.0881691 0.434628 0.636089
1188 4 0.214723 0.495239 0.627216
1173 4 0.203897 0.450808 0.574348
1171 2 0.201594 0.426428 0.579397
1187 4 0.206611 0.462976 0.589879
1160 4 0.192971 0.46739 0.576577
1186 2 0.210667 0.479108 0.608547
1204 2 0.457679 0.416918 0.655175
1910 4 0.455695 0.475329 0.592795
1205 4 0.435949 0.425887 0.646657
1269 4 0.436247 0.447188 0.643428
1267 2 0.446275 0.470065 0.644553
1268 4 0.456303 0.492942 0.645678
2254 2 0.204974 0.015409 0.751325
1147 2 0.214879 0.0868216 0.734105
1149 4 0.235061 0.0895119 0.748618
2255 4 0.187007 0.00505803 0.737353
1257 4 0.242489 0.0702253 0.748123
1003 2 0.328444 0.0527623 0.705489
1005 4 0.324142 0.0450497 0.682097
1004 4 0.332746 0.060475 0.728881
45 3 0.443603 0.0643504 0.665521
42 3 0.454953 0.0534757 0.699371
41 1 0.454058 0.0710865 0.684599
1163 4 0.494355 0.0786301 0.685515
810 4 0.48716 0.0909798 0.672659
44 3 0.475696 0.0779368 0.679773
1076 4 0.0355681 0.101814 0.67922
864 4 0.0386203 0.111815 0.741386
1075 2 0.0313386 0.101702 0.703863
1077 4 0.0271092 0.101591 0.728506
909 4 0.0892374 0.134048 0.692493
907 2 0.113133 0.13076 0.685907
908 4 0.137028 0.127472 0.679322
1283 4 0.146465 0.119714 0.664617
1227 4 0.153045 0.11568 0.682469
1225 2 0.164777 0.0995951 0.697596
1148 4 0.194697 0.0841313 0.719592
1226 4 0.176509 0.0835102 0.712722
886 2 0.285372 0.174219 0.678645
831 4 0.366134 0.157168 0.690415
1142 4 0.384269 0.157911 0.699504
829 2 0.341869 0.163198 0.6905
1025 4 0.476511 0.148871 0.682745
43 3 0.442235 0.0884906 0.694383
3424 2 0.490473 0.113936 0.700604
3426 4 0.481658 0.0926794 0.690825
1024 2 0.46272 0.162468 0.698559
852 4 0.0471873 0.176495 0.735601
1213 2 0.0177144 0.189462 0.725745
1214 4 0.0291746 0.169051 0.734533
1215 4 0.00625421 0.209873 0.716957
1178 4 0.00563442 0.229114 0.717133
1207 2 0.10171 0.233932 0.675744
1208 4 0.109825 0.230106 0.699083
1106 4 0.143951 0.198774 0.730881
1105 2 0.123439 0.187335 0.739457
1107 4 0.102926 0.175895 0.748032
1074 4 0.0872633 0.24813 0.749637
830 4 0.317603 0.169227 0.690585
887 4 0.307737 0.184055 0.683958
976 2 0.311897 0.198677 0.72021
978 4 0.307816 0.180782 0.703231
977 4 0.315978 0.216572 0.73719
918 4 0.307134 0.222453 0.753574
1298 4 0.326434 0.224974 0.752192
1141 2 0.406908 0.164851 0.707533
1193 4 0.360117 0.24031 0.697117
1192 2 0.353728 0.217916 0.688014
1194 4 0.347339 0.195522 0.678911
1143 4 0.429548 0.171791 0.715563
1026 4 0.448928 0.176065 0.714374
1261 2 0.451673 0.198284 0.741499
1262 4 0.438084 0.180403 0.730509
3264 4 0.0286414 0.328412 0.676354
1177 2 0.00427787 0.253629 0.721863
1179 4 0.00292131 0.278144 0.726592
948 4 0.197264 0.281973 0.676032
821 4 0.165091 0.283695 0.731829
820 2 0.173293 0.26398 0.744836
1064 4 0.213362 0.286669 0.687617
1065 4 0.236515 0.281144 0.731596
1063 2 0.224938 0.283907 0.709606
893 4 0.0211374 0.34004 0.690021
892 2 0.0236497 0.356407 0.708755
894 4 0.026162 0.372775 0.72749
3276 4 0.0174568 0.389675 0.725602
814 2 0.057305 0.389296 0.745731
816 4 0.0340915 0.388164 0.73651
941 4 0.144755 0.396014 0.744304
1067 4 0.161612 0.40597 0.74022
1066 2 0.169366 0.405244 0.716461
1029 4 0.233831 0.399156 0.672085
1027 2 0.214084 0.405527 0.686037
1068 4 0.17712 0.404518 0.692701
1028 4 0.194338 0.411898 0.699989
806 4 0.308391 0.33925 0.666676
805 2 0.328584 0.340751 0.681344
807 4 0.348777 0.342253 0.696012
1019 4 0.385506 0.398655 0.7185
1018 2 0.374619 0.384914 0.736327
1020 4 0.363732 0.371173 0.754155
1281 4 0.0190576 0.477373 0.685764
1983 4 0.00873438 0.491969 0.692993
1280 4 0.0686941 0.474645 0.691194
1279 2 0.0438759 0.476009 0.688479
1140 4 0.261407 0.460899 0.692435
1139 4 0.268636 0.473726 0.740225
1138 2 0.265022 0.467312 0.71633
1228 2 0.397886 0.449805 0.745459
1230 4 0.418494 0.438966 0.736348
1100 4 0.436943 0.433227 0.728394
1101 4 0.473194 0.464956 0.714985
1099 2 0.455069 0.449092 0.721689
1251 4 0.481453 0.476022 0.729072
3330 4 0.492027 0.461836 0.720515
1294 2 0.0091516 0.0408234 0.77298
1296 4 0.0286637 0.0257005 0.769011
2047 2 0.155418 0.999082 0.785345
1203 4 0.11336 0.0784949 0.773633
1201 2 0.127518 0.0592003 0.780875
1202 4 0.141675 0.0399057 0.788118
2049 4 0.155573 0.023823 0.788956
2256 4 0.222941 0.02576 0.765298
1255 2 0.256646 0.0726618 0.768588
1256 4 0.270804 0.0750984 0.789053
840 4 0.263677 0.0907885 0.799426
975 4 0.342819 0.0309241 0.840162
1113 4 0.365196 0.0553492 0.792166
1111 2 0.365278 0.072404 0.81045
2321 4 0.481079 0.992341 0.784174
2322 4 0.48618 0.0420239 0.781663
2320 2 0.483629 0.0171824 0.782919
980 4 0.443432 0.012411 0.85318
846 4 0.481577 0.0624676 0.779725
844 2 0.470414 0.0801437 0.766009
862 2 0.044452 0.120612 0.764053
863 4 0.0502837 0.129409 0.78672
832 2 0.0228723 0.115823 0.81561
833 4 0.0405441 0.129138 0.803966
1125 4 0.039452 0.146311 0.812863
834 4 0.00520037 0.102508 0.827255
31 1 0.12025 0.144367 0.808209
34 3 0.132164 0.126956 0.798549
32 3 0.11787 0.161229 0.792745
35 3 0.131484 0.152349 0.826341
33 3 0.099189 0.136988 0.814563
838 2 0.271824 0.111548 0.810734
839 4 0.279971 0.132307 0.822041
959 4 0.27934 0.137467 0.840893
845 4 0.459251 0.0978198 0.752294
850 2 0.0682704 0.173498 0.748704
1123 2 0.0384042 0.170235 0.820056
1124 4 0.0373564 0.194158 0.827249
851 4 0.0893536 0.170501 0.761808
822 4 0.181495 0.244264 0.757844
1130 4 0.184289 0.176709 0.758497