ITEM: TIMESTEP
2500000
ITEM: NUMBER OF ATOMS
4590
ITEM: BOX BOUNDS pp pp pp
-9.9985700000000008e+00 9.9985700000000008e+00
-9.9985700000000008e+00 9.9985700000000008e+00
-9.9985700000000008e+00 9.9985700000000008e+00
ITEM: ATOMS id type xs ys zs
465 4 0.0856092 0.0686509 0.0460281
463 2 0.0681675 0.08211 0.0578526
701 4 0.0952018 0.067577 0.0273068
700 2 0.118082 0.0575278 0.0281315
702 4 0.140963 0.0474785 0.0289563
566 4 0.159559 0.0551166 0.0258037
565 2 0.173016 0.0563368 0.00476614
746 4 0.497631 0.0537108 0.0181044
2467 2 0.492557 0.0290897 0.0458006
2469 4 0.488155 0.0517532 0.0362
464 4 0.0507258 0.095569 0.0696771
590 4 0.0399927 0.0840402 0.083377
589 2 0.0155399 0.0891052 0.0821191
558 4 0.337626 0.138897 0.057678
556 2 0.340196 0.122607 0.0764725
865 2 0.352993 0.165611 0.000894396
553 2 0.0773957 0.228694 0.0109716
555 4 0.0875204 0.216982 0.030606
835 2 0.125984 0.199567 0.0161764
836 4 0.103398 0.206113 0.0246719
837 4 0.148571 0.193022 0.00768098
915 4 0.167166 0.201824 0.0107498
738 4 0.167983 0.184967 0.0777189
573 4 0.347528 0.245788 0.0594932
666 4 0.348197 0.226761 0.064562
461 4 0.349555 0.241333 0.0777425
664 2 0.343953 0.207603 0.0490659
665 4 0.33971 0.188445 0.0335698
867 4 0.344806 0.184649 0.0148833
769 2 0.458997 0.164671 0.0716584
771 4 0.466703 0.158685 0.0486373
1070 4 0.454792 0.223042 0.0563127
1069 2 0.440035 0.242281 0.0624176
2807 4 0.994159 0.290193 0.0409027
2808 4 0.0259524 0.325672 0.0257004
2806 2 0.0100558 0.307932 0.0333016
294 4 0.0987558 0.306756 0.0726
292 2 0.113139 0.322768 0.0598755
356 4 0.314363 0.298233 0.0410928
572 4 0.332899 0.291132 0.0443078
355 2 0.312256 0.319765 0.0285578
571 2 0.340214 0.26846 0.0519005
1071 4 0.425277 0.261519 0.0685225
324 4 0.432893 0.27736 0.0582446
322 2 0.447911 0.296782 0.0629802
323 4 0.46293 0.316203 0.0677157
672 4 0.458062 0.33578 0.0638371
647 4 0.0236743 0.362399 0.0655739
646 2 0.0427709 0.357459 0.0809393
620 4 0.00558409 0.370609 0.0629399
293 4 0.127523 0.33878 0.0471509
507 4 0.138508 0.327873 0.0350827
505 2 0.157253 0.340801 0.0247529
481 2 0.212431 0.378673 0.0158236
482 4 0.234477 0.390437 0.0166997
483 4 0.190385 0.366909 0.0149475
609 4 0.248044 0.403982 0.0258528
536 4 0.201055 0.396932 0.0751208
611 4 0.233357 0.345656 0.0936619
535 2 0.210664 0.373979 0.0775734
506 4 0.175997 0.353728 0.014423
357 4 0.31015 0.341297 0.0160228
902 4 0.307806 0.358834 0.008572
957 4 0.374786 0.378097 0.0319204
955 2 0.374728 0.381041 0.00709073
280 2 0.487332 0.407203 0.048342
281 4 0.494058 0.390995 0.0661528
671 4 0.483278 0.377362 0.0754885
670 2 0.47067 0.356571 0.0696628
551 4 0.0364464 0.439652 0.0642382
550 2 0.0589129 0.450324 0.066794
1787 4 0.0976592 0.471909 0.0654168
1786 2 0.103172 0.470702 0.0410584
1788 4 0.108685 0.469495 0.0167001
242 4 0.0896953 0.471589 0.0832313
552 4 0.0813794 0.460997 0.0693498
246 4 0.242223 0.481462 0.0336482
244 2 0.225866 0.472505 0.0503037
245 4 0.209509 0.463547 0.0669591
627 4 0.196552 0.448116 0.0675702
625 2 0.190594 0.425093 0.0752916
607 2 0.267681 0.419431 0.0267971
272 4 0.258021 0.482478 0.021619
1778 4 0.255335 0.496545 0.034675
271 2 0.259038 0.471344 0.999254
608 4 0.287319 0.434879 0.0277413
252 4 0.306682 0.433679 0.0324956
250 2 0.318026 0.455921 0.0311549
251 4 0.32937 0.478163 0.0298141
523 2 0.37915 0.472107 0.070255
524 4 0.361162 0.459339 0.0820277
2289 4 0.344283 0.473459 0.0167644
525 4 0.397137 0.484876 0.0584824
282 4 0.480607 0.423412 0.0305313
226 2 0.477726 0.465458 0.0472786
227 4 0.476404 0.442723 0.0369574
228 4 0.479048 0.488194 0.0575998
16 1 0.0634945 0.0586332 0.152828
20 3 0.0740467 0.0743309 0.140144
1806 4 0.0521218 0.0291553 0.124078
18 3 0.059097 0.0397744 0.140045
19 3 0.0436839 0.0672807 0.161264
1804 2 0.0472562 0.00655079 0.114562
673 2 0.123824 0.0523277 0.168253
674 4 0.148805 0.0516376 0.16905
450 4 0.166172 0.0560752 0.163482
1505 4 0.162097 0.0377116 0.167103
448 2 0.170392 0.0789398 0.154285
654 4 0.312435 0.013585 0.159324
1661 4 0.328671 0.00194778 0.158084
484 2 0.358003 0.0230376 0.129384
295 2 0.359566 0.0760763 0.109137
297 4 0.35812 0.052372 0.116959
485 4 0.368555 0.045429 0.132916
579 4 0.0946115 0.116326 0.108561
237 4 0.142983 0.151316 0.127967
578 4 0.1263 0.15391 0.117729
577 2 0.110455 0.135118 0.113145
235 2 0.161343 0.134821 0.131972
236 4 0.179703 0.118327 0.135977
693 4 0.18949 0.111471 0.151918
449 4 0.174612 0.101804 0.145089
691 2 0.214398 0.111695 0.149742
692 4 0.239305 0.111918 0.147567
582 4 0.255057 0.0989519 0.152301
580 2 0.273867 0.114861 0.156578
581 4 0.292676 0.130769 0.160855
29 3 0.3105 0.168158 0.152001
557 4 0.342765 0.106318 0.0952671
296 4 0.361012 0.0997807 0.101314
476 4 0.130728 0.166232 0.132518
737 4 0.140741 0.166489 0.115364
475 2 0.123982 0.177902 0.153577
736 2 0.154362 0.175728 0.0965414
283 2 0.326835 0.202201 0.137715
354 4 0.321341 0.241704 0.134922
285 4 0.32324 0.177464 0.138319
284 4 0.330429 0.226937 0.137112
462 4 0.336714 0.238939 0.126013
460 2 0.343134 0.240136 0.101878
255 4 0.336519 0.242138 0.14363
253 2 0.35737 0.247099 0.156507
254 4 0.37822 0.25206 0.169383
770 4 0.451292 0.170657 0.0946796
1014 4 0.45802 0.178862 0.113049
1013 4 0.486505 0.217321 0.127551
1012 2 0.472262 0.198091 0.1203
756 4 0.245367 0.303503 0.129794
610 2 0.242913 0.333627 0.113389
352 2 0.302544 0.250623 0.148791
353 4 0.283747 0.259541 0.162659
754 2 0.259501 0.289486 0.144924
755 4 0.273636 0.275469 0.160055
612 4 0.25247 0.321599 0.133116
456 4 0.0761546 0.33924 0.0953727
648 4 0.0618676 0.35252 0.0963046
455 4 0.103406 0.356517 0.133577
454 2 0.0897806 0.347878 0.114475
537 4 0.220273 0.351026 0.080026
626 4 0.184637 0.402069 0.083013
387 4 0.335183 0.4064 0.151329
741 4 0.40143 0.362585 0.103861
739 2 0.397708 0.371345 0.126982
740 4 0.393987 0.380105 0.150103
15 3 0.383289 0.367298 0.160534
385 2 0.357645 0.396687 0.156459
386 4 0.380107 0.386973 0.161588
1466 4 0.0374606 0.49758 0.092792
1465 2 0.0179466 0.482705 0.0879832
241 2 0.108649 0.468928 0.0993206
1438 2 0.162216 0.475788 0.130906
243 4 0.127602 0.466267 0.11541
1440 4 0.137653 0.471135 0.131361
1439 4 0.186778 0.48044 0.13045
637 2 0.216199 0.468918 0.142833
638 4 0.240406 0.474353 0.145937
639 4 0.191991 0.463483 0.139728
767 4 0.259038 0.478988 0.150638
303 4 0.310759 0.463648 0.121699
766 2 0.27526 0.46826 0.134924
768 4 0.291483 0.457533 0.11921
301 2 0.321965 0.443328 0.13101
302 4 0.333171 0.423008 0.140321
493 2 0.408871 0.415186 0.162994
494 4 0.418941 0.437996 0.161129
660 4 0.414222 0.454051 0.172494
17 3 0.0770976 0.0526977 0.170403
380 4 0.0261857 0.0690227 0.170265
675 4 0.0988426 0.0530178 0.167456
1504 2 0.17376 0.0247541 0.185026
1506 4 0.185424 0.0117967 0.20295
689 4 0.196717 0.993957 0.201628
652 2 0.319469 0.035404 0.169306
653 4 0.326504 0.0572231 0.179287
22 3 0.414077 0.0126967 0.186752
21 1 0.409667 0.0207896 0.207828
23 3 0.390021 0.0331195 0.207169
757 2 0.461128 0.0575755 0.199713
25 3 0.426933 0.0340354 0.214542
759 4 0.442286 0.0454583 0.210817
350 4 0.438193 0.0409966 0.229197
758 4 0.479971 0.0696928 0.188608
379 2 0.0232193 0.0891434 0.184809
512 4 0.0344121 0.121305 0.207043
381 4 0.020253 0.109264 0.199354
511 2 0.0542871 0.132528 0.217251
513 4 0.0741622 0.143751 0.227459
339 4 0.0899428 0.140925 0.215621
337 2 0.100124 0.158808 0.201418
30 3 0.284601 0.146788 0.169037
26 1 0.301077 0.162159 0.172339
27 3 0.317417 0.153001 0.185692
521 4 0.484026 0.146442 0.231125
311 4 0.442764 0.159633 0.221131
477 4 0.117236 0.189571 0.174636
363 4 0.0998271 0.192981 0.183339
338 4 0.110306 0.176691 0.187215
362 4 0.105537 0.236039 0.20812
361 2 0.102682 0.21451 0.19573
372 4 0.118986 0.244767 0.22045
370 2 0.131181 0.24861 0.241937
279 4 0.237303 0.241218 0.206704
28 3 0.292406 0.180917 0.182892
630 4 0.385934 0.237862 0.180173
628 2 0.388615 0.217534 0.194482
629 4 0.391296 0.197206 0.208791
312 4 0.410584 0.196928 0.212514
310 2 0.426674 0.178281 0.216823
749 4 0.0682741 0.296657 0.165561
750 4 0.0359509 0.291642 0.203387
395 4 0.0273011 0.283195 0.219066
748 2 0.0521125 0.29415 0.184474
394 2 0.023967 0.281886 0.243811
300 4 0.133206 0.281017 0.205998
298 2 0.12653 0.30374 0.214016
299 4 0.119855 0.326462 0.222034
401 4 0.252071 0.312772 0.243055
278 4 0.266051 0.259998 0.170351
277 2 0.251677 0.250608 0.188527
307 2 0.317553 0.325269 0.179958
308 4 0.308055 0.316697 0.20144
497 4 0.300073 0.331151 0.215099
309 4 0.327052 0.33384 0.158476
496 2 0.276577 0.330454 0.223621
765 4 0.389278 0.257172 0.184236
763 2 0.409496 0.27078 0.18982
764 4 0.429715 0.284389 0.195405
528 4 0.497995 0.318685 0.169215
624 4 0.478684 0.326117 0.171825
623 4 0.439009 0.297636 0.182572
622 2 0.458846 0.311877 0.177199
262 2 0.0384513 0.392306 0.226411
264 4 0.0212778 0.410377 0.228333
2618 4 0.0183708 0.420713 0.24705
263 4 0.0556247 0.374235 0.22449
602 4 0.0670026 0.360087 0.21831
601 2 0.0895863 0.351063 0.224118
603 4 0.11217 0.34204 0.229925
734 4 0.120676 0.328875 0.241743
290 4 0.166592 0.367828 0.202373
289 2 0.170391 0.390821 0.21143
495 4 0.3988 0.392376 0.164858
14 3 0.403647 0.388405 0.18415
11 1 0.392748 0.368129 0.181234
13 3 0.376421 0.365499 0.19751
12 3 0.408072 0.351092 0.183251
291 4 0.174189 0.413815 0.220488
416 4 0.175538 0.432913 0.228109
415 2 0.182642 0.452916 0.214896
1430 4 0.203679 0.485904 0.195405
417 4 0.189747 0.472919 0.201684
658 2 0.428346 0.474407 0.17586
659 4 0.442469 0.494763 0.179227
595 2 0.478102 0.489745 0.198681
597 4 0.495411 0.480138 0.213955
232 2 0.997989 0.0503415 0.295268
1799 4 0.0185847 0.0185771 0.310302
233 4 0.0152549 0.0323029 0.296567
1402 2 0.0531878 0.0417037 0.316594
1403 4 0.030571 0.0341041 0.309117
1404 4 0.0758045 0.0493032 0.324071
1798 2 0.0109737 0.00629538 0.330708
633 4 0.372179 0.048962 0.297761
631 2 0.355262 0.0604228 0.283352
257 4 0.36826 0.0484974 0.316825
698 4 0.367592 0.0318329 0.306983
697 2 0.367221 0.0106377 0.320243
632 4 0.338344 0.0718835 0.268942
349 2 0.446718 0.029079 0.249457
744 4 0.459297 0.0198353 0.290104
742 2 0.471316 0.0271054 0.310789
351 4 0.455243 0.0171613 0.269717
397 2 0.0724309 0.132282 0.33264
390 4 0.0782877 0.165916 0.314345
398 4 0.0860207 0.15118 0.323509
393 4 0.0869802 0.151147 0.304353
545 4 0.13289 0.150229 0.273516
392 4 0.121469 0.133256 0.27287
391 2 0.104224 0.142201 0.288612
404 4 0.215263 0.169585 0.334861
444 4 0.0174086 0.243622 0.312687
388 2 0.061926 0.18436 0.310185
389 4 0.0455644 0.202803 0.306025
544 2 0.15478 0.162105 0.275744
723 4 0.216687 0.221256 0.260006
721 2 0.205239 0.201752 0.270669
546 4 0.17667 0.173981 0.277973
403 2 0.199647 0.172014 0.315485
405 4 0.184031 0.174442 0.296109
722 4 0.193792 0.182248 0.281333
420 4 0.393392 0.229418 0.262739
717 4 0.376008 0.237166 0.269579
331 2 0.450938 0.205245 0.312833
332 4 0.448291 0.202356 0.288138
418 2 0.415085 0.223653 0.273755
419 4 0.436778 0.217887 0.284771
760 2 0.476718 0.219542 0.26675
762 4 0.45338 0.214473 0.274157
364 2 0.0109699 0.316454 0.286619
442 2 0.0122663 0.2629 0.297617
396 4 0.020633 0.280578 0.268557
443 4 0.00712399 0.282177 0.282546
366 4 0.0121557 0.335806 0.302407
365 4 0.00978408 0.297103 0.27083
371 4 0.143376 0.252454 0.263424
677 4 0.138031 0.317576 0.29975
676 2 0.162622 0.321118 0.302561
735 4 0.12271 0.327503 0.29169
733 2 0.121693 0.328189 0.266716
510 4 0.240845 0.293984 0.305895
508 2 0.222264 0.310127 0.310289
400 2 0.249138 0.301787 0.265324
402 4 0.246204 0.290802 0.287593
509 4 0.203683 0.32627 0.314684
678 4 0.187213 0.324661 0.305373
345 4 0.259928 0.289685 0.30179
498 4 0.25308 0.329756 0.232142
343 2 0.278576 0.273948 0.307245
344 4 0.297224 0.25821 0.312699
715 2 0.37344 0.262031 0.269016
716 4 0.370871 0.286896 0.268453
542 4 0.379561 0.291276 0.286493
541 2 0.387545 0.306431 0.304708
543 4 0.39553 0.321586 0.322922
751 2 0.485445 0.330722 0.32336
407 4 0.0153809 0.34089 0.321274
548 4 0.0183551 0.353678 0.306914
547 2 0.0263237 0.377374 0.306471
549 4 0.0342924 0.40107 0.306028
777 4 0.0424199 0.417075 0.314128
435 4 0.186467 0.334047 0.321653
728 4 0.360785 0.373193 0.305014
727 2 0.365299 0.394813 0.316735
2538 4 0.491837 0.32621 0.285718
2536 2 0.499572 0.347263 0.274668
753 4 0.483216 0.338544 0.299716
2860 2 0.478554 0.399409 0.274318
775 2 0.06124 0.430034 0.324278
776 4 0.0800602 0.442993 0.334429
1543 2 0.168951 0.473821 0.328655
1435 2 0.197534 0.498932 0.287205
1545 4 0.18973 0.466198 0.317025
1436 4 0.189557 0.483528 0.305212
729 4 0.369813 0.416433 0.328456
437 4 0.366398 0.434969 0.319196
2861 4 0.463255 0.416943 0.283464
1771 2 0.0037525 0.0197997 0.38374
1772 4 0.00762349 0.0398685 0.398142
2238 4 0.0260471 0.0472182 0.398518
732 4 0.0823833 0.0723654 0.390845
369 4 0.0958122 0.0724748 0.405761
605 4 0.163552 0.0596652 0.391783
604 2 0.173477 0.0418461 0.406245
1701 4 0.174782 0.070863 0.379565
256 2 0.379981 0.0634072 0.33312
258 4 0.391701 0.0783171 0.349415
426 4 0.392053 0.0690832 0.36683
424 2 0.394781 0.0560427 0.387988
425 4 0.397508 0.0430023 0.409147
1580 4 0.393385 0.0259275 0.419037
743 4 0.483336 0.0343755 0.331473
479 4 0.488958 0.0496451 0.341388
478 2 0.480646 0.0579264 0.363468
480 4 0.472334 0.0662076 0.385547
458 4 0.000843335 0.14968 0.354093
318 4 0.000436272 0.133083 0.364006
399 4 0.0588411 0.113385 0.341771
317 4 0.0442965 0.111635 0.35319
731 4 0.0593041 0.099235 0.355545
730 2 0.0708437 0.0858002 0.373195
316 2 0.0223664 0.122359 0.358598
1699 2 0.195073 0.0854477 0.380427
247 2 0.20991 0.137477 0.361133
248 4 0.207321 0.114182 0.36984
1700 4 0.215364 0.100032 0.381289
249 4 0.2125 0.160772 0.352425
319 2 0.319689 0.115395 0.381131
320 4 0.302976 0.106182 0.397286
706 2 0.325442 0.165596 0.345984
321 4 0.336402 0.124607 0.364977
708 4 0.331927 0.143091 0.354738
684 4 0.288518 0.117433 0.402617
682 2 0.271084 0.135356 0.402573
516 4 0.468096 0.15448 0.36073
575 4 0.457536 0.142486 0.371333
574 2 0.461789 0.1296 0.392335
457 2 0.000418608 0.171872 0.365604
2654 4 0.981771 0.201815 0.377349
459 4 0.999994 0.194065 0.377114
378 4 0.304134 0.239484 0.319334
376 2 0.313302 0.222189 0.33489
377 4 0.32247 0.204894 0.350446
707 4 0.318956 0.188101 0.337229
466 2 0.386063 0.238946 0.403776
467 4 0.400019 0.224234 0.389149
333 4 0.453584 0.208133 0.337528
514 2 0.462064 0.178621 0.358283
515 4 0.456032 0.202762 0.355836
453 4 0.463525 0.219736 0.348264
451 2 0.487539 0.226496 0.34994
406 2 0.0261612 0.32595 0.338178
408 4 0.0369416 0.31101 0.355083
347 4 0.0802883 0.342822 0.379414
275 4 0.15022 0.315498 0.367472
274 2 0.170737 0.305207 0.377387
276 4 0.191255 0.294916 0.387302
473 4 0.23619 0.259674 0.408345
374 4 0.242756 0.276793 0.40013
373 2 0.22026 0.277873 0.38927
375 4 0.197764 0.278952 0.37841
468 4 0.372106 0.253658 0.418403
615 4 0.410144 0.327077 0.335848
267 4 0.366595 0.267936 0.404303
265 2 0.349585 0.285778 0.408487
266 4 0.332575 0.30362 0.41267
613 2 0.424911 0.334388 0.354655
752 4 0.487673 0.3229 0.347003
614 4 0.439677 0.341698 0.373462
346 2 0.0636803 0.341044 0.39802
617 4 0.137049 0.318121 0.352575
618 4 0.0989931 0.344633 0.371273
616 2 0.118021 0.331377 0.361924
433 2 0.192984 0.348229 0.341187
434 4 0.199501 0.362411 0.360722
335 4 0.367144 0.39535 0.389079
240 4 0.38252 0.406568 0.396888
414 4 0.0876866 0.452907 0.349847
412 2 0.109424 0.462813 0.342464
413 4 0.131162 0.47272 0.33508
1544 4 0.148171 0.481445 0.340285
500 4 0.132895 0.492212 0.334384
503 4 0.309312 0.428687 0.405928
336 4 0.326788 0.42256 0.400557
669 4 0.322491 0.44073 0.398869
667 2 0.316049 0.463917 0.405654
334 2 0.346966 0.408955 0.394818
436 2 0.368808 0.456258 0.332085
438 4 0.371218 0.477548 0.344974
592 2 0.410414 0.504196 0.372619
594 4 0.425497 0.485698 0.36517
3990 4 0.490313 0.493354 0.344018
2236 2 0.0260653 0.0591089 0.420513
1781 4 0.0708255 0.0176012 0.492615
1126 2 0.00281896 0.0456218 0.469714
1127 4 0.0183231 0.0599907 0.45636
2237 4 0.0260834 0.0709996 0.442508
719 4 0.0700632 0.0990239 0.475346
720 4 0.0372102 0.0655414 0.458016
718 2 0.0536367 0.0822827 0.466681
1780 2 0.0800604 0.0187597 0.469408
367 2 0.0988794 0.0531432 0.421319
368 4 0.101947 0.0338116 0.436877
1602 4 0.140225 0.985814 0.410901
606 4 0.183401 0.0240269 0.420708
1782 4 0.0892953 0.0199182 0.446202
962 4 0.24486 0.983982 0.487173
963 4 0.286524 0.0104395 0.495224
724 2 0.288959 0.0504014 0.483365
726 4 0.287985 0.0714158 0.469851
725 4 0.289933 0.0293871 0.496879
432 4 0.304316 0.0164075 0.491381
1182 4 0.298726 0.0858163 0.459742
961 2 0.265692 0.997211 0.491199
1579 2 0.37742 0.00737979 0.424165
642 4 0.448953 0.0588968 0.444864
2878 2 0.433525 0.0622846 0.486756
2880 4 0.440188 0.0551264 0.463744
939 4 0.0853415 0.137588 0.488876
1033 2 0.118848 0.135607 0.469313
1035 4 0.143378 0.140311 0.468149
261 4 0.149513 0.157887 0.462154
1034 4 0.094319 0.130902 0.470478
683 4 0.253649 0.153278 0.402529
600 4 0.245237 0.165368 0.416138
1180 2 0.299854 0.0982842 0.438098
1181 4 0.300983 0.110752 0.416455
640 2 0.457325 0.0805592 0.435599
576 4 0.466041 0.116715 0.413336
641 4 0.465697 0.102222 0.426335
306 4 0.472301 0.120243 0.431088
304 2 0.472217 0.135981 0.450517
3158 4 0.461312 0.152229 0.486434
305 4 0.472132 0.151718 0.469947
259 2 0.158187 0.181257 0.464103
694 2 0.148138 0.231643 0.478875
696 4 0.134805 0.241118 0.497787
695 4 0.16147 0.222169 0.459964
260 4 0.166862 0.204626 0.466053
472 2 0.244349 0.241315 0.42323
599 4 0.241567 0.207172 0.443334
687 4 0.224509 0.21334 0.449815
686 4 0.17846 0.220974 0.467758
685 2 0.201485 0.217157 0.458787
411 4 0.241612 0.222318 0.454393
598 2 0.243402 0.18627 0.429736
409 2 0.257968 0.222369 0.473305
474 4 0.252508 0.222957 0.438115
488 4 0.269745 0.214732 0.431796
489 4 0.318992 0.222404 0.427728
487 2 0.294368 0.218568 0.429762
813 4 0.223482 0.308104 0.489208
2812 2 0.0210567 0.32666 0.435681
348 4 0.0470723 0.339266 0.416626
2813 4 0.0448774 0.334259 0.435555
326 4 0.0575009 0.347858 0.430842
325 2 0.0689266 0.358261 0.4505
384 4 0.137379 0.42064 0.499472
327 4 0.0803522 0.368664 0.470157
10 3 0.120615 0.351049 0.495174
7 3 0.0961947 0.375507 0.481089
6 1 0.11146 0.371726 0.497876
711 4 0.142438 0.400335 0.498397
8 3 0.128029 0.387931 0.496737
709 2 0.1644 0.402132 0.486582
635 4 0.200481 0.418556 0.473873
774 4 0.197238 0.407756 0.489559
710 4 0.186363 0.403929 0.474766
502 2 0.300098 0.412893 0.422983
504 4 0.290884 0.3971 0.440037
926 4 0.410678 0.410737 0.505965
679 2 0.0661431 0.462807 0.499359
680 4 0.0483043 0.476772 0.48878
1383 4 0.037698 0.479485 0.471124
636 4 0.206291 0.451127 0.436374
634 2 0.203386 0.434842 0.455123
4 3 0.313451 0.498855 0.427884
668 4 0.309608 0.487104 0.41244
586 2 0.409626 0.43369 0.469375
239 4 0.41066 0.432337 0.429211
588 4 0.412132 0.443558 0.446539
238 2 0.39659 0.419452 0.41305
587 4 0.40712 0.423821 0.492212
1184 4 0.00696918 0.0264682 0.556686
1183 2 0.0178093 0.00482169 0.562939
1150 2 0.149645 0.0650516 0.54796
342 4 0.137104 0.0456216 0.510271
1152 4 0.138669 0.058828 0.526373
340 2 0.150808 0.0265265 0.501742
1151 4 0.160622 0.0712752 0.569546
430 2 0.323961 0.00851225 0.504681
841 2 0.36674 0.0204889 0.550186
842 4 0.377733 0.0330605 0.568794
1216 2 0.412124 0.011764 0.57966
1217 4 0.393422 0.0283541 0.579237
843 4 0.355746 0.00791724 0.531577
2879 4 0.426862 0.0694427 0.509768
3009 4 0.481273 0.0637609 0.564027
1218 4 0.430826 0.995174 0.580083
879 4 0.0505345 0.145973 0.545224
877 2 0.0296649 0.145861 0.558995
878 4 0.00879528 0.14575 0.572765
938 4 0.0642444 0.149933 0.532502
1272 4 0.06563 0.158606 0.549913
937 2 0.0747929 0.143761 0.510689
3159 4 0.482589 0.137093 0.529083
3157 2 0.47195 0.144661 0.507758
1270 2 0.0719814 0.180888 0.559313
1258 2 0.124317 0.218092 0.527389
1259 4 0.129993 0.203766 0.547081
1271 4 0.0783329 0.203169 0.568713
1260 4 0.118642 0.232418 0.507698
898 2 0.293295 0.21134 0.525427
899 4 0.308845 0.197375 0.53915
900 4 0.277744 0.225305 0.511703
857 4 0.3246 0.18669 0.546284
856 2 0.318211 0.177308 0.568563
410 4 0.274324 0.222419 0.492217
791 4 0.327075 0.201231 0.533421
790 2 0.346013 0.216779 0.538401
792 4 0.36495 0.232327 0.543381
872 4 0.381971 0.241303 0.546198
811 2 0.238207 0.316777 0.50746
650 4 0.250068 0.32555 0.545127
812 4 0.252933 0.32545 0.525712
649 2 0.262355 0.309581 0.559931
651 4 0.274642 0.293611 0.574735
806 4 0.288011 0.279156 0.578555
1238 4 0.369289 0.241398 0.560557
871 2 0.385318 0.254691 0.525348
873 4 0.388665 0.268079 0.504498
1237 2 0.357236 0.255372 0.577427
583 2 0.506563 0.290167 0.496479
585 4 0.508645 0.267025 0.505713
1135 2 0.117099 0.40448 0.569314
897 4 0.148316 0.393036 0.582117
1137 4 0.13021 0.394982 0.588368
1136 4 0.103987 0.413979 0.550261
9 3 0.100574 0.372953 0.51833
773 4 0.237878 0.404984 0.518567
1189 2 0.224913 0.406967 0.559064
895 2 0.172741 0.398132 0.580482
1190 4 0.23583 0.400106 0.53764
803 4 0.249264 0.390643 0.526455
804 4 0.252665 0.341831 0.536777
802 2 0.250964 0.366237 0.531616
930 4 0.251798 0.409524 0.531564
772 2 0.217558 0.40637 0.504063
928 2 0.269928 0.42667 0.529979
925 2 0.424878 0.390337 0.503256
927 4 0.439078 0.369936 0.500548
681 4 0.0839819 0.448841 0.509938
383 4 0.0939712 0.435253 0.519546
568 2 0.167333 0.455295 0.501852
382 2 0.115675 0.427947 0.509509
569 4 0.150435 0.436961 0.503722
896 4 0.197165 0.403228 0.578847
1191 4 0.213997 0.413827 0.580487
570 4 0.184231 0.473629 0.499982
1159 2 0.182765 0.491624 0.578361
929 4 0.288057 0.443816 0.528393
1952 4 0.305219 0.495697 0.524765
1951 2 0.306125 0.470839 0.522226
1953 4 0.307031 0.445981 0.519688
1000 2 0.40412 0.489181 0.54752
663 4 0.420804 0.42746 0.50574
1001 4 0.420595 0.470844 0.551705
661 2 0.427098 0.444059 0.523349
662 4 0.433392 0.460657 0.540957
1911 4 0.4355 0.460791 0.559824
1332 4 0.438838 0.477204 0.550016
1330 2 0.458612 0.489951 0.541551
1909 2 0.437726 0.450445 0.582478
1059 4 0.158639 0.0711115 0.588832
1058 4 0.178238 0.0294018 0.608246
1057 2 0.168438 0.0502567 0.598539
2375 4 0.174336 0.0112517 0.599534
949 2 0.278115 0.0235889 0.641222
951 4 0.290323 0.0453969 0.641964
1031 4 0.307829 0.0467636 0.650045
1030 2 0.314993 0.0691372 0.658605
3007 2 0.491764 0.0749572 0.583769
43 3 0.429655 0.0849985 0.651461
45 3 0.43612 0.053984 0.671807
1155 4 0.163221 0.0876654 0.579024
1153 2 0.161692 0.105694 0.596281
1154 4 0.160163 0.123722 0.613539
1221 4 0.176519 0.134544 0.6174
1219 2 0.189106 0.155191 0.623761
808 2 0.489058 0.0901366 0.642007
3008 4 0.502255 0.0861536 0.603512
809 4 0.504444 0.0905257 0.622302
1244 4 0.0761525 0.198677 0.587431
1209 4 0.0941635 0.18547 0.650484
1245 4 0.0851241 0.196832 0.636592
1243 2 0.0806383 0.197755 0.612011
1210 2 0.241302 0.17867 0.633565
1212 4 0.218982 0.176261 0.622556
1220 4 0.201693 0.175837 0.630123
797 4 0.181744 0.228405 0.597235
796 2 0.193995 0.209361 0.607836
798 4 0.206247 0.190317 0.618438
858 4 0.311822 0.167926 0.590842
1211 4 0.263621 0.181079 0.644575
888 4 0.267913 0.171314 0.662212
1193 4 0.409676 0.225784 0.662136
3121 2 0.478269 0.229618 0.635859
3122 4 0.473592 0.210539 0.651329
3357 4 0.468677 0.192784 0.657798
3355 2 0.49068 0.181884 0.662516
983 4 0.0185434 0.284643 0.633973
982 2 0.0373622 0.300745 0.6374
984 4 0.056181 0.316847 0.640828
3263 4 0.05788 0.316995 0.66018
1041 4 0.0599227 0.333864 0.65051
805 2 0.308686 0.276592 0.59238
807 4 0.329361 0.274028 0.606205
1239 4 0.345183 0.269346 0.594298
3123 4 0.482947 0.248696 0.62039
906 4 0.458767 0.293753 0.595991
905 4 0.487208 0.266292 0.626613
904 2 0.472987 0.280023 0.611302
953 4 0.457823 0.314098 0.597141
1039 2 0.0587849 0.352113 0.633455
1040 4 0.0576472 0.370362 0.616401
993 4 0.0685396 0.387168 0.61457
991 2 0.0554601 0.408066 0.6104
1028 4 0.203095 0.39517 0.663207
1027 2 0.221646 0.393694 0.646507
1029 4 0.240196 0.392218 0.629808
952 2 0.473982 0.333163 0.59792
954 4 0.49014 0.352228 0.598698
3309 4 0.495375 0.409592 0.621358
992 4 0.0423807 0.428964 0.606231
1172 4 0.197746 0.419849 0.589583
1160 4 0.188458 0.474744 0.595906
1171 2 0.200604 0.443382 0.597532
1173 4 0.203462 0.466916 0.605481
1187 4 0.194632 0.48185 0.613621
1186 2 0.191066 0.484055 0.638271
1188 4 0.1875 0.48626 0.662921
1268 4 0.419431 0.486879 0.646932
1267 2 0.423366 0.466785 0.632582
3182 4 0.500629 0.428328 0.622405
1206 4 0.487053 0.421804 0.634764
2168 4 0.435212 0.497643 0.64038
1204 2 0.463258 0.427341 0.629442
1910 4 0.439952 0.4401 0.605132
1269 4 0.427301 0.446691 0.618232
1205 4 0.439463 0.432878 0.624119
944 4 0.0627433 0.986178 0.679524
1284 4 0.0997655 0.042202 0.699783
1282 2 0.103827 0.065502 0.707894
2047 2 0.149892 0.0109973 0.743789
2256 4 0.181723 0.00776224 0.715194
2049 4 0.168794 0.0136624 0.72764
1201 2 0.183687 0.0495064 0.722372
1202 4 0.18512 0.0246528 0.7247
1203 4 0.182253 0.0743601 0.720044
1148 4 0.187782 0.0900635 0.730892
1005 4 0.354596 0.037886 0.702207
1003 2 0.350155 0.0170187 0.689168
41 1 0.43773 0.0766996 0.671569
42 3 0.425161 0.0853671 0.688775
1162 2 0.488611 0.061844 0.691673
1163 4 0.478458 0.0773493 0.674889
44 3 0.459844 0.0830998 0.67447
1077 4 0.0260392 0.112704 0.753194
1075 2 0.0128323 0.100163 0.736062
1076 4 0.999625 0.0876223 0.718931
909 4 0.100353 0.155996 0.704284
907 2 0.105425 0.1321 0.709614
908 4 0.110496 0.108203 0.714944
1283 4 0.107888 0.088802 0.716005
1227 4 0.125649 0.0964233 0.719156
1225 2 0.150496 0.0943581 0.717278
1226 4 0.175344 0.0922929 0.7154
1147 2 0.208464 0.0968143 0.743216
1032 4 0.322157 0.0915108 0.667166
829 2 0.323539 0.150303 0.71412
830 4 0.300859 0.15774 0.72157
887 4 0.28996 0.162706 0.706264
886 2 0.278936 0.16701 0.684238
831 4 0.346219 0.142865 0.706671
1142 4 0.365545 0.139239 0.714496
1141 2 0.381699 0.158107 0.711625
810 4 0.473671 0.0897475 0.661712
1025 4 0.462416 0.155781 0.699073
3424 2 0.4753 0.119029 0.688033
3426 4 0.473601 0.0951843 0.680704
3425 4 0.476999 0.142874 0.695361
3269 4 0.481353 0.159895 0.703638
3268 2 0.487292 0.168615 0.726306
1024 2 0.439906 0.166325 0.701772
852 4 0.0467446 0.176465 0.732202
1214 4 0.0280603 0.181109 0.73171
850 2 0.0693504 0.174333 0.721733
1213 2 0.00520032 0.189827 0.726552
851 4 0.0919562 0.1722 0.711263
1208 4 0.105596 0.173045 0.697554
1207 2 0.0998795 0.179257 0.674019
1107 4 0.110134 0.16851 0.715977
1105 2 0.128305 0.180441 0.728332
1106 4 0.146476 0.192372 0.740687
1130 4 0.162002 0.200524 0.750115
978 4 0.285753 0.169153 0.72456
976 2 0.283732 0.187162 0.741787
916 2 0.298755 0.240544 0.743958
1192 2 0.407326 0.20819 0.679746
1143 4 0.397852 0.176976 0.708754
1262 4 0.410458 0.190444 0.716284
1194 4 0.404975 0.190596 0.697356
1026 4 0.417396 0.17687 0.70447
1261 2 0.415569 0.195641 0.740202
3262 2 0.0645007 0.317604 0.684283
3264 4 0.0711214 0.318213 0.708386
779 4 0.0792876 0.312721 0.725136
893 4 0.0622622 0.323907 0.724418
778 2 0.100793 0.299978 0.724563
780 4 0.122298 0.287236 0.72399
1065 4 0.22271 0.328857 0.709569
1063 2 0.24092 0.317009 0.697192
1064 4 0.25913 0.305161 0.684815
947 4 0.299065 0.262831 0.70911
946 2 0.285137 0.276562 0.693533
948 4 0.271209 0.290292 0.677955
917 4 0.306552 0.259085 0.729105
1008 4 0.449131 0.272802 0.712101
1006 2 0.45332 0.271153 0.736696
892 2 0.059487 0.332958 0.74756
1067 4 0.164386 0.391556 0.715201
940 2 0.133716 0.393069 0.742546
941 4 0.152263 0.401056 0.727802
1066 2 0.174296 0.395885 0.692657
1068 4 0.184206 0.400214 0.670113
1175 4 0.196609 0.46844 0.666323
1176 4 0.175751 0.443874 0.704561
1174 2 0.18618 0.456157 0.685442
1139 4 0.286838 0.479655 0.704117
1138 2 0.302616 0.464929 0.716741
1140 4 0.318395 0.450203 0.729364
1229 4 0.330534 0.436884 0.737003
1100 4 0.399242 0.434219 0.74486
1228 2 0.355454 0.435626 0.738605
1230 4 0.380375 0.434368 0.740207
1101 4 0.44009 0.4592 0.730435
1099 2 0.419666 0.446709 0.737647
3330 4 0.45775 0.462693 0.724076
3328 2 0.469558 0.463639 0.702057
1251 4 0.450816 0.4739 0.738549
3329 4 0.481366 0.464585 0.680037
1249 2 0.444581 0.494472 0.751319
2390 4 0.126106 0.996966 0.777638
1113 4 0.35518 0.0710482 0.805157
980 4 0.423125 0.999821 0.810512
2321 4 0.438425 0.0111585 0.806522
2322 4 0.454028 0.0585542 0.803221
2320 2 0.446227 0.0348564 0.804871
846 4 0.443655 0.0633612 0.785862
844 2 0.440021 0.0837283 0.771821
864 4 0.0437457 0.120449 0.752489
862 2 0.0496704 0.123479 0.776591
863 4 0.0555951 0.126509 0.800693
833 4 0.0516691 0.1206 0.819338
1125 4 0.0532342 0.139696 0.814831
1123 2 0.0677382 0.157712 0.824331
832 2 0.0454602 0.0976959 0.827213
911 4 0.0941444 0.0986907 0.837532
1149 4 0.229145 0.103565 0.75554
1257 4 0.2409 0.115284 0.766185
1255 2 0.240291 0.131467 0.785236
921 4 0.220014 0.147567 0.807974
919 2 0.203957 0.164672 0.816621
840 4 0.233828 0.147179 0.822363
1256 4 0.239682 0.147649 0.804287
1111 2 0.363653 0.090714 0.818066
845 4 0.436387 0.104096 0.75778
3189 4 0.0131525 0.242822 0.807833
1124 4 0.0822423 0.175728 0.83383
1129 2 0.164407 0.216324 0.769344
34 3 0.127129 0.170955 0.820201
1131 4 0.166812 0.232123 0.788573
1277 4 0.171041 0.232088 0.80774
822 4 0.169949 0.249144 0.797621
1276 2 0.178872 0.214213 0.823372
920 4 0.1879 0.181776 0.825268
977 4 0.281712 0.205172 0.759015
918 4 0.290958 0.222003 0.758812
1298 4 0.290109 0.211976 0.775397
1297 2 0.293022 0.206322 0.799578
1299 4 0.295935 0.200667 0.823759
1086 4 0.305599 0.207392 0.843049
50 3 0.388914 0.191282 0.796244
46 1 0.411201 0.195714 0.794734
49 3 0.41462 0.218596 0.792961
3270 4 0.493231 0.177334 0.748975
1043 4 0.429038 0.212939 0.777815
48 3 0.422194 0.187488 0.813439
47 3 0.419715 0.185449 0.775991
1263 4 0.420681 0.200838 0.764119
1146 4 0.484067 0.182432 0.765852
1145 4 0.436459 0.19573 0.77342
1144 2 0.460263 0.189081 0.769636
1022 4 0.427897 0.189868 0.831733
1042 2 0.435115 0.23652 0.772143
3187 2 0.999457 0.249975 0.788175
3188 4 0.985761 0.257128 0.768517
821 4 0.187931 0.293432 0.812314
820 2 0.17894 0.271288 0.804967
1235 4 0.242888 0.316177 0.799206
1098 4 0.255644 0.322653 0.815166
1044 4 0.441193 0.260101 0.76647
1007 4 0.457508 0.269504 0.761291
1165 2 0.47721 0.268348 0.785786
1166 4 0.452853 0.268675 0.780148
3275 4 0.0187477 0.354822 0.816211
894 4 0.0567118 0.342008 0.770703
3276 4 0.0541978 0.357619 0.781052
3274 2 0.0364728 0.35622 0.798631
816 4 0.0716922 0.354409 0.773753