ITEM: TIMESTEP
930000
ITEM: NUMBER OF ATOMS
4590
ITEM: BOX BOUNDS pp pp pp
-9.9985700000000008e+00 9.9985700000000008e+00
-9.9985700000000008e+00 9.9985700000000008e+00
-9.9985700000000008e+00 9.9985700000000008e+00
ITEM: ATOMS id type xs ys zs
463 2 0.0329371 0.077981 0.0303281
464 4 0.00954017 0.0710398 0.0248889
701 4 0.0656561 0.070793 0.0489465
465 4 0.0563339 0.0849222 0.0357672
567 4 0.163183 0.0536305 0.061973
1668 4 0.0886188 0.0128464 0.0598411
700 2 0.0897191 0.0772607 0.0468672
565 2 0.140197 0.0634702 0.0621706
491 4 0.276164 0.0206743 0.0445873
2264 4 0.290146 0.0376595 0.00422236
558 4 0.366046 0.0568698 0.0343607
556 2 0.358098 0.0456079 0.0552217
557 4 0.35015 0.0343461 0.0760827
745 2 0.475262 0.0474125 0.00905151
746 4 0.4833 0.0408953 0.0318132
589 2 0.0102632 0.140221 0.0683891
590 4 0.0319345 0.138477 0.0560404
554 4 0.0633511 0.163306 0.00723136
423 4 0.101405 0.114066 0.00419187
421 2 0.10322 0.137866 0.0116381
702 4 0.113782 0.0837283 0.0447878
566 4 0.117212 0.0733099 0.0623682
422 4 0.105035 0.161666 0.0190844
359 4 0.288204 0.156118 0.997806
770 4 0.44129 0.147536 0.0659741
769 2 0.44651 0.171758 0.0693238
553 2 0.0657995 0.18813 0.00551396
836 4 0.0815853 0.211516 0.0193005
555 4 0.0682479 0.212954 0.00379656
835 2 0.0974202 0.230865 0.0190607
837 4 0.113255 0.250213 0.0188209
666 4 0.319881 0.216927 0.0297093
664 2 0.321725 0.204488 0.00809765
573 4 0.325693 0.235579 0.0298978
461 4 0.323585 0.224914 0.0467157
460 2 0.327989 0.21726 0.0701077
1012 2 0.490655 0.191071 0.0357038
771 4 0.45173 0.19598 0.0726735
1014 4 0.48334 0.210826 0.0491738
915 4 0.129539 0.250151 0.00783429
292 2 0.108723 0.294542 0.0625678
294 4 0.0882331 0.306901 0.0553167
507 4 0.149458 0.287644 0.069386
505 2 0.174429 0.28736 0.070644
481 2 0.228281 0.31465 0.0627786
506 4 0.199399 0.287077 0.0719021
483 4 0.216447 0.292633 0.0634124
355 2 0.26955 0.299551 0.0105346
571 2 0.312669 0.256842 0.031751
356 4 0.284239 0.282445 0.021342
572 4 0.299644 0.278105 0.0336042
1069 2 0.418194 0.255399 0.0326777
1070 4 0.40818 0.255778 0.00977011
957 4 0.380183 0.303116 0.0227322
1071 4 0.428207 0.25502 0.0555852
324 4 0.422334 0.27423 0.0569289
322 2 0.435651 0.293815 0.0649463
672 4 0.454398 0.320082 0.0542851
323 4 0.448967 0.3134 0.0729637
620 4 0.0217542 0.348902 0.0760692
619 2 0.00153968 0.347307 0.0614402
455 4 0.120034 0.369065 0.0812917
482 4 0.240115 0.336666 0.0621448
609 4 0.251321 0.346107 0.075073
252 4 0.28722 0.402223 0.0554335
608 4 0.277313 0.384518 0.0563732
607 2 0.264317 0.365313 0.0657231
670 2 0.460068 0.342366 0.0641061
671 4 0.465737 0.364651 0.0739271
281 4 0.471427 0.378057 0.061308
280 2 0.489641 0.392892 0.0527443
551 4 0.0669752 0.436382 0.0651391
550 2 0.0822523 0.4561 0.0634098
552 4 0.0975293 0.475818 0.0616804
1787 4 0.0941692 0.4919 0.0711935
242 4 0.112025 0.490666 0.0643668
241 2 0.134699 0.492965 0.074652
250 2 0.289915 0.426 0.048182
244 2 0.261513 0.477222 0.0644804
251 4 0.292609 0.449776 0.0409306
271 2 0.273105 0.483947 0.00985258
246 4 0.270437 0.489291 0.0444831
272 4 0.275808 0.499669 0.029106
525 4 0.364112 0.503824 0.0752748
226 2 0.486195 0.468367 0.0686087
228 4 0.469674 0.455761 0.0825127
563 4 0.454254 0.475222 0.00585033
2576 4 0.010321 0.0382676 0.0985304
16 1 0.0501552 0.0656996 0.162897
17 3 0.0633122 0.0736641 0.145791
1804 2 0.0661751 0.999408 0.144932
20 3 0.0324342 0.0544188 0.154102
1805 4 0.0817797 0.000580076 0.125431
1667 4 0.0872698 0.996412 0.107051
1666 2 0.0879443 0.00462925 0.0834462
448 2 0.191792 0.0769122 0.156281
652 2 0.306869 0.0194469 0.139665
653 4 0.301941 0.0438858 0.137761
296 4 0.358717 0.0460563 0.0903542
295 2 0.36822 0.0314418 0.108279
297 4 0.377722 0.0168273 0.126204
579 4 0.0920808 0.100763 0.154872
237 4 0.139283 0.143737 0.16334
235 2 0.159042 0.128445 0.162388
236 4 0.178802 0.113153 0.161435
693 4 0.196218 0.119987 0.158864
449 4 0.194475 0.101079 0.162107
283 2 0.273778 0.160093 0.150955
284 4 0.280243 0.141155 0.165946
312 4 0.441568 0.150347 0.156895
337 2 0.0616122 0.222378 0.154067
339 4 0.0369491 0.226416 0.154845
338 4 0.0862753 0.21834 0.153288
476 4 0.139436 0.194478 0.121812
475 2 0.120532 0.200789 0.13691
477 4 0.101627 0.207101 0.152008
737 4 0.152862 0.208669 0.123193
738 4 0.199232 0.227349 0.124468
736 2 0.176047 0.218009 0.12383
285 4 0.267313 0.17903 0.135964
462 4 0.332394 0.209605 0.0934998
254 4 0.376186 0.196952 0.12621
255 4 0.330763 0.213756 0.113756
253 2 0.353474 0.205354 0.119983
630 4 0.38341 0.214498 0.133549
628 2 0.407375 0.219527 0.138606
2895 4 0.495875 0.251087 0.141754
518 4 0.476711 0.252463 0.137426
293 4 0.129214 0.282183 0.0698188
354 4 0.331497 0.266101 0.11099
352 2 0.317351 0.272874 0.130463
353 4 0.303206 0.279647 0.149936
754 2 0.286595 0.320358 0.146298
755 4 0.298901 0.298628 0.14504
519 4 0.468672 0.269473 0.0910929
629 4 0.431339 0.224556 0.143664
517 2 0.472691 0.260968 0.114259
647 4 0.0142048 0.358132 0.0928915
646 2 0.0367558 0.361103 0.103274
648 4 0.0593068 0.364074 0.113657
456 4 0.0800358 0.359631 0.109785
454 2 0.100035 0.364348 0.0955383
537 4 0.212711 0.378697 0.148267
535 2 0.196477 0.373674 0.129926
536 4 0.180242 0.368651 0.111585
611 4 0.22784 0.392137 0.145817
756 4 0.274289 0.342087 0.147557
612 4 0.263292 0.357918 0.154361
610 2 0.245566 0.375028 0.150089
387 4 0.326072 0.389266 0.160586
741 4 0.360616 0.337094 0.0870954
739 2 0.363796 0.348957 0.108875
740 4 0.366976 0.360819 0.130655
15 3 0.384927 0.366106 0.137109
385 2 0.347768 0.37825 0.154834
386 4 0.369465 0.367234 0.149083
11 1 0.403896 0.366657 0.1497
14 3 0.412569 0.388176 0.150012
495 4 0.404253 0.404748 0.158129
12 3 0.419506 0.35248 0.140508
1467 4 0.0174688 0.457914 0.114161
1465 2 0.030271 0.476486 0.124949
243 4 0.157373 0.495263 0.0849372
625 2 0.217613 0.456219 0.102097
626 4 0.193389 0.459598 0.107287
627 4 0.241838 0.452839 0.0969082
245 4 0.252589 0.465154 0.0844778
767 4 0.25355 0.490478 0.168476
523 2 0.354736 0.483774 0.0869042
524 4 0.34536 0.463723 0.0985335
493 2 0.397664 0.426611 0.147943
660 4 0.402705 0.465258 0.138046
494 4 0.391074 0.448474 0.137756
658 2 0.414255 0.483329 0.150901
1673 4 0.41371 0.50167 0.0903903
597 4 0.450735 0.424682 0.170099
18 3 0.0628409 0.0514541 0.176109
2480 4 0.0117528 0.0204808 0.178049
673 2 0.132689 0.0689847 0.205005
674 4 0.121122 0.0653048 0.226864
675 4 0.144257 0.0726646 0.183146
450 4 0.18911 0.0527453 0.150455
1506 4 0.186495 0.00408291 0.190906
1504 2 0.181698 0.025111 0.178258
1505 4 0.1769 0.0461391 0.165609
689 4 0.202985 0.00868465 0.203728
21 1 0.394762 0.024131 0.24086
25 3 0.41064 0.0386793 0.233453
759 4 0.416109 0.0513518 0.218257
757 2 0.40078 0.0705566 0.213634
22 3 0.376556 0.0249953 0.226825
24 3 0.40321 0.00251995 0.240865
744 4 0.469983 0.0135376 0.238837
351 4 0.469124 0.0338491 0.232969
349 2 0.449793 0.0492563 0.229215
350 4 0.430461 0.0646635 0.225462
19 3 0.0426321 0.0836365 0.175549
380 4 0.0272055 0.086246 0.1881
512 4 0.0353694 0.151108 0.199599
379 2 0.0342631 0.109411 0.194326
381 4 0.0413207 0.132576 0.200551
578 4 0.0991815 0.14174 0.182641
511 2 0.057157 0.158472 0.20941
513 4 0.0789446 0.165837 0.21922
577 2 0.0956312 0.121251 0.168757
691 2 0.21451 0.125887 0.174857
692 4 0.232802 0.131786 0.19085
723 4 0.209565 0.154995 0.205785
721 2 0.192819 0.161786 0.223067
582 4 0.253345 0.132732 0.187053
580 2 0.266654 0.115236 0.198966
581 4 0.279964 0.09774 0.21088
30 3 0.295167 0.0969766 0.224248
26 1 0.31073 0.101303 0.240302
758 4 0.385451 0.0897614 0.20901
28 3 0.331981 0.0968054 0.232143
310 2 0.436699 0.135506 0.176419
311 4 0.431829 0.120665 0.195944
363 4 0.0937655 0.211358 0.169544
362 4 0.11342 0.22776 0.212502
361 2 0.103593 0.219559 0.191023
372 4 0.131792 0.223282 0.215617
370 2 0.156795 0.223146 0.215506
722 4 0.176074 0.168577 0.240348
371 4 0.181798 0.22301 0.215394
765 4 0.369697 0.221818 0.171698
763 2 0.372866 0.245643 0.17859
308 4 0.329902 0.232853 0.230429
520 2 0.489266 0.199735 0.236922
521 4 0.479735 0.218143 0.250903
395 4 0.0511234 0.270415 0.221073
750 4 0.0646248 0.285271 0.219354
748 2 0.068012 0.298042 0.198127
749 4 0.0713993 0.310814 0.1769
394 2 0.0328869 0.278427 0.236186
300 4 0.142482 0.333276 0.223729
278 4 0.293609 0.291194 0.162303
279 4 0.278234 0.256571 0.194946
277 2 0.285922 0.273883 0.178625
307 2 0.326626 0.252994 0.215979
309 4 0.323349 0.273135 0.20153
764 4 0.376034 0.269468 0.185482
623 4 0.393459 0.273706 0.175794
622 2 0.416519 0.279296 0.183678
624 4 0.439579 0.284886 0.191563
528 4 0.457272 0.293538 0.194583
527 4 0.496015 0.268363 0.175453
526 2 0.476644 0.280951 0.185018
262 2 0.0723351 0.4043 0.221934
264 4 0.0591717 0.396609 0.202117
263 4 0.0854985 0.411991 0.241752
298 2 0.142419 0.353855 0.237929
290 4 0.218529 0.398406 0.222663
302 4 0.315248 0.391298 0.17709
301 2 0.296918 0.408282 0.176237
13 3 0.399243 0.359677 0.171334
645 4 0.457088 0.408452 0.180099
643 2 0.473829 0.390691 0.185529
644 4 0.490569 0.37293 0.190959
447 4 0.488428 0.371009 0.210696
445 2 0.502627 0.366954 0.230873
1430 4 0.182152 0.504122 0.221433
417 4 0.183922 0.489195 0.20955
415 2 0.176178 0.465422 0.209803
289 2 0.203582 0.417935 0.218152
291 4 0.188635 0.437465 0.21364
416 4 0.168434 0.441649 0.210057
303 4 0.278588 0.425266 0.175384
766 2 0.262595 0.467638 0.173136
768 4 0.271639 0.444798 0.177795
713 4 0.362938 0.482712 0.246236
659 4 0.425804 0.501399 0.163757
595 2 0.455412 0.448236 0.177063
596 4 0.460088 0.47179 0.184028
1568 4 0.477814 0.481594 0.187043
2860 2 0.467641 0.43504 0.250259
2861 4 0.454431 0.450862 0.236104
1799 4 0.0263312 0.0252233 0.319486
233 4 0.0256669 0.0277789 0.300436
1402 2 0.0649453 0.0212009 0.298419
1403 4 0.0417096 0.0199321 0.307567
232 2 0.0132193 0.0411788 0.283386
1404 4 0.088181 0.0224698 0.289272
1699 2 0.213838 0.0659767 0.312364
1701 4 0.200119 0.0451265 0.310866
23 3 0.388014 0.0300033 0.26227
1516 2 0.381585 0.00308827 0.307515
697 2 0.397049 0.0556686 0.325119
699 4 0.397963 0.0398115 0.305808
1518 4 0.381447 0.0280743 0.306588
742 2 0.488669 0.0191394 0.254478
478 2 0.473149 0.0355126 0.320013
479 4 0.479474 0.0116093 0.32373
480 4 0.466824 0.0594158 0.316297
545 4 0.117425 0.164682 0.256127
398 4 0.0814193 0.132808 0.311774
544 2 0.142209 0.161571 0.255005
397 2 0.092923 0.121413 0.330826
1700 4 0.227557 0.0868269 0.313862
248 4 0.2312 0.105838 0.30937
249 4 0.204831 0.145599 0.294387
247 2 0.218015 0.125718 0.301879
546 4 0.166993 0.158461 0.253883
404 4 0.208692 0.164506 0.294679
27 3 0.30957 0.12351 0.246188
29 3 0.306546 0.0883362 0.259083
632 4 0.342347 0.108858 0.331926
333 4 0.469376 0.113743 0.327208
331 2 0.461345 0.133822 0.314658
332 4 0.453313 0.153901 0.302108
393 4 0.0847673 0.210027 0.282075
444 4 0.0179251 0.242748 0.305284
392 4 0.117609 0.173145 0.274207
391 2 0.101188 0.191586 0.278141
390 4 0.111912 0.223379 0.306499
403 2 0.192282 0.169683 0.276538
405 4 0.175873 0.174861 0.258397
707 4 0.353268 0.201838 0.322894
761 4 0.48796 0.213048 0.292674
420 4 0.4213 0.220524 0.323741
418 2 0.42095 0.196222 0.317871
419 4 0.4206 0.17192 0.312001
760 2 0.474733 0.192399 0.297559
762 4 0.461505 0.171751 0.302444
396 4 0.0146504 0.286438 0.2513
442 2 0.0162837 0.259312 0.286626
443 4 0.0146423 0.275875 0.267968
364 2 0.999036 0.315935 0.275433
365 4 0.00713544 0.293395 0.268258
401 4 0.190302 0.257415 0.290844
345 4 0.228932 0.29979 0.313882
400 2 0.205973 0.276666 0.293845
402 4 0.221644 0.295918 0.296845
510 4 0.220505 0.314371 0.304327
508 2 0.213571 0.335164 0.316358
343 2 0.253598 0.298389 0.31004
344 4 0.278265 0.296987 0.306197
498 4 0.379139 0.295288 0.286577
496 2 0.359611 0.29374 0.271038
497 4 0.340083 0.292192 0.255499
541 2 0.429862 0.312675 0.314559
542 4 0.441927 0.298533 0.33128
366 4 0.990937 0.338476 0.282609
2493 4 0.993808 0.356352 0.290238
603 4 0.135961 0.390969 0.260219
602 4 0.0884599 0.406593 0.260689
299 4 0.142356 0.374435 0.25213
601 2 0.112211 0.398781 0.260454
734 4 0.148503 0.379325 0.26952
733 2 0.165153 0.386064 0.286913
735 4 0.181804 0.392803 0.304306
677 4 0.19075 0.407688 0.314291
676 2 0.203192 0.389292 0.325778
509 4 0.206637 0.355957 0.328389
727 2 0.326205 0.388444 0.28397
728 4 0.301271 0.389248 0.285649
434 4 0.284457 0.37629 0.337182
543 4 0.417797 0.326818 0.297838
729 4 0.351139 0.387641 0.28229
615 4 0.400304 0.334909 0.300641
613 2 0.397587 0.357357 0.311313
614 4 0.394869 0.379804 0.321985
2538 4 0.49944 0.384887 0.318193
2536 2 0.496893 0.397967 0.297036
549 4 0.0384459 0.442949 0.323559
777 4 0.10203 0.423483 0.301138
775 2 0.108395 0.443941 0.314028
776 4 0.11476 0.464399 0.326917
414 4 0.130407 0.477235 0.325048
437 4 0.255529 0.452373 0.292021
438 4 0.251771 0.414748 0.259296
436 2 0.25365 0.43356 0.275659
2537 4 0.494346 0.411046 0.275879
2862 4 0.48085 0.419219 0.264415
593 4 0.436441 0.451897 0.303384
592 2 0.428039 0.463231 0.324027
1798 2 0.0206334 0.0144548 0.34132
1377 4 0.0025306 0.993752 0.375049
369 4 0.0705799 0.0579011 0.400963
367 2 0.08685 0.039001 0.399161
368 4 0.10312 0.0201008 0.397359
605 4 0.153345 0.0594382 0.367687
604 2 0.173752 0.0459204 0.372786
606 4 0.194159 0.0324025 0.377886
698 4 0.396135 0.0715257 0.344429
256 2 0.389693 0.0698404 0.376915
257 4 0.384999 0.0836084 0.356579
633 4 0.377717 0.0747451 0.341196
258 4 0.394387 0.0560724 0.397252
424 2 0.421771 0.0296482 0.411979
426 4 0.412561 0.0514581 0.403938
318 4 0.0148933 0.110987 0.363249
316 2 0.0380168 0.120361 0.361635
317 4 0.0611403 0.129735 0.36002
732 4 0.0977373 0.0855774 0.412032
730 2 0.0955575 0.0928296 0.388203
399 4 0.104427 0.110018 0.349879
731 4 0.0933778 0.100082 0.364374
600 4 0.206397 0.147747 0.370229
683 4 0.27192 0.0824485 0.36705
682 2 0.269213 0.0977138 0.386667
684 4 0.266507 0.112979 0.406284
320 4 0.281924 0.114524 0.419926
631 2 0.360032 0.0918018 0.336561
516 4 0.40153 0.145569 0.372799
575 4 0.392418 0.14119 0.390787
574 2 0.402378 0.145993 0.413213
451 2 0.486798 0.144217 0.36546
514 2 0.424322 0.146211 0.362538
453 4 0.461817 0.144876 0.364622
515 4 0.447114 0.146853 0.352276
459 4 0.022334 0.191632 0.407656
2654 4 0.0230616 0.197149 0.388472
388 2 0.101143 0.227037 0.328766
389 4 0.0903738 0.230694 0.351033
685 2 0.154075 0.209267 0.40901
687 4 0.156323 0.188994 0.394548
598 2 0.191018 0.164655 0.380367
599 4 0.175638 0.181563 0.390504
473 4 0.223705 0.18728 0.383008
472 2 0.248591 0.185384 0.384513
378 4 0.285483 0.206801 0.326611
376 2 0.310297 0.207483 0.329612
377 4 0.33511 0.208164 0.332613
474 4 0.273477 0.183488 0.386019
488 4 0.29313 0.190324 0.388905
487 2 0.303801 0.212417 0.393719
489 4 0.314472 0.234511 0.398533
706 2 0.36897 0.192833 0.340143
708 4 0.384672 0.183828 0.357392
715 2 0.396341 0.239817 0.354373
717 4 0.407231 0.233469 0.332779
716 4 0.385451 0.246165 0.375967
468 4 0.37729 0.221015 0.418507
347 4 0.0699455 0.301799 0.410418
618 4 0.077499 0.31499 0.397264
616 2 0.0823399 0.33729 0.387044
275 4 0.125034 0.296569 0.381815
274 2 0.149548 0.300805 0.384321
276 4 0.174062 0.30504 0.386827
373 2 0.205082 0.272262 0.385768
374 4 0.224187 0.256247 0.383842
375 4 0.185977 0.288277 0.387695
406 2 0.0459664 0.384636 0.389569
548 4 0.0361138 0.42222 0.369008
407 4 0.0397684 0.404397 0.37556
617 4 0.0871808 0.359591 0.376825
435 4 0.235194 0.37032 0.330992
678 4 0.215635 0.370895 0.337265
669 4 0.289662 0.42036 0.422916
433 2 0.259825 0.373305 0.334087
753 4 0.495898 0.382609 0.337697
561 4 0.455894 0.363666 0.390333
752 4 0.463733 0.373266 0.37483
559 2 0.471556 0.36472 0.409795
751 2 0.479815 0.377938 0.356263
547 2 0.0372798 0.432584 0.346284
412 2 0.152505 0.486724 0.331891
499 2 0.160994 0.498234 0.388613
501 4 0.145684 0.48559 0.403809
413 4 0.174602 0.496214 0.338735
1 1 0.32306 0.495748 0.404797
3 3 0.331305 0.48301 0.387243
594 4 0.419638 0.474564 0.344671
1524 4 0.0703673 0.00633197 0.48154
718 2 0.0252992 0.0703675 0.448962
720 4 0.028206 0.0513434 0.464925
2237 4 0.038401 0.0383932 0.476186
2236 2 0.0335637 0.0158541 0.466503
1127 4 0.0202152 0.0435579 0.481038
1126 2 0.00604779 0.0522467 0.499719
1522 2 0.0944337 0.00151148 0.48631
1523 4 0.1185 0.996691 0.491079
342 4 0.187191 0.0737996 0.494039
340 2 0.1866 0.048981 0.497016
1182 4 0.26725 0.0743302 0.481301
726 4 0.300439 0.0455639 0.440464
724 2 0.295955 0.036701 0.46341
725 4 0.291471 0.0278382 0.486356
425 4 0.430982 0.00783829 0.420021
2878 2 0.464932 0.076552 0.483142
2879 4 0.460746 0.0629232 0.503682
458 4 0.00962327 0.145834 0.423203
719 4 0.0223924 0.0893915 0.433
1033 2 0.129623 0.144701 0.476824
1034 4 0.117317 0.134141 0.495856
1180 2 0.261694 0.0880839 0.461173
1181 4 0.256139 0.101838 0.441045
411 4 0.269003 0.161712 0.457851
321 4 0.319434 0.126947 0.450575
319 2 0.300679 0.120735 0.43525
576 4 0.412338 0.150796 0.435638
2880 4 0.469118 0.0901808 0.462601
642 4 0.470049 0.0977661 0.443842
640 2 0.45834 0.119725 0.441417
641 4 0.44663 0.141684 0.438992
306 4 0.430474 0.154115 0.442009
457 2 0.0159786 0.168733 0.41543
469 2 0.0214914 0.198556 0.470958
470 4 0.0403849 0.182569 0.467406
686 4 0.151827 0.22954 0.423471
1035 4 0.14193 0.155261 0.457791
260 4 0.100348 0.210502 0.444031
261 4 0.129075 0.169747 0.447831
259 2 0.114711 0.190124 0.445931
695 4 0.110749 0.227327 0.451367
409 2 0.273517 0.183047 0.470083
410 4 0.278031 0.204383 0.482314
900 4 0.285694 0.195308 0.498792
466 2 0.376501 0.204065 0.436872
467 4 0.375711 0.187115 0.455236
3159 4 0.494525 0.207336 0.502946
305 4 0.452183 0.199164 0.441957
304 2 0.441328 0.176639 0.441983
346 2 0.0780748 0.306256 0.43364
326 4 0.0754539 0.327963 0.464037
348 4 0.086204 0.310712 0.456861
694 2 0.114465 0.248231 0.464572
1260 4 0.108494 0.279715 0.492349
696 4 0.118182 0.269136 0.477778
266 4 0.313161 0.261151 0.472054
811 2 0.288348 0.308321 0.48797
813 4 0.30852 0.303643 0.473957
812 4 0.268175 0.313 0.501982
650 4 0.252028 0.309016 0.492189
265 2 0.333013 0.251386 0.460404
267 4 0.352865 0.24162 0.448755
584 4 0.493342 0.266683 0.470283
583 2 0.469826 0.270612 0.462752
585 4 0.446309 0.274541 0.45522
408 4 0.0521645 0.364875 0.403579
935 4 0.0119393 0.41313 0.507644
2812 2 0.00812499 0.36344 0.442637
2813 4 0.0319807 0.362364 0.450049
325 2 0.0905669 0.347092 0.469592
327 4 0.10568 0.366221 0.475148
10 3 0.148721 0.334485 0.459044
7 3 0.124601 0.35766 0.475598
6 1 0.146197 0.349738 0.475765
8 3 0.160737 0.367527 0.472517
711 4 0.178758 0.368433 0.462804
635 4 0.225333 0.408487 0.482765
504 4 0.230473 0.401227 0.447787
709 2 0.192703 0.386514 0.472992
710 4 0.206649 0.404594 0.48318
336 4 0.291684 0.400832 0.421272
502 2 0.252218 0.404719 0.435948
334 2 0.312509 0.387225 0.423795
503 4 0.273962 0.408211 0.424108
335 4 0.333334 0.373619 0.426317
239 4 0.396144 0.388252 0.440585
238 2 0.372005 0.388229 0.434067
240 4 0.347866 0.388206 0.427549
587 4 0.430478 0.397231 0.49433
560 4 0.487217 0.365775 0.429257
2507 4 0.497892 0.382627 0.428582
588 4 0.4095 0.399657 0.449001
586 2 0.419989 0.398444 0.471665
680 4 0.0422434 0.444984 0.439384
681 4 0.0824513 0.41922 0.454224
1383 4 0.0356332 0.461186 0.430584
1381 2 0.0475466 0.482651 0.425842
679 2 0.0623474 0.432102 0.446804
382 2 0.122237 0.433838 0.458667
384 4 0.141267 0.448182 0.466234
569 4 0.144713 0.457666 0.449614
383 4 0.103206 0.419493 0.4511
634 2 0.225179 0.432038 0.474368
570 4 0.177928 0.494409 0.456504
636 4 0.225025 0.455589 0.46597
568 2 0.16132 0.476037 0.453059
882 4 0.333457 0.488802 0.465844
667 2 0.294469 0.444897 0.422963
668 4 0.299277 0.469434 0.423009
4 3 0.314371 0.481882 0.421248
880 2 0.340006 0.501318 0.486475
663 4 0.455685 0.427214 0.502521
1057 2 0.151499 0.0645409 0.567406
1058 4 0.145568 0.0416189 0.575443
2428 2 0.214676 0.00219469 0.509661
2430 4 0.190081 0.0063447 0.507914
341 4 0.186009 0.0241623 0.499994
2429 4 0.239271 0.998045 0.511409
430 2 0.312723 0.0552227 0.513147
431 4 0.32683 0.0692477 0.528295
961 2 0.271638 0.0159846 0.515172
950 4 0.322713 0.0278509 0.594269
432 4 0.298615 0.0411977 0.497999
962 4 0.249806 0.00767235 0.524085
963 4 0.293471 0.0242968 0.506259
1217 4 0.386246 0.0393182 0.535986
1216 2 0.39149 0.0186158 0.548989
842 4 0.382237 0.0561648 0.546753
841 2 0.357771 0.0613049 0.547195
843 4 0.333306 0.0664449 0.547637
938 4 0.109791 0.164299 0.55195
937 2 0.107324 0.156354 0.528371
1151 4 0.158695 0.101806 0.546618
1059 4 0.157429 0.0874628 0.559369
1155 4 0.160297 0.105503 0.566418
939 4 0.104857 0.148409 0.504792
1150 2 0.16517 0.0933948 0.523979
1152 4 0.171645 0.0849839 0.50134
1153 2 0.174733 0.125821 0.568413
1154 4 0.18917 0.146138 0.570409
878 4 0.028307 0.207356 0.544289
1199 4 0.0203321 0.223762 0.554145
877 2 0.0502066 0.200905 0.554486
879 4 0.0721063 0.194455 0.564682
1272 4 0.070146 0.194969 0.584163
858 4 0.2491 0.203511 0.565061
857 4 0.298177 0.21297 0.563429
856 2 0.273638 0.20824 0.564245
898 2 0.301238 0.211029 0.510472
791 4 0.316959 0.221059 0.563599
899 4 0.316781 0.22675 0.522152
790 2 0.319239 0.244972 0.570536
1258 2 0.120198 0.287627 0.512979
1259 4 0.131902 0.295538 0.533609
649 2 0.23554 0.291004 0.497564
651 4 0.219052 0.272993 0.50294
804 4 0.251624 0.322454 0.50699
873 4 0.390604 0.263927 0.551893
1239 4 0.334476 0.331281 0.564195
792 4 0.32152 0.268886 0.577474
871 2 0.392084 0.270261 0.527751
1238 4 0.333686 0.281362 0.567051
1237 2 0.334081 0.306322 0.565623
872 4 0.393564 0.276596 0.503608
9 3 0.150363 0.339748 0.49629
1189 2 0.229818 0.383834 0.572179
773 4 0.237919 0.381128 0.535882
1190 4 0.240799 0.371918 0.553137
803 4 0.242522 0.361978 0.536242
772 2 0.226591 0.394378 0.517958
774 4 0.215262 0.407629 0.500033
802 2 0.247073 0.342216 0.521616
930 4 0.299648 0.345239 0.552115
928 2 0.297576 0.370133 0.553183
929 4 0.295503 0.395028 0.554251
927 4 0.41752 0.374484 0.551891
925 2 0.417241 0.386978 0.530234
954 4 0.509711 0.328332 0.584869
926 4 0.416963 0.399472 0.508578
2243 4 0.138504 0.499681 0.557761
1159 2 0.175277 0.485533 0.56922
1160 4 0.192282 0.471578 0.581106
889 2 0.306078 0.461662 0.545204
890 4 0.311672 0.481936 0.531681
891 4 0.300485 0.441388 0.558726
1002 4 0.387095 0.49054 0.499052
1000 2 0.408716 0.487761 0.511299
1953 4 0.366748 0.483675 0.559854
1951 2 0.354233 0.497678 0.543347
1001 4 0.430337 0.484983 0.523545
662 4 0.443385 0.470539 0.524256
661 2 0.449535 0.448876 0.513388
1911 4 0.442244 0.482985 0.539124
1909 2 0.435116 0.475412 0.561862
1332 4 0.449368 0.488953 0.521621
1910 4 0.427989 0.467838 0.5846
2319 4 0.0504854 0.0168551 0.632233
945 4 0.0656319 0.0254416 0.644351
943 2 0.089165 0.0324706 0.649037
944 4 0.112698 0.0394996 0.653724
825 4 0.131055 0.0320801 0.657956
823 2 0.142983 0.0128176 0.64738
1032 4 0.235438 0.0951671 0.597423
949 2 0.306984 0.0463998 0.600076
951 4 0.291255 0.0649486 0.605883
1030 2 0.254259 0.0787608 0.598758
1031 4 0.27308 0.0623546 0.600093
43 3 0.440398 0.0840755 0.655479
1081 2 0.0308734 0.1175 0.660834
3179 4 0.0284888 0.151722 0.654691
1083 4 0.038342 0.136636 0.646579
3178 2 0.011225 0.164975 0.642383
1282 2 0.161107 0.112365 0.65465
1284 4 0.17305 0.112055 0.632686
1221 4 0.193233 0.157339 0.587935
888 4 0.258428 0.169299 0.670093
808 2 0.492773 0.089214 0.643863
1243 2 0.0719594 0.238102 0.630651
1244 4 0.0512738 0.234317 0.617125
1270 2 0.0926967 0.201026 0.593105
1271 4 0.115247 0.207082 0.602047
1209 4 0.106673 0.246763 0.658451
1245 4 0.092645 0.241886 0.644177
1210 2 0.223676 0.187261 0.660372
1212 4 0.202147 0.191116 0.648256
1219 2 0.196346 0.169768 0.609406
1220 4 0.199459 0.182196 0.630877
796 2 0.187233 0.22423 0.6288
798 4 0.193709 0.200633 0.633939
906 4 0.471909 0.238431 0.596617
904 2 0.463481 0.229612 0.618443
905 4 0.455053 0.220794 0.640269
3123 4 0.466566 0.228681 0.654804
3121 2 0.485099 0.237012 0.669374
983 4 0.0248451 0.314496 0.609283
982 2 0.0447644 0.317778 0.624036
3263 4 0.0664008 0.329252 0.656469
984 4 0.0646836 0.32106 0.638788
797 4 0.180756 0.247828 0.623662
947 4 0.201485 0.288931 0.633861
946 2 0.1991 0.274715 0.654291
952 2 0.491652 0.328352 0.602161
953 4 0.473592 0.328371 0.619454
1041 4 0.0666457 0.340852 0.640989
1039 2 0.0781278 0.363038 0.642042
897 4 0.155604 0.37376 0.59326
1137 4 0.141647 0.388058 0.593809
1135 2 0.122443 0.404013 0.595155
1040 4 0.0896099 0.385225 0.643095
993 4 0.0933904 0.401236 0.653802
1136 4 0.103239 0.419969 0.596502
896 4 0.199633 0.396957 0.588348
895 2 0.177618 0.385358 0.590804
1191 4 0.218838 0.395751 0.591221
1172 4 0.210975 0.413248 0.589142
805 2 0.319496 0.334569 0.662715
807 4 0.33802 0.351363 0.662704
1206 4 0.47766 0.413561 0.658924
3309 4 0.496134 0.397923 0.586756
991 2 0.0974925 0.424189 0.644773
992 4 0.101595 0.447141 0.635743
1175 4 0.218471 0.498955 0.657243
1173 4 0.184588 0.455717 0.588192
1171 2 0.197781 0.434483 0.588667
1188 4 0.20816 0.486995 0.644217
1187 4 0.194399 0.467119 0.600441
1186 2 0.20128 0.477057 0.622329
1204 2 0.464294 0.432464 0.64948
1205 4 0.450928 0.451368 0.640037
1269 4 0.433555 0.458371 0.646827
1267 2 0.43175 0.4823 0.639805
1226 4 0.179882 0.0830947 0.720636
2254 2 0.208427 0.0149678 0.743895
2256 4 0.198113 0.0197337 0.721622
1003 2 0.317262 0.0519431 0.710371
1005 4 0.304967 0.0663297 0.69403
1004 4 0.329557 0.0375566 0.726712
45 3 0.448043 0.0486518 0.665696
42 3 0.434757 0.0727793 0.69088
41 1 0.448329 0.0703958 0.672461
1163 4 0.48754 0.0686446 0.676651
44 3 0.469932 0.076616 0.678206
1162 2 0.498223 0.0494226 0.688549
1082 4 0.0234049 0.0983641 0.67509
1076 4 0.0145452 0.103017 0.692919
1075 2 0.0277644 0.103302 0.71414
1077 4 0.0409835 0.103586 0.735361
850 2 0.0724008 0.160572 0.709196
909 4 0.0880152 0.135602 0.696267
907 2 0.110224 0.125105 0.691601
908 4 0.132433 0.114609 0.686934
1283 4 0.149164 0.112674 0.676615
1227 4 0.149922 0.114743 0.696111
851 4 0.0939996 0.14804 0.710461
1148 4 0.196751 0.0909566 0.729605
1225 2 0.164902 0.098919 0.708373
1147 2 0.219086 0.0950421 0.740076
830 4 0.319553 0.163133 0.701196
831 4 0.366378 0.151482 0.688066
1142 4 0.371683 0.163276 0.702967
1141 2 0.395828 0.165034 0.709219
829 2 0.342965 0.157308 0.694631
810 4 0.482074 0.083917 0.665832
1025 4 0.476015 0.134437 0.692748
3424 2 0.494194 0.105274 0.69879
3426 4 0.485512 0.0869651 0.684141
1024 2 0.457388 0.14863 0.70151
3425 4 0.502876 0.123582 0.713439
1143 4 0.419974 0.166791 0.715471
1026 4 0.438761 0.162824 0.710272
1215 4 0.000753611 0.205559 0.726273
852 4 0.050802 0.173105 0.707931
1213 2 0.0234489 0.19917 0.71795
1214 4 0.0461442 0.192781 0.709626
1207 2 0.10901 0.234215 0.679952
1208 4 0.111346 0.221666 0.701452
1106 4 0.137935 0.189191 0.742808
1105 2 0.11981 0.176204 0.731494
1107 4 0.101684 0.163217 0.720181
1130 4 0.154104 0.184401 0.752917
1211 4 0.245205 0.183405 0.672488
886 2 0.2797 0.168827 0.683224
887 4 0.300972 0.168355 0.696356
976 2 0.30613 0.189522 0.729434
978 4 0.312398 0.180123 0.707128
1194 4 0.32499 0.226076 0.665088
1193 4 0.363326 0.221072 0.696806
1192 2 0.344158 0.223574 0.680947
1261 2 0.445969 0.192668 0.737073
1262 4 0.434766 0.173088 0.726289
1263 4 0.457172 0.212247 0.747858
3262 2 0.0540066 0.323349 0.677367
1074 4 0.0814285 0.244129 0.732548
3264 4 0.0416124 0.317446 0.698265
893 4 0.0238972 0.320908 0.706802
1072 2 0.0628538 0.252796 0.746868
1179 4 0.99306 0.27245 0.730293
821 4 0.171122 0.274995 0.730601
948 4 0.196715 0.260498 0.674721
820 2 0.175456 0.255683 0.745879
1064 4 0.202425 0.271592 0.69144
1065 4 0.229083 0.289501 0.729772
1063 2 0.215754 0.280546 0.710606
892 2 0.0207678 0.343138 0.717812
894 4 0.0176384 0.365367 0.728822
3276 4 0.0158983 0.384874 0.726482
814 2 0.0574884 0.378563 0.735097
816 4 0.0332184 0.377204 0.72924
815 4 0.0817585 0.379921 0.740953
941 4 0.133824 0.415962 0.747322
1067 4 0.147069 0.406965 0.735286
940 2 0.117891 0.396938 0.744256
1066 2 0.16281 0.410083 0.716111
942 4 0.101958 0.377913 0.74119
806 4 0.300971 0.317776 0.662726
1019 4 0.380549 0.407298 0.707758
1018 2 0.367206 0.395555 0.725344
1020 4 0.353863 0.383813 0.74293
1281 4 0.0169255 0.486447 0.701653
1983 4 0.997007 0.480358 0.700804
1280 4 0.0645771 0.498909 0.693008
1279 2 0.0407513 0.492678 0.69733
1029 4 0.244335 0.428311 0.687581
1027 2 0.219485 0.425555 0.687744
1068 4 0.178551 0.413202 0.696936
1028 4 0.194634 0.422798 0.687906
1140 4 0.269666 0.465601 0.702356
1138 2 0.259035 0.462322 0.724748
1228 2 0.399527 0.435693 0.749841
1230 4 0.421073 0.432474 0.73757
1100 4 0.421345 0.432695 0.717296
1101 4 0.462485 0.461118 0.717875
1099 2 0.441915 0.446906 0.717586
1251 4 0.476682 0.466775 0.730459
3330 4 0.479694 0.467942 0.711163
1249 2 0.47639 0.487712 0.744124
1296 4 0.0273147 0.026855 0.80268
1203 4 0.13041 0.0817355 0.788815
1201 2 0.135688 0.0608483 0.776125
1202 4 0.140966 0.0399612 0.763434
2049 4 0.156134 0.0264924 0.759027
1257 4 0.247062 0.0801185 0.757072
1255 2 0.265842 0.0766969 0.773221
1256 4 0.284622 0.0732753 0.78937
1113 4 0.392236 0.0510736 0.828142
1111 2 0.382799 0.0742111 0.827263
2321 4 0.460736 0.99925 0.783188
2322 4 0.463401 0.0485644 0.775331
2320 2 0.462069 0.0239074 0.77926
846 4 0.47469 0.0640353 0.783445
864 4 0.0277086 0.107924 0.74882
862 2 0.0310944 0.105619 0.773486
863 4 0.0344802 0.103314 0.798151
832 2 0.0186031 0.0986018 0.826469
833 4 0.0353136 0.113134 0.81486
1125 4 0.0263112 0.128176 0.824743
1123 2 0.0302124 0.152832 0.826171
31 1 0.123946 0.150287 0.806618
34 3 0.122565 0.17121 0.796683
35 3 0.140537 0.138125 0.796846
33 3 0.103689 0.139167 0.804516
32 3 0.128675 0.152965 0.82897
1149 4 0.24142 0.0991276 0.750547
840 4 0.288084 0.0905883 0.799383
838 2 0.287736 0.104935 0.819858
1112 4 0.373361 0.0973487 0.826385
818 4 0.387212 0.110418 0.819505
844 2 0.467983 0.0861753 0.773957
845 4 0.461277 0.108315 0.764469
1124 4 0.0341136 0.177488 0.827598
822 4 0.17979 0.23637 0.761157
1129 2 0.171668 0.201992 0.755612
1131 4 0.189231 0.219583 0.758306
920 4 0.215243 0.202044 0.819822
1277 4 0.18542 0.225803 0.776899
1276 2 0.193535 0.239466 0.796203
919 2 0.193342 0.193069 0.827884
1278 4 0.201649 0.25313 0.815507
977 4 0.299862 0.198922 0.75174
918 4 0.294718 0.207855 0.767987
1298 4 0.310241 0.196363 0.768157
916 2 0.292253 0.231572 0.760463
1297 2 0.331803 0.199066 0.780523
1084 2 0.359712 0.185193 0.830904