ITEM: TIMESTEP
720000
ITEM: NUMBER OF ATOMS
4590
ITEM: BOX BOUNDS pp pp pp
-9.9985700000000008e+00 9.9985700000000008e+00
-9.9985700000000008e+00 9.9985700000000008e+00
-9.9985700000000008e+00 9.9985700000000008e+00
ITEM: ATOMS id type xs ys zs
463 2 0.0312966 0.0632852 0.0417476
464 4 0.00852144 0.0544749 0.0363767
465 4 0.0540719 0.0720956 0.0471185
701 4 0.0731795 0.0730906 0.0531049
491 4 0.283735 0.00129276 0.0342143
558 4 0.367938 0.0654969 0.0416568
556 2 0.363773 0.0672542 0.0662483
745 2 0.478291 0.0546559 0.00520807
746 4 0.492189 0.0535309 0.0259625
589 2 0.0174325 0.135006 0.0650137
591 4 0.0128458 0.116167 0.0492258
700 2 0.0871033 0.091487 0.0434674
702 4 0.101027 0.109883 0.0338299
566 4 0.117686 0.107954 0.0467886
565 2 0.14234 0.109449 0.0428966
423 4 0.0906515 0.143833 0.0349368
421 2 0.0815161 0.150262 0.0125675
567 4 0.166993 0.110945 0.0390046
360 4 0.273012 0.158027 0.0268657
358 2 0.277463 0.136954 0.0141663
359 4 0.281914 0.11588 0.00146687
770 4 0.445662 0.127528 0.0898941
1013 4 0.487226 0.164607 0.0451221
553 2 0.0497741 0.200487 0.0205751
554 4 0.0395593 0.17862 0.027108
666 4 0.326561 0.224839 0.0185373
664 2 0.324308 0.201946 0.00873898
573 4 0.32356 0.234492 0.0343363
665 4 0.322054 0.179053 0.998941
461 4 0.338562 0.221356 0.0335147
460 2 0.345951 0.22244 0.0573768
1014 4 0.471801 0.207016 0.0235757
1012 2 0.479513 0.185811 0.0343489
292 2 0.126587 0.300083 0.0475213
293 4 0.144603 0.284636 0.0553967
294 4 0.108572 0.315529 0.039646
507 4 0.150491 0.296407 0.0702862
505 2 0.174928 0.299936 0.0742309
355 2 0.243995 0.278933 0.0291054
357 4 0.220615 0.286568 0.0336084
483 4 0.211457 0.319394 0.0768224
506 4 0.199365 0.303465 0.0781757
481 2 0.23623 0.320353 0.0735727
356 4 0.267375 0.271299 0.0246024
571 2 0.304491 0.250421 0.0315408
572 4 0.285422 0.266349 0.0287453
482 4 0.261003 0.321312 0.070323
1071 4 0.416305 0.259943 0.0311924
1069 2 0.414986 0.257538 0.00633978
324 4 0.427948 0.248055 0.0431711
322 2 0.436401 0.264075 0.0604084
670 2 0.455597 0.319922 0.0628492
519 4 0.47475 0.262775 0.0647155
287 4 0.145396 0.34566 0.00133847
456 4 0.10146 0.351548 0.0934499
609 4 0.272837 0.337038 0.0796678
251 4 0.305817 0.41906 0.0267774
252 4 0.277472 0.397034 0.0615929
250 2 0.291644 0.408047 0.0441851
608 4 0.276201 0.386931 0.0798453
607 2 0.274519 0.361985 0.0797565
957 4 0.36515 0.338416 0.00812149
671 4 0.464061 0.342985 0.0582003
281 4 0.472081 0.355412 0.0438558
280 2 0.483677 0.365105 0.0239372
282 4 0.495273 0.374799 0.00401874
551 4 0.0831415 0.423689 0.0609336
550 2 0.0869012 0.448339 0.0627909
330 4 0.0121196 0.41679 0.0748982
1786 2 0.0888125 0.506502 0.0678209
552 4 0.0906609 0.472988 0.0646481
1787 4 0.103034 0.486311 0.0717266
242 4 0.118273 0.484294 0.0838226
241 2 0.13977 0.496738 0.0866914
625 2 0.199784 0.453732 0.0798063
245 4 0.236883 0.472625 0.0689917
626 4 0.180451 0.43789 0.0804768
244 2 0.245672 0.48957 0.0528421
271 2 0.267333 0.482573 0.00254254
273 4 0.278227 0.467076 0.986222
246 4 0.25446 0.506515 0.0366925
227 4 0.464592 0.461284 0.067565
226 2 0.481631 0.445711 0.077173
228 4 0.49867 0.430138 0.0867811
1667 4 0.0841752 0.0124675 0.0858531
20 3 0.0315211 0.0817354 0.139688
1506 4 0.228524 0.022457 0.162065
652 2 0.307267 0.00803757 0.132477
653 4 0.298779 0.031216 0.136464
557 4 0.359608 0.0690116 0.0908398
296 4 0.361619 0.0578138 0.10737
295 2 0.364383 0.0342322 0.115209
297 4 0.367147 0.0106505 0.123048
2724 4 0.503702 0.00203146 0.15593
590 4 0.0220192 0.153844 0.0808015
380 4 0.0284249 0.0934283 0.169437
237 4 0.147442 0.150192 0.158763
769 2 0.455279 0.150586 0.0888819
312 4 0.424985 0.129748 0.166476
337 2 0.0642827 0.235325 0.136358
339 4 0.0412237 0.234489 0.126726
705 4 0.996527 0.257864 0.160284
338 4 0.0873417 0.236162 0.145989
476 4 0.143545 0.20996 0.118941
475 2 0.121667 0.215464 0.129722
477 4 0.0997887 0.220968 0.140503
737 4 0.158478 0.19936 0.108314
363 4 0.0824774 0.241283 0.16456
738 4 0.204283 0.218545 0.11419
736 2 0.181381 0.208952 0.111252
285 4 0.248132 0.180417 0.153628
354 4 0.308975 0.248203 0.131687
283 2 0.269843 0.168819 0.149241
284 4 0.291555 0.15722 0.144854
254 4 0.380123 0.1978 0.125894
255 4 0.343864 0.212026 0.094531
462 4 0.353341 0.223523 0.0812389
253 2 0.361993 0.204913 0.110212
630 4 0.395056 0.211913 0.125
771 4 0.464897 0.173644 0.0878697
629 4 0.441971 0.194631 0.126026
628 2 0.418513 0.203272 0.125513
2895 4 0.491529 0.229259 0.115101
518 4 0.497748 0.246578 0.106062
352 2 0.295139 0.268585 0.135965
353 4 0.281303 0.288968 0.140244
754 2 0.292149 0.326074 0.137988
755 4 0.294586 0.302523 0.146027
278 4 0.278756 0.298592 0.156628
277 2 0.258049 0.293081 0.169513
741 4 0.351944 0.318241 0.0884755
323 4 0.444853 0.280094 0.0776457
672 4 0.447133 0.296858 0.0674981
517 2 0.486249 0.254677 0.0853886
620 4 0.00544554 0.365497 0.100419
647 4 0.0172377 0.361685 0.116525
646 2 0.0407207 0.353632 0.119503
648 4 0.0642037 0.345578 0.122481
455 4 0.128476 0.385356 0.0683926
454 2 0.114968 0.368452 0.0809212
537 4 0.230173 0.384287 0.164233
535 2 0.212174 0.378697 0.147802
536 4 0.194174 0.373108 0.131372
756 4 0.289712 0.349624 0.129948
612 4 0.283683 0.364371 0.143045
610 2 0.266066 0.376143 0.156319
739 2 0.36253 0.336172 0.102318
387 4 0.33031 0.369989 0.163562
740 4 0.373116 0.354102 0.11616
15 3 0.386729 0.360533 0.12798
385 2 0.349137 0.367485 0.1473
386 4 0.367964 0.364981 0.131038
11 1 0.407074 0.370436 0.130561
13 3 0.413314 0.369999 0.152905
14 3 0.406225 0.392357 0.123001
495 4 0.388481 0.395392 0.131679
12 3 0.422722 0.358923 0.118243
645 4 0.464442 0.412782 0.167783
597 4 0.470378 0.41785 0.149553
315 4 0.997168 0.44974 0.115724
1467 4 0.0148334 0.454045 0.124358
1465 2 0.0234986 0.476635 0.130667
1466 4 0.0321639 0.499225 0.136975
627 4 0.219118 0.469573 0.0791358
524 4 0.341153 0.486568 0.103087
766 2 0.261414 0.48892 0.167576
523 2 0.350495 0.470239 0.0866161
525 4 0.359837 0.45391 0.0701455
658 2 0.400268 0.475426 0.156087
493 2 0.385117 0.420119 0.133248
660 4 0.398085 0.45882 0.137522
494 4 0.381753 0.444845 0.134818
659 4 0.402451 0.492032 0.174651
595 2 0.474646 0.440903 0.158243
596 4 0.478913 0.463956 0.166933
16 1 0.0443933 0.0711861 0.155233
2480 4 0.000678872 0.0150432 0.171063
17 3 0.0658162 0.0690355 0.147135
18 3 0.0358528 0.0500498 0.15956
1404 4 0.0593447 0.0222506 0.23223
673 2 0.128825 0.0741371 0.213366
674 4 0.151427 0.0658419 0.20662
1504 2 0.209418 0.0333373 0.173971
450 4 0.171056 0.0496582 0.185769
1505 4 0.190313 0.0442175 0.185878
448 2 0.171511 0.0740591 0.180331
689 4 0.210802 0.0272513 0.252526
28 3 0.326186 0.0790097 0.243436
758 4 0.391789 0.0754208 0.16744
21 1 0.370086 0.0168773 0.232935
25 3 0.374947 0.0347389 0.219669
759 4 0.381277 0.0509334 0.209756
757 2 0.386533 0.0631771 0.188598
22 3 0.353787 0.00415998 0.222848
744 4 0.464505 0.0349667 0.252495
742 2 0.48547 0.0213443 0.252198
351 4 0.457822 0.0440349 0.23504
349 2 0.437409 0.0580036 0.23138
350 4 0.416997 0.0719722 0.22772
19 3 0.0449857 0.0836479 0.174797
512 4 0.0237236 0.155738 0.184954
379 2 0.0308983 0.116346 0.179124
381 4 0.0333717 0.139264 0.188811
579 4 0.070301 0.107287 0.179485
235 2 0.163015 0.13066 0.159833
675 4 0.106223 0.0824323 0.220113
577 2 0.089414 0.120693 0.188438
578 4 0.108527 0.134099 0.19739
449 4 0.171967 0.0984601 0.174894
236 4 0.178589 0.111128 0.160904
693 4 0.189091 0.107006 0.176689
691 2 0.213917 0.107875 0.179534
692 4 0.238743 0.108744 0.182379
723 4 0.210429 0.112831 0.224066
721 2 0.19846 0.131258 0.235996
722 4 0.18649 0.149686 0.247927
582 4 0.255536 0.115447 0.192692
580 2 0.276011 0.115975 0.207033
581 4 0.296487 0.116504 0.221373
30 3 0.308094 0.100395 0.218276
26 1 0.320969 0.100701 0.237059
27 3 0.340487 0.112062 0.232681
310 2 0.425854 0.12635 0.191232
311 4 0.426722 0.122951 0.215989
511 2 0.0328628 0.178371 0.190376
513 4 0.042002 0.201005 0.195798
362 4 0.111064 0.230735 0.204212
361 2 0.0967707 0.236009 0.184386
372 4 0.131446 0.227889 0.201754
370 2 0.140619 0.231232 0.224772
371 4 0.149793 0.234575 0.247791
763 2 0.365823 0.23295 0.178287
765 4 0.355125 0.212738 0.168176
520 2 0.487008 0.220184 0.226838
521 4 0.463985 0.229927 0.227284
395 4 0.0505733 0.267114 0.234843
750 4 0.0671001 0.279676 0.232641
748 2 0.0854149 0.292823 0.221829
749 4 0.10373 0.305971 0.211017
279 4 0.237341 0.28757 0.182398
307 2 0.307947 0.258652 0.213624
308 4 0.305602 0.255803 0.238354
309 4 0.310292 0.2615 0.188894
764 4 0.37652 0.253161 0.188398
623 4 0.395767 0.252511 0.182423
622 2 0.411445 0.271869 0.184572
624 4 0.427124 0.291227 0.186722
528 4 0.444192 0.28918 0.196696
527 4 0.48917 0.269407 0.206011
526 2 0.466681 0.279293 0.201354
263 4 0.0674384 0.40791 0.239744
300 4 0.134217 0.343416 0.219954
298 2 0.137662 0.361655 0.236707
602 4 0.0805835 0.412446 0.255001
611 4 0.248448 0.387916 0.169593
290 4 0.201839 0.408914 0.236646
302 4 0.326155 0.388639 0.16913
301 2 0.317766 0.398948 0.190309
643 2 0.46587 0.392913 0.182893
644 4 0.467297 0.373043 0.198004
447 4 0.465288 0.356096 0.207072
445 2 0.483067 0.358476 0.224491
446 4 0.500846 0.360856 0.24191
262 2 0.0623129 0.408768 0.215287
264 4 0.0571873 0.409626 0.190829
417 4 0.154127 0.483495 0.182717
415 2 0.161815 0.46072 0.189599
289 2 0.192897 0.427933 0.223099
291 4 0.183956 0.446951 0.209552
416 4 0.169502 0.437945 0.196481
303 4 0.309378 0.409257 0.211487
768 4 0.271571 0.467946 0.176637
231 4 0.414385 0.503547 0.187208
1568 4 0.4908 0.480426 0.165697
1798 2 0.0220869 0.0135613 0.31073
1799 4 0.03239 0.0212882 0.289299
233 4 0.0229163 0.0336161 0.277763
1402 2 0.043932 0.0189496 0.251639
1403 4 0.0285193 0.0156486 0.271049
1699 2 0.216438 0.0459394 0.304529
1701 4 0.217139 0.0224929 0.295872
1700 4 0.215738 0.0693859 0.313187
248 4 0.220945 0.0888918 0.313829
1516 2 0.372753 0.00915905 0.290614
23 3 0.36223 0.0241977 0.253505
697 2 0.389315 0.0654628 0.313296
699 4 0.378518 0.0481056 0.298897
1518 4 0.368094 0.0317121 0.300353
743 4 0.506434 0.00772193 0.2519
478 2 0.468079 0.0323434 0.311478
479 4 0.474277 0.0141446 0.295492
480 4 0.461881 0.0505422 0.327464
398 4 0.0930438 0.128414 0.314938
544 2 0.153504 0.164648 0.262366
249 4 0.216843 0.13867 0.311378
247 2 0.218894 0.113781 0.312604
404 4 0.20978 0.15802 0.30676
546 4 0.166788 0.1459 0.252506
403 2 0.205426 0.158654 0.282146
29 3 0.309687 0.111506 0.254216
698 4 0.400111 0.08282 0.327696
333 4 0.431539 0.127743 0.314328
331 2 0.44962 0.144447 0.309943
444 4 0.00507208 0.259337 0.327912
393 4 0.0825384 0.220502 0.26117
392 4 0.127467 0.198706 0.263825
391 2 0.105003 0.209604 0.262498
545 4 0.14022 0.183397 0.272225
405 4 0.201071 0.159289 0.257533
378 4 0.281992 0.217509 0.32495
332 4 0.467701 0.161151 0.305559
762 4 0.484047 0.169354 0.298004
394 2 0.0433683 0.268878 0.258721
396 4 0.0361632 0.270641 0.282599
442 2 0.0109574 0.267309 0.304955
443 4 0.0168427 0.275281 0.281999
364 2 0.0270679 0.313543 0.286945
365 4 0.0301799 0.28907 0.282871
401 4 0.19104 0.26478 0.262184
345 4 0.225583 0.299802 0.296886
400 2 0.198908 0.280633 0.279847
402 4 0.206775 0.296485 0.29751
510 4 0.214351 0.304932 0.312741
508 2 0.210078 0.32184 0.330659
343 2 0.248504 0.308493 0.291957
344 4 0.271424 0.317183 0.287027
498 4 0.392131 0.265097 0.312063
496 2 0.380064 0.276548 0.293396
497 4 0.367998 0.287999 0.274729
542 4 0.457408 0.321031 0.294792
541 2 0.434475 0.323433 0.304462
2493 4 0.00652435 0.340784 0.301267
366 4 0.023956 0.338015 0.291018
299 4 0.141108 0.379894 0.253459
601 2 0.103453 0.402337 0.254981
603 4 0.126322 0.392229 0.254962
734 4 0.141915 0.395226 0.265228
733 2 0.159747 0.393868 0.282703
735 4 0.17758 0.392511 0.300177
677 4 0.183701 0.392439 0.318562
676 2 0.191127 0.375014 0.334884
678 4 0.198554 0.357589 0.351205
727 2 0.329347 0.380851 0.290861
728 4 0.322156 0.381685 0.314794
438 4 0.276499 0.402472 0.26915
729 4 0.336538 0.380017 0.266928
543 4 0.411543 0.325836 0.314132
615 4 0.400017 0.340628 0.321484
613 2 0.382096 0.357803 0.318479
614 4 0.364175 0.374978 0.315473
2538 4 0.473403 0.391334 0.317109
2536 2 0.475638 0.40597 0.29696
2537 4 0.477873 0.420606 0.276811
753 4 0.457322 0.391439 0.330907
549 4 0.0585823 0.421439 0.305523
777 4 0.0942533 0.436537 0.291868
775 2 0.109347 0.45635 0.289686
776 4 0.124441 0.476164 0.287503
414 4 0.139554 0.469305 0.301419
412 2 0.154243 0.486293 0.312411
437 4 0.287179 0.450867 0.27583
436 2 0.281839 0.426669 0.27249
2862 4 0.476359 0.473045 0.271693
594 4 0.442885 0.466854 0.332618
732 4 0.105067 0.0745054 0.401332
730 2 0.104983 0.087762 0.380132
367 2 0.086696 0.00203691 0.411128
605 4 0.168766 0.0766167 0.385546
604 2 0.193413 0.0783891 0.38173
439 2 0.322349 0.994101 0.386566
441 4 0.327901 0.00748501 0.366188
426 4 0.417764 0.0617832 0.408061
258 4 0.420664 0.0654253 0.38898
318 4 0.0199468 0.0866092 0.351893
316 2 0.044217 0.0883694 0.357641
317 4 0.0684873 0.0901297 0.363388
457 2 0.0522733 0.154233 0.391526
459 4 0.0373259 0.170686 0.38008
458 4 0.0672208 0.137779 0.402973
397 2 0.100399 0.124607 0.338531
399 4 0.107753 0.120801 0.362123
731 4 0.104899 0.101019 0.358932
599 4 0.173051 0.166244 0.388373
606 4 0.21806 0.0801614 0.377913
600 4 0.204832 0.146709 0.35507
598 2 0.188941 0.156476 0.371721
683 4 0.262786 0.105061 0.366644
682 2 0.275694 0.101075 0.387684
684 4 0.288602 0.0970879 0.408724
256 2 0.409738 0.0742721 0.368303
257 4 0.398812 0.0831189 0.347626
632 4 0.353626 0.122701 0.357933
631 2 0.369297 0.106772 0.346714
633 4 0.384969 0.0908443 0.335494
516 4 0.414599 0.146183 0.3813
575 4 0.417641 0.147307 0.40171
451 2 0.492848 0.154478 0.362344
514 2 0.435747 0.158198 0.375507
2653 2 0.00851568 0.20496 0.380502
2654 4 0.0248406 0.186218 0.383227
388 2 0.0891702 0.228469 0.33695
389 4 0.108512 0.220527 0.323239
473 4 0.249426 0.177922 0.361192
687 4 0.172624 0.171761 0.40778
685 2 0.156874 0.189666 0.4153
377 4 0.326301 0.228124 0.345559
376 2 0.304147 0.222816 0.335255
474 4 0.274771 0.206762 0.393232
472 2 0.262098 0.192342 0.377212
488 4 0.264845 0.222035 0.400924
487 2 0.280768 0.239737 0.408559
717 4 0.404442 0.240612 0.341356
707 4 0.344169 0.220185 0.349456
420 4 0.399181 0.225933 0.328438
418 2 0.404345 0.201817 0.324322
706 2 0.350011 0.195944 0.351314
708 4 0.355852 0.171704 0.353173
715 2 0.387132 0.249911 0.356819
419 4 0.409508 0.177701 0.320206
515 4 0.456895 0.170213 0.369713
453 4 0.475296 0.17211 0.359849
390 4 0.0698289 0.236412 0.350662
618 4 0.0615761 0.309987 0.391511
347 4 0.0437062 0.311288 0.400837
616 2 0.0820664 0.321103 0.382469
275 4 0.139435 0.326918 0.388965
274 2 0.143892 0.303164 0.382556
276 4 0.14835 0.279411 0.376146
373 2 0.207241 0.304976 0.392989
374 4 0.231629 0.309251 0.389508
375 4 0.182853 0.3007 0.396471
716 4 0.369823 0.259209 0.372281
406 2 0.0595115 0.409876 0.394174
408 4 0.0682817 0.406625 0.417362
548 4 0.0430551 0.415697 0.35271
617 4 0.102557 0.332219 0.373426
509 4 0.205805 0.338748 0.348577
504 4 0.243589 0.381246 0.403624
435 4 0.25154 0.368869 0.325396
433 2 0.262357 0.386545 0.339387
434 4 0.273175 0.404221 0.353377
336 4 0.290331 0.384768 0.415175
334 2 0.314912 0.388332 0.41804
561 4 0.458405 0.360703 0.388191
752 4 0.463308 0.35868 0.368214
559 2 0.473938 0.363443 0.407593
751 2 0.460315 0.37506 0.34956
2463 4 0.99275 0.489958 0.338282
547 2 0.0508187 0.418568 0.329117
407 4 0.0507413 0.413128 0.370986
499 2 0.150588 0.498933 0.378831
501 4 0.125704 0.496495 0.378772
1544 4 0.178092 0.502881 0.358688
668 4 0.29372 0.467006 0.410994
1 1 0.314212 0.49955 0.410855
3 3 0.31728 0.495194 0.388272
4 3 0.301908 0.482469 0.420617
593 4 0.40667 0.496442 0.350332
592 2 0.424778 0.481648 0.341475
1772 4 0.0268128 0.000443483 0.423314
718 2 0.0375676 0.070141 0.462554
720 4 0.0327536 0.0461198 0.467552
2237 4 0.0365584 0.0288101 0.475574
2236 2 0.0293219 0.00535527 0.470811
1127 4 0.0236626 0.0411636 0.483642
369 4 0.0763212 0.0203939 0.424566
1181 4 0.21935 0.0859158 0.490114
1180 2 0.237962 0.0704064 0.483932
2430 4 0.196902 0.0414192 0.516425
341 4 0.185733 0.0471665 0.500374
1182 4 0.256574 0.0548971 0.477749
726 4 0.305584 0.0534903 0.435705
724 2 0.301277 0.0561075 0.460195
432 4 0.31086 0.0578032 0.498168
725 4 0.296971 0.0587247 0.484686
424 2 0.396666 0.0501189 0.414694
425 4 0.375568 0.0384546 0.421328
2879 4 0.484512 0.0648867 0.494321
719 4 0.0423817 0.0941623 0.457555
1033 2 0.105919 0.156529 0.490695
1034 4 0.0999484 0.133526 0.498465
320 4 0.287832 0.116769 0.415377
321 4 0.299538 0.121058 0.463806
319 2 0.293685 0.118913 0.439592
411 4 0.244339 0.160236 0.467916
574 2 0.406207 0.152434 0.423347
576 4 0.394774 0.15756 0.444985
2878 2 0.487154 0.0844531 0.47898
642 4 0.487868 0.123719 0.458023
640 2 0.466474 0.13389 0.450021
641 4 0.44508 0.14406 0.442018
306 4 0.445786 0.163938 0.442123
469 2 0.00751912 0.198659 0.487052
470 4 0.0321758 0.197882 0.491129
260 4 0.116209 0.230573 0.449857
261 4 0.124679 0.185635 0.470094
259 2 0.120444 0.208104 0.459976
1035 4 0.111889 0.179533 0.482924
686 4 0.141125 0.207571 0.422819
409 2 0.258515 0.179068 0.476256
410 4 0.27269 0.197901 0.484597
468 4 0.399916 0.24662 0.419288
466 2 0.389728 0.224923 0.426403
467 4 0.379539 0.203227 0.433518
3159 4 0.49614 0.199817 0.488207
305 4 0.455649 0.21289 0.444782
304 2 0.450718 0.188414 0.443453
346 2 0.0454528 0.315167 0.425476
326 4 0.062646 0.326495 0.460338
695 4 0.0993273 0.240601 0.459227
694 2 0.0983331 0.253385 0.480693
10 3 0.15081 0.343307 0.457351
651 4 0.226508 0.280419 0.507988
649 2 0.249867 0.287061 0.502034
489 4 0.29669 0.257438 0.416194
650 4 0.273225 0.293702 0.496079
266 4 0.33183 0.262296 0.432879
267 4 0.368229 0.269537 0.466396
265 2 0.35003 0.265917 0.449637
584 4 0.490894 0.284978 0.467209
583 2 0.468269 0.28392 0.4778
585 4 0.445645 0.282861 0.488392
348 4 0.0471995 0.319047 0.450115
325 2 0.0790538 0.339355 0.474144
2813 4 0.0196613 0.375856 0.460412
7 3 0.131599 0.353642 0.487633
327 4 0.0954615 0.352214 0.487949
6 1 0.151923 0.354885 0.476931
8 3 0.156816 0.377166 0.472686
9 3 0.168206 0.345675 0.49066
711 4 0.170962 0.383027 0.459962
709 2 0.193175 0.391895 0.467251
710 4 0.215387 0.400764 0.47454
774 4 0.227091 0.410835 0.485613
502 2 0.249711 0.391848 0.425425
503 4 0.255833 0.402449 0.447226
586 2 0.406777 0.412503 0.483365
335 4 0.339494 0.391897 0.420904
238 2 0.356263 0.401815 0.453959
240 4 0.34415 0.385185 0.439751
239 4 0.368377 0.418446 0.468166
587 4 0.425792 0.405318 0.497924
560 4 0.48947 0.366183 0.426994
2507 4 0.496873 0.385324 0.429108
1381 2 0.0368844 0.496698 0.437051
679 2 0.0592087 0.447726 0.46545
1383 4 0.0330756 0.47202 0.438333
681 4 0.0747859 0.431782 0.476777
680 4 0.0436315 0.46367 0.454122
382 2 0.11311 0.43485 0.461743
568 2 0.156556 0.480188 0.458065
383 4 0.0938398 0.425902 0.474926
569 4 0.1442 0.459465 0.451502
384 4 0.13238 0.443797 0.448561
635 4 0.208377 0.417146 0.48253
634 2 0.21473 0.440759 0.47731
636 4 0.221083 0.464372 0.472091
669 4 0.261375 0.43527 0.432144
882 4 0.288975 0.493457 0.489709
667 2 0.277547 0.451138 0.421569
880 2 0.313721 0.492756 0.493217
588 4 0.387761 0.419689 0.468806
663 4 0.451424 0.451839 0.493097
1126 2 0.0161659 0.0433672 0.507394
1128 4 0.00866914 0.0455709 0.531145
1057 2 0.145341 0.0692636 0.57357
1058 4 0.13507 0.0465389 0.575381
1523 4 0.0992615 0.0216891 0.510509
340 2 0.188768 0.0716445 0.504472
2428 2 0.202769 0.0180752 0.523194
430 2 0.322729 0.0770266 0.50888
950 4 0.316247 0.027497 0.570983
962 4 0.284245 0.996925 0.503404
963 4 0.296733 0.0451244 0.498761
961 2 0.290489 0.0210245 0.501082
1217 4 0.38895 0.05795 0.558899
1216 2 0.389757 0.0331166 0.561697
842 4 0.384486 0.0772812 0.555968
1218 4 0.390565 0.0082831 0.564494
938 4 0.0918091 0.116679 0.559869
937 2 0.0889732 0.121905 0.535583
939 4 0.0861374 0.127131 0.511296
1151 4 0.15788 0.10842 0.561446
1059 4 0.155612 0.0919884 0.57176
1155 4 0.151986 0.109776 0.579666
342 4 0.191803 0.0961226 0.50857
1150 2 0.171146 0.11013 0.54032
1152 4 0.184411 0.11184 0.519195
858 4 0.252287 0.186741 0.557614
841 2 0.367367 0.0900291 0.542943
843 4 0.350249 0.102777 0.529919
431 4 0.334599 0.09625 0.519593
878 4 0.0390134 0.210741 0.534929
1199 4 0.0198194 0.216824 0.536721
877 2 0.0588506 0.20619 0.549453
879 4 0.0786879 0.20164 0.563977
857 4 0.290436 0.21106 0.57892
856 2 0.271362 0.198901 0.568267
898 2 0.299388 0.193932 0.516532
791 4 0.292423 0.227572 0.566016
899 4 0.316121 0.184459 0.532515
900 4 0.282655 0.203406 0.50055
871 2 0.392701 0.254588 0.532936
3158 4 0.471896 0.158093 0.501324
872 4 0.412466 0.253754 0.548227
3157 2 0.484018 0.178955 0.494765
906 4 0.433585 0.225287 0.591908
983 4 0.0629214 0.318836 0.576488
1258 2 0.129256 0.293401 0.510469
1259 4 0.144002 0.311907 0.518549
1260 4 0.114511 0.274895 0.502389
696 4 0.0973389 0.266169 0.502158
790 2 0.303634 0.246423 0.578021
811 2 0.301284 0.317221 0.510037
804 4 0.271894 0.328428 0.509331
812 4 0.277594 0.310005 0.50659
813 4 0.324974 0.324436 0.513483
873 4 0.372935 0.255423 0.517645
1239 4 0.351299 0.31134 0.572838
954 4 0.495382 0.312298 0.577994
952 2 0.478156 0.317026 0.595489
1135 2 0.109467 0.397164 0.577684
897 4 0.141971 0.369174 0.573712
1137 4 0.128064 0.383921 0.567488
895 2 0.165973 0.375363 0.576989
1189 2 0.218752 0.378238 0.556232
773 4 0.237585 0.382929 0.525761
1190 4 0.229649 0.369165 0.535639
803 4 0.237374 0.363209 0.519297
772 2 0.232338 0.396882 0.505687
1191 4 0.207855 0.387312 0.576826
802 2 0.254634 0.345818 0.514314
930 4 0.332674 0.378938 0.523446
928 2 0.308867 0.385141 0.527913
929 4 0.285061 0.391344 0.53238
927 4 0.425864 0.374485 0.5548
925 2 0.429923 0.388052 0.534194
926 4 0.433983 0.40162 0.513587
1161 4 0.162726 0.483879 0.553114
2243 4 0.14438 0.486614 0.546168
1159 2 0.177937 0.473184 0.56983
891 4 0.308916 0.449049 0.580212
889 2 0.32833 0.448366 0.56447
881 4 0.338467 0.492054 0.496726
1952 4 0.344169 0.488785 0.515988
1002 4 0.387713 0.437601 0.543535
1000 2 0.407615 0.452704 0.542556
890 4 0.347745 0.447682 0.548729
1001 4 0.427518 0.467807 0.541578
662 4 0.454033 0.485134 0.530317
661 2 0.452729 0.468487 0.511707
1911 4 0.44007 0.483294 0.54398
1909 2 0.45176 0.483191 0.566082
1332 4 0.471614 0.493228 0.530083
943 2 0.0729706 0.0135954 0.637787
945 4 0.063832 0.990552 0.641053
944 4 0.0821091 0.0366389 0.634522
825 4 0.136857 0.0315218 0.640571
823 2 0.138707 0.00691038 0.644575
1030 2 0.240179 0.0752019 0.595304
949 2 0.29549 0.0387976 0.579145
1031 4 0.261392 0.0621191 0.597311
951 4 0.274732 0.0500981 0.587306
1092 4 0.333802 0.00686209 0.655339
3008 4 0.486422 0.0992732 0.597889
1083 4 0.998658 0.130948 0.64267
1081 2 0.0216224 0.126004 0.651236
3179 4 0.00459155 0.149935 0.639355
1153 2 0.156727 0.129273 0.594584
1154 4 0.161468 0.148771 0.609502
1282 2 0.16267 0.112762 0.65607
1032 4 0.218966 0.0882847 0.593296
1284 4 0.178901 0.111906 0.637069
1221 4 0.171667 0.16701 0.607205
45 3 0.438632 0.0741866 0.663126
808 2 0.485241 0.0975574 0.642692
810 4 0.486631 0.0933872 0.667306
809 4 0.48385 0.101728 0.618078
1243 2 0.0735568 0.225647 0.645336
1244 4 0.0667544 0.204248 0.634337
1245 4 0.0803592 0.247046 0.656335
1272 4 0.0875088 0.195342 0.579986
1270 2 0.0939348 0.189685 0.603478
1271 4 0.100361 0.184028 0.62697
1210 2 0.231758 0.183327 0.650649
1212 4 0.212708 0.196326 0.64099
1219 2 0.18675 0.184604 0.616592
1220 4 0.201834 0.202198 0.625979
796 2 0.210534 0.23501 0.62325
798 4 0.209049 0.215577 0.638913
797 4 0.21202 0.254443 0.607587
1211 4 0.250808 0.170328 0.660309
888 4 0.268979 0.167048 0.668581
904 2 0.452159 0.224254 0.608615
905 4 0.470732 0.22322 0.625322
3123 4 0.477334 0.236056 0.638876
3121 2 0.492987 0.236588 0.658366
947 4 0.183351 0.254405 0.645427
946 2 0.193571 0.27265 0.659134
792 4 0.314845 0.265274 0.590026
1238 4 0.324436 0.279759 0.600796
1237 2 0.337868 0.29555 0.586817
953 4 0.460929 0.321754 0.612983
982 2 0.0576566 0.332257 0.596916
984 4 0.0523917 0.345679 0.617344
1041 4 0.0595828 0.349587 0.6355
3263 4 0.0440388 0.338594 0.633356
3262 2 0.0297723 0.337025 0.65383
1136 4 0.0908701 0.410408 0.587879
1039 2 0.0820259 0.357588 0.64308
1040 4 0.104469 0.365589 0.650661
991 2 0.110497 0.404503 0.642187
993 4 0.114189 0.382683 0.653824
896 4 0.189976 0.381553 0.580266
1172 4 0.196963 0.398144 0.588871
1206 4 0.460287 0.39802 0.653488
3309 4 0.480931 0.376827 0.617425
992 4 0.106805 0.426324 0.63055
1175 4 0.243053 0.496854 0.642395
1188 4 0.225387 0.495077 0.632286
1173 4 0.189616 0.446864 0.597423
1171 2 0.193289 0.422504 0.593147
1187 4 0.201447 0.461232 0.604318
1160 4 0.193148 0.462488 0.586545
1186 2 0.213417 0.478155 0.618302
1204 2 0.449465 0.420546 0.652677
1910 4 0.463451 0.483087 0.588184
1205 4 0.438644 0.443072 0.651866
1269 4 0.428027 0.449223 0.636328
1267 2 0.436956 0.472462 0.63866
1268 4 0.445885 0.4957 0.640992
2254 2 0.200163 0.0221153 0.730502
1147 2 0.218148 0.0832875 0.730547
1149 4 0.240147 0.0719007 0.733947
2255 4 0.180361 0.0356829 0.723504
1003 2 0.330068 0.0586254 0.711979
1004 4 0.339546 0.0592821 0.735108
1005 4 0.32059 0.0579687 0.688851
42 3 0.454124 0.0553502 0.691376
41 1 0.450774 0.0762139 0.682286
1163 4 0.489728 0.0792275 0.679967
1082 4 0.0445866 0.12106 0.659802
1076 4 0.0374296 0.113188 0.676407
864 4 0.0487345 0.101883 0.738939
1075 2 0.0469383 0.112384 0.699518
1077 4 0.0564471 0.11158 0.722629
909 4 0.102807 0.143856 0.709454
907 2 0.117614 0.126799 0.69873
908 4 0.132421 0.109742 0.688006
1283 4 0.14644 0.113618 0.67507
1227 4 0.151457 0.110661 0.693381
1225 2 0.16469 0.0998343 0.711626
1148 4 0.196149 0.0946744 0.727147
1226 4 0.177922 0.0890079 0.72987
1142 4 0.380961 0.16926 0.710214
831 4 0.378008 0.161009 0.691687
1141 2 0.40405 0.173175 0.718975
1025 4 0.471889 0.148645 0.68604
3425 4 0.505112 0.138109 0.707252
44 3 0.471401 0.0857602 0.677614
43 3 0.43927 0.0893103 0.697601
3424 2 0.49503 0.117905 0.696512
3426 4 0.484948 0.0977019 0.685772
1024 2 0.456784 0.162245 0.700603
852 4 0.0497445 0.197917 0.738631
1213 2 0.0137293 0.211821 0.725772
1214 4 0.0314003 0.195 0.731247
1209 4 0.0893474 0.243674 0.673678
1207 2 0.096846 0.231265 0.694049
1208 4 0.104345 0.218856 0.714419
1106 4 0.138862 0.20276 0.734969
1105 2 0.124767 0.185851 0.746826
1107 4 0.110672 0.168942 0.758684
1130 4 0.18336 0.185503 0.747093
1129 2 0.179686 0.210203 0.748364
1131 4 0.176013 0.234902 0.749635
830 4 0.328751 0.168138 0.696541
886 2 0.292827 0.170499 0.675253
887 4 0.316676 0.173951 0.681924
976 2 0.317545 0.200292 0.714999
978 4 0.324261 0.186579 0.695199
977 4 0.31083 0.214005 0.734799
1193 4 0.345217 0.246627 0.679676
829 2 0.353379 0.164574 0.694114
1192 2 0.354419 0.223381 0.680087
1194 4 0.36362 0.200136 0.680498
1143 4 0.427138 0.17709 0.727736
1026 4 0.441679 0.175845 0.715166
1261 2 0.457706 0.204934 0.742361
1262 4 0.444504 0.187269 0.730579
1263 4 0.470909 0.222599 0.754143
1074 4 0.080365 0.274256 0.754237
893 4 0.0198835 0.332635 0.69397
948 4 0.20379 0.290895 0.67284
821 4 0.171765 0.276994 0.707085
820 2 0.171271 0.265091 0.729068
1064 4 0.22233 0.292685 0.680037
1065 4 0.220074 0.289785 0.729909
1063 2 0.221202 0.291235 0.704973
3264 4 0.0155058 0.335456 0.674304
3274 2 0.996491 0.386377 0.736953
892 2 0.0276452 0.3503 0.709871
894 4 0.0354069 0.367966 0.725773
3276 4 0.018512 0.375355 0.73262
814 2 0.0589655 0.384859 0.745211
816 4 0.0347813 0.382496 0.739318
941 4 0.141642 0.384943 0.737541
1067 4 0.15919 0.392056 0.732784
1066 2 0.163037 0.403083 0.710676
940 2 0.119061 0.393925 0.743422
1029 4 0.22758 0.410173 0.665277
1027 2 0.207234 0.414299 0.679212
1068 4 0.166884 0.414109 0.688567
806 4 0.302404 0.354858 0.683841
805 2 0.32516 0.36473 0.680699
807 4 0.347916 0.374602 0.677557
1019 4 0.392575 0.365724 0.709682
1018 2 0.376912 0.358973 0.727965
1020 4 0.361249 0.352222 0.746248
1280 4 0.0682153 0.480179 0.682115
1279 2 0.0475476 0.491686 0.690214
1281 4 0.0268799 0.503193 0.698314
1028 4 0.186887 0.418425 0.693147
1140 4 0.25716 0.472986 0.695394
1139 4 0.26665 0.460476 0.742872
1138 2 0.261905 0.466731 0.719133
1228 2 0.397294 0.447814 0.731675
1229 4 0.378089 0.462995 0.73676
1230 4 0.416499 0.432632 0.72659
1989 4 0.374294 0.472332 0.753269
1100 4 0.43437 0.441023 0.724708
1101 4 0.481029 0.458845 0.72716
1099 2 0.457699 0.449934 0.725934
1251 4 0.476672 0.472802 0.740784
3330 4 0.494304 0.444026 0.729973
1294 2 0.0259286 0.0374793 0.781125
1295 4 0.00891256 0.0547429 0.774993
1296 4 0.0429447 0.0202157 0.787257
911 4 0.0847458 0.0562275 0.828193
2047 2 0.145582 0.00206475 0.778247
1203 4 0.102574 0.0688136 0.767473
1201 2 0.111943 0.0482894 0.778251
1202 4 0.121312 0.0277651 0.789028
2049 4 0.141282 0.0228237 0.791504
1257 4 0.257534 0.0549114 0.755487
1255 2 0.260315 0.0572561 0.780225
1256 4 0.263096 0.0596008 0.804963
840 4 0.262789 0.0792634 0.802812
1113 4 0.379749 0.0529962 0.810272
1111 2 0.382232 0.074545 0.822709
2321 4 0.475328 0.00502089 0.791887
2322 4 0.477426 0.0545574 0.785371
2320 2 0.476377 0.0297891 0.788629
980 4 0.435351 0.0142847 0.826456
846 4 0.484953 0.0745076 0.786859
862 2 0.0444456 0.107379 0.762951
863 4 0.0401566 0.112875 0.786963
832 2 0.0250539 0.104081 0.822109
833 4 0.0295708 0.11828 0.80203
1125 4 0.0218033 0.151763 0.818221
31 1 0.112337 0.142819 0.825522
34 3 0.11985 0.121319 0.82108
32 3 0.0955497 0.148043 0.810688
35 3 0.129416 0.157682 0.82306
838 2 0.270685 0.0981077 0.817225
844 2 0.465126 0.0839695 0.77492
845 4 0.445299 0.0934315 0.76298
850 2 0.0700272 0.185599 0.746509
1073 4 0.0405132 0.244329 0.758356
851 4 0.0903098 0.17328 0.754386
1277 4 0.18659 0.248753 0.76087
1276 2 0.198269 0.250215 0.78293
920 4 0.201888 0.200587 0.827452
1241 4 0.225389 0.242542 0.812505
918 4 0.315818 0.229873 0.745237
1298 4 0.325433 0.212964 0.748178
916 2 0.294457 0.236547 0.756389
1084 2 0.352028 0.172639 0.825549
50 3 0.393201 0.186716 0.780334
1086 4 0.350975 0.179565 0.801546
1299 4 0.351998 0.19225 0.785137
1297 2 0.338716 0.202607 0.766658
1043 4 0.398396 0.23219 0.787929
49 3 0.410444 0.21999 0.776701
46 1 0.412171 0.198405 0.78504
48 3 0.415603 0.199027 0.80798
1145 4 0.48801 0.215008 0.760511
47 3 0.430133 0.188013 0.775113
1022 4 0.428413 0.200605 0.823992