ITEM: TIMESTEP
2930000
ITEM: NUMBER OF ATOMS
4590
ITEM: BOX BOUNDS pp pp pp
-9.9985700000000008e+00 9.9985700000000008e+00
-9.9985700000000008e+00 9.9985700000000008e+00
-9.9985700000000008e+00 9.9985700000000008e+00
ITEM: ATOMS id type xs ys zs
465 4 0.0753372 0.0725975 0.0375229
701 4 0.0917754 0.066971 0.0269632
700 2 0.113748 0.0606125 0.0168652
702 4 0.13572 0.0542539 0.00676713
566 4 0.150277 0.0587551 0.993649
565 2 0.169142 0.0708449 0.00474481
746 4 0.481432 0.051013 0.0376636
2469 4 0.487769 0.0431491 0.055465
745 2 0.473924 0.0552324 0.0141902
463 2 0.0579247 0.0905252 0.0382852
464 4 0.0405121 0.108453 0.0390475
590 4 0.0215829 0.115182 0.0439189
589 2 0.0101325 0.102561 0.0622161
567 4 0.188008 0.0829347 0.0158407
558 4 0.370009 0.130418 0.0435683
556 2 0.366088 0.117354 0.0645237
866 4 0.371117 0.138763 0.0261007
865 2 0.36658 0.163252 0.0283054
827 4 0.383389 0.130932 0.0122148
771 4 0.428627 0.13991 0.0808749
554 4 0.0549071 0.214276 0.0180682
553 2 0.0767996 0.203988 0.0243968
555 4 0.098692 0.1937 0.0307255
835 2 0.130622 0.199985 0.0191057
836 4 0.112763 0.206765 0.0352383
837 4 0.148481 0.193204 0.00297306
461 4 0.323429 0.239338 0.0840645
666 4 0.332698 0.228444 0.0714421
573 4 0.335613 0.247967 0.0711769
664 2 0.342801 0.209018 0.0593692
665 4 0.352904 0.189592 0.0472963
867 4 0.362043 0.187742 0.03051
1070 4 0.43988 0.242155 0.0768737
2808 4 0.0511527 0.293621 0.0233177
2806 2 0.0270161 0.292053 0.0296536
292 2 0.115303 0.325788 0.0713062
293 4 0.1363 0.33683 0.0634084
294 4 0.0943056 0.314747 0.0792039
356 4 0.300698 0.303588 0.0489221
572 4 0.310148 0.286898 0.052831
355 2 0.295908 0.324468 0.0360271
571 2 0.32288 0.267432 0.0620039
647 4 0.0135773 0.358162 0.0794503
646 2 0.0333917 0.344126 0.0854113
620 4 0.00960743 0.377704 0.0800423
507 4 0.15048 0.338897 0.0501711
505 2 0.152755 0.363521 0.0538674
483 4 0.165735 0.395139 0.0423782
481 2 0.187859 0.399909 0.0317498
482 4 0.209983 0.40468 0.0211214
506 4 0.15503 0.388145 0.0575637
357 4 0.291117 0.345347 0.0231321
902 4 0.276212 0.357815 0.0172049
901 2 0.276197 0.374962 0.999007
957 4 0.379356 0.39563 0.014422
671 4 0.48813 0.373275 0.0545718
670 2 0.471783 0.368349 0.0728386
281 4 0.497189 0.390907 0.0526471
550 2 0.0685563 0.44664 0.0763513
552 4 0.0909152 0.457628 0.0742289
1787 4 0.0889784 0.466027 0.0571081
1786 2 0.0968795 0.480547 0.0383486
1788 4 0.104781 0.495067 0.019589
242 4 0.10237 0.47219 0.0702687
609 4 0.226322 0.409729 0.0309929
246 4 0.244448 0.485695 0.028734
244 2 0.232093 0.478502 0.0492468
245 4 0.219737 0.471308 0.0697596
272 4 0.254334 0.488361 0.0118847
627 4 0.207597 0.455387 0.0711387
625 2 0.199024 0.432467 0.0762757
607 2 0.246156 0.424834 0.0329084
1778 4 0.253595 0.502695 0.0248739
608 4 0.265989 0.439938 0.0348239
252 4 0.281851 0.447976 0.026385
250 2 0.302782 0.460253 0.0203586
251 4 0.323713 0.472531 0.0143321
2289 4 0.336438 0.487618 0.0127079
280 2 0.493962 0.415693 0.0532947
525 4 0.448158 0.48624 0.067886
226 2 0.470902 0.473988 0.0478972
227 4 0.481932 0.452602 0.0411018
228 4 0.459873 0.495374 0.0546926
16 1 0.0719113 0.0366623 0.136611
20 3 0.0704056 0.0422986 0.114597
18 3 0.0663777 0.0143086 0.139456
19 3 0.057694 0.0500054 0.14919
380 4 0.0719076 0.0578244 0.161734
17 3 0.0935085 0.039952 0.143814
675 4 0.0907345 0.0510586 0.162071
652 2 0.320141 0.0371208 0.162052
653 4 0.324384 0.0616758 0.159996
1661 4 0.297626 0.00455296 0.161675
654 4 0.315898 0.0125657 0.164109
484 2 0.373803 0.0152823 0.10433
297 4 0.361178 0.0546814 0.117063
485 4 0.363676 0.0380094 0.106801
295 2 0.359912 0.0789512 0.111185
579 4 0.100144 0.140873 0.0907987
237 4 0.141723 0.149965 0.138404
578 4 0.134433 0.159109 0.122301
577 2 0.117289 0.149991 0.10655
235 2 0.157325 0.135228 0.151233
737 4 0.153594 0.158915 0.126138
448 2 0.162504 0.0807765 0.164066
236 4 0.172926 0.12049 0.164061
693 4 0.185806 0.11115 0.15197
449 4 0.168228 0.103572 0.155534
691 2 0.209908 0.113821 0.145877
692 4 0.23401 0.116493 0.139784
582 4 0.249311 0.110606 0.150964
580 2 0.273425 0.11694 0.152851
581 4 0.297539 0.123275 0.154737
30 3 0.307751 0.129261 0.172553
557 4 0.362167 0.104289 0.0854791
296 4 0.358645 0.103221 0.105307
769 2 0.441653 0.152992 0.0977383
770 4 0.454679 0.166073 0.114602
476 4 0.140538 0.169464 0.136911
475 2 0.135902 0.186114 0.154979
736 2 0.169332 0.170038 0.110207
738 4 0.185069 0.181161 0.094277
354 4 0.315353 0.239928 0.139287
283 2 0.326729 0.200441 0.149335
285 4 0.331526 0.176907 0.156287
284 4 0.321933 0.223974 0.142383
462 4 0.3313 0.23589 0.133328
460 2 0.327365 0.237614 0.108696
255 4 0.328504 0.238096 0.150446
352 2 0.295522 0.246793 0.15288
353 4 0.275691 0.253658 0.166474
253 2 0.348412 0.248386 0.161534
1014 4 0.46645 0.180771 0.12628
1013 4 0.465292 0.229581 0.115467
1012 2 0.465871 0.205176 0.120873
648 4 0.0532061 0.330089 0.0913723
456 4 0.0640167 0.321362 0.10636
455 4 0.0545948 0.321921 0.155469
454 2 0.0593057 0.321641 0.130915
749 4 0.0374421 0.325579 0.166108
610 2 0.226142 0.324539 0.117456
612 4 0.228776 0.300202 0.112363
756 4 0.243775 0.296448 0.124867
754 2 0.255769 0.283382 0.142492
755 4 0.267762 0.270316 0.160116
1069 2 0.441744 0.261935 0.0920552
322 2 0.449565 0.321675 0.0898089
1071 4 0.443607 0.281714 0.107237
324 4 0.444063 0.298701 0.0979984
626 4 0.190451 0.409548 0.0814127
536 4 0.194786 0.395964 0.096495
611 4 0.223509 0.348876 0.122549
535 2 0.203262 0.373095 0.102005
537 4 0.211738 0.350226 0.107514
387 4 0.332015 0.41031 0.121387
739 2 0.400379 0.382751 0.108953
740 4 0.393336 0.391116 0.131439
385 2 0.354181 0.403037 0.130386
386 4 0.376346 0.395765 0.139385
495 4 0.392053 0.405678 0.144439
15 3 0.383655 0.377365 0.14114
741 4 0.407422 0.374387 0.0864668
672 4 0.455436 0.363423 0.0911054
323 4 0.455068 0.34465 0.0816194
551 4 0.0461974 0.435651 0.0784738
241 2 0.119743 0.466756 0.0874104
243 4 0.137116 0.461323 0.104552
1440 4 0.150144 0.470746 0.116484
1438 2 0.171322 0.482351 0.110006
1439 4 0.192501 0.493955 0.103527
637 2 0.23307 0.496979 0.116376
639 4 0.208294 0.493653 0.115843
303 4 0.295987 0.469608 0.124715
766 2 0.283741 0.498223 0.134021
768 4 0.303068 0.48284 0.137892
301 2 0.307893 0.447735 0.122476
302 4 0.319799 0.425863 0.120237
524 4 0.418125 0.483612 0.107784
493 2 0.404311 0.427443 0.143347
660 4 0.411706 0.469142 0.140332
494 4 0.416569 0.449209 0.142254
523 2 0.433142 0.484926 0.0878348
658 2 0.42446 0.482052 0.157531
379 2 0.0609931 0.0734393 0.177927
450 4 0.156781 0.0579813 0.172598
673 2 0.114398 0.0564912 0.168046
1505 4 0.144968 0.0447773 0.181237
674 4 0.138062 0.0619238 0.174021
1504 2 0.163709 0.0294343 0.187443
1506 4 0.182451 0.0140912 0.193649
23 3 0.402218 0.0022971 0.235704
632 4 0.400011 0.0547886 0.254017
22 3 0.426399 0.00311248 0.206942
757 2 0.475199 0.0231657 0.225028
25 3 0.438159 0.0120752 0.24121
759 4 0.452915 0.0235866 0.23636
758 4 0.497484 0.0227449 0.213697
512 4 0.0558207 0.105792 0.20373
381 4 0.0500785 0.0890542 0.194121
511 2 0.0628117 0.129788 0.204435
513 4 0.0698027 0.153784 0.205139
339 4 0.0796677 0.172524 0.206448
26 1 0.322678 0.144049 0.181337
28 3 0.313589 0.154289 0.20007
29 3 0.328239 0.160048 0.165478
27 3 0.34175 0.132782 0.187538
311 4 0.458398 0.165707 0.188733
337 2 0.0988299 0.18533 0.196753
477 4 0.131267 0.202765 0.173047
363 4 0.12644 0.216146 0.187057
338 4 0.117992 0.198136 0.187058
362 4 0.146155 0.246386 0.221662
361 2 0.136297 0.231266 0.20436
277 2 0.25137 0.250241 0.194587
279 4 0.24529 0.240685 0.216878
628 2 0.392992 0.224576 0.183826
629 4 0.403497 0.203145 0.191279
630 4 0.382487 0.246007 0.176373
312 4 0.420389 0.196514 0.199072
310 2 0.439394 0.18111 0.193902
761 4 0.485473 0.222139 0.245698
750 4 0.0442319 0.29478 0.204916
395 4 0.0360644 0.285729 0.219755
748 2 0.040837 0.310179 0.185512
394 2 0.0346965 0.284671 0.244699
372 4 0.135528 0.242269 0.238369
300 4 0.104558 0.310713 0.182128
298 2 0.110813 0.327124 0.199924
299 4 0.117069 0.343535 0.217721
734 4 0.123617 0.338701 0.23559
278 4 0.257451 0.259798 0.172296
401 4 0.281894 0.29414 0.228439
498 4 0.276151 0.312361 0.219722
496 2 0.292339 0.325284 0.205718
254 4 0.368321 0.258676 0.172622
765 4 0.384902 0.266049 0.178523
763 2 0.403141 0.278902 0.189806
528 4 0.500668 0.307308 0.18718
764 4 0.42138 0.291755 0.20109
624 4 0.482461 0.312804 0.195028
622 2 0.461701 0.300195 0.200959
623 4 0.44094 0.287586 0.20689
262 2 0.0590238 0.413411 0.215363
263 4 0.0830211 0.406564 0.213803
602 4 0.0798504 0.391809 0.226571
264 4 0.0350265 0.420258 0.216922
601 2 0.094191 0.371602 0.229914
603 4 0.108532 0.351394 0.233257
290 4 0.173559 0.392596 0.190165
497 4 0.308528 0.338207 0.191715
308 4 0.326496 0.342546 0.19952
307 2 0.347744 0.347708 0.187393
309 4 0.368992 0.352871 0.175266
14 3 0.397107 0.402312 0.165926
11 1 0.392465 0.379922 0.161985
13 3 0.37756 0.372 0.177906
12 3 0.41202 0.3679 0.163473
2617 2 0.00115669 0.437032 0.239265
2618 4 0.0189372 0.429608 0.22333
289 2 0.169822 0.41375 0.202961
291 4 0.166084 0.434903 0.215758
416 4 0.176079 0.451578 0.21905
415 2 0.183602 0.470353 0.20435
1430 4 0.206628 0.492756 0.201343
417 4 0.191125 0.489127 0.189649
597 4 0.485875 0.46117 0.20478
596 4 0.451529 0.493313 0.187812
659 4 0.437215 0.494963 0.17473
595 2 0.468702 0.477242 0.196296
1799 4 0.0182776 0.0221107 0.29651
233 4 0.0147145 0.0409469 0.291617
1402 2 0.0535302 0.0409184 0.308688
1403 4 0.0294989 0.0365576 0.303335
1404 4 0.0775616 0.0452792 0.314041
1798 2 0.00930627 0.0079439 0.315058
633 4 0.363905 0.0396412 0.285124
631 2 0.381958 0.0472149 0.26957
257 4 0.36108 0.0471552 0.301975
698 4 0.355552 0.0291578 0.299738
697 2 0.356686 0.00598543 0.309062
256 2 0.367478 0.056877 0.324105
350 4 0.440984 0.0272272 0.251798
349 2 0.444529 0.0303522 0.27635
744 4 0.460083 0.0199978 0.306616
742 2 0.478432 0.0253946 0.32272
351 4 0.448074 0.0334772 0.300903
398 4 0.0704324 0.139502 0.32004
390 4 0.0825788 0.153942 0.325671
393 4 0.0832502 0.146547 0.307611
392 4 0.123431 0.153292 0.278616
391 2 0.103341 0.149919 0.293114
545 4 0.137803 0.151359 0.264586
403 2 0.190869 0.169803 0.316273
404 4 0.203856 0.156486 0.332981
249 4 0.200314 0.137287 0.336996
521 4 0.492855 0.144359 0.262209
444 4 0.0364583 0.230237 0.310796
388 2 0.0692584 0.174154 0.331934
370 2 0.153291 0.250641 0.253846
544 2 0.153206 0.168601 0.274108
371 4 0.171054 0.259013 0.269324
546 4 0.168609 0.185842 0.283631
723 4 0.224629 0.209622 0.259454
721 2 0.205115 0.202522 0.273381
405 4 0.177881 0.18312 0.299565
722 4 0.185601 0.195421 0.287308
376 2 0.308302 0.223615 0.324048
378 4 0.295686 0.24501 0.321172
377 4 0.320917 0.202219 0.326923
420 4 0.392194 0.222459 0.262534
717 4 0.398484 0.239516 0.269214
418 2 0.413701 0.211251 0.268618
331 2 0.447471 0.210317 0.316066
332 4 0.437645 0.206152 0.293454
419 4 0.435208 0.200044 0.274703
760 2 0.468797 0.2154 0.263067
762 4 0.45212 0.208661 0.280436
442 2 0.0332013 0.251768 0.298507
364 2 0.016206 0.308856 0.299868
396 4 0.0333286 0.283614 0.269642
443 4 0.0299443 0.273298 0.286218
365 4 0.0213512 0.290912 0.283233
366 4 0.0110608 0.326799 0.316503
735 4 0.143088 0.318025 0.276749
733 2 0.133353 0.328363 0.25617
677 4 0.161664 0.322074 0.275992
676 2 0.180974 0.32012 0.291754
508 2 0.239955 0.315977 0.293629
509 4 0.219053 0.322684 0.3056
678 4 0.200285 0.318166 0.307517
435 4 0.207796 0.333348 0.317825
510 4 0.260856 0.309269 0.281657
400 2 0.272226 0.2929 0.251464
402 4 0.262557 0.291659 0.274489
345 4 0.265309 0.294737 0.293105
343 2 0.278458 0.280042 0.308478
344 4 0.291608 0.265347 0.323851
715 2 0.38147 0.25611 0.27698
716 4 0.364456 0.272705 0.284747
542 4 0.361445 0.287743 0.297659
541 2 0.374804 0.306232 0.307901
543 4 0.388163 0.32472 0.318142
615 4 0.406416 0.319437 0.325162
751 2 0.492852 0.324329 0.32705
548 4 0.020263 0.343041 0.322405
547 2 0.0260731 0.366953 0.317977
549 4 0.0318831 0.390866 0.313549
777 4 0.048456 0.401659 0.316099
2493 4 0.00143008 0.339981 0.326228
728 4 0.369224 0.374702 0.312268
727 2 0.362333 0.397801 0.318912
2538 4 0.473271 0.340025 0.289648
753 4 0.480199 0.332593 0.30713
2536 2 0.488424 0.358319 0.281843
1543 2 0.150488 0.479686 0.322731
1436 4 0.175363 0.489479 0.295286
1545 4 0.169448 0.473918 0.307486
729 4 0.355442 0.420899 0.325557
437 4 0.370978 0.433083 0.321233
730 2 0.0676863 0.0649817 0.357569
1772 4 0.00515368 0.0319693 0.390124
1771 2 0.000650346 0.0174573 0.370267
2238 4 0.00671688 0.0494284 0.399216
732 4 0.0829126 0.04515 0.357356
369 4 0.0844737 0.0413302 0.37747
367 2 0.0923554 0.0213689 0.3903
606 4 0.152565 0.00607263 0.416909
604 2 0.164469 0.0272699 0.411064
1701 4 0.176655 0.0658015 0.414833
424 2 0.387038 0.0634979 0.377456
425 4 0.392293 0.0467479 0.395261
1580 4 0.387561 0.0311105 0.407415
426 4 0.381783 0.0802479 0.359652
258 4 0.373876 0.0665988 0.346235
1579 2 0.377988 0.00823711 0.410631
743 4 0.496781 0.0307913 0.338825
478 2 0.488064 0.0529956 0.370338
480 4 0.481001 0.0738536 0.382179
397 2 0.0661832 0.118533 0.332979
399 4 0.0619339 0.0975639 0.345918
318 4 0.00245117 0.117155 0.375767
317 4 0.0458218 0.102484 0.355655
731 4 0.0524601 0.0848133 0.357782
316 2 0.0241365 0.109819 0.365711
1699 2 0.187015 0.07994 0.397002
247 2 0.194295 0.116226 0.349055
248 4 0.188275 0.0951662 0.361113
1700 4 0.197375 0.0940785 0.37917
320 4 0.316292 0.125038 0.416223
684 4 0.29707 0.124879 0.417403
319 2 0.329254 0.130913 0.395665
321 4 0.342216 0.136788 0.375106
708 4 0.328024 0.145357 0.364304
516 4 0.471632 0.154117 0.369223
575 4 0.482241 0.139847 0.37911
574 2 0.474802 0.131756 0.401568
389 4 0.0559379 0.194366 0.338197
2654 4 0.999775 0.205729 0.375528
707 4 0.325168 0.183557 0.332159
706 2 0.326596 0.164457 0.348231
466 2 0.354685 0.245191 0.389387
467 4 0.350229 0.228195 0.371597
451 2 0.493809 0.224963 0.349906
333 4 0.457297 0.214482 0.338677
453 4 0.474432 0.209574 0.346317
515 4 0.459218 0.19852 0.349859
514 2 0.465425 0.176319 0.359541
407 4 0.015712 0.329344 0.335368
406 2 0.0193318 0.318382 0.357548
408 4 0.0229516 0.307421 0.379727
275 4 0.141457 0.324869 0.348775
274 2 0.16162 0.313793 0.35857
617 4 0.127748 0.337636 0.341217
276 4 0.181784 0.302717 0.368365
373 2 0.2002 0.277684 0.390079
375 4 0.188634 0.283894 0.368799
473 4 0.228901 0.272798 0.421362
374 4 0.211767 0.271474 0.411358
266 4 0.318445 0.311873 0.416753
267 4 0.356826 0.2819 0.405384
468 4 0.359141 0.262187 0.407177
265 2 0.337635 0.296887 0.411069
613 2 0.422477 0.327423 0.342581
347 4 0.0790121 0.330031 0.380607
346 2 0.0630489 0.340698 0.396625
348 4 0.0470856 0.351365 0.412642
618 4 0.0836876 0.325976 0.361796
616 2 0.105718 0.331806 0.351506
433 2 0.215093 0.333906 0.341734
434 4 0.222389 0.334464 0.365642
504 4 0.271108 0.422465 0.398037
240 4 0.400119 0.413582 0.397547
335 4 0.382319 0.405809 0.398908
334 2 0.359031 0.414188 0.402461
614 4 0.438538 0.33541 0.36
775 2 0.0586101 0.420662 0.328786
776 4 0.0687642 0.439666 0.341472
414 4 0.071781 0.456888 0.350418
1544 4 0.131528 0.485454 0.337977
413 4 0.114002 0.483395 0.346478
412 2 0.0928913 0.470142 0.348448
500 4 0.124119 0.500183 0.34741
502 2 0.294763 0.42172 0.406104
503 4 0.318418 0.420976 0.414172
436 2 0.370338 0.451321 0.338326
669 4 0.328498 0.437757 0.415127
438 4 0.369698 0.469559 0.355418
336 4 0.335743 0.422568 0.406014
592 2 0.39774 0.499568 0.368421
593 4 0.380733 0.485461 0.356719
3990 4 0.486304 0.486339 0.359147
2236 2 0.0187369 0.0576895 0.419525
1127 4 0.0200116 0.0565517 0.453223
2237 4 0.030757 0.0659507 0.439834
720 4 0.0210894 0.0756638 0.453954
1126 2 0.0112849 0.0463958 0.474339
605 4 0.176372 0.0484672 0.405219
341 4 0.192004 0.0314801 0.506399
2428 2 0.227002 0.0257783 0.491875
2430 4 0.205573 0.0385652 0.493452
2429 4 0.248431 0.0129915 0.490298
961 2 0.283802 0.00919465 0.486433
724 2 0.304218 0.0609572 0.480284
725 4 0.307281 0.0394485 0.49266
963 4 0.306181 0.0200616 0.488942
432 4 0.316575 0.0265883 0.5042
2879 4 0.408532 0.0219992 0.47824
642 4 0.454239 0.0647706 0.45069
2878 2 0.426729 0.037599 0.47112
2880 4 0.444926 0.0531989 0.463999
469 2 0.00605509 0.145096 0.475537
470 4 0.0266676 0.134606 0.466036
718 2 0.0307302 0.0985148 0.457127
719 4 0.040371 0.121366 0.4603
939 4 0.0930411 0.152136 0.481617
1033 2 0.128425 0.137823 0.471535
1035 4 0.150448 0.13859 0.459721
261 4 0.160833 0.155302 0.458154
1034 4 0.106402 0.137056 0.48335
682 2 0.277057 0.139388 0.421164
683 4 0.257045 0.153897 0.424924
726 4 0.301156 0.0824659 0.467907
1181 4 0.307557 0.124902 0.434188
1182 4 0.310251 0.098187 0.476375
1180 2 0.308904 0.111545 0.455282
576 4 0.467363 0.123665 0.424027
640 2 0.463087 0.0870038 0.443439
641 4 0.471935 0.109237 0.436188
306 4 0.475504 0.128064 0.440765
304 2 0.472007 0.140804 0.461994
3158 4 0.453534 0.158591 0.495118
305 4 0.46851 0.153543 0.483222
694 2 0.173106 0.237545 0.479129
696 4 0.164527 0.257732 0.491132
259 2 0.169547 0.177287 0.466272
695 4 0.181686 0.217359 0.467126
260 4 0.178262 0.199272 0.47439
472 2 0.238407 0.251002 0.429093
687 4 0.238978 0.218185 0.447286
686 4 0.194437 0.202706 0.463938
685 2 0.216708 0.210446 0.455612
474 4 0.247913 0.229206 0.436823
600 4 0.258528 0.169612 0.41334
489 4 0.310907 0.240791 0.424956
599 4 0.252944 0.212472 0.438491
411 4 0.255081 0.223534 0.451795
598 2 0.255736 0.191042 0.425916
409 2 0.261558 0.227608 0.475599
488 4 0.265038 0.225112 0.437242
487 2 0.287972 0.232951 0.431099
410 4 0.268036 0.231681 0.499403
2812 2 0.0131759 0.339054 0.434524
2813 4 0.0325968 0.351756 0.425216
326 4 0.0490078 0.361861 0.429488
325 2 0.0568523 0.377899 0.446992
327 4 0.0646969 0.393937 0.464497
7 3 0.0816686 0.386209 0.471916
6 1 0.103474 0.38155 0.47757
8 3 0.113882 0.401216 0.484152
709 2 0.148513 0.410734 0.491292
10 3 0.114193 0.372755 0.459503
710 4 0.17287 0.409981 0.485695
813 4 0.286273 0.348705 0.483864
927 4 0.416318 0.375312 0.509518
679 2 0.0722379 0.458181 0.487902
680 4 0.0709566 0.475332 0.469753
1383 4 0.0710364 0.486286 0.452054
635 4 0.183768 0.420662 0.473961
636 4 0.188299 0.444296 0.430125
634 2 0.186033 0.432479 0.452043
774 4 0.186055 0.421844 0.493461
5 3 0.284919 0.504009 0.443061
4 3 0.320331 0.491264 0.444154
667 2 0.332101 0.460728 0.42432
668 4 0.335704 0.4837 0.433513
239 4 0.42394 0.429508 0.43853
587 4 0.407144 0.432688 0.495805
588 4 0.413186 0.444283 0.447537
586 2 0.410165 0.438486 0.471671
238 2 0.412029 0.421545 0.418038
1184 4 0.0151748 0.00631642 0.551014
3077 4 0.0183076 0.0262709 0.55021
3076 2 0.0108697 0.0383684 0.529631
3078 4 0.00343173 0.0504658 0.509051
1128 4 0.00255815 0.03624 0.495454
1152 4 0.132119 0.0624939 0.517905
1150 2 0.13375 0.0721878 0.540895
1151 4 0.135382 0.0818817 0.563885
1059 4 0.151329 0.0767156 0.573974
342 4 0.152159 0.0592831 0.518234
340 2 0.172082 0.0453816 0.512316
430 2 0.33429 0.0202261 0.520659
841 2 0.370939 0.0249955 0.563825
842 4 0.389357 0.0399381 0.57174
1217 4 0.408598 0.0412337 0.56652
843 4 0.35252 0.0100529 0.555911
431 4 0.352005 0.013864 0.537117
1216 2 0.424805 0.0229705 0.561136
1061 4 0.493534 0.0692574 0.521336
1218 4 0.441012 0.00470728 0.555753
879 4 0.0516718 0.16464 0.520951
877 2 0.029409 0.154746 0.526577
878 4 0.00714612 0.144852 0.532203
938 4 0.0697132 0.172662 0.520799
937 2 0.0813772 0.162399 0.501208
1155 4 0.144065 0.0945064 0.574533
1154 4 0.151758 0.143801 0.571135
1153 2 0.147912 0.119154 0.572834
3159 4 0.449285 0.121907 0.528837
3157 2 0.451409 0.140249 0.511977
1062 4 0.465641 0.110584 0.52518
1060 2 0.479587 0.0899208 0.523258
1272 4 0.0574942 0.177384 0.534504
1270 2 0.0721676 0.1808 0.554459
1271 4 0.086841 0.184217 0.574414
1258 2 0.146112 0.250981 0.531043
1259 4 0.135564 0.254035 0.553506
1260 4 0.15666 0.247927 0.50858
898 2 0.292091 0.219109 0.535261
899 4 0.304199 0.212455 0.556101
857 4 0.319914 0.204334 0.564073
791 4 0.32224 0.221829 0.55737
900 4 0.279982 0.225763 0.514421
790 2 0.340628 0.238772 0.557324
792 4 0.359015 0.255715 0.557278
872 4 0.364574 0.266353 0.54212
1238 4 0.370534 0.271032 0.55987
871 2 0.381521 0.27024 0.524151
873 4 0.398467 0.274127 0.506182
1237 2 0.36559 0.28472 0.580201
807 4 0.341262 0.305605 0.594455
1135 2 0.128689 0.356175 0.575998
1136 4 0.121362 0.332317 0.574485
711 4 0.124155 0.411487 0.496889
9 3 0.103594 0.366291 0.49505
773 4 0.216097 0.409625 0.531526
1189 2 0.214597 0.415031 0.565771
1190 4 0.229434 0.411366 0.545983
803 4 0.228735 0.395126 0.53494
802 2 0.235188 0.370981 0.534219
804 4 0.241642 0.346835 0.533497
930 4 0.23485 0.412149 0.527369
651 4 0.295741 0.332169 0.57431
649 2 0.276157 0.335731 0.559178
650 4 0.256573 0.339292 0.544047
812 4 0.25865 0.342776 0.525126
811 2 0.272461 0.34574 0.504495
925 2 0.410108 0.399491 0.510927
539 4 0.0746686 0.50684 0.519862
383 4 0.0783823 0.430798 0.52359
681 4 0.0735191 0.44103 0.50605
382 2 0.102482 0.426444 0.518547
569 4 0.139277 0.433297 0.522303
568 2 0.157078 0.449554 0.52894
384 4 0.126582 0.42209 0.513505
772 2 0.201076 0.415735 0.512494
570 4 0.174878 0.465811 0.535576
928 2 0.258993 0.417982 0.530246
929 4 0.283136 0.423815 0.533123
1951 2 0.291776 0.467979 0.533287
1953 4 0.291008 0.443017 0.532072
1952 4 0.292545 0.492941 0.534501
926 4 0.403898 0.42367 0.512335
663 4 0.403284 0.442861 0.512462
661 2 0.412888 0.460118 0.527796
1001 4 0.422694 0.49016 0.55689
662 4 0.422492 0.477375 0.54313
1911 4 0.432404 0.473641 0.559353
1332 4 0.438698 0.487759 0.547096
1909 2 0.431337 0.462386 0.581655
2374 2 0.141204 0.0109455 0.608532
2375 4 0.152106 0.0334271 0.607585
1057 2 0.155972 0.0631423 0.594453
1058 4 0.160615 0.049569 0.614932
950 4 0.26 0.0182167 0.601418
2400 4 0.322619 0.017632 0.628855
949 2 0.265827 0.0374988 0.616231
951 4 0.271655 0.0567808 0.631044
1031 4 0.289149 0.0536447 0.640725
1030 2 0.303869 0.0472018 0.659882
808 2 0.491622 0.0785199 0.640281
43 3 0.439584 0.0518235 0.660562
1221 4 0.156672 0.15483 0.587804
1219 2 0.178178 0.164499 0.596121
809 4 0.499908 0.0839545 0.617325
1244 4 0.0860329 0.186569 0.593867
1245 4 0.108732 0.171756 0.635891
1243 2 0.0973825 0.179163 0.614879
1209 4 0.104249 0.184336 0.649683
1210 2 0.233872 0.178304 0.632383
1212 4 0.215362 0.176396 0.615681
1220 4 0.199684 0.174169 0.604438
797 4 0.204121 0.237167 0.585558
796 2 0.207315 0.214086 0.594626
798 4 0.210509 0.191004 0.603694
1211 4 0.252381 0.180212 0.649084
856 2 0.313239 0.192743 0.585198
858 4 0.306565 0.181152 0.606323
888 4 0.248561 0.173285 0.668252
3121 2 0.480892 0.223425 0.635434
3122 4 0.47779 0.199831 0.643109
3357 4 0.486912 0.181797 0.645923
3123 4 0.483995 0.247018 0.627759
983 4 0.0109662 0.318826 0.61614
982 2 0.0236571 0.327658 0.635789
3263 4 0.0520322 0.325707 0.661553
806 4 0.299379 0.332902 0.593279
805 2 0.320321 0.319253 0.593867
1239 4 0.360645 0.298409 0.600532
906 4 0.450424 0.302019 0.614995
905 4 0.465331 0.255085 0.623697
904 2 0.457878 0.278552 0.619346
953 4 0.466763 0.313299 0.613121
952 2 0.483174 0.328331 0.601723
984 4 0.036348 0.336491 0.655439
1041 4 0.0544556 0.344319 0.657254
1039 2 0.0624504 0.366195 0.64816
1040 4 0.0704453 0.38807 0.639065
993 4 0.066557 0.39698 0.621884
991 2 0.0533929 0.418106 0.619522
1137 4 0.136016 0.380033 0.577511
897 4 0.145851 0.394485 0.587782
895 2 0.169699 0.399865 0.593025
896 4 0.193547 0.405245 0.598268
1028 4 0.20258 0.392923 0.661409
1027 2 0.200454 0.402576 0.638442
1029 4 0.198329 0.412229 0.615475
954 4 0.499585 0.343363 0.590326
1206 4 0.483522 0.415881 0.625703
3309 4 0.496911 0.407257 0.614652
3307 2 0.500789 0.383924 0.606545
992 4 0.0402288 0.439232 0.617161
1191 4 0.199759 0.418696 0.58556
1172 4 0.190533 0.423964 0.602494
1160 4 0.187397 0.488896 0.605991
1171 2 0.192637 0.448236 0.60812
1173 4 0.19474 0.472507 0.613746
1187 4 0.188803 0.487424 0.625699
1186 2 0.181979 0.489668 0.649649
1268 4 0.444657 0.49139 0.655612
1267 2 0.437771 0.474107 0.638907
1204 2 0.46243 0.428498 0.621106
1910 4 0.43027 0.45113 0.603956
1269 4 0.430884 0.456824 0.622203
1205 4 0.441338 0.441114 0.61651
2168 4 0.463753 0.495344 0.65054
1284 4 0.0962966 0.0522101 0.725725
1282 2 0.114682 0.0669086 0.717292
2047 2 0.144199 0.0236157 0.743585
2049 4 0.167936 0.0245705 0.735788
1225 2 0.166759 0.083236 0.70142
1201 2 0.190009 0.0360233 0.716315
1202 4 0.181773 0.0147319 0.726514
1203 4 0.198245 0.0573146 0.706115
1226 4 0.189561 0.0747263 0.70715
1148 4 0.208691 0.0736636 0.709025
1147 2 0.216721 0.0800319 0.731831
2256 4 0.178752 0.0107488 0.744527
1032 4 0.31859 0.0407589 0.679038
810 4 0.483336 0.0730853 0.663238
45 3 0.456465 0.0330451 0.688492
41 1 0.451653 0.0537376 0.680287
1163 4 0.489543 0.0702303 0.681633
44 3 0.471286 0.0654954 0.676452
42 3 0.438987 0.0652303 0.69567
3426 4 0.477283 0.0844779 0.677425
844 2 0.445691 0.0838386 0.757141
1077 4 0.0363134 0.116895 0.727965
1075 2 0.0140323 0.107216 0.722044
864 4 0.0408702 0.127665 0.745175
850 2 0.0733225 0.160099 0.711268
852 4 0.0487432 0.162015 0.715435
909 4 0.110944 0.143663 0.705606
907 2 0.122924 0.121907 0.708498
908 4 0.134904 0.100152 0.711391
1283 4 0.133067 0.0816071 0.708859
1227 4 0.143957 0.0917457 0.69569
851 4 0.0979019 0.158182 0.707101
1208 4 0.11006 0.158927 0.69236
1107 4 0.115897 0.161764 0.71036
1149 4 0.224751 0.0864002 0.754638
829 2 0.323062 0.146901 0.704712
830 4 0.302712 0.161178 0.707393
831 4 0.343413 0.132624 0.702031
1142 4 0.355569 0.14769 0.704429
1141 2 0.378735 0.155887 0.709045
1143 4 0.401902 0.164084 0.713661
1025 4 0.458461 0.129421 0.713188
3424 2 0.475923 0.106124 0.689866
3425 4 0.474563 0.12777 0.702307
3269 4 0.47605 0.128511 0.722039
1024 2 0.439829 0.145976 0.711189
3268 2 0.486874 0.139036 0.741971
1026 4 0.421198 0.16253 0.70919
845 4 0.451298 0.103965 0.743405
1214 4 0.0437444 0.181045 0.714306
1213 2 0.0202764 0.187755 0.719729
1207 2 0.107155 0.171631 0.671022
1105 2 0.131875 0.174866 0.72444
1106 4 0.147852 0.187967 0.73852
1130 4 0.167122 0.195131 0.737428
887 4 0.290176 0.171483 0.695922
978 4 0.289805 0.173492 0.71552
886 2 0.269369 0.172384 0.682087
976 2 0.297835 0.184635 0.736413
916 2 0.312249 0.237154 0.750157
1262 4 0.414575 0.173656 0.723736
1192 2 0.41837 0.197384 0.689728
1194 4 0.411474 0.178745 0.7049
1193 4 0.425267 0.216024 0.674556
1261 2 0.422627 0.184347 0.744856
1044 4 0.471171 0.243088 0.745665
3262 2 0.0627634 0.319546 0.683281
3264 4 0.0734945 0.313386 0.705008
893 4 0.0716854 0.315869 0.724393
779 4 0.0813954 0.300584 0.716674
778 2 0.105744 0.295127 0.718271
780 4 0.130092 0.289669 0.719868
1064 4 0.268049 0.307615 0.702785
1063 2 0.248285 0.321151 0.69562
947 4 0.319046 0.273512 0.72769
946 2 0.301951 0.290109 0.720109
948 4 0.284855 0.306706 0.712528
917 4 0.320267 0.259424 0.742098
1008 4 0.44771 0.283207 0.712627
1006 2 0.465192 0.269865 0.724524
1007 4 0.482674 0.256523 0.736422
1166 4 0.477474 0.259217 0.75532
892 2 0.0725363 0.333302 0.742296
941 4 0.154431 0.395505 0.725625
1067 4 0.168547 0.385753 0.714701
940 2 0.143395 0.393452 0.747967
1066 2 0.18226 0.394308 0.695624
1068 4 0.195974 0.402863 0.676547
1065 4 0.22852 0.334687 0.688456
1019 4 0.388148 0.41271 0.7455
1230 4 0.372695 0.416541 0.735276
884 4 0.0400267 0.458749 0.743062
1176 4 0.134286 0.473795 0.716435
1174 2 0.146233 0.477552 0.694794
1175 4 0.158179 0.481309 0.673153
1188 4 0.175156 0.491912 0.673598
1139 4 0.329787 0.477964 0.675591
1138 2 0.322536 0.461845 0.693276
1140 4 0.315285 0.445725 0.710962
1989 4 0.316578 0.445086 0.72987
1229 4 0.331546 0.438814 0.717629
1100 4 0.389962 0.424739 0.729888
1228 2 0.352121 0.427677 0.726452
1099 2 0.406669 0.442349 0.723894
1101 4 0.423377 0.459959 0.7179
3330 4 0.438797 0.47006 0.713965
3328 2 0.4577 0.45498 0.707604
1251 4 0.42827 0.475507 0.729603
3329 4 0.476603 0.439901 0.701244
1249 2 0.435928 0.497151 0.739507
834 4 0.0382589 0.0644339 0.815655
785 4 0.0180171 0.0669559 0.819661
832 2 0.0530466 0.0835764 0.809325
2048 4 0.120461 0.0226608 0.751383
2390 4 0.121524 0.00921376 0.765861
1113 4 0.38563 0.0786406 0.777651
2321 4 0.450835 0.004358 0.801749
2322 4 0.448824 0.0499326 0.781264
2320 2 0.449829 0.0271453 0.791506
846 4 0.440085 0.0637123 0.770877
862 2 0.0501685 0.120294 0.767183
863 4 0.0594667 0.112923 0.789192
833 4 0.0678342 0.102719 0.802994
1125 4 0.0574071 0.118701 0.807574
1123 2 0.0634765 0.140279 0.818651
1124 4 0.0695459 0.161858 0.829728
911 4 0.141499 0.10145 0.824658
1257 4 0.221637 0.0955419 0.7712
1255 2 0.218157 0.117179 0.783239
921 4 0.202983 0.136344 0.811531
919 2 0.187458 0.152617 0.822456
840 4 0.222549 0.135352 0.812621
1256 4 0.214677 0.138815 0.795277
838 2 0.241977 0.143448 0.82612
1111 2 0.379303 0.0906 0.798677
1112 4 0.372975 0.10256 0.819704
818 4 0.374982 0.105302 0.83914
3270 4 0.497698 0.149561 0.761902
1146 4 0.488492 0.164324 0.771114
34 3 0.118055 0.178088 0.823048
1277 4 0.152505 0.220623 0.799215
1276 2 0.158266 0.203665 0.816663
920 4 0.171933 0.16889 0.83338
1129 2 0.165229 0.204289 0.760617
1131 4 0.163335 0.213447 0.783806
822 4 0.166251 0.230912 0.790488
977 4 0.305865 0.195779 0.757306
918 4 0.304231 0.214884 0.758215
1298 4 0.319873 0.207015 0.765399
1297 2 0.32437 0.196784 0.787766
1299 4 0.328867 0.186553 0.810133
1086 4 0.336822 0.193625 0.827008
50 3 0.401245 0.207594 0.793273
46 1 0.423568 0.20316 0.794084
49 3 0.435479 0.220758 0.784764
1043 4 0.44414 0.20801 0.768893
48 3 0.430195 0.199879 0.816078
47 3 0.427936 0.184036 0.782069
1263 4 0.430679 0.195038 0.765975
1145 4 0.445947 0.189911 0.777109
1144 2 0.467219 0.177118 0.774112
1042 2 0.457655 0.225549 0.757279
1022 4 0.444623 0.194784 0.828035
3187 2 0.00540721 0.278257 0.769523
3189 4 0.0207841 0.297073 0.775413
821 4 0.169245 0.28037 0.797241
820 2 0.167748 0.255641 0.793865
1236 4 0.227005 0.301034 0.773341
1234 2 0.233506 0.314073 0.793661
1098 4 0.257673 0.33028 0.823986
1165 2 0.491107 0.267868 0.774411
3275 4 0.0136724 0.360512 0.773419
894 4 0.0733872 0.350735 0.7602
3276 4 0.0630967 0.365846 0.767988
3274 2 0.0383845 0.363179 0.770703
816 4 0.0759215 0.355232 0.779018
814 2 0.0982481 0.366482 0.778659
942 4 0.13236 0.391399 0.77031
815 4 0.120575 0.377732 0.778299
1080 4 0.138292 0.380824 0.785259
1078 2 0.139237 0.392603 0.807294
1079 4 0.140181 0.404383 0.829329
1235 4 0.240006 0.327113 0.813981