ITEM: TIMESTEP
310000
ITEM: NUMBER OF ATOMS
4590
ITEM: BOX BOUNDS pp pp pp
-9.9985700000000008e+00 9.9985700000000008e+00
-9.9985700000000008e+00 9.9985700000000008e+00
-9.9985700000000008e+00 9.9985700000000008e+00
ITEM: ATOMS id type xs ys zs
463 2 0.0298754 0.0561372 0.0423674
465 4 0.0211533 0.0790738 0.0375698
464 4 0.0385974 0.0332006 0.047165
1667 4 0.0686089 0.0208331 0.0688093
701 4 0.0633053 0.0728033 0.0380855
1666 2 0.0900403 0.0176352 0.0812852
534 4 0.193446 0.0758359 0.0137839
1476 4 0.23357 0.997657 0.0416648
490 2 0.27355 0.0410078 0.0387173
491 4 0.284305 0.0601802 0.026804
492 4 0.262795 0.0218353 0.0506307
296 4 0.37917 0.058189 0.0626251
557 4 0.388263 0.075017 0.0547188
295 2 0.369867 0.0432381 0.0803762
1608 4 0.397249 0.0127873 0.0328399
745 2 0.457564 0.0680834 0.0371028
746 4 0.454144 0.0773043 0.0600909
747 4 0.460985 0.0588626 0.0141147
589 2 0.0219453 0.121416 0.0702577
590 4 0.0105928 0.135011 0.0526093
3233 4 0.00400922 0.122977 0.00440787
702 4 0.111915 0.0834901 0.0429396
700 2 0.0876104 0.0781467 0.0405125
566 4 0.161199 0.103242 0.0405603
423 4 0.0901921 0.120303 0.00184248
565 2 0.184747 0.111309 0.0429224
567 4 0.208296 0.119375 0.0452845
358 2 0.282278 0.116894 0.014392
360 4 0.293705 0.117736 0.0366162
556 2 0.374032 0.094763 0.060443
558 4 0.359802 0.114509 0.0661671
553 2 0.045741 0.222552 0.0121002
554 4 0.0311535 0.233204 0.0293896
666 4 0.311881 0.215252 0.0187157
664 2 0.332009 0.203388 0.00980997
461 4 0.33056 0.232844 0.0834886
572 4 0.342847 0.26074 0.0529611
324 4 0.401919 0.253276 0.0580097
322 2 0.417358 0.244377 0.075549
665 4 0.352136 0.191524 0.000904285
771 4 0.464456 0.184101 0.0807753
770 4 0.476903 0.173364 0.0335472
769 2 0.470679 0.178733 0.0571613
1012 2 0.478862 0.193611 0.00413179
1014 4 0.454886 0.19356 0.0112259
292 2 0.126625 0.315106 0.0271678
294 4 0.103974 0.314528 0.0165943
293 4 0.149275 0.315685 0.0377413
507 4 0.158264 0.30084 0.0469236
506 4 0.184177 0.259429 0.0362323
483 4 0.217298 0.297867 0.0811695
505 2 0.171221 0.280134 0.0415779
481 2 0.23661 0.313731 0.0804368
357 4 0.228759 0.276202 0.0182047
355 2 0.23544 0.256808 0.00390759
571 2 0.318982 0.256427 0.0468725
573 4 0.295118 0.252114 0.0407839
482 4 0.255923 0.329595 0.0797042
1071 4 0.386574 0.238074 0.0199907
1069 2 0.404328 0.255644 0.0188713
1070 4 0.422083 0.273214 0.017752
281 4 0.46353 0.340184 0.0437158
330 4 0.0245852 0.394697 0.0606507
328 2 0.0152794 0.386028 0.0391234
329 4 0.00597358 0.377359 0.0175961
455 4 0.100558 0.353447 0.0841261
286 2 0.163612 0.38665 0.0143106
287 4 0.160292 0.362115 0.0178004
288 4 0.166932 0.411186 0.0108208
252 4 0.298919 0.389091 0.0605903
250 2 0.280651 0.394428 0.0443743
251 4 0.262382 0.399764 0.0281582
608 4 0.310531 0.391682 0.0766932
280 2 0.477614 0.339967 0.0230573
671 4 0.450764 0.330528 0.056701
670 2 0.45188 0.339293 0.0800911
282 4 0.491697 0.339751 0.00239874
550 2 0.0807971 0.431691 0.0369263
551 4 0.0566962 0.43824 0.0357309
552 4 0.104898 0.425142 0.0381217
242 4 0.131507 0.502985 0.066127
1786 2 0.0976775 0.50155 0.0775097
1787 4 0.115032 0.491209 0.0627765
245 4 0.222174 0.455143 0.0631313
244 2 0.241946 0.462264 0.0495826
627 4 0.213225 0.437933 0.0699096
246 4 0.261717 0.469384 0.0360339
272 4 0.272032 0.477553 0.020675
271 2 0.293729 0.472858 0.00917013
273 4 0.315426 0.468162 0.997665
524 4 0.342525 0.469417 0.0712522
227 4 0.480993 0.460211 0.061648
562 2 0.448241 0.497199 0.0146316
563 4 0.467666 0.487562 0.00218244
226 2 0.502276 0.46868 0.0516236
19 3 0.0296745 0.0735471 0.165851
20 3 0.0640168 0.0609624 0.156914
1668 4 0.111472 0.0144374 0.0937612
450 4 0.155622 0.0603587 0.139881
448 2 0.168317 0.0806354 0.147152
652 2 0.299612 0.0380363 0.148508
653 4 0.30506 0.0437527 0.124784
654 4 0.294164 0.0323199 0.172232
297 4 0.360564 0.0282872 0.0981273
758 4 0.413155 0.0672723 0.166961
1760 4 0.488872 0.00517025 0.139612
2744 4 0.493618 0.011463 0.158246
2724 4 0.496958 0.0290303 0.14956
591 4 0.0332978 0.10782 0.0879061
380 4 0.0101805 0.131153 0.144282
237 4 0.186258 0.15976 0.154809
449 4 0.181013 0.100912 0.154422
235 2 0.177427 0.136928 0.159894
236 4 0.168595 0.114096 0.16498
693 4 0.20089 0.105955 0.154153
582 4 0.285394 0.090592 0.161142
339 4 0.0447207 0.246394 0.142032
476 4 0.142571 0.187497 0.116303
475 2 0.12015 0.193557 0.125563
477 4 0.0977288 0.199618 0.134823
737 4 0.183598 0.209213 0.110146
736 2 0.204598 0.199789 0.100381
738 4 0.225599 0.190366 0.0906165
354 4 0.275991 0.213109 0.115871
352 2 0.27323 0.237944 0.114977
285 4 0.272274 0.188754 0.15137
460 2 0.34098 0.211677 0.0917674
255 4 0.358825 0.171863 0.103258
462 4 0.351401 0.19051 0.100046
630 4 0.414075 0.184959 0.101714
254 4 0.405849 0.175667 0.0866759
253 2 0.382337 0.173765 0.0949671
629 4 0.450554 0.169396 0.132173
628 2 0.432315 0.177178 0.116944
517 2 0.493356 0.248845 0.0955035
518 4 0.494782 0.223935 0.0971258
323 4 0.432797 0.235479 0.0930883
620 4 0.0183757 0.329923 0.147439
337 2 0.0654276 0.250604 0.1554
338 4 0.0861345 0.254813 0.168767
277 2 0.244106 0.278526 0.161185
353 4 0.27047 0.262778 0.114083
754 2 0.275375 0.293814 0.112856
755 4 0.274955 0.273388 0.0984427
756 4 0.275795 0.314241 0.12727
278 4 0.266525 0.277323 0.150178
612 4 0.286956 0.329742 0.135615
741 4 0.344734 0.307496 0.0936241
622 2 0.392153 0.272229 0.157828
739 2 0.348093 0.329756 0.104504
623 4 0.369946 0.2665 0.147868
624 4 0.41436 0.277959 0.167788
519 4 0.491931 0.273755 0.0938812
621 4 0.012611 0.342456 0.0993721
619 2 0.0154934 0.336189 0.123406
647 4 0.0528018 0.370906 0.138732
646 2 0.0738193 0.363055 0.149769
454 2 0.116641 0.361103 0.101674
456 4 0.132724 0.368759 0.119221
537 4 0.171025 0.348741 0.124712
535 2 0.190037 0.355043 0.139678
626 4 0.221634 0.413256 0.112584
536 4 0.209049 0.361345 0.154645
609 4 0.312201 0.350873 0.105546
607 2 0.311366 0.371277 0.0911198
610 2 0.269928 0.343822 0.147318
611 4 0.2529 0.357902 0.159021
740 4 0.351452 0.352016 0.115384
387 4 0.330025 0.386841 0.152511
15 3 0.379179 0.353493 0.130542
385 2 0.347168 0.375469 0.138299
386 4 0.364311 0.364097 0.124088
11 1 0.400764 0.360151 0.133445
13 3 0.40676 0.358064 0.155763
14 3 0.40324 0.382185 0.126604
672 4 0.452996 0.348059 0.103481
12 3 0.414574 0.346829 0.120757
495 4 0.422224 0.387837 0.132654
493 2 0.423037 0.412796 0.131413
595 2 0.48544 0.409762 0.156854
597 4 0.466393 0.393724 0.159133
1467 4 0.020334 0.487985 0.124271
313 2 0.996179 0.449753 0.0778863
314 4 0.996668 0.473159 0.0691068
625 2 0.217429 0.425595 0.0912467
637 2 0.253234 0.491788 0.124579
638 4 0.261205 0.476818 0.142951
525 4 0.341629 0.486692 0.118172
523 2 0.342077 0.478055 0.0947122
658 2 0.39744 0.469089 0.147831
659 4 0.382094 0.486302 0.157494
660 4 0.412785 0.451875 0.138167
494 4 0.42385 0.437756 0.130172
16 1 0.0485656 0.0625058 0.173573
17 3 0.0574948 0.0744186 0.191109
18 3 0.0428433 0.0412995 0.181053
673 2 0.129629 0.0508005 0.218266
674 4 0.145368 0.0702077 0.219188
675 4 0.113891 0.0313933 0.217344
1505 4 0.23704 0.0509367 0.171989
1504 2 0.229291 0.027213 0.170466
688 2 0.186823 0.997998 0.241234
21 1 0.376478 0.0458012 0.238717
24 3 0.353891 0.0506277 0.236501
25 3 0.385725 0.0423023 0.218201
759 4 0.404169 0.0452458 0.210947
757 2 0.408662 0.0562591 0.188954
742 2 0.478152 0.0511784 0.233972
743 4 0.495821 0.0683129 0.238377
744 4 0.460484 0.034044 0.229567
379 2 0.0158848 0.138225 0.167576
381 4 0.0215891 0.145297 0.190871
511 2 0.0416453 0.140958 0.228467
512 4 0.0294612 0.136928 0.207008
579 4 0.0799625 0.105741 0.195401
577 2 0.0916112 0.127306 0.200346
578 4 0.10326 0.148871 0.20529
692 4 0.2315 0.0930194 0.191522
723 4 0.204896 0.104834 0.238642
691 2 0.216195 0.0994871 0.172838
721 2 0.18992 0.12425 0.243528
722 4 0.174944 0.143667 0.248415
580 2 0.289532 0.0997826 0.184024
581 4 0.29367 0.108973 0.206906
30 3 0.311061 0.11135 0.212569
26 1 0.310735 0.107559 0.235023
28 3 0.290687 0.0975682 0.241076
27 3 0.328044 0.0934629 0.240579
29 3 0.313388 0.127568 0.24647
312 4 0.420577 0.123209 0.175038
333 4 0.428907 0.139883 0.244255
310 2 0.437668 0.1215 0.193208
311 4 0.454759 0.119791 0.211378
362 4 0.138246 0.241781 0.202988
284 4 0.261414 0.229767 0.17784
283 2 0.266844 0.20926 0.164605
764 4 0.368165 0.209261 0.191001
763 2 0.38586 0.220586 0.20456
765 4 0.403554 0.23191 0.218119
522 4 0.505056 0.207488 0.252075
528 4 0.470741 0.250287 0.209756
395 4 0.0482823 0.272531 0.221108
394 2 0.0281799 0.272399 0.235976
750 4 0.0846212 0.298435 0.227266
363 4 0.0992405 0.263924 0.180875
361 2 0.118743 0.252853 0.191931
372 4 0.152286 0.253593 0.210744
748 2 0.0938535 0.279889 0.241265
370 2 0.17703 0.254555 0.2142
371 4 0.201775 0.255517 0.217657
279 4 0.221688 0.279729 0.172192
343 2 0.250992 0.274452 0.250981
344 4 0.252738 0.261298 0.229789
307 2 0.325514 0.270233 0.211944
309 4 0.318473 0.282052 0.191065
308 4 0.332555 0.258415 0.232823
527 4 0.474054 0.278152 0.168364
526 2 0.472397 0.264219 0.18906
300 4 0.114078 0.337019 0.222788
648 4 0.0948369 0.355205 0.160806
298 2 0.130006 0.353519 0.232749
299 4 0.145934 0.370019 0.242711
303 4 0.340049 0.408058 0.217967
302 4 0.333225 0.387677 0.172814
301 2 0.336637 0.397868 0.195391
643 2 0.453617 0.37626 0.193754
644 4 0.453196 0.371191 0.218235
645 4 0.454038 0.38133 0.169274
447 4 0.466713 0.358864 0.226651
108 3 0.491986 0.407017 0.225518
445 2 0.473376 0.36913 0.248455
263 4 0.0705862 0.455283 0.210576
262 2 0.0484341 0.449796 0.220791
264 4 0.026282 0.444309 0.231007
417 4 0.135097 0.447279 0.211539
415 2 0.158612 0.439985 0.207178
1430 4 0.174968 0.487445 0.200874
416 4 0.182127 0.432691 0.202818
291 4 0.197034 0.422662 0.193698
289 2 0.21746 0.419795 0.207831
290 4 0.237886 0.416927 0.221963
768 4 0.241524 0.48324 0.199269
766 2 0.256206 0.477691 0.179805
767 4 0.270887 0.472141 0.160342
229 2 0.40662 0.495613 0.209971
231 4 0.416776 0.481559 0.191957
232 2 0.0215257 0.0432197 0.286505
233 4 0.0366897 0.0286903 0.300074
1402 2 0.0698754 0.00663891 0.281711
1403 4 0.0513516 0.0153644 0.296061
234 4 0.00636178 0.0577492 0.272935
318 4 0.0288459 0.0799328 0.321843
731 4 0.109634 0.0685318 0.317907
690 4 0.17183 2.56298e-05 0.26114
1699 2 0.24833 0.0302887 0.307055
1700 4 0.25481 0.0388412 0.284471
23 3 0.379291 0.0269739 0.251984
22 3 0.386939 0.0636349 0.248801
633 4 0.383478 0.0824398 0.332968
478 2 0.480307 0.0542862 0.324205
480 4 0.470607 0.0313408 0.326352
351 4 0.446464 0.0520159 0.273732
349 2 0.443228 0.0747007 0.283738
479 4 0.490006 0.0772315 0.322057
513 4 0.0538294 0.144987 0.249926
530 4 0.0110364 0.116659 0.272477
398 4 0.0525256 0.12428 0.309807
397 2 0.0757069 0.118776 0.31739
399 4 0.0988883 0.113271 0.324974
546 4 0.166966 0.147436 0.266472
248 4 0.234677 0.0862874 0.297586
249 4 0.230042 0.135632 0.304244
247 2 0.23236 0.11096 0.300915
403 2 0.22499 0.168981 0.295386
600 4 0.194068 0.126151 0.340916
404 4 0.22029 0.144917 0.290484
632 4 0.3613 0.109186 0.297003
631 2 0.372389 0.0958128 0.314985
331 2 0.441991 0.159373 0.252864
332 4 0.455076 0.178863 0.261473
350 4 0.439992 0.0973855 0.293743
544 2 0.157943 0.170319 0.261986
392 4 0.134967 0.189416 0.271441
391 2 0.110661 0.192076 0.276666
393 4 0.0863543 0.194736 0.281891
545 4 0.14892 0.193202 0.257499
405 4 0.22969 0.193045 0.300288
706 2 0.319594 0.180577 0.32058
707 4 0.32167 0.175761 0.296132
420 4 0.404163 0.210292 0.296781
520 2 0.483925 0.219356 0.258225
521 4 0.462794 0.231224 0.264375
762 4 0.464941 0.185654 0.27744
418 2 0.424872 0.213232 0.31048
419 4 0.445582 0.216172 0.324178
761 4 0.481952 0.175661 0.323391
760 2 0.473447 0.180657 0.300415
396 4 0.00807752 0.272266 0.250843
444 4 0.00767401 0.260214 0.31337
443 4 0.0130209 0.257194 0.263741
442 2 0.0103475 0.258704 0.288556
390 4 0.0591861 0.2792 0.338102
749 4 0.103086 0.261342 0.255264
388 2 0.0800841 0.266617 0.332614
401 4 0.188487 0.254209 0.275723
345 4 0.249246 0.287606 0.272173
400 2 0.200383 0.264595 0.295108
402 4 0.21228 0.27498 0.314494
508 2 0.237675 0.306653 0.327677
510 4 0.224165 0.290076 0.314721
496 2 0.317746 0.301953 0.283111
498 4 0.298956 0.318433 0.28383
509 4 0.251185 0.32323 0.340633
497 4 0.336536 0.285472 0.282391
543 4 0.407359 0.326835 0.319457
615 4 0.388154 0.325831 0.322737
541 2 0.431818 0.330893 0.316217
366 4 0.00963624 0.352513 0.27277
364 2 0.0258109 0.349533 0.291603
365 4 0.0419856 0.346553 0.310436
602 4 0.0834563 0.406082 0.29893
601 2 0.0973889 0.392776 0.282992
603 4 0.111321 0.37947 0.267055
734 4 0.160183 0.365445 0.256514
733 2 0.165057 0.367053 0.280985
735 4 0.16993 0.36866 0.305456
677 4 0.173941 0.373712 0.323633
729 4 0.320344 0.364966 0.261589
433 2 0.31201 0.388697 0.325489
727 2 0.333919 0.383914 0.270638
613 2 0.370113 0.343088 0.324116
728 4 0.347494 0.402862 0.279687
434 4 0.328097 0.404346 0.314465
614 4 0.352071 0.360345 0.325495
542 4 0.456276 0.334951 0.312978
446 4 0.480039 0.379395 0.270258
549 4 0.0370834 0.43374 0.324316
777 4 0.090184 0.466583 0.286606
775 2 0.100184 0.45281 0.304922
776 4 0.110184 0.439037 0.323239
414 4 0.13778 0.457956 0.292712
412 2 0.160828 0.459465 0.302286
413 4 0.183877 0.460974 0.31186
436 2 0.295536 0.457327 0.272024
437 4 0.296714 0.466205 0.248679
438 4 0.294358 0.44845 0.295369
713 4 0.393004 0.467684 0.279572
2861 4 0.487621 0.480513 0.272812
712 2 0.4175 0.472467 0.278065
714 4 0.441995 0.47725 0.276559
316 2 0.0440106 0.0713943 0.339796
317 4 0.0591753 0.0628558 0.357749
428 4 0.0742014 0.00802868 0.377684
427 2 0.0843651 0.000224803 0.356214
1782 4 0.124428 0.0142806 0.388183
730 2 0.118177 0.0808342 0.337929
1701 4 0.241849 0.0217362 0.329639
606 4 0.168155 0.0671949 0.380991
604 2 0.185318 0.0619935 0.363569
605 4 0.202482 0.0567922 0.346146
683 4 0.304248 0.0733137 0.379149
441 4 0.286181 0.0303924 0.415963
439 2 0.297125 0.00796461 0.414416
257 4 0.391903 0.0646236 0.338734
698 4 0.382149 0.0460107 0.341146
697 2 0.362014 0.0311984 0.340551
699 4 0.341879 0.0163861 0.339957
256 2 0.408024 0.0627857 0.357759
424 2 0.406858 0.0302673 0.405196
258 4 0.424144 0.0609478 0.376784
426 4 0.42022 0.0459054 0.390981
732 4 0.12672 0.0931366 0.35795
685 2 0.152695 0.157758 0.413527
598 2 0.18316 0.148533 0.343208
686 4 0.17757 0.159516 0.411707
682 2 0.297266 0.0939422 0.391433
684 4 0.290283 0.114571 0.403716
451 2 0.479883 0.15296 0.3842
453 4 0.456932 0.15897 0.392094
514 2 0.421165 0.159402 0.417304
515 4 0.437861 0.159023 0.398695
2655 4 0.99906 0.235147 0.371519
2653 2 0.0195009 0.221486 0.376073
2654 4 0.0399415 0.207825 0.380627
599 4 0.172252 0.170915 0.345501
474 4 0.23539 0.22536 0.36315
472 2 0.249995 0.21111 0.3487
276 4 0.230608 0.2481 0.405327
708 4 0.317518 0.185392 0.345027
473 4 0.2646 0.19686 0.33425
488 4 0.279723 0.224941 0.380165
487 2 0.279236 0.243347 0.39708
716 4 0.339928 0.251008 0.37056
304 2 0.48136 0.200939 0.414501
305 4 0.473727 0.187354 0.394947
270 4 0.494119 0.257085 0.406573
616 2 0.0687406 0.317861 0.370266
618 4 0.0655403 0.299463 0.386893
347 4 0.0567549 0.305254 0.403891
389 4 0.100982 0.254033 0.327127
375 4 0.159185 0.315206 0.397318
274 2 0.209115 0.253607 0.393799
275 4 0.187622 0.259114 0.38227
373 2 0.183532 0.320139 0.394484
374 4 0.20788 0.325072 0.391649
376 2 0.286235 0.280192 0.341949
377 4 0.311065 0.27733 0.342632
378 4 0.261406 0.283054 0.341265
489 4 0.278749 0.261754 0.413996
715 2 0.353863 0.248386 0.349966
717 4 0.367799 0.245764 0.329372
617 4 0.0719409 0.33626 0.35364
407 4 0.0838922 0.416454 0.358183
676 2 0.192587 0.365892 0.338342
678 4 0.211233 0.358071 0.353051
503 4 0.281254 0.417279 0.405178
435 4 0.295923 0.373049 0.336513
336 4 0.363666 0.381503 0.388791
334 2 0.36227 0.379408 0.413667
561 4 0.473173 0.400621 0.400106
752 4 0.476769 0.406282 0.380606
559 2 0.474908 0.37968 0.413657
751 2 0.456428 0.408913 0.366306
753 4 0.436086 0.411544 0.352006
2463 4 0.0146916 0.474843 0.347962
547 2 0.0594991 0.425045 0.331181
408 4 0.0783478 0.418084 0.407855
548 4 0.0819147 0.416351 0.338045
406 2 0.08112 0.417269 0.383019
499 2 0.0965263 0.476015 0.371035
500 4 0.115263 0.475719 0.354481
501 4 0.0777898 0.47631 0.387589
5 3 0.295635 0.445237 0.358199
1 1 0.310548 0.457908 0.369847
2 3 0.299537 0.475705 0.379396
4 3 0.320289 0.445221 0.386656
3 3 0.326921 0.466017 0.355544
1557 4 0.260384 0.501641 0.403789
594 4 0.371352 0.474155 0.359491
592 2 0.392505 0.471683 0.34639
593 4 0.413657 0.469211 0.333289
117 3 0.4871 0.434236 0.355658
1772 4 0.0202261 0.00790798 0.427292
718 2 0.048145 0.0528277 0.475989
720 4 0.0371174 0.0355423 0.490299
719 4 0.0591726 0.0701132 0.461679
2237 4 0.0191469 0.0349642 0.498748
2236 2 0.0184127 0.0101224 0.496005
367 2 0.129485 0.047514 0.43029
369 4 0.137148 0.0712322 0.432264
368 4 0.121821 0.0237959 0.428316
340 2 0.182626 0.0582442 0.497001
341 4 0.189943 0.0376642 0.484831
1181 4 0.248556 0.0567462 0.49188
1180 2 0.257675 0.0799685 0.490224
726 4 0.332838 0.048712 0.459586
425 4 0.393496 0.0146292 0.419412
724 2 0.340004 0.0720329 0.454111
2879 4 0.49177 0.0528074 0.433009
2878 2 0.488753 0.0757112 0.442574
458 4 0.0310195 0.16932 0.439316
687 4 0.127819 0.156001 0.415347
320 4 0.296359 0.113532 0.422805
321 4 0.265764 0.145962 0.445454
319 2 0.281061 0.129747 0.43413
1182 4 0.266794 0.103191 0.488568
725 4 0.347169 0.0953538 0.448636
574 2 0.399777 0.143058 0.476597
575 4 0.405212 0.155575 0.455645
516 4 0.404469 0.159781 0.435913
576 4 0.394342 0.130542 0.497548
642 4 0.478374 0.10964 0.467528
2880 4 0.485736 0.0986149 0.45214
640 2 0.467088 0.11822 0.488123
457 2 0.00874674 0.173221 0.428645
471 4 0.0291494 0.17163 0.496121
469 2 0.0333279 0.195296 0.48922
470 4 0.0375063 0.218962 0.482318
260 4 0.115486 0.198882 0.432008
261 4 0.123035 0.176772 0.476221
259 2 0.119261 0.187827 0.454114
1035 4 0.132033 0.191354 0.487974
695 4 0.093844 0.250361 0.463867
468 4 0.327727 0.181795 0.421702
411 4 0.254762 0.194749 0.459275
409 2 0.277523 0.193427 0.469538
410 4 0.300285 0.192105 0.479802
467 4 0.377495 0.178347 0.425166
466 2 0.352611 0.180071 0.423434
872 4 0.404567 0.223088 0.501755
306 4 0.488994 0.214525 0.434055
346 2 0.0469379 0.300352 0.426358
348 4 0.037121 0.295451 0.448826
694 2 0.103413 0.260284 0.484727
7 3 0.138368 0.333075 0.482729
10 3 0.173364 0.320107 0.482526
650 4 0.261126 0.314006 0.470994
651 4 0.257411 0.273373 0.442084
649 2 0.259269 0.29369 0.456539
266 4 0.319697 0.287273 0.458201
267 4 0.360064 0.257765 0.458915
265 2 0.339881 0.272519 0.458558
813 4 0.335012 0.291074 0.50121
583 2 0.466114 0.282002 0.454642
584 4 0.489523 0.289723 0.45884
585 4 0.442706 0.274282 0.450445
326 4 0.0747204 0.323628 0.44406
327 4 0.11283 0.341864 0.470815
325 2 0.0937751 0.332746 0.457438
6 1 0.159515 0.335897 0.491331
711 4 0.159891 0.369121 0.472009
8 3 0.167116 0.357097 0.485746
709 2 0.175384 0.385301 0.460902
710 4 0.190876 0.401481 0.449794
774 4 0.22992 0.412698 0.491321
669 4 0.306229 0.414666 0.460957
504 4 0.246492 0.394861 0.433281
502 2 0.263873 0.40607 0.41923
238 2 0.381293 0.379574 0.46428
240 4 0.357421 0.380806 0.456944
335 4 0.360874 0.377313 0.438544
239 4 0.405164 0.378342 0.471616
560 4 0.476643 0.358739 0.427209
935 4 0.00222266 0.438132 0.489847
681 4 0.0609862 0.43127 0.444085
383 4 0.073353 0.43732 0.4595
680 4 0.0267721 0.466789 0.435805
1381 2 0.0248394 0.499432 0.445373
1383 4 0.0399432 0.480974 0.437867
679 2 0.0438791 0.44903 0.439945
570 4 0.167141 0.472653 0.437563
384 4 0.121168 0.441602 0.445498
568 2 0.14997 0.458573 0.449055
569 4 0.132798 0.444492 0.460547
382 2 0.0972607 0.439461 0.452499
635 4 0.228787 0.433383 0.488042
634 2 0.240712 0.450284 0.473995
636 4 0.252638 0.467185 0.459948
668 4 0.292732 0.456302 0.436771
667 2 0.29948 0.435484 0.448864
588 4 0.380875 0.444743 0.443489
586 2 0.399224 0.443383 0.460419
661 2 0.482924 0.475619 0.48975
587 4 0.417572 0.442024 0.47735
663 4 0.478474 0.451846 0.483408
662 4 0.487374 0.499392 0.496092
1126 2 0.0321265 0.0524856 0.530965
1127 4 0.0333128 0.0456364 0.506947
1128 4 0.0309403 0.0593349 0.554983
1058 4 0.130223 0.0642373 0.562862
2428 2 0.202187 0.011 0.516934
342 4 0.17531 0.0788242 0.509172
1031 4 0.242933 0.0592196 0.586181
2430 4 0.192305 0.0297838 0.503717
1152 4 0.181886 0.0843553 0.528362
1030 2 0.251823 0.0779457 0.5722
961 2 0.274777 0.0305443 0.515327
963 4 0.298281 0.0388558 0.517242
962 4 0.251273 0.0222329 0.513413
432 4 0.308771 0.0483581 0.503586
430 2 0.32784 0.0641113 0.507245
1217 4 0.40658 0.0459362 0.54659
1216 2 0.404187 0.0238111 0.557988
841 2 0.387001 0.0667818 0.522983
842 4 0.409034 0.0569701 0.529575
1218 4 0.401793 0.00168605 0.569387
843 4 0.364968 0.0765935 0.516391
431 4 0.346909 0.0798645 0.510904
1062 4 0.486247 0.0206675 0.511521
938 4 0.0858633 0.11515 0.543001
1057 2 0.12552 0.0860219 0.574197
937 2 0.10325 0.133118 0.542847
939 4 0.120636 0.151086 0.542694
1153 2 0.154179 0.132342 0.572533
1155 4 0.133956 0.123687 0.58442
1151 4 0.18041 0.134121 0.523681
1150 2 0.181148 0.109238 0.526021
1154 4 0.174402 0.140998 0.560646
1032 4 0.260713 0.0966717 0.558219
899 4 0.318558 0.156244 0.543416
641 4 0.455801 0.1268 0.508719
877 2 0.0567238 0.212198 0.580603
878 4 0.0357666 0.203137 0.57041
1199 4 0.0188574 0.19362 0.576699
1034 4 0.107263 0.194706 0.531286
1033 2 0.119648 0.19303 0.50963
856 2 0.234443 0.201541 0.539614
857 4 0.21043 0.205499 0.533879
898 2 0.323541 0.178558 0.533295
858 4 0.258456 0.197583 0.545348
900 4 0.328524 0.200872 0.523174
791 4 0.296333 0.22447 0.562666
790 2 0.305616 0.24645 0.570141
871 2 0.389766 0.240397 0.512076
873 4 0.374966 0.257705 0.522397
905 4 0.494435 0.208413 0.578156
904 2 0.46961 0.210904 0.579786
906 4 0.444784 0.213395 0.581417
1258 2 0.13597 0.280581 0.527869
1260 4 0.113461 0.285469 0.518141
1259 4 0.158479 0.275693 0.537598
696 4 0.112981 0.270207 0.505588
9 3 0.15859 0.333637 0.514406
811 2 0.313308 0.302895 0.505001
804 4 0.276307 0.317192 0.521667
792 4 0.3149 0.26843 0.577615
1238 4 0.307294 0.286392 0.58502
812 4 0.291604 0.314716 0.508791
983 4 0.0331707 0.338361 0.562319
1137 4 0.134636 0.380497 0.586083
1189 2 0.233578 0.375243 0.561807
773 4 0.246677 0.375472 0.520202
1190 4 0.242732 0.370744 0.538978
1191 4 0.224425 0.379741 0.584636
772 2 0.238298 0.394085 0.505761
802 2 0.266778 0.339881 0.526092
803 4 0.257249 0.36257 0.530517
930 4 0.334996 0.391693 0.580495
928 2 0.345123 0.380796 0.560398
929 4 0.35525 0.369898 0.540301
925 2 0.459879 0.406238 0.521904
927 4 0.48288 0.404671 0.531582
926 4 0.436878 0.407805 0.512226
936 4 0.999402 0.472663 0.525908
934 2 0.000812145 0.455397 0.507878
539 4 0.0665436 0.489063 0.497233
2243 4 0.154643 0.487782 0.556837
540 4 0.115684 0.49268 0.505767
538 2 0.091114 0.490872 0.5015
1161 4 0.159837 0.472345 0.567341
1171 2 0.232276 0.440522 0.579332
1173 4 0.209688 0.4477 0.587296
1172 4 0.254865 0.433344 0.571368
882 4 0.308391 0.451169 0.52768
891 4 0.293317 0.443554 0.585885
880 2 0.331628 0.459388 0.531882
881 4 0.354865 0.467608 0.536083
1952 4 0.372798 0.471895 0.54601
1951 2 0.371874 0.489316 0.563923
1000 2 0.43021 0.437576 0.577726
1001 4 0.444179 0.450086 0.561186
825 4 0.134282 0.0178195 0.617612
823 2 0.147463 0.00302034 0.632858
951 4 0.25011 0.0410032 0.590667
949 2 0.271685 0.0284583 0.589137
950 4 0.29326 0.0159135 0.587607
1092 4 0.340536 0.0141387 0.654012
808 2 0.474184 0.079714 0.635759
810 4 0.468774 0.0795741 0.66017
1083 4 0.0707437 0.107826 0.624388
1082 4 0.0338066 0.11053 0.657989
1081 2 0.0522751 0.109178 0.641188
1059 4 0.120816 0.107807 0.585532
909 4 0.137618 0.139838 0.659258
1284 4 0.166348 0.0976648 0.629888
1283 4 0.204988 0.0934976 0.661358
1282 2 0.185668 0.0955812 0.645623
809 4 0.479594 0.0798538 0.611348
45 3 0.426762 0.0953413 0.670193
879 4 0.077681 0.221258 0.590795
1244 4 0.0568147 0.248394 0.601112
1209 4 0.0792701 0.233057 0.657521
1272 4 0.0925453 0.232037 0.597393
1270 2 0.116807 0.226436 0.599664
1271 4 0.141069 0.220835 0.601936
1221 4 0.172588 0.182705 0.593791
797 4 0.218136 0.224634 0.596032
1210 2 0.233266 0.186969 0.648496
1212 4 0.209905 0.187311 0.63959
1219 2 0.193668 0.184427 0.607126
1220 4 0.214749 0.18615 0.620461
796 2 0.242013 0.23026 0.600873
947 4 0.178065 0.253712 0.622555
798 4 0.265889 0.235887 0.605713
1211 4 0.256627 0.186627 0.657402
888 4 0.273364 0.198919 0.658791
1193 4 0.37262 0.230494 0.67078
1025 4 0.445684 0.186321 0.652647
1243 2 0.06085 0.24779 0.62578
1245 4 0.0648853 0.247186 0.650449
946 2 0.181588 0.273533 0.637384
948 4 0.185111 0.293354 0.652213
1237 2 0.302038 0.308771 0.594854
1239 4 0.296783 0.331151 0.604689
954 4 0.44082 0.271399 0.5811
952 2 0.461299 0.278354 0.593646
953 4 0.481778 0.28531 0.606193
3123 4 0.478606 0.292556 0.666663
982 2 0.0403037 0.347055 0.584651
984 4 0.0474366 0.355749 0.606983
1039 2 0.0649385 0.380242 0.629546
1041 4 0.0454103 0.372644 0.615905
3263 4 0.030378 0.361242 0.615061
3262 2 0.0121084 0.361882 0.632119
1040 4 0.0844668 0.387839 0.643188
897 4 0.154982 0.385046 0.584623
1136 4 0.0853688 0.372361 0.588775
1135 2 0.110002 0.376429 0.587429
991 2 0.126196 0.396144 0.650832
993 4 0.102913 0.395533 0.641736
896 4 0.204829 0.386342 0.588411
895 2 0.179905 0.385694 0.586517
1029 4 0.239511 0.381226 0.661924
806 4 0.309576 0.361652 0.670145
1204 2 0.416482 0.396496 0.657557
1206 4 0.394185 0.403294 0.666602
1205 4 0.438779 0.389698 0.648512
1159 2 0.167402 0.459817 0.587614
1187 4 0.227156 0.488874 0.593999
1160 4 0.174967 0.447288 0.607887
1186 2 0.2184 0.496919 0.615995
889 2 0.315787 0.453499 0.59051
890 4 0.338256 0.463444 0.595134
1002 4 0.416241 0.425067 0.594266
1269 4 0.451172 0.453709 0.651483
1267 2 0.447311 0.476572 0.660839
945 4 0.0596783 0.0141001 0.653507
944 4 0.0737811 0.0589521 0.67054
943 2 0.0667297 0.0365261 0.662023
1147 2 0.207373 0.0578705 0.739301
1148 4 0.199936 0.0817375 0.738814
1149 4 0.21481 0.0340035 0.739787
1003 2 0.330667 0.0804267 0.691486
1090 2 0.341375 0.0232314 0.677288
1091 4 0.342214 0.0323241 0.700565
1004 4 0.330722 0.0741152 0.71568
1163 4 0.475066 0.0653351 0.672085
1162 2 0.490168 0.0475528 0.681081
42 3 0.425528 0.06416 0.690665
2320 2 0.485203 0.0102616 0.749761
41 1 0.438458 0.0822162 0.68467
44 3 0.457835 0.0745165 0.674488
1076 4 0.0306414 0.116459 0.674918
864 4 0.06183 0.124277 0.726481
1075 2 0.0446107 0.11256 0.695286
1077 4 0.0585799 0.10866 0.715653
907 2 0.155965 0.134688 0.675447
908 4 0.174311 0.129537 0.691635
1227 4 0.184553 0.121014 0.706303
1225 2 0.188465 0.108814 0.727775
1226 4 0.192376 0.0966142 0.749247
1005 4 0.330611 0.0867381 0.667292
831 4 0.348901 0.156307 0.698444
1142 4 0.397341 0.150484 0.724933
3269 4 0.480415 0.130475 0.752592
43 3 0.443796 0.0942864 0.703754
851 4 0.0770685 0.188414 0.705315
852 4 0.0278235 0.179888 0.703599
850 2 0.052446 0.184151 0.704457
1213 2 0.0205625 0.22494 0.733795
1107 4 0.0820707 0.172136 0.716921
1214 4 0.0432266 0.2148 0.736745
1105 2 0.102535 0.175372 0.730918
1207 2 0.0966416 0.237626 0.674914
1208 4 0.114013 0.242194 0.692308
1106 4 0.122999 0.178609 0.744915
1130 4 0.182875 0.190207 0.725021
1129 2 0.187445 0.208881 0.741008
830 4 0.317815 0.195021 0.704408
886 2 0.286051 0.196862 0.680239
887 4 0.298737 0.194804 0.701686
976 2 0.291352 0.196929 0.740582
978 4 0.301776 0.176087 0.731518
918 4 0.289048 0.235662 0.756859
829 2 0.333358 0.175664 0.701426
1192 2 0.373683 0.212733 0.688348
1194 4 0.374746 0.194973 0.705915
1141 2 0.41115 0.170944 0.720947
1298 4 0.36956 0.208194 0.744164
1024 2 0.441601 0.188987 0.677171
1143 4 0.424959 0.191403 0.71696
1026 4 0.437518 0.191653 0.701694
1261 2 0.445443 0.229829 0.717525
1263 4 0.455793 0.252166 0.721899
1262 4 0.435093 0.207492 0.713152
3357 4 0.499713 0.234116 0.689232
1179 4 0.995842 0.290609 0.713757
820 2 0.183331 0.264788 0.736406
821 4 0.176516 0.283289 0.721029
1065 4 0.220474 0.272008 0.708954
1063 2 0.220729 0.281771 0.685936
1064 4 0.220984 0.291533 0.662919
3121 2 0.482715 0.269222 0.674651
3122 4 0.486824 0.245888 0.682639
3274 2 0.0122806 0.386847 0.73638
892 2 0.0528462 0.367809 0.701338
893 4 0.0633802 0.364615 0.678888
894 4 0.0423123 0.371003 0.723789
3276 4 0.0355774 0.379257 0.741363
992 4 0.149478 0.396754 0.659928
940 2 0.14132 0.398881 0.741471
941 4 0.162223 0.408724 0.731912
1067 4 0.164436 0.396575 0.716748
1028 4 0.211185 0.420847 0.673259
1066 2 0.181225 0.407756 0.701975
1068 4 0.198015 0.418938 0.687201
1027 2 0.225348 0.401037 0.667591
805 2 0.328481 0.35453 0.684879
1139 4 0.266025 0.417035 0.693211
807 4 0.347386 0.347408 0.699612
1019 4 0.367202 0.368725 0.733426
1101 4 0.475076 0.423597 0.711039
1281 4 0.0483592 0.479384 0.717123
1280 4 0.0640583 0.440155 0.690377
1279 2 0.0562088 0.459769 0.70375
1983 4 0.0318229 0.479365 0.728913
1981 2 0.0209678 0.484355 0.750877
1175 4 0.230133 0.481862 0.678261
1176 4 0.217758 0.488861 0.726205
1174 2 0.223946 0.485362 0.702233
1138 2 0.282964 0.433022 0.702302
1140 4 0.299903 0.44901 0.711393
1228 2 0.370378 0.460539 0.723288
1229 4 0.371716 0.485411 0.721108
1230 4 0.369039 0.435667 0.725469
1989 4 0.353098 0.485455 0.72891
1100 4 0.43272 0.44236 0.72987
1099 2 0.453898 0.432979 0.720455
1294 2 0.014673 0.0129406 0.802711
911 4 0.0582408 0.0471038 0.821973
1296 4 0.00895665 0.0256439 0.823475
1295 4 0.0203894 0.000237294 0.781948
910 2 0.0707363 0.0678975 0.828028
1203 4 0.107946 0.0808799 0.754473
1201 2 0.1044 0.0594706 0.766892
1202 4 0.100855 0.0380613 0.779312
2049 4 0.0996657 0.0189125 0.781504
1257 4 0.252164 0.0571639 0.803497
1255 2 0.262909 0.0649897 0.824674
1050 4 0.349418 0.000578421 0.777513
975 4 0.348415 0.00737674 0.804257
1113 4 0.406918 0.0290292 0.79382
1111 2 0.405387 0.0395805 0.816436
844 2 0.470957 0.0767173 0.756152
845 4 0.453245 0.0609245 0.764028
2322 4 0.49973 0.0256117 0.763122
862 2 0.0526373 0.117936 0.748852
863 4 0.0434446 0.111596 0.771224
832 2 0.0072895 0.116806 0.791674
833 4 0.0284016 0.106362 0.783285
34 3 0.0943023 0.142979 0.817634
31 1 0.0973515 0.164199 0.808756
33 3 0.119783 0.167604 0.803897
912 4 0.0832319 0.0886911 0.834083
839 4 0.24569 0.100656 0.812178
838 2 0.258316 0.122072 0.814844
840 4 0.270941 0.143489 0.817509
1086 4 0.314179 0.157059 0.813768
1084 2 0.330938 0.138693 0.816415