ITEM: TIMESTEP
370000
ITEM: NUMBER OF ATOMS
4590
ITEM: BOX BOUNDS pp pp pp
-9.9985700000000008e+00 9.9985700000000008e+00
-9.9985700000000008e+00 9.9985700000000008e+00
-9.9985700000000008e+00 9.9985700000000008e+00
ITEM: ATOMS id type xs ys zs
463 2 0.0407257 0.0699292 0.0525454
465 4 0.0482616 0.0934302 0.0485339
464 4 0.0331898 0.0464282 0.0565569
1667 4 0.0729166 0.0276241 0.0758227
701 4 0.0851605 0.0772524 0.0433939
1666 2 0.0894866 0.00903496 0.0780715
1668 4 0.106057 0.990446 0.0803203
534 4 0.197916 0.0832876 0.993606
490 2 0.269137 0.0250578 0.0356469
491 4 0.28051 0.0470469 0.0321389
492 4 0.257764 0.00306865 0.0391548
296 4 0.376672 0.0521566 0.0639424
557 4 0.360135 0.0601584 0.0573731
295 2 0.363233 0.0335809 0.0739179
1608 4 0.40621 0.0177661 0.0308182
745 2 0.458996 0.06271 0.0306496
747 4 0.454679 0.0455838 0.0129512
589 2 0.0351725 0.149517 0.0732393
590 4 0.0278261 0.169763 0.0605386
702 4 0.128237 0.0959047 0.0261531
700 2 0.106699 0.0865786 0.0347735
566 4 0.152769 0.0990522 0.063356
423 4 0.0913191 0.145603 0.0110984
565 2 0.176435 0.103972 0.056962
567 4 0.200102 0.108891 0.0505679
358 2 0.277496 0.118164 0.00700422
360 4 0.263373 0.134011 0.0202166
556 2 0.357159 0.0831347 0.0479704
558 4 0.354183 0.106111 0.0385678
746 4 0.463314 0.0798361 0.0483481
770 4 0.470317 0.161013 0.0466956
553 2 0.051082 0.208967 0.0077814
554 4 0.0325048 0.203499 0.0235982
555 4 0.0696592 0.214434 0.991965
738 4 0.22192 0.206533 0.0885408
666 4 0.340029 0.210762 0.0114202
664 2 0.331173 0.188724 0.00360686
461 4 0.325748 0.233236 0.0812607
324 4 0.411656 0.243338 0.058021
1071 4 0.39417 0.231235 0.017354
322 2 0.422964 0.245935 0.0801694
771 4 0.44617 0.193196 0.076392
769 2 0.458244 0.177105 0.0615438
1012 2 0.493846 0.192113 0.0061623
1014 4 0.470284 0.183871 0.0076071
292 2 0.13857 0.329162 0.0219828
294 4 0.126717 0.343562 0.00532988
293 4 0.150423 0.314762 0.0386357
507 4 0.165963 0.31447 0.0521353
506 4 0.189447 0.270668 0.0465995
483 4 0.211668 0.289443 0.0763092
505 2 0.177705 0.292569 0.0493674
481 2 0.227984 0.307305 0.0826267
357 4 0.248687 0.282713 0.0066967
355 2 0.245455 0.258016 0.00888535
571 2 0.321873 0.250376 0.0426555
573 4 0.32119 0.235133 0.0624637
572 4 0.322557 0.265619 0.0228473
1069 2 0.399437 0.255338 0.0214124
1070 4 0.404704 0.279441 0.0254708
281 4 0.460135 0.335413 0.0406898
671 4 0.462051 0.346021 0.05933
330 4 0.0192249 0.409034 0.0412295
328 2 0.00643686 0.38933 0.0326625
329 4 0.993649 0.369625 0.0240955
455 4 0.0928823 0.345441 0.0768538
286 2 0.15373 0.382616 0.0248857
287 4 0.159198 0.363673 0.0402615
288 4 0.148262 0.40156 0.00950986
252 4 0.294721 0.388225 0.0598973
250 2 0.279971 0.388958 0.0397213
251 4 0.265221 0.389691 0.0195453
608 4 0.285222 0.380261 0.0761001
280 2 0.472415 0.346032 0.0216737
670 2 0.461902 0.345887 0.0843328
282 4 0.484695 0.356651 0.00265773
550 2 0.0839676 0.424058 0.0392717
551 4 0.0732683 0.424128 0.016673
313 2 0.99692 0.450153 0.0964334
552 4 0.0946668 0.423987 0.0618704
242 4 0.133038 0.498622 0.0650866
1787 4 0.123589 0.49965 0.0834756
241 2 0.155263 0.506625 0.0732825
245 4 0.222316 0.459729 0.0625398
244 2 0.242676 0.45899 0.0480448
627 4 0.221066 0.439752 0.0635451
243 4 0.177488 0.514629 0.0814785
246 4 0.263035 0.458251 0.0335498
272 4 0.263489 0.472664 0.0183197
271 2 0.286459 0.478685 0.0104905
273 4 0.309429 0.484707 0.00266127
524 4 0.330263 0.462922 0.0723209
227 4 0.477347 0.485443 0.0570933
562 2 0.456182 0.494092 0.0121042
226 2 0.49783 0.473166 0.0496854
19 3 0.0184131 0.0725731 0.170125
20 3 0.0526851 0.0873728 0.165221
450 4 0.162256 0.0547441 0.151693
448 2 0.175694 0.0757759 0.153202
1505 4 0.236985 0.0381152 0.161997
652 2 0.297603 0.0375785 0.155738
653 4 0.303834 0.0428472 0.132103
297 4 0.349794 0.0150052 0.0838934
1760 4 0.493398 0.997689 0.134398
2724 4 0.49309 0.0127261 0.146166
2723 4 0.505427 0.0566705 0.125735
2722 2 0.499258 0.0346983 0.135951
591 4 0.042519 0.129271 0.08594
380 4 0.00375685 0.134989 0.140678
237 4 0.186612 0.161622 0.165712
449 4 0.189131 0.0968076 0.15471
235 2 0.182498 0.137705 0.159692
236 4 0.178385 0.113788 0.153673
693 4 0.206622 0.0914096 0.159156
254 4 0.396208 0.168341 0.106514
339 4 0.0511694 0.242012 0.133795
2625 4 0.995172 0.201318 0.100709
476 4 0.137294 0.218327 0.121372
475 2 0.118325 0.21642 0.13755
477 4 0.0993563 0.214513 0.153728
737 4 0.184181 0.228406 0.112996
736 2 0.203051 0.217469 0.100768
354 4 0.29157 0.225527 0.113525
352 2 0.283279 0.248521 0.11879
285 4 0.268663 0.19206 0.142097
283 2 0.27385 0.204916 0.162905
460 2 0.331432 0.215857 0.0983147
255 4 0.351634 0.190659 0.102538
462 4 0.337116 0.198478 0.115369
253 2 0.373921 0.1795 0.104526
630 4 0.414465 0.16588 0.113346
629 4 0.463755 0.168791 0.121269
628 2 0.43911 0.167336 0.117308
518 4 0.496051 0.225358 0.102605
323 4 0.434272 0.248532 0.102318
620 4 0.0269555 0.32307 0.135506
337 2 0.0652012 0.2429 0.154471
621 4 0.993382 0.322735 0.0984461
619 2 0.0101687 0.322903 0.116976
338 4 0.0792331 0.243788 0.175147
277 2 0.252072 0.269926 0.15569
482 4 0.2443 0.325168 0.0889442
353 4 0.274988 0.271515 0.124054
754 2 0.284154 0.303122 0.11749
755 4 0.288248 0.27907 0.112019
756 4 0.28006 0.327174 0.122961
278 4 0.270229 0.262296 0.140285
612 4 0.261727 0.327053 0.132959
741 4 0.338396 0.321402 0.0921952
622 2 0.390373 0.279087 0.166774
739 2 0.353623 0.338196 0.102745
623 4 0.394696 0.272568 0.143025
517 2 0.49616 0.248598 0.0933827
519 4 0.496268 0.271839 0.0841604
647 4 0.0543258 0.339454 0.131594
646 2 0.0718974 0.344487 0.148655
454 2 0.11094 0.351356 0.0931047
456 4 0.128998 0.357272 0.109356
648 4 0.089469 0.349521 0.165716
537 4 0.172228 0.341072 0.138967
535 2 0.186908 0.351427 0.156358
626 4 0.20788 0.406624 0.0986072
536 4 0.201588 0.361782 0.17375
609 4 0.314342 0.344631 0.0956775
607 2 0.299782 0.362446 0.0858888
610 2 0.256005 0.337769 0.154813
387 4 0.339204 0.373813 0.169998
740 4 0.368849 0.354991 0.113294
15 3 0.379116 0.363069 0.127278
385 2 0.349675 0.370961 0.147473
386 4 0.360145 0.368109 0.124947
11 1 0.40128 0.362543 0.12207
13 3 0.412908 0.350514 0.138148
14 3 0.409623 0.384156 0.120775
12 3 0.404028 0.352277 0.101669
672 4 0.461753 0.345753 0.109336
495 4 0.423051 0.399743 0.125819
493 2 0.423894 0.424409 0.129825
597 4 0.469387 0.407127 0.167316
645 4 0.474564 0.38783 0.16421
1467 4 0.0145607 0.494784 0.141898
315 4 0.00778193 0.428158 0.101276
1465 2 0.0384961 0.498946 0.14781
625 2 0.214473 0.423188 0.0810761
637 2 0.258846 0.495414 0.126077
638 4 0.274761 0.484164 0.14174
767 4 0.262114 0.4832 0.157315
525 4 0.352601 0.490017 0.107924
523 2 0.341432 0.47647 0.0901224
658 2 0.403255 0.469777 0.151566
659 4 0.380097 0.479042 0.153307
660 4 0.426413 0.460512 0.149824
595 2 0.488372 0.423211 0.169777
494 4 0.424738 0.449075 0.133832
16 1 0.0398943 0.0742449 0.178737
17 3 0.0387974 0.0837214 0.199669
18 3 0.0493684 0.0531409 0.180545
673 2 0.108637 0.0433399 0.22027
674 4 0.109658 0.064798 0.207476
675 4 0.107616 0.0218817 0.233064
689 4 0.212186 0.999853 0.222492
1506 4 0.205341 0.0136382 0.192001
1504 2 0.221163 0.0258767 0.176999
654 4 0.291372 0.0323097 0.179373
21 1 0.369842 0.0374087 0.22803
24 3 0.349173 0.0269107 0.229029
25 3 0.381146 0.0305612 0.209484
759 4 0.383584 0.0393802 0.19143
757 2 0.397526 0.0593715 0.18585
22 3 0.366585 0.0601547 0.226951
758 4 0.411469 0.0793629 0.18027
742 2 0.471566 0.045977 0.224085
743 4 0.493115 0.056645 0.230941
744 4 0.450017 0.035309 0.217229
379 2 0.00836783 0.143347 0.163787
381 4 0.0129788 0.151706 0.186897
511 2 0.03685 0.160604 0.220828
512 4 0.0180984 0.153076 0.206101
513 4 0.0556016 0.168132 0.235555
579 4 0.089119 0.111424 0.210589
577 2 0.0928555 0.135452 0.204768
578 4 0.0965919 0.15948 0.198948
692 4 0.241541 0.106989 0.191384
723 4 0.193819 0.109192 0.234479
691 2 0.224082 0.0991992 0.17527
721 2 0.192326 0.132575 0.243208
582 4 0.285085 0.088284 0.168157
580 2 0.286338 0.101184 0.189539
581 4 0.287592 0.114084 0.210922
30 3 0.298653 0.118524 0.227456
26 1 0.306777 0.114228 0.248294
27 3 0.32681 0.103071 0.246464
312 4 0.431852 0.134367 0.17364
333 4 0.443799 0.159316 0.231766
310 2 0.441515 0.118259 0.190143
311 4 0.451178 0.102151 0.206646
362 4 0.128132 0.232519 0.196883
361 2 0.105448 0.24283 0.194805
372 4 0.14672 0.233372 0.205682
370 2 0.163705 0.246183 0.218818
284 4 0.279037 0.217773 0.183713
764 4 0.368342 0.216169 0.184034
763 2 0.384302 0.218243 0.203169
765 4 0.400262 0.220318 0.222305
522 4 0.495231 0.203153 0.253787
395 4 0.0633908 0.261712 0.226177
394 2 0.0427708 0.269545 0.237951
750 4 0.102862 0.302316 0.22488
396 4 0.0221508 0.277378 0.249726
363 4 0.0827646 0.253141 0.192727
748 2 0.106212 0.284868 0.242474
371 4 0.18069 0.258994 0.231954
279 4 0.233915 0.277557 0.171094
344 4 0.270429 0.29521 0.253273
307 2 0.318112 0.26724 0.220557
309 4 0.312272 0.273084 0.196958
624 4 0.386051 0.285605 0.190523
308 4 0.323952 0.261395 0.244157
528 4 0.475299 0.244345 0.216231
527 4 0.494437 0.277437 0.183993
526 2 0.484868 0.260891 0.200112
300 4 0.116537 0.340086 0.217375
298 2 0.123249 0.356604 0.234904
299 4 0.129961 0.373123 0.252432
290 4 0.230849 0.430552 0.236142
611 4 0.250284 0.348486 0.176667
302 4 0.35049 0.367261 0.185564
303 4 0.354857 0.407526 0.214896
301 2 0.352673 0.387393 0.20023
643 2 0.464154 0.376113 0.183692
644 4 0.453744 0.364396 0.203173
447 4 0.453272 0.365401 0.223623
108 3 0.518149 0.407584 0.239482
445 2 0.471833 0.373276 0.23841
263 4 0.0699681 0.450323 0.23102
262 2 0.0452976 0.451316 0.234964
264 4 0.0206271 0.452308 0.238909
417 4 0.142844 0.458346 0.204332
415 2 0.161502 0.442606 0.198919
1430 4 0.163426 0.497207 0.195407
416 4 0.180161 0.426865 0.193507
291 4 0.200045 0.431528 0.196761
289 2 0.215447 0.43104 0.216451
768 4 0.265412 0.469624 0.205331
766 2 0.263763 0.476412 0.181323
231 4 0.418989 0.495826 0.199717
232 2 0.0272232 0.0479838 0.288233
233 4 0.0383449 0.0274745 0.297225
1402 2 0.0709473 0.00805271 0.27529
1403 4 0.0508512 0.0148483 0.288524
234 4 0.0161015 0.0684931 0.279241
731 4 0.0999345 0.0840032 0.320317
1699 2 0.242598 0.0415063 0.307635
1700 4 0.25611 0.0592982 0.296408
23 3 0.382153 0.0324896 0.247073
633 4 0.388038 0.0685638 0.327293
478 2 0.467194 0.0363294 0.32957
351 4 0.469004 0.0559416 0.264848
349 2 0.452962 0.0710133 0.27671
479 4 0.464482 0.04984 0.308706
318 4 0.0389343 0.0597933 0.314435
398 4 0.0775165 0.138214 0.290949
397 2 0.0837362 0.125768 0.311724
399 4 0.0899558 0.113322 0.332498
722 4 0.190833 0.155958 0.251936
546 4 0.190376 0.174022 0.257562
248 4 0.243246 0.0920274 0.305969
249 4 0.235195 0.141339 0.303915
247 2 0.23922 0.116683 0.304942
404 4 0.228088 0.15791 0.2944
28 3 0.291825 0.100922 0.260033
29 3 0.310291 0.134138 0.259681
632 4 0.371538 0.110118 0.304895
631 2 0.379788 0.0893411 0.316094
331 2 0.451142 0.159136 0.255666
350 4 0.436921 0.086085 0.288571
392 4 0.130121 0.200645 0.274495
391 2 0.105355 0.200161 0.277895
393 4 0.0805882 0.199677 0.281295
545 4 0.145882 0.190144 0.27372
389 4 0.0859079 0.246798 0.322463
403 2 0.227499 0.179939 0.282588
544 2 0.168129 0.182083 0.265641
405 4 0.22691 0.201969 0.270775
706 2 0.330147 0.189061 0.329803
707 4 0.323415 0.203248 0.310346
473 4 0.255445 0.173695 0.354597
420 4 0.401608 0.20831 0.297677
332 4 0.458485 0.158957 0.279566
520 2 0.477149 0.21462 0.266699
521 4 0.459067 0.226087 0.27961
762 4 0.468772 0.172719 0.289349
418 2 0.420075 0.208418 0.314533
419 4 0.438543 0.208527 0.331389
761 4 0.507013 0.166123 0.320891
760 2 0.487892 0.169421 0.30512
444 4 0.0203706 0.244473 0.302811
443 4 0.0077337 0.270042 0.261735
442 2 0.0140522 0.257257 0.282273
390 4 0.0580798 0.285103 0.338559
388 2 0.0719939 0.26595 0.330511
749 4 0.109561 0.26742 0.260067
401 4 0.192955 0.254384 0.281841
345 4 0.2286 0.30067 0.28013
400 2 0.204875 0.271659 0.29543
402 4 0.216795 0.288934 0.309019
508 2 0.223739 0.315646 0.318772
510 4 0.228254 0.291708 0.324409
343 2 0.249514 0.29794 0.266702
496 2 0.330323 0.306009 0.286793
498 4 0.312247 0.323267 0.286018
497 4 0.348399 0.28875 0.287568
543 4 0.407716 0.327057 0.332395
717 4 0.367374 0.269575 0.317718
541 2 0.425031 0.334217 0.315839
542 4 0.442346 0.341376 0.299283
366 4 0.00092945 0.339009 0.286705
364 2 0.0194875 0.32756 0.298941
365 4 0.0380455 0.316112 0.311176
602 4 0.0835812 0.394669 0.292634
601 2 0.10251 0.392 0.276517
603 4 0.121439 0.389331 0.2604
734 4 0.139793 0.384414 0.26454
733 2 0.157141 0.382169 0.282405
735 4 0.17449 0.379923 0.300271
677 4 0.194497 0.380946 0.305992
676 2 0.198584 0.370849 0.328498
729 4 0.319841 0.363728 0.256939
433 2 0.309607 0.384673 0.318628
434 4 0.312429 0.409509 0.31924
435 4 0.306785 0.359837 0.318016
615 4 0.389807 0.327479 0.322831
727 2 0.332713 0.384505 0.262212
613 2 0.372385 0.344837 0.327345
728 4 0.345586 0.405282 0.267485
614 4 0.354963 0.362194 0.331858
2538 4 0.495903 0.354511 0.294404
446 4 0.490395 0.381151 0.253196
549 4 0.0316997 0.417446 0.31504
777 4 0.0754879 0.454617 0.286771
547 2 0.0483522 0.416495 0.333667
775 2 0.0905801 0.441273 0.301582
776 4 0.105672 0.427929 0.316392
414 4 0.151682 0.45457 0.297336
412 2 0.167771 0.465085 0.313328
413 4 0.18386 0.475601 0.32932
436 2 0.292345 0.446285 0.282189
437 4 0.281437 0.454554 0.261265
438 4 0.303252 0.438015 0.303113
713 4 0.415992 0.491927 0.284764
2861 4 0.488386 0.461865 0.269396
712 2 0.433578 0.489544 0.267151
714 4 0.451164 0.487161 0.249537
316 2 0.0474946 0.0613287 0.337877
317 4 0.0560549 0.0628642 0.361319
428 4 0.0688821 0.0292722 0.368893
427 2 0.0733885 0.00549638 0.362602
1782 4 0.128725 0.997756 0.384718
368 4 0.114375 0.0274883 0.411565
1701 4 0.229085 0.0237143 0.318862
606 4 0.18587 0.0761089 0.389929
604 2 0.190232 0.0707541 0.365898
605 4 0.194594 0.0653993 0.341867
683 4 0.292153 0.0668479 0.38353
441 4 0.286186 0.0175445 0.400163
439 2 0.300725 0.998719 0.407869
257 4 0.394525 0.0561168 0.340203
698 4 0.375634 0.0557411 0.334656
697 2 0.359375 0.0369516 0.331868
699 4 0.343116 0.0181621 0.32908
256 2 0.409281 0.0578627 0.360313
424 2 0.409993 0.0331555 0.410042
426 4 0.423897 0.0504315 0.398492
480 4 0.469907 0.0228189 0.350433
258 4 0.424037 0.0596086 0.380422
730 2 0.112448 0.0814 0.341807
732 4 0.124962 0.0787968 0.363297
685 2 0.162408 0.165321 0.411056
599 4 0.152068 0.178472 0.348725
687 4 0.14267 0.15552 0.422867
600 4 0.186211 0.142844 0.356824
598 2 0.169139 0.160658 0.352774
682 2 0.289614 0.0906297 0.390821
684 4 0.287075 0.114412 0.398112
452 4 0.499705 0.158911 0.381551
451 2 0.47689 0.149856 0.386308
453 4 0.454074 0.1408 0.391064
515 4 0.441482 0.149901 0.404902
2655 4 0.0114743 0.236613 0.374086
2653 2 0.0181781 0.212528 0.37368
2654 4 0.0248819 0.188443 0.373274
686 4 0.182146 0.175122 0.399244
474 4 0.269218 0.221147 0.362294
276 4 0.22415 0.261871 0.388205
472 2 0.262332 0.197421 0.358446
708 4 0.336879 0.174873 0.34926
488 4 0.274157 0.230449 0.378812
487 2 0.280467 0.241073 0.400549
305 4 0.476811 0.192026 0.410018
616 2 0.0558966 0.32875 0.376077
618 4 0.048052 0.315903 0.396041
347 4 0.0538591 0.297574 0.402
375 4 0.172262 0.318315 0.416597
509 4 0.219224 0.339583 0.313134
274 2 0.199766 0.265201 0.383788
275 4 0.175382 0.268531 0.37937
373 2 0.191654 0.329794 0.405764
374 4 0.211046 0.341273 0.39493
376 2 0.287991 0.273442 0.337759
377 4 0.312333 0.274556 0.343362
378 4 0.263649 0.272328 0.332155
716 4 0.337438 0.245918 0.350042
715 2 0.352406 0.257746 0.33388
268 2 0.501461 0.278608 0.402648
270 4 0.501352 0.254481 0.409212
617 4 0.0637412 0.341597 0.356112
408 4 0.0809626 0.405712 0.411606
548 4 0.0650047 0.415544 0.352294
406 2 0.0770202 0.416157 0.389233
678 4 0.202671 0.360751 0.351003
502 2 0.240474 0.420791 0.42355
336 4 0.355348 0.390049 0.391627
334 2 0.354674 0.388722 0.416586
561 4 0.467673 0.368848 0.388157
752 4 0.472002 0.386755 0.381962
559 2 0.479098 0.368505 0.410395
751 2 0.457723 0.400587 0.366797
753 4 0.443444 0.414418 0.351632
407 4 0.0730778 0.426602 0.36686
2463 4 0.017659 0.493653 0.326743
499 2 0.10841 0.496357 0.376308
500 4 0.106147 0.510994 0.356163
501 4 0.110672 0.48172 0.396453
503 4 0.257868 0.421678 0.40561
5 3 0.294748 0.438649 0.379237
1 1 0.310273 0.448301 0.392818
2 3 0.300197 0.464749 0.405352
4 3 0.319249 0.432399 0.407135
3 3 0.327117 0.457864 0.380042
594 4 0.387363 0.484506 0.373095
592 2 0.404824 0.472949 0.35943
593 4 0.422284 0.461392 0.345765
117 3 0.498154 0.4314 0.364832
1772 4 0.0264246 0.00432499 0.442895
718 2 0.0493444 0.0661888 0.467603
720 4 0.0424932 0.0468704 0.481922
719 4 0.0561956 0.0855071 0.453284
2237 4 0.0387527 0.0289008 0.489493
2236 2 0.0243957 0.0113714 0.478921
367 2 0.128053 0.0410182 0.427536
369 4 0.14173 0.0545481 0.443506
341 4 0.194198 0.0403974 0.487472
1181 4 0.234696 0.0496983 0.46843
1180 2 0.243183 0.0698104 0.480623
726 4 0.337938 0.0419609 0.446915
425 4 0.396089 0.0158794 0.421592
724 2 0.340137 0.0667234 0.444239
2879 4 0.509055 0.0593106 0.427711
2878 2 0.496854 0.0756533 0.442176
457 2 0.0180699 0.163384 0.43242
320 4 0.301933 0.11556 0.411839
321 4 0.276923 0.149978 0.438117
319 2 0.289428 0.132769 0.424978
1182 4 0.251669 0.0899226 0.492815
725 4 0.342336 0.0914859 0.441563
574 2 0.396991 0.143127 0.470676
575 4 0.395109 0.147041 0.446052
516 4 0.396626 0.146909 0.426803
576 4 0.398873 0.139213 0.495299
514 2 0.419054 0.148405 0.415852
642 4 0.492233 0.101548 0.472338
2880 4 0.484654 0.0919961 0.456641
640 2 0.475925 0.115656 0.484993
458 4 0.0408396 0.167048 0.442079
471 4 0.00919144 0.184455 0.47944
469 2 0.029967 0.197147 0.473741
470 4 0.0507425 0.209838 0.468042
260 4 0.111935 0.194889 0.425299
261 4 0.112393 0.196522 0.475278
259 2 0.112164 0.195705 0.450289
1035 4 0.117826 0.198088 0.495281
695 4 0.0930087 0.244156 0.466232
411 4 0.245516 0.194811 0.466526
409 2 0.268337 0.190201 0.475642
410 4 0.291159 0.185591 0.484759
468 4 0.344322 0.201161 0.431694
467 4 0.39415 0.19766 0.42934
466 2 0.369236 0.19941 0.430517
304 2 0.469698 0.20966 0.426255
306 4 0.462584 0.227294 0.442492
346 2 0.0428585 0.301109 0.424174
348 4 0.031858 0.304643 0.446347
326 4 0.0786522 0.320196 0.453883
694 2 0.104169 0.261591 0.480256
7 3 0.1395 0.329073 0.481124
327 4 0.116988 0.352001 0.458304
325 2 0.09782 0.336099 0.456093
10 3 0.176411 0.32373 0.479743
651 4 0.261257 0.270242 0.437225
489 4 0.286777 0.251697 0.422286
650 4 0.271331 0.306441 0.470223
649 2 0.266294 0.288342 0.453724
266 4 0.328824 0.291727 0.45191
267 4 0.356419 0.256822 0.474733
265 2 0.342622 0.274275 0.463322
583 2 0.470819 0.290847 0.464429
584 4 0.492259 0.303566 0.462492
585 4 0.449379 0.278128 0.466365
6 1 0.160012 0.338112 0.486291
8 3 0.162314 0.358341 0.47516
711 4 0.162092 0.378256 0.479491
709 2 0.18237 0.392613 0.482298
710 4 0.202647 0.406971 0.485106
774 4 0.219527 0.405567 0.495206
504 4 0.223081 0.419904 0.441491
238 2 0.375823 0.388052 0.469863
240 4 0.361913 0.401082 0.453679
335 4 0.354 0.387394 0.441546
239 4 0.389732 0.375022 0.486047
560 4 0.490523 0.368163 0.432633
935 4 0.0142324 0.438026 0.498869
681 4 0.061286 0.434456 0.451575
383 4 0.0770138 0.439015 0.461189
680 4 0.0290993 0.465532 0.429236
1383 4 0.0106474 0.469362 0.434561
679 2 0.0451927 0.449994 0.440405
384 4 0.126353 0.447146 0.460742
568 2 0.151974 0.465458 0.446146
569 4 0.144331 0.454191 0.467118
382 2 0.101684 0.44308 0.460965
570 4 0.159616 0.476725 0.425175
635 4 0.215624 0.421732 0.48475
634 2 0.231366 0.43985 0.477743
669 4 0.292156 0.448546 0.467165
636 4 0.247108 0.457968 0.470735
668 4 0.316138 0.429004 0.427875
667 2 0.304147 0.438775 0.44752
587 4 0.401056 0.439752 0.481942
586 2 0.396395 0.447003 0.458471
588 4 0.391734 0.454254 0.435
663 4 0.46457 0.457196 0.500201
661 2 0.474418 0.479799 0.496047
1126 2 0.0290026 0.0499382 0.523677
1127 4 0.0367785 0.0452434 0.500382
1128 4 0.0212267 0.054633 0.546973
1058 4 0.131698 0.0542598 0.567063
1057 2 0.131809 0.0764992 0.57849
2428 2 0.206302 0.0091897 0.518311
342 4 0.176529 0.0772719 0.516261
2430 4 0.198547 0.0278667 0.503607
340 2 0.185364 0.0588346 0.501867
1030 2 0.254954 0.0839965 0.561525
961 2 0.27885 0.032431 0.512417
963 4 0.300649 0.0419582 0.520111
962 4 0.25705 0.0229037 0.504723
432 4 0.312648 0.0426694 0.502645
430 2 0.328975 0.0602682 0.509636
950 4 0.267739 0.0109641 0.594534
1217 4 0.402131 0.0488046 0.549568
1216 2 0.403038 0.0242848 0.554379
841 2 0.384769 0.0730435 0.534095
842 4 0.407976 0.0659777 0.540154
431 4 0.345303 0.077867 0.516627
1062 4 0.486357 0.0531725 0.521964
938 4 0.0623024 0.114546 0.535969
937 2 0.0758761 0.135328 0.538972
939 4 0.0894498 0.156111 0.541976
1153 2 0.156803 0.13142 0.576541
1154 4 0.167457 0.153758 0.572981
1152 4 0.190592 0.085724 0.526974
1151 4 0.165845 0.128303 0.535654
1150 2 0.178219 0.107013 0.531314
1032 4 0.267154 0.0997429 0.546412
843 4 0.361563 0.0801094 0.528036
641 4 0.459616 0.129765 0.497649
878 4 0.0398023 0.202569 0.5731
1199 4 0.0210336 0.20057 0.566682
1034 4 0.0963849 0.172157 0.532275
1033 2 0.107106 0.185122 0.513778
856 2 0.243795 0.198067 0.536595
857 4 0.219214 0.197778 0.532027
898 2 0.316698 0.178334 0.51872
858 4 0.268375 0.198355 0.541164
900 4 0.299807 0.185613 0.501784
791 4 0.28939 0.230115 0.555439
790 2 0.291133 0.253324 0.564575
899 4 0.33359 0.171054 0.535657
871 2 0.376907 0.240798 0.519512
873 4 0.355093 0.245889 0.53062
872 4 0.398722 0.235707 0.508403
905 4 0.483016 0.210281 0.56556
1258 2 0.134326 0.274818 0.525445
1260 4 0.120887 0.289856 0.510666
1259 4 0.147766 0.25978 0.540224
696 4 0.115329 0.279025 0.49428
811 2 0.305057 0.301665 0.503064
804 4 0.269372 0.323981 0.515034
792 4 0.292877 0.276534 0.573711
1238 4 0.308996 0.277466 0.585043
812 4 0.282035 0.310927 0.506125
813 4 0.328079 0.292402 0.500003
983 4 0.03437 0.338633 0.560306
982 2 0.0406873 0.345513 0.583499
9 3 0.161152 0.34151 0.509216
1189 2 0.225453 0.378556 0.564067
773 4 0.241334 0.371678 0.524815
1190 4 0.240337 0.373833 0.54454
1191 4 0.210569 0.383278 0.583595
772 2 0.230431 0.388622 0.510011
802 2 0.263213 0.345922 0.525322
803 4 0.257054 0.367863 0.53561
930 4 0.333626 0.38833 0.572324
928 2 0.336788 0.380632 0.548746
929 4 0.339951 0.372934 0.525168
925 2 0.460657 0.405159 0.516384
927 4 0.480668 0.390623 0.52005
926 4 0.440646 0.419695 0.512718
3309 4 0.48617 0.40422 0.5551
934 2 0.993752 0.449416 0.507587
539 4 0.0931733 0.462461 0.500733
2243 4 0.15548 0.504758 0.565077
538 2 0.0995052 0.484124 0.511495
1161 4 0.157172 0.484482 0.566958
1159 2 0.17043 0.467212 0.579254
882 4 0.310797 0.440701 0.508225
891 4 0.285704 0.453973 0.563039
880 2 0.326478 0.450555 0.525023
889 2 0.306077 0.452097 0.577413
890 4 0.32645 0.450222 0.591787
881 4 0.342159 0.46041 0.541821
1952 4 0.356274 0.472864 0.547926
1951 2 0.368934 0.492097 0.557673
1002 4 0.417389 0.425153 0.567677
1953 4 0.381593 0.51133 0.567421
1000 2 0.434555 0.442886 0.56367
1001 4 0.451721 0.460619 0.559664
945 4 0.0740688 0.999742 0.666415
943 2 0.0781242 0.0227168 0.65742
825 4 0.119234 0.0192281 0.60984
823 2 0.139845 0.00867592 0.619276
1031 4 0.242755 0.06825 0.576638
951 4 0.253092 0.0524373 0.57074
949 2 0.260416 0.0317007 0.582637
1092 4 0.324039 0.0261887 0.648625
808 2 0.48752 0.0769702 0.634954
810 4 0.479804 0.0712716 0.658045
1083 4 0.0545277 0.0947837 0.62948
1082 4 0.0312392 0.116037 0.668295
1081 2 0.0428835 0.10541 0.648888
1155 4 0.146148 0.109082 0.580101
1059 4 0.131919 0.0987386 0.589917
909 4 0.137232 0.121067 0.663177
1284 4 0.162119 0.0782977 0.637876
1282 2 0.17918 0.0735936 0.655539
809 4 0.495235 0.0826688 0.611864
877 2 0.0590511 0.208498 0.587916
879 4 0.0783 0.214427 0.602732
1245 4 0.080918 0.25575 0.641413
1209 4 0.0990752 0.250229 0.646299
1272 4 0.093467 0.217631 0.58971
1270 2 0.113186 0.225057 0.60317
1271 4 0.132906 0.232484 0.61663
1221 4 0.177763 0.178903 0.587508
797 4 0.212227 0.233318 0.61747
1210 2 0.227131 0.188906 0.649197
1212 4 0.202138 0.188604 0.649865
1219 2 0.183146 0.181182 0.611818
1220 4 0.188529 0.183462 0.636129
796 2 0.233261 0.226997 0.605521
947 4 0.173806 0.256038 0.612887
798 4 0.254295 0.220676 0.593571
1211 4 0.252124 0.189207 0.64853
888 4 0.26224 0.188085 0.665409
904 2 0.466965 0.218618 0.582823
906 4 0.450914 0.226956 0.600087
1025 4 0.450934 0.188834 0.65667
1244 4 0.0451529 0.240367 0.61003
1243 2 0.0630354 0.248058 0.625721
946 2 0.187693 0.266098 0.631083
948 4 0.201579 0.276159 0.64928
1064 4 0.215452 0.288656 0.656142
1237 2 0.305595 0.297965 0.598951
1239 4 0.302195 0.318464 0.612858
954 4 0.472228 0.300792 0.569332
952 2 0.471843 0.301738 0.594315
953 4 0.471458 0.302685 0.619298
984 4 0.0470047 0.352393 0.606693
1039 2 0.0713079 0.37498 0.634781
1041 4 0.0530063 0.363859 0.621876
3263 4 0.0353244 0.355628 0.621717
3262 2 0.0134291 0.36297 0.631302
1137 4 0.130339 0.380558 0.589606
1040 4 0.0896095 0.386101 0.647687
897 4 0.141341 0.396841 0.581977
1136 4 0.0808262 0.374722 0.585708
1135 2 0.105582 0.37764 0.587657
991 2 0.125807 0.409051 0.654526
993 4 0.102194 0.402282 0.649858
992 4 0.14942 0.415821 0.659195
896 4 0.190604 0.388259 0.581473
895 2 0.165972 0.39255 0.581725
1029 4 0.234669 0.400637 0.649137
1204 2 0.417737 0.406786 0.663769
1205 4 0.437925 0.398384 0.651642
1171 2 0.214099 0.434848 0.581971
1173 4 0.190278 0.439697 0.57612
1172 4 0.23792 0.43 0.587821
1187 4 0.210036 0.479746 0.606714
1160 4 0.183688 0.449943 0.591549
1186 2 0.212032 0.486812 0.630615
1269 4 0.44958 0.463364 0.643723
944 4 0.0821796 0.0456912 0.648425
1283 4 0.19624 0.0688895 0.673202
1147 2 0.201581 0.0522955 0.742959
1149 4 0.200994 0.0278484 0.737746
1003 2 0.336791 0.0835427 0.709525
1090 2 0.322714 0.0272575 0.673571
1091 4 0.321388 0.0283264 0.698516
1004 4 0.358197 0.0778246 0.721112
1163 4 0.476821 0.0591786 0.673276
1162 2 0.497666 0.0474367 0.68054
42 3 0.442323 0.0594266 0.677009
2320 2 0.500875 0.0145371 0.759958
44 3 0.474849 0.0782209 0.675777
846 4 0.496708 0.0854011 0.749474
1076 4 0.0303348 0.130947 0.682927
864 4 0.05482 0.119456 0.734807
1075 2 0.0478417 0.128127 0.700555
1077 4 0.0653487 0.125307 0.718183
907 2 0.152456 0.130358 0.680701
1148 4 0.202167 0.0767426 0.748172
908 4 0.16768 0.139649 0.698224
1227 4 0.175728 0.128953 0.713562
1225 2 0.188582 0.111805 0.726443
1226 4 0.201436 0.0946584 0.739324
1005 4 0.315384 0.0892608 0.697938
831 4 0.363931 0.168941 0.688213
1142 4 0.392655 0.16074 0.729345
45 3 0.44232 0.0958104 0.668695
41 1 0.452352 0.0796864 0.681266
43 3 0.450006 0.0846259 0.703816
851 4 0.0750752 0.175484 0.71543
852 4 0.0319549 0.193847 0.69799
850 2 0.0535151 0.184665 0.70671
1213 2 0.0068211 0.220929 0.752486
1107 4 0.0904704 0.162739 0.720024
1105 2 0.104518 0.176158 0.735766
1207 2 0.10717 0.239082 0.667165
1208 4 0.115265 0.227934 0.688031
1106 4 0.118565 0.189576 0.751507
1130 4 0.182129 0.207573 0.722302
1129 2 0.184491 0.224578 0.740481
830 4 0.315536 0.170398 0.700725
886 2 0.282679 0.186494 0.679724
887 4 0.303118 0.184903 0.694038
976 2 0.303671 0.199212 0.731703
978 4 0.307253 0.182956 0.713046
1193 4 0.373007 0.248618 0.686366
829 2 0.339733 0.16967 0.694469
1192 2 0.37337 0.225504 0.695895
1194 4 0.373733 0.20239 0.705425
1141 2 0.411086 0.17701 0.72479
1298 4 0.359408 0.215896 0.749748
1024 2 0.446852 0.191429 0.681201
1143 4 0.429517 0.193281 0.720234
1026 4 0.44277 0.194025 0.705732
1261 2 0.449053 0.227982 0.723033
1262 4 0.434842 0.210307 0.712506
3357 4 0.508812 0.240514 0.705373
3122 4 0.500765 0.246517 0.688319
820 2 0.18957 0.278752 0.740536
821 4 0.182974 0.300561 0.730239
1065 4 0.230423 0.283987 0.703626
1063 2 0.222937 0.286322 0.679884
822 4 0.196166 0.256943 0.750833
3123 4 0.461951 0.274532 0.673851
1263 4 0.463265 0.245656 0.73356
3121 2 0.481358 0.260525 0.681085
3274 2 0.00810028 0.393154 0.739274
892 2 0.0506418 0.360982 0.712053
893 4 0.0540938 0.346246 0.69215
894 4 0.0471898 0.375717 0.731956
3276 4 0.0305894 0.382228 0.739465
816 4 0.047721 0.38637 0.748098
940 2 0.132123 0.384152 0.742929
941 4 0.151696 0.385983 0.727478
1067 4 0.159886 0.402684 0.717458
1066 2 0.173476 0.417545 0.702637
1027 2 0.219526 0.412552 0.665073
806 4 0.307079 0.342712 0.685165
805 2 0.329787 0.338538 0.694763
1139 4 0.258963 0.410417 0.695923
807 4 0.352494 0.334364 0.70436
1019 4 0.396211 0.376515 0.740203
1281 4 0.0449092 0.468201 0.732287
1280 4 0.0698857 0.463631 0.689205
1279 2 0.0573975 0.465916 0.710746
1983 4 0.0313803 0.482904 0.726971
1981 2 0.0256746 0.490604 0.750065
1028 4 0.204383 0.424466 0.681008
1068 4 0.187066 0.432406 0.687817
1175 4 0.210851 0.503997 0.673268
1176 4 0.244829 0.48971 0.707063
1174 2 0.22784 0.496854 0.690166
1138 2 0.271496 0.428465 0.707854
1140 4 0.284029 0.446513 0.719786
1987 2 0.334986 0.48971 0.743863
1206 4 0.39755 0.415188 0.675896
1228 2 0.374989 0.457215 0.718734
1229 4 0.360061 0.477207 0.717101
1230 4 0.389916 0.437223 0.720368
1989 4 0.347247 0.490296 0.72208
1267 2 0.449646 0.481665 0.660761
1101 4 0.464672 0.429538 0.698412
1100 4 0.4312 0.465609 0.707312
1099 2 0.447936 0.447574 0.702862
1294 2 0.0363617 0.00408965 0.798915
911 4 0.0538865 0.0732136 0.816502
1296 4 0.046615 0.00767673 0.821436
910 2 0.0716503 0.0814384 0.832058
1203 4 0.11637 0.066209 0.750655
1201 2 0.115787 0.0473341 0.767043
1202 4 0.115205 0.0284593 0.783431
2049 4 0.111603 0.00967567 0.789692
1257 4 0.249422 0.0382289 0.808187
1255 2 0.25822 0.0608555 0.814171
1256 4 0.267018 0.0834821 0.820156
975 4 0.377784 0.0110948 0.832223
1113 4 0.411312 0.0181411 0.80336
1111 2 0.407692 0.0356324 0.820857
844 2 0.47373 0.0755412 0.74958
845 4 0.450753 0.0656812 0.749687
2322 4 0.51418 0.0346311 0.766621
862 2 0.0544708 0.119481 0.759808
863 4 0.0541216 0.119506 0.784809
832 2 0.0141491 0.108814 0.801179
833 4 0.0349374 0.115343 0.788915
34 3 0.0786043 0.154181 0.819386
31 1 0.0963684 0.169107 0.81965
33 3 0.114677 0.159445 0.830132
839 4 0.219104 0.120319 0.808524
838 2 0.238955 0.109876 0.819571
840 4 0.258807 0.0994331 0.830619
1086 4 0.326103 0.148172 0.798693
1084 2 0.343415 0.143073 0.815999
1085 4 0.360728 0.137974 0.833304
3269 4 0.500115 0.14783 0.770307
3468 4 0.485596 0.163396 0.826662
1214 4 0.0217058 0.212679 0.770804
35 3 0.101845 0.175046 0.798357