ITEM: TIMESTEP
2040000
ITEM: NUMBER OF ATOMS
4590
ITEM: BOX BOUNDS pp pp pp
-9.9985700000000008e+00 9.9985700000000008e+00
-9.9985700000000008e+00 9.9985700000000008e+00
-9.9985700000000008e+00 9.9985700000000008e+00
ITEM: ATOMS id type xs ys zs
701 4 0.0841074 0.0458041 0.00692293
465 4 0.0779585 0.0624468 0.015878
463 2 0.0625241 0.0805798 0.0235038
700 2 0.108098 0.0438675 0.0136951
702 4 0.132089 0.0419309 0.0204673
566 4 0.141897 0.0468288 0.0359914
565 2 0.158178 0.0652611 0.0405023
2264 4 0.2567 0.0128811 0.0347551
2263 2 0.268898 0.018956 0.0137913
746 4 0.468855 0.0559707 0.0256353
2469 4 0.484123 0.0514835 0.0392069
2467 2 0.491131 0.0278022 0.0431145
2468 4 0.498139 0.00412094 0.047022
464 4 0.0470897 0.0987128 0.0311295
590 4 0.0314733 0.0934604 0.0412229
589 2 0.015776 0.0984299 0.0600399
591 4 7.87064e-05 0.103399 0.0788568
567 4 0.174459 0.0836934 0.0450133
558 4 0.317422 0.117399 0.0600023
556 2 0.330059 0.11237 0.0809836
865 2 0.345883 0.164597 0.00916775
771 4 0.495693 0.122484 0.0652196
769 2 0.495417 0.14724 0.0687177
554 4 0.056875 0.214646 0.0551462
553 2 0.0684844 0.219872 0.0336267
555 4 0.0800937 0.225099 0.0121073
835 2 0.119901 0.209604 0.0168137
836 4 0.0998451 0.224517 0.0160671
738 4 0.153443 0.181529 0.0762477
837 4 0.139957 0.194692 0.0175602
664 2 0.335539 0.218736 0.044986
665 4 0.330934 0.20017 0.0288832
666 4 0.340144 0.237301 0.0610888
461 4 0.350194 0.25001 0.0709952
867 4 0.336887 0.182698 0.0238853
1070 4 0.45326 0.21522 0.0369997
1069 2 0.438932 0.234825 0.0429603
1014 4 0.503332 0.186758 0.0835097
770 4 0.495141 0.171996 0.0722159
2806 2 0.00855454 0.30301 0.0369707
2808 4 0.0315403 0.311374 0.0317863
294 4 0.0866724 0.316144 0.0451805
292 2 0.111608 0.316827 0.0468862
507 4 0.153446 0.306356 0.0508427
293 4 0.136544 0.31751 0.0485918
505 2 0.170898 0.322305 0.0427033
506 4 0.18835 0.338254 0.0345639
356 4 0.312643 0.306137 0.0359546
572 4 0.310185 0.287136 0.0319201
571 2 0.322113 0.271635 0.0474965
573 4 0.33404 0.256133 0.0630729
355 2 0.304021 0.327353 0.0259196
1071 4 0.424604 0.25443 0.0489209
324 4 0.434466 0.268389 0.0589822
322 2 0.433159 0.293345 0.0581503
323 4 0.431852 0.3183 0.0573185
647 4 0.0154852 0.360415 0.0679724
646 2 0.0389911 0.367089 0.0732736
648 4 0.062497 0.373764 0.0785747
483 4 0.204724 0.349546 0.0332192
481 2 0.223013 0.365491 0.0271806
609 4 0.250106 0.398698 0.0286024
482 4 0.241301 0.381437 0.021142
625 2 0.215784 0.406146 0.0681676
626 4 0.201259 0.387769 0.0769135
607 2 0.268362 0.414456 0.0220033
357 4 0.295398 0.348569 0.0158845
902 4 0.290944 0.366733 0.0100085
957 4 0.381593 0.388604 0.0224995
955 2 0.378012 0.37445 0.0022016
672 4 0.423577 0.334453 0.0650795
670 2 0.442607 0.350405 0.0680073
281 4 0.470204 0.384325 0.0718258
671 4 0.461637 0.366357 0.0709352
2651 4 0.480433 0.368788 0.0768157
280 2 0.469511 0.408793 0.0667225
552 4 0.106811 0.462963 0.0776276
1787 4 0.116949 0.477563 0.0719018
1786 2 0.113816 0.489348 0.0500735
246 4 0.235767 0.481555 0.0321034
244 2 0.235594 0.462018 0.0477062
245 4 0.23542 0.44248 0.063309
627 4 0.230309 0.424523 0.0594217
272 4 0.247998 0.480504 0.0173365
608 4 0.286619 0.430215 0.0154043
252 4 0.299945 0.446223 0.015626
250 2 0.321058 0.459587 0.0165365
1778 4 0.251502 0.493203 0.0319681
251 4 0.342171 0.47295 0.017447
525 4 0.396976 0.488713 0.0454674
2289 4 0.339721 0.490936 0.00935633
282 4 0.468818 0.43326 0.0616192
226 2 0.483741 0.472114 0.0463402
228 4 0.485842 0.495997 0.0392429
227 4 0.48164 0.448231 0.0534375
16 1 0.0704271 0.0448564 0.136867
20 3 0.0550646 0.0442865 0.120064
1806 4 0.0641753 0.0045606 0.149129
18 3 0.0719655 0.0239903 0.146899
19 3 0.0643558 0.0607858 0.152608
380 4 0.0544406 0.0763103 0.143981
17 3 0.0909708 0.0504557 0.128163
673 2 0.121488 0.0483776 0.158217
675 4 0.100673 0.044788 0.144836
448 2 0.165839 0.0823946 0.159454
484 2 0.359577 0.0174632 0.118765
295 2 0.359966 0.0723934 0.103537
297 4 0.360715 0.0476696 0.0998822
485 4 0.350813 0.0407199 0.116028
379 2 0.0460759 0.0887007 0.164023
579 4 0.0910077 0.105715 0.0959821
237 4 0.139885 0.139757 0.118543
578 4 0.120395 0.140149 0.117229
577 2 0.105702 0.122932 0.106605
476 4 0.12931 0.150822 0.131059
737 4 0.130436 0.156099 0.112644
235 2 0.157795 0.123169 0.123949
475 2 0.119624 0.166497 0.14796
692 4 0.23972 0.0997041 0.13154
236 4 0.175706 0.106581 0.129356
693 4 0.190939 0.104738 0.141329
449 4 0.172424 0.103523 0.147817
691 2 0.215329 0.102221 0.136435
582 4 0.246507 0.094275 0.149491
557 4 0.342695 0.107341 0.101965
296 4 0.359216 0.0971171 0.107191
736 2 0.141939 0.168814 0.0944458
477 4 0.109938 0.182172 0.164862
283 2 0.324399 0.209156 0.12853
354 4 0.328036 0.247195 0.134081
285 4 0.313705 0.186589 0.127287
284 4 0.335093 0.231723 0.129773
462 4 0.3371 0.24531 0.119028
460 2 0.343647 0.24766 0.0950117
255 4 0.345452 0.245082 0.134447
311 4 0.446826 0.164853 0.12539
310 2 0.44626 0.180861 0.144588
312 4 0.445693 0.19687 0.163787
455 4 0.108842 0.328306 0.101307
352 2 0.309168 0.259613 0.144804
353 4 0.290301 0.272031 0.155527
754 2 0.280969 0.305341 0.143302
755 4 0.278804 0.287086 0.160251
278 4 0.278684 0.270527 0.171066
756 4 0.283134 0.323596 0.126354
612 4 0.27933 0.325779 0.10721
254 4 0.387664 0.256841 0.158542
253 2 0.366558 0.250961 0.146494
765 4 0.403523 0.259764 0.168786
456 4 0.0707727 0.35685 0.0859224
454 2 0.0898075 0.342578 0.0936145
611 4 0.237506 0.349724 0.0938623
537 4 0.220854 0.339794 0.0953441
535 2 0.204469 0.358415 0.0921869
536 4 0.188083 0.377036 0.0890296
610 2 0.258418 0.337751 0.100536
741 4 0.383276 0.363917 0.101946
739 2 0.386174 0.375322 0.124008
740 4 0.389072 0.386728 0.146069
15 3 0.377796 0.378886 0.159887
385 2 0.355381 0.410315 0.152951
386 4 0.376998 0.398068 0.155763
495 4 0.39692 0.401819 0.155309
551 4 0.0613339 0.448224 0.0923015
1465 2 0.0167351 0.470084 0.0926007
1466 4 0.0341379 0.485025 0.102556
1791 4 0.0326524 0.496057 0.117832
550 2 0.0840724 0.455594 0.0849646
242 4 0.109588 0.478504 0.089524
241 2 0.122507 0.491654 0.106417
637 2 0.220032 0.483108 0.163624
767 4 0.245613 0.479283 0.13554
1439 4 0.180418 0.495107 0.167415
638 4 0.240469 0.4735 0.15289
303 4 0.299132 0.463328 0.135272
766 2 0.266275 0.466758 0.129107
768 4 0.286937 0.454233 0.122674
301 2 0.318675 0.451752 0.145723
493 2 0.409949 0.420591 0.145159
387 4 0.333764 0.422561 0.150139
302 4 0.338219 0.440175 0.156174
494 4 0.422979 0.439364 0.13501
660 4 0.435916 0.453425 0.139452
658 2 0.443325 0.470392 0.156257
450 4 0.159254 0.0612666 0.171091
674 4 0.142302 0.0519672 0.171598
1505 4 0.158561 0.0440906 0.180146
1504 2 0.167824 0.0319004 0.199914
689 4 0.186555 0.00188192 0.219077
1506 4 0.177088 0.0197103 0.219682
652 2 0.307076 0.0384121 0.171643
654 4 0.308245 0.0139139 0.166779
653 4 0.305907 0.0629102 0.176506
22 3 0.392487 0.0193807 0.208429
21 1 0.404252 0.0138618 0.22741
23 3 0.393449 0.0229314 0.245834
757 2 0.43903 0.0578065 0.210803
25 3 0.42536 0.0222698 0.225862
759 4 0.438313 0.0334211 0.216282
350 4 0.443739 0.025273 0.232708
349 2 0.462937 0.0215972 0.2483
512 4 0.0450963 0.118929 0.177313
381 4 0.0377112 0.101091 0.184065
511 2 0.0574341 0.135823 0.191008
513 4 0.069772 0.152717 0.204703
580 2 0.263465 0.101341 0.166452
581 4 0.280423 0.108407 0.183413
30 3 0.284175 0.127732 0.181461
26 1 0.29148 0.145651 0.193469
27 3 0.277671 0.148759 0.211602
28 3 0.290975 0.164746 0.180296
29 3 0.313073 0.141828 0.201053
758 4 0.439748 0.0821919 0.205324
521 4 0.463022 0.137623 0.229563
520 2 0.484048 0.150141 0.224428
337 2 0.0732557 0.188695 0.176373
339 4 0.0497202 0.181778 0.181211
338 4 0.0967912 0.195612 0.171534
363 4 0.115434 0.199526 0.167928
362 4 0.132717 0.237804 0.195072
361 2 0.124075 0.218665 0.1815
372 4 0.150908 0.228489 0.202227
370 2 0.165766 0.242865 0.21629
723 4 0.238599 0.199519 0.250092
628 2 0.413785 0.22178 0.166897
630 4 0.399159 0.241462 0.162011
629 4 0.428412 0.202098 0.171782
750 4 0.06355 0.305947 0.210386
395 4 0.0492742 0.300157 0.223847
748 2 0.0743866 0.30358 0.187978
394 2 0.0358273 0.291604 0.243114
749 4 0.0852231 0.301212 0.165569
300 4 0.155429 0.308032 0.211038
298 2 0.140639 0.317262 0.228961
299 4 0.125849 0.326492 0.246884
371 4 0.180624 0.257241 0.230353
279 4 0.231612 0.273572 0.187668
401 4 0.229239 0.288603 0.242284
277 2 0.255148 0.272049 0.179367
307 2 0.310125 0.277716 0.208045
309 4 0.319011 0.257364 0.196556
308 4 0.301238 0.298069 0.219533
497 4 0.294205 0.312939 0.231196
496 2 0.284859 0.326213 0.250213
763 2 0.416344 0.27718 0.181335
764 4 0.429166 0.294596 0.193884
623 4 0.44019 0.31034 0.20115
622 2 0.464682 0.305822 0.203369
624 4 0.489173 0.301304 0.205589
262 2 0.0541071 0.399386 0.223554
263 4 0.0673233 0.379035 0.217526
602 4 0.0740039 0.361144 0.222965
601 2 0.0908948 0.347459 0.235318
603 4 0.107786 0.333774 0.247671
290 4 0.167647 0.365503 0.190674
289 2 0.171951 0.389965 0.193547
291 4 0.176255 0.414427 0.196421
14 3 0.407272 0.398825 0.172187
11 1 0.393465 0.380641 0.176321
12 3 0.406251 0.361522 0.176671
13 3 0.383084 0.383101 0.196927
2860 2 0.456685 0.40014 0.249129
2861 4 0.434424 0.404392 0.238569
264 4 0.040891 0.419737 0.229583
2618 4 0.0254069 0.429274 0.237462
2617 2 0.00362672 0.421476 0.246948
639 4 0.199595 0.492715 0.174357
416 4 0.174948 0.433194 0.205069
415 2 0.177522 0.457757 0.20117
1430 4 0.179289 0.497686 0.210276
417 4 0.180097 0.48232 0.197271
713 4 0.354631 0.500374 0.224412
659 4 0.450734 0.487359 0.173062
595 2 0.484061 0.482253 0.194933
596 4 0.464906 0.494535 0.184569
231 4 0.446567 0.500766 0.186743
232 2 0.00588552 0.0554815 0.292231
1799 4 0.0229258 0.0212224 0.300828
233 4 0.0116649 0.031458 0.288404
1402 2 0.0520295 0.0254028 0.27269
1403 4 0.0308269 0.0293382 0.285344
1798 2 0.0149097 0.00946449 0.321387
1404 4 0.073232 0.0214674 0.260035
1479 4 0.149983 0.0017512 0.310901
633 4 0.379501 0.0417341 0.316046
631 2 0.377773 0.0542333 0.294459
632 4 0.376046 0.0667326 0.272873
257 4 0.37514 0.0571993 0.327291
698 4 0.361391 0.044186 0.323817
744 4 0.48068 0.0090709 0.279484
742 2 0.492548 0.0209596 0.298004
351 4 0.482135 0.0179213 0.263892
478 2 0.484477 0.0638178 0.330364
399 4 0.0606545 0.102735 0.329824
397 2 0.0766474 0.120463 0.322399
317 4 0.041785 0.105884 0.334091
545 4 0.137584 0.150231 0.247393
398 4 0.0926404 0.138191 0.314974
393 4 0.0923157 0.139015 0.296187
392 4 0.130439 0.146778 0.264769
390 4 0.0877076 0.154764 0.306182
391 2 0.111378 0.142897 0.280478
544 2 0.159051 0.159689 0.256047
249 4 0.218202 0.150167 0.333274
404 4 0.20386 0.157992 0.322455
444 4 0.0141551 0.230364 0.279174
388 2 0.074453 0.174878 0.312885
389 4 0.0611984 0.194991 0.319588
721 2 0.215203 0.192213 0.255037
403 2 0.197719 0.168082 0.300417
405 4 0.191579 0.178172 0.278379
546 4 0.180518 0.169147 0.264701
722 4 0.191808 0.184907 0.259981
378 4 0.290846 0.239962 0.330594
420 4 0.405787 0.222709 0.258887
717 4 0.401779 0.242997 0.263142
331 2 0.46493 0.197866 0.309524
332 4 0.465609 0.200298 0.284648
418 2 0.428206 0.215775 0.267519
419 4 0.450624 0.20884 0.276151
760 2 0.490774 0.214978 0.26083
762 4 0.467986 0.206482 0.266636
442 2 0.0145633 0.255361 0.279572
396 4 0.0223804 0.283051 0.26238
443 4 0.0149715 0.280359 0.27997
365 4 0.00808612 0.294845 0.268429
677 4 0.132656 0.328884 0.317176
676 2 0.156814 0.330731 0.323354
733 2 0.121987 0.331775 0.279233
735 4 0.122089 0.320824 0.30171
510 4 0.233476 0.298201 0.308403
508 2 0.216037 0.311761 0.320116
400 2 0.229221 0.288238 0.267285
402 4 0.229204 0.287873 0.292286
509 4 0.198599 0.325322 0.331828
345 4 0.244981 0.283074 0.303107
343 2 0.264421 0.269294 0.310681
344 4 0.283862 0.255514 0.318255
715 2 0.392907 0.255533 0.282873
716 4 0.384035 0.268068 0.302605
542 4 0.38835 0.287461 0.295154
541 2 0.384217 0.310121 0.304881
547 2 0.0192455 0.385008 0.311991
548 4 0.999337 0.372979 0.321165
549 4 0.0391535 0.397037 0.302817
777 4 0.0537398 0.409372 0.300152
407 4 0.0113386 0.357102 0.324565
734 4 0.121885 0.342726 0.256755
678 4 0.180971 0.332578 0.329531
498 4 0.275514 0.339486 0.26923
543 4 0.380083 0.332781 0.314608
728 4 0.362773 0.383923 0.273567
615 4 0.385767 0.349052 0.325208
727 2 0.369476 0.402684 0.288676
613 2 0.408018 0.360408 0.326261
2862 4 0.478947 0.395888 0.25969
2537 4 0.498133 0.390887 0.26706
2538 4 0.484011 0.370979 0.310705
2536 2 0.491072 0.380933 0.288883
753 4 0.47775 0.352754 0.307983
751 2 0.487209 0.344188 0.329485
775 2 0.069397 0.425229 0.311491
776 4 0.0850542 0.441086 0.322831
414 4 0.0989642 0.455513 0.325709
412 2 0.112312 0.476386 0.329076
413 4 0.12566 0.497259 0.332442
438 4 0.33505 0.468437 0.311962
436 2 0.351473 0.449932 0.315569
729 4 0.376179 0.421445 0.303785
437 4 0.367897 0.431427 0.319175
1773 4 0.0126056 0.998706 0.360114
1771 2 0.0227111 0.014681 0.37648
1772 4 0.0328167 0.0306558 0.392847
732 4 0.0634715 0.0626252 0.380421
2238 4 0.0183938 0.0432903 0.39715
730 2 0.057255 0.0758602 0.360139
367 2 0.0800613 0.0368938 0.397039
368 4 0.0787873 0.0183579 0.413771
369 4 0.0813353 0.0554297 0.380306
1701 4 0.159936 0.0755346 0.383589
697 2 0.354135 0.0213076 0.330824
256 2 0.385719 0.0619727 0.349438
258 4 0.396297 0.066746 0.371585
426 4 0.384606 0.0711291 0.388209
424 2 0.375119 0.0579327 0.40721
480 4 0.464307 0.0764843 0.337973
1428 4 0.463865 0.00927002 0.408675
318 4 0.0123365 0.133018 0.364045
458 4 0.0102884 0.151012 0.372602
731 4 0.0510384 0.0890951 0.339857
316 2 0.0270608 0.119451 0.349068
604 2 0.132088 0.103109 0.406649
605 4 0.149303 0.0893024 0.394894
606 4 0.114872 0.116916 0.418404
247 2 0.210908 0.127798 0.341736
248 4 0.203614 0.105429 0.350199
1699 2 0.172322 0.0917633 0.369153
1700 4 0.184708 0.107992 0.354717
600 4 0.239539 0.153896 0.392745
683 4 0.254898 0.140676 0.397468
682 2 0.275382 0.129757 0.406761
319 2 0.329437 0.128264 0.40191
708 4 0.335537 0.150115 0.369116
321 4 0.343707 0.138563 0.384147
2642 4 0.496974 0.0973989 0.355895
516 4 0.436099 0.137481 0.358602
575 4 0.449412 0.123949 0.36741
574 2 0.453019 0.121958 0.392072
514 2 0.444989 0.159704 0.351372
576 4 0.456627 0.119968 0.416734
598 2 0.234881 0.172231 0.409094
376 2 0.288963 0.216785 0.339785
377 4 0.287079 0.193608 0.348976
707 4 0.305396 0.187944 0.356418
474 4 0.265409 0.231175 0.408291
706 2 0.320466 0.169029 0.362767
488 4 0.284695 0.225283 0.405594
466 2 0.350587 0.210112 0.419277
468 4 0.35165 0.235046 0.417754
333 4 0.46425 0.195435 0.334399
515 4 0.453879 0.181928 0.344143
453 4 0.46541 0.195032 0.353729
451 2 0.48416 0.208348 0.363543
347 4 0.071557 0.326642 0.389938
408 4 0.0106257 0.319621 0.357662
618 4 0.0829831 0.310539 0.391589
275 4 0.134704 0.306805 0.370723
617 4 0.121813 0.320565 0.361715
616 2 0.102398 0.315552 0.376652
274 2 0.157625 0.311824 0.37936
473 4 0.235281 0.267406 0.391547
374 4 0.229217 0.27863 0.37508
276 4 0.180547 0.316842 0.387997
373 2 0.211305 0.29175 0.386578
375 4 0.193393 0.30487 0.398076
472 2 0.250345 0.24929 0.399919
267 4 0.345482 0.248462 0.405647
561 4 0.50074 0.324115 0.367766
752 4 0.496668 0.335622 0.350987
346 2 0.0597555 0.336579 0.409614
406 2 0.0109822 0.338362 0.341113
435 4 0.193601 0.342076 0.339822
433 2 0.190056 0.366159 0.345536
434 4 0.186511 0.390241 0.351251
502 2 0.29138 0.390627 0.390107
503 4 0.308782 0.408543 0.388951
336 4 0.327199 0.407472 0.383203
504 4 0.273978 0.37271 0.391264
334 2 0.351345 0.401464 0.385658
335 4 0.375492 0.395456 0.388113
240 4 0.377815 0.407239 0.404608
614 4 0.430269 0.371764 0.327315
669 4 0.322951 0.422096 0.394257
667 2 0.316612 0.443274 0.40594
3990 4 0.466398 0.490899 0.342304
1127 4 0.00748775 0.0641003 0.459789
2237 4 0.0189566 0.0604689 0.44411
2236 2 0.0186752 0.0518796 0.42063
720 4 0.0265949 0.0632748 0.461206
718 2 0.0437709 0.0811996 0.464184
1782 4 0.0946513 0.021733 0.424305
724 2 0.294284 0.0370874 0.471647
726 4 0.296118 0.058159 0.458313
725 4 0.29245 0.0160158 0.484981
1182 4 0.311254 0.067084 0.448105
1579 2 0.356636 0.0116075 0.429617
1580 4 0.37434 0.0274229 0.421767
425 4 0.365632 0.0447363 0.426211
642 4 0.465667 0.0783403 0.457559
2878 2 0.46648 0.0525266 0.490643
2880 4 0.460469 0.0620231 0.468308
719 4 0.0609469 0.0991243 0.467162
1033 2 0.129867 0.132816 0.483056
1035 4 0.143756 0.147232 0.468074
261 4 0.147964 0.152875 0.449904
320 4 0.315168 0.117966 0.419672
684 4 0.295866 0.118838 0.416054
1180 2 0.306588 0.0905957 0.440991
1181 4 0.301922 0.114107 0.433877
640 2 0.457031 0.098694 0.445883
641 4 0.448395 0.119048 0.434207
306 4 0.44935 0.13646 0.425463
304 2 0.449367 0.156408 0.440538
3157 2 0.475829 0.162796 0.488592
470 4 0.0240887 0.171331 0.49898
259 2 0.155795 0.176575 0.448428
694 2 0.159529 0.221021 0.48263
696 4 0.149361 0.232325 0.50248
260 4 0.163626 0.200275 0.446953
1259 4 0.0843594 0.226273 0.494254
599 4 0.230223 0.190567 0.425442
695 4 0.169698 0.209718 0.46278
687 4 0.231276 0.202687 0.441806
686 4 0.181944 0.208413 0.447662
685 2 0.20661 0.20555 0.444734
411 4 0.239937 0.215605 0.471577
489 4 0.27601 0.177262 0.416514
487 2 0.280353 0.201272 0.411054
409 2 0.25977 0.214002 0.486719
467 4 0.349524 0.185177 0.420799
3158 4 0.460613 0.168811 0.469686
305 4 0.449384 0.176356 0.455613
813 4 0.228008 0.29282 0.490432
265 2 0.352206 0.268107 0.419576
266 4 0.35893 0.287753 0.433504
585 4 0.487185 0.252739 0.450201
583 2 0.48348 0.260406 0.47371
2456 4 0.486521 0.287704 0.490803
584 4 0.479774 0.268074 0.497219
348 4 0.0479539 0.346516 0.42929
2812 2 0.0171107 0.351796 0.438806
2813 4 0.0391638 0.362948 0.435
326 4 0.0587747 0.362596 0.431209
325 2 0.0737177 0.377293 0.444843
10 3 0.132632 0.369093 0.459526
327 4 0.0886606 0.391989 0.458477
7 3 0.0976359 0.376533 0.470147
6 1 0.119004 0.372231 0.4775
711 4 0.143654 0.399819 0.49859
8 3 0.12642 0.39032 0.489997
9 3 0.118707 0.353111 0.490644
709 2 0.166458 0.399913 0.488335
774 4 0.208186 0.398354 0.475995
635 4 0.198247 0.413934 0.468727
772 2 0.225195 0.393702 0.493723
710 4 0.189261 0.400008 0.47808
587 4 0.397977 0.415507 0.503932
681 4 0.0847612 0.431707 0.489997
1383 4 0.0522719 0.473209 0.455599
1381 2 0.0550687 0.49445 0.442708
680 4 0.0558464 0.452714 0.45502
679 2 0.0703038 0.44221 0.472508
636 4 0.195434 0.446812 0.431152
634 2 0.19684 0.430373 0.44994
4 3 0.323274 0.480436 0.422487
5 3 0.292813 0.483772 0.444365
1 1 0.310958 0.49471 0.436013
668 4 0.310272 0.464452 0.417623
588 4 0.388871 0.425018 0.45569
239 4 0.395687 0.436404 0.441087
238 2 0.386751 0.421821 0.422848
586 2 0.393424 0.420263 0.479811
3077 4 0.0117387 0.00833266 0.532406
1183 2 0.0163706 0.995689 0.56824
1184 4 0.00603758 0.0112457 0.551615
1150 2 0.154146 0.0672402 0.546033
342 4 0.14557 0.0390456 0.518933
1152 4 0.147771 0.0571707 0.524053
340 2 0.160353 0.0190914 0.516022
1151 4 0.160521 0.0773098 0.568013
341 4 0.175136 0.999137 0.513112
430 2 0.315802 0.00259963 0.514962
843 4 0.325013 0.00796913 0.544614
432 4 0.295672 0.0048686 0.500306
842 4 0.35117 0.0231779 0.584429
841 2 0.338092 0.0155735 0.564521
2879 4 0.472492 0.0430301 0.512978
879 4 0.0769574 0.144896 0.555871
877 2 0.0532383 0.137359 0.558276
1199 4 0.0140134 0.141675 0.559259
878 4 0.0295193 0.129823 0.560682
938 4 0.0926951 0.155488 0.549489
937 2 0.0992657 0.144189 0.528174
1272 4 0.0845805 0.157717 0.567529
939 4 0.105836 0.132891 0.506859
1034 4 0.115978 0.1184 0.498038
1155 4 0.175022 0.0865378 0.576162
3159 4 0.491046 0.156781 0.507499
1270 2 0.100549 0.172675 0.579631
1258 2 0.108293 0.22355 0.50096
1260 4 0.132226 0.220826 0.507665
898 2 0.283022 0.203077 0.54006
899 4 0.290033 0.204849 0.563995
900 4 0.276012 0.201305 0.516125
410 4 0.279602 0.2124 0.501861
791 4 0.306552 0.207444 0.574833
790 2 0.323346 0.225323 0.569985
857 4 0.28972 0.201677 0.583264
792 4 0.340139 0.243202 0.565136
811 2 0.246394 0.301816 0.504792
812 4 0.26478 0.310813 0.519152
650 4 0.266513 0.312564 0.538134
649 2 0.269888 0.313419 0.562894
804 4 0.265435 0.32811 0.527156
871 2 0.362664 0.27276 0.542886
872 4 0.352638 0.255617 0.558077
1238 4 0.342476 0.260231 0.574225
873 4 0.372689 0.289904 0.527696
2455 2 0.492079 0.308911 0.502826
2457 4 0.497637 0.330118 0.514849
1136 4 0.106202 0.380083 0.571607
897 4 0.168347 0.381075 0.582965
773 4 0.242203 0.38905 0.51145
1190 4 0.242885 0.392531 0.53036
1189 2 0.233672 0.403376 0.550919
1191 4 0.224458 0.41422 0.571479
895 2 0.186624 0.397036 0.576933
896 4 0.204901 0.412998 0.570901
802 2 0.25604 0.351241 0.525797
803 4 0.246644 0.374372 0.524437
930 4 0.259109 0.388557 0.519765
928 2 0.279651 0.402679 0.517825
926 4 0.415612 0.406488 0.508257
925 2 0.428319 0.387382 0.518189
927 4 0.441027 0.368276 0.528122
384 4 0.138585 0.418373 0.502276
382 2 0.114447 0.423786 0.505914
383 4 0.0903084 0.429199 0.509551
569 4 0.140496 0.43728 0.503243
568 2 0.155228 0.457454 0.50217
1172 4 0.213895 0.426947 0.580911
1171 2 0.205289 0.450056 0.585049
570 4 0.169959 0.477629 0.501098
929 4 0.300193 0.416802 0.515885
891 4 0.308222 0.494093 0.520546
1952 4 0.316465 0.476298 0.52417
881 4 0.323946 0.488872 0.510882
1951 2 0.316336 0.451298 0.524544
1953 4 0.316207 0.426298 0.524918
1000 2 0.403308 0.49516 0.562849
663 4 0.412282 0.425031 0.51256
1001 4 0.419824 0.481071 0.550442
661 2 0.417883 0.445825 0.525266
662 4 0.423484 0.466618 0.537972
1911 4 0.42855 0.464368 0.556785
1909 2 0.433186 0.454994 0.579496
1332 4 0.438014 0.477268 0.545187
1330 2 0.458625 0.490274 0.5396
945 4 0.0528396 0.013358 0.658299
2374 2 0.144198 0.00286868 0.590863
1058 4 0.143106 0.0395686 0.615796
2375 4 0.139568 0.0194995 0.60895
1057 2 0.153426 0.0573629 0.601582
1059 4 0.163745 0.0751571 0.587367
950 4 0.242923 0.0433298 0.601813
949 2 0.261087 0.0478905 0.61838
951 4 0.279251 0.0524511 0.634946
1031 4 0.286172 0.0602031 0.653104
1217 4 0.367231 0.0349076 0.583559
1216 2 0.389019 0.0227036 0.584806
1218 4 0.410806 0.0104996 0.586052
43 3 0.42271 0.0808352 0.652308
808 2 0.494157 0.0801891 0.643539
1083 4 0.0207013 0.138221 0.651104
3179 4 0.00289927 0.138884 0.641349
1284 4 0.152472 0.0888081 0.647339
1221 4 0.173293 0.143846 0.608103
1153 2 0.179176 0.109622 0.584824
1154 4 0.18333 0.132707 0.593485
1219 2 0.176219 0.163044 0.623853
1030 2 0.282716 0.0848448 0.65065
1032 4 0.279261 0.109487 0.648196
858 4 0.274629 0.168339 0.617346
810 4 0.47573 0.0805787 0.660436
1209 4 0.0849964 0.215733 0.657594
1245 4 0.0931976 0.21703 0.640104
1271 4 0.116517 0.187632 0.591733
1243 2 0.109104 0.206263 0.624097
1244 4 0.12501 0.195496 0.60809
1210 2 0.215409 0.17328 0.663724
1212 4 0.195142 0.179073 0.650275
1220 4 0.179145 0.182242 0.639603
797 4 0.20836 0.229953 0.608156
796 2 0.200277 0.213332 0.624996
798 4 0.192194 0.19671 0.641836
856 2 0.282174 0.185008 0.600305
905 4 0.471421 0.2516 0.607226
3121 2 0.475535 0.219364 0.629824
3122 4 0.48796 0.202559 0.643551
3357 4 0.497908 0.188793 0.656826
3123 4 0.46311 0.236168 0.616098
983 4 0.0433125 0.304358 0.585887
982 2 0.0423875 0.316657 0.607637
984 4 0.0414625 0.328956 0.629386
3263 4 0.0556506 0.33087 0.643317
651 4 0.273263 0.314274 0.587654
805 2 0.297726 0.311734 0.619381
806 4 0.279651 0.3276 0.612544
807 4 0.3158 0.295867 0.626218
1239 4 0.327023 0.291154 0.610359
1237 2 0.33475 0.275692 0.592292
906 4 0.468712 0.301327 0.611766
904 2 0.470066 0.276464 0.609496
952 2 0.489613 0.323718 0.586596
953 4 0.471816 0.307497 0.593329
1041 4 0.0564323 0.341075 0.626476
1039 2 0.05656 0.366078 0.626575
1040 4 0.0566877 0.391081 0.626674
993 4 0.044054 0.396022 0.611844
991 2 0.0416513 0.415507 0.596361
1135 2 0.128983 0.378749 0.581827
1137 4 0.151763 0.377415 0.592047
1027 2 0.191382 0.414649 0.648219
1028 4 0.174268 0.40315 0.662363
1206 4 0.485353 0.411909 0.614671
3309 4 0.497672 0.396646 0.615054
992 4 0.0392486 0.434992 0.580877
1029 4 0.208496 0.426148 0.634075
1160 4 0.192186 0.490551 0.581508
1173 4 0.196684 0.473164 0.589188
1188 4 0.177423 0.480516 0.648059
1187 4 0.185617 0.485966 0.59903
1186 2 0.18152 0.483241 0.623545
1268 4 0.415076 0.482406 0.652933
2168 4 0.399649 0.496272 0.654302
1267 2 0.421476 0.465462 0.635695
1204 2 0.462768 0.422579 0.61579
1910 4 0.437822 0.44562 0.602208
1269 4 0.427876 0.448518 0.618458
1205 4 0.440182 0.433248 0.616908
943 2 0.0694497 0.999259 0.670567
1296 4 0.00664021 0.0321819 0.737298
1226 4 0.155779 0.0749666 0.73603
1203 4 0.166692 0.0653133 0.74946
1148 4 0.172568 0.0820161 0.743494
1201 2 0.174838 0.0416738 0.749517
1202 4 0.182983 0.0180343 0.749574
1003 2 0.33381 0.0300929 0.691003
1005 4 0.325104 0.0518284 0.682231
1049 4 0.357315 0.000127543 0.690184
1004 4 0.342516 0.00835748 0.699776
45 3 0.432024 0.0554719 0.67853
1162 2 0.48806 0.0695667 0.697256
41 1 0.434959 0.0769769 0.671633
1163 4 0.472503 0.078248 0.679712
44 3 0.457464 0.0810238 0.667688
1077 4 0.0274979 0.102905 0.739553
1081 2 0.0220296 0.117011 0.664278
1075 2 0.033688 0.100195 0.71548
1076 4 0.0398782 0.0974844 0.691407
1082 4 0.0233578 0.0958005 0.677452
864 4 0.0341174 0.122285 0.742074
1282 2 0.140402 0.098165 0.667137
909 4 0.0949436 0.160762 0.696063
907 2 0.104204 0.137546 0.696724
908 4 0.113464 0.11433 0.697384
1283 4 0.128333 0.107522 0.686935
1227 4 0.127269 0.10329 0.70627
1225 2 0.141524 0.0891282 0.72115
888 4 0.254225 0.161096 0.676516
886 2 0.27255 0.160088 0.693497
829 2 0.322383 0.140784 0.725487
830 4 0.298141 0.145616 0.721728
887 4 0.290876 0.159081 0.710477
978 4 0.298976 0.163892 0.728303
831 4 0.346626 0.135953 0.729247
1142 4 0.365425 0.138534 0.725129
1141 2 0.382122 0.156306 0.719604
42 3 0.427603 0.0912792 0.68808
1025 4 0.455916 0.149114 0.703265
3424 2 0.469624 0.118069 0.681611
3426 4 0.470308 0.09555 0.670767
3425 4 0.468941 0.140589 0.692454
3269 4 0.47351 0.151195 0.708995
852 4 0.0381555 0.172377 0.73089
850 2 0.0599463 0.171082 0.718697
780 4 0.0862093 0.247331 0.712123
1214 4 0.0272493 0.164168 0.743465
1213 2 0.0112996 0.183424 0.743524
851 4 0.0817371 0.169787 0.706504
1208 4 0.0902399 0.178812 0.690911
1207 2 0.0876181 0.197272 0.674253
1107 4 0.0996955 0.175883 0.707607
1105 2 0.115543 0.184105 0.725112
1106 4 0.131391 0.192326 0.742617
1130 4 0.14516 0.204556 0.736041
1211 4 0.235676 0.167486 0.677173
976 2 0.293389 0.182602 0.74392
1193 4 0.396064 0.230553 0.674998
1194 4 0.401248 0.192209 0.706678
1192 2 0.398656 0.211381 0.690838
1143 4 0.398819 0.174078 0.71408
1262 4 0.40936 0.187428 0.724245
1026 4 0.416209 0.179175 0.707787
3268 2 0.484659 0.161278 0.728975
1261 2 0.419956 0.196222 0.745115
1024 2 0.436063 0.164145 0.705526
3270 4 0.495809 0.171361 0.748955
3262 2 0.0585384 0.31815 0.664648
3264 4 0.0614262 0.305429 0.68598
779 4 0.0627221 0.287494 0.693795
778 2 0.0744657 0.267412 0.702959
893 4 0.0595601 0.303471 0.704847
892 2 0.0552095 0.318273 0.724523
1065 4 0.233292 0.33426 0.7098
947 4 0.310858 0.262157 0.723147
1063 2 0.252215 0.317939 0.708963
946 2 0.293738 0.274219 0.709488
948 4 0.276617 0.286281 0.695829
1064 4 0.271138 0.301617 0.708126
917 4 0.314012 0.255851 0.741983
1008 4 0.436457 0.271106 0.722893
1006 2 0.439554 0.279622 0.746197
894 4 0.0508588 0.333076 0.744198
1067 4 0.142348 0.390238 0.714422
940 2 0.109406 0.392525 0.737032
941 4 0.12293 0.394632 0.716107
1066 2 0.153884 0.401685 0.69542
1068 4 0.16542 0.413131 0.676418
1019 4 0.389352 0.41325 0.747376
1176 4 0.151162 0.452092 0.701683
1174 2 0.164783 0.4593 0.681993
1175 4 0.178404 0.466508 0.662303
1139 4 0.313122 0.492793 0.71857
1138 2 0.326082 0.476981 0.732966
1140 4 0.339041 0.46117 0.747361
1230 4 0.384055 0.429104 0.738461
1100 4 0.40166 0.420139 0.734384
1228 2 0.369139 0.44671 0.74809
1101 4 0.440621 0.45046 0.726419
1099 2 0.42114 0.4353 0.730401
3330 4 0.459918 0.448705 0.723447
1251 4 0.453105 0.460993 0.737182
3328 2 0.477332 0.458772 0.708595
3329 4 0.494746 0.468839 0.693743
1294 2 0.00865741 0.0112176 0.750775
911 4 0.117034 0.0739611 0.822692
2256 4 0.188391 0.999499 0.750984
2049 4 0.176738 0.00760945 0.764535
1113 4 0.384493 0.0507401 0.834976
2322 4 0.447571 0.0470828 0.768954
2320 2 0.446621 0.0243455 0.779312
846 4 0.465902 0.051027 0.767544
844 2 0.468099 0.0755648 0.771817
862 2 0.0400442 0.122528 0.766363
863 4 0.045971 0.122772 0.790653
833 4 0.0370983 0.127349 0.806659
1125 4 0.0523807 0.137391 0.801575
1123 2 0.0682414 0.154125 0.81125
832 2 0.0345016 0.113021 0.826985
34 3 0.138909 0.159838 0.828254
1147 2 0.190295 0.0971542 0.752536
1149 4 0.208022 0.112292 0.761579
1257 4 0.221858 0.126113 0.770836
1255 2 0.24063 0.125411 0.787337
921 4 0.216232 0.143975 0.809522
919 2 0.201429 0.16401 0.811686
1256 4 0.259402 0.124708 0.803839
840 4 0.263934 0.122176 0.824538
818 4 0.351512 0.110806 0.834377
845 4 0.470296 0.100102 0.776089
1129 2 0.160193 0.217558 0.751211
1124 4 0.0841022 0.170859 0.820924
35 3 0.102202 0.168216 0.828191
822 4 0.176388 0.248307 0.773569
1131 4 0.175225 0.230561 0.766382
1277 4 0.188628 0.234306 0.779299
1276 2 0.192694 0.217498 0.797359
1278 4 0.19676 0.200691 0.815418
1241 4 0.184894 0.195669 0.830028
920 4 0.186626 0.184044 0.813849
916 2 0.300806 0.238087 0.753611
977 4 0.287801 0.201312 0.759537
918 4 0.2876 0.220322 0.765238
1298 4 0.287468 0.205653 0.778358
1297 2 0.299942 0.197412 0.7984
1299 4 0.312417 0.189172 0.818441
1086 4 0.328147 0.198207 0.827424
50 3 0.393276 0.216212 0.781281
46 1 0.410415 0.214208 0.796144
49 3 0.414577 0.234684 0.806235
48 3 0.405115 0.19837 0.812251
47 3 0.429358 0.207425 0.784995
1263 4 0.430553 0.205016 0.765986
1146 4 0.490817 0.185847 0.761624
1145 4 0.447308 0.205393 0.776645
1144 2 0.469062 0.19562 0.769134
1022 4 0.420259 0.189567 0.82246
1043 4 0.418839 0.250658 0.816388
1179 4 0.00359411 0.252212 0.77392
3188 4 0.0227335 0.249094 0.778853
3187 2 0.0314687 0.265503 0.795574
3189 4 0.0402039 0.281913 0.812296
821 4 0.172613 0.289597 0.801526
820 2 0.174501 0.268952 0.787548
1098 4 0.223589 0.317223 0.82195
1235 4 0.218473 0.317142 0.802337
1042 2 0.432239 0.266344 0.802261
1044 4 0.445638 0.28203 0.788134
1007 4 0.44265 0.288138 0.7695
1165 2 0.481492 0.271275 0.780613
1166 4 0.45831 0.27745 0.773568
3276 4 0.0347475 0.333852 0.753826
814 2 0.0684945 0.361452 0.765511
815 4 0.0864525 0.377707 0.771711
3274 2 0.0142367 0.348148 0.754134
816 4 0.0505364 0.345196 0.75931
942 4 0.0958814 0.390417 0.757956