ITEM: TIMESTEP
770000
ITEM: NUMBER OF ATOMS
4590
ITEM: BOX BOUNDS pp pp pp
-9.9985700000000008e+00 9.9985700000000008e+00
-9.9985700000000008e+00 9.9985700000000008e+00
-9.9985700000000008e+00 9.9985700000000008e+00
ITEM: ATOMS id type xs ys zs
463 2 0.0385827 0.0761624 0.0234617
464 4 0.0171776 0.0633508 0.0251551
465 4 0.0599877 0.0889739 0.0217684
701 4 0.0661507 0.0931098 0.0408171
491 4 0.272482 0.00812027 0.0381502
558 4 0.347327 0.0652711 0.0323762
556 2 0.352863 0.065292 0.0567592
745 2 0.470924 0.0506634 0.0108584
746 4 0.482379 0.0414223 0.0310714
589 2 0.02103 0.140221 0.0673886
591 4 0.00971882 0.14198 0.0451593
421 2 0.0819579 0.137129 0.0093265
700 2 0.0870223 0.101637 0.0516267
702 4 0.107894 0.110164 0.0624363
566 4 0.126382 0.111406 0.0574416
565 2 0.14933 0.106666 0.0487176
423 4 0.0873384 0.113001 0.0130747
567 4 0.172277 0.101926 0.0399937
360 4 0.268732 0.145174 0.0204393
358 2 0.273934 0.124377 0.00757057
1013 4 0.488842 0.168813 0.0430205
553 2 0.0456135 0.198469 0.0238469
554 4 0.0332401 0.180751 0.0364234
836 4 0.0764453 0.206219 0.0106485
555 4 0.057987 0.216186 0.0112704
915 4 0.130849 0.229398 0.995387
835 2 0.0988409 0.217235 0.0121467
666 4 0.325889 0.221476 0.0302801
664 2 0.329087 0.203595 0.0130986
573 4 0.323529 0.239948 0.0355603
571 2 0.302656 0.251093 0.0274799
461 4 0.332615 0.226891 0.0473822
460 2 0.346551 0.224289 0.0679787
462 4 0.360486 0.221688 0.0885751
1014 4 0.472736 0.215918 0.0382877
1012 2 0.480789 0.192366 0.0406541
324 4 0.417784 0.251707 0.049681
292 2 0.119755 0.297602 0.0508338
293 4 0.137706 0.28503 0.0628708
294 4 0.101804 0.310174 0.0387969
507 4 0.155635 0.290601 0.0714369
505 2 0.180531 0.292182 0.0731252
355 2 0.243405 0.285257 0.017477
357 4 0.222053 0.298266 0.017625
481 2 0.23781 0.314044 0.081618
356 4 0.264758 0.272249 0.017329
572 4 0.281783 0.262238 0.0193994
482 4 0.262554 0.317602 0.0811223
1069 2 0.414323 0.247487 0.015176
957 4 0.386248 0.318951 0.00442502
1071 4 0.427295 0.241455 0.0356831
322 2 0.429208 0.265643 0.0670146
670 2 0.453714 0.318503 0.0668497
519 4 0.478005 0.262313 0.0669794
323 4 0.440631 0.279579 0.0843483
672 4 0.442036 0.297741 0.0744488
287 4 0.142971 0.342619 0.00448951
455 4 0.131307 0.380873 0.057442
286 2 0.154783 0.363296 0.996866
609 4 0.263958 0.336896 0.0833182
252 4 0.289742 0.39168 0.050932
250 2 0.295736 0.414799 0.0435313
608 4 0.287037 0.377459 0.0653546
607 2 0.275497 0.357178 0.0743364
671 4 0.465391 0.339265 0.0592505
281 4 0.464516 0.359432 0.0579187
280 2 0.474457 0.368619 0.0368958
282 4 0.484398 0.377806 0.0158728
551 4 0.0816035 0.430072 0.0523416
550 2 0.0864937 0.45018 0.0663751
552 4 0.0913838 0.470288 0.0804086
1787 4 0.0998529 0.488744 0.0777769
625 2 0.210443 0.451295 0.0761273
245 4 0.239703 0.475459 0.0807591
626 4 0.185867 0.446869 0.0774112
244 2 0.251286 0.485709 0.0611134
627 4 0.235018 0.455721 0.0748434
251 4 0.301729 0.437918 0.0361307
271 2 0.267202 0.48431 0.00120426
272 4 0.260575 0.4969 0.0217654
525 4 0.367844 0.467264 0.0602821
227 4 0.468524 0.472283 0.0672751
226 2 0.47451 0.457174 0.0862774
16 1 0.0392626 0.0739795 0.147845
17 3 0.0622136 0.0743614 0.146343
18 3 0.0318743 0.0522695 0.14431
1667 4 0.0976355 0.0104819 0.0897619
1804 2 0.0833479 0.999443 0.140417
1506 4 0.237035 0.0245431 0.168162
652 2 0.304214 0.00529436 0.143552
653 4 0.292424 0.0271819 0.146218
557 4 0.358399 0.0653128 0.0811421
296 4 0.368286 0.0564958 0.0960582
295 2 0.365524 0.0341245 0.106878
297 4 0.362761 0.0117531 0.117698
2724 4 0.507594 0.997744 0.159299
20 3 0.0304802 0.087844 0.132056
590 4 0.0323412 0.138462 0.0896179
237 4 0.147054 0.152643 0.165368
235 2 0.160457 0.133015 0.157604
236 4 0.17386 0.113387 0.14984
283 2 0.268945 0.161215 0.142205
284 4 0.288847 0.146136 0.143515
770 4 0.435152 0.141216 0.0708533
769 2 0.452471 0.157383 0.0788451
312 4 0.432776 0.122452 0.158244
337 2 0.0685562 0.229315 0.135257
339 4 0.0462703 0.232012 0.124246
338 4 0.0908421 0.226618 0.146268
476 4 0.139755 0.202589 0.108508
475 2 0.120305 0.207421 0.123459
477 4 0.100856 0.212253 0.138411
737 4 0.155869 0.193057 0.102568
363 4 0.0810157 0.228601 0.164196
738 4 0.192794 0.220488 0.122185
736 2 0.174332 0.206773 0.112377
285 4 0.249043 0.176294 0.140894
354 4 0.316193 0.249227 0.116747
254 4 0.38631 0.19122 0.130341
255 4 0.351517 0.2067 0.0979288
253 2 0.368913 0.19896 0.114135
630 4 0.403637 0.201152 0.125189
771 4 0.469789 0.17355 0.0868369
629 4 0.449719 0.205853 0.144032
628 2 0.426678 0.203502 0.13461
2895 4 0.485023 0.230048 0.120832
518 4 0.487218 0.248476 0.114143
483 4 0.213065 0.310486 0.0821137
506 4 0.205427 0.293762 0.0748135
352 2 0.309045 0.269013 0.130261
353 4 0.301898 0.288799 0.143774
754 2 0.299493 0.331906 0.140206
755 4 0.29636 0.307187 0.142287
278 4 0.284308 0.293399 0.149675
741 4 0.358156 0.346927 0.0768212
517 2 0.482612 0.255394 0.090561
330 4 0.989432 0.398528 0.0698311
620 4 0.0104233 0.342778 0.104777
647 4 0.0249983 0.347988 0.11823
646 2 0.0456285 0.361504 0.122339
648 4 0.0662587 0.37502 0.126448
456 4 0.104746 0.366714 0.0973761
454 2 0.118027 0.373793 0.077409
537 4 0.228281 0.396067 0.156661
535 2 0.208808 0.386689 0.14409
536 4 0.189335 0.377311 0.131519
756 4 0.302626 0.356625 0.138125
612 4 0.284221 0.361143 0.145227
610 2 0.26166 0.370113 0.151206
739 2 0.366245 0.348686 0.100415
387 4 0.330055 0.387931 0.158096
740 4 0.374334 0.350446 0.124008
15 3 0.386059 0.357836 0.13768
385 2 0.348804 0.374329 0.148682
386 4 0.367554 0.360728 0.139267
11 1 0.406975 0.366694 0.136039
14 3 0.405631 0.389653 0.132963
495 4 0.393579 0.404257 0.126058
13 3 0.419102 0.361972 0.155249
12 3 0.417748 0.357388 0.117969
597 4 0.465084 0.422939 0.181686
1467 4 0.0131694 0.459394 0.134141
1465 2 0.0313049 0.475617 0.128387
1791 4 0.060224 0.50142 0.137168
242 4 0.118201 0.485819 0.0829808
241 2 0.140442 0.497074 0.0849394
524 4 0.347865 0.484167 0.102895
523 2 0.357855 0.475715 0.0815886
658 2 0.400595 0.472697 0.15246
493 2 0.390237 0.428588 0.121368
660 4 0.393234 0.467269 0.12919
494 4 0.386895 0.452919 0.116677
228 4 0.480496 0.442066 0.10528
595 2 0.470581 0.447248 0.179677
2480 4 0.000645706 0.0193682 0.179969
1404 4 0.0696084 0.00564064 0.234211
19 3 0.0330116 0.0811259 0.169017
1806 4 0.0759647 0.987033 0.16083
1422 4 0.00182396 0.000590036 0.175065
673 2 0.132292 0.0778061 0.214765
674 4 0.141267 0.0781798 0.238099
675 4 0.123317 0.0774323 0.19143
1504 2 0.213831 0.0334895 0.170755
450 4 0.172753 0.0529901 0.174407
1505 4 0.190627 0.0424359 0.173348
448 2 0.172938 0.0776249 0.170133
688 2 0.199963 0.997873 0.243414
28 3 0.320066 0.0816935 0.242827
758 4 0.399507 0.0766478 0.180849
21 1 0.369681 0.0261454 0.235294
25 3 0.386645 0.0407359 0.231053
759 4 0.387842 0.0389715 0.211591
757 2 0.393675 0.0578096 0.19622
22 3 0.359651 0.0202157 0.215461
24 3 0.37803 0.00704313 0.245483
744 4 0.468338 0.0308316 0.238629
351 4 0.449671 0.0382099 0.238483
349 2 0.435989 0.0589133 0.235426
350 4 0.422307 0.0796167 0.232369
380 4 0.0326112 0.0927571 0.186123
512 4 0.0284146 0.151872 0.189833
379 2 0.0341809 0.116167 0.194766
381 4 0.0357506 0.139576 0.203409
579 4 0.0837852 0.096542 0.180966
577 2 0.0939646 0.118434 0.174463
578 4 0.104144 0.140327 0.167961
449 4 0.173123 0.10226 0.165858
693 4 0.187744 0.114783 0.16457
691 2 0.211938 0.118785 0.169452
692 4 0.236131 0.122787 0.174334
723 4 0.20566 0.125319 0.214101
721 2 0.200274 0.141593 0.232303
722 4 0.194889 0.157867 0.250506
582 4 0.247683 0.124341 0.190579
580 2 0.270049 0.115965 0.197981
581 4 0.292415 0.10759 0.205382
30 3 0.310312 0.103015 0.213366
26 1 0.321465 0.102769 0.23322
27 3 0.343606 0.107806 0.229535
310 2 0.432554 0.128723 0.182447
311 4 0.432331 0.134995 0.20665
511 2 0.0420972 0.17204 0.195419
513 4 0.0557798 0.192208 0.201006
362 4 0.114973 0.233444 0.200585
361 2 0.0979944 0.231023 0.182391
372 4 0.128351 0.218973 0.196064
370 2 0.141204 0.218225 0.217499
371 4 0.154057 0.217478 0.238933
763 2 0.359795 0.232689 0.182027
765 4 0.343585 0.222786 0.165769
520 2 0.49064 0.211402 0.229452
521 4 0.469163 0.223388 0.233951
395 4 0.0527328 0.262363 0.233903
750 4 0.0585118 0.278409 0.221565
748 2 0.0727377 0.296888 0.212545
749 4 0.0869636 0.315366 0.203526
279 4 0.260767 0.284267 0.192839
277 2 0.272538 0.288833 0.171257
307 2 0.316287 0.260697 0.212275
308 4 0.316145 0.247384 0.233439
309 4 0.316429 0.27401 0.191111
764 4 0.376005 0.242593 0.198286
623 4 0.384623 0.260543 0.192647
622 2 0.400292 0.279374 0.197648
624 4 0.415962 0.298206 0.202649
528 4 0.434582 0.299226 0.19548
527 4 0.480546 0.283234 0.206982
526 2 0.457564 0.29123 0.201231
263 4 0.0672311 0.410686 0.242901
262 2 0.0577308 0.416003 0.220392
264 4 0.0482305 0.42132 0.197883
300 4 0.151196 0.344322 0.212622
298 2 0.144191 0.360633 0.23023
611 4 0.2391 0.379082 0.157186
290 4 0.227064 0.402138 0.216113
302 4 0.332456 0.398021 0.175885
301 2 0.311933 0.403403 0.189115
303 4 0.29141 0.408785 0.202345
645 4 0.455107 0.407679 0.17502
643 2 0.452991 0.38633 0.187861
644 4 0.450875 0.36498 0.200703
447 4 0.467548 0.364133 0.212374
445 2 0.488019 0.356949 0.224804
446 4 0.508491 0.349766 0.237234
417 4 0.164505 0.478051 0.192961
415 2 0.175907 0.457532 0.201573
1430 4 0.162078 0.494137 0.204246
289 2 0.21203 0.421417 0.221356
291 4 0.196996 0.440696 0.226598
416 4 0.187309 0.437014 0.210185
766 2 0.269001 0.490601 0.166446
768 4 0.257475 0.472395 0.17913
659 4 0.407956 0.478126 0.175731
231 4 0.418847 0.48978 0.189115
596 4 0.476078 0.471557 0.177669
1568 4 0.479036 0.485278 0.192379
1800 4 0.0232798 0.000464383 0.333544
1798 2 0.0249295 0.00969343 0.310365
1799 4 0.0265792 0.0189225 0.287186
233 4 0.0246633 0.0248722 0.268343
1402 2 0.0547037 0.00944143 0.253923
1403 4 0.039799 0.0132422 0.273636
232 2 0.00419932 0.0391865 0.26957
689 4 0.194717 0.020876 0.235137
1699 2 0.210394 0.0632568 0.304461
1701 4 0.202226 0.045084 0.289354
1700 4 0.218562 0.0814296 0.319568
1516 2 0.384969 0.00918307 0.289764
23 3 0.353863 0.0361636 0.248999
697 2 0.384897 0.0619733 0.317438
699 4 0.390685 0.0457529 0.299311
1518 4 0.37723 0.0328294 0.292243
742 2 0.485916 0.0185727 0.25151
478 2 0.461401 0.0348733 0.32177
479 4 0.474478 0.0150658 0.313907
398 4 0.102433 0.138698 0.322321
544 2 0.153433 0.173117 0.256487
248 4 0.23062 0.0927495 0.308971
249 4 0.225326 0.141029 0.297063
247 2 0.227973 0.116889 0.303017
404 4 0.215464 0.157017 0.301209
546 4 0.176336 0.165004 0.250588
403 2 0.202825 0.165429 0.281343
405 4 0.190186 0.17384 0.261476
29 3 0.312451 0.118626 0.247563
698 4 0.379108 0.0781937 0.335564
333 4 0.422048 0.139264 0.299387
331 2 0.443255 0.15142 0.294131
332 4 0.464463 0.163576 0.288875
444 4 0.0141586 0.252721 0.337512
393 4 0.0890068 0.22188 0.266661
392 4 0.133931 0.199971 0.268264
391 2 0.111469 0.210925 0.267463
545 4 0.13053 0.18123 0.262386
378 4 0.28533 0.220629 0.314649
418 2 0.403939 0.191147 0.327486
419 4 0.403405 0.167687 0.318854
760 2 0.498516 0.185064 0.288755
762 4 0.47414 0.179508 0.289088
394 2 0.0372953 0.266278 0.253178
396 4 0.0218578 0.270193 0.272453
442 2 0.0184331 0.261877 0.314641
443 4 0.0227076 0.271032 0.29177
364 2 0.0137643 0.309576 0.283824
365 4 0.0130833 0.284655 0.281907
401 4 0.194229 0.262668 0.26427
345 4 0.227819 0.298798 0.304579
400 2 0.202226 0.275844 0.283958
402 4 0.210224 0.289021 0.303646
510 4 0.211448 0.306548 0.31184
508 2 0.205713 0.328195 0.322961
343 2 0.250317 0.307611 0.298147
344 4 0.272814 0.316424 0.291715
498 4 0.402911 0.267534 0.301497
496 2 0.382976 0.282531 0.299812
497 4 0.36304 0.297528 0.298126
543 4 0.408538 0.324917 0.311533
542 4 0.454437 0.305541 0.307225
541 2 0.431487 0.315229 0.309379
602 4 0.0821132 0.416083 0.255551
2493 4 0.998829 0.339578 0.297848
366 4 0.0144453 0.334496 0.285741
299 4 0.137185 0.376944 0.247839
601 2 0.103925 0.403946 0.254087
603 4 0.125736 0.391809 0.252623
734 4 0.144949 0.391893 0.257608
733 2 0.162682 0.395465 0.274869
735 4 0.180415 0.399036 0.29213
677 4 0.185233 0.407719 0.308746
676 2 0.192096 0.388506 0.323201
727 2 0.33195 0.381768 0.289286
728 4 0.314972 0.375879 0.306671
438 4 0.279669 0.416899 0.264658
729 4 0.348927 0.387658 0.2719
615 4 0.394934 0.340884 0.313575
613 2 0.380395 0.361012 0.316522
614 4 0.365856 0.381139 0.319469
2538 4 0.490825 0.404339 0.330992
2536 2 0.485107 0.409291 0.30716
2537 4 0.47939 0.414244 0.283328
753 4 0.476137 0.389762 0.334328
549 4 0.0408277 0.437682 0.310357
547 2 0.0356949 0.419629 0.326878
777 4 0.105164 0.435333 0.292084
775 2 0.122873 0.452263 0.287091
776 4 0.140581 0.469194 0.282097
414 4 0.141353 0.472016 0.302844
412 2 0.156311 0.486554 0.316631
413 4 0.171268 0.501093 0.330418
437 4 0.269502 0.452335 0.298447
436 2 0.274585 0.434617 0.281552
2860 2 0.486958 0.465838 0.255419
2862 4 0.463022 0.464787 0.26257
594 4 0.42709 0.473543 0.305678
732 4 0.112208 0.0845646 0.4173
367 2 0.079833 0.00931312 0.409719
605 4 0.167799 0.0655109 0.36636
604 2 0.184381 0.0663945 0.385053
441 4 0.330663 0.0009658 0.364771
258 4 0.417039 0.0554383 0.387597
256 2 0.405535 0.0652559 0.367686
257 4 0.394032 0.0750735 0.347774
480 4 0.448323 0.0546807 0.329633
426 4 0.419638 0.0460604 0.405265
318 4 0.0318612 0.111404 0.343531
316 2 0.0502513 0.109167 0.360323
317 4 0.0686413 0.106929 0.377115
457 2 0.0356426 0.150609 0.394969
458 4 0.0409026 0.126181 0.395841
730 2 0.115805 0.0919712 0.393692
397 2 0.105924 0.128319 0.344799
399 4 0.109415 0.11794 0.367277
731 4 0.119402 0.0993778 0.370083
599 4 0.169615 0.164811 0.387428
606 4 0.200962 0.0672782 0.403747
600 4 0.207669 0.144006 0.362532
598 2 0.188642 0.154409 0.37498
683 4 0.279424 0.100928 0.367862
682 2 0.288817 0.100015 0.391016
684 4 0.29821 0.0991014 0.41417
320 4 0.290905 0.117967 0.419197
632 4 0.341996 0.118489 0.345419
631 2 0.363395 0.105559 0.345694
633 4 0.384794 0.0926293 0.345969
516 4 0.417294 0.1419 0.375271
575 4 0.406667 0.150673 0.38983
451 2 0.487963 0.153822 0.362225
514 2 0.433987 0.157148 0.364594
459 4 0.0303827 0.175038 0.394097
2653 2 0.00570058 0.206049 0.383465
2654 4 0.0232941 0.192777 0.395276
390 4 0.0764128 0.260161 0.349315
388 2 0.0842035 0.238784 0.359684
389 4 0.0919941 0.217408 0.370053
685 2 0.146445 0.189795 0.408078
473 4 0.239687 0.178576 0.363456
687 4 0.165534 0.183569 0.393176
377 4 0.331757 0.220805 0.333229
376 2 0.308543 0.220717 0.323939
474 4 0.253288 0.198899 0.407076
472 2 0.246488 0.188738 0.385266
488 4 0.271253 0.20785 0.408489
487 2 0.288817 0.224991 0.403709
717 4 0.401178 0.224706 0.354296
707 4 0.338297 0.217767 0.35146
420 4 0.404473 0.214608 0.336117
706 2 0.352955 0.197866 0.347681
708 4 0.367613 0.177965 0.343902
715 2 0.384355 0.242985 0.357121
515 4 0.45068 0.172397 0.353917
453 4 0.468095 0.168992 0.361673
618 4 0.0707501 0.317152 0.392199
347 4 0.0548458 0.305521 0.397396
616 2 0.0837731 0.331401 0.376307
275 4 0.131222 0.307146 0.396559
274 2 0.149747 0.29632 0.383722
276 4 0.168272 0.285493 0.370885
617 4 0.0967961 0.34565 0.360415
373 2 0.206304 0.294825 0.378097
374 4 0.22509 0.311256 0.37962
375 4 0.187519 0.278395 0.376574
716 4 0.367531 0.261265 0.359947
406 2 0.0506089 0.395631 0.377431
408 4 0.0705103 0.392264 0.392188
548 4 0.0305622 0.401576 0.343398
407 4 0.0307075 0.398999 0.362674
678 4 0.198959 0.369294 0.337656
509 4 0.199977 0.349842 0.334083
504 4 0.226886 0.390012 0.419149
435 4 0.240268 0.369617 0.334042
433 2 0.258147 0.384835 0.342642
434 4 0.276025 0.400052 0.351242
561 4 0.447579 0.36954 0.39238
752 4 0.462709 0.368482 0.377543
559 2 0.46428 0.371537 0.41088
751 2 0.469423 0.379122 0.355935
499 2 0.154506 0.493561 0.382203
500 4 0.176782 0.484798 0.37498
668 4 0.290621 0.467144 0.401816
1 1 0.314894 0.500147 0.398159
3 3 0.32921 0.497562 0.380082
593 4 0.420587 0.492266 0.351589
592 2 0.423839 0.482905 0.328634
1772 4 0.0348829 0.992855 0.424559
718 2 0.0424546 0.070346 0.462254
720 4 0.0350347 0.0473952 0.468841
2237 4 0.0293181 0.0285326 0.471166
2236 2 0.0300171 0.00407307 0.466026
1127 4 0.0269124 0.0414556 0.485622
369 4 0.0633327 0.0209812 0.424442
1522 2 0.110142 0.000360359 0.480219
1180 2 0.247321 0.0759362 0.474336
1182 4 0.266519 0.0605157 0.469998
726 4 0.306772 0.0594357 0.435181
724 2 0.301335 0.057276 0.459491
432 4 0.3065 0.0547103 0.50003
725 4 0.295898 0.0551164 0.4838
963 4 0.289115 0.045429 0.498517
424 2 0.400392 0.0434518 0.421012
425 4 0.381146 0.0408432 0.436759
2879 4 0.463394 0.0584846 0.501864
719 4 0.0498745 0.0932967 0.455667
1033 2 0.118738 0.155922 0.477307
1181 4 0.228123 0.0913568 0.478674
411 4 0.260447 0.147867 0.465888
321 4 0.289867 0.12318 0.468921
319 2 0.290386 0.120573 0.444059
574 2 0.408083 0.14919 0.414749
576 4 0.4095 0.147707 0.439668
2880 4 0.480686 0.0938354 0.471009
2878 2 0.47204 0.07616 0.486436
642 4 0.482882 0.10568 0.455178
640 2 0.47198 0.126834 0.447507
641 4 0.461078 0.147988 0.439836
306 4 0.441346 0.152278 0.437812
3158 4 0.475347 0.153109 0.497646
469 2 0.016855 0.190631 0.479842
470 4 0.0243432 0.167857 0.472741
260 4 0.120297 0.23378 0.456953
261 4 0.127938 0.184412 0.459217
259 2 0.124117 0.209096 0.458085
1035 4 0.133231 0.164586 0.458867
686 4 0.127357 0.19602 0.422979
695 4 0.10073 0.238091 0.455654
409 2 0.264459 0.167797 0.480444
410 4 0.268471 0.187727 0.495
466 2 0.377349 0.224539 0.419
467 4 0.368674 0.202396 0.426721
3159 4 0.495738 0.19086 0.471959
305 4 0.449249 0.198498 0.455192
304 2 0.445297 0.175388 0.446502
3157 2 0.485543 0.171985 0.484803
346 2 0.056377 0.306143 0.422345
326 4 0.0671209 0.321726 0.457699
348 4 0.0579083 0.306764 0.447294
694 2 0.0967929 0.255258 0.473401
651 4 0.22378 0.287207 0.501749
649 2 0.247499 0.295089 0.50243
489 4 0.306381 0.242133 0.398929
650 4 0.271218 0.302971 0.503111
266 4 0.320588 0.253423 0.450993
468 4 0.386024 0.246683 0.411279
267 4 0.367517 0.267608 0.441134
265 2 0.344052 0.260516 0.446063
584 4 0.489727 0.28118 0.472914
583 2 0.470979 0.275569 0.488476
585 4 0.45223 0.269959 0.504039
325 2 0.0783846 0.339819 0.470773
2813 4 0.0128061 0.37425 0.454897
10 3 0.144204 0.333134 0.457806
7 3 0.12638 0.359556 0.477224
327 4 0.0896483 0.357912 0.483847
6 1 0.146912 0.35032 0.472501
8 3 0.160513 0.366642 0.463175
9 3 0.156321 0.342478 0.492208
711 4 0.175708 0.37666 0.456387
709 2 0.192842 0.389531 0.469269
710 4 0.209976 0.402403 0.48215
774 4 0.219001 0.415279 0.493144
336 4 0.292727 0.3783 0.408947
334 2 0.315922 0.380206 0.418086
502 2 0.248505 0.392401 0.431481
503 4 0.270124 0.394789 0.443814
588 4 0.398164 0.410029 0.458286
586 2 0.411195 0.395957 0.474328
335 4 0.339118 0.382112 0.427224
238 2 0.362925 0.388568 0.446413
240 4 0.341896 0.375056 0.445792
587 4 0.424227 0.381885 0.49037
560 4 0.480981 0.373535 0.42938
2507 4 0.499449 0.377209 0.434112
1381 2 0.0450973 0.492837 0.429767
679 2 0.0516075 0.443394 0.466719
1383 4 0.0387806 0.474783 0.445871
681 4 0.0679436 0.425646 0.4733
680 4 0.0352715 0.461142 0.460138
382 2 0.106163 0.438977 0.452752
568 2 0.154627 0.477253 0.442002
383 4 0.0845128 0.432872 0.463668
569 4 0.139537 0.458812 0.449577
384 4 0.127814 0.445081 0.441836
635 4 0.209824 0.420816 0.476569
634 2 0.210049 0.445816 0.476929
636 4 0.210275 0.470816 0.477289
880 2 0.324158 0.498135 0.493091
667 2 0.29286 0.445772 0.414599
882 4 0.300767 0.50435 0.486812
669 4 0.2951 0.4244 0.427382
4 3 0.30531 0.479743 0.403654
239 4 0.383953 0.402081 0.447035
881 4 0.347549 0.49192 0.49937
663 4 0.461383 0.459177 0.482302
1126 2 0.0160141 0.0507983 0.506094
1128 4 0.00511581 0.0601409 0.526567
1057 2 0.136405 0.0715382 0.573908
1058 4 0.132117 0.0473178 0.578399
1523 4 0.109157 0.0249221 0.484793
340 2 0.186974 0.0627412 0.500938
2428 2 0.205824 0.0158276 0.527966
2430 4 0.188759 0.0301561 0.516624
341 4 0.185238 0.0378515 0.499303
430 2 0.321197 0.0688613 0.514485
950 4 0.330516 0.039588 0.57936
961 2 0.288713 0.0204656 0.499874
949 2 0.306128 0.0450992 0.579431
951 4 0.281739 0.0506104 0.579501
1217 4 0.380432 0.0521932 0.572109
1216 2 0.391546 0.0298988 0.569961
842 4 0.387041 0.0668636 0.559645
1218 4 0.40266 0.00760444 0.567812
938 4 0.0989317 0.14375 0.544919
937 2 0.0919223 0.142921 0.520932
939 4 0.084913 0.142092 0.496945
1151 4 0.152044 0.105028 0.556816
1059 4 0.140692 0.0957586 0.569418
1155 4 0.152765 0.109375 0.575813
1034 4 0.104244 0.147259 0.495748
342 4 0.188709 0.0876308 0.502572
1150 2 0.168963 0.101314 0.538784
1152 4 0.185881 0.0975999 0.520752
431 4 0.335894 0.0830123 0.528939
841 2 0.367702 0.0796562 0.550289
843 4 0.348363 0.0924489 0.540933
878 4 0.0344858 0.213273 0.551708
1199 4 0.0207326 0.226994 0.548692
877 2 0.0536648 0.204701 0.565268
879 4 0.0728438 0.19613 0.578828
1272 4 0.0795755 0.186752 0.595277
858 4 0.248978 0.193392 0.553198
857 4 0.291727 0.214825 0.567822
856 2 0.270353 0.204108 0.56051
898 2 0.301781 0.197348 0.514787
791 4 0.305571 0.225445 0.559335
899 4 0.325045 0.19377 0.523221
900 4 0.278516 0.200926 0.506353
873 4 0.38213 0.238263 0.517551
983 4 0.0689955 0.318197 0.579727
1258 2 0.126497 0.290995 0.509291
1259 4 0.140996 0.308162 0.520257
1260 4 0.111998 0.273828 0.498325
696 4 0.0928558 0.272425 0.491149
790 2 0.311942 0.247475 0.569297
811 2 0.297923 0.315751 0.487701
804 4 0.264595 0.335905 0.490765
812 4 0.275659 0.32117 0.497708
813 4 0.320186 0.310332 0.477693
871 2 0.399855 0.255755 0.519797
872 4 0.41758 0.273246 0.522042
1239 4 0.360712 0.316115 0.576488
954 4 0.501694 0.301044 0.579044
897 4 0.143135 0.372298 0.587565
1137 4 0.126282 0.36349 0.580392
895 2 0.167704 0.375761 0.584479
1189 2 0.224669 0.379427 0.562583
773 4 0.237477 0.383936 0.527451
1190 4 0.238631 0.372409 0.543065
803 4 0.245613 0.366613 0.525368
772 2 0.228239 0.399608 0.510298
1191 4 0.210706 0.386444 0.582102
802 2 0.255104 0.351259 0.508067
896 4 0.192274 0.379225 0.581393
930 4 0.326641 0.365678 0.529564
928 2 0.309027 0.380985 0.538546
929 4 0.291414 0.396291 0.547528
927 4 0.427175 0.363542 0.547684
925 2 0.425696 0.378195 0.527478
926 4 0.424218 0.392847 0.507272
2243 4 0.150923 0.491629 0.542195
1161 4 0.168371 0.487736 0.55018
1159 2 0.180816 0.476061 0.568455
889 2 0.322132 0.455421 0.569937
1952 4 0.361924 0.498607 0.512485
1002 4 0.390564 0.452539 0.535896
1000 2 0.413634 0.462177 0.535705
890 4 0.334828 0.475854 0.563119
1001 4 0.436705 0.471815 0.535514
662 4 0.455098 0.474062 0.529627
661 2 0.45824 0.46662 0.505965
1911 4 0.451355 0.474154 0.54857
1909 2 0.448788 0.479714 0.572812
1332 4 0.469226 0.488572 0.533568
943 2 0.0770152 0.0181233 0.640953
944 4 0.10093 0.0220759 0.63482
825 4 0.119579 0.015309 0.631824
823 2 0.13742 0.000268081 0.640805
1030 2 0.244877 0.0722791 0.580065
1032 4 0.224181 0.0848314 0.586334
1031 4 0.265573 0.0597269 0.573796
1092 4 0.32351 0.00416342 0.665721
45 3 0.441774 0.0667251 0.667558
1081 2 0.0246645 0.128865 0.649356
3179 4 0.000837428 0.147936 0.643838
1082 4 0.0347997 0.115192 0.667672
1153 2 0.151075 0.133126 0.583443
1154 4 0.149385 0.156877 0.591074
1282 2 0.164457 0.113853 0.654344
1284 4 0.179352 0.118036 0.634701
888 4 0.259794 0.161695 0.662516
3008 4 0.501572 0.0875612 0.608772
808 2 0.486461 0.088499 0.644661
809 4 0.484484 0.0913837 0.619903
1243 2 0.0675473 0.225347 0.637955
1244 4 0.0475109 0.218724 0.624544
1245 4 0.0875838 0.23197 0.651366
1270 2 0.0977379 0.183903 0.612223
1271 4 0.1159 0.181054 0.62917
1221 4 0.166957 0.153911 0.601378
1210 2 0.223994 0.182226 0.650167
1212 4 0.206311 0.194575 0.637518
1219 2 0.184449 0.168441 0.611776
1220 4 0.20194 0.18297 0.622174
796 2 0.198007 0.2273 0.618991
798 4 0.198957 0.20242 0.621288
1211 4 0.241677 0.169877 0.662816
906 4 0.435679 0.206659 0.591089
904 2 0.449949 0.220469 0.606283
905 4 0.464218 0.234278 0.621477
3123 4 0.478408 0.231932 0.637273
3121 2 0.494374 0.233522 0.656449
982 2 0.0629416 0.326915 0.602366
797 4 0.197056 0.252179 0.616694
947 4 0.182073 0.283466 0.638882
946 2 0.194848 0.278859 0.659877
792 4 0.318313 0.269505 0.57926
1238 4 0.337974 0.271588 0.577526
1237 2 0.349343 0.293852 0.577007
952 2 0.4813 0.308965 0.591148
953 4 0.460905 0.316885 0.603252
984 4 0.0568876 0.335633 0.625005
1041 4 0.0630511 0.346464 0.640176
3263 4 0.0543009 0.328974 0.643213
3262 2 0.0359765 0.324799 0.659704
1039 2 0.0845794 0.358996 0.642338
1135 2 0.111589 0.381699 0.589208
1136 4 0.0968956 0.399907 0.598025
1040 4 0.106108 0.371528 0.6445
991 2 0.109168 0.412947 0.635762
993 4 0.110579 0.390851 0.647378
1172 4 0.195057 0.398251 0.584863
1206 4 0.466058 0.412826 0.667457
3309 4 0.498555 0.389574 0.60899
992 4 0.107758 0.435044 0.624146
1188 4 0.22953 0.496227 0.630434
1173 4 0.200144 0.447513 0.591794
1171 2 0.1976 0.422882 0.588328
1187 4 0.202983 0.463113 0.603988
1160 4 0.193261 0.464385 0.58673
1186 2 0.216257 0.47967 0.617211
891 4 0.309435 0.434989 0.576755
1204 2 0.445558 0.42217 0.656613
1910 4 0.44622 0.485273 0.597054
1205 4 0.425058 0.431515 0.645769
1269 4 0.422169 0.447776 0.632726
1267 2 0.427615 0.471393 0.638872
1268 4 0.433061 0.49501 0.645017
2256 4 0.225605 0.013232 0.747121
2254 2 0.201017 0.0174975 0.745559
1147 2 0.216421 0.082139 0.725941
1149 4 0.23734 0.069617 0.731489
2255 4 0.17643 0.021763 0.743997
1257 4 0.250192 0.0636576 0.745446
1003 2 0.33178 0.0528609 0.709706
1005 4 0.319845 0.0400747 0.691838
1004 4 0.343715 0.065647 0.727573
42 3 0.454699 0.0562669 0.700972
41 1 0.45275 0.0738047 0.686215
1163 4 0.492834 0.0786462 0.68658
1076 4 0.0199632 0.103582 0.674919
864 4 0.0437609 0.105289 0.740327
1075 2 0.0258486 0.103992 0.699217
1077 4 0.0317339 0.104403 0.723514
909 4 0.0966522 0.142408 0.702509
907 2 0.117601 0.132 0.693676
908 4 0.138549 0.121593 0.684842
1283 4 0.149563 0.10967 0.673986
1227 4 0.155576 0.115064 0.691953
1225 2 0.167188 0.1 0.708184
1148 4 0.195502 0.094661 0.720392
1226 4 0.1788 0.0849369 0.724414
831 4 0.369502 0.156143 0.694282
810 4 0.488438 0.0856142 0.669419
1025 4 0.471412 0.146974 0.683188
44 3 0.473988 0.0812463 0.68056
43 3 0.440821 0.090897 0.696411
3424 2 0.495855 0.115261 0.697737
3426 4 0.484902 0.0967397 0.685003
1024 2 0.459203 0.161371 0.699585
852 4 0.0463077 0.176708 0.745158
1213 2 0.0221591 0.20404 0.723341
1214 4 0.0337337 0.18271 0.729361
850 2 0.0696577 0.17778 0.754036
1209 4 0.101438 0.247014 0.65548
1207 2 0.103217 0.242437 0.679997
1208 4 0.104996 0.23786 0.704513
1106 4 0.137944 0.193833 0.716724
1105 2 0.119589 0.184075 0.730618
822 4 0.175853 0.243753 0.752196
830 4 0.322836 0.172578 0.687015
886 2 0.281502 0.166836 0.673809
887 4 0.303209 0.171977 0.685103
976 2 0.311377 0.194264 0.721449
978 4 0.310915 0.18061 0.700508
977 4 0.311838 0.207917 0.74239
918 4 0.308871 0.227194 0.746625
1142 4 0.383087 0.158985 0.706763
1141 2 0.405618 0.167892 0.712945
1193 4 0.35161 0.243597 0.697602
829 2 0.346169 0.164361 0.690648
1192 2 0.350001 0.219531 0.691011
1194 4 0.348392 0.195466 0.684419
1143 4 0.428148 0.176799 0.719126
1026 4 0.446994 0.175768 0.715981
1261 2 0.453333 0.204631 0.741492
1262 4 0.439491 0.190003 0.726672
948 4 0.207622 0.274252 0.680871
821 4 0.173275 0.291643 0.738031
820 2 0.174564 0.267698 0.745113
1064 4 0.214108 0.292102 0.688046
1065 4 0.227973 0.287115 0.735834
1063 2 0.22104 0.289609 0.71194
893 4 0.0182035 0.334206 0.69179
3264 4 0.0176521 0.320625 0.676196
892 2 0.022842 0.353958 0.706402
894 4 0.0274805 0.37371 0.721015
3276 4 0.0135742 0.377238 0.73376
814 2 0.0565307 0.384876 0.745579
816 4 0.0334092 0.37897 0.738116
941 4 0.14711 0.399938 0.744939
1067 4 0.154125 0.418127 0.737625
1066 2 0.167106 0.412185 0.717098
940 2 0.122944 0.398081 0.751082
942 4 0.0987782 0.396223 0.757225
1029 4 0.236688 0.409812 0.676074
1027 2 0.21713 0.412705 0.691381
806 4 0.304277 0.352738 0.670199
805 2 0.327798 0.358165 0.676715
807 4 0.35132 0.363592 0.683231
1019 4 0.390801 0.384198 0.72156
1018 2 0.378236 0.365545 0.732486
1020 4 0.365672 0.346892 0.743413
1280 4 0.0634095 0.456871 0.691008
1279 2 0.0453424 0.473447 0.686109
1068 4 0.180088 0.406244 0.696571
1028 4 0.197573 0.415598 0.706688
1140 4 0.257532 0.464058 0.697617
1139 4 0.260301 0.461425 0.747478
1138 2 0.258916 0.462742 0.722547
1228 2 0.3986 0.450023 0.741322
1229 4 0.387482 0.457301 0.762502
1230 4 0.409718 0.442746 0.720141
1100 4 0.429067 0.442016 0.718729
1101 4 0.473735 0.463564 0.725142
1099 2 0.451401 0.45279 0.721935
1251 4 0.468043 0.474951 0.740158
3330 4 0.488445 0.450712 0.733109
1294 2 0.0210794 0.0430284 0.783129
1295 4 0.00234045 0.058242 0.776604
1296 4 0.0398184 0.0278149 0.789654
911 4 0.0786072 0.0636462 0.835068
2047 2 0.15817 0.000164236 0.788422
1203 4 0.124229 0.0733418 0.776146
1201 2 0.132136 0.0517828 0.78604
1202 4 0.140042 0.0302237 0.795933
2049 4 0.156289 0.0207476 0.802492
1255 2 0.260041 0.061969 0.768366
1256 4 0.269889 0.0602804 0.791286
840 4 0.271361 0.0802144 0.789637
1113 4 0.368496 0.0644965 0.804354
1111 2 0.373667 0.0814165 0.822022
975 4 0.337673 0.0353131 0.823661
2321 4 0.468398 0.997504 0.778595
2322 4 0.481675 0.0449242 0.787297
2320 2 0.475036 0.0212141 0.782946
980 4 0.435319 0.0160301 0.825679
846 4 0.477153 0.064736 0.782951
862 2 0.0463835 0.111079 0.764509
863 4 0.049006 0.116869 0.788691
832 2 0.0257437 0.111896 0.815552
833 4 0.0418059 0.12732 0.804181
1125 4 0.0388697 0.142978 0.815653
1123 2 0.0378753 0.16747 0.820589
31 1 0.11385 0.148638 0.820514
34 3 0.12227 0.127138 0.818229
32 3 0.108639 0.156839 0.799664
35 3 0.129459 0.162109 0.830187
838 2 0.272907 0.10076 0.803803
839 4 0.274453 0.121305 0.817969
844 2 0.471813 0.08211 0.765781
845 4 0.466474 0.099484 0.74861
1107 4 0.101233 0.174317 0.744512
851 4 0.0930077 0.178852 0.762913
1130 4 0.173868 0.18124 0.744168
1129 2 0.171976 0.204797 0.752332
1131 4 0.170084 0.228355 0.760496
920 4 0.190277 0.19822 0.81907
1241 4 0.228041 0.25214 0.817796
1298 4 0.325227 0.218451 0.752043
916 2 0.28747 0.232883 0.758235
917 4 0.266068 0.238571 0.769845
1084 2 0.356321 0.175733 0.822777
50 3 0.391492 0.184831 0.793622
1086 4 0.352441 0.182261 0.798954
1299 4 0.352743 0.1993 0.789148
1297 2 0.338985 0.208876 0.770596
1043 4 0.403704 0.238006 0.781016
49 3 0.405708 0.217001 0.780183
46 1 0.410474 0.195177 0.78646
1263 4 0.467174 0.219259 0.756311
48 3 0.426392 0.195087 0.803342