ITEM: TIMESTEP
3450000
ITEM: NUMBER OF ATOMS
4590
ITEM: BOX BOUNDS pp pp pp
-9.9985700000000008e+00 9.9985700000000008e+00
-9.9985700000000008e+00 9.9985700000000008e+00
-9.9985700000000008e+00 9.9985700000000008e+00
ITEM: ATOMS id type xs ys zs
2576 4 0.044594 0.999439 0.0763779
2575 2 0.0217148 0.994469 0.0676016
702 4 0.123535 0.0592796 0.0220054
566 4 0.12879 0.0560609 0.0022672
700 2 0.109537 0.0798627 0.0243683
296 4 0.328878 0.0858958 0.0859139
746 4 0.485777 0.0489554 0.050057
2469 4 0.489922 0.0360588 0.0651296
745 2 0.474087 0.0500941 0.0279834
747 4 0.462398 0.0512328 0.00590971
463 2 0.0525029 0.100442 0.0397181
464 4 0.0294473 0.101525 0.049333
590 4 0.0234083 0.117294 0.060757
589 2 0.00980087 0.102581 0.075708
465 4 0.0755584 0.0993585 0.0301032
701 4 0.0955396 0.100446 0.0267312
557 4 0.335797 0.104713 0.0809465
558 4 0.364368 0.123711 0.0445667
556 2 0.350083 0.114212 0.0627566
866 4 0.362701 0.139554 0.0347723
865 2 0.358919 0.164113 0.037549
827 4 0.378732 0.128952 0.031504
826 2 0.394332 0.111197 0.023346
828 4 0.409932 0.093441 0.0151881
554 4 0.0248325 0.191399 0.0409455
553 2 0.0464702 0.202053 0.034352
555 4 0.0681078 0.212708 0.0277585
836 4 0.0711348 0.196638 0.0162477
835 2 0.0929689 0.200677 0.00475282
915 4 0.130282 0.217357 0.998434
837 4 0.114803 0.204717 0.993258
666 4 0.335347 0.247042 0.0723579
664 2 0.342025 0.227537 0.058211
665 4 0.348703 0.208032 0.0440641
867 4 0.355138 0.188673 0.0403258
2808 4 0.0471532 0.292665 0.0334585
2806 2 0.0277458 0.283143 0.0460231
2807 4 0.00833842 0.273621 0.0585877
356 4 0.319876 0.328061 0.0552143
572 4 0.314847 0.30853 0.059293
355 2 0.307485 0.328975 0.0335162
571 2 0.326412 0.287563 0.0664909
357 4 0.295094 0.329889 0.011818
573 4 0.337977 0.266596 0.0736887
1070 4 0.449117 0.255168 0.0667229
1069 2 0.447862 0.2781 0.0766081
507 4 0.132806 0.342457 0.0682835
505 2 0.143271 0.360191 0.0541008
506 4 0.153736 0.377926 0.0399181
483 4 0.168234 0.389898 0.0430203
481 2 0.188082 0.399926 0.0315897
482 4 0.20793 0.409955 0.0201592
607 2 0.240487 0.422042 0.0321544
902 4 0.281207 0.342498 0.0111449
608 4 0.264539 0.425702 0.0263838
957 4 0.39808 0.411212 0.0165529
955 2 0.39432 0.393004 0.999834
609 4 0.216435 0.418383 0.037925
244 2 0.225306 0.483848 0.0390621
245 4 0.213166 0.474274 0.0587129
627 4 0.210232 0.469543 0.0784137
625 2 0.205786 0.44494 0.0781632
246 4 0.237445 0.493422 0.0194113
626 4 0.201339 0.420336 0.0779126
252 4 0.279955 0.421845 0.0412659
250 2 0.291669 0.443047 0.0350674
251 4 0.303383 0.464249 0.0288688
2289 4 0.314501 0.466369 0.0110211
226 2 0.463099 0.472552 0.0619406
227 4 0.483634 0.459372 0.0564821
228 4 0.442564 0.485732 0.0673991
525 4 0.425897 0.488158 0.0768337
1805 4 0.0595502 0.00231412 0.0887238
16 1 0.067276 0.0514661 0.15097
20 3 0.0649385 0.0669138 0.134401
18 3 0.0625626 0.0302798 0.142765
1806 4 0.0693009 0.0114333 0.136916
1804 2 0.0644255 0.00687369 0.11282
17 3 0.0889571 0.0518131 0.158649
652 2 0.327764 0.0133111 0.139787
297 4 0.329891 0.0438149 0.112912
295 2 0.329384 0.0648553 0.0994128
653 4 0.330834 0.0261276 0.118538
484 2 0.367803 0.0281029 0.100669
485 4 0.347091 0.0355959 0.112502
486 4 0.388515 0.02061 0.0888347
579 4 0.112122 0.137242 0.0909594
237 4 0.160339 0.143494 0.135854
577 2 0.12833 0.144255 0.10866
578 4 0.144538 0.151268 0.12636
476 4 0.151116 0.158844 0.142257
737 4 0.161567 0.160539 0.126305
692 4 0.23494 0.086 0.140633
235 2 0.16865 0.122564 0.14672
236 4 0.17696 0.101635 0.157587
691 2 0.21238 0.0866783 0.151393
693 4 0.18982 0.0873565 0.162152
582 4 0.252772 0.0875205 0.149195
580 2 0.266828 0.107414 0.143548
581 4 0.280883 0.127307 0.137901
30 3 0.295904 0.131569 0.149882
771 4 0.429817 0.130221 0.105883
769 2 0.42978 0.155197 0.104696
475 2 0.138797 0.172434 0.159249
736 2 0.183277 0.169341 0.117567
738 4 0.204988 0.178144 0.10883
285 4 0.295922 0.173499 0.145887
354 4 0.306163 0.23157 0.144517
462 4 0.315102 0.233882 0.129825
460 2 0.325036 0.24508 0.109798
283 2 0.306153 0.195998 0.142107
284 4 0.316383 0.218498 0.138326
255 4 0.323727 0.232961 0.145056
253 2 0.344512 0.233666 0.158937
770 4 0.429743 0.180172 0.103509
1014 4 0.444219 0.18867 0.113597
1013 4 0.483919 0.218939 0.110704
1012 2 0.464069 0.203804 0.112151
519 4 0.481288 0.238444 0.112657
517 2 0.490583 0.248967 0.133346
454 2 0.0605977 0.331493 0.146068
300 4 0.15334 0.305502 0.172742
756 4 0.245816 0.299934 0.126916
612 4 0.254934 0.317113 0.123224
754 2 0.250788 0.283508 0.145099
461 4 0.33497 0.256279 0.0897701
352 2 0.290425 0.247553 0.155564
755 4 0.25576 0.267081 0.163283
353 4 0.274687 0.263536 0.166611
1071 4 0.446608 0.301032 0.0864933
322 2 0.442595 0.331517 0.0992798
324 4 0.432534 0.308628 0.0990673
518 4 0.499878 0.25949 0.154036
647 4 0.0401816 0.380352 0.0839575
620 4 0.0212005 0.373102 0.0892542
456 4 0.0732308 0.341059 0.126728
648 4 0.0703637 0.357911 0.116914
646 2 0.0552727 0.369131 0.100436
294 4 0.0876191 0.349513 0.115911
293 4 0.119986 0.335289 0.0805451
292 2 0.103803 0.342401 0.098228
610 2 0.245196 0.334651 0.108299
536 4 0.216589 0.412368 0.0870843
611 4 0.235458 0.35219 0.0933744
535 2 0.218625 0.388549 0.0944101
537 4 0.220662 0.36473 0.101736
741 4 0.397159 0.367595 0.0855852
739 2 0.391925 0.377821 0.107794
740 4 0.386692 0.388046 0.130003
385 2 0.348859 0.404047 0.134279
386 4 0.372398 0.397235 0.139248
495 4 0.390412 0.404454 0.14109
15 3 0.375787 0.378138 0.142845
11 1 0.387491 0.381415 0.162104
12 3 0.402338 0.364083 0.16499
14 3 0.399347 0.401322 0.160874
323 4 0.452655 0.354407 0.0994924
670 2 0.473703 0.378837 0.102519
672 4 0.457446 0.365111 0.115652
671 4 0.489961 0.392563 0.0893853
1787 4 0.0667779 0.490318 0.0923664
552 4 0.0645666 0.474953 0.104153
550 2 0.0463469 0.457835 0.104621
551 4 0.0281272 0.440718 0.10509
242 4 0.0802828 0.485561 0.106059
241 2 0.102895 0.496163 0.107278
243 4 0.125507 0.506764 0.108497
1440 4 0.141034 0.495078 0.10644
1438 2 0.165711 0.4912 0.105357
1439 4 0.190388 0.487321 0.104273
639 4 0.201779 0.483993 0.0881192
637 2 0.22107 0.495005 0.0995982
387 4 0.32532 0.410859 0.129309
767 4 0.256042 0.499026 0.10161
303 4 0.301633 0.457007 0.089985
768 4 0.30043 0.478483 0.0911993
301 2 0.306654 0.440091 0.1077
302 4 0.311675 0.423175 0.125415
766 2 0.278236 0.488754 0.0964048
493 2 0.400082 0.42563 0.131967
494 4 0.409752 0.446807 0.122845
660 4 0.412829 0.459018 0.137743
524 4 0.416584 0.464962 0.120146
523 2 0.421241 0.47656 0.09849
658 2 0.426195 0.473406 0.153219
19 3 0.0530069 0.0565032 0.168561
380 4 0.0650427 0.0603521 0.185258
379 2 0.0537187 0.0789141 0.197603
675 4 0.0838576 0.0586957 0.177723
673 2 0.10627 0.0581734 0.188796
674 4 0.128682 0.0576511 0.199868
450 4 0.145106 0.0535063 0.189481
1505 4 0.137979 0.0415045 0.202881
1504 2 0.150938 0.0224513 0.212586
448 2 0.160008 0.0720652 0.181821
1506 4 0.163898 0.00339808 0.222292
25 3 0.405409 0.00451587 0.246054
757 2 0.415433 0.0379274 0.219554
759 4 0.41259 0.0188593 0.235476
758 4 0.418276 0.0569956 0.203632
512 4 0.0365111 0.115955 0.211934
381 4 0.0423946 0.0974762 0.209948
511 2 0.051144 0.135151 0.218458
513 4 0.0657769 0.154347 0.224982
339 4 0.0801947 0.16101 0.212872
449 4 0.17491 0.0906241 0.174161
27 3 0.32004 0.1346 0.178188
26 1 0.30178 0.144131 0.167947
28 3 0.284228 0.144897 0.183105
477 4 0.126477 0.186023 0.176241
337 2 0.093682 0.173821 0.196164
363 4 0.119276 0.198607 0.188501
338 4 0.107169 0.186632 0.179457
362 4 0.134909 0.242045 0.207723
361 2 0.127093 0.220326 0.198112
372 4 0.152255 0.238608 0.218473
370 2 0.147201 0.245575 0.241949
29 3 0.307342 0.165617 0.161177
628 2 0.392861 0.217964 0.180498
630 4 0.379558 0.238376 0.186113
254 4 0.365297 0.23437 0.172817
629 4 0.406165 0.197552 0.174882
311 4 0.467301 0.186859 0.171656
312 4 0.421183 0.196453 0.188442
310 2 0.444242 0.191656 0.180049
761 4 0.485747 0.210608 0.233927
455 4 0.0479646 0.321927 0.165409
749 4 0.0517144 0.329867 0.183185
750 4 0.0287429 0.298081 0.214212
395 4 0.0220961 0.29282 0.233635
748 2 0.0402286 0.313974 0.198698
298 2 0.139339 0.315108 0.191096
299 4 0.125337 0.324715 0.209449
734 4 0.120897 0.322813 0.228881
278 4 0.264655 0.275931 0.178698
277 2 0.269964 0.282735 0.202165
279 4 0.275273 0.289539 0.225632
401 4 0.284739 0.30662 0.228976
498 4 0.287506 0.325873 0.228247
765 4 0.364028 0.24959 0.184855
763 2 0.373098 0.272495 0.189134
764 4 0.382168 0.295399 0.193412
623 4 0.398205 0.307057 0.199077
528 4 0.455334 0.287443 0.189053
624 4 0.448009 0.302573 0.199379
622 2 0.423107 0.304815 0.199228
526 2 0.476502 0.277921 0.179756
527 4 0.49767 0.268398 0.170458
262 2 0.0541015 0.395794 0.205616
263 4 0.0767783 0.390903 0.196287
264 4 0.0314248 0.400684 0.214945
2618 4 0.0199305 0.393582 0.229379
602 4 0.089837 0.376998 0.206408
601 2 0.105295 0.358424 0.212833
603 4 0.120752 0.339851 0.219257
496 2 0.297423 0.332562 0.206291
497 4 0.307341 0.339251 0.184335
308 4 0.321214 0.339027 0.169963
309 4 0.355885 0.374963 0.172652
307 2 0.338549 0.356995 0.171307
13 3 0.372973 0.381947 0.180198
290 4 0.169212 0.414917 0.235278
289 2 0.17244 0.424424 0.212379
291 4 0.175668 0.433931 0.18948
416 4 0.176918 0.451132 0.179836
415 2 0.193246 0.470066 0.179501
1430 4 0.221049 0.496228 0.193028
417 4 0.209573 0.488999 0.179166
713 4 0.364179 0.490201 0.233632
597 4 0.48101 0.456647 0.202101
659 4 0.439561 0.487795 0.168695
595 2 0.46433 0.47347 0.194103
596 4 0.447651 0.490293 0.186104
234 4 0.995389 0.0668715 0.316299
232 2 0.00871769 0.0459946 0.312883
1799 4 0.0142559 0.00707464 0.306791
233 4 0.0220467 0.0251176 0.309467
1402 2 0.0545257 0.997282 0.301343
1403 4 0.0332814 0.0101197 0.304353
632 4 0.403863 0.0229703 0.252429
633 4 0.370503 0.0305694 0.288899
631 2 0.387183 0.0267698 0.270664
257 4 0.354596 0.0403864 0.292248
698 4 0.354005 0.0208956 0.292649
256 2 0.360337 0.0499887 0.314609
350 4 0.42145 0.0142627 0.252655
349 2 0.442506 0.0119652 0.26594
744 4 0.480781 0.0178057 0.283956
742 2 0.500418 0.0182001 0.299428
351 4 0.463563 0.00966779 0.279226
399 4 0.0731843 0.114861 0.323401
397 2 0.0852464 0.136648 0.321163
398 4 0.0973085 0.158435 0.318925
249 4 0.189694 0.122085 0.320303
404 4 0.197017 0.123064 0.300709
403 2 0.198048 0.142714 0.285282
405 4 0.199078 0.162364 0.269855
444 4 0.0207715 0.242551 0.313117
393 4 0.0889888 0.171309 0.30637
390 4 0.0928879 0.176364 0.32501
392 4 0.12113 0.186996 0.27142
391 2 0.10506 0.179153 0.288895
545 4 0.134007 0.178525 0.258661
371 4 0.142146 0.252543 0.265424
544 2 0.158589 0.174608 0.261019
723 4 0.230724 0.210908 0.265158
721 2 0.212236 0.195231 0.271292
546 4 0.183171 0.17069 0.263377
722 4 0.193749 0.179554 0.277426
377 4 0.327246 0.221849 0.31381
376 2 0.311554 0.240834 0.30951
420 4 0.403756 0.237992 0.27189
717 4 0.387758 0.237473 0.284036
707 4 0.33674 0.212009 0.32648
760 2 0.476739 0.213208 0.257106
418 2 0.425804 0.226844 0.275737
331 2 0.463795 0.195813 0.315351
332 4 0.457479 0.205964 0.293391
419 4 0.447852 0.215696 0.279584
762 4 0.467731 0.215808 0.280285
394 2 0.0285208 0.290909 0.257723
442 2 0.0271145 0.265947 0.306987
364 2 0.0240206 0.328123 0.300146
396 4 0.0349455 0.288998 0.281812
443 4 0.0334575 0.289343 0.300857
365 4 0.0318269 0.306099 0.291247
733 2 0.126694 0.322431 0.253201
735 4 0.13249 0.322049 0.27752
677 4 0.140937 0.329849 0.294774
676 2 0.165832 0.330625 0.296979
508 2 0.228232 0.322182 0.285126
509 4 0.207569 0.335824 0.288608
400 2 0.275837 0.310036 0.25209
510 4 0.248895 0.308539 0.281643
402 4 0.266934 0.313452 0.275204
345 4 0.263982 0.306804 0.29357
343 2 0.27345 0.287383 0.306154
344 4 0.282918 0.267963 0.318738
378 4 0.295861 0.259819 0.30521
715 2 0.381622 0.260902 0.290247
716 4 0.375485 0.284332 0.296459
542 4 0.361646 0.296192 0.303135
541 2 0.370399 0.300728 0.326113
751 2 0.489941 0.332896 0.330773
753 4 0.487888 0.335688 0.306011
407 4 0.0148508 0.361345 0.324774
366 4 0.0162142 0.350147 0.309045
548 4 0.0123537 0.368978 0.306976
547 2 0.0185861 0.390156 0.295235
549 4 0.0248185 0.411333 0.283494
2493 4 0.998806 0.357728 0.31486
678 4 0.190726 0.3314 0.299184
435 4 0.198106 0.348975 0.299501
433 2 0.202468 0.371537 0.309355
434 4 0.20683 0.394099 0.31921
2538 4 0.486942 0.332445 0.284958
2463 4 0.996585 0.485541 0.321719
777 4 0.037672 0.425342 0.292397
775 2 0.0588879 0.4308 0.30445
776 4 0.0801039 0.436257 0.316503
1543 2 0.16304 0.478506 0.331217
1545 4 0.187409 0.47435 0.327469
1436 4 0.202122 0.48415 0.317092
728 4 0.334174 0.438567 0.309937
727 2 0.357312 0.437004 0.319284
729 4 0.38045 0.435441 0.328631
1771 2 0.00459137 0.00904461 0.381772
1772 4 0.00858446 0.0258177 0.39988
2236 2 0.00832062 0.0532099 0.41379
1782 4 0.100529 0.0153806 0.416346
606 4 0.162308 0.00879247 0.370848
732 4 0.0889846 0.0700877 0.37482
369 4 0.104498 0.0753903 0.385836
367 2 0.105806 0.0551374 0.40044
604 2 0.166329 0.0299104 0.383617
1701 4 0.172278 0.0706674 0.395129
1699 2 0.189478 0.0834628 0.38226
605 4 0.170349 0.0510283 0.396386
258 4 0.366079 0.0595909 0.33697
424 2 0.345998 0.0497908 0.372906
425 4 0.343694 0.0437058 0.397049
1580 4 0.357371 0.0309648 0.405654
426 4 0.348303 0.0558757 0.348764
1579 2 0.373605 0.0137475 0.413729
317 4 0.0620911 0.115606 0.339328
731 4 0.0766676 0.102876 0.339128
316 2 0.038603 0.119741 0.346838
318 4 0.015115 0.123875 0.354347
458 4 0.0109346 0.142723 0.357509
457 2 0.0139321 0.162394 0.372651
730 2 0.0828261 0.0864817 0.356974
1700 4 0.206678 0.0962581 0.36939
247 2 0.204335 0.110704 0.337074
248 4 0.218977 0.0993239 0.353845
319 2 0.324654 0.146587 0.391747
320 4 0.319272 0.135979 0.413739
684 4 0.300665 0.135039 0.418965
321 4 0.330035 0.157195 0.369754
516 4 0.469022 0.15492 0.388612
575 4 0.461471 0.13887 0.38157
574 2 0.456419 0.124077 0.401085
459 4 0.0169296 0.182064 0.387792
2654 4 0.000845802 0.19241 0.384475
389 4 0.0631777 0.212584 0.342507
388 2 0.0780328 0.194474 0.333758
706 2 0.332986 0.193353 0.342699
708 4 0.329232 0.174697 0.358917
467 4 0.347341 0.245762 0.361284
514 2 0.476755 0.16527 0.367206
333 4 0.470112 0.185663 0.337311
453 4 0.485951 0.195139 0.343043
515 4 0.484489 0.175621 0.3458
274 2 0.137049 0.317655 0.369889
276 4 0.150629 0.311628 0.39
275 4 0.123469 0.323681 0.349778
375 4 0.153119 0.298193 0.404977
373 2 0.176197 0.289299 0.408647
374 4 0.199275 0.280406 0.412317
267 4 0.341901 0.271876 0.415834
543 4 0.379152 0.305265 0.349091
466 2 0.348471 0.261811 0.380424
468 4 0.3496 0.27786 0.399564
615 4 0.398418 0.307755 0.353674
613 2 0.411255 0.316801 0.37313
614 4 0.424092 0.325848 0.392586
561 4 0.488557 0.323006 0.373504
752 4 0.491994 0.330103 0.355535
406 2 0.030114 0.360611 0.344564
408 4 0.0453772 0.359878 0.364355
347 4 0.0547508 0.353407 0.379435
346 2 0.0433712 0.358155 0.401187
618 4 0.0598093 0.34768 0.361724
617 4 0.106779 0.333533 0.352007
616 2 0.083294 0.340607 0.356866
504 4 0.290171 0.398164 0.400729
502 2 0.310031 0.410514 0.409574
240 4 0.411045 0.414982 0.408556
414 4 0.0850449 0.442864 0.33465
1544 4 0.138671 0.482661 0.334966
413 4 0.120271 0.478256 0.331946
412 2 0.102658 0.46056 0.333298
500 4 0.125351 0.496018 0.339742
669 4 0.330896 0.441358 0.411191
335 4 0.396281 0.427639 0.413336
334 2 0.371324 0.429145 0.413571
437 4 0.385119 0.455816 0.329327
436 2 0.392711 0.469445 0.348866
438 4 0.400302 0.483074 0.368406
593 4 0.416249 0.48829 0.358586
1780 2 0.0872837 0.99719 0.427248
1126 2 0.0175081 0.0407242 0.468898
1127 4 0.0178663 0.0585619 0.451381
2237 4 0.0194151 0.0648492 0.432937
720 4 0.0318557 0.0714829 0.447344
1128 4 0.0171498 0.0228864 0.486416
3111 4 0.0112483 0.00711846 0.497423
368 4 0.107114 0.0348845 0.415045
724 2 0.322036 0.0560966 0.468242
963 4 0.307434 0.0209712 0.491019
725 4 0.312265 0.0364916 0.480297
432 4 0.324163 0.0297035 0.494016
726 4 0.331808 0.0757017 0.456186
2879 4 0.432912 0.00637567 0.438988
642 4 0.474639 0.0547338 0.448024
2878 2 0.453055 0.0210068 0.441303
2880 4 0.473198 0.0356379 0.443618
640 2 0.464693 0.0768614 0.441971
470 4 0.0142577 0.136118 0.452696
718 2 0.0238633 0.0950572 0.444988
719 4 0.0158708 0.118631 0.442632
939 4 0.102576 0.165912 0.47701
1033 2 0.125236 0.151594 0.45419
1035 4 0.148166 0.142261 0.450685
1034 4 0.102306 0.160928 0.457696
261 4 0.167647 0.148069 0.453432
937 2 0.0862072 0.165833 0.495911
259 2 0.18105 0.167582 0.461483
682 2 0.28267 0.150151 0.427509
1181 4 0.314031 0.121212 0.424078
1180 2 0.321559 0.107271 0.443421
683 4 0.264676 0.165263 0.436053
1182 4 0.329086 0.0933301 0.462764
576 4 0.451367 0.109284 0.4206
641 4 0.454748 0.0989891 0.435918
306 4 0.443418 0.114847 0.437242
304 2 0.43856 0.127572 0.45821
305 4 0.433702 0.140298 0.479178
3158 4 0.42908 0.149915 0.496638
694 2 0.163492 0.207279 0.49358
695 4 0.180723 0.19655 0.47898
260 4 0.194452 0.187094 0.469534
687 4 0.237252 0.227466 0.462289
686 4 0.198354 0.202852 0.481829
685 2 0.217803 0.215159 0.472059
474 4 0.240751 0.239654 0.449913
599 4 0.25253 0.22732 0.453906
411 4 0.249232 0.240121 0.465126
409 2 0.256665 0.245922 0.488284
600 4 0.272066 0.184476 0.437068
598 2 0.262298 0.205898 0.445487
488 4 0.25825 0.243519 0.450305
473 4 0.209272 0.269678 0.42525
472 2 0.225012 0.254666 0.437582
487 2 0.277813 0.256 0.440993
489 4 0.297375 0.268481 0.431681
265 2 0.330673 0.292168 0.42518
266 4 0.319445 0.31246 0.434526
348 4 0.0319916 0.362903 0.422939
2812 2 0.00143742 0.350047 0.440606
2813 4 0.0200064 0.366541 0.437721
326 4 0.0390974 0.366673 0.441033
325 2 0.0528798 0.37103 0.461435
327 4 0.0666622 0.375387 0.481837
7 3 0.0822118 0.383033 0.49106
10 3 0.117825 0.381387 0.5021
813 4 0.235393 0.330718 0.455653
811 2 0.235962 0.331872 0.480624
383 4 0.0582041 0.459415 0.506664
680 4 0.0225377 0.49503 0.489237
710 4 0.159305 0.428081 0.480068
709 2 0.135529 0.425849 0.487475
711 4 0.111752 0.423618 0.494883
636 4 0.184409 0.4623 0.442051
635 4 0.179139 0.429553 0.479475
634 2 0.181774 0.445926 0.460763
774 4 0.170531 0.42444 0.495918
4 3 0.325308 0.498269 0.451018
668 4 0.323819 0.483377 0.437364
503 4 0.32989 0.422864 0.41842
667 2 0.327358 0.462367 0.424278
336 4 0.346367 0.43065 0.413806
587 4 0.424398 0.440827 0.493589
588 4 0.443067 0.452646 0.448728
586 2 0.433732 0.446736 0.471159
238 2 0.425991 0.432312 0.418631
239 4 0.440936 0.449641 0.428706
1184 4 0.0487954 0.0133133 0.556082
3077 4 0.0587703 0.0149304 0.538005
3076 2 0.0400982 0.0182318 0.521707
3078 4 0.0214262 0.0215333 0.505408
1152 4 0.154253 0.0687761 0.525226
1150 2 0.14448 0.0753034 0.547296
342 4 0.165389 0.0519233 0.525503
1151 4 0.134707 0.0818308 0.569365
340 2 0.183393 0.0374652 0.535094
2430 4 0.209772 0.0152571 0.528182
341 4 0.201397 0.0230071 0.544686
2428 2 0.234026 0.0208182 0.525739
2429 4 0.258281 0.0263792 0.523297
962 4 0.260302 0.0142002 0.506298
961 2 0.283868 0.0175857 0.498659
841 2 0.394995 0.0261057 0.530784
843 4 0.374053 0.0175711 0.520118
431 4 0.357988 0.00592484 0.522143
842 4 0.415938 0.0346404 0.541449
430 2 0.341075 0.0178142 0.50808
1217 4 0.42523 0.017615 0.549277
877 2 0.037378 0.156207 0.534441
878 4 0.0160473 0.143801 0.538475
938 4 0.0698381 0.165754 0.514811
879 4 0.0587088 0.168613 0.530407
1199 4 0.00663058 0.161675 0.542424
3159 4 0.467857 0.135462 0.524714
3157 2 0.448468 0.142688 0.510676
1062 4 0.482116 0.123424 0.518631
1272 4 0.0762823 0.17703 0.529778
1270 2 0.0919224 0.177682 0.549275
1258 2 0.125584 0.220053 0.537566
1260 4 0.148758 0.222607 0.528532
1271 4 0.107562 0.178334 0.568773
696 4 0.146261 0.218007 0.508181
1259 4 0.102409 0.2175 0.5466
1244 4 0.0963348 0.18502 0.584277
797 4 0.182906 0.241143 0.595847
898 2 0.28419 0.232877 0.540839
899 4 0.304521 0.228055 0.554572
857 4 0.31865 0.217305 0.545139
856 2 0.320519 0.196785 0.559303
900 4 0.263859 0.237698 0.527107
858 4 0.322387 0.176264 0.573466
791 4 0.321815 0.234998 0.552004
790 2 0.339985 0.252011 0.554367
410 4 0.264097 0.251722 0.511442
792 4 0.358155 0.269024 0.556729
872 4 0.37814 0.270474 0.560334
1238 4 0.365022 0.277273 0.572836
871 2 0.390886 0.280614 0.541363
1237 2 0.352068 0.296872 0.581395
873 4 0.403631 0.290754 0.522391
9 3 0.0903791 0.384094 0.527732
897 4 0.129119 0.390358 0.582203
8 3 0.0986885 0.413651 0.505333
6 1 0.0974486 0.390515 0.506585
773 4 0.199028 0.405153 0.532203
1189 2 0.201059 0.408198 0.56849
1190 4 0.212464 0.405915 0.546357
803 4 0.214474 0.393848 0.531134
802 2 0.222227 0.371328 0.523525
804 4 0.22998 0.348807 0.515917
930 4 0.215681 0.413004 0.528802
650 4 0.245951 0.339517 0.521129
812 4 0.236532 0.333027 0.505594
651 4 0.295418 0.340287 0.528419
649 2 0.270684 0.339902 0.524774
805 2 0.321734 0.340228 0.562038
806 4 0.311092 0.346381 0.540266
927 4 0.427337 0.373822 0.511222
925 2 0.425158 0.397869 0.504727
679 2 0.0314733 0.472883 0.496644
382 2 0.0794434 0.446243 0.507418
681 4 0.0404089 0.450737 0.504051
384 4 0.100683 0.433071 0.508173
569 4 0.11402 0.437837 0.522678
568 2 0.129847 0.431981 0.541128
570 4 0.145674 0.426124 0.559577
538 2 0.124736 0.479849 0.518532
539 4 0.122809 0.454925 0.518012
772 2 0.18478 0.414796 0.51406
928 2 0.236206 0.426926 0.531982
929 4 0.25673 0.440848 0.535161
1951 2 0.263304 0.479933 0.521661
1953 4 0.264608 0.459448 0.535938
1001 4 0.40925 0.472966 0.552137
1000 2 0.390783 0.48982 0.552487
1002 4 0.372316 0.506673 0.552837
1330 2 0.445216 0.496243 0.554035
662 4 0.426687 0.465091 0.548006
661 2 0.430159 0.449391 0.528858
663 4 0.433632 0.433691 0.50971
1911 4 0.419822 0.464338 0.566079
1332 4 0.425618 0.481535 0.559008
926 4 0.42298 0.421916 0.498232
2374 2 0.158245 0.0109722 0.626393
2375 4 0.150717 0.0335446 0.634074
1057 2 0.136276 0.0615532 0.607966
1058 4 0.134609 0.0468305 0.628107
1059 4 0.137943 0.0762758 0.587825
950 4 0.223388 0.0138377 0.651035
949 2 0.23989 0.0325449 0.652741
951 4 0.256392 0.051252 0.654448
1031 4 0.263387 0.0684231 0.662194
1030 2 0.285122 0.0688113 0.64984
1032 4 0.306857 0.0691994 0.637485
2400 4 0.346749 0.00288217 0.625522
43 3 0.45051 0.078301 0.633403
45 3 0.465049 0.0500528 0.653609
41 1 0.455679 0.0707792 0.654736
44 3 0.470337 0.0855464 0.665007
1154 4 0.151094 0.140192 0.595462
1155 4 0.133132 0.0948487 0.584413
1153 2 0.142113 0.11752 0.589938
1209 4 0.119912 0.151592 0.633653
1207 2 0.109692 0.151331 0.656471
1221 4 0.167154 0.152083 0.596092
1219 2 0.187879 0.165506 0.600022
1211 4 0.248801 0.169795 0.650249
810 4 0.478232 0.103211 0.664032
808 2 0.48653 0.115792 0.644082
809 4 0.494828 0.128374 0.624131
3008 4 0.500194 0.115917 0.60984
1245 4 0.110413 0.169383 0.629642
1243 2 0.103374 0.177201 0.606959
1220 4 0.208604 0.17893 0.603952
1210 2 0.232659 0.17985 0.634016
1212 4 0.216517 0.189906 0.617783
796 2 0.195683 0.219871 0.598914
798 4 0.20846 0.198598 0.601981
3123 4 0.490324 0.231079 0.61397
905 4 0.474565 0.244711 0.612625
983 4 0.00366603 0.327806 0.666651
807 4 0.332377 0.334075 0.583811
1239 4 0.339114 0.316471 0.589955
906 4 0.461383 0.283927 0.584534
904 2 0.467974 0.264319 0.598579
953 4 0.456199 0.303933 0.586981
952 2 0.475079 0.319661 0.591605
982 2 0.0275927 0.332491 0.661107
1041 4 0.0626794 0.352863 0.653449
1039 2 0.0650228 0.376794 0.646596
1040 4 0.0673662 0.400726 0.639742
993 4 0.0560473 0.406543 0.623649
984 4 0.0515193 0.337177 0.655563
3263 4 0.0698329 0.336528 0.660763
1137 4 0.137726 0.371883 0.582502
1135 2 0.121467 0.353382 0.586808
1136 4 0.105208 0.334882 0.591114
895 2 0.150649 0.399775 0.590744
1028 4 0.185219 0.393667 0.657333
1027 2 0.186696 0.401986 0.6338
1029 4 0.188173 0.410305 0.610267
896 4 0.17218 0.409191 0.599285
1191 4 0.189654 0.410482 0.590624
1206 4 0.490377 0.406157 0.619167
954 4 0.493958 0.335389 0.596228
3307 2 0.503388 0.375461 0.612535
3308 4 0.49834 0.352216 0.604833
3309 4 0.508436 0.398707 0.620238
991 2 0.0388527 0.417731 0.609354
992 4 0.021658 0.428919 0.595059
1172 4 0.181885 0.425972 0.600156
1160 4 0.199012 0.490907 0.594151
1171 2 0.187736 0.45022 0.601876
1173 4 0.193588 0.474468 0.603597
1187 4 0.186861 0.49191 0.60909
1186 2 0.169155 0.500427 0.624555
1909 2 0.429321 0.456849 0.587962
1268 4 0.450748 0.487415 0.662401
1267 2 0.4493 0.469839 0.644676
1204 2 0.469861 0.420434 0.618483
1910 4 0.43882 0.44936 0.609845
1269 4 0.447852 0.452263 0.626952
1205 4 0.449345 0.43471 0.617799
1284 4 0.10692 0.0544772 0.748978
1282 2 0.119131 0.0726544 0.736909
1201 2 0.202155 0.0449469 0.722975
1203 4 0.202517 0.0655102 0.708756
1226 4 0.191442 0.0795414 0.714702
1148 4 0.210064 0.0818118 0.716533
1202 4 0.201793 0.0243836 0.737195
42 3 0.436329 0.0696829 0.667126
1163 4 0.489791 0.0880576 0.663956
1075 2 0.00839041 0.123505 0.72189
1077 4 0.0275929 0.138995 0.725951
850 2 0.0646104 0.150899 0.705268
852 4 0.0429221 0.147606 0.717266
864 4 0.0414511 0.146657 0.73687
1214 4 0.0295204 0.158846 0.726616
851 4 0.0862987 0.154191 0.69327
1283 4 0.131341 0.0908315 0.724839
1227 4 0.145813 0.0998998 0.716776
909 4 0.103883 0.147368 0.697784
907 2 0.116004 0.127887 0.707722
908 4 0.128126 0.108407 0.717659
1208 4 0.0994721 0.151069 0.679289
1225 2 0.168628 0.0897206 0.715739
1147 2 0.226374 0.098906 0.724714
1149 4 0.242685 0.116 0.732894
888 4 0.245064 0.165194 0.670492
829 2 0.324158 0.138988 0.704145
830 4 0.30421 0.154058 0.70377
886 2 0.26518 0.16213 0.685023
831 4 0.344106 0.123917 0.70452
1142 4 0.357199 0.138674 0.70874
1141 2 0.375407 0.155026 0.713865
1026 4 0.409276 0.161417 0.725147
1262 4 0.40024 0.172497 0.73755
3426 4 0.47916 0.0915772 0.680052
1025 4 0.445471 0.126939 0.726548
3424 2 0.467043 0.102003 0.699278
3425 4 0.454925 0.11243 0.718504
3269 4 0.464267 0.123402 0.732025
1024 2 0.427374 0.144178 0.725848
845 4 0.450307 0.111474 0.737569
844 2 0.440808 0.0929959 0.75148
1215 4 0.995348 0.194831 0.732788
1213 2 0.0124344 0.176838 0.729702
1107 4 0.101701 0.165714 0.69169
1105 2 0.116166 0.183104 0.702345
1106 4 0.130632 0.200494 0.713
1130 4 0.130842 0.200279 0.733141
1129 2 0.145081 0.207647 0.752328
887 4 0.285296 0.159066 0.699553
978 4 0.296614 0.171451 0.71009
976 2 0.308808 0.188107 0.7242
977 4 0.321001 0.204764 0.738309
916 2 0.32887 0.2409 0.729766
918 4 0.336008 0.217709 0.735799
1143 4 0.393615 0.171378 0.71899
1194 4 0.410353 0.180855 0.722975
1192 2 0.41617 0.19372 0.70234
1193 4 0.421987 0.206586 0.681704
1044 4 0.453197 0.246554 0.748913
3262 2 0.0773239 0.329712 0.683624
893 4 0.0750807 0.319383 0.722397
892 2 0.0658456 0.335211 0.739408
3264 4 0.084815 0.322897 0.706485
779 4 0.0924332 0.311589 0.7203
778 2 0.0958269 0.286959 0.722946
780 4 0.0992205 0.262328 0.725592
1065 4 0.256259 0.329511 0.677397
1064 4 0.303428 0.323454 0.692858
1063 2 0.279843 0.326482 0.685127
946 2 0.328908 0.294391 0.714337
948 4 0.320346 0.313859 0.701188
947 4 0.33747 0.274924 0.727485
917 4 0.321733 0.264091 0.723733
1008 4 0.471623 0.286256 0.696234
1006 2 0.46494 0.269489 0.713536
1007 4 0.458256 0.252721 0.730838
1166 4 0.472011 0.251915 0.744871
941 4 0.142636 0.370691 0.71366
1067 4 0.151536 0.376446 0.695669
940 2 0.132189 0.377059 0.735466
1066 2 0.169988 0.389817 0.685376
1068 4 0.18844 0.403187 0.675083
884 4 0.0714805 0.453079 0.738864
1139 4 0.316961 0.468995 0.700742
1138 2 0.324625 0.454518 0.719632
1140 4 0.33229 0.440041 0.738523
1100 4 0.400159 0.437819 0.760319
1230 4 0.389012 0.426686 0.748742
1228 2 0.364398 0.429706 0.751938
2168 4 0.467089 0.493183 0.673155
1099 2 0.414317 0.453543 0.746997
1101 4 0.428475 0.469267 0.733675
3330 4 0.442158 0.464831 0.720202
3328 2 0.460481 0.450933 0.710389
1251 4 0.440976 0.48279 0.727787
3329 4 0.478804 0.437034 0.700577
785 4 0.00498701 0.0758079 0.821503
2390 4 0.141924 0.998626 0.791078
2048 4 0.157241 0.00423551 0.779323
2047 2 0.175726 0.0159938 0.767272
2049 4 0.194211 0.0277522 0.755221
2254 2 0.233797 0.0143133 0.763264
2256 4 0.212263 0.0226929 0.753711
2255 4 0.255331 0.00593374 0.772816
1113 4 0.360907 0.0502273 0.799131
1111 2 0.371484 0.0641717 0.816987
2442 4 0.434995 0.00400153 0.811472
2321 4 0.430993 0.0216328 0.807149
2322 4 0.432968 0.0546908 0.769679
2320 2 0.431981 0.0381618 0.788414
846 4 0.43131 0.0745175 0.765391
980 4 0.420089 0.0131415 0.820652
834 4 0.0160578 0.0844407 0.807149
832 2 0.0291845 0.105567 0.804589
862 2 0.0405271 0.141611 0.761341
863 4 0.0396031 0.136565 0.785813
833 4 0.0423111 0.126693 0.802028
1125 4 0.0575042 0.137026 0.793619
1123 2 0.0677208 0.144591 0.81515
1255 2 0.249348 0.123724 0.772771
921 4 0.226727 0.133909 0.803766
919 2 0.210622 0.15224 0.809224
840 4 0.241424 0.130052 0.816299
1256 4 0.244277 0.129438 0.796579
1257 4 0.254419 0.11801 0.748963
819 4 0.38549 0.141328 0.827045
1085 4 0.368524 0.149177 0.819452
1084 2 0.352966 0.168649 0.817462
3480 4 0.510195 0.100904 0.834277
3468 4 0.500054 0.160467 0.778327
3268 2 0.476841 0.13691 0.748895
3270 4 0.489416 0.150418 0.765765
1146 4 0.481469 0.166601 0.773381
34 3 0.117947 0.180593 0.812792
1131 4 0.159321 0.215015 0.771515
822 4 0.162001 0.234606 0.775471
1277 4 0.169121 0.220691 0.787263
1276 2 0.181743 0.205308 0.802402
920 4 0.194518 0.170571 0.814681
1278 4 0.194365 0.189924 0.817541
1298 4 0.33469 0.205954 0.751628
1297 2 0.337092 0.203925 0.776433
1299 4 0.339494 0.201896 0.801238
1086 4 0.337407 0.188121 0.815472
50 3 0.397748 0.202431 0.809184
1261 2 0.411512 0.184239 0.75653
46 1 0.42022 0.203692 0.805706
49 3 0.425486 0.223662 0.795129
1043 4 0.433951 0.212513 0.780082
48 3 0.431458 0.202249 0.825955
47 3 0.426803 0.186208 0.792285
1263 4 0.422784 0.195981 0.775511
1145 4 0.440986 0.194827 0.781455
1144 2 0.461228 0.180714 0.777418
1042 2 0.443574 0.229534 0.764497
820 2 0.172176 0.256831 0.780736
821 4 0.18235 0.279056 0.786
1234 2 0.225004 0.3339 0.793013
1235 4 0.240681 0.333691 0.81249
1165 2 0.488642 0.259649 0.761864
3226 2 0.000497636 0.391848 0.830439
894 4 0.0566106 0.351038 0.75642
3275 4 0.00544324 0.343637 0.787548
3276 4 0.0453479 0.364286 0.765594
3274 2 0.0253956 0.353962 0.776571
816 4 0.0644647 0.36796 0.762177
848 4 0.0419455 0.406748 0.827677
847 2 0.0482861 0.413403 0.804425
3228 4 0.0223616 0.403689 0.827807
814 2 0.0873512 0.376221 0.767934
942 4 0.121742 0.383426 0.757272
815 4 0.110238 0.384482 0.773691
1080 4 0.1291 0.379736 0.774721
1078 2 0.148036 0.384989 0.79018
1079 4 0.166972 0.390243 0.80564
1236 4 0.209326 0.334109 0.773537