ITEM: TIMESTEP
350000
ITEM: NUMBER OF ATOMS
4590
ITEM: BOX BOUNDS pp pp pp
-9.9985700000000008e+00 9.9985700000000008e+00
-9.9985700000000008e+00 9.9985700000000008e+00
-9.9985700000000008e+00 9.9985700000000008e+00
ITEM: ATOMS id type xs ys zs
463 2 0.0346205 0.0553485 0.05032
465 4 0.0263041 0.0784177 0.0454388
464 4 0.0429369 0.0322793 0.0552013
1667 4 0.0674671 0.0296308 0.0743776
701 4 0.0804466 0.0740003 0.0455744
1666 2 0.0860889 0.0129457 0.0742678
1668 4 0.104711 0.996261 0.074158
534 4 0.199801 0.0792877 0.0132183
490 2 0.276641 0.0294224 0.0326231
491 4 0.288597 0.0508143 0.027661
492 4 0.264685 0.00803045 0.0375852
296 4 0.382804 0.0459535 0.0537904
557 4 0.37701 0.0658769 0.0539534
295 2 0.37051 0.0318478 0.0703758
1608 4 0.397474 0.0149214 0.0258252
745 2 0.458532 0.0674238 0.0307425
747 4 0.461706 0.0552097 0.00915731
589 2 0.0320444 0.141212 0.0668259
590 4 0.0190278 0.153578 0.0494238
702 4 0.121171 0.0878908 0.0200935
700 2 0.100809 0.0809455 0.0328339
566 4 0.158652 0.0924411 0.0579553
423 4 0.0905605 0.13593 0.00743981
565 2 0.179557 0.105055 0.0525645
567 4 0.200462 0.117668 0.0471736
358 2 0.275229 0.119856 0.00699777
360 4 0.270716 0.132193 0.0282727
556 2 0.361788 0.0839182 0.0457067
558 4 0.346567 0.101959 0.03746
746 4 0.455358 0.0796378 0.0523278
770 4 0.48009 0.161189 0.0491402
553 2 0.0483019 0.210026 0.0123117
554 4 0.0287677 0.205749 0.0273215
555 4 0.0678361 0.214304 0.997302
738 4 0.223777 0.219213 0.083846
666 4 0.335278 0.226848 0.0210046
664 2 0.331925 0.20654 0.00680926
461 4 0.331382 0.22801 0.075939
324 4 0.409617 0.244201 0.0668536
1071 4 0.397017 0.236425 0.00277324
322 2 0.427739 0.24147 0.083863
771 4 0.458543 0.202809 0.0665841
769 2 0.469317 0.181999 0.0578622
1012 2 0.49851 0.199754 0.0100811
1014 4 0.473814 0.200351 0.0139462
292 2 0.131101 0.322969 0.0278096
294 4 0.114737 0.328062 0.00960391
293 4 0.147466 0.317876 0.0460154
507 4 0.165165 0.309458 0.0448319
506 4 0.185406 0.263827 0.0477955
483 4 0.211705 0.287734 0.0787263
505 2 0.175286 0.286643 0.0463137
481 2 0.228936 0.304907 0.0845061
357 4 0.249345 0.27334 0.0233439
355 2 0.249765 0.253543 0.00807778
571 2 0.323762 0.255088 0.0498847
573 4 0.316096 0.238528 0.0669778
572 4 0.331428 0.271648 0.0327917
1069 2 0.399999 0.25849 0.0141496
1070 4 0.40298 0.280555 0.025526
281 4 0.455297 0.331728 0.0435775
671 4 0.4545 0.347405 0.0548982
330 4 0.0237475 0.404388 0.0510402
328 2 0.0076135 0.38718 0.0427482
329 4 0.991479 0.369972 0.0344562
455 4 0.100198 0.35602 0.0773691
286 2 0.15859 0.383013 0.0168305
287 4 0.157705 0.358756 0.0228324
288 4 0.159475 0.407269 0.0108287
252 4 0.297363 0.387208 0.0574388
250 2 0.282934 0.390926 0.03736
251 4 0.268505 0.394643 0.0172811
608 4 0.292346 0.393052 0.0752272
280 2 0.472158 0.33845 0.0263814
670 2 0.461721 0.34435 0.0786406
282 4 0.489019 0.345172 0.00918529
550 2 0.078247 0.423572 0.0297378
551 4 0.0598666 0.423613 0.0127868
313 2 0.00203076 0.452546 0.087827
552 4 0.0966275 0.423531 0.0466888
242 4 0.127882 0.485947 0.0723367
1787 4 0.112563 0.498754 0.0702344
241 2 0.14892 0.496194 0.0811447
245 4 0.220372 0.466939 0.0638283
244 2 0.243688 0.466265 0.0548233
627 4 0.211855 0.44891 0.0706081
243 4 0.169959 0.50644 0.0899527
246 4 0.267004 0.465591 0.0458182
272 4 0.258643 0.47062 0.0271112
271 2 0.279643 0.473184 0.013784
273 4 0.300643 0.475748 0.000456735
524 4 0.34182 0.470318 0.0657792
227 4 0.480777 0.472828 0.0628409
562 2 0.456588 0.49503 0.012872
226 2 0.503303 0.473057 0.0519917
19 3 0.0237488 0.0713197 0.16862
20 3 0.0577455 0.0874496 0.167314
450 4 0.158767 0.0648919 0.142553
448 2 0.172151 0.0818236 0.155177
1505 4 0.231256 0.0514668 0.15477
652 2 0.299909 0.0344022 0.148526
653 4 0.309618 0.0418714 0.126728
297 4 0.358217 0.017742 0.0869612
1760 4 0.491146 0.00192377 0.133429
2724 4 0.495662 0.0174879 0.144228
2723 4 0.498857 0.0652758 0.129847
2722 2 0.49726 0.0413819 0.137038
591 4 0.0450611 0.128846 0.0842279
380 4 0.0111192 0.130673 0.152059
237 4 0.188404 0.161215 0.161025
449 4 0.185535 0.0987554 0.167801
235 2 0.182687 0.137062 0.158006
236 4 0.17697 0.112909 0.154987
693 4 0.203776 0.0951836 0.172336
254 4 0.401685 0.165266 0.0981047
339 4 0.0553594 0.24073 0.141517
2625 4 0.997563 0.194915 0.0972233
476 4 0.135374 0.203568 0.118705
475 2 0.117713 0.20818 0.135793
477 4 0.100052 0.212791 0.152881
737 4 0.180477 0.225616 0.108029
736 2 0.202127 0.222414 0.0959373
354 4 0.294454 0.220996 0.117853
352 2 0.283327 0.24335 0.119155
285 4 0.279709 0.193911 0.149312
283 2 0.268995 0.205588 0.168651
460 2 0.339939 0.211363 0.0925167
255 4 0.353644 0.179126 0.098951
462 4 0.348497 0.194716 0.109094
253 2 0.377665 0.172196 0.0985279
630 4 0.413071 0.172959 0.113423
629 4 0.46183 0.180624 0.121458
628 2 0.43745 0.176792 0.11744
518 4 0.47722 0.224846 0.0982661
323 4 0.445861 0.238739 0.100872
620 4 0.0167944 0.317894 0.144186
337 2 0.0761389 0.24593 0.154415
621 4 0.00339371 0.331794 0.0980567
619 2 0.0100941 0.324844 0.121121
338 4 0.0969183 0.25113 0.167313
277 2 0.246617 0.267743 0.155699
482 4 0.246166 0.322079 0.090286
353 4 0.2722 0.265703 0.120456
754 2 0.280718 0.302532 0.112666
755 4 0.282373 0.27794 0.108463
756 4 0.279063 0.327124 0.116869
278 4 0.256812 0.266646 0.132895
612 4 0.272512 0.322637 0.135817
741 4 0.336787 0.317229 0.0906215
622 2 0.393662 0.276725 0.163568
739 2 0.354034 0.3314 0.101886
623 4 0.391418 0.271919 0.139133
517 2 0.489283 0.246386 0.102225
519 4 0.501347 0.267926 0.106184
647 4 0.0552038 0.350472 0.136455
646 2 0.0779345 0.347344 0.146391
454 2 0.11612 0.356708 0.0966356
456 4 0.132042 0.357397 0.115902
648 4 0.100665 0.344216 0.156326
537 4 0.168785 0.360221 0.145737
535 2 0.193663 0.357763 0.146224
626 4 0.217946 0.410421 0.101948
536 4 0.218541 0.355305 0.146712
609 4 0.318623 0.354674 0.0935956
607 2 0.305485 0.373863 0.0844114
610 2 0.260339 0.333631 0.154688
387 4 0.339793 0.38353 0.160008
740 4 0.371282 0.345571 0.113151
15 3 0.378145 0.362688 0.120037
385 2 0.349311 0.370825 0.14069
386 4 0.358828 0.358119 0.121372
11 1 0.400688 0.363455 0.123175
13 3 0.405594 0.361772 0.145792
14 3 0.409194 0.383301 0.11468
12 3 0.410482 0.345826 0.11211
672 4 0.468942 0.341295 0.102383
495 4 0.425597 0.394645 0.120704
493 2 0.4267 0.416835 0.132174
597 4 0.475083 0.398188 0.161009
645 4 0.463793 0.381853 0.159375
1467 4 0.0143226 0.49261 0.138174
315 4 0.00817338 0.429695 0.0959062
1465 2 0.0365082 0.496512 0.149026
625 2 0.214901 0.429666 0.0862782
637 2 0.253071 0.486296 0.129892
638 4 0.26346 0.470068 0.145826
767 4 0.261712 0.483392 0.159766
525 4 0.348295 0.489248 0.11161
523 2 0.345057 0.479783 0.0886944
658 2 0.404372 0.469819 0.144231
659 4 0.381253 0.478814 0.147361
660 4 0.427491 0.460824 0.141101
595 2 0.48973 0.418347 0.158945
494 4 0.427802 0.439025 0.143644
16 1 0.0449377 0.0719813 0.178054
17 3 0.0430277 0.0778023 0.200226
18 3 0.054904 0.0510764 0.176618
673 2 0.117231 0.0471747 0.22475
674 4 0.119822 0.0688804 0.212612
675 4 0.114639 0.0254691 0.236888
689 4 0.209138 0.99846 0.21792
1506 4 0.22869 0.00847092 0.180176
1504 2 0.229973 0.0299689 0.167473
654 4 0.2902 0.0269331 0.170323
21 1 0.37304 0.0436062 0.230783
24 3 0.350541 0.0402202 0.226229
25 3 0.385639 0.0371049 0.212961
759 4 0.400719 0.0391531 0.199179
757 2 0.404655 0.0621831 0.190274
22 3 0.376533 0.0659906 0.234769
758 4 0.40859 0.0852132 0.181368
742 2 0.479719 0.043218 0.229625
743 4 0.495564 0.0612189 0.236702
744 4 0.463874 0.025217 0.222549
379 2 0.0156841 0.144291 0.172526
381 4 0.020249 0.15791 0.192992
511 2 0.0432384 0.153174 0.218837
512 4 0.0282776 0.141508 0.20255
513 4 0.0581992 0.164839 0.235125
579 4 0.0906975 0.11804 0.220014
577 2 0.0951683 0.136137 0.203349
578 4 0.0996391 0.154233 0.186684
692 4 0.24611 0.114414 0.190742
723 4 0.184855 0.105639 0.240719
691 2 0.224943 0.104799 0.181539
721 2 0.190968 0.128871 0.247652
582 4 0.289345 0.0846277 0.170101
580 2 0.289705 0.102677 0.1874
581 4 0.290064 0.120726 0.2047
30 3 0.303845 0.118209 0.220782
26 1 0.313376 0.112997 0.240798
27 3 0.331933 0.0998967 0.237171
312 4 0.429503 0.12425 0.170738
333 4 0.443839 0.158934 0.224744
310 2 0.445912 0.117144 0.188215
311 4 0.46232 0.110039 0.205692
362 4 0.134026 0.231628 0.209588
361 2 0.113068 0.238064 0.197566
372 4 0.151159 0.230942 0.200216
370 2 0.170582 0.242338 0.211081
284 4 0.25828 0.217266 0.18799
764 4 0.378847 0.194212 0.195481
763 2 0.388752 0.212216 0.209726
765 4 0.398657 0.230221 0.22397
522 4 0.504205 0.205946 0.258947
395 4 0.0643288 0.277955 0.233375
394 2 0.0398996 0.275961 0.238316
750 4 0.0878206 0.302153 0.22968
396 4 0.0154704 0.273968 0.243258
363 4 0.0921108 0.244501 0.185544
748 2 0.0950381 0.280592 0.240081
371 4 0.190006 0.253733 0.221946
279 4 0.236421 0.26884 0.178503
344 4 0.26671 0.283839 0.246542
307 2 0.323361 0.267217 0.222615
309 4 0.311343 0.275954 0.202505
624 4 0.395906 0.28153 0.188003
308 4 0.33538 0.25848 0.242724
528 4 0.474641 0.253027 0.220784
527 4 0.495607 0.281754 0.185629
526 2 0.485124 0.26739 0.203207
300 4 0.118808 0.347887 0.217141
298 2 0.123577 0.362877 0.236576
299 4 0.128346 0.377867 0.256011
290 4 0.218004 0.421145 0.236636
611 4 0.248166 0.344626 0.173559
302 4 0.331677 0.380852 0.177516
303 4 0.345872 0.403932 0.219546
301 2 0.338774 0.392392 0.198531
643 2 0.456739 0.373775 0.181962
644 4 0.449685 0.365698 0.204549
447 4 0.447913 0.367434 0.224492
108 3 0.500293 0.403329 0.231441
445 2 0.469236 0.370731 0.237126
263 4 0.0707042 0.448492 0.224028
262 2 0.048877 0.449378 0.236192
264 4 0.0270498 0.450263 0.248356
417 4 0.135646 0.459331 0.20701
415 2 0.15613 0.446184 0.201291
1430 4 0.165988 0.493399 0.199372
416 4 0.176615 0.433037 0.195571
291 4 0.197169 0.432241 0.192551
289 2 0.207586 0.426693 0.214594
768 4 0.255936 0.464852 0.205849
766 2 0.258824 0.474122 0.182808
231 4 0.421751 0.489622 0.198194
232 2 0.0280896 0.0503197 0.286187
233 4 0.0395004 0.031652 0.29829
1402 2 0.0679952 0.0112779 0.276634
1403 4 0.0451702 0.0178141 0.284475
234 4 0.0166787 0.0689873 0.274084
731 4 0.100798 0.0691862 0.323864
1699 2 0.243975 0.0450134 0.314378
1700 4 0.256112 0.0525095 0.293844
23 3 0.379202 0.0315774 0.249644
633 4 0.381115 0.0749451 0.330844
478 2 0.469437 0.038121 0.33054
351 4 0.459528 0.054925 0.265798
349 2 0.454169 0.0766425 0.276969
479 4 0.472691 0.0602734 0.319411
318 4 0.0352651 0.0828979 0.323199
398 4 0.0631065 0.135212 0.298634
397 2 0.0786256 0.123795 0.314571
399 4 0.0941448 0.112377 0.330508
722 4 0.197081 0.152104 0.254585
546 4 0.188664 0.165338 0.266875
248 4 0.234279 0.0901741 0.291898
249 4 0.243417 0.137704 0.304475
247 2 0.238848 0.113939 0.298187
404 4 0.229578 0.152186 0.297184
28 3 0.298305 0.101189 0.253908
29 3 0.319904 0.132385 0.251747
632 4 0.376752 0.116696 0.303669
631 2 0.378934 0.0958207 0.317257
331 2 0.450614 0.159407 0.248808
350 4 0.448809 0.0983599 0.288141
392 4 0.135067 0.202481 0.276439
391 2 0.110311 0.199341 0.277999
393 4 0.0855541 0.1962 0.279559
545 4 0.15283 0.200153 0.269015
389 4 0.0881356 0.242191 0.320418
403 2 0.225497 0.175298 0.28856
544 2 0.170747 0.182745 0.267945
405 4 0.221416 0.19841 0.279936
706 2 0.327372 0.189013 0.319988
707 4 0.32332 0.202713 0.299468
473 4 0.256799 0.188053 0.338463
420 4 0.397012 0.201361 0.301747
332 4 0.457389 0.15988 0.272871
520 2 0.483116 0.216229 0.26759
521 4 0.462027 0.226512 0.276232
762 4 0.465368 0.172484 0.28538
418 2 0.418369 0.207549 0.313182
419 4 0.439725 0.213738 0.324618
761 4 0.503757 0.172603 0.317426
760 2 0.484562 0.172543 0.301403
444 4 0.0168371 0.262005 0.30904
443 4 0.00769913 0.26364 0.259902
442 2 0.0122681 0.262823 0.284471
390 4 0.0638661 0.283634 0.334355
388 2 0.0760009 0.262913 0.327387
749 4 0.102256 0.25903 0.250482
401 4 0.196295 0.26037 0.274274
345 4 0.230768 0.280589 0.28116
400 2 0.203163 0.265828 0.297689
402 4 0.21003 0.271285 0.321103
508 2 0.232633 0.306026 0.327858
510 4 0.228309 0.282284 0.321316
343 2 0.248739 0.282214 0.263851
496 2 0.323472 0.311132 0.278522
498 4 0.303155 0.32567 0.277488
497 4 0.343789 0.296595 0.279555
543 4 0.405673 0.3174 0.32204
717 4 0.366208 0.261806 0.318246
541 2 0.42683 0.326328 0.312147
542 4 0.447986 0.335256 0.302253
366 4 0.007173 0.346141 0.276548
364 2 0.0240092 0.334679 0.291051
365 4 0.0408455 0.323217 0.305554
602 4 0.084956 0.401799 0.295965
601 2 0.0971427 0.391208 0.276873
603 4 0.109329 0.380617 0.257781
734 4 0.146836 0.378452 0.262388
733 2 0.159249 0.375866 0.283938
735 4 0.171662 0.37328 0.305488
677 4 0.188737 0.383809 0.308529
676 2 0.204459 0.374055 0.325347
729 4 0.318174 0.361016 0.259808
433 2 0.312927 0.385098 0.322103
434 4 0.321887 0.408434 0.321554
435 4 0.303968 0.361761 0.322651
615 4 0.396269 0.329419 0.333439
727 2 0.333487 0.380374 0.263805
613 2 0.375362 0.342625 0.329738
728 4 0.348799 0.399732 0.267802
614 4 0.354456 0.35583 0.326036
2538 4 0.490048 0.361257 0.296962
446 4 0.49056 0.374028 0.249759
549 4 0.0371341 0.418117 0.314816
777 4 0.0726794 0.448597 0.2797
547 2 0.0483605 0.41418 0.336808
775 2 0.0867683 0.439459 0.298226
776 4 0.100857 0.430322 0.316751
414 4 0.145224 0.455652 0.295203
412 2 0.159221 0.468528 0.311435
413 4 0.173217 0.481404 0.327667
436 2 0.296037 0.444318 0.284031
437 4 0.289578 0.450521 0.260686
438 4 0.302495 0.438116 0.307376
713 4 0.405733 0.484624 0.282492
2861 4 0.498026 0.475055 0.260431
712 2 0.426763 0.482361 0.269159
714 4 0.447794 0.480097 0.255826
316 2 0.0452896 0.0690377 0.341436
317 4 0.055314 0.0551775 0.359673
428 4 0.0642385 0.0228261 0.372074
427 2 0.073289 0.00334024 0.359284
1782 4 0.126127 0.993718 0.380268
368 4 0.124023 0.0333536 0.409994
1701 4 0.231837 0.0375172 0.334913
606 4 0.171556 0.0742958 0.384116
604 2 0.181314 0.0683011 0.361889
605 4 0.191071 0.0623064 0.339662
683 4 0.309043 0.076768 0.373968
441 4 0.280387 0.0153892 0.403479
439 2 0.296293 0.997866 0.411548
257 4 0.393142 0.0620986 0.338949
698 4 0.375838 0.0565355 0.331305
697 2 0.360069 0.0372514 0.333461
699 4 0.3443 0.0179674 0.335617
256 2 0.407263 0.0541465 0.357989
424 2 0.413342 0.029819 0.409004
426 4 0.426614 0.0471145 0.396761
480 4 0.466182 0.0159685 0.341669
258 4 0.421384 0.0461944 0.37703
730 2 0.113637 0.0818475 0.341186
732 4 0.126475 0.0945088 0.358508
685 2 0.157317 0.16316 0.410684
599 4 0.162 0.175914 0.35477
687 4 0.138953 0.148872 0.419838
600 4 0.18351 0.130777 0.353951
598 2 0.172755 0.153346 0.35436
682 2 0.296862 0.0891173 0.391976
684 4 0.28468 0.101467 0.409984
452 4 0.494481 0.149634 0.378403
451 2 0.471144 0.149132 0.387366
453 4 0.447808 0.148629 0.396329
515 4 0.434353 0.161029 0.403676
2655 4 0.00604191 0.239743 0.376838
2653 2 0.0181791 0.217918 0.378075
2654 4 0.0303163 0.196093 0.379311
686 4 0.175681 0.177447 0.40153
474 4 0.248021 0.231901 0.360847
276 4 0.22902 0.248921 0.392473
472 2 0.25241 0.209977 0.349655
708 4 0.331423 0.175313 0.340508
488 4 0.278912 0.219812 0.384186
487 2 0.281825 0.239019 0.399928
305 4 0.468667 0.197896 0.408744
616 2 0.0616591 0.327314 0.373165
618 4 0.0550481 0.310249 0.390201
347 4 0.0558076 0.292426 0.402612
375 4 0.167374 0.324627 0.409661
509 4 0.236956 0.329769 0.334399
274 2 0.205703 0.25548 0.386271
275 4 0.182386 0.262039 0.38007
373 2 0.191059 0.32949 0.403293
374 4 0.214743 0.334353 0.396925
376 2 0.291287 0.279125 0.3415
377 4 0.312046 0.291151 0.348544
378 4 0.270528 0.267098 0.334455
716 4 0.341012 0.244697 0.357909
715 2 0.35361 0.253252 0.338077
268 2 0.495337 0.273071 0.404473
270 4 0.496585 0.248291 0.407569
617 4 0.0682702 0.34438 0.356128
408 4 0.079772 0.397489 0.409125
548 4 0.0595868 0.410243 0.3588
406 2 0.0775184 0.408571 0.386825
678 4 0.220182 0.364302 0.342165
502 2 0.245246 0.418018 0.422125
336 4 0.355857 0.38587 0.392137
334 2 0.358169 0.382963 0.416863
561 4 0.464305 0.374411 0.393145
752 4 0.471237 0.385471 0.378284
559 2 0.481127 0.371256 0.411373
751 2 0.458743 0.401539 0.363761
753 4 0.44625 0.417607 0.349239
407 4 0.0752648 0.419653 0.364525
2463 4 0.0103708 0.479955 0.332265
499 2 0.107001 0.488981 0.366365
500 4 0.119021 0.4832 0.345217
501 4 0.0949818 0.494763 0.387514
503 4 0.264611 0.419706 0.406399
5 3 0.29211 0.439237 0.378444
1 1 0.307871 0.451831 0.389009
2 3 0.297443 0.467945 0.401689
4 3 0.320669 0.438422 0.402967
3 3 0.32148 0.462242 0.373363
594 4 0.389182 0.488422 0.364365
592 2 0.404599 0.471753 0.353895
593 4 0.420017 0.455084 0.343426
117 3 0.500241 0.437197 0.365269
1772 4 0.0251061 0.00137486 0.439331
718 2 0.0479952 0.0632007 0.473017
720 4 0.0360814 0.0469057 0.487772
719 4 0.059909 0.0794956 0.458261
2237 4 0.0365366 0.0339556 0.501879
2236 2 0.0263386 0.0139485 0.490884
367 2 0.126763 0.0496005 0.428801
369 4 0.129503 0.0658473 0.447609
341 4 0.176075 0.0329959 0.493387
1181 4 0.237369 0.0496291 0.470377
1180 2 0.244499 0.0691712 0.484249
726 4 0.334758 0.0350021 0.449188
425 4 0.400069 0.0125235 0.421247
724 2 0.337052 0.0598783 0.448146
2879 4 0.50431 0.0613216 0.430845
2878 2 0.495167 0.0771284 0.447925
457 2 0.0134577 0.161533 0.429686
320 4 0.292772 0.112581 0.424302
321 4 0.277877 0.159931 0.43037
319 2 0.285325 0.136256 0.427336
1182 4 0.251629 0.0887133 0.498122
725 4 0.339347 0.0847545 0.447104
574 2 0.401689 0.140582 0.472307
575 4 0.414293 0.146333 0.451493
516 4 0.403207 0.140112 0.436738
576 4 0.389084 0.134831 0.493121
514 2 0.41878 0.150571 0.420207
642 4 0.489138 0.113196 0.467086
2880 4 0.486023 0.0929351 0.465005
640 2 0.476389 0.122225 0.486609
458 4 0.032587 0.165617 0.44526
471 4 0.0130203 0.188431 0.495784
469 2 0.0294826 0.200483 0.48133
470 4 0.0459449 0.212536 0.466877
260 4 0.106134 0.203048 0.430261
261 4 0.114861 0.187348 0.476931
259 2 0.110497 0.195198 0.453596
1035 4 0.120057 0.198824 0.493383
695 4 0.0903953 0.247872 0.462685
411 4 0.253864 0.191997 0.470823
409 2 0.277814 0.189657 0.477613
410 4 0.301763 0.187316 0.484403
468 4 0.342385 0.190035 0.42206
467 4 0.390686 0.197831 0.432402
466 2 0.366536 0.193933 0.427231
304 2 0.469303 0.218823 0.422412
306 4 0.469939 0.239751 0.43608
346 2 0.0484037 0.299569 0.425402
348 4 0.0409998 0.306711 0.448191
326 4 0.0751997 0.3216 0.446182
694 2 0.0987132 0.262649 0.481059
7 3 0.142332 0.325627 0.485073
327 4 0.115864 0.348568 0.457129
325 2 0.0955321 0.335084 0.451656
10 3 0.179305 0.322778 0.480861
651 4 0.257647 0.27117 0.447156
489 4 0.284738 0.258225 0.415669
650 4 0.275601 0.313792 0.466175
649 2 0.266624 0.292481 0.456665
266 4 0.326125 0.286781 0.441043
267 4 0.346176 0.265574 0.48165
265 2 0.336151 0.276178 0.461346
583 2 0.469879 0.28468 0.460955
584 4 0.492552 0.293281 0.467048
585 4 0.447206 0.276079 0.454861
6 1 0.162582 0.335609 0.489482
8 3 0.162874 0.356635 0.479672
711 4 0.173433 0.37346 0.478224
709 2 0.187845 0.392695 0.471333
710 4 0.202256 0.411931 0.464441
774 4 0.227939 0.413436 0.490078
504 4 0.22588 0.416331 0.437851
238 2 0.377927 0.382863 0.470268
240 4 0.355848 0.387453 0.459468
335 4 0.360482 0.380055 0.441589
239 4 0.400005 0.378272 0.481068
560 4 0.497949 0.3681 0.4296
935 4 0.0189278 0.451656 0.497495
681 4 0.0652192 0.436784 0.449889
383 4 0.0815749 0.427318 0.45863
680 4 0.0349433 0.468805 0.426251
1383 4 0.0207264 0.473107 0.440041
679 2 0.0500812 0.452794 0.43807
384 4 0.122197 0.454732 0.448679
568 2 0.154377 0.465911 0.448256
569 4 0.137957 0.452163 0.461161
382 2 0.101886 0.441025 0.453654
570 4 0.170798 0.479659 0.435351
635 4 0.218096 0.430448 0.489966
634 2 0.235345 0.44445 0.478496
669 4 0.300087 0.451927 0.474323
636 4 0.252594 0.458453 0.467026
668 4 0.310133 0.444566 0.425892
667 2 0.30511 0.448247 0.450108
587 4 0.405732 0.433553 0.477092
586 2 0.393693 0.442239 0.456972
588 4 0.381655 0.450925 0.436852
663 4 0.465181 0.455302 0.493676
661 2 0.474956 0.478181 0.496159
1126 2 0.0282154 0.0556994 0.527549
1127 4 0.0402732 0.05333 0.505774
1128 4 0.0161576 0.0580689 0.549325
1058 4 0.125953 0.0526352 0.563045
1057 2 0.129463 0.0730603 0.577033
2428 2 0.200431 0.00319469 0.51585
342 4 0.181655 0.0774355 0.515629
2430 4 0.185781 0.0199666 0.504481
340 2 0.178865 0.0552157 0.504508
1030 2 0.249132 0.0841709 0.564609
961 2 0.284283 0.027861 0.517404
963 4 0.305514 0.0379803 0.525891
962 4 0.263052 0.0177418 0.508917
432 4 0.316817 0.0423606 0.509415
430 2 0.330901 0.0622104 0.515142
950 4 0.268809 0.00657565 0.588295
1217 4 0.398741 0.0462276 0.54923
1216 2 0.403191 0.0227844 0.5567
841 2 0.384005 0.0710605 0.527659
842 4 0.404343 0.0626315 0.539513
431 4 0.344985 0.0820603 0.520869
1062 4 0.481623 0.0474425 0.522607
938 4 0.0674683 0.115886 0.540164
937 2 0.081976 0.136245 0.539696
939 4 0.0964837 0.156604 0.539227
1153 2 0.151749 0.126757 0.568429
1154 4 0.162965 0.146678 0.558303
1152 4 0.188093 0.0844128 0.532762
1151 4 0.173398 0.130037 0.518506
1150 2 0.180746 0.107225 0.525634
1032 4 0.260868 0.102446 0.552221
843 4 0.363667 0.0794894 0.515806
641 4 0.46364 0.131254 0.506131
878 4 0.033564 0.204982 0.57831
1199 4 0.0211685 0.200487 0.56362
1034 4 0.112627 0.163942 0.528436
1033 2 0.116342 0.181383 0.51091
856 2 0.237145 0.204749 0.539063
857 4 0.216726 0.208686 0.525179
898 2 0.32172 0.168439 0.517931
858 4 0.257563 0.200813 0.552947
900 4 0.311951 0.174113 0.495625
791 4 0.288692 0.228623 0.56577
790 2 0.299127 0.250551 0.571726
899 4 0.331489 0.162764 0.540236
871 2 0.382164 0.233242 0.516312
873 4 0.359826 0.238332 0.526327
872 4 0.404501 0.228151 0.506297
905 4 0.483438 0.22689 0.564076
1258 2 0.135488 0.278835 0.525666
1260 4 0.116319 0.28839 0.512766
1259 4 0.154658 0.269279 0.538566
696 4 0.107031 0.277427 0.499433
811 2 0.303982 0.303616 0.502852
804 4 0.269725 0.326679 0.510962
792 4 0.309562 0.272478 0.577682
1238 4 0.321533 0.288401 0.580186
812 4 0.285425 0.320344 0.501876
813 4 0.322539 0.286887 0.503828
983 4 0.0418819 0.342479 0.552447
982 2 0.0427434 0.346319 0.577138
9 3 0.16514 0.337554 0.512462
1189 2 0.227544 0.385923 0.559834
773 4 0.240437 0.375492 0.520158
1190 4 0.238402 0.377085 0.539118
1191 4 0.216687 0.394762 0.580551
772 2 0.234188 0.394464 0.505118
802 2 0.261938 0.347952 0.521547
803 4 0.254151 0.369224 0.532132
930 4 0.343979 0.388477 0.573464
928 2 0.34279 0.380078 0.549944
929 4 0.3416 0.371679 0.526423
925 2 0.457109 0.406427 0.519393
927 4 0.475086 0.391758 0.528712
926 4 0.439133 0.421096 0.510074
3309 4 0.490822 0.404694 0.560734
934 2 7.54188e-06 0.456267 0.513178
539 4 0.0849268 0.463416 0.504318
2243 4 0.159798 0.492264 0.552452
538 2 0.100774 0.482169 0.509045
1161 4 0.156012 0.478932 0.567309
1159 2 0.172138 0.466168 0.58153
882 4 0.306541 0.452551 0.514354
891 4 0.287082 0.445555 0.578977
880 2 0.329614 0.458206 0.522154
889 2 0.311428 0.451215 0.57962
890 4 0.335774 0.456874 0.580263
881 4 0.352687 0.463861 0.529954
1952 4 0.361716 0.477265 0.540733
1951 2 0.371106 0.488516 0.560992
1002 4 0.41776 0.424724 0.571976
1953 4 0.380496 0.499767 0.581251
1000 2 0.43164 0.445143 0.568026
1001 4 0.44552 0.465561 0.564076
945 4 0.079732 0.000844166 0.654015
943 2 0.0783334 0.0258083 0.654132
825 4 0.118 0.020722 0.600111
823 2 0.133993 0.00927093 0.615547
1031 4 0.237395 0.0658959 0.576997
951 4 0.246786 0.0514332 0.586429
949 2 0.257798 0.0290044 0.587362
1092 4 0.341675 0.0266243 0.656324
808 2 0.479984 0.0761382 0.631535
810 4 0.473055 0.0745205 0.655504
1083 4 0.0586873 0.100351 0.625755
1082 4 0.0272952 0.112555 0.662718
1081 2 0.0429913 0.106453 0.644237
1155 4 0.140532 0.106837 0.578555
1059 4 0.132973 0.0934854 0.591022
909 4 0.146906 0.138792 0.658271
1284 4 0.158456 0.0885243 0.640793
1282 2 0.17854 0.0863931 0.655532
809 4 0.486914 0.0777559 0.607565
877 2 0.0569357 0.213202 0.581683
879 4 0.0803075 0.221421 0.585057
1245 4 0.0724106 0.252683 0.651634
1209 4 0.0913973 0.251213 0.660325
1272 4 0.0973345 0.226484 0.594499
1270 2 0.120203 0.231553 0.603245
1271 4 0.143072 0.236622 0.611992
1221 4 0.17569 0.187654 0.595095
797 4 0.218254 0.232021 0.62422
1210 2 0.236581 0.18375 0.644299
1212 4 0.21235 0.18647 0.649836
1219 2 0.184996 0.187885 0.618301
1220 4 0.194302 0.188117 0.641507
796 2 0.235682 0.224351 0.608016
947 4 0.181301 0.243693 0.628876
798 4 0.253111 0.216681 0.591811
1211 4 0.260811 0.18103 0.638762
888 4 0.262703 0.187608 0.658863
904 2 0.465157 0.224176 0.580916
906 4 0.446875 0.221461 0.597756
1025 4 0.454852 0.199637 0.655218
1244 4 0.0476848 0.244839 0.608881
1243 2 0.0600477 0.248761 0.630258
946 2 0.190051 0.26444 0.639748
948 4 0.198801 0.285187 0.650619
1064 4 0.210877 0.284841 0.667208
1237 2 0.308575 0.306553 0.591491
1239 4 0.295616 0.324704 0.602795
954 4 0.457414 0.302402 0.577107
952 2 0.470881 0.297972 0.597703
953 4 0.484348 0.293542 0.618299
984 4 0.043605 0.35016 0.60183
1039 2 0.0666437 0.370082 0.628809
1041 4 0.0462015 0.360013 0.618517
3263 4 0.0301865 0.348399 0.615659
3262 2 0.0121664 0.360916 0.627651
1137 4 0.134794 0.377565 0.595351
1040 4 0.0870859 0.38015 0.639101
897 4 0.151421 0.380954 0.585258
1136 4 0.0848597 0.374872 0.595609
1135 2 0.109827 0.376219 0.59548
991 2 0.123299 0.404178 0.654332
993 4 0.102767 0.392253 0.646494
992 4 0.14383 0.416103 0.66217
896 4 0.201235 0.384362 0.58803
895 2 0.176328 0.382658 0.586644
1029 4 0.237939 0.401063 0.658225
1204 2 0.410991 0.402824 0.662337
1205 4 0.433609 0.39631 0.653901
1171 2 0.219444 0.436522 0.584812
1173 4 0.194528 0.437593 0.586603
1172 4 0.244361 0.435451 0.583021
1187 4 0.2118 0.488158 0.601513
1160 4 0.188263 0.453405 0.595751
1186 2 0.213208 0.490007 0.626408
1269 4 0.45962 0.464433 0.657338
944 4 0.0769348 0.0507725 0.654249
1283 4 0.198624 0.084262 0.670272
1147 2 0.20679 0.0558716 0.743625
1149 4 0.210902 0.031232 0.744701
1003 2 0.329324 0.0804673 0.700859
1090 2 0.33673 0.0225521 0.680493
1091 4 0.331784 0.0184799 0.704662
1004 4 0.338308 0.0660091 0.719174
1163 4 0.474097 0.0597072 0.667898
1162 2 0.493466 0.0465854 0.676722
42 3 0.426733 0.0636198 0.680044
2320 2 0.487913 0.0106272 0.752935
44 3 0.461501 0.0745591 0.67087
846 4 0.499361 0.0820749 0.743353
1076 4 0.0317597 0.121055 0.680732
864 4 0.0481154 0.125095 0.73406
1075 2 0.0468775 0.124849 0.700283
1077 4 0.0619954 0.128643 0.719834
907 2 0.16429 0.136324 0.676072
1148 4 0.202677 0.0805112 0.74255
908 4 0.181674 0.133857 0.693873
1227 4 0.176528 0.136099 0.713419
1225 2 0.183155 0.11484 0.724791
1226 4 0.189781 0.0935815 0.736164
1005 4 0.32034 0.0949256 0.682544
831 4 0.357134 0.169383 0.681289
1142 4 0.399488 0.152822 0.724851
45 3 0.43248 0.0983178 0.667557
41 1 0.441307 0.0814172 0.680011
43 3 0.444513 0.0885272 0.701865
851 4 0.070844 0.182193 0.712233
852 4 0.0217453 0.185627 0.703387
850 2 0.0462946 0.18391 0.70781
1213 2 0.00889341 0.221748 0.746784
1107 4 0.0777721 0.171118 0.726205
1105 2 0.100193 0.176149 0.736062
1207 2 0.106345 0.238497 0.675818
1208 4 0.121293 0.22578 0.691311
1106 4 0.122614 0.181179 0.74592
1130 4 0.182291 0.202011 0.721786
1129 2 0.186798 0.220784 0.737674
830 4 0.310428 0.171878 0.698982
886 2 0.279331 0.186078 0.677473
887 4 0.295959 0.184548 0.696084
976 2 0.296882 0.195153 0.732767
978 4 0.301546 0.178863 0.714381
1193 4 0.377866 0.24457 0.69337
829 2 0.333781 0.170631 0.690136
1192 2 0.372478 0.220298 0.696016
1194 4 0.36709 0.196026 0.698663
1141 2 0.410361 0.174862 0.720247
1298 4 0.373616 0.21158 0.747109
1024 2 0.442351 0.197112 0.676724
1143 4 0.421234 0.196902 0.715642
1026 4 0.42985 0.194586 0.698231
1261 2 0.441718 0.23197 0.717254
1262 4 0.434397 0.209362 0.709479
3357 4 0.497428 0.24954 0.697439
3122 4 0.488355 0.246529 0.681062
820 2 0.184798 0.277287 0.73931
821 4 0.183274 0.296724 0.723655
1065 4 0.228095 0.280949 0.713996
1063 2 0.219486 0.282895 0.690602
822 4 0.186322 0.257851 0.754965
3123 4 0.468065 0.291592 0.673425
1263 4 0.449038 0.254579 0.725029
3121 2 0.47821 0.26906 0.677244
3274 2 0.00656757 0.387056 0.736365
892 2 0.0490177 0.363923 0.706902
893 4 0.0518192 0.355358 0.683579
894 4 0.0462161 0.372488 0.730225
3276 4 0.028986 0.376404 0.739389
816 4 0.0450501 0.377527 0.749109
940 2 0.132657 0.387853 0.742296
941 4 0.155546 0.386283 0.732356
1067 4 0.162636 0.398028 0.716787
1066 2 0.171186 0.413726 0.699304
1027 2 0.21689 0.409704 0.668592
806 4 0.307952 0.350558 0.676719
805 2 0.325913 0.344044 0.692848
1139 4 0.274344 0.40826 0.688784
807 4 0.343874 0.33753 0.708978
1019 4 0.395956 0.371936 0.742714
1281 4 0.0355773 0.470877 0.725664
1280 4 0.0696219 0.456518 0.691966
1279 2 0.0525996 0.463697 0.708815
1983 4 0.0191268 0.482509 0.723632
1981 2 0.0204855 0.484305 0.748534
1028 4 0.195842 0.418346 0.678959
1068 4 0.179736 0.429423 0.68182
1175 4 0.211868 0.492959 0.671348
1176 4 0.239688 0.495636 0.712816
1174 2 0.225778 0.494297 0.692082
1138 2 0.281877 0.425908 0.704815
1140 4 0.28941 0.443555 0.720846
1987 2 0.334678 0.498211 0.7383
1206 4 0.388373 0.409339 0.670772
1228 2 0.375035 0.46471 0.719269
1229 4 0.367083 0.487288 0.712046
1230 4 0.382987 0.442132 0.726493
1989 4 0.35216 0.496923 0.72047
1267 2 0.456184 0.487463 0.66645
1101 4 0.470883 0.427915 0.691198
1100 4 0.433615 0.455981 0.709201
1099 2 0.452249 0.441948 0.700199
1294 2 0.0278454 0.00586299 0.803307
911 4 0.0569056 0.0776042 0.810486
1296 4 0.0382983 0.0128502 0.824919
910 2 0.0703863 0.0777929 0.831544
1203 4 0.113099 0.0673898 0.751844
1201 2 0.109073 0.0485429 0.767774
1202 4 0.105046 0.029696 0.783703
2049 4 0.105085 0.00990163 0.786944
1257 4 0.240551 0.0443624 0.81693
1255 2 0.25706 0.062383 0.82221
1256 4 0.273569 0.0804037 0.82749
975 4 0.365176 0.00418384 0.82265
1113 4 0.401685 0.0251413 0.80055
1111 2 0.400526 0.0418353 0.819128
844 2 0.476476 0.0768689 0.751976
845 4 0.453591 0.0716629 0.760598
2322 4 0.494775 0.0330109 0.761714
862 2 0.0525114 0.121623 0.758428
863 4 0.0569073 0.118151 0.782796
832 2 0.0165176 0.108073 0.799005
833 4 0.0405944 0.112224 0.793689
34 3 0.0810101 0.157082 0.827404
31 1 0.0965742 0.172701 0.820178
33 3 0.117245 0.162553 0.817328
839 4 0.22192 0.115057 0.814971
838 2 0.244023 0.115979 0.826624
840 4 0.266126 0.116901 0.838277
1086 4 0.309843 0.146716 0.807437
1084 2 0.331455 0.143418 0.81957
1085 4 0.353067 0.14012 0.831704
3269 4 0.505086 0.137882 0.765655
3468 4 0.487632 0.162247 0.815359
1214 4 0.0261328 0.211081 0.761419