ITEM: TIMESTEP
2820000
ITEM: NUMBER OF ATOMS
4590
ITEM: BOX BOUNDS pp pp pp
-9.9985700000000008e+00 9.9985700000000008e+00
-9.9985700000000008e+00 9.9985700000000008e+00
-9.9985700000000008e+00 9.9985700000000008e+00
ITEM: ATOMS id type xs ys zs
465 4 0.0799272 0.0799837 0.0286484
701 4 0.0991714 0.0717523 0.0290798
700 2 0.120948 0.0623252 0.0211996
702 4 0.142724 0.0528981 0.0133194
566 4 0.163253 0.0531858 0.0102189
565 2 0.176151 0.0735 0.00342483
746 4 0.4871 0.0578561 0.028662
2469 4 0.493902 0.050814 0.0452336
745 2 0.474311 0.0574112 0.00718111
463 2 0.0553311 0.0824554 0.0248933
464 4 0.030735 0.0849271 0.0211382
590 4 0.0276072 0.0861958 0.0406599
589 2 0.00808678 0.0889237 0.0560448
558 4 0.37127 0.120558 0.0277051
556 2 0.363088 0.110527 0.0490969
557 4 0.354906 0.100496 0.0704888
771 4 0.455336 0.134436 0.0561033
769 2 0.459214 0.148152 0.0766465
554 4 0.0500355 0.201713 0.00774873
553 2 0.0708965 0.200279 0.0214579
555 4 0.0917575 0.198846 0.0351671
835 2 0.129265 0.206572 0.0188088
836 4 0.111165 0.20364 0.0358079
837 4 0.147365 0.209504 0.00180963
573 4 0.328657 0.247602 0.0661508
461 4 0.321273 0.238632 0.0817995
666 4 0.325793 0.228217 0.0653905
865 2 0.369809 0.173512 0.0015672
664 2 0.336465 0.212174 0.0494565
665 4 0.347138 0.196131 0.0335224
867 4 0.35706 0.188561 0.0169354
1070 4 0.416923 0.235431 0.064226
2808 4 0.0391337 0.305996 0.0248803
2806 2 0.0162273 0.29831 0.0313153
292 2 0.123653 0.317472 0.0644278
293 4 0.134429 0.32426 0.0429108
507 4 0.146612 0.328665 0.0280572
356 4 0.312608 0.301917 0.0423344
572 4 0.324986 0.296307 0.0554245
355 2 0.299878 0.314156 0.0246325
571 2 0.326822 0.271955 0.0607876
357 4 0.287149 0.326395 0.00693068
1069 2 0.422819 0.256952 0.0755058
322 2 0.447312 0.316991 0.0818007
647 4 0.0178533 0.351675 0.0638433
646 2 0.038534 0.343232 0.0750777
620 4 0.00337899 0.364594 0.0702749
648 4 0.0592146 0.33479 0.0863122
505 2 0.165837 0.344288 0.0314447
481 2 0.210608 0.391883 0.0259639
482 4 0.231742 0.405144 0.0243376
483 4 0.189473 0.378621 0.0275902
506 4 0.185062 0.359912 0.0348323
609 4 0.246451 0.412858 0.0364854
626 4 0.177483 0.40783 0.0894174
902 4 0.279107 0.343928 0.00552606
957 4 0.359926 0.39368 0.00575867
323 4 0.457522 0.337961 0.0727901
671 4 0.49529 0.373649 0.0560414
670 2 0.47415 0.365429 0.0665632
280 2 0.499339 0.409767 0.045047
672 4 0.453011 0.357208 0.0770849
550 2 0.0609148 0.447356 0.0855123
552 4 0.0802095 0.462881 0.0820686
1787 4 0.0885137 0.460613 0.0646707
1786 2 0.0990027 0.463248 0.0421271
1788 4 0.109492 0.465884 0.0195835
246 4 0.227436 0.482862 0.0359613
244 2 0.219792 0.466112 0.0528781
245 4 0.212147 0.449362 0.0697949
272 4 0.235856 0.480769 0.0187526
627 4 0.192021 0.451627 0.0701495
625 2 0.184752 0.429729 0.0797835
607 2 0.267819 0.424742 0.0312571
608 4 0.289187 0.436627 0.0260288
252 4 0.283742 0.453808 0.03456
250 2 0.306183 0.46368 0.0296478
251 4 0.328624 0.473552 0.0247355
2289 4 0.334654 0.491518 0.0320257
525 4 0.436063 0.476391 0.0753932
282 4 0.491755 0.429748 0.032069
226 2 0.466709 0.462041 0.0518055
227 4 0.482403 0.445831 0.041029
228 4 0.451016 0.478251 0.062582
563 4 0.445103 0.493221 0.0725091
16 1 0.0616177 0.0338032 0.149963
20 3 0.0614025 0.0403649 0.128156
1806 4 0.0493865 0.995782 0.139705
18 3 0.0523279 0.0126338 0.151953
19 3 0.0496972 0.0489329 0.162902
17 3 0.083356 0.0331189 0.157455
652 2 0.316435 0.0266791 0.165133
653 4 0.329079 0.0449997 0.153746
484 2 0.367217 0.0193011 0.103463
297 4 0.354402 0.0550983 0.12101
485 4 0.352611 0.0369152 0.113541
295 2 0.358215 0.0740552 0.105158
579 4 0.10519 0.132301 0.0970473
237 4 0.149427 0.155116 0.132592
578 4 0.139086 0.162515 0.117996
577 2 0.122138 0.147408 0.107522
235 2 0.164475 0.137497 0.14199
236 4 0.179523 0.119879 0.151389
693 4 0.196703 0.112238 0.15621
449 4 0.18106 0.103289 0.162081
691 2 0.221084 0.107316 0.153655
692 4 0.245464 0.102393 0.151099
582 4 0.257581 0.113088 0.13776
580 2 0.280232 0.117161 0.147533
581 4 0.302884 0.121234 0.157306
30 3 0.316337 0.135538 0.165053
296 4 0.362027 0.0930121 0.0893059
770 4 0.463092 0.161867 0.0971897
476 4 0.145841 0.174173 0.131776
737 4 0.158238 0.166153 0.119106
475 2 0.139366 0.185166 0.153279
736 2 0.167684 0.183086 0.103319
738 4 0.177131 0.200019 0.0875326
354 4 0.313993 0.244584 0.146399
283 2 0.316853 0.203515 0.153501
285 4 0.315163 0.179627 0.16069
284 4 0.318543 0.227403 0.146312
462 4 0.320347 0.236994 0.131771
460 2 0.32081 0.237813 0.106785
255 4 0.330773 0.239814 0.145564
352 2 0.292459 0.251745 0.156897
253 2 0.352569 0.249307 0.153307
1014 4 0.458581 0.181282 0.0935667
1013 4 0.485997 0.211869 0.122089
1012 2 0.472289 0.196576 0.107828
456 4 0.0620247 0.324584 0.103436
455 4 0.0394283 0.313249 0.146583
454 2 0.0507265 0.318917 0.125009
749 4 0.026437 0.307497 0.160834
294 4 0.112877 0.310684 0.0859448
610 2 0.238555 0.324487 0.112129
612 4 0.248277 0.301707 0.115558
756 4 0.241652 0.303081 0.133866
754 2 0.247789 0.282067 0.145948
353 4 0.270925 0.258905 0.167394
755 4 0.253925 0.261054 0.158029
254 4 0.374366 0.258801 0.161051
1071 4 0.428716 0.278474 0.0867857
324 4 0.437102 0.296021 0.0908113
611 4 0.228832 0.347266 0.108701
536 4 0.178502 0.387454 0.0925835
535 2 0.196948 0.37474 0.103686
537 4 0.215394 0.362025 0.114789
387 4 0.337518 0.4074 0.131533
739 2 0.40973 0.381638 0.126172
740 4 0.399407 0.387576 0.148157
385 2 0.359588 0.40106 0.141428
386 4 0.381658 0.39472 0.151322
495 4 0.396546 0.401436 0.162029
15 3 0.385158 0.375474 0.153243
741 4 0.420054 0.3757 0.104187
551 4 0.0416202 0.431831 0.0889561
242 4 0.097934 0.455008 0.0814389
241 2 0.112742 0.455196 0.101585
243 4 0.12755 0.455384 0.121731
1440 4 0.146819 0.462439 0.122957
1438 2 0.171578 0.465145 0.12076
1439 4 0.196338 0.46785 0.118563
637 2 0.219235 0.488978 0.109861
639 4 0.199383 0.476339 0.101417
303 4 0.29849 0.459951 0.110744
766 2 0.273757 0.488522 0.128077
768 4 0.292756 0.472388 0.126099
301 2 0.314064 0.440946 0.115373
302 4 0.329638 0.42194 0.120001
524 4 0.39578 0.480966 0.104669
493 2 0.407373 0.423887 0.160052
494 4 0.418201 0.446337 0.158074
660 4 0.4106 0.46336 0.150362
523 2 0.415921 0.478679 0.0900312
658 2 0.423886 0.481844 0.160707
380 4 0.0456762 0.0474846 0.182598
379 2 0.0438569 0.0721868 0.186013
450 4 0.148281 0.0678296 0.175077
675 4 0.0839415 0.0494519 0.17002
673 2 0.107737 0.054362 0.175922
1505 4 0.148732 0.0500244 0.183521
674 4 0.131533 0.0592721 0.181823
1504 2 0.16548 0.0383392 0.197947
689 4 0.17352 0.0101298 0.207312
1506 4 0.182229 0.026654 0.212374
1661 4 0.287013 0.00387776 0.164343
654 4 0.303791 0.0083584 0.17652
23 3 0.408347 0.0133255 0.241401
22 3 0.413538 0.0262201 0.20648
632 4 0.376995 0.04692 0.242556
21 1 0.422698 0.0133053 0.223167
757 2 0.482472 0.0206461 0.216684
25 3 0.44288 0.0219939 0.229154
759 4 0.461239 0.0279037 0.227714
350 4 0.44983 0.0365712 0.240736
512 4 0.0381469 0.114973 0.196728
381 4 0.0420376 0.0968891 0.189429
511 2 0.0557671 0.132431 0.19988
513 4 0.0733873 0.149888 0.203033
448 2 0.16467 0.0855595 0.168579
26 1 0.320518 0.148553 0.183268
28 3 0.307595 0.141472 0.201192
27 3 0.342736 0.146734 0.188941
311 4 0.445967 0.166979 0.203936
339 4 0.085393 0.166188 0.202967
337 2 0.105521 0.179886 0.197277
477 4 0.13289 0.196159 0.174783
363 4 0.141994 0.204237 0.190409
338 4 0.12565 0.193585 0.191586
362 4 0.129089 0.248078 0.210711
361 2 0.135542 0.226158 0.20056
29 3 0.315815 0.170745 0.178389
628 2 0.396718 0.231606 0.181166
629 4 0.408537 0.210036 0.18566
630 4 0.384898 0.253177 0.176672
420 4 0.38477 0.225038 0.250624
312 4 0.414743 0.206037 0.204403
310 2 0.430355 0.186508 0.20417
761 4 0.48835 0.213457 0.237239
750 4 0.0161618 0.289249 0.206245
395 4 0.00994056 0.280658 0.223211
748 2 0.0212994 0.298373 0.18354
394 2 0.0195005 0.278891 0.246247
372 4 0.1344 0.259538 0.226392
370 2 0.151734 0.273537 0.237738
300 4 0.114253 0.296406 0.180178
298 2 0.112507 0.311163 0.200286
299 4 0.110761 0.325921 0.220395
734 4 0.114127 0.331294 0.238114
279 4 0.221842 0.2593 0.213046
277 2 0.238312 0.256055 0.194515
371 4 0.169068 0.287537 0.249083
278 4 0.254781 0.25281 0.175983
401 4 0.278519 0.304964 0.236456
498 4 0.294721 0.313531 0.228139
496 2 0.295555 0.322371 0.204765
497 4 0.29639 0.33121 0.181392
764 4 0.419741 0.305252 0.183074
765 4 0.391126 0.268221 0.165451
763 2 0.405434 0.286736 0.174263
624 4 0.482631 0.308684 0.17105
622 2 0.459083 0.311992 0.178779
528 4 0.501092 0.309249 0.176661
623 4 0.435535 0.315299 0.186509
262 2 0.0392975 0.391042 0.214574
263 4 0.0579974 0.380884 0.227701
602 4 0.0750096 0.382738 0.215385
264 4 0.0205976 0.4012 0.201448
2618 4 0.0206202 0.417928 0.212546
601 2 0.0891724 0.362931 0.221066
603 4 0.103335 0.343124 0.226747
290 4 0.18567 0.394033 0.221475
289 2 0.179156 0.417714 0.216789
308 4 0.31403 0.340357 0.181814
307 2 0.338003 0.346836 0.184729
309 4 0.361976 0.353315 0.187644
14 3 0.400721 0.394906 0.181489
11 1 0.392091 0.374397 0.174909
13 3 0.374323 0.368512 0.188623
12 3 0.408555 0.358445 0.176812
2617 2 0.00576291 0.434553 0.223861
291 4 0.172642 0.441395 0.212104
416 4 0.165838 0.460987 0.212675
415 2 0.186409 0.475143 0.213956
1430 4 0.22638 0.489555 0.212782
417 4 0.206979 0.489299 0.215237
597 4 0.485987 0.469668 0.209743
596 4 0.449731 0.491131 0.182806
659 4 0.437173 0.500327 0.171051
595 2 0.467859 0.480399 0.196275
645 4 0.49622 0.463023 0.193486
1799 4 0.0106261 0.0197936 0.295461
233 4 0.00349021 0.035475 0.285361
1402 2 0.0430702 0.0455219 0.298976
1403 4 0.0224637 0.0348008 0.289724
1404 4 0.0636768 0.056243 0.308229
1798 2 0.00590572 0.00589318 0.315702
633 4 0.377573 0.0423701 0.292352
631 2 0.377284 0.0446451 0.267454
257 4 0.36778 0.0524186 0.304984
698 4 0.369438 0.0331546 0.307441
697 2 0.360393 0.010341 0.312227
256 2 0.375177 0.063351 0.326219
349 2 0.448227 0.039352 0.265532
744 4 0.450428 0.0325681 0.307708
742 2 0.466276 0.0299744 0.326873
351 4 0.446624 0.0421328 0.290329
398 4 0.0650769 0.150127 0.310258
397 2 0.05807 0.130562 0.324162
393 4 0.0841131 0.148729 0.306497
390 4 0.0775721 0.162412 0.317418
392 4 0.10417 0.160896 0.262334
391 2 0.0941417 0.154813 0.284416
404 4 0.201613 0.149583 0.328814
403 2 0.19189 0.162763 0.309922
521 4 0.494232 0.136219 0.2575
444 4 0.0344325 0.225342 0.312779
442 2 0.0300689 0.245516 0.298668
388 2 0.0729262 0.185599 0.325541
389 4 0.0682803 0.208786 0.333663
545 4 0.124061 0.162226 0.258962
544 2 0.143677 0.170272 0.272216
546 4 0.163293 0.178317 0.28547
723 4 0.205712 0.224056 0.26085
721 2 0.191681 0.204461 0.26751
405 4 0.182168 0.175943 0.291029
722 4 0.177649 0.184867 0.274171
378 4 0.299505 0.246598 0.32158
717 4 0.370062 0.238839 0.254918
418 2 0.40737 0.219758 0.259927
331 2 0.45235 0.211309 0.307168
332 4 0.4401 0.211828 0.285377
419 4 0.42997 0.214478 0.26923
760 2 0.468398 0.213122 0.252305
762 4 0.448446 0.212786 0.267371
333 4 0.4646 0.210791 0.328959
453 4 0.482735 0.214433 0.322239
364 2 0.0157758 0.30479 0.298689
396 4 0.0290605 0.277123 0.269283
443 4 0.0257052 0.265691 0.284557
365 4 0.0194526 0.284075 0.285178
366 4 0.0120989 0.325505 0.312199
407 4 0.0141094 0.325517 0.331708
735 4 0.143072 0.312632 0.274372
733 2 0.1286 0.321963 0.256243
677 4 0.162035 0.310684 0.278636
676 2 0.181178 0.320447 0.291418
508 2 0.238486 0.313555 0.303913
509 4 0.21815 0.325849 0.311692
678 4 0.200322 0.330211 0.3042
510 4 0.258822 0.301262 0.296134
400 2 0.276679 0.301359 0.261129
402 4 0.27484 0.297753 0.285803
345 4 0.27644 0.300497 0.304835
343 2 0.291287 0.282856 0.314507
344 4 0.306134 0.265215 0.32418
715 2 0.372907 0.262386 0.262829
716 4 0.375752 0.285934 0.270741
542 4 0.382598 0.297274 0.286673
541 2 0.397171 0.303854 0.305896
543 4 0.411745 0.310433 0.325118
751 2 0.480841 0.33078 0.329442
548 4 0.0202167 0.340472 0.320559
547 2 0.0269767 0.364309 0.323921
549 4 0.0337367 0.388146 0.327282
435 4 0.209866 0.342072 0.315887
728 4 0.363785 0.388701 0.287741
727 2 0.375077 0.402606 0.305186
2538 4 0.475204 0.341181 0.292572
753 4 0.466029 0.339258 0.311169
2536 2 0.489623 0.356878 0.2795
2463 4 0.0170762 0.498355 0.325919
1543 2 0.142951 0.476024 0.324761
1545 4 0.164593 0.472612 0.312714
1436 4 0.175734 0.486067 0.304183
729 4 0.386369 0.416511 0.32263
437 4 0.378762 0.434526 0.326115
436 2 0.37433 0.456705 0.336774
2861 4 0.492989 0.430312 0.299214
730 2 0.0638845 0.0689912 0.346369
1772 4 0.0168492 0.0285167 0.390234
1771 2 0.00778786 0.0142844 0.371781
732 4 0.0712414 0.0451216 0.347508
2236 2 0.00649859 0.0528173 0.410539
369 4 0.0817184 0.0313487 0.358176
367 2 0.090616 0.0253373 0.380757
368 4 0.0995136 0.0193258 0.403337
1782 4 0.112705 0.0139257 0.417672
606 4 0.167913 0.00543116 0.411943
605 4 0.201332 0.0425411 0.409345
604 2 0.184623 0.0239861 0.410644
1701 4 0.190488 0.057663 0.402474
1699 2 0.201348 0.0794572 0.396794
424 2 0.390476 0.0583305 0.387527
425 4 0.388799 0.0469326 0.409718
1580 4 0.398161 0.0299432 0.402375
426 4 0.392153 0.0697284 0.365336
258 4 0.382575 0.0742833 0.347454
2664 4 0.50027 0.0198206 0.346132
743 4 0.482124 0.0273806 0.346038
479 4 0.494151 0.0310914 0.36142
478 2 0.489974 0.0544012 0.369444
480 4 0.485798 0.077711 0.377468
399 4 0.0510632 0.110998 0.338066
458 4 0.995101 0.135701 0.38905
318 4 0.00799358 0.119936 0.383441
317 4 0.0473654 0.105501 0.356198
731 4 0.0565276 0.0928607 0.34523
316 2 0.0276795 0.112719 0.36982
457 2 0.00348471 0.159097 0.386304
249 4 0.195869 0.137685 0.343347
247 2 0.201556 0.118121 0.357841
248 4 0.207243 0.0985567 0.372335
1700 4 0.212208 0.101251 0.391115
320 4 0.315438 0.126444 0.410673
682 2 0.277323 0.136272 0.40444
683 4 0.257289 0.15123 0.40412
684 4 0.297356 0.121315 0.404761
319 2 0.333149 0.132156 0.393974
321 4 0.350861 0.137868 0.377275
708 4 0.35098 0.156431 0.367765
516 4 0.474815 0.163242 0.367962
575 4 0.469276 0.148083 0.379345
574 2 0.470136 0.136661 0.40157
459 4 0.0118679 0.182492 0.383558
376 2 0.307121 0.223906 0.328809
377 4 0.314736 0.201214 0.336039
707 4 0.326222 0.196572 0.351139
706 2 0.338601 0.176502 0.359452
466 2 0.367567 0.237798 0.404315
467 4 0.367276 0.213182 0.408691
515 4 0.480372 0.20274 0.3378
514 2 0.477594 0.182991 0.352881
406 2 0.0190554 0.314197 0.353447
408 4 0.0240014 0.302877 0.375186
347 4 0.0688614 0.321589 0.384617
346 2 0.0610018 0.330983 0.406415
275 4 0.141542 0.329039 0.348475
274 2 0.160697 0.317573 0.359736
276 4 0.179852 0.306108 0.370997
373 2 0.200481 0.27757 0.392306
375 4 0.186008 0.286943 0.3742
374 4 0.214955 0.268197 0.410413
473 4 0.234977 0.265431 0.413847
615 4 0.41099 0.323138 0.341686
267 4 0.355068 0.276747 0.400112
468 4 0.367858 0.262414 0.39994
265 2 0.33411 0.286485 0.409659
752 4 0.495653 0.322302 0.347715
777 4 0.0288104 0.406364 0.335483
618 4 0.0823844 0.336287 0.376405
617 4 0.128198 0.343325 0.357637
616 2 0.105291 0.339806 0.367021
433 2 0.202746 0.348821 0.338886
434 4 0.195626 0.355569 0.361885
502 2 0.311601 0.411593 0.406366
504 4 0.293775 0.394879 0.411662
613 2 0.429248 0.338394 0.349372
614 4 0.447506 0.35365 0.357057
775 2 0.0488546 0.420838 0.339212
776 4 0.0688987 0.435312 0.342941
414 4 0.0661157 0.452294 0.351713
1544 4 0.121308 0.479435 0.336808
413 4 0.103833 0.484112 0.343607
412 2 0.0849745 0.468203 0.34766
500 4 0.11671 0.498493 0.342169
503 4 0.329427 0.428308 0.401069
669 4 0.324038 0.446995 0.398833
667 2 0.325055 0.467657 0.412876
594 4 0.380237 0.497631 0.398964
438 4 0.369899 0.478885 0.347433
240 4 0.397491 0.430003 0.395234
335 4 0.383001 0.419188 0.399712
336 4 0.338977 0.440091 0.388503
334 2 0.360989 0.429639 0.394107
592 2 0.377991 0.498122 0.374066
593 4 0.375744 0.498612 0.349168
3990 4 0.500796 0.486383 0.38204
1127 4 0.0112184 0.057859 0.449806
2237 4 0.0122995 0.0645805 0.431827
720 4 0.0255548 0.0705978 0.445901
1781 4 0.0884636 0.00437958 0.460356
1780 2 0.100585 0.00915264 0.439014
2429 4 0.244907 0.00365111 0.49043
961 2 0.274702 0.00587417 0.484539
724 2 0.290742 0.0598216 0.476033
726 4 0.286183 0.0780727 0.459562
725 4 0.295301 0.0415705 0.492504
963 4 0.292227 0.023707 0.484772
432 4 0.309471 0.0278909 0.493804
1579 2 0.38915 0.0121418 0.417444
2879 4 0.414182 0.0286176 0.474911
642 4 0.454447 0.0736251 0.457636
2878 2 0.430323 0.0477126 0.474721
2880 4 0.446464 0.0668077 0.474532
470 4 0.0125107 0.117345 0.467607
718 2 0.0381465 0.0921994 0.445881
719 4 0.0507381 0.113801 0.44586
939 4 0.085209 0.149512 0.479834
1033 2 0.123879 0.137185 0.461744
1035 4 0.148274 0.134209 0.45714
261 4 0.16491 0.143037 0.463705
1034 4 0.0994837 0.140161 0.466347
259 2 0.171764 0.165598 0.455386
600 4 0.263163 0.163524 0.418473
1181 4 0.304681 0.114242 0.420946
1182 4 0.299596 0.0908474 0.46485
1180 2 0.302139 0.102545 0.442898
576 4 0.470995 0.125239 0.423796
640 2 0.464025 0.0952402 0.449498
641 4 0.473603 0.116855 0.44136
306 4 0.47908 0.135636 0.438167
304 2 0.470002 0.148555 0.457554
3158 4 0.462354 0.151314 0.492619
305 4 0.460924 0.161473 0.476942
694 2 0.162557 0.219587 0.472241
696 4 0.149863 0.237918 0.483554
1260 4 0.144427 0.240702 0.502925
695 4 0.175251 0.201255 0.460927
260 4 0.178619 0.188158 0.447067
472 2 0.242648 0.245357 0.426628
687 4 0.240761 0.213022 0.44749
686 4 0.193435 0.198769 0.455095
685 2 0.217098 0.205896 0.451293
489 4 0.314112 0.236887 0.431421
599 4 0.255898 0.20865 0.438758
474 4 0.250319 0.225283 0.439409
411 4 0.25641 0.217654 0.453906
598 2 0.25953 0.186087 0.428616
409 2 0.261849 0.216372 0.478277
488 4 0.267443 0.221736 0.441072
487 2 0.290777 0.229312 0.436246
813 4 0.252374 0.331879 0.470416
266 4 0.313153 0.296222 0.419206
2812 2 0.0189141 0.336167 0.441597
348 4 0.0531422 0.340377 0.428214
2813 4 0.0399562 0.349577 0.439987
326 4 0.0573653 0.356479 0.43702
325 2 0.0677999 0.374048 0.451429
327 4 0.0782345 0.391616 0.465839
7 3 0.0921075 0.391439 0.478963
6 1 0.113152 0.384658 0.485311
711 4 0.135239 0.414136 0.490562
8 3 0.128513 0.400782 0.478793
709 2 0.158256 0.417422 0.481364
10 3 0.117988 0.364805 0.475256
811 2 0.256561 0.336234 0.494679
1383 4 0.0582878 0.481674 0.46708
680 4 0.0486806 0.470663 0.481654
1381 2 0.0619087 0.500459 0.450981
679 2 0.0635806 0.453499 0.492075
634 2 0.195474 0.452644 0.457986
636 4 0.19326 0.476166 0.4498
635 4 0.197687 0.429122 0.466172
710 4 0.181273 0.420707 0.472166
774 4 0.195147 0.424264 0.484966
4 3 0.317517 0.489605 0.445667
668 4 0.326072 0.48832 0.426919
587 4 0.40948 0.431462 0.497463
238 2 0.411007 0.432122 0.416162
588 4 0.421351 0.448226 0.45187
586 2 0.415415 0.439844 0.474667
239 4 0.424523 0.434241 0.437091
1184 4 0.00415 0.0287926 0.568553
1183 2 0.016952 0.0073151 0.568482
342 4 0.147539 0.0497174 0.512989
1152 4 0.138554 0.0583515 0.529327
1150 2 0.149624 0.0684603 0.549338
1151 4 0.160694 0.0785691 0.569349
340 2 0.16734 0.0375412 0.503777
341 4 0.18714 0.0253651 0.494564
2430 4 0.201256 0.0200282 0.508515
2428 2 0.223081 0.0118397 0.499472
430 2 0.323346 0.0136126 0.508929
841 2 0.363202 0.0262932 0.547714
842 4 0.37638 0.0422357 0.561763
1216 2 0.412447 0.0159752 0.568855
1217 4 0.395536 0.0341682 0.565994
843 4 0.350024 0.0103507 0.533666
3009 4 0.474778 0.0438668 0.583354
1061 4 0.494376 0.0667689 0.528844
2657 4 0.499003 0.0531844 0.51546
879 4 0.0503795 0.150969 0.535475
877 2 0.0268748 0.143189 0.538963
878 4 0.00337 0.135408 0.542452
938 4 0.0569036 0.160187 0.519653
937 2 0.0710563 0.154849 0.499743
3159 4 0.449244 0.120436 0.529705
3157 2 0.455799 0.135875 0.511162
1062 4 0.464929 0.107131 0.530962
1060 2 0.479653 0.0869502 0.529903
1272 4 0.0534884 0.170064 0.535149
1270 2 0.0608732 0.184253 0.554367
1271 4 0.068258 0.198442 0.573584
1258 2 0.146579 0.226332 0.523273
1259 4 0.148731 0.211961 0.543621
1244 4 0.0858508 0.190691 0.579336
898 2 0.296214 0.216547 0.536865
899 4 0.311157 0.215118 0.556861
857 4 0.311214 0.196613 0.561002
856 2 0.308946 0.189819 0.584958
791 4 0.32809 0.205077 0.556705
900 4 0.281271 0.217977 0.516869
410 4 0.267288 0.21509 0.502648
790 2 0.345486 0.222674 0.560295
792 4 0.362882 0.240272 0.563886
872 4 0.370897 0.255762 0.555171
806 4 0.315838 0.328918 0.56799
805 2 0.32585 0.310202 0.581206
1238 4 0.370722 0.253779 0.574919
871 2 0.374942 0.263215 0.531649
873 4 0.378987 0.270667 0.508127
1135 2 0.122045 0.36959 0.582271
9 3 0.11359 0.382165 0.508376
1137 4 0.140024 0.381752 0.569859
773 4 0.230012 0.415896 0.519825
1189 2 0.217062 0.414526 0.561899
1190 4 0.227946 0.415773 0.539423
803 4 0.235064 0.400286 0.530394
802 2 0.242603 0.376447 0.530335
804 4 0.250143 0.352607 0.530276
651 4 0.295843 0.334911 0.571321
649 2 0.277026 0.336112 0.5549
650 4 0.258209 0.337312 0.538478
812 4 0.260748 0.340588 0.518942
925 2 0.413077 0.394002 0.519942
927 4 0.419199 0.373745 0.533259
926 4 0.406956 0.41426 0.506625
1010 4 0.498172 0.360313 0.52946
681 4 0.0784806 0.436336 0.502496
383 4 0.0910047 0.43662 0.517273
382 2 0.113772 0.434712 0.507114
569 4 0.151788 0.433726 0.509369
2243 4 0.159867 0.505684 0.568344
568 2 0.164103 0.449302 0.524565
384 4 0.136539 0.432804 0.496956
772 2 0.212579 0.42008 0.502396
930 4 0.246051 0.416094 0.531411
570 4 0.176418 0.464878 0.53976
928 2 0.267755 0.427415 0.526317
929 4 0.289459 0.438737 0.521223
1951 2 0.301904 0.477794 0.534421
1953 4 0.298672 0.453142 0.531771
1952 4 0.305136 0.502446 0.537071
663 4 0.405098 0.431753 0.515909
661 2 0.410935 0.452476 0.528624
1001 4 0.415421 0.486119 0.555388
662 4 0.416773 0.473198 0.54134
1911 4 0.420032 0.467636 0.559805
1332 4 0.433155 0.479373 0.551769
1330 2 0.452209 0.494155 0.545166
1909 2 0.427458 0.457982 0.581642
2375 4 0.157756 0.014401 0.616187
1059 4 0.165939 0.0741321 0.587141
1057 2 0.166064 0.052739 0.600083
1058 4 0.16619 0.031346 0.613025
949 2 0.284632 0.0259977 0.617611
951 4 0.289115 0.0433328 0.635063
1031 4 0.291709 0.0334428 0.652353
950 4 0.280148 0.00866254 0.600159
3007 2 0.485697 0.0630404 0.595115
43 3 0.449308 0.0482689 0.659999
3008 4 0.496616 0.0822141 0.606876
1155 4 0.152664 0.088455 0.583419
1154 4 0.161123 0.133984 0.602294
1153 2 0.156893 0.11122 0.592856
1221 4 0.157335 0.147837 0.617129
1219 2 0.176768 0.161666 0.609624
808 2 0.489814 0.0849631 0.645201
809 4 0.50101 0.0917145 0.623888
1245 4 0.102146 0.190155 0.626611
1243 2 0.0939986 0.190423 0.602973
1209 4 0.110789 0.173843 0.63623
1207 2 0.108785 0.16643 0.660025
1210 2 0.224209 0.176042 0.635068
1212 4 0.211132 0.178385 0.613886
1220 4 0.1962 0.175495 0.602119
797 4 0.193704 0.241455 0.608692
796 2 0.199347 0.217291 0.605615
798 4 0.204989 0.193128 0.602538
1211 4 0.237286 0.173699 0.65625
858 4 0.306678 0.183025 0.608914
3121 2 0.479892 0.225054 0.619172
3122 4 0.484376 0.202028 0.627826
3357 4 0.477273 0.188514 0.641308
3355 2 0.496072 0.174772 0.650415
3123 4 0.475408 0.248079 0.610517
983 4 0.0129428 0.303911 0.62145
982 2 0.0294886 0.317329 0.634541
984 4 0.0460345 0.330748 0.647632
3263 4 0.0595103 0.332251 0.661356
1237 2 0.360858 0.270067 0.591123
807 4 0.335861 0.291487 0.594423
1239 4 0.350995 0.286355 0.607328
906 4 0.451837 0.299409 0.621361
905 4 0.476006 0.256185 0.62831
904 2 0.463922 0.277797 0.624836
953 4 0.456636 0.316587 0.611372
952 2 0.474927 0.331508 0.603129
1041 4 0.0632071 0.339792 0.643656
1039 2 0.070173 0.360034 0.630737
1040 4 0.0771388 0.380276 0.617817
993 4 0.0604587 0.38927 0.622468
991 2 0.0438832 0.406459 0.615053
1136 4 0.104067 0.357428 0.594682
897 4 0.151428 0.381257 0.587354
1191 4 0.206179 0.413279 0.584375
895 2 0.17258 0.39364 0.592299
896 4 0.193731 0.406022 0.597244
1028 4 0.198018 0.402022 0.665619
1027 2 0.198328 0.405239 0.640825
1029 4 0.198638 0.408457 0.616032
954 4 0.493218 0.34643 0.594886
992 4 0.0273076 0.423647 0.607638
1172 4 0.205073 0.421176 0.602141
1159 2 0.171231 0.501262 0.596856
1160 4 0.187258 0.486341 0.608926
1171 2 0.201248 0.445752 0.604703
1173 4 0.197423 0.470328 0.607266
1187 4 0.196636 0.480052 0.624768
1186 2 0.188065 0.47995 0.648256
1206 4 0.498034 0.425441 0.607067
1268 4 0.445151 0.493766 0.651856
1267 2 0.441423 0.474529 0.636324
1204 2 0.475392 0.435891 0.608885
1910 4 0.434883 0.448327 0.603478
1269 4 0.437695 0.455293 0.620792
1205 4 0.45275 0.446341 0.610704
2168 4 0.464025 0.490334 0.652038
1284 4 0.112626 0.0431279 0.713767
1282 2 0.119127 0.0655535 0.704822
2047 2 0.148046 0.0103217 0.737637
2048 4 0.124394 0.00526681 0.743978
2256 4 0.184344 0.00758322 0.744164
2049 4 0.171698 0.0153766 0.731296
1201 2 0.193051 0.0448735 0.721853
1202 4 0.189502 0.0235561 0.734429
1203 4 0.1966 0.0661908 0.709277
1226 4 0.190767 0.0841467 0.704225
1148 4 0.205077 0.0827388 0.716672
1030 2 0.292796 0.0466729 0.673542
1032 4 0.293884 0.059903 0.694731
1005 4 0.321433 0.0148848 0.698346
810 4 0.478618 0.0782117 0.666514
45 3 0.454898 0.0432358 0.696892
41 1 0.45027 0.0586155 0.680746
1163 4 0.483915 0.0658043 0.680577
44 3 0.466583 0.0751157 0.68062
42 3 0.429894 0.0683369 0.685159
1077 4 0.0298128 0.112154 0.739802
1075 2 0.0113816 0.100285 0.727778
864 4 0.0480822 0.112229 0.745711
909 4 0.111575 0.151259 0.700455
907 2 0.121277 0.128247 0.701678
908 4 0.13098 0.105235 0.702901
1283 4 0.125627 0.087979 0.695876
1227 4 0.143416 0.0943958 0.691833
851 4 0.0983158 0.164594 0.700258
1208 4 0.106782 0.159017 0.68382
1225 2 0.167092 0.0892712 0.698029
1147 2 0.219505 0.09884 0.729232
1149 4 0.233934 0.114941 0.741792
829 2 0.324 0.151295 0.704379
830 4 0.300281 0.155035 0.711348
887 4 0.281097 0.154856 0.706571
831 4 0.34772 0.147554 0.69741
1142 4 0.365158 0.142575 0.706386
1141 2 0.386612 0.154796 0.710331
1025 4 0.462765 0.128778 0.717171
3424 2 0.480319 0.107736 0.695212
3426 4 0.482496 0.0852993 0.684394
3425 4 0.478143 0.130173 0.70603
3269 4 0.481187 0.124985 0.724202
1024 2 0.444904 0.146248 0.716182
3268 2 0.488931 0.135769 0.74539
1026 4 0.427043 0.163717 0.715193
845 4 0.441773 0.104889 0.738076
852 4 0.0527806 0.174561 0.718366
1214 4 0.0328364 0.169266 0.722162
850 2 0.0755482 0.169578 0.709312
1213 2 0.0113724 0.181411 0.726283
1107 4 0.117265 0.169754 0.696879
1105 2 0.128497 0.184235 0.713888
1106 4 0.13973 0.198715 0.730898
1130 4 0.159826 0.193546 0.732312
888 4 0.250712 0.174463 0.67203
978 4 0.288399 0.167977 0.718762
886 2 0.265904 0.164659 0.6893
976 2 0.293667 0.185553 0.735747
916 2 0.296383 0.243694 0.744745
1143 4 0.408066 0.167016 0.714276
1192 2 0.421581 0.199089 0.690646
1194 4 0.420419 0.177391 0.703016
1262 4 0.419786 0.180011 0.722697
1193 4 0.422743 0.220788 0.678276
1261 2 0.426127 0.187543 0.74568
3262 2 0.0655415 0.323697 0.684064
3264 4 0.0715728 0.315144 0.706772
893 4 0.0757199 0.322216 0.724393
779 4 0.0897217 0.317165 0.712473
778 2 0.108506 0.30369 0.721998
780 4 0.127291 0.290215 0.731523
1065 4 0.236938 0.336122 0.676694
1063 2 0.247449 0.31418 0.682457
1064 4 0.257961 0.292238 0.688221
947 4 0.302348 0.285048 0.730257
946 2 0.289933 0.285123 0.708553
948 4 0.277518 0.285199 0.68685
917 4 0.298558 0.266131 0.733925
1008 4 0.471962 0.288042 0.699552
1006 2 0.468701 0.275176 0.720742
1007 4 0.465441 0.262309 0.741931
892 2 0.0679634 0.335435 0.744148
941 4 0.163499 0.377166 0.736063
1067 4 0.15616 0.384782 0.71939
1066 2 0.170019 0.39048 0.699374
1068 4 0.183878 0.396177 0.679358
1019 4 0.386492 0.40738 0.74115
884 4 0.0739351 0.468607 0.744779
1176 4 0.131957 0.471575 0.713306
1174 2 0.151358 0.468211 0.697896
1188 4 0.179494 0.479848 0.671745
1175 4 0.170759 0.464846 0.682486
1139 4 0.301635 0.481031 0.677397
1138 2 0.310186 0.46592 0.695389
1140 4 0.318737 0.450808 0.71338
1989 4 0.31633 0.443969 0.731074
1229 4 0.33395 0.442489 0.722071
1100 4 0.392059 0.421911 0.730087
1228 2 0.354355 0.428337 0.724997
1230 4 0.37476 0.414185 0.727923
1099 2 0.408087 0.44104 0.728557
1101 4 0.424115 0.46017 0.727028
3330 4 0.435522 0.454809 0.711363
3328 2 0.456942 0.44932 0.699692
1251 4 0.43754 0.472059 0.719802
3329 4 0.478363 0.443831 0.688021
1249 2 0.439501 0.484229 0.741556
834 4 0.0455461 0.0649111 0.829904
1113 4 0.391638 0.0804552 0.783363
979 2 0.412943 0.00263291 0.826302
2321 4 0.438827 0.0115841 0.803581
2322 4 0.445572 0.0488607 0.770936
2320 2 0.442199 0.0302224 0.787258
846 4 0.440684 0.0681144 0.771946
862 2 0.0526625 0.115791 0.770032
863 4 0.0572428 0.119354 0.794353
833 4 0.0450451 0.107711 0.804047
1125 4 0.0513997 0.123726 0.812024
1123 2 0.0672773 0.141012 0.820641
832 2 0.0452956 0.0863112 0.816975
911 4 0.140047 0.101041 0.823742
1257 4 0.222258 0.110935 0.75837
1255 2 0.217528 0.11555 0.782485
921 4 0.207039 0.124091 0.824835
919 2 0.195971 0.146254 0.828222
840 4 0.22515 0.117704 0.821527
1256 4 0.212798 0.120166 0.806599
838 2 0.247918 0.124409 0.82939
920 4 0.184903 0.168417 0.831608
1111 2 0.377651 0.0944429 0.798657
1112 4 0.363664 0.108431 0.81395
844 2 0.441229 0.0865017 0.755011
3270 4 0.496675 0.146553 0.766577
1146 4 0.488094 0.162411 0.773789
1129 2 0.164215 0.204972 0.754115
34 3 0.130283 0.17631 0.824031
1277 4 0.166249 0.213932 0.794957
1276 2 0.167586 0.196691 0.813016
35 3 0.0951559 0.171679 0.836772
1131 4 0.168604 0.216398 0.775918
822 4 0.183185 0.220687 0.788295
820 2 0.184707 0.245169 0.793138
1278 4 0.168922 0.17945 0.831075
977 4 0.298936 0.20313 0.752733
918 4 0.294208 0.221258 0.755564
1298 4 0.304502 0.212023 0.769525
1297 2 0.318045 0.207201 0.789983
1299 4 0.331588 0.202379 0.81044
1086 4 0.350812 0.201908 0.815469
50 3 0.401323 0.204656 0.79796
46 1 0.423887 0.201638 0.798586
49 3 0.434648 0.220814 0.791178
1043 4 0.443745 0.209388 0.776857
48 3 0.430609 0.196641 0.820225
47 3 0.429574 0.184123 0.784801
1263 4 0.432468 0.195075 0.768664
1145 4 0.447014 0.190261 0.779917
1144 2 0.467554 0.176336 0.776853
1042 2 0.455279 0.228353 0.765348
1044 4 0.466814 0.247319 0.75384
1022 4 0.447338 0.193055 0.829942
1236 4 0.2388 0.324678 0.759792
821 4 0.186229 0.269652 0.797981
1165 2 0.497283 0.26532 0.771629
1166 4 0.481995 0.259135 0.752835
3275 4 0.0146748 0.348746 0.795768
894 4 0.0602069 0.348654 0.763904
3276 4 0.0538125 0.366255 0.770031
3274 2 0.0342437 0.357501 0.782899
816 4 0.069834 0.358954 0.778084
940 2 0.145491 0.376942 0.753409
814 2 0.0921546 0.369743 0.781337
942 4 0.127484 0.376719 0.770754
815 4 0.114475 0.380531 0.78459
1080 4 0.132986 0.384787 0.787422
1078 2 0.138577 0.387868 0.811597