ITEM: TIMESTEP
2830000
ITEM: NUMBER OF ATOMS
4590
ITEM: BOX BOUNDS pp pp pp
-9.9985700000000008e+00 9.9985700000000008e+00
-9.9985700000000008e+00 9.9985700000000008e+00
-9.9985700000000008e+00 9.9985700000000008e+00
ITEM: ATOMS id type xs ys zs
465 4 0.079246 0.0726714 0.0296089
701 4 0.099958 0.0738696 0.026378
700 2 0.119199 0.0609782 0.0169556
702 4 0.13844 0.0480867 0.00753326
566 4 0.15757 0.0524216 0.0030702
565 2 0.173062 0.0719198 0.00530661
746 4 0.4825 0.0543214 0.0293225
2469 4 0.49535 0.0490369 0.044679
745 2 0.470033 0.0555801 0.00768513
463 2 0.0545996 0.0763596 0.0275761
464 4 0.0299532 0.0800477 0.0255434
590 4 0.0246471 0.0907905 0.0410006
589 2 0.0077208 0.0882175 0.0592231
558 4 0.380547 0.116682 0.0261387
556 2 0.368467 0.113538 0.0478036
557 4 0.356387 0.110393 0.0694685
771 4 0.456066 0.126726 0.0580853
769 2 0.458721 0.144348 0.0756243
554 4 0.0522374 0.196374 0.0121246
553 2 0.0730604 0.193887 0.0257405
555 4 0.0938835 0.191399 0.0393563
835 2 0.124975 0.20317 0.0194054
836 4 0.104689 0.20795 0.0332188
837 4 0.145261 0.198389 0.00559201
573 4 0.325047 0.249964 0.0663656
461 4 0.323305 0.237937 0.0820823
666 4 0.332767 0.231639 0.065773
865 2 0.367579 0.171928 0.00462995
664 2 0.339242 0.216828 0.0466978
665 4 0.345717 0.202016 0.0276226
867 4 0.352711 0.185748 0.0192288
1070 4 0.424454 0.2366 0.0634164
2808 4 0.0392227 0.302715 0.0201816
2806 2 0.0161468 0.297849 0.028488
292 2 0.119127 0.32097 0.0678273
293 4 0.128322 0.330386 0.0465678
507 4 0.138915 0.330956 0.0295052
356 4 0.307784 0.304756 0.0458545
572 4 0.326275 0.29588 0.0465939
355 2 0.293504 0.312246 0.0267452
571 2 0.325661 0.272922 0.0564798
357 4 0.279225 0.319736 0.00763578
1069 2 0.427579 0.256708 0.0779445
322 2 0.444397 0.318108 0.0838204
647 4 0.0188892 0.356821 0.0698394
646 2 0.0376379 0.341573 0.0762532
620 4 0.00174994 0.365593 0.0708042
648 4 0.0563865 0.326324 0.082667
505 2 0.156942 0.348282 0.0294686
481 2 0.209401 0.395454 0.0274014
482 4 0.229531 0.409947 0.0242544
483 4 0.189271 0.38096 0.0305484
506 4 0.17497 0.365608 0.029432
609 4 0.249375 0.411548 0.0276799
626 4 0.173298 0.403084 0.0916674
902 4 0.28363 0.340074 0.0031172
957 4 0.365834 0.39178 0.00648086
323 4 0.455775 0.339621 0.0780852
671 4 0.4945 0.37158 0.0595193
670 2 0.471425 0.365267 0.0667909
280 2 0.497797 0.409353 0.0444885
672 4 0.44835 0.358954 0.0740625
550 2 0.0616412 0.448451 0.0823459
552 4 0.0812306 0.463961 0.0832872
1787 4 0.0888195 0.457604 0.0666613
1786 2 0.0988868 0.461253 0.0440667
1788 4 0.108954 0.464902 0.0214722
246 4 0.230246 0.48121 0.0313858
244 2 0.220514 0.469641 0.0513013
245 4 0.210783 0.458072 0.0712167
272 4 0.241856 0.485942 0.0176751
627 4 0.19707 0.443215 0.0736358
625 2 0.185184 0.423149 0.0826516
607 2 0.271614 0.422767 0.0298519
608 4 0.293854 0.433986 0.0320239
252 4 0.286536 0.451218 0.0370999
250 2 0.30814 0.462265 0.0310654
251 4 0.329744 0.473312 0.025031
2289 4 0.330558 0.492555 0.0320655
525 4 0.443564 0.475513 0.076129
282 4 0.493511 0.42957 0.0304154
226 2 0.469116 0.4621 0.0498802
227 4 0.482828 0.444071 0.0392902
228 4 0.455405 0.480128 0.0604701
563 4 0.448299 0.493464 0.0727832
16 1 0.0627154 0.0313012 0.15093
20 3 0.0665161 0.0355719 0.128886
1806 4 0.0495227 0.998046 0.139844
18 3 0.0531747 0.0102939 0.153395
19 3 0.0486557 0.0474787 0.159819
17 3 0.0827097 0.0317675 0.162295
652 2 0.311627 0.0303438 0.162549
653 4 0.324737 0.0474766 0.149908
484 2 0.367696 0.0218051 0.102477
297 4 0.352861 0.061051 0.118141
485 4 0.356286 0.0433764 0.107923
295 2 0.35625 0.0767049 0.0989411
579 4 0.107287 0.132932 0.0971896
237 4 0.149273 0.154964 0.130964
578 4 0.137666 0.165457 0.119992
577 2 0.122477 0.149195 0.108591
235 2 0.163752 0.136716 0.140049
236 4 0.178231 0.118467 0.149135
693 4 0.195771 0.111303 0.155397
449 4 0.180312 0.0995948 0.152893
691 2 0.219574 0.108431 0.1483
692 4 0.243377 0.105559 0.141203
582 4 0.261455 0.113402 0.135842
580 2 0.282643 0.116502 0.14875
581 4 0.303831 0.119602 0.161658
30 3 0.307929 0.13929 0.164777
296 4 0.35964 0.0923589 0.0797409
770 4 0.461376 0.161969 0.0931633
476 4 0.147426 0.174868 0.133648
737 4 0.157893 0.167394 0.118985
475 2 0.138909 0.187632 0.15339
736 2 0.16496 0.184749 0.102431
738 4 0.172028 0.202104 0.0858773
354 4 0.313398 0.243795 0.146819
283 2 0.319206 0.202872 0.150421
285 4 0.322743 0.179103 0.157328
284 4 0.315669 0.226641 0.143514
462 4 0.321481 0.238411 0.132054
460 2 0.322393 0.238174 0.107068
255 4 0.329381 0.236753 0.147628
352 2 0.29089 0.250111 0.155689
253 2 0.349674 0.248616 0.156151
1014 4 0.458425 0.180534 0.0976607
1013 4 0.490003 0.214655 0.116082
1012 2 0.474214 0.197594 0.106872
456 4 0.0601635 0.325142 0.103417
455 4 0.0404314 0.314408 0.148096
454 2 0.0502974 0.319775 0.125757
749 4 0.0275385 0.307022 0.160541
294 4 0.109931 0.311555 0.0890867
610 2 0.237873 0.325726 0.110161
612 4 0.249089 0.303613 0.113386
756 4 0.240579 0.302661 0.131216
754 2 0.246086 0.284307 0.147278
353 4 0.268382 0.256428 0.164559
755 4 0.251592 0.265954 0.163341
254 4 0.369967 0.26048 0.164673
1071 4 0.430704 0.276817 0.0924726
324 4 0.433019 0.296594 0.0895555
611 4 0.226658 0.34784 0.106936
536 4 0.178178 0.38374 0.0962352
535 2 0.199316 0.373932 0.105298
537 4 0.220455 0.364124 0.11436
387 4 0.342112 0.410515 0.129695
739 2 0.410468 0.378337 0.123357
740 4 0.401572 0.386056 0.145413
385 2 0.362867 0.40095 0.13984
386 4 0.383622 0.391385 0.149984
495 4 0.398228 0.399488 0.160162
15 3 0.389337 0.37251 0.152489
741 4 0.419364 0.370619 0.101301
551 4 0.0420519 0.432941 0.0814046
242 4 0.100851 0.464447 0.0809309
241 2 0.114328 0.457143 0.100684
243 4 0.127805 0.449838 0.120437
1440 4 0.14483 0.460954 0.122507
1438 2 0.169763 0.462829 0.122502
1439 4 0.194696 0.464705 0.122498
637 2 0.219801 0.48634 0.110738
639 4 0.196851 0.477349 0.106539
303 4 0.292401 0.45549 0.110681
766 2 0.272818 0.488776 0.127177
768 4 0.289181 0.469872 0.12746
301 2 0.310784 0.439841 0.117185
302 4 0.329168 0.424191 0.12369
524 4 0.402876 0.477054 0.10516
493 2 0.407009 0.422887 0.159414
494 4 0.41579 0.446286 0.158667
660 4 0.411482 0.463862 0.15153
523 2 0.42322 0.476284 0.0906444
658 2 0.423396 0.482254 0.163569
380 4 0.0409465 0.0463709 0.177983
379 2 0.0417957 0.0699234 0.186334
450 4 0.146925 0.0714959 0.177316
675 4 0.0867108 0.0508301 0.165175
673 2 0.109583 0.0550964 0.174332
1505 4 0.150797 0.0522613 0.180348
674 4 0.132454 0.0593627 0.18349
1504 2 0.166127 0.0397114 0.195602
689 4 0.175829 0.0115786 0.201553
1506 4 0.181456 0.0271615 0.210856
1661 4 0.287984 0.0044432 0.159763
654 4 0.298518 0.013211 0.17519
23 3 0.402555 0.00444743 0.238745
22 3 0.409146 0.0163287 0.203702
632 4 0.384221 0.0485702 0.246968
21 1 0.418995 0.00806093 0.222775
757 2 0.475132 0.0198326 0.218869
25 3 0.434176 0.0231635 0.230529
759 4 0.453336 0.0236146 0.230523
350 4 0.443951 0.0377958 0.238549
512 4 0.0495392 0.111415 0.187991
381 4 0.0426449 0.0934758 0.194685
511 2 0.0599809 0.133359 0.193873
513 4 0.0704226 0.155303 0.199756
448 2 0.163619 0.0855453 0.165104
26 1 0.316598 0.150829 0.182394
28 3 0.301985 0.149947 0.200396
27 3 0.336603 0.141306 0.188581
311 4 0.449545 0.163663 0.212107
339 4 0.0799032 0.17177 0.204579
337 2 0.101287 0.181664 0.196211
477 4 0.130393 0.200397 0.173131
363 4 0.136004 0.205593 0.190753
338 4 0.122671 0.191557 0.187843
362 4 0.137444 0.252508 0.208005
361 2 0.136724 0.22905 0.199379
29 3 0.320359 0.172905 0.176318
628 2 0.397742 0.232039 0.182843
629 4 0.411118 0.212517 0.190917
630 4 0.384366 0.25156 0.17477
420 4 0.389315 0.225903 0.243034
312 4 0.415739 0.200055 0.206324
310 2 0.432642 0.181859 0.209215
761 4 0.484268 0.222504 0.24082
750 4 0.022799 0.28856 0.206773
395 4 0.0155752 0.288207 0.225012
748 2 0.0251687 0.297791 0.183657
394 2 0.021648 0.281552 0.248336
372 4 0.135795 0.252813 0.228415
370 2 0.147377 0.269613 0.242865
300 4 0.11095 0.29144 0.182293
298 2 0.109855 0.308145 0.200866
299 4 0.10876 0.324849 0.219438
734 4 0.11181 0.321684 0.238367
279 4 0.217045 0.253878 0.210275
277 2 0.235375 0.252786 0.193305
371 4 0.15896 0.286413 0.257314
278 4 0.253705 0.251694 0.176335
401 4 0.28503 0.297168 0.233814
498 4 0.28547 0.314501 0.226527
496 2 0.293181 0.324188 0.204804
497 4 0.300893 0.333875 0.183082
764 4 0.419275 0.306246 0.179072
765 4 0.387136 0.269579 0.167968
763 2 0.403205 0.287913 0.17352
624 4 0.486642 0.311666 0.167888
622 2 0.4629 0.306965 0.174164
528 4 0.500698 0.305141 0.181603
623 4 0.439158 0.302264 0.180441
262 2 0.0423167 0.394393 0.213982
263 4 0.0647778 0.387558 0.222582
602 4 0.0794428 0.377348 0.213878
264 4 0.0198555 0.401228 0.205383
2618 4 0.0229862 0.417674 0.216955
601 2 0.0887216 0.356035 0.223089
603 4 0.0980004 0.334722 0.2323
290 4 0.184583 0.391769 0.216544
289 2 0.177773 0.415595 0.213206
308 4 0.315918 0.344622 0.18985
307 2 0.339279 0.349753 0.182562
309 4 0.36264 0.354885 0.175273
14 3 0.399213 0.39522 0.18085
11 1 0.392803 0.37371 0.174965
13 3 0.373418 0.367843 0.186289
12 3 0.40956 0.359087 0.180838
2617 2 0.00692452 0.43377 0.227353
291 4 0.170962 0.43942 0.209868
416 4 0.173707 0.454696 0.221156
415 2 0.19016 0.472237 0.214314
1430 4 0.224213 0.488054 0.21633
417 4 0.206612 0.489778 0.207472
597 4 0.488248 0.471629 0.208719
596 4 0.447799 0.489893 0.185675
659 4 0.43531 0.500647 0.175608
595 2 0.468024 0.480761 0.197197
645 4 0.497614 0.462824 0.194028
1799 4 0.00971712 0.0197945 0.295863
233 4 0.00185809 0.0339529 0.28564
1402 2 0.0415753 0.0458771 0.296435
1403 4 0.0206773 0.0344995 0.288753
1404 4 0.0624733 0.0572546 0.304116
1798 2 0.00318742 0.00496348 0.314904
633 4 0.366861 0.0420022 0.293402
631 2 0.375541 0.0452862 0.270185
257 4 0.371223 0.0544981 0.307818
698 4 0.367083 0.0354587 0.311103
697 2 0.361426 0.0111745 0.312961
256 2 0.373037 0.0634626 0.331089
349 2 0.447535 0.0389855 0.263266
744 4 0.455006 0.0350446 0.306754
742 2 0.471113 0.0275153 0.324333
351 4 0.451119 0.0401752 0.287983
398 4 0.0613477 0.1479 0.309717
397 2 0.0579314 0.127709 0.324064
393 4 0.0800047 0.149267 0.303973
390 4 0.0737925 0.159062 0.319889
392 4 0.111314 0.149809 0.264984
391 2 0.0956595 0.149538 0.284478
404 4 0.202763 0.148553 0.329426
403 2 0.19029 0.16056 0.311386
521 4 0.492047 0.131927 0.257788
444 4 0.0335953 0.222607 0.304042
442 2 0.0301252 0.246457 0.297384
388 2 0.0709696 0.183308 0.325307
389 4 0.0681467 0.207553 0.330725
545 4 0.123108 0.166238 0.260854
544 2 0.142925 0.174723 0.273521
546 4 0.162742 0.183207 0.286188
723 4 0.20166 0.226385 0.267506
721 2 0.190248 0.204629 0.272156
405 4 0.177817 0.172567 0.293346
722 4 0.178836 0.182873 0.276805
378 4 0.298419 0.246375 0.318348
717 4 0.374413 0.238288 0.250099
418 2 0.410113 0.220596 0.255858
331 2 0.449228 0.208164 0.308022
332 4 0.43506 0.210971 0.287612
419 4 0.430911 0.215289 0.268682
760 2 0.466678 0.216986 0.257713
762 4 0.449089 0.211469 0.274605
333 4 0.463397 0.205357 0.328431
453 4 0.479414 0.216099 0.331371
364 2 0.0163264 0.304594 0.29764
396 4 0.0277208 0.274898 0.27166
443 4 0.0266552 0.270306 0.290727
365 4 0.0147754 0.284255 0.283179
366 4 0.0178775 0.324933 0.312101
407 4 0.0149737 0.326509 0.331606
735 4 0.136382 0.319425 0.281862
733 2 0.124096 0.320554 0.260115
677 4 0.157655 0.3224 0.27999
676 2 0.177533 0.323681 0.295102
508 2 0.237382 0.311647 0.305715
509 4 0.216343 0.321712 0.314728
678 4 0.197412 0.324962 0.310214
510 4 0.258421 0.301583 0.296701
400 2 0.27684 0.297026 0.257438
402 4 0.268651 0.296883 0.281062
345 4 0.276854 0.294256 0.298806
343 2 0.289631 0.278492 0.313415
344 4 0.302407 0.262728 0.328025
715 2 0.37385 0.261381 0.259667
716 4 0.373286 0.284474 0.269236
542 4 0.382919 0.288091 0.286575
541 2 0.395904 0.296269 0.306315
543 4 0.408888 0.304448 0.326056
751 2 0.483319 0.33223 0.333493
548 4 0.0208081 0.341976 0.321411
547 2 0.0274917 0.365804 0.324979
549 4 0.0341752 0.389632 0.328546
435 4 0.208248 0.339521 0.317007
728 4 0.378283 0.393299 0.282
727 2 0.375026 0.404277 0.304227
2538 4 0.474843 0.341166 0.291543
753 4 0.473384 0.337689 0.311206
2536 2 0.489093 0.357254 0.278764
2463 4 0.0127196 0.497336 0.332356
1543 2 0.147238 0.476476 0.321997
1545 4 0.1687 0.469756 0.311071
1436 4 0.180838 0.484269 0.303286
729 4 0.371769 0.415255 0.326455
437 4 0.377194 0.435633 0.32754
436 2 0.374462 0.459261 0.335248
2861 4 0.497707 0.430646 0.300059
730 2 0.0610092 0.0662525 0.347962
1772 4 0.0101572 0.0267349 0.390707
1771 2 0.00319113 0.0128324 0.371127
732 4 0.0667172 0.0419121 0.347585
2236 2 0.00458291 0.0530416 0.409209
369 4 0.08137 0.0353179 0.357409
367 2 0.0916295 0.0292194 0.37938
368 4 0.101889 0.0231208 0.401351
1782 4 0.11297 0.0146483 0.417893
606 4 0.16364 0.0116903 0.410852
605 4 0.199879 0.0456529 0.405021
604 2 0.18176 0.0286716 0.407936
1701 4 0.186968 0.0604801 0.407409
1699 2 0.201934 0.078368 0.398396
424 2 0.385796 0.0570764 0.389057
425 4 0.385029 0.0406513 0.407894
1580 4 0.396044 0.0254121 0.401805
426 4 0.386563 0.0735015 0.370221
258 4 0.37485 0.0724271 0.35436
2664 4 0.503338 0.0297647 0.344451
743 4 0.48722 0.019986 0.341913
479 4 0.489862 0.0317035 0.358154
478 2 0.490805 0.0542993 0.368818
480 4 0.491748 0.0768951 0.379481
399 4 0.054515 0.107519 0.338412
458 4 0.997439 0.134623 0.396093
318 4 0.0152426 0.127358 0.388399
317 4 0.0452233 0.104351 0.355649
731 4 0.0553011 0.0905929 0.348338
316 2 0.0302329 0.115855 0.372024
457 2 0.00151899 0.159093 0.392967
249 4 0.200149 0.134776 0.344338
247 2 0.204565 0.113982 0.357503
248 4 0.208981 0.0931884 0.370668
1700 4 0.216899 0.096256 0.389384
320 4 0.312123 0.124215 0.411254
682 2 0.276595 0.13047 0.410566
683 4 0.257608 0.146513 0.413266
684 4 0.295582 0.114427 0.407866
319 2 0.330368 0.132632 0.396373
321 4 0.348613 0.14105 0.381492
708 4 0.347771 0.154803 0.368124
516 4 0.48016 0.158877 0.36721
575 4 0.468731 0.14745 0.379965
574 2 0.468339 0.138038 0.403126
459 4 0.00559872 0.183562 0.389841
376 2 0.303358 0.224961 0.330274
377 4 0.308297 0.203548 0.3422
707 4 0.325974 0.194897 0.347678
706 2 0.336872 0.17485 0.357901
466 2 0.366324 0.240782 0.402478
467 4 0.368535 0.216582 0.408365
515 4 0.479613 0.196324 0.334072
514 2 0.479886 0.1776 0.350641
406 2 0.0211476 0.315038 0.352947
408 4 0.0273215 0.303566 0.374289
347 4 0.0780399 0.321548 0.38748
346 2 0.0662991 0.332112 0.406864
275 4 0.137817 0.329888 0.352507
274 2 0.156108 0.316088 0.362515
276 4 0.174399 0.302287 0.372523
373 2 0.203121 0.279766 0.389622
375 4 0.186646 0.286661 0.372124
374 4 0.219597 0.27287 0.40712
473 4 0.23535 0.266206 0.417718
615 4 0.407005 0.320709 0.33738
267 4 0.362191 0.284751 0.400521
468 4 0.364113 0.264982 0.396591
265 2 0.339792 0.289128 0.410733
752 4 0.493253 0.326771 0.355779
777 4 0.0310696 0.409049 0.331878
618 4 0.0793748 0.334941 0.371684
617 4 0.127613 0.344541 0.36265
616 2 0.103494 0.339741 0.367167
433 2 0.204181 0.34485 0.341095
434 4 0.200113 0.350179 0.365184
502 2 0.305667 0.410967 0.408551
504 4 0.28797 0.39411 0.413825
613 2 0.428104 0.33153 0.345311
614 4 0.449204 0.342351 0.353243
775 2 0.0503897 0.422534 0.340249
776 4 0.0697099 0.436018 0.34862
414 4 0.0743374 0.453338 0.356678
1544 4 0.125776 0.483195 0.332924
413 4 0.109229 0.486597 0.343369
412 2 0.091783 0.469968 0.350024
500 4 0.124432 0.49868 0.344535
503 4 0.323364 0.427825 0.403278
669 4 0.324725 0.447379 0.400989
667 2 0.321434 0.466404 0.416877
594 4 0.385113 0.508111 0.400228
438 4 0.37173 0.48289 0.342957
240 4 0.397613 0.426088 0.395404
335 4 0.380192 0.421834 0.404689
336 4 0.334422 0.434931 0.389382
334 2 0.357307 0.428382 0.397035
592 2 0.379317 0.503972 0.37626
593 4 0.373521 0.499832 0.352292
3990 4 0.49373 0.4821 0.379865
1127 4 0.012976 0.0582116 0.44942
2237 4 0.0107991 0.0637749 0.430919
720 4 0.0234002 0.0733867 0.442895
1781 4 0.0817656 0.00586018 0.455969
1780 2 0.0973677 0.0102542 0.436931
2429 4 0.246632 0.00266867 0.486786
961 2 0.278413 0.00284942 0.487579
724 2 0.294601 0.0564665 0.480566
726 4 0.291363 0.07597 0.465258
725 4 0.297838 0.036963 0.495873
963 4 0.298074 0.0171409 0.493443
432 4 0.314858 0.0273444 0.492912
1579 2 0.389177 0.00631559 0.416411
2879 4 0.414606 0.0279114 0.481923
642 4 0.449899 0.0794699 0.453233
2878 2 0.430006 0.0458248 0.473731
2880 4 0.445407 0.0637382 0.465539
470 4 0.0151681 0.133312 0.464534
718 2 0.04014 0.0918482 0.444927
719 4 0.0568798 0.11031 0.44696
939 4 0.0842401 0.15304 0.478102
1033 2 0.123594 0.139279 0.467669
1035 4 0.148066 0.135213 0.464547
261 4 0.166735 0.141669 0.465091
1034 4 0.0991215 0.143345 0.47079
259 2 0.174013 0.164927 0.459499
600 4 0.265201 0.163425 0.419613
1181 4 0.308663 0.108958 0.421482
1182 4 0.307225 0.0887769 0.467214
1180 2 0.307944 0.0988675 0.444348
576 4 0.467948 0.128625 0.426287
640 2 0.464706 0.0972443 0.443746
641 4 0.479513 0.115019 0.43426
306 4 0.478561 0.133828 0.441017
304 2 0.471433 0.15002 0.458685
3158 4 0.460045 0.158533 0.494317
305 4 0.464305 0.166213 0.476353
694 2 0.161877 0.221691 0.474606
696 4 0.148396 0.239207 0.486294
1260 4 0.137447 0.240401 0.503325
695 4 0.175358 0.204174 0.462918
260 4 0.181292 0.188185 0.453907
472 2 0.243373 0.245479 0.429173
687 4 0.240675 0.213817 0.44963
686 4 0.194302 0.199489 0.461672
685 2 0.217489 0.206653 0.455651
489 4 0.312472 0.238133 0.430684
599 4 0.254316 0.207569 0.440435
474 4 0.251395 0.224752 0.440629
411 4 0.256844 0.217059 0.455303
598 2 0.259759 0.185497 0.430024
409 2 0.261696 0.219763 0.479682
488 4 0.267663 0.218759 0.441521
487 2 0.290067 0.228446 0.436102
813 4 0.259196 0.330128 0.473782
266 4 0.317392 0.293505 0.420946
2812 2 0.0193602 0.336488 0.44205
348 4 0.0545583 0.342675 0.426249
2813 4 0.0390849 0.350589 0.435944
326 4 0.0544505 0.361523 0.431468
325 2 0.0641015 0.376757 0.448788
327 4 0.0737525 0.391991 0.466107
7 3 0.0876154 0.382097 0.478879
6 1 0.10974 0.382359 0.48517
711 4 0.133958 0.414073 0.489943
8 3 0.117334 0.404284 0.484978
709 2 0.158003 0.416956 0.483723
10 3 0.121852 0.369813 0.470523
811 2 0.262478 0.334538 0.498174
1383 4 0.0491735 0.484593 0.467308
680 4 0.0513023 0.465919 0.475747
1381 2 0.0599953 0.501141 0.452003
679 2 0.0604907 0.453426 0.49536
634 2 0.194731 0.45373 0.461397
636 4 0.196671 0.478461 0.458266
635 4 0.192791 0.428999 0.464527
710 4 0.182049 0.419838 0.477504
774 4 0.201347 0.416834 0.477104
4 3 0.313426 0.491046 0.450439
668 4 0.318143 0.485429 0.432764
587 4 0.402042 0.433061 0.497765
238 2 0.410972 0.431531 0.415827
588 4 0.41949 0.445853 0.452681
586 2 0.410766 0.439457 0.475223
239 4 0.424331 0.436973 0.436249
1184 4 0.00972422 0.0252003 0.565274
1183 2 0.0253169 0.00605659 0.569219
342 4 0.15099 0.050059 0.511924
1152 4 0.139745 0.0576293 0.526186
1150 2 0.150495 0.0678683 0.546305
1151 4 0.161245 0.0781074 0.566424
340 2 0.170053 0.0353202 0.505251
341 4 0.189117 0.0205814 0.498578
2430 4 0.203854 0.0157508 0.509138
2428 2 0.225243 0.00920974 0.497962
430 2 0.327145 0.0138896 0.510034
841 2 0.366412 0.0269607 0.549015
842 4 0.379992 0.0420255 0.563637
1216 2 0.414873 0.0142737 0.567538
1217 4 0.396104 0.0307772 0.566809
843 4 0.352832 0.011896 0.534393
3009 4 0.48505 0.0495271 0.572835
1061 4 0.496813 0.0668739 0.527178
2657 4 0.501448 0.0508909 0.515841
879 4 0.0454451 0.157454 0.532617
877 2 0.0228583 0.147743 0.537169
878 4 0.000271599 0.138032 0.541721
938 4 0.061649 0.15545 0.522651
937 2 0.0729446 0.154245 0.500377
3159 4 0.454197 0.121557 0.527473
3157 2 0.457121 0.140045 0.510895
1062 4 0.464466 0.104897 0.53011
1060 2 0.48064 0.0858856 0.528644
1272 4 0.0583545 0.172069 0.532659
1270 2 0.0624924 0.184566 0.553916
1271 4 0.0666303 0.197063 0.575174
1258 2 0.141272 0.229391 0.525446
1259 4 0.145098 0.218381 0.547566
1244 4 0.0824597 0.189819 0.585627
898 2 0.292192 0.219656 0.541157
899 4 0.305691 0.21687 0.562018
857 4 0.309131 0.197757 0.56362
856 2 0.307729 0.192597 0.588045
791 4 0.323768 0.210387 0.56113
900 4 0.278693 0.222442 0.520296
410 4 0.266548 0.222467 0.504061
790 2 0.344056 0.224937 0.562493
792 4 0.364344 0.239488 0.563856
872 4 0.372088 0.255163 0.555285
806 4 0.312103 0.32379 0.567267
805 2 0.325591 0.310733 0.583782
1238 4 0.374757 0.252105 0.574238
871 2 0.375756 0.262644 0.531711
873 4 0.379424 0.270125 0.508136
1135 2 0.126913 0.367956 0.583333
9 3 0.111565 0.373531 0.506551
1137 4 0.142964 0.381812 0.570084
773 4 0.226642 0.414188 0.52016
1189 2 0.216567 0.416988 0.559872
1190 4 0.229895 0.417866 0.538735
803 4 0.234278 0.399864 0.530585
802 2 0.243651 0.376714 0.529391
804 4 0.253023 0.353565 0.528197
651 4 0.296721 0.335494 0.569926
649 2 0.276821 0.337172 0.554881
650 4 0.25692 0.338849 0.539837
812 4 0.26576 0.338949 0.522566
925 2 0.411401 0.395962 0.520723
927 4 0.414133 0.374596 0.533419
926 4 0.408668 0.417328 0.508027
1010 4 0.501396 0.364161 0.532173
681 4 0.0696791 0.440933 0.514973
383 4 0.0890191 0.435802 0.519542
382 2 0.11215 0.433612 0.510304
569 4 0.150563 0.434485 0.515062
2243 4 0.165461 0.508722 0.562912
568 2 0.163525 0.452482 0.526606
384 4 0.135281 0.431423 0.501066
772 2 0.213994 0.415511 0.498632
930 4 0.244556 0.416107 0.527068
570 4 0.176488 0.470478 0.538151
928 2 0.266134 0.427721 0.522103
929 4 0.287713 0.439336 0.517138
1951 2 0.296166 0.474485 0.536701
1953 4 0.28819 0.451045 0.53322
1952 4 0.304143 0.497925 0.540183
663 4 0.403565 0.433702 0.517083
661 2 0.411278 0.453712 0.529939
1001 4 0.413068 0.483952 0.558443
662 4 0.41899 0.473721 0.542796
1911 4 0.421773 0.467156 0.561057
1332 4 0.431939 0.483076 0.553954
1330 2 0.452095 0.496349 0.547418
1909 2 0.426292 0.456569 0.583253
2375 4 0.153961 0.019006 0.608853
1059 4 0.166543 0.0785855 0.585807
1057 2 0.164849 0.0574682 0.599087
1058 4 0.163154 0.0363508 0.612368
949 2 0.280488 0.0228903 0.620341
951 4 0.291199 0.0431483 0.630345
1031 4 0.300851 0.0394761 0.648498
950 4 0.269777 0.00263235 0.610338
3007 2 0.493932 0.0656288 0.589776
43 3 0.446245 0.0505335 0.662101
3008 4 0.502814 0.0817306 0.606718
1155 4 0.154134 0.0913057 0.578739
1154 4 0.146977 0.133119 0.605219
1153 2 0.150555 0.112212 0.591979
1221 4 0.151531 0.151358 0.611995
1219 2 0.172546 0.164692 0.609595
808 2 0.492091 0.086708 0.643741
809 4 0.502123 0.0935463 0.621883
1245 4 0.111326 0.181111 0.625522
1243 2 0.0968929 0.185465 0.605575
1209 4 0.106544 0.175164 0.643713
1207 2 0.107736 0.165521 0.666751
1210 2 0.22416 0.173868 0.634886
1212 4 0.211627 0.178244 0.613697
1220 4 0.193561 0.178026 0.607196
797 4 0.189942 0.243569 0.606381
796 2 0.195696 0.219409 0.609275
798 4 0.20145 0.19525 0.612169
1211 4 0.236693 0.169492 0.656074
858 4 0.306327 0.187437 0.612471
3121 2 0.477603 0.229972 0.625712
3122 4 0.484654 0.210146 0.639217
3357 4 0.480597 0.190948 0.642673
3355 2 0.499006 0.177766 0.65328
3123 4 0.470553 0.249799 0.612207
983 4 0.0135093 0.312901 0.61966
982 2 0.030044 0.324006 0.634775
984 4 0.0465787 0.335112 0.64989
3263 4 0.0593214 0.34352 0.661395
1237 2 0.365542 0.269523 0.589629
807 4 0.33908 0.297676 0.600298
1239 4 0.356327 0.286941 0.60502
906 4 0.44894 0.302654 0.624127
905 4 0.478974 0.262736 0.626417
904 2 0.463957 0.282695 0.625272
953 4 0.455999 0.317226 0.612088
952 2 0.475124 0.331766 0.605162
1041 4 0.0631704 0.341187 0.641902
1039 2 0.0702949 0.360247 0.627371
1040 4 0.0774194 0.379306 0.612839
993 4 0.0636569 0.392563 0.621966
991 2 0.0462909 0.408891 0.614417
1136 4 0.110862 0.3541 0.596583
897 4 0.155845 0.380712 0.585217
1191 4 0.20324 0.416111 0.581009
895 2 0.175895 0.394317 0.591387
896 4 0.195946 0.407921 0.597558
1028 4 0.193622 0.40751 0.663893
1027 2 0.196898 0.411085 0.639364
1029 4 0.200174 0.414659 0.614835
954 4 0.49425 0.346306 0.598235
992 4 0.0289248 0.42522 0.606869
1172 4 0.205389 0.424584 0.597661
1159 2 0.167972 0.496476 0.592803
1160 4 0.183856 0.483355 0.606971
1171 2 0.203128 0.449032 0.602388
1173 4 0.200868 0.47348 0.607116
1187 4 0.190308 0.476729 0.623563
1186 2 0.179439 0.481748 0.645514
1206 4 0.496564 0.426101 0.605476
1268 4 0.440892 0.493972 0.649334
1267 2 0.439362 0.472743 0.636213
1204 2 0.473389 0.435299 0.607344
1910 4 0.430811 0.445982 0.605449
1269 4 0.437832 0.451514 0.623092
1205 4 0.450214 0.444498 0.609211
2168 4 0.461426 0.493114 0.650546
1284 4 0.111049 0.0420082 0.718924
1282 2 0.120157 0.0616819 0.706468
2047 2 0.147912 0.00880802 0.7383
2048 4 0.123464 0.00595001 0.742692
2256 4 0.187113 0.00877645 0.745297
2049 4 0.172361 0.011666 0.733909
1201 2 0.190941 0.0458102 0.723475
1202 4 0.184648 0.0263242 0.737823
1203 4 0.197234 0.0652961 0.709126
1226 4 0.191736 0.0830323 0.702693
1148 4 0.202265 0.0819604 0.718811
1030 2 0.299895 0.0482314 0.671899
1032 4 0.29894 0.0569867 0.6953
1005 4 0.315152 0.00502764 0.705935
810 4 0.482059 0.0798697 0.6656
45 3 0.463868 0.0409924 0.693976
41 1 0.454092 0.0581148 0.682578
1163 4 0.488401 0.0718544 0.681543
44 3 0.469413 0.0752385 0.679344
42 3 0.436365 0.0662078 0.694802
1077 4 0.0274704 0.11733 0.736884
1075 2 0.0103918 0.102164 0.726711
864 4 0.0451401 0.113449 0.743796
909 4 0.110976 0.147165 0.707456
907 2 0.118227 0.124052 0.701258
908 4 0.125477 0.100939 0.695061
1283 4 0.129266 0.0813556 0.694012
1227 4 0.143881 0.0949891 0.694468
851 4 0.0956677 0.159125 0.703633
1208 4 0.108929 0.155877 0.689789
1225 2 0.167808 0.0890107 0.69858
1147 2 0.216116 0.0990494 0.730697
1149 4 0.229968 0.116138 0.742582
829 2 0.323231 0.159212 0.699493
830 4 0.298811 0.163313 0.702959
887 4 0.281035 0.157651 0.707032
831 4 0.347651 0.155111 0.696026
1142 4 0.360139 0.15067 0.711497
1141 2 0.383258 0.16014 0.710487
1025 4 0.466446 0.13663 0.715403
3424 2 0.483042 0.112178 0.694556
3426 4 0.48177 0.0905467 0.682081
3425 4 0.484313 0.13381 0.707032
3269 4 0.47958 0.125107 0.723384
1024 2 0.444419 0.148422 0.714431
3268 2 0.487691 0.136479 0.744123
1026 4 0.422392 0.160213 0.713459
845 4 0.442816 0.105791 0.734767
852 4 0.049556 0.169075 0.720229
1214 4 0.0297744 0.171875 0.712386
850 2 0.0726119 0.1641 0.711931
1213 2 0.00930373 0.181398 0.72313
1107 4 0.113792 0.165606 0.706246
1105 2 0.128736 0.183211 0.715834
1106 4 0.143679 0.200816 0.725423
1130 4 0.159143 0.191397 0.733168
888 4 0.250626 0.171008 0.669647
978 4 0.291501 0.168597 0.720015
886 2 0.265831 0.164329 0.68834
976 2 0.293382 0.184793 0.738971
916 2 0.300169 0.239849 0.741362
1143 4 0.406376 0.16961 0.709477
1192 2 0.427658 0.198197 0.692157
1194 4 0.423577 0.17797 0.706277
1262 4 0.416873 0.175967 0.724273
1193 4 0.43174 0.218424 0.678036
1261 2 0.423537 0.18639 0.746001
3262 2 0.0647596 0.330792 0.682218
3264 4 0.0701978 0.318064 0.703041
893 4 0.0692178 0.325521 0.720684
779 4 0.0859519 0.316067 0.714503
778 2 0.105254 0.301799 0.721505
780 4 0.124557 0.287531 0.728506
1065 4 0.242184 0.328531 0.662598
1063 2 0.2434 0.310532 0.679911
1064 4 0.244615 0.292533 0.697224
947 4 0.305899 0.28009 0.724588
946 2 0.284823 0.282891 0.711429
948 4 0.263747 0.285692 0.698271
917 4 0.297696 0.263749 0.734444
1008 4 0.467742 0.292777 0.700372
1006 2 0.468287 0.276811 0.719607
1007 4 0.468832 0.260846 0.738842
892 2 0.0661988 0.339044 0.741497
941 4 0.163784 0.368721 0.731338
1067 4 0.154552 0.382583 0.717257
1066 2 0.169245 0.391253 0.698977
1068 4 0.183937 0.399923 0.680698
1019 4 0.384276 0.410065 0.743531
884 4 0.0747059 0.464333 0.746114
1176 4 0.131539 0.468091 0.70958
1174 2 0.151839 0.469192 0.695025
1188 4 0.16857 0.486767 0.667465
1175 4 0.17214 0.470294 0.68047
1139 4 0.292231 0.473439 0.674471
1138 2 0.306419 0.46273 0.692054
1140 4 0.320607 0.45202 0.709638
1989 4 0.317656 0.447867 0.728747
1229 4 0.333289 0.441307 0.719646
1100 4 0.389765 0.424522 0.731312
1228 2 0.353597 0.427369 0.72395
1230 4 0.373904 0.413431 0.728254
1099 2 0.406061 0.443359 0.729115
1101 4 0.422357 0.462195 0.726917
3330 4 0.433972 0.457272 0.712062
3328 2 0.456312 0.450958 0.702775
1251 4 0.437864 0.473928 0.722398
3329 4 0.478652 0.444644 0.693488
1249 2 0.441641 0.484252 0.744856
834 4 0.0371445 0.0700225 0.824755
1113 4 0.387388 0.077934 0.787729
979 2 0.415829 0.000368037 0.826913
2321 4 0.44451 0.00434466 0.796877
2322 4 0.445926 0.0476733 0.77195
2320 2 0.445218 0.026009 0.784413
846 4 0.449071 0.0664813 0.765038
862 2 0.0516482 0.119558 0.767152
863 4 0.0581563 0.125667 0.790508
833 4 0.0508335 0.108416 0.795785
1125 4 0.0557248 0.121913 0.809408
1123 2 0.0679523 0.138986 0.82298
832 2 0.043989 0.0892193 0.81027
911 4 0.140198 0.102991 0.816577
1257 4 0.218396 0.115506 0.757817
1255 2 0.213297 0.118191 0.782148
921 4 0.208973 0.130998 0.823591
919 2 0.193668 0.150562 0.826448
840 4 0.220988 0.116064 0.819888
1256 4 0.208198 0.120876 0.806478
838 2 0.242446 0.12185 0.831345
920 4 0.178363 0.170127 0.829305
1111 2 0.372965 0.0930983 0.801412
1112 4 0.358543 0.108263 0.815095
844 2 0.445944 0.086136 0.749903
3270 4 0.495802 0.14785 0.764862
1146 4 0.49006 0.165083 0.771833
1129 2 0.163337 0.20251 0.75517
34 3 0.128655 0.177239 0.821758
1277 4 0.161309 0.210353 0.795025
1276 2 0.161553 0.195058 0.814804
35 3 0.0932793 0.169449 0.832032
1131 4 0.167531 0.213623 0.777172
822 4 0.177084 0.221656 0.793174
820 2 0.176391 0.246286 0.797428
1278 4 0.161798 0.179763 0.834583
977 4 0.295263 0.200989 0.757928
918 4 0.302641 0.215949 0.74828
1298 4 0.312361 0.210076 0.76402
1297 2 0.31958 0.206372 0.78767
1299 4 0.3268 0.202667 0.81132
1086 4 0.342853 0.202698 0.823698
50 3 0.40155 0.201103 0.798693
46 1 0.424245 0.199663 0.797467
49 3 0.433098 0.21994 0.790478
1043 4 0.443467 0.209785 0.773789
48 3 0.432946 0.193947 0.818204
47 3 0.429994 0.183398 0.782251
1263 4 0.430201 0.196813 0.76773
1145 4 0.447312 0.190769 0.775523
1144 2 0.468686 0.177926 0.773678
1042 2 0.453063 0.230693 0.763993
1044 4 0.462658 0.251601 0.754198
1022 4 0.452336 0.191013 0.824402
1236 4 0.226841 0.330158 0.7622
821 4 0.175697 0.270915 0.801681
1165 2 0.496294 0.263631 0.773377
1166 4 0.48128 0.258011 0.75419
3275 4 0.0177033 0.350314 0.802444
894 4 0.0631798 0.352568 0.76231
3276 4 0.051497 0.366552 0.769353
3274 2 0.0346001 0.358433 0.785898
816 4 0.0709245 0.365222 0.774119
940 2 0.149942 0.374416 0.751367
814 2 0.0942945 0.373835 0.776319
942 4 0.136099 0.38011 0.771395
815 4 0.117665 0.382448 0.778519
1080 4 0.131787 0.39395 0.784163
1078 2 0.135113 0.396206 0.808842