ITEM: TIMESTEP
1250000
ITEM: NUMBER OF ATOMS
4590
ITEM: BOX BOUNDS pp pp pp
-9.9985700000000008e+00 9.9985700000000008e+00
-9.9985700000000008e+00 9.9985700000000008e+00
-9.9985700000000008e+00 9.9985700000000008e+00
ITEM: ATOMS id type xs ys zs
463 2 0.0426252 0.0760575 0.0227066
465 4 0.0576818 0.0597253 0.0341844
701 4 0.0744024 0.0702786 0.0417914
700 2 0.0967276 0.0722831 0.0528706
702 4 0.119053 0.0742877 0.0639497
566 4 0.13413 0.0627194 0.0560742
565 2 0.148534 0.0771563 0.0705409
491 4 0.276287 0.0234386 0.0454663
2264 4 0.282965 0.0277665 0.026377
2263 2 0.285603 0.0425711 0.00640087
745 2 0.466967 0.0491316 0.00273361
746 4 0.468451 0.0454214 0.0274158
2469 4 0.476977 0.0298965 0.0381303
2467 2 0.493376 0.0126612 0.0458249
464 4 0.0275686 0.0923896 0.0112288
590 4 0.0157524 0.1071 0.0628276
421 2 0.105513 0.110736 0.00475416
422 4 0.101065 0.091491 0.0200843
360 4 0.222833 0.151255 0.00290267
827 4 0.389279 0.117284 0.998533
865 2 0.364729 0.148876 0.00562726
867 4 0.352847 0.165391 0.0201611
826 2 0.414161 0.116955 0.000974581
771 4 0.446779 0.14443 0.0830339
554 4 0.0532977 0.190798 0.0145881
553 2 0.059756 0.21351 0.00636326
835 2 0.110493 0.238287 0.0120294
837 4 0.134305 0.242484 0.018396
836 4 0.0866806 0.23409 0.00566282
915 4 0.145514 0.243665 0.00129433
666 4 0.313086 0.21063 0.0389694
664 2 0.323822 0.191518 0.0269427
573 4 0.309797 0.228356 0.0296524
461 4 0.310174 0.226817 0.0489919
460 2 0.31736 0.23115 0.0725452
665 4 0.334558 0.172406 0.0149161
1070 4 0.400081 0.219471 0.0356809
1069 2 0.414254 0.23055 0.0530463
1071 4 0.428427 0.241629 0.0704117
1012 2 0.491622 0.206327 0.0687868
769 2 0.449526 0.167732 0.0743961
770 4 0.452272 0.191035 0.0657584
1014 4 0.466927 0.204516 0.0653143
294 4 0.0591224 0.309118 0.0440325
292 2 0.0835912 0.303986 0.0436853
507 4 0.124025 0.311325 0.0459193
293 4 0.10806 0.298854 0.0433382
505 2 0.148586 0.31055 0.0505416
506 4 0.173146 0.309775 0.0551639
483 4 0.191505 0.314742 0.0564857
355 2 0.296786 0.319758 0.00956595
571 2 0.304821 0.25179 0.0224936
356 4 0.298307 0.294818 0.00863141
572 4 0.299844 0.275224 0.0153348
957 4 0.400861 0.309955 0.00849211
324 4 0.442881 0.254364 0.0665183
322 2 0.442279 0.279167 0.0634129
672 4 0.440456 0.32044 0.0481287
323 4 0.441677 0.303969 0.0603075
620 4 0.00894253 0.341944 0.0770998
481 2 0.206015 0.334598 0.051969
609 4 0.221263 0.363937 0.0640302
607 2 0.233675 0.384579 0.0573186
482 4 0.220524 0.354453 0.0474523
608 4 0.246086 0.405221 0.050607
357 4 0.295266 0.344698 0.0105005
252 4 0.266211 0.405001 0.0471
250 2 0.280596 0.411064 0.0275681
741 4 0.391572 0.377547 0.0791955
670 2 0.457093 0.33859 0.0524845
671 4 0.473729 0.35674 0.0568404
281 4 0.475073 0.370303 0.0696835
280 2 0.474185 0.395229 0.0679282
282 4 0.473297 0.420155 0.0661728
2651 4 0.485954 0.353815 0.0723768
551 4 0.0983827 0.446288 0.0527156
550 2 0.0999095 0.466982 0.0666666
552 4 0.101436 0.487675 0.0806176
244 2 0.242058 0.485305 0.0620949
245 4 0.231436 0.47464 0.0820599
251 4 0.294981 0.417127 0.0080362
246 4 0.25268 0.495971 0.0421298
272 4 0.264368 0.496638 0.0269566
271 2 0.269649 0.486388 0.00477017
523 2 0.349849 0.493697 0.0436914
524 4 0.334205 0.489008 0.0247582
525 4 0.365492 0.498385 0.0626247
226 2 0.454925 0.459102 0.037073
228 4 0.456484 0.465741 0.0130175
227 4 0.453365 0.452462 0.0611285
563 4 0.440253 0.473451 0.00400813
562 2 0.430302 0.496389 0.00395475
16 1 0.0566913 0.0656018 0.14484
20 3 0.034349 0.0663831 0.140498
1806 4 0.0793616 0.0346171 0.145635
18 3 0.0654831 0.0454231 0.137497
2576 4 0.0287709 0.0288918 0.089392
2575 2 0.00438121 0.0239663 0.0918538
1804 2 0.083632 0.0144347 0.131507
450 4 0.175028 0.0471845 0.131767
1505 4 0.170801 0.0379272 0.148576
448 2 0.183006 0.0708252 0.133397
652 2 0.302394 0.0214089 0.113481
653 4 0.31358 0.0320929 0.0938367
654 4 0.291207 0.0107249 0.133125
557 4 0.349939 0.0696781 0.104886
296 4 0.365304 0.064049 0.0940432
295 2 0.377699 0.0461162 0.106289
297 4 0.390094 0.0281833 0.118534
485 4 0.391795 0.0164063 0.10355
589 2 0.00493554 0.112289 0.084765
17 3 0.0671806 0.0827774 0.133699
567 4 0.162938 0.0915933 0.0850076
237 4 0.154192 0.151 0.136597
578 4 0.139159 0.146593 0.1493
577 2 0.119006 0.131826 0.148315
579 4 0.0988531 0.117059 0.14733
235 2 0.171264 0.132794 0.13509
236 4 0.188337 0.114589 0.133582
693 4 0.201747 0.107008 0.145606
449 4 0.190983 0.0944659 0.135028
691 2 0.219658 0.104946 0.16293
558 4 0.346701 0.119511 0.107524
556 2 0.34832 0.0945944 0.106205
337 2 0.0624247 0.190654 0.1545
339 4 0.0425228 0.181407 0.142518
338 4 0.0823265 0.199902 0.166483
476 4 0.145842 0.199272 0.139466
475 2 0.122146 0.200681 0.14732
477 4 0.0984495 0.202091 0.155174
737 4 0.148752 0.203936 0.12038
736 2 0.165302 0.220513 0.111636
738 4 0.181852 0.237091 0.102893
462 4 0.324547 0.235482 0.0960986
284 4 0.294832 0.191995 0.154364
255 4 0.334603 0.223039 0.106661
254 4 0.368185 0.226294 0.143571
253 2 0.351394 0.224667 0.125116
630 4 0.382251 0.216945 0.134608
628 2 0.400881 0.200275 0.135097
765 4 0.385675 0.234287 0.143507
629 4 0.419511 0.183606 0.135586
352 2 0.330324 0.289844 0.135477
353 4 0.309092 0.28856 0.148621
754 2 0.287806 0.32627 0.160103
755 4 0.301297 0.30583 0.155067
278 4 0.296428 0.288857 0.162471
354 4 0.351556 0.291128 0.122334
763 2 0.394382 0.250046 0.160857
519 4 0.500686 0.287093 0.0866479
526 2 0.491117 0.286378 0.163285
647 4 0.0207789 0.353278 0.0900199
646 2 0.0447988 0.348786 0.0953162
648 4 0.0688188 0.344295 0.100613
456 4 0.086434 0.350428 0.0939662
455 4 0.124615 0.381285 0.103495
454 2 0.105525 0.365856 0.0987305
537 4 0.221573 0.38105 0.120419
535 2 0.201499 0.386693 0.106621
536 4 0.181426 0.392336 0.0928227
611 4 0.236044 0.368657 0.127314
610 2 0.251008 0.36745 0.147309
302 4 0.325773 0.411715 0.155989
387 4 0.339778 0.399747 0.149837
739 2 0.388717 0.370064 0.102882
740 4 0.385862 0.362581 0.126568
15 3 0.39523 0.358459 0.142811
385 2 0.359461 0.384711 0.146425
386 4 0.379144 0.369674 0.143013
11 1 0.414571 0.366662 0.151602
12 3 0.430311 0.349899 0.15224
14 3 0.42257 0.383963 0.138369
495 4 0.432461 0.401037 0.137895
1465 2 0.0210917 0.474512 0.137784
1466 4 0.0444592 0.48258 0.134036
242 4 0.118991 0.495118 0.0776179
627 4 0.224435 0.46037 0.0940413
625 2 0.210875 0.439797 0.0897914
626 4 0.197316 0.419223 0.0855416
637 2 0.226668 0.501202 0.149175
767 4 0.242419 0.473381 0.150995
638 4 0.248656 0.49078 0.143424
766 2 0.259522 0.455509 0.154638
768 4 0.276624 0.437637 0.158281
301 2 0.309158 0.429664 0.161178
303 4 0.292542 0.447614 0.166367
660 4 0.418866 0.469389 0.135426
494 4 0.419719 0.449359 0.136078
493 2 0.42609 0.425198 0.136986
658 2 0.431416 0.479272 0.154661
2480 4 0.0182929 0.0177322 0.20463
19 3 0.0604206 0.0680486 0.167611
1422 4 0.0131165 0.999038 0.198308
673 2 0.145071 0.0594743 0.213015
675 4 0.132622 0.0489772 0.194041
674 4 0.15752 0.0699713 0.23199
1504 2 0.17337 0.0317021 0.172655
689 4 0.192897 0.0231555 0.207278
1506 4 0.17594 0.0254769 0.196735
688 2 0.203912 0.00105404 0.2112
21 1 0.400014 0.0130535 0.232199
25 3 0.408475 0.0310344 0.221075
759 4 0.414535 0.0495028 0.217198
757 2 0.401536 0.070824 0.218468
22 3 0.377117 0.0149375 0.23334
351 4 0.471318 0.0309825 0.24376
349 2 0.449204 0.0336952 0.232411
350 4 0.42709 0.0364079 0.221063
380 4 0.0511905 0.0862816 0.170201
2483 4 0.00245726 0.135736 0.173118
512 4 0.0433763 0.123482 0.212663
379 2 0.0401702 0.103525 0.184567
381 4 0.0291499 0.120769 0.198934
511 2 0.0420406 0.147541 0.219339
392 4 0.10249 0.166658 0.250386
544 2 0.145139 0.164844 0.25235
545 4 0.121406 0.168052 0.245166
692 4 0.237569 0.102884 0.180255
582 4 0.247925 0.10896 0.196454
722 4 0.183345 0.165056 0.246788
721 2 0.196243 0.163994 0.225394
580 2 0.268531 0.11988 0.20547
581 4 0.289137 0.130801 0.214487
30 3 0.310213 0.129254 0.216124
26 1 0.329072 0.12768 0.228794
29 3 0.325294 0.11368 0.246909
27 3 0.334726 0.148569 0.236593
28 3 0.346573 0.119476 0.215957
758 4 0.388537 0.0921453 0.219739
312 4 0.467955 0.164369 0.17787
310 2 0.454696 0.143978 0.183665
311 4 0.441437 0.123587 0.189461
513 4 0.0407048 0.1716 0.226015
363 4 0.0981307 0.209731 0.173638
362 4 0.108616 0.226358 0.219619
361 2 0.103373 0.218045 0.196629
372 4 0.127662 0.234725 0.220831
370 2 0.145155 0.24531 0.235225
371 4 0.162647 0.255894 0.249618
723 4 0.209141 0.162932 0.204
283 2 0.31557 0.186774 0.167319
285 4 0.336309 0.181552 0.180273
521 4 0.469944 0.191301 0.245015
520 2 0.486567 0.182967 0.2283
395 4 0.066708 0.288004 0.205176
394 2 0.0515772 0.290121 0.224969
396 4 0.0364464 0.292238 0.244761
749 4 0.0990095 0.323656 0.170128
750 4 0.085339 0.28419 0.197629
748 2 0.0921743 0.303923 0.183878
300 4 0.123316 0.329258 0.219044
279 4 0.264719 0.260259 0.188498
277 2 0.280574 0.274558 0.175484
308 4 0.31684 0.286785 0.232618
307 2 0.32995 0.284609 0.211438
497 4 0.317142 0.297412 0.251015
309 4 0.34306 0.282434 0.190258
764 4 0.40309 0.265805 0.178207
623 4 0.414577 0.277033 0.189798
528 4 0.470611 0.294798 0.174851
622 2 0.435498 0.29059 0.187878
624 4 0.45642 0.304147 0.185957
262 2 0.0658092 0.388233 0.226606
264 4 0.0603231 0.374015 0.206783
263 4 0.0712953 0.402451 0.246428
298 2 0.127321 0.350786 0.231115
299 4 0.131326 0.372313 0.243186
290 4 0.212371 0.411197 0.21857
612 4 0.265972 0.366242 0.167304
756 4 0.274315 0.346711 0.16514
13 3 0.410846 0.37428 0.1732
643 2 0.488897 0.405246 0.201279
1757 4 0.0735081 0.499646 0.222665
416 4 0.161335 0.44977 0.198722
289 2 0.191145 0.423545 0.21386
417 4 0.171556 0.498069 0.206683
415 2 0.166445 0.473919 0.202702
291 4 0.16992 0.435894 0.209151
645 4 0.480202 0.427805 0.194903
597 4 0.475626 0.444421 0.206755
595 2 0.464585 0.465288 0.198517
596 4 0.453544 0.486155 0.190279
659 4 0.443965 0.489156 0.173897
231 4 0.43585 0.493337 0.191677
1799 4 0.0272136 0.0256138 0.31713
233 4 0.0337584 0.023096 0.2989
1402 2 0.0686685 0.0290574 0.308049
1403 4 0.0444307 0.0335874 0.312194
232 2 0.0199914 0.0367671 0.283129
1404 4 0.0929064 0.0245273 0.303904
1701 4 0.162658 0.0514692 0.296694
1699 2 0.183129 0.0641553 0.303415
1700 4 0.2036 0.0768414 0.310136
23 3 0.408565 0.0123399 0.253757
697 2 0.37118 0.0364881 0.308616
699 4 0.359758 0.0265366 0.288724
1518 4 0.356966 0.00986474 0.278526
633 4 0.380065 0.0656524 0.331047
698 4 0.382602 0.0464397 0.328507
743 4 0.493634 0.0500152 0.293348
744 4 0.488915 0.0267927 0.249312
742 2 0.491275 0.038404 0.27133
478 2 0.469682 0.0514251 0.322282
479 4 0.484037 0.0624769 0.305048
398 4 0.0957023 0.156351 0.303798
397 2 0.0925403 0.137088 0.319423
546 4 0.168873 0.161637 0.259534
248 4 0.215047 0.0881274 0.322258
249 4 0.215838 0.136786 0.31075
247 2 0.215443 0.112457 0.316504
404 4 0.222676 0.138374 0.291814
403 2 0.204702 0.150001 0.278894
405 4 0.186727 0.161628 0.265974
632 4 0.366027 0.112295 0.319728
631 2 0.373046 0.0889739 0.325388
333 4 0.465427 0.135414 0.273778
331 2 0.464956 0.160268 0.276464
390 4 0.0984755 0.172893 0.313593
393 4 0.0875453 0.173789 0.297572
391 2 0.0950177 0.170224 0.273979
388 2 0.109794 0.191942 0.325177
344 4 0.275137 0.243333 0.332914
717 4 0.409945 0.227666 0.31775
420 4 0.411514 0.209877 0.307399
332 4 0.464485 0.185123 0.279149
418 2 0.430739 0.204195 0.292456
419 4 0.449964 0.198513 0.277513
760 2 0.484429 0.221922 0.287683
762 4 0.468019 0.204647 0.280102
444 4 0.0295017 0.258525 0.302736
364 2 0.00318381 0.315554 0.260358
442 2 0.0305348 0.274153 0.283245
443 4 0.0315679 0.289781 0.263755
365 4 0.0194287 0.298181 0.252647
401 4 0.218699 0.28089 0.267193
400 2 0.227236 0.282422 0.290644
402 4 0.235773 0.283954 0.314095
510 4 0.233507 0.29804 0.327539
508 2 0.229818 0.322768 0.327847
345 4 0.247129 0.284659 0.33001
343 2 0.261133 0.263996 0.331462
496 2 0.331426 0.30964 0.267495
715 2 0.414109 0.252004 0.321686
498 4 0.34571 0.321869 0.283976
543 4 0.416912 0.334717 0.289759
716 4 0.418274 0.276342 0.325622
541 2 0.420435 0.313456 0.302438
542 4 0.423958 0.292195 0.315116
601 2 0.109949 0.398718 0.255634
603 4 0.132425 0.387794 0.254814
602 4 0.0874735 0.409642 0.256454
734 4 0.138894 0.371097 0.26152
733 2 0.153073 0.365319 0.281287
735 4 0.167251 0.35954 0.301055
677 4 0.162003 0.363065 0.320824
676 2 0.185155 0.357019 0.328077
509 4 0.22613 0.347497 0.328154
435 4 0.216423 0.363304 0.322287
433 2 0.234941 0.379859 0.32515
434 4 0.253459 0.396414 0.328013
728 4 0.354105 0.376024 0.317053
727 2 0.348627 0.398595 0.307795
615 4 0.433414 0.344627 0.293266
613 2 0.428509 0.368491 0.298887
2538 4 0.471716 0.389871 0.328356
2536 2 0.47804 0.393244 0.304402
614 4 0.423604 0.392356 0.304507
2537 4 0.484364 0.396616 0.280447
2862 4 0.482498 0.412558 0.26747
777 4 0.0660921 0.449069 0.312714
549 4 0.0521347 0.442071 0.327148
775 2 0.0909183 0.447386 0.310262
414 4 0.130956 0.458593 0.314639
776 4 0.115744 0.445704 0.307811
412 2 0.144339 0.467789 0.333652
438 4 0.285814 0.438016 0.292895
436 2 0.310624 0.439123 0.295792
729 4 0.343149 0.421167 0.298538
437 4 0.335435 0.44023 0.298688
2861 4 0.445312 0.444979 0.259296
2860 2 0.463905 0.428769 0.263383
593 4 0.431004 0.472281 0.317912
1772 4 0.0288601 0.00206129 0.40959
1798 2 0.0190886 0.00945591 0.334395
369 4 0.0783098 0.0492439 0.372513
367 2 0.0807595 0.0252334 0.379045
368 4 0.0832093 0.00122294 0.385578
732 4 0.0934857 0.0630481 0.373205
605 4 0.163839 0.0509233 0.362861
604 2 0.154662 0.072493 0.371563
256 2 0.393582 0.0536876 0.366986
257 4 0.379693 0.0535688 0.346195
258 4 0.40747 0.0538064 0.387778
426 4 0.413939 0.0587769 0.405799
480 4 0.455328 0.0403733 0.339515
458 4 0.0319471 0.150143 0.379661
318 4 0.0495882 0.140476 0.378261
316 2 0.0477552 0.116056 0.383308
317 4 0.0459221 0.0916359 0.388355
606 4 0.145485 0.0940626 0.380264
730 2 0.0916934 0.0858139 0.363023
399 4 0.0893783 0.117825 0.335047
731 4 0.0899012 0.10858 0.35284
600 4 0.216829 0.144759 0.391937
598 2 0.200939 0.16402 0.39063
683 4 0.262815 0.102616 0.369231
682 2 0.274416 0.10886 0.390482
684 4 0.286018 0.115105 0.411732
575 4 0.403966 0.131295 0.38307
516 4 0.409818 0.124305 0.365268
321 4 0.338545 0.142258 0.416565
574 2 0.417276 0.132601 0.404196
451 2 0.488344 0.143191 0.344301
514 2 0.427176 0.133009 0.349516
453 4 0.463812 0.139576 0.341087
515 4 0.444534 0.141712 0.333764
457 2 0.0250253 0.168408 0.395271
2654 4 0.00596618 0.203265 0.40877
459 4 0.0181035 0.186672 0.410882
389 4 0.121112 0.210992 0.336762
687 4 0.170352 0.192059 0.400706
599 4 0.18505 0.183281 0.389324
473 4 0.223279 0.221841 0.393797
472 2 0.246178 0.214582 0.400736
374 4 0.235952 0.245336 0.384607
378 4 0.281292 0.224462 0.33899
376 2 0.301427 0.21081 0.344767
377 4 0.321563 0.197159 0.350543
474 4 0.269076 0.207323 0.407675
708 4 0.37376 0.163452 0.379568
707 4 0.338362 0.193598 0.361158
706 2 0.356061 0.178525 0.370363
467 4 0.386493 0.204088 0.414795
305 4 0.472165 0.185112 0.418156
275 4 0.165161 0.324522 0.402612
616 2 0.125328 0.323609 0.410748
617 4 0.149897 0.322425 0.415236
618 4 0.100758 0.324793 0.406261
274 2 0.172569 0.303609 0.391082
276 4 0.179977 0.282696 0.379551
373 2 0.213202 0.25561 0.383169
375 4 0.190452 0.265885 0.381732
406 2 0.0248939 0.382086 0.386317
407 4 0.0417802 0.39268 0.371224
548 4 0.0400102 0.4007 0.352489
408 4 0.00800756 0.371492 0.40141
347 4 0.0875602 0.336013 0.416003
678 4 0.208307 0.350972 0.33533
504 4 0.244778 0.399756 0.383998
503 4 0.290418 0.404415 0.403896
334 2 0.327435 0.39962 0.404982
502 2 0.267598 0.402086 0.393947
336 4 0.30673 0.412037 0.411485
335 4 0.34814 0.387203 0.398479
240 4 0.366432 0.389988 0.404941
561 4 0.486352 0.340304 0.382229
753 4 0.469036 0.371206 0.336124
752 4 0.474359 0.332512 0.367351
751 2 0.471698 0.351859 0.351737
547 2 0.0460725 0.421385 0.339819
413 4 0.157722 0.476985 0.352665
500 4 0.164473 0.495416 0.351654
1545 4 0.22604 0.487311 0.347274
1543 2 0.201421 0.48389 0.34999
1544 4 0.176802 0.480468 0.352706
667 2 0.293156 0.44628 0.415521
669 4 0.289979 0.421548 0.413673
594 4 0.393287 0.469607 0.350637
592 2 0.412146 0.470944 0.334275
1524 4 0.0641448 0.00626056 0.464306
720 4 0.0270903 0.068007 0.457761
2237 4 0.0150382 0.0557629 0.450406
2236 2 0.0211895 0.0353711 0.43731
1127 4 0.013408 0.0600148 0.46954
2238 4 0.0273407 0.0149793 0.424213
1522 2 0.0648107 0.00798315 0.489242
2428 2 0.229361 0.0123843 0.488993
2430 4 0.210614 0.0282811 0.484411
726 4 0.302999 0.057268 0.447819
724 2 0.306835 0.0414871 0.466831
725 4 0.310671 0.0257062 0.485842
424 2 0.405603 0.0404931 0.420678
425 4 0.397266 0.0222094 0.435557
1580 4 0.394096 0.0072486 0.423372
2878 2 0.476389 0.0608143 0.467156
2880 4 0.479618 0.0778721 0.449162
2879 4 0.473161 0.0437566 0.48515
718 2 0.0297583 0.092422 0.453074
719 4 0.0324264 0.116837 0.448388
1033 2 0.115688 0.138665 0.485381
1035 4 0.115205 0.157219 0.468626
1182 4 0.271264 0.108269 0.478091
320 4 0.299367 0.11258 0.425786
1180 2 0.275788 0.107958 0.453502
1181 4 0.280313 0.107646 0.428913
319 2 0.318956 0.127419 0.421176
411 4 0.264532 0.154431 0.471213
3157 2 0.483012 0.154164 0.478305
642 4 0.470383 0.0956757 0.452147
640 2 0.454146 0.114195 0.447838
641 4 0.437909 0.132714 0.443529
306 4 0.442823 0.14706 0.432007
576 4 0.430585 0.133907 0.425323
3159 4 0.48521 0.130356 0.485621
304 2 0.457494 0.166086 0.425081
469 2 0.0389327 0.210054 0.501107
470 4 0.0257683 0.192453 0.489187
685 2 0.161681 0.204712 0.420452
686 4 0.15301 0.217364 0.440198
260 4 0.136217 0.213229 0.448516
261 4 0.109603 0.175889 0.46847
259 2 0.12291 0.194559 0.458493
695 4 0.147537 0.229038 0.454516
694 2 0.136458 0.248278 0.466017
488 4 0.280056 0.207617 0.423501
487 2 0.294768 0.216081 0.441861
489 4 0.309481 0.224545 0.460221
409 2 0.263823 0.178725 0.477082
410 4 0.263114 0.20302 0.482952
900 4 0.281235 0.207706 0.493393
468 4 0.368467 0.247495 0.431873
466 2 0.37748 0.225792 0.423334
3158 4 0.480813 0.177972 0.470988
585 4 0.437837 0.24004 0.486716
348 4 0.0631136 0.334276 0.459593
1260 4 0.127686 0.270674 0.496483
696 4 0.12538 0.267518 0.477518
811 2 0.258897 0.290787 0.485015
813 4 0.256822 0.274868 0.465846
266 4 0.308327 0.25054 0.44233
265 2 0.332939 0.254946 0.442518
267 4 0.35755 0.259352 0.442707
2455 2 0.4934 0.298152 0.490259
2456 4 0.480761 0.289568 0.470467
584 4 0.470714 0.273 0.468453
583 2 0.454275 0.25652 0.477584
326 4 0.059239 0.349153 0.472406
346 2 0.0753369 0.335145 0.437798
325 2 0.0745377 0.358961 0.489579
383 4 0.0856568 0.410155 0.441305
10 3 0.133292 0.363592 0.470291
7 3 0.107584 0.367289 0.497093
6 1 0.13014 0.366993 0.492588
711 4 0.146842 0.402243 0.486739
709 2 0.170163 0.410213 0.490957
774 4 0.207649 0.407845 0.486814
239 4 0.389453 0.402558 0.447517
238 2 0.377943 0.396273 0.426229
588 4 0.382465 0.41212 0.464014
586 2 0.388839 0.414463 0.488078
681 4 0.0712761 0.423484 0.446174
680 4 0.0361552 0.457933 0.437202
1381 2 0.0486938 0.495816 0.436347
1383 4 0.0330767 0.476947 0.431324
679 2 0.0537157 0.440709 0.441688
382 2 0.108874 0.419359 0.44011
570 4 0.147665 0.480447 0.47836
569 4 0.141262 0.436825 0.454762
568 2 0.144464 0.458636 0.466561
384 4 0.132091 0.428564 0.438914
539 4 0.106285 0.476285 0.480681
538 2 0.106056 0.496005 0.496051
636 4 0.216518 0.45978 0.446518
634 2 0.208694 0.441828 0.462064
635 4 0.20087 0.423875 0.47761
710 4 0.193484 0.418184 0.495174
4 3 0.311225 0.484226 0.421531
668 4 0.296333 0.471012 0.417369
880 2 0.3417 0.494069 0.481272
881 4 0.355419 0.47966 0.496417
1523 4 0.0654766 0.00970575 0.514177
1057 2 0.127514 0.0625418 0.58067
2374 2 0.116199 0.00664584 0.570564
1152 4 0.169108 0.0757037 0.515235
1059 4 0.137287 0.0836185 0.571426
1150 2 0.152983 0.0814982 0.533445
2375 4 0.107018 0.027922 0.579956
340 2 0.197447 0.0550246 0.509406
342 4 0.189884 0.0783073 0.514496
341 4 0.205009 0.031742 0.504316
430 2 0.321936 0.0374607 0.520737
432 4 0.305288 0.0278458 0.504751
963 4 0.303885 0.0105935 0.4957
431 4 0.338585 0.0470756 0.536723
843 4 0.347419 0.0637232 0.533992
1217 4 0.410887 0.0404232 0.535762
842 4 0.396017 0.0520179 0.532617
841 2 0.371718 0.0578706 0.533305
1216 2 0.424964 0.0200699 0.539331
879 4 0.0655103 0.155523 0.556302
1272 4 0.0768552 0.146396 0.569648
938 4 0.0731697 0.137945 0.552369
937 2 0.0876547 0.129391 0.533871
1151 4 0.136858 0.0872926 0.551655
1155 4 0.143577 0.100619 0.564105
939 4 0.10214 0.120838 0.515372
1153 2 0.157477 0.112776 0.580964
1034 4 0.116172 0.120112 0.502135
878 4 0.0357274 0.183559 0.527533
1199 4 0.0172362 0.191633 0.534619
877 2 0.0506188 0.169541 0.541918
471 4 0.0520971 0.227655 0.513026
857 4 0.290806 0.216361 0.560671
856 2 0.273419 0.208064 0.576608
898 2 0.285688 0.213281 0.517357
791 4 0.300107 0.231248 0.552348
899 4 0.29014 0.218856 0.541322
871 2 0.385131 0.237535 0.551779
872 4 0.365906 0.234823 0.536024
873 4 0.404356 0.240247 0.567534
3352 2 0.998402 0.274407 0.515844
3354 4 0.00509231 0.296433 0.506083
1259 4 0.124726 0.305383 0.532362
1258 2 0.126206 0.288029 0.514422
649 2 0.240063 0.298063 0.536941
651 4 0.221879 0.287362 0.550356
650 4 0.258248 0.308765 0.523525
804 4 0.254492 0.323774 0.511462
790 2 0.310175 0.252011 0.561978
812 4 0.260973 0.306706 0.504185
792 4 0.320243 0.272773 0.571607
1238 4 0.333367 0.286359 0.577768
1237 2 0.333926 0.311263 0.579931
1010 4 0.496325 0.307335 0.527318
935 4 0.0112716 0.398394 0.546825
1135 2 0.133579 0.413034 0.55677
9 3 0.13998 0.349811 0.504686
897 4 0.154188 0.381709 0.568847
1137 4 0.139501 0.395441 0.573522
8 3 0.139311 0.387362 0.498864
327 4 0.0898364 0.36877 0.506752
1189 2 0.229475 0.388383 0.555842
773 4 0.243282 0.391058 0.517624
1190 4 0.242091 0.382052 0.535204
772 2 0.225465 0.399451 0.502219
1191 4 0.216859 0.394714 0.57648
803 4 0.249662 0.372772 0.520214
895 2 0.177552 0.384875 0.577169
802 2 0.252077 0.348273 0.515838
930 4 0.25971 0.386787 0.52824
928 2 0.281967 0.397151 0.532971
929 4 0.304225 0.407515 0.537701
1239 4 0.334486 0.336166 0.582095
927 4 0.372695 0.383589 0.561692
925 2 0.386798 0.396349 0.54546
926 4 0.4009 0.40911 0.529229
1136 4 0.127656 0.430626 0.540019
1161 4 0.155477 0.485513 0.572752
2243 4 0.140824 0.496868 0.565286
1159 2 0.175546 0.474824 0.583152
889 2 0.304805 0.466678 0.560214
890 4 0.317294 0.471133 0.581412
891 4 0.292315 0.462223 0.539016
1953 4 0.366933 0.464045 0.558607
1951 2 0.358054 0.466675 0.535382
1000 2 0.407435 0.500356 0.533782
1952 4 0.349175 0.469304 0.512156
663 4 0.412474 0.420932 0.519371
587 4 0.395212 0.416805 0.512142
1001 4 0.425054 0.483871 0.540343
662 4 0.427923 0.467442 0.529314
661 2 0.420198 0.444187 0.524343
1911 4 0.433149 0.467763 0.548183
1909 2 0.434863 0.462555 0.572578
1332 4 0.443165 0.478646 0.535448
1330 2 0.461053 0.496092 0.53638
945 4 0.056109 0.0100512 0.641234
2319 4 0.0531181 0.000829187 0.623659
943 2 0.0775062 0.005867 0.653475
1058 4 0.117741 0.0414651 0.589913
1284 4 0.166675 0.0793492 0.645045
944 4 0.0989033 0.0016828 0.665715
950 4 0.308028 0.0226124 0.609004
949 2 0.296949 0.0448468 0.606166
951 4 0.285869 0.0670812 0.603329
1031 4 0.289702 0.0731149 0.62276
3179 4 0.0313737 0.15621 0.663306
1083 4 0.0170472 0.141986 0.669286
3178 2 0.0164664 0.167556 0.646747
1270 2 0.0877526 0.149875 0.591881
1271 4 0.0986499 0.153354 0.614114
1282 2 0.151926 0.0909998 0.661535
1154 4 0.171376 0.124932 0.597822
1221 4 0.190964 0.131933 0.598571
1219 2 0.197318 0.150986 0.613462
1032 4 0.254248 0.107587 0.630201
1030 2 0.271975 0.0903509 0.62648
888 4 0.286324 0.167663 0.6577
45 3 0.430181 0.0835645 0.647867
808 2 0.482992 0.090817 0.640308
810 4 0.471233 0.0858481 0.661807
809 4 0.494751 0.095786 0.618809
1243 2 0.0487353 0.211562 0.6363
1244 4 0.0456164 0.203698 0.612771
1245 4 0.0518543 0.219426 0.659829
3180 4 0.0015592 0.178903 0.630188
1212 4 0.220233 0.168778 0.638757
1220 4 0.203672 0.17004 0.628354
796 2 0.208273 0.206167 0.618135
798 4 0.214975 0.185667 0.630784
797 4 0.201571 0.226668 0.605486
1210 2 0.244509 0.171144 0.644259
858 4 0.256031 0.199766 0.592546
1211 4 0.268785 0.17351 0.649761
3121 2 0.495096 0.224322 0.654145
905 4 0.464097 0.232699 0.623453
3123 4 0.479029 0.227812 0.635308
904 2 0.448794 0.245864 0.6087
983 4 0.0350856 0.302966 0.601293
982 2 0.0417077 0.31604 0.621551
3263 4 0.0516656 0.32053 0.659272
984 4 0.0483297 0.329114 0.64181
947 4 0.224887 0.288769 0.642235
946 2 0.237329 0.283876 0.663364
805 2 0.323149 0.324758 0.657351
906 4 0.43349 0.259029 0.593947
952 2 0.481832 0.320282 0.601292
953 4 0.461918 0.310344 0.612688
1041 4 0.0516959 0.339397 0.657958
1039 2 0.0595579 0.360857 0.647818
1040 4 0.0674198 0.382318 0.637679
993 4 0.0662022 0.396653 0.623396
896 4 0.200917 0.388041 0.58549
1172 4 0.213326 0.401305 0.59381
1029 4 0.232486 0.411418 0.66035
807 4 0.312956 0.335353 0.637127
1206 4 0.46585 0.411978 0.661927
992 4 0.0545036 0.445271 0.623748
991 2 0.0603529 0.420962 0.623572
1175 4 0.182734 0.494714 0.652966
1160 4 0.195615 0.464136 0.593552
1173 4 0.210372 0.451221 0.594389
1171 2 0.211849 0.426263 0.594099
1188 4 0.20117 0.487912 0.652524
1187 4 0.203777 0.460984 0.610467
1186 2 0.202473 0.474448 0.631495
1204 2 0.458257 0.433426 0.651559
1910 4 0.436577 0.457347 0.596973
1269 4 0.460457 0.472062 0.640248
1267 2 0.445058 0.491507 0.637093
1205 4 0.450664 0.454874 0.64119
1077 4 0.045721 0.083999 0.74956
2255 4 0.217555 0.0305171 0.726608
2254 2 0.201685 0.0243564 0.744921
1004 4 0.325197 0.0110132 0.726236
1003 2 0.340641 0.0287204 0.734786
1163 4 0.475122 0.0755906 0.67836
1162 2 0.490194 0.0590695 0.689543
42 3 0.422172 0.0687404 0.681169
44 3 0.457158 0.0804216 0.673945
1081 2 0.0263656 0.122794 0.682324
1082 4 0.0356839 0.103602 0.695363
1076 4 0.0216703 0.103287 0.710187
1075 2 0.0336956 0.0936432 0.729873
850 2 0.0663084 0.149314 0.728001
852 4 0.0425923 0.144662 0.734411
1214 4 0.0318365 0.15826 0.743516
909 4 0.0995856 0.150012 0.705573
907 2 0.113626 0.130348 0.699141
908 4 0.127666 0.110684 0.692709
1283 4 0.137178 0.10265 0.678025
1227 4 0.146815 0.108083 0.694586
851 4 0.0900245 0.153966 0.721592
1225 2 0.155799 0.0975442 0.715404
1107 4 0.108868 0.157666 0.720733
1226 4 0.164783 0.0870056 0.736223
830 4 0.314905 0.150851 0.706989
978 4 0.303262 0.15218 0.722166
887 4 0.297655 0.16031 0.705849
886 2 0.291989 0.163986 0.681775
831 4 0.362299 0.135124 0.704309
1141 2 0.394153 0.157565 0.714744
829 2 0.338602 0.142987 0.705649
1142 4 0.374781 0.142128 0.718149
41 1 0.434653 0.0846292 0.670172
43 3 0.429028 0.10559 0.678383
1025 4 0.476658 0.150319 0.704084
3424 2 0.478919 0.114205 0.691446
3426 4 0.470214 0.0939383 0.67967
1024 2 0.454681 0.162117 0.705821
3425 4 0.487624 0.134471 0.703222
3269 4 0.495691 0.150817 0.709395
1209 4 0.0645398 0.228734 0.672384
1215 4 0.00422744 0.199915 0.745322
1213 2 0.018032 0.179087 0.744419
1207 2 0.0835256 0.237995 0.685762
1105 2 0.114947 0.169034 0.742157
1208 4 0.102511 0.247256 0.699139
976 2 0.303769 0.173427 0.735339
916 2 0.28929 0.23299 0.750395
918 4 0.305292 0.213842 0.748824
1194 4 0.388786 0.214013 0.71926
1193 4 0.357989 0.24737 0.698294
1192 2 0.373387 0.230692 0.708777
1143 4 0.413525 0.173002 0.711338
1026 4 0.432705 0.173914 0.707559
1261 2 0.433369 0.200845 0.73847
1262 4 0.425124 0.185613 0.720437
1179 4 0.00468043 0.265828 0.748603
3262 2 0.0413467 0.31688 0.681753
3264 4 0.0310279 0.313229 0.704233
779 4 0.0458519 0.314985 0.716808
893 4 0.0292437 0.324524 0.720528
778 2 0.0638824 0.308913 0.733032
780 4 0.081913 0.302842 0.749256
821 4 0.118262 0.278144 0.751713
1064 4 0.23493 0.281261 0.696766
1065 4 0.228365 0.268161 0.744578
1063 2 0.231648 0.274711 0.720672
948 4 0.249771 0.278983 0.684493
806 4 0.333342 0.314163 0.677576
1008 4 0.408322 0.321184 0.729967
1006 2 0.422372 0.314135 0.749412
892 2 0.022324 0.348011 0.72559
894 4 0.0154043 0.371499 0.730653
3276 4 0.0113471 0.382475 0.746296
814 2 0.0475759 0.398666 0.742195
816 4 0.0267981 0.386889 0.734794
1066 2 0.163654 0.410267 0.712155
1068 4 0.175797 0.401056 0.692334
1027 2 0.212097 0.411909 0.674815
1028 4 0.191708 0.412401 0.689279
1019 4 0.405426 0.410049 0.734916
1280 4 0.0623205 0.507534 0.691235
1067 4 0.151511 0.419477 0.731977
940 2 0.107933 0.419858 0.747183
941 4 0.131553 0.418779 0.739054
1174 2 0.178516 0.496322 0.677559
1176 4 0.174298 0.49793 0.702152
1140 4 0.314017 0.479466 0.692387
1138 2 0.299699 0.459708 0.697846
1139 4 0.285381 0.43995 0.703305
1230 4 0.400636 0.477835 0.722106
1228 2 0.385191 0.463641 0.735713
1100 4 0.411948 0.46065 0.71911
1101 4 0.461682 0.457952 0.723586
1099 2 0.436815 0.459301 0.721348
1251 4 0.463393 0.455038 0.742942
3330 4 0.472047 0.442769 0.731005
3328 2 0.490469 0.446227 0.714456
1201 2 0.160722 0.0559403 0.766674
2047 2 0.157861 0.999796 0.775171
1202 4 0.158376 0.0354613 0.780826
1203 4 0.163067 0.0764193 0.752521
2049 4 0.169567 0.0217733 0.772905
2256 4 0.185814 0.0181956 0.763233
1005 4 0.356085 0.0464277 0.743337
2321 4 0.469055 0.0118006 0.782308
2322 4 0.467696 0.0580395 0.801303
2320 2 0.468376 0.03492 0.791806
846 4 0.466138 0.0717702 0.814671
980 4 0.453739 0.0199581 0.826207
864 4 0.0535568 0.0939651 0.766161
862 2 0.0450069 0.112463 0.780649
863 4 0.0364571 0.13096 0.795138
832 2 0.00845202 0.120719 0.820721
833 4 0.0281366 0.134043 0.812965
1125 4 0.0453259 0.141852 0.808329
1123 2 0.0384497 0.165818 0.806451
31 1 0.122281 0.150032 0.824963
35 3 0.13423 0.143011 0.806892
33 3 0.100928 0.156294 0.818388
1147 2 0.201408 0.0895874 0.753655
1149 4 0.226346 0.0887467 0.755258
1148 4 0.17647 0.0904281 0.752051
1257 4 0.243985 0.0867856 0.763579
921 4 0.191504 0.15746 0.832467
1255 2 0.262821 0.0971018 0.776384
1256 4 0.281656 0.107418 0.789189
840 4 0.280473 0.107156 0.809773
838 2 0.295304 0.120465 0.824875
844 2 0.479261 0.092941 0.812488
845 4 0.492384 0.114112 0.810306
1124 4 0.0315736 0.189784 0.804573
1072 2 0.0600179 0.234319 0.764599
1073 4 0.0352353 0.23104 0.765097
1106 4 0.121027 0.180401 0.763581
1130 4 0.138704 0.187862 0.755687
1129 2 0.146497 0.210557 0.762713
1131 4 0.154289 0.233253 0.76974
1277 4 0.166026 0.239394 0.783594
1074 4 0.0848005 0.237598 0.764102
920 4 0.196361 0.206913 0.826845
1276 2 0.176458 0.231866 0.805034
1278 4 0.18689 0.224338 0.826474
919 2 0.193933 0.182186 0.829656
977 4 0.304275 0.194673 0.748512