ITEM: TIMESTEP
3050000
ITEM: NUMBER OF ATOMS
4590
ITEM: BOX BOUNDS pp pp pp
-9.9985700000000008e+00 9.9985700000000008e+00
-9.9985700000000008e+00 9.9985700000000008e+00
-9.9985700000000008e+00 9.9985700000000008e+00
ITEM: ATOMS id type xs ys zs
465 4 0.0672914 0.0688759 0.0168889
701 4 0.0851189 0.0589414 0.0171692
700 2 0.109198 0.0649777 0.0201592
702 4 0.133277 0.071014 0.0231492
566 4 0.152205 0.0663371 0.0149849
746 4 0.485727 0.0530588 0.0395727
2469 4 0.484454 0.0347589 0.0463342
745 2 0.473191 0.0538085 0.0179515
463 2 0.0546928 0.0872712 0.0282056
464 4 0.0420942 0.105666 0.0395222
590 4 0.0364469 0.110762 0.0584477
589 2 0.0152936 0.105557 0.0707205
579 4 0.0970043 0.139104 0.0974773
558 4 0.374996 0.123639 0.0387337
556 2 0.367751 0.105576 0.0544315
866 4 0.365177 0.13311 0.0247106
865 2 0.361507 0.157833 0.0239981
827 4 0.370996 0.11458 0.021748
557 4 0.360505 0.0875136 0.0701293
771 4 0.413745 0.155426 0.0894614
554 4 0.035456 0.219582 0.0334898
553 2 0.0590809 0.217972 0.0254617
555 4 0.0827058 0.216361 0.0174335
835 2 0.115099 0.213049 0.0158569
836 4 0.0961598 0.21238 0.0321674
461 4 0.332877 0.244139 0.083
666 4 0.337744 0.234185 0.0663522
664 2 0.346955 0.217767 0.049897
665 4 0.356166 0.201348 0.0334417
867 4 0.357837 0.182555 0.0232856
2808 4 0.0431868 0.308639 0.0305173
2806 2 0.0214878 0.296534 0.0333112
2807 4 0.999789 0.284429 0.0361051
292 2 0.0974663 0.327012 0.0844211
356 4 0.309465 0.309911 0.0496375
572 4 0.306793 0.294603 0.0595401
355 2 0.309276 0.326666 0.031079
571 2 0.320966 0.274275 0.0628651
573 4 0.33514 0.253946 0.0661901
620 4 0.0119567 0.376247 0.0807196
647 4 0.0200422 0.357722 0.0773825
293 4 0.114204 0.340818 0.0719932
507 4 0.128348 0.351699 0.0617343
505 2 0.141738 0.370414 0.0519541
483 4 0.163724 0.408349 0.0454968
506 4 0.155127 0.389129 0.042174
481 2 0.184438 0.41849 0.0358381
626 4 0.187361 0.424909 0.0897751
482 4 0.205152 0.42863 0.0261794
357 4 0.309087 0.343421 0.0125205
902 4 0.293872 0.354087 0.00281669
671 4 0.488725 0.376371 0.0694414
281 4 0.502505 0.386753 0.060895
280 2 0.493299 0.409722 0.0573059
550 2 0.0608839 0.440957 0.0814227
551 4 0.044072 0.428412 0.09503
552 4 0.0776959 0.453502 0.0678154
1787 4 0.0846484 0.462461 0.0518895
1786 2 0.0763744 0.472663 0.0306145
1788 4 0.0681004 0.482866 0.00933957
242 4 0.0902862 0.467956 0.0702465
609 4 0.218882 0.415394 0.0283254
246 4 0.243395 0.482903 0.0272794
244 2 0.239924 0.475318 0.0508505
245 4 0.236453 0.467732 0.0744216
272 4 0.241353 0.486529 0.00789019
627 4 0.218107 0.459801 0.0713939
625 2 0.202734 0.442355 0.0805845
607 2 0.243882 0.415723 0.0286408
1778 4 0.255417 0.495771 0.0179291
608 4 0.268881 0.416053 0.0289561
252 4 0.285409 0.426605 0.03229
250 2 0.29821 0.447976 0.0301522
251 4 0.311011 0.469348 0.0280143
2289 4 0.31669 0.481898 0.0140955
957 4 0.401049 0.42557 0.00817622
525 4 0.434121 0.49304 0.0816119
226 2 0.462753 0.471484 0.0629429
227 4 0.47494 0.451195 0.0548782
228 4 0.450567 0.491773 0.0710075
282 4 0.484093 0.432691 0.0537167
1804 2 0.052204 0.995627 0.0959244
16 1 0.0729012 0.0398453 0.133002
20 3 0.0733833 0.0484624 0.111927
18 3 0.0620324 0.0193449 0.132926
19 3 0.0620273 0.0545234 0.14731
1806 4 0.0552022 0.00866313 0.117049
380 4 0.0764529 0.0586165 0.160656
17 3 0.0944556 0.0368072 0.14044
675 4 0.0941087 0.0523554 0.153771
652 2 0.324075 0.0256523 0.151699
654 4 0.310924 0.00969975 0.16576
653 4 0.337227 0.0416049 0.137637
484 2 0.365252 0.00413984 0.120863
297 4 0.353038 0.0472491 0.125818
485 4 0.360521 0.0286791 0.121649
295 2 0.358369 0.0606852 0.105416
296 4 0.3637 0.0741214 0.0850144
2625 4 0.00247471 0.103031 0.150541
2623 2 0.996892 0.102998 0.126168
2624 4 0.99131 0.102965 0.101796
591 4 0.99414 0.100351 0.0829933
237 4 0.140678 0.159646 0.138701
578 4 0.132381 0.164706 0.121845
577 2 0.114693 0.151905 0.109661
235 2 0.155262 0.144743 0.152499
236 4 0.169846 0.12984 0.166297
693 4 0.187613 0.123519 0.163383
449 4 0.174728 0.114114 0.17601
691 2 0.210917 0.117939 0.156244
692 4 0.23422 0.112358 0.149104
582 4 0.245092 0.10636 0.133957
580 2 0.26556 0.119322 0.140143
581 4 0.286027 0.132284 0.146329
30 3 0.304821 0.137644 0.152249
737 4 0.150578 0.168889 0.125092
476 4 0.136439 0.17842 0.134751
475 2 0.126683 0.1926 0.152887
736 2 0.167813 0.185926 0.118939
738 4 0.185049 0.202963 0.112787
354 4 0.32035 0.234833 0.141342
283 2 0.331587 0.198575 0.15483
285 4 0.331997 0.175053 0.163298
284 4 0.331176 0.222098 0.146362
462 4 0.329046 0.225587 0.12928
460 2 0.330961 0.234863 0.10614
255 4 0.337612 0.237085 0.139173
352 2 0.296539 0.240571 0.146372
253 2 0.356101 0.246244 0.153296
1070 4 0.430792 0.23536 0.0699572
769 2 0.429866 0.172037 0.0989139
770 4 0.445987 0.188649 0.108366
1014 4 0.460845 0.184644 0.121799
1013 4 0.464173 0.233835 0.130159
1012 2 0.462509 0.209239 0.125979
294 4 0.0807289 0.313207 0.0968491
610 2 0.225813 0.327111 0.127966
612 4 0.235388 0.304235 0.131156
756 4 0.252113 0.302597 0.122286
353 4 0.272728 0.246308 0.151402
754 2 0.256003 0.281741 0.135518
755 4 0.259894 0.260885 0.148749
278 4 0.26034 0.25167 0.165727
254 4 0.374589 0.255403 0.16742
1069 2 0.437889 0.25582 0.0824553
322 2 0.454437 0.310095 0.086797
1071 4 0.444986 0.27628 0.0949533
324 4 0.462065 0.288506 0.0968427
456 4 0.0650817 0.322524 0.105779
455 4 0.0625601 0.323367 0.155715
454 2 0.0638209 0.322945 0.130747
646 2 0.0381024 0.341209 0.0825125
648 4 0.0561626 0.324695 0.0876426
536 4 0.189812 0.406082 0.0912613
611 4 0.216238 0.349987 0.124777
535 2 0.198464 0.385462 0.102447
537 4 0.207117 0.364842 0.113633
387 4 0.337271 0.414178 0.126523
739 2 0.399983 0.380931 0.105639
740 4 0.394325 0.385706 0.129521
385 2 0.358943 0.403872 0.133543
386 4 0.380615 0.393565 0.140564
495 4 0.399173 0.39855 0.144034
15 3 0.38306 0.373873 0.140706
741 4 0.405642 0.376156 0.0817563
670 2 0.468158 0.363513 0.0755154
672 4 0.447592 0.350656 0.0815894
323 4 0.44681 0.331684 0.0767513
1466 4 0.00703211 0.487328 0.106199
1465 2 0.994043 0.466372 0.102039
241 2 0.10992 0.47455 0.0842547
243 4 0.129553 0.481144 0.0982629
1440 4 0.142584 0.494451 0.106339
1438 2 0.166296 0.489258 0.112334
1439 4 0.190008 0.484064 0.118329
639 4 0.204769 0.490182 0.106125
303 4 0.320817 0.477483 0.111628
768 4 0.304187 0.489234 0.106944
301 2 0.323419 0.453065 0.116339
302 4 0.326021 0.428648 0.121049
493 2 0.410083 0.42099 0.142428
660 4 0.411935 0.462128 0.143348
494 4 0.420994 0.443431 0.140822
524 4 0.41929 0.492347 0.129364
523 2 0.426705 0.492693 0.105488
658 2 0.42167 0.476062 0.161685
379 2 0.0669796 0.0805509 0.168026
673 2 0.118566 0.0549818 0.158256
450 4 0.157232 0.0674605 0.171757
1505 4 0.153626 0.0481931 0.175148
674 4 0.143024 0.0576081 0.162741
1504 2 0.159705 0.025078 0.18249
1506 4 0.165785 0.00196278 0.189832
22 3 0.417259 0.998836 0.204398
757 2 0.466139 0.0315518 0.212464
25 3 0.438164 0.0130967 0.23183
759 4 0.45531 0.0220018 0.232877
758 4 0.476967 0.0411019 0.19205
350 4 0.449049 0.0130974 0.24798
512 4 0.0721995 0.113243 0.182746
381 4 0.0575063 0.102485 0.175396
511 2 0.0723271 0.136255 0.192526
448 2 0.16598 0.0907872 0.173883
513 4 0.0724547 0.159266 0.202306
29 3 0.332376 0.155924 0.170255
26 1 0.318665 0.137205 0.170327
28 3 0.306159 0.136621 0.189863
27 3 0.331811 0.118354 0.169347
521 4 0.491714 0.13916 0.224413
339 4 0.0713636 0.179848 0.198767
337 2 0.0857404 0.197322 0.188129
477 4 0.116927 0.20678 0.171023
363 4 0.116636 0.224908 0.178464
338 4 0.100117 0.214795 0.177491
362 4 0.134115 0.242756 0.221784
361 2 0.125375 0.233832 0.200124
372 4 0.141869 0.259622 0.229169
628 2 0.39328 0.219879 0.184736
629 4 0.403779 0.197854 0.190198
630 4 0.38278 0.241904 0.179274
312 4 0.421827 0.200122 0.183436
311 4 0.464728 0.17454 0.181043
310 2 0.443278 0.187331 0.18224
761 4 0.494912 0.225569 0.255677
749 4 0.0465543 0.325699 0.167967
750 4 0.054735 0.293342 0.205207
395 4 0.0432321 0.293064 0.220707
748 2 0.0506447 0.309521 0.186587
394 2 0.0310366 0.289103 0.242172
300 4 0.120024 0.319567 0.179734
298 2 0.116647 0.331457 0.201468
277 2 0.263401 0.2575 0.189848
279 4 0.266461 0.26333 0.213969
401 4 0.26472 0.32062 0.231636
498 4 0.278345 0.334576 0.227951
308 4 0.336682 0.327949 0.195835
765 4 0.382186 0.261141 0.184707
763 2 0.402881 0.273045 0.192136
526 2 0.507786 0.296629 0.1798
528 4 0.494283 0.310657 0.195486
764 4 0.423576 0.284949 0.199565
624 4 0.477152 0.304038 0.204894
622 2 0.452529 0.301742 0.208584
623 4 0.427906 0.299446 0.212273
262 2 0.0564349 0.410451 0.208456
263 4 0.0808575 0.406553 0.20478
299 4 0.113271 0.343348 0.223203
734 4 0.118239 0.343263 0.242135
602 4 0.0954364 0.401508 0.218087
601 2 0.107236 0.380764 0.225544
603 4 0.119035 0.360019 0.233002
290 4 0.167594 0.390851 0.219735
289 2 0.166275 0.409777 0.203449
496 2 0.298612 0.335024 0.213315
497 4 0.318879 0.335472 0.198678
11 1 0.393189 0.372899 0.16108
12 3 0.406289 0.35402 0.162134
307 2 0.353885 0.341058 0.18329
309 4 0.371088 0.354168 0.170745
14 3 0.406651 0.391551 0.164129
13 3 0.377176 0.371862 0.177841
264 4 0.0320122 0.414349 0.212133
2617 2 0.00579873 0.427464 0.238185
2618 4 0.0289087 0.42485 0.229004
291 4 0.164957 0.428704 0.187163
416 4 0.174277 0.44655 0.188802
415 2 0.185864 0.467833 0.194962
1430 4 0.217714 0.485827 0.204643
417 4 0.197451 0.489116 0.201122
597 4 0.489568 0.463412 0.187142
596 4 0.448953 0.492585 0.187401
659 4 0.431405 0.489996 0.180022
595 2 0.46926 0.477998 0.187271
1799 4 0.0119531 0.0176225 0.302763
233 4 0.0133761 0.033876 0.291465
1402 2 0.0511971 0.0254503 0.312433
1403 4 0.0284574 0.0271765 0.302182
1404 4 0.0739369 0.0237241 0.322685
1798 2 0.00175626 0.00364486 0.320814
633 4 0.375455 0.0302275 0.286815
631 2 0.387932 0.038106 0.26663
257 4 0.373863 0.0276467 0.305853
698 4 0.366648 0.0144843 0.293391
256 2 0.367268 0.0489769 0.317109
258 4 0.360673 0.0703072 0.328365
632 4 0.400408 0.0459845 0.246444
349 2 0.451574 0.011434 0.2728
744 4 0.468186 0.0224283 0.300034
742 2 0.480418 0.0217872 0.321832
351 4 0.4541 0.0097705 0.297621
398 4 0.0818812 0.139966 0.319289
390 4 0.0831546 0.158941 0.322704
393 4 0.0790846 0.152945 0.304298
392 4 0.115595 0.154058 0.270144
391 2 0.0973398 0.153502 0.287221
545 4 0.131989 0.165435 0.267404
403 2 0.202296 0.157797 0.304433
404 4 0.209146 0.136971 0.316455
444 4 0.0201409 0.237807 0.306695
388 2 0.0802356 0.180665 0.334734
370 2 0.151765 0.249121 0.249589
544 2 0.155138 0.168536 0.276329
371 4 0.161662 0.238621 0.270009
546 4 0.178287 0.171636 0.285255
723 4 0.212378 0.22834 0.266866
721 2 0.19812 0.208945 0.273627
405 4 0.195445 0.178623 0.29241
722 4 0.183861 0.18955 0.280387
376 2 0.30818 0.225065 0.315053
378 4 0.299656 0.245541 0.303509
377 4 0.316705 0.204589 0.326596
420 4 0.392099 0.226908 0.275969
717 4 0.384985 0.233692 0.293074
418 2 0.415752 0.218802 0.275918
331 2 0.45077 0.205518 0.318605
332 4 0.441522 0.207515 0.295461
419 4 0.439405 0.210695 0.275867
760 2 0.475908 0.217043 0.269509
762 4 0.456903 0.208517 0.283341
442 2 0.0220174 0.259563 0.294516
364 2 0.0208396 0.315016 0.292026
396 4 0.0188412 0.285141 0.263638
443 4 0.0238938 0.281319 0.282337
365 4 0.0263885 0.298688 0.273921
407 4 0.0143952 0.331345 0.329359
735 4 0.154295 0.321676 0.26924
733 2 0.136267 0.33247 0.255688
676 2 0.186594 0.330714 0.292565
508 2 0.242331 0.318543 0.307187
509 4 0.222905 0.330309 0.317643
678 4 0.207744 0.327554 0.305521
435 4 0.21117 0.344455 0.315249
510 4 0.261758 0.306776 0.29673
400 2 0.261461 0.31189 0.254838
402 4 0.258202 0.303161 0.27804
345 4 0.263455 0.288354 0.290231
343 2 0.282973 0.276455 0.300361
344 4 0.302491 0.264556 0.310492
715 2 0.371103 0.253335 0.299903
716 4 0.35722 0.272977 0.306732
542 4 0.369087 0.287827 0.301974
541 2 0.38037 0.30781 0.311904
543 4 0.391652 0.327792 0.321833
751 2 0.482788 0.315443 0.325038
753 4 0.478175 0.323771 0.301917
366 4 0.0152908 0.331345 0.31013
548 4 0.0227934 0.346235 0.31964
547 2 0.0321544 0.36899 0.315194
549 4 0.0415154 0.391745 0.310748
777 4 0.0327766 0.40715 0.322269
2493 4 0.00393992 0.344637 0.318641
677 4 0.165443 0.333874 0.27961
728 4 0.358248 0.392416 0.291812
727 2 0.368272 0.410899 0.305342
2538 4 0.491123 0.337511 0.293341
2536 2 0.5059 0.356215 0.285792
1543 2 0.143934 0.482651 0.315017
1545 4 0.163421 0.47676 0.3005
1436 4 0.178786 0.491165 0.300098
1544 4 0.124448 0.488543 0.329534
729 4 0.378296 0.429383 0.318872
437 4 0.365434 0.432761 0.333723
730 2 0.0771765 0.0707613 0.360708
1772 4 0.995512 0.0336081 0.390942
2238 4 0.00891844 0.0480861 0.389596
2236 2 0.0150232 0.0512711 0.413633
1771 2 0.992596 0.0156706 0.373769
368 4 0.0923872 0.0143499 0.41754
732 4 0.091485 0.0505941 0.364413
369 4 0.0884207 0.0320061 0.370922
367 2 0.090404 0.023178 0.394231
604 2 0.161662 0.013896 0.387345
1701 4 0.194551 0.0425259 0.399455
1699 2 0.195917 0.0670388 0.394719
605 4 0.177329 0.0316829 0.395304
424 2 0.377722 0.067643 0.366958
425 4 0.392397 0.061857 0.386357
1580 4 0.397277 0.0426712 0.388076
426 4 0.363047 0.073429 0.347558
1579 2 0.392591 0.0189235 0.394343
743 4 0.49265 0.021146 0.343629
478 2 0.486381 0.0380984 0.377356
480 4 0.473504 0.0520822 0.393599
457 2 0.997909 0.164442 0.359986
458 4 0.00176179 0.140152 0.355479
397 2 0.0697991 0.12429 0.334568
399 4 0.0577169 0.108614 0.349848
317 4 0.0474751 0.100145 0.363974
731 4 0.062868 0.0909285 0.357003
316 2 0.027741 0.115129 0.367325
249 4 0.198546 0.125286 0.32995
247 2 0.196773 0.111189 0.350525
248 4 0.194999 0.097093 0.371099
1700 4 0.197284 0.0915516 0.389982
319 2 0.326593 0.135061 0.397189
321 4 0.342087 0.138374 0.377846
708 4 0.328711 0.149454 0.367073
516 4 0.464875 0.151985 0.374222
575 4 0.464223 0.14224 0.39093
574 2 0.461592 0.123859 0.407675
459 4 0.994057 0.188733 0.364494
2654 4 0.0039901 0.202378 0.375797
389 4 0.0773166 0.202389 0.346765
707 4 0.313772 0.188113 0.33909
706 2 0.321242 0.168784 0.353082
600 4 0.248352 0.176099 0.410214
466 2 0.352723 0.25386 0.383047
467 4 0.345729 0.240848 0.362874
451 2 0.503638 0.207471 0.339857
333 4 0.460018 0.203522 0.34175
453 4 0.479448 0.204313 0.345337
515 4 0.46702 0.199734 0.359521
514 2 0.465947 0.17586 0.366871
406 2 0.0258312 0.315665 0.345124
408 4 0.0372672 0.299985 0.360889
347 4 0.0633946 0.328856 0.368011
275 4 0.140795 0.335531 0.357731
274 2 0.152315 0.314555 0.364974
276 4 0.163835 0.293579 0.372218
373 2 0.193498 0.280834 0.400768
375 4 0.180193 0.284945 0.380002
374 4 0.206804 0.276723 0.421535
489 4 0.295544 0.249532 0.405033
615 4 0.401071 0.319662 0.338146
267 4 0.342279 0.275514 0.408805
468 4 0.359717 0.266872 0.40322
613 2 0.416707 0.310146 0.355179
752 4 0.4874 0.307115 0.348158
614 4 0.432344 0.300629 0.372212
346 2 0.0550055 0.33601 0.390453
618 4 0.0740312 0.342242 0.357106
617 4 0.123128 0.336789 0.349327
616 2 0.0985793 0.339516 0.353217
433 2 0.208751 0.34465 0.340135
434 4 0.206333 0.344846 0.36502
240 4 0.397061 0.402394 0.403176
335 4 0.38014 0.413257 0.400959
334 2 0.356573 0.413984 0.409281
775 2 0.0429266 0.426676 0.334137
776 4 0.0530765 0.446203 0.346006
414 4 0.0688092 0.456601 0.347684
413 4 0.114842 0.474642 0.340185
412 2 0.0918256 0.465621 0.343934
500 4 0.109411 0.493747 0.340438
504 4 0.278578 0.41808 0.383896
502 2 0.29673 0.419915 0.400994
503 4 0.314881 0.42175 0.418092
436 2 0.375692 0.450999 0.347409
438 4 0.38595 0.469237 0.361096
336 4 0.333006 0.41471 0.417603
593 4 0.392195 0.487814 0.362363
3990 4 0.471691 0.482539 0.358676
1127 4 0.0177475 0.0538823 0.456973
2237 4 0.0211279 0.0544561 0.43767
720 4 0.0258763 0.069459 0.44932
1782 4 0.108983 0.0160676 0.42886
2428 2 0.22684 0.0194832 0.49644
2430 4 0.202457 0.0155679 0.500352
2429 4 0.251223 0.0233985 0.492529
962 4 0.262436 0.00505422 0.4911
961 2 0.282681 0.0190949 0.495362
724 2 0.312593 0.0652817 0.494861
725 4 0.306128 0.0483792 0.512114
2879 4 0.40347 0.00303037 0.460071
642 4 0.443176 0.0553669 0.457675
2878 2 0.415797 0.0245942 0.462937
2880 4 0.428125 0.046158 0.465803
640 2 0.453617 0.0765533 0.449471
469 2 0.00359208 0.141451 0.470704
470 4 0.0269796 0.133859 0.46617
718 2 0.0241286 0.0943469 0.450969
719 4 0.0223809 0.119235 0.452618
937 2 0.0866894 0.153962 0.497919
939 4 0.0975501 0.14771 0.476283
1033 2 0.135686 0.144229 0.466206
1035 4 0.160359 0.14278 0.469986
1034 4 0.111012 0.145677 0.462425
261 4 0.178141 0.139309 0.477823
259 2 0.186448 0.162882 0.478535
320 4 0.311098 0.131748 0.416531
726 4 0.319058 0.0821841 0.477607
684 4 0.294014 0.13344 0.425543
682 2 0.272669 0.145415 0.420428
683 4 0.251324 0.157391 0.415313
1181 4 0.308332 0.123486 0.434315
1182 4 0.33057 0.0900454 0.464112
1180 2 0.319451 0.106766 0.449213
576 4 0.458962 0.105478 0.42442
641 4 0.464058 0.0977397 0.441267
306 4 0.457268 0.116369 0.440801
304 2 0.451054 0.130502 0.460469
3158 4 0.431794 0.15132 0.495801
305 4 0.44484 0.144635 0.480137
694 2 0.176356 0.219438 0.500364
695 4 0.191412 0.200999 0.492715
260 4 0.194755 0.186454 0.479247
687 4 0.236752 0.221747 0.44998
686 4 0.196497 0.204756 0.474301
685 2 0.216624 0.213251 0.46214
474 4 0.241478 0.235655 0.439367
599 4 0.246435 0.219262 0.435393
411 4 0.253431 0.227367 0.449149
598 2 0.247393 0.197681 0.422804
409 2 0.26697 0.229462 0.470064
488 4 0.257804 0.232286 0.432944
487 2 0.276674 0.240909 0.418989
410 4 0.28051 0.231557 0.49098
2812 2 0.0172591 0.331776 0.436616
472 2 0.229725 0.257682 0.438003
473 4 0.217973 0.279709 0.436639
266 4 0.325847 0.314844 0.434956
265 2 0.334063 0.295179 0.42188
348 4 0.0466164 0.343163 0.412895
2813 4 0.0407095 0.338771 0.431485
326 4 0.0511784 0.354735 0.428041
325 2 0.0637169 0.37064 0.442704
327 4 0.0762554 0.386544 0.457367
7 3 0.0886461 0.390555 0.472423
6 1 0.10269 0.377946 0.485573
709 2 0.146791 0.412512 0.499645
10 3 0.118451 0.368093 0.472415
774 4 0.188565 0.421992 0.490256
710 4 0.169246 0.41795 0.490085
813 4 0.273852 0.340932 0.470769
811 2 0.263833 0.343662 0.493514
238 2 0.408988 0.408118 0.424393
679 2 0.0589674 0.468024 0.498991
680 4 0.049822 0.4812 0.47981
1383 4 0.0539506 0.49455 0.466488
635 4 0.177215 0.424625 0.474471
636 4 0.188582 0.451089 0.433591
634 2 0.182899 0.437857 0.454031
668 4 0.322517 0.479944 0.438071
667 2 0.326438 0.456425 0.430543
4 3 0.328959 0.496274 0.446199
669 4 0.330358 0.432906 0.423015
587 4 0.418397 0.441566 0.4982
239 4 0.420915 0.413842 0.44561
586 2 0.416114 0.43673 0.473775
588 4 0.413831 0.431895 0.44935
1184 4 0.0249556 0.0127987 0.560523
3077 4 0.00935989 0.00219814 0.552376
3076 2 0.00397188 0.0183656 0.534079
1152 4 0.137003 0.0664242 0.516132
1150 2 0.133794 0.0738425 0.539793
1151 4 0.130584 0.0812607 0.563454
342 4 0.152258 0.0543658 0.518558
1059 4 0.139379 0.0837299 0.58049
340 2 0.173384 0.0437964 0.510364
341 4 0.194511 0.0332269 0.50217
430 2 0.322142 0.0220338 0.53334
432 4 0.303512 0.0303414 0.51888
963 4 0.302926 0.0331356 0.499623
841 2 0.377886 0.0369662 0.553757
842 4 0.399785 0.049031 0.553908
843 4 0.355986 0.0249015 0.553606
431 4 0.340772 0.0137261 0.5478
1217 4 0.417689 0.0373931 0.55255
1216 2 0.431173 0.0178015 0.544834
879 4 0.0564277 0.165654 0.51755
877 2 0.0323103 0.160348 0.52147
878 4 0.00819283 0.155041 0.52539
938 4 0.0758288 0.160214 0.519556
1155 4 0.140379 0.0974936 0.565711
1154 4 0.155911 0.136554 0.592798
1153 2 0.148145 0.117024 0.579254
1221 4 0.174068 0.143214 0.5845
3159 4 0.454396 0.130684 0.535348
3157 2 0.443095 0.141002 0.515575
1062 4 0.470721 0.122361 0.528291
1060 2 0.480144 0.0996102 0.523955
1272 4 0.0679812 0.174547 0.530042
1270 2 0.0739266 0.17953 0.553812
1271 4 0.079872 0.184514 0.577581
1258 2 0.143983 0.233347 0.542799
1259 4 0.1268 0.224624 0.558731
1260 4 0.161167 0.24207 0.526868
696 4 0.1613 0.237876 0.508013
898 2 0.290597 0.234451 0.530183
899 4 0.3 0.225815 0.551681
857 4 0.300788 0.222953 0.570346
791 4 0.317349 0.227093 0.561483
900 4 0.281193 0.243087 0.508685
856 2 0.294119 0.202134 0.582482
790 2 0.338455 0.240112 0.558284
792 4 0.359561 0.253131 0.555086
872 4 0.375883 0.262586 0.549702
1238 4 0.3696 0.26508 0.567089
871 2 0.38449 0.270816 0.527717
873 4 0.393098 0.279046 0.505731
1237 2 0.366096 0.285308 0.581362
1135 2 0.111271 0.366461 0.574003
1136 4 0.101983 0.344667 0.566007
1137 4 0.120558 0.388255 0.581999
897 4 0.134067 0.395371 0.570372
895 2 0.156715 0.403142 0.577573
8 3 0.1129 0.391834 0.501107
711 4 0.124336 0.407074 0.509204
9 3 0.0901963 0.36171 0.496468
773 4 0.224948 0.415584 0.523959
1189 2 0.210289 0.410972 0.565419
1190 4 0.221819 0.413993 0.543439
803 4 0.224603 0.397749 0.532958
802 2 0.236827 0.375945 0.533572
804 4 0.24905 0.354142 0.534187
930 4 0.239528 0.409173 0.535826
772 2 0.206756 0.418788 0.507108
651 4 0.28979 0.317784 0.567327
649 2 0.275336 0.328397 0.549902
650 4 0.260882 0.339011 0.532478
812 4 0.253813 0.346392 0.516259
925 2 0.414931 0.400519 0.514996
927 4 0.41256 0.37743 0.524293
539 4 0.0836608 0.488479 0.521719
383 4 0.0747922 0.436409 0.512807
681 4 0.0681128 0.454848 0.518173
384 4 0.120199 0.418843 0.524223
382 2 0.0974958 0.427626 0.518515
569 4 0.127636 0.431401 0.536086
568 2 0.145365 0.446921 0.544453
570 4 0.163094 0.462441 0.552819
538 2 0.106956 0.497502 0.520659
928 2 0.255482 0.428402 0.5349
929 4 0.271437 0.447632 0.533974
1951 2 0.294286 0.46911 0.532508
1953 4 0.290789 0.444409 0.534189
1952 4 0.297783 0.493811 0.530827
663 4 0.405557 0.436985 0.512532
661 2 0.408876 0.45383 0.530709
1330 2 0.447809 0.495899 0.540678
926 4 0.417301 0.423609 0.505698
1001 4 0.414273 0.488411 0.556949
662 4 0.412195 0.470675 0.548886
1911 4 0.426373 0.473893 0.562079
1332 4 0.427525 0.481675 0.544057
2374 2 0.14759 0.00581979 0.616339
2375 4 0.152792 0.0298092 0.621096
1057 2 0.141455 0.0652862 0.597244
1058 4 0.143531 0.0468425 0.613998
950 4 0.23791 0.0181158 0.597203
2400 4 0.317452 0.0254595 0.642942
949 2 0.249716 0.0286272 0.616576
951 4 0.261522 0.0391386 0.635949
1031 4 0.276037 0.0522799 0.632314
1030 2 0.292802 0.0608076 0.648789
43 3 0.46077 0.0500336 0.646821
810 4 0.494961 0.0796028 0.657578
1209 4 0.110348 0.169358 0.641641
1207 2 0.106431 0.16431 0.665814
1219 2 0.193836 0.156419 0.592251
1220 4 0.213603 0.169623 0.600002
888 4 0.262715 0.168679 0.65874
808 2 0.496398 0.0940257 0.637204
809 4 0.497834 0.108449 0.61683
3250 2 0.499688 0.143632 0.605729
3251 4 0.496923 0.168037 0.610413
3252 4 0.502454 0.119228 0.601044
1244 4 0.0890344 0.199151 0.5898
1245 4 0.0927895 0.171122 0.631043
1243 2 0.090912 0.185136 0.610422
1210 2 0.231782 0.1759 0.63947
1212 4 0.219549 0.176753 0.61768
797 4 0.185475 0.230266 0.611585
796 2 0.198874 0.209482 0.607888
798 4 0.212272 0.188698 0.604191
1211 4 0.244016 0.175047 0.66126
858 4 0.28745 0.181315 0.594619
3121 2 0.483104 0.20878 0.619287
3122 4 0.491939 0.185736 0.615278
3123 4 0.47427 0.231825 0.623295
983 4 0.000210329 0.338028 0.637961
3263 4 0.0653414 0.33565 0.662309
806 4 0.298219 0.327715 0.582964
805 2 0.322086 0.32217 0.587943
807 4 0.345953 0.316625 0.592922
1239 4 0.362592 0.305536 0.595636
906 4 0.45428 0.287606 0.593141
905 4 0.470792 0.25081 0.622706
904 2 0.462536 0.269208 0.607924
953 4 0.469376 0.297803 0.603915
952 2 0.482293 0.318488 0.598396
982 2 0.0232754 0.336553 0.647501
984 4 0.0463404 0.335077 0.65704
1041 4 0.0577432 0.350921 0.654349
1039 2 0.0643348 0.373216 0.645146
993 4 0.077469 0.40095 0.618268
991 2 0.0614807 0.418844 0.611244
1040 4 0.0709264 0.39551 0.635944
896 4 0.179364 0.410913 0.584773
1028 4 0.188828 0.38435 0.64616
1027 2 0.187435 0.396427 0.624311
1029 4 0.186043 0.408505 0.602462
1191 4 0.19876 0.407952 0.5874
954 4 0.495209 0.339174 0.592877
1206 4 0.490074 0.414241 0.619786
3309 4 0.500501 0.39762 0.622299
992 4 0.0454924 0.436738 0.604219
1159 2 0.167838 0.505278 0.601644
1172 4 0.191343 0.424555 0.592453
1160 4 0.179857 0.484406 0.608356
1171 2 0.189614 0.4465 0.60431
1173 4 0.187885 0.468445 0.616167
1187 4 0.18647 0.483681 0.627629
1186 2 0.178377 0.477931 0.650577
1909 2 0.430392 0.460641 0.582898
1268 4 0.451704 0.496252 0.642818
1267 2 0.443072 0.475324 0.632203
1204 2 0.469006 0.427559 0.617799
1910 4 0.434412 0.447389 0.603717
1269 4 0.43444 0.454396 0.621588
1205 4 0.447938 0.440876 0.615811
1284 4 0.108681 0.0450638 0.719629
1282 2 0.121882 0.0643527 0.710748
2047 2 0.157332 0.0120667 0.74494
2049 4 0.182268 0.0138775 0.745188
1225 2 0.172673 0.0832839 0.693226
1201 2 0.197193 0.0425623 0.724073
1202 4 0.198511 0.0210946 0.736824
1203 4 0.195874 0.0640299 0.711323
1226 4 0.196059 0.0746813 0.695284
1148 4 0.209825 0.0776668 0.708596
2256 4 0.199389 0.00982023 0.752914
1032 4 0.309566 0.0693352 0.665263
45 3 0.48532 0.0303945 0.66754
41 1 0.472012 0.0488698 0.667086
1163 4 0.499524 0.0797544 0.675298
44 3 0.484854 0.0679543 0.670128
42 3 0.456575 0.0475071 0.684086
1077 4 0.0310014 0.137539 0.725442
1075 2 0.0104652 0.123588 0.722473
864 4 0.0412819 0.140105 0.743077
850 2 0.0735836 0.162467 0.71254
1283 4 0.135082 0.0836415 0.701867
909 4 0.108874 0.143312 0.699171
907 2 0.12334 0.122999 0.700986
908 4 0.137806 0.102686 0.702801
1227 4 0.149286 0.0918866 0.691168
851 4 0.0977269 0.157282 0.708617
1208 4 0.102514 0.159261 0.689988
1107 4 0.116196 0.160518 0.704421
1147 2 0.22507 0.0914721 0.722815
1149 4 0.240314 0.105277 0.737034
829 2 0.323859 0.155062 0.697157
830 4 0.301145 0.157291 0.70737
886 2 0.272542 0.165258 0.681476
887 4 0.282369 0.161837 0.704211
831 4 0.346572 0.152832 0.686944
1142 4 0.358978 0.147765 0.70099
1141 2 0.381411 0.157391 0.706399
1143 4 0.403845 0.167017 0.711808
3426 4 0.482276 0.0871037 0.669297
1025 4 0.453107 0.122475 0.709905
3424 2 0.477183 0.104148 0.686867
3425 4 0.47209 0.121193 0.704438
3269 4 0.467283 0.118085 0.722657
1024 2 0.437748 0.142202 0.709579
3268 2 0.479815 0.131615 0.739541
1026 4 0.422388 0.161929 0.709254
845 4 0.460918 0.100056 0.729141
852 4 0.0494402 0.167652 0.716462
1214 4 0.0338507 0.17734 0.708658
1213 2 0.0124612 0.186143 0.718154
1105 2 0.12854 0.175701 0.719987
1106 4 0.140883 0.190884 0.735552
1130 4 0.1599 0.195995 0.73573
978 4 0.289778 0.165373 0.721689
976 2 0.29562 0.184344 0.736892
916 2 0.315989 0.242411 0.742514
977 4 0.301463 0.203315 0.752096
1192 2 0.414456 0.196876 0.685446
1194 4 0.413361 0.175071 0.697632
1262 4 0.418409 0.179807 0.715717
1193 4 0.415551 0.218682 0.67326
1261 2 0.425497 0.186681 0.738689
3262 2 0.0722442 0.323238 0.682888
3264 4 0.0791469 0.310826 0.703466
893 4 0.0786986 0.305309 0.722412
892 2 0.0741743 0.321548 0.740878
779 4 0.0915144 0.297319 0.710724
778 2 0.115697 0.294493 0.716418
780 4 0.139879 0.291667 0.722111
1065 4 0.2462 0.290411 0.693466
1064 4 0.290343 0.313592 0.697304
1063 2 0.268272 0.302001 0.695385
947 4 0.322468 0.279968 0.743001
946 2 0.312383 0.297008 0.727734
948 4 0.302298 0.314048 0.712466
917 4 0.327542 0.262292 0.732693
1008 4 0.444834 0.302114 0.715436
1006 2 0.455359 0.283401 0.728252
1007 4 0.465884 0.264688 0.741067
941 4 0.144942 0.402511 0.720739
1067 4 0.156986 0.405746 0.705477
940 2 0.134315 0.396675 0.742607
1066 2 0.168259 0.397529 0.684727
1068 4 0.179531 0.389312 0.663976
1019 4 0.394457 0.412073 0.749288
1230 4 0.381585 0.417805 0.736435
884 4 0.0672445 0.47334 0.753737
1176 4 0.122299 0.486896 0.706932
1174 2 0.139666 0.487041 0.688945
1175 4 0.157033 0.487186 0.670957
1188 4 0.170283 0.472181 0.673525
1139 4 0.312675 0.485971 0.697413
1138 2 0.317823 0.463902 0.707979
1140 4 0.32297 0.441833 0.718545
1989 4 0.319634 0.4396 0.73763
1229 4 0.333784 0.42921 0.727176
1100 4 0.400202 0.422599 0.733988
1228 2 0.357684 0.423508 0.731805
1099 2 0.414878 0.442497 0.73026
1101 4 0.429553 0.462394 0.726532
3330 4 0.448865 0.460237 0.728304
3328 2 0.465776 0.45254 0.711572
1251 4 0.438352 0.464818 0.744159
3329 4 0.482687 0.444844 0.69484
1249 2 0.44417 0.486364 0.755434
834 4 0.0337019 0.0710032 0.813971
785 4 0.0275632 0.0850877 0.826334
832 2 0.0492861 0.0871553 0.802952
2048 4 0.132395 0.0102558 0.744692
2390 4 0.126247 0.00127623 0.761416
1113 4 0.365603 0.0681599 0.786219
1111 2 0.377848 0.0827059 0.802456
2321 4 0.446463 0.0140403 0.805883
2322 4 0.447576 0.0575428 0.781246
2320 2 0.44702 0.0357915 0.793565
846 4 0.443812 0.0728887 0.767482
980 4 0.439307 0.00715826 0.82274
979 2 0.420161 0.0131857 0.837649
862 2 0.0544746 0.128012 0.760538
863 4 0.0676673 0.115919 0.777999
833 4 0.0648702 0.103308 0.791933
1125 4 0.067694 0.12207 0.796568
1123 2 0.0689342 0.137534 0.816178
1124 4 0.0701745 0.152997 0.835787
911 4 0.159563 0.118735 0.824457
910 2 0.143509 0.130638 0.839483
1257 4 0.228577 0.103603 0.754046
1255 2 0.222715 0.114705 0.775669
921 4 0.205706 0.137332 0.809067
919 2 0.193042 0.156697 0.818542
840 4 0.225031 0.137716 0.809992
1256 4 0.216852 0.125807 0.797292
838 2 0.246158 0.141038 0.822945
1112 4 0.390093 0.0972518 0.818693
844 2 0.452365 0.0864722 0.748311
3270 4 0.492346 0.145145 0.756425
1146 4 0.484837 0.158437 0.768966
1073 4 0.0630433 0.17103 0.834726
34 3 0.109945 0.17443 0.817271
1277 4 0.157685 0.223461 0.798917
1276 2 0.164598 0.20769 0.817045
1129 2 0.160098 0.204166 0.759359
1131 4 0.160297 0.212338 0.782989
822 4 0.167616 0.229958 0.783107
35 3 0.0810799 0.168809 0.840784
920 4 0.180378 0.176063 0.828016
918 4 0.304435 0.22253 0.752334
1298 4 0.318896 0.210076 0.758126
1297 2 0.335128 0.200016 0.774265
1299 4 0.351361 0.189956 0.790404
1086 4 0.356167 0.188489 0.810933
50 3 0.399241 0.197865 0.792251
1044 4 0.458786 0.249423 0.750357
46 1 0.421763 0.194638 0.793252
49 3 0.432765 0.214985 0.791421
1043 4 0.440831 0.208246 0.772329
48 3 0.427406 0.184355 0.813273
47 3 0.428256 0.18108 0.77584
1263 4 0.432585 0.193555 0.76166
1145 4 0.446083 0.189303 0.775752
1144 2 0.46546 0.17387 0.772359
1042 2 0.449809 0.228834 0.761343
1022 4 0.443719 0.194291 0.819963
3187 2 0.0123048 0.276466 0.766278
3189 4 0.0304734 0.293487 0.768595
820 2 0.173644 0.254085 0.780509
821 4 0.179672 0.278211 0.777912
1236 4 0.229117 0.310167 0.773023
1234 2 0.232307 0.313584 0.797585
1098 4 0.241468 0.333765 0.83336
1235 4 0.235498 0.317002 0.822148
1166 4 0.476628 0.255763 0.754547
1165 2 0.493731 0.263484 0.771071
3275 4 0.0214998 0.35704 0.783135
894 4 0.0696499 0.337787 0.759345
3276 4 0.0685533 0.340738 0.778562
3274 2 0.0450266 0.348889 0.780848