ITEM: TIMESTEP
1860000
ITEM: NUMBER OF ATOMS
4590
ITEM: BOX BOUNDS pp pp pp
-9.9985700000000008e+00 9.9985700000000008e+00
-9.9985700000000008e+00 9.9985700000000008e+00
-9.9985700000000008e+00 9.9985700000000008e+00
ITEM: ATOMS id type xs ys zs
701 4 0.0829451 0.0796061 0.0204647
465 4 0.0672568 0.0677067 0.0205684
463 2 0.0505389 0.0862747 0.0196095
2575 2 0.0158143 0.00103334 0.0843236
700 2 0.101346 0.0678113 0.032609
702 4 0.119746 0.0560164 0.0447533
566 4 0.137374 0.0632468 0.0372186
565 2 0.159741 0.0731966 0.0321304
567 4 0.182108 0.0831464 0.0270421
491 4 0.281424 4.68615e-05 0.0342683
2264 4 0.277752 0.0151206 0.0460123
2263 2 0.271067 0.032493 0.0293184
2265 4 0.264382 0.0498654 0.0126246
746 4 0.466701 0.0582724 0.026115
2469 4 0.470574 0.045229 0.0406432
2467 2 0.47579 0.022011 0.0483176
464 4 0.033821 0.104843 0.0186505
590 4 0.0145373 0.109243 0.0275189
589 2 0.00451449 0.108407 0.0504104
558 4 0.32427 0.110747 0.0442341
556 2 0.321521 0.105732 0.0685749
865 2 0.365735 0.163008 0.0196132
867 4 0.361577 0.166608 0.0440046
771 4 0.464748 0.130138 0.0635613
769 2 0.474685 0.147611 0.0784323
554 4 0.0404322 0.223159 0.0495999
553 2 0.0581959 0.229955 0.0333692
555 4 0.0759597 0.236752 0.0171385
837 4 0.138017 0.228951 0.00743819
835 2 0.115084 0.238504 0.0102679
836 4 0.0921518 0.248057 0.0130975
738 4 0.157659 0.177937 0.0765317
573 4 0.327103 0.24541 0.0531997
666 4 0.329262 0.225806 0.0547347
461 4 0.33639 0.237845 0.0685879
664 2 0.342294 0.20578 0.0473657
665 4 0.355325 0.185754 0.0399967
1070 4 0.39419 0.222522 0.0228007
1069 2 0.39976 0.241093 0.038589
294 4 0.0876844 0.301129 0.0424871
292 2 0.105688 0.31841 0.0409371
507 4 0.136494 0.333568 0.0540354
293 4 0.123691 0.335691 0.0393871
356 4 0.308439 0.305987 0.0442524
572 4 0.315525 0.289806 0.0333091
355 2 0.308157 0.322589 0.025558
571 2 0.321314 0.267608 0.0432544
1071 4 0.40533 0.259664 0.0543774
324 4 0.402886 0.278895 0.0511055
322 2 0.417134 0.299211 0.05418
672 4 0.430719 0.336615 0.0689003
323 4 0.431381 0.319527 0.0572545
620 4 0.00339546 0.375005 0.0610711
647 4 0.0155984 0.366877 0.074075
505 2 0.160413 0.338226 0.059636
483 4 0.192908 0.345942 0.0473136
506 4 0.184332 0.342885 0.0652365
481 2 0.20459 0.367945 0.0451745
609 4 0.225872 0.404131 0.032177
482 4 0.216272 0.389948 0.0430354
607 2 0.250239 0.408978 0.0349908
357 4 0.307875 0.339191 0.00686356
957 4 0.393932 0.392317 0.00386455
670 2 0.445591 0.356474 0.072
280 2 0.477075 0.415529 0.0758775
281 4 0.472434 0.391168 0.0790692
671 4 0.460462 0.376334 0.0750997
551 4 0.102544 0.434947 0.0787519
552 4 0.0999134 0.48426 0.0708737
1787 4 0.104633 0.500833 0.0607464
550 2 0.101229 0.459603 0.0748128
1788 4 0.125262 0.498971 0.0152301
1786 2 0.114948 0.499902 0.0379883
625 2 0.226598 0.430813 0.0921896
626 4 0.206651 0.415865 0.0941459
608 4 0.274607 0.413825 0.0378046
246 4 0.244212 0.49376 0.0407126
252 4 0.270982 0.434487 0.0345803
244 2 0.246422 0.474711 0.0567572
245 4 0.248633 0.455662 0.0728019
250 2 0.289359 0.446023 0.0221553
251 4 0.307736 0.457559 0.00973017
272 4 0.245419 0.488454 0.0217665
282 4 0.481716 0.43989 0.0726859
226 2 0.480704 0.474265 0.0493556
228 4 0.488176 0.494826 0.037248
227 4 0.473231 0.453704 0.0614631
2576 4 0.0364715 0.991211 0.0944218
16 1 0.0678946 0.0544999 0.138866
20 3 0.0645642 0.0666235 0.119877
1806 4 0.0535791 0.0183091 0.146262
18 3 0.0526108 0.0370726 0.139915
1804 2 0.052548 0.0029824 0.126534
19 3 0.0656204 0.0681619 0.157483
17 3 0.0891615 0.0457355 0.138627
450 4 0.155703 0.0525095 0.158279
673 2 0.118027 0.0444692 0.162631
675 4 0.0936535 0.0487226 0.159022
448 2 0.169986 0.0693397 0.146535
1661 4 0.311361 0.00628223 0.160905
652 2 0.318809 0.0435151 0.147722
654 4 0.314482 0.018928 0.146331
653 4 0.323135 0.0681021 0.149113
486 4 0.39634 0.00278936 0.119573
484 2 0.376216 0.015715 0.112284
295 2 0.342564 0.0664203 0.101197
297 4 0.359323 0.0478726 0.101745
485 4 0.356092 0.0286406 0.104995
2625 4 0.992504 0.13528 0.132353
579 4 0.089304 0.0997053 0.11276
237 4 0.145534 0.137748 0.122002
578 4 0.126605 0.132421 0.119006
577 2 0.107955 0.116063 0.115883
476 4 0.131148 0.150218 0.12658
737 4 0.134796 0.146615 0.108106
736 2 0.146228 0.162276 0.0923186
235 2 0.163703 0.121068 0.126107
236 4 0.181872 0.104388 0.130212
693 4 0.200404 0.0977693 0.133718
449 4 0.184268 0.0861699 0.13479
691 2 0.222991 0.0944292 0.143908
692 4 0.245578 0.0910891 0.154098
582 4 0.264575 0.0959668 0.150194
557 4 0.318772 0.100718 0.0929157
580 2 0.281351 0.104086 0.166862
296 4 0.325805 0.084968 0.100649
770 4 0.484621 0.165084 0.0933033
311 4 0.438811 0.142286 0.133312
310 2 0.437101 0.164889 0.143863
339 4 0.0478891 0.199776 0.159235
337 2 0.0728455 0.200032 0.160749
475 2 0.119541 0.168071 0.139684
477 4 0.107933 0.185924 0.152788
338 4 0.0978019 0.200289 0.162262
283 2 0.320769 0.206745 0.138292
354 4 0.326934 0.24497 0.129165
285 4 0.309411 0.185459 0.144856
284 4 0.332127 0.228031 0.131727
460 2 0.337352 0.237808 0.0935729
462 4 0.338314 0.237771 0.118558
255 4 0.342943 0.241627 0.135202
254 4 0.381803 0.238702 0.166539
253 2 0.362373 0.240165 0.15087
629 4 0.423662 0.184454 0.171874
1012 2 0.49101 0.2 0.112629
1013 4 0.484714 0.219462 0.127009
1014 4 0.497306 0.180538 0.0982495
312 4 0.435392 0.187493 0.154414
456 4 0.0720436 0.338721 0.0968178
454 2 0.0970426 0.338834 0.0972864
352 2 0.31142 0.26235 0.138245
353 4 0.295905 0.279729 0.147325
754 2 0.2741 0.311202 0.142336
755 4 0.284704 0.29279 0.155516
278 4 0.281515 0.273355 0.15887
756 4 0.263497 0.329615 0.129155
763 2 0.416463 0.262156 0.175402
764 4 0.43388 0.279934 0.177805
646 2 0.0346691 0.352825 0.0820768
648 4 0.0537398 0.338773 0.0900785
455 4 0.122042 0.338946 0.097755
612 4 0.264376 0.345836 0.118142
537 4 0.197447 0.356557 0.120183
535 2 0.197953 0.377358 0.106318
611 4 0.214518 0.345051 0.121912
610 2 0.239447 0.345444 0.120027
536 4 0.198459 0.398159 0.0924528
741 4 0.386273 0.359548 0.0949255
739 2 0.388746 0.369754 0.117617
740 4 0.39122 0.379961 0.140308
15 3 0.382793 0.370245 0.155632
385 2 0.357647 0.398818 0.15133
386 4 0.380458 0.388717 0.152999
495 4 0.399986 0.392733 0.151333
11 1 0.400075 0.369842 0.170458
12 3 0.410574 0.349407 0.169303
14 3 0.415399 0.386455 0.165207
387 4 0.334836 0.408919 0.149661
2651 4 0.479505 0.37288 0.0800629
1467 4 0.00569082 0.439247 0.0843577
1465 2 0.0128596 0.456307 0.101173
1466 4 0.0200283 0.473367 0.117988
1791 4 0.03557 0.485266 0.120938
1789 2 0.0416054 0.501472 0.138996
242 4 0.106183 0.500013 0.0803816
637 2 0.212102 0.482012 0.149622
638 4 0.234237 0.470693 0.14696
627 4 0.246545 0.445762 0.0902333
767 4 0.245974 0.455397 0.150568
639 4 0.189967 0.493331 0.152284
303 4 0.302457 0.451217 0.137758
766 2 0.270295 0.46094 0.148852
768 4 0.294616 0.466483 0.147135
301 2 0.318925 0.437357 0.150482
302 4 0.335392 0.423497 0.163206
493 2 0.409011 0.415239 0.145235
494 4 0.418036 0.437746 0.139138
660 4 0.416854 0.457543 0.136001
658 2 0.428568 0.468343 0.15527
2480 4 0.00936001 0.00670034 0.227375
1422 4 0.0298733 0.00546664 0.226636
380 4 0.056553 0.0620117 0.174121
1505 4 0.159948 0.0420746 0.173977
674 4 0.1424 0.0402158 0.16624
1504 2 0.166914 0.0368997 0.197426
689 4 0.185067 0.0167928 0.231454
1506 4 0.17388 0.0317248 0.220876
22 3 0.387292 0.0169729 0.210003
21 1 0.402091 0.00871438 0.225556
758 4 0.411075 0.0840715 0.215728
757 2 0.420295 0.0608604 0.216917
25 3 0.421581 0.0204301 0.224326
759 4 0.429516 0.0376494 0.218106
350 4 0.440214 0.0233417 0.226599
349 2 0.461824 0.0204787 0.238847
379 2 0.0551975 0.081774 0.189379
512 4 0.0443238 0.11553 0.216266
381 4 0.053842 0.101536 0.204636
511 2 0.0483944 0.136067 0.202597
513 4 0.0524649 0.156603 0.188927
545 4 0.131001 0.166143 0.252918
723 4 0.23789 0.181873 0.22962
581 4 0.298127 0.112205 0.18353
30 3 0.300099 0.131047 0.178779
26 1 0.316562 0.140348 0.191471
29 3 0.333611 0.124972 0.194832
27 3 0.307878 0.146404 0.211893
28 3 0.324921 0.159274 0.180965
521 4 0.475867 0.144215 0.199584
520 2 0.493569 0.159819 0.207849
363 4 0.106218 0.185218 0.171809
362 4 0.134936 0.204868 0.207724
361 2 0.120577 0.195043 0.189766
372 4 0.141298 0.2216 0.197673
370 2 0.151791 0.240129 0.210778
721 2 0.218677 0.17433 0.243732
279 4 0.243057 0.24752 0.177693
628 2 0.41038 0.205431 0.168924
630 4 0.397097 0.226408 0.165973
394 2 0.041619 0.31109 0.246205
750 4 0.0627983 0.314702 0.221951
395 4 0.0642346 0.320874 0.241964
748 2 0.0741961 0.302805 0.203143
749 4 0.0855939 0.290908 0.184335
300 4 0.142476 0.32523 0.211689
371 4 0.162283 0.258659 0.223883
277 2 0.262286 0.260438 0.168281
307 2 0.316336 0.298603 0.203223
309 4 0.325549 0.281183 0.187833
308 4 0.307123 0.316022 0.218613
497 4 0.307225 0.319388 0.238206
765 4 0.399046 0.244379 0.173
623 4 0.434554 0.29508 0.19004
528 4 0.501554 0.310548 0.19385
622 2 0.45939 0.297652 0.191361
624 4 0.484226 0.300224 0.192683
2618 4 0.00565638 0.399656 0.230668
262 2 0.0358093 0.397257 0.210296
263 4 0.0573128 0.385395 0.205598
602 4 0.0700046 0.383801 0.222208
264 4 0.0143057 0.409119 0.214993
298 2 0.127309 0.336765 0.227878
299 4 0.112142 0.348299 0.244067
603 4 0.110881 0.367489 0.245951
601 2 0.090443 0.375645 0.234079
290 4 0.189397 0.361294 0.209042
289 2 0.181252 0.384229 0.21477
291 4 0.173107 0.407164 0.220499
13 3 0.392085 0.372963 0.192018
2861 4 0.452698 0.408571 0.231037
2860 2 0.468112 0.397492 0.24731
416 4 0.174541 0.424535 0.209915
415 2 0.186447 0.446521 0.210132
1430 4 0.206641 0.484971 0.215571
417 4 0.198352 0.468507 0.210349
713 4 0.352811 0.487264 0.231426
712 2 0.372418 0.502549 0.228753
659 4 0.440282 0.479144 0.17454
597 4 0.492035 0.449766 0.198791
595 2 0.475303 0.465895 0.189567
596 4 0.458571 0.482024 0.180343
231 4 0.443314 0.490914 0.189217
1568 4 0.448595 0.497058 0.172369
1799 4 0.0248452 0.0253812 0.301579
233 4 0.0214929 0.0396076 0.288157
1402 2 0.0553652 0.0326334 0.28649
1403 4 0.0366679 0.0412439 0.300683
1798 2 0.0166075 0.013958 0.322239
1404 4 0.0740624 0.0240229 0.272297
23 3 0.392804 0.0109955 0.246698
633 4 0.384287 0.0401671 0.315257
631 2 0.385397 0.0590079 0.298857
257 4 0.379473 0.049056 0.332429
351 4 0.483433 0.0176156 0.251094
743 4 0.499746 0.0343763 0.315439
744 4 0.488591 0.0174562 0.269723
742 2 0.494169 0.0259162 0.292581
399 4 0.0470124 0.107971 0.321972
397 2 0.0611298 0.12799 0.316962
398 4 0.0752471 0.148009 0.311951
392 4 0.115547 0.158322 0.265553
393 4 0.0775305 0.161408 0.297894
390 4 0.0860898 0.163836 0.315219
391 2 0.0965386 0.159865 0.281723
544 2 0.155848 0.168556 0.254334
404 4 0.19388 0.156387 0.320248
249 4 0.212457 0.14892 0.321576
247 2 0.217235 0.125871 0.330008
632 4 0.386507 0.0778488 0.282456
444 4 0.0248162 0.238438 0.270972
403 2 0.191883 0.164664 0.296738
546 4 0.180694 0.170969 0.255751
722 4 0.199464 0.166786 0.257844
405 4 0.189887 0.17294 0.273229
420 4 0.408332 0.229618 0.249519
331 2 0.45788 0.189196 0.306191
332 4 0.457457 0.202013 0.284727
418 2 0.429222 0.219829 0.25916
419 4 0.450111 0.210039 0.268802
760 2 0.492177 0.217256 0.26367
762 4 0.469503 0.211361 0.272404
333 4 0.458303 0.176378 0.327655
396 4 0.0190034 0.301305 0.250445
443 4 0.0196767 0.28773 0.264299
365 4 0.0108342 0.304409 0.268665
442 2 0.0222464 0.263084 0.267635
510 4 0.242542 0.302508 0.308767
508 2 0.223412 0.316268 0.317126
400 2 0.233004 0.276034 0.279222
402 4 0.244225 0.285657 0.299388
401 4 0.221782 0.266412 0.259056
509 4 0.204282 0.330029 0.325486
345 4 0.257632 0.290031 0.312617
496 2 0.292251 0.31408 0.257514
498 4 0.277277 0.308772 0.276821
343 2 0.265552 0.268495 0.322549
344 4 0.273471 0.246959 0.332482
715 2 0.39826 0.264147 0.270451
716 4 0.392811 0.279817 0.289158
717 4 0.40371 0.248478 0.251745
542 4 0.3929 0.285825 0.30845
541 2 0.407037 0.304906 0.316275
543 4 0.421174 0.323987 0.324101
547 2 0.0290749 0.383481 0.310542
548 4 0.019483 0.360432 0.311924
549 4 0.0386669 0.40653 0.309161
734 4 0.115883 0.356513 0.261498
733 2 0.118451 0.352166 0.285986
735 4 0.121018 0.347819 0.310475
677 4 0.141083 0.345137 0.313698
676 2 0.165908 0.342759 0.31549
435 4 0.20652 0.349935 0.321995
678 4 0.190734 0.340381 0.317282
433 2 0.215487 0.36503 0.339797
728 4 0.360451 0.392398 0.265297
727 2 0.351339 0.402134 0.286447
615 4 0.422546 0.343607 0.330768
2538 4 0.477452 0.371584 0.314063
2536 2 0.487763 0.37286 0.29132
2862 4 0.483526 0.386413 0.263584
753 4 0.476044 0.351759 0.315726
751 2 0.480685 0.338187 0.336207
777 4 0.0498731 0.411217 0.324668
775 2 0.0680383 0.428282 0.326658
776 4 0.0862035 0.445348 0.328647
414 4 0.0885752 0.456078 0.312007
412 2 0.104435 0.474721 0.317118
413 4 0.120294 0.493363 0.322228
1545 4 0.188005 0.496554 0.329012
438 4 0.318815 0.475567 0.321116
436 2 0.327701 0.45287 0.315541
729 4 0.342227 0.411871 0.307598
437 4 0.336587 0.430173 0.309967
1771 2 0.0224374 0.00428274 0.380521
1772 4 0.0367831 0.0116402 0.399632
732 4 0.06405 0.0692886 0.37564
2238 4 0.0343954 0.0318492 0.401469
369 4 0.0697084 0.0541801 0.386126
1800 4 0.00836973 0.00253488 0.342899
367 2 0.0896869 0.0432521 0.396452
368 4 0.109665 0.0323241 0.406777
1701 4 0.16599 0.0844461 0.374414
697 2 0.355876 0.0184501 0.332392
698 4 0.366129 0.0390298 0.322567
256 2 0.392034 0.054012 0.353473
258 4 0.404594 0.0589681 0.374518
426 4 0.401458 0.0661553 0.393383
424 2 0.391302 0.0585274 0.41492
479 4 0.490288 0.0412774 0.33052
478 2 0.472302 0.0576584 0.336294
480 4 0.454315 0.0740395 0.342067
318 4 0.00129483 0.133066 0.36641
730 2 0.0557618 0.0848862 0.357943
317 4 0.0336021 0.112241 0.334422
458 4 0.0066166 0.143476 0.382957
731 4 0.0474736 0.100484 0.340245
316 2 0.0174485 0.122653 0.350416
457 2 0.000941672 0.167362 0.37822
388 2 0.0960288 0.168257 0.337732
604 2 0.136069 0.0942726 0.395985
606 4 0.12099 0.0918469 0.415783
605 4 0.151147 0.0966982 0.376188
1699 2 0.187865 0.0894613 0.363391
1700 4 0.20974 0.0944765 0.352368
248 4 0.222013 0.102822 0.338439
600 4 0.232973 0.140826 0.401746
683 4 0.245245 0.126133 0.396679
682 2 0.266876 0.120022 0.407631
319 2 0.319204 0.120489 0.388855
320 4 0.301857 0.112629 0.405058
684 4 0.288507 0.113912 0.418583
708 4 0.336372 0.14584 0.364628
321 4 0.33655 0.128348 0.372653
516 4 0.450716 0.12487 0.364239
575 4 0.430806 0.124462 0.372183
574 2 0.43529 0.116539 0.395471
514 2 0.459721 0.144814 0.352143
515 4 0.468725 0.164759 0.340047
389 4 0.105968 0.172677 0.360246
598 2 0.230881 0.164132 0.410558
473 4 0.231396 0.252787 0.375445
599 4 0.228789 0.187438 0.41937
378 4 0.287538 0.234933 0.339861
376 2 0.308064 0.221938 0.345779
377 4 0.32859 0.208944 0.351697
707 4 0.332707 0.195692 0.366088
474 4 0.273854 0.23969 0.398391
488 4 0.281388 0.230072 0.415495
487 2 0.277648 0.205373 0.416569
489 4 0.273908 0.180674 0.417643
472 2 0.252625 0.246238 0.386918
706 2 0.334539 0.170766 0.365358
453 4 0.465401 0.183736 0.344638
451 2 0.487639 0.191497 0.353028
347 4 0.0605703 0.316596 0.383368
618 4 0.0783204 0.310105 0.390755
346 2 0.0548743 0.330143 0.403597
275 4 0.137499 0.312823 0.367756
617 4 0.127831 0.306549 0.384688
616 2 0.103076 0.308327 0.387722
274 2 0.15687 0.299654 0.376502
374 4 0.212963 0.249248 0.3829
276 4 0.176242 0.286484 0.385248
373 2 0.193817 0.262116 0.392546
375 4 0.174671 0.274984 0.402191
266 4 0.348687 0.292437 0.407257
265 2 0.356996 0.270544 0.416023
561 4 0.502537 0.325347 0.365612
752 4 0.485326 0.324615 0.356687
408 4 0.0217561 0.338781 0.372123
406 2 0.0166283 0.350051 0.350401
407 4 0.0115005 0.361321 0.328678
434 4 0.224454 0.380125 0.3576
334 2 0.337089 0.404513 0.390061
502 2 0.273718 0.395374 0.393902
503 4 0.296302 0.405806 0.391388
336 4 0.313662 0.404386 0.398797
504 4 0.251134 0.384942 0.396416
613 2 0.42152 0.355288 0.352852
335 4 0.360517 0.404641 0.381324
240 4 0.374891 0.403731 0.395866
614 4 0.420493 0.366968 0.374936
238 2 0.382203 0.401354 0.419658
668 4 0.303081 0.470788 0.40724
669 4 0.303962 0.421215 0.400725
667 2 0.303522 0.446002 0.403982
3990 4 0.478318 0.497416 0.353645
2237 4 0.0147559 0.053485 0.442051
2236 2 0.0245757 0.0426671 0.42176
720 4 0.0176524 0.0695901 0.451507
1782 4 0.106715 0.0189716 0.422285
1780 2 0.0948326 0.0130814 0.443481
961 2 0.267647 0.00527311 0.496762
724 2 0.301446 0.0478779 0.480835
963 4 0.290962 0.0133306 0.49268
726 4 0.298914 0.0682532 0.466566
725 4 0.303979 0.0275025 0.495105
1182 4 0.315176 0.0778261 0.458711
1579 2 0.356809 0.0135714 0.433592
1580 4 0.369559 0.0350168 0.435241
425 4 0.381147 0.0508996 0.436458
2880 4 0.450436 0.0845857 0.487416
642 4 0.44421 0.0738395 0.472116
718 2 0.0312907 0.0869624 0.463228
719 4 0.044929 0.104335 0.474949
1033 2 0.129821 0.142267 0.467034
1035 4 0.143171 0.155124 0.450252
1034 4 0.116471 0.12941 0.483817
261 4 0.141639 0.163012 0.430236
1180 2 0.311653 0.0950788 0.44096
1181 4 0.30813 0.112332 0.423208
640 2 0.437551 0.0899496 0.45419
3157 2 0.485037 0.155735 0.488874
641 4 0.430893 0.10606 0.436265
576 4 0.439773 0.108616 0.418758
306 4 0.443505 0.120737 0.43324
304 2 0.453959 0.141647 0.442109
305 4 0.464413 0.162557 0.450978
259 2 0.154963 0.182454 0.438584
694 2 0.152418 0.230477 0.472527
260 4 0.168286 0.201896 0.446932
695 4 0.166967 0.211839 0.464395
696 4 0.137868 0.249114 0.480659
687 4 0.225326 0.204495 0.429432
686 4 0.181886 0.214538 0.452077
685 2 0.203606 0.209516 0.440755
411 4 0.25346 0.214668 0.480664
409 2 0.267278 0.203155 0.498034
267 4 0.365305 0.248651 0.424788
467 4 0.349827 0.179885 0.422611
466 2 0.354788 0.204342 0.42416
468 4 0.359749 0.2288 0.425709
3158 4 0.467882 0.161928 0.471771
585 4 0.475476 0.238427 0.484198
813 4 0.216653 0.291531 0.493753
584 4 0.470841 0.288218 0.484348
583 2 0.473158 0.263323 0.484273
2456 4 0.461873 0.296077 0.499832
2812 2 0.0149413 0.349664 0.437705
2813 4 0.0383737 0.357352 0.433583
348 4 0.0491784 0.343691 0.423826
326 4 0.0560149 0.361982 0.425535
325 2 0.0752653 0.367935 0.440339
935 4 0.0108354 0.346899 0.505775
10 3 0.140648 0.351926 0.478066
327 4 0.0945157 0.373888 0.455143
7 3 0.11174 0.370102 0.463003
6 1 0.127371 0.37034 0.479879
711 4 0.147939 0.404769 0.488168
8 3 0.140204 0.389575 0.477947
774 4 0.207396 0.406884 0.475023
635 4 0.208391 0.408789 0.455345
709 2 0.16975 0.407558 0.476265
772 2 0.221607 0.398994 0.494023
710 4 0.191561 0.410347 0.464362
586 2 0.39296 0.420958 0.476212
239 4 0.389516 0.398978 0.44345
588 4 0.388921 0.416451 0.451952
1383 4 0.0544624 0.468484 0.449188
1381 2 0.0636983 0.488531 0.437441
680 4 0.0568129 0.452829 0.439641
679 2 0.0691123 0.435866 0.453286
568 2 0.159772 0.463796 0.490872
569 4 0.151282 0.44028 0.49121
382 2 0.116183 0.424061 0.486505
681 4 0.0814117 0.418904 0.466931
384 4 0.141059 0.423285 0.488904
383 4 0.0913064 0.424836 0.484106
636 4 0.242008 0.43473 0.428931
570 4 0.168262 0.487311 0.490535
634 2 0.2252 0.42176 0.442138
1 1 0.302895 0.492576 0.434365
5 3 0.292041 0.477521 0.447563
880 2 0.326859 0.49397 0.487431
4 3 0.315665 0.481446 0.418509
1184 4 0.991543 0.0191922 0.55827
1150 2 0.156844 0.0757 0.542652
1151 4 0.163462 0.0801854 0.566343
342 4 0.16164 0.0541584 0.516507
1152 4 0.150226 0.0712146 0.518961
340 2 0.175897 0.0349444 0.509244
2430 4 0.197872 0.00774868 0.518912
341 4 0.190154 0.0157304 0.501982
430 2 0.325513 0.0115504 0.519653
432 4 0.303402 0.0135536 0.508152
431 4 0.347624 0.00954714 0.531154
843 4 0.34416 0.0273574 0.539326
842 4 0.381475 0.0446243 0.567789
841 2 0.362817 0.0359909 0.553557
1217 4 0.39629 0.0408646 0.580156
1216 2 0.408898 0.0194534 0.58294
2879 4 0.474018 0.0538728 0.51906
2878 2 0.462227 0.0692292 0.503238
1218 4 0.421507 0.998042 0.585724
879 4 0.0834655 0.154551 0.548161
877 2 0.0589707 0.153398 0.543277
1199 4 0.0152195 0.155327 0.532552
878 4 0.0344759 0.152244 0.538393
938 4 0.102675 0.149418 0.546041
937 2 0.109755 0.138025 0.52494
939 4 0.116835 0.126632 0.503839
1272 4 0.0967955 0.163927 0.557999
3009 4 0.477226 0.0644331 0.578457
1259 4 0.0802667 0.23375 0.514367
1270 2 0.10229 0.181683 0.574725
1260 4 0.125728 0.241467 0.495016
1258 2 0.102997 0.237608 0.504691
1271 4 0.107785 0.199438 0.591451
898 2 0.301203 0.20525 0.54362
899 4 0.303918 0.20939 0.568128
900 4 0.298488 0.201109 0.519111
410 4 0.281097 0.191643 0.515403
791 4 0.30657 0.225217 0.578027
790 2 0.322434 0.24405 0.573689
811 2 0.233895 0.305282 0.505536
812 4 0.251136 0.319032 0.517318
650 4 0.264117 0.31801 0.532487
649 2 0.268279 0.314598 0.556905
651 4 0.272442 0.311186 0.581322
871 2 0.364402 0.267774 0.539653
872 4 0.355414 0.270792 0.562789
792 4 0.338299 0.262883 0.569352
1238 4 0.346692 0.277385 0.578556
873 4 0.37339 0.264757 0.516517
2455 2 0.478259 0.313385 0.507387
2457 4 0.494645 0.330694 0.514942
1136 4 0.125012 0.385296 0.546678
1135 2 0.142075 0.382434 0.564728
9 3 0.11636 0.370182 0.500303
773 4 0.235817 0.391104 0.513022
1190 4 0.243612 0.395497 0.529569
1189 2 0.232122 0.404071 0.550055
1191 4 0.220632 0.412645 0.57054
804 4 0.265734 0.332386 0.519469
802 2 0.258155 0.356212 0.519675
803 4 0.250576 0.380039 0.519882
930 4 0.254505 0.397428 0.513033
926 4 0.397173 0.4183 0.518486
927 4 0.426184 0.378557 0.527406
925 2 0.411679 0.398429 0.522946
1010 4 0.493104 0.343924 0.528843
1009 2 0.500205 0.34386 0.552816
1161 4 0.153604 0.494159 0.570493
1172 4 0.224781 0.432062 0.569516
1159 2 0.176576 0.491454 0.579988
928 2 0.273001 0.414193 0.514446
929 4 0.291498 0.430958 0.515859
891 4 0.314389 0.493168 0.52454
1952 4 0.319095 0.474525 0.524834
881 4 0.32634 0.486009 0.511127
1951 2 0.324454 0.450286 0.521839
1953 4 0.329813 0.426048 0.518844
587 4 0.396999 0.425465 0.500473
1001 4 0.400503 0.486335 0.553541
662 4 0.413035 0.471968 0.548496
661 2 0.405223 0.455072 0.531803
1911 4 0.412471 0.478424 0.565916
663 4 0.397411 0.438175 0.51511
1909 2 0.423591 0.465862 0.584455
1332 4 0.419243 0.490428 0.551792
1330 2 0.441978 0.495413 0.542657
4085 4 0.479362 0.506528 0.544677
945 4 0.058057 0.998981 0.631362
1057 2 0.155981 0.0539041 0.59468
1058 4 0.156175 0.0311102 0.604955
2375 4 0.141915 0.0195659 0.611871
1284 4 0.128947 0.0835038 0.653877
1059 4 0.155787 0.0766979 0.584404
950 4 0.239601 0.025351 0.586757
949 2 0.253365 0.0344177 0.60556
951 4 0.267128 0.0434844 0.624363
1031 4 0.261627 0.0609975 0.630767
1030 2 0.272406 0.0766566 0.647008
3007 2 0.49418 0.0729375 0.594748
3008 4 0.511134 0.081442 0.61104
808 2 0.491632 0.0790301 0.650354
1083 4 0.0444151 0.141622 0.658634
3179 4 0.0278889 0.153312 0.655607
1081 2 0.041571 0.11877 0.668375
1155 4 0.155926 0.0943685 0.577591
1153 2 0.157642 0.115569 0.590736
1154 4 0.159358 0.136769 0.603881
1221 4 0.15562 0.133755 0.623433
1219 2 0.169654 0.153288 0.630265
1210 2 0.218532 0.166489 0.652218
1212 4 0.200655 0.181184 0.642748
1032 4 0.283185 0.0923157 0.663249
3178 2 0.0168406 0.17349 0.645811
1245 4 0.0800647 0.209638 0.645015
3180 4 0.00579221 0.193668 0.636016
1243 2 0.0883154 0.199188 0.623851
1244 4 0.096566 0.188739 0.602687
1209 4 0.0885784 0.210744 0.663173
1220 4 0.183688 0.172822 0.637097
797 4 0.200981 0.229284 0.600431
796 2 0.195294 0.20975 0.614966
798 4 0.189607 0.190216 0.629501
857 4 0.300572 0.210058 0.588152
856 2 0.2935 0.21023 0.612134
858 4 0.286428 0.210401 0.636115
905 4 0.461593 0.251978 0.628809
3123 4 0.467638 0.240465 0.644405
3121 2 0.48016 0.219055 0.641242
3122 4 0.492682 0.197646 0.638079
983 4 0.0238707 0.300091 0.597295
982 2 0.0401606 0.316346 0.607072
984 4 0.0564506 0.332602 0.616848
3263 4 0.0538952 0.325121 0.635161
3262 2 0.0529506 0.3221 0.659963
805 2 0.309153 0.30757 0.641907
806 4 0.287878 0.304474 0.654674
947 4 0.313712 0.259626 0.669151
807 4 0.330428 0.310665 0.629141
1239 4 0.344824 0.295994 0.624934
1237 2 0.345758 0.286689 0.601745
906 4 0.451598 0.294896 0.605169
904 2 0.456596 0.273437 0.616989
952 2 0.487994 0.312227 0.596489
953 4 0.471187 0.294878 0.602946
1041 4 0.0597775 0.343126 0.633268
1039 2 0.0530391 0.3661 0.626057
1040 4 0.0463007 0.389073 0.618846
993 4 0.0620894 0.401573 0.613271
1137 4 0.159138 0.379572 0.582779
897 4 0.172195 0.393425 0.588645
895 2 0.190199 0.409829 0.582994
896 4 0.208203 0.426234 0.577343
1029 4 0.22703 0.409333 0.641788
954 4 0.504801 0.329577 0.590031
1206 4 0.484915 0.408669 0.609694
3309 4 0.493951 0.391153 0.613007
3307 2 0.502365 0.369171 0.604574
991 2 0.0462582 0.420918 0.613832
992 4 0.030427 0.440264 0.614393
1171 2 0.220268 0.455231 0.577763
1160 4 0.199549 0.488749 0.589482
1173 4 0.215754 0.478399 0.58601
1188 4 0.194443 0.480865 0.651844
1187 4 0.208463 0.478896 0.603883
1186 2 0.201453 0.479881 0.627863
1175 4 0.183708 0.496357 0.657212
1204 2 0.464083 0.422414 0.608183
1910 4 0.434711 0.4533 0.602995
1269 4 0.429946 0.442668 0.618538
1267 2 0.425913 0.45676 0.638795
1205 4 0.443251 0.436159 0.606672
1268 4 0.42188 0.470852 0.659052
2168 4 0.417713 0.485028 0.672975
1226 4 0.169044 0.0810181 0.737286
1148 4 0.186534 0.0752826 0.742066
1203 4 0.171816 0.0619795 0.739235
1003 2 0.333893 0.0276384 0.691796
1005 4 0.319952 0.0477495 0.696931
1004 4 0.347834 0.00752719 0.686661
45 3 0.442931 0.0460477 0.686597
1162 2 0.496116 0.0591743 0.705124
42 3 0.434505 0.0767433 0.706083
41 1 0.442385 0.0688067 0.685982
1163 4 0.480628 0.0732862 0.69148
44 3 0.463754 0.0771464 0.682482
810 4 0.479824 0.0750441 0.67203
1075 2 0.0407517 0.0901551 0.716882
1076 4 0.029494 0.0970531 0.695649
1082 4 0.038727 0.095918 0.678116
1077 4 0.0520094 0.0832571 0.738116
1214 4 0.0313195 0.170534 0.748282
1282 2 0.127581 0.0927807 0.677055
909 4 0.107106 0.161618 0.706396
907 2 0.110529 0.136955 0.708684
908 4 0.113952 0.112293 0.710972
1283 4 0.126215 0.102058 0.700234
1227 4 0.131565 0.108255 0.718466
1225 2 0.150305 0.0946365 0.727876
1211 4 0.236409 0.151795 0.661688
888 4 0.24875 0.152039 0.676818
886 2 0.26838 0.150842 0.692258
829 2 0.333012 0.148391 0.703333
830 4 0.308106 0.148521 0.70554
887 4 0.288011 0.149645 0.707698
978 4 0.299826 0.161132 0.717148
831 4 0.357918 0.14826 0.701126
1142 4 0.37513 0.146229 0.691847
1141 2 0.392164 0.16225 0.700697
43 3 0.428228 0.0759308 0.669034
1025 4 0.468906 0.150818 0.702355
3424 2 0.479613 0.11298 0.69344
3426 4 0.478393 0.0906904 0.682177
3425 4 0.480832 0.13527 0.704703
3269 4 0.484129 0.151464 0.714736
3268 2 0.491455 0.163985 0.7351
850 2 0.0658798 0.165791 0.722594
852 4 0.0431255 0.166701 0.732918
1213 2 0.0106228 0.184296 0.745557
851 4 0.0886342 0.164881 0.712269
1208 4 0.0963707 0.17606 0.698343
1207 2 0.0924746 0.193402 0.680758
1107 4 0.102668 0.177784 0.716873
1105 2 0.119449 0.193166 0.727216
1106 4 0.13623 0.208547 0.737559
1130 4 0.15455 0.208698 0.727824
1129 2 0.164142 0.221955 0.74673
976 2 0.299601 0.181744 0.731299
1193 4 0.374032 0.23481 0.698648
1194 4 0.405181 0.197012 0.708736
1192 2 0.389606 0.215911 0.703692
1143 4 0.409199 0.178271 0.709547
1262 4 0.422325 0.190769 0.715756
1261 2 0.429507 0.202511 0.73663
1024 2 0.448108 0.164689 0.701894
1026 4 0.42731 0.17856 0.701433
3264 4 0.052006 0.319079 0.684766
779 4 0.0540368 0.300095 0.682618
778 2 0.057262 0.277429 0.692671
780 4 0.0604872 0.254764 0.702723
893 4 0.042989 0.307393 0.696961
892 2 0.0353716 0.32559 0.712324
1065 4 0.23151 0.306102 0.681164
1063 2 0.251751 0.293373 0.688477
946 2 0.298716 0.264893 0.688453
948 4 0.283721 0.270159 0.707755
1064 4 0.271991 0.280645 0.695789
917 4 0.268778 0.25126 0.733789
1008 4 0.439229 0.29699 0.716861
1006 2 0.444191 0.290125 0.740386
894 4 0.0277542 0.343787 0.727687
816 4 0.0389833 0.354751 0.739917
814 2 0.0531125 0.375051 0.743589
3276 4 0.0206586 0.359886 0.736265
815 4 0.0672416 0.39535 0.74726
942 4 0.0784458 0.3898 0.731792
1067 4 0.144701 0.396383 0.708474
940 2 0.101087 0.394446 0.722254
941 4 0.123728 0.399091 0.712716
1066 2 0.157362 0.41177 0.693371
1027 2 0.205638 0.416005 0.65288
1019 4 0.393688 0.410832 0.73921
1176 4 0.166705 0.472738 0.697879
1174 2 0.175207 0.484548 0.677546
1068 4 0.170024 0.427156 0.678268
1028 4 0.184246 0.422676 0.663973
1140 4 0.367065 0.456573 0.723698
1230 4 0.384111 0.427666 0.73973
1100 4 0.398402 0.425161 0.726533
1138 2 0.362744 0.469138 0.702517
1139 4 0.358422 0.481703 0.681337
3329 4 0.51153 0.454414 0.727201
1101 4 0.445787 0.44085 0.729579
1099 2 0.422095 0.433005 0.728056
3330 4 0.461558 0.452545 0.727037
1251 4 0.44973 0.454847 0.742553
3328 2 0.486544 0.453479 0.727119
1296 4 0.0200178 0.0430957 0.783674
1294 2 0.00302135 0.0250773 0.780263
864 4 0.0423065 0.0828219 0.754371
2049 4 0.188363 0.00172134 0.768905
1201 2 0.17587 0.039181 0.748667
1202 4 0.179925 0.0163825 0.758099
2256 4 0.198017 0.0111386 0.754817
975 4 0.344594 0.0466081 0.825133
2322 4 0.459172 0.0452611 0.777964
2320 2 0.460964 0.0205986 0.781669
846 4 0.47139 0.0611031 0.772604
844 2 0.483172 0.0831568 0.772656
862 2 0.0510602 0.100431 0.769814
863 4 0.059814 0.11804 0.785256
833 4 0.051511 0.124592 0.801833
1125 4 0.0660024 0.1346 0.79391
1123 2 0.0726879 0.158654 0.792538
832 2 0.047915 0.11286 0.823619
34 3 0.139609 0.146965 0.827514
1149 4 0.226359 0.102579 0.75509
1147 2 0.206447 0.0889309 0.748578
1257 4 0.233539 0.113076 0.772745
919 2 0.207758 0.166554 0.828861
1255 2 0.250743 0.120451 0.789322
1256 4 0.267948 0.127826 0.805899
840 4 0.282211 0.117237 0.815555
845 4 0.494954 0.10521 0.772707
1072 2 0.0778182 0.207115 0.822947
1074 4 0.0662119 0.221796 0.839528
1124 4 0.0793735 0.182708 0.791165
1073 4 0.0894244 0.192434 0.806366
1131 4 0.173733 0.235213 0.765636
1277 4 0.175909 0.223431 0.780687
1276 2 0.187812 0.216521 0.801561
1278 4 0.199716 0.20961 0.822435
920 4 0.202125 0.190381 0.823791
977 4 0.299376 0.202357 0.74545
918 4 0.306603 0.220265 0.744247
916 2 0.28769 0.235763 0.739018
1298 4 0.314602 0.206349 0.756407
1297 2 0.319641 0.203245 0.7807
1086 4 0.339832 0.209392 0.815056
1299 4 0.324681 0.200141 0.804993
50 3 0.393881 0.212367 0.782591
49 3 0.417284 0.239062 0.795132
46 1 0.414891 0.216483 0.790355
48 3 0.418895 0.203883 0.809424
47 3 0.430211 0.210631 0.774223
1263 4 0.436688 0.214253 0.757504
1146 4 0.492634 0.184929 0.771737
1145 4 0.449663 0.210505 0.772101
1144 2 0.471148 0.197717 0.771919
1022 4 0.420052 0.186323 0.821506
3188 4 0.00768969 0.276045 0.780508
3187 2 0.010546 0.281299 0.804785
821 4 0.156768 0.289576 0.777768
820 2 0.16243 0.265409 0.780781