ITEM: TIMESTEP
1430000
ITEM: NUMBER OF ATOMS
4590
ITEM: BOX BOUNDS pp pp pp
-9.9985700000000008e+00 9.9985700000000008e+00
-9.9985700000000008e+00 9.9985700000000008e+00
-9.9985700000000008e+00 9.9985700000000008e+00
ITEM: ATOMS id type xs ys zs
463 2 0.0453539 0.071182 0.0240588
465 4 0.0554221 0.052253 0.0369236
701 4 0.0722686 0.0597833 0.0428503
2576 4 0.0292303 0.0234602 0.0627604
2575 2 0.00829238 0.0190304 0.0756893
3290 4 0.0116789 0.0602733 0.998805
700 2 0.0958511 0.0650315 0.0492926
702 4 0.119434 0.0702798 0.0557349
566 4 0.135989 0.0693377 0.068306
491 4 0.279869 0.0175349 0.0345296
2264 4 0.26668 0.0139058 0.0194907
2263 2 0.274465 0.0355932 0.00978322
653 4 0.323708 0.0279242 0.0820679
745 2 0.476925 0.0472946 0.00422135
746 4 0.487139 0.0443253 0.0268496
2469 4 0.492342 0.0257626 0.0297348
464 4 0.0352857 0.090111 0.011194
590 4 0.015362 0.130631 0.0606432
589 2 0.00410094 0.124784 0.0821879
422 4 0.0835779 0.126906 0.00359518
565 2 0.150552 0.0876119 0.059409
567 4 0.165115 0.105886 0.050512
867 4 0.330406 0.159729 0.010994
558 4 0.326776 0.130303 0.0678672
865 2 0.350858 0.145371 0.0118561
866 4 0.371309 0.131012 0.0127182
827 4 0.385959 0.117251 0.0165301
554 4 0.0412571 0.209814 0.0334258
553 2 0.0588459 0.223438 0.0220143
555 4 0.0764347 0.237061 0.0106028
835 2 0.115205 0.236881 0.00762267
837 4 0.136671 0.226185 0.000553649
836 4 0.0937391 0.247578 0.0146917
915 4 0.150674 0.239383 0.00146817
665 4 0.319433 0.174664 0.0201525
666 4 0.321648 0.221173 0.0383938
664 2 0.32054 0.197918 0.0292732
573 4 0.312502 0.237364 0.0318635
461 4 0.315463 0.235115 0.0509577
460 2 0.326014 0.23011 0.0730664
1070 4 0.388929 0.213895 0.0639449
1069 2 0.39793 0.236791 0.0684112
771 4 0.433282 0.171686 0.0679567
1012 2 0.497818 0.210192 0.0619316
769 2 0.45808 0.170786 0.0710214
770 4 0.482879 0.169886 0.074086
1014 4 0.486124 0.188169 0.0637765
294 4 0.0777525 0.282555 0.0485805
2808 4 0.00275783 0.278105 0.0158779
292 2 0.0954407 0.291747 0.0334869
507 4 0.123994 0.312677 0.0308532
293 4 0.113129 0.300938 0.0183933
505 2 0.148756 0.309473 0.0321724
506 4 0.173518 0.306269 0.0334915
483 4 0.178117 0.324977 0.0295716
571 2 0.305945 0.260654 0.0255576
356 4 0.295264 0.300827 0.0302033
572 4 0.299388 0.283944 0.0192517
355 2 0.280361 0.314005 0.0150566
357 4 0.265458 0.327183 0.99991
1071 4 0.406931 0.259686 0.0728775
324 4 0.419373 0.271308 0.0626871
322 2 0.431793 0.28737 0.0480952
672 4 0.450458 0.318305 0.043606
323 4 0.444213 0.303433 0.0335033
620 4 0.00367268 0.358322 0.0606135
647 4 0.022676 0.35135 0.0645875
646 2 0.0461731 0.346115 0.0713443
648 4 0.0696702 0.340879 0.0781012
481 2 0.190146 0.343443 0.0413829
609 4 0.213878 0.378297 0.0562165
607 2 0.235045 0.391582 0.0570362
482 4 0.202174 0.361909 0.0531943
608 4 0.256211 0.404867 0.0578558
252 4 0.275682 0.406404 0.0569803
957 4 0.374774 0.350475 0.0170261
670 2 0.457659 0.337994 0.0572325
671 4 0.464861 0.357683 0.070859
281 4 0.467506 0.377489 0.0720366
280 2 0.465103 0.402377 0.0721373
2651 4 0.480358 0.364328 0.0793759
244 2 0.249039 0.483667 0.0551408
245 4 0.248525 0.469883 0.0759955
272 4 0.24403 0.495131 0.0156008
250 2 0.279531 0.424865 0.0405625
251 4 0.283379 0.443326 0.0241447
246 4 0.249553 0.497451 0.034286
523 2 0.348696 0.492837 0.0376293
525 4 0.345893 0.483373 0.0606025
282 4 0.462701 0.427265 0.0722381
226 2 0.468018 0.44997 0.0452541
228 4 0.458354 0.467944 0.0308065
227 4 0.477681 0.431996 0.0597016
563 4 0.443204 0.481983 0.0315647
16 1 0.0443841 0.0565756 0.140725
20 3 0.0334563 0.039668 0.151373
1806 4 0.0652787 0.031016 0.134038
18 3 0.0667987 0.0511458 0.138174
17 3 0.0350748 0.0596978 0.119923
1804 2 0.0784737 0.0101363 0.130151
19 3 0.042329 0.076228 0.152889
1505 4 0.16637 0.0386689 0.142899
450 4 0.168391 0.0574776 0.134964
448 2 0.181814 0.0784531 0.132725
1504 2 0.175984 0.0337818 0.165458
652 2 0.313872 0.0190008 0.103253
654 4 0.304036 0.0100774 0.124438
484 2 0.384422 0.00361371 0.102291
296 4 0.345142 0.0771095 0.0848563
295 2 0.354549 0.0572431 0.096773
297 4 0.363957 0.0373768 0.10869
485 4 0.381757 0.0282511 0.105619
237 4 0.145519 0.145807 0.127875
578 4 0.130234 0.142169 0.14019
577 2 0.111399 0.128045 0.131769
579 4 0.0925631 0.113922 0.123347
235 2 0.165617 0.130942 0.127321
236 4 0.185714 0.116077 0.126767
693 4 0.200572 0.116368 0.138661
449 4 0.195238 0.0994285 0.130486
691 2 0.221576 0.111902 0.151469
556 2 0.330766 0.110406 0.0824735
582 4 0.262952 0.104357 0.163446
557 4 0.334756 0.0905083 0.0970799
337 2 0.0723993 0.204571 0.164109
339 4 0.0488377 0.196229 0.164762
476 4 0.138888 0.18184 0.12421
475 2 0.126565 0.195572 0.141084
477 4 0.114242 0.209304 0.157959
737 4 0.151078 0.193126 0.114022
338 4 0.095961 0.212914 0.163455
736 2 0.16601 0.20926 0.10211
738 4 0.180942 0.225393 0.090197
283 2 0.323931 0.207728 0.146444
284 4 0.331221 0.216391 0.124151
462 4 0.336566 0.225106 0.0951752
255 4 0.341542 0.228445 0.114065
254 4 0.387087 0.240454 0.130863
253 2 0.364314 0.234449 0.122464
630 4 0.400959 0.229592 0.139062
628 2 0.409332 0.206079 0.140549
765 4 0.39645 0.246541 0.14633
629 4 0.417704 0.182565 0.142037
312 4 0.419644 0.181491 0.161577
749 4 0.0920072 0.293483 0.151136
353 4 0.298417 0.282631 0.142501
754 2 0.281335 0.313217 0.145906
755 4 0.285231 0.290366 0.15528
278 4 0.296341 0.275218 0.160502
352 2 0.321105 0.272399 0.140111
354 4 0.343794 0.262167 0.13772
763 2 0.405934 0.260451 0.164816
456 4 0.0805917 0.334174 0.093901
455 4 0.120999 0.361628 0.104589
454 2 0.100795 0.347901 0.0992452
537 4 0.20314 0.384738 0.141555
535 2 0.199331 0.402093 0.123963
611 4 0.220731 0.37561 0.140221
610 2 0.241799 0.362143 0.140275
536 4 0.195522 0.419449 0.106371
756 4 0.27744 0.336067 0.136533
612 4 0.262866 0.348677 0.140329
741 4 0.384042 0.368229 0.0943233
387 4 0.334984 0.404741 0.164263
739 2 0.388023 0.377497 0.117202
740 4 0.392003 0.386765 0.140081
15 3 0.391104 0.37615 0.156559
385 2 0.358988 0.399368 0.159775
386 4 0.382991 0.393995 0.155287
495 4 0.398469 0.403072 0.148711
12 3 0.426339 0.366831 0.164594
14 3 0.417405 0.402953 0.159299
1465 2 0.00780557 0.482898 0.148305
1466 4 0.0264701 0.499461 0.149887
551 4 0.0881598 0.453234 0.094988
550 2 0.103265 0.472817 0.0913111
552 4 0.118369 0.4924 0.0876342
627 4 0.232314 0.465836 0.08795
625 2 0.213399 0.449589 0.0898107
626 4 0.194485 0.433343 0.0916714
637 2 0.234738 0.498038 0.13434
767 4 0.24971 0.468946 0.131281
638 4 0.250997 0.485435 0.120128
766 2 0.26264 0.451259 0.14333
301 2 0.310259 0.428197 0.163969
768 4 0.275571 0.433572 0.155378
302 4 0.333345 0.423788 0.155437
494 4 0.409248 0.448033 0.129657
493 2 0.403858 0.425553 0.139184
660 4 0.406105 0.467163 0.132768
658 2 0.423765 0.476325 0.147913
659 4 0.441425 0.485487 0.163058
2480 4 0.00656606 0.0121751 0.192819
380 4 0.0352587 0.0794456 0.171028
1422 4 0.0141213 0.000155427 0.207222
673 2 0.12366 0.0441258 0.202227
675 4 0.100722 0.0369875 0.209163
674 4 0.146597 0.0512641 0.195291
689 4 0.201024 0.0309821 0.200887
1506 4 0.185598 0.0288948 0.188016
688 2 0.210183 0.00955067 0.209941
21 1 0.390256 0.0141278 0.220714
25 3 0.403646 0.028959 0.209787
22 3 0.368879 0.0225599 0.221755
23 3 0.398075 0.0108215 0.242309
757 2 0.414614 0.0672316 0.192629
759 4 0.413237 0.0436276 0.200761
351 4 0.463407 0.0343516 0.241815
349 2 0.441953 0.033821 0.228984
350 4 0.420499 0.0332903 0.216153
512 4 0.0596143 0.116825 0.20739
379 2 0.0389761 0.0934067 0.191435
381 4 0.0426935 0.107368 0.211842
511 2 0.0670621 0.133949 0.224018
513 4 0.07451 0.151073 0.240646
692 4 0.242581 0.107436 0.164277
721 2 0.191992 0.149654 0.229781
723 4 0.194357 0.133544 0.210805
580 2 0.273667 0.118959 0.180684
581 4 0.284381 0.13356 0.197923
30 3 0.301708 0.138088 0.188685
26 1 0.31678 0.142701 0.205123
29 3 0.322425 0.123216 0.216386
27 3 0.307414 0.157477 0.22006
28 3 0.335791 0.152342 0.195955
758 4 0.415991 0.0908356 0.184497
310 2 0.419556 0.157491 0.168586
311 4 0.419469 0.13349 0.175596
363 4 0.108858 0.204059 0.175553
362 4 0.130862 0.232996 0.209891
361 2 0.11986 0.218527 0.192722
372 4 0.139466 0.241392 0.226613
370 2 0.162875 0.248562 0.231692
722 4 0.189627 0.165764 0.248756
285 4 0.316642 0.199066 0.168738
521 4 0.455632 0.169694 0.217805
520 2 0.479401 0.177219 0.215909
395 4 0.0816272 0.291828 0.213536
394 2 0.0619683 0.293891 0.228848
396 4 0.0423094 0.295954 0.24416
750 4 0.0769706 0.302406 0.197987
443 4 0.0305074 0.281228 0.249076
365 4 0.0247353 0.299494 0.251362
748 2 0.0844889 0.297945 0.174561
371 4 0.186284 0.255733 0.23677
279 4 0.256509 0.257064 0.184679
277 2 0.276425 0.266141 0.172591
308 4 0.333951 0.270247 0.235083
307 2 0.330537 0.286096 0.216048
309 4 0.327124 0.301946 0.197013
497 4 0.323114 0.281205 0.24789
764 4 0.415418 0.274361 0.183302
623 4 0.424602 0.288977 0.193358
526 2 0.496105 0.280058 0.172339
528 4 0.477135 0.286616 0.187249
622 2 0.448672 0.293682 0.198224
624 4 0.472742 0.298388 0.20309
262 2 0.0461446 0.397864 0.238129
264 4 0.0216572 0.397421 0.233094
263 4 0.0706321 0.398306 0.243164
300 4 0.156065 0.332224 0.21175
298 2 0.142588 0.345402 0.228179
299 4 0.129112 0.358581 0.244607
603 4 0.121667 0.377067 0.248845
290 4 0.165028 0.378266 0.219505
289 2 0.167802 0.402521 0.214104
11 1 0.40991 0.382641 0.167643
13 3 0.405462 0.384556 0.190336
1757 4 0.0699768 0.50045 0.237413
416 4 0.163171 0.445487 0.210271
417 4 0.187049 0.489364 0.212577
415 2 0.17511 0.467425 0.211424
291 4 0.170576 0.426777 0.208703
303 4 0.287173 0.432607 0.1725
645 4 0.495188 0.444396 0.211194
597 4 0.475561 0.445681 0.206885
595 2 0.461834 0.460482 0.19213
596 4 0.448108 0.475283 0.177376
2861 4 0.448999 0.447062 0.239329
1568 4 0.456255 0.49283 0.17405
231 4 0.437673 0.49179 0.18099
1799 4 0.0233588 0.0274529 0.317609
233 4 0.0207295 0.0177167 0.300563
1402 2 0.0625686 0.0141749 0.30902
1403 4 0.0387118 0.0213354 0.306838
232 2 0.0150457 0.0319227 0.280788
234 4 0.00936189 0.0461288 0.261013
1404 4 0.0864254 0.00701448 0.311201
1518 4 0.353457 0.00543605 0.313046
697 2 0.367569 0.042486 0.319878
699 4 0.362266 0.022231 0.306211
633 4 0.380555 0.0802493 0.327786
743 4 0.487671 0.0411603 0.301368
744 4 0.473895 0.0252283 0.256012
742 2 0.480783 0.0331943 0.27869
479 4 0.488476 0.046869 0.320053
398 4 0.11458 0.137644 0.303258
397 2 0.102116 0.118717 0.313822
393 4 0.106343 0.151791 0.291829
399 4 0.0896523 0.0997896 0.324386
390 4 0.105535 0.152991 0.311241
391 2 0.117423 0.165726 0.274272
1700 4 0.204355 0.0861787 0.328924
248 4 0.214077 0.102707 0.321864
249 4 0.204422 0.150927 0.330937
247 2 0.209249 0.126817 0.326401
404 4 0.20345 0.155804 0.311656
632 4 0.393372 0.106755 0.287365
631 2 0.386963 0.0935022 0.307575
333 4 0.465803 0.141767 0.307641
515 4 0.446341 0.151886 0.325165
331 2 0.461322 0.165823 0.302505
544 2 0.162096 0.191541 0.253818
545 4 0.138097 0.198355 0.255498
392 4 0.128503 0.17966 0.256716
388 2 0.103068 0.171741 0.327597
546 4 0.186094 0.184728 0.252137
403 2 0.19664 0.164549 0.289243
405 4 0.189829 0.173295 0.266831
420 4 0.398685 0.218729 0.294838
717 4 0.391022 0.237062 0.298959
332 4 0.45684 0.18988 0.297369
418 2 0.42013 0.206688 0.290332
419 4 0.441575 0.194647 0.285826
760 2 0.474487 0.220163 0.284165
762 4 0.459419 0.200437 0.28116
761 4 0.489554 0.239889 0.28717
444 4 0.0436258 0.255791 0.290083
364 2 0.0101439 0.317032 0.261594
442 2 0.0370666 0.268509 0.26958
401 4 0.19685 0.254715 0.276706
400 2 0.212612 0.260918 0.295098
402 4 0.228373 0.26712 0.313491
345 4 0.241384 0.271903 0.327249
510 4 0.229412 0.285335 0.320128
508 2 0.221705 0.308945 0.323018
509 4 0.213998 0.332555 0.325908
496 2 0.322382 0.286959 0.272211
498 4 0.32165 0.292713 0.296533
715 2 0.401444 0.259697 0.301004
716 4 0.411866 0.282333 0.303049
541 2 0.418686 0.323744 0.309172
542 4 0.421635 0.300087 0.301633
602 4 0.0736504 0.386162 0.259446
601 2 0.0976589 0.381615 0.254146
734 4 0.135758 0.369022 0.259685
733 2 0.142328 0.362347 0.282868
735 4 0.148899 0.355671 0.306051
677 4 0.15445 0.349078 0.324822
676 2 0.178737 0.346875 0.330339
435 4 0.220623 0.350709 0.329472
728 4 0.384596 0.370057 0.31206
727 2 0.365225 0.385296 0.307847
729 4 0.345855 0.400535 0.303635
543 4 0.415737 0.347401 0.31671
615 4 0.413425 0.364146 0.30599
613 2 0.422561 0.384494 0.31729
2538 4 0.479702 0.392645 0.32767
2536 2 0.479059 0.396057 0.302908
614 4 0.431697 0.404842 0.328589
2537 4 0.478416 0.399468 0.278147
777 4 0.0567121 0.429285 0.324594
775 2 0.0788759 0.436994 0.315961
414 4 0.112851 0.454314 0.322116
776 4 0.10104 0.444702 0.307329
438 4 0.299518 0.445956 0.29802
436 2 0.32022 0.43194 0.297586
437 4 0.340921 0.417923 0.297152
594 4 0.379767 0.457917 0.326195
2862 4 0.465085 0.414256 0.273471
2860 2 0.457042 0.430659 0.2564
1798 2 0.0121066 0.0137648 0.33525
1782 4 0.0816857 0.000800725 0.410696
2238 4 0.033173 0.0375655 0.406077
1772 4 0.0282032 0.0183999 0.409378
1771 2 0.0189931 0.00634822 0.3895
369 4 0.0943398 0.049349 0.363078
367 2 0.091033 0.0303807 0.37903
732 4 0.0983013 0.0675004 0.369929
368 4 0.0877263 0.0114125 0.394981
1701 4 0.163921 0.0671671 0.35138
605 4 0.159135 0.0801993 0.367776
730 2 0.0879493 0.084605 0.354914
1699 2 0.184138 0.0766729 0.340152
698 4 0.372872 0.0627411 0.333545
256 2 0.400048 0.061771 0.361717
257 4 0.390522 0.068689 0.339659
424 2 0.407416 0.0315354 0.408612
258 4 0.409574 0.0548529 0.383776
478 2 0.472468 0.0528722 0.338298
426 4 0.420024 0.0380456 0.388025
480 4 0.45646 0.0588754 0.356543
458 4 0.02194 0.153039 0.366227
318 4 0.0277498 0.139185 0.352477
316 2 0.0431042 0.120173 0.347189
317 4 0.0584586 0.101161 0.341901
731 4 0.0775972 0.10171 0.339899
604 2 0.143482 0.0978631 0.376032
606 4 0.127829 0.115527 0.384287
600 4 0.221726 0.148435 0.39984
683 4 0.230962 0.130656 0.396261
682 2 0.252399 0.130358 0.409128
319 2 0.306814 0.123824 0.401979
320 4 0.286294 0.116592 0.414301
321 4 0.327334 0.131055 0.389658
706 2 0.323724 0.166174 0.369727
708 4 0.334475 0.144531 0.376144
575 4 0.405323 0.130679 0.37574
516 4 0.413717 0.141614 0.361646
574 2 0.419938 0.128523 0.395913
451 2 0.482623 0.155498 0.353574
514 2 0.430029 0.14675 0.343405
453 4 0.463885 0.154378 0.337056
641 4 0.453797 0.123186 0.413354
576 4 0.434553 0.126367 0.416086
457 2 0.0139761 0.168054 0.384565
459 4 0.00601223 0.18307 0.402903
389 4 0.1006 0.190492 0.343953
598 2 0.21581 0.172724 0.400333
599 4 0.209895 0.197013 0.400825
473 4 0.234156 0.233525 0.386745
374 4 0.214359 0.232223 0.382581
472 2 0.258069 0.231593 0.393787
378 4 0.28626 0.237855 0.356677
376 2 0.293609 0.214383 0.352174
377 4 0.300958 0.190912 0.347672
707 4 0.312973 0.187817 0.36331
474 4 0.281983 0.229661 0.400828
467 4 0.371516 0.211215 0.416238
2849 4 0.001423 0.264021 0.38615
347 4 0.0750309 0.325447 0.397104
275 4 0.15652 0.320298 0.383697
617 4 0.137543 0.326335 0.388188
616 2 0.114226 0.320808 0.395325
618 4 0.0909084 0.315282 0.402462
274 2 0.173999 0.302526 0.385648
276 4 0.191478 0.284753 0.387599
373 2 0.207326 0.253941 0.39278
375 4 0.200294 0.27566 0.402979
344 4 0.284322 0.25012 0.340762
343 2 0.262853 0.261011 0.334006
561 4 0.481832 0.328276 0.381877
406 2 0.0084789 0.36269 0.36658
407 4 0.0162949 0.376015 0.346919
548 4 0.0349534 0.373898 0.339327
547 2 0.0372163 0.39864 0.336512
346 2 0.069183 0.341003 0.415785
433 2 0.23974 0.366219 0.333848
678 4 0.203025 0.344671 0.335856
434 4 0.258857 0.38173 0.338224
334 2 0.33071 0.408993 0.390684
502 2 0.272948 0.411255 0.410679
335 4 0.351293 0.394808 0.391216
240 4 0.366233 0.391962 0.404251
753 4 0.478963 0.374818 0.338477
752 4 0.47002 0.335139 0.367568
751 2 0.474492 0.354979 0.353023
549 4 0.0394793 0.423381 0.333696
412 2 0.131683 0.46493 0.334679
413 4 0.150514 0.475546 0.347243
500 4 0.139812 0.489126 0.356176
1544 4 0.157363 0.493703 0.347997
636 4 0.201046 0.441336 0.414088
669 4 0.30581 0.429563 0.407564
336 4 0.310127 0.423179 0.390153
503 4 0.292399 0.419546 0.397332
592 2 0.392734 0.475479 0.338385
593 4 0.405702 0.49304 0.350576
1126 2 0.000517812 0.0538968 0.48128
720 4 0.0329242 0.0742518 0.458975
2237 4 0.029916 0.0559629 0.452463
2236 2 0.0315445 0.0467642 0.42927
1127 4 0.0175868 0.0636833 0.465851
1524 4 0.0170006 0.998241 0.481273
726 4 0.299763 0.0665883 0.467178
724 2 0.297081 0.0505583 0.486179
1182 4 0.285387 0.0812319 0.466098
1580 4 0.385427 0.0115988 0.440238
425 4 0.394808 0.0250252 0.4292
2878 2 0.472339 0.0678053 0.477565
2879 4 0.466667 0.0510746 0.495259
718 2 0.0378709 0.094317 0.47305
719 4 0.0428176 0.114382 0.487124
1033 2 0.119918 0.138613 0.473438
1035 4 0.139249 0.147281 0.460159
1034 4 0.100587 0.129945 0.486717
261 4 0.132031 0.16466 0.46367
684 4 0.273836 0.13006 0.421995
1180 2 0.285176 0.100192 0.449799
1181 4 0.284964 0.119152 0.433501
3158 4 0.495639 0.160266 0.434848
2880 4 0.478012 0.0845361 0.459871
642 4 0.474462 0.0866013 0.440469
640 2 0.464129 0.104894 0.426911
306 4 0.447516 0.140981 0.418114
304 2 0.456282 0.162494 0.427363
469 2 0.0152493 0.191635 0.480508
470 4 0.00956364 0.167639 0.47638
471 4 0.0209349 0.215631 0.484636
260 4 0.162427 0.204288 0.461133
259 2 0.147229 0.184474 0.462402
695 4 0.160734 0.221133 0.452905
694 2 0.146758 0.239132 0.463194
687 4 0.209707 0.207495 0.417663
686 4 0.179005 0.213667 0.456651
411 4 0.226341 0.176107 0.503303
685 2 0.194356 0.210581 0.437157
488 4 0.274 0.219231 0.415892
487 2 0.290656 0.219714 0.434534
489 4 0.307311 0.220198 0.453176
466 2 0.375479 0.229255 0.433092
468 4 0.379442 0.247295 0.449945
305 4 0.465047 0.184007 0.436612
585 4 0.45308 0.235826 0.492996
1260 4 0.136849 0.271775 0.485337
696 4 0.132781 0.257131 0.473483
811 2 0.257898 0.30469 0.488142
813 4 0.256722 0.290436 0.467633
266 4 0.325724 0.25783 0.48196
265 2 0.349163 0.258199 0.473262
267 4 0.372602 0.258568 0.464563
2456 4 0.480675 0.296267 0.469835
584 4 0.47204 0.278121 0.474225
583 2 0.46256 0.256973 0.483611
2455 2 0.488141 0.307421 0.490931
348 4 0.063335 0.356558 0.434467
326 4 0.059881 0.350425 0.453368
325 2 0.0799138 0.357501 0.466551
10 3 0.150805 0.359442 0.473613
327 4 0.0999465 0.364577 0.479734
7 3 0.118161 0.371068 0.487474
6 1 0.139653 0.364779 0.492738
711 4 0.157419 0.396035 0.491179
635 4 0.209947 0.419176 0.458024
709 2 0.179508 0.401062 0.480597
774 4 0.22084 0.410694 0.471695
772 2 0.235463 0.407017 0.491641
710 4 0.201597 0.40609 0.470015
504 4 0.253498 0.402964 0.424025
238 2 0.377404 0.40664 0.421131
588 4 0.395989 0.410346 0.451655
586 2 0.39838 0.414175 0.476248
681 4 0.0769047 0.420207 0.436715
680 4 0.0386036 0.450263 0.425295
1381 2 0.0513963 0.490118 0.421084
1383 4 0.0507221 0.465292 0.42398
679 2 0.0577542 0.435235 0.431005
569 4 0.138489 0.433602 0.478582
539 4 0.0976143 0.478388 0.471833
384 4 0.121282 0.423676 0.485739
382 2 0.100591 0.423391 0.471704
568 2 0.156476 0.449189 0.47092
383 4 0.0799 0.423106 0.457669
538 2 0.11038 0.487884 0.491122
634 2 0.205496 0.430256 0.436056
570 4 0.174462 0.464776 0.463258
4 3 0.315642 0.493684 0.42796
667 2 0.311354 0.451742 0.417691
668 4 0.316897 0.473921 0.427818
5 3 0.284566 0.491959 0.449148
880 2 0.333039 0.495544 0.49661
239 4 0.388575 0.421318 0.438011
1059 4 0.140432 0.0809235 0.577769
1152 4 0.161864 0.0725984 0.52273
340 2 0.189725 0.045911 0.521627
342 4 0.178681 0.0666397 0.530202
2430 4 0.192216 0.00608399 0.511836
341 4 0.200769 0.0251822 0.513052
430 2 0.317026 0.0350312 0.538709
432 4 0.30171 0.0265974 0.520835
963 4 0.28493 0.0202027 0.513934
725 4 0.294398 0.0345283 0.505179
961 2 0.26536 0.00877134 0.503375
431 4 0.332341 0.0434651 0.556583
843 4 0.34975 0.0445891 0.546583
1217 4 0.413618 0.0478477 0.536335
842 4 0.398178 0.0570048 0.545457
841 2 0.373964 0.0507969 0.54602
1216 2 0.42233 0.0247384 0.540241
1218 4 0.431041 0.00162922 0.544146
879 4 0.0700592 0.16289 0.538616
1272 4 0.078323 0.154301 0.553238
938 4 0.0707627 0.144027 0.537264
1150 2 0.154677 0.083582 0.544011
937 2 0.0885288 0.136082 0.521566
1151 4 0.14749 0.0945656 0.565292
1155 4 0.155266 0.0922908 0.583129
939 4 0.106295 0.128137 0.505869
1270 2 0.094154 0.153112 0.572555
877 2 0.0487722 0.172681 0.547344
878 4 0.0274852 0.182473 0.556072
1199 4 0.0154245 0.184267 0.540459
409 2 0.247203 0.186617 0.512218
857 4 0.29262 0.227804 0.575219
898 2 0.29548 0.212449 0.539219
791 4 0.299338 0.244134 0.566884
899 4 0.303175 0.226669 0.558292
900 4 0.287785 0.19823 0.520146
410 4 0.268066 0.197127 0.521132
871 2 0.375087 0.240357 0.517438
872 4 0.354504 0.227833 0.510754
873 4 0.395669 0.252881 0.524123
906 4 0.429268 0.240535 0.580579
1259 4 0.104994 0.264584 0.523208
1258 2 0.120921 0.26818 0.504273
649 2 0.268025 0.316298 0.550065
651 4 0.273406 0.308621 0.573244
650 4 0.262644 0.323975 0.526885
812 4 0.259074 0.318944 0.508651
790 2 0.32082 0.256709 0.569245
792 4 0.342302 0.269283 0.571606
1238 4 0.333819 0.286167 0.577612
2457 4 0.495607 0.318575 0.512027
935 4 0.0196287 0.414814 0.523098
9 3 0.13884 0.346363 0.506831
1137 4 0.160116 0.392692 0.55829
8 3 0.150241 0.382456 0.503407
1135 2 0.145009 0.411587 0.55197
804 4 0.249505 0.334353 0.516402
897 4 0.172758 0.38012 0.566305
1189 2 0.241642 0.401995 0.553811
1190 4 0.249961 0.397439 0.530676
1191 4 0.233323 0.406551 0.576946
803 4 0.249235 0.384359 0.516354
895 2 0.193552 0.391963 0.573553
802 2 0.24937 0.359356 0.516378
896 4 0.214346 0.403807 0.580801
773 4 0.250086 0.403339 0.511587
930 4 0.265753 0.395321 0.519649
928 2 0.290253 0.396575 0.514819
929 4 0.314754 0.397828 0.509989
927 4 0.404553 0.383122 0.553186
925 2 0.408383 0.399953 0.535097
926 4 0.412213 0.416785 0.517009
587 4 0.400771 0.418004 0.500841
1136 4 0.129902 0.430481 0.545649
540 4 0.123145 0.497379 0.51041
1172 4 0.221339 0.421738 0.578664
889 2 0.318426 0.472082 0.573982
891 4 0.333773 0.477046 0.554877
1953 4 0.388262 0.457971 0.540444
1951 2 0.365864 0.468989 0.538987
1952 4 0.343466 0.480006 0.53753
663 4 0.410575 0.433527 0.506409
881 4 0.337916 0.488992 0.520242
1001 4 0.430044 0.49071 0.536384
662 4 0.43138 0.473313 0.528431
661 2 0.420977 0.45342 0.51742
1911 4 0.435865 0.475335 0.547686
1909 2 0.437546 0.474069 0.572601
1332 4 0.447808 0.482429 0.5343
1330 2 0.469033 0.492835 0.526153
2319 4 0.0554069 0.00290856 0.631979
1057 2 0.129778 0.0596235 0.585384
2375 4 0.126554 0.0207782 0.597481
1058 4 0.119124 0.0383235 0.592998
825 4 0.13336 0.006169 0.662595
1284 4 0.164312 0.0654133 0.653703
950 4 0.252365 0.016888 0.63448
949 2 0.265731 0.0365499 0.626738
951 4 0.279097 0.0562118 0.618996
1031 4 0.272557 0.0740862 0.611642
45 3 0.424116 0.068547 0.653692
1271 4 0.109985 0.151922 0.591872
1153 2 0.169375 0.0986128 0.60278
1154 4 0.183484 0.104935 0.622431
1221 4 0.201243 0.115343 0.62162
1219 2 0.204586 0.139281 0.628021
1220 4 0.207929 0.16322 0.634421
1032 4 0.27972 0.11494 0.639576
1030 2 0.276138 0.0945133 0.625609
808 2 0.482522 0.0921486 0.63504
810 4 0.471272 0.0899631 0.657262
809 4 0.493773 0.094334 0.612818
1243 2 0.0693652 0.209158 0.649415
1244 4 0.057386 0.21498 0.628254
1210 2 0.237472 0.176361 0.655893
1212 4 0.216313 0.178984 0.642831
796 2 0.189239 0.198231 0.62113
798 4 0.198762 0.179709 0.634967
797 4 0.179717 0.216753 0.607294
856 2 0.279379 0.214581 0.591802
858 4 0.266138 0.201358 0.608385
905 4 0.472171 0.243996 0.606037
3123 4 0.48701 0.237 0.616584
904 2 0.45072 0.242266 0.593308
983 4 0.0350183 0.290978 0.603985
982 2 0.0368276 0.305911 0.623958
3263 4 0.0473476 0.332762 0.657427
984 4 0.0386369 0.320844 0.643931
947 4 0.246798 0.287814 0.643665
805 2 0.312044 0.32176 0.644782
807 4 0.320577 0.307364 0.626205
806 4 0.303511 0.336157 0.663359
1237 2 0.336189 0.298656 0.599144
1239 4 0.338559 0.311144 0.620675
952 2 0.485057 0.330522 0.607093
953 4 0.464162 0.322279 0.618078
1041 4 0.0374185 0.34 0.642767
1039 2 0.0379372 0.364959 0.644155
1040 4 0.0384559 0.389919 0.645543
993 4 0.0539119 0.401646 0.640556
991 2 0.0642144 0.413704 0.621226
1206 4 0.468404 0.40444 0.65281
992 4 0.0745169 0.425762 0.601897
1171 2 0.212147 0.44245 0.589233
1159 2 0.187691 0.494508 0.588465
1160 4 0.205717 0.48303 0.601444
1173 4 0.202954 0.463162 0.599802
1188 4 0.203845 0.486293 0.662667
1187 4 0.196624 0.47272 0.615083
1186 2 0.200234 0.479506 0.638875
890 4 0.303079 0.467117 0.593087
1268 4 0.425217 0.495287 0.665553
1204 2 0.463047 0.427655 0.645224
1910 4 0.439226 0.472802 0.597515
1269 4 0.438622 0.452812 0.642817
1267 2 0.431919 0.474049 0.654185
1205 4 0.45769 0.45087 0.637637
1226 4 0.160797 0.0832427 0.744026
1282 2 0.155944 0.08212 0.670317
1003 2 0.32905 0.0263361 0.719701
1005 4 0.325916 0.0499818 0.727201
1004 4 0.332184 0.00269041 0.712202
41 1 0.434856 0.0770045 0.671907
1162 2 0.491548 0.0670399 0.687468
42 3 0.433695 0.0617958 0.689126
1163 4 0.4757 0.0809758 0.674058
44 3 0.45716 0.0809117 0.66684
1083 4 0.0125448 0.154971 0.697701
1081 2 0.0188221 0.13082 0.699288
1082 4 0.0250994 0.10667 0.700875
1076 4 0.0331081 0.087957 0.707207
1075 2 0.0371492 0.0878896 0.731881
850 2 0.068743 0.165776 0.717299
1214 4 0.0367002 0.156537 0.734899
909 4 0.100151 0.148026 0.692821
907 2 0.115294 0.128299 0.690222
908 4 0.130436 0.108573 0.687623
1283 4 0.147575 0.0988267 0.686931
1227 4 0.140185 0.105128 0.704065
851 4 0.0898633 0.15782 0.706536
1225 2 0.150491 0.0941852 0.724046
1107 4 0.108249 0.16048 0.704272
1149 4 0.223188 0.0899466 0.746074
888 4 0.276288 0.16558 0.667739
830 4 0.326361 0.152006 0.70591
978 4 0.317922 0.158974 0.721359
887 4 0.306368 0.154963 0.706252
886 2 0.291328 0.160272 0.686995
831 4 0.366498 0.126299 0.721037
1141 2 0.399969 0.153248 0.716432
829 2 0.346429 0.139153 0.713473
1142 4 0.382909 0.136445 0.723629
43 3 0.424686 0.096745 0.678636
1025 4 0.475114 0.156943 0.694977
3424 2 0.470478 0.117677 0.686856
3426 4 0.46438 0.0969377 0.674291
3425 4 0.476576 0.138416 0.699421
3269 4 0.492061 0.150624 0.702541
3268 2 0.499412 0.163098 0.722926
3179 4 0.0145154 0.170317 0.683528
852 4 0.0476228 0.173731 0.728061
1245 4 0.0813444 0.203336 0.670575
1209 4 0.0811703 0.217539 0.685245
1207 2 0.0852423 0.239888 0.695692
1213 2 0.0192644 0.173269 0.741317
1215 4 0.00182847 0.190002 0.747735
1105 2 0.119968 0.181523 0.710982
1106 4 0.131687 0.202567 0.717692
1130 4 0.127532 0.200553 0.737731
1129 2 0.143868 0.215651 0.749149
1211 4 0.258631 0.173739 0.668954
976 2 0.315019 0.177765 0.737597
977 4 0.312117 0.196555 0.753835
1194 4 0.389047 0.232512 0.721394
1192 2 0.366908 0.236972 0.732125
1143 4 0.417029 0.170051 0.709235
1024 2 0.452812 0.168174 0.696272
1026 4 0.43051 0.179405 0.697568
1261 2 0.428121 0.199949 0.731659
1262 4 0.419801 0.189238 0.710654
3262 2 0.0391076 0.324279 0.679457
3264 4 0.0308676 0.315796 0.701487
779 4 0.0381641 0.313619 0.719252
893 4 0.0285903 0.330458 0.714619
778 2 0.058344 0.307104 0.732499
780 4 0.0785239 0.300588 0.745747
1208 4 0.0893142 0.262237 0.706139
1065 4 0.21253 0.289372 0.739632
1063 2 0.232493 0.283924 0.725597
946 2 0.247549 0.283818 0.668336
948 4 0.248299 0.279821 0.693006
1064 4 0.252456 0.278476 0.711563
1008 4 0.432187 0.311596 0.715943
1006 2 0.436228 0.297682 0.73632
892 2 0.0269341 0.352181 0.726889
894 4 0.0252779 0.373904 0.739159
816 4 0.0405553 0.38619 0.739305
814 2 0.0637234 0.39365 0.745029
1066 2 0.160993 0.39698 0.694883
1067 4 0.139636 0.398314 0.707816
940 2 0.114806 0.406347 0.727941
942 4 0.106655 0.403942 0.751456
941 4 0.122958 0.408753 0.704426
1068 4 0.18235 0.395646 0.681949
1027 2 0.215888 0.402508 0.675703
1028 4 0.199375 0.38644 0.685414
1176 4 0.175383 0.464605 0.717551
1029 4 0.232401 0.418576 0.665991
1175 4 0.187146 0.482907 0.672525
1174 2 0.181264 0.473756 0.695038
1140 4 0.270414 0.464656 0.7046
1138 2 0.295106 0.466452 0.708097
1139 4 0.319799 0.468248 0.711594
1019 4 0.410066 0.426613 0.744243
1230 4 0.403462 0.469227 0.724877
1228 2 0.382816 0.469441 0.73898
1100 4 0.422749 0.465731 0.725459
1101 4 0.465458 0.441319 0.734443
1099 2 0.444104 0.453525 0.729951
3330 4 0.483903 0.439325 0.727261
1251 4 0.481321 0.445636 0.745559
1295 4 0.0281958 0.00399483 0.779232
1296 4 0.0263591 0.0534358 0.786507
1294 2 0.0272775 0.0287153 0.782869
1201 2 0.156839 0.0541216 0.773669
1202 4 0.156981 0.0325393 0.786293
1203 4 0.156698 0.0757038 0.761045
2255 4 0.230083 0.0241353 0.746052
2254 2 0.211865 0.0273866 0.762866
2049 4 0.175961 0.0230719 0.787844
2256 4 0.193647 0.030638 0.77968
1113 4 0.38395 0.0537172 0.817823
1111 2 0.391781 0.0741007 0.830004
2442 4 0.469741 0.0116737 0.760871
980 4 0.455844 0.00869132 0.79487
2321 4 0.461912 0.0191377 0.777757
2322 4 0.460931 0.0688617 0.78298
2320 2 0.461422 0.0439997 0.780368
846 4 0.457076 0.0695366 0.80173
1077 4 0.0411904 0.0878223 0.756556
864 4 0.0543025 0.0922361 0.771627
862 2 0.049839 0.110304 0.788325
863 4 0.0453754 0.128372 0.805022
832 2 0.0114438 0.138075 0.830207
833 4 0.0288373 0.135173 0.81248
1125 4 0.0426778 0.147588 0.805467
31 1 0.13369 0.130112 0.809263
35 3 0.140038 0.110068 0.800511
33 3 0.112056 0.12865 0.817522
32 3 0.147869 0.135685 0.826499
34 3 0.134852 0.146591 0.792969
1148 4 0.175256 0.0815991 0.757627
1147 2 0.199222 0.0857729 0.751851
1257 4 0.237134 0.0836657 0.759988
1255 2 0.249808 0.0963123 0.777442
1256 4 0.262482 0.108959 0.794895
840 4 0.279196 0.120225 0.799494
838 2 0.287326 0.130131 0.820965
844 2 0.46195 0.093989 0.803603
845 4 0.466823 0.118441 0.805476
1123 2 0.0524033 0.170616 0.806027
1124 4 0.0621288 0.193644 0.806587
1072 2 0.0573877 0.222753 0.789343
1073 4 0.0537542 0.211435 0.811341
1074 4 0.0610212 0.23407 0.767346
822 4 0.155108 0.248329 0.766143
1131 4 0.160205 0.230748 0.760567
1277 4 0.173164 0.242569 0.77039
1276 2 0.178601 0.231305 0.79204
1278 4 0.184038 0.220042 0.813691
920 4 0.184005 0.20295 0.823821
1241 4 0.181385 0.219348 0.832956
917 4 0.267588 0.237694 0.755341
916 2 0.287902 0.224218 0.7609
918 4 0.308217 0.210742 0.766458
1298 4 0.326113 0.207577 0.758985
1193 4 0.344768 0.241432 0.742855
1297 2 0.33624 0.207154 0.781843
1299 4 0.346367 0.20673 0.8047
50 3 0.400289 0.202655 0.782089
1086 4 0.357881 0.201764 0.819616
49 3 0.416822 0.233516 0.795941
1043 4 0.403486 0.249328 0.79229
1084 2 0.361258 0.180484 0.832302
1263 4 0.436441 0.210661 0.752664
1146 4 0.497474 0.187366 0.755931