ITEM: TIMESTEP
750000
ITEM: NUMBER OF ATOMS
4590
ITEM: BOX BOUNDS pp pp pp
-9.9985700000000008e+00 9.9985700000000008e+00
-9.9985700000000008e+00 9.9985700000000008e+00
-9.9985700000000008e+00 9.9985700000000008e+00
ITEM: ATOMS id type xs ys zs
463 2 0.0347083 0.0694125 0.0269691
464 4 0.0122087 0.0585162 0.0265033
465 4 0.057208 0.0803088 0.0274349
701 4 0.0673842 0.0783099 0.0432597
491 4 0.279076 0.0106851 0.0341862
558 4 0.352138 0.0606223 0.0388163
556 2 0.355219 0.065472 0.0631508
745 2 0.470014 0.0516912 0.00659105
746 4 0.483539 0.0447977 0.0264587
589 2 0.0164339 0.135529 0.0646748
591 4 0.00491745 0.127577 0.0439548
421 2 0.0838115 0.14098 0.00818936
700 2 0.0837115 0.0968703 0.0470162
702 4 0.100039 0.115431 0.0507726
566 4 0.11826 0.10735 0.0460153
565 2 0.143019 0.106267 0.0426972
423 4 0.101548 0.132091 0.0234068
567 4 0.167778 0.105185 0.0393792
360 4 0.265043 0.154937 0.0156276
358 2 0.274926 0.134575 0.00500267
1013 4 0.480545 0.164729 0.0391586
553 2 0.049798 0.201003 0.0223412
554 4 0.041382 0.17934 0.0315622
836 4 0.0751166 0.213096 0.00728118
555 4 0.0582141 0.222667 0.0131202
915 4 0.126726 0.220064 0.987863
835 2 0.0999991 0.215504 0.0077705
666 4 0.334192 0.224699 0.0239159
664 2 0.329584 0.20601 0.00795708
573 4 0.320134 0.236159 0.0312897
571 2 0.298513 0.248678 0.0303019
461 4 0.331622 0.226501 0.0430925
460 2 0.345366 0.22346 0.0637576
462 4 0.35911 0.22042 0.0844227
1014 4 0.484587 0.214288 0.0338375
1012 2 0.482566 0.189508 0.036498
324 4 0.422553 0.249939 0.0507916
292 2 0.123683 0.301026 0.05258
293 4 0.142226 0.292071 0.0667624
294 4 0.10514 0.309981 0.0383976
507 4 0.159767 0.278597 0.0638142
505 2 0.180484 0.288271 0.073933
355 2 0.244876 0.282866 0.0179747
357 4 0.223455 0.295308 0.0213657
481 2 0.237104 0.315905 0.0856171
356 4 0.266298 0.270425 0.0145836
572 4 0.276891 0.261197 0.0293141
482 4 0.261584 0.318561 0.0812753
1069 2 0.417883 0.25617 0.0146616
957 4 0.370774 0.329134 0.00469433
1071 4 0.432594 0.255314 0.0348615
322 2 0.434539 0.265169 0.0665895
670 2 0.453161 0.318783 0.064513
519 4 0.473755 0.257958 0.0688325
323 4 0.446525 0.280398 0.0823874
672 4 0.448414 0.294682 0.0691769
287 4 0.138869 0.348353 0.997848
455 4 0.119111 0.381965 0.062562
286 2 0.152351 0.369384 0.9989
609 4 0.270478 0.335796 0.0880737
252 4 0.28137 0.393222 0.0576783
250 2 0.29456 0.412892 0.0496599
608 4 0.285926 0.381396 0.0745537
607 2 0.278202 0.358596 0.0813137
671 4 0.457908 0.342885 0.0598492
281 4 0.454348 0.362347 0.0529046
280 2 0.46756 0.367641 0.0323472
282 4 0.480771 0.372935 0.0117897
551 4 0.0893427 0.423735 0.0538826
550 2 0.0890989 0.446994 0.0630549
552 4 0.088855 0.470253 0.0722271
1787 4 0.101263 0.485586 0.0768595
625 2 0.207745 0.448615 0.0790038
245 4 0.241463 0.474291 0.0783675
626 4 0.190316 0.432311 0.0715463
244 2 0.249266 0.487933 0.0589205
627 4 0.225173 0.464919 0.0864613
251 4 0.307749 0.432562 0.0416416
271 2 0.265626 0.482292 0.00523494
272 4 0.253339 0.497915 0.0204054
525 4 0.369472 0.458156 0.0635438
227 4 0.464755 0.465703 0.0710754
226 2 0.472736 0.450624 0.0893541
16 1 0.0367372 0.0762341 0.147873
17 3 0.058303 0.0819021 0.142221
18 3 0.0336903 0.0535544 0.144032
1667 4 0.10298 0.00950135 0.088761
1804 2 0.0887321 0.997603 0.146901
1506 4 0.230474 0.018206 0.163266
652 2 0.301491 0.0115979 0.130205
653 4 0.289267 0.0334079 0.130486
557 4 0.3583 0.0703216 0.0874853
296 4 0.36466 0.0538355 0.096804
295 2 0.365556 0.0318656 0.108708
297 4 0.366452 0.00989558 0.120611
2724 4 0.499782 0.000914836 0.158214
20 3 0.0222249 0.0882933 0.135121
590 4 0.0279503 0.14348 0.0853948
237 4 0.154856 0.159953 0.163154
235 2 0.164783 0.13735 0.159191
236 4 0.17471 0.114746 0.155229
283 2 0.268945 0.165644 0.1462
284 4 0.287596 0.149312 0.142944
770 4 0.44086 0.143097 0.0703529
769 2 0.456745 0.159202 0.0810051
312 4 0.411473 0.124566 0.162673
337 2 0.068842 0.232162 0.139138
339 4 0.0462874 0.232705 0.12836
338 4 0.0913966 0.231618 0.149917
476 4 0.132507 0.19482 0.112419
475 2 0.119281 0.212032 0.124827
477 4 0.106054 0.229245 0.137236
737 4 0.152622 0.196139 0.106658
363 4 0.0815406 0.233142 0.166963
738 4 0.191818 0.226529 0.11305
736 2 0.17222 0.211334 0.109854
285 4 0.250294 0.181975 0.149456
354 4 0.316293 0.25538 0.111702
254 4 0.385219 0.19906 0.130506
255 4 0.351482 0.20504 0.0940818
253 2 0.368351 0.20205 0.112294
630 4 0.40372 0.191543 0.12668
771 4 0.47263 0.175307 0.0916572
629 4 0.449266 0.205042 0.142302
628 2 0.426493 0.198292 0.134491
2895 4 0.497735 0.229019 0.111574
518 4 0.489007 0.245542 0.11481
483 4 0.212624 0.31325 0.0899589
506 4 0.201201 0.297945 0.0840519
352 2 0.304295 0.269543 0.128454
353 4 0.292297 0.283706 0.145206
754 2 0.296168 0.325749 0.143343
755 4 0.29782 0.301746 0.150148
278 4 0.279897 0.293739 0.15586
741 4 0.354305 0.328251 0.0789642
517 2 0.481381 0.25175 0.0918213
330 4 0.999116 0.406877 0.0710441
620 4 0.00446435 0.357176 0.0951982
647 4 0.0178391 0.349823 0.108078
646 2 0.0407649 0.357134 0.11487
648 4 0.0636907 0.364445 0.121662
456 4 0.117664 0.361803 0.108302
454 2 0.118388 0.371884 0.0854318
537 4 0.229246 0.394721 0.156509
535 2 0.210698 0.384159 0.143487
536 4 0.19215 0.373597 0.130465
756 4 0.294516 0.349752 0.136539
612 4 0.285984 0.366695 0.14332
610 2 0.26279 0.371663 0.151228
739 2 0.365581 0.337127 0.0994401
387 4 0.331248 0.37446 0.157493
740 4 0.376856 0.346003 0.119916
15 3 0.387698 0.350161 0.135634
385 2 0.351563 0.367701 0.144577
386 4 0.371877 0.360942 0.131661
11 1 0.405479 0.364156 0.133055
14 3 0.398522 0.384114 0.123479
495 4 0.383461 0.396857 0.116812
13 3 0.415367 0.368269 0.153638
12 3 0.42096 0.354265 0.119211
597 4 0.470611 0.418385 0.16557
1467 4 0.0167262 0.457139 0.122658
1465 2 0.0262403 0.479505 0.128527
1791 4 0.0525959 0.500127 0.144484
242 4 0.121162 0.487686 0.0757708
241 2 0.141857 0.501018 0.080149
524 4 0.350798 0.48884 0.0983359
523 2 0.360135 0.473498 0.0809399
658 2 0.402874 0.470565 0.16228
493 2 0.387419 0.420978 0.122077
660 4 0.394931 0.455403 0.144054
494 4 0.391377 0.445098 0.127342
228 4 0.480717 0.435545 0.107633
595 2 0.478929 0.441572 0.169851
2480 4 0.00523942 0.0216819 0.183499
1404 4 0.0658548 0.00551825 0.235112
19 3 0.0333734 0.0809863 0.170334
1806 4 0.0802025 0.99299 0.169948
1422 4 0.00661034 0.00305929 0.177084
673 2 0.129569 0.0750042 0.215335
674 4 0.150775 0.0779977 0.22824
675 4 0.108364 0.0720106 0.20243
1504 2 0.210038 0.0322127 0.166636
450 4 0.172206 0.0517524 0.176508
1505 4 0.189602 0.0462193 0.170006
448 2 0.173356 0.0763971 0.172446
688 2 0.207176 0.998608 0.245046
28 3 0.327834 0.0811235 0.239043
758 4 0.40158 0.0716629 0.170129
21 1 0.366941 0.0226633 0.23581
25 3 0.379867 0.0377485 0.224673
759 4 0.38636 0.0415886 0.207069
757 2 0.39397 0.0566257 0.188599
22 3 0.353793 0.0113417 0.220707
24 3 0.380406 0.0074014 0.246954
744 4 0.461605 0.0346504 0.248484
351 4 0.448608 0.0409908 0.235366
349 2 0.432787 0.0602956 0.236845
350 4 0.416965 0.0796004 0.238324
380 4 0.0325612 0.0982485 0.179748
512 4 0.0120641 0.15628 0.195228
379 2 0.0233445 0.11797 0.192048
381 4 0.0141278 0.137691 0.204348
579 4 0.0812563 0.09465 0.184607
577 2 0.0898979 0.118112 0.184457
578 4 0.0985394 0.141575 0.184307
449 4 0.174507 0.101042 0.168385
693 4 0.191175 0.111456 0.164858
691 2 0.215425 0.113538 0.170582
692 4 0.239675 0.115619 0.176307
723 4 0.20814 0.124883 0.213889
721 2 0.196552 0.1415 0.228544
722 4 0.184965 0.158117 0.2432
582 4 0.253546 0.12566 0.189695
580 2 0.271694 0.116863 0.204474
581 4 0.289842 0.108066 0.219253
30 3 0.307704 0.101295 0.214435
26 1 0.320856 0.10241 0.232994
27 3 0.339362 0.115279 0.228404
310 2 0.424047 0.130888 0.183339
311 4 0.436621 0.137211 0.204005
511 2 0.0309146 0.171963 0.200113
513 4 0.0497652 0.187647 0.204998
362 4 0.114166 0.218554 0.201942
361 2 0.0978531 0.225848 0.184453
372 4 0.131659 0.225449 0.19925
370 2 0.144943 0.231093 0.219668
371 4 0.158227 0.236736 0.240085
763 2 0.3627 0.23441 0.17926
765 4 0.350266 0.22001 0.163036
520 2 0.495896 0.214365 0.225143
521 4 0.472611 0.223442 0.22593
395 4 0.0431648 0.26176 0.23082
750 4 0.0592049 0.272206 0.224706
748 2 0.0746237 0.291213 0.219593
749 4 0.0900425 0.310221 0.21448
279 4 0.247487 0.29365 0.193942
277 2 0.263692 0.293695 0.174901
307 2 0.31147 0.259061 0.21541
308 4 0.300048 0.255049 0.237287
309 4 0.322893 0.263073 0.193533
764 4 0.375135 0.24881 0.195484
623 4 0.390768 0.25672 0.184612
622 2 0.405341 0.275638 0.192021
624 4 0.419913 0.294557 0.19943
528 4 0.440233 0.295846 0.19674
527 4 0.481655 0.268889 0.204371
526 2 0.460944 0.282367 0.200555
263 4 0.0718954 0.408863 0.240454
262 2 0.0613418 0.418681 0.220023
264 4 0.0507883 0.428499 0.199593
300 4 0.138961 0.342496 0.219169
298 2 0.138602 0.365042 0.229973
611 4 0.239596 0.376631 0.159136
290 4 0.224452 0.404087 0.224936
302 4 0.320867 0.384113 0.170408
301 2 0.312092 0.398696 0.188725
303 4 0.303317 0.413279 0.207042
645 4 0.466687 0.397666 0.167394
643 2 0.458318 0.384157 0.186698
644 4 0.44995 0.370648 0.206002
447 4 0.468565 0.361028 0.20767
445 2 0.487296 0.357421 0.223835
446 4 0.506027 0.353814 0.240001
417 4 0.154595 0.48019 0.198097
415 2 0.169417 0.461469 0.205514
1430 4 0.165132 0.495998 0.205396
289 2 0.213209 0.426166 0.221571
291 4 0.201967 0.448244 0.218206
416 4 0.18424 0.442748 0.21293
766 2 0.269588 0.485614 0.172743
768 4 0.26738 0.462813 0.182763
659 4 0.410817 0.485727 0.180507
231 4 0.425428 0.486955 0.194724
596 4 0.487246 0.46476 0.174132
1568 4 0.492303 0.481525 0.185436
1800 4 0.0258574 0.00484655 0.340228
1798 2 0.0281649 0.00904568 0.315687
1799 4 0.0304723 0.0132448 0.291147
233 4 0.0213562 0.024956 0.278491
1402 2 0.0489556 0.00855144 0.253289
1403 4 0.0320565 0.0115846 0.271466
232 2 0.0064043 0.0444323 0.27377
689 4 0.21042 0.0233874 0.245856
1699 2 0.215415 0.0567247 0.294853
1701 4 0.202685 0.0354871 0.291378
1700 4 0.228146 0.0779623 0.298327
1516 2 0.37943 0.0123907 0.294113
23 3 0.353214 0.0336506 0.25095
697 2 0.384255 0.0642818 0.312442
699 4 0.385635 0.0497173 0.292166
1518 4 0.371848 0.0360384 0.297024
742 2 0.480883 0.0204456 0.25568
478 2 0.461795 0.0326209 0.322165
479 4 0.476489 0.0156744 0.311116
398 4 0.106643 0.14456 0.324967
544 2 0.148808 0.168812 0.262634
248 4 0.222407 0.0910888 0.312772
249 4 0.225691 0.138612 0.297558
247 2 0.224049 0.11485 0.305165
404 4 0.218227 0.158126 0.297125
546 4 0.167231 0.156497 0.251053
403 2 0.200653 0.160391 0.279485
405 4 0.183079 0.162655 0.261844
29 3 0.309091 0.112151 0.250461
698 4 0.382875 0.0788464 0.332719
333 4 0.429108 0.142772 0.308927
331 2 0.4525 0.151148 0.306125
332 4 0.475892 0.159524 0.303323
444 4 0.0184473 0.247677 0.331933
393 4 0.0895892 0.221969 0.268986
392 4 0.132088 0.19691 0.260827
391 2 0.110839 0.20944 0.264907
545 4 0.130385 0.181127 0.274215
378 4 0.275633 0.210779 0.316857
418 2 0.403052 0.192824 0.328702
419 4 0.402405 0.168995 0.321156
760 2 0.499608 0.185239 0.287987
762 4 0.483182 0.166502 0.28592
394 2 0.035939 0.266525 0.254278
396 4 0.0287132 0.271291 0.277735
442 2 0.0186933 0.263003 0.312178
443 4 0.0189393 0.278329 0.292424
364 2 0.0181106 0.313032 0.281047
365 4 0.0179747 0.288497 0.276231
401 4 0.190909 0.260538 0.268793
345 4 0.226426 0.299046 0.30357
400 2 0.199974 0.279532 0.282291
402 4 0.209039 0.298527 0.295789
510 4 0.21345 0.312656 0.308505
508 2 0.208157 0.327815 0.327672
343 2 0.249486 0.304108 0.295338
344 4 0.272547 0.309169 0.287106
498 4 0.40335 0.269626 0.302481
496 2 0.382055 0.280987 0.295951
497 4 0.36076 0.292347 0.28942
543 4 0.412265 0.343451 0.311567
542 4 0.450278 0.312363 0.30212
541 2 0.431272 0.327907 0.306843
602 4 0.0807177 0.415818 0.258013
2493 4 0.00820528 0.344556 0.302435
366 4 0.0182464 0.337567 0.285863
299 4 0.138243 0.387589 0.240777
601 2 0.102779 0.404255 0.255828
603 4 0.12484 0.392691 0.253642
734 4 0.143969 0.394618 0.257455
733 2 0.157725 0.394016 0.278327
735 4 0.17148 0.393413 0.299198
677 4 0.185115 0.39984 0.314075
676 2 0.193483 0.381628 0.329024
727 2 0.328711 0.378068 0.289249
728 4 0.322355 0.368324 0.311382
438 4 0.277631 0.418344 0.254933
729 4 0.335066 0.387811 0.267117
615 4 0.400251 0.340801 0.327042
613 2 0.384025 0.358509 0.320089
614 4 0.3678 0.376216 0.313136
2538 4 0.472256 0.398438 0.325196
2536 2 0.477895 0.403577 0.301385
2537 4 0.483534 0.408716 0.277574
753 4 0.46508 0.381251 0.330767
549 4 0.0452206 0.430904 0.30965
547 2 0.0438023 0.416197 0.329821
777 4 0.101449 0.4406 0.295005
775 2 0.120048 0.456563 0.290061
776 4 0.138647 0.472526 0.285118
414 4 0.143234 0.471526 0.304244
412 2 0.156302 0.484897 0.320845
413 4 0.16937 0.498269 0.337446
437 4 0.271395 0.441347 0.298896
436 2 0.274513 0.429846 0.276915
2860 2 0.48653 0.464743 0.257409
2862 4 0.463595 0.471558 0.264668
594 4 0.433175 0.471733 0.315593
732 4 0.106738 0.0980886 0.416963
367 2 0.0845725 0.0131884 0.404965
605 4 0.166066 0.0619449 0.37855
604 2 0.188094 0.0723605 0.384159
441 4 0.328084 0.00899044 0.364112
258 4 0.413058 0.0548157 0.387944
256 2 0.405116 0.0644429 0.366278
257 4 0.397174 0.0740701 0.344612
480 4 0.447101 0.0495675 0.333214
426 4 0.419679 0.0512537 0.406069
318 4 0.0253002 0.0976149 0.35096
316 2 0.0457484 0.10214 0.36462
317 4 0.0661966 0.106665 0.378279
457 2 0.0367717 0.151179 0.39503
458 4 0.0471895 0.129402 0.401542
730 2 0.11303 0.0969546 0.392791
397 2 0.107281 0.125324 0.340927
399 4 0.107918 0.106087 0.356887
731 4 0.119322 0.0958205 0.368618
599 4 0.172823 0.15821 0.386485
606 4 0.210122 0.082776 0.389768
600 4 0.204035 0.147172 0.349005
598 2 0.188429 0.152691 0.367745
683 4 0.293283 0.0989952 0.363271
682 2 0.288336 0.0980967 0.387764
684 4 0.28339 0.0971982 0.412256
320 4 0.287864 0.113954 0.420416
632 4 0.355735 0.12669 0.349587
631 2 0.373885 0.10985 0.346095
633 4 0.392034 0.0930094 0.342604
516 4 0.415384 0.141891 0.380086
575 4 0.406598 0.151348 0.395565
451 2 0.484997 0.158119 0.36227
514 2 0.429292 0.159072 0.368401
459 4 0.0263539 0.172956 0.388518
2653 2 0.00256157 0.209029 0.38757
2654 4 0.0224612 0.194212 0.390673
390 4 0.0659487 0.245846 0.343874
388 2 0.08214 0.226799 0.344342
389 4 0.0983313 0.207751 0.344809
685 2 0.153229 0.186902 0.412305
473 4 0.251546 0.176537 0.357344
687 4 0.164074 0.173701 0.39405
377 4 0.321697 0.217446 0.335144
376 2 0.298665 0.214112 0.326001
474 4 0.267404 0.192308 0.402071
472 2 0.259475 0.184423 0.379707
488 4 0.2761 0.210605 0.406951
487 2 0.288869 0.232098 0.407389
717 4 0.394505 0.225277 0.351774
707 4 0.340644 0.221092 0.34011
420 4 0.403699 0.216653 0.336249
706 2 0.348682 0.197642 0.343375
708 4 0.356721 0.174191 0.346639
715 2 0.383382 0.244939 0.362491
515 4 0.443201 0.176252 0.356716
453 4 0.462747 0.168996 0.358839
618 4 0.0695871 0.316822 0.406196
347 4 0.0505973 0.313063 0.401847
616 2 0.0849456 0.323673 0.387693
275 4 0.132829 0.317717 0.393044
274 2 0.148325 0.301856 0.381491
276 4 0.163822 0.285994 0.369939
617 4 0.100304 0.330524 0.36919
373 2 0.204157 0.30004 0.382697
374 4 0.226063 0.311499 0.386442
375 4 0.182252 0.288581 0.378951
716 4 0.372259 0.264601 0.373208
406 2 0.0576774 0.399648 0.383302
408 4 0.0766274 0.391478 0.397421
548 4 0.0423839 0.401491 0.349992
407 4 0.0387274 0.407817 0.369183
678 4 0.20185 0.363415 0.343973
509 4 0.202864 0.342974 0.346838
504 4 0.236522 0.392414 0.404634
435 4 0.242706 0.378039 0.334024
433 2 0.260773 0.390772 0.345714
434 4 0.27884 0.403505 0.357403
561 4 0.449895 0.371815 0.395993
752 4 0.458133 0.381783 0.380287
559 2 0.470107 0.367453 0.41005
751 2 0.461606 0.381517 0.355527
499 2 0.158992 0.495062 0.382517
500 4 0.183858 0.49294 0.38406
668 4 0.287018 0.469818 0.40608
1 1 0.313717 0.501655 0.402838
3 3 0.323681 0.498426 0.382133
593 4 0.415039 0.494009 0.356527
592 2 0.424107 0.482871 0.33606
1772 4 0.035106 0.989383 0.426789
718 2 0.0407925 0.0715945 0.467297
720 4 0.0293348 0.0499082 0.472155
2237 4 0.0310314 0.0304179 0.470798
2236 2 0.0285693 0.00560927 0.468888
1127 4 0.0230987 0.0382877 0.486852
369 4 0.0704202 0.0273882 0.419907
1522 2 0.104762 0.996203 0.492126
1180 2 0.240195 0.0781524 0.477001
1182 4 0.258218 0.0615796 0.482068
726 4 0.30262 0.0587807 0.43485
724 2 0.300382 0.0578984 0.459737
432 4 0.313008 0.0568678 0.495829
725 4 0.298144 0.057016 0.484625
963 4 0.300169 0.0415911 0.496846
424 2 0.400111 0.0435277 0.419583
425 4 0.380544 0.0358018 0.433096
2879 4 0.463093 0.0682124 0.501833
719 4 0.0522503 0.0932808 0.462439
1033 2 0.117803 0.15071 0.478186
1181 4 0.222171 0.0947252 0.471934
411 4 0.257121 0.147958 0.464692
321 4 0.307904 0.119361 0.465912
319 2 0.297884 0.116658 0.443164
574 2 0.400998 0.151881 0.419927
576 4 0.395399 0.152413 0.44429
2880 4 0.477432 0.0937926 0.461327
2878 2 0.470263 0.0810025 0.48158
642 4 0.483753 0.110857 0.454753
640 2 0.46607 0.127554 0.448948
641 4 0.448387 0.144251 0.443143
306 4 0.441015 0.159081 0.432606
3158 4 0.465144 0.159237 0.504148
469 2 0.010284 0.193653 0.481699
470 4 0.0287645 0.176938 0.483757
260 4 0.116996 0.232837 0.453473
261 4 0.129583 0.185711 0.464492
259 2 0.12329 0.209274 0.458982
1035 4 0.129072 0.165381 0.461366
686 4 0.142383 0.200103 0.430561
695 4 0.101417 0.24379 0.459749
409 2 0.264575 0.169279 0.475417
410 4 0.272029 0.1906 0.486143
466 2 0.381688 0.222423 0.414773
467 4 0.371898 0.199416 0.414678
3159 4 0.494702 0.189617 0.477613
305 4 0.452993 0.206005 0.445072
304 2 0.447004 0.182543 0.438839
3157 2 0.479923 0.174427 0.49088
346 2 0.0486517 0.309094 0.426457
326 4 0.0635118 0.313839 0.457003
348 4 0.0467062 0.305126 0.451067
694 2 0.100722 0.254839 0.482169
651 4 0.22284 0.283038 0.512192
649 2 0.245801 0.291903 0.507793
489 4 0.301638 0.25359 0.407826
650 4 0.268763 0.300768 0.503394
266 4 0.320669 0.249162 0.452294
468 4 0.391478 0.24543 0.414869
267 4 0.365758 0.270651 0.449853
265 2 0.343213 0.259907 0.451074
584 4 0.488047 0.283224 0.474398
583 2 0.466185 0.278621 0.485625
585 4 0.444323 0.274018 0.496852
325 2 0.07598 0.333206 0.466731
2813 4 0.0071008 0.375921 0.472714
10 3 0.149534 0.340278 0.458932
7 3 0.127255 0.36131 0.480244
327 4 0.0884482 0.352574 0.476459
6 1 0.148998 0.354836 0.476437
8 3 0.161666 0.373636 0.471491
9 3 0.157215 0.344549 0.495544
711 4 0.172803 0.376641 0.454465
709 2 0.189837 0.390336 0.466608
710 4 0.206872 0.404031 0.478751
774 4 0.221945 0.412284 0.488343
336 4 0.288457 0.376824 0.423542
334 2 0.312224 0.383338 0.427773
502 2 0.247587 0.390675 0.426988
503 4 0.258651 0.388935 0.449343
588 4 0.400229 0.417173 0.465808
586 2 0.415537 0.402855 0.47944
335 4 0.33599 0.389853 0.432004
238 2 0.360781 0.396203 0.455144
240 4 0.338371 0.385664 0.451694
587 4 0.430844 0.388537 0.493073
560 4 0.49032 0.363092 0.424107
2507 4 0.501053 0.378825 0.43031
1381 2 0.0373757 0.497495 0.43117
679 2 0.0538337 0.452417 0.460969
1383 4 0.0320645 0.473199 0.433749
681 4 0.0725265 0.43736 0.467974
680 4 0.035141 0.467473 0.453964
382 2 0.112589 0.43693 0.450557
568 2 0.161533 0.474596 0.448586
383 4 0.0907972 0.432133 0.46184
569 4 0.149624 0.454555 0.439548
384 4 0.13438 0.441727 0.439275
635 4 0.208231 0.423074 0.480092
634 2 0.217168 0.446248 0.477213
636 4 0.226106 0.469421 0.474333
880 2 0.318665 0.491756 0.492319
667 2 0.290003 0.449464 0.420292
882 4 0.294885 0.497879 0.487611
669 4 0.292988 0.42911 0.434504
4 3 0.302315 0.48248 0.409219
239 4 0.383191 0.406741 0.458594
881 4 0.342446 0.485633 0.497027
663 4 0.455551 0.455509 0.483188
1126 2 0.0136693 0.0408552 0.509867
1128 4 0.00423983 0.0434227 0.532882
1057 2 0.136448 0.0807207 0.573128
1058 4 0.129147 0.058775 0.582628
1523 4 0.105275 0.0206652 0.486976
340 2 0.1849 0.0652822 0.505233
2428 2 0.202678 0.0174673 0.529395
2430 4 0.185958 0.0340776 0.521045
341 4 0.18809 0.0406968 0.501983
430 2 0.319414 0.0743528 0.512515
950 4 0.327175 0.0339112 0.58685
961 2 0.292581 0.0179182 0.499531
949 2 0.306037 0.0471015 0.584758
951 4 0.284899 0.0602918 0.582665
1217 4 0.378871 0.0503575 0.561895
1216 2 0.390814 0.0285159 0.559552
842 4 0.38329 0.0700945 0.557814
1218 4 0.402757 0.00667422 0.557208
938 4 0.0897264 0.129239 0.553607
937 2 0.0907985 0.127246 0.528706
939 4 0.0918707 0.125253 0.503805
1151 4 0.158814 0.113198 0.556658
1059 4 0.143749 0.102666 0.563627
1155 4 0.157052 0.110486 0.576117
1034 4 0.106535 0.136038 0.495007
342 4 0.18171 0.0898676 0.508482
1150 2 0.174282 0.109312 0.537402
1152 4 0.189749 0.105425 0.518145
431 4 0.32582 0.0918378 0.529201
841 2 0.362913 0.0817871 0.549256
843 4 0.342536 0.0934797 0.540698
878 4 0.0323478 0.211326 0.555316
1199 4 0.0199422 0.22508 0.545268
877 2 0.0558861 0.208047 0.563086
879 4 0.0794243 0.204768 0.570857
1272 4 0.0833849 0.193749 0.587059
858 4 0.257312 0.193542 0.547256
857 4 0.290741 0.211392 0.579884
856 2 0.274026 0.202467 0.56357
898 2 0.297833 0.193067 0.517881
791 4 0.293624 0.22838 0.56959
899 4 0.319096 0.190761 0.530834
900 4 0.276571 0.195374 0.504928
873 4 0.383637 0.243225 0.508394
983 4 0.0754138 0.330214 0.579577
1258 2 0.127929 0.291588 0.50634
1259 4 0.138399 0.312245 0.515765
1260 4 0.117459 0.270931 0.496914
696 4 0.100027 0.265887 0.504588
790 2 0.306543 0.249427 0.573499
811 2 0.297921 0.317047 0.497227
804 4 0.266949 0.336189 0.489383
812 4 0.273516 0.31712 0.491789
813 4 0.322326 0.316975 0.502666
871 2 0.403197 0.253863 0.51977
872 4 0.422758 0.264501 0.531146
1239 4 0.354653 0.314442 0.579575
954 4 0.501636 0.310236 0.57898
897 4 0.148148 0.365338 0.576032
1137 4 0.130541 0.373552 0.581634
895 2 0.17094 0.374714 0.580254
1189 2 0.224577 0.378234 0.559986
773 4 0.23562 0.383327 0.526751
1190 4 0.23702 0.36948 0.540144
803 4 0.242234 0.365762 0.521247
772 2 0.228782 0.397806 0.507547
1191 4 0.212133 0.386988 0.579828
802 2 0.254591 0.350976 0.505315
896 4 0.193732 0.384089 0.584476
930 4 0.334942 0.38118 0.525858
928 2 0.31069 0.386796 0.528202
929 4 0.286438 0.392411 0.530545
927 4 0.42552 0.369061 0.552275
925 2 0.42577 0.382853 0.531421
926 4 0.426021 0.396645 0.510567
2243 4 0.149983 0.485418 0.545545
1161 4 0.167408 0.489165 0.556779
1159 2 0.179078 0.478232 0.576001
889 2 0.324239 0.449008 0.56901
1952 4 0.357199 0.490516 0.510528
1002 4 0.39496 0.431764 0.528811
1000 2 0.412609 0.448483 0.534659
890 4 0.342343 0.462206 0.557909
1001 4 0.430258 0.465201 0.540507
662 4 0.457123 0.47634 0.528623
661 2 0.456337 0.465924 0.505906
1911 4 0.449152 0.468801 0.545426
1909 2 0.449046 0.479653 0.567951
1332 4 0.473423 0.48492 0.537197
943 2 0.0833241 0.0146093 0.636642
944 4 0.102155 0.0305637 0.632637
825 4 0.119357 0.0208112 0.63472
823 2 0.140437 0.00956635 0.642095
1030 2 0.244924 0.0682001 0.587717
1032 4 0.224332 0.0815224 0.59258
1031 4 0.265517 0.0548779 0.582854
1092 4 0.313798 0.00566115 0.661094
45 3 0.440146 0.0718921 0.664189
1081 2 0.0176942 0.130479 0.647332
3179 4 0.997708 0.154633 0.652117
1082 4 0.0316358 0.114877 0.661021
1153 2 0.15664 0.133901 0.584876
1154 4 0.156228 0.157317 0.593634
1282 2 0.168251 0.112747 0.650992
1284 4 0.181503 0.109051 0.630114
888 4 0.262793 0.160661 0.664939
3008 4 0.490025 0.0955354 0.599082
808 2 0.488677 0.0950146 0.643357
809 4 0.49213 0.102858 0.619868
1243 2 0.0670704 0.223045 0.640756
1244 4 0.052106 0.207958 0.627579
1245 4 0.0820348 0.238132 0.653934
1270 2 0.0955708 0.186345 0.607598
1271 4 0.107757 0.178941 0.628137
1221 4 0.167278 0.162495 0.609953
1210 2 0.228289 0.179797 0.654319
1212 4 0.212595 0.195098 0.642287
1219 2 0.186405 0.17684 0.61727
1220 4 0.205533 0.191185 0.624586
796 2 0.209306 0.230874 0.617722
798 4 0.214086 0.20903 0.62891
1211 4 0.243982 0.164495 0.666351
906 4 0.432931 0.222628 0.587839
904 2 0.449767 0.227092 0.605778
905 4 0.466604 0.231556 0.623717
3123 4 0.482278 0.236142 0.636383
3121 2 0.495064 0.236651 0.657864
982 2 0.0660074 0.333508 0.602508
797 4 0.204526 0.252718 0.606534
947 4 0.181356 0.27021 0.640426
946 2 0.193565 0.277 0.661163
792 4 0.319463 0.270474 0.577408
1238 4 0.336022 0.269197 0.589895
1237 2 0.345338 0.291819 0.584735
952 2 0.481019 0.308896 0.593063
953 4 0.460403 0.307556 0.607147
984 4 0.0566011 0.336802 0.625439
1041 4 0.0656178 0.341338 0.642581
3263 4 0.0495326 0.330169 0.642388
3262 2 0.0307495 0.330789 0.65888
1039 2 0.0827564 0.35888 0.647455
1135 2 0.110257 0.387078 0.587188
1136 4 0.0899743 0.400603 0.592741
1040 4 0.099895 0.376421 0.652329
991 2 0.111702 0.414519 0.639539
993 4 0.108511 0.394159 0.653698
1172 4 0.201013 0.401142 0.588801
1206 4 0.458691 0.4047 0.669551
3309 4 0.491119 0.385519 0.607947
992 4 0.114893 0.434878 0.625379
1188 4 0.234788 0.485306 0.632587
1173 4 0.195116 0.449128 0.601581
1171 2 0.198065 0.425135 0.595191
1187 4 0.193931 0.463595 0.613613
1160 4 0.190748 0.467298 0.595222
1186 2 0.21436 0.47445 0.6231
891 4 0.306135 0.435809 0.58011
1204 2 0.444938 0.419493 0.654814
1910 4 0.44894 0.490506 0.590477
1205 4 0.431184 0.434287 0.640078
1269 4 0.426899 0.447543 0.624297
1267 2 0.431521 0.470528 0.632986
1268 4 0.436144 0.493513 0.641675
2256 4 0.217197 0.0122294 0.738653
2254 2 0.193369 0.0183543 0.743111
1147 2 0.222036 0.0830217 0.727182
1149 4 0.245502 0.076027 0.732243
2255 4 0.16954 0.0244793 0.747569
1257 4 0.251854 0.062307 0.743671
1003 2 0.325585 0.0553897 0.714377
1005 4 0.325114 0.04594 0.691233
1004 4 0.326057 0.0648394 0.737521
42 3 0.454306 0.055472 0.694566
41 1 0.450757 0.075593 0.683997
1163 4 0.488016 0.0752247 0.682328
1076 4 0.0220215 0.109449 0.676911
864 4 0.0459561 0.0996567 0.742385
1075 2 0.0293533 0.108326 0.700789
1077 4 0.0366851 0.107202 0.724667
909 4 0.0972254 0.135797 0.705478
907 2 0.117602 0.127355 0.693701
908 4 0.137979 0.118913 0.681924
1283 4 0.154999 0.116443 0.67187
1227 4 0.151347 0.106348 0.688005
1225 2 0.16494 0.0954885 0.705963
1148 4 0.198571 0.0900165 0.722121
1226 4 0.178532 0.0846293 0.723921
831 4 0.374408 0.156184 0.688577
810 4 0.485224 0.0871714 0.666846
1025 4 0.466885 0.1403 0.694219
44 3 0.47125 0.0857974 0.680216
43 3 0.437621 0.0890115 0.697628
3424 2 0.493682 0.115286 0.696693
3426 4 0.487505 0.0941568 0.684836
1024 2 0.455984 0.160281 0.704568
852 4 0.0440481 0.18083 0.737241
1213 2 0.0177198 0.205992 0.723916
1214 4 0.0362505 0.189281 0.722322
850 2 0.0659571 0.181723 0.749257
1209 4 0.0926531 0.253351 0.661613
1207 2 0.0972526 0.247214 0.685412
1208 4 0.101852 0.241078 0.70921
1106 4 0.135875 0.190793 0.718659
1105 2 0.121419 0.184586 0.738093
822 4 0.176976 0.2439 0.747482
830 4 0.325805 0.167893 0.687404
886 2 0.286126 0.166897 0.671409
887 4 0.309459 0.173133 0.677879
976 2 0.31419 0.19642 0.714779
978 4 0.313284 0.181577 0.694679
977 4 0.315096 0.211264 0.73488
918 4 0.314027 0.228294 0.74334
1142 4 0.381722 0.162087 0.706761
1141 2 0.404116 0.170641 0.713867
1193 4 0.356408 0.241309 0.694675
829 2 0.350106 0.162038 0.687991
1192 2 0.355578 0.218567 0.684315
1194 4 0.354747 0.195826 0.673956
1143 4 0.426511 0.179195 0.720974
1026 4 0.445084 0.180262 0.714917
1261 2 0.457295 0.202575 0.743077
1262 4 0.441409 0.18682 0.731916
948 4 0.205773 0.28379 0.6819
821 4 0.178987 0.284656 0.718574
820 2 0.177982 0.264278 0.733028
1064 4 0.224379 0.289541 0.684483
1065 4 0.225115 0.279845 0.733536
1063 2 0.224747 0.284693 0.70901
893 4 0.0230216 0.334827 0.693433
3264 4 0.0119663 0.331408 0.675372
892 2 0.0291105 0.353676 0.708691
894 4 0.0351994 0.372526 0.723949
3276 4 0.0216526 0.386064 0.728912
814 2 0.0628022 0.385098 0.74405
816 4 0.0389896 0.387187 0.736717
941 4 0.140637 0.390076 0.74155
1067 4 0.144958 0.407804 0.731604
1066 2 0.158534 0.411698 0.710971
940 2 0.116524 0.396037 0.744414
942 4 0.092411 0.401998 0.747277
1029 4 0.234187 0.410688 0.681449
1027 2 0.211479 0.413998 0.691376
806 4 0.298305 0.353801 0.67125
805 2 0.321756 0.362423 0.672179
807 4 0.345208 0.371045 0.673108
1019 4 0.386671 0.378812 0.715939
1018 2 0.372032 0.362934 0.728541
1020 4 0.357394 0.347057 0.741143
1280 4 0.0619459 0.464711 0.687074
1279 2 0.0475249 0.484547 0.691948
1068 4 0.17211 0.415591 0.690339
1028 4 0.18877 0.417307 0.701303
1140 4 0.250947 0.465715 0.695164
1139 4 0.271562 0.456428 0.739768
1138 2 0.261255 0.461071 0.717466
1228 2 0.395469 0.453588 0.733608
1229 4 0.377317 0.46721 0.744103
1230 4 0.413621 0.439967 0.723113
1100 4 0.433632 0.443453 0.725798
1101 4 0.480948 0.459102 0.721674
1099 2 0.45729 0.451277 0.723736
1251 4 0.484706 0.47656 0.731001
3330 4 0.494676 0.450453 0.731971
1294 2 0.0244491 0.0378753 0.782628
1295 4 0.00736279 0.0546986 0.775542
1296 4 0.0415354 0.0210519 0.789714
911 4 0.0701947 0.0661063 0.83715
2047 2 0.148617 0.00121446 0.785756
1203 4 0.111369 0.0714836 0.776877
1201 2 0.120365 0.0499534 0.78586
1202 4 0.129361 0.0284231 0.794844
2049 4 0.145873 0.0208328 0.801013
1255 2 0.262444 0.0630293 0.76631
1256 4 0.273034 0.0637517 0.788949
840 4 0.267232 0.0785604 0.800436
1113 4 0.372871 0.0652436 0.802943
1111 2 0.372781 0.0839142 0.819573
975 4 0.340281 0.0276758 0.827103
2321 4 0.478251 0.00653058 0.781838
2322 4 0.476581 0.055496 0.791854
2320 2 0.477416 0.0310133 0.786846
980 4 0.427726 0.0101367 0.832068
846 4 0.481027 0.0759991 0.793227
862 2 0.0444165 0.106051 0.766508
863 4 0.0428769 0.112445 0.790632
832 2 0.0218029 0.105985 0.818413
833 4 0.0361366 0.122599 0.806425
1125 4 0.0286609 0.140265 0.810135
1123 2 0.0385178 0.161102 0.819821
31 1 0.113781 0.14523 0.819957
34 3 0.128822 0.132192 0.808033
32 3 0.0961308 0.150651 0.806236
35 3 0.123951 0.16435 0.827002
838 2 0.270535 0.101428 0.809993
839 4 0.273837 0.124296 0.819551
844 2 0.470734 0.0845916 0.772123
845 4 0.46044 0.0931841 0.751018
1107 4 0.106962 0.178379 0.757526
851 4 0.0878661 0.182616 0.761272
1130 4 0.166414 0.185316 0.746906
1129 2 0.175921 0.207613 0.753043
1131 4 0.185428 0.229909 0.75918
920 4 0.193459 0.197572 0.819156
1241 4 0.225762 0.255313 0.818084
1298 4 0.327385 0.215471 0.749984
916 2 0.293543 0.236119 0.755353
917 4 0.273058 0.243944 0.767367
1084 2 0.348999 0.174259 0.822656
50 3 0.395858 0.183474 0.785113
1086 4 0.342785 0.184246 0.800592
1299 4 0.352541 0.196696 0.788912
1297 2 0.339963 0.206084 0.769448
1043 4 0.402014 0.237175 0.771652
49 3 0.404532 0.219853 0.780754
46 1 0.412794 0.198694 0.785493
1263 4 0.473182 0.218331 0.754237
48 3 0.423003 0.198661 0.80633
1145 4 0.491206 0.215863 0.762961