ITEM: TIMESTEP
1260000
ITEM: NUMBER OF ATOMS
4590
ITEM: BOX BOUNDS pp pp pp
-9.9985700000000008e+00 9.9985700000000008e+00
-9.9985700000000008e+00 9.9985700000000008e+00
-9.9985700000000008e+00 9.9985700000000008e+00
ITEM: ATOMS id type xs ys zs
463 2 0.0461754 0.0730833 0.0207935
465 4 0.0605802 0.0551338 0.0305656
701 4 0.0738065 0.0673182 0.0398216
700 2 0.0966192 0.068622 0.0499733
702 4 0.119432 0.0699257 0.060125
566 4 0.131329 0.0578934 0.0714996
565 2 0.147829 0.0761142 0.0760746
491 4 0.277567 0.0252058 0.0460035
2264 4 0.273222 0.0347491 0.0293967
2263 2 0.282964 0.0466569 0.00968689
745 2 0.468365 0.0474582 0.00398769
746 4 0.474238 0.0484728 0.0282707
2469 4 0.475385 0.032603 0.0412562
2467 2 0.490872 0.0132791 0.0447064
464 4 0.0317707 0.0910329 0.0110214
590 4 0.0226323 0.109858 0.0634622
421 2 0.108638 0.117639 0.999695
422 4 0.0998745 0.100688 0.0158524
360 4 0.220286 0.152549 0.997016
827 4 0.380407 0.112719 0.994633
865 2 0.364893 0.149342 0.0080105
867 4 0.355959 0.167489 0.0227095
826 2 0.404889 0.113513 0.999652
771 4 0.439954 0.141307 0.0778219
554 4 0.0501229 0.191728 0.012752
553 2 0.0590174 0.214357 0.00692447
835 2 0.109674 0.240391 0.0114945
837 4 0.133488 0.24794 0.0104477
836 4 0.0858603 0.232841 0.0125413
915 4 0.151156 0.238827 0.00831831
666 4 0.308748 0.214296 0.03102
664 2 0.322825 0.194163 0.0263618
573 4 0.299625 0.231203 0.034054
461 4 0.309972 0.222924 0.0486818
460 2 0.320022 0.228523 0.0708818
665 4 0.336902 0.174031 0.0217035
1070 4 0.402354 0.211478 0.0378998
1069 2 0.410267 0.230203 0.0524578
1071 4 0.418181 0.248928 0.0670157
1012 2 0.491416 0.205402 0.0632833
769 2 0.448303 0.163875 0.071027
770 4 0.456652 0.186442 0.0642322
1014 4 0.466467 0.20458 0.0647016
294 4 0.058016 0.310054 0.0402059
292 2 0.0828666 0.308303 0.0423414
507 4 0.127737 0.303612 0.0446134
293 4 0.107717 0.306552 0.0444768
505 2 0.15192 0.309027 0.0479297
506 4 0.176104 0.314443 0.0512459
483 4 0.194741 0.312834 0.0433269
355 2 0.289879 0.322513 0.0174695
571 2 0.300588 0.255069 0.0266608
356 4 0.294922 0.298293 0.0138424
572 4 0.301551 0.278935 0.0192675
957 4 0.394124 0.313393 0.0131364
324 4 0.43576 0.25741 0.0656321
322 2 0.43993 0.281748 0.0617037
672 4 0.442131 0.320424 0.0434105
323 4 0.444101 0.306086 0.0577753
620 4 0.00694058 0.345618 0.0749918
481 2 0.203646 0.335703 0.0481105
609 4 0.224828 0.362692 0.068765
607 2 0.232943 0.383859 0.0582164
482 4 0.212551 0.358572 0.0528941
608 4 0.241057 0.405027 0.0476678
357 4 0.284836 0.346733 0.0210966
252 4 0.260284 0.409779 0.0441224
250 2 0.280916 0.411088 0.0300588
741 4 0.394645 0.37062 0.0789697
670 2 0.457395 0.33799 0.0525545
671 4 0.472659 0.355556 0.0616985
281 4 0.475359 0.371447 0.0728357
280 2 0.476098 0.396427 0.0720522
282 4 0.476836 0.421408 0.0712686
2651 4 0.486348 0.354796 0.0749742
551 4 0.0983887 0.439535 0.0534808
550 2 0.0983749 0.462131 0.0641864
552 4 0.0983611 0.484727 0.0748921
244 2 0.243467 0.489321 0.0588216
245 4 0.234351 0.473759 0.0761386
251 4 0.301548 0.412396 0.0159953
246 4 0.252584 0.504884 0.0415047
272 4 0.267356 0.497325 0.0309496
271 2 0.269668 0.486557 0.00850256
523 2 0.349194 0.492003 0.0439267
524 4 0.331996 0.492508 0.0257837
525 4 0.366392 0.491498 0.0620697
226 2 0.468434 0.457729 0.0345283
228 4 0.460897 0.467206 0.0126526
227 4 0.475972 0.448252 0.0564041
563 4 0.442203 0.472891 0.0102207
562 2 0.435272 0.496904 0.0095224
16 1 0.0580089 0.0612421 0.14734
20 3 0.037608 0.0513168 0.145356
1806 4 0.0799676 0.0268948 0.146912
18 3 0.074778 0.0458202 0.14294
2576 4 0.0311955 0.0239286 0.0936181
2575 2 0.0063542 0.0235856 0.0964412
1804 2 0.0825626 0.00905121 0.12959
450 4 0.170641 0.0518246 0.135794
1505 4 0.179187 0.0400496 0.148861
448 2 0.179782 0.0750972 0.135717
652 2 0.301873 0.0228476 0.116647
653 4 0.313752 0.0339637 0.0976597
654 4 0.289995 0.0117315 0.135634
557 4 0.348587 0.0695121 0.0948079
296 4 0.369244 0.0676803 0.0948441
295 2 0.375526 0.0485288 0.10964
297 4 0.381808 0.0293773 0.124437
485 4 0.397552 0.0195449 0.116938
589 2 0.00550668 0.109992 0.0816796
17 3 0.059568 0.0784571 0.132163
567 4 0.164329 0.0943351 0.0806496
237 4 0.154312 0.150356 0.151563
578 4 0.135171 0.151351 0.143948
577 2 0.116365 0.135026 0.146192
579 4 0.0975602 0.118701 0.148436
235 2 0.171359 0.134115 0.14315
236 4 0.188407 0.117873 0.134737
693 4 0.198524 0.108025 0.148586
449 4 0.188924 0.0983697 0.135641
691 2 0.216011 0.108131 0.166457
558 4 0.339699 0.11856 0.0988041
556 2 0.344143 0.0940363 0.096806
337 2 0.0664307 0.191133 0.154285
339 4 0.0458006 0.185776 0.141212
338 4 0.0870608 0.196489 0.167357
476 4 0.140994 0.198218 0.131932
475 2 0.119487 0.202961 0.14377
477 4 0.09798 0.207703 0.155608
737 4 0.154687 0.196327 0.118055
736 2 0.169073 0.216156 0.113053
738 4 0.183459 0.235985 0.108051
462 4 0.330071 0.234121 0.0930818
284 4 0.299295 0.184895 0.153144
255 4 0.33768 0.22047 0.104108
254 4 0.369694 0.23389 0.140104
253 2 0.353687 0.22718 0.122106
630 4 0.3872 0.224823 0.136109
628 2 0.401077 0.204026 0.136357
765 4 0.386343 0.240553 0.147785
629 4 0.414955 0.183228 0.136604
352 2 0.328989 0.286927 0.135076
353 4 0.307375 0.287089 0.147645
754 2 0.289909 0.325912 0.156929
755 4 0.301881 0.304012 0.155433
278 4 0.299294 0.288031 0.166142
354 4 0.350603 0.286764 0.122507
763 2 0.398469 0.252815 0.165889
519 4 0.496964 0.279044 0.0854543
526 2 0.492924 0.285567 0.164739
647 4 0.0275757 0.35296 0.0772465
646 2 0.0482616 0.349987 0.0909736
648 4 0.0689474 0.347013 0.104701
456 4 0.087682 0.343341 0.0970396
455 4 0.114481 0.381559 0.114981
454 2 0.101082 0.36245 0.10601
537 4 0.215201 0.375828 0.12084
535 2 0.199429 0.390685 0.108363
536 4 0.183657 0.405542 0.0958858
611 4 0.234006 0.369182 0.124834
610 2 0.250876 0.366937 0.143153
302 4 0.329528 0.413212 0.158716
387 4 0.340086 0.399415 0.149505
739 2 0.389966 0.363834 0.102576
740 4 0.385287 0.357048 0.126181
15 3 0.39613 0.360523 0.140801
385 2 0.359666 0.385007 0.143656
386 4 0.379246 0.3706 0.137808
11 1 0.413452 0.369603 0.152469
12 3 0.429819 0.353696 0.155339
14 3 0.422378 0.387517 0.14073
495 4 0.434697 0.398193 0.128292
1465 2 0.0197162 0.474828 0.136408
1466 4 0.0398501 0.487036 0.127995
242 4 0.114171 0.494938 0.0811929
627 4 0.225691 0.461266 0.0885871
625 2 0.211261 0.440851 0.0890153
626 4 0.196832 0.420436 0.0894434
637 2 0.224217 0.502931 0.144464
767 4 0.24255 0.471095 0.152573
638 4 0.242746 0.486543 0.140822
766 2 0.262332 0.456 0.155027
768 4 0.282113 0.440905 0.157481
301 2 0.313796 0.432284 0.162451
303 4 0.298064 0.451357 0.166185
660 4 0.425607 0.465461 0.13485
494 4 0.419968 0.444536 0.139958
493 2 0.427332 0.421364 0.134125
658 2 0.434646 0.479095 0.15376
2480 4 0.0149398 0.0168906 0.204436
19 3 0.0605782 0.0698489 0.168735
1422 4 0.0105845 0.998796 0.196434
673 2 0.148585 0.0565703 0.216809
675 4 0.134542 0.0439526 0.200416
674 4 0.162629 0.0691879 0.233202
1504 2 0.175477 0.0343153 0.172914
689 4 0.189762 0.0222653 0.203961
1506 4 0.171767 0.0285811 0.196967
688 2 0.204769 0.00345706 0.21076
21 1 0.400085 0.0136242 0.231084
25 3 0.410464 0.0287196 0.217554
759 4 0.415346 0.0462046 0.209406
757 2 0.40496 0.0684601 0.214096
22 3 0.379633 0.0219874 0.23748
351 4 0.469143 0.0361552 0.248281
349 2 0.446918 0.0376957 0.236929
350 4 0.424693 0.0392361 0.225578
380 4 0.0474919 0.0844169 0.169281
2483 4 0.99716 0.146035 0.176378
512 4 0.0428197 0.127165 0.20744
379 2 0.0370482 0.102458 0.183087
381 4 0.0266044 0.120499 0.196894
511 2 0.0390019 0.150426 0.21578
392 4 0.108585 0.174857 0.250753
544 2 0.146242 0.16739 0.24835
545 4 0.122977 0.166662 0.239219
692 4 0.233498 0.108237 0.184328
582 4 0.252756 0.109496 0.187639
722 4 0.185785 0.163437 0.245849
721 2 0.198799 0.164805 0.224542
580 2 0.27199 0.118746 0.200664
581 4 0.291225 0.127996 0.213688
30 3 0.310148 0.132967 0.22452
26 1 0.331151 0.132401 0.233305
29 3 0.330763 0.122104 0.254095
27 3 0.3389 0.153915 0.235807
28 3 0.345393 0.120911 0.219038
758 4 0.394574 0.0907157 0.218786
312 4 0.463491 0.165319 0.174164
310 2 0.453456 0.14297 0.179163
311 4 0.443422 0.12062 0.184163
513 4 0.035184 0.173686 0.22412
363 4 0.102463 0.205111 0.174677
362 4 0.107094 0.228741 0.218505
361 2 0.104779 0.216926 0.196591
372 4 0.121891 0.242039 0.225234
370 2 0.142614 0.250944 0.236024
371 4 0.163338 0.25985 0.246813
723 4 0.211812 0.166174 0.203236
283 2 0.319907 0.181475 0.166879
285 4 0.340519 0.178055 0.180613
521 4 0.468975 0.191333 0.234311
520 2 0.488021 0.179653 0.223085
395 4 0.0716763 0.28711 0.215881
394 2 0.0509083 0.289783 0.229545
396 4 0.0301404 0.292457 0.24321
749 4 0.100495 0.317593 0.161267
750 4 0.081529 0.289326 0.197901
748 2 0.0910122 0.303459 0.179584
300 4 0.115758 0.329949 0.21526
279 4 0.266812 0.257602 0.188939
277 2 0.283053 0.272816 0.177541
308 4 0.321023 0.280398 0.235943
307 2 0.332329 0.275524 0.214181
497 4 0.313878 0.293829 0.249076
309 4 0.343636 0.27065 0.192419
764 4 0.410595 0.265078 0.183993
623 4 0.415135 0.284376 0.188536
528 4 0.472299 0.293723 0.176283
622 2 0.436614 0.295985 0.183144
624 4 0.458093 0.307594 0.177751
262 2 0.0664048 0.391097 0.229646
264 4 0.0537889 0.382311 0.209927
263 4 0.0790206 0.399882 0.249365
298 2 0.122724 0.349371 0.229382
299 4 0.129691 0.368793 0.243504
290 4 0.213581 0.412762 0.220034
612 4 0.267745 0.364691 0.161471
756 4 0.277938 0.347812 0.158426
13 3 0.406115 0.376663 0.17332
643 2 0.489722 0.404362 0.203207
1757 4 0.0697769 0.498537 0.22228
416 4 0.166132 0.450389 0.19648
289 2 0.192208 0.422836 0.211855
417 4 0.16644 0.498708 0.209362
415 2 0.166286 0.474548 0.202921
291 4 0.170835 0.43291 0.203677
645 4 0.481332 0.427907 0.203891
597 4 0.478477 0.447138 0.207048
595 2 0.466577 0.466809 0.197219
596 4 0.454677 0.48648 0.18739
659 4 0.443685 0.492728 0.17267
231 4 0.435795 0.490765 0.190173
1799 4 0.0311197 0.0262295 0.320773
233 4 0.0316833 0.0277122 0.300837
1402 2 0.0723098 0.0205519 0.305825
1403 4 0.0482637 0.0246604 0.31131
232 2 0.0179786 0.0407565 0.284491
1404 4 0.0963559 0.0164434 0.30034
1701 4 0.170299 0.0471137 0.304322
1699 2 0.187504 0.063604 0.311887
1700 4 0.204709 0.0800942 0.319452
23 3 0.412913 0.00985966 0.250049
697 2 0.371569 0.0346069 0.30667
699 4 0.357953 0.0248271 0.288119
1518 4 0.351268 0.0101362 0.276912
633 4 0.382971 0.0638182 0.327668
698 4 0.385185 0.0443867 0.325221
743 4 0.492573 0.045649 0.298536
744 4 0.490058 0.0382031 0.24915
742 2 0.491315 0.0419261 0.273843
478 2 0.466685 0.0482241 0.321415
479 4 0.485562 0.0596108 0.309617
398 4 0.0905288 0.156207 0.303105
397 2 0.0896913 0.135762 0.317474
546 4 0.169507 0.168119 0.257481
248 4 0.219578 0.0888686 0.329001
249 4 0.211283 0.134935 0.3114
247 2 0.215431 0.111902 0.320201
404 4 0.218517 0.137254 0.293147
403 2 0.202297 0.150003 0.279022
405 4 0.186076 0.162752 0.264896
632 4 0.374038 0.112771 0.322714
631 2 0.378505 0.0882945 0.325191
333 4 0.465325 0.136085 0.271803
331 2 0.463613 0.160703 0.275828
390 4 0.095705 0.174113 0.308988
393 4 0.0837667 0.172672 0.294112
391 2 0.0961757 0.173765 0.272432
388 2 0.107211 0.188497 0.325897
344 4 0.271763 0.243825 0.339374
717 4 0.415449 0.227782 0.316147
420 4 0.40821 0.212313 0.307951
332 4 0.461902 0.185322 0.279853
418 2 0.428707 0.206122 0.29504
419 4 0.449205 0.199931 0.282129
760 2 0.481153 0.222245 0.28792
762 4 0.467192 0.204518 0.277149
444 4 0.0352083 0.257225 0.30064
364 2 0.998565 0.315429 0.264329
442 2 0.0301782 0.272126 0.281202
443 4 0.0251481 0.287027 0.261764
365 4 0.014372 0.300366 0.252146
401 4 0.214217 0.277811 0.27019
400 2 0.222543 0.280093 0.293656
402 4 0.230869 0.282375 0.317122
510 4 0.233921 0.300373 0.323599
508 2 0.229185 0.324838 0.32566
345 4 0.246411 0.285355 0.32783
343 2 0.259087 0.26459 0.333602
496 2 0.32933 0.306246 0.264314
715 2 0.412554 0.252445 0.31907
498 4 0.344783 0.318663 0.279553
543 4 0.419331 0.334461 0.287483
716 4 0.409659 0.277107 0.321994
541 2 0.417365 0.315335 0.303468
542 4 0.4154 0.296209 0.319453
601 2 0.112556 0.398016 0.25717
603 4 0.133744 0.385067 0.254243
602 4 0.0913685 0.410965 0.260097
734 4 0.144716 0.368735 0.255333
733 2 0.153722 0.364521 0.278275
735 4 0.162727 0.360308 0.301216
677 4 0.160903 0.369235 0.319467
676 2 0.182993 0.358611 0.324399
509 4 0.224449 0.349302 0.327721
435 4 0.213604 0.365695 0.326308
433 2 0.233205 0.381055 0.328555
434 4 0.252806 0.396416 0.330801
728 4 0.360959 0.374835 0.310292
727 2 0.347852 0.395407 0.3048
615 4 0.430218 0.350008 0.290198
613 2 0.424749 0.371229 0.302237
2538 4 0.478945 0.385137 0.325081
2536 2 0.484232 0.393192 0.302009
614 4 0.41928 0.39245 0.314277
2537 4 0.489518 0.401248 0.278936
2862 4 0.477165 0.407622 0.263612
777 4 0.0658764 0.441377 0.316734
549 4 0.0475046 0.44374 0.324374
775 2 0.0901167 0.443643 0.311037
414 4 0.128283 0.454988 0.316584
776 4 0.114357 0.445909 0.305341
412 2 0.142796 0.463913 0.334884
438 4 0.285981 0.437647 0.291797
436 2 0.31093 0.436271 0.292719
729 4 0.334744 0.415979 0.299308
437 4 0.335879 0.434895 0.29364
2861 4 0.444858 0.445701 0.260982
2860 2 0.461011 0.426662 0.262297
593 4 0.439153 0.471156 0.325305
1772 4 0.0263697 0.000575999 0.411101
1798 2 0.0206584 0.0100288 0.336687
369 4 0.0774202 0.0514125 0.374164
367 2 0.0765687 0.0272973 0.380714
368 4 0.0757172 0.00318207 0.387265
732 4 0.0902278 0.0640104 0.367442
605 4 0.172292 0.0627758 0.359959
604 2 0.163824 0.0798807 0.376112
256 2 0.400396 0.0518152 0.363813
257 4 0.386251 0.0524235 0.343205
258 4 0.414542 0.0512069 0.384422
426 4 0.409595 0.0542078 0.404304
480 4 0.447808 0.0368375 0.333213
458 4 0.0286592 0.149013 0.380921
318 4 0.0475061 0.146068 0.375399
316 2 0.0461896 0.1211 0.375387
317 4 0.0448732 0.0961307 0.375375
606 4 0.155357 0.0969856 0.392265
730 2 0.085194 0.0864832 0.357705
399 4 0.0888539 0.115317 0.331844
731 4 0.0801603 0.108956 0.347968
600 4 0.214937 0.147145 0.394843
598 2 0.202163 0.168379 0.39151
683 4 0.263379 0.107992 0.369906
682 2 0.275375 0.113369 0.391175
684 4 0.287371 0.118745 0.412444
575 4 0.405193 0.134219 0.381228
516 4 0.412165 0.125448 0.364783
321 4 0.341713 0.135997 0.410901
574 2 0.417581 0.135958 0.402878
451 2 0.48966 0.14195 0.341657
514 2 0.429822 0.135985 0.350557
453 4 0.464865 0.138774 0.341107
515 4 0.44748 0.146521 0.33633
457 2 0.0239822 0.169318 0.394742
2654 4 0.00822511 0.205793 0.407105
459 4 0.0193052 0.189623 0.408562
389 4 0.118716 0.202881 0.342806
687 4 0.180924 0.194814 0.405554
599 4 0.189388 0.189613 0.388177
473 4 0.230118 0.226796 0.393758
472 2 0.252208 0.215959 0.398205
374 4 0.234799 0.245324 0.387791
378 4 0.277777 0.224382 0.337623
376 2 0.297797 0.21212 0.346229
377 4 0.317816 0.199859 0.354835
474 4 0.274298 0.205122 0.402652
708 4 0.370034 0.160397 0.37868
707 4 0.338236 0.192618 0.357435
706 2 0.354135 0.176508 0.368058
467 4 0.38021 0.199711 0.422405
305 4 0.467598 0.188035 0.418171
275 4 0.167514 0.32659 0.405002
616 2 0.127025 0.32562 0.410737
617 4 0.151052 0.331358 0.414606
618 4 0.102998 0.319881 0.406869
274 2 0.175034 0.308193 0.38983
276 4 0.182555 0.289796 0.374658
373 2 0.214089 0.259163 0.385613
375 4 0.19338 0.273003 0.383434
406 2 0.0229904 0.38192 0.381387
407 4 0.0418146 0.389363 0.366709
548 4 0.0421868 0.401332 0.350337
408 4 0.00416615 0.374478 0.396065
347 4 0.095147 0.328965 0.423103
678 4 0.205084 0.347986 0.32933
504 4 0.247192 0.399864 0.378059
503 4 0.284234 0.404675 0.411307
334 2 0.325576 0.405174 0.400928
502 2 0.265713 0.402269 0.394683
336 4 0.302054 0.410921 0.407163
335 4 0.349098 0.399427 0.394693
240 4 0.364815 0.390972 0.401902
561 4 0.485406 0.331967 0.379197
753 4 0.471974 0.369247 0.334729
752 4 0.471876 0.329192 0.364668
751 2 0.471925 0.349219 0.349698
547 2 0.0448457 0.422536 0.337356
413 4 0.157309 0.472838 0.353184
500 4 0.156949 0.492623 0.352082
1545 4 0.221296 0.496002 0.344692
1543 2 0.197586 0.489252 0.348871
1544 4 0.173876 0.482503 0.35305
667 2 0.292349 0.44805 0.413486
669 4 0.288144 0.423533 0.410952
594 4 0.393041 0.480082 0.342471
592 2 0.416097 0.475619 0.333888
1524 4 0.0549137 0.00698772 0.462963
720 4 0.0249254 0.0688473 0.456357
2237 4 0.0175465 0.051308 0.458123
2236 2 0.0238384 0.0336784 0.441546
1127 4 0.012701 0.0648524 0.470755
2238 4 0.0301302 0.0160488 0.424969
1522 2 0.0596245 0.00785439 0.487504
2428 2 0.229298 0.0145525 0.49169
2430 4 0.207438 0.0241701 0.484287
726 4 0.293993 0.0599636 0.450842
724 2 0.301096 0.043929 0.468664
725 4 0.3082 0.0278945 0.486486
424 2 0.406068 0.0347295 0.419579
425 4 0.402542 0.0152511 0.434854
1580 4 0.393667 0.00844678 0.418316
2878 2 0.472752 0.0634029 0.469583
2880 4 0.46459 0.0747814 0.448869
2879 4 0.480915 0.0520243 0.490297
718 2 0.022697 0.0936667 0.454304
719 4 0.0204686 0.118486 0.452252
1033 2 0.113013 0.139641 0.484968
1035 4 0.116754 0.160748 0.472096
1182 4 0.27875 0.110075 0.478989
320 4 0.298132 0.118837 0.42842
1180 2 0.279173 0.111385 0.454023
1181 4 0.279597 0.112696 0.429058
319 2 0.319923 0.127417 0.41966
411 4 0.26715 0.158755 0.469223
3157 2 0.48686 0.153221 0.477486
642 4 0.473385 0.0929354 0.451004
640 2 0.45653 0.110265 0.444619
641 4 0.439675 0.127595 0.438233
306 4 0.446489 0.145171 0.432927
576 4 0.42997 0.137697 0.424527
3159 4 0.486258 0.128895 0.483235
304 2 0.457043 0.166603 0.425549
469 2 0.0357096 0.214892 0.494497
470 4 0.0256239 0.196485 0.480909
685 2 0.169032 0.206455 0.424215
686 4 0.157141 0.218097 0.442876
260 4 0.141917 0.208255 0.449703
261 4 0.106862 0.177369 0.467534
259 2 0.124389 0.192812 0.458618
695 4 0.143979 0.227516 0.454234
694 2 0.134434 0.248785 0.463273
488 4 0.283334 0.204407 0.419945
487 2 0.291646 0.216645 0.440102
489 4 0.299958 0.228883 0.46026
409 2 0.266178 0.182999 0.475258
410 4 0.265206 0.207244 0.481294
900 4 0.276487 0.214836 0.496562
468 4 0.364942 0.246645 0.430456
466 2 0.372576 0.223178 0.42643
3158 4 0.487463 0.177547 0.471737
585 4 0.436937 0.240184 0.48437
348 4 0.0581505 0.337225 0.455718
1260 4 0.130332 0.27305 0.490912
696 4 0.124889 0.270054 0.472313
811 2 0.258007 0.292018 0.483935
813 4 0.257854 0.276023 0.464717
266 4 0.308538 0.259993 0.445404
265 2 0.333518 0.260331 0.444368
267 4 0.358498 0.260668 0.443333
2455 2 0.494599 0.292849 0.49362
2456 4 0.479455 0.288515 0.474203
584 4 0.471689 0.271846 0.467324
583 2 0.454313 0.256015 0.475847
326 4 0.0590824 0.347179 0.471445
346 2 0.0766487 0.333095 0.439411
325 2 0.0750238 0.35572 0.488711
383 4 0.0874219 0.407329 0.438606
10 3 0.133468 0.363692 0.473328
7 3 0.110002 0.360718 0.502196
6 1 0.131472 0.36605 0.495891
711 4 0.143469 0.40741 0.4998
709 2 0.167043 0.414394 0.495254
774 4 0.205873 0.409628 0.487804
239 4 0.388812 0.410552 0.441163
238 2 0.376814 0.400762 0.421532
588 4 0.381305 0.417346 0.458609
586 2 0.388154 0.419732 0.482538
681 4 0.0687869 0.412489 0.438486
680 4 0.0405053 0.453731 0.438505
1381 2 0.047707 0.495908 0.438047
1383 4 0.037875 0.47292 0.438187
679 2 0.0546461 0.43311 0.438495
382 2 0.109115 0.419156 0.442443
570 4 0.162 0.483777 0.474364
569 4 0.138356 0.441436 0.462159
568 2 0.150178 0.462607 0.468261
384 4 0.130808 0.430982 0.446279
539 4 0.0938405 0.47878 0.476343
538 2 0.10187 0.493865 0.494595
636 4 0.205353 0.455172 0.436273
634 2 0.204698 0.440748 0.456686
635 4 0.204043 0.426324 0.477099
710 4 0.190617 0.421378 0.490708
4 3 0.313372 0.483571 0.419811
668 4 0.296554 0.472567 0.416019
880 2 0.339597 0.497236 0.483414
881 4 0.353718 0.485672 0.500504
1523 4 0.0643352 0.00872107 0.512044
1057 2 0.129514 0.0644159 0.576135
2374 2 0.117141 0.00854318 0.570677
1152 4 0.172883 0.076298 0.515543
1059 4 0.14248 0.0845565 0.568965
1150 2 0.158949 0.0854657 0.53417
2375 4 0.103641 0.0280826 0.578496
340 2 0.199352 0.057598 0.50995
342 4 0.193585 0.0805483 0.518024
341 4 0.20512 0.0346476 0.501875
430 2 0.321291 0.0393268 0.524184
432 4 0.306423 0.0318553 0.505521
963 4 0.303075 0.0138791 0.497864
431 4 0.336158 0.0467983 0.542847
843 4 0.351193 0.0540329 0.533319
1217 4 0.410833 0.0448577 0.543397
842 4 0.400855 0.0598455 0.534138
841 2 0.376024 0.0569392 0.533728
1216 2 0.422668 0.022851 0.54249
879 4 0.0583738 0.148974 0.563538
1272 4 0.0767921 0.14932 0.56768
938 4 0.0704087 0.137652 0.552909
937 2 0.0852583 0.13066 0.534047
1151 4 0.145014 0.0946335 0.552797
1155 4 0.138871 0.104324 0.56806
939 4 0.100108 0.123667 0.515185
1153 2 0.158692 0.109781 0.582291
1034 4 0.109271 0.118535 0.497841
878 4 0.0356936 0.185928 0.538624
1199 4 0.0160166 0.191486 0.541013
877 2 0.0470337 0.167451 0.551081
471 4 0.0457954 0.233299 0.508085
857 4 0.291707 0.21545 0.560739
856 2 0.275317 0.211714 0.579247
898 2 0.285998 0.217991 0.519469
791 4 0.301887 0.231368 0.5579
899 4 0.295509 0.221147 0.542377
871 2 0.382183 0.240832 0.549089
872 4 0.371725 0.234035 0.527419
873 4 0.392641 0.247628 0.57076
3352 2 0.99438 0.271769 0.519701
3354 4 0.000649891 0.294427 0.511186
1259 4 0.118025 0.290201 0.536245
1258 2 0.124178 0.281625 0.513578
649 2 0.240579 0.297186 0.538017
651 4 0.224888 0.28642 0.554237
650 4 0.25627 0.307951 0.521798
804 4 0.248076 0.322275 0.510726
790 2 0.311855 0.252911 0.565756
812 4 0.258161 0.308013 0.503152
792 4 0.321824 0.274454 0.573613
1238 4 0.334148 0.290442 0.572256
1237 2 0.336117 0.314588 0.578444
1010 4 0.501755 0.309094 0.52701
935 4 0.0161527 0.396431 0.533938
1135 2 0.138278 0.414775 0.552086
9 3 0.146227 0.351757 0.506681
897 4 0.152581 0.380413 0.576008
1137 4 0.14501 0.397753 0.569119
8 3 0.135841 0.388012 0.501973
327 4 0.0909652 0.364261 0.505976
1189 2 0.229741 0.385006 0.554062
773 4 0.24378 0.389574 0.513527
1190 4 0.242479 0.384521 0.532552
772 2 0.224826 0.399601 0.500665
1191 4 0.217004 0.385492 0.575573
803 4 0.246579 0.371576 0.518962
895 2 0.17674 0.384562 0.580943
802 2 0.247328 0.346925 0.514844
930 4 0.259999 0.385169 0.524141
928 2 0.279366 0.398734 0.53227
929 4 0.298734 0.412299 0.540399
1239 4 0.338087 0.338734 0.584631
927 4 0.381574 0.383716 0.560646
925 2 0.389669 0.398456 0.542142
926 4 0.397764 0.413196 0.523639
1136 4 0.131547 0.431797 0.535054
1161 4 0.160715 0.485378 0.569022
2243 4 0.142703 0.494439 0.567127
1159 2 0.179857 0.473127 0.579446
889 2 0.308749 0.46735 0.562588
890 4 0.316615 0.47627 0.584582
891 4 0.300883 0.45843 0.540594
1953 4 0.375908 0.46917 0.551898
1951 2 0.361114 0.470336 0.531775
1000 2 0.4101 0.503884 0.537285
1952 4 0.346319 0.471502 0.511652
663 4 0.411962 0.424719 0.514786
587 4 0.395002 0.422118 0.506467
1001 4 0.427348 0.485785 0.537651
662 4 0.430439 0.468991 0.528902
661 2 0.4212 0.446855 0.521844
1911 4 0.433517 0.470873 0.548269
1909 2 0.435556 0.461994 0.571554
1332 4 0.445747 0.479953 0.535526
1330 2 0.463258 0.497547 0.538524
945 4 0.0596066 0.0121207 0.641058
2319 4 0.0502725 3.26048e-05 0.626153
943 2 0.0804623 0.0045757 0.652603
1058 4 0.116548 0.0442753 0.583306
1284 4 0.162663 0.0892941 0.642855
944 4 0.101318 0.997031 0.664148
950 4 0.305543 0.0196556 0.618099
949 2 0.295494 0.0419433 0.61286
951 4 0.285445 0.0642311 0.60762
1031 4 0.290587 0.073018 0.624563
3179 4 0.0279963 0.154521 0.662118
1083 4 0.0133821 0.141516 0.668085
3178 2 0.0142636 0.165197 0.644156
1270 2 0.08655 0.147941 0.59066
1271 4 0.0963078 0.146563 0.613639
1282 2 0.148229 0.0964864 0.661962
1154 4 0.178514 0.115237 0.596521
1221 4 0.18847 0.132725 0.595649
1219 2 0.193747 0.151031 0.611842
1032 4 0.253155 0.106043 0.627541
1030 2 0.271871 0.0895306 0.626052
888 4 0.280724 0.176005 0.662352
45 3 0.422076 0.0787412 0.656407
808 2 0.485745 0.0905085 0.642521
810 4 0.472198 0.0870243 0.663246
809 4 0.499291 0.0939926 0.621795
1243 2 0.0540162 0.2061 0.640134
1244 4 0.0543709 0.20214 0.615448
1245 4 0.0536615 0.21006 0.664819
3180 4 0.00053086 0.175873 0.626195
1212 4 0.218245 0.167044 0.631618
1220 4 0.199024 0.169336 0.628036
796 2 0.207335 0.205973 0.615092
798 4 0.211215 0.183444 0.625219
797 4 0.203455 0.228502 0.604964
1210 2 0.240712 0.170018 0.64218
858 4 0.258926 0.207979 0.597756
1211 4 0.263179 0.172993 0.652743
3121 2 0.493626 0.231305 0.656109
905 4 0.459468 0.237436 0.627803
3123 4 0.473744 0.234392 0.641265
904 2 0.449483 0.250015 0.608639
983 4 0.0380073 0.302465 0.600271
982 2 0.0428762 0.316032 0.620701
3263 4 0.0531818 0.325773 0.658376
984 4 0.0477451 0.329599 0.641132
947 4 0.230743 0.280428 0.643185
946 2 0.241416 0.279134 0.665759
805 2 0.326302 0.316956 0.65687
906 4 0.439499 0.262593 0.589475
952 2 0.481778 0.323246 0.603704
953 4 0.464864 0.312281 0.618498
1041 4 0.0459475 0.343228 0.65391
1039 2 0.0569352 0.365302 0.649768
1040 4 0.0679228 0.387377 0.645626
993 4 0.0595556 0.397039 0.629903
896 4 0.200898 0.38871 0.585877
1172 4 0.214918 0.402303 0.584379
1029 4 0.233545 0.417951 0.665396
807 4 0.323477 0.326553 0.633956
1206 4 0.466039 0.415301 0.654399
992 4 0.0544893 0.445716 0.619625
991 2 0.0570225 0.421378 0.624764
1175 4 0.190685 0.500509 0.657127
1160 4 0.198999 0.460875 0.58987
1173 4 0.207843 0.448583 0.601952
1171 2 0.21138 0.425443 0.593165
1188 4 0.201108 0.48509 0.652861
1187 4 0.20663 0.467497 0.606377
1186 2 0.203869 0.476294 0.629619
1204 2 0.456263 0.438124 0.651442
1910 4 0.437595 0.453115 0.594838
1269 4 0.459778 0.471242 0.639096
1267 2 0.444073 0.490688 0.639726
1205 4 0.446487 0.460947 0.648485
1077 4 0.0451481 0.0889214 0.75154
2255 4 0.220335 0.0285549 0.729599
2254 2 0.202322 0.0241633 0.746375
1004 4 0.326562 0.0115638 0.73294
1003 2 0.338611 0.0321101 0.740545
1163 4 0.471896 0.0756897 0.678538
1162 2 0.488573 0.0604986 0.689322
42 3 0.431255 0.059408 0.686983
44 3 0.455501 0.0843787 0.672797
1081 2 0.0240816 0.122345 0.680052
1082 4 0.034781 0.103175 0.692018
1076 4 0.0225805 0.101145 0.708622
1075 2 0.0338643 0.0950333 0.730081
850 2 0.0637244 0.152635 0.727835
852 4 0.0411195 0.14538 0.735681
1214 4 0.0330116 0.159855 0.746647
909 4 0.0973629 0.152794 0.706725
907 2 0.111436 0.132899 0.701131
908 4 0.12551 0.113004 0.695537
1283 4 0.133794 0.103679 0.68107
1227 4 0.144036 0.109143 0.696813
851 4 0.0863293 0.15989 0.719989
1225 2 0.155359 0.100323 0.717288
1107 4 0.105776 0.160458 0.722838
1226 4 0.166681 0.0915041 0.737762
830 4 0.318516 0.14833 0.706593
978 4 0.308305 0.159714 0.71852
887 4 0.300616 0.152419 0.701706
886 2 0.29067 0.164212 0.682029
831 4 0.363023 0.12558 0.708096
1141 2 0.394622 0.153863 0.712667
829 2 0.340769 0.136955 0.707345
1142 4 0.376418 0.13761 0.718112
41 1 0.433048 0.0797222 0.67634
43 3 0.423588 0.096096 0.689786
1025 4 0.475821 0.152415 0.705295
3424 2 0.478289 0.114891 0.692615
3426 4 0.470437 0.094273 0.680849
1024 2 0.453562 0.163801 0.705014
3425 4 0.48614 0.135509 0.704381
3269 4 0.49445 0.15125 0.711935
1209 4 0.0642717 0.22273 0.676174
1215 4 0.00400457 0.200579 0.745713
1213 2 0.0185081 0.180217 0.74618
1207 2 0.0851811 0.233349 0.684847
1105 2 0.119325 0.168087 0.742419
1208 4 0.106091 0.243969 0.693519
976 2 0.306736 0.177592 0.73593
916 2 0.288512 0.23323 0.752035
918 4 0.305148 0.214792 0.754939
1194 4 0.393232 0.217327 0.722229
1193 4 0.358509 0.24227 0.696289
1192 2 0.37587 0.229799 0.709259
1143 4 0.412826 0.170116 0.707222
1026 4 0.431302 0.175186 0.704733
1261 2 0.430561 0.1982 0.736958
1262 4 0.420609 0.184018 0.71893
1179 4 0.998368 0.262872 0.757091
3262 2 0.0444032 0.321839 0.681455
3264 4 0.0356245 0.317905 0.704534
779 4 0.0390663 0.310998 0.722378
893 4 0.0247583 0.324143 0.719525
778 2 0.0609044 0.308236 0.734238
780 4 0.0827424 0.305474 0.746098
821 4 0.127299 0.287104 0.751666
1064 4 0.23418 0.277802 0.694914
1065 4 0.232925 0.276004 0.744873
1063 2 0.233552 0.276903 0.719894
948 4 0.25209 0.27784 0.688333
806 4 0.329128 0.307358 0.679785
1008 4 0.415445 0.325128 0.725695
1006 2 0.425357 0.314903 0.746247
892 2 0.0239229 0.348159 0.726432
894 4 0.0230876 0.372175 0.733338
3276 4 0.00896628 0.385637 0.736554
814 2 0.0496603 0.395461 0.749738
816 4 0.0263445 0.387789 0.744974
1066 2 0.164901 0.407603 0.706986
1068 4 0.180182 0.399087 0.68912
1027 2 0.210587 0.417189 0.675272
1028 4 0.187629 0.416427 0.685148
1019 4 0.40813 0.406306 0.732252
1280 4 0.0627663 0.499935 0.687543
1067 4 0.14962 0.416119 0.724851
940 2 0.109795 0.417048 0.743636
941 4 0.133737 0.41712 0.736429
1174 2 0.18082 0.496592 0.679766
1176 4 0.170955 0.492675 0.702405
1140 4 0.307825 0.487794 0.69638
1138 2 0.303851 0.463307 0.699509
1139 4 0.299876 0.438821 0.702637
1230 4 0.399403 0.476908 0.719462
1228 2 0.382042 0.466773 0.73433
1100 4 0.410445 0.460917 0.713783
1101 4 0.458068 0.458109 0.728779
1099 2 0.434257 0.459513 0.721281
1251 4 0.469711 0.451321 0.743401
3330 4 0.474502 0.448786 0.724532
3328 2 0.493409 0.441354 0.709956
1201 2 0.157173 0.056616 0.762897
2047 2 0.156071 0.999403 0.772635
1202 4 0.156079 0.037072 0.778454
1203 4 0.158266 0.0761599 0.74734
2049 4 0.165767 0.022402 0.771158
2256 4 0.184309 0.0197718 0.763151
1005 4 0.350661 0.0526564 0.74815
2321 4 0.463048 0.0129661 0.779013
2322 4 0.468451 0.0543627 0.806542
2320 2 0.46575 0.0336644 0.792777
846 4 0.463696 0.0743038 0.80499
980 4 0.458078 0.0188474 0.820521
864 4 0.0491454 0.0854783 0.771213
862 2 0.0448803 0.106867 0.783441
863 4 0.0406151 0.128255 0.79567
832 2 0.00893363 0.121728 0.823703
833 4 0.0263739 0.13188 0.808941
1125 4 0.040202 0.145273 0.805105
1123 2 0.0351842 0.169764 0.805571
31 1 0.120092 0.154704 0.822737
35 3 0.137017 0.145693 0.81045
33 3 0.102602 0.160877 0.808794
1147 2 0.198236 0.0904011 0.751136
1149 4 0.222302 0.0965398 0.748252
1148 4 0.17417 0.0842624 0.754021
1257 4 0.240969 0.0968927 0.757584
921 4 0.19414 0.15976 0.831397
1255 2 0.26162 0.100433 0.771229
1256 4 0.282271 0.103972 0.784875
840 4 0.281741 0.117444 0.800135
838 2 0.297192 0.125803 0.817928
844 2 0.480173 0.093081 0.803935
845 4 0.49665 0.111858 0.80288
1124 4 0.0301663 0.194254 0.806037
1072 2 0.0581274 0.23702 0.763966
1073 4 0.0344433 0.230288 0.759617
1106 4 0.132875 0.175715 0.761999
1130 4 0.141231 0.190943 0.751154
1129 2 0.149423 0.212094 0.761675
1131 4 0.157615 0.233246 0.772196
1277 4 0.160952 0.242178 0.789393
1074 4 0.0818116 0.243753 0.768314
920 4 0.187506 0.209304 0.832852
1276 2 0.172816 0.235356 0.810319
1278 4 0.18468 0.228534 0.831245
919 2 0.190823 0.184532 0.832124
977 4 0.305167 0.195469 0.75334
1298 4 0.319259 0.203316 0.762907