ITEM: TIMESTEP
2950000
ITEM: NUMBER OF ATOMS
4590
ITEM: BOX BOUNDS pp pp pp
-9.9985700000000008e+00 9.9985700000000008e+00
-9.9985700000000008e+00 9.9985700000000008e+00
-9.9985700000000008e+00 9.9985700000000008e+00
ITEM: ATOMS id type xs ys zs
465 4 0.071029 0.0722452 0.0328124
701 4 0.0900212 0.0712749 0.0276387
700 2 0.111566 0.0605862 0.0208006
702 4 0.13311 0.0498975 0.0139625
566 4 0.145993 0.057667 0.999916
565 2 0.169862 0.0640604 0.996096
746 4 0.473547 0.0419427 0.0434135
2469 4 0.483522 0.0402957 0.0610445
745 2 0.470199 0.0481125 0.0194155
463 2 0.052685 0.0890972 0.0349772
464 4 0.034341 0.105949 0.037142
590 4 0.0223201 0.115037 0.0487224
589 2 0.0110532 0.103115 0.0675928
567 4 0.193731 0.0704538 0.992276
558 4 0.377475 0.130492 0.0426208
556 2 0.37315 0.115628 0.0622558
866 4 0.374682 0.138176 0.0241188
865 2 0.370918 0.162014 0.0306588
827 4 0.376294 0.119392 0.0266018
771 4 0.421347 0.140876 0.0941491
554 4 0.0506337 0.222196 0.0252676
553 2 0.0705421 0.207534 0.0289934
555 4 0.0904504 0.192873 0.0327191
835 2 0.12708 0.196201 0.0229124
836 4 0.107768 0.200535 0.0381912
837 4 0.146392 0.191867 0.00763358
461 4 0.33722 0.236405 0.0860222
666 4 0.325823 0.229399 0.0708307
573 4 0.334406 0.246421 0.0699165
664 2 0.338765 0.211597 0.0589656
665 4 0.351708 0.193796 0.0471005
867 4 0.367155 0.185852 0.0371988
1070 4 0.438209 0.237349 0.0706891
2808 4 0.0520126 0.295149 0.0234228
2806 2 0.0283249 0.293965 0.0313393
292 2 0.113846 0.327964 0.0714756
293 4 0.133528 0.325629 0.0562325
294 4 0.0941643 0.330299 0.0867187
356 4 0.306104 0.30776 0.0495968
572 4 0.314245 0.289987 0.0559086
355 2 0.29525 0.327126 0.0380931
571 2 0.324325 0.268204 0.0629126
647 4 0.0150494 0.365556 0.0853193
646 2 0.0354402 0.351403 0.0883374
620 4 0.0103253 0.384977 0.0798271
507 4 0.149057 0.337491 0.0509334
505 2 0.151063 0.362407 0.0503415
483 4 0.161832 0.400007 0.0369664
481 2 0.184209 0.409592 0.0312582
482 4 0.206586 0.419177 0.0255501
506 4 0.153068 0.387323 0.0497495
357 4 0.284396 0.346491 0.0265895
902 4 0.272769 0.36057 0.0151251
901 2 0.274319 0.378046 0.997311
957 4 0.385582 0.40151 0.0202749
671 4 0.486323 0.380421 0.0635703
670 2 0.46835 0.367764 0.0754849
281 4 0.50142 0.391692 0.0592537
550 2 0.0716578 0.446086 0.0748561
552 4 0.0908212 0.462116 0.0758542
1787 4 0.0898304 0.477276 0.063474
1786 2 0.0976679 0.48487 0.0409778
1788 4 0.105505 0.492465 0.0184817
242 4 0.106698 0.471544 0.0704931
609 4 0.224948 0.412511 0.0218727
246 4 0.239928 0.484795 0.0338573
244 2 0.227022 0.477421 0.0539629
245 4 0.214116 0.470047 0.0740686
272 4 0.244544 0.483475 0.0150069
627 4 0.211564 0.451711 0.0831665
625 2 0.198936 0.430206 0.0813611
607 2 0.246615 0.424337 0.0258567
1778 4 0.254898 0.495625 0.0263213
608 4 0.268282 0.436163 0.0298407
252 4 0.282995 0.444483 0.0211664
250 2 0.304411 0.457357 0.020276
251 4 0.325827 0.470231 0.0193856
2289 4 0.33094 0.48689 0.0113454
280 2 0.492361 0.414981 0.0583827
525 4 0.440214 0.490572 0.0668893
226 2 0.470989 0.473238 0.0520897
227 4 0.483525 0.453415 0.0434242
228 4 0.458453 0.493061 0.0607553
16 1 0.0639408 0.0367102 0.138854
20 3 0.0597915 0.0413566 0.116949
18 3 0.0558755 0.0156043 0.144136
19 3 0.0538676 0.0526517 0.152374
380 4 0.0701252 0.058551 0.162541
17 3 0.0866466 0.0371259 0.142518
675 4 0.0878552 0.0514296 0.157017
652 2 0.323373 0.0308574 0.157221
653 4 0.330783 0.0547006 0.155889
1661 4 0.298928 0.00361076 0.168395
654 4 0.315963 0.00701429 0.158554
484 2 0.370446 0.0149465 0.105246
297 4 0.366213 0.0537064 0.122922
485 4 0.374635 0.0381675 0.113518
295 2 0.365409 0.0763616 0.112373
579 4 0.107194 0.139585 0.0845437
237 4 0.142735 0.145562 0.134271
578 4 0.131001 0.158071 0.124446
577 2 0.119097 0.148828 0.104495
235 2 0.153365 0.131099 0.151678
737 4 0.149858 0.159497 0.122941
448 2 0.161702 0.0789297 0.164235
236 4 0.163994 0.116635 0.169085
693 4 0.181867 0.11766 0.161288
449 4 0.173702 0.100715 0.161668
691 2 0.20544 0.114081 0.15376
692 4 0.229013 0.110502 0.146231
582 4 0.247868 0.113174 0.144557
580 2 0.27205 0.117867 0.148842
581 4 0.296233 0.12256 0.153127
30 3 0.29356 0.129403 0.171625
557 4 0.368826 0.100764 0.0818909
296 4 0.364604 0.0990168 0.101824
769 2 0.439909 0.155016 0.103131
770 4 0.458471 0.169156 0.112114
476 4 0.14106 0.164551 0.140028
475 2 0.130534 0.1818 0.154754
736 2 0.168371 0.174508 0.115383
738 4 0.186884 0.189519 0.107825
354 4 0.312157 0.241154 0.146787
283 2 0.32224 0.200861 0.151183
285 4 0.324534 0.176678 0.157109
284 4 0.319946 0.225043 0.145257
462 4 0.324194 0.238151 0.134271
460 2 0.330707 0.237278 0.110147
255 4 0.329043 0.238819 0.151136
352 2 0.288217 0.244825 0.152998
353 4 0.264277 0.248495 0.15921
253 2 0.350672 0.247409 0.16028
1014 4 0.47018 0.184335 0.118423
1013 4 0.455956 0.232237 0.120375
1012 2 0.463068 0.208286 0.119399
648 4 0.055831 0.337251 0.0913556
456 4 0.0663881 0.327043 0.105151
455 4 0.0554499 0.325604 0.153926
454 2 0.060919 0.326324 0.129538
749 4 0.0390309 0.329003 0.165226
610 2 0.225375 0.325046 0.116367
612 4 0.239463 0.305748 0.108999
756 4 0.236203 0.294747 0.125486
754 2 0.246542 0.280677 0.143383
755 4 0.256882 0.266607 0.161281
1069 2 0.434583 0.258955 0.0827391
322 2 0.450624 0.31182 0.0917968
1071 4 0.430957 0.280561 0.0947892
324 4 0.449004 0.287381 0.0968269
626 4 0.186308 0.408701 0.0795557
536 4 0.192168 0.401889 0.0978905
611 4 0.211287 0.344344 0.123735
535 2 0.204201 0.381364 0.105578
537 4 0.216235 0.360839 0.113266
387 4 0.334558 0.406542 0.12583
739 2 0.406178 0.3834 0.113794
740 4 0.395401 0.389124 0.135618
385 2 0.356791 0.400011 0.135222
386 4 0.379024 0.39348 0.144614
495 4 0.395105 0.40362 0.148565
15 3 0.384714 0.37476 0.14435
741 4 0.416954 0.377675 0.0919702
672 4 0.450377 0.355108 0.0873996
323 4 0.452244 0.336258 0.0867667
551 4 0.0524945 0.430057 0.073858
241 2 0.117792 0.470318 0.0928673
243 4 0.128885 0.469092 0.115241
1440 4 0.147079 0.470784 0.124411
1438 2 0.169743 0.478978 0.117747
1439 4 0.192406 0.487172 0.111083
637 2 0.231632 0.499689 0.107099
639 4 0.209617 0.490704 0.0993642
303 4 0.306425 0.469073 0.122661
766 2 0.283186 0.499503 0.132993
768 4 0.302739 0.484082 0.135234
301 2 0.315778 0.44592 0.121376
302 4 0.325131 0.422767 0.120092
524 4 0.429325 0.476981 0.113766
493 2 0.401748 0.42739 0.14456
660 4 0.40394 0.467915 0.150209
494 4 0.408392 0.45116 0.140554
523 2 0.43477 0.483776 0.0903278
658 2 0.421795 0.478821 0.163901
379 2 0.059559 0.0741446 0.178984
450 4 0.149702 0.0571447 0.166803
673 2 0.110551 0.0547273 0.166978
1505 4 0.146429 0.0454585 0.183176
674 4 0.133246 0.0580251 0.17694
1504 2 0.164774 0.0295223 0.189067
1506 4 0.183118 0.0135861 0.194957
23 3 0.405574 0.00118846 0.234165
632 4 0.407958 0.0579871 0.257375
22 3 0.427917 0.998241 0.204086
757 2 0.473358 0.0272715 0.223759
25 3 0.441695 0.0116387 0.236079
759 4 0.455897 0.0245933 0.241453
758 4 0.49082 0.0299496 0.206064
512 4 0.0511996 0.110005 0.19307
381 4 0.0489928 0.0897382 0.195427
511 2 0.0657734 0.129881 0.197282
513 4 0.0803473 0.149756 0.201493
339 4 0.0740445 0.16877 0.20589
26 1 0.308855 0.143996 0.180096
28 3 0.300214 0.154496 0.198897
29 3 0.314441 0.159806 0.164057
27 3 0.327831 0.132455 0.186085
311 4 0.459704 0.19134 0.192272
337 2 0.0922208 0.182466 0.195535
477 4 0.120009 0.199049 0.169481
363 4 0.121636 0.211994 0.184645
338 4 0.110397 0.196162 0.18518
362 4 0.145902 0.247389 0.210316
361 2 0.133769 0.229692 0.197481
277 2 0.25804 0.244804 0.199238
279 4 0.258843 0.235007 0.222229
628 2 0.393511 0.220333 0.181712
629 4 0.4021 0.197577 0.187506
630 4 0.384922 0.243089 0.175918
312 4 0.411049 0.188871 0.203556
310 2 0.435376 0.190106 0.197914
761 4 0.479518 0.228555 0.241249
750 4 0.0332386 0.299119 0.204902
395 4 0.0331372 0.285828 0.220251
748 2 0.0361348 0.314061 0.185064
394 2 0.0290618 0.282009 0.244623
372 4 0.146057 0.239151 0.228624
300 4 0.111584 0.314869 0.178496
298 2 0.112274 0.328083 0.199711
299 4 0.112964 0.341298 0.220926
734 4 0.122295 0.343405 0.238286
278 4 0.257236 0.254601 0.176248
401 4 0.279539 0.300909 0.227364
498 4 0.28121 0.320673 0.227475
496 2 0.29959 0.325067 0.211103
254 4 0.3723 0.255998 0.169424
765 4 0.38669 0.262217 0.180402
763 2 0.408409 0.273015 0.186476
528 4 0.501882 0.315079 0.195977
764 4 0.430128 0.283813 0.192549
624 4 0.482204 0.316833 0.203287
622 2 0.460743 0.304337 0.206199
623 4 0.439282 0.291842 0.209111
262 2 0.0573078 0.413101 0.219151
263 4 0.0821153 0.41275 0.222256
602 4 0.0791067 0.393519 0.230592
264 4 0.0325004 0.413452 0.216046
601 2 0.0918162 0.37212 0.232985
603 4 0.104526 0.350721 0.235377
290 4 0.179279 0.395683 0.187137
497 4 0.31797 0.329462 0.194732
308 4 0.337611 0.330519 0.199456
307 2 0.35072 0.34618 0.185031
309 4 0.363829 0.36184 0.170606
14 3 0.397469 0.399997 0.169211
11 1 0.393866 0.37746 0.165029
13 3 0.37975 0.368568 0.181156
12 3 0.414029 0.36642 0.165891
2617 2 0.00744288 0.434414 0.239051
2618 4 0.0292378 0.42938 0.227878
289 2 0.171912 0.416764 0.198383
291 4 0.164544 0.437845 0.209629
416 4 0.170124 0.457099 0.206909
415 2 0.181972 0.47787 0.199603
1430 4 0.212969 0.497652 0.197301
417 4 0.193819 0.498641 0.192297
597 4 0.477905 0.455531 0.20711
596 4 0.454068 0.495587 0.188999
659 4 0.439649 0.489727 0.177592
595 2 0.465986 0.475559 0.198055
1799 4 0.018498 0.0208725 0.298637
233 4 0.0143124 0.0404199 0.299626
1402 2 0.05484 0.0379125 0.313107
1403 4 0.0319489 0.033871 0.303896
1404 4 0.0777311 0.041954 0.322318
1798 2 0.00856673 0.0059978 0.316109
633 4 0.37559 0.0313887 0.28468
631 2 0.391774 0.0446879 0.271028
257 4 0.363921 0.04254 0.296053
698 4 0.360454 0.0236367 0.294754
697 2 0.357593 0.00318765 0.308854
256 2 0.366573 0.0557591 0.31711
350 4 0.438611 0.0245878 0.249598
349 2 0.447496 0.0290548 0.272539
744 4 0.455362 0.0160694 0.305303
742 2 0.471176 0.0194508 0.324373
351 4 0.456381 0.0335219 0.29548
398 4 0.0714715 0.140942 0.321757
390 4 0.0770758 0.159553 0.321235
393 4 0.0835983 0.14616 0.307506
392 4 0.122426 0.159689 0.279044
391 2 0.103012 0.152924 0.293275
545 4 0.129238 0.163685 0.260148
403 2 0.190859 0.165743 0.314169
404 4 0.200458 0.151967 0.332697
249 4 0.198232 0.135852 0.343463
521 4 0.496663 0.136199 0.262054
444 4 0.0322478 0.232061 0.314076
388 2 0.0753529 0.182604 0.330766
370 2 0.158973 0.251241 0.246293
544 2 0.148412 0.174761 0.27176
371 4 0.171888 0.263331 0.263962
546 4 0.167586 0.185838 0.283373
723 4 0.226258 0.208842 0.262642
721 2 0.205291 0.202351 0.274619
405 4 0.18126 0.179519 0.295642
722 4 0.184324 0.19586 0.286596
376 2 0.307176 0.225054 0.321416
378 4 0.294749 0.245011 0.312904
377 4 0.319603 0.205097 0.329929
420 4 0.390038 0.227136 0.267472
717 4 0.393469 0.239159 0.283437
418 2 0.410276 0.213125 0.271865
331 2 0.446103 0.210427 0.314875
332 4 0.437981 0.208055 0.291346
419 4 0.430514 0.199114 0.276258
760 2 0.463763 0.218755 0.25801
762 4 0.448009 0.208956 0.274771
442 2 0.028998 0.253004 0.30081
364 2 0.0198632 0.312734 0.296468
396 4 0.0249863 0.278191 0.268995
443 4 0.0257482 0.273947 0.287543
365 4 0.0256625 0.292762 0.282587
366 4 0.014064 0.332705 0.31035
735 4 0.146603 0.319748 0.27503
733 2 0.134449 0.331576 0.256658
677 4 0.165593 0.320973 0.272188
676 2 0.182204 0.320656 0.290874
508 2 0.236536 0.315825 0.289763
509 4 0.213726 0.321151 0.298508
678 4 0.198815 0.320338 0.30956
435 4 0.212158 0.333477 0.314015
510 4 0.259347 0.310498 0.281018
400 2 0.270725 0.296859 0.250409
402 4 0.261911 0.292809 0.273455
345 4 0.264681 0.294372 0.292075
343 2 0.281691 0.279179 0.302322
344 4 0.298702 0.263986 0.312569
715 2 0.382166 0.261387 0.281609
716 4 0.370862 0.283614 0.27978
542 4 0.369113 0.289317 0.299664
541 2 0.381448 0.310344 0.30522
543 4 0.393782 0.331372 0.310776
615 4 0.401422 0.328536 0.329928
751 2 0.494304 0.322746 0.323144
548 4 0.0107804 0.350377 0.317248
547 2 0.0261789 0.369991 0.315423
549 4 0.0415775 0.389606 0.313597
777 4 0.0528601 0.404271 0.322205
2493 4 0.997709 0.336524 0.321267
728 4 0.37055 0.3744 0.316296
727 2 0.360598 0.397026 0.320063
2538 4 0.479371 0.34423 0.292155
753 4 0.486697 0.327532 0.299811
2536 2 0.494541 0.361159 0.28174
1543 2 0.148623 0.47985 0.318684
1436 4 0.174673 0.489167 0.292463
1545 4 0.164129 0.474811 0.299727
729 4 0.350646 0.419652 0.32383
437 4 0.367835 0.428942 0.320799
730 2 0.0731309 0.067546 0.356294
1772 4 0.0091793 0.0330248 0.38696
1771 2 0.00293664 0.0190082 0.367218
2238 4 0.00754522 0.052341 0.391689
732 4 0.091674 0.0507903 0.355533
369 4 0.0881356 0.040553 0.372347
367 2 0.0883637 0.0233136 0.390456
606 4 0.152748 0.997337 0.402976
604 2 0.163619 0.0191276 0.40865
1701 4 0.180772 0.0594954 0.415203
424 2 0.383216 0.0615574 0.376549
425 4 0.396575 0.0510002 0.39486
1580 4 0.38812 0.0342608 0.399824
426 4 0.369857 0.0721146 0.358239
258 4 0.369225 0.0689782 0.338167
1579 2 0.377184 0.0123816 0.405008
743 4 0.486991 0.0228321 0.343443
478 2 0.48989 0.0410524 0.374408
480 4 0.484068 0.0614699 0.387614
397 2 0.0672279 0.122179 0.337728
399 4 0.0629843 0.103415 0.3537
318 4 0.00358072 0.120211 0.378906
317 4 0.0464171 0.100268 0.362534
731 4 0.0545878 0.0843017 0.357055
316 2 0.0249989 0.110239 0.37072
1699 2 0.186742 0.0738598 0.395628
247 2 0.189178 0.114369 0.352501
248 4 0.180124 0.092886 0.361539
1700 4 0.192711 0.0882243 0.376052
320 4 0.314649 0.121258 0.419165
684 4 0.295753 0.125372 0.423049
319 2 0.3241 0.127044 0.396751
321 4 0.333551 0.13283 0.374337
708 4 0.331771 0.148058 0.360658
516 4 0.465377 0.152558 0.36738
575 4 0.473615 0.136593 0.376308
574 2 0.472636 0.128903 0.400079
389 4 0.0736301 0.205655 0.340298
2654 4 0.992179 0.206684 0.374067
707 4 0.331503 0.18848 0.331218
706 2 0.331637 0.168269 0.345938
466 2 0.349984 0.248601 0.384659
467 4 0.343268 0.231633 0.367567
451 2 0.497108 0.218857 0.345373
333 4 0.454225 0.2128 0.338403
453 4 0.472996 0.213568 0.341398
515 4 0.461667 0.197844 0.346496
514 2 0.463522 0.175201 0.356938
407 4 0.0147044 0.336409 0.3298
406 2 0.0183046 0.322711 0.350406
408 4 0.0219049 0.309014 0.371011
275 4 0.143051 0.321671 0.344384
274 2 0.158067 0.313988 0.362841
617 4 0.12869 0.334831 0.337837
276 4 0.173083 0.306305 0.381299
373 2 0.196695 0.28255 0.390337
375 4 0.184404 0.294873 0.372385
473 4 0.222235 0.271331 0.424158
374 4 0.208987 0.270228 0.408288
266 4 0.314028 0.308612 0.414391
267 4 0.35517 0.280194 0.413692
468 4 0.3567 0.26557 0.401751
265 2 0.334599 0.294403 0.414041
613 2 0.419428 0.324189 0.346723
347 4 0.0736041 0.329357 0.377431
346 2 0.0606168 0.340678 0.395551
348 4 0.0476295 0.351999 0.413671
618 4 0.087547 0.337829 0.366103
616 2 0.108119 0.33633 0.35197
433 2 0.211515 0.330647 0.338849
434 4 0.210873 0.327817 0.363684
504 4 0.277208 0.412888 0.387912
240 4 0.400079 0.399982 0.403876
335 4 0.381018 0.406954 0.397317
334 2 0.35865 0.41513 0.404934
614 4 0.437434 0.319842 0.363518
775 2 0.0590444 0.425966 0.332987
776 4 0.0652287 0.447662 0.343768
414 4 0.0767482 0.458856 0.355657
1544 4 0.133117 0.484889 0.33764
413 4 0.11845 0.485931 0.35031
412 2 0.0975993 0.472394 0.352984
500 4 0.135025 0.496751 0.353223
502 2 0.297862 0.421458 0.399098
503 4 0.318516 0.430028 0.410284
436 2 0.371525 0.448894 0.33541
669 4 0.33059 0.437329 0.424382
438 4 0.375215 0.468846 0.35002
336 4 0.336282 0.423306 0.412551
592 2 0.389736 0.499703 0.367879
593 4 0.376262 0.489651 0.349369
3990 4 0.478375 0.487059 0.371666
2236 2 0.0182141 0.0562818 0.413956
1127 4 0.0181617 0.0544623 0.451069
2237 4 0.028883 0.0602226 0.436223
720 4 0.0212707 0.0731997 0.449311
1126 2 0.0094748 0.0449634 0.472505
605 4 0.17449 0.0409178 0.414323
341 4 0.1985 0.0355744 0.50224
2428 2 0.225517 0.0293354 0.486758
2430 4 0.209326 0.0478913 0.491085
2429 4 0.241707 0.0107795 0.48243
961 2 0.279576 0.0132894 0.484396
724 2 0.302231 0.0636014 0.487578
725 4 0.303826 0.0425773 0.501018
963 4 0.299764 0.0262911 0.491366
432 4 0.315805 0.0271935 0.502908
2879 4 0.415859 0.0285587 0.491798
642 4 0.455654 0.0631976 0.456856
2878 2 0.427262 0.0400083 0.472717
2880 4 0.438665 0.0514579 0.453637
469 2 0.000147796 0.138691 0.482844
470 4 0.0228852 0.129123 0.478763
718 2 0.0261487 0.0968725 0.455713
719 4 0.0310267 0.120545 0.462114
939 4 0.101355 0.155434 0.482576
1033 2 0.126144 0.145708 0.465577
1035 4 0.150374 0.150542 0.461735
261 4 0.168154 0.154055 0.470346
1034 4 0.101915 0.140874 0.469419
682 2 0.274601 0.13742 0.417338
683 4 0.253448 0.149468 0.411627
726 4 0.300637 0.0846254 0.474138
1181 4 0.309201 0.125518 0.437591
1182 4 0.318541 0.0942496 0.475483
1180 2 0.313871 0.109884 0.456537
576 4 0.471656 0.121213 0.423851
640 2 0.462857 0.084878 0.446694
641 4 0.470061 0.106558 0.436533
306 4 0.468143 0.125593 0.441988
304 2 0.464339 0.141714 0.460719
3158 4 0.455347 0.150714 0.497258
305 4 0.460536 0.157835 0.479449
694 2 0.1743 0.233632 0.487737
696 4 0.160564 0.252833 0.495971
259 2 0.172598 0.178628 0.469095
695 4 0.188037 0.214431 0.479503
260 4 0.177043 0.203202 0.467843
472 2 0.234223 0.251012 0.432444
687 4 0.240283 0.217066 0.449828
686 4 0.196446 0.201493 0.468172
685 2 0.218364 0.209279 0.459
474 4 0.24621 0.230694 0.440729
600 4 0.256317 0.170492 0.416167
489 4 0.306546 0.243458 0.417362
599 4 0.253628 0.215035 0.438737
411 4 0.255729 0.224188 0.453958
598 2 0.254973 0.192764 0.427452
409 2 0.263222 0.229516 0.477209
488 4 0.263948 0.22923 0.439356
487 2 0.285247 0.236344 0.428359
410 4 0.270716 0.234844 0.500461
2812 2 0.0124621 0.337063 0.432857
2813 4 0.0336341 0.348109 0.425447
326 4 0.0435314 0.366451 0.425279
325 2 0.0608742 0.374864 0.441205
327 4 0.0782169 0.383277 0.45713
7 3 0.0810213 0.376846 0.476097
6 1 0.102905 0.373022 0.482065
8 3 0.112336 0.39299 0.489189
709 2 0.145102 0.41217 0.486332
10 3 0.11431 0.365036 0.464042
710 4 0.168938 0.413144 0.478844
813 4 0.289677 0.344906 0.480202
927 4 0.4273 0.37786 0.509132
679 2 0.0683086 0.455818 0.488227
680 4 0.0636581 0.473607 0.471282
1383 4 0.0617694 0.490691 0.460135
635 4 0.18455 0.424886 0.479843
636 4 0.193717 0.44119 0.433466
634 2 0.189133 0.433038 0.456654
774 4 0.182148 0.412695 0.494209
5 3 0.29063 0.504334 0.435731
4 3 0.327422 0.496575 0.437676
667 2 0.33762 0.460748 0.429609
668 4 0.34465 0.484167 0.434836
239 4 0.420801 0.425221 0.441748
587 4 0.40396 0.43996 0.496373
588 4 0.413974 0.443652 0.447518
586 2 0.408967 0.441806 0.471946
238 2 0.41044 0.412602 0.422812
1184 4 0.0185896 0.00833889 0.552372
3077 4 0.0213431 0.0278657 0.558391
3076 2 0.010769 0.0322423 0.53616
3078 4 0.000194754 0.036619 0.513929
1128 4 0.000787851 0.0354645 0.49394
1152 4 0.137854 0.0587616 0.522123
1150 2 0.136225 0.0679535 0.545319
1151 4 0.134597 0.0771454 0.568514
1059 4 0.148049 0.0793928 0.58219
342 4 0.157688 0.0527001 0.525518
340 2 0.178094 0.0441373 0.513879
430 2 0.332712 0.018618 0.519212
841 2 0.371964 0.0276032 0.563695
842 4 0.389718 0.0425458 0.573005
1217 4 0.406705 0.0356773 0.563172
843 4 0.35421 0.0126606 0.554384
431 4 0.349619 0.0100426 0.535515
1216 2 0.425164 0.0194424 0.558601
1061 4 0.501723 0.069275 0.517587
1218 4 0.443622 0.00320755 0.554031
879 4 0.0581471 0.159028 0.529315
877 2 0.0342805 0.152165 0.532224
878 4 0.0104139 0.145302 0.535134
938 4 0.072788 0.169554 0.521115
937 2 0.0870713 0.162494 0.501845
1155 4 0.143719 0.0939303 0.569505
1154 4 0.152146 0.143195 0.567852
1153 2 0.147932 0.118562 0.568678
3159 4 0.450489 0.111204 0.527525
3157 2 0.452918 0.130959 0.512392
1062 4 0.470591 0.108002 0.523218
1060 2 0.486157 0.0886386 0.520402
1272 4 0.0651595 0.175674 0.537062
1270 2 0.0772358 0.183382 0.557555
1271 4 0.0893121 0.191089 0.578047
1258 2 0.150135 0.246615 0.537567
1259 4 0.139536 0.248357 0.560146
1260 4 0.160734 0.244873 0.514988
898 2 0.294096 0.219415 0.534338
899 4 0.310304 0.209265 0.550446
857 4 0.309555 0.211927 0.568918
791 4 0.320359 0.224168 0.557747
900 4 0.277888 0.229565 0.518231
790 2 0.338359 0.241277 0.560648
792 4 0.35636 0.258387 0.563549
872 4 0.361303 0.26654 0.547043
1238 4 0.371557 0.270494 0.562637
871 2 0.380754 0.268677 0.531477
873 4 0.400205 0.270814 0.515912
1237 2 0.361438 0.286857 0.578607
807 4 0.332882 0.303952 0.603226
1135 2 0.12439 0.359002 0.575062
1136 4 0.109607 0.339099 0.578308
711 4 0.121265 0.411197 0.493819
9 3 0.103379 0.357456 0.499266
773 4 0.216327 0.410257 0.530631
1189 2 0.215104 0.411392 0.564618
1190 4 0.229949 0.407441 0.54489
803 4 0.225527 0.393457 0.531636
802 2 0.233625 0.369919 0.529279
804 4 0.241724 0.346381 0.526923
930 4 0.235621 0.40932 0.526224
651 4 0.2852 0.322144 0.573856
649 2 0.270774 0.333346 0.55678
650 4 0.256349 0.344549 0.539704
812 4 0.259549 0.345901 0.520103
811 2 0.274613 0.345404 0.500153
925 2 0.417381 0.400787 0.508071
539 4 0.0744336 0.501048 0.523595
383 4 0.0795812 0.430279 0.524204
681 4 0.072959 0.43803 0.505172
382 2 0.102687 0.422553 0.518582
569 4 0.137314 0.424513 0.525365
568 2 0.151384 0.442741 0.535107
384 4 0.125793 0.414828 0.51296
772 2 0.199238 0.411476 0.51242
570 4 0.165454 0.46097 0.54485
928 2 0.256292 0.42307 0.529196
929 4 0.276962 0.43682 0.532169
1951 2 0.290646 0.46923 0.522792
1953 4 0.279323 0.448081 0.515741
1952 4 0.301968 0.490378 0.529843
926 4 0.407463 0.423715 0.507011
663 4 0.401429 0.440427 0.516176
661 2 0.412436 0.457676 0.530545
1001 4 0.415707 0.487593 0.557088
662 4 0.423444 0.474926 0.544914
1911 4 0.430575 0.477627 0.563103
1332 4 0.432688 0.491708 0.549741
1909 2 0.431477 0.462281 0.582823
2374 2 0.137556 0.00740915 0.607565
2375 4 0.139573 0.0321694 0.604729
1057 2 0.152512 0.0597762 0.597038
1058 4 0.156975 0.0401596 0.611885
950 4 0.260094 0.0213132 0.603732
2400 4 0.322168 0.00555874 0.627043
949 2 0.266099 0.0415617 0.617115
951 4 0.272105 0.0618103 0.630498
1031 4 0.280545 0.0546688 0.646695
1030 2 0.301343 0.0462677 0.657742
808 2 0.492793 0.0853323 0.637053
43 3 0.43915 0.0595359 0.657634
1221 4 0.161874 0.152194 0.583955
1219 2 0.181465 0.161583 0.596332
809 4 0.497833 0.0917703 0.613424
1244 4 0.10624 0.192917 0.588047
1245 4 0.0978724 0.169891 0.631642
1243 2 0.102056 0.181404 0.609844
1209 4 0.108127 0.178203 0.648051
1210 2 0.237141 0.175423 0.631513
1212 4 0.218352 0.1782 0.615252
1220 4 0.201057 0.170973 0.608708
797 4 0.209954 0.232434 0.589614
796 2 0.211124 0.207875 0.594156
798 4 0.212294 0.183315 0.598698
1211 4 0.255931 0.172646 0.647774
856 2 0.311066 0.19032 0.581409
858 4 0.312576 0.168713 0.593901
888 4 0.261759 0.161535 0.662515
3121 2 0.483774 0.220368 0.633798
3122 4 0.489552 0.19687 0.640094
3357 4 0.490419 0.176649 0.639042
3123 4 0.477995 0.243866 0.627501
983 4 0.00137861 0.322727 0.626711
982 2 0.0192477 0.32831 0.643286
3263 4 0.0524825 0.324596 0.666037
806 4 0.292525 0.330493 0.59028
805 2 0.312703 0.317222 0.596753
1239 4 0.351319 0.30322 0.594577
906 4 0.44862 0.292685 0.60044
905 4 0.461014 0.252971 0.628187
904 2 0.454817 0.272828 0.614313
953 4 0.460623 0.308642 0.603899
952 2 0.479051 0.324329 0.597611
984 4 0.0371169 0.333893 0.65986
1041 4 0.0535237 0.343619 0.658907
1039 2 0.0645456 0.362274 0.64643
1040 4 0.0755675 0.380929 0.633953
993 4 0.0727101 0.39979 0.626563
991 2 0.0590615 0.420095 0.621406
1137 4 0.139173 0.378904 0.571817
897 4 0.141782 0.398974 0.576625
895 2 0.164362 0.40294 0.586604
896 4 0.186942 0.406906 0.596584
1028 4 0.195452 0.393724 0.661125
1027 2 0.192722 0.402848 0.638007
1029 4 0.189992 0.411973 0.614888
954 4 0.497478 0.340016 0.591323
1206 4 0.485178 0.413123 0.630761
3309 4 0.497117 0.400748 0.62092
3307 2 0.49747 0.379936 0.607067
992 4 0.0454128 0.440401 0.616249
1191 4 0.20026 0.415343 0.584347
1172 4 0.1943 0.423922 0.600318
1160 4 0.195251 0.491171 0.608427
1171 2 0.193735 0.448225 0.606165
1173 4 0.19317 0.472529 0.612012
1187 4 0.187809 0.485138 0.625514
1186 2 0.181276 0.48668 0.6496
1268 4 0.44813 0.487147 0.656655
1267 2 0.443523 0.472073 0.637245
1204 2 0.467455 0.427648 0.620757
1910 4 0.432378 0.446935 0.602542
1269 4 0.438915 0.456999 0.617836
1205 4 0.449731 0.442173 0.610753
2168 4 0.468844 0.489996 0.65662
1284 4 0.101968 0.0468548 0.727553
1282 2 0.117843 0.0638224 0.71832
2047 2 0.148722 0.0140256 0.74163
2049 4 0.168728 0.00857287 0.727659
1225 2 0.168181 0.083134 0.698921
1201 2 0.19201 0.0362051 0.715553
1202 4 0.186982 0.0124692 0.721595
1203 4 0.197038 0.0599409 0.709511
1226 4 0.192207 0.0774826 0.702922
1148 4 0.210835 0.0735318 0.709341
1147 2 0.217689 0.0842582 0.730862
2256 4 0.184565 0.00670721 0.73969
1032 4 0.322141 0.0378667 0.668789
810 4 0.487753 0.0788944 0.660682
45 3 0.461168 0.0333351 0.673331
41 1 0.455174 0.0552994 0.673872
1163 4 0.490042 0.0738496 0.679063
44 3 0.473795 0.0686773 0.670307
42 3 0.44632 0.0602299 0.694523
3426 4 0.476742 0.0873389 0.674107
844 2 0.444167 0.076432 0.757089
1077 4 0.0242619 0.132283 0.72715
1075 2 0.00947863 0.114504 0.717635
864 4 0.0314236 0.126174 0.744515
850 2 0.069911 0.160056 0.716069
852 4 0.045835 0.163985 0.721555
909 4 0.104804 0.142059 0.702872
907 2 0.117858 0.120782 0.704297
908 4 0.130913 0.0995049 0.705723
1283 4 0.133718 0.08079 0.709086
1227 4 0.144156 0.0887854 0.69492
851 4 0.0939869 0.156128 0.710583
1208 4 0.102958 0.159058 0.693958
1107 4 0.112462 0.15905 0.710777
1149 4 0.224544 0.0949847 0.752383
829 2 0.327216 0.148089 0.704067
830 4 0.306883 0.162059 0.708143
831 4 0.347549 0.13412 0.699991
1142 4 0.356289 0.150032 0.706421
1141 2 0.379907 0.157191 0.710438
1143 4 0.403524 0.16435 0.714456
1025 4 0.460398 0.130668 0.711032
3424 2 0.476367 0.108932 0.686707
3425 4 0.475992 0.130525 0.699307
3269 4 0.47771 0.131257 0.718253
1024 2 0.441248 0.146687 0.709685
3268 2 0.486776 0.142009 0.738926
1026 4 0.422097 0.162707 0.708339
845 4 0.443023 0.0944787 0.739821
1214 4 0.039148 0.182357 0.713867
1213 2 0.0173174 0.192302 0.720917
1207 2 0.105543 0.16863 0.671004
1105 2 0.129609 0.172201 0.723356
1106 4 0.146755 0.185351 0.735935
1130 4 0.161296 0.198505 0.741071
887 4 0.295085 0.173446 0.697845
978 4 0.29177 0.171005 0.71719
886 2 0.278422 0.167491 0.68018
976 2 0.299999 0.184068 0.736857
916 2 0.310973 0.237452 0.749561
1262 4 0.417359 0.176575 0.721462
1192 2 0.41562 0.197165 0.687838
1194 4 0.411384 0.177856 0.703148
1193 4 0.419856 0.216474 0.672528
1261 2 0.42419 0.18592 0.743625
1044 4 0.467138 0.247991 0.753118
3262 2 0.061709 0.319371 0.688681
3264 4 0.0709356 0.314145 0.711325
893 4 0.0843053 0.320063 0.724085
779 4 0.0887638 0.30675 0.70961
778 2 0.112337 0.300236 0.71481
780 4 0.135911 0.293722 0.720009
1064 4 0.279965 0.30971 0.698911
1063 2 0.256125 0.315885 0.69459
947 4 0.319565 0.278246 0.742262
946 2 0.306015 0.293681 0.728001
948 4 0.292464 0.309115 0.713741
917 4 0.321162 0.259846 0.745103
1008 4 0.443918 0.289471 0.711451
1006 2 0.458668 0.274155 0.724605
1007 4 0.473418 0.258838 0.737759
1166 4 0.482148 0.260715 0.754894
892 2 0.0768296 0.337425 0.740452
941 4 0.152475 0.40281 0.723972
1067 4 0.164321 0.387486 0.719602
940 2 0.142947 0.399921 0.746908
1066 2 0.179006 0.392854 0.70009
1068 4 0.193691 0.398223 0.680578
1065 4 0.232284 0.322061 0.690269
1019 4 0.388302 0.420807 0.742492
1230 4 0.375618 0.417055 0.728866
884 4 0.0440007 0.473075 0.740576
1176 4 0.134423 0.469441 0.713584
1174 2 0.1444 0.477849 0.692255
1175 4 0.154377 0.486258 0.670926
1188 4 0.174743 0.488223 0.673686
1139 4 0.321544 0.473194 0.671913
1138 2 0.317893 0.459695 0.692641
1140 4 0.314242 0.446197 0.713369
1989 4 0.323444 0.448968 0.730797
1229 4 0.330711 0.436158 0.717947
1100 4 0.394501 0.421121 0.724014
1228 2 0.353165 0.426607 0.723406
1099 2 0.41106 0.439782 0.722351
1101 4 0.427618 0.458443 0.720688
3330 4 0.446074 0.460254 0.715558
3328 2 0.466326 0.449675 0.705405
1251 4 0.438147 0.47285 0.728856
3329 4 0.486579 0.439095 0.695252
1249 2 0.434289 0.495604 0.738476
834 4 0.0277138 0.0649095 0.815597
785 4 0.0133329 0.0534384 0.823228
832 2 0.0423935 0.0837523 0.808205
2048 4 0.128715 0.0194783 0.755601
2390 4 0.127762 0.00775598 0.771002
1113 4 0.386493 0.0991412 0.770629
2321 4 0.450359 0.00659556 0.801387
2322 4 0.463387 0.0496705 0.779581
2320 2 0.456873 0.0281331 0.790484
846 4 0.445311 0.0583854 0.774357
862 2 0.0451048 0.119137 0.764225
863 4 0.058786 0.112099 0.783935
833 4 0.0570733 0.102595 0.800813
1125 4 0.0579768 0.121347 0.801857
1123 2 0.0686339 0.13996 0.814709
1124 4 0.079291 0.158573 0.827561
911 4 0.131964 0.109757 0.817997
1257 4 0.207125 0.10147 0.762536
1255 2 0.211911 0.120319 0.778252
921 4 0.206467 0.143869 0.810749
919 2 0.190719 0.156143 0.8258
840 4 0.224662 0.138086 0.811609
1256 4 0.216697 0.139167 0.793969
838 2 0.247237 0.144259 0.820409
1111 2 0.383888 0.0964604 0.795352
1112 4 0.381284 0.0937795 0.820074
818 4 0.379681 0.100359 0.838799
3270 4 0.495841 0.152762 0.759599
1146 4 0.48897 0.165706 0.773067
34 3 0.122577 0.184521 0.830443
1277 4 0.151892 0.216886 0.801221
1276 2 0.157249 0.200019 0.818885
920 4 0.174971 0.168417 0.84085
1129 2 0.163547 0.208434 0.763908
1131 4 0.165799 0.218364 0.786744
822 4 0.155773 0.233739 0.792838
977 4 0.308229 0.19713 0.756525
918 4 0.300785 0.215058 0.754018
1298 4 0.311421 0.211328 0.769505
1297 2 0.319634 0.198944 0.789614
1299 4 0.327847 0.186559 0.809722
1086 4 0.344633 0.191769 0.81885
50 3 0.402615 0.206702 0.797974
46 1 0.424376 0.200163 0.796442
49 3 0.437554 0.218026 0.789685
1043 4 0.444231 0.208294 0.77312
48 3 0.43172 0.19222 0.81697
47 3 0.426146 0.183312 0.780883
1263 4 0.431021 0.195264 0.765788
1145 4 0.444847 0.188956 0.776715
1144 2 0.466909 0.177331 0.774891
1042 2 0.455685 0.228143 0.763119
1022 4 0.449494 0.196901 0.821256
3187 2 0.0131577 0.271715 0.775415
3189 4 0.0268864 0.275846 0.7959
821 4 0.177811 0.278519 0.789716
820 2 0.166792 0.256129 0.791277
1236 4 0.22405 0.301324 0.770058
1234 2 0.23037 0.314097 0.790603
1098 4 0.247694 0.33305 0.827413
1165 2 0.495725 0.269199 0.7741
3275 4 0.0148312 0.358963 0.780508
894 4 0.0693538 0.354786 0.756819
3276 4 0.0645163 0.360999 0.77522
3274 2 0.0396738 0.359981 0.777864
816 4 0.0825085 0.358535 0.770112
814 2 0.102412 0.372383 0.776218
942 4 0.133418 0.397031 0.769843
815 4 0.122316 0.38623 0.782323
1080 4 0.141371 0.390068 0.7866
1078 2 0.140142 0.39555 0.810965
1079 4 0.138914 0.401032 0.835329
1235 4 0.236691 0.32687 0.811147