ITEM: TIMESTEP
2660000
ITEM: NUMBER OF ATOMS
4590
ITEM: BOX BOUNDS pp pp pp
-9.9985700000000008e+00 9.9985700000000008e+00
-9.9985700000000008e+00 9.9985700000000008e+00
-9.9985700000000008e+00 9.9985700000000008e+00
ITEM: ATOMS id type xs ys zs
465 4 0.0910114 0.0775371 0.0270511
701 4 0.1001 0.0687671 0.00959671
700 2 0.122523 0.0586613 0.0140962
702 4 0.144946 0.0485554 0.0185957
566 4 0.159282 0.0421431 0.00714793
565 2 0.181619 0.0442935 0.996119
567 4 0.203955 0.0464439 0.98509
746 4 0.471753 0.0680281 0.027336
2467 2 0.489887 0.0341245 0.0496311
2469 4 0.478425 0.0548168 0.0415306
745 2 0.465939 0.0649518 0.00321322
463 2 0.0710492 0.0869792 0.0387787
590 4 0.042415 0.0976362 0.0683985
464 4 0.0510871 0.0964214 0.0505063
589 2 0.0191184 0.0987344 0.077412
558 4 0.362766 0.12478 0.0396961
556 2 0.356297 0.120805 0.0635188
865 2 0.359401 0.161113 0.00378372
557 4 0.349827 0.11683 0.0873415
771 4 0.454291 0.142043 0.0707408
554 4 0.0387675 0.211646 0.0103287
553 2 0.0623846 0.211636 0.018539
555 4 0.0860018 0.211627 0.0267493
835 2 0.120651 0.201257 0.0242023
836 4 0.100973 0.205005 0.0391656
837 4 0.140329 0.197509 0.00923898
738 4 0.1822 0.192818 0.0882887
915 4 0.149252 0.213278 0.00139607
573 4 0.340115 0.243901 0.0646748
666 4 0.342563 0.224541 0.0643063
461 4 0.327088 0.231274 0.0728467
664 2 0.343597 0.204131 0.0499008
665 4 0.344631 0.18372 0.0354953
867 4 0.3437 0.175382 0.0170149
769 2 0.463391 0.163796 0.0790578
1070 4 0.460127 0.245405 0.078624
2808 4 0.0257992 0.326282 0.0234513
2806 2 0.0126101 0.306786 0.0318859
294 4 0.0944456 0.323075 0.075859
507 4 0.136797 0.338724 0.0274509
356 4 0.318651 0.29799 0.0379301
572 4 0.313885 0.278473 0.0398266
355 2 0.3113 0.320056 0.0287516
571 2 0.327 0.261187 0.0522507
1069 2 0.445701 0.265818 0.0779814
324 4 0.438683 0.302792 0.0872033
322 2 0.443563 0.320514 0.0702527
1071 4 0.431276 0.28623 0.0773387
647 4 0.0237165 0.355843 0.0614
646 2 0.0447582 0.352955 0.0745941
648 4 0.0657999 0.350067 0.0877883
292 2 0.113258 0.330505 0.0611598
293 4 0.132071 0.337934 0.0464606
505 2 0.160381 0.346632 0.0249054
481 2 0.215089 0.382285 0.0219317
482 4 0.235815 0.393917 0.0141677
483 4 0.194362 0.370653 0.0296958
609 4 0.250463 0.403247 0.0242631
536 4 0.193456 0.397134 0.0976723
535 2 0.202957 0.374012 0.0982178
506 4 0.183964 0.354539 0.0223598
626 4 0.197555 0.40372 0.0796313
357 4 0.30395 0.342122 0.0195731
902 4 0.31245 0.354928 0.0072376
957 4 0.370359 0.364709 0.0277619
955 2 0.376572 0.372072 0.00468891
323 4 0.448442 0.338235 0.0533021
672 4 0.468391 0.342101 0.0505727
280 2 0.491128 0.418471 0.0534062
281 4 0.500413 0.399896 0.0673307
671 4 0.489111 0.384044 0.0682429
670 2 0.478751 0.363073 0.0594078
551 4 0.0288305 0.444897 0.0682993
550 2 0.0536399 0.446189 0.0711283
552 4 0.0784493 0.447481 0.0739572
1465 2 0.00417746 0.472497 0.0801824
1787 4 0.0955875 0.450981 0.0645946
1786 2 0.112532 0.449162 0.0462984
1788 4 0.129477 0.447343 0.0280021
246 4 0.24864 0.480633 0.0394149
244 2 0.234884 0.465945 0.0542554
245 4 0.221129 0.451258 0.069096
625 2 0.199634 0.428533 0.0773643
607 2 0.26791 0.420968 0.0268533
272 4 0.244426 0.479412 0.0195572
608 4 0.285357 0.43869 0.0294436
252 4 0.292975 0.445715 0.0481026
250 2 0.313232 0.455463 0.037158
251 4 0.33349 0.465211 0.0262134
1778 4 0.254458 0.493804 0.0269745
2289 4 0.338858 0.469559 0.00763214
282 4 0.481842 0.437047 0.0394816
226 2 0.46715 0.471365 0.0448968
227 4 0.478687 0.45373 0.0314396
228 4 0.455614 0.489 0.058354
16 1 0.0561109 0.0466677 0.163353
20 3 0.0539914 0.0571743 0.143259
1806 4 0.0447769 0.0257523 0.142111
18 3 0.0538532 0.0237417 0.160577
1804 2 0.0428613 0.0117954 0.121454
450 4 0.150064 0.0604422 0.165094
675 4 0.0889867 0.0443742 0.158964
17 3 0.0769407 0.051089 0.172055
448 2 0.164122 0.0779585 0.154107
484 2 0.377945 0.0146582 0.099699
297 4 0.368213 0.0535586 0.113803
485 4 0.375707 0.0391396 0.104263
486 4 0.380183 0.990177 0.0951348
579 4 0.0970524 0.12306 0.103735
237 4 0.151369 0.153273 0.127785
578 4 0.134229 0.153234 0.118162
577 2 0.115641 0.138147 0.110949
235 2 0.162762 0.133588 0.138171
476 4 0.139152 0.167541 0.129042
737 4 0.148163 0.165048 0.112186
236 4 0.174154 0.113902 0.148557
693 4 0.191238 0.10981 0.13975
449 4 0.17818 0.0954747 0.143119
691 2 0.215911 0.110656 0.135788
692 4 0.240584 0.111501 0.131826
582 4 0.260085 0.108677 0.122806
580 2 0.279036 0.112722 0.138606
581 4 0.297988 0.116767 0.154407
30 3 0.310812 0.124082 0.170542
29 3 0.312215 0.158382 0.155076
26 1 0.308509 0.146376 0.174583
28 3 0.287219 0.150796 0.182681
295 2 0.360714 0.0763785 0.106861
296 4 0.353214 0.0991984 0.0999196
475 2 0.132878 0.179999 0.149793
736 2 0.165182 0.178933 0.100238
354 4 0.317215 0.237401 0.135708
283 2 0.322915 0.200808 0.144408
285 4 0.317227 0.177184 0.150301
284 4 0.328603 0.224432 0.138514
462 4 0.327766 0.232189 0.122841
460 2 0.327427 0.231731 0.0978438
255 4 0.33423 0.240988 0.136607
770 4 0.472491 0.185549 0.0873748
1014 4 0.481209 0.180993 0.105736
1013 4 0.482615 0.209214 0.146996
1012 2 0.481912 0.195104 0.126366
749 4 0.054289 0.31964 0.16083
455 4 0.0651198 0.3236 0.144881
454 2 0.0610823 0.32961 0.120948
612 4 0.249312 0.310983 0.119787
352 2 0.294972 0.24603 0.143191
756 4 0.255587 0.317295 0.138233
353 4 0.27273 0.254658 0.150674
754 2 0.266597 0.295276 0.142604
755 4 0.277608 0.273257 0.146975
253 2 0.35308 0.244493 0.152656
624 4 0.474913 0.31412 0.170266
764 4 0.408834 0.302691 0.178989
622 2 0.450115 0.313605 0.173428
456 4 0.0570449 0.335619 0.0970155
537 4 0.212459 0.350891 0.0987632
611 4 0.20811 0.338226 0.111985
610 2 0.228711 0.324604 0.115886
387 4 0.329694 0.402203 0.150327
741 4 0.404561 0.37263 0.104268
739 2 0.396386 0.379512 0.126873
740 4 0.388212 0.386394 0.149478
385 2 0.353827 0.399244 0.156156
386 4 0.377961 0.396285 0.161986
495 4 0.396894 0.400708 0.161005
15 3 0.380658 0.37671 0.164932
242 4 0.0947641 0.439653 0.0805824
241 2 0.102441 0.451179 0.1014
1438 2 0.153152 0.461742 0.126578
243 4 0.110119 0.462705 0.122218
1440 4 0.128429 0.461619 0.130308
627 4 0.201713 0.453347 0.0750973
1439 4 0.177876 0.461866 0.122848
637 2 0.218277 0.468934 0.12332
638 4 0.239557 0.479605 0.130966
639 4 0.196997 0.458262 0.115674
767 4 0.254601 0.472524 0.141676
303 4 0.310042 0.456996 0.112607
766 2 0.277061 0.472555 0.130688
768 4 0.299521 0.472585 0.1197
301 2 0.318595 0.436987 0.124922
302 4 0.327148 0.416978 0.137237
525 4 0.402816 0.496051 0.0746509
523 2 0.397902 0.474656 0.0866216
524 4 0.392987 0.453262 0.0985923
493 2 0.401789 0.424709 0.15599
494 4 0.406684 0.44871 0.150975
660 4 0.413531 0.46418 0.139363
658 2 0.424529 0.478222 0.156885
19 3 0.0400023 0.0544839 0.178112
380 4 0.0432888 0.0728181 0.170531
1505 4 0.153447 0.0452522 0.177235
673 2 0.112256 0.0484411 0.16716
674 4 0.135526 0.0525081 0.175355
1504 2 0.171268 0.0305262 0.186761
1506 4 0.189089 0.0158002 0.196286
654 4 0.313157 0.0218653 0.148256
652 2 0.323338 0.0396009 0.162643
653 4 0.333518 0.0573365 0.17703
22 3 0.419315 0.0148278 0.190363
23 3 0.39813 0.0240267 0.220015
24 3 0.415473 0.990242 0.21853
21 1 0.417222 0.0127512 0.213176
757 2 0.473255 0.0306115 0.213339
25 3 0.435573 0.0217291 0.223241
759 4 0.452605 0.0302072 0.227431
350 4 0.444454 0.019239 0.240333
758 4 0.493904 0.0310159 0.199246
379 2 0.0364356 0.0922996 0.184626
512 4 0.0319629 0.130658 0.206737
381 4 0.0295823 0.111781 0.198721
511 2 0.0550455 0.135978 0.214742
513 4 0.078128 0.141298 0.222746
339 4 0.0838808 0.156827 0.212255
27 3 0.323955 0.152853 0.19035
521 4 0.477946 0.158722 0.232858
337 2 0.0989955 0.169861 0.197194
477 4 0.126603 0.192457 0.170544
363 4 0.11838 0.202221 0.185
338 4 0.11411 0.182895 0.182133
362 4 0.120568 0.241496 0.215876
361 2 0.119474 0.221858 0.200438
628 2 0.400262 0.22711 0.189558
629 4 0.415587 0.208594 0.196448
312 4 0.415276 0.188101 0.198398
311 4 0.446839 0.15926 0.224333
310 2 0.431058 0.173681 0.211366
761 4 0.48119 0.229521 0.234238
750 4 0.0386136 0.293589 0.200533
395 4 0.0350915 0.300419 0.219772
748 2 0.0464513 0.306614 0.180682
394 2 0.0291548 0.288234 0.240783
372 4 0.137484 0.243676 0.225923
370 2 0.152415 0.259254 0.238556
300 4 0.121332 0.283109 0.209784
298 2 0.117172 0.306308 0.218131
299 4 0.113011 0.329506 0.226479
371 4 0.167346 0.274831 0.251188
279 4 0.255121 0.251376 0.20808
277 2 0.265902 0.259193 0.186918
278 4 0.276682 0.267011 0.165755
401 4 0.26151 0.311606 0.241929
496 2 0.283091 0.333169 0.22
498 4 0.2619 0.320725 0.22461
630 4 0.384937 0.245627 0.182668
254 4 0.37193 0.247998 0.168704
765 4 0.377656 0.263592 0.179081
763 2 0.393245 0.283141 0.179035
528 4 0.494834 0.311178 0.175065
623 4 0.425318 0.313089 0.176589
262 2 0.041277 0.400199 0.214578
264 4 0.0226425 0.416831 0.215723
263 4 0.0599115 0.383567 0.213433
602 4 0.0660103 0.365003 0.20754
734 4 0.109032 0.334125 0.245498
601 2 0.0861743 0.356048 0.219305
603 4 0.106338 0.347093 0.231069
290 4 0.157818 0.372462 0.233773
289 2 0.162581 0.394102 0.222188
291 4 0.167344 0.415742 0.210603
307 2 0.333851 0.344385 0.188367
308 4 0.311271 0.350467 0.197219
497 4 0.304283 0.345612 0.21539
309 4 0.356431 0.338303 0.179516
14 3 0.412337 0.394482 0.174844
11 1 0.397605 0.377353 0.180131
13 3 0.389011 0.380591 0.20144
12 3 0.408971 0.357359 0.179656
2618 4 0.0177657 0.434497 0.222931
2617 2 0.000973373 0.446159 0.237325
416 4 0.176466 0.434276 0.21301
415 2 0.191611 0.454044 0.210773
1430 4 0.208473 0.492457 0.200694
417 4 0.206757 0.473812 0.208536
597 4 0.486233 0.462507 0.204979
596 4 0.448696 0.491106 0.188435
659 4 0.435528 0.492265 0.174407
595 2 0.467464 0.476806 0.196707
1799 4 0.0217925 0.0238689 0.307927
233 4 0.0224937 0.036425 0.292586
1402 2 0.0549347 0.0397906 0.313953
1403 4 0.038298 0.0273941 0.299999
1404 4 0.0715715 0.0521872 0.327907
1798 2 0.0113174 0.00779395 0.323959
633 4 0.390628 0.0438442 0.303172
631 2 0.389579 0.0575607 0.282293
257 4 0.379387 0.0468515 0.318443
698 4 0.378768 0.0293852 0.307915
697 2 0.371945 0.00825559 0.319411
349 2 0.449079 0.0259827 0.263962
744 4 0.473917 0.0302619 0.286372
742 2 0.480909 0.0311181 0.310363
351 4 0.453705 0.0327264 0.28759
398 4 0.0725966 0.146493 0.308269
390 4 0.0846883 0.157124 0.296955
393 4 0.083406 0.137761 0.29404
545 4 0.134169 0.142906 0.258393
392 4 0.123145 0.127829 0.265355
391 2 0.103276 0.132795 0.279697
544 2 0.154176 0.154809 0.267515
249 4 0.184766 0.136847 0.331708
404 4 0.200998 0.145928 0.323533
632 4 0.388531 0.0712772 0.261413
444 4 0.00132445 0.232009 0.311553
388 2 0.0891387 0.179028 0.308162
389 4 0.093589 0.200932 0.319368
723 4 0.214566 0.207846 0.244124
721 2 0.198108 0.195496 0.25833
546 4 0.174183 0.166712 0.276637
403 2 0.197041 0.157372 0.301657
405 4 0.193085 0.168816 0.279782
722 4 0.18165 0.183147 0.272536
378 4 0.302704 0.247528 0.34358
420 4 0.380966 0.22071 0.273287
717 4 0.368775 0.236702 0.267973
418 2 0.405643 0.216756 0.274045
331 2 0.456814 0.201936 0.304901
332 4 0.445433 0.203282 0.282678
419 4 0.430321 0.212803 0.274803
760 2 0.465457 0.223692 0.252777
762 4 0.449724 0.217863 0.271315
515 4 0.468661 0.203828 0.346386
364 2 0.0124538 0.303195 0.292682
442 2 0.00751184 0.24812 0.293461
396 4 0.0232181 0.276049 0.261794
443 4 0.0136992 0.26423 0.275368
365 4 0.0159984 0.282952 0.27844
407 4 0.01521 0.327259 0.325165
677 4 0.149653 0.323587 0.288145
735 4 0.131499 0.331451 0.290094
676 2 0.172156 0.322687 0.299006
508 2 0.233704 0.308896 0.308804
509 4 0.211714 0.316919 0.317593
678 4 0.19466 0.321788 0.309867
510 4 0.255694 0.300872 0.300016
400 2 0.265957 0.303151 0.265036
402 4 0.270405 0.294696 0.288142
345 4 0.274208 0.30014 0.306153
343 2 0.285272 0.28212 0.319496
344 4 0.296335 0.2641 0.33284
715 2 0.369003 0.260959 0.274037
716 4 0.369232 0.285215 0.2801
542 4 0.386912 0.290874 0.289276
541 2 0.399614 0.303523 0.306706
543 4 0.412317 0.316171 0.324137
751 2 0.487481 0.334436 0.325917
2538 4 0.479734 0.337765 0.285874
753 4 0.475228 0.340237 0.304908
366 4 0.00890925 0.323437 0.306925
548 4 0.0141452 0.341345 0.31106
547 2 0.0268902 0.361611 0.318273
549 4 0.0396353 0.381877 0.325487
733 2 0.120265 0.332788 0.267796
728 4 0.349405 0.379228 0.303486
727 2 0.356479 0.399868 0.315698
729 4 0.363553 0.420508 0.32791
2536 2 0.492798 0.355769 0.274455
2860 2 0.497123 0.411489 0.27754
777 4 0.0364298 0.402657 0.327884
775 2 0.0546377 0.419423 0.331426
1543 2 0.146721 0.477501 0.326682
1435 2 0.186361 0.499535 0.293609
1545 4 0.168904 0.469078 0.318801
1436 4 0.183052 0.479198 0.307773
437 4 0.35327 0.433212 0.339601
436 2 0.355525 0.457107 0.332593
438 4 0.35778 0.481002 0.325585
2861 4 0.484365 0.431033 0.28651
730 2 0.0692651 0.0757 0.352284
2236 2 0.998149 0.0495069 0.417784
732 4 0.085131 0.0596028 0.362976
369 4 0.0927721 0.0466963 0.377261
367 2 0.100768 0.0424417 0.400567
605 4 0.177954 0.0648116 0.384533
604 2 0.175833 0.0414248 0.39312
1701 4 0.187238 0.0730456 0.401405
606 4 0.173711 0.0180381 0.401707
256 2 0.372809 0.0593838 0.339055
258 4 0.36623 0.071916 0.359667
426 4 0.363969 0.0691482 0.379174
424 2 0.383842 0.0626945 0.392907
425 4 0.403715 0.0562408 0.406639
1580 4 0.397457 0.0368572 0.409413
743 4 0.4879 0.0319744 0.334354
479 4 0.480161 0.0362103 0.351727
478 2 0.47479 0.0565493 0.365242
480 4 0.469418 0.0768883 0.378757
458 4 0.00637481 0.14302 0.361945
397 2 0.0667942 0.12796 0.324018
318 4 0.00601908 0.123958 0.369964
399 4 0.0609919 0.109427 0.339767
317 4 0.0499208 0.104481 0.356035
731 4 0.0533992 0.0917972 0.341591
316 2 0.0279699 0.114219 0.362999
1699 2 0.194403 0.0953699 0.392718
247 2 0.191522 0.137073 0.35578
248 4 0.198277 0.1373 0.379853
1700 4 0.201568 0.117694 0.384031
319 2 0.327527 0.127276 0.401028
320 4 0.309433 0.118295 0.415763
682 2 0.27234 0.14118 0.407989
683 4 0.251744 0.154781 0.403989
706 2 0.334853 0.169536 0.363938
321 4 0.345622 0.136257 0.386293
708 4 0.348358 0.149773 0.371162
516 4 0.46303 0.157958 0.36549
575 4 0.460719 0.146188 0.38196
574 2 0.4611 0.135186 0.40441
576 4 0.461481 0.124183 0.426859
376 2 0.311657 0.224226 0.342152
600 4 0.254192 0.174694 0.406074
377 4 0.32061 0.200924 0.340723
707 4 0.321347 0.1893 0.356713
489 4 0.302698 0.23097 0.402023
333 4 0.468194 0.20059 0.327124
514 2 0.465845 0.180893 0.355938
453 4 0.47295 0.218207 0.333867
451 2 0.492919 0.229209 0.344132
406 2 0.0225539 0.313435 0.344662
408 4 0.0298978 0.299611 0.364159
275 4 0.138394 0.305262 0.35853
617 4 0.122733 0.30308 0.369068
274 2 0.157609 0.289605 0.361821
616 2 0.107047 0.3217 0.374762
435 4 0.197399 0.323586 0.328875
276 4 0.176825 0.273949 0.365112
374 4 0.214085 0.270811 0.411799
373 2 0.199413 0.280238 0.393881
375 4 0.184741 0.289665 0.375964
615 4 0.407197 0.317614 0.343789
266 4 0.33057 0.31023 0.432631
267 4 0.35332 0.272331 0.409247
265 2 0.341945 0.291281 0.420939
468 4 0.364708 0.255522 0.408024
752 4 0.499734 0.328635 0.346927
613 2 0.426498 0.33276 0.348614
614 4 0.445798 0.347906 0.353438
347 4 0.0720113 0.33448 0.379208
346 2 0.0624673 0.343892 0.400315
618 4 0.0913612 0.34032 0.380455
433 2 0.202731 0.344039 0.342233
434 4 0.208064 0.364491 0.355591
502 2 0.312692 0.408027 0.412288
240 4 0.404894 0.436132 0.405926
776 4 0.0728456 0.436189 0.334969
413 4 0.106944 0.489236 0.342023
414 4 0.0711103 0.454862 0.336103
1544 4 0.124537 0.485924 0.334564
412 2 0.0890272 0.472049 0.339063
503 4 0.323196 0.426632 0.399301
669 4 0.330235 0.445326 0.402117
667 2 0.327046 0.468584 0.410723
335 4 0.391526 0.431718 0.391417
336 4 0.341753 0.431399 0.396241
334 2 0.36664 0.431559 0.393829
3990 4 0.490355 0.480593 0.361169
1781 4 0.0787157 0.997722 0.467172
1127 4 0.0075501 0.0565254 0.456115
2237 4 0.0129817 0.0547004 0.437232
720 4 0.0135105 0.0722467 0.445506
718 2 0.0295194 0.0841477 0.460581
1523 4 0.0707962 0.0131221 0.477828
1780 2 0.0926182 0.0140838 0.454358
368 4 0.108764 0.0381871 0.423872
1782 4 0.106521 0.0304459 0.441545
341 4 0.174289 0.0227517 0.494726
2430 4 0.177663 0.00410154 0.485123
724 2 0.290281 0.0504395 0.485802
726 4 0.287176 0.0715829 0.472821
725 4 0.293386 0.0292961 0.498783
963 4 0.287357 0.0113513 0.493386
1182 4 0.295255 0.0885926 0.467813
1579 2 0.394736 0.0134965 0.417901
2879 4 0.402678 0.0333678 0.484194
642 4 0.447116 0.0641127 0.44169
2878 2 0.419281 0.0460847 0.470489
2880 4 0.435883 0.0588016 0.456784
640 2 0.458689 0.0856133 0.436308
470 4 0.995326 0.169508 0.486807
719 4 0.0455283 0.0960487 0.475656
939 4 0.0969913 0.138515 0.490083
1033 2 0.120277 0.123837 0.475013
1035 4 0.144328 0.127207 0.469068
261 4 0.158887 0.135606 0.458042
1034 4 0.0962253 0.120466 0.480959
259 2 0.162637 0.158836 0.466496
684 4 0.292937 0.12758 0.411989
1180 2 0.294168 0.100536 0.445874
1181 4 0.29308 0.11248 0.423934
641 4 0.470262 0.107114 0.430926
306 4 0.476918 0.124124 0.438753
304 2 0.474557 0.139597 0.458252
3158 4 0.454019 0.155419 0.48811
305 4 0.472197 0.15507 0.47775
694 2 0.154099 0.217801 0.477
696 4 0.139645 0.235654 0.486877
695 4 0.168553 0.199949 0.467123
260 4 0.166388 0.182066 0.474951
472 2 0.229866 0.242062 0.434028
599 4 0.23924 0.207233 0.440979
687 4 0.230555 0.200365 0.457186
686 4 0.18389 0.191032 0.472547
685 2 0.207222 0.195698 0.464867
411 4 0.239866 0.217658 0.457157
598 2 0.246716 0.190963 0.423527
474 4 0.247078 0.224985 0.440136
409 2 0.256305 0.217943 0.475995
488 4 0.263637 0.232352 0.433216
487 2 0.283168 0.231661 0.417619
466 2 0.356213 0.23853 0.424281
467 4 0.347718 0.221539 0.440538
473 4 0.212655 0.25914 0.427919
813 4 0.230694 0.308353 0.475991
811 2 0.244251 0.318532 0.494369
2812 2 0.0174017 0.339235 0.437135
348 4 0.0529234 0.353303 0.421423
2813 4 0.0387714 0.352028 0.434931
326 4 0.0564492 0.352098 0.440823
325 2 0.0791868 0.352851 0.451197
327 4 0.101924 0.353604 0.461571
10 3 0.119478 0.358813 0.500088
7 3 0.100377 0.371109 0.470476
6 1 0.110121 0.377182 0.490409
711 4 0.138095 0.409697 0.490142
8 3 0.126461 0.393116 0.486224
709 2 0.161499 0.413186 0.482064
9 3 0.0938121 0.386031 0.504342
774 4 0.199109 0.417057 0.487758
772 2 0.217959 0.415269 0.504087
504 4 0.302187 0.389422 0.425276
1383 4 0.0643743 0.477083 0.463663
680 4 0.0562236 0.463948 0.473862
1381 2 0.0573402 0.49503 0.447739
679 2 0.0734708 0.455243 0.489734
635 4 0.199316 0.429244 0.472633
636 4 0.196709 0.478008 0.461863
710 4 0.184904 0.416675 0.473987
634 2 0.198012 0.453626 0.467248
668 4 0.323857 0.491842 0.41933
4 3 0.321695 0.494804 0.439052
238 2 0.406483 0.438095 0.430801
588 4 0.389763 0.446198 0.461796
239 4 0.408071 0.440059 0.455677
586 2 0.393671 0.436792 0.484631
1184 4 0.00549033 0.0167886 0.550221
342 4 0.163107 0.0506824 0.53467
1152 4 0.1621 0.0695292 0.530752
1150 2 0.161074 0.0733379 0.555442
340 2 0.168698 0.036717 0.514698
1151 4 0.160048 0.0771465 0.580133
430 2 0.327704 0.00682361 0.50344
432 4 0.306651 0.0157829 0.493357
841 2 0.360259 0.0178464 0.549386
842 4 0.371741 0.0313968 0.566985
1216 2 0.405948 0.0103272 0.577988
1217 4 0.388676 0.0284041 0.577711
843 4 0.348777 0.00429606 0.531787
431 4 0.348757 0.997864 0.513522
2195 4 0.356977 0.987107 0.527709
3009 4 0.498422 0.0552926 0.564853
879 4 0.0517888 0.160107 0.536757
877 2 0.0280298 0.167247 0.53364
878 4 0.00427085 0.174386 0.530523
938 4 0.0651912 0.158141 0.523314
937 2 0.0810913 0.148328 0.506699
858 4 0.295559 0.168672 0.591275
3159 4 0.457354 0.135694 0.533941
3157 2 0.455687 0.145557 0.511026
1062 4 0.472098 0.122417 0.534263
1272 4 0.0702489 0.167094 0.539665
1270 2 0.0765666 0.177997 0.561261
1271 4 0.0828843 0.1889 0.582857
1258 2 0.129293 0.238342 0.528604
1259 4 0.116643 0.238812 0.550167
1260 4 0.141943 0.237873 0.507042
898 2 0.290836 0.218889 0.530238
899 4 0.308645 0.213239 0.546855
857 4 0.309253 0.194191 0.550508
856 2 0.302406 0.181431 0.570891
791 4 0.323706 0.203081 0.540061
410 4 0.272743 0.218228 0.494833
900 4 0.273028 0.224538 0.513621
790 2 0.342508 0.217003 0.548884
792 4 0.361309 0.230926 0.557707
872 4 0.365314 0.248242 0.5492
1238 4 0.359673 0.247173 0.567605
649 2 0.285558 0.336457 0.537631
651 4 0.297981 0.333546 0.559134
812 4 0.257809 0.32871 0.512748
806 4 0.299309 0.32599 0.578355
871 2 0.375785 0.255049 0.527539
1237 2 0.345772 0.26203 0.582137
873 4 0.386256 0.261857 0.505878
1135 2 0.127217 0.380865 0.565364
1136 4 0.119626 0.377049 0.541848
1137 4 0.134808 0.38468 0.58888
773 4 0.236809 0.41348 0.520417
1189 2 0.228286 0.402661 0.559828
1190 4 0.239959 0.40441 0.537786
803 4 0.242845 0.394935 0.520917
1191 4 0.216613 0.400913 0.58187
802 2 0.249961 0.371543 0.51569
930 4 0.254628 0.408913 0.526491
650 4 0.273135 0.339368 0.516128
804 4 0.257077 0.34815 0.510463
925 2 0.431691 0.403664 0.513375
927 4 0.446878 0.385486 0.521382
539 4 0.0725373 0.492654 0.508564
681 4 0.0907181 0.446538 0.505606
383 4 0.0940315 0.434933 0.522619
382 2 0.116313 0.427866 0.513742
384 4 0.138594 0.4208 0.504866
569 4 0.147807 0.434044 0.516899
568 2 0.16796 0.444538 0.527335
570 4 0.188113 0.455032 0.537771
1159 2 0.182558 0.487465 0.581042
928 2 0.276049 0.42181 0.526455
929 4 0.297469 0.434707 0.526418
1951 2 0.302148 0.474061 0.527705
1953 4 0.307978 0.450016 0.531312
1952 4 0.296319 0.498107 0.524098
926 4 0.416504 0.421841 0.505368
1000 2 0.404169 0.496761 0.568144
663 4 0.412226 0.438671 0.515092
587 4 0.397579 0.427386 0.507466
1001 4 0.424596 0.483613 0.562224
661 2 0.421175 0.454515 0.532241
662 4 0.430124 0.470359 0.549389
1911 4 0.431657 0.466987 0.568778
1332 4 0.443735 0.478869 0.559476
1330 2 0.459947 0.493177 0.546921
1059 4 0.173282 0.0641296 0.587432
2375 4 0.162347 0.00580888 0.617367
1155 4 0.17043 0.0809299 0.596723
1058 4 0.156218 0.0250671 0.613578
1057 2 0.16475 0.0445983 0.600505
949 2 0.267226 0.0144109 0.63229
951 4 0.281632 0.0329799 0.640825
1031 4 0.275704 0.0403436 0.658199
3007 2 0.495182 0.072451 0.582749
43 3 0.434698 0.0598642 0.657281
1154 4 0.155643 0.128104 0.604247
1221 4 0.16734 0.140906 0.615526
1153 2 0.163037 0.104517 0.600485
1219 2 0.180815 0.161607 0.619413
808 2 0.48706 0.0836666 0.643409
1245 4 0.103351 0.182094 0.63467
1244 4 0.102046 0.18321 0.584692
1243 2 0.102699 0.182652 0.609681
1209 4 0.107669 0.195412 0.648903
1210 2 0.230382 0.175378 0.642199
1212 4 0.213102 0.176672 0.624174
1220 4 0.194289 0.182307 0.6233
797 4 0.188955 0.238744 0.604562
796 2 0.198629 0.216578 0.610906
798 4 0.208303 0.194411 0.617249
888 4 0.266525 0.171071 0.665934
1211 4 0.247662 0.174084 0.660224
1193 4 0.420051 0.202546 0.655035
3121 2 0.460104 0.218745 0.642542
3122 4 0.472535 0.198261 0.649686
3357 4 0.475394 0.177512 0.648635
3355 2 0.494339 0.168822 0.662446
983 4 0.0257887 0.286771 0.63188
982 2 0.034527 0.307126 0.643478
984 4 0.0432654 0.32748 0.655075
3263 4 0.0587382 0.332381 0.665695
805 2 0.313567 0.30545 0.578425
807 4 0.327824 0.28491 0.578495
1239 4 0.33187 0.276886 0.59667
3123 4 0.447674 0.239229 0.635397
906 4 0.458535 0.298402 0.598282
905 4 0.45232 0.256499 0.624856
904 2 0.455427 0.277451 0.611569
953 4 0.463459 0.317851 0.597978
1041 4 0.0469594 0.346524 0.659195
1039 2 0.0538458 0.361061 0.640052
1040 4 0.0607321 0.375598 0.62091
993 4 0.0662116 0.394027 0.61691
991 2 0.0483916 0.410441 0.610729
992 4 0.0305717 0.426855 0.604547
897 4 0.153331 0.388934 0.58254
895 2 0.17707 0.394225 0.588341
896 4 0.200809 0.399516 0.594142
1028 4 0.204983 0.389098 0.658684
1027 2 0.206788 0.396797 0.634964
1029 4 0.208592 0.404496 0.611244
1172 4 0.213052 0.414736 0.595
952 2 0.482872 0.333554 0.596665
1206 4 0.487878 0.408367 0.624759
1160 4 0.197509 0.477989 0.598701
1171 2 0.21184 0.439447 0.598617
1173 4 0.210628 0.464158 0.602235
1187 4 0.20026 0.471798 0.616947
1186 2 0.189609 0.471624 0.639568
1188 4 0.178957 0.471451 0.662189
2167 2 0.481075 0.50052 0.657414
1909 2 0.430936 0.4524 0.589073
1268 4 0.439174 0.48314 0.659695
1267 2 0.435977 0.464549 0.643284
2168 4 0.458258 0.490435 0.655727
1204 2 0.465268 0.418997 0.623772
1910 4 0.430216 0.437812 0.609367
1269 4 0.43278 0.445957 0.626874
1205 4 0.442658 0.429626 0.622784
1284 4 0.0976419 0.0537143 0.70258
1282 2 0.111232 0.0729295 0.694137
2047 2 0.158775 0.000685781 0.739459
2254 2 0.212296 0.997043 0.715724
2256 4 0.195688 0.0153232 0.71962
2049 4 0.17927 0.0112472 0.729785
1201 2 0.187478 0.0540186 0.724464
1202 4 0.185722 0.0295774 0.729436
1203 4 0.189234 0.0784597 0.719491
1030 2 0.289594 0.0551068 0.672838
1032 4 0.303484 0.0698699 0.687477
1005 4 0.341375 0.021973 0.713579
1003 2 0.341206 0.011506 0.690872
45 3 0.453981 0.0364552 0.679593
41 1 0.446078 0.0576995 0.677386
810 4 0.478361 0.0782538 0.666217
1162 2 0.499217 0.0505623 0.689199
1163 4 0.48239 0.0675442 0.681874
44 3 0.463665 0.0728136 0.6782
42 3 0.43158 0.062223 0.694662
1076 4 0.999081 0.0847186 0.717455
1077 4 0.0396895 0.107126 0.736153
1075 2 0.0193855 0.0959223 0.726804
864 4 0.0580763 0.107658 0.742088
909 4 0.105394 0.155764 0.700956
907 2 0.113743 0.133298 0.693831
908 4 0.122092 0.110832 0.686706
1283 4 0.124821 0.0921446 0.685695
1227 4 0.140469 0.10288 0.683215
1225 2 0.158825 0.0984432 0.699602
851 4 0.0896333 0.165206 0.707734
1148 4 0.196412 0.0964829 0.714928
1226 4 0.177182 0.0940063 0.715989
1147 2 0.212108 0.103147 0.733215
1149 4 0.227804 0.10981 0.751502
829 2 0.326376 0.151229 0.717969
830 4 0.304136 0.162561 0.716507
887 4 0.289981 0.173798 0.710015
831 4 0.348617 0.139898 0.71943
1142 4 0.364448 0.150871 0.713607
1141 2 0.386567 0.162488 0.714599
1143 4 0.408686 0.174105 0.715592
1025 4 0.462456 0.133914 0.711414
3424 2 0.478588 0.108382 0.694216
3426 4 0.476745 0.086017 0.683189
3425 4 0.480432 0.130747 0.705243
3269 4 0.477482 0.133723 0.724307
1024 2 0.444495 0.151255 0.710037
3268 2 0.487713 0.147945 0.742146
852 4 0.0456178 0.175295 0.729218
1214 4 0.0375949 0.192927 0.724302
850 2 0.0676256 0.170251 0.718476
1213 2 0.0127601 0.194693 0.726602
1208 4 0.099518 0.172881 0.692797
1207 2 0.103593 0.184146 0.67085
1107 4 0.107521 0.172621 0.709861
1105 2 0.128018 0.180231 0.72199
1106 4 0.148516 0.187842 0.73412
1130 4 0.153572 0.201575 0.747959
978 4 0.292732 0.171447 0.729622
886 2 0.278253 0.172435 0.687975
976 2 0.296267 0.191831 0.743665
916 2 0.298455 0.245862 0.736693
1192 2 0.41847 0.193444 0.67827
1194 4 0.416889 0.184342 0.701504
1262 4 0.424802 0.18511 0.719118
1261 2 0.42936 0.192034 0.742707
1026 4 0.426534 0.168595 0.70866
3262 2 0.0689334 0.328163 0.688133
3264 4 0.0791286 0.323945 0.71057
893 4 0.0791972 0.337159 0.725333
779 4 0.0846761 0.3189 0.728619
778 2 0.103729 0.302829 0.730579
780 4 0.122783 0.286757 0.732539
1065 4 0.22078 0.321147 0.678059
1063 2 0.237303 0.307957 0.691408
1064 4 0.253825 0.294767 0.704757
947 4 0.311488 0.271101 0.70005
946 2 0.288696 0.279486 0.694099
948 4 0.265904 0.28787 0.688149
917 4 0.303382 0.261216 0.717583
1008 4 0.479949 0.294062 0.708917
1006 2 0.468883 0.282281 0.727994
1067 4 0.160502 0.384875 0.708599
940 2 0.143073 0.383689 0.75026
941 4 0.15557 0.382712 0.728626
1066 2 0.177827 0.390782 0.691567
1068 4 0.195152 0.39669 0.674534
1236 4 0.257093 0.349033 0.756086
1176 4 0.149437 0.47935 0.714461
1175 4 0.176611 0.458726 0.677897
1174 2 0.163024 0.469038 0.696179
1139 4 0.298648 0.481169 0.697468
1138 2 0.31257 0.467095 0.712741
1140 4 0.326493 0.453021 0.728013
1229 4 0.326355 0.433771 0.724956
1989 4 0.322319 0.440822 0.742945
1100 4 0.387745 0.438605 0.739809
1228 2 0.350841 0.430092 0.728436
1230 4 0.375326 0.426414 0.731917
1099 2 0.40786 0.449633 0.729861
1101 4 0.427975 0.46066 0.719913
3330 4 0.446718 0.460914 0.724762
3328 2 0.460097 0.44797 0.70807
1251 4 0.435514 0.473271 0.733129
3329 4 0.473475 0.435026 0.691377
834 4 0.0463207 0.0769934 0.832837
2321 4 0.438952 0.00679624 0.790044
2322 4 0.440533 0.0541795 0.774137
2320 2 0.439742 0.0304879 0.782091
846 4 0.441916 0.0739546 0.772138
862 2 0.0632036 0.115156 0.765384
863 4 0.0683309 0.122653 0.788679
833 4 0.0556446 0.113401 0.799848
1125 4 0.0656053 0.129327 0.806653
1123 2 0.0761546 0.147892 0.819662
832 2 0.0509827 0.0951973 0.816343
911 4 0.12139 0.0965269 0.823965
910 2 0.122864 0.11736 0.837712
1257 4 0.236791 0.126151 0.757899
1255 2 0.229041 0.12554 0.781664
921 4 0.218257 0.143657 0.802107
919 2 0.202075 0.158261 0.814357
840 4 0.233097 0.138197 0.813312
1256 4 0.22129 0.12493 0.805428
1113 4 0.35221 0.0862757 0.798186
1111 2 0.351866 0.100833 0.818513
1112 4 0.351521 0.11539 0.838839
844 2 0.441978 0.0918158 0.754641
845 4 0.442041 0.109677 0.737144
1129 2 0.159965 0.213069 0.769224
34 3 0.135651 0.184359 0.833101
1131 4 0.166358 0.224563 0.790488
1277 4 0.164291 0.226095 0.809877
1276 2 0.17187 0.206952 0.824063
920 4 0.185893 0.172865 0.826606
822 4 0.176338 0.238638 0.800177
977 4 0.299803 0.212214 0.757708
918 4 0.293528 0.230508 0.755802
1298 4 0.291357 0.221138 0.772765
1297 2 0.299935 0.213595 0.795007
1299 4 0.308512 0.206053 0.817249
1086 4 0.326673 0.206917 0.826177
50 3 0.400768 0.201452 0.794378
46 1 0.423065 0.199216 0.798437
49 3 0.433179 0.220097 0.7988
1043 4 0.439062 0.214076 0.778148
48 3 0.426379 0.188457 0.818727
47 3 0.432589 0.18663 0.781703
1263 4 0.433919 0.198958 0.766296
1146 4 0.493638 0.174339 0.775241
1145 4 0.449136 0.196927 0.778421
1144 2 0.471387 0.185633 0.776831
1042 2 0.445708 0.236721 0.769889
821 4 0.199083 0.283133 0.79829
820 2 0.187711 0.260886 0.799233
1098 4 0.267652 0.327459 0.810818
1096 2 0.261957 0.328021 0.835158
1044 4 0.452355 0.259366 0.76163
1007 4 0.457817 0.270501 0.747071
1165 2 0.484707 0.275914 0.77894
1166 4 0.463795 0.274532 0.765304
892 2 0.0699544 0.349673 0.744907
3275 4 0.0204792 0.338987 0.800354
894 4 0.0607117 0.362188 0.764481
3276 4 0.0578456 0.367527 0.783327
3274 2 0.0391624 0.353257 0.791841
816 4 0.0756189 0.367831 0.775882
814 2 0.0985084 0.375255 0.782674
942 4 0.130575 0.384666 0.771894
815 4 0.121398 0.38268 0.789465
1080 4 0.133192 0.397902 0.786006
1078 2 0.151016 0.405643 0.801739
1235 4 0.254448 0.342774 0.805629
1234 2 0.255771 0.345903 0.780858
1020 4 0.401378 0.399383 0.785797
1018 2 0.389812 0.413226 0.768483
1016 4 0.396674 0.385713 0.799189
1015 2 0.408287 0.382968 0.821162
883 2 0.0593637 0.462655 0.776836
849 4 0.0398068 0.457926 0.811736
885 4 0.0444936 0.469396 0.795773
847 2 0.0253237 0.442858 0.825461