ITEM: TIMESTEP
2630000
ITEM: NUMBER OF ATOMS
4590
ITEM: BOX BOUNDS pp pp pp
-9.9985700000000008e+00 9.9985700000000008e+00
-9.9985700000000008e+00 9.9985700000000008e+00
-9.9985700000000008e+00 9.9985700000000008e+00
ITEM: ATOMS id type xs ys zs
465 4 0.0922565 0.0805927 0.0258168
701 4 0.110779 0.0820297 0.0215433
700 2 0.129917 0.0659466 0.0220741
702 4 0.149054 0.0498635 0.022605
566 4 0.165754 0.0387112 0.025319
565 2 0.184124 0.0400881 0.00841314
567 4 0.202494 0.0414651 0.991507
746 4 0.479591 0.064391 0.0263983
2467 2 0.499211 0.0326876 0.0486588
2469 4 0.485814 0.0527223 0.0420016
745 2 0.470833 0.0602716 0.00334403
463 2 0.0742627 0.0856565 0.0424228
590 4 0.0412224 0.100848 0.0669272
464 4 0.0562689 0.0907203 0.0590288
589 2 0.0190695 0.0986279 0.078307
558 4 0.370397 0.134377 0.0342692
556 2 0.362044 0.124616 0.0557199
865 2 0.354642 0.165751 0.00177892
557 4 0.35369 0.114856 0.0771706
771 4 0.454902 0.160908 0.0548809
554 4 0.0399643 0.204196 0.00726278
553 2 0.0619072 0.204454 0.0192469
555 4 0.0838502 0.204712 0.0312311
835 2 0.124459 0.201323 0.0157027
836 4 0.100273 0.206755 0.0189721
837 4 0.148646 0.195891 0.0124332
738 4 0.170983 0.187662 0.0833963
915 4 0.16462 0.208767 0.00924024
573 4 0.337258 0.238711 0.0559514
666 4 0.341488 0.223847 0.0676186
461 4 0.335873 0.241246 0.0752075
664 2 0.33708 0.206394 0.0502655
665 4 0.332672 0.188941 0.0329123
867 4 0.344536 0.17859 0.0207052
769 2 0.46142 0.166026 0.0784713
1070 4 0.464035 0.235133 0.0644967
2808 4 0.0304003 0.330372 0.0383122
2806 2 0.0131948 0.31223 0.0381008
294 4 0.092979 0.322339 0.0581299
507 4 0.142561 0.351088 0.0332202
356 4 0.32017 0.301686 0.0375956
572 4 0.322242 0.283224 0.0388112
355 2 0.310999 0.320305 0.0236535
571 2 0.32975 0.260967 0.0473813
1069 2 0.449124 0.254649 0.0691835
324 4 0.440724 0.291826 0.0672158
322 2 0.443183 0.316419 0.0709996
1071 4 0.434213 0.274164 0.0738704
647 4 0.0204564 0.363871 0.0677322
646 2 0.0444175 0.360319 0.073931
648 4 0.0683787 0.356767 0.0801298
292 2 0.112641 0.337215 0.0539718
293 4 0.132303 0.352091 0.0498137
505 2 0.167516 0.349885 0.034211
481 2 0.214866 0.377308 0.0258002
482 4 0.237264 0.386201 0.0191351
483 4 0.192468 0.368415 0.0324653
609 4 0.248603 0.402523 0.0256982
536 4 0.198776 0.396651 0.0962184
535 2 0.204235 0.372495 0.0927699
506 4 0.19247 0.348682 0.0352019
626 4 0.203031 0.406012 0.0791831
357 4 0.301827 0.338924 0.00971134
902 4 0.313369 0.353028 0.000905888
957 4 0.364766 0.380468 0.024263
955 2 0.371008 0.375843 0.000496845
323 4 0.445642 0.341012 0.0747835
672 4 0.460101 0.346844 0.0626827
280 2 0.491382 0.414583 0.0511423
281 4 0.498042 0.393958 0.0636099
671 4 0.49428 0.380157 0.0776067
670 2 0.47719 0.3635 0.0701447
551 4 0.0289766 0.454072 0.0548076
550 2 0.0522282 0.451244 0.0635564
552 4 0.0754798 0.448415 0.0723053
1465 2 0.997884 0.482357 0.0693673
1787 4 0.0945587 0.44802 0.0664506
1786 2 0.109661 0.447092 0.0465449
1788 4 0.124763 0.446164 0.0266392
246 4 0.251602 0.473584 0.0313431
244 2 0.242132 0.466842 0.0534802
245 4 0.232663 0.4601 0.0756172
625 2 0.211462 0.429064 0.0839453
607 2 0.265926 0.419787 0.0308971
272 4 0.256395 0.486003 0.0164983
608 4 0.283249 0.437051 0.036096
252 4 0.284879 0.451252 0.0505306
250 2 0.30407 0.458697 0.0363368
251 4 0.323261 0.466141 0.0221431
1778 4 0.257973 0.491702 0.0347416
2289 4 0.340507 0.463913 0.0103088
282 4 0.484722 0.435208 0.0386746
226 2 0.471934 0.473183 0.0485998
227 4 0.477438 0.455725 0.0315676
228 4 0.46643 0.490641 0.065632
16 1 0.0612451 0.0535765 0.155461
20 3 0.0643691 0.0577827 0.133298
1806 4 0.0454832 0.022648 0.144955
18 3 0.0566611 0.0310587 0.158676
1804 2 0.0429462 0.0101365 0.123456
450 4 0.162065 0.0605296 0.168806
675 4 0.0952946 0.0455198 0.165121
17 3 0.0804124 0.0589815 0.166974
448 2 0.169724 0.0796063 0.154573
484 2 0.372577 0.0225502 0.109393
297 4 0.370305 0.0644051 0.117948
485 4 0.365508 0.0451885 0.117312
486 4 0.379647 0.999912 0.101474
579 4 0.0928749 0.119107 0.106452
237 4 0.148264 0.14954 0.128697
578 4 0.132653 0.147332 0.117487
577 2 0.112764 0.13322 0.111969
235 2 0.162244 0.132082 0.139875
476 4 0.131805 0.159517 0.13241
737 4 0.142128 0.164563 0.117079
236 4 0.176224 0.114623 0.151053
693 4 0.191085 0.112138 0.138494
449 4 0.177382 0.098683 0.140339
691 2 0.215662 0.115183 0.135046
692 4 0.240238 0.118229 0.131597
582 4 0.255779 0.114989 0.119504
580 2 0.276269 0.121488 0.132275
581 4 0.296758 0.127988 0.145047
30 3 0.311889 0.128689 0.156952
29 3 0.325673 0.16365 0.159265
26 1 0.308586 0.149395 0.16584
28 3 0.288118 0.157825 0.158881
295 2 0.365214 0.0805389 0.099537
296 4 0.360124 0.0966727 0.0811259
475 2 0.126839 0.172962 0.152898
736 2 0.156556 0.176112 0.100238
354 4 0.320274 0.242899 0.140594
283 2 0.32274 0.202934 0.140676
285 4 0.32084 0.178795 0.146909
284 4 0.324639 0.227074 0.134443
462 4 0.32722 0.241356 0.12446
460 2 0.331547 0.241301 0.0998339
255 4 0.337208 0.238855 0.138429
770 4 0.467937 0.171144 0.102062
1014 4 0.473992 0.186252 0.112411
1013 4 0.478812 0.206036 0.158085
1012 2 0.476402 0.196144 0.135248
749 4 0.0570025 0.323129 0.158978
455 4 0.0696696 0.326746 0.143691
454 2 0.0673552 0.337556 0.121264
612 4 0.235154 0.322463 0.14213
352 2 0.298584 0.253259 0.147479
756 4 0.254482 0.321248 0.14426
353 4 0.276894 0.263619 0.154365
754 2 0.2684 0.301691 0.151259
755 4 0.282317 0.282133 0.158258
253 2 0.35283 0.247269 0.156045
624 4 0.472792 0.309755 0.159955
764 4 0.412789 0.296992 0.160223
622 2 0.448696 0.307463 0.166225
456 4 0.0650407 0.348366 0.0988372
537 4 0.209693 0.34834 0.0893214
611 4 0.228018 0.339024 0.0954877
610 2 0.231586 0.330744 0.118809
387 4 0.32788 0.405962 0.148572
741 4 0.401678 0.368574 0.101224
739 2 0.395664 0.37879 0.123239
740 4 0.38965 0.389007 0.145253
385 2 0.351792 0.400455 0.153371
386 4 0.375705 0.394949 0.158171
495 4 0.393626 0.402667 0.157893
15 3 0.381263 0.376327 0.156847
242 4 0.0899904 0.45319 0.0844569
241 2 0.107439 0.456673 0.102024
1438 2 0.162571 0.46308 0.127971
243 4 0.124887 0.460156 0.119591
1440 4 0.140071 0.452385 0.130111
627 4 0.219894 0.452117 0.0887074
1439 4 0.18507 0.473775 0.12583
637 2 0.220311 0.464918 0.124872
638 4 0.244017 0.47281 0.125832
639 4 0.196605 0.457025 0.123911
767 4 0.254412 0.478295 0.143503
303 4 0.315194 0.461123 0.114608
766 2 0.276313 0.475563 0.131753
768 4 0.298214 0.472832 0.120003
301 2 0.320335 0.443419 0.131499
302 4 0.325475 0.425714 0.14839
525 4 0.415068 0.497042 0.0821544
523 2 0.403731 0.476388 0.0905261
524 4 0.392395 0.455734 0.0988978
493 2 0.399917 0.426256 0.152492
494 4 0.406208 0.449845 0.147091
660 4 0.422146 0.46049 0.139648
658 2 0.431126 0.477371 0.15576
19 3 0.0437363 0.0664618 0.163574
380 4 0.0338152 0.0782201 0.176711
1505 4 0.157697 0.0484639 0.183321
673 2 0.119585 0.0506368 0.16812
674 4 0.143874 0.0557538 0.171119
1504 2 0.173748 0.0332733 0.195016
1506 4 0.189799 0.0180826 0.206712
654 4 0.328604 0.014576 0.160607
652 2 0.326851 0.0374396 0.170575
653 4 0.325099 0.0603032 0.180543
22 3 0.411141 0.0293693 0.197248
23 3 0.403447 0.0319768 0.233945
24 3 0.422997 0.00230042 0.220472
21 1 0.419203 0.0250944 0.218363
757 2 0.476071 0.0407806 0.208981
25 3 0.438662 0.0365258 0.22142
759 4 0.457113 0.029664 0.220906
350 4 0.446901 0.0285716 0.236763
758 4 0.495029 0.0518971 0.197056
379 2 0.0410929 0.098069 0.190061
512 4 0.0377262 0.128928 0.216313
381 4 0.0483705 0.117918 0.203412
511 2 0.0591914 0.141005 0.220622
513 4 0.0806566 0.153083 0.224931
339 4 0.100997 0.152465 0.228047
27 3 0.308587 0.147876 0.188793
521 4 0.497161 0.13735 0.234754
337 2 0.105919 0.167018 0.20832
477 4 0.121872 0.186407 0.173386
363 4 0.121238 0.19883 0.188433
338 4 0.110841 0.181571 0.188593
362 4 0.108763 0.241716 0.210926
361 2 0.115 0.220273 0.19968
628 2 0.398033 0.231213 0.195832
629 4 0.416516 0.21761 0.205756
312 4 0.414326 0.200265 0.195694
311 4 0.430151 0.159858 0.220545
310 2 0.422239 0.180061 0.20812
761 4 0.482731 0.245676 0.247682
750 4 0.0422655 0.306777 0.20388
395 4 0.0460661 0.292485 0.217133
748 2 0.049634 0.314953 0.181429
394 2 0.0341701 0.284766 0.237726
372 4 0.119383 0.241159 0.227618
370 2 0.136002 0.258644 0.234196
300 4 0.120535 0.292291 0.206935
298 2 0.117149 0.312277 0.221574
299 4 0.113764 0.332262 0.236213
371 4 0.152621 0.276128 0.240774
279 4 0.246695 0.250664 0.207856
277 2 0.261752 0.260537 0.190507
278 4 0.27681 0.270409 0.173158
401 4 0.262696 0.313093 0.240837
496 2 0.281276 0.331578 0.217476
498 4 0.260008 0.319051 0.221466
630 4 0.379549 0.244816 0.185907
254 4 0.368452 0.255684 0.173661
765 4 0.383728 0.262963 0.182543
763 2 0.398258 0.279977 0.171383
528 4 0.486653 0.31227 0.173128
623 4 0.424601 0.30517 0.172496
262 2 0.0378409 0.397653 0.216074
264 4 0.0189539 0.414036 0.215842
263 4 0.0567278 0.38127 0.216306
602 4 0.0726721 0.377169 0.204967
734 4 0.105801 0.345244 0.248947
601 2 0.0851827 0.360179 0.218383
603 4 0.0976933 0.343189 0.2318
290 4 0.148824 0.379884 0.246616
289 2 0.156824 0.39691 0.230145
291 4 0.164824 0.413936 0.213674
307 2 0.334539 0.348831 0.191367
308 4 0.310285 0.351658 0.196748
497 4 0.302544 0.344105 0.213486
309 4 0.358792 0.346004 0.185986
14 3 0.404198 0.399426 0.175769
11 1 0.394169 0.378504 0.175484
13 3 0.381163 0.375695 0.194494
12 3 0.410584 0.362391 0.175257
2618 4 0.0171929 0.432444 0.213625
2617 2 0.00139718 0.447621 0.22568
416 4 0.17435 0.42952 0.204497
415 2 0.189057 0.449654 0.206362
1430 4 0.211999 0.487513 0.20199
417 4 0.203765 0.469789 0.208227
597 4 0.488543 0.461098 0.202369
596 4 0.450076 0.489497 0.187724
659 4 0.440105 0.494252 0.171871
595 2 0.46931 0.475297 0.195046
1799 4 0.0252583 0.0245363 0.31037
233 4 0.0171922 0.04159 0.305554
1402 2 0.0603363 0.0478446 0.310047
1403 4 0.0370405 0.0398899 0.305664
1404 4 0.0836322 0.0557994 0.314429
1798 2 0.012928 0.00829739 0.324842
633 4 0.383352 0.0437195 0.303086
631 2 0.389199 0.0580029 0.283415
257 4 0.379085 0.0481594 0.320778
698 4 0.375603 0.0302839 0.315194
697 2 0.369898 0.00656102 0.320659
349 2 0.455694 0.0258798 0.260014
744 4 0.482109 0.0330887 0.288017
742 2 0.483087 0.0279111 0.312459
351 4 0.464488 0.0231879 0.283265
398 4 0.0740062 0.143079 0.310727
390 4 0.0777938 0.159743 0.301731
393 4 0.0835229 0.143109 0.293657
545 4 0.136234 0.137471 0.261432
392 4 0.123979 0.12475 0.270701
391 2 0.103751 0.13393 0.282179
544 2 0.1544 0.153939 0.266326
249 4 0.190743 0.132266 0.329809
404 4 0.20071 0.149487 0.326032
632 4 0.395047 0.0722863 0.263743
444 4 0.00277231 0.235667 0.307599
388 2 0.086055 0.181534 0.31079
389 4 0.0943162 0.203326 0.31985
723 4 0.221671 0.209487 0.257871
721 2 0.20086 0.198766 0.266654
546 4 0.172567 0.170407 0.27122
403 2 0.1892 0.161816 0.307574
405 4 0.17769 0.174146 0.289117
722 4 0.180049 0.188045 0.275437
378 4 0.301452 0.246266 0.330912
420 4 0.388176 0.230205 0.272232
717 4 0.373918 0.233318 0.285832
418 2 0.411405 0.221517 0.269051
331 2 0.451149 0.20708 0.30485
332 4 0.446233 0.205432 0.28039
419 4 0.434634 0.21283 0.26587
760 2 0.467997 0.226853 0.255015
762 4 0.453264 0.208029 0.262348
515 4 0.461157 0.200693 0.346325
364 2 0.0172966 0.310682 0.285615
442 2 0.0110955 0.253294 0.291941
396 4 0.0222741 0.277047 0.25832
443 4 0.0194186 0.270921 0.276282
365 4 0.0220986 0.290482 0.271683
407 4 0.016339 0.327084 0.318164
677 4 0.145214 0.323441 0.300767
735 4 0.129747 0.332455 0.290944
676 2 0.168993 0.327276 0.307478
508 2 0.232047 0.313473 0.313388
509 4 0.209061 0.321521 0.319052
678 4 0.192772 0.33111 0.31419
510 4 0.255032 0.305425 0.307724
400 2 0.257876 0.308848 0.265002
402 4 0.253055 0.304604 0.289166
345 4 0.269562 0.298032 0.296668
343 2 0.28046 0.279611 0.309594
344 4 0.291359 0.26119 0.32252
715 2 0.372429 0.258256 0.284791
716 4 0.370941 0.283193 0.283749
542 4 0.39098 0.287941 0.289224
541 2 0.401262 0.304609 0.304769
543 4 0.411544 0.321277 0.320314
751 2 0.48125 0.329414 0.323719
2538 4 0.477942 0.333313 0.282823
753 4 0.471912 0.325657 0.30083
366 4 0.0124945 0.330881 0.299547
548 4 0.0119217 0.34531 0.311758
547 2 0.0180161 0.369358 0.308639
549 4 0.0241105 0.393406 0.30552
733 2 0.117774 0.338849 0.269946
728 4 0.355726 0.371425 0.302905
727 2 0.350213 0.394212 0.311596
729 4 0.344701 0.416999 0.320288
2536 2 0.490502 0.352719 0.273292
2860 2 0.49672 0.407044 0.279866
777 4 0.0349491 0.407331 0.316408
775 2 0.0492241 0.423457 0.329112
1543 2 0.153612 0.48609 0.333161
1435 2 0.191546 0.503713 0.295923
1545 4 0.174325 0.479831 0.320633
1436 4 0.189748 0.482561 0.309134
437 4 0.349421 0.434443 0.330147
436 2 0.358076 0.457476 0.325702
438 4 0.366731 0.480509 0.321256
2861 4 0.482583 0.425918 0.28818
730 2 0.0732522 0.0796476 0.361022
2236 2 0.998047 0.0538878 0.415879
732 4 0.087378 0.0657057 0.37623
369 4 0.103222 0.054177 0.377402
367 2 0.108238 0.047075 0.400845
605 4 0.175245 0.0598958 0.385744
604 2 0.173899 0.0384518 0.398531
1701 4 0.183216 0.0676976 0.402955
606 4 0.172554 0.0170079 0.411319
256 2 0.372948 0.0600742 0.341886
258 4 0.366811 0.0719891 0.362994
426 4 0.369499 0.0718278 0.382302
424 2 0.385615 0.0574661 0.394919
425 4 0.401731 0.0431044 0.407535
1580 4 0.399616 0.0248511 0.39979
743 4 0.484066 0.0227335 0.336901
479 4 0.485222 0.0293032 0.35517
478 2 0.472214 0.0492269 0.362851
480 4 0.459205 0.0691506 0.370533
458 4 0.00278767 0.143651 0.363439
397 2 0.0720843 0.12637 0.329228
318 4 0.00956891 0.126888 0.373146
399 4 0.0701623 0.10966 0.347729
317 4 0.0534501 0.10888 0.357307
731 4 0.0591263 0.0935894 0.345815
316 2 0.0315095 0.117884 0.365226
1699 2 0.194024 0.0889521 0.395431
247 2 0.195902 0.129792 0.354149
248 4 0.20106 0.127317 0.37849
1700 4 0.204831 0.110207 0.387906
319 2 0.323699 0.122613 0.391727
320 4 0.307903 0.116584 0.410148
682 2 0.271468 0.137005 0.406716
683 4 0.253064 0.151151 0.397421
706 2 0.333331 0.16968 0.361336
321 4 0.339495 0.128641 0.373306
708 4 0.33104 0.145419 0.366931
516 4 0.459214 0.155517 0.36768
575 4 0.47249 0.150726 0.382612
574 2 0.46703 0.135151 0.401394
576 4 0.461569 0.119575 0.420176
376 2 0.309815 0.224666 0.340329
600 4 0.255312 0.168268 0.40844
377 4 0.318177 0.203066 0.349746
707 4 0.335621 0.193942 0.35574
489 4 0.316562 0.23693 0.410692
333 4 0.456065 0.208727 0.32931
514 2 0.460186 0.178105 0.357003
453 4 0.472934 0.213804 0.337759
451 2 0.492016 0.224977 0.34943
406 2 0.0225595 0.319438 0.341142
408 4 0.0287801 0.311792 0.364121
275 4 0.132447 0.296911 0.353322
617 4 0.125755 0.31115 0.364331
274 2 0.154697 0.297873 0.364688
616 2 0.110064 0.328632 0.372894
435 4 0.197672 0.32903 0.333369
276 4 0.176947 0.298836 0.376054
374 4 0.222131 0.267687 0.403641
373 2 0.208717 0.28541 0.39219
375 4 0.195304 0.303134 0.380739
615 4 0.420313 0.312564 0.336945
266 4 0.330536 0.313907 0.422933
267 4 0.352991 0.270614 0.411881
265 2 0.341764 0.29226 0.417407
468 4 0.368755 0.255973 0.409635
752 4 0.490587 0.333172 0.346607
613 2 0.433741 0.329471 0.349554
614 4 0.447169 0.346379 0.362164
347 4 0.0773682 0.352761 0.374825
346 2 0.0649729 0.351393 0.396496
618 4 0.0943719 0.346114 0.381458
433 2 0.195974 0.345497 0.352108
434 4 0.194277 0.361964 0.370847
502 2 0.312715 0.411913 0.412583
240 4 0.404953 0.420088 0.411038
776 4 0.063499 0.439582 0.341815
413 4 0.114864 0.487022 0.339472
414 4 0.0757541 0.455925 0.341493
1544 4 0.132898 0.492349 0.345689
412 2 0.0953093 0.471473 0.340482
503 4 0.324917 0.428124 0.397972
669 4 0.329363 0.446308 0.395434
667 2 0.325588 0.467481 0.408187
335 4 0.386119 0.422956 0.402908
336 4 0.339619 0.431294 0.386509
334 2 0.362869 0.427125 0.394709
3990 4 0.484015 0.48484 0.359913
1781 4 0.0761828 0.00844808 0.475125
1127 4 0.00537506 0.0536722 0.454089
2237 4 0.0124356 0.0574333 0.436017
720 4 0.0234624 0.0619267 0.451702
718 2 0.0362303 0.0797026 0.463793
1523 4 0.0583534 0.010807 0.482615
1780 2 0.0871969 0.0209929 0.456511
368 4 0.113254 0.0399731 0.424288
1782 4 0.0982111 0.0335378 0.437897
341 4 0.172759 0.0171252 0.500381
2430 4 0.183936 0.00364248 0.489349
724 2 0.291796 0.0489712 0.484069
726 4 0.296406 0.0689168 0.469713
725 4 0.287186 0.0290255 0.498425
963 4 0.281498 0.010922 0.49254
1182 4 0.285731 0.0691745 0.454038
1579 2 0.393216 0.00774611 0.416867
2879 4 0.418302 0.0358665 0.485664
642 4 0.459387 0.0596591 0.447744
2878 2 0.428749 0.048244 0.466616
2880 4 0.439196 0.0606214 0.447567
640 2 0.464555 0.0826897 0.439494
470 4 0.999112 0.154848 0.4819
719 4 0.0489982 0.0974786 0.475883
939 4 0.0993349 0.145195 0.489657
1033 2 0.116827 0.131649 0.46629
1035 4 0.140427 0.129325 0.458364
261 4 0.152622 0.137629 0.472468
1034 4 0.0932272 0.133973 0.474216
259 2 0.164016 0.159648 0.469228
684 4 0.289871 0.122859 0.41601
1180 2 0.290975 0.087315 0.437649
1181 4 0.29622 0.105455 0.42126
641 4 0.469723 0.10572 0.431244
306 4 0.468856 0.124693 0.436057
304 2 0.472608 0.133832 0.459026
3158 4 0.461247 0.152712 0.490885
305 4 0.47636 0.142972 0.481995
694 2 0.151845 0.21769 0.473472
696 4 0.135852 0.235423 0.480886
695 4 0.167837 0.199958 0.466057
260 4 0.175409 0.181668 0.465989
472 2 0.234073 0.244281 0.428633
599 4 0.241905 0.209047 0.434093
687 4 0.229034 0.211705 0.448026
686 4 0.186575 0.19736 0.470212
685 2 0.207805 0.204533 0.459119
411 4 0.246946 0.217838 0.450911
598 2 0.248609 0.188658 0.421267
474 4 0.250889 0.226758 0.434577
409 2 0.256875 0.21924 0.473816
488 4 0.269135 0.228752 0.424274
487 2 0.292849 0.232841 0.417483
466 2 0.367361 0.234266 0.421964
467 4 0.365967 0.212558 0.434294
473 4 0.217256 0.261804 0.422689
813 4 0.226316 0.300422 0.478202
811 2 0.238834 0.314631 0.494529
2812 2 0.0182379 0.33905 0.435811
348 4 0.0525775 0.350024 0.418168
2813 4 0.0429165 0.341464 0.432599
326 4 0.0589673 0.351014 0.43669
325 2 0.0791804 0.352778 0.451302
327 4 0.0993936 0.354542 0.465913
10 3 0.127592 0.357167 0.505773
7 3 0.116411 0.362783 0.470611
6 1 0.116654 0.371527 0.491887
711 4 0.138682 0.407961 0.492101
8 3 0.127579 0.391993 0.491461
709 2 0.161859 0.410256 0.483005
9 3 0.0947774 0.374373 0.499078
774 4 0.200013 0.418596 0.484991
772 2 0.219682 0.415853 0.500182
504 4 0.300513 0.395701 0.427194
1383 4 0.0664198 0.477548 0.461692
680 4 0.0633606 0.462804 0.474812
1381 2 0.0590591 0.491827 0.442532
679 2 0.0735496 0.454192 0.495959
635 4 0.18867 0.431402 0.474652
636 4 0.199519 0.475091 0.452875
710 4 0.185036 0.412552 0.47391
634 2 0.194094 0.453246 0.463764
668 4 0.321813 0.488654 0.420939
4 3 0.317595 0.496219 0.438668
238 2 0.402906 0.432702 0.432529
588 4 0.382797 0.44559 0.464439
239 4 0.400859 0.445317 0.45402
586 2 0.389685 0.436434 0.486663
1184 4 0.00614584 0.0154201 0.552437
342 4 0.170541 0.0634793 0.519011
1152 4 0.156235 0.0673112 0.532719
1150 2 0.167587 0.0705194 0.554764
340 2 0.17165 0.0403022 0.509696
1151 4 0.17894 0.0737275 0.57681
430 2 0.316972 0.00738084 0.516023
432 4 0.294161 0.0132951 0.507667
841 2 0.367858 0.0276757 0.546475
842 4 0.383571 0.0396673 0.561788
1216 2 0.411794 0.0137466 0.575968
1217 4 0.396 0.0330439 0.577794
843 4 0.352145 0.0156841 0.531163
431 4 0.339784 0.00146653 0.524379
2195 4 0.359151 0.999199 0.523612
3009 4 0.498133 0.0528234 0.57708
879 4 0.0552637 0.159272 0.534284
877 2 0.0302888 0.159342 0.533087
878 4 0.005314 0.159412 0.531891
938 4 0.0711576 0.149264 0.530769
937 2 0.0852462 0.14723 0.510213
858 4 0.298117 0.159979 0.572948
3159 4 0.463735 0.135327 0.537707
3157 2 0.462491 0.144019 0.514296
1062 4 0.477092 0.119054 0.538399
1272 4 0.0728769 0.164975 0.541355
1270 2 0.0828605 0.180323 0.558383
1271 4 0.092844 0.19567 0.575411
1258 2 0.127671 0.234287 0.525049
1259 4 0.120752 0.23445 0.549076
1260 4 0.134591 0.234123 0.501023
898 2 0.298113 0.219316 0.521795
899 4 0.318187 0.208708 0.532268
857 4 0.31038 0.191372 0.536004
856 2 0.304249 0.175676 0.554476
791 4 0.329376 0.196207 0.541721
410 4 0.266803 0.220641 0.496722
900 4 0.278039 0.229924 0.511321
790 2 0.346605 0.212709 0.549207
792 4 0.363834 0.229211 0.556693
872 4 0.369062 0.247048 0.551743
1238 4 0.363936 0.242732 0.570212
649 2 0.281448 0.334181 0.541431
651 4 0.299622 0.331844 0.558443
812 4 0.251351 0.328841 0.510856
806 4 0.298305 0.334929 0.579358
871 2 0.381248 0.255537 0.531628
1237 2 0.349336 0.261863 0.576993
873 4 0.393435 0.264026 0.511513
1135 2 0.12343 0.381553 0.567011
1136 4 0.111962 0.383451 0.544874
1137 4 0.134899 0.379655 0.589148
773 4 0.23935 0.41311 0.515374
1189 2 0.228597 0.408211 0.555837
1190 4 0.24171 0.409448 0.534584
803 4 0.243858 0.395588 0.521844
1191 4 0.215484 0.406975 0.57709
802 2 0.24981 0.371935 0.516341
930 4 0.257462 0.409443 0.522372
650 4 0.263274 0.336518 0.524419
804 4 0.255762 0.348282 0.510838
925 2 0.435351 0.409888 0.506893
927 4 0.455632 0.395803 0.510825
539 4 0.0799756 0.488484 0.494126
681 4 0.0837387 0.44558 0.517106
383 4 0.0949505 0.429876 0.521674
382 2 0.11801 0.42671 0.512541
384 4 0.14107 0.423545 0.503409
569 4 0.146738 0.441863 0.508928
568 2 0.162933 0.458303 0.518553
570 4 0.179129 0.474743 0.528177
1159 2 0.182667 0.489472 0.57951
928 2 0.277719 0.42319 0.527455
929 4 0.297977 0.436937 0.532537
1951 2 0.306241 0.477149 0.531337
1953 4 0.308428 0.453434 0.538951
1952 4 0.304054 0.500865 0.523723
926 4 0.41507 0.423973 0.502961
1000 2 0.399819 0.495738 0.571383
663 4 0.410811 0.440044 0.514052
587 4 0.396573 0.427279 0.508887
1001 4 0.418371 0.479211 0.568589
661 2 0.416267 0.456461 0.532105
662 4 0.421723 0.472878 0.550157
1911 4 0.432185 0.466074 0.565073
1332 4 0.434846 0.484203 0.559452
1330 2 0.454413 0.494768 0.548021
1059 4 0.169068 0.0663259 0.591674
2375 4 0.167299 0.00713549 0.609235
1155 4 0.17724 0.0841892 0.593189
1058 4 0.17683 0.0234354 0.616186
1057 2 0.172949 0.0448807 0.60393
949 2 0.265089 0.00973372 0.632012
951 4 0.283599 0.0231686 0.642115
1031 4 0.282482 0.0339271 0.659192
3007 2 0.493755 0.0727876 0.591483
43 3 0.436996 0.0698034 0.657833
1154 4 0.153274 0.122606 0.614414
1221 4 0.159674 0.141495 0.621576
1153 2 0.165257 0.103398 0.603802
1219 2 0.180223 0.155625 0.619773
808 2 0.487708 0.086205 0.645085
1245 4 0.0953133 0.179752 0.634943
1244 4 0.108298 0.189014 0.587548
1243 2 0.101806 0.184383 0.611245
1209 4 0.101175 0.189663 0.651081
1210 2 0.236585 0.177587 0.640389
1212 4 0.215198 0.178445 0.627465
1220 4 0.200772 0.169755 0.617969
797 4 0.201956 0.235221 0.597864
796 2 0.201815 0.212435 0.608157
798 4 0.201673 0.189649 0.61845
888 4 0.256794 0.177701 0.673708
1211 4 0.257972 0.17673 0.653314
1193 4 0.418035 0.195565 0.649634
3121 2 0.469557 0.220865 0.637628
3122 4 0.471934 0.198453 0.648456
3357 4 0.478805 0.178383 0.650653
3355 2 0.496484 0.169614 0.666007
983 4 0.023396 0.287293 0.641424
982 2 0.0356698 0.307693 0.649065
984 4 0.0479435 0.328093 0.656705
3263 4 0.0657258 0.324645 0.665273
805 2 0.308756 0.312729 0.584167
807 4 0.319206 0.290529 0.588976
1239 4 0.334735 0.280995 0.583774
3123 4 0.46718 0.243277 0.626801
906 4 0.44984 0.303909 0.597102
905 4 0.460935 0.262324 0.622564
904 2 0.455388 0.283116 0.609833
953 4 0.463729 0.316621 0.599128
1041 4 0.0616814 0.342084 0.657576
1039 2 0.0609043 0.363197 0.644204
1040 4 0.0601273 0.38431 0.630831
993 4 0.0608675 0.38595 0.611257
991 2 0.0414856 0.401394 0.607941
992 4 0.0221036 0.416838 0.604625
897 4 0.154571 0.381611 0.59048
895 2 0.176222 0.393642 0.587062
896 4 0.197873 0.405673 0.583645
1028 4 0.201416 0.392396 0.659703
1027 2 0.211719 0.399479 0.63805
1029 4 0.222023 0.406562 0.616397
1172 4 0.209955 0.420593 0.589324
952 2 0.482132 0.333536 0.598505
1206 4 0.484213 0.411071 0.619554
1160 4 0.19856 0.482731 0.597597
1171 2 0.206612 0.443753 0.598134
1173 4 0.203268 0.466913 0.606945
1187 4 0.187824 0.478507 0.612795
1186 2 0.181722 0.475712 0.636881
1188 4 0.17562 0.472917 0.660967
2167 2 0.470253 0.496024 0.650202
1909 2 0.433111 0.450189 0.58436
1268 4 0.429727 0.47353 0.657565
1267 2 0.427249 0.457782 0.638302
2168 4 0.449457 0.482741 0.654233
1204 2 0.460664 0.419395 0.620692
1910 4 0.434037 0.434304 0.603647
1269 4 0.424771 0.442035 0.61904
1205 4 0.437114 0.427719 0.62183
1284 4 0.0902587 0.0568513 0.711937
1282 2 0.106758 0.0731636 0.702618
2047 2 0.154835 0.00214055 0.733074
2254 2 0.209052 0.99857 0.717239
2256 4 0.187855 0.00648987 0.727876
2049 4 0.172065 0.014562 0.719883
1201 2 0.184664 0.0507539 0.728412
1202 4 0.186307 0.0259004 0.726225
1203 4 0.183021 0.0756074 0.730598
1030 2 0.291675 0.0560959 0.666208
1032 4 0.300867 0.0782648 0.673223
1005 4 0.343525 0.0384385 0.703689
1003 2 0.344137 0.0197018 0.687143
45 3 0.453515 0.0420674 0.67721
41 1 0.446708 0.0637846 0.678029
810 4 0.476405 0.0811975 0.666818
1162 2 0.49947 0.0559605 0.690706
1163 4 0.483522 0.0736243 0.683037
44 3 0.464804 0.0775893 0.682542
42 3 0.431137 0.0662178 0.694785
1076 4 0.997354 0.0881003 0.718699
1077 4 0.0350155 0.1126 0.740656
1075 2 0.0161847 0.10035 0.729677
864 4 0.0542101 0.117994 0.742771
909 4 0.104177 0.155036 0.698469
907 2 0.11358 0.132088 0.695281
908 4 0.122983 0.109141 0.692094
1283 4 0.123258 0.089476 0.693299
1227 4 0.139978 0.0992865 0.693654
1225 2 0.159446 0.0964736 0.709089
851 4 0.0933009 0.160823 0.713777
1148 4 0.194352 0.084512 0.717055
1226 4 0.178915 0.0936608 0.724523
1147 2 0.210003 0.100966 0.727519
1149 4 0.225655 0.117419 0.737982
829 2 0.325336 0.149777 0.718633
830 4 0.303168 0.160753 0.722277
887 4 0.289806 0.168207 0.710051
831 4 0.347504 0.1388 0.714989
1142 4 0.366892 0.141375 0.714584
1141 2 0.386657 0.156413 0.711692
1143 4 0.406422 0.171451 0.708799
1025 4 0.464143 0.136839 0.708419
3424 2 0.480498 0.114579 0.693751
3426 4 0.477439 0.0924699 0.682481
3425 4 0.483557 0.136687 0.705022
3269 4 0.477308 0.129901 0.72172
1024 2 0.44507 0.153006 0.708302
3268 2 0.487848 0.144476 0.739088
852 4 0.0494707 0.168703 0.736526
1214 4 0.0366795 0.175093 0.722396
850 2 0.0713858 0.164763 0.725152
1213 2 0.0131725 0.183552 0.723422
1208 4 0.0938641 0.170622 0.696739
1207 2 0.0975197 0.180143 0.67391
1107 4 0.109324 0.170477 0.708836
1105 2 0.128721 0.179151 0.722015
1106 4 0.148118 0.187825 0.735194
1130 4 0.149442 0.204794 0.746283
978 4 0.286517 0.168002 0.729422
886 2 0.2733 0.172954 0.69188
976 2 0.292631 0.188394 0.742536
916 2 0.299249 0.240955 0.73632
1192 2 0.417718 0.189409 0.673866
1194 4 0.417401 0.183253 0.698098
1262 4 0.418118 0.184734 0.717409
1261 2 0.425369 0.191546 0.740348
1026 4 0.425998 0.169174 0.708185
3262 2 0.0683191 0.319591 0.689622
3264 4 0.0709124 0.314538 0.713972
893 4 0.0677716 0.32916 0.726492
779 4 0.0854329 0.31996 0.725332
778 2 0.106641 0.307022 0.728161
780 4 0.127848 0.294083 0.730991
1065 4 0.222385 0.304033 0.670014
1063 2 0.24134 0.305258 0.686274
1064 4 0.260295 0.306482 0.702534
947 4 0.312723 0.263716 0.701162
946 2 0.293728 0.279685 0.6981
948 4 0.274733 0.295654 0.695039
917 4 0.302706 0.253873 0.715193
1008 4 0.478048 0.282955 0.70854
1006 2 0.467566 0.279796 0.73102
1067 4 0.153834 0.391984 0.711356
940 2 0.140711 0.393206 0.751324
941 4 0.153387 0.397926 0.730295
1066 2 0.169813 0.390242 0.692204
1068 4 0.185792 0.3885 0.673052
1236 4 0.260026 0.351443 0.741549
1176 4 0.159429 0.483156 0.715708
1175 4 0.167137 0.458659 0.672799
1174 2 0.163283 0.470907 0.694254
1139 4 0.294212 0.469161 0.691174
1138 2 0.303728 0.454363 0.708941
1140 4 0.313245 0.439566 0.726707
1229 4 0.326749 0.427181 0.732688
1989 4 0.319178 0.438844 0.745772
1100 4 0.388689 0.444555 0.742715
1228 2 0.351529 0.430504 0.732336
1230 4 0.376308 0.433826 0.731984
1099 2 0.410523 0.452768 0.733713
1101 4 0.432357 0.46098 0.724712
3330 4 0.44859 0.465049 0.713786
3328 2 0.459745 0.447161 0.700341
1251 4 0.445387 0.474191 0.730393
3329 4 0.4709 0.429273 0.686895
834 4 0.0358041 0.0723586 0.818023
2321 4 0.430629 0.00861929 0.794449
2322 4 0.447128 0.055464 0.788612
2320 2 0.438879 0.0320416 0.791531
846 4 0.443792 0.0727187 0.777199
862 2 0.0541125 0.120747 0.767622
863 4 0.054015 0.123499 0.792473
833 4 0.0503483 0.119746 0.811418
1125 4 0.0626483 0.134526 0.806541
1123 2 0.0719121 0.152257 0.82154
832 2 0.0430762 0.0960523 0.814721
911 4 0.124026 0.0956625 0.808918
910 2 0.123329 0.112414 0.827468
1257 4 0.228765 0.13205 0.751568
1255 2 0.23194 0.13538 0.776144
921 4 0.219808 0.149819 0.805703
919 2 0.202901 0.164347 0.817027
840 4 0.231778 0.143189 0.819921
1256 4 0.235116 0.13871 0.800721
1113 4 0.354497 0.0954332 0.790552
1111 2 0.354407 0.103257 0.8143
1112 4 0.354317 0.11108 0.838048
844 2 0.4352 0.0901106 0.761423
845 4 0.426608 0.107502 0.745647
1129 2 0.157303 0.217726 0.766186
34 3 0.131444 0.179764 0.830855
1131 4 0.165164 0.230659 0.786089
1277 4 0.167371 0.228398 0.805758
1276 2 0.170632 0.20964 0.821966
920 4 0.185993 0.178875 0.828351
822 4 0.173969 0.244298 0.796839
977 4 0.298745 0.208786 0.75565
918 4 0.295791 0.228036 0.757447
1298 4 0.295836 0.215742 0.773319
1297 2 0.298071 0.210079 0.79757
1299 4 0.300306 0.204415 0.821821
1086 4 0.320229 0.199879 0.825059
50 3 0.400414 0.197003 0.795724
46 1 0.422891 0.200271 0.794069
49 3 0.427251 0.222042 0.787329
1043 4 0.439423 0.21456 0.772001
48 3 0.433021 0.196135 0.814531
47 3 0.431524 0.185776 0.778432
1263 4 0.432619 0.198359 0.763287
1146 4 0.492347 0.175536 0.765168
1145 4 0.44776 0.196468 0.773803
1144 2 0.470054 0.186002 0.769486
1042 2 0.44846 0.237099 0.766042
821 4 0.214592 0.272688 0.803507
820 2 0.19428 0.258493 0.800173
1098 4 0.25749 0.334389 0.809124
1096 2 0.255285 0.3275 0.833058
1044 4 0.457498 0.259638 0.760083
1007 4 0.457084 0.276637 0.753499
1165 2 0.48913 0.274583 0.782568
1166 4 0.469189 0.273493 0.767523
892 2 0.0680719 0.34353 0.746952
3275 4 0.0101811 0.362096 0.802347
894 4 0.0683723 0.357899 0.767412
3276 4 0.0561937 0.360864 0.782801
3274 2 0.0331874 0.36148 0.792574
816 4 0.0751525 0.36533 0.78398
814 2 0.0951065 0.380384 0.784621
942 4 0.128034 0.388486 0.772352
815 4 0.115061 0.395437 0.785262
1080 4 0.132846 0.390389 0.791557
1078 2 0.150381 0.402504 0.804631
1235 4 0.26208 0.33766 0.789575
1234 2 0.261053 0.344551 0.765562
1020 4 0.399393 0.394129 0.782701
1018 2 0.392499 0.409935 0.764595
1016 4 0.401981 0.388914 0.801867
1015 2 0.410551 0.383685 0.824767
883 2 0.0533578 0.466107 0.773994
849 4 0.0386815 0.472339 0.813959
885 4 0.0492983 0.475987 0.796601