ITEM: TIMESTEP
3440000
ITEM: NUMBER OF ATOMS
4590
ITEM: BOX BOUNDS pp pp pp
-9.9985700000000008e+00 9.9985700000000008e+00
-9.9985700000000008e+00 9.9985700000000008e+00
-9.9985700000000008e+00 9.9985700000000008e+00
ITEM: ATOMS id type xs ys zs
2576 4 0.0461083 0.00379739 0.0751955
2575 2 0.0227992 0.99822 0.068071
702 4 0.121276 0.0559995 0.0189893
566 4 0.135835 0.058244 0.00259492
700 2 0.111931 0.0781763 0.0257744
296 4 0.325284 0.0851602 0.0853992
746 4 0.486433 0.0451544 0.0471775
2469 4 0.49513 0.0378196 0.0649182
745 2 0.474158 0.0479334 0.0255719
747 4 0.461884 0.0507124 0.00396638
463 2 0.0595518 0.101151 0.0429205
464 4 0.0367392 0.103368 0.0529128
590 4 0.0286693 0.117773 0.0633616
589 2 0.0143418 0.103278 0.0778457
465 4 0.0823644 0.098933 0.0329282
701 4 0.102586 0.100353 0.0325596
557 4 0.333009 0.0999722 0.0736519
558 4 0.370247 0.126504 0.0533998
556 2 0.351628 0.113238 0.0635258
866 4 0.365419 0.139031 0.0394202
865 2 0.363812 0.163696 0.0431922
827 4 0.381142 0.127099 0.0374158
826 2 0.395661 0.110109 0.0262037
828 4 0.410181 0.0931199 0.0149915
554 4 0.0216424 0.199419 0.0392842
553 2 0.044796 0.205277 0.0318838
555 4 0.0679497 0.211135 0.0244834
836 4 0.072505 0.202431 0.00740165
835 2 0.0966452 0.205559 0.00168803
915 4 0.133101 0.223662 0.002607
837 4 0.120785 0.208687 0.995974
666 4 0.338361 0.243713 0.0760008
664 2 0.34238 0.222258 0.063805
665 4 0.346399 0.200804 0.0516092
867 4 0.362205 0.188361 0.0469642
2808 4 0.0499349 0.29412 0.0338207
2806 2 0.028415 0.290883 0.0461332
2807 4 0.00689519 0.287646 0.0584457
356 4 0.315242 0.324262 0.0539819
572 4 0.316695 0.307714 0.0666733
355 2 0.304803 0.325099 0.0312769
571 2 0.32738 0.285189 0.0685816
357 4 0.294365 0.325936 0.00857185
573 4 0.338065 0.262664 0.0704899
1070 4 0.439455 0.257118 0.0655284
1069 2 0.447308 0.278258 0.0763277
507 4 0.129917 0.338057 0.0688508
505 2 0.143206 0.355878 0.0574048
506 4 0.156494 0.373699 0.0459588
483 4 0.168358 0.391275 0.0444028
481 2 0.1882 0.397772 0.0306446
482 4 0.208041 0.40427 0.0168864
607 2 0.242617 0.414881 0.029081
902 4 0.283093 0.342858 0.00931481
608 4 0.26758 0.413529 0.0295768
957 4 0.401138 0.40747 0.0232696
955 2 0.398691 0.395025 0.001722
609 4 0.217655 0.416233 0.0285853
244 2 0.226195 0.481588 0.0384382
245 4 0.216186 0.472333 0.0593989
627 4 0.20665 0.473497 0.0763457
625 2 0.204427 0.448672 0.0783427
246 4 0.236203 0.490843 0.0174775
626 4 0.202205 0.423848 0.0803397
252 4 0.275027 0.426962 0.0417988
250 2 0.291019 0.44441 0.0337363
251 4 0.307011 0.461858 0.0256739
2289 4 0.31801 0.466255 0.00971103
226 2 0.465059 0.471934 0.0577734
227 4 0.48292 0.454849 0.0539987
228 4 0.447197 0.489019 0.061548
525 4 0.432482 0.482077 0.0729216
1805 4 0.0614145 9.02346e-05 0.0863492
16 1 0.0638841 0.0519685 0.153008
20 3 0.0615128 0.0658991 0.135148
18 3 0.0573803 0.0304668 0.147195
1806 4 0.0664259 0.0195098 0.132158
1804 2 0.0639202 0.00980004 0.109254
17 3 0.0859688 0.0515769 0.159431
652 2 0.331677 0.0157047 0.145217
297 4 0.332743 0.0440684 0.112904
295 2 0.329014 0.0646143 0.0991519
653 4 0.336956 0.0307186 0.125933
484 2 0.371813 0.0294639 0.102016
485 4 0.349204 0.0342007 0.111586
486 4 0.394422 0.024727 0.0924462
579 4 0.116276 0.135579 0.0881772
237 4 0.159971 0.144803 0.135719
577 2 0.131831 0.143753 0.105965
578 4 0.147387 0.151927 0.123752
476 4 0.149666 0.160416 0.14105
737 4 0.164252 0.16152 0.127491
692 4 0.237286 0.0983295 0.142678
235 2 0.168528 0.126212 0.150082
236 4 0.177086 0.10762 0.164444
691 2 0.21464 0.0967296 0.153156
693 4 0.191994 0.0951296 0.163633
582 4 0.252209 0.0876116 0.14781
580 2 0.268853 0.105785 0.143583
581 4 0.285497 0.123959 0.139356
30 3 0.298277 0.136276 0.14854
771 4 0.439227 0.13064 0.0973729
769 2 0.434579 0.154776 0.101957
475 2 0.138357 0.170295 0.161042
736 2 0.185467 0.1725 0.120106
738 4 0.206682 0.183479 0.11272
285 4 0.300526 0.17247 0.147099
354 4 0.309013 0.233235 0.145713
462 4 0.317 0.233226 0.129573
460 2 0.324283 0.245243 0.108891
283 2 0.308811 0.195737 0.143203
284 4 0.317096 0.219004 0.139308
255 4 0.326295 0.233051 0.14416
253 2 0.347465 0.233106 0.157464
770 4 0.429931 0.178913 0.106541
1014 4 0.448875 0.181558 0.109937
1013 4 0.474055 0.224678 0.10723
1012 2 0.461465 0.203118 0.108584
519 4 0.477033 0.244975 0.109966
517 2 0.488262 0.24952 0.13184
454 2 0.0617151 0.327334 0.147358
300 4 0.14682 0.311149 0.165905
756 4 0.241468 0.301339 0.126934
612 4 0.252374 0.318278 0.126594
754 2 0.251073 0.284222 0.142424
461 4 0.331565 0.25726 0.0882091
352 2 0.293862 0.250186 0.156121
755 4 0.260679 0.267106 0.157913
353 4 0.278712 0.267136 0.166529
1071 4 0.455161 0.299397 0.0871269
322 2 0.450389 0.330558 0.0983974
324 4 0.440893 0.307431 0.0988114
518 4 0.49949 0.254065 0.153713
647 4 0.0402922 0.37382 0.0876706
620 4 0.0208188 0.372076 0.088577
456 4 0.0715346 0.336624 0.126324
648 4 0.075414 0.351492 0.115395
646 2 0.0578531 0.362656 0.101533
294 4 0.0898838 0.343946 0.12577
293 4 0.123169 0.339429 0.0887246
292 2 0.106527 0.341688 0.107248
610 2 0.243283 0.336617 0.112234
536 4 0.210915 0.405087 0.0825433
611 4 0.234192 0.354957 0.0978749
535 2 0.214626 0.383747 0.0950343
537 4 0.218338 0.362407 0.107525
741 4 0.394901 0.367409 0.0848766
739 2 0.391784 0.376493 0.107962
740 4 0.388667 0.385577 0.131048
385 2 0.35346 0.409333 0.130207
386 4 0.374735 0.397573 0.136061
495 4 0.393889 0.402506 0.139329
15 3 0.374888 0.379001 0.141703
11 1 0.386317 0.382577 0.161074
12 3 0.40121 0.365359 0.164373
14 3 0.398091 0.402528 0.159753
323 4 0.459884 0.353684 0.0979834
670 2 0.472982 0.380775 0.102145
672 4 0.451885 0.368985 0.108554
671 4 0.49408 0.392566 0.0957356
1787 4 0.0623295 0.487785 0.0912767
552 4 0.0713078 0.473303 0.100631
550 2 0.0507057 0.459155 0.101388
551 4 0.0301036 0.445008 0.102144
242 4 0.0766501 0.491718 0.104502
241 2 0.101353 0.494944 0.106629
243 4 0.126057 0.498171 0.108755
1440 4 0.136925 0.481415 0.105775
1438 2 0.161583 0.4855 0.105051
1439 4 0.18624 0.489585 0.104328
639 4 0.199764 0.485711 0.0904407
637 2 0.218669 0.496224 0.10298
387 4 0.332186 0.421093 0.124353
767 4 0.25046 0.501724 0.101802
303 4 0.299853 0.461124 0.0942159
768 4 0.292745 0.47797 0.0896209
301 2 0.305943 0.441766 0.108824
302 4 0.312033 0.422409 0.123431
766 2 0.271603 0.489847 0.0957113
493 2 0.406022 0.423251 0.132427
494 4 0.418154 0.443995 0.125525
660 4 0.41624 0.460903 0.13472
524 4 0.41781 0.461145 0.115901
523 2 0.425146 0.471611 0.0944115
658 2 0.425178 0.474771 0.153507
19 3 0.0510422 0.0596017 0.170762
380 4 0.0655827 0.0681549 0.181223
379 2 0.0512523 0.0809596 0.197218
675 4 0.0831083 0.057104 0.179227
673 2 0.106353 0.0572205 0.188437
674 4 0.129599 0.057337 0.197648
450 4 0.145245 0.0550098 0.187512
1505 4 0.13508 0.0389362 0.193185
1504 2 0.148529 0.0223353 0.206174
448 2 0.160936 0.0736469 0.181889
1506 4 0.161978 0.00573445 0.219163
25 3 0.406131 0.00918085 0.24163
757 2 0.416635 0.0431581 0.222449
759 4 0.418573 0.0238479 0.238214
758 4 0.414697 0.0624684 0.206684
512 4 0.0340889 0.113448 0.209929
381 4 0.0369218 0.0937642 0.213214
511 2 0.0483903 0.133059 0.215935
513 4 0.0626918 0.152669 0.22194
339 4 0.0756098 0.157769 0.207241
449 4 0.176628 0.092284 0.176266
27 3 0.321549 0.135193 0.177698
26 1 0.303346 0.145882 0.168557
28 3 0.285374 0.143848 0.183092
477 4 0.127048 0.180174 0.181035
337 2 0.0918174 0.171026 0.193575
363 4 0.120553 0.196916 0.188599
338 4 0.108025 0.184283 0.17991
362 4 0.139971 0.241626 0.199763
361 2 0.130262 0.219271 0.194181
372 4 0.14351 0.233921 0.217697
370 2 0.145116 0.242317 0.241194
29 3 0.30856 0.168284 0.165494
628 2 0.393282 0.215985 0.181395
630 4 0.376935 0.233376 0.188847
254 4 0.368635 0.23316 0.170768
629 4 0.409629 0.198594 0.173944
311 4 0.476708 0.196242 0.174974
312 4 0.42731 0.192168 0.181604
310 2 0.452009 0.194205 0.178289
761 4 0.483442 0.210465 0.236553
455 4 0.0518956 0.318044 0.168393
749 4 0.045799 0.329343 0.182979
750 4 0.0296868 0.296178 0.21676
395 4 0.0225476 0.294264 0.234436
748 2 0.0377429 0.312761 0.199869
298 2 0.136253 0.318281 0.187414
299 4 0.125686 0.325413 0.208924
734 4 0.121554 0.323691 0.227325
278 4 0.262638 0.265262 0.177088
277 2 0.26795 0.277843 0.198032
279 4 0.273263 0.290424 0.218977
401 4 0.282562 0.305455 0.227394
498 4 0.290901 0.322763 0.228666
765 4 0.367886 0.248846 0.181519
763 2 0.37791 0.271421 0.185401
764 4 0.387935 0.293996 0.189282
623 4 0.395609 0.309896 0.198614
528 4 0.459368 0.293217 0.193939
624 4 0.443383 0.296381 0.204593
622 2 0.419496 0.303139 0.201603
526 2 0.474758 0.278719 0.180592
527 4 0.490148 0.264221 0.167245
262 2 0.0561599 0.394332 0.207238
263 4 0.0784759 0.389598 0.197002
264 4 0.0338439 0.399066 0.217473
2618 4 0.0212359 0.395997 0.231122
602 4 0.0949587 0.383051 0.205529
601 2 0.106312 0.361717 0.211945
603 4 0.117665 0.340384 0.218361
496 2 0.297933 0.333519 0.207217
497 4 0.304965 0.344274 0.185768
308 4 0.315317 0.343081 0.169001
309 4 0.353785 0.373718 0.178069
307 2 0.334551 0.3584 0.173535
13 3 0.371557 0.383259 0.178965
290 4 0.166403 0.418091 0.237578
289 2 0.16823 0.424366 0.213444
291 4 0.170057 0.430642 0.18931
416 4 0.175049 0.446749 0.177738
415 2 0.189513 0.466866 0.181093
1430 4 0.221882 0.493374 0.193134
417 4 0.203978 0.486984 0.184448
713 4 0.373062 0.488716 0.236545
597 4 0.4796 0.456343 0.200481
659 4 0.434117 0.488639 0.172294
595 2 0.464257 0.474351 0.19239
596 4 0.448914 0.49236 0.184299
234 4 0.996605 0.0680581 0.316279
232 2 0.00717279 0.0461209 0.310599
1799 4 0.022796 0.00591559 0.308854
233 4 0.0177407 0.0241836 0.30492
1402 2 0.0543196 0.00271251 0.292462
1403 4 0.0344217 0.016935 0.297656
632 4 0.407624 0.0245688 0.253943
633 4 0.368228 0.0359828 0.28255
631 2 0.387926 0.0302758 0.268247
257 4 0.354129 0.0407472 0.295892
698 4 0.354383 0.0227699 0.287963
256 2 0.35747 0.0477912 0.319649
350 4 0.422114 0.0119102 0.252759
349 2 0.444602 0.0112586 0.263668
744 4 0.486467 0.00985373 0.279265
742 2 0.50049 0.0152228 0.299259
351 4 0.467091 0.010607 0.274578
399 4 0.0752921 0.118521 0.325879
397 2 0.0908764 0.137905 0.323322
398 4 0.106461 0.15729 0.320765
249 4 0.192335 0.119622 0.316731
404 4 0.20264 0.116126 0.300511
403 2 0.200507 0.137075 0.28703
405 4 0.198373 0.158025 0.273549
444 4 0.0145851 0.248537 0.3141
393 4 0.0969996 0.167781 0.306924
390 4 0.0971962 0.174356 0.325264
392 4 0.122804 0.186848 0.268566
391 2 0.109902 0.177314 0.287745
545 4 0.136129 0.18026 0.253704
371 4 0.146721 0.250712 0.264691
544 2 0.159188 0.173628 0.260737
723 4 0.227273 0.217952 0.268917
721 2 0.213016 0.197462 0.270354
546 4 0.182248 0.166997 0.26777
722 4 0.198759 0.176971 0.271792
377 4 0.32659 0.222285 0.312452
376 2 0.314373 0.24397 0.310065
420 4 0.40118 0.234026 0.273676
717 4 0.39195 0.235884 0.290712
707 4 0.336748 0.208843 0.324507
760 2 0.474489 0.214159 0.259605
418 2 0.423687 0.225493 0.280444
331 2 0.466262 0.19654 0.317682
332 4 0.458533 0.204423 0.295248
419 4 0.446194 0.216961 0.287212
762 4 0.465537 0.217853 0.282656
394 2 0.028826 0.293149 0.258613
442 2 0.0236848 0.27106 0.308176
364 2 0.0269031 0.331147 0.298869
396 4 0.0351043 0.292035 0.28279
443 4 0.0327846 0.293583 0.302252
365 4 0.0364301 0.309382 0.291075
733 2 0.126901 0.320252 0.251507
735 4 0.132248 0.316812 0.275689
677 4 0.139503 0.323075 0.292789
676 2 0.164069 0.32761 0.293854
508 2 0.229447 0.324812 0.291004
509 4 0.207674 0.336631 0.29438
400 2 0.271887 0.306391 0.249985
510 4 0.251221 0.312993 0.287628
402 4 0.261213 0.307327 0.272576
345 4 0.267899 0.302764 0.290481
343 2 0.276652 0.283676 0.304054
344 4 0.285405 0.264588 0.317627
378 4 0.302156 0.265655 0.307679
715 2 0.383044 0.259151 0.292829
716 4 0.374137 0.282418 0.294946
542 4 0.362254 0.296989 0.305236
541 2 0.372563 0.300448 0.327751
751 2 0.488571 0.328817 0.32751
753 4 0.480597 0.33013 0.303849
407 4 0.0179431 0.361718 0.324245
366 4 0.0173761 0.352911 0.306662
548 4 0.0130289 0.371774 0.308103
547 2 0.021484 0.392999 0.297945
549 4 0.0299391 0.414224 0.287787
2493 4 0.00088684 0.358673 0.31534
678 4 0.188634 0.332145 0.294919
435 4 0.194838 0.35112 0.296838
433 2 0.203842 0.372319 0.306573
434 4 0.212845 0.393517 0.316307
2538 4 0.48679 0.335346 0.286522
2463 4 0.00250727 0.483327 0.319198
777 4 0.0349563 0.422645 0.305083
775 2 0.0571328 0.433186 0.309801
776 4 0.0793094 0.443728 0.314518
1543 2 0.161645 0.476634 0.330125
1545 4 0.184538 0.473519 0.320565
1436 4 0.201247 0.484934 0.317933
728 4 0.342728 0.435734 0.297879
727 2 0.360733 0.436578 0.315208
729 4 0.378738 0.437421 0.332537
1771 2 0.00393018 0.0078272 0.379401
1772 4 0.00618815 0.0261205 0.396296
2236 2 0.00771881 0.0522177 0.412179
1782 4 0.0969438 0.0161012 0.408206
606 4 0.159667 0.0125668 0.378225
732 4 0.0972552 0.0751618 0.373098
369 4 0.106182 0.0733145 0.391
367 2 0.100601 0.0533573 0.404991
604 2 0.165959 0.0352892 0.386548
1701 4 0.171216 0.076951 0.396994
1699 2 0.192584 0.0837754 0.385948
605 4 0.172252 0.0580116 0.394871
258 4 0.360811 0.0548352 0.343406
424 2 0.345712 0.0484439 0.373236
425 4 0.350018 0.0432742 0.397317
1580 4 0.364993 0.0377238 0.412007
426 4 0.341407 0.0536135 0.349155
1579 2 0.377968 0.0167652 0.416197
317 4 0.0592091 0.115274 0.335878
731 4 0.0748756 0.103272 0.338317
316 2 0.0373574 0.116373 0.347981
318 4 0.0155057 0.117472 0.360084
458 4 0.0172239 0.136747 0.360522
457 2 0.015489 0.158642 0.372471
730 2 0.0860654 0.0892168 0.355708
1700 4 0.213952 0.0905998 0.374902
247 2 0.202411 0.111209 0.338012
248 4 0.212487 0.102795 0.359293
319 2 0.329089 0.14853 0.391712
320 4 0.316535 0.140535 0.411803
684 4 0.298032 0.135806 0.411351
321 4 0.341643 0.156525 0.371621
516 4 0.467559 0.159867 0.388726
575 4 0.456457 0.143537 0.386578
574 2 0.453398 0.124735 0.402773
459 4 0.013754 0.180536 0.384421
2654 4 0.999235 0.19234 0.39191
389 4 0.0649377 0.205955 0.346749
388 2 0.0810669 0.190155 0.336007
706 2 0.338151 0.190814 0.341775
708 4 0.339554 0.172785 0.359042
467 4 0.34987 0.25163 0.359158
514 2 0.477607 0.16828 0.367431
333 4 0.473991 0.188657 0.340117
453 4 0.490621 0.19569 0.348625
515 4 0.487655 0.176693 0.346137
274 2 0.139188 0.321648 0.370852
276 4 0.152524 0.315217 0.391001
275 4 0.125853 0.328079 0.350703
375 4 0.153333 0.296319 0.396145
373 2 0.174999 0.288445 0.405826
374 4 0.196666 0.28057 0.415508
267 4 0.333869 0.273723 0.4068
543 4 0.382872 0.303906 0.350266
466 2 0.351869 0.263087 0.381293
468 4 0.353868 0.274544 0.403427
615 4 0.400761 0.307864 0.358659
613 2 0.406829 0.313988 0.382129
614 4 0.412897 0.320113 0.405599
561 4 0.49036 0.327863 0.370399
752 4 0.496544 0.327504 0.351172
406 2 0.0330316 0.36245 0.34417
408 4 0.04812 0.363181 0.364094
347 4 0.0496853 0.351532 0.379177
346 2 0.043027 0.36231 0.400733
618 4 0.0609647 0.348934 0.363351
617 4 0.106257 0.332636 0.349798
616 2 0.083611 0.340785 0.356574
504 4 0.288803 0.39845 0.405396
502 2 0.309333 0.411282 0.411644
240 4 0.414627 0.415562 0.410351
414 4 0.0769876 0.450771 0.334072
1544 4 0.138752 0.479749 0.339685
413 4 0.119663 0.476672 0.33701
412 2 0.0983254 0.463721 0.335541
500 4 0.126535 0.494187 0.343739
669 4 0.331008 0.442584 0.411856
335 4 0.394894 0.41967 0.408683
334 2 0.371151 0.426309 0.412851
437 4 0.383221 0.457274 0.333899
436 2 0.390696 0.473356 0.351525
438 4 0.398171 0.489437 0.369151
593 4 0.416695 0.489945 0.360648
1780 2 0.0876591 0.000244121 0.425163
1126 2 0.0187347 0.0385151 0.468865
1127 4 0.0219107 0.0523551 0.448285
2237 4 0.021144 0.0614438 0.431148
720 4 0.0256439 0.0717377 0.447637
1128 4 0.0155586 0.024675 0.489445
3111 4 0.0130244 0.00557689 0.49217
368 4 0.0950199 0.0334001 0.418981
724 2 0.324273 0.0547079 0.467746
963 4 0.304352 0.0212995 0.487406
725 4 0.314351 0.0331213 0.475541
432 4 0.323682 0.0204309 0.486723
726 4 0.334195 0.0762945 0.459952
2879 4 0.432084 0.00490296 0.441279
642 4 0.467287 0.0528267 0.445359
2878 2 0.452386 0.0194904 0.44081
2880 4 0.472688 0.0340779 0.44034
640 2 0.458153 0.0756918 0.441007
470 4 0.0140517 0.130209 0.454439
718 2 0.0263656 0.0965754 0.444853
719 4 0.0270874 0.121413 0.44207
939 4 0.10562 0.158635 0.477244
1033 2 0.125213 0.156778 0.455027
1035 4 0.147193 0.145846 0.450275
1034 4 0.103234 0.16771 0.459779
261 4 0.163684 0.142632 0.461079
937 2 0.0894508 0.163537 0.495675
259 2 0.176694 0.162829 0.468006
682 2 0.284109 0.151008 0.425501
1181 4 0.308981 0.128771 0.425992
1180 2 0.3213 0.112828 0.440799
683 4 0.270186 0.16621 0.439651
1182 4 0.333619 0.0968855 0.455606
576 4 0.450338 0.105932 0.418968
641 4 0.449019 0.0985569 0.436656
306 4 0.442898 0.11628 0.434598
304 2 0.439679 0.130125 0.455168
305 4 0.43646 0.14397 0.475738
3158 4 0.428098 0.146114 0.495169
694 2 0.163636 0.209936 0.494073
695 4 0.18261 0.200729 0.480641
260 4 0.189704 0.183026 0.474933
687 4 0.239091 0.226417 0.461423
686 4 0.202073 0.197474 0.478532
685 2 0.220582 0.211945 0.469978
474 4 0.242229 0.23944 0.449198
599 4 0.254016 0.226845 0.451744
411 4 0.251262 0.238941 0.464269
409 2 0.258676 0.242999 0.487801
600 4 0.277563 0.184595 0.439048
598 2 0.26579 0.20572 0.445396
488 4 0.259318 0.243307 0.448956
473 4 0.209227 0.269264 0.426349
472 2 0.225728 0.254352 0.437774
487 2 0.278278 0.256581 0.439497
489 4 0.297239 0.269855 0.430039
265 2 0.326147 0.293872 0.419432
266 4 0.318424 0.314021 0.432064
348 4 0.0363686 0.373088 0.42229
2812 2 0.000921054 0.354167 0.436017
2813 4 0.0199231 0.370079 0.432712
326 4 0.0364787 0.372693 0.442064
325 2 0.0527131 0.372837 0.46108
327 4 0.0689475 0.372982 0.480096
7 3 0.0845269 0.384158 0.48758
10 3 0.115911 0.372387 0.503992
813 4 0.238808 0.333598 0.456534
811 2 0.241163 0.3376 0.481102
383 4 0.0603054 0.448518 0.499146
680 4 0.0307314 0.494378 0.493781
710 4 0.16095 0.429986 0.477287
709 2 0.137672 0.425421 0.485191
711 4 0.114394 0.420856 0.493095
636 4 0.184318 0.468455 0.450906
635 4 0.179398 0.42453 0.474295
634 2 0.181858 0.446493 0.4626
774 4 0.172467 0.424771 0.492592
4 3 0.327698 0.495973 0.451049
668 4 0.323055 0.485945 0.435462
503 4 0.329864 0.424114 0.417891
667 2 0.327032 0.464265 0.423659
336 4 0.347408 0.432947 0.41702
587 4 0.422092 0.441751 0.497774
588 4 0.438257 0.45575 0.45257
586 2 0.430174 0.448751 0.475172
238 2 0.428387 0.433048 0.421756
239 4 0.442147 0.450535 0.43316
1184 4 0.0564491 0.0203911 0.563236
3077 4 0.0543428 0.0194744 0.542921
3076 2 0.0410446 0.017494 0.52184
3078 4 0.0277464 0.0155137 0.500759
1152 4 0.154792 0.0703794 0.530119
1150 2 0.143359 0.0753379 0.551795
342 4 0.160637 0.0516291 0.530922
1151 4 0.131926 0.0802965 0.573472
340 2 0.180982 0.0387253 0.537613
2430 4 0.210711 0.01744 0.528614
341 4 0.201326 0.0258215 0.544303
2428 2 0.235098 0.0216343 0.525025
2429 4 0.259485 0.0258286 0.521437
962 4 0.267013 0.00743663 0.517644
961 2 0.285683 0.0143681 0.502525
841 2 0.391787 0.022699 0.533335
843 4 0.372565 0.014874 0.519389
431 4 0.356306 0.00562291 0.52161
842 4 0.411008 0.0305239 0.54728
430 2 0.339994 0.0130269 0.504167
1217 4 0.421522 0.0133647 0.548859
877 2 0.0374949 0.154516 0.533239
878 4 0.0154391 0.14366 0.537809
938 4 0.0732819 0.168439 0.514106
879 4 0.0595506 0.165371 0.528669
1199 4 3.04886e-05 0.155343 0.543481
3159 4 0.469415 0.135451 0.521244
3157 2 0.448756 0.140783 0.508206
1062 4 0.485544 0.123679 0.523147
1272 4 0.0783228 0.166897 0.532333
1270 2 0.0933059 0.17415 0.55099
1258 2 0.127462 0.223399 0.536564
1260 4 0.150378 0.220782 0.52691
1271 4 0.108289 0.181402 0.569647
696 4 0.144663 0.219143 0.507505
1259 4 0.104547 0.226017 0.546219
1244 4 0.0939158 0.185397 0.582771
797 4 0.196129 0.241434 0.586382
898 2 0.284717 0.234633 0.54257
899 4 0.305457 0.226684 0.554052
857 4 0.316172 0.211767 0.547554
856 2 0.324388 0.193009 0.561899
900 4 0.263976 0.242583 0.531089
858 4 0.332604 0.17425 0.576244
791 4 0.324544 0.228998 0.547643
790 2 0.340319 0.247233 0.554264
410 4 0.266089 0.247058 0.511333
792 4 0.356093 0.265467 0.560886
872 4 0.37543 0.267643 0.563933
1238 4 0.362746 0.279911 0.572581
871 2 0.391966 0.276518 0.54741
1237 2 0.349525 0.29876 0.582332
873 4 0.408502 0.285393 0.530888
9 3 0.086359 0.382371 0.525078
897 4 0.13063 0.385622 0.583292
8 3 0.106152 0.40869 0.506105
6 1 0.0983882 0.386827 0.505743
773 4 0.201643 0.408124 0.529637
1189 2 0.201726 0.40964 0.569452
1190 4 0.211019 0.405545 0.546603
803 4 0.212225 0.391992 0.532302
802 2 0.220872 0.369588 0.52534
804 4 0.229518 0.347184 0.518378
930 4 0.221483 0.40874 0.530229
650 4 0.248367 0.351903 0.521226
812 4 0.243518 0.341602 0.505671
651 4 0.295375 0.338168 0.531343
649 2 0.271871 0.345036 0.526284
805 2 0.319779 0.339846 0.562806
806 4 0.312353 0.344532 0.539395
927 4 0.420849 0.373797 0.510805
925 2 0.421221 0.398426 0.506506
679 2 0.0357931 0.470434 0.4989
382 2 0.0828917 0.438562 0.503136
681 4 0.0408549 0.446489 0.504019
384 4 0.105478 0.428606 0.507125
569 4 0.119646 0.435679 0.521496
568 2 0.134724 0.431137 0.540917
570 4 0.149803 0.426596 0.560339
538 2 0.121196 0.481147 0.518318
539 4 0.118091 0.456356 0.519297
772 2 0.187055 0.416447 0.511114
928 2 0.24283 0.421745 0.530819
929 4 0.264178 0.434749 0.531409
1951 2 0.264829 0.478429 0.52255
1953 4 0.268473 0.454312 0.528053
1001 4 0.412214 0.47468 0.560982
1000 2 0.392023 0.487029 0.55292
1002 4 0.371832 0.499379 0.544859
1330 2 0.448729 0.496302 0.553493
662 4 0.425934 0.464453 0.551275
661 2 0.429654 0.449816 0.531347
663 4 0.433374 0.435179 0.511419
1911 4 0.425569 0.465232 0.57087
1332 4 0.430495 0.480967 0.561078
926 4 0.421594 0.423054 0.502207
2374 2 0.161181 0.0103614 0.62652
2375 4 0.160782 0.0353082 0.624885
1057 2 0.142095 0.060404 0.60657
1058 4 0.141648 0.0415069 0.622937
1059 4 0.142542 0.0793011 0.590203
950 4 0.223277 0.0188913 0.660252
949 2 0.239299 0.0378069 0.656982
951 4 0.25532 0.0567226 0.653712
1031 4 0.264011 0.0742763 0.660192
1030 2 0.285034 0.0701763 0.647292
1032 4 0.306057 0.0660764 0.634393
2400 4 0.34257 0.00592257 0.623968
43 3 0.445407 0.0770429 0.637692
45 3 0.456838 0.0475901 0.658174
41 1 0.452625 0.0699673 0.658579
44 3 0.471802 0.0815251 0.664667
1154 4 0.162867 0.133726 0.596818
1155 4 0.132716 0.095195 0.586474
1153 2 0.147791 0.11446 0.591646
1209 4 0.120248 0.152501 0.637211
1207 2 0.109522 0.151752 0.659784
1221 4 0.168579 0.152224 0.594688
1219 2 0.188389 0.166389 0.600354
1211 4 0.250792 0.16127 0.650254
810 4 0.481197 0.0979422 0.659277
808 2 0.486968 0.112645 0.639894
809 4 0.492739 0.127348 0.620511
3008 4 0.497174 0.112551 0.608937
1245 4 0.114159 0.166581 0.624447
1243 2 0.104037 0.175989 0.603609
1220 4 0.208199 0.180554 0.606019
1210 2 0.23538 0.173998 0.635232
1212 4 0.219969 0.186726 0.62021
796 2 0.205034 0.220265 0.596268
798 4 0.213939 0.199095 0.606155
3123 4 0.489841 0.233223 0.603693
905 4 0.477653 0.246031 0.613605
983 4 0.00204131 0.326575 0.656035
807 4 0.327205 0.335161 0.586217
1239 4 0.336303 0.317609 0.592082
906 4 0.455808 0.282691 0.587536
904 2 0.46673 0.264361 0.600571
953 4 0.456947 0.301308 0.59387
952 2 0.473639 0.319615 0.590495
982 2 0.0253829 0.334896 0.659369
1041 4 0.0635107 0.354738 0.658347
1039 2 0.0634838 0.377808 0.648706
1040 4 0.0634569 0.400878 0.639065
993 4 0.0496875 0.407211 0.624141
984 4 0.0487244 0.343217 0.662702
3263 4 0.067189 0.335663 0.660944
1137 4 0.136277 0.367249 0.590326
1135 2 0.114817 0.354475 0.59154
1136 4 0.0933566 0.341702 0.592753
895 2 0.15203 0.397383 0.588668
1028 4 0.191836 0.389085 0.652489
1027 2 0.188349 0.401437 0.631031
1029 4 0.184861 0.41379 0.609574
896 4 0.17343 0.409143 0.594043
1191 4 0.192432 0.413735 0.5923
1206 4 0.487119 0.408173 0.617101
954 4 0.490332 0.337922 0.58712
3307 2 0.497692 0.372225 0.612476
3308 4 0.495039 0.349351 0.602732
3309 4 0.500345 0.395098 0.62222
991 2 0.03956 0.426141 0.611325
992 4 0.0294325 0.445072 0.598509
1172 4 0.179379 0.427722 0.597278
1160 4 0.199078 0.491443 0.593783
1171 2 0.185268 0.451905 0.599661
1173 4 0.191156 0.476088 0.602044
1187 4 0.186385 0.494212 0.608462
1186 2 0.168597 0.501949 0.62424
1909 2 0.427736 0.456186 0.594079
1268 4 0.459788 0.488598 0.656041
1267 2 0.453155 0.469148 0.641798
1204 2 0.466274 0.421892 0.615536
1910 4 0.429904 0.447141 0.617288
1269 4 0.446522 0.449698 0.627554
1205 4 0.445429 0.435611 0.61397
1284 4 0.102714 0.0585365 0.747546
1282 2 0.118354 0.0745425 0.736393
1201 2 0.204255 0.0455379 0.727546
1203 4 0.205574 0.0652206 0.712182
1226 4 0.189746 0.0763293 0.715155
1148 4 0.208369 0.0832778 0.717632
1202 4 0.202936 0.0258553 0.742909
42 3 0.436122 0.0742926 0.674009
1163 4 0.490803 0.082629 0.667146
1075 2 0.010744 0.120757 0.717104
1077 4 0.0268367 0.139885 0.717656
850 2 0.0661516 0.151402 0.708251
852 4 0.0452626 0.14482 0.720314
864 4 0.0336058 0.145011 0.735596
1214 4 0.0313219 0.158607 0.72128
851 4 0.0870407 0.157984 0.696189
1283 4 0.133993 0.0905486 0.72524
1227 4 0.147077 0.102366 0.716637
909 4 0.101964 0.145599 0.70066
907 2 0.115745 0.127592 0.711196
908 4 0.129526 0.109584 0.721731
1208 4 0.0987962 0.151003 0.682358
1225 2 0.168412 0.0893476 0.715896
1147 2 0.226976 0.0987478 0.723928
1149 4 0.245582 0.114218 0.730224
888 4 0.246988 0.159606 0.669632
829 2 0.320023 0.142953 0.70338
830 4 0.299826 0.157183 0.707222
886 2 0.264999 0.163154 0.686608
831 4 0.340221 0.128723 0.699538
1142 4 0.356728 0.140114 0.702507
1141 2 0.374168 0.155603 0.711513
1026 4 0.407312 0.159524 0.721564
1262 4 0.402819 0.171066 0.736965
3426 4 0.479138 0.0943198 0.678075
1025 4 0.441844 0.123772 0.727046
3424 2 0.467134 0.104598 0.697451
3425 4 0.45513 0.114877 0.716827
3269 4 0.459725 0.122175 0.734434
1024 2 0.424578 0.141648 0.724305
845 4 0.44755 0.106775 0.732605
844 2 0.437691 0.0902907 0.748612
1215 4 0.00139363 0.198273 0.726902
1213 2 0.0163578 0.17844 0.724091
1107 4 0.105657 0.164077 0.695499
1105 2 0.118241 0.182983 0.705958
1106 4 0.130825 0.201889 0.716417
1130 4 0.137857 0.193878 0.73265
1129 2 0.151097 0.206695 0.749551
887 4 0.283011 0.166703 0.703584
978 4 0.297454 0.175628 0.711986
976 2 0.308431 0.190016 0.729239
977 4 0.319407 0.204404 0.746492
916 2 0.330409 0.240571 0.73101
918 4 0.331691 0.216553 0.737842
1143 4 0.391608 0.171093 0.720518
1194 4 0.409517 0.179273 0.720806
1192 2 0.41807 0.193081 0.701796
1193 4 0.426624 0.206888 0.682786
1044 4 0.453756 0.24584 0.749679
3262 2 0.0758307 0.328674 0.683342
893 4 0.0738992 0.316487 0.720598
892 2 0.06585 0.333095 0.737467
3264 4 0.0844723 0.321686 0.70574
779 4 0.0925751 0.310914 0.720344
778 2 0.0997157 0.287667 0.726153
780 4 0.106856 0.264419 0.731961
1065 4 0.252972 0.327197 0.680822
1064 4 0.301075 0.321704 0.693339
1063 2 0.277023 0.324451 0.68708
946 2 0.328981 0.294847 0.714913
948 4 0.313139 0.311243 0.704645
947 4 0.344822 0.278452 0.72518
917 4 0.329127 0.264588 0.724178
1008 4 0.475611 0.278243 0.692224
1006 2 0.466314 0.266776 0.712404
1007 4 0.457017 0.255308 0.732584
1166 4 0.470216 0.255399 0.74671
941 4 0.142314 0.376609 0.710617
1067 4 0.143249 0.380846 0.69156
940 2 0.131755 0.375727 0.733265
1066 2 0.163978 0.38955 0.680619
1068 4 0.184707 0.398255 0.669677
884 4 0.0740836 0.454327 0.737938
1139 4 0.321369 0.466878 0.701573
1138 2 0.325273 0.454896 0.723169
1140 4 0.329178 0.442914 0.744765
1100 4 0.401882 0.439206 0.75256
1230 4 0.389153 0.426723 0.745725
1228 2 0.365034 0.430011 0.751437
2168 4 0.475589 0.488478 0.667014
1099 2 0.417432 0.453054 0.738717
1101 4 0.432982 0.466901 0.724874
3330 4 0.450396 0.468799 0.716139
3328 2 0.466935 0.452054 0.707698
1251 4 0.441884 0.484302 0.723669
3329 4 0.483474 0.43531 0.699256
785 4 0.0109752 0.0712918 0.817959
2390 4 0.141998 0.997978 0.791972
2048 4 0.156992 0.00498001 0.779641
2047 2 0.173886 0.0192476 0.76797
2049 4 0.19078 0.0335151 0.756299
2254 2 0.229204 0.0148073 0.763176
2256 4 0.207172 0.0265818 0.762102
2255 4 0.251235 0.00303286 0.76425
1113 4 0.358479 0.0514147 0.801105
1111 2 0.367282 0.0684545 0.817147
2442 4 0.438343 0.00657284 0.816814
2321 4 0.434778 0.0193613 0.802559
2322 4 0.426824 0.0555482 0.768974
2320 2 0.430801 0.0374548 0.785767
846 4 0.427831 0.0738064 0.76462
980 4 0.420685 0.0162567 0.815346
834 4 0.0168849 0.087383 0.806757
832 2 0.0300611 0.107442 0.799742
862 2 0.04167 0.143765 0.75923
863 4 0.0497341 0.14252 0.782865
833 4 0.0432372 0.127501 0.792727
1125 4 0.0617966 0.134869 0.795007
1123 2 0.0696795 0.142694 0.817408
1255 2 0.244008 0.12554 0.774016
921 4 0.225154 0.135234 0.809938
919 2 0.209386 0.154302 0.81354
840 4 0.238695 0.124155 0.817901
1256 4 0.239704 0.127976 0.798526
1257 4 0.248312 0.123105 0.749507
819 4 0.390683 0.138762 0.825473
1085 4 0.374193 0.147532 0.820127
1084 2 0.359393 0.166799 0.814221
3480 4 0.507901 0.100444 0.830345
3468 4 0.499269 0.157564 0.778562
3268 2 0.472618 0.136825 0.750065
3270 4 0.485511 0.151475 0.765695
1146 4 0.482756 0.167238 0.777318
34 3 0.11657 0.178065 0.815024
1131 4 0.164337 0.219511 0.766451
822 4 0.159791 0.232979 0.781011
1277 4 0.17019 0.21726 0.784624
1276 2 0.183085 0.204955 0.802159
920 4 0.193618 0.17337 0.817141
1278 4 0.19598 0.19265 0.819694
1298 4 0.336819 0.208287 0.754427
1297 2 0.341682 0.207954 0.778951
1299 4 0.346545 0.20762 0.803475
1086 4 0.344592 0.186067 0.808316
50 3 0.397901 0.204874 0.8109
1261 2 0.412722 0.182411 0.756925
46 1 0.420148 0.202738 0.806521
49 3 0.427668 0.22115 0.794568
1043 4 0.434068 0.209296 0.777565
48 3 0.431979 0.200822 0.826389
47 3 0.42361 0.18379 0.793947
1263 4 0.422626 0.193755 0.776885
1145 4 0.439821 0.191518 0.785552
1144 2 0.461288 0.179378 0.781435
1042 2 0.443912 0.227568 0.763622
820 2 0.168504 0.256379 0.782312
821 4 0.177216 0.27978 0.783614
1234 2 0.222316 0.329621 0.79135
1235 4 0.240834 0.326324 0.807824
1165 2 0.488557 0.260046 0.763055
3226 2 0.999425 0.393151 0.827153
894 4 0.0578008 0.349703 0.754335
3275 4 0.0034551 0.347514 0.783873
3276 4 0.0463488 0.363012 0.763363
3274 2 0.024902 0.355263 0.773618
816 4 0.0655374 0.364962 0.762404
848 4 0.0408515 0.40924 0.8296
847 2 0.0471954 0.4177 0.806942
3228 4 0.0222018 0.403183 0.82955
814 2 0.089033 0.371429 0.768
942 4 0.121196 0.374846 0.755912
815 4 0.112529 0.377896 0.773596
1080 4 0.132028 0.378854 0.771564
1078 2 0.149061 0.38463 0.788933
1079 4 0.166094 0.390406 0.806302