ITEM: TIMESTEP
2510000
ITEM: NUMBER OF ATOMS
4590
ITEM: BOX BOUNDS pp pp pp
-9.9985700000000008e+00 9.9985700000000008e+00
-9.9985700000000008e+00 9.9985700000000008e+00
-9.9985700000000008e+00 9.9985700000000008e+00
ITEM: ATOMS id type xs ys zs
463 2 0.0683758 0.0826988 0.0546301
590 4 0.0388532 0.0827843 0.0747601
465 4 0.0867167 0.06962 0.0437796
701 4 0.100841 0.0672753 0.0297812
700 2 0.122634 0.0560912 0.0247649
702 4 0.144427 0.0449071 0.0197487
566 4 0.161016 0.056516 0.0200053
565 2 0.179826 0.0578869 0.00358942
746 4 0.497967 0.0530993 0.0150423
2467 2 0.493299 0.0298187 0.0444134
2469 4 0.484209 0.0456525 0.02733
2468 4 0.502388 0.0139849 0.0614969
1826 4 0.491611 0.000874855 0.069927
464 4 0.0500348 0.0957776 0.0654806
589 2 0.0168688 0.0932667 0.0804157
558 4 0.332915 0.139601 0.053223
556 2 0.341341 0.122311 0.0691989
769 2 0.462815 0.165763 0.0714611
771 4 0.463317 0.15935 0.0472993
553 2 0.0787233 0.228616 0.00834448
555 4 0.0884077 0.212332 0.0246608
835 2 0.123492 0.195084 0.0173801
836 4 0.100456 0.195317 0.0270981
837 4 0.146529 0.194852 0.00766207
738 4 0.163834 0.187366 0.0772829
915 4 0.163256 0.20406 0.0112073
865 2 0.354853 0.16937 0.0015207
573 4 0.349608 0.242578 0.0583348
666 4 0.352724 0.225037 0.0675783
461 4 0.346634 0.24036 0.0774205
664 2 0.348428 0.207466 0.0503159
665 4 0.344133 0.189895 0.0330535
867 4 0.344803 0.188329 0.0143546
1070 4 0.45016 0.221714 0.052977
1069 2 0.442352 0.243256 0.062987
2808 4 0.0261853 0.32547 0.0269282
2806 2 0.00519632 0.313111 0.0325763
294 4 0.0924648 0.306233 0.0723485
292 2 0.106654 0.324637 0.0631222
356 4 0.315393 0.296729 0.0384535
572 4 0.33171 0.286751 0.0431965
355 2 0.312306 0.318837 0.0271887
571 2 0.340659 0.264664 0.0507656
1071 4 0.434545 0.264797 0.072997
324 4 0.434753 0.28484 0.0710549
322 2 0.450878 0.303415 0.0665697
323 4 0.467003 0.321991 0.0620844
647 4 0.0188999 0.368095 0.0758293
620 4 0.00584719 0.371471 0.0611865
293 4 0.120844 0.343041 0.0538958
507 4 0.135769 0.335009 0.0419036
505 2 0.157354 0.340957 0.0307725
481 2 0.212633 0.375213 0.0193105
482 4 0.230301 0.392683 0.022109
483 4 0.194966 0.357743 0.0165119
609 4 0.242499 0.405626 0.0327688
536 4 0.200826 0.396929 0.0733352
535 2 0.211042 0.374662 0.0783373
506 4 0.178938 0.346904 0.0196414
537 4 0.221258 0.352396 0.0833394
626 4 0.181609 0.403012 0.0798088
357 4 0.309219 0.340945 0.015924
902 4 0.307941 0.358529 0.00542329
957 4 0.371178 0.384807 0.0289492
955 2 0.376081 0.386294 0.00447634
672 4 0.455382 0.337754 0.0595457
280 2 0.489891 0.410873 0.0525873
281 4 0.493325 0.393517 0.0702552
671 4 0.486605 0.374798 0.0719378
670 2 0.470993 0.356276 0.0657418
551 4 0.0350233 0.440586 0.0651754
550 2 0.0567168 0.452862 0.0671437
552 4 0.0784102 0.465137 0.069112
1787 4 0.0971875 0.466492 0.0646347
1786 2 0.104042 0.463776 0.0407431
1788 4 0.110897 0.461059 0.0168515
246 4 0.243494 0.478975 0.0326237
244 2 0.225818 0.470305 0.0480378
245 4 0.208142 0.461636 0.0634518
627 4 0.197602 0.45024 0.0760097
625 2 0.189605 0.426626 0.0779092
607 2 0.261247 0.421928 0.0299539
272 4 0.260398 0.479974 0.0219326
1778 4 0.254942 0.494072 0.0330326
608 4 0.279995 0.43823 0.0271389
252 4 0.299162 0.439515 0.0342139
250 2 0.315054 0.457908 0.0283536
251 4 0.330947 0.4763 0.0224932
523 2 0.382449 0.4678 0.0698615
524 4 0.366425 0.452575 0.0815496
2289 4 0.340794 0.468916 0.00686536
525 4 0.398473 0.483026 0.0581734
282 4 0.486457 0.428229 0.0349193
226 2 0.476222 0.465921 0.0505811
227 4 0.479348 0.441292 0.047616
228 4 0.473095 0.490551 0.0535463
563 4 0.456711 0.501243 0.0547505
16 1 0.0638995 0.0543183 0.15608
20 3 0.0700787 0.0717185 0.14275
1806 4 0.0514298 0.0314922 0.127847
18 3 0.0627599 0.0347945 0.143593
19 3 0.0432943 0.0587194 0.165799
1804 2 0.0438833 0.0108191 0.115979
450 4 0.160169 0.0572154 0.16108
1505 4 0.167475 0.0399343 0.168127
448 2 0.165933 0.0806572 0.154566
654 4 0.314898 0.0150861 0.167349
1661 4 0.325041 0.00600409 0.151052
484 2 0.361563 0.030746 0.132185
295 2 0.361188 0.0816255 0.109758
297 4 0.361873 0.0579316 0.117714
485 4 0.372645 0.0531135 0.133621
486 4 0.350481 0.00837844 0.130749
579 4 0.0953478 0.117854 0.105529
237 4 0.141615 0.148067 0.125512
578 4 0.129109 0.154034 0.112729
577 2 0.112229 0.135944 0.109129
235 2 0.160688 0.133385 0.132281
476 4 0.129776 0.162628 0.130705
737 4 0.143413 0.166227 0.117741
236 4 0.179762 0.118703 0.139051
693 4 0.190352 0.109451 0.152625
449 4 0.171697 0.104099 0.148052
691 2 0.214756 0.113986 0.149614
692 4 0.239159 0.118522 0.146603
582 4 0.249323 0.100687 0.148077
580 2 0.269657 0.113532 0.15491
581 4 0.289992 0.126378 0.161743
30 3 0.285849 0.145212 0.157707
557 4 0.349766 0.10502 0.0851748
296 4 0.360503 0.105319 0.101801
475 2 0.121694 0.171527 0.152629
736 2 0.153624 0.176796 0.0975121
29 3 0.311729 0.172027 0.152336
283 2 0.330734 0.202033 0.142214
354 4 0.322474 0.241677 0.13817
285 4 0.330715 0.17773 0.148089
284 4 0.330752 0.226337 0.136338
352 2 0.303326 0.251277 0.151069
462 4 0.335137 0.23975 0.126084
460 2 0.340886 0.240055 0.101752
255 4 0.339276 0.240379 0.14304
253 2 0.358023 0.246173 0.158538
770 4 0.462314 0.172177 0.0956229
1014 4 0.458862 0.179355 0.114303
1013 4 0.491408 0.214497 0.128671
1012 2 0.475135 0.196926 0.121487
749 4 0.0610204 0.313113 0.168562
756 4 0.254313 0.305595 0.126967
353 4 0.284179 0.260878 0.163968
754 2 0.262927 0.290715 0.145121
755 4 0.27154 0.275835 0.163275
612 4 0.25608 0.325065 0.132618
278 4 0.265211 0.257278 0.165799
646 2 0.0414696 0.360875 0.083808
456 4 0.0788093 0.341309 0.0905354
648 4 0.0640393 0.353655 0.0917867
455 4 0.0971928 0.349618 0.136293
454 2 0.088001 0.345463 0.113414
611 4 0.238656 0.347379 0.0913972
610 2 0.247368 0.336222 0.112008
309 4 0.320893 0.326738 0.153554
387 4 0.333567 0.402421 0.151615
741 4 0.401983 0.366674 0.103907
739 2 0.397328 0.371251 0.128043
740 4 0.392673 0.375829 0.152179
15 3 0.381811 0.36563 0.165074
385 2 0.35625 0.393558 0.157281
386 4 0.378933 0.384694 0.162947
493 2 0.404292 0.415603 0.160986
495 4 0.396692 0.391885 0.1632
2651 4 0.500795 0.381598 0.0841978
1466 4 0.0280564 0.501387 0.0858809
1465 2 0.0127807 0.481616 0.0868548
242 4 0.0910763 0.472634 0.0824113
241 2 0.107919 0.464959 0.0992219
1438 2 0.160652 0.474752 0.126781
243 4 0.124762 0.457285 0.116032
1440 4 0.135722 0.473278 0.125566
1439 4 0.185583 0.476227 0.127996
637 2 0.216026 0.468605 0.139603
638 4 0.237915 0.479428 0.14498
639 4 0.194137 0.457782 0.134225
767 4 0.255953 0.476872 0.151729
303 4 0.311207 0.462605 0.123688
766 2 0.274382 0.47297 0.135288
768 4 0.292812 0.469068 0.118847
301 2 0.318988 0.440932 0.133431
302 4 0.326769 0.419259 0.143174
494 4 0.411892 0.43932 0.158772
17 3 0.0795431 0.0515978 0.172724
380 4 0.0252919 0.0717877 0.169874
673 2 0.124001 0.0494478 0.168473
674 4 0.14833 0.0437028 0.167913
675 4 0.0996733 0.0551929 0.169034
1504 2 0.175193 0.024599 0.186304
1506 4 0.182911 0.00926371 0.204482
652 2 0.323316 0.0368034 0.176442
653 4 0.331733 0.0585207 0.185535
22 3 0.407593 0.00799805 0.186748
21 1 0.410448 0.0164387 0.207955
23 3 0.392119 0.0296191 0.213313
24 3 0.412137 0.998767 0.222898
757 2 0.46224 0.0523877 0.197616
25 3 0.429462 0.0289598 0.208548
759 4 0.447144 0.0357944 0.208658
350 4 0.436282 0.0379293 0.224383
758 4 0.477337 0.0689811 0.186574
349 2 0.443854 0.0315874 0.247353
379 2 0.0235732 0.090954 0.185839
512 4 0.0386977 0.120071 0.201289
381 4 0.0218544 0.11012 0.201804
511 2 0.0555058 0.132475 0.21503
513 4 0.0723139 0.144878 0.228771
339 4 0.0909858 0.142726 0.222385
337 2 0.102559 0.159574 0.207985
26 1 0.300033 0.159673 0.168115
27 3 0.315038 0.147739 0.180827
521 4 0.484843 0.14643 0.233106
311 4 0.442098 0.167157 0.221286
477 4 0.113611 0.180427 0.174553
363 4 0.104014 0.192017 0.186508
338 4 0.114131 0.176422 0.193584
362 4 0.107779 0.238313 0.205035
361 2 0.105897 0.215165 0.195771
372 4 0.123816 0.241437 0.21738
370 2 0.130989 0.248362 0.240309
279 4 0.240692 0.243587 0.207176
277 2 0.252951 0.250433 0.186487
28 3 0.28806 0.173882 0.182013
630 4 0.381715 0.239088 0.188494
628 2 0.386527 0.214958 0.192937
629 4 0.391339 0.190827 0.19738
312 4 0.402502 0.196862 0.214179
310 2 0.4223 0.182009 0.217732
750 4 0.0382177 0.282279 0.200656
395 4 0.033171 0.287055 0.219378
748 2 0.049619 0.297696 0.184609
394 2 0.0272011 0.282988 0.243316
300 4 0.143557 0.285748 0.204638
298 2 0.13133 0.304494 0.215786
299 4 0.119103 0.323241 0.226933
734 4 0.107449 0.325962 0.242486
401 4 0.2398 0.31028 0.237318
307 2 0.316432 0.328388 0.178101
308 4 0.31197 0.330038 0.202648
496 2 0.276785 0.330682 0.225526
498 4 0.255328 0.323355 0.236067
254 4 0.376769 0.251966 0.174035
765 4 0.390411 0.256928 0.18716
763 2 0.412775 0.267789 0.189826
764 4 0.435138 0.278649 0.192493
528 4 0.49736 0.323891 0.16583
624 4 0.476846 0.324409 0.168743
623 4 0.438832 0.295505 0.183581
622 2 0.457839 0.309957 0.176162
262 2 0.0361211 0.394256 0.223216
264 4 0.0187689 0.411056 0.229683
2618 4 0.0187909 0.415566 0.249303
263 4 0.0534733 0.377456 0.216748
602 4 0.0690398 0.364775 0.217342
601 2 0.0898779 0.352673 0.224011
603 4 0.110716 0.34057 0.230681
290 4 0.17554 0.360461 0.211967
289 2 0.170767 0.384126 0.218477
291 4 0.165994 0.40779 0.224987
497 4 0.298241 0.338009 0.214984
14 3 0.409603 0.386355 0.179762
11 1 0.396743 0.367195 0.182198
13 3 0.385495 0.367731 0.202486
12 3 0.410606 0.348841 0.181864
416 4 0.174843 0.42621 0.221625
415 2 0.18155 0.44969 0.21625
1430 4 0.197779 0.488615 0.20059
417 4 0.188257 0.47317 0.210875
660 4 0.41655 0.451382 0.17454
658 2 0.427385 0.473893 0.173542
659 4 0.43822 0.496405 0.172544
595 2 0.475741 0.491034 0.194112
597 4 0.496954 0.483195 0.204777
1799 4 0.015065 0.0209138 0.309218
233 4 0.013777 0.0346918 0.295556
1402 2 0.053609 0.0390825 0.312858
1403 4 0.0309247 0.0318748 0.3052
1404 4 0.0762932 0.0462901 0.320517
1798 2 0.00606277 0.00996461 0.329816
633 4 0.373745 0.0452827 0.296988
631 2 0.359894 0.0601226 0.28239
257 4 0.381752 0.0493697 0.314063
698 4 0.371371 0.0330163 0.311601
697 2 0.367376 0.00952241 0.319168
632 4 0.346044 0.0749625 0.267791
744 4 0.459051 0.0288613 0.288524
742 2 0.474111 0.0328419 0.308082
351 4 0.451426 0.0252455 0.270323
743 4 0.489171 0.0368225 0.32764
397 2 0.0716464 0.126831 0.330703
390 4 0.0766489 0.16237 0.318493
398 4 0.0859817 0.146454 0.324822
393 4 0.0885193 0.152942 0.306377
545 4 0.137199 0.155133 0.271456
392 4 0.12394 0.139977 0.273544
391 2 0.10623 0.146459 0.28996
444 4 0.0160046 0.238338 0.310472
388 2 0.0645165 0.18357 0.31315
389 4 0.0523842 0.20477 0.307807
544 2 0.156654 0.169228 0.278385
723 4 0.216533 0.21157 0.250361
721 2 0.20564 0.195445 0.266061
546 4 0.17611 0.183322 0.285314
403 2 0.200936 0.17035 0.316217
405 4 0.185621 0.170319 0.296453
722 4 0.194747 0.179319 0.281761
378 4 0.307705 0.248084 0.327122
420 4 0.393096 0.233738 0.270843
717 4 0.375384 0.236309 0.278611
418 2 0.416279 0.226164 0.276352
331 2 0.455241 0.207392 0.312078
332 4 0.455468 0.207405 0.287075
419 4 0.439462 0.218589 0.28186
760 2 0.477265 0.223018 0.264048
762 4 0.453998 0.215748 0.269616
364 2 0.0126794 0.315386 0.286756
442 2 0.0124277 0.258766 0.296504
396 4 0.0212313 0.278921 0.267253
443 4 0.00885071 0.279193 0.282536
365 4 0.0125371 0.295319 0.271841
371 4 0.138162 0.255287 0.263239
677 4 0.140802 0.31877 0.2919
676 2 0.163987 0.318509 0.301257
735 4 0.120053 0.321999 0.290716
733 2 0.113751 0.323981 0.266601
510 4 0.246004 0.302806 0.301434
508 2 0.225207 0.314564 0.308809
509 4 0.20441 0.326323 0.316185
678 4 0.187173 0.318247 0.310615
435 4 0.188253 0.330231 0.32579
400 2 0.246025 0.303137 0.260457
402 4 0.25225 0.295995 0.283596
345 4 0.261489 0.291179 0.299885
343 2 0.279886 0.2756 0.30652
344 4 0.298283 0.26002 0.313154
715 2 0.376896 0.261113 0.275849
716 4 0.378409 0.285918 0.273087
542 4 0.374318 0.301772 0.284751
541 2 0.385652 0.311108 0.304988
543 4 0.396986 0.320445 0.325226
751 2 0.480518 0.325285 0.325338
2538 4 0.491527 0.325196 0.282999
753 4 0.479596 0.324989 0.300353
366 4 0.0128218 0.335454 0.301671
407 4 0.00874968 0.338296 0.32013
548 4 0.0133125 0.353599 0.30819
547 2 0.0216227 0.37716 0.30918
549 4 0.0299328 0.400722 0.310169
728 4 0.37038 0.376778 0.299135
727 2 0.364066 0.39618 0.313588
729 4 0.357752 0.415581 0.328041
2536 2 0.499399 0.347022 0.27368
2860 2 0.482716 0.398634 0.282214
2861 4 0.468476 0.413083 0.29683
2862 4 0.496955 0.384184 0.267597
777 4 0.0412026 0.416892 0.314283
775 2 0.0612694 0.42807 0.324159
2617 2 0.00416368 0.435629 0.252252
1544 4 0.145797 0.47606 0.328716
500 4 0.133413 0.490434 0.333564
1543 2 0.1693 0.470346 0.322382
1435 2 0.202624 0.498713 0.287934
1545 4 0.192803 0.464632 0.316047
1436 4 0.199063 0.481404 0.305622
437 4 0.358694 0.434764 0.323706
436 2 0.364408 0.456532 0.3346
1771 2 0.00203966 0.0197977 0.385717
1772 4 0.00769092 0.0382684 0.401594
2238 4 0.0189264 0.0533186 0.39413
732 4 0.0796863 0.0778261 0.392397
369 4 0.0882161 0.0756349 0.410304
605 4 0.164578 0.0578077 0.389866
604 2 0.174331 0.0399707 0.404423
1701 4 0.181981 0.0645616 0.380102
256 2 0.383035 0.0656106 0.33303
258 4 0.384319 0.0818514 0.351998
426 4 0.391419 0.0731445 0.369071
424 2 0.394821 0.0581117 0.388759
425 4 0.398223 0.043079 0.408447
479 4 0.492409 0.0513185 0.340064
478 2 0.483427 0.0600507 0.361703
480 4 0.474445 0.0687828 0.383343
318 4 0.999601 0.13206 0.357233
399 4 0.057311 0.107207 0.336584
317 4 0.0443187 0.110581 0.350929
731 4 0.0564509 0.0950673 0.35161
730 2 0.0680686 0.0864467 0.372003
316 2 0.0219601 0.121321 0.354081
1699 2 0.19973 0.081779 0.376398
247 2 0.212161 0.135086 0.363331
248 4 0.210654 0.116328 0.379794
1700 4 0.217478 0.0989964 0.372695
249 4 0.213669 0.153844 0.346868
600 4 0.246802 0.163592 0.413922
319 2 0.319184 0.115138 0.383449
320 4 0.304388 0.105613 0.401213
706 2 0.333301 0.165413 0.34874
321 4 0.333979 0.124664 0.365686
684 4 0.290977 0.118126 0.405329
682 2 0.271722 0.133965 0.403447
683 4 0.252467 0.149804 0.401565
708 4 0.337061 0.142045 0.356801
516 4 0.467048 0.157024 0.364075
575 4 0.467296 0.140372 0.374855
574 2 0.464711 0.126586 0.395554
576 4 0.462126 0.1128 0.416253
404 4 0.21625 0.170381 0.335982
376 2 0.316244 0.227172 0.337843
377 4 0.324782 0.206259 0.348564
707 4 0.329541 0.188782 0.34068
466 2 0.380802 0.236304 0.412606
467 4 0.401364 0.225556 0.403285
333 4 0.455013 0.207379 0.337081
514 2 0.462291 0.181188 0.359757
515 4 0.457534 0.205352 0.355439
453 4 0.460479 0.223223 0.346983
451 2 0.483989 0.230888 0.35069
406 2 0.023452 0.329505 0.338344
408 4 0.0381543 0.320713 0.356557
275 4 0.150165 0.310617 0.363321
617 4 0.136028 0.32089 0.355634
616 2 0.115792 0.334192 0.36186
274 2 0.171018 0.305386 0.376087
276 4 0.191871 0.300155 0.388852
473 4 0.237726 0.257947 0.408216
374 4 0.243198 0.275603 0.400125
373 2 0.219576 0.278227 0.39236
375 4 0.195954 0.280851 0.384595
615 4 0.413592 0.324595 0.336312
267 4 0.361091 0.265405 0.414812
265 2 0.346381 0.284994 0.409806
266 4 0.33167 0.304583 0.4048
613 2 0.425643 0.333038 0.356528
752 4 0.481439 0.32558 0.350323
347 4 0.0795288 0.350984 0.378378
346 2 0.0677792 0.346884 0.400065
618 4 0.0955564 0.347493 0.368086
433 2 0.189589 0.347996 0.343334
434 4 0.190924 0.365761 0.360878
335 4 0.369685 0.400681 0.383341
240 4 0.384025 0.405699 0.395944
334 2 0.348476 0.410779 0.391908
614 4 0.437694 0.341481 0.376743
561 4 0.495933 0.329851 0.364479
776 4 0.0813362 0.439248 0.334036
414 4 0.0864898 0.451242 0.34947
412 2 0.108612 0.462134 0.345331
413 4 0.130735 0.473026 0.341191
668 4 0.306844 0.486021 0.410055
503 4 0.312219 0.428209 0.410973
336 4 0.327268 0.420877 0.400475
669 4 0.323021 0.439953 0.399248
667 2 0.314932 0.462987 0.404651
238 2 0.398027 0.418257 0.41242
438 4 0.370122 0.4783 0.345494
594 4 0.424709 0.49293 0.36571
3990 4 0.495268 0.496021 0.341675
2236 2 0.0221846 0.061321 0.417593
1781 4 0.0731505 0.019117 0.487587
1126 2 0.00209449 0.0430587 0.467134
1127 4 0.0171676 0.0585689 0.454588
2237 4 0.0254428 0.0693234 0.441056
720 4 0.0362436 0.0622798 0.456797
718 2 0.050359 0.0819133 0.463158
1780 2 0.0851054 0.019206 0.465626
1523 4 0.0597518 0.0035104 0.481565
367 2 0.0956995 0.0551974 0.422612
368 4 0.103183 0.0347598 0.43492
1782 4 0.0970604 0.0192951 0.443666
606 4 0.184083 0.0221338 0.41898
341 4 0.173996 0.0144732 0.49595
724 2 0.292961 0.0488061 0.483146
726 4 0.288739 0.0693226 0.469492
725 4 0.297182 0.0282896 0.4968
432 4 0.301094 0.0092617 0.496055
961 2 0.264279 0.999522 0.495228
1580 4 0.390014 0.0302006 0.421716
1579 2 0.37664 0.00923346 0.424302
642 4 0.449718 0.0654845 0.448918
2878 2 0.433374 0.0593202 0.481822
2880 4 0.441454 0.0527111 0.459102
640 2 0.462328 0.084348 0.438414
470 4 0.00390125 0.141449 0.48174
719 4 0.0644744 0.101547 0.469519
939 4 0.0871795 0.139602 0.493331
1033 2 0.114423 0.135639 0.47491
1035 4 0.138368 0.142678 0.473403
261 4 0.151843 0.153971 0.462486
1034 4 0.0904781 0.128599 0.476418
1182 4 0.292012 0.0874224 0.464559
1180 2 0.296035 0.0983925 0.442453
1181 4 0.300059 0.109363 0.420348
641 4 0.474939 0.103211 0.42791
306 4 0.465434 0.118679 0.434656
304 2 0.470951 0.136864 0.450906
3158 4 0.467284 0.15794 0.484521
305 4 0.476467 0.155049 0.467156
259 2 0.158619 0.177923 0.464843
694 2 0.145084 0.22954 0.482479
696 4 0.131174 0.23932 0.50081
695 4 0.158995 0.21976 0.464147
260 4 0.165395 0.201876 0.467199
472 2 0.243178 0.238386 0.422804
599 4 0.236948 0.203558 0.442319
687 4 0.224969 0.207824 0.457135
686 4 0.177057 0.217141 0.468013
685 2 0.201013 0.212482 0.462574
411 4 0.242977 0.21565 0.456108
598 2 0.241875 0.183575 0.428121
474 4 0.248631 0.218825 0.437392
409 2 0.258778 0.221697 0.474518
488 4 0.267964 0.218468 0.433327
489 4 0.317871 0.22146 0.432326
487 2 0.292918 0.219964 0.432827
410 4 0.27458 0.227744 0.492928
468 4 0.36024 0.247051 0.421927
2812 2 0.0202733 0.330221 0.437932
813 4 0.230523 0.301874 0.496564
585 4 0.496175 0.272121 0.498694
348 4 0.0560296 0.342784 0.421752
2813 4 0.0444049 0.336629 0.436595
326 4 0.0493099 0.355293 0.435317
325 2 0.0642052 0.360285 0.454769
327 4 0.0791004 0.365276 0.474222
10 3 0.116742 0.352062 0.48349
7 3 0.0910938 0.379171 0.483879
6 1 0.109429 0.370479 0.494714
711 4 0.139197 0.402127 0.494892
8 3 0.12614 0.386568 0.495268
709 2 0.16098 0.402059 0.482615
774 4 0.197761 0.403767 0.482263
710 4 0.182762 0.401991 0.470339
502 2 0.299287 0.414384 0.427307
504 4 0.286355 0.400558 0.44364
1382 4 0.0556196 0.497405 0.426918
1381 2 0.049022 0.486115 0.44823
679 2 0.0674484 0.463688 0.500708
680 4 0.0526118 0.478225 0.48679
1383 4 0.0424244 0.474826 0.469541
384 4 0.13689 0.422188 0.498052
635 4 0.189373 0.420161 0.475161
636 4 0.20456 0.452985 0.440627
634 2 0.196966 0.436573 0.457894
4 3 0.310669 0.49896 0.424673
587 4 0.406941 0.427457 0.496067
588 4 0.409318 0.439418 0.44757
239 4 0.41203 0.430814 0.428895
586 2 0.40813 0.433437 0.471819
1184 4 0.00711179 0.0238576 0.551607
1183 2 0.0195631 0.00559553 0.563297
1150 2 0.152771 0.0665207 0.549288
342 4 0.139625 0.0468048 0.512504
1152 4 0.143121 0.0599566 0.527176
340 2 0.15681 0.030639 0.504227
1151 4 0.162422 0.0730848 0.571401
2430 4 0.191018 0.00773844 0.504959
430 2 0.32363 0.00382252 0.505422
963 4 0.282917 0.01608 0.497137
841 2 0.366681 0.022268 0.545666
842 4 0.37814 0.0368569 0.56243
1216 2 0.411362 0.0124197 0.574904
1217 4 0.393468 0.0297601 0.572832
843 4 0.355223 0.00767921 0.528902
2879 4 0.425293 0.0659294 0.504542
3009 4 0.480428 0.0622812 0.570738
879 4 0.0488288 0.150927 0.546318
877 2 0.0279629 0.147252 0.559596
878 4 0.00709693 0.143577 0.572873
938 4 0.0602663 0.14089 0.535459
1272 4 0.0663673 0.15776 0.543239
937 2 0.0737229 0.140246 0.514395
1155 4 0.16122 0.0873219 0.583638
3159 4 0.480877 0.131761 0.524902
3157 2 0.474081 0.144851 0.504711
1062 4 0.491929 0.116068 0.527468
1270 2 0.0729445 0.177195 0.557529
1271 4 0.0795217 0.19663 0.571819
1258 2 0.125207 0.223212 0.535593
1259 4 0.12604 0.20416 0.551764
1260 4 0.124375 0.242264 0.519422
898 2 0.296169 0.214129 0.521605
899 4 0.310216 0.196281 0.532061
900 4 0.282123 0.231978 0.511149
857 4 0.31951 0.189418 0.548317
856 2 0.315982 0.176509 0.569438
791 4 0.328371 0.202566 0.536353
790 2 0.34735 0.217188 0.543506
792 4 0.366329 0.23181 0.550658
872 4 0.377559 0.246289 0.544503
1238 4 0.37219 0.244781 0.563944
811 2 0.245184 0.31514 0.511869
650 4 0.257508 0.326328 0.546159
812 4 0.259846 0.328406 0.527174
649 2 0.268749 0.309833 0.561217
651 4 0.279991 0.293339 0.576275
871 2 0.380255 0.259478 0.523433
873 4 0.382951 0.272668 0.502363
1237 2 0.35894 0.26057 0.578097
1135 2 0.111494 0.397933 0.571929
897 4 0.143581 0.39555 0.572929
1136 4 0.0929449 0.399069 0.555201
9 3 0.103311 0.364666 0.516329
773 4 0.233722 0.400922 0.516895
1189 2 0.221563 0.409139 0.557665
895 2 0.167202 0.403588 0.574549
1190 4 0.23364 0.406741 0.535903
803 4 0.246043 0.392473 0.529488
802 2 0.251026 0.368242 0.533125
930 4 0.24822 0.411395 0.523739
772 2 0.215741 0.402344 0.499579
896 4 0.190823 0.411626 0.57617
1191 4 0.209487 0.411537 0.579427
804 4 0.256008 0.344011 0.536763
926 4 0.413678 0.414436 0.509676
925 2 0.424964 0.392158 0.508448
927 4 0.43625 0.36988 0.50722
681 4 0.082285 0.44915 0.514627
539 4 0.0755706 0.498602 0.506916
383 4 0.0938265 0.433894 0.520617
568 2 0.164457 0.453949 0.505634
382 2 0.115358 0.428041 0.509335
569 4 0.151491 0.432582 0.506368
570 4 0.177422 0.475315 0.5049
1159 2 0.17921 0.490325 0.5736
928 2 0.266689 0.427514 0.528665
929 4 0.285157 0.443633 0.533592
1951 2 0.30185 0.472733 0.522668
1953 4 0.301394 0.447809 0.524616
1000 2 0.406179 0.49169 0.546787
663 4 0.42442 0.429623 0.50453
1001 4 0.423964 0.474523 0.550556
661 2 0.429894 0.446062 0.522557
662 4 0.435369 0.462501 0.540584
1911 4 0.433131 0.459242 0.559066
1332 4 0.443 0.475438 0.553329
1330 2 0.460957 0.488094 0.54139
1909 2 0.433362 0.448593 0.581688
1059 4 0.172014 0.0728517 0.58902
1058 4 0.16952 0.0261622 0.606757
1057 2 0.170767 0.0495069 0.597888
2375 4 0.169175 0.0100758 0.595163
949 2 0.277616 0.0196551 0.645431
951 4 0.288502 0.0420045 0.642756
1031 4 0.306622 0.0502055 0.648459
1030 2 0.313497 0.0686709 0.663851
950 4 0.266729 0.997306 0.648106
3007 2 0.494871 0.072108 0.588627
43 3 0.427312 0.0842047 0.645569
1153 2 0.163518 0.107044 0.598834
1154 4 0.165817 0.126766 0.614031
1221 4 0.179724 0.14012 0.608433
1219 2 0.190655 0.15835 0.621599
808 2 0.48777 0.0931915 0.641882
810 4 0.476696 0.0940828 0.664282
1244 4 0.0694454 0.200505 0.589845
1245 4 0.0866641 0.19326 0.636232
1243 2 0.0780547 0.196882 0.613039
1209 4 0.0972134 0.184807 0.651839
1210 2 0.240106 0.176866 0.633049
1212 4 0.217391 0.178129 0.622676
1220 4 0.201586 0.176581 0.634765
797 4 0.189868 0.232635 0.59774
796 2 0.195655 0.21106 0.608973
798 4 0.201442 0.189484 0.620206
858 4 0.312454 0.163601 0.590559
1211 4 0.262821 0.175604 0.643423
888 4 0.268051 0.169301 0.662802
1193 4 0.40406 0.222815 0.66584
3121 2 0.475855 0.230449 0.6406
3122 4 0.47594 0.209977 0.654955
3357 4 0.470216 0.191508 0.659443
3123 4 0.475769 0.250922 0.626246
983 4 0.0189936 0.286401 0.631319
982 2 0.0399537 0.299514 0.635049
984 4 0.0609138 0.312627 0.638779
3263 4 0.0588426 0.315312 0.657762
1041 4 0.0674595 0.329207 0.646515
806 4 0.282042 0.27922 0.590552
805 2 0.306144 0.277684 0.597023
807 4 0.330247 0.276147 0.603494
1239 4 0.34569 0.276359 0.592251
906 4 0.457775 0.294088 0.597365
905 4 0.483759 0.268373 0.631486
904 2 0.470767 0.28123 0.614426
953 4 0.45853 0.31486 0.596869
1039 2 0.0646478 0.349951 0.632842
1040 4 0.0618361 0.370696 0.61917
993 4 0.0691296 0.390303 0.615154
991 2 0.0523494 0.407758 0.608916
1137 4 0.130042 0.396797 0.588657
1028 4 0.196286 0.400487 0.662863
1027 2 0.217964 0.395998 0.651239
1029 4 0.239641 0.391508 0.639615
952 2 0.476422 0.332326 0.596843
954 4 0.494314 0.349792 0.596817
3309 4 0.491427 0.412842 0.617515
3307 2 0.497321 0.389967 0.609319
992 4 0.0355692 0.425213 0.602677
1172 4 0.198398 0.419924 0.592657
1160 4 0.187174 0.475017 0.591696
1171 2 0.20063 0.444472 0.596852
1173 4 0.202862 0.46902 0.601048
1187 4 0.189119 0.477782 0.611499
1186 2 0.188558 0.48015 0.636384
1188 4 0.187997 0.482519 0.661269
1268 4 0.421248 0.48419 0.649941
1267 2 0.42235 0.464441 0.634647
1206 4 0.483956 0.419497 0.634061
2168 4 0.434215 0.495997 0.640861
1204 2 0.463881 0.432265 0.626371
1910 4 0.433593 0.437945 0.60431
1269 4 0.423453 0.444691 0.619352
1205 4 0.443805 0.445033 0.618681
1284 4 0.0954694 0.0383025 0.706278
1282 2 0.101064 0.0624805 0.709328
2047 2 0.153115 0.00974579 0.749102
2256 4 0.179228 0.00973774 0.715235
2049 4 0.17179 0.0112577 0.732544
1201 2 0.185314 0.0511973 0.719337
1202 4 0.179991 0.027071 0.72318
1203 4 0.190636 0.0753236 0.715494
1005 4 0.354069 0.0437225 0.703395
1003 2 0.352389 0.0239979 0.688121
1004 4 0.35071 0.00427333 0.672847
45 3 0.435148 0.0557181 0.668909
41 1 0.437137 0.0781779 0.665708
1162 2 0.485017 0.0628432 0.692576
1163 4 0.475628 0.0785937 0.675577
44 3 0.459539 0.0842229 0.665714
1164 4 0.494406 0.0470928 0.709574
1077 4 0.0326214 0.110627 0.747542
1075 2 0.0141717 0.102239 0.732898
864 4 0.0495259 0.121301 0.745113
909 4 0.102658 0.154984 0.706806
907 2 0.105865 0.13028 0.708947
908 4 0.109072 0.105575 0.711087
1283 4 0.106659 0.0866586 0.712377
1227 4 0.124704 0.094467 0.710826
1225 2 0.149198 0.0900261 0.713172
1148 4 0.187781 0.0888772 0.729096
1226 4 0.173692 0.0855851 0.715518
1147 2 0.208365 0.0992989 0.738734
1149 4 0.228949 0.109721 0.748371
1032 4 0.320372 0.0871362 0.679244
829 2 0.326297 0.148695 0.715674
830 4 0.303552 0.157848 0.72058
887 4 0.292189 0.165556 0.706437
886 2 0.28012 0.167428 0.684619
831 4 0.349042 0.139543 0.710768
1142 4 0.361566 0.143686 0.725033
1141 2 0.381324 0.157914 0.719349
42 3 0.426443 0.0892447 0.682805
1025 4 0.462529 0.153772 0.698848
3424 2 0.469804 0.116608 0.691299
3426 4 0.465353 0.0946026 0.680292
3425 4 0.474256 0.138613 0.702305
3269 4 0.479759 0.156142 0.709101
1024 2 0.44008 0.164295 0.702082
852 4 0.0475391 0.184061 0.72823
1214 4 0.0274269 0.186378 0.726541
850 2 0.0706795 0.176285 0.722822
1213 2 0.0034877 0.193559 0.725815
851 4 0.09382 0.16851 0.717414
1208 4 0.101538 0.173259 0.700302
1207 2 0.0993756 0.179033 0.676071
1107 4 0.11327 0.168767 0.715727
1105 2 0.126842 0.183937 0.730247
1106 4 0.140415 0.199106 0.744767
978 4 0.285849 0.164558 0.724618
976 2 0.284054 0.183903 0.740357
916 2 0.299184 0.237894 0.740845
1192 2 0.403194 0.204718 0.683071
1143 4 0.401083 0.172143 0.713665
1262 4 0.41046 0.188473 0.718004
1194 4 0.402329 0.186621 0.700303
1261 2 0.417711 0.194312 0.741209
3355 2 0.49212 0.182958 0.667945
3268 2 0.488774 0.167204 0.729633
1026 4 0.41763 0.174818 0.705316
3270 4 0.497789 0.178265 0.750165
3262 2 0.0638014 0.317668 0.682155
3264 4 0.0687602 0.320024 0.706549
779 4 0.0812486 0.313063 0.719382
893 4 0.0659218 0.322784 0.726117
892 2 0.0635437 0.331456 0.749447
778 2 0.0994085 0.296527 0.724068
780 4 0.117568 0.279991 0.728754
1065 4 0.212281 0.320699 0.70218
1063 2 0.234963 0.311735 0.696671
1064 4 0.257645 0.302772 0.691163
947 4 0.306687 0.27139 0.71293
946 2 0.290505 0.283517 0.698225
948 4 0.274322 0.295644 0.683519
917 4 0.304945 0.257316 0.726189
1008 4 0.458092 0.273637 0.708786
1006 2 0.457805 0.267788 0.733095
1067 4 0.157129 0.409727 0.712446
940 2 0.129694 0.392395 0.742753
941 4 0.142188 0.400262 0.722574
1066 2 0.168347 0.401694 0.691594
1068 4 0.179565 0.393662 0.670742
1175 4 0.192698 0.464495 0.671475
1176 4 0.162155 0.451047 0.708718
1174 2 0.177427 0.457771 0.690097
1139 4 0.287533 0.47729 0.70548
1138 2 0.302927 0.461973 0.717873
1140 4 0.31832 0.446656 0.730267
1229 4 0.328735 0.430929 0.734652
1989 4 0.319848 0.439952 0.749279
1100 4 0.395667 0.431223 0.739386
1228 2 0.352955 0.43191 0.740785
1230 4 0.377175 0.432891 0.746917
1101 4 0.438444 0.456797 0.735291
1099 2 0.417056 0.44401 0.737338
3330 4 0.455215 0.462745 0.726589
3328 2 0.466891 0.46403 0.704516
1251 4 0.444247 0.47528 0.736042
3329 4 0.478566 0.465316 0.682443
1249 2 0.443905 0.495193 0.751159
834 4 0.0472539 0.0730094 0.826232
2048 4 0.134441 0.00823386 0.765659
1113 4 0.340276 0.0757151 0.803923
980 4 0.424206 0.00282239 0.814507
2321 4 0.438505 0.0159039 0.808764
2322 4 0.457712 0.0592074 0.792744
2320 2 0.448109 0.0375557 0.800754
846 4 0.43992 0.0614544 0.785215
862 2 0.0499601 0.124667 0.769885
863 4 0.0503943 0.128032 0.794658
833 4 0.0504204 0.121195 0.81324
1125 4 0.0487936 0.140048 0.810547
1123 2 0.0635956 0.156181 0.822623
832 2 0.0488371 0.0971024 0.819736
1257 4 0.240513 0.111383 0.763803
1255 2 0.238639 0.127986 0.782404
921 4 0.218532 0.145518 0.807947
919 2 0.20426 0.163472 0.817902
840 4 0.233551 0.149594 0.820048
1256 4 0.236765 0.14459 0.801005
1111 2 0.355999 0.0898279 0.817293
1112 4 0.371723 0.103941 0.830663
844 2 0.439082 0.0816612 0.770512
845 4 0.438243 0.101868 0.75581
3189 4 0.0142637 0.240957 0.804226
1130 4 0.155376 0.207565 0.753719
1129 2 0.163073 0.219616 0.774229
34 3 0.127789 0.172878 0.822601
1131 4 0.170771 0.231668 0.79474
1277 4 0.176431 0.236871 0.812243
1276 2 0.184316 0.21718 0.825483
920 4 0.189988 0.181427 0.827857
977 4 0.282259 0.203248 0.756096
918 4 0.293422 0.218472 0.7555
1298 4 0.293722 0.208962 0.771892
1297 2 0.293287 0.208068 0.796876
1299 4 0.292852 0.207175 0.821859
50 3 0.393232 0.187939 0.793979
46 1 0.415209 0.193683 0.795612
49 3 0.417314 0.216775 0.79647
1043 4 0.427858 0.214692 0.777485
48 3 0.424485 0.184171 0.814635
47 3 0.426475 0.18587 0.777141
1263 4 0.424963 0.200152 0.764415
1146 4 0.486039 0.182818 0.765166
1145 4 0.44022 0.199404 0.776399
1144 2 0.46313 0.191111 0.770782
1022 4 0.430438 0.198895 0.827822
1042 2 0.434214 0.238257 0.772059
822 4 0.166495 0.249535 0.800747
821 4 0.195745 0.289941 0.804274
820 2 0.18112 0.269738 0.80251
1235 4 0.244807 0.31865 0.798344
1234 2 0.247166 0.335746 0.780251
1098 4 0.255719 0.326844 0.812792
1044 4 0.440569 0.261823 0.766633
1007 4 0.457519 0.26194 0.757403
1165 2 0.48032 0.27121 0.784238
1166 4 0.456869 0.268794 0.775906
3275 4 0.0192469 0.352346 0.81911
894 4 0.0611656 0.340128 0.772778
3276 4 0.0535469 0.355324 0.782842