ITEM: TIMESTEP
1680000
ITEM: NUMBER OF ATOMS
4590
ITEM: BOX BOUNDS pp pp pp
-9.9985700000000008e+00 9.9985700000000008e+00
-9.9985700000000008e+00 9.9985700000000008e+00
-9.9985700000000008e+00 9.9985700000000008e+00
ITEM: ATOMS id type xs ys zs
465 4 0.0535891 0.0739977 0.0113503
700 2 0.0884195 0.06189 0.013101
702 4 0.112712 0.0677752 0.0124522
566 4 0.124384 0.0771412 0.0271537
565 2 0.147267 0.0832198 0.0351924
491 4 0.270758 0.0133298 0.0452025
2264 4 0.275694 0.0233702 0.0283429
2263 2 0.265778 0.0432432 0.016857
2265 4 0.255863 0.0631161 0.00537105
558 4 0.30282 0.0885397 0.0554774
556 2 0.32337 0.0837027 0.0688753
745 2 0.460911 0.0448385 0.00129755
746 4 0.46399 0.0371926 0.0249035
2469 4 0.476324 0.0248429 0.0356352
2467 2 0.489064 0.00729935 0.0480891
463 2 0.035706 0.0914236 0.0100417
464 4 0.017823 0.10885 0.00873302
590 4 0.00865515 0.115085 0.0258183
567 4 0.170149 0.0892985 0.0432311
358 2 0.249966 0.132445 0.0059849
359 4 0.226574 0.136163 0.0139969
360 4 0.273357 0.128727 0.997973
557 4 0.343919 0.0788657 0.0822731
865 2 0.336226 0.1483 0.00399122
867 4 0.325881 0.166216 0.0180337
554 4 0.0431267 0.227038 0.0388711
553 2 0.0670268 0.228245 0.0316249
555 4 0.0909269 0.229453 0.0243788
837 4 0.140434 0.226876 0.00347577
915 4 0.155012 0.237581 0.99789
835 2 0.116142 0.232583 0.00506837
461 4 0.330759 0.230217 0.0664759
665 4 0.337251 0.17941 0.0289629
666 4 0.340482 0.224662 0.049998
664 2 0.338867 0.202036 0.0394805
573 4 0.337868 0.243308 0.0544616
1070 4 0.392885 0.227242 0.0150458
1069 2 0.409852 0.234669 0.0318425
1071 4 0.426819 0.242096 0.0486392
294 4 0.085117 0.275876 0.0406868
292 2 0.10597 0.284151 0.0296482
507 4 0.127857 0.312011 0.021536
293 4 0.126823 0.292426 0.0186096
505 2 0.147218 0.326511 0.0278687
356 4 0.317226 0.304009 0.0346717
572 4 0.326189 0.291364 0.0470515
355 2 0.307635 0.32169 0.0198208
571 2 0.332028 0.267336 0.0507565
324 4 0.430401 0.260961 0.0451705
322 2 0.434162 0.282543 0.0572213
672 4 0.445386 0.320293 0.0761287
323 4 0.437924 0.304126 0.0692722
620 4 0.0114507 0.381221 0.0751792
647 4 0.0305501 0.372842 0.077084
483 4 0.164809 0.35722 0.0228831
506 4 0.166578 0.341012 0.0342014
481 2 0.187564 0.366959 0.0264221
609 4 0.227275 0.378889 0.0429843
607 2 0.244423 0.396758 0.046423
482 4 0.210319 0.376698 0.0299611
357 4 0.298043 0.339371 0.00496992
252 4 0.274244 0.429247 0.0443259
902 4 0.311745 0.352899 0.99883
957 4 0.382716 0.364101 0.0110995
741 4 0.380042 0.379546 0.0881405
670 2 0.457417 0.34216 0.0746219
280 2 0.476899 0.404255 0.0658099
281 4 0.479199 0.380217 0.0722951
671 4 0.469448 0.364027 0.073115
625 2 0.230068 0.439908 0.0854056
627 4 0.248482 0.45397 0.0760051
608 4 0.261572 0.414627 0.0498617
244 2 0.263004 0.484155 0.0494124
245 4 0.254929 0.472025 0.0697307
250 2 0.299227 0.429429 0.0433438
251 4 0.324211 0.429611 0.0423618
272 4 0.258403 0.488024 0.0169065
246 4 0.271079 0.496285 0.0290941
271 2 0.253331 0.475279 0.996001
282 4 0.4746 0.428294 0.0593247
226 2 0.465433 0.462826 0.0407522
228 4 0.466267 0.480771 0.0233602
227 4 0.4646 0.444882 0.0581442
563 4 0.452142 0.494702 0.0217744
16 1 0.0688266 0.0546828 0.149406
20 3 0.0676896 0.0699055 0.132505
1806 4 0.0630796 0.0160518 0.139339
18 3 0.0579976 0.035126 0.143187
17 3 0.0908888 0.0498883 0.153813
19 3 0.059069 0.0633895 0.168573
380 4 0.0703987 0.0803325 0.169248
1804 2 0.0561161 0.00210378 0.11979
1505 4 0.16491 0.0427002 0.157781
450 4 0.155865 0.0396012 0.138364
448 2 0.16317 0.0634693 0.136907
653 4 0.322802 0.0334157 0.104909
652 2 0.324845 0.0210494 0.126544
654 4 0.326888 0.00868303 0.148179
484 2 0.376924 1.18823e-05 0.105987
295 2 0.35813 0.0611483 0.106543
297 4 0.364643 0.0379425 0.113194
485 4 0.380639 0.0240015 0.111977
296 4 0.351616 0.0843541 0.0998916
579 4 0.0846221 0.115686 0.114917
237 4 0.143021 0.143005 0.126755
578 4 0.124221 0.145208 0.122732
577 2 0.104422 0.130447 0.118825
235 2 0.158464 0.124479 0.133349
476 4 0.135602 0.160548 0.12763
236 4 0.173908 0.105954 0.139944
693 4 0.185841 0.0920064 0.147081
449 4 0.170475 0.0873375 0.135451
691 2 0.207817 0.097961 0.157415
582 4 0.246145 0.114104 0.165474
771 4 0.459647 0.131423 0.0876154
769 2 0.470108 0.153682 0.092119
310 2 0.432576 0.15685 0.135106
311 4 0.440973 0.133999 0.129408
339 4 0.0518549 0.193625 0.157575
337 2 0.0757076 0.19452 0.16502
475 2 0.125901 0.174296 0.146125
477 4 0.116199 0.188044 0.164619
737 4 0.150264 0.169557 0.117818
338 4 0.0995603 0.195414 0.172465
736 2 0.166793 0.186343 0.109441
738 4 0.183322 0.203129 0.101064
460 2 0.327811 0.2311 0.0912893
283 2 0.315761 0.196366 0.135861
462 4 0.324863 0.231984 0.116103
354 4 0.319514 0.235776 0.132282
285 4 0.309082 0.173646 0.143884
284 4 0.322441 0.219086 0.127838
352 2 0.299333 0.249998 0.136237
255 4 0.335973 0.230434 0.129598
254 4 0.380087 0.242429 0.149866
253 2 0.35803 0.236431 0.139732
630 4 0.393261 0.234987 0.163251
628 2 0.408179 0.215769 0.157479
765 4 0.387208 0.253278 0.164432
1012 2 0.501808 0.204868 0.0881763
770 4 0.480568 0.175941 0.0966226
1014 4 0.480482 0.195961 0.0977175
312 4 0.424179 0.179702 0.140805
629 4 0.423097 0.196552 0.151707
456 4 0.070919 0.326864 0.102736
749 4 0.0721528 0.298911 0.161901
454 2 0.088075 0.335937 0.118501
612 4 0.249575 0.328291 0.137892
353 4 0.279152 0.264221 0.140193
754 2 0.271274 0.306887 0.144536
755 4 0.274355 0.282175 0.146772
756 4 0.268194 0.331599 0.142299
519 4 0.497249 0.302411 0.103181
648 4 0.0521113 0.333714 0.0995518
646 2 0.0413307 0.353278 0.0883179
455 4 0.105231 0.34501 0.134266
537 4 0.202802 0.371596 0.119824
535 2 0.20638 0.396213 0.117302
611 4 0.208907 0.356561 0.130989
610 2 0.229241 0.342426 0.13444
303 4 0.281915 0.417447 0.141853
739 2 0.388563 0.38529 0.110934
740 4 0.397085 0.391035 0.133728
15 3 0.389245 0.378642 0.14712
385 2 0.365567 0.406564 0.156079
386 4 0.388103 0.398455 0.148898
495 4 0.407322 0.401226 0.147408
11 1 0.407135 0.3736 0.16028
387 4 0.343032 0.414672 0.16326
2651 4 0.489764 0.364883 0.0763938
12 3 0.418924 0.356304 0.150739
14 3 0.421069 0.392062 0.162114
1465 2 0.0258806 0.469105 0.112366
1466 4 0.0457231 0.480991 0.121861
1467 4 0.0060381 0.457218 0.10287
1791 4 0.0646644 0.48004 0.12544
552 4 0.0956189 0.490563 0.0773614
550 2 0.0916633 0.468378 0.0881958
551 4 0.0877078 0.446194 0.0990302
626 4 0.211655 0.425846 0.0948061
536 4 0.209957 0.420831 0.11478
637 2 0.22707 0.496251 0.142953
767 4 0.239719 0.468175 0.147557
638 4 0.249379 0.485739 0.147069
766 2 0.257953 0.451178 0.149506
768 4 0.276187 0.434181 0.151455
301 2 0.306057 0.42162 0.146846
302 4 0.330199 0.425794 0.151839
493 2 0.414123 0.423862 0.139251
660 4 0.416947 0.458333 0.145644
494 4 0.420925 0.446498 0.131095
658 2 0.426265 0.477268 0.159054
673 2 0.114789 0.059397 0.196637
675 4 0.0920505 0.0696032 0.198627
674 4 0.137528 0.0491907 0.194647
1504 2 0.173293 0.0335824 0.179501
689 4 0.189057 0.00517251 0.201728
1506 4 0.181676 0.0244646 0.201221
21 1 0.398669 0.00731688 0.228993
25 3 0.417603 0.012755 0.217566
22 3 0.382815 0.0236328 0.225588
758 4 0.40717 0.0773317 0.204235
757 2 0.415583 0.0542178 0.208722
759 4 0.423997 0.0311039 0.21321
349 2 0.448597 0.0240514 0.244856
350 4 0.433661 0.0203137 0.225154
379 2 0.0590426 0.0990652 0.181303
512 4 0.0362081 0.118634 0.209455
381 4 0.0476864 0.117798 0.193357
511 2 0.0397886 0.139122 0.223333
513 4 0.0433691 0.15961 0.23721
692 4 0.229792 0.103916 0.167749
721 2 0.203371 0.162195 0.2299
723 4 0.211827 0.16266 0.206375
580 2 0.270383 0.119829 0.163257
581 4 0.294621 0.125555 0.161039
30 3 0.304019 0.130987 0.176898
26 1 0.316727 0.139296 0.193871
29 3 0.321409 0.12252 0.209202
27 3 0.305125 0.156069 0.204513
28 3 0.336487 0.148041 0.185418
363 4 0.116543 0.195634 0.181975
362 4 0.129947 0.221678 0.222505
361 2 0.123245 0.208656 0.20224
372 4 0.144802 0.235465 0.224529
370 2 0.156221 0.242108 0.245758
545 4 0.128865 0.181058 0.248169
544 2 0.153197 0.175655 0.250156
392 4 0.120333 0.163207 0.250001
722 4 0.194915 0.16173 0.253426
521 4 0.467448 0.174559 0.225014
520 2 0.490343 0.169176 0.216529
394 2 0.0585701 0.306059 0.236897
396 4 0.0462913 0.301664 0.258229
750 4 0.0855775 0.29888 0.210073
748 2 0.0788651 0.298895 0.185987
395 4 0.0708489 0.310454 0.215564
300 4 0.141969 0.311967 0.197631
298 2 0.132463 0.320958 0.218937
279 4 0.259087 0.258965 0.205656
278 4 0.27286 0.266633 0.158198
277 2 0.265973 0.262799 0.181927
307 2 0.32963 0.308185 0.217694
309 4 0.323849 0.312701 0.193791
308 4 0.335412 0.303668 0.241597
763 2 0.405104 0.269043 0.171939
764 4 0.423001 0.284809 0.179447
623 4 0.422609 0.299498 0.192008
526 2 0.500018 0.292332 0.185597
528 4 0.485807 0.301925 0.203796
622 2 0.446364 0.306155 0.196081
624 4 0.470118 0.312812 0.200153
2618 4 0.0172159 0.408706 0.221081
262 2 0.0567746 0.400392 0.225392
264 4 0.036053 0.406433 0.21277
263 4 0.0774962 0.394351 0.238013
602 4 0.0761424 0.375155 0.23863
299 4 0.122956 0.329949 0.240244
603 4 0.118562 0.348694 0.239686
601 2 0.0973523 0.361924 0.239158
290 4 0.182667 0.374335 0.221357
289 2 0.183589 0.399315 0.221932
13 3 0.399884 0.367027 0.181319
2860 2 0.460031 0.40627 0.24519
416 4 0.177164 0.430544 0.204266
415 2 0.174044 0.4545 0.210711
291 4 0.184512 0.424295 0.222506
1430 4 0.177532 0.492531 0.20575
417 4 0.170923 0.478457 0.217156
659 4 0.435582 0.496203 0.172464
597 4 0.492383 0.463226 0.195904
595 2 0.47172 0.475469 0.188951
596 4 0.451057 0.487712 0.181999
231 4 0.434396 0.491361 0.19133
2861 4 0.442153 0.418606 0.232806
1799 4 0.0292339 0.0151444 0.314904
233 4 0.0250628 0.0278272 0.301734
1402 2 0.0672339 0.0172264 0.298787
1403 4 0.0424597 0.0202985 0.300196
232 2 0.0240828 0.0513051 0.293189
234 4 0.0231028 0.074783 0.284645
1798 2 0.0132202 0.00503124 0.331228
23 3 0.403248 0.00592834 0.251697
697 2 0.356285 0.0229727 0.331813
699 4 0.354284 0.998203 0.329048
633 4 0.36376 0.0627877 0.323959
631 2 0.382558 0.0686887 0.308564
351 4 0.463532 0.0277891 0.264557
743 4 0.48616 0.0538422 0.309587
744 4 0.46802 0.0488727 0.263251
742 2 0.47709 0.0513574 0.286419
479 4 0.491502 0.0554309 0.328332
399 4 0.051609 0.102319 0.322241
397 2 0.0661426 0.119191 0.31087
398 4 0.0806763 0.136063 0.299499
393 4 0.0933788 0.14619 0.288532
390 4 0.0967634 0.142077 0.307757
391 2 0.106856 0.154698 0.269266
249 4 0.201562 0.153635 0.33629
404 4 0.192345 0.157381 0.318437
403 2 0.188176 0.160222 0.293948
632 4 0.401356 0.0745897 0.293169
333 4 0.453581 0.17549 0.324795
515 4 0.447587 0.158446 0.333764
444 4 0.0341478 0.244696 0.273284
388 2 0.10061 0.159196 0.325571
405 4 0.184006 0.163062 0.269459
546 4 0.177529 0.170252 0.252143
371 4 0.16764 0.248751 0.266987
420 4 0.405986 0.222891 0.26099
717 4 0.401384 0.240666 0.267238
331 2 0.454968 0.184605 0.301553
332 4 0.456354 0.193719 0.278311
418 2 0.427479 0.210119 0.260676
419 4 0.448971 0.197346 0.260362
760 2 0.484268 0.216121 0.25411
762 4 0.464828 0.207386 0.267186
443 4 0.030063 0.294193 0.267449
365 4 0.0326677 0.313237 0.266193
364 2 0.0152458 0.331154 0.266988
442 2 0.0321054 0.269444 0.270367
401 4 0.226771 0.261037 0.26598
400 2 0.232886 0.269445 0.288719
402 4 0.239001 0.277853 0.311459
345 4 0.237252 0.283178 0.330447
510 4 0.23638 0.296699 0.316423
508 2 0.222632 0.315282 0.325954
496 2 0.299784 0.320949 0.262623
498 4 0.278613 0.325344 0.275179
497 4 0.320955 0.316554 0.250068
715 2 0.413332 0.260559 0.276548
716 4 0.42528 0.280453 0.285858
542 4 0.420755 0.289955 0.302192
541 2 0.419007 0.314807 0.304307
547 2 0.017293 0.407879 0.318457
548 4 0.012663 0.388814 0.333958
734 4 0.130199 0.341874 0.254296
733 2 0.143248 0.354676 0.271355
735 4 0.156297 0.367478 0.288414
677 4 0.159109 0.351455 0.30019
509 4 0.208883 0.333865 0.335485
676 2 0.178869 0.350226 0.315461
435 4 0.217531 0.350973 0.33749
678 4 0.198628 0.348998 0.330733
728 4 0.361076 0.382641 0.324689
727 2 0.349928 0.396939 0.307471
615 4 0.423351 0.359102 0.309088
543 4 0.41726 0.33966 0.306422
613 2 0.421023 0.373614 0.329316
2538 4 0.477013 0.371625 0.314909
2536 2 0.483217 0.375527 0.291004
2537 4 0.489422 0.379429 0.267098
2862 4 0.477909 0.393933 0.257575
753 4 0.471024 0.363473 0.333415
549 4 0.021923 0.426943 0.302955
777 4 0.041076 0.433958 0.308328
775 2 0.0647648 0.441824 0.309794
414 4 0.107813 0.448928 0.316073
776 4 0.0884536 0.44969 0.31126
412 2 0.11522 0.469339 0.328471
438 4 0.318615 0.46761 0.275544
436 2 0.330788 0.448479 0.28608
729 4 0.33878 0.411238 0.290254
437 4 0.342961 0.429348 0.296616
594 4 0.404883 0.496272 0.336394
1772 4 0.0114138 0.0117269 0.406669
1771 2 0.0020426 0.00047364 0.386403
732 4 0.0824623 0.0720468 0.367164
730 2 0.0660091 0.0861334 0.354672
2238 4 0.0259945 0.0244824 0.407931
369 4 0.0720686 0.0569581 0.375853
367 2 0.0854291 0.0403754 0.388956
368 4 0.0987896 0.0237926 0.402059
1701 4 0.183932 0.0646678 0.383926
605 4 0.172755 0.0807848 0.393476
1699 2 0.197938 0.0798854 0.369875
698 4 0.358285 0.0477423 0.334578
256 2 0.382806 0.0624617 0.363309
257 4 0.373323 0.0574722 0.340718
258 4 0.392289 0.0674512 0.3859
426 4 0.395279 0.0574617 0.40224
424 2 0.3932 0.0395648 0.419577
1428 4 0.473212 0.0162532 0.386262
478 2 0.470917 0.0655094 0.338326
480 4 0.450332 0.075588 0.34832
317 4 0.0386146 0.112149 0.332076
731 4 0.049556 0.10022 0.342181
318 4 0.00638393 0.146065 0.349727
316 2 0.0224993 0.129107 0.340901
604 2 0.149975 0.0905615 0.396737
606 4 0.127194 0.100338 0.399999
247 2 0.212214 0.131532 0.341109
1700 4 0.211944 0.0951031 0.355823
248 4 0.222865 0.10943 0.345928
600 4 0.23383 0.167712 0.387836
683 4 0.241982 0.153987 0.399446
682 2 0.257504 0.136329 0.407956
319 2 0.304224 0.116577 0.387937
320 4 0.288245 0.112558 0.406745
708 4 0.320072 0.141559 0.361292
706 2 0.316006 0.166152 0.359336
684 4 0.273026 0.11867 0.416465
321 4 0.320202 0.120595 0.369129
516 4 0.438113 0.113081 0.352551
575 4 0.438315 0.106875 0.371365
574 2 0.438758 0.111048 0.396013
514 2 0.44285 0.135763 0.343157
453 4 0.463402 0.166531 0.339037
389 4 0.104456 0.176314 0.343385
598 2 0.22529 0.182939 0.405735
473 4 0.225755 0.238565 0.384995
374 4 0.207062 0.244614 0.390147
472 2 0.250171 0.236657 0.390037
378 4 0.281315 0.238444 0.358881
376 2 0.299872 0.222602 0.353416
377 4 0.318429 0.20676 0.347951
707 4 0.311941 0.190745 0.35738
474 4 0.274587 0.23475 0.395078
488 4 0.277967 0.214544 0.397005
344 4 0.271945 0.255764 0.353805
487 2 0.300184 0.218437 0.407796
452 4 0.502096 0.184595 0.365059
451 2 0.482749 0.175563 0.352048
347 4 0.0724987 0.312114 0.406275
618 4 0.0898963 0.303789 0.407037
275 4 0.136674 0.306353 0.372467
617 4 0.137802 0.305284 0.392772
616 2 0.113849 0.304537 0.399904
274 2 0.161051 0.305797 0.366933
276 4 0.185428 0.305241 0.361398
373 2 0.200001 0.266787 0.380999
375 4 0.19294 0.28896 0.371852
343 2 0.254599 0.269471 0.342126
561 4 0.50172 0.327401 0.374395
752 4 0.484063 0.325455 0.363169
408 4 0.0155205 0.387162 0.395969
406 2 0.00934869 0.382324 0.372228
407 4 0.00317691 0.377485 0.348486
433 2 0.226773 0.3738 0.333162
434 4 0.236015 0.396626 0.328834
334 2 0.328127 0.406338 0.395089
502 2 0.271687 0.39963 0.392635
504 4 0.255327 0.381233 0.397004
503 4 0.288047 0.418026 0.388266
335 4 0.349429 0.393442 0.397349
240 4 0.364837 0.386389 0.408356
614 4 0.418694 0.388126 0.349544
751 2 0.477544 0.344464 0.348292
500 4 0.121279 0.503011 0.355476
413 4 0.122627 0.489751 0.340868
1544 4 0.138581 0.495196 0.35119
636 4 0.227926 0.440897 0.414028
668 4 0.292376 0.483355 0.406532
669 4 0.295121 0.434449 0.396462
336 4 0.306826 0.419235 0.392829
667 2 0.293748 0.458902 0.401497
592 2 0.405675 0.502349 0.360635
3990 4 0.503909 0.495295 0.372467
2237 4 0.011471 0.0641083 0.434756
2236 2 0.0187327 0.0442953 0.421344
1127 4 0.00822648 0.0578074 0.453293
720 4 0.0179951 0.0741536 0.450248
1782 4 0.0942495 0.00464446 0.406093
1781 4 0.109848 0.00222378 0.453543
1780 2 0.102049 0.00343412 0.429818
724 2 0.284856 0.0623426 0.48756
963 4 0.28437 0.0183439 0.49326
961 2 0.267234 0.000416727 0.496442
432 4 0.295732 0.0281987 0.506005
1580 4 0.373753 0.0261248 0.444304
425 4 0.39112 0.0216679 0.436913
2878 2 0.474416 0.0602353 0.492642
2880 4 0.471997 0.0643323 0.468096
642 4 0.454132 0.0707781 0.462879
718 2 0.0372746 0.0893936 0.454855
719 4 0.0565541 0.104634 0.459461
1033 2 0.128693 0.134462 0.465947
1035 4 0.125063 0.146318 0.444234
1034 4 0.132322 0.122606 0.48766
726 4 0.282057 0.0869255 0.483951
1182 4 0.295092 0.0881988 0.467685
1180 2 0.292343 0.101293 0.446562
1181 4 0.289593 0.114388 0.42544
3158 4 0.480743 0.154499 0.461157
641 4 0.435884 0.110369 0.438378
576 4 0.439202 0.115221 0.420662
640 2 0.445008 0.0905734 0.450629
306 4 0.442471 0.128847 0.434751
304 2 0.456389 0.148417 0.441712
471 4 0.00502867 0.190505 0.458988
261 4 0.14228 0.160161 0.442467
259 2 0.154914 0.180679 0.449144
694 2 0.151672 0.232599 0.480644
260 4 0.167548 0.201197 0.455821
695 4 0.165875 0.215834 0.468713
696 4 0.137468 0.249365 0.492576
599 4 0.216751 0.198166 0.423634
687 4 0.226041 0.212434 0.43431
686 4 0.183124 0.212159 0.459976
685 2 0.204582 0.212296 0.447143
489 4 0.3224 0.22233 0.418587
467 4 0.382973 0.192015 0.42252
466 2 0.376886 0.216257 0.423179
468 4 0.3708 0.2405 0.423839
305 4 0.470308 0.167987 0.448673
585 4 0.44458 0.237563 0.480561
1260 4 0.120356 0.246695 0.48357
1258 2 0.100308 0.255231 0.495835
813 4 0.230426 0.285861 0.479451
811 2 0.234374 0.303748 0.496469
266 4 0.336584 0.290167 0.443215
267 4 0.373281 0.256797 0.43685
265 2 0.354932 0.273482 0.440032
2456 4 0.455741 0.302776 0.495418
584 4 0.450768 0.284766 0.495867
583 2 0.447674 0.261164 0.488214
346 2 0.0667417 0.334002 0.416903
348 4 0.0609847 0.355889 0.427531
326 4 0.0644388 0.372339 0.439409
325 2 0.0883282 0.375159 0.44623
10 3 0.141393 0.350162 0.486879
327 4 0.112218 0.377978 0.453051
7 3 0.112563 0.366716 0.469917
6 1 0.127735 0.368384 0.487127
711 4 0.158886 0.381284 0.475612
8 3 0.140258 0.387704 0.484242
774 4 0.220397 0.404871 0.466579
635 4 0.212345 0.417835 0.455575
709 2 0.18073 0.39112 0.468451
772 2 0.233764 0.403459 0.487663
710 4 0.202574 0.400955 0.46129
586 2 0.402533 0.407202 0.478166
239 4 0.396118 0.38864 0.447306
238 2 0.380477 0.387515 0.427831
588 4 0.385976 0.399305 0.461176
681 4 0.0691198 0.423019 0.475101
1383 4 0.05742 0.464351 0.43083
1381 2 0.0737267 0.483296 0.431419
680 4 0.0487786 0.446422 0.435868
679 2 0.0589492 0.43472 0.455485
539 4 0.0850382 0.482176 0.491574
383 4 0.0874784 0.430215 0.479983
382 2 0.110982 0.43805 0.483351
538 2 0.103896 0.498165 0.495303
570 4 0.155024 0.490076 0.454132
569 4 0.155255 0.448845 0.482428
568 2 0.15514 0.46946 0.46828
384 4 0.134486 0.445886 0.486718
634 2 0.220136 0.429366 0.434802
880 2 0.324047 0.49611 0.48853
1 1 0.295287 0.502448 0.442525
5 3 0.291559 0.482194 0.452248
4 3 0.296913 0.500001 0.419508
587 4 0.419091 0.415099 0.495156
1184 4 0.00459358 0.0226337 0.567061
3077 4 0.00234124 0.0371736 0.553685
1059 4 0.144246 0.0734053 0.584061
340 2 0.183007 0.0420578 0.52702
342 4 0.178114 0.0665488 0.525825
2430 4 0.200212 0.00260291 0.527959
341 4 0.1879 0.0175669 0.528215
430 2 0.314754 0.0290363 0.522211
725 4 0.287655 0.0377596 0.491169
431 4 0.333776 0.0298739 0.538418
843 4 0.350133 0.0317395 0.525859
842 4 0.390092 0.035959 0.555629
841 2 0.370113 0.0338492 0.540744
1217 4 0.40527 0.0422415 0.569603
1216 2 0.417006 0.0201671 0.57
2879 4 0.476834 0.0561382 0.517189
879 4 0.0811665 0.161778 0.540873
938 4 0.0958144 0.149516 0.539956
937 2 0.107046 0.139254 0.520114
1151 4 0.155025 0.0863865 0.574352
939 4 0.118277 0.128991 0.500272
1150 2 0.163715 0.0857885 0.550915
1272 4 0.0960416 0.164742 0.552279
1152 4 0.172404 0.0851906 0.527478
877 2 0.0568843 0.165967 0.536631
878 4 0.0326021 0.170157 0.532388
1199 4 0.0195151 0.173877 0.547367
1198 2 0.998434 0.177342 0.560359
1270 2 0.103576 0.172605 0.574786
411 4 0.234958 0.210907 0.497445
409 2 0.259602 0.210098 0.501589
898 2 0.302132 0.223044 0.5453
899 4 0.311683 0.232739 0.566275
900 4 0.292581 0.213348 0.524325
410 4 0.284247 0.20929 0.505733
791 4 0.326591 0.231633 0.579082
871 2 0.375698 0.253827 0.528307
873 4 0.399685 0.251202 0.521755
872 4 0.351712 0.256451 0.534859
1259 4 0.0802608 0.263768 0.508099
812 4 0.238321 0.321636 0.513488
649 2 0.276399 0.315602 0.5334
651 4 0.295538 0.309105 0.54812
650 4 0.257261 0.3221 0.51868
790 2 0.340526 0.252059 0.575372
1238 4 0.349582 0.287722 0.582414
906 4 0.46409 0.261884 0.588999
2455 2 0.467889 0.318308 0.510792
935 4 0.00979571 0.37271 0.509133
9 3 0.116194 0.369354 0.507234
1135 2 0.139949 0.40139 0.576904
1136 4 0.117992 0.406455 0.566069
1137 4 0.161906 0.396325 0.587739
897 4 0.173856 0.381282 0.59252
895 2 0.192916 0.395531 0.584848
773 4 0.24713 0.402047 0.508747
896 4 0.211976 0.409781 0.577177
1190 4 0.251734 0.406327 0.527065
804 4 0.246884 0.338366 0.519156
803 4 0.253941 0.387859 0.520326
802 2 0.250412 0.363113 0.519741
930 4 0.265839 0.402472 0.51379
928 2 0.283784 0.41967 0.511074
927 4 0.448133 0.377704 0.533015
925 2 0.439966 0.398215 0.521277
2457 4 0.480037 0.333841 0.526165
926 4 0.431799 0.418726 0.509539
1011 4 0.502123 0.340107 0.577395
1009 2 0.501024 0.338244 0.552486
1189 2 0.235398 0.41293 0.544805
1191 4 0.219062 0.419533 0.562545
1172 4 0.207209 0.42865 0.575116
1171 2 0.20216 0.450654 0.585863
929 4 0.301729 0.436868 0.508358
889 2 0.291576 0.497334 0.535112
891 4 0.310113 0.487048 0.521854
1952 4 0.323147 0.473334 0.526575
881 4 0.324736 0.481979 0.509146
890 4 0.273038 0.507619 0.548369
1953 4 0.348179 0.43655 0.549402
1951 2 0.335663 0.454942 0.537989
663 4 0.416698 0.430683 0.505392
1001 4 0.407305 0.484353 0.540155
662 4 0.419402 0.469585 0.536698
661 2 0.41805 0.450134 0.521045
1911 4 0.418675 0.477574 0.554884
1909 2 0.425248 0.468062 0.577054
1332 4 0.426314 0.486988 0.539624
1330 2 0.449936 0.493657 0.534861
1185 4 0.0074224 0.999723 0.611421
1183 2 0.00600799 0.0111783 0.589241
1057 2 0.136159 0.0497642 0.584999
1058 4 0.128072 0.0261231 0.585938
2375 4 0.132008 0.0242946 0.605252
1284 4 0.136314 0.0732479 0.660351
950 4 0.232422 0.0104346 0.61298
949 2 0.249482 0.0282396 0.617114
951 4 0.266543 0.0460445 0.621248
1031 4 0.265595 0.0622212 0.609957
1030 2 0.272567 0.078562 0.627551
45 3 0.440327 0.065108 0.659961
3007 2 0.49212 0.0556112 0.607828
3009 4 0.487065 0.0357162 0.593551
1155 4 0.14644 0.0918134 0.590587
1153 2 0.154611 0.0972201 0.613591
1154 4 0.162782 0.102627 0.636595
1221 4 0.157334 0.118748 0.647739
1219 2 0.16841 0.140973 0.644811
1212 4 0.19778 0.160995 0.638733
1210 2 0.219461 0.162148 0.651134
1211 4 0.241142 0.163301 0.663534
1032 4 0.279538 0.0949028 0.645145
888 4 0.258554 0.154149 0.66685
808 2 0.484508 0.0911793 0.651538
809 4 0.494864 0.0937873 0.62893
3178 2 0.0182304 0.161534 0.655375
1271 4 0.111111 0.180469 0.597293
1245 4 0.0801647 0.2111 0.652287
1243 2 0.086297 0.209618 0.628093
1244 4 0.0924292 0.208135 0.603898
797 4 0.185871 0.223598 0.615728
1220 4 0.179486 0.163197 0.641883
796 2 0.187203 0.19966 0.622824
798 4 0.188536 0.175722 0.629921
857 4 0.308237 0.228118 0.584514
856 2 0.302543 0.222542 0.608213
858 4 0.296849 0.216966 0.631913
905 4 0.461047 0.229491 0.626975
3123 4 0.464997 0.210439 0.62793
904 2 0.462569 0.245688 0.607987
3121 2 0.479331 0.201575 0.6464
983 4 0.0336354 0.279666 0.606568
982 2 0.0415619 0.301832 0.614995
984 4 0.0494884 0.323998 0.623422
805 2 0.306259 0.316586 0.64282
806 4 0.284787 0.309455 0.653463
792 4 0.354462 0.272485 0.571663
807 4 0.327731 0.323717 0.632177
1239 4 0.324834 0.317941 0.61364
1237 2 0.337208 0.302832 0.598027
952 2 0.475246 0.321988 0.599312
953 4 0.456913 0.305683 0.604132
3263 4 0.047587 0.33109 0.641404
1041 4 0.0573315 0.341475 0.627276
1039 2 0.0527627 0.366021 0.625935
1040 4 0.0481938 0.390567 0.624594
993 4 0.0551469 0.409241 0.632769
1206 4 0.481 0.41589 0.581021
991 2 0.0472027 0.424539 0.614658
992 4 0.0392585 0.439837 0.596546
1029 4 0.229172 0.419733 0.645013
1160 4 0.19032 0.490389 0.594805
1173 4 0.19711 0.472658 0.59661
1188 4 0.200114 0.47578 0.65814
1187 4 0.203126 0.48669 0.60943
1186 2 0.20162 0.481235 0.633785
1204 2 0.462941 0.430166 0.59078
1910 4 0.43182 0.458549 0.599224
1269 4 0.44802 0.460466 0.60952
1267 2 0.438034 0.467436 0.631357
1205 4 0.444882 0.444442 0.600539
1268 4 0.428048 0.474406 0.653195
1075 2 0.0300075 0.0775205 0.727762
1076 4 0.0352155 0.0784456 0.703325
1077 4 0.0247994 0.0765954 0.7522
1282 2 0.128554 0.0797587 0.683211
1004 4 0.329923 0.0117085 0.69927
1003 2 0.319393 0.0341896 0.696286
1005 4 0.308864 0.0566706 0.693302
1049 4 0.334452 0.000578393 0.714215
1162 2 0.4937 0.0720328 0.704801
42 3 0.446471 0.0521621 0.694422
41 1 0.441389 0.0708299 0.681979
1083 4 0.0314719 0.131373 0.659147
1081 2 0.0348446 0.110818 0.672979
1082 4 0.0382174 0.0902637 0.68681
850 2 0.0684143 0.160032 0.728961
3179 4 0.0336698 0.147859 0.669511
852 4 0.0477311 0.157698 0.742815
909 4 0.0999665 0.149188 0.70566
907 2 0.110011 0.126591 0.709356
908 4 0.120054 0.103994 0.713053
1283 4 0.120794 0.0862695 0.706071
1227 4 0.133853 0.0916375 0.719064
851 4 0.0890975 0.162366 0.715107
1225 2 0.155434 0.0882543 0.73123
1107 4 0.107948 0.15977 0.720359
1149 4 0.239706 0.0916754 0.746771
886 2 0.270944 0.163971 0.68622
829 2 0.323646 0.15688 0.70229
887 4 0.283333 0.173792 0.705591
831 4 0.347159 0.149254 0.698529
1141 2 0.385993 0.162121 0.706866
1142 4 0.366467 0.146632 0.704865
810 4 0.474152 0.0885713 0.674146
1163 4 0.475886 0.0849501 0.692928
44 3 0.457952 0.086751 0.685232
43 3 0.420901 0.0791674 0.688989
1025 4 0.465513 0.159352 0.704878
3424 2 0.474146 0.124492 0.698011
3426 4 0.469256 0.102558 0.687049
3425 4 0.479036 0.146426 0.708973
3269 4 0.480006 0.163394 0.717966
1214 4 0.0313481 0.158763 0.731242
1213 2 0.0153808 0.177978 0.732247
1208 4 0.0776972 0.208429 0.710284
1209 4 0.0838859 0.22615 0.663933
1207 2 0.0807915 0.217289 0.687108
1105 2 0.122307 0.180119 0.722574
1106 4 0.136666 0.200468 0.724789
1130 4 0.151928 0.206553 0.713993
1129 2 0.16107 0.220467 0.732648
1131 4 0.170212 0.234381 0.751302
830 4 0.300132 0.164506 0.706051
978 4 0.293465 0.171035 0.722756
1193 4 0.334371 0.212579 0.718552
976 2 0.294643 0.190466 0.738448
1194 4 0.373636 0.239697 0.703599
1192 2 0.354004 0.226138 0.711076
1143 4 0.405518 0.17761 0.708867
1262 4 0.414064 0.192848 0.71745
1261 2 0.420134 0.203715 0.739135
3268 2 0.483997 0.170224 0.741685
1024 2 0.44406 0.172097 0.703284
1026 4 0.422608 0.184841 0.701689
3262 2 0.0456803 0.325852 0.665778
3264 4 0.0437736 0.320615 0.690152
779 4 0.0339176 0.305872 0.698795
778 2 0.050295 0.290435 0.709687
780 4 0.0666723 0.274997 0.720579
893 4 0.0385216 0.322358 0.708965
1065 4 0.217599 0.279599 0.709945
1063 2 0.242437 0.276806 0.709289
947 4 0.304332 0.266879 0.658251
946 2 0.295067 0.266768 0.681475
948 4 0.285803 0.266656 0.704698
1064 4 0.267275 0.274012 0.708633
1008 4 0.427594 0.311522 0.733381
1006 2 0.433145 0.294522 0.750856
892 2 0.035111 0.344145 0.72075
894 4 0.0317003 0.365932 0.732534
816 4 0.0337885 0.382006 0.744114
814 2 0.0570259 0.390848 0.741464
815 4 0.0802633 0.39969 0.738814
1066 2 0.1737 0.404455 0.703637
1067 4 0.148836 0.402593 0.705507
940 2 0.115952 0.39699 0.716476
941 4 0.133024 0.391487 0.699056
942 4 0.0988806 0.402492 0.733896
1027 2 0.213639 0.417608 0.664491
1068 4 0.198564 0.406317 0.701768
1028 4 0.198105 0.415482 0.683968
1019 4 0.407458 0.397784 0.728249
1280 4 0.0359203 0.490882 0.706892
1176 4 0.142474 0.481436 0.686352
1175 4 0.191285 0.47813 0.675994
1174 2 0.16688 0.479783 0.681173
1140 4 0.33954 0.480844 0.71071
1230 4 0.391868 0.421926 0.735111
1100 4 0.408392 0.418263 0.725009
1228 2 0.37477 0.436681 0.74584
3329 4 0.489033 0.445102 0.682766
1101 4 0.444675 0.452333 0.729861
1099 2 0.426534 0.435298 0.727435
3330 4 0.460575 0.442761 0.72382
1251 4 0.463124 0.459071 0.734227
3328 2 0.474804 0.443931 0.703293
2168 4 0.423906 0.486419 0.668915
1295 4 0.0188466 0.00956594 0.794533
1296 4 0.0444239 0.0525152 0.793162
1294 2 0.0316353 0.0310406 0.793847
1226 4 0.177014 0.084871 0.743396
1203 4 0.179484 0.0699474 0.756517
2049 4 0.189486 0.00254997 0.770767
1201 2 0.182425 0.0459637 0.762944
1202 4 0.185366 0.0219799 0.769371
2254 2 0.224061 0.00743422 0.766035
2256 4 0.202636 0.0152969 0.776248
975 4 0.315047 0.0634701 0.835671
2321 4 0.467622 0.00828189 0.785239
2322 4 0.452275 0.0548223 0.77528
2320 2 0.459949 0.0315521 0.78026
846 4 0.439942 0.0672149 0.78464
2442 4 0.483042 0.000634502 0.793963
864 4 0.0307912 0.0957316 0.75548
862 2 0.0382956 0.113328 0.77158
863 4 0.0458001 0.130925 0.78768
832 2 0.0319948 0.131391 0.828256
833 4 0.0389495 0.135162 0.804537
1125 4 0.0558931 0.143445 0.799968
1123 2 0.0705503 0.163122 0.804781
1148 4 0.191236 0.0853101 0.757299
1147 2 0.215471 0.0884928 0.752035
921 4 0.185598 0.139718 0.807243
1257 4 0.249686 0.103446 0.758938
1255 2 0.266045 0.097105 0.776752
1256 4 0.282404 0.0907638 0.794567
840 4 0.290312 0.0954658 0.812658
838 2 0.286962 0.111517 0.831534
1085 4 0.354123 0.16463 0.845045
844 2 0.452942 0.0846602 0.796962
845 4 0.465942 0.102105 0.809285
1072 2 0.0567325 0.215254 0.807208
1074 4 0.0367593 0.229943 0.810443
1073 4 0.0767057 0.200564 0.803972
3188 4 0.988043 0.257182 0.780159
1124 4 0.0852074 0.182799 0.809593
1277 4 0.175721 0.232963 0.769552
1276 2 0.181611 0.220038 0.790129
1278 4 0.187501 0.207112 0.810706
920 4 0.19182 0.188678 0.815302
919 2 0.188709 0.164198 0.811272
1241 4 0.199931 0.203737 0.824831
822 4 0.16741 0.249264 0.763321
977 4 0.29582 0.209897 0.75414
918 4 0.299186 0.226297 0.76439
1298 4 0.306822 0.208859 0.77045
1297 2 0.323487 0.208678 0.789089
1299 4 0.340151 0.208498 0.807729
50 3 0.384595 0.19134 0.786497
1086 4 0.346564 0.19008 0.802667
1043 4 0.397269 0.240116 0.794664
49 3 0.398818 0.222586 0.801959
1084 2 0.350343 0.177355 0.823856
46 1 0.403755 0.201688 0.793167
47 3 0.417642 0.204344 0.775023
3468 4 0.495763 0.177182 0.782743
1263 4 0.426204 0.214582 0.760819
1146 4 0.482224 0.189987 0.780632
1145 4 0.436611 0.209867 0.775641
1144 2 0.459418 0.199927 0.778136
1022 4 0.424368 0.180863 0.823641
48 3 0.414606 0.188758 0.809089
3270 4 0.487987 0.177055 0.765404