ITEM: TIMESTEP
240000
ITEM: NUMBER OF ATOMS
4590
ITEM: BOX BOUNDS pp pp pp
-9.9985700000000008e+00 9.9985700000000008e+00
-9.9985700000000008e+00 9.9985700000000008e+00
-9.9985700000000008e+00 9.9985700000000008e+00
ITEM: ATOMS id type xs ys zs
463 2 0.0304872 0.0518008 0.0287183
465 4 0.031234 0.0760008 0.0349615
464 4 0.0297403 0.0276007 0.0224751
1667 4 0.0725136 0.0149203 0.061837
702 4 0.109836 0.089134 0.0732271
534 4 0.203317 0.0720508 0.011166
490 2 0.280969 0.0431329 0.0380746
491 4 0.280336 0.0618836 0.054603
492 4 0.281602 0.0243822 0.0215461
296 4 0.367794 0.0603339 0.0579389
745 2 0.450465 0.0681641 0.0312266
746 4 0.445347 0.0756747 0.05452
747 4 0.455582 0.0606535 0.00793317
2975 4 0.469858 0.0485611 0.0130902
2974 2 0.48885 0.0415583 0.998412
589 2 0.0307079 0.121263 0.0774365
590 4 0.0375679 0.144057 0.0697837
3233 4 0.00121971 0.135743 0.997636
591 4 0.023848 0.0984692 0.0850894
701 4 0.0809878 0.0900781 0.0323906
700 2 0.0954117 0.0896061 0.0528089
422 4 0.11921 0.13971 0.0180293
421 2 0.102036 0.133207 0.00106032
565 2 0.198416 0.111487 0.0437004
566 4 0.181188 0.0996963 0.0299394
567 4 0.215643 0.123279 0.0574614
358 2 0.273778 0.124269 0.0221462
359 4 0.295424 0.11464 0.0141511
360 4 0.252133 0.133898 0.0301412
557 4 0.369666 0.0726708 0.0379544
556 2 0.370755 0.0945281 0.0500478
558 4 0.371844 0.116385 0.0621412
553 2 0.0410591 0.230646 0.0192051
555 4 0.0610517 0.222432 0.00663471
554 4 0.0210665 0.238859 0.0317756
506 4 0.189792 0.25601 0.0331231
571 2 0.319592 0.25118 0.0483851
573 4 0.294887 0.255027 0.0485785
666 4 0.318873 0.229637 0.0187534
572 4 0.344297 0.247332 0.0481918
324 4 0.404318 0.233379 0.055859
322 2 0.419717 0.24697 0.070118
664 2 0.332747 0.211013 0.0094896
665 4 0.346621 0.192388 0.000225772
771 4 0.439259 0.182174 0.0563867
770 4 0.485959 0.167699 0.045884
769 2 0.462609 0.174936 0.0511353
1014 4 0.459164 0.192032 0.994737
292 2 0.130595 0.306629 0.0170398
294 4 0.113255 0.317877 0.0029689
293 4 0.147934 0.29538 0.0311106
483 4 0.219702 0.302033 0.0695928
505 2 0.175746 0.27587 0.0389079
507 4 0.1617 0.29573 0.0446926
481 2 0.240882 0.308731 0.0581149
357 4 0.240593 0.270829 0.0122274
482 4 0.262062 0.315429 0.0466369
1071 4 0.374378 0.256153 0.0216946
1069 2 0.396678 0.26726 0.0195727
956 4 0.383176 0.325172 0.00189912
1070 4 0.418978 0.278367 0.0174508
671 4 0.461018 0.33115 0.0689849
280 2 0.463697 0.328754 0.024402
282 4 0.464559 0.332834 0.999749
330 4 0.0238603 0.404112 0.034671
621 4 0.0129507 0.362089 0.0793466
328 2 0.0225182 0.395537 0.0112222
454 2 0.122404 0.378143 0.079057
455 4 0.109213 0.389061 0.0608371
288 4 0.15858 0.417102 0.0145573
286 2 0.160774 0.392269 0.0126311
287 4 0.162969 0.367437 0.010705
252 4 0.286675 0.395357 0.0699623
250 2 0.282865 0.400779 0.0458528
251 4 0.279056 0.4062 0.0217433
608 4 0.307298 0.39475 0.070099
281 4 0.462835 0.324675 0.0490555
552 4 0.0855714 0.416166 0.0603313
550 2 0.067168 0.429859 0.0503828
551 4 0.0487645 0.443553 0.0404343
315 4 0.00949711 0.423205 0.0749082
1788 4 0.0754529 0.500443 0.074533
241 2 0.17244 0.499706 0.0732835
242 4 0.1551 0.493644 0.0563198
1786 2 0.0987295 0.493007 0.0692331
1787 4 0.122006 0.485571 0.0639332
245 4 0.219885 0.447298 0.0304751
244 2 0.242341 0.458264 0.0312798
246 4 0.264796 0.469231 0.0320846
272 4 0.281757 0.460075 0.0372738
271 2 0.293356 0.479578 0.0267711
524 4 0.332443 0.484201 0.0758798
227 4 0.483659 0.439335 0.0525285
562 2 0.443492 0.48808 0.0269896
563 4 0.460896 0.474111 0.0157131
226 2 0.499223 0.456852 0.0438047
1666 2 0.0736274 0.0175546 0.0866765
1668 4 0.0747411 0.0201889 0.111516
19 3 0.0399378 0.0440382 0.156513
20 3 0.0762502 0.052653 0.161499
450 4 0.1635 0.0588678 0.136367
448 2 0.174382 0.0798917 0.144414
1505 4 0.216352 0.0443 0.179107
1504 2 0.22821 0.0237438 0.171232
1506 4 0.240067 0.00318759 0.163357
652 2 0.306597 0.0330754 0.149945
654 4 0.301308 0.0186044 0.169637
653 4 0.311887 0.0475464 0.130253
295 2 0.365342 0.0476349 0.0793376
297 4 0.36289 0.034936 0.100736
758 4 0.416642 0.055899 0.155712
380 4 0.997461 0.133372 0.161225
237 4 0.173326 0.157092 0.136964
449 4 0.185264 0.100916 0.152461
235 2 0.179256 0.137215 0.150926
236 4 0.185185 0.117339 0.164889
693 4 0.223218 0.103081 0.155967
582 4 0.298297 0.100124 0.149017
580 2 0.289421 0.111776 0.169281
312 4 0.425711 0.113566 0.164013
629 4 0.459314 0.176229 0.129806
476 4 0.133604 0.164812 0.10748
475 2 0.117834 0.17277 0.125176
477 4 0.102064 0.180728 0.142873
337 2 0.0857452 0.250849 0.149172
737 4 0.177364 0.20146 0.107372
736 2 0.201232 0.19928 0.114495
738 4 0.2251 0.1971 0.121619
354 4 0.266634 0.212379 0.108679
284 4 0.272819 0.238246 0.166153
352 2 0.277042 0.234658 0.113206
460 2 0.33162 0.204142 0.101615
461 4 0.328355 0.227151 0.092389
283 2 0.268972 0.213667 0.168651
255 4 0.352671 0.178443 0.101136
462 4 0.334885 0.181134 0.110842
630 4 0.412842 0.167865 0.113342
254 4 0.402033 0.171935 0.0964803
253 2 0.377352 0.175189 0.0988081
628 2 0.436078 0.172047 0.121574
517 2 0.495375 0.243328 0.0942408
518 4 0.495612 0.218338 0.095036
339 4 0.0766783 0.259153 0.1274
277 2 0.241261 0.273131 0.170685
353 4 0.28745 0.256937 0.117732
754 2 0.279472 0.294911 0.119165
755 4 0.27415 0.270892 0.114697
756 4 0.284794 0.31893 0.123632
278 4 0.261483 0.275399 0.156154
741 4 0.343418 0.307192 0.0965607
622 2 0.387912 0.266428 0.151391
624 4 0.407219 0.250542 0.15155
739 2 0.35451 0.329597 0.0962152
623 4 0.368605 0.282315 0.151232
323 4 0.435117 0.260561 0.084377
528 4 0.454957 0.260047 0.178877
672 4 0.428347 0.315654 0.103527
670 2 0.444683 0.323402 0.0862561
526 2 0.479448 0.264585 0.176691
519 4 0.495137 0.268318 0.0934455
619 2 0.0142125 0.348355 0.100203
620 4 0.0154743 0.334622 0.121059
456 4 0.135595 0.367225 0.0972768
537 4 0.179257 0.332782 0.129956
648 4 0.107071 0.342155 0.174886
535 2 0.188725 0.34405 0.150169
626 4 0.224619 0.409993 0.126214
609 4 0.311411 0.35495 0.100096
607 2 0.309354 0.37485 0.0850973
612 4 0.2778 0.333795 0.135185
610 2 0.266145 0.337445 0.157003
740 4 0.365602 0.352003 0.0958698
387 4 0.343453 0.394987 0.142864
15 3 0.390759 0.358994 0.134768
385 2 0.350171 0.376643 0.127259
386 4 0.35689 0.358299 0.111654
11 1 0.413365 0.361641 0.133996
14 3 0.419488 0.371622 0.113964
13 3 0.420421 0.374697 0.151833
12 3 0.423462 0.341021 0.135421
495 4 0.433948 0.384596 0.119107
493 2 0.440074 0.407866 0.1259
597 4 0.472858 0.391221 0.167812
595 2 0.493398 0.405168 0.164851
313 2 0.0124246 0.442886 0.0900491
314 4 0.0153522 0.462568 0.10519
243 4 0.18978 0.505768 0.0902472
625 2 0.225691 0.423646 0.105295
627 4 0.226763 0.437299 0.0843751
637 2 0.260894 0.488288 0.136833
525 4 0.336071 0.494618 0.124655
523 2 0.334257 0.489409 0.100268
638 4 0.272382 0.474607 0.154326
658 2 0.387704 0.460099 0.15686
659 4 0.363463 0.465117 0.16038
660 4 0.411944 0.455082 0.15334
494 4 0.4462 0.431137 0.132692
16 1 0.0557247 0.0523295 0.17136
17 3 0.049827 0.0737599 0.177285
18 3 0.0563229 0.0391628 0.190457
1422 4 0.00104438 0.019316 0.166478
579 4 0.096763 0.0823135 0.22381
1420 2 0.0139881 0.998104 0.169251
673 2 0.122023 0.0426226 0.234569
674 4 0.141457 0.0578501 0.230618
675 4 0.102588 0.0273952 0.23852
689 4 0.217453 0.0248683 0.207692
688 2 0.206444 0.0177985 0.228999
21 1 0.373894 0.0458183 0.224244
23 3 0.38219 0.0247018 0.229111
24 3 0.35162 0.0472349 0.230589
25 3 0.375905 0.050008 0.20195
759 4 0.395284 0.0496231 0.200491
22 3 0.385988 0.0614524 0.236012
757 2 0.405963 0.0527611 0.178102
1760 4 0.481148 0.0143316 0.165236
742 2 0.455945 0.0535842 0.223315
743 4 0.463361 0.0774203 0.224736
744 4 0.448528 0.0297482 0.221894
379 2 0.0104638 0.150631 0.173802
381 4 0.0234669 0.167891 0.18638
511 2 0.0388428 0.162125 0.225582
513 4 0.0447889 0.151533 0.247437
577 2 0.0959276 0.106669 0.218214
578 4 0.0950921 0.131024 0.212618
692 4 0.233412 0.0787561 0.198453
723 4 0.209558 0.10445 0.233025
691 2 0.228315 0.0909187 0.17721
721 2 0.188153 0.113812 0.241933
581 4 0.280544 0.123427 0.189545
30 3 0.302851 0.12738 0.206385
26 1 0.308522 0.117814 0.226259
28 3 0.298333 0.0970621 0.228249
27 3 0.331338 0.115006 0.227079
29 3 0.302019 0.131546 0.243796
310 2 0.440714 0.113546 0.184015
311 4 0.455717 0.113526 0.204017
333 4 0.421106 0.138717 0.248115
512 4 0.0328968 0.172718 0.203728
395 4 0.0379545 0.250415 0.208523
338 4 0.094812 0.242544 0.170944
363 4 0.0914009 0.256578 0.185377
285 4 0.265124 0.189088 0.171149
764 4 0.355879 0.216898 0.184333
763 2 0.373546 0.22933 0.196922
765 4 0.391214 0.241763 0.20951
520 2 0.473899 0.212398 0.238815
521 4 0.4489 0.212816 0.238603
522 4 0.498898 0.21198 0.239028
394 2 0.0206274 0.251536 0.226514
750 4 0.0583489 0.297346 0.241829
748 2 0.07658 0.281856 0.2491
370 2 0.170099 0.26533 0.218879
361 2 0.109197 0.25892 0.202783
362 4 0.126994 0.261262 0.220189
372 4 0.145898 0.261913 0.213606
371 4 0.1943 0.268748 0.224152
279 4 0.22104 0.270863 0.185215
343 2 0.258505 0.284545 0.245911
344 4 0.275739 0.272069 0.232776
307 2 0.310443 0.274952 0.222897
309 4 0.298516 0.286094 0.203955
308 4 0.32237 0.263811 0.241839
647 4 0.0639681 0.363503 0.161206
263 4 0.0629648 0.410622 0.221917
300 4 0.117396 0.330314 0.211561
298 2 0.129285 0.33826 0.232071
646 2 0.0855194 0.352829 0.168046
536 4 0.198193 0.355318 0.170382
611 4 0.254491 0.341095 0.178821
303 4 0.308761 0.396022 0.194967
301 2 0.326495 0.40511 0.179865
729 4 0.321226 0.376526 0.244923
643 2 0.449621 0.382636 0.190241
644 4 0.446954 0.375709 0.214118
645 4 0.452287 0.389562 0.166365
447 4 0.455976 0.36635 0.229018
262 2 0.0475917 0.4301 0.218841
264 4 0.0322185 0.449578 0.215764
417 4 0.133001 0.435738 0.189012
415 2 0.157661 0.433184 0.192265
416 4 0.18232 0.43063 0.195518
291 4 0.200425 0.431276 0.186413
289 2 0.219136 0.427302 0.202516
290 4 0.237847 0.423328 0.218618
768 4 0.241075 0.482886 0.215154
766 2 0.254734 0.479155 0.194546
767 4 0.268393 0.475423 0.173938
1574 4 0.310314 0.499607 0.187722
302 4 0.344229 0.414198 0.164762
229 2 0.407836 0.492335 0.233058
231 4 0.396369 0.483005 0.212893
232 2 0.026846 0.0454073 0.296053
233 4 0.0440225 0.027685 0.300061
1402 2 0.0674724 0.0144453 0.276594
1403 4 0.0683877 0.0377888 0.285506
234 4 0.0096695 0.0631296 0.292045
429 4 0.0854562 0.0135247 0.325539
690 4 0.195434 0.0107287 0.250306
248 4 0.22295 0.0832575 0.280928
1701 4 0.226957 0.0295513 0.320279
1699 2 0.246713 0.0222987 0.306778
1700 4 0.26647 0.0150462 0.293278
257 4 0.393695 0.0548071 0.342084
478 2 0.479632 0.0353972 0.324614
480 4 0.466041 0.0144333 0.323623
351 4 0.448362 0.0643644 0.26972
529 2 0.999506 0.133503 0.270787
530 4 0.0170332 0.142449 0.286213
398 4 0.0617035 0.143562 0.316294
731 4 0.131499 0.0767865 0.312865
546 4 0.162809 0.13053 0.267992
544 2 0.157534 0.154927 0.266524
722 4 0.166747 0.123173 0.25084
249 4 0.234961 0.122388 0.309656
247 2 0.228956 0.102823 0.295292
403 2 0.219288 0.158378 0.293134
600 4 0.189396 0.135745 0.330034
404 4 0.234215 0.139388 0.299595
632 4 0.352404 0.120599 0.297213
631 2 0.37327 0.109419 0.305263
633 4 0.394136 0.0982388 0.313312
349 2 0.451868 0.0797003 0.289154
331 2 0.441011 0.153258 0.252304
332 4 0.460915 0.167799 0.256493
350 4 0.455374 0.0950361 0.308589
392 4 0.116371 0.164951 0.267042
391 2 0.104073 0.185941 0.272818
393 4 0.0917743 0.20693 0.278594
545 4 0.152258 0.179323 0.265057
405 4 0.204362 0.177368 0.286673
706 2 0.311854 0.175952 0.307466
708 4 0.307073 0.166627 0.330168
707 4 0.316635 0.185276 0.284764
762 4 0.473388 0.172399 0.27211
418 2 0.428286 0.210348 0.306106
419 4 0.438691 0.190828 0.317765
761 4 0.469805 0.181785 0.321098
760 2 0.471596 0.177092 0.296604
420 4 0.417882 0.229867 0.294448
396 4 0.00330023 0.252657 0.244506
444 4 0.0207375 0.25369 0.31196
443 4 0.0109004 0.25431 0.262934
442 2 0.015819 0.254 0.287447
390 4 0.0718934 0.275651 0.321391
749 4 0.0948112 0.266366 0.25637
345 4 0.241271 0.29702 0.259047
400 2 0.203378 0.255466 0.308112
402 4 0.225207 0.252362 0.319903
401 4 0.181549 0.25857 0.296321
508 2 0.234736 0.31626 0.324859
496 2 0.308588 0.295085 0.293586
497 4 0.332271 0.288837 0.288561
498 4 0.284905 0.301333 0.298611
543 4 0.403673 0.306952 0.317658
615 4 0.394659 0.325388 0.316365
613 2 0.37824 0.336065 0.331908
541 2 0.424976 0.315828 0.308037
542 4 0.44628 0.324704 0.298416
366 4 0.00587104 0.336891 0.274119
364 2 0.0271734 0.342263 0.286058
365 4 0.0484757 0.347636 0.297996
602 4 0.0596099 0.404909 0.293477
299 4 0.141174 0.346206 0.252582
601 2 0.0800039 0.391765 0.287437
603 4 0.100398 0.378621 0.281396
734 4 0.150571 0.360769 0.26298
733 2 0.159814 0.364865 0.285849
676 2 0.189931 0.346668 0.338897
677 4 0.182087 0.36467 0.32342
735 4 0.169056 0.368961 0.308718
509 4 0.242666 0.33842 0.316418
727 2 0.332657 0.39249 0.260403
433 2 0.322591 0.390105 0.330531
728 4 0.344088 0.408454 0.275884
434 4 0.337577 0.387281 0.310716
445 2 0.45656 0.383309 0.247382
446 4 0.457143 0.400268 0.265746
1757 4 0.0646994 0.505112 0.26288
777 4 0.0898926 0.453129 0.279271
549 4 0.0496655 0.448921 0.316564
775 2 0.0934362 0.465931 0.300454
776 4 0.0969799 0.478733 0.321638
414 4 0.143725 0.475226 0.271458
412 2 0.158447 0.467441 0.290109
413 4 0.173168 0.459655 0.30876
436 2 0.29524 0.446614 0.281882
437 4 0.281497 0.446855 0.260996
438 4 0.308984 0.446374 0.302769
713 4 0.414703 0.455056 0.278822
712 2 0.435982 0.464304 0.288143
714 4 0.45726 0.473551 0.297464
316 2 0.0392124 0.0802558 0.346841
317 4 0.0335739 0.0569893 0.354056
428 4 0.0656182 0.0261106 0.369684
427 2 0.0755372 0.0198177 0.347612
606 4 0.172432 0.0641169 0.375551
604 2 0.196725 0.0599059 0.371391
605 4 0.221018 0.0556948 0.367231
683 4 0.299791 0.0816184 0.366008
682 2 0.285452 0.0871938 0.385719
698 4 0.376057 0.0515449 0.331858
697 2 0.362288 0.0317995 0.338618
699 4 0.348519 0.0120541 0.345379
256 2 0.41651 0.0523641 0.352018
479 4 0.493223 0.0563612 0.325605
258 4 0.439325 0.049921 0.361951
426 4 0.416485 0.0490374 0.393608
318 4 0.044851 0.103522 0.339625
732 4 0.132307 0.0925101 0.360329
730 2 0.131903 0.0846483 0.336597
397 2 0.0800211 0.12861 0.324423
399 4 0.0983387 0.113658 0.332552
685 2 0.155875 0.15005 0.410226
598 2 0.184609 0.15964 0.335625
686 4 0.178216 0.160807 0.407006
684 4 0.271113 0.0927692 0.405429
320 4 0.272028 0.101922 0.42453
451 2 0.47835 0.147622 0.374019
453 4 0.457543 0.160511 0.37913
514 2 0.432537 0.152669 0.409257
515 4 0.454222 0.152965 0.396812
2653 2 0.00873577 0.219457 0.364269
2654 4 0.0334606 0.217277 0.367287
599 4 0.179821 0.183536 0.341216
474 4 0.237559 0.200161 0.351182
274 2 0.192338 0.247321 0.395134
276 4 0.2166 0.249046 0.400926
275 4 0.168076 0.245595 0.389342
472 2 0.261128 0.202145 0.343072
473 4 0.284696 0.20413 0.334962
488 4 0.298647 0.218864 0.381527
487 2 0.294312 0.234954 0.400169
715 2 0.356318 0.233993 0.358802
716 4 0.337062 0.221344 0.368516
717 4 0.375574 0.246642 0.349087
616 2 0.0746654 0.326616 0.372046
618 4 0.0621068 0.30673 0.380532
347 4 0.0539424 0.313396 0.399084
346 2 0.0489418 0.299089 0.41897
389 4 0.112175 0.254005 0.341628
388 2 0.0920342 0.264828 0.33151
678 4 0.197775 0.328666 0.354375
375 4 0.167553 0.331062 0.388837
373 2 0.189805 0.320075 0.391885
510 4 0.226807 0.2941 0.333301
374 4 0.212058 0.309088 0.394932
376 2 0.296874 0.294492 0.352312
377 4 0.317072 0.284422 0.363073
378 4 0.276676 0.304562 0.34155
489 4 0.289977 0.251043 0.418811
268 2 0.489211 0.27346 0.39447
270 4 0.478965 0.270749 0.417116
408 4 0.0710653 0.423151 0.408109
406 2 0.0750386 0.419164 0.383747
407 4 0.0790119 0.415177 0.359386
548 4 0.0677691 0.410946 0.343599
617 4 0.087224 0.346502 0.363561
503 4 0.268057 0.40968 0.40519
435 4 0.307605 0.392929 0.350345
614 4 0.361822 0.346743 0.347451
336 4 0.386789 0.367228 0.400918
561 4 0.45814 0.379847 0.390584
752 4 0.449772 0.391482 0.377472
559 2 0.475046 0.37553 0.408494
560 4 0.491952 0.371213 0.426403
547 2 0.0587173 0.429933 0.330082
680 4 0.0417841 0.456662 0.427333
499 2 0.11616 0.480758 0.373787
500 4 0.122636 0.49154 0.352178
501 4 0.109685 0.469975 0.395397
570 4 0.168164 0.465548 0.40943
5 3 0.292094 0.447629 0.371735
1 1 0.309452 0.461572 0.366943
2 3 0.302564 0.483378 0.369433
4 3 0.327076 0.457564 0.381494
3 3 0.316379 0.458349 0.345033
593 4 0.416534 0.470599 0.346231
594 4 0.368216 0.481263 0.353467
592 2 0.392375 0.475931 0.349849
751 2 0.441163 0.414892 0.375725
753 4 0.432555 0.438302 0.373979
2237 4 0.033389 0.0290514 0.497565
718 2 0.047562 0.0635125 0.475098
720 4 0.035652 0.0471635 0.489797
719 4 0.0594719 0.0798614 0.4604
2236 2 0.025282 0.00653234 0.5048
367 2 0.123536 0.0487033 0.452195
369 4 0.12459 0.0712118 0.463032
368 4 0.122482 0.0261948 0.441359
342 4 0.182569 0.0769022 0.511155
340 2 0.179941 0.0558743 0.497885
341 4 0.177313 0.0348464 0.484614
1181 4 0.241141 0.0598955 0.498747
2430 4 0.192221 0.0213998 0.490225
441 4 0.271456 0.0395673 0.427647
439 2 0.279527 0.0172329 0.419823
726 4 0.322271 0.0705525 0.453071
1180 2 0.253585 0.0812892 0.49519
724 2 0.345717 0.0791894 0.453996
424 2 0.397613 0.039835 0.407185
425 4 0.37874 0.0306325 0.420761
725 4 0.369163 0.0878263 0.45492
2878 2 0.483827 0.0813971 0.45586
457 2 0.00754676 0.166256 0.425204
458 4 0.022513 0.14652 0.421786
471 4 0.0211054 0.167862 0.504078
687 4 0.133535 0.139293 0.413445
321 4 0.278312 0.15114 0.418303
319 2 0.27517 0.126531 0.421417
1182 4 0.266028 0.102683 0.491633
574 2 0.397338 0.154164 0.45747
575 4 0.404425 0.164588 0.435876
516 4 0.410853 0.152373 0.421702
576 4 0.390252 0.14374 0.479064
642 4 0.472767 0.117049 0.471863
2880 4 0.468939 0.100761 0.461205
640 2 0.470853 0.127868 0.494323
459 4 0.992581 0.185992 0.428622
469 2 0.0268222 0.184143 0.485982
470 4 0.032539 0.200423 0.467887
260 4 0.108891 0.210224 0.421672
261 4 0.120496 0.18694 0.464379
259 2 0.114694 0.198582 0.443025
1035 4 0.125831 0.185992 0.4834
1033 2 0.122764 0.180716 0.507647
695 4 0.112607 0.24207 0.469208
468 4 0.329665 0.163946 0.441129
411 4 0.265778 0.217226 0.469531
409 2 0.288522 0.206854 0.470071
410 4 0.311267 0.196482 0.470611
467 4 0.372319 0.173667 0.416903
466 2 0.350992 0.168806 0.429016
306 4 0.494149 0.223022 0.424709
304 2 0.491054 0.199853 0.41583
305 4 0.48796 0.176685 0.406951
348 4 0.0439411 0.284781 0.438856
327 4 0.110455 0.334313 0.477113
694 2 0.114133 0.262973 0.482843
696 4 0.115659 0.283876 0.496477
325 2 0.0958343 0.33084 0.45713
10 3 0.172995 0.321919 0.475969
6 1 0.164103 0.333675 0.49333
651 4 0.251949 0.271682 0.438162
649 2 0.257513 0.292489 0.450863
650 4 0.263078 0.313295 0.463564
266 4 0.317378 0.292546 0.433606
267 4 0.358783 0.265375 0.440536
265 2 0.33808 0.278961 0.437071
812 4 0.330768 0.310135 0.485763
583 2 0.46469 0.280332 0.466195
584 4 0.489319 0.279117 0.462056
585 4 0.440062 0.281547 0.470334
326 4 0.0812132 0.327366 0.437146
7 3 0.141167 0.333594 0.491576
502 2 0.252341 0.398831 0.421329
711 4 0.170146 0.373007 0.483272
504 4 0.236625 0.387983 0.437469
709 2 0.183871 0.381749 0.464289
710 4 0.197597 0.39049 0.445306
774 4 0.241606 0.412768 0.480288
8 3 0.171598 0.355625 0.492692
772 2 0.237099 0.398098 0.500028
334 2 0.380206 0.373711 0.424152
238 2 0.384291 0.375321 0.480622
240 4 0.367471 0.369624 0.463021
335 4 0.373622 0.380194 0.447385
239 4 0.40111 0.381018 0.498224
1381 2 0.0221043 0.485664 0.449906
1383 4 0.0323356 0.473545 0.430576
681 4 0.0366302 0.41177 0.448754
679 2 0.0392072 0.434216 0.438043
383 4 0.0784693 0.417576 0.460468
539 4 0.0786187 0.483508 0.49374
540 4 0.128048 0.488091 0.487701
568 2 0.153743 0.463726 0.429774
569 4 0.139322 0.461903 0.450118
382 2 0.102138 0.423716 0.455247
384 4 0.125807 0.429857 0.450025
538 2 0.103333 0.485799 0.490721
636 4 0.241022 0.472722 0.449914
634 2 0.239149 0.452863 0.46499
635 4 0.237276 0.433003 0.480066
668 4 0.293471 0.452758 0.426615
667 2 0.298521 0.441494 0.448358
669 4 0.303572 0.430229 0.470102
588 4 0.383926 0.437174 0.427801
587 4 0.429019 0.421336 0.442515
663 4 0.444056 0.486676 0.48059
586 2 0.406473 0.429255 0.435158
1126 2 0.0417486 0.0519876 0.534024
1127 4 0.0395383 0.0339643 0.516835
1128 4 0.0439588 0.0700109 0.551213
1058 4 0.115848 0.0768298 0.558754
1057 2 0.131159 0.0869219 0.575751
1030 2 0.249975 0.076609 0.569072
1152 4 0.199812 0.0837834 0.501322
961 2 0.283645 0.0400427 0.517925
963 4 0.298979 0.0593374 0.513711
962 4 0.268311 0.020748 0.522139
432 4 0.306472 0.0756061 0.50424
430 2 0.327523 0.0863471 0.512407
1217 4 0.402875 0.0528157 0.556963
1216 2 0.403195 0.0291869 0.565134
841 2 0.377661 0.0677269 0.535246
842 4 0.392763 0.0486119 0.540878
1218 4 0.403514 0.00555805 0.573304
1062 4 0.483142 0.0180332 0.529484
938 4 0.0817966 0.130117 0.551058
937 2 0.106561 0.132029 0.54819
939 4 0.131326 0.133941 0.545322
1154 4 0.160412 0.155081 0.581416
1032 4 0.257665 0.0872073 0.547771
1151 4 0.192631 0.126398 0.526484
1150 2 0.196222 0.105091 0.513903
899 4 0.310742 0.155714 0.555728
898 2 0.32525 0.170876 0.542134
843 4 0.362559 0.0868418 0.529614
431 4 0.348573 0.0970882 0.520574
641 4 0.46894 0.138686 0.516783
877 2 0.0684297 0.209293 0.581753
878 4 0.0466248 0.203081 0.57121
1199 4 0.0156572 0.193238 0.560097
1034 4 0.119698 0.175441 0.531895
879 4 0.0902345 0.215505 0.592295
856 2 0.234172 0.217592 0.543018
858 4 0.251267 0.203184 0.554213
1221 4 0.191029 0.180334 0.583463
857 4 0.217076 0.232 0.531823
797 4 0.216743 0.240082 0.580209
900 4 0.339757 0.186038 0.52854
872 4 0.413586 0.242139 0.5117
3159 4 0.506729 0.176379 0.55103
983 4 0.0430148 0.340237 0.556395
982 2 0.0309625 0.342215 0.578213
1258 2 0.148092 0.287076 0.524012
1260 4 0.126701 0.290506 0.511528
9 3 0.170121 0.323832 0.513463
1259 4 0.169483 0.283647 0.536496
813 4 0.336281 0.305898 0.535284
871 2 0.390515 0.251088 0.515277
873 4 0.367443 0.260037 0.518855
811 2 0.333524 0.308017 0.510523
1189 2 0.226224 0.365294 0.555967
773 4 0.232591 0.383428 0.519767
1190 4 0.237587 0.372037 0.53474
802 2 0.272419 0.347941 0.535144
803 4 0.253578 0.362894 0.541971
804 4 0.29126 0.332989 0.528317
928 2 0.352791 0.372942 0.566378
929 4 0.361544 0.371711 0.542989
925 2 0.458137 0.393294 0.527652
927 4 0.47385 0.399926 0.545936
926 4 0.442424 0.386662 0.509369
1161 4 0.154021 0.454797 0.558288
1159 2 0.158031 0.456491 0.58291
1171 2 0.228569 0.448741 0.568795
1173 4 0.208245 0.461774 0.562295
882 4 0.312866 0.448037 0.535485
880 2 0.335726 0.457619 0.532202
881 4 0.358586 0.467202 0.528918
1952 4 0.333611 0.476459 0.572574
1002 4 0.414411 0.418364 0.585314
1951 2 0.349603 0.494378 0.579526
1000 2 0.43287 0.430631 0.57374
1001 4 0.45133 0.442898 0.562167
662 4 0.487698 0.47851 0.503598
661 2 0.465877 0.482593 0.492094
1185 4 0.00302931 0.0522323 0.633653
825 4 0.13668 0.026578 0.631468
823 2 0.1525 0.00722688 0.632137
1031 4 0.242285 0.0660108 0.590372
949 2 0.266569 0.0293151 0.592334
951 4 0.247734 0.0453109 0.588519
950 4 0.285404 0.0133193 0.596149
1092 4 0.324769 0.00737622 0.653857
809 4 0.468106 0.0676383 0.607551
808 2 0.460452 0.0749592 0.630201
1083 4 0.0696665 0.0813422 0.621649
1082 4 0.0411692 0.103828 0.656043
1081 2 0.0554179 0.0925853 0.638846
1059 4 0.146471 0.097014 0.592748
1153 2 0.162218 0.13066 0.58647
1155 4 0.164024 0.106239 0.591524
909 4 0.130246 0.149509 0.665416
1284 4 0.17321 0.0807508 0.634393
1283 4 0.203477 0.118645 0.646586
1282 2 0.188344 0.0996979 0.640489
1005 4 0.338573 0.0917901 0.659406
810 4 0.452798 0.0822801 0.65285
1272 4 0.102066 0.231885 0.599286
1270 2 0.125263 0.223297 0.602936
1271 4 0.14846 0.21471 0.606587
1210 2 0.233928 0.194701 0.65233
1212 4 0.210035 0.193402 0.645076
1219 2 0.202018 0.187656 0.604695
1220 4 0.213008 0.194978 0.625927
796 2 0.233801 0.235701 0.597958
798 4 0.250859 0.231319 0.615707
791 4 0.310956 0.233818 0.57862
1211 4 0.257822 0.196 0.659583
904 2 0.476086 0.231624 0.586541
906 4 0.452373 0.224024 0.588802
1024 2 0.447875 0.195675 0.662117
1025 4 0.459382 0.197767 0.640017
905 4 0.499799 0.239224 0.584279
1243 2 0.057018 0.258033 0.620197
1244 4 0.0437561 0.254444 0.599306
1245 4 0.0702799 0.261623 0.641088
1209 4 0.0992723 0.245864 0.662724
946 2 0.191072 0.273908 0.624045
947 4 0.201402 0.252098 0.617503
948 4 0.180742 0.295719 0.630586
792 4 0.313813 0.28354 0.58313
790 2 0.312384 0.258679 0.580875
1238 4 0.299281 0.294108 0.591837
1237 2 0.306758 0.316903 0.598883
954 4 0.432558 0.283468 0.595679
952 2 0.456579 0.290385 0.596277
953 4 0.480599 0.297301 0.596875
984 4 0.0189103 0.344192 0.600031
1040 4 0.0772839 0.401948 0.634589
1039 2 0.0571198 0.390924 0.624737
1041 4 0.0369557 0.3799 0.614885
3263 4 0.0106818 0.351305 0.616944
1137 4 0.113812 0.396711 0.585832
897 4 0.166532 0.361382 0.610578
1136 4 0.0919748 0.356263 0.605524
1135 2 0.102893 0.376487 0.595678
992 4 0.137221 0.423008 0.648253
991 2 0.115766 0.410398 0.64583
993 4 0.0943116 0.397788 0.643407
1191 4 0.214861 0.358552 0.577195
896 4 0.213037 0.370645 0.594697
895 2 0.189785 0.366014 0.602637
1239 4 0.314235 0.339698 0.605928
806 4 0.335207 0.359671 0.662703
930 4 0.344039 0.374173 0.589768
1204 2 0.402308 0.397651 0.637303
1205 4 0.414473 0.376096 0.633756
1172 4 0.248893 0.435709 0.575296
1187 4 0.215593 0.47667 0.602147
1160 4 0.162041 0.458184 0.607531
1186 2 0.213512 0.495071 0.618947
889 2 0.315756 0.450748 0.599939
891 4 0.291232 0.446699 0.597225
1206 4 0.390144 0.419207 0.64085
890 4 0.34028 0.454797 0.602654
1269 4 0.437089 0.458431 0.662092
944 4 0.0646773 0.055622 0.685984
943 2 0.067079 0.0348063 0.672342
945 4 0.0694806 0.0139906 0.658699
1147 2 0.206753 0.0608918 0.738198
1149 4 0.210557 0.0399072 0.75125
1090 2 0.334092 0.00813436 0.677045
1091 4 0.343415 0.00889251 0.700233
1163 4 0.467804 0.0422579 0.680834
1162 2 0.491821 0.0407925 0.687634
42 3 0.444955 0.0666897 0.698557
2320 2 0.486484 0.00364295 0.733657
2283 4 0.428107 0.0115347 0.682002
45 3 0.415178 0.0820422 0.68211
1076 4 0.0310198 0.109993 0.671619
862 2 0.0510258 0.126381 0.747902
864 4 0.0575438 0.123832 0.723898
1075 2 0.0420022 0.107775 0.693971
1077 4 0.0529847 0.105557 0.716324
907 2 0.145305 0.153237 0.685025
908 4 0.160363 0.156965 0.704634
1227 4 0.167078 0.138677 0.70822
1148 4 0.202948 0.0818763 0.725146
1225 2 0.177006 0.117418 0.716862
1226 4 0.186934 0.096159 0.725503
829 2 0.333398 0.153331 0.702574
1003 2 0.337063 0.0887557 0.684179
831 4 0.349622 0.136621 0.71167
1004 4 0.335552 0.0857213 0.708951
43 3 0.437361 0.103082 0.704084
41 1 0.436667 0.085741 0.688683
1142 4 0.427828 0.148743 0.702795
44 3 0.449789 0.0909662 0.670274
3425 4 0.497611 0.151022 0.700346
851 4 0.0742378 0.168148 0.710888
852 4 0.0341193 0.194656 0.697155
850 2 0.0541786 0.181402 0.704022
1213 2 0.0163947 0.222705 0.736289
1107 4 0.0785626 0.181677 0.724277
1178 4 0.992231 0.247294 0.721323
1215 4 0.999588 0.227931 0.71853
1105 2 0.0924502 0.189605 0.743499
1207 2 0.113331 0.240022 0.682559
1208 4 0.127391 0.234181 0.702393
1129 2 0.189015 0.195584 0.749159
1131 4 0.196685 0.219158 0.752423
1130 4 0.181346 0.172011 0.745894
830 4 0.317174 0.170041 0.693477
886 2 0.291645 0.193166 0.681691
888 4 0.276321 0.20016 0.663212
887 4 0.306968 0.186172 0.700169
976 2 0.291358 0.199687 0.735686
978 4 0.278746 0.180564 0.725666
1193 4 0.375246 0.225777 0.663439
1192 2 0.370447 0.214832 0.685402
1194 4 0.365649 0.203887 0.707364
1143 4 0.41781 0.186206 0.734368
1141 2 0.422819 0.167474 0.718581
1026 4 0.436369 0.193584 0.684217
1261 2 0.450895 0.235631 0.722559
1263 4 0.468452 0.246901 0.708778
1262 4 0.433338 0.224362 0.73634
1145 4 0.500095 0.228742 0.74896
1177 2 0.993329 0.271929 0.717187
820 2 0.178973 0.277006 0.740561
821 4 0.167093 0.289799 0.722662
1065 4 0.224729 0.289331 0.705203
1063 2 0.24447 0.29201 0.690094
1064 4 0.264211 0.29469 0.674985
807 4 0.329837 0.324924 0.698264
3123 4 0.481526 0.29221 0.682434
3121 2 0.492706 0.269905 0.68407
3274 2 0.00552831 0.400557 0.727754
892 2 0.0561725 0.366606 0.708099
893 4 0.0704959 0.356254 0.690411
894 4 0.0418492 0.376958 0.725787
3276 4 0.0285826 0.391112 0.729869
940 2 0.141308 0.391785 0.735667
1067 4 0.168251 0.391924 0.715772
941 4 0.165963 0.39589 0.734971
1028 4 0.22254 0.407453 0.689463
1066 2 0.186443 0.404458 0.704061
1068 4 0.204635 0.416991 0.692351
1027 2 0.242665 0.39845 0.677669
805 2 0.332522 0.342297 0.680484
1029 4 0.26279 0.389446 0.665875
1019 4 0.399398 0.382563 0.726684
1281 4 0.0288341 0.44436 0.684883
1280 4 0.0700961 0.439267 0.712671
1279 2 0.0494651 0.441813 0.698777
1983 4 0.0438471 0.485532 0.7205
1981 2 0.0324804 0.483877 0.742709
1176 4 0.215201 0.480045 0.722241
1174 2 0.217286 0.490724 0.699729
1139 4 0.277474 0.415924 0.725983
1138 2 0.288288 0.429979 0.708356
1140 4 0.299102 0.444033 0.690729
1228 2 0.360605 0.462946 0.716073
1229 4 0.354465 0.487183 0.71631
1230 4 0.366745 0.438709 0.715836
1267 2 0.447695 0.47896 0.671645
1100 4 0.433074 0.453082 0.710931
1099 2 0.455375 0.442085 0.713557
1101 4 0.477677 0.431088 0.716183
1294 2 0.0133761 0.0270787 0.801797
911 4 0.0871197 0.046427 0.824686
1203 4 0.116291 0.0793207 0.765243
1201 2 0.112347 0.0570554 0.775915
1202 4 0.108403 0.0347902 0.786586
2049 4 0.0987837 0.0175338 0.781537
1255 2 0.271937 0.0672927 0.818373
1256 4 0.281335 0.087439 0.829817
1257 4 0.262538 0.0471464 0.806928
975 4 0.371124 0.999161 0.813855
973 2 0.351135 0.00123256 0.828731
1112 4 0.433753 0.0528294 0.826331
846 4 0.492307 0.0582521 0.751928
1113 4 0.41666 0.0276053 0.786679
844 2 0.477084 0.0576287 0.771753
1111 2 0.425207 0.0402174 0.806505
845 4 0.461861 0.0570054 0.791579
863 4 0.0445078 0.128931 0.771907
832 2 0.012334 0.132395 0.787734
833 4 0.0292711 0.142205 0.772175
34 3 0.101273 0.153745 0.823402
31 1 0.109941 0.161035 0.803151
33 3 0.128224 0.148036 0.797221
839 4 0.240913 0.129435 0.795409
838 2 0.262558 0.125767 0.807377
840 4 0.284202 0.1221 0.819344
1084 2 0.341661 0.144731 0.807058
1085 4 0.358113 0.137216 0.824321
1086 4 0.325208 0.152245 0.789795
819 4 0.367591 0.118947 0.827926
1214 4 0.0332018 0.217479 0.754048
1073 4 0.0854537 0.224819 0.768278
32 3 0.116773 0.182883 0.80542
1106 4 0.106338 0.197533 0.76272
35 3 0.093963 0.159814 0.786969
1072 2 0.106162 0.238653 0.770507
1074 4 0.12687 0.252487 0.772736
1277 4 0.209572 0.231985 0.760914