ITEM: TIMESTEP
530000
ITEM: NUMBER OF ATOMS
4590
ITEM: BOX BOUNDS pp pp pp
-9.9985700000000008e+00 9.9985700000000008e+00
-9.9985700000000008e+00 9.9985700000000008e+00
-9.9985700000000008e+00 9.9985700000000008e+00
ITEM: ATOMS id type xs ys zs
463 2 0.0392938 0.0678798 0.0423417
464 4 0.0175626 0.055833 0.0395474
1667 4 0.0923889 0.0252967 0.085974
492 4 0.260353 0.999682 0.0716373
490 2 0.266681 0.0136362 0.0518784
491 4 0.273009 0.0275907 0.0321196
296 4 0.357501 0.0509528 0.0798846
557 4 0.359342 0.061661 0.0623608
1608 4 0.402795 0.0142747 0.0200146
556 2 0.342053 0.0780012 0.0700591
745 2 0.459291 0.0670929 0.0197329
2469 4 0.494705 0.0375975 0.0307447
465 4 0.061025 0.0799265 0.0451359
701 4 0.0690812 0.0822806 0.025955
589 2 0.0285006 0.136282 0.065742
591 4 0.0162554 0.12255 0.0488111
590 4 0.0407457 0.150015 0.0826729
3234 4 0.0223998 0.145895 0.000494509
700 2 0.0935034 0.0858034 0.0299955
702 4 0.117926 0.0893263 0.0340361
566 4 0.125096 0.106167 0.0437373
565 2 0.145042 0.121242 0.0440639
567 4 0.164988 0.136316 0.0443906
423 4 0.098015 0.167329 0.0165781
360 4 0.265059 0.129916 0.0147567
558 4 0.324764 0.0943413 0.0777574
746 4 0.467009 0.0827059 0.037673
770 4 0.440825 0.143772 0.0524994
769 2 0.455223 0.159744 0.0652576
553 2 0.0464535 0.208841 0.00475312
836 4 0.0767389 0.232902 0.0150726
555 4 0.0651685 0.216799 0.0192999
835 2 0.100772 0.235458 0.00866366
837 4 0.124804 0.238013 0.00225473
571 2 0.329553 0.244887 0.0298034
461 4 0.327174 0.219084 0.0618257
573 4 0.32622 0.223656 0.0425837
666 4 0.315852 0.213155 0.0286271
664 2 0.323981 0.189557 0.0271286
324 4 0.379158 0.243122 0.0845258
322 2 0.402099 0.250536 0.077899
665 4 0.33211 0.165959 0.0256301
771 4 0.469621 0.175717 0.0780158
1014 4 0.463364 0.228261 0.00435125
2808 4 0.00291302 0.281764 0.00431611
292 2 0.139837 0.317186 0.0376613
293 4 0.162173 0.315522 0.0487748
294 4 0.1175 0.318849 0.0265478
507 4 0.159793 0.300542 0.061203
505 2 0.181813 0.30173 0.0729871
355 2 0.24913 0.270129 0.0203843
357 4 0.231195 0.282554 0.0325964
506 4 0.203834 0.302918 0.0847712
572 4 0.332885 0.266117 0.017023
609 4 0.28268 0.325012 0.0796666
482 4 0.263424 0.321547 0.0765199
356 4 0.267065 0.257704 0.00817223
1071 4 0.405204 0.252457 0.039085
1069 2 0.40284 0.268504 0.0200566
1070 4 0.400477 0.284551 0.00102825
741 4 0.348 0.318144 0.072422
519 4 0.484278 0.279213 0.0742951
670 2 0.450574 0.329544 0.073845
323 4 0.42504 0.25795 0.0712723
328 2 0.00288594 0.414146 0.0615417
286 2 0.15632 0.382228 0.00695973
287 4 0.151024 0.370277 0.0282742
251 4 0.258019 0.404486 0.0294238
252 4 0.286787 0.372985 0.0555154
250 2 0.272403 0.388736 0.0424696
608 4 0.284092 0.374813 0.0753607
607 2 0.283386 0.349913 0.0775137
281 4 0.47095 0.348909 0.0393858
671 4 0.464194 0.340993 0.0562778
280 2 0.473001 0.370219 0.0264692
282 4 0.475052 0.391529 0.0135526
330 4 0.00713088 0.437658 0.0689122
551 4 0.0689606 0.442766 0.025345
550 2 0.0842123 0.437952 0.0445644
552 4 0.099464 0.433137 0.0637837
627 4 0.222753 0.452669 0.0682636
625 2 0.20013 0.442601 0.0717287
245 4 0.242653 0.459137 0.0685306
626 4 0.177507 0.432533 0.0751937
244 2 0.247324 0.477395 0.0520983
246 4 0.251994 0.495653 0.035666
272 4 0.261526 0.48918 0.0198732
271 2 0.285911 0.486805 0.0148814
524 4 0.318967 0.472714 0.0770719
273 4 0.310296 0.484429 0.00988961
227 4 0.469441 0.4638 0.0695668
226 2 0.473537 0.456672 0.0459531
563 4 0.434822 0.451904 0.0101206
228 4 0.477632 0.449545 0.0223394
562 2 0.442027 0.47351 0.999803
20 3 0.0441763 0.0788764 0.147573
1806 4 0.0981567 0.0122892 0.136436
1506 4 0.18944 0.00468653 0.162132
1505 4 0.223944 0.040717 0.158662
1504 2 0.206692 0.0227017 0.160397
652 2 0.293722 0.0102691 0.162588
653 4 0.285726 0.0256384 0.144559
295 2 0.358447 0.0276229 0.0888289
297 4 0.359393 0.00429302 0.0977731
758 4 0.403471 0.0619967 0.153184
2724 4 0.496668 0.00702606 0.143899
2722 2 0.500375 0.0316525 0.14613
237 4 0.140924 0.144597 0.145131
235 2 0.157479 0.13032 0.157267
236 4 0.174034 0.116043 0.169402
449 4 0.179438 0.0973551 0.166716
693 4 0.192055 0.111569 0.162852
337 2 0.0680404 0.229908 0.143926
339 4 0.0434124 0.233201 0.141134
2625 4 0.998326 0.169785 0.116865
338 4 0.0926684 0.226615 0.146718
476 4 0.149019 0.219836 0.122723
475 2 0.124266 0.221076 0.126034
477 4 0.0995139 0.222316 0.129344
737 4 0.165918 0.228235 0.129374
363 4 0.104582 0.224318 0.16352
738 4 0.206042 0.237188 0.100903
736 2 0.18598 0.232711 0.115139
285 4 0.255581 0.191231 0.152042
283 2 0.274698 0.19034 0.168133
460 2 0.335097 0.213403 0.0848501
630 4 0.411983 0.182791 0.11609
254 4 0.399181 0.180939 0.10143
255 4 0.36056 0.207967 0.118124
462 4 0.34302 0.207721 0.107875
253 2 0.379871 0.194453 0.109777
629 4 0.459836 0.184032 0.130554
628 2 0.435909 0.183411 0.123322
619 2 0.00375885 0.327971 0.120297
483 4 0.221569 0.298362 0.0910562
481 2 0.242496 0.309954 0.083788
354 4 0.276997 0.264925 0.0913605
352 2 0.278485 0.274008 0.114608
353 4 0.279973 0.283092 0.137856
754 2 0.294158 0.318436 0.14971
755 4 0.285574 0.295006 0.151311
278 4 0.27097 0.282542 0.155658
672 4 0.436954 0.318096 0.0914122
620 4 0.0257104 0.339848 0.118799
647 4 0.0447118 0.346124 0.113704
646 2 0.0564764 0.347098 0.135746
648 4 0.068241 0.348072 0.157787
456 4 0.102106 0.339964 0.0968031
455 4 0.115638 0.388102 0.0961576
454 2 0.108872 0.364033 0.0964804
537 4 0.172253 0.370942 0.141722
535 2 0.195163 0.360926 0.141912
536 4 0.218072 0.350911 0.142102
756 4 0.302741 0.341865 0.148109
612 4 0.282181 0.347105 0.150854
610 2 0.267319 0.36193 0.164437
387 4 0.322041 0.368154 0.161407
739 2 0.35359 0.334517 0.0904734
740 4 0.35918 0.35089 0.108525
15 3 0.371579 0.364627 0.115389
385 2 0.338194 0.364157 0.142745
386 4 0.354347 0.360159 0.124082
11 1 0.391953 0.368742 0.124696
13 3 0.401762 0.348813 0.131408
14 3 0.38962 0.382946 0.142895
12 3 0.405517 0.378819 0.109088
495 4 0.39315 0.401234 0.151668
645 4 0.463164 0.384639 0.141425
597 4 0.471598 0.403721 0.149829
643 2 0.459832 0.373879 0.163747
315 4 0.0062209 0.442503 0.119694
638 4 0.27885 0.503724 0.150523
523 2 0.340383 0.461777 0.0839189
525 4 0.3618 0.450839 0.0907659
658 2 0.379775 0.482527 0.139169
493 2 0.391898 0.423003 0.139432
660 4 0.386383 0.464516 0.123134
494 4 0.390647 0.444772 0.127195
595 2 0.478894 0.426235 0.157895
19 3 0.013537 0.080065 0.169424
16 1 0.0361343 0.0748769 0.168501
18 3 0.0393817 0.052596 0.174106
1404 4 0.0763686 0.00328175 0.244173
2480 4 0.0142645 0.0138081 0.17158
450 4 0.151399 0.0562803 0.171949
448 2 0.165418 0.0768177 0.169333
673 2 0.110769 0.0742503 0.226811
674 4 0.133387 0.083397 0.232283
675 4 0.0881508 0.0651036 0.221339
28 3 0.31485 0.0766699 0.237305
21 1 0.371709 0.0266552 0.225285
24 3 0.353907 0.0130264 0.219305
25 3 0.379319 0.0379522 0.207033
759 4 0.384321 0.0565084 0.199052
757 2 0.393896 0.0592526 0.176118
22 3 0.364536 0.04175 0.241091
23 3 0.388795 0.013843 0.234357
742 2 0.485773 0.0208882 0.246057
744 4 0.46704 0.0361069 0.252588
379 2 0.00521731 0.118453 0.172175
17 3 0.0474147 0.0880639 0.183601
381 4 0.0112653 0.142661 0.173789
511 2 0.031271 0.151091 0.208994
512 4 0.0192141 0.154785 0.187403
513 4 0.0433279 0.147398 0.230585
578 4 0.0768404 0.144529 0.18346
579 4 0.114001 0.111145 0.18576
577 2 0.0954208 0.127837 0.18461
691 2 0.215692 0.109319 0.170687
692 4 0.239329 0.107069 0.178522
723 4 0.189357 0.141168 0.207692
721 2 0.189347 0.148213 0.231683
582 4 0.254307 0.118301 0.186216
580 2 0.271188 0.115059 0.204373
581 4 0.288069 0.111817 0.22253
30 3 0.3089 0.110622 0.222155
26 1 0.317125 0.0995682 0.240289
27 3 0.339445 0.104569 0.242729
312 4 0.422079 0.149767 0.179286
310 2 0.428044 0.132104 0.195948
311 4 0.43401 0.114442 0.212611
362 4 0.124144 0.238036 0.20745
361 2 0.114363 0.231177 0.185485
372 4 0.127855 0.250514 0.221986
370 2 0.15208 0.24743 0.227355
284 4 0.293815 0.189449 0.184224
307 2 0.318739 0.243586 0.213103
763 2 0.379574 0.239921 0.192613
765 4 0.388755 0.216911 0.189231
308 4 0.338434 0.233898 0.22508
395 4 0.0519744 0.294829 0.225167
394 2 0.0352408 0.280496 0.236987
750 4 0.0682121 0.306926 0.224085
396 4 0.0185072 0.266163 0.248808
748 2 0.0893841 0.293626 0.22389
749 4 0.110556 0.280326 0.223695
371 4 0.176305 0.244347 0.232724
279 4 0.23917 0.280292 0.194186
277 2 0.25507 0.281417 0.174922
309 4 0.299045 0.253273 0.201126
764 4 0.370393 0.262931 0.195994
623 4 0.378099 0.282003 0.192571
622 2 0.399388 0.290251 0.182377
528 4 0.459543 0.250522 0.222962
624 4 0.420677 0.298499 0.172182
527 4 0.470609 0.2619 0.17554
526 2 0.465076 0.256211 0.199251
300 4 0.144903 0.338509 0.224378
298 2 0.136619 0.349766 0.24511
602 4 0.0873054 0.411071 0.244962
290 4 0.229717 0.399344 0.234838
289 2 0.21695 0.417167 0.222817
611 4 0.252457 0.376756 0.178021
302 4 0.332818 0.383923 0.168843
303 4 0.342295 0.397966 0.215893
301 2 0.337556 0.390944 0.192368
644 4 0.4565 0.363118 0.18607
447 4 0.451053 0.365548 0.204502
445 2 0.470248 0.3716 0.219338
446 4 0.489442 0.377652 0.234174
262 2 0.0483897 0.430004 0.238919
264 4 0.0240635 0.435694 0.237898
263 4 0.0727159 0.424314 0.23994
1757 4 0.066473 0.495511 0.239188
1430 4 0.175225 0.490454 0.182965
417 4 0.181766 0.472398 0.183961
415 2 0.182807 0.452218 0.198686
291 4 0.204183 0.434991 0.210796
416 4 0.183849 0.432037 0.213411
767 4 0.280737 0.497232 0.169565
768 4 0.256544 0.457384 0.187663
766 2 0.26864 0.477308 0.178614
437 4 0.282669 0.445374 0.246082
714 4 0.421027 0.493075 0.233215
231 4 0.416268 0.495232 0.177266
596 4 0.486189 0.448749 0.165962
1799 4 0.0263937 0.00612285 0.284695
232 2 0.00852125 0.0447549 0.280195
233 4 0.0240937 0.0253324 0.282529
1402 2 0.0578587 0.0100954 0.259539
1403 4 0.0393489 0.0169091 0.274906
318 4 0.030091 0.0684865 0.330821
689 4 0.21773 0.0174808 0.257542
1699 2 0.236 0.0501187 0.312176
1701 4 0.244876 0.0269326 0.315142
1700 4 0.227123 0.0733048 0.30921
697 2 0.395951 0.0464189 0.319032
699 4 0.392795 0.0271949 0.303359
1518 4 0.372632 0.0237189 0.306088
478 2 0.473391 0.0306825 0.307906
351 4 0.448034 0.0456058 0.257229
349 2 0.446337 0.070209 0.261351
479 4 0.491392 0.0267512 0.291003
480 4 0.455391 0.0346139 0.324809
398 4 0.0811378 0.139317 0.295484
397 2 0.0898463 0.122055 0.31134
399 4 0.0985547 0.104794 0.327195
248 4 0.217613 0.0895846 0.317095
249 4 0.199025 0.134934 0.307165
247 2 0.208319 0.112259 0.31213
404 4 0.209453 0.146282 0.292991
546 4 0.182036 0.161733 0.274
722 4 0.189337 0.155258 0.255673
403 2 0.215766 0.166631 0.279906
29 3 0.305811 0.106226 0.259422
632 4 0.37985 0.125613 0.325116
631 2 0.38926 0.104465 0.33457
350 4 0.444641 0.0948121 0.265472
331 2 0.442249 0.164618 0.281522
333 4 0.418225 0.164851 0.274596
389 4 0.0609339 0.223639 0.330596
393 4 0.0814314 0.205729 0.282781
392 4 0.128736 0.192706 0.273117
391 2 0.105084 0.199217 0.277949
545 4 0.134958 0.176644 0.281879
544 2 0.158497 0.169189 0.27794
405 4 0.22208 0.186981 0.266821
707 4 0.326085 0.210693 0.330554
377 4 0.306494 0.23703 0.328541
378 4 0.272344 0.244182 0.292717
376 2 0.289419 0.240606 0.310629
420 4 0.38803 0.21703 0.328705
332 4 0.466273 0.164386 0.288448
762 4 0.485044 0.173637 0.284832
520 2 0.493599 0.23306 0.253747
760 2 0.488494 0.18754 0.305325
761 4 0.491943 0.201443 0.325819
443 4 0.00759917 0.266935 0.265834
364 2 0.0177504 0.327237 0.294335
365 4 0.0322695 0.313227 0.279567
401 4 0.188471 0.271128 0.292061
345 4 0.238489 0.311419 0.291464
400 2 0.210039 0.28323 0.295744
402 4 0.231606 0.295332 0.299427
510 4 0.225393 0.313515 0.305138
508 2 0.219443 0.334836 0.316764
344 4 0.28241 0.309017 0.267676
343 2 0.260449 0.310218 0.27957
717 4 0.391954 0.248349 0.337594
498 4 0.357227 0.328289 0.295378
496 2 0.352413 0.304782 0.288347
497 4 0.347599 0.281276 0.281316
521 4 0.481429 0.253043 0.262565
542 4 0.447702 0.326015 0.30298
366 4 0.00323134 0.341247 0.309103
299 4 0.128334 0.361023 0.265843
601 2 0.103287 0.394282 0.254338
603 4 0.119268 0.377494 0.263714
734 4 0.137691 0.376871 0.271625
733 2 0.153019 0.39417 0.281163
735 4 0.168346 0.41147 0.290701
677 4 0.185544 0.4015 0.293266
676 2 0.201927 0.387543 0.305993
678 4 0.21831 0.373587 0.31872
509 4 0.213493 0.356158 0.328391
435 4 0.284395 0.36927 0.30271
433 2 0.293071 0.375609 0.325287
729 4 0.351423 0.377853 0.254177
727 2 0.35057 0.38658 0.277593
615 4 0.391265 0.34792 0.319959
613 2 0.37375 0.363435 0.328775
728 4 0.349716 0.395307 0.301008
543 4 0.400346 0.342061 0.303757
541 2 0.424024 0.334038 0.303369
2538 4 0.467458 0.349127 0.28629
2537 4 0.491432 0.392964 0.28837
2536 2 0.479445 0.371045 0.28733
549 4 0.0309846 0.428122 0.320479
777 4 0.088856 0.44993 0.28961
775 2 0.109531 0.46395 0.290684
776 4 0.130207 0.47797 0.291758
414 4 0.144099 0.464879 0.296218
412 2 0.161615 0.477687 0.30864
413 4 0.179131 0.490495 0.321063
436 2 0.291245 0.432547 0.265757
438 4 0.299822 0.419721 0.285432
712 2 0.421611 0.500948 0.256939
2861 4 0.496202 0.485205 0.273831
316 2 0.0299411 0.072893 0.355433
317 4 0.0297911 0.0772996 0.380044
1772 4 0.0314188 0.0111062 0.417625
604 2 0.19823 0.0870504 0.383503
605 4 0.191848 0.077182 0.361434
441 4 0.319209 0.0139632 0.378895
698 4 0.399107 0.0656428 0.334706
257 4 0.415322 0.075732 0.336918
424 2 0.40692 0.0411197 0.402403
425 4 0.389392 0.0282437 0.414737
256 2 0.42587 0.0716273 0.359213
426 4 0.424449 0.0539958 0.390069
258 4 0.436418 0.0675226 0.381508
459 4 0.00399081 0.166979 0.394348
457 2 0.0265493 0.161026 0.403339
732 4 0.139626 0.0776467 0.369322
731 4 0.101428 0.0891273 0.339158
730 2 0.120527 0.083387 0.35424
606 4 0.204613 0.0969189 0.405573
600 4 0.192859 0.13175 0.355758
598 2 0.177076 0.148335 0.365809
683 4 0.257821 0.0808337 0.372271
682 2 0.275177 0.0893335 0.388135
684 4 0.292534 0.0978334 0.404
320 4 0.298239 0.116415 0.407455
633 4 0.39867 0.0833166 0.344025
516 4 0.416668 0.146484 0.409782
451 2 0.492034 0.147296 0.382202
515 4 0.447942 0.145683 0.370769
514 2 0.432305 0.146084 0.390276
453 4 0.46722 0.147199 0.37913
388 2 0.0708677 0.240927 0.345684
687 4 0.164358 0.17888 0.39049
599 4 0.161294 0.16492 0.37586
473 4 0.249807 0.167857 0.3598
685 2 0.174985 0.200191 0.398108
686 4 0.185612 0.221503 0.405727
474 4 0.273224 0.211985 0.362049
472 2 0.261515 0.189921 0.360924
488 4 0.271953 0.222096 0.379136
487 2 0.279682 0.23486 0.399199
418 2 0.407267 0.206675 0.340867
706 2 0.345205 0.198684 0.341296
708 4 0.364324 0.186675 0.352038
468 4 0.380104 0.225016 0.412498
419 4 0.426503 0.196321 0.353029
305 4 0.458192 0.202138 0.420297
390 4 0.0808016 0.258215 0.360771
616 2 0.0756457 0.325834 0.378482
618 4 0.059606 0.306763 0.380527
347 4 0.0533894 0.303227 0.400439
275 4 0.141338 0.289169 0.382589
274 2 0.160484 0.276796 0.39286
276 4 0.17963 0.264422 0.403131
373 2 0.204711 0.316529 0.388846
374 4 0.2196 0.308206 0.370563
375 4 0.189823 0.324851 0.407128
715 2 0.372119 0.26097 0.346106
716 4 0.352284 0.273592 0.354619
406 2 0.0769418 0.401354 0.383066
407 4 0.0660162 0.410843 0.362675
548 4 0.0719539 0.411179 0.343613
617 4 0.0916855 0.344906 0.376438
408 4 0.0878673 0.391865 0.403456
504 4 0.212994 0.390069 0.414414
502 2 0.237635 0.393316 0.417149
434 4 0.301748 0.381948 0.347864
336 4 0.304004 0.39532 0.41204
614 4 0.356236 0.37895 0.33759
2924 4 0.495893 0.339708 0.357783
561 4 0.46073 0.359266 0.381013
752 4 0.454466 0.370611 0.366579
559 2 0.471217 0.366344 0.402579
751 2 0.462325 0.390902 0.354263
753 4 0.470184 0.411193 0.341947
547 2 0.0514692 0.419651 0.332046
500 4 0.156842 0.497314 0.377173
499 2 0.134701 0.48963 0.385886
501 4 0.11256 0.481946 0.394599
5 3 0.292863 0.4799 0.383365
1 1 0.307109 0.47311 0.399784
4 3 0.299506 0.453296 0.409167
3 3 0.328391 0.470083 0.391049
592 2 0.411462 0.486125 0.358076
594 4 0.419822 0.462717 0.360785
718 2 0.0339561 0.0687037 0.46477
720 4 0.031663 0.052717 0.483858
2237 4 0.0371103 0.0361162 0.492409
2236 2 0.0313721 0.01429 0.481645
1127 4 0.0202611 0.044418 0.49762
368 4 0.0883559 0.01881 0.446823
367 2 0.113105 0.0160894 0.449116
369 4 0.137854 0.0133688 0.451409
1181 4 0.218786 0.0859398 0.479998
1180 2 0.243331 0.0814493 0.481593
1182 4 0.267877 0.0769587 0.483189
726 4 0.289629 0.0569502 0.437416
724 2 0.30741 0.0712496 0.447641
432 4 0.313184 0.049022 0.491334
963 4 0.293376 0.0428009 0.489865
2878 2 0.491487 0.0694591 0.464387
719 4 0.0362493 0.0846905 0.445683
458 4 0.0491079 0.155072 0.412331
725 4 0.325191 0.0855489 0.457865
321 4 0.291994 0.129804 0.45523
319 2 0.295116 0.123109 0.431343
574 2 0.393507 0.141148 0.446953
575 4 0.405432 0.149466 0.426611
576 4 0.381583 0.13283 0.467295
642 4 0.475945 0.105555 0.466506
2880 4 0.474169 0.0865007 0.47029
640 2 0.457467 0.121647 0.471486
641 4 0.438989 0.137738 0.476467
471 4 0.998985 0.181369 0.456752
469 2 0.0200287 0.184575 0.469869
470 4 0.0410728 0.187781 0.482985
260 4 0.0942064 0.234658 0.457921
261 4 0.111908 0.18861 0.466105
259 2 0.103057 0.211634 0.462013
1035 4 0.106335 0.187484 0.485931
411 4 0.27949 0.16681 0.437869
409 2 0.279316 0.180487 0.458799
410 4 0.279143 0.194165 0.479729
900 4 0.290074 0.201931 0.496001
466 2 0.399392 0.209546 0.416219
467 4 0.418679 0.194077 0.419941
266 4 0.348762 0.24669 0.447789
304 2 0.46173 0.204359 0.444949
306 4 0.465267 0.20658 0.469601
346 2 0.0524588 0.308322 0.4249
348 4 0.0515283 0.313416 0.449361
326 4 0.0590798 0.325498 0.461207
695 4 0.0907361 0.253888 0.457395
694 2 0.0922863 0.265568 0.479448
696 4 0.0938366 0.277248 0.501502
7 3 0.141646 0.325417 0.487764
6 1 0.163833 0.33046 0.484372
325 2 0.0828532 0.331193 0.466458
10 3 0.175066 0.311466 0.478742
651 4 0.231112 0.297127 0.485553
489 4 0.287411 0.247623 0.419262
650 4 0.279738 0.297738 0.497209
649 2 0.255425 0.297432 0.491381
267 4 0.357796 0.295819 0.450131
265 2 0.353279 0.271255 0.44896
584 4 0.497679 0.291804 0.475333
583 2 0.474514 0.28299 0.472034
585 4 0.451349 0.274177 0.468736
2812 2 0.00345891 0.386124 0.444874
2813 4 0.0102295 0.367274 0.459841
327 4 0.106627 0.336888 0.471709
635 4 0.198974 0.413009 0.479979
8 3 0.165456 0.345998 0.467216
711 4 0.166144 0.365298 0.464567
709 2 0.18533 0.379559 0.471895
710 4 0.204516 0.393821 0.479223
774 4 0.216912 0.40711 0.483323
503 4 0.262275 0.396564 0.419885
669 4 0.301287 0.413866 0.464697
334 2 0.323217 0.381549 0.420188
238 2 0.369724 0.377764 0.455489
240 4 0.349559 0.381566 0.441202
335 4 0.34243 0.367777 0.428336
239 4 0.389888 0.373962 0.469776
587 4 0.415744 0.407706 0.467767
560 4 0.481704 0.373423 0.424146
926 4 0.425412 0.39766 0.481243
2507 4 0.48758 0.392218 0.430757
539 4 0.0617719 0.494292 0.49009
935 4 0.0104987 0.416456 0.491
679 2 0.0526414 0.454386 0.457782
1383 4 0.0310933 0.480123 0.435372
681 4 0.0704488 0.43757 0.46281
680 4 0.034834 0.471203 0.452754
382 2 0.111064 0.432736 0.450233
568 2 0.154827 0.470319 0.436391
383 4 0.0861517 0.431736 0.452121
569 4 0.138875 0.451065 0.436523
384 4 0.135976 0.433736 0.448346
570 4 0.170778 0.489572 0.436258
634 2 0.206663 0.432983 0.467052
636 4 0.214352 0.452957 0.454126
2 3 0.308019 0.489229 0.41617
667 2 0.298368 0.42569 0.442861
668 4 0.295449 0.437515 0.421024
588 4 0.410724 0.457028 0.474311
586 2 0.413234 0.432367 0.471039
663 4 0.481826 0.452834 0.488549
1126 2 0.0237728 0.0560836 0.519455
1128 4 0.0272844 0.0677492 0.54129
1058 4 0.140831 0.04473 0.571936
1057 2 0.14345 0.0671765 0.582635
342 4 0.184911 0.0795345 0.518178
2430 4 0.183494 0.0194715 0.508834
340 2 0.191605 0.055766 0.51425
341 4 0.1983 0.0319975 0.510323
1031 4 0.253224 0.0626208 0.55343
951 4 0.272806 0.0571533 0.558083
961 2 0.280196 0.0246008 0.500829
962 4 0.267015 0.00640065 0.511793
430 2 0.326822 0.0658149 0.503871
949 2 0.270165 0.0404534 0.576504
1217 4 0.397996 0.049825 0.561594
1216 2 0.399507 0.0251213 0.565146
841 2 0.378766 0.0707981 0.535782
842 4 0.39996 0.0623027 0.545972
431 4 0.340461 0.0826078 0.516407
1218 4 0.401018 0.000417508 0.568699
939 4 0.0890679 0.142279 0.510331
938 4 0.0808384 0.105529 0.543231
937 2 0.0849531 0.123904 0.526781
1034 4 0.079717 0.158942 0.517197
1155 4 0.149456 0.106789 0.583881
1151 4 0.167986 0.110599 0.559877
1150 2 0.16804 0.100154 0.53716
1030 2 0.241959 0.0847948 0.555998
1152 4 0.168095 0.0897085 0.514443
1032 4 0.230694 0.106969 0.558566
858 4 0.256368 0.164991 0.503935
843 4 0.357573 0.0792936 0.525592
878 4 0.0438768 0.216882 0.551587
1199 4 0.0244832 0.220579 0.558272
1198 2 0.000373086 0.222406 0.551905
877 2 0.0629957 0.210902 0.56655
879 4 0.0821146 0.204922 0.581513
1033 2 0.0930261 0.173213 0.501564
1272 4 0.101323 0.208428 0.578585
857 4 0.270848 0.199189 0.537425
856 2 0.263608 0.18209 0.52068
898 2 0.313424 0.2011 0.504905
792 4 0.30549 0.252499 0.5815
899 4 0.336774 0.20027 0.513808
871 2 0.409403 0.228414 0.532524
873 4 0.38822 0.220831 0.543432
872 4 0.430585 0.235996 0.521615
3158 4 0.48763 0.183663 0.527937
983 4 0.0625159 0.313368 0.570837
1258 2 0.127013 0.28101 0.520038
1260 4 0.111145 0.268456 0.505348
1259 4 0.142881 0.293564 0.534727
791 4 0.270391 0.250789 0.54592
790 2 0.28794 0.251644 0.56371
811 2 0.307506 0.321907 0.508197
804 4 0.265259 0.328465 0.509223
813 4 0.331729 0.327114 0.511565
812 4 0.283284 0.3167 0.504829
954 4 0.472286 0.30305 0.550241
1011 4 0.490149 0.308965 0.557361
952 2 0.455266 0.301775 0.568513
1136 4 0.0903996 0.36805 0.56449
1135 2 0.106669 0.379211 0.57985
9 3 0.172586 0.339328 0.503946
1189 2 0.224123 0.378731 0.557173
773 4 0.240098 0.390357 0.52434
1190 4 0.241445 0.378153 0.539152
1191 4 0.2068 0.379309 0.575195
772 2 0.228505 0.398734 0.503832
896 4 0.189864 0.388433 0.584403
803 4 0.240698 0.370258 0.521503
802 2 0.252979 0.349362 0.515363
930 4 0.295061 0.387957 0.556286
928 2 0.296503 0.38167 0.532128
929 4 0.297945 0.375384 0.507971
927 4 0.44163 0.374678 0.522589
3309 4 0.48993 0.386712 0.567257
925 2 0.433521 0.386169 0.501916
936 4 0.00626711 0.448288 0.529334
934 2 0.00838291 0.432372 0.510167
1161 4 0.163752 0.487438 0.559673
1159 2 0.178665 0.480245 0.578409
882 4 0.307007 0.462392 0.50881
891 4 0.304265 0.454808 0.569328
880 2 0.326149 0.47247 0.521346
881 4 0.345292 0.482548 0.533883
1952 4 0.358936 0.478252 0.548649
1002 4 0.411739 0.426758 0.551938
1000 2 0.42485 0.447993 0.553472
1001 4 0.437961 0.469228 0.555005
662 4 0.488079 0.481056 0.529355
661 2 0.484952 0.466945 0.508952
1911 4 0.438921 0.487932 0.548782
1332 4 0.487688 0.498166 0.518286
1909 2 0.447332 0.502142 0.567557
1184 4 0.0184974 0.998629 0.623065
943 2 0.065969 0.0234061 0.647479
945 4 0.0632286 0.00120724 0.658654
944 4 0.0687094 0.045605 0.636305
825 4 0.109737 0.00743334 0.613234
823 2 0.1279 0.00112537 0.629219
950 4 0.267524 0.0237535 0.594924
1090 2 0.319272 0.000345485 0.651645
1091 4 0.315463 0.0173407 0.669585
808 2 0.490869 0.0780426 0.632943
44 3 0.470124 0.0702869 0.663426
1083 4 0.0277416 0.145912 0.632546
1081 2 0.0260374 0.125234 0.646498
1082 4 0.0243333 0.104555 0.66045
1059 4 0.146069 0.0896229 0.593334
1153 2 0.155637 0.130669 0.587974
909 4 0.104713 0.125503 0.66734
1154 4 0.161818 0.154548 0.592067
1284 4 0.190125 0.088073 0.63142
1282 2 0.181539 0.0989005 0.652258
45 3 0.435906 0.085844 0.661235
810 4 0.481532 0.0837873 0.655415
3008 4 0.496722 0.0884614 0.600887
1243 2 0.0662931 0.230761 0.621577
1245 4 0.0839958 0.228455 0.639083
1244 4 0.0485904 0.233068 0.60407
1270 2 0.115002 0.219877 0.596106
1271 4 0.128681 0.231326 0.613627
1209 4 0.0860771 0.220118 0.657414
1221 4 0.164361 0.173805 0.59856
1210 2 0.237494 0.192369 0.642045
1212 4 0.223408 0.197951 0.622156
1219 2 0.187227 0.181443 0.605195
1220 4 0.210092 0.189081 0.611829
796 2 0.215532 0.233384 0.607098
798 4 0.210913 0.209395 0.612425
1211 4 0.251581 0.186787 0.661934
888 4 0.271948 0.18251 0.656172
905 4 0.495046 0.243679 0.587362
3123 4 0.462381 0.243984 0.653422
982 2 0.0581143 0.329394 0.589518
947 4 0.163248 0.257766 0.644304
797 4 0.220152 0.257373 0.601772
946 2 0.183876 0.267167 0.654852
1238 4 0.307475 0.270685 0.587071
1237 2 0.306449 0.287553 0.605499
1239 4 0.305424 0.304421 0.623927
906 4 0.44855 0.261489 0.592015
904 2 0.471798 0.252584 0.589689
953 4 0.438246 0.3005 0.586785
984 4 0.0537128 0.34542 0.608199
1039 2 0.0868608 0.36097 0.627031
1041 4 0.0672968 0.346063 0.622534
3263 4 0.0505158 0.356016 0.624194
3262 2 0.0292664 0.353173 0.637061
3264 4 0.00801702 0.350329 0.649928
897 4 0.139883 0.386976 0.585081
895 2 0.164873 0.387704 0.584742
1137 4 0.122938 0.390372 0.59521
1040 4 0.106425 0.375876 0.631529
991 2 0.126934 0.404283 0.654618
993 4 0.11582 0.391631 0.636136
1204 2 0.421927 0.40479 0.660201
1172 4 0.217032 0.416849 0.596643
1188 4 0.205716 0.500274 0.655426
1173 4 0.192025 0.458014 0.610091
1171 2 0.204529 0.437431 0.603367
1187 4 0.18793 0.47627 0.615324
1160 4 0.193577 0.473051 0.597146
1186 2 0.196823 0.488272 0.635375
889 2 0.322246 0.461073 0.585533
890 4 0.340227 0.467339 0.601738
1205 4 0.441098 0.420547 0.657142
1269 4 0.446909 0.46104 0.644705
1147 2 0.211421 0.070788 0.734313
1149 4 0.219318 0.0471588 0.732195
1004 4 0.342842 0.0770542 0.717383
1163 4 0.489933 0.0701898 0.665998
42 3 0.4394 0.0486921 0.661887
41 1 0.447903 0.0685192 0.66987
43 3 0.446341 0.0685702 0.693021
1076 4 0.0404245 0.103071 0.672359
864 4 0.0638605 0.116306 0.736577
1075 2 0.0467905 0.110896 0.695237
1077 4 0.0531565 0.11872 0.718116
907 2 0.12814 0.12876 0.675447
908 4 0.151568 0.132017 0.683554
1227 4 0.168066 0.121507 0.687959
1106 4 0.132252 0.156544 0.751413
1283 4 0.172952 0.109728 0.673096
1148 4 0.203525 0.0944173 0.736432
1225 2 0.185839 0.113439 0.703586
1226 4 0.203612 0.105371 0.719213
1005 4 0.298115 0.0992213 0.714419
1003 2 0.320479 0.0881377 0.715901
1142 4 0.382811 0.164467 0.722481
845 4 0.482937 0.0869143 0.73416
1025 4 0.482872 0.154862 0.685386
852 4 0.0526008 0.181326 0.708881
850 2 0.0617257 0.183605 0.732048
1213 2 0.0126351 0.213839 0.745185
1214 4 0.0281779 0.195852 0.752936
1207 2 0.0958933 0.20705 0.676336
1208 4 0.105709 0.193981 0.695257
1073 4 0.108145 0.230951 0.737716
1072 2 0.0879556 0.238367 0.750466
1130 4 0.169616 0.199502 0.71041
1129 2 0.174194 0.216142 0.728502
1131 4 0.178773 0.232783 0.746594
830 4 0.315302 0.1739 0.699534
886 2 0.28387 0.180096 0.678017
887 4 0.295793 0.177682 0.699862
976 2 0.308054 0.195217 0.736238
978 4 0.307898 0.186615 0.712761
831 4 0.364295 0.165706 0.693768
829 2 0.339798 0.169803 0.696651
1192 2 0.36897 0.236394 0.682739
1194 4 0.384801 0.219713 0.672926
1141 2 0.404454 0.173424 0.713733
1024 2 0.463276 0.169332 0.691023
1143 4 0.426097 0.182381 0.704985
1026 4 0.443679 0.183802 0.69666
1261 2 0.445536 0.211532 0.725642
1262 4 0.435998 0.19891 0.70628
1263 4 0.455074 0.224154 0.745004
3121 2 0.478449 0.248863 0.671947
893 4 0.0288269 0.331775 0.69416
820 2 0.167276 0.272083 0.731832
821 4 0.161328 0.293535 0.720447
948 4 0.204505 0.276568 0.6654
1064 4 0.221927 0.281813 0.676675
1065 4 0.221068 0.29592 0.724644
1063 2 0.221498 0.288867 0.700659
822 4 0.173224 0.250632 0.743217
1193 4 0.353139 0.253075 0.692553
3122 4 0.494518 0.253742 0.690472
3275 4 0.00577258 0.416476 0.750031
3274 2 0.0185881 0.396454 0.742281
892 2 0.0373573 0.348573 0.710599
894 4 0.0458878 0.365371 0.727038
3276 4 0.0314036 0.376432 0.734532
816 4 0.0491864 0.37768 0.742345
814 2 0.0739932 0.37654 0.74526
940 2 0.13166 0.380577 0.744577
941 4 0.150824 0.380543 0.728518
1067 4 0.152694 0.371799 0.711576
992 4 0.138048 0.416935 0.6731
815 4 0.0987999 0.375399 0.748176
1027 2 0.215129 0.415502 0.673958
1066 2 0.1674 0.38959 0.701964
1068 4 0.182107 0.407381 0.692352
1028 4 0.196668 0.400201 0.681048
806 4 0.299515 0.38024 0.684783
805 2 0.320616 0.366964 0.6867
807 4 0.341716 0.353687 0.688616
1206 4 0.402756 0.389033 0.663259
1281 4 0.0373404 0.495841 0.723444
1280 4 0.0698549 0.457954 0.726293
1279 2 0.0535977 0.476897 0.724868
1029 4 0.23359 0.430802 0.666868
1139 4 0.294073 0.424989 0.727518
1138 2 0.272649 0.432021 0.716713
1140 4 0.251225 0.439054 0.705908
1228 2 0.388243 0.462942 0.716983
1229 4 0.366075 0.470943 0.725335
1230 4 0.410411 0.454941 0.708632
1989 4 0.36428 0.485945 0.737724
1100 4 0.422543 0.447887 0.693359
1267 2 0.446426 0.47506 0.665403
1101 4 0.458728 0.421094 0.715118
1099 2 0.440636 0.43449 0.704238
1268 4 0.445944 0.489079 0.686102
1294 2 0.0490036 0.0225061 0.787376
1295 4 0.049583 0.0474806 0.786321
2047 2 0.113325 0.000750259 0.764405
1203 4 0.109919 0.0716431 0.797743
1201 2 0.105816 0.0479165 0.791006
1202 4 0.101713 0.02419 0.784268
2049 4 0.0958026 0.0184764 0.76639
911 4 0.085956 0.0680208 0.818794
1257 4 0.24156 0.0360341 0.796235
1255 2 0.243412 0.0566316 0.810289
974 4 0.32515 0.0036925 0.832479
1256 4 0.245264 0.0772291 0.824342
1111 2 0.390361 0.0554459 0.813818
1113 4 0.405903 0.0420277 0.79955
1112 4 0.374819 0.0688641 0.828086
818 4 0.364757 0.0807009 0.840819
2321 4 0.492099 0.00753389 0.76382
862 2 0.0511104 0.11158 0.757559
863 4 0.0383603 0.106854 0.778542
832 2 0.0229938 0.107463 0.818541
833 4 0.0298681 0.112945 0.795134
1105 2 0.111167 0.169396 0.755339
31 1 0.111619 0.150571 0.829357
35 3 0.131515 0.140744 0.824236
32 3 0.107416 0.167459 0.814315
838 2 0.239437 0.113039 0.829295
840 4 0.247781 0.094031 0.815358
959 4 0.30928 0.157142 0.827291
1084 2 0.361216 0.159972 0.804829
1085 4 0.373905 0.147375 0.822307
819 4 0.376665 0.127607 0.828221
817 2 0.370711 0.104154 0.83452
50 3 0.423834 0.15602 0.772302
844 2 0.496383 0.0876831 0.755227
851 4 0.0708506 0.185884 0.755215
1074 4 0.0677665 0.245784 0.763217
1107 4 0.0900824 0.182249 0.759266
1277 4 0.184018 0.247072 0.758814
1298 4 0.322338 0.215862 0.765662
918 4 0.306936 0.222871 0.755715
977 4 0.30821 0.203819 0.759715
916 2 0.29909 0.246358 0.759169
1086 4 0.348528 0.17257 0.787351
1299 4 0.371469 0.213079 0.774554
1297 2 0.346903 0.214471 0.770108
1042 2 0.409776 0.2305 0.790851
1043 4 0.412197 0.207317 0.781803
49 3 0.40967 0.190683 0.768364
48 3 0.413925 0.175516 0.802951
1022 4 0.417599 0.185821 0.819998
3468 4 0.50104 0.167001 0.803897
1145 4 0.472343 0.235724 0.750476
46 1 0.422788 0.176807 0.781546
47 3 0.444001 0.185617 0.782799
1144 2 0.488069 0.22135 0.763563
780 4 0.0720154 0.300819 0.763924
778 2 0.0938992 0.299568 0.775953
779 4 0.115783 0.298318 0.787983