ITEM: TIMESTEP
2200000
ITEM: NUMBER OF ATOMS
4590
ITEM: BOX BOUNDS pp pp pp
-9.9985700000000008e+00 9.9985700000000008e+00
-9.9985700000000008e+00 9.9985700000000008e+00
-9.9985700000000008e+00 9.9985700000000008e+00
ITEM: ATOMS id type xs ys zs
465 4 0.0777475 0.0595097 0.024018
463 2 0.0670893 0.078049 0.0369747
701 4 0.0886521 0.0429935 0.0307999
700 2 0.112621 0.0434817 0.0379027
702 4 0.136589 0.0439699 0.0450056
566 4 0.146842 0.0522812 0.0302242
565 2 0.163089 0.0711478 0.032518
2264 4 0.284357 0.00328992 0.0382922
2263 2 0.286128 0.00580869 0.013479
491 4 0.293573 0.00231678 0.0557752
746 4 0.480787 0.0598421 0.0115072
2469 4 0.489197 0.0442304 0.0216204
464 4 0.056431 0.0965882 0.0499314
590 4 0.0384201 0.0877596 0.0544527
589 2 0.0161208 0.0981932 0.0588184
567 4 0.179336 0.0900144 0.0348117
865 2 0.3571 0.167274 0.00574965
558 4 0.340452 0.141261 0.0694396
556 2 0.354555 0.120833 0.0724319
557 4 0.368659 0.100405 0.0754242
770 4 0.473416 0.164305 0.0840171
769 2 0.478303 0.144415 0.0696753
771 4 0.483189 0.124525 0.0553335
554 4 0.0332762 0.20727 0.0197365
553 2 0.0567029 0.214459 0.0247053
555 4 0.0801296 0.221647 0.0296742
835 2 0.114717 0.221177 0.0166171
836 4 0.0955664 0.23405 0.0262468
837 4 0.133867 0.208304 0.00698742
738 4 0.16933 0.181046 0.0785496
573 4 0.326521 0.257069 0.0564552
666 4 0.333674 0.239265 0.0578709
461 4 0.329284 0.25005 0.0741779
664 2 0.336237 0.217975 0.0450134
665 4 0.3388 0.196684 0.032156
867 4 0.346532 0.180408 0.0242154
1070 4 0.44365 0.217252 0.043508
1069 2 0.437985 0.238865 0.0547318
2808 4 0.0187081 0.319757 0.01142
294 4 0.111319 0.308822 0.0276724
292 2 0.131911 0.318805 0.0377464
293 4 0.152503 0.328789 0.0478203
507 4 0.17109 0.324374 0.0542051
356 4 0.285236 0.307126 0.0251302
572 4 0.298411 0.29237 0.0349053
571 2 0.312466 0.27472 0.0456802
355 2 0.291625 0.331135 0.0279429
1071 4 0.432321 0.260478 0.0659555
324 4 0.421574 0.276551 0.0692392
322 2 0.418407 0.301328 0.0681196
323 4 0.41524 0.326104 0.0670001
647 4 0.0250994 0.374992 0.0575912
646 2 0.0476589 0.36814 0.0659153
620 4 0.00555632 0.375356 0.0581433
648 4 0.0702184 0.361287 0.0742394
456 4 0.0857625 0.351477 0.0800688
505 2 0.184336 0.339483 0.0393225
506 4 0.197581 0.354591 0.0244398
483 4 0.208694 0.356888 0.00808647
481 2 0.228587 0.371532 0.0119544
482 4 0.248481 0.386177 0.0158222
609 4 0.255835 0.394742 0.0324673
357 4 0.298013 0.355145 0.0307556
902 4 0.288934 0.358156 0.012813
607 2 0.262089 0.418555 0.0281098
957 4 0.382707 0.408638 0.0169204
672 4 0.423145 0.343755 0.0696126
670 2 0.442435 0.357049 0.0783491
280 2 0.469491 0.410579 0.0729244
1787 4 0.0929187 0.47995 0.0726359
1786 2 0.103216 0.483409 0.0501154
1788 4 0.113514 0.486869 0.027595
246 4 0.240219 0.486423 0.0399691
244 2 0.22612 0.473422 0.0560121
245 4 0.212021 0.460422 0.0720552
627 4 0.202454 0.44377 0.0666953
625 2 0.191461 0.424708 0.0785687
272 4 0.252784 0.47686 0.028569
1778 4 0.259335 0.489884 0.0413777
608 4 0.268342 0.442369 0.0237523
252 4 0.288011 0.437149 0.0202143
250 2 0.309991 0.446624 0.0129834
251 4 0.33197 0.4561 0.00575245
271 2 0.251038 0.468336 0.00512827
525 4 0.375266 0.489851 0.0648125
523 2 0.385045 0.474085 0.0480495
524 4 0.394823 0.458319 0.0312864
282 4 0.472183 0.435001 0.068287
226 2 0.489837 0.470942 0.0591596
227 4 0.487776 0.447168 0.066625
228 4 0.491899 0.494716 0.0516942
16 1 0.0539304 0.0534342 0.141443
20 3 0.0467404 0.0531962 0.119836
1806 4 0.0447299 0.0153781 0.145557
18 3 0.0539207 0.0318772 0.150028
19 3 0.0401594 0.0670549 0.15422
17 3 0.0753717 0.0617314 0.142203
1804 2 0.0489872 0.0015381 0.125173
673 2 0.114069 0.0523866 0.157452
675 4 0.0909107 0.0497174 0.148411
450 4 0.152325 0.0523553 0.153531
448 2 0.162368 0.0739388 0.145884
674 4 0.137228 0.0550558 0.166492
653 4 0.287258 0.0542405 0.158499
484 2 0.360168 0.00798576 0.117188
295 2 0.351177 0.0645745 0.0959669
297 4 0.341513 0.0456369 0.109126
485 4 0.344588 0.027495 0.118545
296 4 0.360841 0.0835122 0.082808
380 4 0.0373311 0.0868899 0.144842
379 2 0.0312375 0.0971755 0.166802
579 4 0.0939119 0.110764 0.0925614
237 4 0.146418 0.142986 0.117378
578 4 0.127208 0.142179 0.112691
577 2 0.11056 0.126471 0.102626
476 4 0.133013 0.152655 0.127838
737 4 0.137534 0.158846 0.110123
235 2 0.161312 0.128463 0.13125
475 2 0.120268 0.166051 0.14467
736 2 0.153432 0.169946 0.0943365
692 4 0.238313 0.0925135 0.148281
236 4 0.176207 0.11394 0.145122
693 4 0.188793 0.0994302 0.147472
449 4 0.172412 0.0955222 0.138238
691 2 0.213553 0.0959718 0.147877
582 4 0.249167 0.0882186 0.164439
477 4 0.107522 0.179447 0.161501
283 2 0.324217 0.199817 0.139296
354 4 0.320566 0.237971 0.138286
285 4 0.320076 0.176207 0.146412
284 4 0.328358 0.223426 0.132181
462 4 0.328938 0.238747 0.12289
460 2 0.329111 0.244399 0.0985337
255 4 0.338103 0.236806 0.137877
253 2 0.358859 0.24184 0.150878
254 4 0.379616 0.246874 0.163878
628 2 0.408712 0.218819 0.166746
1014 4 0.491511 0.172946 0.0801076
629 4 0.424011 0.200428 0.159475
1013 4 0.48777 0.21223 0.110825
1012 2 0.489641 0.192588 0.0954661
312 4 0.434037 0.185273 0.168766
749 4 0.0667438 0.297445 0.169763
455 4 0.124337 0.325805 0.0988748
611 4 0.224101 0.327665 0.0987713
610 2 0.248263 0.329966 0.104779
352 2 0.302807 0.254393 0.144617
353 4 0.285048 0.270816 0.150949
754 2 0.289013 0.307799 0.135209
755 4 0.289072 0.289706 0.152467
278 4 0.271415 0.283796 0.157554
756 4 0.288954 0.325891 0.117951
612 4 0.272425 0.332267 0.110787
528 4 0.489005 0.313474 0.157621
454 2 0.10505 0.338641 0.0894718
536 4 0.188685 0.387028 0.0885433
626 4 0.180469 0.405645 0.0904421
537 4 0.216352 0.345449 0.0910881
535 2 0.202518 0.366238 0.0898157
387 4 0.336647 0.409649 0.164563
741 4 0.400555 0.377266 0.100119
739 2 0.397014 0.378453 0.124842
740 4 0.393473 0.379639 0.149565
15 3 0.383677 0.366442 0.160147
385 2 0.358624 0.397796 0.16326
386 4 0.380601 0.385944 0.161957
495 4 0.398991 0.392674 0.163668
493 2 0.409513 0.415316 0.165018
281 4 0.466799 0.386158 0.0775618
671 4 0.461726 0.370343 0.0870855
2651 4 0.480126 0.37436 0.0848869
552 4 0.0836956 0.473749 0.0877233
551 4 0.0494864 0.437277 0.0872347
1465 2 0.00531154 0.473498 0.0856578
1466 4 0.0248651 0.488013 0.0913289
1791 4 0.0422397 0.49138 0.100414
550 2 0.066591 0.455513 0.087479
242 4 0.0902406 0.490705 0.088984
241 2 0.0988486 0.497218 0.111537
1438 2 0.143615 0.500443 0.155416
1439 4 0.168094 0.49856 0.160151
637 2 0.205001 0.482184 0.150576
638 4 0.224134 0.473084 0.137298
767 4 0.242322 0.465928 0.131237
639 4 0.185869 0.491285 0.163854
303 4 0.302127 0.452555 0.134419
766 2 0.267139 0.46559 0.128207
768 4 0.291956 0.465251 0.125177
301 2 0.320569 0.437294 0.141644
494 4 0.420034 0.437958 0.166368
302 4 0.33901 0.422033 0.148869
660 4 0.436182 0.447959 0.162369
2480 4 0.00531068 0.992463 0.228175
1505 4 0.150193 0.0408495 0.168843
1504 2 0.164259 0.0277438 0.18483
1506 4 0.178326 0.0146382 0.200816
689 4 0.191475 0.0085054 0.214663
652 2 0.2906 0.0302245 0.164601
654 4 0.293943 0.00620853 0.170704
1661 4 0.311906 0.000442645 0.175192
22 3 0.403781 0.00436808 0.207353
21 1 0.40218 0.0202801 0.223888
23 3 0.390223 0.03841 0.215719
24 3 0.391149 0.0110784 0.242111
757 2 0.443172 0.0551237 0.214879
25 3 0.423102 0.0268849 0.229994
759 4 0.436719 0.0394743 0.233281
350 4 0.439583 0.0212444 0.239175
758 4 0.449626 0.0707732 0.196477
512 4 0.0311887 0.111415 0.208078
381 4 0.0251438 0.107461 0.188762
511 2 0.0462117 0.130949 0.212309
513 4 0.0612348 0.150483 0.21654
339 4 0.0758771 0.163108 0.211056
580 2 0.270132 0.0979246 0.174002
581 4 0.291096 0.107631 0.183566
30 3 0.285172 0.124408 0.194024
26 1 0.289632 0.146667 0.192212
27 3 0.283858 0.157174 0.211843
28 3 0.277241 0.155838 0.174869
29 3 0.31228 0.149915 0.188346
311 4 0.473269 0.154375 0.171396
521 4 0.463318 0.149394 0.230365
520 2 0.487578 0.151028 0.224535
363 4 0.124179 0.188107 0.167707
337 2 0.0940361 0.170562 0.195568
338 4 0.112195 0.178015 0.180081
362 4 0.146667 0.227236 0.189246
361 2 0.135423 0.207671 0.178476
372 4 0.139547 0.228828 0.207578
723 4 0.211471 0.232287 0.244167
630 4 0.393412 0.23721 0.174016
310 2 0.453653 0.169824 0.170081
750 4 0.0560286 0.27536 0.213331
395 4 0.0438112 0.292376 0.214979
748 2 0.0613862 0.286403 0.191547
394 2 0.0322447 0.29153 0.23713
370 2 0.13174 0.250552 0.217184
300 4 0.147247 0.324496 0.190064
298 2 0.136282 0.335048 0.209903
371 4 0.123933 0.272277 0.226791
401 4 0.236744 0.275015 0.244277
279 4 0.235456 0.257444 0.18021
277 2 0.253436 0.27062 0.168882
307 2 0.320414 0.302042 0.210795
308 4 0.302229 0.312342 0.22452
497 4 0.290092 0.325937 0.232905
309 4 0.338599 0.291742 0.197069
765 4 0.390783 0.256311 0.177351
763 2 0.403464 0.274199 0.189369
764 4 0.416144 0.292086 0.201387
623 4 0.427184 0.299491 0.18669
622 2 0.448853 0.306858 0.176623
624 4 0.470523 0.314225 0.166556
262 2 0.0407201 0.383885 0.234986
263 4 0.0402996 0.360287 0.243243
602 4 0.0601097 0.357588 0.242443
264 4 0.0411406 0.407482 0.22673
2618 4 0.0286155 0.422453 0.223528
299 4 0.125317 0.345601 0.229742
601 2 0.084262 0.351403 0.240549
603 4 0.108414 0.345217 0.238656
734 4 0.125112 0.344856 0.249622
291 4 0.168049 0.40217 0.210018
290 4 0.175083 0.360961 0.182575
289 2 0.171566 0.381566 0.196297
416 4 0.170051 0.420428 0.200788
14 3 0.412204 0.384014 0.177325
11 1 0.398857 0.365036 0.177065
13 3 0.38788 0.362793 0.197385
12 3 0.412208 0.346599 0.173751
2860 2 0.470288 0.410079 0.24211
2617 2 0.00822648 0.429779 0.23601
415 2 0.182225 0.440891 0.208419
1430 4 0.204008 0.478719 0.222336
417 4 0.194399 0.461354 0.216051
713 4 0.356334 0.499957 0.196925
658 2 0.443915 0.470647 0.169485
2861 4 0.456918 0.427194 0.229721
659 4 0.451648 0.493335 0.176601
595 2 0.488257 0.491701 0.197373
596 4 0.466656 0.499102 0.187184
232 2 0.00627947 0.0479507 0.300311
1799 4 0.0228618 0.0093525 0.300581
233 4 0.0185995 0.0273723 0.293245
1402 2 0.0599774 0.023088 0.288037
1403 4 0.0355866 0.0181187 0.290398
1404 4 0.0843683 0.0280573 0.285677
1798 2 0.0153774 0.996584 0.320734
633 4 0.387593 0.0483158 0.307799
631 2 0.38381 0.063385 0.288208
257 4 0.38209 0.061552 0.32039
698 4 0.369445 0.047828 0.313572
697 2 0.359236 0.0273992 0.323752
632 4 0.380027 0.0784542 0.268618
349 2 0.458341 0.0151752 0.254552
744 4 0.493319 0.0155975 0.282616
742 2 0.497573 0.025413 0.305215
351 4 0.4771 0.00910604 0.26993
479 4 0.500223 0.051881 0.337828
399 4 0.0480923 0.113015 0.327996
397 2 0.0595947 0.124981 0.309296
390 4 0.0713278 0.155992 0.284893
398 4 0.071097 0.136947 0.290596
393 4 0.0844217 0.144354 0.277852
545 4 0.145514 0.144099 0.258367
392 4 0.128251 0.15112 0.254744
391 2 0.106336 0.147737 0.266298
544 2 0.164452 0.160005 0.262045
444 4 0.0305915 0.246541 0.299824
388 2 0.0679833 0.180022 0.290937
389 4 0.0646387 0.204052 0.296982
404 4 0.215918 0.173483 0.325277
721 2 0.2031 0.211866 0.255918
403 2 0.207272 0.174653 0.301845
405 4 0.198627 0.175823 0.278413
546 4 0.18339 0.175911 0.265722
722 4 0.19473 0.191445 0.267668
378 4 0.289512 0.237733 0.320553
420 4 0.402591 0.220666 0.265886
717 4 0.397714 0.23872 0.264962
761 4 0.496073 0.236629 0.257681
331 2 0.462075 0.191597 0.309381
332 4 0.456874 0.201925 0.287213
418 2 0.423618 0.207694 0.269727
419 4 0.444645 0.194721 0.273569
760 2 0.475466 0.223769 0.263607
762 4 0.454858 0.210908 0.269533
442 2 0.0221469 0.267189 0.288531
396 4 0.0206783 0.290683 0.259282
443 4 0.0137022 0.287837 0.277239
365 4 0.0157615 0.306266 0.270614
677 4 0.144162 0.31229 0.291851
676 2 0.160547 0.320844 0.30869
733 2 0.12663 0.325317 0.265149
735 4 0.128149 0.305778 0.280677
510 4 0.230442 0.288581 0.31139
508 2 0.211879 0.303771 0.318453
400 2 0.235503 0.278421 0.269016
402 4 0.234262 0.281827 0.293755
509 4 0.193317 0.318961 0.325516
345 4 0.246389 0.276961 0.308406
678 4 0.176931 0.329398 0.325529
343 2 0.268201 0.267365 0.315979
344 4 0.290013 0.257769 0.323551
715 2 0.392443 0.259556 0.27774
716 4 0.387172 0.280391 0.290517
542 4 0.369647 0.285398 0.298426
541 2 0.380339 0.306237 0.307176
543 4 0.391031 0.327077 0.315926
548 4 0.00683666 0.358702 0.305022
547 2 0.019753 0.379816 0.308566
549 4 0.0326694 0.40093 0.31211
777 4 0.0497992 0.412862 0.312258
407 4 0.00986354 0.342995 0.316334
435 4 0.192748 0.336446 0.334219
496 2 0.283353 0.337264 0.254153
498 4 0.276614 0.348591 0.2754
728 4 0.383797 0.411148 0.270288
615 4 0.38683 0.344433 0.308299
727 2 0.374711 0.41154 0.293579
613 2 0.404121 0.354149 0.323524
2862 4 0.483659 0.392964 0.2545
2537 4 0.497827 0.380099 0.261274
2538 4 0.467827 0.360183 0.295974
2536 2 0.482827 0.370141 0.278624
753 4 0.483503 0.351272 0.304446
751 2 0.486198 0.341805 0.327431
775 2 0.0709888 0.423361 0.320379
776 4 0.0921784 0.43386 0.328499
1545 4 0.189969 0.486618 0.327208
1436 4 0.199809 0.487997 0.309004
729 4 0.365625 0.411933 0.31687
436 2 0.373847 0.45341 0.328896
437 4 0.364072 0.430641 0.325545
1771 2 0.0184487 0.00721832 0.375853
1772 4 0.0286665 0.0220823 0.393169
2238 4 0.0162012 0.0378609 0.391719
2236 2 0.0193851 0.0516457 0.412335
367 2 0.0821366 0.0453051 0.404407
369 4 0.0833113 0.0633157 0.387104
368 4 0.0809619 0.0272945 0.421711
732 4 0.0799286 0.0671552 0.367646
604 2 0.135335 0.0829966 0.38861
605 4 0.159327 0.078253 0.383411
606 4 0.111342 0.0877402 0.393809
1701 4 0.178689 0.0811968 0.391581
256 2 0.386246 0.0712949 0.34304
258 4 0.390402 0.0810377 0.365689
426 4 0.388645 0.0642466 0.375693
424 2 0.389322 0.0551043 0.398956
425 4 0.389999 0.045962 0.422218
478 2 0.493328 0.0748048 0.345048
317 4 0.037068 0.111131 0.343987
731 4 0.0543123 0.101832 0.342307
730 2 0.0671205 0.0844937 0.354976
318 4 0.00467487 0.13136 0.37627
316 2 0.0208714 0.121246 0.360128
247 2 0.21342 0.147131 0.350755
248 4 0.207952 0.123519 0.356899
1699 2 0.191452 0.0923329 0.373189
1700 4 0.204215 0.103469 0.354797
600 4 0.238044 0.156471 0.406242
683 4 0.247926 0.145574 0.421679
682 2 0.26446 0.12831 0.414347
319 2 0.315499 0.116955 0.398201
320 4 0.299228 0.107487 0.414657
708 4 0.32548 0.141667 0.370387
706 2 0.317997 0.163749 0.361355
684 4 0.280994 0.111046 0.407015
321 4 0.33177 0.126423 0.381745
480 4 0.486432 0.0977286 0.352268
516 4 0.439827 0.133819 0.350559
575 4 0.442293 0.12274 0.36697
574 2 0.450796 0.116699 0.389694
514 2 0.450909 0.156229 0.350191
2654 4 0.00255671 0.212753 0.370098
459 4 0.0181837 0.199227 0.368703
457 2 0.0119757 0.175319 0.372578
249 4 0.218888 0.170743 0.344611
376 2 0.301905 0.221779 0.335286
377 4 0.314297 0.205825 0.350019
707 4 0.310514 0.185832 0.352324
474 4 0.26395 0.229452 0.397642
488 4 0.275618 0.226337 0.41447
468 4 0.370836 0.227382 0.414936
333 4 0.467276 0.181268 0.33155
515 4 0.461992 0.178639 0.349824
453 4 0.479322 0.187257 0.346243
451 2 0.489433 0.204733 0.360992
406 2 0.0173685 0.330825 0.336846
347 4 0.0738746 0.326365 0.380814
408 4 0.0248734 0.318656 0.357358
618 4 0.0792829 0.332556 0.363164
275 4 0.127708 0.297862 0.358034
617 4 0.119514 0.309432 0.344523
616 2 0.0993983 0.320994 0.353844
274 2 0.15021 0.301445 0.368328
473 4 0.233771 0.267446 0.385543
374 4 0.224957 0.283381 0.37551
276 4 0.172713 0.305029 0.378621
373 2 0.205887 0.297224 0.383869
375 4 0.186816 0.311066 0.392229
472 2 0.248861 0.248449 0.391593
346 2 0.0611585 0.337278 0.399371
433 2 0.18848 0.360259 0.340537
434 4 0.184212 0.384072 0.346855
502 2 0.300179 0.396236 0.405097
503 4 0.3111 0.417234 0.397035
336 4 0.327987 0.412839 0.3884
504 4 0.289258 0.375238 0.413158
238 2 0.399136 0.417256 0.411733
334 2 0.351562 0.404572 0.387379
335 4 0.375137 0.396304 0.386359
240 4 0.393032 0.401376 0.39341
614 4 0.421412 0.363866 0.338749
752 4 0.488894 0.332339 0.350415
1543 2 0.166463 0.491323 0.334316
414 4 0.092746 0.454031 0.33475
412 2 0.108239 0.473239 0.338772
413 4 0.123733 0.492447 0.342794
1544 4 0.142957 0.496027 0.341424
668 4 0.315272 0.472208 0.415859
669 4 0.327285 0.425475 0.402725
667 2 0.321279 0.448841 0.409292
438 4 0.383622 0.476178 0.332247
594 4 0.441554 0.47344 0.359969
592 2 0.433364 0.490987 0.375787
1781 4 0.0594225 0.00432361 0.462791
1127 4 0.011565 0.0617695 0.44927
2237 4 0.0225691 0.0654305 0.432951
720 4 0.0207638 0.0786915 0.447152
1780 2 0.0777705 0.01142 0.447359
1782 4 0.0961185 0.0185163 0.431926
961 2 0.261062 0.997694 0.49468
724 2 0.29969 0.0406778 0.470901
726 4 0.303322 0.0628572 0.459943
725 4 0.296057 0.0184984 0.481858
1182 4 0.298674 0.0804554 0.466496
963 4 0.280052 0.00865277 0.48266
432 4 0.293952 0.00584825 0.495927
1579 2 0.371626 0.0194325 0.445013
1580 4 0.381573 0.0415984 0.439104
1581 4 0.361679 0.997267 0.450921
642 4 0.443035 0.0635144 0.450691
2878 2 0.456748 0.0450227 0.487859
2880 4 0.449714 0.0491973 0.464231
718 2 0.0415435 0.091652 0.452192
719 4 0.0623233 0.104613 0.457232
1033 2 0.117376 0.134913 0.474381
1035 4 0.128185 0.142495 0.453147
261 4 0.141324 0.146793 0.43945
1034 4 0.106567 0.127332 0.495615
259 2 0.153348 0.167521 0.446588
1180 2 0.290856 0.0913759 0.445406
1181 4 0.283038 0.102296 0.424316
640 2 0.455016 0.0817942 0.438547
576 4 0.459299 0.110658 0.412418
641 4 0.466998 0.100074 0.426403
306 4 0.461276 0.118102 0.430926
304 2 0.463471 0.135055 0.449173
3158 4 0.470137 0.165535 0.481578
305 4 0.465666 0.152009 0.467419
694 2 0.136651 0.206767 0.479332
695 4 0.156703 0.201716 0.465276
260 4 0.165372 0.188249 0.453726
696 4 0.116598 0.211817 0.493387
598 2 0.238425 0.175424 0.422546
599 4 0.238806 0.194377 0.43885
687 4 0.223233 0.20142 0.448112
686 4 0.175772 0.200921 0.463856
685 2 0.199502 0.201171 0.455984
411 4 0.234053 0.217632 0.455916
409 2 0.250277 0.216408 0.474902
489 4 0.310511 0.198076 0.436483
487 2 0.293064 0.212206 0.425477
410 4 0.266501 0.215184 0.493887
267 4 0.362175 0.243357 0.422802
466 2 0.370558 0.20541 0.426865
467 4 0.37028 0.183437 0.438794
585 4 0.485357 0.244826 0.499599
813 4 0.238504 0.287624 0.495223
265 2 0.359671 0.267754 0.417936
266 4 0.357167 0.292151 0.413071
583 2 0.500419 0.264464 0.49604
2456 4 0.503989 0.299383 0.496895
348 4 0.0484424 0.348192 0.417929
2812 2 0.0182647 0.337263 0.437859
2813 4 0.0429272 0.337607 0.433757
326 4 0.0553165 0.353069 0.435442
325 2 0.0691559 0.368036 0.449921
10 3 0.128449 0.36767 0.46485
327 4 0.0829953 0.383004 0.464399
7 3 0.100654 0.3924 0.467823
6 1 0.120378 0.385075 0.477122
711 4 0.151516 0.412521 0.485541
8 3 0.135642 0.402551 0.477066
9 3 0.116301 0.378188 0.498901
709 2 0.176127 0.408151 0.486142
774 4 0.220162 0.404112 0.482219
635 4 0.207286 0.403719 0.468447
710 4 0.200738 0.40378 0.486744
634 2 0.218253 0.417181 0.450456
679 2 0.0809511 0.468032 0.488835
680 4 0.0679476 0.479596 0.47088
1383 4 0.0555821 0.49201 0.461363
384 4 0.14234 0.427027 0.49683
569 4 0.15479 0.44121 0.493342
568 2 0.164 0.464313 0.490774
636 4 0.229221 0.430642 0.432465
570 4 0.173211 0.487416 0.488207
4 3 0.325352 0.479857 0.43163
5 3 0.290387 0.48532 0.444487
586 2 0.405162 0.425278 0.472348
239 4 0.405241 0.433137 0.430055
588 4 0.403995 0.435681 0.449641
587 4 0.406329 0.414876 0.495055
3077 4 0.00483663 0.0213683 0.534953
1184 4 0.0119899 0.0160174 0.552175
1150 2 0.150763 0.0705199 0.547688
342 4 0.132095 0.0406689 0.524231
1152 4 0.138363 0.0597891 0.528813
340 2 0.146883 0.0205102 0.524542
1059 4 0.170154 0.0670358 0.577861
2430 4 0.180186 0.00287116 0.531319
841 2 0.342817 0.0105043 0.55748
842 4 0.348074 0.0175995 0.580872
2879 4 0.463783 0.0408481 0.511486
879 4 0.066323 0.158695 0.53855
877 2 0.0440692 0.147308 0.539077
1199 4 0.0109923 0.140207 0.556077
878 4 0.0218154 0.135921 0.539604
938 4 0.0847764 0.164661 0.536916
1272 4 0.0776829 0.162848 0.554064
1151 4 0.163164 0.0812506 0.566563
937 2 0.100643 0.151676 0.522605
939 4 0.116509 0.138691 0.508293
1155 4 0.166115 0.084134 0.586057
3159 4 0.493993 0.145977 0.520936
3157 2 0.482065 0.155756 0.501257
1270 2 0.0888933 0.17954 0.568927
1258 2 0.114971 0.230225 0.523227
1260 4 0.109921 0.208379 0.51216
1259 4 0.12002 0.25207 0.534293
898 2 0.283142 0.21221 0.526917
899 4 0.299089 0.220359 0.544366
900 4 0.267195 0.204062 0.509468
791 4 0.314311 0.216623 0.555835
857 4 0.296589 0.20728 0.558752
856 2 0.292127 0.187964 0.573989
790 2 0.334998 0.229337 0.561802
792 4 0.355684 0.242051 0.56777
811 2 0.245166 0.303355 0.51348
812 4 0.251828 0.319087 0.531737
650 4 0.248826 0.327772 0.548435
649 2 0.258983 0.314689 0.567165
871 2 0.37132 0.275852 0.543098
872 4 0.36415 0.257248 0.558186
1238 4 0.359142 0.258195 0.576676
873 4 0.37849 0.294456 0.528009
906 4 0.470655 0.294445 0.579788
992 4 0.0404861 0.405015 0.568843
1136 4 0.110958 0.397319 0.542186
1135 2 0.129636 0.387555 0.555638
897 4 0.163675 0.389414 0.575244
1137 4 0.148314 0.37779 0.569091
773 4 0.249392 0.394829 0.521717
1189 2 0.239351 0.41139 0.55815
772 2 0.234777 0.39947 0.501968
895 2 0.185515 0.40157 0.5759
896 4 0.207355 0.413726 0.576557
804 4 0.257302 0.338016 0.534393
803 4 0.254958 0.387748 0.53907
1190 4 0.252145 0.407369 0.537048
802 2 0.25613 0.362882 0.536732
930 4 0.267686 0.398512 0.528375
928 2 0.289145 0.41079 0.532108
929 4 0.310605 0.423068 0.535842
926 4 0.417819 0.411241 0.509449
925 2 0.427922 0.390036 0.51802
927 4 0.438025 0.368831 0.526591
681 4 0.0939546 0.456468 0.506789
382 2 0.119953 0.432937 0.506267
383 4 0.0975656 0.438847 0.515704
1191 4 0.226557 0.41541 0.579253
1160 4 0.193098 0.49293 0.574081
1172 4 0.214252 0.430505 0.583914
891 4 0.300815 0.501982 0.526723
1952 4 0.310376 0.48536 0.524352
881 4 0.308612 0.497894 0.509886
1951 2 0.313227 0.462752 0.534644
1953 4 0.316079 0.440144 0.544936
1000 2 0.403305 0.494324 0.548436
663 4 0.410811 0.429748 0.506881
1001 4 0.420355 0.476394 0.552037
661 2 0.419363 0.4463 0.523556
662 4 0.427914 0.462853 0.540231
1911 4 0.433097 0.463974 0.559012
1332 4 0.438317 0.477866 0.545599
1330 2 0.459105 0.490384 0.539574
1909 2 0.429304 0.45018 0.579519
1058 4 0.185255 0.0295383 0.607299
1057 2 0.177705 0.0482871 0.59258
2375 4 0.173328 0.0167263 0.598229
950 4 0.244031 0.023397 0.650468
949 2 0.260392 0.0423042 0.650621
951 4 0.276753 0.0612115 0.650774
1031 4 0.296002 0.067122 0.647314
1216 2 0.391851 0.0164357 0.586153
1218 4 0.416494 0.0127791 0.584029
1217 4 0.367207 0.0200923 0.588277
43 3 0.450281 0.045458 0.648296
808 2 0.492503 0.075526 0.651325
41 1 0.441748 0.0596143 0.66458
42 3 0.426419 0.0737447 0.65486
1083 4 0.0122068 0.145005 0.650863
3179 4 0.0102761 0.160997 0.662311
1081 2 0.00330135 0.127568 0.666413
1284 4 0.121884 0.0908428 0.644947
1221 4 0.160436 0.140778 0.615941
1153 2 0.157881 0.103407 0.599693
1154 4 0.149648 0.12268 0.613329
1219 2 0.173596 0.161021 0.622439
1211 4 0.245398 0.166475 0.657391
1030 2 0.301724 0.0862617 0.662351
888 4 0.263546 0.160075 0.661656
1209 4 0.100152 0.191999 0.65277
1245 4 0.0967284 0.209045 0.642951
1271 4 0.100104 0.196231 0.58379
1243 2 0.0934421 0.209915 0.61818
1244 4 0.0901557 0.210785 0.593408
1210 2 0.22454 0.175912 0.647338
1212 4 0.203682 0.185349 0.637285
1220 4 0.186756 0.181264 0.628936
797 4 0.176158 0.243357 0.630204
796 2 0.185826 0.220511 0.62708
798 4 0.195494 0.197665 0.623957
858 4 0.287666 0.168648 0.589226
1193 4 0.386424 0.210385 0.657654
3121 2 0.484067 0.233883 0.63199
3122 4 0.484252 0.212771 0.645384
905 4 0.4762 0.249157 0.600257
983 4 0.0554511 0.283603 0.602788
982 2 0.051982 0.302945 0.618249
984 4 0.0485128 0.322287 0.633709
3263 4 0.0466808 0.324776 0.653073
651 4 0.26914 0.301605 0.585896
805 2 0.297028 0.284156 0.605923
806 4 0.273001 0.28737 0.599795
807 4 0.321055 0.280943 0.612051
1239 4 0.339726 0.288118 0.611723
1237 2 0.349434 0.273156 0.594199
3123 4 0.483882 0.254996 0.618596
904 2 0.473428 0.271801 0.590023
952 2 0.490201 0.322675 0.592884
953 4 0.474753 0.30355 0.597442
1041 4 0.0498793 0.340461 0.64144
1039 2 0.0466338 0.365076 0.638483
1040 4 0.0433883 0.389691 0.635526
993 4 0.0360753 0.393036 0.617193
991 2 0.0382807 0.399025 0.593018
1068 4 0.182844 0.395849 0.663043
1028 4 0.197652 0.39961 0.650021
3309 4 0.495898 0.405411 0.610532
1188 4 0.194215 0.497349 0.643044
1027 2 0.206974 0.422604 0.653113
1171 2 0.209133 0.454958 0.582917
1029 4 0.216295 0.445599 0.656205
1173 4 0.204014 0.479412 0.581921
1187 4 0.199257 0.494578 0.593369
1186 2 0.196736 0.495963 0.618207
1175 4 0.197223 0.490477 0.661447
1268 4 0.406157 0.472572 0.644805
2168 4 0.420802 0.484168 0.637018
1206 4 0.487042 0.417406 0.623594
1267 2 0.416805 0.453767 0.632228
1204 2 0.463772 0.421961 0.615659
1910 4 0.425512 0.436387 0.600026
1269 4 0.427454 0.434963 0.619651
1205 4 0.440503 0.426515 0.607723
1296 4 0.0136753 0.0300761 0.738245
1226 4 0.159801 0.0799837 0.745543
1201 2 0.17397 0.0442242 0.744615
2256 4 0.187798 0.00896001 0.738514
2049 4 0.178089 0.00366239 0.754431
1202 4 0.172627 0.0192569 0.744515
1005 4 0.332371 0.0431279 0.688774
1003 2 0.334979 0.01899 0.682797
810 4 0.477737 0.0698064 0.670675
1164 4 0.50382 0.0509149 0.721492
45 3 0.431466 0.0474384 0.680849
1162 2 0.486929 0.0588734 0.704862
1163 4 0.470038 0.0668319 0.688233
44 3 0.45885 0.0722993 0.673801
1077 4 0.0308541 0.116656 0.734209
1075 2 0.0131007 0.111114 0.717497
864 4 0.046069 0.118403 0.7474
850 2 0.0642055 0.169258 0.721611
851 4 0.0865236 0.162379 0.712681
1282 2 0.122955 0.0908897 0.669927
909 4 0.104441 0.155425 0.706247
907 2 0.109068 0.131013 0.70345
908 4 0.113695 0.106601 0.700653
1283 4 0.124027 0.0909366 0.694908
1227 4 0.125032 0.0968069 0.713781
1225 2 0.142417 0.0883953 0.729662
1148 4 0.176775 0.088846 0.743689
1032 4 0.307446 0.105401 0.677388
886 2 0.273579 0.159444 0.684549
829 2 0.320913 0.150911 0.714713
830 4 0.298729 0.161373 0.719574
887 4 0.283613 0.158814 0.707443
978 4 0.280701 0.164088 0.726234
831 4 0.343096 0.14045 0.709852
1142 4 0.355264 0.150846 0.722281
1141 2 0.374392 0.164076 0.713102
1025 4 0.454381 0.147548 0.700887
3424 2 0.468396 0.108608 0.688332
3426 4 0.47187 0.084948 0.681029
3425 4 0.464921 0.132267 0.695635
3269 4 0.473444 0.145064 0.707155
3268 2 0.479347 0.154845 0.729396
1024 2 0.433379 0.161023 0.702472
845 4 0.426782 0.0826881 0.737425
852 4 0.0418873 0.176137 0.730542
1213 2 0.016814 0.18841 0.747517
1208 4 0.0927595 0.16575 0.694687
1207 2 0.0964557 0.178874 0.673729
1107 4 0.101842 0.173653 0.71112
1105 2 0.117722 0.183832 0.727533
1106 4 0.133601 0.194011 0.743946
780 4 0.0882017 0.245996 0.709056
976 2 0.285866 0.183127 0.741596
916 2 0.308475 0.233731 0.750588
1194 4 0.406035 0.191694 0.699686
1192 2 0.39623 0.20104 0.67867
1143 4 0.39352 0.177307 0.703923
1262 4 0.403566 0.186035 0.717756
1026 4 0.412377 0.174499 0.704057
1261 2 0.413392 0.197751 0.737539
3270 4 0.485251 0.164626 0.751637
3262 2 0.051758 0.314072 0.675092
3264 4 0.0568352 0.303368 0.697111
779 4 0.069008 0.292149 0.707569
893 4 0.0656506 0.310908 0.712983
892 2 0.059553 0.327132 0.731005
778 2 0.0786048 0.269072 0.708312
1063 2 0.246191 0.30508 0.693148
1065 4 0.229443 0.320049 0.704131
947 4 0.306213 0.265037 0.72152
946 2 0.28519 0.271459 0.709606
948 4 0.264166 0.277881 0.697692
1064 4 0.262938 0.29011 0.682166
917 4 0.310416 0.255105 0.737759
1008 4 0.420981 0.280407 0.707988
1006 2 0.431114 0.278313 0.73075
894 4 0.0534553 0.343356 0.749026
1067 4 0.143764 0.383147 0.69154
940 2 0.124204 0.389124 0.732077
941 4 0.131797 0.388297 0.708269
1066 2 0.163304 0.389498 0.677292
1176 4 0.163904 0.454642 0.671764
1174 2 0.180563 0.47256 0.666606
1139 4 0.298216 0.462302 0.705895
1138 2 0.316433 0.461524 0.723003
1140 4 0.33465 0.460747 0.740112
1230 4 0.382808 0.440263 0.751032
1100 4 0.399937 0.432864 0.744673
1101 4 0.447478 0.446216 0.736778
1099 2 0.423707 0.43954 0.740726
3330 4 0.461387 0.433724 0.742509
3328 2 0.477895 0.437132 0.724041
3329 4 0.494402 0.44054 0.705572
1203 4 0.175313 0.0691914 0.744716
1113 4 0.362241 0.0595109 0.820936
2321 4 0.439935 0.00707779 0.808265
2322 4 0.452145 0.0493215 0.784451
2320 2 0.44604 0.0281996 0.796358
846 4 0.447313 0.0696257 0.781112
844 2 0.437048 0.0761569 0.759268
1214 4 0.0328546 0.169231 0.747395
862 2 0.0497809 0.122246 0.771826
863 4 0.0534927 0.126089 0.796252
833 4 0.0500894 0.114468 0.810964
1125 4 0.0598841 0.131963 0.813806
1123 2 0.0700818 0.152768 0.823205
832 2 0.040441 0.0983368 0.827453
34 3 0.133175 0.166534 0.824342
911 4 0.102213 0.0931623 0.829001
1147 2 0.200178 0.0929597 0.751471
1149 4 0.223581 0.0970733 0.759253
1257 4 0.240696 0.102648 0.76824
1255 2 0.246104 0.122662 0.782217
921 4 0.23965 0.156494 0.80446
1256 4 0.251512 0.142677 0.796194
840 4 0.259282 0.133681 0.810728
1124 4 0.0802796 0.173573 0.832605
3188 4 0.0176556 0.246875 0.78413
1130 4 0.128022 0.21293 0.745975
1129 2 0.139986 0.222335 0.765814
822 4 0.169133 0.239078 0.792783
1131 4 0.151949 0.23174 0.785654
1277 4 0.163086 0.221341 0.7983
35 3 0.0991539 0.176109 0.837323
919 2 0.220247 0.167129 0.816105
1276 2 0.173773 0.204314 0.813168
1278 4 0.18446 0.187287 0.828035
920 4 0.200844 0.177763 0.82775
977 4 0.291031 0.202167 0.756959
918 4 0.306534 0.212358 0.763417
1298 4 0.293866 0.204792 0.775802
1297 2 0.295927 0.205191 0.800718
1299 4 0.297988 0.205591 0.825633
1086 4 0.31771 0.20027 0.824182
50 3 0.389615 0.211483 0.788679
46 1 0.411547 0.210038 0.79464
1306 2 0.498631 0.25022 0.817476
49 3 0.417729 0.228869 0.806704
48 3 0.415048 0.190965 0.807382
47 3 0.424489 0.208782 0.775664
1263 4 0.423218 0.209467 0.757322
1146 4 0.483108 0.181328 0.761842
1145 4 0.441134 0.208225 0.765763
1144 2 0.462121 0.194777 0.763803
1022 4 0.422144 0.182179 0.823721
1043 4 0.425382 0.246383 0.808532
1179 4 0.000706441 0.255602 0.776523
3187 2 0.0408487 0.256068 0.782472
3189 4 0.0640418 0.265261 0.780814
3276 4 0.0554776 0.331064 0.764366
821 4 0.177993 0.288152 0.789051
820 2 0.173563 0.263615 0.790917
1098 4 0.23095 0.325517 0.815427
1096 2 0.247354 0.312438 0.829029
1042 2 0.436069 0.259561 0.790166
1044 4 0.446756 0.272739 0.7718
1007 4 0.441247 0.276218 0.753512
1165 2 0.482974 0.270872 0.768989
1166 4 0.460618 0.273483 0.7581
3275 4 0.0200163 0.339444 0.798615
814 2 0.0834045 0.365253 0.762396
3274 2 0.0377469 0.335254 0.78149
816 4 0.0682693 0.345434 0.760577
815 4 0.0985397 0.385072 0.764215
942 4 0.116611 0.38995 0.755886
1235 4 0.227546 0.334765 0.798339
1234 2 0.214445 0.337062 0.777166