ITEM: TIMESTEP
2270000
ITEM: NUMBER OF ATOMS
4590
ITEM: BOX BOUNDS pp pp pp
-9.9985700000000008e+00 9.9985700000000008e+00
-9.9985700000000008e+00 9.9985700000000008e+00
-9.9985700000000008e+00 9.9985700000000008e+00
ITEM: ATOMS id type xs ys zs
465 4 0.072467 0.0646871 0.029543
701 4 0.0850977 0.0484896 0.0286842
700 2 0.109537 0.0494287 0.0234858
702 4 0.133976 0.0503679 0.0182875
566 4 0.136417 0.0696488 0.0188428
565 2 0.159929 0.0767597 0.0235149
2263 2 0.289134 0.989117 0.0280134
746 4 0.48275 0.0590044 0.0150309
2469 4 0.485872 0.0441622 0.027248
2467 2 0.490777 0.0256476 0.0433205
2468 4 0.495682 0.00713303 0.0593931
463 2 0.0654365 0.0851627 0.042053
464 4 0.0584061 0.105638 0.054563
590 4 0.0395174 0.112686 0.0555404
589 2 0.0163797 0.113341 0.0649954
567 4 0.18344 0.0838706 0.028187
558 4 0.320289 0.128208 0.0654663
556 2 0.335094 0.11653 0.081886
557 4 0.349899 0.104851 0.0983058
769 2 0.489272 0.150298 0.0665309
771 4 0.490041 0.130297 0.0515466
554 4 0.0288948 0.210654 0.00514397
553 2 0.0499497 0.219506 0.015318
555 4 0.0710046 0.228358 0.025492
835 2 0.111572 0.215611 0.0136735
836 4 0.0877397 0.219711 0.0200297
837 4 0.135404 0.211512 0.00731737
573 4 0.310614 0.245934 0.063652
666 4 0.325582 0.23623 0.0551338
461 4 0.32605 0.239594 0.0740602
664 2 0.336524 0.216544 0.0442751
665 4 0.347465 0.196857 0.0334163
865 2 0.354651 0.165516 0.00834991
867 4 0.354487 0.188795 0.0174731
770 4 0.488504 0.1703 0.0815151
1070 4 0.435273 0.21686 0.0525032
1069 2 0.442165 0.240874 0.0514832
1014 4 0.492844 0.188245 0.0865068
2808 4 0.0112286 0.32503 0.00198945
2806 2 0.00884787 0.306022 0.0180589
294 4 0.107665 0.321141 0.0362453
292 2 0.132115 0.316155 0.0378296
293 4 0.156566 0.31117 0.0394139
507 4 0.173644 0.321362 0.037194
356 4 0.289887 0.297514 0.0279754
572 4 0.294117 0.290305 0.0475336
571 2 0.302366 0.26812 0.0555928
355 2 0.294934 0.32185 0.0252442
1071 4 0.449056 0.264887 0.0504631
324 4 0.443415 0.277418 0.0651342
322 2 0.438627 0.299599 0.0756361
323 4 0.43384 0.321779 0.0861381
647 4 0.0187989 0.359242 0.0790441
646 2 0.0437527 0.36056 0.0799082
620 4 0.00765217 0.368537 0.0649366
648 4 0.0687066 0.361878 0.0807724
505 2 0.184118 0.341994 0.0277185
506 4 0.194591 0.362627 0.0182429
483 4 0.210282 0.364517 0.0060501
481 2 0.224758 0.380957 0.0181069
482 4 0.239233 0.397397 0.0301638
537 4 0.208165 0.336866 0.0828157
609 4 0.256098 0.40615 0.0327768
357 4 0.299982 0.346186 0.0225131
902 4 0.288922 0.359122 0.00940799
607 2 0.275243 0.422231 0.0330018
957 4 0.385351 0.402168 0.0209164
955 2 0.382841 0.383338 0.00465862
280 2 0.476521 0.404168 0.0665705
281 4 0.482808 0.382609 0.0775643
1465 2 0.00533779 0.484456 0.0825475
1466 4 0.0224602 0.502674 0.0822101
1787 4 0.100664 0.480216 0.076971
1786 2 0.100007 0.482403 0.0520719
1788 4 0.0993494 0.48459 0.0271728
552 4 0.0849124 0.47034 0.0821259
242 4 0.0884825 0.488523 0.0892749
246 4 0.233763 0.47852 0.0404154
244 2 0.217196 0.465398 0.053777
245 4 0.200629 0.452276 0.0671386
627 4 0.181737 0.451851 0.0755005
625 2 0.183218 0.427331 0.0801692
272 4 0.235078 0.488194 0.0225349
1778 4 0.246153 0.493328 0.0378794
608 4 0.294387 0.438313 0.0332268
252 4 0.306731 0.426763 0.0217848
250 2 0.323985 0.436788 0.00671929
271 2 0.244707 0.47518 0.00347922
251 4 0.341239 0.446813 0.991654
525 4 0.371035 0.487769 0.0922371
523 2 0.367491 0.472773 0.0725464
524 4 0.363947 0.457777 0.0528556
282 4 0.470234 0.425727 0.0555767
226 2 0.490042 0.462057 0.0558018
227 4 0.484899 0.438126 0.0506968
228 4 0.495185 0.485987 0.0609068
16 1 0.057804 0.0601246 0.135546
20 3 0.0447294 0.0675114 0.118425
1806 4 0.0642585 0.0191756 0.14175
18 3 0.0546905 0.0373377 0.138623
19 3 0.0525188 0.0715455 0.155041
17 3 0.0798941 0.0639865 0.130421
1804 2 0.0591003 0.00622121 0.120996
673 2 0.117801 0.0631265 0.150283
675 4 0.0940713 0.0676602 0.14384
450 4 0.15935 0.0525503 0.149622
448 2 0.171522 0.0730214 0.142009
674 4 0.141531 0.0585928 0.156727
653 4 0.271789 0.0399235 0.163827
652 2 0.28352 0.017933 0.165819
484 2 0.352623 0.0186411 0.134399
295 2 0.357447 0.0637899 0.106559
297 4 0.353121 0.0401254 0.113375
485 4 0.337103 0.0356456 0.124644
380 4 0.0367516 0.0800288 0.164401
2625 4 0.981697 0.135559 0.134778
579 4 0.104975 0.123821 0.0803015
237 4 0.15094 0.149704 0.123897
578 4 0.135821 0.146942 0.112156
577 2 0.120398 0.135381 0.0962289
476 4 0.134368 0.160024 0.125573
737 4 0.146356 0.163439 0.110814
235 2 0.16706 0.131413 0.129443
692 4 0.242321 0.104707 0.159034
236 4 0.18318 0.113121 0.13499
693 4 0.19353 0.103397 0.148152
449 4 0.183694 0.0934924 0.134396
691 2 0.217925 0.104052 0.153593
296 4 0.361773 0.0874545 0.0997434
738 4 0.165368 0.197194 0.079194
475 2 0.120298 0.172401 0.142126
736 2 0.155862 0.180317 0.0950042
477 4 0.106227 0.184779 0.158679
283 2 0.325676 0.203075 0.144384
354 4 0.328552 0.243747 0.141323
285 4 0.323632 0.179426 0.152242
284 4 0.32772 0.226723 0.136527
462 4 0.326398 0.238708 0.124058
460 2 0.326224 0.239151 0.0990593
255 4 0.341751 0.236142 0.132248
253 2 0.363827 0.242774 0.141935
628 2 0.400222 0.210537 0.164912
630 4 0.393271 0.234271 0.161226
1013 4 0.486161 0.234198 0.105064
1012 2 0.489503 0.211221 0.0957855
455 4 0.121996 0.332548 0.0955905
352 2 0.309326 0.255603 0.152047
353 4 0.290101 0.267458 0.162772
754 2 0.278393 0.297929 0.136565
755 4 0.27907 0.282872 0.156515
278 4 0.271614 0.270229 0.167807
756 4 0.277716 0.312985 0.116614
254 4 0.385904 0.249406 0.151622
528 4 0.488252 0.310955 0.161429
624 4 0.468093 0.310487 0.160117
456 4 0.0861333 0.367099 0.0910243
454 2 0.104065 0.349823 0.0933074
611 4 0.225602 0.333154 0.0912987
610 2 0.249737 0.330362 0.0972026
536 4 0.192929 0.384414 0.0855951
626 4 0.184698 0.402812 0.084838
535 2 0.200547 0.36064 0.0842054
612 4 0.273873 0.327571 0.103106
302 4 0.326113 0.418305 0.144452
387 4 0.339498 0.407937 0.154961
741 4 0.400751 0.368089 0.104765
739 2 0.399001 0.372954 0.129228
740 4 0.397251 0.377819 0.153691
15 3 0.385287 0.369019 0.166479
385 2 0.362114 0.398123 0.15913
386 4 0.38473 0.388309 0.163299
495 4 0.403576 0.394815 0.160871
493 2 0.413219 0.417658 0.157645
672 4 0.431656 0.341234 0.0886232
670 2 0.449747 0.358471 0.0877442
671 4 0.467838 0.375708 0.0868653
2651 4 0.484552 0.367683 0.0891373
551 4 0.0586137 0.432358 0.10127
1791 4 0.0268987 0.50921 0.100005
550 2 0.0717631 0.451349 0.0916979
241 2 0.103519 0.493068 0.108728
1438 2 0.140362 0.502771 0.151202
1439 4 0.164708 0.499779 0.156046
1440 4 0.116015 0.505763 0.146358
637 2 0.20779 0.490882 0.145149
638 4 0.231989 0.484797 0.143544
767 4 0.248776 0.489343 0.134023
639 4 0.183591 0.496968 0.146754
303 4 0.311367 0.460276 0.121611
766 2 0.271421 0.479374 0.130411
768 4 0.294065 0.469406 0.1268
301 2 0.31874 0.43929 0.133032
494 4 0.422863 0.4405 0.15442
660 4 0.417018 0.457085 0.163963
2480 4 0.00337436 0.984416 0.234056
1505 4 0.15367 0.0479607 0.167735
1504 2 0.167571 0.0291121 0.176492
1506 4 0.181471 0.0102635 0.185249
689 4 0.177165 0.998074 0.200694
654 4 0.295252 0.995942 0.167811
1661 4 0.314138 0.996863 0.165274
21 1 0.40983 0.0126374 0.215499
23 3 0.395457 0.0242682 0.20148
24 3 0.400559 0.0109316 0.236701
757 2 0.448313 0.0562374 0.209236
25 3 0.429911 0.023321 0.216636
759 4 0.44283 0.036092 0.222994
350 4 0.44646 0.0174173 0.225304
758 4 0.453795 0.0763827 0.195478
379 2 0.0302973 0.096656 0.181924
512 4 0.0244418 0.122425 0.216841
381 4 0.023843 0.113283 0.199447
511 2 0.0391013 0.142675 0.217302
513 4 0.0537609 0.162925 0.217764
339 4 0.0698018 0.172221 0.208829
582 4 0.256294 0.0915706 0.163535
580 2 0.269635 0.104644 0.180156
581 4 0.282977 0.117717 0.196778
30 3 0.293044 0.133636 0.201798
26 1 0.294414 0.152466 0.189063
27 3 0.308438 0.167544 0.199317
28 3 0.273407 0.162069 0.186846
29 3 0.302995 0.147268 0.168141
311 4 0.460378 0.169139 0.163471
521 4 0.484058 0.130293 0.241635
520 2 0.501296 0.14526 0.231436
363 4 0.114384 0.196829 0.172851
337 2 0.0826879 0.182833 0.190215
338 4 0.095574 0.193445 0.1716
362 4 0.150995 0.224441 0.1928
361 2 0.13269 0.210635 0.182826
372 4 0.150987 0.242029 0.204889
723 4 0.215691 0.218687 0.233351
629 4 0.407173 0.186804 0.168598
312 4 0.415001 0.176452 0.183172
310 2 0.437689 0.172796 0.173322
761 4 0.488228 0.233255 0.247018
749 4 0.0621775 0.319994 0.176159
750 4 0.0645841 0.278252 0.20359
395 4 0.055558 0.28117 0.221292
748 2 0.0633808 0.299123 0.189875
394 2 0.0392166 0.283272 0.2401
370 2 0.134096 0.250856 0.221075
300 4 0.141744 0.326049 0.188121
371 4 0.117205 0.259682 0.237261
401 4 0.237419 0.293047 0.251661
279 4 0.222152 0.263165 0.169886
277 2 0.246883 0.266697 0.168846
307 2 0.319309 0.302462 0.209252
308 4 0.306599 0.311621 0.228738
497 4 0.30174 0.325763 0.242059
309 4 0.33202 0.293303 0.189765
765 4 0.397308 0.252274 0.167635
763 2 0.4085 0.267934 0.183593
764 4 0.419693 0.283595 0.199551
623 4 0.434821 0.294094 0.193658
622 2 0.451457 0.302291 0.176887
262 2 0.0355503 0.394272 0.240369
263 4 0.0443935 0.377029 0.256169
602 4 0.051337 0.360416 0.248399
601 2 0.0738915 0.352205 0.241395
298 2 0.125111 0.3288 0.206586
299 4 0.108479 0.331552 0.225052
603 4 0.096446 0.343994 0.23439
734 4 0.113963 0.338963 0.241832
291 4 0.178536 0.397809 0.215727
290 4 0.19159 0.356369 0.190967
289 2 0.185063 0.377089 0.203347
14 3 0.413605 0.38987 0.179931
11 1 0.401148 0.370499 0.182755
13 3 0.391066 0.37054 0.203653
12 3 0.4152 0.352344 0.181313
264 4 0.0267072 0.411515 0.224568
2618 4 0.00954652 0.42309 0.225233
416 4 0.182946 0.416305 0.217325
415 2 0.190746 0.439568 0.212512
1430 4 0.203771 0.482959 0.207109
417 4 0.198546 0.462831 0.207699
658 2 0.43228 0.474315 0.17373
2861 4 0.471417 0.440855 0.264068
659 4 0.447541 0.491545 0.183498
595 2 0.479169 0.488613 0.197746
597 4 0.497328 0.473458 0.205854
232 2 0.00752642 0.0459746 0.308037
1799 4 0.031906 0.00861269 0.310511
233 4 0.0211043 0.0249789 0.308055
1402 2 0.056368 0.0279756 0.296748
1403 4 0.0333578 0.0186413 0.293818
1404 4 0.0793782 0.0373098 0.299677
633 4 0.389096 0.058429 0.300401
631 2 0.389536 0.0685193 0.277528
257 4 0.37911 0.0594258 0.317997
698 4 0.38604 0.0426991 0.311354
697 2 0.374831 0.0210185 0.316786
632 4 0.389977 0.0786096 0.254656
349 2 0.454455 0.0180204 0.248987
744 4 0.474842 0.0149347 0.287703
742 2 0.485421 0.0237965 0.308553
351 4 0.46245 0.0186234 0.27267
399 4 0.0467966 0.107386 0.327729
397 2 0.0584314 0.125757 0.315388
390 4 0.0689702 0.155533 0.287058
398 4 0.0700663 0.144128 0.303046
393 4 0.0853745 0.144959 0.291236
545 4 0.147689 0.14445 0.268798
392 4 0.129447 0.15444 0.269593
391 2 0.107411 0.149699 0.280414
544 2 0.170125 0.155462 0.269538
444 4 0.0472589 0.250094 0.304585
388 2 0.0600557 0.177464 0.295103
389 4 0.0511412 0.199396 0.303149
404 4 0.216193 0.171583 0.329327
721 2 0.210607 0.199007 0.247912
403 2 0.212441 0.172045 0.304611
405 4 0.208689 0.172506 0.279895
546 4 0.19256 0.166475 0.270279
722 4 0.205522 0.179327 0.262473
378 4 0.291577 0.241432 0.334444
420 4 0.397459 0.211119 0.254087
717 4 0.395164 0.228162 0.26441
331 2 0.452691 0.203038 0.308586
332 4 0.450776 0.207275 0.284018
418 2 0.419573 0.203198 0.262656
419 4 0.441686 0.195278 0.271225
760 2 0.474741 0.215685 0.258619
762 4 0.461255 0.198115 0.27022
333 4 0.454607 0.198801 0.333153
364 2 0.0129727 0.315998 0.287388
442 2 0.0322909 0.263731 0.289916
396 4 0.0228752 0.285374 0.258907
443 4 0.0173229 0.277367 0.275247
365 4 0.013165 0.296446 0.271804
677 4 0.128044 0.307841 0.30227
676 2 0.149579 0.315462 0.312436
733 2 0.122343 0.32667 0.261928
735 4 0.130724 0.314377 0.282023
510 4 0.225944 0.291174 0.320438
508 2 0.206697 0.305779 0.326878
400 2 0.234329 0.291883 0.276445
402 4 0.231238 0.290718 0.301229
509 4 0.187451 0.320383 0.333318
345 4 0.244463 0.288365 0.315583
678 4 0.171114 0.323082 0.322602
343 2 0.259642 0.270517 0.324313
344 4 0.274821 0.252669 0.333044
715 2 0.389427 0.247139 0.279647
716 4 0.383691 0.266115 0.294885
542 4 0.371841 0.280374 0.286343
541 2 0.37697 0.300964 0.299569
543 4 0.3821 0.321554 0.312795
615 4 0.398001 0.331472 0.319413
366 4 0.0127804 0.33555 0.302973
548 4 0.0141831 0.350835 0.315681
547 2 0.0280339 0.369752 0.306994
549 4 0.0418847 0.388669 0.298306
777 4 0.0557208 0.398598 0.308256
407 4 0.00788844 0.333616 0.321435
496 2 0.280398 0.328661 0.25476
498 4 0.259056 0.331559 0.267461
728 4 0.3799 0.380275 0.284133
727 2 0.366513 0.397811 0.295899
2860 2 0.486553 0.420954 0.263845
2862 4 0.501689 0.401054 0.263621
2538 4 0.470759 0.351886 0.284392
2536 2 0.486269 0.366479 0.271288
753 4 0.487542 0.349964 0.296954
751 2 0.495649 0.333139 0.313578
775 2 0.0691267 0.414711 0.321887
776 4 0.0825327 0.430825 0.335518
412 2 0.106969 0.467147 0.334486
413 4 0.124267 0.484919 0.33766
1545 4 0.188661 0.478038 0.318044
1436 4 0.202751 0.481682 0.304935
1543 2 0.166204 0.484063 0.327242
729 4 0.353125 0.415347 0.307665
436 2 0.371799 0.453075 0.318145
437 4 0.36122 0.432883 0.307872
438 4 0.382377 0.473268 0.328418
1771 2 0.0138391 0.00143603 0.382741
1772 4 0.021926 0.0132859 0.40322
2238 4 0.0258904 0.0307057 0.394626
2236 2 0.0290441 0.0444987 0.415241
732 4 0.0897906 0.0778658 0.3711
367 2 0.0865593 0.047199 0.396454
369 4 0.0830911 0.0601683 0.37536
606 4 0.115743 0.0858573 0.398782
256 2 0.382602 0.068734 0.34094
258 4 0.386095 0.0780421 0.363882
426 4 0.376654 0.0764606 0.382593
424 2 0.384727 0.063278 0.402246
699 4 0.363623 0.999338 0.322218
479 4 0.499311 0.0477012 0.341913
478 2 0.493509 0.0720023 0.342896
458 4 0.0114048 0.153398 0.369241
317 4 0.0345207 0.101922 0.341485
731 4 0.0539421 0.101361 0.34534
730 2 0.0718663 0.0896132 0.35822
318 4 0.00547151 0.133272 0.367448
316 2 0.0199961 0.117597 0.354466
604 2 0.138933 0.0781193 0.393536
605 4 0.162123 0.0703812 0.388289
1701 4 0.181647 0.0714034 0.386781
247 2 0.202195 0.147455 0.355875
248 4 0.19785 0.124693 0.365265
1699 2 0.186525 0.0901748 0.371001
1700 4 0.191403 0.108946 0.355221
319 2 0.304928 0.114949 0.399291
320 4 0.287331 0.10033 0.409382
706 2 0.321033 0.15743 0.358222
684 4 0.272496 0.109799 0.417879
321 4 0.322525 0.129567 0.389201
708 4 0.330294 0.137858 0.370726
480 4 0.487706 0.0963033 0.343878
516 4 0.448679 0.133361 0.354846
575 4 0.439433 0.128838 0.371573
574 2 0.453731 0.121234 0.390623
514 2 0.453137 0.156694 0.347045
576 4 0.468029 0.11363 0.409673
2654 4 0.00825428 0.212816 0.370498
459 4 0.00798023 0.201373 0.355551
457 2 0.0096925 0.177386 0.362396
249 4 0.20654 0.170218 0.346486
376 2 0.301273 0.218596 0.337555
377 4 0.310969 0.19576 0.340667
707 4 0.311773 0.177003 0.345718
474 4 0.264141 0.235773 0.405645
488 4 0.279253 0.222979 0.410356
267 4 0.380088 0.24823 0.403981
452 4 0.500722 0.225259 0.361787
515 4 0.457595 0.180028 0.339244
453 4 0.46251 0.195013 0.350575
451 2 0.481616 0.210136 0.356181
406 2 0.0193725 0.326308 0.342408
408 4 0.0308565 0.319 0.363382
618 4 0.0774493 0.332716 0.362275
275 4 0.140638 0.308756 0.349726
617 4 0.119696 0.311091 0.346519
616 2 0.0985729 0.321904 0.354397
274 2 0.155185 0.307404 0.370016
435 4 0.176397 0.336451 0.335614
473 4 0.238857 0.261975 0.371368
374 4 0.223254 0.274499 0.370877
276 4 0.169733 0.306052 0.390307
373 2 0.202173 0.282736 0.381503
375 4 0.181092 0.290974 0.392129
472 2 0.251499 0.248874 0.388507
265 2 0.365644 0.268281 0.40779
752 4 0.503756 0.316313 0.330202
347 4 0.0799231 0.329852 0.383276
346 2 0.0713902 0.338551 0.405109
433 2 0.186656 0.357987 0.343107
434 4 0.196914 0.379523 0.350599
502 2 0.30235 0.399803 0.405446
503 4 0.319161 0.411972 0.3915
336 4 0.331514 0.418078 0.377742
613 2 0.421342 0.335261 0.327536
238 2 0.402463 0.415887 0.412495
334 2 0.354967 0.410057 0.381033
335 4 0.378419 0.402036 0.384323
240 4 0.394665 0.39962 0.395182
614 4 0.444684 0.339051 0.335659
414 4 0.0896702 0.449374 0.331312
1544 4 0.143748 0.490088 0.33644
669 4 0.321478 0.431198 0.387985
667 2 0.322482 0.451719 0.402235
594 4 0.446027 0.46564 0.367499
592 2 0.434863 0.486902 0.374458
3990 4 0.481066 0.495614 0.3613
1126 2 0.000811096 0.0590647 0.460282
368 4 0.0900276 0.0342297 0.417547
1127 4 0.0198962 0.0685174 0.447183
2237 4 0.0321978 0.0582916 0.435856
720 4 0.0358781 0.0765145 0.43938
1780 2 0.074695 0.00583971 0.44592
1782 4 0.0779375 0.0233632 0.428382
961 2 0.261251 0.990967 0.490889
724 2 0.300226 0.0386068 0.482591
726 4 0.303428 0.0632934 0.480246
725 4 0.297024 0.0139203 0.484936
1182 4 0.299227 0.0721631 0.46385
963 4 0.284606 0.99854 0.486162
425 4 0.392801 0.0500955 0.421898
1579 2 0.37496 0.0170834 0.429654
1580 4 0.37723 0.0419597 0.430748
642 4 0.455228 0.0547452 0.444907
2878 2 0.443455 0.0581742 0.487249
2880 4 0.446546 0.0604525 0.462542
640 2 0.460931 0.0758626 0.432794
470 4 0.00902999 0.156454 0.510846
718 2 0.0466254 0.0884849 0.458522
719 4 0.0573727 0.100455 0.477663
1033 2 0.131784 0.135203 0.481756
1035 4 0.144467 0.128645 0.46123
261 4 0.150917 0.144053 0.448652
1034 4 0.119102 0.141762 0.502282
600 4 0.241719 0.164192 0.420049
683 4 0.236649 0.144327 0.422733
682 2 0.254572 0.127063 0.420306
1180 2 0.288277 0.0815284 0.443415
1181 4 0.277327 0.0908937 0.422981
641 4 0.466633 0.09698 0.420681
306 4 0.465305 0.114152 0.429178
304 2 0.461949 0.132306 0.44604
3158 4 0.458144 0.154452 0.482346
305 4 0.458592 0.150461 0.462902
259 2 0.160087 0.167226 0.446631
694 2 0.148723 0.211387 0.476955
695 4 0.159212 0.201492 0.456528
260 4 0.169257 0.1904 0.444611
696 4 0.138235 0.221281 0.497382
598 2 0.242349 0.184417 0.434738
599 4 0.242979 0.204641 0.449426
687 4 0.225908 0.213035 0.449966
686 4 0.176232 0.207363 0.45088
685 2 0.20107 0.210199 0.450423
411 4 0.23594 0.209652 0.466888
409 2 0.248784 0.218087 0.486613
489 4 0.291645 0.216501 0.458368
487 2 0.285449 0.21974 0.434362
468 4 0.382018 0.229742 0.407769
466 2 0.367823 0.214949 0.422081
467 4 0.353628 0.200155 0.436393
813 4 0.233463 0.284768 0.501943
266 4 0.3512 0.288332 0.411599
583 2 0.484107 0.265772 0.49709
348 4 0.0628573 0.34725 0.426943
2812 2 0.0193034 0.345944 0.428816
2813 4 0.0439923 0.349304 0.426731
326 4 0.0549722 0.364681 0.432057
325 2 0.0714245 0.372632 0.449124
327 4 0.0878768 0.380583 0.466191
10 3 0.142516 0.367609 0.470104
7 3 0.10735 0.380099 0.469651
6 1 0.125915 0.376665 0.482793
711 4 0.146812 0.41122 0.492557
8 3 0.132818 0.397037 0.491495
9 3 0.120325 0.362173 0.500032
709 2 0.169648 0.407141 0.483225
774 4 0.203747 0.403818 0.490157
635 4 0.210996 0.408643 0.472444
710 4 0.192483 0.403063 0.473894
634 2 0.211503 0.41627 0.448638
504 4 0.285539 0.387634 0.419392
587 4 0.399203 0.421566 0.493124
679 2 0.0820347 0.472438 0.497683
680 4 0.0703137 0.49158 0.486666
1383 4 0.0542586 0.496124 0.476888
384 4 0.148287 0.430476 0.49406
569 4 0.161542 0.444827 0.492288
568 2 0.164046 0.468753 0.499105
681 4 0.0937557 0.453295 0.508699
636 4 0.212009 0.423897 0.424831
570 4 0.166549 0.492679 0.505921
668 4 0.323486 0.47224 0.416485
4 3 0.321404 0.482736 0.434535
588 4 0.398397 0.434745 0.444891
239 4 0.410261 0.432154 0.429808
586 2 0.3988 0.428155 0.469007
1184 4 0.00106688 0.0268229 0.551041
1183 2 0.0149229 0.0123242 0.565974
1150 2 0.143097 0.0658033 0.554168
342 4 0.148787 0.0451062 0.531905
1152 4 0.13202 0.0564271 0.533808
340 2 0.158061 0.0241528 0.521899
1151 4 0.154174 0.0751795 0.574529
1059 4 0.172573 0.0754092 0.581634
2430 4 0.174013 0.985743 0.518211
341 4 0.167336 0.0031994 0.511893
432 4 0.301072 0.997951 0.495744
841 2 0.345711 0.00662704 0.558287
842 4 0.357514 0.012129 0.579632
843 4 0.333907 0.0011251 0.536943
2879 4 0.440364 0.0558959 0.511956
879 4 0.0571722 0.158129 0.546074
877 2 0.0366891 0.145855 0.553488
1199 4 0.996653 0.138093 0.565202
878 4 0.0162061 0.133581 0.560902
938 4 0.0757885 0.155966 0.540207
937 2 0.088783 0.145188 0.521764
939 4 0.101777 0.134409 0.503321
3157 2 0.477312 0.148038 0.497064
1272 4 0.0720252 0.160729 0.55908
1270 2 0.0805384 0.178892 0.574006
1258 2 0.131827 0.232656 0.528508
1260 4 0.148944 0.23366 0.510309
1259 4 0.114711 0.231653 0.546706
898 2 0.282722 0.208496 0.534996
899 4 0.301284 0.205698 0.551513
900 4 0.26416 0.211295 0.518479
791 4 0.319402 0.199204 0.553142
857 4 0.305994 0.194059 0.566905
856 2 0.310464 0.179494 0.586731
790 2 0.333175 0.21991 0.555738
410 4 0.261627 0.226522 0.506338
792 4 0.346949 0.240616 0.558333
585 4 0.476918 0.245753 0.510234
811 2 0.248188 0.303292 0.510017
812 4 0.262914 0.321817 0.51809
650 4 0.268068 0.324858 0.536757
649 2 0.273878 0.3184 0.560203
871 2 0.362076 0.267709 0.529603
872 4 0.347991 0.253016 0.544125
1238 4 0.351638 0.259057 0.562099
873 4 0.376161 0.282402 0.51508
992 4 0.0770532 0.393624 0.572442
1136 4 0.104923 0.420274 0.555572
1135 2 0.122535 0.403293 0.560731
897 4 0.152737 0.402439 0.567008
1137 4 0.140147 0.386311 0.56589
773 4 0.243656 0.398918 0.519888
1189 2 0.228685 0.408834 0.558234
772 2 0.223701 0.401368 0.505022
895 2 0.174351 0.410798 0.576395
1190 4 0.243796 0.4021 0.539486
804 4 0.266808 0.339342 0.523543
803 4 0.252782 0.386588 0.532015
802 2 0.259795 0.362965 0.527779
930 4 0.25974 0.404605 0.528899
928 2 0.283674 0.411715 0.530236
926 4 0.412664 0.410753 0.502505
925 2 0.422872 0.392821 0.516626
927 4 0.433081 0.374889 0.530747
382 2 0.124807 0.432182 0.502485
383 4 0.101328 0.433888 0.51091
896 4 0.195965 0.419158 0.585783
1191 4 0.213574 0.415568 0.576983
1160 4 0.198513 0.500414 0.58744
929 4 0.307608 0.418825 0.531573
891 4 0.294333 0.501747 0.527284
1952 4 0.303415 0.484499 0.526195
881 4 0.310923 0.500158 0.517747
1951 2 0.306527 0.460544 0.53265
1953 4 0.30964 0.436589 0.539104
663 4 0.407835 0.428794 0.509628
661 2 0.4175 0.44692 0.523883
1001 4 0.425631 0.483929 0.543482
662 4 0.427165 0.465047 0.538137
1911 4 0.430606 0.4702 0.556895
1332 4 0.443183 0.475075 0.542509
1330 2 0.461722 0.49117 0.537773
1909 2 0.432522 0.454332 0.576123
1284 4 0.119362 0.0513015 0.67134
1058 4 0.187049 0.0335543 0.604858
1057 2 0.179811 0.0544817 0.593246
2375 4 0.192922 0.0141671 0.605784
950 4 0.251915 0.0273688 0.660926
949 2 0.263394 0.0417753 0.644019
951 4 0.274874 0.0561818 0.627112
1031 4 0.294854 0.0625901 0.634287
1030 2 0.309216 0.0805867 0.644037
1216 2 0.394553 0.0157681 0.582483
1218 4 0.417074 0.00496471 0.583607
1217 4 0.372032 0.0265715 0.581359
43 3 0.445375 0.0612583 0.636173
808 2 0.491688 0.0802348 0.646187
41 1 0.438853 0.068065 0.657375
42 3 0.421497 0.0830285 0.65537
810 4 0.475592 0.0835475 0.665032
1083 4 0.988386 0.14465 0.653516
3179 4 0.997197 0.158941 0.665743
1081 2 0.988711 0.124605 0.668458
1155 4 0.161058 0.0909717 0.583566
1221 4 0.161113 0.146413 0.614802
1153 2 0.16515 0.109457 0.599898
1154 4 0.169241 0.127943 0.616229
1219 2 0.178041 0.162874 0.623028
858 4 0.314933 0.164929 0.606557
1209 4 0.0965947 0.199885 0.655307
1245 4 0.0960967 0.218 0.6451
1271 4 0.0890517 0.197055 0.588932
1243 2 0.0856581 0.210759 0.623565
1244 4 0.0752194 0.203517 0.602029
1211 4 0.251546 0.166826 0.656635
1210 2 0.231722 0.177681 0.645941
1212 4 0.211899 0.188537 0.635248
1220 4 0.194968 0.179336 0.631254
797 4 0.170843 0.236547 0.626125
796 2 0.18301 0.216104 0.633821
798 4 0.195176 0.195661 0.641518
1193 4 0.397536 0.21526 0.654361
3121 2 0.48157 0.225523 0.619693
3122 4 0.496181 0.206081 0.625496
3357 4 0.494061 0.190715 0.639326
983 4 0.0488333 0.284429 0.612904
982 2 0.0506865 0.301042 0.631498
984 4 0.0525396 0.317656 0.650092
3263 4 0.0426984 0.329701 0.661844
651 4 0.279689 0.311942 0.583649
805 2 0.299959 0.291396 0.608546
806 4 0.277973 0.298419 0.598932
807 4 0.321946 0.284372 0.61816
1239 4 0.336701 0.276733 0.606429
1237 2 0.344169 0.267895 0.584264
906 4 0.462289 0.30314 0.601036
905 4 0.468142 0.253759 0.595746
3123 4 0.466959 0.244966 0.613889
904 2 0.465215 0.278449 0.598391
952 2 0.493881 0.329012 0.585856
953 4 0.478333 0.309895 0.590098
1041 4 0.0588444 0.336335 0.653363
1039 2 0.0558874 0.358687 0.642554
1040 4 0.0529304 0.381039 0.631746
993 4 0.0560815 0.394981 0.617819
991 2 0.0665673 0.394303 0.595131
1068 4 0.191829 0.395925 0.664152
1028 4 0.196822 0.402605 0.646533
3309 4 0.497399 0.398927 0.622705
1206 4 0.483463 0.411267 0.627444
1176 4 0.176919 0.447025 0.683176
1172 4 0.20667 0.433643 0.579261
1027 2 0.213179 0.421469 0.645205
1171 2 0.204125 0.457682 0.585651
1029 4 0.229536 0.440334 0.643878
1173 4 0.201579 0.481721 0.592041
1187 4 0.208251 0.495793 0.603781
1186 2 0.20136 0.49319 0.627675
1175 4 0.174748 0.48875 0.655698
1174 2 0.175833 0.467888 0.669437
1268 4 0.409814 0.472789 0.646854
2168 4 0.413487 0.486691 0.663021
1267 2 0.418103 0.456116 0.630166
1204 2 0.461569 0.418851 0.618047
1910 4 0.434438 0.438464 0.595351
1269 4 0.426392 0.439443 0.613477
1205 4 0.439676 0.426435 0.608649
3182 4 0.502093 0.417723 0.627677
1282 2 0.121353 0.0719909 0.685238
825 4 0.0990918 0.99212 0.693334
1201 2 0.175454 0.0450558 0.72894
2256 4 0.181759 0.00291308 0.732476
2049 4 0.167596 0.0101298 0.743857
1202 4 0.173294 0.020151 0.728425
1203 4 0.177615 0.0699606 0.729454
1005 4 0.345486 0.0567522 0.675441
1003 2 0.341669 0.0320426 0.67521
1164 4 0.489913 0.0333932 0.706474
45 3 0.431897 0.0500919 0.669509
1162 2 0.480317 0.0513931 0.692014
1163 4 0.47072 0.0693929 0.677554
44 3 0.456558 0.0785109 0.668137
1077 4 0.0329614 0.102778 0.734862
1075 2 0.0167698 0.0999273 0.716024
850 2 0.0682464 0.168199 0.724455
1076 4 0.000578157 0.0970768 0.697185
1226 4 0.167561 0.0833721 0.738771
851 4 0.0871963 0.173145 0.708911
909 4 0.0969747 0.15604 0.70948
907 2 0.107828 0.134108 0.704347
908 4 0.11868 0.112175 0.699214
1283 4 0.123344 0.0926803 0.699137
1227 4 0.132116 0.105354 0.711182
1225 2 0.149838 0.094363 0.724976
1148 4 0.181481 0.0736237 0.748552
1147 2 0.197927 0.0922693 0.751202
1032 4 0.323577 0.0985833 0.653786
829 2 0.320162 0.149601 0.717235
830 4 0.296384 0.15733 0.717477
887 4 0.281538 0.159727 0.704032
831 4 0.34394 0.141873 0.716993
1142 4 0.362706 0.141828 0.709171
1141 2 0.380313 0.159571 0.709748
1025 4 0.456519 0.149403 0.704205
3424 2 0.467534 0.111543 0.690654
3426 4 0.466641 0.0883217 0.681426
3425 4 0.468426 0.134764 0.699883
3269 4 0.474528 0.148039 0.712638
3268 2 0.486222 0.162918 0.72898
1024 2 0.436677 0.16453 0.705824
845 4 0.42733 0.0751031 0.735162
852 4 0.0492965 0.163253 0.739999
1213 2 0.0160379 0.19084 0.74098
1214 4 0.0340994 0.174864 0.734369
1215 4 0.997976 0.206817 0.747592
1208 4 0.0980545 0.167442 0.693334
1207 2 0.0973246 0.183664 0.67432
1107 4 0.106789 0.1734 0.710251
1105 2 0.122439 0.185117 0.725838
1106 4 0.13809 0.196833 0.741425
1130 4 0.144046 0.216707 0.740783
888 4 0.266323 0.179519 0.660702
886 2 0.27393 0.169623 0.682367
978 4 0.282682 0.170593 0.720249
976 2 0.285454 0.188771 0.737191
1194 4 0.404158 0.191125 0.697654
1192 2 0.400847 0.203192 0.676007
1143 4 0.397921 0.177314 0.710325
1262 4 0.406446 0.193526 0.71705
1026 4 0.416834 0.179658 0.707442
1261 2 0.415285 0.199294 0.739717
3270 4 0.497915 0.177797 0.745322
3262 2 0.0490962 0.318631 0.683331
3264 4 0.055494 0.307561 0.704819
779 4 0.0593375 0.293066 0.717237
893 4 0.0688244 0.310016 0.719516
892 2 0.0667744 0.329324 0.73527
778 2 0.0690462 0.270026 0.716946
780 4 0.0787549 0.246986 0.716656
1065 4 0.225673 0.309433 0.701916
1063 2 0.249904 0.30473 0.697922
947 4 0.292248 0.253601 0.731358
946 2 0.291786 0.273214 0.715856
948 4 0.291323 0.292826 0.700354
1064 4 0.274134 0.300027 0.693928
917 4 0.299001 0.262671 0.748032
1008 4 0.419687 0.292407 0.729169
1006 2 0.433033 0.286475 0.749464
894 4 0.0647243 0.348632 0.751023
1067 4 0.154883 0.385844 0.69631
940 2 0.13108 0.391928 0.732977
941 4 0.146334 0.385384 0.714278
942 4 0.115826 0.398471 0.751677
1066 2 0.173356 0.390885 0.680231
1139 4 0.28666 0.476545 0.704014
1138 2 0.303371 0.469981 0.721415
1140 4 0.320083 0.463417 0.738817
1100 4 0.400634 0.435675 0.742422
1228 2 0.359761 0.447197 0.74574
1229 4 0.335518 0.451843 0.741757
1101 4 0.446676 0.454894 0.739029
1099 2 0.423655 0.445284 0.740726
3330 4 0.461974 0.442891 0.736245
3328 2 0.476949 0.436576 0.717244
3329 4 0.491924 0.430261 0.698243
1113 4 0.374787 0.0621145 0.823506
2321 4 0.452729 0.00746789 0.808249
2322 4 0.455217 0.0482854 0.779466
2320 2 0.453973 0.0278767 0.793858
846 4 0.435997 0.0541337 0.779725
844 2 0.431663 0.0646184 0.757443
864 4 0.0316918 0.107226 0.753696
862 2 0.0426708 0.117562 0.773641
863 4 0.0536498 0.127897 0.793587
833 4 0.0530067 0.113892 0.807127
1125 4 0.0600358 0.131279 0.811523
1123 2 0.0694884 0.151143 0.823409
832 2 0.0432869 0.0995903 0.825188
911 4 0.112887 0.101257 0.817742
1149 4 0.214374 0.110915 0.753852
1257 4 0.232286 0.118774 0.750085
1255 2 0.239123 0.124739 0.773385
921 4 0.233095 0.136487 0.810308
919 2 0.21458 0.151799 0.817228
920 4 0.196065 0.167112 0.824149
1256 4 0.245959 0.130703 0.796684
840 4 0.252048 0.13586 0.814372
838 2 0.26749 0.137527 0.833967
1111 2 0.37701 0.0860334 0.830443
34 3 0.127238 0.184792 0.826158
1129 2 0.151128 0.223291 0.763841
822 4 0.170953 0.242886 0.794981
1131 4 0.158211 0.229875 0.786898
1277 4 0.172233 0.223686 0.799007
1276 2 0.180416 0.204486 0.812776
1278 4 0.1886 0.185286 0.826544
916 2 0.295746 0.240344 0.758807
977 4 0.288227 0.20695 0.754133
918 4 0.292491 0.218016 0.769581
1298 4 0.296959 0.198616 0.769447
1297 2 0.302747 0.193572 0.793243
1299 4 0.308535 0.188527 0.817038
1086 4 0.314535 0.20049 0.831742
50 3 0.390325 0.217349 0.785598
46 1 0.410729 0.212973 0.794718
49 3 0.414874 0.227611 0.812239
48 3 0.411457 0.191073 0.802352
47 3 0.426965 0.215798 0.778669
1263 4 0.424124 0.205062 0.762383
1146 4 0.487186 0.189478 0.756823
1145 4 0.441778 0.205096 0.770787
1144 2 0.464482 0.197287 0.763805
1022 4 0.426339 0.187623 0.815255
1043 4 0.421411 0.247297 0.81322
1021 2 0.445478 0.185864 0.831248
3188 4 0.0144009 0.239668 0.791332
3187 2 0.0374308 0.248764 0.787857
3189 4 0.0604607 0.257859 0.784383
821 4 0.167331 0.292712 0.792739
820 2 0.169142 0.267799 0.79386
1098 4 0.236145 0.329372 0.81959
1096 2 0.249194 0.30938 0.827019
1235 4 0.236023 0.32719 0.80005
1306 2 0.502825 0.252911 0.822676
1042 2 0.432888 0.26586 0.801018
1044 4 0.444365 0.284422 0.788817
1007 4 0.446378 0.280544 0.76976
1165 2 0.480935 0.280519 0.779822
1166 4 0.459151 0.292655 0.777995