ITEM: TIMESTEP
760000
ITEM: NUMBER OF ATOMS
4590
ITEM: BOX BOUNDS pp pp pp
-9.9985700000000008e+00 9.9985700000000008e+00
-9.9985700000000008e+00 9.9985700000000008e+00
-9.9985700000000008e+00 9.9985700000000008e+00
ITEM: ATOMS id type xs ys zs
463 2 0.0352538 0.0698547 0.0264988
464 4 0.0108323 0.0645038 0.0268662
465 4 0.0596753 0.0752056 0.0261314
701 4 0.0642585 0.085448 0.0422449
491 4 0.276932 0.00896942 0.0421857
558 4 0.349774 0.0591274 0.040188
556 2 0.351696 0.0655547 0.0642748
745 2 0.469133 0.0528513 0.00962473
746 4 0.482522 0.04914 0.0304128
589 2 0.0228125 0.134948 0.0676728
591 4 0.0177486 0.134084 0.0432026
421 2 0.0805519 0.139185 0.00864103
700 2 0.0837538 0.0995422 0.0490613
702 4 0.103249 0.113636 0.0558778
566 4 0.120695 0.103587 0.0523388
565 2 0.145241 0.104848 0.0477484
423 4 0.089645 0.118886 0.0200624
567 4 0.169788 0.106108 0.043158
360 4 0.264293 0.150335 0.0247888
358 2 0.2719 0.133054 0.00839683
1013 4 0.479134 0.16447 0.0361994
553 2 0.0481992 0.196798 0.0246378
554 4 0.0382314 0.175383 0.0328366
836 4 0.0748443 0.21119 0.00731537
555 4 0.0581671 0.218213 0.016439
915 4 0.125885 0.222116 0.990138
835 2 0.0993018 0.216208 0.00866773
666 4 0.328584 0.222846 0.0243505
664 2 0.329446 0.202712 0.00955026
573 4 0.321595 0.238112 0.0349662
571 2 0.300614 0.250755 0.029954
461 4 0.336379 0.227045 0.0419628
460 2 0.34948 0.226422 0.0632505
462 4 0.36258 0.225799 0.0845382
1014 4 0.476009 0.214344 0.0343344
1012 2 0.477572 0.189407 0.0352669
324 4 0.420775 0.249588 0.0486011
292 2 0.124394 0.29665 0.0476256
293 4 0.140767 0.283208 0.0609078
294 4 0.108021 0.310092 0.0343433
507 4 0.159963 0.285649 0.0668544
505 2 0.181101 0.291446 0.0788855
355 2 0.241474 0.284315 0.0186036
357 4 0.21845 0.294065 0.0187113
481 2 0.237008 0.317064 0.0852677
356 4 0.264498 0.274565 0.0184959
572 4 0.279633 0.263398 0.0249418
482 4 0.260883 0.319833 0.0783756
1069 2 0.41711 0.251496 0.0135132
957 4 0.377167 0.323516 0.00297843
1071 4 0.433341 0.253432 0.0324339
322 2 0.429175 0.266026 0.0654649
670 2 0.455523 0.316025 0.0651739
519 4 0.477969 0.256677 0.0681045
323 4 0.437575 0.282465 0.0823287
672 4 0.445126 0.293507 0.0683397
287 4 0.141729 0.347966 0.998266
455 4 0.127203 0.390893 0.0659461
286 2 0.156718 0.367516 0.993987
609 4 0.268967 0.337768 0.083506
252 4 0.28608 0.396496 0.0623505
250 2 0.297798 0.412647 0.0472844
608 4 0.292566 0.377561 0.0645252
607 2 0.280767 0.357664 0.0740156
671 4 0.46592 0.338543 0.0620081
281 4 0.465754 0.358118 0.0570157
280 2 0.470383 0.365564 0.0335998
282 4 0.475013 0.37301 0.0101839
551 4 0.0863911 0.422487 0.052069
550 2 0.0896152 0.445202 0.0620101
552 4 0.0928394 0.467917 0.0719512
1787 4 0.0996299 0.486923 0.0768059
625 2 0.207322 0.452401 0.0737771
245 4 0.240416 0.476754 0.0775675
626 4 0.183961 0.444273 0.0774347
244 2 0.251385 0.490428 0.0597378
627 4 0.230683 0.460529 0.0701195
251 4 0.309517 0.428799 0.0322183
271 2 0.267685 0.485379 0.00340448
272 4 0.25889 0.495826 0.024349
525 4 0.366365 0.459805 0.0618443
227 4 0.465895 0.471624 0.0662526
226 2 0.474074 0.456157 0.0841146
16 1 0.03727 0.0747785 0.148535
17 3 0.0602435 0.0743299 0.149617
18 3 0.0293896 0.0529865 0.147349
1667 4 0.101718 0.00767749 0.0847704
1804 2 0.0893971 0.00148439 0.143123
1506 4 0.234484 0.0228162 0.170332
652 2 0.299713 0.00656016 0.13599
653 4 0.290722 0.0298885 0.135622
557 4 0.353619 0.0719819 0.0883616
296 4 0.359205 0.056342 0.100354
295 2 0.364151 0.0335289 0.109314
297 4 0.369097 0.0107159 0.118274
2724 4 0.510271 0.000909865 0.157364
20 3 0.0308576 0.0863796 0.130017
590 4 0.0278764 0.135811 0.0921429
237 4 0.150162 0.156882 0.16354
235 2 0.1622 0.135988 0.156928
236 4 0.174237 0.115095 0.150315
283 2 0.270517 0.161682 0.146715
284 4 0.292061 0.150005 0.151682
770 4 0.438261 0.150355 0.0690732
769 2 0.459277 0.158382 0.0799868
312 4 0.42152 0.120443 0.160222
337 2 0.0691807 0.234203 0.137988
339 4 0.0474559 0.238538 0.126393
338 4 0.0909055 0.229869 0.149582
476 4 0.13716 0.195662 0.111504
475 2 0.119576 0.209113 0.123125
477 4 0.101992 0.222564 0.134747
737 4 0.155126 0.198399 0.102452
363 4 0.0823001 0.234654 0.165774
738 4 0.194777 0.223997 0.118983
736 2 0.174951 0.211198 0.110718
285 4 0.248973 0.17336 0.141747
354 4 0.318209 0.257281 0.111605
254 4 0.387903 0.201759 0.132067
255 4 0.355555 0.210048 0.0948425
253 2 0.371729 0.205904 0.113455
630 4 0.405346 0.200397 0.124897
771 4 0.480292 0.166408 0.0909004
629 4 0.452256 0.199335 0.14219
628 2 0.428801 0.199866 0.133544
2895 4 0.49096 0.229711 0.111566
518 4 0.486329 0.249219 0.116841
483 4 0.213133 0.314295 0.0921598
506 4 0.202239 0.297243 0.0909166
352 2 0.308688 0.2718 0.129598
353 4 0.299168 0.286319 0.147591
754 2 0.299204 0.329779 0.138964
755 4 0.297472 0.304898 0.140738
278 4 0.283306 0.297456 0.152311
741 4 0.36036 0.337447 0.077143
517 2 0.482149 0.252948 0.0924725
330 4 0.994473 0.400267 0.0666301
620 4 0.0127032 0.344559 0.098543
647 4 0.0212842 0.349298 0.115501
646 2 0.045511 0.35548 0.115341
648 4 0.0697379 0.361661 0.115182
456 4 0.10857 0.365601 0.104854
454 2 0.117886 0.378247 0.0854002
537 4 0.226998 0.394016 0.157298
535 2 0.208761 0.383693 0.143658
536 4 0.190524 0.37337 0.130019
756 4 0.300937 0.354659 0.137189
612 4 0.287627 0.366987 0.146305
610 2 0.26468 0.373583 0.153727
739 2 0.367598 0.3399 0.10095
387 4 0.329457 0.379502 0.15704
740 4 0.374837 0.342352 0.124757
15 3 0.387953 0.353501 0.13442
385 2 0.348812 0.367469 0.146755
386 4 0.368167 0.355437 0.13647
11 1 0.406556 0.366591 0.133312
14 3 0.400932 0.387695 0.125478
495 4 0.383928 0.399159 0.121405
13 3 0.416316 0.368272 0.154296
12 3 0.421671 0.357065 0.118822
597 4 0.465034 0.420729 0.169125
1467 4 0.0169381 0.45773 0.127283
1465 2 0.0311029 0.478297 0.128513
1791 4 0.0561525 0.497676 0.145664
242 4 0.118835 0.482722 0.081434
241 2 0.138486 0.497984 0.083901
524 4 0.34784 0.49136 0.0959297
523 2 0.357103 0.475583 0.078887
658 2 0.399579 0.472809 0.153753
493 2 0.387716 0.423874 0.12159
660 4 0.389267 0.464198 0.132665
494 4 0.391504 0.448588 0.121775
228 4 0.482252 0.44069 0.101977
595 2 0.471008 0.444343 0.17477
2480 4 0.00359451 0.0245922 0.183127
1404 4 0.0602181 0.0038148 0.229004
19 3 0.0290638 0.0851419 0.167605
1806 4 0.0783531 0.99065 0.162766
1422 4 0.00784707 0.00553353 0.180323
673 2 0.128841 0.0806475 0.216298
674 4 0.143347 0.0759187 0.236107
675 4 0.114336 0.0853763 0.196488
1504 2 0.21304 0.0355697 0.1687
450 4 0.171982 0.0540496 0.170673
1505 4 0.191595 0.0483233 0.167069
448 2 0.17321 0.078913 0.168331
688 2 0.208254 0.996694 0.246267
28 3 0.325107 0.0835139 0.238129
758 4 0.397611 0.0773322 0.174473
21 1 0.366608 0.0253389 0.234912
25 3 0.381198 0.0405072 0.226212
759 4 0.394598 0.0418344 0.209566
757 2 0.396104 0.0595833 0.192019
22 3 0.351745 0.0188927 0.218581
24 3 0.37814 0.0066345 0.242366
744 4 0.46183 0.0244061 0.241737
351 4 0.448756 0.0357862 0.228982
349 2 0.432775 0.0539339 0.235341
350 4 0.416793 0.0720815 0.241701
380 4 0.032247 0.0969418 0.183897
512 4 0.0263948 0.154921 0.191343
379 2 0.0282867 0.118779 0.195414
381 4 0.0243264 0.140616 0.206931
579 4 0.0701311 0.0997952 0.178115
577 2 0.0858063 0.119172 0.176117
578 4 0.101482 0.13855 0.174119
449 4 0.174437 0.103776 0.165989
693 4 0.189601 0.114665 0.161976
691 2 0.212958 0.117188 0.170536
692 4 0.236315 0.11971 0.179096
723 4 0.209096 0.127786 0.216703
721 2 0.199926 0.143731 0.233639
722 4 0.190755 0.159677 0.250574
582 4 0.248285 0.128336 0.192686
580 2 0.267502 0.1183 0.205143
581 4 0.286718 0.108264 0.2176
30 3 0.306657 0.107145 0.21535
26 1 0.320228 0.105739 0.233585
27 3 0.33986 0.116936 0.2293
310 2 0.428382 0.127455 0.18322
311 4 0.435244 0.134467 0.206218
511 2 0.0410021 0.174573 0.196406
513 4 0.0556094 0.194224 0.201469
362 4 0.117273 0.231924 0.201413
361 2 0.0997868 0.233289 0.183593
372 4 0.131274 0.220146 0.194376
370 2 0.141451 0.223138 0.217018
371 4 0.151629 0.226131 0.239659
763 2 0.36027 0.233486 0.17517
765 4 0.347169 0.222552 0.156894
520 2 0.492244 0.212899 0.224865
521 4 0.469275 0.221906 0.228925
395 4 0.0446499 0.265037 0.229062
750 4 0.0589432 0.279554 0.228384
748 2 0.0757557 0.294351 0.217268
749 4 0.0925681 0.309148 0.206152
279 4 0.254649 0.282715 0.190549
277 2 0.268978 0.290086 0.17143
307 2 0.310839 0.261106 0.213942
308 4 0.306224 0.246993 0.23406
309 4 0.315453 0.275218 0.193824
764 4 0.37337 0.24442 0.193446
623 4 0.389812 0.255514 0.195055
622 2 0.402868 0.276827 0.194354
624 4 0.415923 0.298139 0.193653
528 4 0.436148 0.301802 0.194318
527 4 0.477402 0.277268 0.208351
526 2 0.456775 0.289535 0.201335
263 4 0.0665707 0.412006 0.244284
262 2 0.0603613 0.416115 0.220415
264 4 0.0541518 0.420224 0.196546
300 4 0.143822 0.348243 0.214531
298 2 0.138142 0.367679 0.2292
611 4 0.241732 0.380179 0.16115
290 4 0.22291 0.401058 0.220148
302 4 0.333152 0.389896 0.173721
301 2 0.315667 0.398114 0.189594
303 4 0.298182 0.406332 0.205466
645 4 0.465947 0.401775 0.171388
643 2 0.458201 0.385267 0.188497
644 4 0.450455 0.36876 0.205605
447 4 0.468576 0.358674 0.207086
445 2 0.485521 0.353907 0.224843
446 4 0.502467 0.349139 0.242599
417 4 0.161738 0.479334 0.190078
415 2 0.173562 0.460141 0.200893
1430 4 0.160064 0.496678 0.200644
289 2 0.211355 0.423089 0.222666
291 4 0.199801 0.445119 0.225185
416 4 0.185386 0.440947 0.211708
766 2 0.271534 0.48774 0.170782
768 4 0.267329 0.466706 0.183629
659 4 0.409891 0.481421 0.17484
231 4 0.42063 0.48878 0.191135
596 4 0.476982 0.467957 0.180414
1568 4 0.484073 0.48497 0.188073
1800 4 0.0221648 0.00668451 0.340081
1798 2 0.0265198 0.00987319 0.315667
1799 4 0.0308747 0.0130619 0.291253
233 4 0.0224987 0.0209801 0.275397
1402 2 0.0498226 0.00756139 0.251433
1403 4 0.039427 0.011308 0.273862
232 2 0.0026946 0.0362207 0.274559
689 4 0.204716 0.0208062 0.240676
1699 2 0.210826 0.0557406 0.298568
1701 4 0.200873 0.0372306 0.285023
1700 4 0.22078 0.0742506 0.312114
1516 2 0.383318 0.00608769 0.288949
23 3 0.354798 0.0348774 0.252461
697 2 0.384506 0.0607836 0.316974
699 4 0.387931 0.0439365 0.298818
1518 4 0.377963 0.0305111 0.288925
742 2 0.482125 0.0150347 0.252938
478 2 0.458809 0.035332 0.319195
479 4 0.468109 0.015222 0.307607
398 4 0.108674 0.146571 0.332358
544 2 0.152 0.169428 0.260468
248 4 0.230165 0.0923673 0.313527
249 4 0.220901 0.138945 0.297862
247 2 0.225533 0.115656 0.305695
404 4 0.219362 0.157967 0.302515
546 4 0.172138 0.157332 0.251906
403 2 0.201394 0.159806 0.285226
405 4 0.183425 0.161646 0.267937
29 3 0.309882 0.115487 0.251924
698 4 0.381081 0.0776306 0.33513
333 4 0.426568 0.14326 0.300557
331 2 0.450076 0.151509 0.298432
332 4 0.473584 0.159758 0.296306
444 4 0.0143219 0.249279 0.336917
393 4 0.0877519 0.224066 0.263393
392 4 0.131601 0.20003 0.26389
391 2 0.109677 0.212048 0.263641
545 4 0.131862 0.181524 0.26903
378 4 0.281071 0.205009 0.317734
418 2 0.403071 0.191757 0.328781
419 4 0.40149 0.168625 0.319422
760 2 0.49639 0.182967 0.283713
762 4 0.473405 0.173372 0.281528
394 2 0.0328056 0.26785 0.250902
396 4 0.0209614 0.270664 0.272742
442 2 0.0164192 0.260525 0.314683
443 4 0.0185164 0.27177 0.29245
364 2 0.0125001 0.311643 0.286878
365 4 0.0159838 0.287492 0.281422
401 4 0.188995 0.263092 0.263966
345 4 0.228787 0.294769 0.307228
400 2 0.202431 0.278271 0.278603
402 4 0.215868 0.293449 0.293241
510 4 0.212753 0.306463 0.307162
508 2 0.206538 0.325151 0.322567
343 2 0.249759 0.300971 0.295108
344 4 0.270731 0.307174 0.282989
498 4 0.403797 0.272591 0.303433
496 2 0.381817 0.283308 0.298219
497 4 0.359836 0.294025 0.293005
543 4 0.407317 0.323459 0.309646
542 4 0.45571 0.312151 0.304076
541 2 0.431514 0.317805 0.306861
602 4 0.0859626 0.41728 0.246825
2493 4 0.995739 0.328981 0.305427
366 4 0.0090165 0.335794 0.292334
299 4 0.132463 0.387115 0.243868
601 2 0.105878 0.404203 0.254413
603 4 0.125793 0.391127 0.262
734 4 0.143921 0.394126 0.257238
733 2 0.161136 0.397189 0.275111
735 4 0.178351 0.400252 0.292984
677 4 0.188714 0.401427 0.31043
676 2 0.192933 0.382296 0.325966
727 2 0.333455 0.382033 0.287749
728 4 0.321499 0.37808 0.30935
438 4 0.283556 0.410257 0.260634
729 4 0.34541 0.385985 0.266148
615 4 0.400436 0.342059 0.313364
613 2 0.384419 0.361227 0.314481
614 4 0.368402 0.380394 0.315598
2538 4 0.481965 0.403866 0.326648
2536 2 0.481703 0.408229 0.302029
2537 4 0.481441 0.412593 0.277411
753 4 0.472787 0.388786 0.335434
549 4 0.0393141 0.433391 0.304615
547 2 0.0386996 0.418932 0.325005
777 4 0.105195 0.431269 0.291497
775 2 0.123335 0.448365 0.289547
776 4 0.141476 0.465462 0.287597
414 4 0.143382 0.467299 0.308179
412 2 0.157906 0.483874 0.31999
413 4 0.17243 0.50045 0.3318
437 4 0.265084 0.443174 0.293436
436 2 0.27432 0.426716 0.277035
2860 2 0.48866 0.461461 0.2584
2862 4 0.465898 0.459838 0.268619
594 4 0.432916 0.474429 0.309253
732 4 0.106407 0.0978085 0.419905
367 2 0.0813454 0.0105023 0.41198
605 4 0.166559 0.0664731 0.368813
604 2 0.187241 0.0716106 0.381891
441 4 0.324579 0.0120298 0.366543
258 4 0.41968 0.055338 0.388512
256 2 0.406164 0.0641253 0.369399
257 4 0.392648 0.0729125 0.350287
480 4 0.449509 0.0554419 0.330784
426 4 0.424267 0.0436925 0.404843
318 4 0.028041 0.104012 0.350982
316 2 0.0501991 0.10364 0.362561
317 4 0.0723571 0.103269 0.374139
457 2 0.0337165 0.150619 0.394816
458 4 0.0468923 0.129517 0.397321
730 2 0.110646 0.0944211 0.395497
397 2 0.107568 0.126579 0.347334
399 4 0.106461 0.106588 0.36231
731 4 0.114885 0.0910336 0.37109
599 4 0.173168 0.166277 0.384576
606 4 0.207923 0.0767481 0.394969
600 4 0.198727 0.140526 0.350162
598 2 0.185947 0.153401 0.367369
683 4 0.28997 0.101344 0.361569
682 2 0.289644 0.100234 0.386546
684 4 0.289318 0.0991243 0.411523
320 4 0.282346 0.116941 0.417498
632 4 0.347784 0.116572 0.346565
631 2 0.369216 0.103714 0.345857
633 4 0.390649 0.0908564 0.345149
516 4 0.412249 0.145135 0.373596
575 4 0.408951 0.150555 0.392834
451 2 0.488899 0.15928 0.361632
514 2 0.430757 0.158324 0.36317
459 4 0.0205406 0.171721 0.392312
2653 2 0.00577425 0.206703 0.387643
2654 4 0.0219587 0.190698 0.397992
390 4 0.0613207 0.24788 0.343828
388 2 0.0763188 0.230708 0.354092
389 4 0.0913168 0.213537 0.364357
685 2 0.146901 0.186868 0.414737
473 4 0.243887 0.171955 0.366545
687 4 0.163809 0.176269 0.399672
377 4 0.324503 0.222347 0.335448
376 2 0.302787 0.213678 0.326591
474 4 0.262 0.200018 0.403762
472 2 0.252944 0.185987 0.385153
488 4 0.274752 0.213558 0.407821
487 2 0.290555 0.232526 0.403866
717 4 0.395961 0.220984 0.354893
707 4 0.336018 0.214542 0.351593
420 4 0.404653 0.214889 0.338139
706 2 0.351161 0.19517 0.347051
708 4 0.366303 0.175799 0.342508
715 2 0.381027 0.239916 0.361508
515 4 0.449265 0.171513 0.352744
453 4 0.469073 0.172207 0.353567
618 4 0.0649543 0.318859 0.393194
347 4 0.0533402 0.305016 0.400361
616 2 0.0829465 0.3271 0.377912
275 4 0.131736 0.307681 0.390569
274 2 0.150485 0.29641 0.378461
276 4 0.169234 0.285139 0.366352
617 4 0.100939 0.335341 0.36263
373 2 0.20771 0.299252 0.380429
374 4 0.228155 0.312074 0.386969
375 4 0.187265 0.28643 0.373889
716 4 0.366094 0.258848 0.368123
406 2 0.0592284 0.397555 0.379541
408 4 0.0786056 0.388864 0.392738
548 4 0.0380851 0.404474 0.345395
407 4 0.0398512 0.406245 0.366343
678 4 0.197153 0.363165 0.341502
509 4 0.200324 0.34384 0.337971
504 4 0.230985 0.389078 0.413303
435 4 0.240696 0.367997 0.338839
433 2 0.259391 0.38406 0.343044
434 4 0.278086 0.400122 0.347249
561 4 0.450477 0.367019 0.394604
752 4 0.457357 0.363394 0.375657
559 2 0.46923 0.366355 0.411129
751 2 0.465072 0.37609 0.355546
499 2 0.154114 0.496913 0.384034
500 4 0.177775 0.489047 0.382176
668 4 0.29004 0.467654 0.408358
1 1 0.313871 0.49978 0.402924
3 3 0.323807 0.492386 0.383302
593 4 0.412781 0.493129 0.351034
592 2 0.422849 0.483779 0.330144
1772 4 0.0349484 0.985663 0.424045
718 2 0.0427589 0.0689326 0.46475
720 4 0.0291771 0.0494859 0.472659
2237 4 0.0263004 0.0318517 0.465438
2236 2 0.0292879 0.00704053 0.466251
1127 4 0.0250199 0.035019 0.485005
369 4 0.0664567 0.0250117 0.425872
1522 2 0.104797 0.000215052 0.486559
1180 2 0.243454 0.0781388 0.4706
1182 4 0.264304 0.064348 0.470054
726 4 0.302609 0.0607939 0.433177
724 2 0.29986 0.058275 0.457902
432 4 0.304069 0.061476 0.499458
725 4 0.297112 0.0557562 0.482626
963 4 0.296849 0.0436171 0.498959
424 2 0.403387 0.0390434 0.417788
425 4 0.382507 0.0343944 0.430733
2879 4 0.46091 0.0631697 0.497291
719 4 0.0563406 0.0883792 0.456842
1033 2 0.117595 0.156819 0.476316
1181 4 0.222605 0.0919295 0.471146
411 4 0.258697 0.149902 0.46398
321 4 0.29947 0.122571 0.464144
319 2 0.290908 0.119756 0.440821
574 2 0.406257 0.148412 0.417599
576 4 0.403563 0.14627 0.442365
2880 4 0.476612 0.10261 0.47086
2878 2 0.468761 0.08289 0.484076
642 4 0.484861 0.111836 0.45493
640 2 0.468279 0.129874 0.449947
641 4 0.451696 0.147911 0.444964
306 4 0.438115 0.15984 0.437027
3158 4 0.466223 0.156492 0.490017
469 2 0.0128247 0.193284 0.48255
470 4 0.0294641 0.175342 0.477413
260 4 0.121072 0.234143 0.455092
261 4 0.120577 0.184852 0.463513
259 2 0.120824 0.209498 0.459303
1035 4 0.133049 0.167649 0.459913
686 4 0.129993 0.197467 0.429803
695 4 0.101396 0.239981 0.456094
409 2 0.262459 0.169906 0.478501
410 4 0.266222 0.189911 0.493021
466 2 0.374867 0.21976 0.412215
467 4 0.373248 0.196138 0.420251
3159 4 0.497719 0.194001 0.47993
305 4 0.449514 0.20828 0.441962
304 2 0.443814 0.18406 0.439494
3157 2 0.481971 0.175247 0.484973
346 2 0.0521706 0.309468 0.424938
326 4 0.0664176 0.321394 0.458264
348 4 0.051001 0.313919 0.449514
694 2 0.0996456 0.25691 0.474411
651 4 0.22166 0.28212 0.502806
649 2 0.2448 0.291457 0.504404
489 4 0.306358 0.251495 0.399911
650 4 0.26794 0.300795 0.506002
266 4 0.322118 0.246795 0.449141
468 4 0.376486 0.243382 0.404179
267 4 0.365552 0.271377 0.446001
265 2 0.343835 0.259086 0.447571
584 4 0.490963 0.280733 0.48079
583 2 0.468293 0.278568 0.491113
585 4 0.445623 0.276404 0.501435
325 2 0.0759191 0.339607 0.472518
2813 4 0.0102206 0.377468 0.462079
10 3 0.154161 0.334722 0.46142
7 3 0.127275 0.355972 0.476202
327 4 0.0854205 0.35782 0.486771
6 1 0.149868 0.351648 0.47604
8 3 0.161131 0.370838 0.469462
9 3 0.156484 0.345514 0.497417
711 4 0.174581 0.376031 0.457507
709 2 0.192751 0.389886 0.467659
710 4 0.210921 0.403741 0.477811
774 4 0.224296 0.415726 0.484731
336 4 0.294169 0.377064 0.411257
334 2 0.317127 0.376751 0.421156
502 2 0.248099 0.392127 0.431275
503 4 0.265212 0.395176 0.449248
588 4 0.398553 0.412158 0.459421
586 2 0.410268 0.397114 0.475594
335 4 0.340086 0.376437 0.431054
238 2 0.359285 0.392558 0.451752
240 4 0.335041 0.387454 0.448379
587 4 0.421984 0.38207 0.491768
560 4 0.487982 0.365691 0.427655
2507 4 0.500223 0.379502 0.433616
1381 2 0.0398386 0.494259 0.431161
679 2 0.0518703 0.451539 0.465936
1383 4 0.0321352 0.472681 0.441172
681 4 0.0694777 0.43483 0.471934
680 4 0.0342629 0.468247 0.459938
382 2 0.108323 0.439931 0.452452
568 2 0.157693 0.476069 0.446328
383 4 0.0891442 0.433569 0.467179
569 4 0.142136 0.456551 0.447815
384 4 0.127502 0.446292 0.437725
635 4 0.205789 0.422327 0.481009
634 2 0.213934 0.445899 0.479216
636 4 0.222079 0.469471 0.477422
880 2 0.322117 0.496579 0.493036
667 2 0.291294 0.44682 0.422127
882 4 0.298449 0.503585 0.489045
669 4 0.292547 0.425987 0.435895
4 3 0.30409 0.48193 0.414065
239 4 0.383528 0.397661 0.455126
881 4 0.345785 0.489572 0.497028
663 4 0.460495 0.457147 0.481727
1126 2 0.0174272 0.0433759 0.507314
1128 4 0.00983437 0.0517329 0.529623
1057 2 0.138109 0.0762177 0.573551
1058 4 0.134723 0.0535916 0.583639
1523 4 0.0965952 0.0236134 0.483329
340 2 0.187945 0.0625396 0.506391
2428 2 0.201883 0.0132997 0.526197
2430 4 0.182828 0.0263769 0.516654
341 4 0.185614 0.0381723 0.501294
430 2 0.318697 0.0734502 0.515823
950 4 0.329619 0.0401871 0.570772
961 2 0.287774 0.0203194 0.499159
949 2 0.30669 0.0477491 0.57727
951 4 0.28376 0.0553111 0.583769
1217 4 0.376842 0.0462409 0.569254
1216 2 0.391615 0.0263475 0.565911
842 4 0.380602 0.0647855 0.55843
1218 4 0.406389 0.00645409 0.562567
938 4 0.100789 0.130616 0.545027
937 2 0.0924124 0.136187 0.522136
939 4 0.0840356 0.141758 0.499246
1151 4 0.15797 0.109607 0.562441
1059 4 0.141495 0.0988438 0.563462
1155 4 0.147865 0.108715 0.578814
1034 4 0.102141 0.14599 0.49272
342 4 0.190275 0.086907 0.511488
1150 2 0.172868 0.106841 0.542552
1152 4 0.187765 0.104076 0.522662
431 4 0.333324 0.0854245 0.532188
841 2 0.363579 0.0806574 0.549295
843 4 0.346555 0.0965293 0.540159
878 4 0.0346016 0.215477 0.551427
1199 4 0.01936 0.22967 0.552427
877 2 0.054914 0.205437 0.562001
879 4 0.0752264 0.195397 0.572574
1272 4 0.0790895 0.193429 0.592009
858 4 0.255156 0.197068 0.547478
857 4 0.290682 0.211432 0.579607
856 2 0.272919 0.20425 0.563542
898 2 0.300656 0.197143 0.514114
791 4 0.298851 0.227592 0.569278
899 4 0.324651 0.194537 0.520644
900 4 0.276661 0.199749 0.507584
873 4 0.380489 0.242557 0.508692
983 4 0.0734753 0.325706 0.57748
1258 2 0.131647 0.291637 0.508001
1259 4 0.145725 0.308147 0.520427
1260 4 0.117569 0.275127 0.495575
696 4 0.0978953 0.27384 0.492728
790 2 0.307602 0.249877 0.576487
811 2 0.298068 0.315369 0.49344
804 4 0.269234 0.336684 0.492164
812 4 0.273456 0.317823 0.497101
813 4 0.32268 0.312914 0.489778
871 2 0.399706 0.25596 0.517424
872 4 0.418923 0.269363 0.526156
1239 4 0.35514 0.31704 0.581105
954 4 0.502647 0.307546 0.581469
897 4 0.149413 0.364217 0.578469
1137 4 0.130847 0.368923 0.579848
895 2 0.173412 0.370951 0.58043
1189 2 0.224418 0.381658 0.558497
773 4 0.237953 0.386572 0.522996
1190 4 0.236091 0.374646 0.537527
803 4 0.242431 0.36714 0.5214
772 2 0.231125 0.401149 0.503864
1191 4 0.212745 0.388669 0.579468
802 2 0.255832 0.351912 0.506782
896 4 0.197412 0.377685 0.582392
930 4 0.330099 0.37453 0.521321
928 2 0.30984 0.387828 0.527476
929 4 0.28958 0.401127 0.533631
927 4 0.425983 0.362575 0.550682
925 2 0.42519 0.376889 0.530196
926 4 0.424397 0.391202 0.50971
2243 4 0.151765 0.492188 0.542881
1161 4 0.167278 0.491536 0.556049
1159 2 0.177102 0.477058 0.57391
889 2 0.325797 0.454711 0.569866
1952 4 0.355621 0.489128 0.514511
1002 4 0.388767 0.439231 0.537447
1000 2 0.409723 0.45276 0.535712
890 4 0.345273 0.469175 0.56381
1001 4 0.430678 0.466289 0.533977
662 4 0.461056 0.472846 0.529203
661 2 0.460775 0.464997 0.505465
1911 4 0.446779 0.472425 0.546848
1909 2 0.447005 0.480253 0.570594
1332 4 0.47133 0.488429 0.53732
943 2 0.0816892 0.0184312 0.636618
944 4 0.103838 0.0270856 0.62889
825 4 0.117606 0.0162362 0.638129
823 2 0.138316 0.00336166 0.643656
1030 2 0.24564 0.0730011 0.582966
1032 4 0.225573 0.0861993 0.589917
1031 4 0.265706 0.0598028 0.576015
1092 4 0.319194 0.00574724 0.662455
45 3 0.437542 0.0749016 0.665889
1081 2 0.0234662 0.132691 0.646648
3179 4 0.998431 0.151258 0.644884
1082 4 0.0350108 0.117324 0.66264
1153 2 0.149066 0.132009 0.58782
1154 4 0.150268 0.155303 0.596826
1282 2 0.167659 0.113664 0.654876
1284 4 0.1824 0.113339 0.634682
888 4 0.261624 0.165921 0.662103
3008 4 0.498383 0.0921119 0.599844
808 2 0.486223 0.0905056 0.641616
809 4 0.485411 0.0925311 0.616708
1243 2 0.0686718 0.222372 0.643523
1244 4 0.0484937 0.211621 0.633402
1245 4 0.0888498 0.233123 0.653645
1270 2 0.0972714 0.187458 0.608101
1271 4 0.115453 0.181486 0.624192
1221 4 0.168105 0.157745 0.602127
1210 2 0.228022 0.185051 0.650467
1212 4 0.212569 0.197666 0.635393
1219 2 0.186014 0.172723 0.611078
1220 4 0.203923 0.1877 0.620029
796 2 0.205182 0.230608 0.616167
798 4 0.209804 0.206163 0.618667
1211 4 0.243476 0.172436 0.66554
906 4 0.432538 0.21038 0.591503
904 2 0.450159 0.219812 0.606527
905 4 0.46778 0.229244 0.621551
3123 4 0.48286 0.236984 0.632469
3121 2 0.493158 0.23389 0.655043
982 2 0.0660521 0.329859 0.600992
797 4 0.20056 0.255053 0.613666
947 4 0.185475 0.276916 0.636941
946 2 0.194877 0.278035 0.660083
792 4 0.316354 0.272162 0.583696
1238 4 0.33482 0.271734 0.587034
1237 2 0.34498 0.294387 0.58407
952 2 0.480126 0.307233 0.592326
953 4 0.457605 0.306919 0.603184
984 4 0.0586289 0.334012 0.624505
1041 4 0.0685329 0.341841 0.639797
3263 4 0.0504814 0.335581 0.642418
3262 2 0.0329571 0.329743 0.65927
1039 2 0.0844177 0.360322 0.645392
1135 2 0.111422 0.382167 0.588359
1136 4 0.0919977 0.395412 0.596869
1040 4 0.100302 0.378803 0.650987
991 2 0.113661 0.414232 0.635299
993 4 0.114509 0.390494 0.643107
1172 4 0.197637 0.396662 0.588736
1206 4 0.464778 0.407439 0.666069
3309 4 0.498254 0.389573 0.604939
992 4 0.112812 0.43797 0.627492
1188 4 0.232256 0.490335 0.629478
1173 4 0.193958 0.445655 0.598059
1171 2 0.195798 0.421159 0.593398
1187 4 0.196689 0.462069 0.608579
1160 4 0.186927 0.462579 0.591772
1186 2 0.214472 0.476202 0.619028
891 4 0.306321 0.440248 0.575921
1204 2 0.444917 0.418599 0.655765
1910 4 0.447231 0.488081 0.594339
1205 4 0.425056 0.429759 0.645462
1269 4 0.42557 0.444561 0.63138
1267 2 0.429415 0.469052 0.634628
1268 4 0.43326 0.493544 0.637877
2256 4 0.21924 0.00774191 0.745012
2254 2 0.196319 0.0177315 0.745131
1147 2 0.216485 0.0800736 0.722918
1149 4 0.239659 0.0715584 0.726868
2255 4 0.173398 0.0277211 0.745251
1257 4 0.25511 0.0623071 0.736385
1003 2 0.330259 0.0537688 0.712863
1005 4 0.325982 0.039998 0.692436
1004 4 0.334537 0.0675397 0.733289
42 3 0.45296 0.0588615 0.695854
41 1 0.450621 0.0785405 0.684175
1163 4 0.487918 0.0757964 0.681715
1076 4 0.0211054 0.108019 0.672462
864 4 0.0419597 0.100928 0.738914
1075 2 0.0269293 0.105809 0.696677
1077 4 0.0327532 0.1036 0.720892
909 4 0.0983377 0.138356 0.702558
907 2 0.120765 0.133056 0.692857
908 4 0.143192 0.127755 0.683156
1283 4 0.152919 0.113988 0.675071
1227 4 0.156083 0.115909 0.693535
1225 2 0.166237 0.100424 0.710337
1148 4 0.19331 0.0885888 0.718968
1226 4 0.176392 0.0849401 0.727138
831 4 0.372908 0.155183 0.690885
810 4 0.487034 0.0884801 0.666524
1025 4 0.47031 0.14335 0.689594
44 3 0.471616 0.0858775 0.677558
43 3 0.440703 0.0943277 0.697987
3424 2 0.494818 0.114343 0.699256
3426 4 0.487153 0.0951394 0.685197
1024 2 0.458062 0.160581 0.702945
852 4 0.0454751 0.181216 0.740724
1213 2 0.0187975 0.204541 0.722973
1214 4 0.0349505 0.185681 0.725899
850 2 0.067317 0.179277 0.752739
1209 4 0.0977041 0.249242 0.658714
1207 2 0.101779 0.242798 0.682527
1208 4 0.105853 0.236353 0.70634
1106 4 0.137822 0.187811 0.716539
1105 2 0.121397 0.182964 0.734758
822 4 0.181215 0.246249 0.746396
830 4 0.324546 0.167902 0.690797
886 2 0.284083 0.169278 0.672567
887 4 0.306542 0.172634 0.683031
976 2 0.313584 0.194975 0.718678
978 4 0.311951 0.177748 0.700629
977 4 0.315217 0.212201 0.736727
918 4 0.309335 0.227593 0.747755
1142 4 0.383822 0.166653 0.704011
1141 2 0.406129 0.171868 0.71403
1193 4 0.361461 0.240883 0.69456
829 2 0.348727 0.161543 0.690841
1192 2 0.355696 0.218399 0.685264
1194 4 0.349931 0.195915 0.675968
1143 4 0.428436 0.177083 0.724049
1026 4 0.445813 0.177812 0.716296
1261 2 0.45649 0.208126 0.738304
1262 4 0.439969 0.192991 0.727206
948 4 0.204278 0.279155 0.683224
821 4 0.169683 0.292837 0.732351
820 2 0.175449 0.269543 0.739373
1064 4 0.218534 0.292519 0.688796
1065 4 0.230328 0.282623 0.736374
1063 2 0.224431 0.287571 0.712585
893 4 0.0218845 0.33901 0.689068
3264 4 0.0154327 0.323906 0.676122
892 2 0.0258618 0.358507 0.704208
894 4 0.0298391 0.378004 0.719348
3276 4 0.0176796 0.387862 0.729778
814 2 0.0590492 0.386278 0.74567
816 4 0.0365636 0.38848 0.734959
941 4 0.144042 0.393764 0.746084
1067 4 0.14681 0.409277 0.732865
1066 2 0.162655 0.40885 0.713527
940 2 0.119557 0.396055 0.7506
942 4 0.0950716 0.398345 0.755117
1029 4 0.235007 0.405642 0.680856
1027 2 0.213863 0.411502 0.692846
806 4 0.302468 0.356614 0.668869
805 2 0.326252 0.360846 0.67532
807 4 0.350035 0.365078 0.681771
1019 4 0.38469 0.37526 0.710505
1018 2 0.373119 0.360038 0.726616
1020 4 0.361548 0.344816 0.742728
1280 4 0.066253 0.462478 0.690666
1279 2 0.0477081 0.478909 0.687307
1068 4 0.1785 0.408423 0.69419
1028 4 0.192719 0.417361 0.704837
1140 4 0.249321 0.470166 0.696951
1139 4 0.263987 0.457101 0.742939
1138 2 0.256654 0.463633 0.719945
1228 2 0.397368 0.448956 0.73897
1229 4 0.382628 0.460278 0.755695
1230 4 0.412108 0.437634 0.722245
1100 4 0.430668 0.445046 0.722377
1101 4 0.476456 0.465127 0.723311
1099 2 0.453562 0.455087 0.722844
1251 4 0.478625 0.482353 0.732007
3330 4 0.489711 0.452826 0.732646
1294 2 0.0194796 0.0408018 0.781778
1295 4 0.00126899 0.0573184 0.777222
1296 4 0.0376902 0.0242852 0.786334
911 4 0.0764101 0.0626547 0.83813
2047 2 0.153536 0.00214987 0.788629
1203 4 0.118158 0.0715948 0.77564
1201 2 0.126141 0.0495174 0.784245
1202 4 0.134123 0.02744 0.792851
2049 4 0.151705 0.0237359 0.801114
1255 2 0.259695 0.0621406 0.760964
1256 4 0.264279 0.0619741 0.785543
840 4 0.269723 0.0784847 0.79481
1113 4 0.377079 0.0602027 0.810085
1111 2 0.37741 0.0804402 0.824765
975 4 0.343532 0.0338877 0.827563
2321 4 0.46998 0.00272858 0.77945
2322 4 0.483463 0.0483255 0.794937
2320 2 0.476721 0.025527 0.787193
980 4 0.434077 0.0126737 0.833044
846 4 0.474643 0.0647373 0.789041
862 2 0.0429674 0.105657 0.763446
863 4 0.0439751 0.110386 0.787977
832 2 0.0221862 0.106214 0.814636
833 4 0.0383004 0.121558 0.803231
1125 4 0.0347643 0.139908 0.809575
1123 2 0.0366217 0.163325 0.818141
31 1 0.117251 0.144609 0.820172
34 3 0.133314 0.129354 0.813266
32 3 0.106108 0.152557 0.801684
35 3 0.1272 0.162006 0.830989
838 2 0.27546 0.100164 0.805868
839 4 0.281198 0.121842 0.816926
844 2 0.469597 0.0795999 0.769578
845 4 0.464552 0.0944625 0.750114
1107 4 0.104973 0.178117 0.752977
851 4 0.0891588 0.177338 0.764754
1130 4 0.16818 0.181943 0.753823
1129 2 0.175259 0.205847 0.755739
1131 4 0.182338 0.22975 0.757654
920 4 0.19118 0.20282 0.821022
1241 4 0.224703 0.254996 0.815287
1298 4 0.326985 0.219213 0.750039
916 2 0.287153 0.235454 0.7562
917 4 0.26497 0.243314 0.764645
1084 2 0.352506 0.17686 0.826561
50 3 0.394071 0.185032 0.791121
1086 4 0.349308 0.189833 0.805427
1299 4 0.352001 0.201649 0.789617
1297 2 0.339493 0.210431 0.769828
1043 4 0.403658 0.237026 0.773934
49 3 0.40649 0.218455 0.779026
46 1 0.412593 0.197013 0.785459
1263 4 0.473011 0.223262 0.749402
48 3 0.427194 0.197999 0.803466
1145 4 0.487472 0.213133 0.759815