ITEM: TIMESTEP
2420000
ITEM: NUMBER OF ATOMS
4590
ITEM: BOX BOUNDS pp pp pp
-9.9985700000000008e+00 9.9985700000000008e+00
-9.9985700000000008e+00 9.9985700000000008e+00
-9.9985700000000008e+00 9.9985700000000008e+00
ITEM: ATOMS id type xs ys zs
465 4 0.0741038 0.0719603 0.0275105
463 2 0.0700629 0.0844554 0.0487877
701 4 0.0915094 0.0643977 0.035628
700 2 0.11077 0.0573741 0.0213149
702 4 0.130031 0.0503504 0.00700189
566 4 0.144697 0.0445958 0.0187638
565 2 0.165244 0.0581946 0.0145133
746 4 0.490594 0.0525196 0.0201132
2468 4 0.499089 0.00756757 0.0536156
2467 2 0.490542 0.0296592 0.0456104
2469 4 0.481995 0.0517509 0.0376052
464 4 0.0660219 0.0969506 0.070065
590 4 0.0477433 0.102322 0.0770671
589 2 0.0234783 0.10458 0.0826604
567 4 0.185791 0.0717934 0.0102629
558 4 0.339233 0.12467 0.0594553
556 2 0.355911 0.112121 0.0732221
865 2 0.35334 0.152209 0.00484533
827 4 0.373916 0.129167 0.997828
769 2 0.473866 0.163444 0.0715697
771 4 0.486858 0.152448 0.0532534
553 2 0.0638668 0.233167 0.010537
554 4 0.0448611 0.243977 0.998409
555 4 0.0828725 0.222356 0.0226651
835 2 0.1228 0.207467 0.0184034
836 4 0.10225 0.220598 0.0239231
837 4 0.14335 0.194336 0.0128836
915 4 0.155321 0.200001 0.99533
573 4 0.334535 0.24422 0.0532551
666 4 0.343646 0.227197 0.0542553
461 4 0.33779 0.236598 0.0709487
664 2 0.348844 0.206315 0.041523
665 4 0.354041 0.185434 0.0287906
867 4 0.353086 0.176257 0.0116879
1070 4 0.457785 0.219693 0.0529572
1069 2 0.454028 0.241538 0.0645265
2808 4 0.0165679 0.334475 0.0123857
2806 2 0.00307555 0.314761 0.019769
294 4 0.105807 0.303165 0.0600031
292 2 0.120772 0.318854 0.0475496
293 4 0.135737 0.334542 0.0350961
507 4 0.148378 0.333579 0.019628
356 4 0.320132 0.301652 0.0441008
572 4 0.318511 0.286129 0.0311731
571 2 0.326523 0.265174 0.0422141
355 2 0.308716 0.32131 0.0336882
1071 4 0.450271 0.263383 0.0760958
324 4 0.455805 0.278648 0.0643
322 2 0.450512 0.299604 0.0768688
647 4 0.0299657 0.36941 0.0633683
646 2 0.0496644 0.364859 0.0780796
620 4 0.0142214 0.372414 0.0767394
505 2 0.170195 0.342865 0.0116917
481 2 0.216992 0.383609 0.0113233
482 4 0.238922 0.394795 0.0156989
537 4 0.220771 0.355384 0.0880925
483 4 0.195062 0.372424 0.00694762
609 4 0.246256 0.400746 0.0326054
357 4 0.2973 0.340967 0.0232757
957 4 0.370165 0.367277 0.0276091
955 2 0.373203 0.372301 0.00330476
280 2 0.481635 0.410344 0.0541177
281 4 0.488919 0.391523 0.068879
671 4 0.48135 0.373522 0.0730038
1467 4 0.0011095 0.459161 0.0776667
1787 4 0.0938799 0.463383 0.0681644
1786 2 0.100954 0.464348 0.0442018
1788 4 0.108028 0.465314 0.0202392
242 4 0.0947118 0.472544 0.085639
552 4 0.0855925 0.454925 0.0831163
246 4 0.245493 0.481886 0.0464744
244 2 0.223373 0.473879 0.0549492
245 4 0.201254 0.465873 0.0634239
627 4 0.189523 0.452917 0.0730725
625 2 0.182907 0.42999 0.0805425
607 2 0.266426 0.415523 0.0325661
272 4 0.24887 0.487447 0.028689
1778 4 0.259816 0.494021 0.0429525
271 2 0.257904 0.474008 0.00963733
608 4 0.286595 0.430301 0.0325268
252 4 0.295779 0.445297 0.0242578
250 2 0.316016 0.45163 0.0110098
523 2 0.371183 0.481879 0.0594577
524 4 0.369529 0.459321 0.0701164
2289 4 0.341799 0.476828 0.00109113
251 4 0.336253 0.457964 0.997762
525 4 0.372838 0.504436 0.0487991
282 4 0.474352 0.429165 0.0393563
226 2 0.481773 0.47128 0.0536498
227 4 0.478806 0.447902 0.0452917
228 4 0.484739 0.494658 0.0620079
563 4 0.464883 0.499361 0.0601633
16 1 0.0661086 0.0650264 0.145214
20 3 0.0725121 0.0812744 0.130598
1806 4 0.0578955 0.0271655 0.130839
18 3 0.0574245 0.0469092 0.133606
19 3 0.0501993 0.0733973 0.159885
1804 2 0.0522387 0.00777019 0.116108
17 3 0.0844086 0.0580482 0.157279
673 2 0.125489 0.050925 0.159565
674 4 0.14918 0.0520231 0.167482
450 4 0.159241 0.0583864 0.152051
675 4 0.101797 0.049827 0.151647
1505 4 0.166261 0.0446141 0.163587
448 2 0.169081 0.0806257 0.14624
654 4 0.301358 0.0165869 0.152666
652 2 0.292816 0.0373375 0.163694
484 2 0.358798 0.0194318 0.137492
295 2 0.367601 0.0823976 0.115439
297 4 0.367373 0.0591029 0.124521
485 4 0.370557 0.0407661 0.131858
380 4 0.0441265 0.0917884 0.161267
579 4 0.0878304 0.130125 0.10071
237 4 0.142119 0.145207 0.124266
578 4 0.131265 0.152759 0.110803
577 2 0.109548 0.141442 0.105756
476 4 0.13477 0.162392 0.127819
737 4 0.148595 0.161097 0.115072
235 2 0.162612 0.133669 0.132759
236 4 0.183104 0.122132 0.141252
693 4 0.1924 0.109539 0.153253
449 4 0.178921 0.102865 0.14043
691 2 0.217196 0.111389 0.150627
692 4 0.241993 0.113239 0.148001
582 4 0.259223 0.102659 0.143573
580 2 0.277401 0.119559 0.146599
581 4 0.295579 0.136458 0.149626
30 3 0.296606 0.13824 0.170761
557 4 0.372589 0.0995713 0.0869889
296 4 0.367829 0.105692 0.106356
738 4 0.156384 0.200401 0.0851514
475 2 0.127231 0.171126 0.150001
736 2 0.152489 0.180749 0.100111
283 2 0.319036 0.198561 0.139074
354 4 0.317731 0.23916 0.128181
285 4 0.317839 0.174121 0.144214
284 4 0.320233 0.223001 0.133934
462 4 0.328841 0.228356 0.119453
29 3 0.311472 0.172115 0.163752
352 2 0.296728 0.248853 0.137674
460 2 0.333316 0.232477 0.095201
255 4 0.3333 0.234773 0.134928
253 2 0.353884 0.24196 0.147169
630 4 0.38545 0.240483 0.172581
770 4 0.460873 0.174439 0.0898859
1014 4 0.464643 0.191964 0.0973203
1013 4 0.475105 0.210721 0.14248
1012 2 0.469874 0.201343 0.1199
353 4 0.275726 0.258546 0.147167
754 2 0.266785 0.299781 0.137799
755 4 0.271738 0.27765 0.148328
756 4 0.261832 0.321912 0.12727
612 4 0.262533 0.32818 0.107214
278 4 0.277851 0.267952 0.163887
254 4 0.374468 0.249147 0.15941
323 4 0.445219 0.320561 0.0894377
456 4 0.0812981 0.344017 0.0982311
648 4 0.0693631 0.360307 0.0927909
455 4 0.122562 0.368629 0.112097
454 2 0.10193 0.356323 0.105164
610 2 0.238861 0.331842 0.100045
536 4 0.186895 0.391833 0.0930483
626 4 0.176291 0.407064 0.0880124
611 4 0.215189 0.335504 0.0928754
535 2 0.203833 0.373608 0.0905704
387 4 0.336838 0.41225 0.154982
741 4 0.399211 0.364513 0.106109
739 2 0.396579 0.371802 0.129881
740 4 0.393948 0.379091 0.153653
15 3 0.382313 0.367929 0.164632
385 2 0.358227 0.399912 0.158913
386 4 0.379616 0.387573 0.162844
672 4 0.464657 0.328347 0.086469
670 2 0.473003 0.350934 0.0797364
1465 2 0.0125345 0.479994 0.0854523
551 4 0.0380784 0.439733 0.0866263
550 2 0.0618355 0.447329 0.0848713
241 2 0.112866 0.478893 0.101617
1438 2 0.157069 0.487284 0.133042
243 4 0.13102 0.485243 0.117595
1440 4 0.135465 0.499723 0.131111
1439 4 0.178673 0.474846 0.134972
637 2 0.216253 0.464664 0.139314
638 4 0.240509 0.464818 0.133248
639 4 0.191997 0.464511 0.145381
767 4 0.257333 0.474709 0.134299
303 4 0.319424 0.466591 0.143772
766 2 0.280511 0.465341 0.134763
768 4 0.303689 0.455974 0.135226
301 2 0.334481 0.447341 0.149051
302 4 0.349539 0.42809 0.15433
660 4 0.419858 0.456542 0.15748
1504 2 0.175091 0.0272147 0.179222
1506 4 0.18392 0.00981539 0.194858
689 4 0.179548 0.0020417 0.213475
653 4 0.284273 0.058088 0.174722
1661 4 0.315828 0.006448 0.162098
22 3 0.408909 0.011798 0.187879
21 1 0.40928 0.0171488 0.210249
23 3 0.390625 0.0300319 0.21519
757 2 0.445035 0.0580377 0.199697
25 3 0.428257 0.0288707 0.214844
759 4 0.436914 0.0457974 0.219931
350 4 0.432418 0.0335148 0.233104
758 4 0.453157 0.0702779 0.179464
379 2 0.0337443 0.102943 0.18109
512 4 0.0239752 0.129123 0.215108
381 4 0.0233622 0.114098 0.200913
511 2 0.0458017 0.140807 0.218609
513 4 0.0676281 0.152492 0.22211
339 4 0.0877127 0.150296 0.223612
337 2 0.100644 0.164148 0.2073
26 1 0.305251 0.157045 0.180263
27 3 0.323839 0.15144 0.192602
28 3 0.289553 0.166742 0.194331
521 4 0.487439 0.134989 0.246521
477 4 0.119691 0.179861 0.172183
363 4 0.109694 0.194013 0.181918
338 4 0.113576 0.178001 0.190988
362 4 0.103846 0.23736 0.206158
361 2 0.10677 0.215686 0.194038
372 4 0.111301 0.229516 0.222676
370 2 0.114603 0.248727 0.238335
628 2 0.395048 0.219057 0.181182
629 4 0.404647 0.197631 0.189783
312 4 0.401274 0.182814 0.204822
311 4 0.449489 0.173432 0.214203
310 2 0.425382 0.178123 0.209513
749 4 0.0739478 0.283236 0.179779
750 4 0.0371972 0.295503 0.211396
395 4 0.0320382 0.279372 0.221416
748 2 0.0555725 0.28937 0.195588
394 2 0.0225388 0.277911 0.244499
300 4 0.142375 0.292997 0.205057
298 2 0.129671 0.31197 0.215245
299 4 0.116966 0.330944 0.225432
371 4 0.117905 0.267939 0.253993
279 4 0.243109 0.259558 0.198861
277 2 0.26048 0.263755 0.181374
307 2 0.303567 0.31747 0.205463
308 4 0.298264 0.317342 0.229897
497 4 0.283352 0.32773 0.223985
309 4 0.308871 0.317598 0.181029
496 2 0.262128 0.329252 0.237116
765 4 0.386752 0.259643 0.170336
763 2 0.401554 0.277893 0.178881
764 4 0.416356 0.296143 0.187425
528 4 0.492172 0.322095 0.171776
624 4 0.474587 0.330214 0.173535
623 4 0.430339 0.307628 0.179253
622 2 0.452463 0.318921 0.176394
262 2 0.0276931 0.371677 0.226229
264 4 0.0100095 0.389261 0.228042
2618 4 0.00232046 0.403124 0.240221
263 4 0.0453766 0.354094 0.224417
602 4 0.0622349 0.364027 0.22095
601 2 0.0860479 0.356934 0.223744
603 4 0.109861 0.34984 0.226537
734 4 0.11472 0.340064 0.241758
290 4 0.167393 0.370506 0.213098
291 4 0.188429 0.41191 0.231642
289 2 0.177911 0.391208 0.22237
493 2 0.410614 0.41488 0.162622
495 4 0.397686 0.393803 0.166334
14 3 0.404529 0.388787 0.186746
11 1 0.394325 0.368132 0.183979
13 3 0.380391 0.363705 0.201997
12 3 0.410577 0.351884 0.182978
416 4 0.189387 0.432064 0.23019
415 2 0.192741 0.449639 0.212724
1430 4 0.21061 0.481801 0.197968
417 4 0.196094 0.467214 0.195258
494 4 0.423542 0.435958 0.15891
658 2 0.431366 0.47568 0.168725
659 4 0.442874 0.494819 0.17997
595 2 0.475956 0.490631 0.197012
597 4 0.491267 0.477932 0.212161
596 4 0.460645 0.503329 0.181862
643 2 0.500869 0.435522 0.2067
645 4 0.490316 0.458087 0.208845
232 2 0.0103118 0.0557364 0.303816
1799 4 0.025886 0.0209756 0.318489
233 4 0.0260243 0.0365597 0.307065
1402 2 0.0619518 0.0448695 0.321498
1403 4 0.0388959 0.0351992 0.321802
1404 4 0.0850077 0.0545397 0.321194
633 4 0.377005 0.0551575 0.295419
631 2 0.362913 0.0734821 0.285889
257 4 0.371844 0.0539321 0.312869
698 4 0.373507 0.0372301 0.303204
697 2 0.365214 0.0147701 0.310412
256 2 0.387083 0.060864 0.33144
349 2 0.442668 0.0250258 0.254272
744 4 0.469488 0.0165415 0.28615
742 2 0.477072 0.0244309 0.308632
351 4 0.452917 0.0165368 0.275439
397 2 0.0689109 0.120691 0.327471
390 4 0.0676186 0.148829 0.303882
398 4 0.079239 0.134144 0.309099
393 4 0.0861644 0.147208 0.29705
545 4 0.140016 0.155382 0.269555
392 4 0.127448 0.139716 0.269842
391 2 0.106806 0.143462 0.283446
544 2 0.1581 0.171532 0.275665
632 4 0.348822 0.0918067 0.276359
444 4 0.0189729 0.233869 0.314662
388 2 0.056726 0.16983 0.29579
389 4 0.0458335 0.190832 0.287698
723 4 0.226859 0.216622 0.249717
721 2 0.210677 0.205099 0.2649
546 4 0.176184 0.187682 0.281774
403 2 0.194672 0.179029 0.318598
405 4 0.190558 0.181038 0.294018
722 4 0.194494 0.193575 0.280083
378 4 0.289937 0.243239 0.327847
420 4 0.400601 0.235321 0.251177
717 4 0.393897 0.240382 0.268664
331 2 0.448832 0.209414 0.31245
332 4 0.447544 0.206664 0.287631
418 2 0.419972 0.222488 0.26041
419 4 0.439343 0.209655 0.269643
760 2 0.47526 0.225041 0.265438
762 4 0.453363 0.221396 0.276946
364 2 0.0110382 0.314173 0.289778
442 2 0.0168299 0.254539 0.300757
396 4 0.0130393 0.27645 0.267582
443 4 0.0146868 0.275209 0.286853
366 4 0.0120877 0.336198 0.301567
365 4 0.00998875 0.292149 0.277988
677 4 0.144974 0.329872 0.288013
676 2 0.158708 0.328605 0.308869
735 4 0.124984 0.332868 0.290169
733 2 0.119852 0.336466 0.265963
401 4 0.236685 0.310247 0.248678
510 4 0.227718 0.293552 0.311222
508 2 0.209414 0.307863 0.320461
400 2 0.232255 0.299025 0.270578
402 4 0.227825 0.287803 0.292479
509 4 0.19111 0.322174 0.329699
345 4 0.239102 0.278448 0.30572
678 4 0.172442 0.327337 0.329724
498 4 0.240904 0.330773 0.250246
343 2 0.254956 0.265238 0.319838
715 2 0.383097 0.260912 0.277994
716 4 0.372297 0.281442 0.287323
542 4 0.389177 0.290185 0.291341
541 2 0.388385 0.308679 0.30815
543 4 0.387592 0.327172 0.324959
751 2 0.484786 0.332303 0.325636
407 4 0.0215256 0.336098 0.31886
548 4 0.0168179 0.353113 0.310094
547 2 0.0291216 0.374879 0.310071
549 4 0.0414253 0.396646 0.310048
777 4 0.0518515 0.403602 0.326488
435 4 0.185529 0.340841 0.333521
728 4 0.367798 0.376127 0.301434
727 2 0.367468 0.400054 0.308682
729 4 0.367139 0.423982 0.315931
2538 4 0.471312 0.344166 0.285809
2536 2 0.486644 0.360202 0.274277
753 4 0.482797 0.338581 0.301515
775 2 0.0679003 0.422493 0.329763
1435 2 0.196175 0.498499 0.286187
1545 4 0.20012 0.476141 0.324043
1436 4 0.204235 0.488344 0.307566
2861 4 0.478639 0.435803 0.27438
2860 2 0.492369 0.415852 0.268166
1798 2 0.0146312 0.00854277 0.337035
1771 2 0.0037961 0.0145069 0.389684
1772 4 0.0118558 0.0320762 0.405544
2238 4 0.0207593 0.0478709 0.395326
2236 2 0.022976 0.0609642 0.416511
732 4 0.0797446 0.0701121 0.376617
369 4 0.0958588 0.0596648 0.383827
367 2 0.0906009 0.0524613 0.407186
605 4 0.174147 0.0459885 0.388645
1701 4 0.172459 0.065221 0.381275
1699 2 0.190222 0.0791069 0.370465
258 4 0.402323 0.067796 0.350011
426 4 0.385939 0.0678643 0.362713
424 2 0.382627 0.0592512 0.385951
425 4 0.379314 0.050638 0.40919
1580 4 0.388029 0.0328946 0.408546
743 4 0.484656 0.0323202 0.331113
479 4 0.492843 0.0454006 0.343
478 2 0.484204 0.064105 0.357166
399 4 0.0585829 0.107238 0.345842
317 4 0.0455959 0.120516 0.350838
731 4 0.0463921 0.103865 0.360835
730 2 0.0630683 0.0869885 0.368726
316 2 0.0245288 0.130894 0.35942
247 2 0.19536 0.134655 0.352342
248 4 0.197305 0.109741 0.351518
1700 4 0.207984 0.0929927 0.359655
249 4 0.193415 0.159569 0.353166
683 4 0.24689 0.152348 0.418441
319 2 0.311563 0.115004 0.39388
320 4 0.299066 0.107504 0.414196
706 2 0.31705 0.159038 0.354004
321 4 0.32406 0.122505 0.373564
708 4 0.323864 0.1352 0.357245
684 4 0.282932 0.117697 0.417438
682 2 0.264911 0.135023 0.417939
480 4 0.475564 0.0828093 0.371333
516 4 0.449022 0.154841 0.375433
575 4 0.446408 0.13402 0.374368
574 2 0.454555 0.122969 0.395264
2654 4 0.0182788 0.21612 0.392254
459 4 0.00601055 0.204771 0.380526
2653 2 0.001866 0.234748 0.38929
404 4 0.198785 0.177019 0.343179
472 2 0.249396 0.239919 0.414115
376 2 0.295064 0.219598 0.334171
377 4 0.300191 0.195957 0.340495
707 4 0.310236 0.182876 0.350763
468 4 0.375431 0.249119 0.404992
333 4 0.450119 0.212163 0.337268
452 4 0.502507 0.237956 0.358366
514 2 0.450938 0.174916 0.360652
515 4 0.452854 0.194991 0.34587
453 4 0.460199 0.211691 0.353792
451 2 0.481353 0.224823 0.356079
406 2 0.0322049 0.327002 0.339557
408 4 0.0428842 0.317907 0.360255
275 4 0.152144 0.315089 0.353044
274 2 0.166942 0.30075 0.367206
617 4 0.133105 0.323098 0.351214
276 4 0.181741 0.28641 0.381368
473 4 0.240224 0.258556 0.400197
374 4 0.236506 0.27745 0.397791
373 2 0.212032 0.282305 0.399414
375 4 0.187558 0.287159 0.401037
344 4 0.270811 0.252029 0.333957
615 4 0.404337 0.332527 0.33349
267 4 0.360532 0.260625 0.398599
265 2 0.35757 0.283578 0.408063
266 4 0.354609 0.306531 0.417527
613 2 0.418469 0.334825 0.353989
752 4 0.486776 0.326025 0.349757
346 2 0.0717787 0.333029 0.403641
347 4 0.0887218 0.330347 0.38545
618 4 0.0963563 0.346153 0.376089
616 2 0.11473 0.334626 0.363651
433 2 0.193114 0.354575 0.35299
434 4 0.200699 0.368309 0.372458
335 4 0.371704 0.412081 0.38161
240 4 0.379028 0.417924 0.399866
614 4 0.432601 0.337123 0.374487
776 4 0.0839492 0.441385 0.333038
414 4 0.093099 0.448267 0.349619
412 2 0.1138 0.461108 0.343983
413 4 0.134501 0.473948 0.338346
1544 4 0.153521 0.477468 0.34214
500 4 0.139975 0.49116 0.345086
1543 2 0.176821 0.476804 0.333091
503 4 0.311739 0.423739 0.39953
336 4 0.327091 0.432649 0.390956
669 4 0.315575 0.442482 0.403719
667 2 0.319362 0.465734 0.412096
437 4 0.36233 0.43008 0.33482
334 2 0.349397 0.422365 0.386283
436 2 0.384017 0.441149 0.34051
438 4 0.405703 0.452218 0.346199
592 2 0.40583 0.496795 0.38156
594 4 0.408107 0.471949 0.379935
3990 4 0.497668 0.493316 0.360549
1781 4 0.074657 0.00215689 0.481983
1126 2 0.00317674 0.0473031 0.464982
1127 4 0.0145709 0.0604718 0.447039
2237 4 0.0251927 0.0740575 0.437697
719 4 0.0753022 0.0767478 0.471542
720 4 0.0277655 0.0716837 0.456868
718 2 0.0515338 0.0742157 0.464205
368 4 0.0853431 0.0452579 0.430545
1602 4 0.144303 0.0036409 0.422568
606 4 0.153924 0.0515445 0.434042
604 2 0.164036 0.0487665 0.411343
1780 2 0.0814134 0.0199865 0.465808
1782 4 0.0881698 0.0378161 0.449633
963 4 0.28822 0.0157756 0.494968
724 2 0.298654 0.0534253 0.487584
726 4 0.29665 0.0761217 0.477286
725 4 0.300658 0.0307289 0.497881
432 4 0.306774 0.0120429 0.500381
1579 2 0.377874 0.0117439 0.417189
642 4 0.449232 0.057909 0.45308
2878 2 0.44899 0.0588998 0.491011
2880 4 0.457357 0.0498645 0.46925
640 2 0.458282 0.0776511 0.44069
470 4 0.000473398 0.150827 0.488088
939 4 0.0835786 0.144334 0.489631
1033 2 0.121849 0.140902 0.480295
1035 4 0.142044 0.142122 0.465603
261 4 0.149505 0.155614 0.454049
1034 4 0.101654 0.139683 0.494987
600 4 0.260081 0.166312 0.42613
1182 4 0.302518 0.0934845 0.471802
1180 2 0.293911 0.0967116 0.448549
1181 4 0.285304 0.0999388 0.425297
576 4 0.462703 0.111917 0.416161
641 4 0.467332 0.0973932 0.428299
306 4 0.468741 0.115638 0.43468
304 2 0.470796 0.131615 0.453803
3158 4 0.464998 0.157492 0.489545
305 4 0.472851 0.147593 0.472926
259 2 0.155702 0.179746 0.45615
694 2 0.152849 0.230726 0.472558
1260 4 0.132541 0.222327 0.495418
696 4 0.135109 0.239969 0.487559
695 4 0.170588 0.221482 0.457556
260 4 0.161898 0.203878 0.458251
599 4 0.246257 0.212301 0.440082
687 4 0.230095 0.21441 0.449629
686 4 0.181407 0.205756 0.45707
685 2 0.205751 0.210083 0.453349
411 4 0.246376 0.214613 0.459931
598 2 0.253169 0.189307 0.433106
409 2 0.254513 0.221472 0.482557
474 4 0.258568 0.221282 0.428033
488 4 0.278035 0.218935 0.423626
489 4 0.325982 0.230934 0.416021
487 2 0.302008 0.224935 0.419824
410 4 0.262651 0.228331 0.505183
466 2 0.377351 0.226032 0.414397
467 4 0.379272 0.202944 0.423802
2812 2 0.0214431 0.328002 0.433031
813 4 0.238052 0.284892 0.485881
2456 4 0.501333 0.327691 0.488583
348 4 0.0548355 0.335711 0.421832
2813 4 0.0444002 0.336143 0.438676
326 4 0.0590401 0.348618 0.435976
325 2 0.0692713 0.363192 0.453529
327 4 0.0795025 0.377766 0.471081
10 3 0.120268 0.359214 0.467092
7 3 0.093764 0.378512 0.484925
6 1 0.115198 0.370281 0.486339
711 4 0.144189 0.40083 0.496687
8 3 0.129856 0.38801 0.489374
709 2 0.166762 0.398989 0.486092
9 3 0.116481 0.355762 0.504393
774 4 0.207773 0.404036 0.475001
710 4 0.189335 0.397147 0.475496
772 2 0.223108 0.404203 0.49475
502 2 0.301961 0.412701 0.419722
504 4 0.292183 0.401663 0.439915
1383 4 0.0430887 0.493011 0.476651
680 4 0.0483619 0.475165 0.486241
679 2 0.0642267 0.455866 0.485217
384 4 0.13657 0.419939 0.497066
569 4 0.150896 0.434384 0.492485
382 2 0.113677 0.429718 0.499407
681 4 0.0800914 0.436568 0.484192
635 4 0.192826 0.415699 0.470649
634 2 0.196689 0.431373 0.451555
636 4 0.200552 0.447047 0.432461
668 4 0.323148 0.488986 0.420474
4 3 0.309984 0.490447 0.437453
238 2 0.39063 0.427253 0.419954
588 4 0.389531 0.443514 0.454328
239 4 0.402232 0.436582 0.440042
586 2 0.396535 0.432684 0.475749
1184 4 0.00601978 0.0253778 0.552762
1183 2 0.0167479 0.00491599 0.562322
1150 2 0.152762 0.0621571 0.553926
342 4 0.141594 0.0459652 0.516885
1152 4 0.149415 0.0579195 0.529512
340 2 0.146718 0.0216111 0.514475
1151 4 0.156109 0.0663947 0.578339
341 4 0.151841 0.997257 0.512064
962 4 0.239144 0.00662129 0.497877
2429 4 0.219689 0.999564 0.497658
430 2 0.329647 0.00898247 0.510005
961 2 0.263682 0.0111984 0.496422
841 2 0.354748 0.0128114 0.557712
842 4 0.362369 0.0249646 0.578191
2879 4 0.440623 0.0679352 0.512771
3009 4 0.475365 0.071016 0.568763
879 4 0.0552324 0.155582 0.551076
877 2 0.0325974 0.146242 0.556135
878 4 0.00996238 0.136901 0.561194
938 4 0.067009 0.149127 0.536569
1272 4 0.0725725 0.163765 0.548129
937 2 0.0752938 0.146731 0.5131
3159 4 0.495746 0.143012 0.526227
3157 2 0.480372 0.150252 0.507886
1270 2 0.079041 0.177727 0.567837
1258 2 0.120395 0.223051 0.517261
1259 4 0.108248 0.223775 0.539104
898 2 0.299269 0.21058 0.526682
899 4 0.319084 0.200594 0.538208
900 4 0.279455 0.220567 0.515157
791 4 0.335021 0.195934 0.548861
857 4 0.317114 0.188425 0.553446
856 2 0.309486 0.181078 0.576096
790 2 0.348946 0.216678 0.547866
792 4 0.362871 0.237422 0.546872
1238 4 0.367166 0.253071 0.558271
811 2 0.241978 0.303523 0.502087
812 4 0.245903 0.322154 0.518294
650 4 0.254109 0.320039 0.536092
649 2 0.267166 0.317732 0.557291
651 4 0.280222 0.315424 0.57849
872 4 0.379372 0.248219 0.543608
871 2 0.385981 0.259755 0.522431
873 4 0.39259 0.27129 0.501255
1237 2 0.356216 0.266018 0.576647
583 2 0.499481 0.288809 0.505454
585 4 0.503873 0.264523 0.509467
1135 2 0.114082 0.404568 0.559347
897 4 0.150546 0.39694 0.571079
1137 4 0.132201 0.402256 0.576422
1136 4 0.0959636 0.406879 0.542272
773 4 0.238442 0.404371 0.514499
1189 2 0.227772 0.409694 0.553167
895 2 0.174474 0.403878 0.573204
1190 4 0.240442 0.400787 0.533538
803 4 0.238438 0.385647 0.521148
804 4 0.25146 0.337834 0.527861
802 2 0.244949 0.361741 0.524504
896 4 0.198401 0.410817 0.575328
930 4 0.254841 0.39515 0.521257
928 2 0.277381 0.405851 0.522885
929 4 0.29992 0.416552 0.524513
925 2 0.412473 0.384564 0.506773
927 4 0.408136 0.36094 0.513721
926 4 0.416809 0.408189 0.499826
383 4 0.0907844 0.439496 0.501747
568 2 0.161595 0.455106 0.501503
1191 4 0.215101 0.4186 0.572796
570 4 0.172293 0.475828 0.51052
1172 4 0.2041 0.424457 0.587966
891 4 0.288319 0.49114 0.527256
1952 4 0.289834 0.483895 0.508445
1951 2 0.294818 0.460244 0.514847
1953 4 0.299803 0.436593 0.521248
1000 2 0.407577 0.491678 0.550505
587 4 0.403538 0.421854 0.497169
1001 4 0.423889 0.4729 0.553052
663 4 0.41655 0.42298 0.512284
661 2 0.424721 0.442316 0.525869
662 4 0.432892 0.461651 0.539455
1911 4 0.43935 0.463426 0.557718
1332 4 0.440636 0.478361 0.544532
1330 2 0.460477 0.490477 0.535328
1909 2 0.438262 0.451301 0.579559
1331 4 0.480318 0.502593 0.526125
1155 4 0.14994 0.0725988 0.595879
1059 4 0.160696 0.0567816 0.594915
1058 4 0.197876 0.0233588 0.593807
1057 2 0.179286 0.0400702 0.594361
2375 4 0.197227 0.00312589 0.598276
950 4 0.256178 0.0171343 0.665882
949 2 0.267051 0.0341577 0.651146
951 4 0.277924 0.0511812 0.636409
1031 4 0.297036 0.0560334 0.639611
1030 2 0.315006 0.0712045 0.648102
1216 2 0.4026 0.0113917 0.584458
1217 4 0.38024 0.022376 0.586592
1218 4 0.42496 0.000407452 0.582325
3007 2 0.484872 0.0821115 0.589053
43 3 0.433027 0.0760461 0.657464
808 2 0.489801 0.0829533 0.64721
1153 2 0.159071 0.0950282 0.602102
1154 4 0.168202 0.117458 0.608324
1221 4 0.183988 0.12805 0.614065
1219 2 0.198941 0.147886 0.616913
1032 4 0.332976 0.0863756 0.656593
858 4 0.301857 0.173731 0.598745
3008 4 0.494379 0.093207 0.609343
3252 4 0.505905 0.102102 0.622944
809 4 0.500645 0.0831296 0.624681
1271 4 0.0855094 0.191689 0.587545
1244 4 0.0916163 0.209168 0.592993
1209 4 0.100753 0.177851 0.651738
1245 4 0.097418 0.195369 0.640707
1243 2 0.0945172 0.202269 0.61685
1210 2 0.235474 0.182732 0.63616
1212 4 0.216777 0.187098 0.620144
1220 4 0.213894 0.167722 0.619761
797 4 0.176867 0.22389 0.612561
796 2 0.187757 0.201586 0.615584
798 4 0.198646 0.179282 0.618606
1211 4 0.254172 0.178366 0.652177
1193 4 0.388877 0.21478 0.656016
3121 2 0.474541 0.230072 0.631305
3122 4 0.465999 0.207878 0.63903
3357 4 0.477237 0.189704 0.636806
983 4 0.0423287 0.290738 0.60191
982 2 0.0515608 0.30031 0.623083
984 4 0.0607928 0.309882 0.644257
3263 4 0.0742039 0.313479 0.658303
1041 4 0.0695545 0.327413 0.645862
805 2 0.302486 0.292826 0.5953
806 4 0.279522 0.302586 0.593693
807 4 0.32545 0.283066 0.596908
1239 4 0.345265 0.278964 0.595022
3123 4 0.483083 0.252265 0.62358
906 4 0.471379 0.315959 0.602692
905 4 0.473075 0.268373 0.61797
904 2 0.472227 0.292166 0.610331
953 4 0.460536 0.329334 0.590653
1039 2 0.0644274 0.351062 0.639568
1040 4 0.0593003 0.374711 0.633273
993 4 0.0647195 0.395527 0.634073
991 2 0.0481389 0.397082 0.615423
992 4 0.0315584 0.398637 0.596772
1028 4 0.194276 0.390606 0.657923
1027 2 0.215811 0.387914 0.645505
1029 4 0.237345 0.385222 0.633087
952 2 0.480451 0.344394 0.589324
954 4 0.500366 0.359454 0.587994
1160 4 0.191451 0.489692 0.592088
1171 2 0.200159 0.448523 0.593486
1173 4 0.196219 0.472589 0.599007
1187 4 0.190631 0.487213 0.611408
1186 2 0.193986 0.483484 0.635903
1188 4 0.19734 0.479755 0.660398
1268 4 0.41259 0.476045 0.648977
3182 4 0.502866 0.42721 0.629693
1267 2 0.417671 0.458675 0.631724
1206 4 0.486357 0.417196 0.624768
2168 4 0.419124 0.49483 0.652362
1204 2 0.463426 0.42696 0.622776
1910 4 0.437174 0.439177 0.601399
1269 4 0.422751 0.441306 0.614471
1205 4 0.440494 0.436725 0.620784
1284 4 0.100601 0.0561228 0.691913
1282 2 0.109907 0.0755415 0.704621
2256 4 0.18696 0.0100744 0.730006
2049 4 0.168003 0.0158665 0.732286
1201 2 0.181834 0.0511636 0.720522
1202 4 0.180184 0.0262169 0.720862
1203 4 0.183485 0.0761103 0.720183
1005 4 0.362803 0.0406957 0.679905
1003 2 0.352232 0.0184646 0.675521
45 3 0.449813 0.0429174 0.663657
41 1 0.444573 0.0630805 0.672858
810 4 0.478957 0.082777 0.669739
42 3 0.431215 0.0597575 0.691287
1162 2 0.494628 0.0703478 0.701491
1163 4 0.47815 0.0840755 0.688637
44 3 0.463928 0.0740229 0.679496
1077 4 0.0351409 0.0956331 0.741679
1075 2 0.0163992 0.0930975 0.725324
909 4 0.0993819 0.161498 0.71753
907 2 0.107632 0.137899 0.717065
908 4 0.115882 0.1143 0.7166
1283 4 0.119213 0.0949603 0.717328
1227 4 0.133275 0.106998 0.722939
1225 2 0.157216 0.100331 0.725681
1226 4 0.181158 0.0936637 0.728423
1148 4 0.198625 0.0833987 0.728029
1147 2 0.210665 0.0981882 0.7442
829 2 0.322748 0.144774 0.713174
830 4 0.300907 0.154726 0.720183
887 4 0.298136 0.16165 0.702485
831 4 0.344588 0.134821 0.706165
1142 4 0.355977 0.148686 0.716071
1141 2 0.377558 0.160706 0.712202
1025 4 0.458466 0.149636 0.6961
3424 2 0.463596 0.113507 0.692235
3426 4 0.464851 0.0931197 0.677815
3425 4 0.462341 0.133895 0.706656
3269 4 0.475226 0.148119 0.706938
3268 2 0.482988 0.159772 0.727654
845 4 0.433638 0.0948336 0.747844
852 4 0.0443069 0.187441 0.737009
1214 4 0.0292874 0.173925 0.732519
850 2 0.0669782 0.182749 0.727566
1213 2 0.00830408 0.187513 0.732021
851 4 0.0896495 0.178056 0.718123
1208 4 0.0949011 0.170837 0.700903
1207 2 0.0978272 0.174344 0.67632
1107 4 0.108546 0.178412 0.712204
1105 2 0.12519 0.193317 0.723429
1106 4 0.141833 0.208222 0.734654
888 4 0.261751 0.171665 0.669674
886 2 0.279943 0.166658 0.68608
978 4 0.294242 0.17342 0.717919
976 2 0.297796 0.190356 0.735967
977 4 0.301349 0.207292 0.754015
916 2 0.307168 0.245086 0.742735
1194 4 0.401835 0.186583 0.69523
1192 2 0.395356 0.200682 0.675623
1143 4 0.399138 0.172726 0.708334
1262 4 0.407041 0.189547 0.713555
1024 2 0.437822 0.163414 0.699131
1026 4 0.417179 0.177192 0.702162
3270 4 0.49075 0.171425 0.748369
1261 2 0.415803 0.200966 0.734001
3262 2 0.0715003 0.317132 0.682891
3264 4 0.0687968 0.320784 0.707478
779 4 0.078044 0.306458 0.717506
893 4 0.0640923 0.316656 0.726098
892 2 0.0610562 0.330015 0.747015
778 2 0.0914627 0.286273 0.723646
780 4 0.104881 0.266088 0.729786
1065 4 0.216141 0.319359 0.728722
1063 2 0.230876 0.305287 0.714228
1064 4 0.24561 0.291216 0.699734
947 4 0.301971 0.27416 0.71606
946 2 0.280127 0.275458 0.703964
948 4 0.258283 0.276756 0.691867
917 4 0.313583 0.263609 0.727212
1008 4 0.42944 0.279499 0.706023
1006 2 0.441399 0.27245 0.72682
1067 4 0.155705 0.389704 0.708993
940 2 0.127773 0.38831 0.74299
941 4 0.144213 0.382086 0.725209
1068 4 0.192084 0.382564 0.675433
1066 2 0.173895 0.386134 0.692213
1175 4 0.198224 0.460671 0.667795
1176 4 0.176901 0.444291 0.709958
1174 2 0.187563 0.452481 0.688876
1139 4 0.308089 0.485286 0.702942
1138 2 0.312924 0.468256 0.720599
1140 4 0.317759 0.451226 0.738256
1229 4 0.33282 0.438821 0.741719
1100 4 0.398498 0.442769 0.749326
1228 2 0.357499 0.435298 0.743637
1230 4 0.382179 0.431776 0.745555
1101 4 0.440673 0.462715 0.731322
1099 2 0.419586 0.452742 0.740324
3330 4 0.457983 0.455142 0.731541
3328 2 0.475594 0.447769 0.715396
1251 4 0.456077 0.473762 0.735508
3329 4 0.493205 0.440396 0.699251
2390 4 0.12697 0.998553 0.785097
2047 2 0.154383 0.0105412 0.752566
2048 4 0.140762 0.0052159 0.772847
1113 4 0.361581 0.068863 0.82081
980 4 0.420364 0.00548824 0.816537
2321 4 0.434572 0.0139024 0.806712
2322 4 0.439811 0.0633216 0.801144
2320 2 0.437192 0.038612 0.803928
846 4 0.441305 0.081863 0.795528
844 2 0.437472 0.0883483 0.771686
864 4 0.0357987 0.11207 0.750692
862 2 0.0458534 0.118745 0.77259
863 4 0.055908 0.125421 0.794488
833 4 0.0508875 0.121999 0.813426
1125 4 0.0655758 0.133866 0.808649
1123 2 0.0701789 0.156393 0.818473
832 2 0.0503803 0.104967 0.831724
1149 4 0.222704 0.112978 0.760371
1257 4 0.238588 0.125487 0.75748
1255 2 0.243856 0.133052 0.780722
921 4 0.236054 0.145139 0.817794
919 2 0.214407 0.156405 0.823242
840 4 0.253779 0.13923 0.822915
1256 4 0.249123 0.140617 0.803964
1111 2 0.37068 0.0918743 0.824397
1112 4 0.379779 0.114886 0.827984
3189 4 0.0182699 0.251994 0.822894
1124 4 0.074782 0.17892 0.828298
1130 4 0.145606 0.215774 0.752616
1129 2 0.160755 0.219688 0.772119
1131 4 0.175904 0.223601 0.791623
1277 4 0.173777 0.224298 0.810194
822 4 0.172928 0.241188 0.800596
1276 2 0.183291 0.205272 0.823335
1278 4 0.192806 0.186246 0.836476
920 4 0.192761 0.167671 0.828691
918 4 0.300753 0.226563 0.758257
1298 4 0.310682 0.213945 0.769934
1297 2 0.301529 0.207465 0.792282
1299 4 0.292375 0.200985 0.814629
1086 4 0.310638 0.198661 0.821969
50 3 0.394621 0.192693 0.784459
46 1 0.415686 0.198846 0.790545
49 3 0.41485 0.217813 0.803885
1043 4 0.422814 0.232496 0.793736
48 3 0.425985 0.181522 0.802043
47 3 0.427952 0.203568 0.771666
1263 4 0.424564 0.212385 0.754447
1146 4 0.485699 0.187997 0.757954
1145 4 0.441758 0.211688 0.760907
1144 2 0.463729 0.199842 0.759431
1022 4 0.440896 0.18914 0.815095
3187 2 0.00777754 0.255059 0.800406
3188 4 0.997285 0.258124 0.777919
821 4 0.189072 0.288376 0.796937
820 2 0.181 0.264782 0.798767
1096 2 0.255024 0.308112 0.827833
1235 4 0.232542 0.321451 0.799937
1098 4 0.247107 0.309729 0.804171
1042 2 0.435459 0.249307 0.78022
1044 4 0.448103 0.266118 0.766704