ITEM: TIMESTEP
330000
ITEM: NUMBER OF ATOMS
4590
ITEM: BOX BOUNDS pp pp pp
-9.9985700000000008e+00 9.9985700000000008e+00
-9.9985700000000008e+00 9.9985700000000008e+00
-9.9985700000000008e+00 9.9985700000000008e+00
ITEM: ATOMS id type xs ys zs
463 2 0.0327378 0.0580686 0.0443332
465 4 0.0234319 0.0812647 0.043613
464 4 0.0420437 0.0348725 0.0450534
1667 4 0.0689682 0.0275004 0.0690669
701 4 0.0697981 0.0776999 0.0411795
1666 2 0.0913924 0.0201664 0.0773463
534 4 0.192661 0.0734235 0.0153362
1476 4 0.253559 0.998188 0.0398932
490 2 0.271042 0.0382412 0.0312921
491 4 0.283593 0.0597766 0.0293262
492 4 0.25849 0.0167058 0.0332581
296 4 0.38477 0.0544131 0.0611002
557 4 0.386221 0.0740215 0.0540288
295 2 0.37639 0.0389349 0.0788588
1608 4 0.393201 0.00881034 0.02372
745 2 0.461603 0.0692097 0.0293823
746 4 0.45838 0.0834261 0.0496969
747 4 0.464826 0.0549932 0.0090677
589 2 0.031704 0.131883 0.0707488
590 4 0.0226024 0.143792 0.0507358
3233 4 0.988679 0.129371 0.990743
702 4 0.119101 0.0860488 0.0407352
700 2 0.0944497 0.0818743 0.0409574
566 4 0.161727 0.0949756 0.0551268
423 4 0.0894451 0.128353 0.00332792
565 2 0.184233 0.102768 0.0475144
567 4 0.206738 0.110561 0.0399021
358 2 0.280948 0.116398 0.00914885
360 4 0.27622 0.126086 0.0317091
556 2 0.368275 0.0914178 0.053345
558 4 0.350328 0.108814 0.0526611
553 2 0.0477155 0.220555 0.016309
554 4 0.0283213 0.23082 0.0282958
666 4 0.320287 0.2228 0.0146856
664 2 0.332857 0.205729 0.00142742
461 4 0.329673 0.222495 0.0658982
572 4 0.338235 0.267227 0.0446921
324 4 0.408187 0.238512 0.0634178
322 2 0.424186 0.239141 0.082623
665 4 0.345426 0.188659 0.988169
771 4 0.46256 0.194578 0.0739795
770 4 0.484964 0.167254 0.0385938
769 2 0.473762 0.180916 0.0562866
1012 2 0.487855 0.198169 0.999759
1014 4 0.463535 0.193868 0.00366263
292 2 0.1232 0.315217 0.0314818
294 4 0.103882 0.324187 0.0183834
293 4 0.142517 0.306248 0.0445801
507 4 0.163136 0.304362 0.0422441
506 4 0.176893 0.256303 0.0408948
483 4 0.215355 0.294709 0.071588
505 2 0.170015 0.280332 0.0415694
481 2 0.234438 0.30842 0.0801321
357 4 0.244026 0.277413 0.0203796
355 2 0.242445 0.25767 0.00511852
571 2 0.314962 0.2583 0.046654
573 4 0.291688 0.249373 0.048616
482 4 0.253521 0.322132 0.0886762
1071 4 0.401066 0.234592 0.0109687
1069 2 0.408708 0.25618 0.0210039
1070 4 0.41635 0.277769 0.0310392
281 4 0.459688 0.326812 0.0411062
330 4 0.0235489 0.404701 0.0540882
328 2 0.0136232 0.384999 0.0423207
329 4 0.00369754 0.365297 0.0305532
455 4 0.10899 0.339429 0.0854525
286 2 0.158483 0.387725 0.013569
287 4 0.153781 0.364558 0.0217155
288 4 0.163184 0.410892 0.00542262
252 4 0.295132 0.392167 0.0554185
250 2 0.274291 0.393958 0.0417206
251 4 0.25345 0.39575 0.0280227
608 4 0.297613 0.389218 0.0749232
280 2 0.472633 0.34152 0.0255725
671 4 0.456707 0.328685 0.0598729
670 2 0.457943 0.33926 0.082496
282 4 0.485577 0.356228 0.0100387
550 2 0.080475 0.429117 0.0367348
551 4 0.0568224 0.436742 0.0339769
552 4 0.104128 0.421493 0.0394927
242 4 0.125504 0.496429 0.0670029
1786 2 0.0945033 0.50319 0.0733152
1787 4 0.109788 0.487802 0.0608747
245 4 0.219842 0.465282 0.0687519
244 2 0.239252 0.469551 0.0535794
627 4 0.218166 0.446034 0.0729677
246 4 0.258662 0.47382 0.0384069
272 4 0.260487 0.467826 0.0202237
271 2 0.284088 0.46902 0.012053
273 4 0.307688 0.470214 0.00388225
524 4 0.335124 0.476404 0.0677053
227 4 0.480039 0.451143 0.0636555
562 2 0.451306 0.497935 0.00609038
563 4 0.473274 0.487726 0.999894
226 2 0.497671 0.466161 0.0542333
19 3 0.0253937 0.0700378 0.172207
20 3 0.0610422 0.0677552 0.160307
1668 4 0.113817 0.0128325 0.0856258
450 4 0.164245 0.0576954 0.13959
448 2 0.173282 0.0792648 0.148437
652 2 0.301072 0.0378062 0.15275
653 4 0.309819 0.0489186 0.13213
654 4 0.292325 0.0266937 0.17337
297 4 0.368009 0.0234567 0.0966173
758 4 0.421223 0.0674735 0.17181
1760 4 0.492235 0.997616 0.132462
2744 4 0.502603 0.00803285 0.146707
2724 4 0.490246 0.0241991 0.151721
591 4 0.0408055 0.119974 0.0907618
380 4 0.00903533 0.134186 0.152713
237 4 0.190206 0.161847 0.152116
449 4 0.182319 0.100834 0.157285
235 2 0.181657 0.139352 0.158901
236 4 0.173107 0.116856 0.165686
693 4 0.202588 0.0973542 0.157236
582 4 0.292935 0.0875025 0.169067
339 4 0.0536016 0.238726 0.140459
476 4 0.13677 0.205418 0.126198
475 2 0.116986 0.199774 0.140408
477 4 0.0972022 0.19413 0.154617
737 4 0.18593 0.224363 0.109832
736 2 0.204061 0.210775 0.0992574
738 4 0.222191 0.197187 0.0886824
354 4 0.294335 0.220638 0.123744
352 2 0.281333 0.241803 0.120884
285 4 0.270132 0.195696 0.147125
460 2 0.344161 0.213149 0.0840075
255 4 0.35884 0.182525 0.0979554
462 4 0.358649 0.203804 0.102117
630 4 0.414544 0.181203 0.106865
254 4 0.406329 0.16718 0.0947863
253 2 0.382585 0.174853 0.0963708
629 4 0.456347 0.183099 0.134244
628 2 0.435445 0.182151 0.120554
517 2 0.4892 0.245633 0.0985496
518 4 0.479151 0.222993 0.101955
323 4 0.440184 0.23977 0.101828
620 4 0.0222517 0.325982 0.151345
337 2 0.0701274 0.252781 0.152892
338 4 0.0866532 0.266835 0.165324
277 2 0.243593 0.267734 0.156293
353 4 0.26833 0.262967 0.118025
754 2 0.278744 0.301274 0.116218
755 4 0.277884 0.277844 0.107531
756 4 0.279603 0.324704 0.124904
278 4 0.259125 0.263923 0.137073
612 4 0.285093 0.32583 0.143377
741 4 0.343675 0.319039 0.0839563
622 2 0.388886 0.278512 0.159396
739 2 0.355822 0.331083 0.102192
623 4 0.377942 0.262359 0.14376
624 4 0.39983 0.294665 0.175033
519 4 0.499248 0.268274 0.0951439
621 4 0.0090199 0.330135 0.1033
619 2 0.0156358 0.328058 0.127323
647 4 0.0550683 0.361142 0.135172
646 2 0.0784953 0.354142 0.140403
454 2 0.124925 0.349393 0.101943
456 4 0.140861 0.359358 0.118434
537 4 0.177052 0.361371 0.12543
535 2 0.197877 0.35891 0.139048
626 4 0.21506 0.409674 0.107159
536 4 0.218701 0.356448 0.152666
609 4 0.313381 0.347042 0.0966771
607 2 0.305497 0.36813 0.0858002
610 2 0.270147 0.340008 0.157547
611 4 0.2552 0.354185 0.171717
740 4 0.36797 0.343128 0.120429
387 4 0.330421 0.386089 0.159734
15 3 0.378069 0.356725 0.128186
385 2 0.344429 0.371347 0.145186
386 4 0.358437 0.356605 0.130639
11 1 0.400175 0.362169 0.127595
13 3 0.40948 0.359796 0.148717
14 3 0.402754 0.384015 0.120211
672 4 0.459179 0.349836 0.105119
12 3 0.411063 0.348067 0.113044
495 4 0.420337 0.387222 0.128886
493 2 0.425046 0.411737 0.130315
595 2 0.482571 0.417857 0.155627
597 4 0.467479 0.397922 0.155545
1467 4 0.0159812 0.487205 0.135497
313 2 0.00241187 0.45607 0.0809572
314 4 0.992181 0.47888 0.0805201
625 2 0.216613 0.427854 0.0900632
637 2 0.256399 0.492135 0.125236
638 4 0.266905 0.475648 0.140823
525 4 0.343579 0.493263 0.114019
523 2 0.339351 0.484833 0.0908623
658 2 0.403561 0.466203 0.144692
659 4 0.384663 0.478088 0.155952
660 4 0.422459 0.454319 0.133431
494 4 0.429755 0.436251 0.131743
16 1 0.0473985 0.0661713 0.178472
17 3 0.0535945 0.0819694 0.194002
18 3 0.0493338 0.0451095 0.188015
673 2 0.120236 0.05294 0.22231
674 4 0.136273 0.0720373 0.220498
675 4 0.104199 0.0338428 0.224122
1505 4 0.234949 0.0537561 0.166674
1504 2 0.225143 0.0319705 0.174051
688 2 0.189244 0.99443 0.233523
21 1 0.370314 0.0428854 0.239434
24 3 0.348677 0.0389895 0.232013
25 3 0.385245 0.0370683 0.223252
759 4 0.391885 0.0504647 0.208562
757 2 0.406554 0.0589691 0.190186
742 2 0.483583 0.0543171 0.234188
743 4 0.501221 0.0699312 0.242572
744 4 0.465945 0.0387031 0.225805
379 2 0.0120418 0.148068 0.17329
381 4 0.0150483 0.16195 0.193867
511 2 0.0386056 0.150703 0.224677
512 4 0.0257633 0.146835 0.203575
579 4 0.0839372 0.102966 0.20867
577 2 0.0959693 0.124645 0.205442
578 4 0.108001 0.146324 0.202214
692 4 0.236806 0.103449 0.19319
723 4 0.196767 0.106022 0.229028
691 2 0.219697 0.100402 0.175213
721 2 0.188701 0.125326 0.24272
722 4 0.180635 0.14463 0.256412
580 2 0.292629 0.104783 0.187136
581 4 0.292323 0.122064 0.205204
30 3 0.305521 0.113049 0.217274
26 1 0.312477 0.108473 0.238471
28 3 0.296294 0.0961397 0.249625
27 3 0.331898 0.0961772 0.237584
29 3 0.316631 0.128245 0.249882
312 4 0.424918 0.124757 0.17452
333 4 0.421183 0.151219 0.237277
310 2 0.443102 0.12302 0.191594
311 4 0.461285 0.121283 0.208668
362 4 0.128302 0.23526 0.211471
284 4 0.25766 0.224347 0.186167
283 2 0.263896 0.210021 0.166646
764 4 0.382474 0.198461 0.18491
763 2 0.392063 0.211777 0.203777
765 4 0.401651 0.225093 0.222643
522 4 0.503358 0.20295 0.245381
528 4 0.469657 0.256324 0.208689
395 4 0.0576844 0.2792 0.229846
394 2 0.0337704 0.275845 0.23633
750 4 0.0813338 0.301473 0.234057
363 4 0.0983597 0.258184 0.178628
361 2 0.113331 0.246722 0.19505
372 4 0.148072 0.237843 0.205639
748 2 0.0971844 0.285716 0.245267
370 2 0.171326 0.242805 0.213373
371 4 0.19458 0.247766 0.221108
279 4 0.22806 0.271545 0.175513
343 2 0.248407 0.276491 0.257174
344 4 0.251539 0.263558 0.236006
307 2 0.324226 0.271148 0.212833
309 4 0.30849 0.274776 0.193745
308 4 0.339963 0.26752 0.231922
527 4 0.496027 0.281962 0.174807
526 2 0.482842 0.269143 0.191748
300 4 0.109616 0.344441 0.226254
648 4 0.101922 0.347143 0.145635
298 2 0.127688 0.359836 0.234101
299 4 0.14576 0.375231 0.241947
303 4 0.349093 0.402695 0.209808
302 4 0.317338 0.389551 0.173482
301 2 0.333215 0.396123 0.191645
643 2 0.459953 0.374871 0.184891
644 4 0.458111 0.370776 0.209488
645 4 0.461794 0.378967 0.160294
447 4 0.452531 0.364014 0.226968
108 3 0.490664 0.395654 0.224853
445 2 0.471228 0.367385 0.243224
263 4 0.0664021 0.435231 0.214378
262 2 0.044606 0.444844 0.221974
264 4 0.02281 0.454457 0.22957
417 4 0.13532 0.447768 0.191927
415 2 0.159647 0.446195 0.197489
1430 4 0.176347 0.489024 0.199122
416 4 0.183973 0.444621 0.20305
291 4 0.20045 0.435001 0.197956
289 2 0.213446 0.422603 0.215351
290 4 0.226442 0.410205 0.232745
768 4 0.250496 0.478881 0.207916
766 2 0.256987 0.476587 0.183878
767 4 0.263477 0.474293 0.159841
229 2 0.408218 0.502785 0.215929
231 4 0.413226 0.483984 0.200225
232 2 0.0317474 0.0453182 0.285958
233 4 0.0466624 0.0295997 0.298434
1402 2 0.0685742 0.00871587 0.274342
1403 4 0.0471297 0.0198173 0.280828
234 4 0.0168323 0.0610366 0.273482
318 4 0.0257803 0.0812241 0.3279
731 4 0.112479 0.0680494 0.323899
690 4 0.167639 0.99141 0.245742
1699 2 0.244124 0.0377705 0.310826
1700 4 0.247724 0.0414154 0.286353
23 3 0.374391 0.0306625 0.258731
22 3 0.372628 0.0652736 0.244184
633 4 0.377404 0.0720417 0.333378
478 2 0.472679 0.0470022 0.327014
480 4 0.469251 0.022521 0.330769
351 4 0.4499 0.0476936 0.281302
349 2 0.453451 0.0724438 0.281367
479 4 0.476107 0.0714833 0.323259
513 4 0.0514478 0.15457 0.245779
530 4 0.998098 0.118048 0.280387
398 4 0.0594888 0.138164 0.310396
397 2 0.0800473 0.124595 0.314686
399 4 0.100606 0.111026 0.318976
546 4 0.178088 0.158326 0.270802
248 4 0.230426 0.0909163 0.287783
249 4 0.234464 0.138225 0.303477
247 2 0.232445 0.114571 0.29563
403 2 0.228595 0.172914 0.289594
600 4 0.198787 0.137394 0.346569
404 4 0.222479 0.148758 0.29166
632 4 0.369809 0.109168 0.300749
631 2 0.373606 0.090605 0.317063
331 2 0.43801 0.163021 0.251515
332 4 0.454838 0.174823 0.265753
350 4 0.457001 0.0971939 0.281432
544 2 0.164387 0.179234 0.270238
392 4 0.1317 0.196059 0.262994
391 2 0.107893 0.194103 0.270383
393 4 0.0840863 0.192147 0.277772
545 4 0.150686 0.200142 0.269674
405 4 0.234711 0.19707 0.287528
706 2 0.31876 0.188112 0.321045
707 4 0.321382 0.189569 0.296222
420 4 0.404286 0.198072 0.289067
520 2 0.484021 0.2161 0.254232
521 4 0.464684 0.22925 0.263083
762 4 0.467719 0.172339 0.281167
418 2 0.422863 0.204583 0.304484
419 4 0.44144 0.211095 0.319901
761 4 0.495494 0.173062 0.322745
760 2 0.481607 0.1727 0.301956
396 4 0.00985635 0.27249 0.242813
444 4 0.01957 0.259768 0.308636
443 4 0.00619912 0.263396 0.260586
442 2 0.0128846 0.261582 0.284611
390 4 0.0676363 0.286951 0.320551
749 4 0.113035 0.26996 0.256477
388 2 0.0807374 0.265658 0.320171
401 4 0.197112 0.261763 0.274335
345 4 0.245275 0.289425 0.278342
400 2 0.210472 0.263624 0.295388
402 4 0.223833 0.265484 0.316441
508 2 0.236318 0.304661 0.328952
510 4 0.231221 0.284171 0.31556
496 2 0.319945 0.310755 0.281971
498 4 0.298164 0.322844 0.279822
509 4 0.241415 0.325152 0.342344
497 4 0.341726 0.298666 0.28412
543 4 0.403088 0.314589 0.327226
615 4 0.398697 0.33441 0.32362
541 2 0.424794 0.324323 0.319526
366 4 0.0123858 0.352511 0.271091
364 2 0.0258083 0.346185 0.291215
365 4 0.0392309 0.33986 0.31134
602 4 0.0728039 0.406777 0.290549
601 2 0.0915361 0.395544 0.278379
603 4 0.110268 0.384311 0.266209
734 4 0.151999 0.375266 0.260051
733 2 0.160876 0.372906 0.283307
735 4 0.169753 0.370547 0.306562
677 4 0.182819 0.38252 0.314886
729 4 0.322041 0.35889 0.263541
433 2 0.313249 0.382757 0.322916
727 2 0.334093 0.380463 0.267357
613 2 0.375825 0.34442 0.322246
728 4 0.346145 0.402035 0.271173
434 4 0.327011 0.402495 0.316117
614 4 0.352954 0.35443 0.320872
542 4 0.4465 0.334056 0.311825
446 4 0.489925 0.370755 0.259479
549 4 0.033596 0.424419 0.316304
777 4 0.0749203 0.463361 0.289111
775 2 0.089394 0.449019 0.303602
776 4 0.103868 0.434677 0.318093
414 4 0.139182 0.454451 0.293175
412 2 0.159042 0.462305 0.306177
413 4 0.178903 0.47016 0.319179
436 2 0.298627 0.450006 0.283335
437 4 0.295911 0.45333 0.258703
438 4 0.301344 0.446683 0.307968
713 4 0.39301 0.47958 0.278001
2861 4 0.487806 0.480624 0.267862
712 2 0.416666 0.478141 0.27003
714 4 0.440321 0.476703 0.262059
316 2 0.0421345 0.0692974 0.342579
317 4 0.0584886 0.0573707 0.357258
428 4 0.06172 0.010284 0.376935
427 2 0.0777414 0.000173232 0.360617
1782 4 0.120811 0.996931 0.38084
730 2 0.119831 0.0866767 0.338871
1701 4 0.240525 0.0341255 0.3353
606 4 0.184252 0.0697501 0.378982
604 2 0.187214 0.0629243 0.355111
605 4 0.190177 0.0560984 0.331241
683 4 0.305861 0.0784398 0.370814
441 4 0.28792 0.0251445 0.411491
439 2 0.298317 0.00286506 0.416042
257 4 0.393521 0.0648075 0.342481
698 4 0.380876 0.0529752 0.333087
697 2 0.363841 0.034878 0.33582
699 4 0.346805 0.0167808 0.338553
256 2 0.40958 0.0615922 0.361375
424 2 0.404559 0.0323798 0.408682
258 4 0.425638 0.0583769 0.380268
426 4 0.410609 0.0488266 0.390848
732 4 0.127183 0.105304 0.353842
685 2 0.155197 0.153378 0.405852
598 2 0.178294 0.151686 0.347548
686 4 0.176508 0.165641 0.401309
682 2 0.297152 0.0924602 0.389596
684 4 0.288444 0.106481 0.408378
451 2 0.473651 0.154778 0.381757
453 4 0.44919 0.159771 0.383141
514 2 0.42359 0.155174 0.418962
515 4 0.43837 0.159601 0.399286
2655 4 0.00493357 0.236378 0.379041
2653 2 0.0214084 0.217635 0.380612
2654 4 0.0378832 0.198893 0.382184
599 4 0.1578 0.165978 0.348526
474 4 0.235711 0.22883 0.360211
472 2 0.252767 0.212127 0.352778
276 4 0.23393 0.239503 0.396051
708 4 0.316137 0.186654 0.345868
473 4 0.269824 0.195423 0.345345
488 4 0.274033 0.222167 0.381918
487 2 0.272924 0.240448 0.39894
716 4 0.339158 0.246554 0.35749
304 2 0.471407 0.213575 0.418349
305 4 0.46973 0.195045 0.401645
270 4 0.492929 0.254972 0.395938
616 2 0.0695508 0.326944 0.37709
618 4 0.0651347 0.308118 0.392941
347 4 0.0564917 0.296556 0.405677
389 4 0.0938385 0.244364 0.319792
375 4 0.169855 0.32298 0.402632
274 2 0.212492 0.252103 0.393441
275 4 0.191054 0.264704 0.390831
373 2 0.193938 0.321779 0.396018
374 4 0.218021 0.320578 0.389405
376 2 0.293661 0.278263 0.342066
377 4 0.317448 0.285919 0.341197
378 4 0.269874 0.270607 0.342936
489 4 0.271815 0.258729 0.415963
715 2 0.35826 0.254555 0.343481
717 4 0.377362 0.262557 0.329472
617 4 0.073967 0.34577 0.361239
407 4 0.0782739 0.427512 0.361881
676 2 0.200066 0.368911 0.326825
678 4 0.217312 0.355302 0.338763
503 4 0.275738 0.423281 0.40274
435 4 0.299488 0.36302 0.329716
336 4 0.351088 0.380614 0.389789
334 2 0.35564 0.37898 0.41432
561 4 0.465317 0.389817 0.391871
752 4 0.47479 0.392219 0.374781
559 2 0.47625 0.375748 0.409413
751 2 0.456477 0.400711 0.360027
753 4 0.438163 0.409203 0.345273
2463 4 0.0117277 0.47847 0.33265
547 2 0.0508816 0.419247 0.333614
408 4 0.0752402 0.404055 0.405942
548 4 0.0681671 0.414075 0.350924
406 2 0.076757 0.415784 0.383912
499 2 0.104335 0.480986 0.365952
500 4 0.112564 0.475034 0.343104
501 4 0.096106 0.486937 0.3888
5 3 0.293652 0.434625 0.373136
1 1 0.309016 0.450198 0.379465
2 3 0.298443 0.466967 0.391134
4 3 0.324992 0.440442 0.393175
3 3 0.319185 0.459359 0.360728
1557 4 0.265318 0.505149 0.400879
594 4 0.377019 0.468306 0.358044
592 2 0.401701 0.465821 0.354915
593 4 0.426383 0.463335 0.351786
117 3 0.49509 0.435136 0.357789
1772 4 0.0197112 0.0101677 0.425927
718 2 0.0482864 0.0568052 0.47379
720 4 0.0418747 0.0402795 0.491425
719 4 0.0546982 0.0733309 0.456156
2237 4 0.0340806 0.0281283 0.505077
2236 2 0.0215915 0.00840964 0.496112
367 2 0.125972 0.0439784 0.431388
369 4 0.141024 0.0572314 0.446321
368 4 0.11092 0.0307254 0.416455
340 2 0.185377 0.0572234 0.501011
341 4 0.18634 0.0343789 0.490892
1181 4 0.238287 0.0526808 0.486147
1180 2 0.250667 0.072992 0.493852
726 4 0.334369 0.041264 0.453606
425 4 0.398508 0.0159329 0.426517
724 2 0.339693 0.0656774 0.454515
2879 4 0.491325 0.0634246 0.433628
2878 2 0.48545 0.0840812 0.446433
458 4 0.0287327 0.171832 0.44319
687 4 0.133886 0.141116 0.410395
320 4 0.29301 0.108776 0.427223
321 4 0.274031 0.154997 0.429243
319 2 0.28352 0.131886 0.428233
1182 4 0.263048 0.0933032 0.501557
725 4 0.345016 0.0900908 0.455424
574 2 0.398612 0.143425 0.474635
575 4 0.404413 0.159324 0.456229
516 4 0.40881 0.150746 0.438637
576 4 0.392811 0.127527 0.49304
642 4 0.479676 0.124855 0.467829
2880 4 0.479575 0.104738 0.459238
640 2 0.470289 0.125802 0.490985
457 2 0.00866826 0.170191 0.428361
471 4 0.0258646 0.172805 0.494794
469 2 0.0298233 0.195243 0.484497
470 4 0.033782 0.217681 0.474199
260 4 0.107956 0.188324 0.428527
261 4 0.119355 0.18304 0.47693
259 2 0.113655 0.185682 0.452728
1035 4 0.130963 0.191001 0.491815
695 4 0.0893037 0.243587 0.465332
468 4 0.337396 0.187747 0.43651
411 4 0.256411 0.185709 0.458683
409 2 0.279584 0.185841 0.468073
410 4 0.302757 0.185973 0.477464
467 4 0.383519 0.182984 0.417783
466 2 0.360457 0.185365 0.427146
872 4 0.406729 0.227409 0.513316
306 4 0.473083 0.232105 0.435052
346 2 0.0459876 0.300744 0.427977
348 4 0.0354834 0.304932 0.450278
694 2 0.103333 0.253537 0.483481
7 3 0.14432 0.32547 0.478593
10 3 0.180694 0.324661 0.486909
650 4 0.276924 0.311088 0.466525
651 4 0.250053 0.275996 0.443133
649 2 0.263488 0.293542 0.454829
266 4 0.326136 0.285579 0.446986
267 4 0.353169 0.254778 0.475643
265 2 0.339653 0.270178 0.461314
813 4 0.327298 0.287545 0.507499
583 2 0.469084 0.277656 0.4605
584 4 0.49079 0.287566 0.467972
585 4 0.447378 0.267746 0.453028
326 4 0.0729589 0.329438 0.446416
327 4 0.117711 0.331967 0.468588
325 2 0.0953349 0.330703 0.457502
6 1 0.161425 0.336575 0.489234
711 4 0.164507 0.375887 0.472233
8 3 0.163877 0.35755 0.479619
709 2 0.182227 0.390483 0.462327
710 4 0.199947 0.40508 0.452421
774 4 0.22938 0.407592 0.486325
669 4 0.304 0.424805 0.465767
504 4 0.239704 0.401107 0.429396
502 2 0.257721 0.412194 0.416068
238 2 0.379685 0.379723 0.469415
240 4 0.362315 0.388954 0.453979
335 4 0.360191 0.377346 0.438852
239 4 0.397054 0.370492 0.484851
560 4 0.487183 0.361679 0.426955
935 4 0.0128162 0.443633 0.48745
681 4 0.0576442 0.434468 0.442902
383 4 0.0732937 0.431442 0.454924
680 4 0.0251833 0.470096 0.429572
1381 2 0.0178639 0.505685 0.445587
1383 4 0.0276026 0.482676 0.44654
679 2 0.0414137 0.452282 0.436237
570 4 0.171818 0.471599 0.434619
384 4 0.119815 0.448046 0.447128
568 2 0.153142 0.461087 0.447499
569 4 0.134466 0.450576 0.460378
382 2 0.0965544 0.439744 0.451026
635 4 0.230737 0.425558 0.493476
634 2 0.242456 0.442842 0.479724
636 4 0.254175 0.460125 0.465972
668 4 0.294667 0.44631 0.421595
667 2 0.299333 0.435558 0.443681
588 4 0.385792 0.462454 0.445306
586 2 0.39475 0.445772 0.461635
661 2 0.475888 0.477463 0.489927
587 4 0.403708 0.42909 0.477965
663 4 0.468682 0.453703 0.486968
662 4 0.483093 0.501222 0.492886
1126 2 0.0271112 0.0509163 0.531953
1127 4 0.0335837 0.0474296 0.508055
1128 4 0.0206387 0.054403 0.555851
1058 4 0.126901 0.0605176 0.562218
2428 2 0.2044 0.00647118 0.518101
342 4 0.184415 0.0800679 0.511129
1031 4 0.239329 0.0569142 0.586201
2430 4 0.193495 0.0262631 0.5074
1152 4 0.175244 0.0857961 0.528436
1030 2 0.250377 0.075293 0.573342
961 2 0.281142 0.0268929 0.517107
963 4 0.303739 0.0364217 0.521978
962 4 0.258544 0.0173642 0.512236
432 4 0.313616 0.0469009 0.506693
430 2 0.330705 0.0649394 0.509483
1217 4 0.410255 0.0430831 0.540477
1216 2 0.408147 0.0226112 0.554677
841 2 0.384892 0.0727221 0.529939
842 4 0.407284 0.0621544 0.533419
1218 4 0.406039 0.0021394 0.568877
843 4 0.3625 0.0832898 0.526459
431 4 0.347793 0.0829779 0.512274
1062 4 0.483558 0.0277818 0.519032
938 4 0.0710202 0.11824 0.550694
1057 2 0.123839 0.0794091 0.578309
937 2 0.0899495 0.132418 0.542581
939 4 0.108879 0.146597 0.534468
1153 2 0.146559 0.127775 0.571225
1155 4 0.133983 0.112599 0.586611
1151 4 0.179178 0.134924 0.519967
1150 2 0.177211 0.11036 0.524201
1154 4 0.159135 0.14295 0.55584
1032 4 0.261425 0.0936718 0.560484
899 4 0.32633 0.16123 0.553627
641 4 0.460903 0.126749 0.51414
877 2 0.0599738 0.212903 0.584041
878 4 0.0388953 0.200615 0.578575
1199 4 0.0230804 0.202792 0.566869
1034 4 0.10604 0.180989 0.533998
1033 2 0.118502 0.185995 0.512907
856 2 0.237662 0.199345 0.541534
857 4 0.21702 0.203747 0.528128
898 2 0.31863 0.16853 0.530986
858 4 0.258304 0.194944 0.55494
900 4 0.310931 0.175831 0.508345
791 4 0.30196 0.223257 0.567897
790 2 0.307179 0.247708 0.567674
871 2 0.385246 0.237596 0.521053
873 4 0.363762 0.247783 0.52879
905 4 0.489052 0.21697 0.579269
904 2 0.465067 0.219709 0.585776
906 4 0.441081 0.222448 0.592284
1258 2 0.135573 0.282761 0.524112
1260 4 0.112384 0.278887 0.5156
1259 4 0.158761 0.286636 0.532625
696 4 0.117363 0.263486 0.501629
9 3 0.15612 0.33874 0.511719
811 2 0.309218 0.30481 0.507036
804 4 0.277817 0.320882 0.520199
792 4 0.312398 0.27216 0.567451
1238 4 0.319882 0.284449 0.580964
812 4 0.291138 0.322075 0.506572
983 4 0.0356341 0.337278 0.562318
1137 4 0.132766 0.37825 0.592754
1189 2 0.226541 0.380905 0.559544
773 4 0.248196 0.377535 0.521585
1190 4 0.238771 0.373857 0.538906
1191 4 0.214311 0.387953 0.580183
772 2 0.238788 0.392564 0.503955
802 2 0.263516 0.34076 0.52525
803 4 0.249215 0.360639 0.530301
930 4 0.34471 0.391486 0.581493
928 2 0.34574 0.38385 0.557706
929 4 0.346769 0.376215 0.533919
925 2 0.452397 0.401361 0.51606
927 4 0.466569 0.393772 0.535211
926 4 0.438225 0.408949 0.49691
936 4 0.989941 0.465613 0.526106
934 2 0.00137848 0.454623 0.506778
539 4 0.0824165 0.475173 0.500722
2243 4 0.153562 0.497862 0.564384
540 4 0.118969 0.508702 0.507079
538 2 0.100693 0.491937 0.5039
1161 4 0.161866 0.478324 0.56651
1171 2 0.22468 0.440946 0.581394
1173 4 0.200572 0.440764 0.588023
1172 4 0.248788 0.441127 0.574765
882 4 0.306822 0.458193 0.530317
891 4 0.279365 0.444157 0.579649
880 2 0.33176 0.457148 0.531788
881 4 0.356699 0.456102 0.533258
1952 4 0.366756 0.472397 0.539065
1951 2 0.370919 0.484048 0.560793
1000 2 0.427923 0.447248 0.563348
1001 4 0.444774 0.46198 0.552204
825 4 0.123183 0.0255673 0.615707
823 2 0.138795 0.00868502 0.625527
951 4 0.247644 0.0403251 0.595238
949 2 0.265105 0.022868 0.591295
950 4 0.282566 0.00541081 0.587351
1092 4 0.342595 0.0117602 0.653495
808 2 0.475023 0.0835899 0.637285
810 4 0.473152 0.079891 0.661943
1083 4 0.0568192 0.0975818 0.625442
1082 4 0.0239221 0.11622 0.65817
1081 2 0.0403707 0.106901 0.641806
1059 4 0.120778 0.0983007 0.594399
909 4 0.137514 0.143206 0.669642
1284 4 0.159683 0.0954109 0.639429
1283 4 0.196217 0.0868852 0.672494
1282 2 0.17795 0.091148 0.655961
809 4 0.476893 0.0872888 0.612628
45 3 0.436246 0.10215 0.669534
879 4 0.0810523 0.225191 0.589507
1244 4 0.0578749 0.256115 0.600707
1209 4 0.0906027 0.244516 0.649751
1272 4 0.0993439 0.224981 0.596493
1270 2 0.12352 0.227034 0.602532
1271 4 0.147696 0.229087 0.608572
1221 4 0.167851 0.190464 0.597429
797 4 0.220932 0.233464 0.609882
1210 2 0.236416 0.182671 0.648908
1212 4 0.211472 0.182281 0.647236
1219 2 0.187102 0.186424 0.612863
1220 4 0.206354 0.182384 0.628298
796 2 0.243859 0.227104 0.602196
947 4 0.177997 0.244673 0.62749
798 4 0.266786 0.220744 0.594509
1211 4 0.261361 0.183061 0.65058
888 4 0.273364 0.198618 0.655987
1193 4 0.37055 0.241464 0.693679
1025 4 0.442252 0.189798 0.652018
1243 2 0.0648946 0.253831 0.624597
1245 4 0.0719143 0.251547 0.648486
946 2 0.189686 0.263453 0.639147
948 4 0.201375 0.282233 0.650803
1237 2 0.310681 0.303367 0.594479
1239 4 0.301481 0.322285 0.607994
954 4 0.452479 0.277587 0.582702
952 2 0.469266 0.281362 0.600843
953 4 0.486054 0.285137 0.618985
3123 4 0.477752 0.289812 0.662967
982 2 0.0398219 0.34481 0.585789
984 4 0.0440096 0.352343 0.60926
1039 2 0.0687567 0.376556 0.63365
1041 4 0.0497678 0.367137 0.620387
3263 4 0.0377386 0.353607 0.628067
3262 2 0.0144878 0.361855 0.632136
1040 4 0.0877456 0.385974 0.646912
897 4 0.152745 0.375999 0.588685
1136 4 0.0839481 0.368378 0.597238
1135 2 0.108357 0.373314 0.594996
991 2 0.120894 0.400667 0.654629
993 4 0.0994336 0.401562 0.641829
896 4 0.202159 0.382128 0.593315
895 2 0.177452 0.379063 0.591
1029 4 0.240403 0.383081 0.662375
806 4 0.306278 0.35179 0.68568
1204 2 0.416943 0.406225 0.664713
1206 4 0.394842 0.416251 0.670732
1205 4 0.439043 0.396199 0.658694
1159 2 0.173189 0.463218 0.582904
1187 4 0.227077 0.489376 0.605478
1160 4 0.184512 0.448112 0.599298
1186 2 0.21552 0.496639 0.626427
889 2 0.301908 0.454626 0.582367
890 4 0.324451 0.465096 0.585084
1002 4 0.411072 0.432516 0.574493
1269 4 0.458504 0.459172 0.665778
1267 2 0.4518 0.483093 0.668606
945 4 0.0765727 0.00824607 0.65307
944 4 0.0731057 0.0568115 0.664476
943 2 0.0748392 0.0325288 0.658773
1147 2 0.205378 0.0624077 0.741589
1148 4 0.198045 0.0858092 0.736713
1149 4 0.212711 0.0390063 0.746465
1003 2 0.338879 0.079066 0.689704
1090 2 0.340246 0.0220517 0.676161
1091 4 0.337898 0.0323433 0.698827
1004 4 0.348976 0.070645 0.710972
1163 4 0.479677 0.0675903 0.675435
1162 2 0.496461 0.0503392 0.682208
42 3 0.425658 0.0699417 0.685136
2320 2 0.486587 0.0147633 0.75159
41 1 0.442104 0.0860125 0.684498
44 3 0.462051 0.0760798 0.678028
1076 4 0.0341205 0.11662 0.675756
864 4 0.0548537 0.1337 0.72973
1075 2 0.048947 0.120926 0.695423
1077 4 0.0637736 0.125231 0.715091
907 2 0.158642 0.13519 0.680343
908 4 0.179771 0.127174 0.691044
1227 4 0.171462 0.127012 0.70947
1225 2 0.179491 0.113122 0.728647
1226 4 0.187521 0.0992309 0.747824
1005 4 0.328782 0.087487 0.668437
831 4 0.357857 0.158925 0.690388
1142 4 0.396878 0.153044 0.725754
3269 4 0.499175 0.134059 0.75587
43 3 0.444364 0.0952761 0.705652
851 4 0.06848 0.187281 0.720555
852 4 0.0231585 0.179218 0.701019
850 2 0.0458192 0.183249 0.710787
1213 2 0.017428 0.219453 0.744292
1107 4 0.0750425 0.169166 0.724523
1214 4 0.0362749 0.212169 0.75902
1105 2 0.0966983 0.177842 0.733519
1207 2 0.0995608 0.240958 0.672822
1208 4 0.108519 0.237401 0.695893
1106 4 0.118354 0.186519 0.742514
1130 4 0.178345 0.196122 0.724246
1129 2 0.189183 0.215457 0.735817
830 4 0.317752 0.185431 0.704164
886 2 0.286906 0.194888 0.676672
887 4 0.300448 0.191157 0.697357
976 2 0.299583 0.196554 0.7358
978 4 0.301045 0.183077 0.714789
918 4 0.293031 0.22928 0.75246
829 2 0.337805 0.172178 0.697276
1192 2 0.369918 0.216782 0.697622
1194 4 0.369286 0.192099 0.701566
1141 2 0.408938 0.174026 0.719471
1298 4 0.367498 0.206943 0.744918
1024 2 0.43934 0.192779 0.676672
1143 4 0.420999 0.195008 0.713188
1026 4 0.436428 0.195759 0.701326
1261 2 0.437834 0.23491 0.713529
1263 4 0.447247 0.257527 0.718536
1262 4 0.42842 0.212294 0.708522
3357 4 0.493284 0.235763 0.700386
1179 4 0.99722 0.287688 0.718651
820 2 0.18028 0.267364 0.738121
821 4 0.167125 0.282619 0.723309
1065 4 0.215279 0.277314 0.705439
1063 2 0.217551 0.282397 0.681063
1064 4 0.219823 0.28748 0.656687
3121 2 0.483288 0.268216 0.674287
3122 4 0.488823 0.24662 0.685606
3274 2 0.00996652 0.385769 0.738803
892 2 0.0535378 0.366308 0.707703
893 4 0.0617788 0.36453 0.684164
894 4 0.0452967 0.368086 0.731243
3276 4 0.0328844 0.376994 0.743592
992 4 0.142354 0.399772 0.667429
940 2 0.13595 0.395534 0.7423
941 4 0.159206 0.394974 0.733133
1067 4 0.162484 0.397098 0.713866
1028 4 0.21405 0.422769 0.677578
1066 2 0.179256 0.409365 0.699959
1068 4 0.196028 0.421633 0.686053
1027 2 0.227227 0.402925 0.669976
805 2 0.329255 0.342793 0.689721
1139 4 0.274632 0.409468 0.693997
807 4 0.352231 0.333796 0.693762
1019 4 0.387671 0.370495 0.742818
1101 4 0.475065 0.431315 0.705885
1281 4 0.0446179 0.477231 0.722568
1280 4 0.0668376 0.443752 0.6928
1279 2 0.0557278 0.460491 0.707684
1983 4 0.0253626 0.481347 0.72359
1981 2 0.021185 0.486526 0.747692
1175 4 0.226238 0.476045 0.677508
1176 4 0.223352 0.487799 0.726028
1174 2 0.224795 0.481922 0.701768
1138 2 0.280206 0.430796 0.705797
1140 4 0.28578 0.452124 0.717597
1228 2 0.374247 0.460035 0.728252
1229 4 0.36586 0.482353 0.72072
1230 4 0.382634 0.437716 0.735784
1989 4 0.34747 0.48359 0.72632
1100 4 0.434912 0.457337 0.720421
1099 2 0.454988 0.444326 0.713153
1294 2 0.0220578 0.00362248 0.798061
911 4 0.0613157 0.0617899 0.810746
1296 4 0.0283768 0.0199518 0.81591
1295 4 0.0157389 0.987293 0.780212
910 2 0.073912 0.076491 0.826569
1203 4 0.110012 0.0624419 0.74965
1201 2 0.106855 0.0472373 0.769247
1202 4 0.103698 0.0320327 0.788844
2049 4 0.103489 0.0142927 0.779837
1257 4 0.244143 0.0569332 0.803825
1255 2 0.260877 0.0638711 0.821059
1050 4 0.333548 0.990436 0.790705
975 4 0.362307 0.00559349 0.820979
1113 4 0.401096 0.0193285 0.800747
1111 2 0.40523 0.0369227 0.818025
844 2 0.475064 0.069698 0.754926
845 4 0.456649 0.0597411 0.768598
2322 4 0.497728 0.0306791 0.76733
862 2 0.0522358 0.125425 0.753179
863 4 0.0496179 0.117151 0.776628
832 2 0.00922989 0.112549 0.790653
833 4 0.0311232 0.110463 0.778757
34 3 0.0863001 0.145751 0.825405
31 1 0.0950969 0.16423 0.814472
33 3 0.115217 0.15862 0.804367
912 4 0.0865084 0.091192 0.842393
839 4 0.232127 0.101861 0.830568
838 2 0.250709 0.118543 0.829308
840 4 0.269291 0.135226 0.828049
1086 4 0.300584 0.149061 0.822011
1084 2 0.324266 0.141047 0.822391
1085 4 0.347947 0.133034 0.822772
846 4 0.493478 0.079655 0.741253