ITEM: TIMESTEP
160000
ITEM: NUMBER OF ATOMS
4590
ITEM: BOX BOUNDS pp pp pp
-9.9985700000000008e+00 9.9985700000000008e+00
-9.9985700000000008e+00 9.9985700000000008e+00
-9.9985700000000008e+00 9.9985700000000008e+00
ITEM: ATOMS id type xs ys zs
463 2 0.050125 0.037871 0.0261388
465 4 0.0646493 0.0569253 0.0189864
1667 4 0.0858416 0.00645868 0.0661915
464 4 0.0356007 0.0188167 0.0332912
1666 2 0.064534 0.00239872 0.0786285
532 2 0.195608 0.0591067 0.00585413
534 4 0.187214 0.0637153 0.028951
490 2 0.272053 0.0506995 0.0454223
491 4 0.283543 0.0466036 0.0672489
492 4 0.260564 0.0547955 0.0235957
295 2 0.353254 0.0566185 0.0787029
296 4 0.36628 0.0488679 0.0588173
745 2 0.450841 0.0582404 0.0429206
746 4 0.435249 0.0633403 0.0617906
747 4 0.466432 0.0531404 0.0240506
2975 4 0.484161 0.0623839 0.0194751
589 2 0.0309211 0.12047 0.0690173
590 4 0.0115166 0.123388 0.0535212
591 4 0.0503256 0.117552 0.0845134
3233 4 0.0165467 0.132787 0.014795
421 2 0.121216 0.136973 0.997214
423 4 0.0968432 0.142554 0.997226
701 4 0.0781871 0.0869063 0.0474084
700 2 0.0830923 0.0845289 0.0718105
422 4 0.145589 0.131393 0.997201
565 2 0.204519 0.1162 0.0373259
566 4 0.204225 0.0997261 0.0185191
567 4 0.204813 0.132674 0.0561326
358 2 0.285133 0.137077 0.0345781
359 4 0.285481 0.127629 0.0114309
360 4 0.284785 0.146525 0.0577254
556 2 0.369533 0.100547 0.0425284
557 4 0.363863 0.0846449 0.0240855
558 4 0.375203 0.11645 0.0609713
553 2 0.0487273 0.216433 0.0150282
555 4 0.0347675 0.195993 0.0185659
554 4 0.0626872 0.236872 0.0114906
571 2 0.321462 0.228927 0.0532375
573 4 0.297264 0.230931 0.0472695
666 4 0.311637 0.226307 0.0104939
572 4 0.34566 0.226924 0.0592054
1071 4 0.39739 0.239134 0.010081
324 4 0.400405 0.23279 0.0853888
771 4 0.451435 0.19219 0.0520282
770 4 0.495121 0.168908 0.0591152
769 2 0.473278 0.180549 0.0555717
322 2 0.417771 0.250397 0.0816971
292 2 0.133357 0.312184 0.0129625
294 4 0.110161 0.318285 0.00589609
293 4 0.156552 0.306083 0.020029
914 4 0.184464 0.256259 0.991502
483 4 0.221308 0.302594 0.0474713
505 2 0.183329 0.289009 0.0455616
507 4 0.179898 0.312547 0.0378557
506 4 0.18676 0.265471 0.0532676
481 2 0.241028 0.317492 0.0512627
355 2 0.252368 0.258193 0.994349
357 4 0.272484 0.263587 0.00818491
482 4 0.260748 0.332389 0.0550541
1069 2 0.407545 0.261102 0.0163624
1070 4 0.4177 0.283071 0.0226439
280 2 0.465896 0.328238 0.025495
281 4 0.469235 0.320081 0.0488934
323 4 0.435136 0.268003 0.0780054
328 2 0.0164675 0.391387 0.00292811
330 4 0.0154983 0.385948 0.0273137
552 4 0.0538544 0.415397 0.0679997
454 2 0.124911 0.362954 0.0809094
455 4 0.126266 0.364569 0.0559948
287 4 0.178311 0.348649 0.0205201
288 4 0.176558 0.398324 0.0150326
286 2 0.177434 0.373487 0.0177764
252 4 0.268044 0.373463 0.0406098
250 2 0.27756 0.395522 0.0336805
609 4 0.289658 0.374484 0.0860215
671 4 0.463864 0.347776 0.0734858
550 2 0.0634087 0.434112 0.0544488
551 4 0.0729629 0.452828 0.0408979
244 2 0.254428 0.454326 0.0284274
245 4 0.234158 0.446876 0.0158256
251 4 0.287076 0.417581 0.0267513
246 4 0.274698 0.461776 0.0410293
272 4 0.28748 0.473476 0.0195023
524 4 0.344413 0.498991 0.072791
564 4 0.434736 0.494553 0.0459444
227 4 0.484737 0.435383 0.0478322
562 2 0.445827 0.481451 0.0277643
563 4 0.456918 0.46835 0.00958423
702 4 0.0879975 0.0821516 0.0962127
16 1 0.0595424 0.0588431 0.156191
19 3 0.0664604 0.043612 0.140111
2576 4 0.992654 0.0190352 0.130651
20 3 0.070733 0.0785069 0.153592
17 3 0.036983 0.0625749 0.153681
448 2 0.156799 0.0723494 0.135936
450 4 0.15249 0.0477591 0.137323
1505 4 0.21838 0.0268515 0.167178
652 2 0.313657 0.0310672 0.137243
654 4 0.291537 0.0236461 0.146232
653 4 0.335777 0.0384882 0.128254
1784 4 0.403891 0.00171583 0.1629
297 4 0.340229 0.064369 0.0985884
1760 4 0.499607 0.00960985 0.141473
476 4 0.145427 0.166322 0.0951339
449 4 0.161108 0.0969397 0.134548
235 2 0.169395 0.126434 0.13789
237 4 0.160104 0.148491 0.145125
236 4 0.178686 0.104377 0.130654
582 4 0.285479 0.102796 0.144824
580 2 0.28023 0.106865 0.168929
628 2 0.411443 0.159246 0.133733
629 4 0.424839 0.145269 0.149556
379 2 0.0271339 0.169903 0.163365
380 4 0.0229163 0.176585 0.139643
656 4 0.00727293 0.244768 0.0924391
475 2 0.13325 0.163222 0.11675
477 4 0.121072 0.160122 0.138367
338 4 0.0917636 0.234952 0.166887
337 2 0.0901531 0.2458 0.144417
737 4 0.173951 0.201995 0.114128
736 2 0.195389 0.189334 0.116435
738 4 0.216826 0.176673 0.118741
354 4 0.251646 0.219292 0.110447
284 4 0.284485 0.218381 0.15858
352 2 0.265528 0.239277 0.116199
460 2 0.326561 0.196332 0.103217
461 4 0.30571 0.20573 0.113319
462 4 0.347413 0.186933 0.0931142
630 4 0.398047 0.173223 0.11791
255 4 0.36184 0.18046 0.0812714
254 4 0.404817 0.188392 0.105579
253 2 0.383328 0.184426 0.093425
517 2 0.486859 0.244678 0.0972639
518 4 0.475562 0.22296 0.102355
528 4 0.455778 0.252598 0.163951
705 4 0.996038 0.30941 0.122824
339 4 0.0885426 0.256648 0.121947
353 4 0.279409 0.259262 0.121951
754 2 0.275613 0.303904 0.115416
755 4 0.280682 0.279666 0.118881
756 4 0.270545 0.328142 0.111951
741 4 0.333745 0.301385 0.0987952
622 2 0.380896 0.271609 0.143847
624 4 0.373445 0.259755 0.164562
739 2 0.348463 0.321578 0.0979003
623 4 0.388347 0.283464 0.123131
672 4 0.439475 0.315186 0.102533
519 4 0.498156 0.266395 0.0921725
12 3 0.426837 0.343217 0.15919
619 2 0.0228709 0.357388 0.0976196
620 4 0.0445534 0.365591 0.106988
456 4 0.123556 0.36134 0.105824
537 4 0.141888 0.364346 0.152796
535 2 0.161812 0.355027 0.164685
626 4 0.226827 0.406113 0.130936
608 4 0.325212 0.408241 0.0958751
607 2 0.307435 0.391362 0.0909483
612 4 0.279117 0.366709 0.150901
740 4 0.363182 0.34177 0.0970054
387 4 0.344296 0.398038 0.135134
15 3 0.396612 0.347724 0.137765
385 2 0.351585 0.377762 0.122447
386 4 0.358873 0.357486 0.10976
11 1 0.412484 0.358623 0.149927
670 2 0.45167 0.331481 0.0880096
14 3 0.424607 0.372851 0.136179
495 4 0.42805 0.40025 0.131933
2652 4 0.493155 0.356057 0.120005
313 2 0.0127344 0.443495 0.0906665
314 4 0.0208738 0.45162 0.112868
1440 4 0.1865 0.5039 0.103277
243 4 0.180591 0.498011 0.085129
625 2 0.224311 0.425948 0.115922
627 4 0.221796 0.445784 0.100908
637 2 0.252512 0.486724 0.138045
638 4 0.250836 0.47465 0.159876
525 4 0.32217 0.481949 0.11421
523 2 0.333292 0.49047 0.0935006
658 2 0.376949 0.465516 0.151028
659 4 0.363868 0.483721 0.139954
493 2 0.4462 0.41672 0.126982
494 4 0.464349 0.43319 0.122031
18 3 0.0634135 0.0502741 0.177404
1422 4 0.00212353 0.0207408 0.194282
673 2 0.134452 0.0398565 0.221721
674 4 0.159286 0.0384463 0.224269
675 4 0.109619 0.0412667 0.219173
689 4 0.214162 0.0184672 0.22784
1504 2 0.237777 0.013827 0.176083
692 4 0.214938 0.0859908 0.204105
21 1 0.369538 0.057123 0.23162
23 3 0.36797 0.0355336 0.239977
24 3 0.348517 0.0647787 0.225461
25 3 0.383519 0.0575018 0.213647
759 4 0.395623 0.0615026 0.199228
22 3 0.377938 0.0708636 0.248044
758 4 0.433857 0.0525206 0.168273
757 2 0.41474 0.0570116 0.18375
742 2 0.454749 0.0580502 0.236405
743 4 0.469872 0.0775296 0.232279
744 4 0.439626 0.0385707 0.240531
381 4 0.0313514 0.163221 0.187087
511 2 0.0255787 0.163008 0.222332
513 4 0.0320706 0.153825 0.244663
577 2 0.0953408 0.105903 0.217593
578 4 0.104755 0.128175 0.211229
579 4 0.0859269 0.083631 0.223958
693 4 0.236812 0.102609 0.162319
723 4 0.1834 0.0976307 0.216155
691 2 0.225875 0.0942998 0.183212
721 2 0.177906 0.113259 0.234883
581 4 0.274981 0.110934 0.193035
30 3 0.288255 0.143058 0.221256
26 1 0.308581 0.134653 0.227158
28 3 0.30799 0.111461 0.226718
27 3 0.324443 0.141973 0.212192
29 3 0.314335 0.142029 0.248393
312 4 0.418084 0.107114 0.165302
310 2 0.433075 0.114174 0.184027
311 4 0.448065 0.121233 0.202752
333 4 0.427997 0.119204 0.260392
396 4 0.00228568 0.25144 0.236418
512 4 0.0190868 0.172191 0.2
394 2 0.0243336 0.247567 0.22528
395 4 0.0463815 0.243693 0.214141
363 4 0.0919588 0.239874 0.186717
371 4 0.179226 0.243865 0.226012
283 2 0.272494 0.20865 0.178245
285 4 0.260503 0.198919 0.19791
764 4 0.374787 0.223401 0.183524
763 2 0.390483 0.22873 0.202244
765 4 0.406178 0.234059 0.220964
520 2 0.476201 0.21507 0.235462
521 4 0.457011 0.201987 0.226201
522 4 0.495391 0.228153 0.244722
370 2 0.157239 0.255366 0.222933
361 2 0.104248 0.257153 0.199968
362 4 0.116538 0.274431 0.21322
372 4 0.135252 0.266867 0.219854
300 4 0.135902 0.313048 0.225573
298 2 0.129759 0.333881 0.237959
279 4 0.226157 0.283252 0.168381
345 4 0.23868 0.297163 0.258697
277 2 0.25017 0.277664 0.164216
343 2 0.259473 0.288047 0.248223
344 4 0.280267 0.278931 0.237749
278 4 0.274182 0.272077 0.160051
307 2 0.307705 0.274244 0.212724
309 4 0.300894 0.290805 0.195273
308 4 0.314516 0.257684 0.230175
527 4 0.501501 0.264878 0.180053
526 2 0.478639 0.258738 0.172002
647 4 0.0734736 0.389413 0.178794
648 4 0.111877 0.357553 0.175512
646 2 0.0926754 0.373483 0.177153
299 4 0.123617 0.354715 0.250345
417 4 0.138812 0.410174 0.183442
536 4 0.181737 0.345708 0.176574
610 2 0.270744 0.347295 0.164249
611 4 0.262371 0.327881 0.177597
303 4 0.321121 0.382552 0.190966
13 3 0.402454 0.370737 0.166987
301 2 0.337294 0.400742 0.185245
729 4 0.339481 0.363651 0.25218
597 4 0.480929 0.396823 0.177751
643 2 0.454759 0.378386 0.19219
644 4 0.446767 0.36471 0.211537
645 4 0.462752 0.392061 0.172844
447 4 0.455097 0.367845 0.229824
262 2 0.0382891 0.420975 0.216686
264 4 0.0266202 0.424951 0.23844
263 4 0.0499581 0.416998 0.194933
415 2 0.15731 0.426534 0.179524
416 4 0.175807 0.442895 0.175606
291 4 0.18541 0.441169 0.192039
289 2 0.209682 0.440436 0.197995
290 4 0.233955 0.439702 0.20395
768 4 0.232934 0.47911 0.232324
766 2 0.24766 0.479523 0.212121
767 4 0.262385 0.479936 0.191918
660 4 0.390031 0.44731 0.162102
302 4 0.353468 0.418932 0.179523
229 2 0.404197 0.49654 0.240205
231 4 0.386923 0.484029 0.227157
232 2 0.00931532 0.0456936 0.295718
233 4 0.0238732 0.0267843 0.288256
1402 2 0.067171 0.0137019 0.272383
1403 4 0.0753866 0.0372839 0.27113
688 2 0.219164 0.0157032 0.252182
690 4 0.224166 0.0129392 0.276524
248 4 0.224811 0.0741087 0.295887
1701 4 0.239457 0.022739 0.321128
1699 2 0.257766 0.00841875 0.311916
478 2 0.473627 0.0313479 0.311236
480 4 0.462588 0.00928421 0.307173
351 4 0.441929 0.0645863 0.296197
479 4 0.484666 0.0534116 0.3153
529 2 0.0241729 0.133443 0.289897
530 4 0.0390567 0.140069 0.308864
531 4 0.00928909 0.126818 0.27093
730 2 0.14279 0.0960261 0.328065
731 4 0.150585 0.108062 0.307582
546 4 0.159808 0.143682 0.260265
722 4 0.172413 0.128887 0.253612
249 4 0.231922 0.122226 0.307502
247 2 0.228366 0.0981672 0.301695
403 2 0.234684 0.153731 0.299765
404 4 0.246421 0.132017 0.295776
631 2 0.357114 0.104007 0.297873
632 4 0.3323 0.106681 0.296362
633 4 0.381929 0.101332 0.299385
331 2 0.450339 0.130279 0.262226
332 4 0.472681 0.141354 0.264061
349 2 0.446004 0.0892525 0.296587
350 4 0.45008 0.113919 0.296976
444 4 0.0304846 0.234987 0.304617
392 4 0.111521 0.161351 0.279321
544 2 0.156919 0.167758 0.266362
391 2 0.103467 0.18445 0.274152
393 4 0.0954135 0.20755 0.268983
545 4 0.154029 0.191834 0.272459
405 4 0.222947 0.175445 0.303754
706 2 0.316048 0.190608 0.302124
708 4 0.311751 0.181373 0.324959
707 4 0.320344 0.199843 0.279289
418 2 0.435208 0.2372 0.291802
419 4 0.434763 0.21472 0.302738
762 4 0.468623 0.171418 0.269544
761 4 0.482389 0.194926 0.311479
760 2 0.475506 0.183172 0.290511
443 4 0.0183668 0.26819 0.269242
750 4 0.0589554 0.289704 0.259364
442 2 0.0244257 0.251588 0.28693
366 4 0.00116153 0.32757 0.270618
390 4 0.0823557 0.276795 0.328125
748 2 0.0830271 0.283142 0.257732
749 4 0.107099 0.276579 0.2561
400 2 0.200762 0.270196 0.318062
402 4 0.224328 0.269171 0.326354
401 4 0.177195 0.27122 0.309771
496 2 0.301598 0.298549 0.292558
497 4 0.324738 0.301748 0.301475
498 4 0.278458 0.295351 0.283641
543 4 0.412395 0.310851 0.314269
615 4 0.377117 0.307389 0.30378
613 2 0.375249 0.329959 0.314376
420 4 0.435653 0.259681 0.280865
541 2 0.431406 0.318879 0.300152
542 4 0.450418 0.326907 0.286035
364 2 0.010579 0.340673 0.289718
365 4 0.0199964 0.353776 0.308817
601 2 0.0763293 0.372903 0.295501
602 4 0.0564701 0.380585 0.282395
603 4 0.0961885 0.365221 0.308608
734 4 0.137854 0.354615 0.263492
733 2 0.154866 0.356878 0.281675
677 4 0.17588 0.341056 0.309531
735 4 0.171879 0.359142 0.299859
509 4 0.250116 0.344869 0.320511
727 2 0.328419 0.382236 0.264727
728 4 0.317357 0.40082 0.277275
614 4 0.373381 0.352529 0.324973
445 2 0.446113 0.383361 0.247252
446 4 0.437129 0.398877 0.26468
777 4 0.0708548 0.468675 0.294812
775 2 0.0914694 0.471301 0.308716
549 4 0.0416409 0.446113 0.336197
776 4 0.112084 0.473926 0.322621
414 4 0.154526 0.463045 0.262898
412 2 0.157024 0.466626 0.287518
413 4 0.159523 0.470207 0.312137
436 2 0.295621 0.436498 0.278058
437 4 0.310195 0.43644 0.257741
438 4 0.281048 0.436555 0.298376
713 4 0.411675 0.459514 0.302447
712 2 0.433504 0.469852 0.295981
714 4 0.455333 0.48019 0.289516
316 2 0.0386464 0.0679806 0.354958
317 4 0.0295981 0.0637861 0.377887
318 4 0.0476947 0.0721752 0.33203
429 4 0.0923891 0.0169332 0.335705
428 4 0.0741796 0.0414826 0.375283
732 4 0.134995 0.0839906 0.348549
427 2 0.0832843 0.0292079 0.355494
606 4 0.167443 0.0502284 0.370133
604 2 0.190641 0.0500036 0.360807
605 4 0.21384 0.0497787 0.351482
441 4 0.266899 0.0422306 0.416284
439 2 0.265331 0.0187733 0.407771
683 4 0.294981 0.0670179 0.372946
698 4 0.377172 0.0508363 0.345352
697 2 0.364131 0.0295559 0.343848
699 4 0.351091 0.00827547 0.342345
256 2 0.415957 0.0505544 0.366137
257 4 0.394086 0.0521161 0.354121
258 4 0.437828 0.0489927 0.378153
398 4 0.0737543 0.140828 0.324305
397 2 0.0936843 0.129869 0.334691
399 4 0.113614 0.118909 0.345077
600 4 0.187457 0.143701 0.331665
598 2 0.184744 0.148989 0.355952
599 4 0.182032 0.154277 0.380239
474 4 0.236236 0.177103 0.369324
682 2 0.28436 0.0807406 0.390947
684 4 0.273738 0.0944632 0.408949
466 2 0.34893 0.15659 0.411845
467 4 0.370437 0.162991 0.400817
451 2 0.476986 0.138865 0.377196
453 4 0.453381 0.147056 0.378131
514 2 0.427649 0.148795 0.411296
515 4 0.443816 0.140383 0.394178
2654 4 0.0180598 0.195138 0.353741
274 2 0.209765 0.2378 0.397018
276 4 0.233364 0.229856 0.394743
275 4 0.186166 0.245744 0.399293
472 2 0.251421 0.186916 0.352053
473 4 0.266606 0.196728 0.334781
488 4 0.309665 0.228462 0.384186
487 2 0.31033 0.246105 0.40189
715 2 0.356888 0.238754 0.366617
716 4 0.345225 0.219064 0.376689
717 4 0.368551 0.258444 0.356545
616 2 0.0735477 0.323673 0.363703
618 4 0.0589463 0.305351 0.372437
347 4 0.055996 0.309592 0.391609
346 2 0.0553008 0.291202 0.408536
389 4 0.126818 0.262488 0.345989
388 2 0.104587 0.269641 0.337057
676 2 0.16633 0.331279 0.330468
678 4 0.15678 0.321501 0.351406
375 4 0.182478 0.323438 0.389761
373 2 0.197229 0.31556 0.40835
510 4 0.225535 0.320945 0.356899
376 2 0.286295 0.294744 0.355439
377 4 0.307595 0.283434 0.348837
378 4 0.264995 0.306053 0.362041
268 2 0.492123 0.268888 0.396525
270 4 0.467793 0.267192 0.402038
2927 4 0.0105168 0.363437 0.363781
408 4 0.0652924 0.389717 0.410478
406 2 0.0758944 0.400022 0.390314
548 4 0.0706451 0.411185 0.357162
617 4 0.0881492 0.341996 0.35497
407 4 0.0864964 0.410326 0.37015
508 2 0.237826 0.332907 0.338705
502 2 0.233714 0.40304 0.409507
435 4 0.303878 0.381755 0.345851
433 2 0.319581 0.399187 0.337207
434 4 0.335285 0.416619 0.328564
336 4 0.366787 0.355183 0.394937
2923 2 0.502702 0.350027 0.365073
561 4 0.438227 0.387755 0.40383
752 4 0.43882 0.390865 0.3842
2925 4 0.498064 0.360893 0.387109
559 2 0.459178 0.376142 0.410997
547 2 0.056143 0.428649 0.34668
568 2 0.162112 0.459399 0.419338
499 2 0.114089 0.47076 0.37299
500 4 0.132777 0.484791 0.364098
501 4 0.0954007 0.456729 0.381882
1557 4 0.237803 0.496979 0.405892
503 4 0.24816 0.422038 0.402052
570 4 0.17145 0.467822 0.397727
1436 4 0.218911 0.499534 0.356908
5 3 0.308109 0.44616 0.357135
1 1 0.318811 0.461341 0.370313
2 3 0.303287 0.475418 0.379799
4 3 0.330345 0.45041 0.387221
3 3 0.333534 0.473928 0.357538
594 4 0.380974 0.487092 0.343864
588 4 0.390696 0.428944 0.410609
592 2 0.405176 0.493081 0.341966
751 2 0.428745 0.412936 0.378153
753 4 0.41867 0.435006 0.372106
593 4 0.429377 0.499069 0.340068
718 2 0.055779 0.0746599 0.465319
719 4 0.0666689 0.0931506 0.478152
720 4 0.044889 0.0561692 0.452486
367 2 0.131109 0.0637229 0.45432
369 4 0.138777 0.0665606 0.477949
368 4 0.123442 0.0608852 0.430691
342 4 0.180144 0.0764819 0.482667
340 2 0.188876 0.0531444 0.484742
341 4 0.197607 0.0298069 0.486817
1152 4 0.180494 0.0885947 0.497641
1181 4 0.232302 0.0582801 0.497414
2430 4 0.198208 0.0102711 0.494172
440 4 0.263763 0.995316 0.399258
724 2 0.331056 0.0744854 0.430465
726 4 0.31168 0.0643111 0.418373
424 2 0.391979 0.0314468 0.42784
425 4 0.371985 0.0251997 0.441493
426 4 0.411973 0.0376939 0.414188
725 4 0.350433 0.0846596 0.442557
471 4 0.0201318 0.156093 0.486694
457 2 0.00771041 0.144231 0.435334
458 4 0.0216554 0.123481 0.435678
687 4 0.138641 0.135251 0.425256
685 2 0.158173 0.150374 0.421383
321 4 0.263325 0.148051 0.426663
319 2 0.27143 0.124404 0.427243
320 4 0.279534 0.100758 0.427824
468 4 0.327422 0.150189 0.422874
574 2 0.388893 0.170018 0.461576
575 4 0.394528 0.162128 0.438529
2878 2 0.493984 0.0927455 0.454521
642 4 0.470754 0.124938 0.463476
516 4 0.411481 0.157206 0.428414
2880 4 0.477133 0.10616 0.467221
640 2 0.470809 0.130691 0.487808
469 2 0.0213718 0.180826 0.490145
260 4 0.0868289 0.219027 0.42073
261 4 0.114861 0.193397 0.453257
259 2 0.100845 0.206212 0.436994
1035 4 0.117593 0.185569 0.472283
1033 2 0.116272 0.184277 0.497218
686 4 0.177704 0.165496 0.41751
411 4 0.27316 0.199119 0.495059
409 2 0.291197 0.1963 0.477974
410 4 0.309233 0.19348 0.460889
576 4 0.383258 0.177908 0.484623
872 4 0.420319 0.228472 0.499187
304 2 0.496968 0.200756 0.430446
305 4 0.486787 0.178664 0.436232
348 4 0.0546057 0.272813 0.425463
327 4 0.109982 0.313707 0.481891
694 2 0.109036 0.253149 0.489801
696 4 0.107206 0.272689 0.474309
325 2 0.101963 0.317241 0.458473
326 4 0.0939431 0.320775 0.435056
10 3 0.16633 0.328768 0.474234
374 4 0.211979 0.307682 0.426939
651 4 0.250945 0.271809 0.464539
489 4 0.310996 0.263748 0.419595
649 2 0.259432 0.295313 0.46537
650 4 0.26792 0.318818 0.466201
267 4 0.348225 0.251162 0.440601
265 2 0.353289 0.274252 0.432454
266 4 0.358353 0.297343 0.424308
812 4 0.354188 0.298631 0.486171
583 2 0.4708 0.293815 0.473908
584 4 0.490677 0.279713 0.468323
585 4 0.450922 0.307917 0.479492
681 4 0.0379603 0.410878 0.441619
6 1 0.158049 0.335835 0.494237
7 3 0.139577 0.349039 0.490551
504 4 0.219268 0.384042 0.416963
709 2 0.189648 0.387555 0.464764
710 4 0.211349 0.396685 0.456346
711 4 0.167946 0.378426 0.473183
772 2 0.230707 0.39628 0.502048
774 4 0.249746 0.408315 0.491192
668 4 0.318441 0.42219 0.42809
334 2 0.363346 0.365844 0.417291
238 2 0.372988 0.377825 0.479347
240 4 0.356648 0.380017 0.460549
335 4 0.359906 0.376504 0.439645
239 4 0.389328 0.375633 0.498146
560 4 0.480129 0.364529 0.418165
926 4 0.438004 0.394413 0.505192
680 4 0.0422658 0.456476 0.421544
679 2 0.0401131 0.433677 0.431581
569 4 0.152774 0.450976 0.440948
383 4 0.0842004 0.444956 0.448653
382 2 0.0873629 0.431479 0.469475
384 4 0.0905255 0.418002 0.490297
635 4 0.235817 0.445668 0.480969
634 2 0.239309 0.445033 0.456219
636 4 0.242802 0.444399 0.431469
669 4 0.288981 0.442192 0.463201
667 2 0.303711 0.432191 0.445645
586 2 0.404822 0.435175 0.430276
587 4 0.418948 0.441406 0.449944
1332 4 0.497917 0.49741 0.482312
661 2 0.453426 0.478809 0.493497
1126 2 0.0467647 0.0588984 0.530147
1127 4 0.0399742 0.0355019 0.524519
2238 4 0.0314914 0.00307135 0.51845
1058 4 0.151627 0.0768047 0.556291
1180 2 0.245504 0.0794099 0.499521
961 2 0.281546 0.0382266 0.521922
963 4 0.29727 0.0576164 0.520513
962 4 0.265823 0.0188368 0.523331
432 4 0.296908 0.0690832 0.504044
843 4 0.34984 0.083364 0.524191
1217 4 0.405881 0.055265 0.557817
1216 2 0.396256 0.0368866 0.571773
1218 4 0.386631 0.0185083 0.585729
3008 4 0.502414 0.0588572 0.58831
1060 2 0.486879 0.0149703 0.533119
1062 4 0.465409 0.02663 0.527805
1128 4 0.0535551 0.0822948 0.535775
938 4 0.0820493 0.142201 0.519926
937 2 0.101486 0.132256 0.532111
939 4 0.120923 0.122312 0.544297
1154 4 0.154006 0.147767 0.573233
1151 4 0.185327 0.131757 0.522427
1030 2 0.239483 0.0810683 0.570486
1150 2 0.18291 0.110176 0.510034
430 2 0.315418 0.0824341 0.514258
1032 4 0.257172 0.0865294 0.553679
1182 4 0.258705 0.10054 0.501628
899 4 0.332873 0.141898 0.528756
841 2 0.37168 0.0837742 0.536356
842 4 0.393521 0.0841843 0.548522
431 4 0.333927 0.095785 0.524472
641 4 0.470865 0.136445 0.512141
877 2 0.0719908 0.214833 0.571871
878 4 0.0544297 0.230707 0.56382
470 4 0.0226118 0.205559 0.493597
1034 4 0.114951 0.182986 0.522153
695 4 0.110867 0.233609 0.505294
879 4 0.0895519 0.198959 0.579921
856 2 0.22695 0.232231 0.541501
858 4 0.23803 0.221038 0.560921
1221 4 0.188737 0.176296 0.578645
857 4 0.21587 0.243424 0.522081
791 4 0.325495 0.244514 0.582479
898 2 0.334107 0.166866 0.529282
900 4 0.335341 0.191833 0.529807
871 2 0.4124 0.250189 0.508718
983 4 0.0373652 0.326675 0.553248
1258 2 0.147594 0.291402 0.548325
1260 4 0.123471 0.290599 0.541797
9 3 0.151771 0.317575 0.507103
1259 4 0.171717 0.292204 0.554853
792 4 0.312457 0.29221 0.575006
813 4 0.338879 0.297763 0.533769
790 2 0.318976 0.268362 0.578742
1238 4 0.308265 0.300317 0.59284
873 4 0.40448 0.271906 0.518249
811 2 0.346533 0.298197 0.50997
954 4 0.456589 0.294908 0.575064
982 2 0.0285866 0.341236 0.571581
984 4 0.0198081 0.355797 0.589914
1137 4 0.112826 0.381725 0.595315
897 4 0.15886 0.408247 0.581655
8 3 0.174066 0.348311 0.505473
1189 2 0.227712 0.369959 0.579728
773 4 0.211668 0.384245 0.512905
802 2 0.284998 0.353717 0.54932
803 4 0.290491 0.362765 0.571973
804 4 0.279504 0.34467 0.526668
1190 4 0.2481 0.377461 0.56735
928 2 0.365792 0.377164 0.562957
929 4 0.372565 0.387272 0.541113
925 2 0.450047 0.392362 0.527008
927 4 0.46209 0.39031 0.548824
935 4 0.0056323 0.426138 0.493873
539 4 0.0696428 0.475867 0.490268
1161 4 0.160109 0.449348 0.553074
538 2 0.0929369 0.484891 0.491328
1159 2 0.170133 0.447941 0.575937
1171 2 0.237874 0.458134 0.567705
1173 4 0.215533 0.458846 0.556501
1172 4 0.260215 0.457422 0.57891
882 4 0.327535 0.468937 0.542444
880 2 0.352441 0.470899 0.541426
881 4 0.377347 0.47286 0.540407
1952 4 0.361483 0.469704 0.581822
1000 2 0.409416 0.433038 0.568853
1002 4 0.386469 0.426794 0.576577
1001 4 0.432362 0.439282 0.561129
662 4 0.46245 0.464893 0.512208
1185 4 0.0108553 0.0447633 0.651668
1083 4 0.0628871 0.0872117 0.600651
1183 2 0.996841 0.0255142 0.659301
1057 2 0.144177 0.0734847 0.579927
1059 4 0.136727 0.0701648 0.603563
825 4 0.135829 0.0432453 0.634025
823 2 0.155248 0.0276014 0.635863
824 4 0.174666 0.0119575 0.637701
1031 4 0.221794 0.0756073 0.587293
949 2 0.263971 0.0290067 0.612412
951 4 0.26017 0.0437094 0.592549
950 4 0.267771 0.0143041 0.632276
1092 4 0.328166 0.994169 0.66119
1005 4 0.338233 0.0767343 0.662265
4467 4 0.469493 0.005459 0.58828
809 4 0.472036 0.0667769 0.61172
1082 4 0.0505774 0.0854706 0.649088
1076 4 0.0373877 0.0938932 0.660912
1081 2 0.0567322 0.0863412 0.62487
1284 4 0.171781 0.0871096 0.633453
1153 2 0.141148 0.134199 0.589839
1155 4 0.128289 0.120631 0.606444
1283 4 0.210429 0.1164 0.621242
1282 2 0.191105 0.101755 0.627348
808 2 0.460899 0.0858756 0.623399
810 4 0.449763 0.104974 0.635078
1272 4 0.0985915 0.215195 0.588386
1270 2 0.121926 0.20838 0.594239
1271 4 0.14526 0.201566 0.600092
1210 2 0.240915 0.187656 0.652783
1212 4 0.224065 0.17695 0.637728
1219 2 0.199483 0.174737 0.601168
1220 4 0.210228 0.173178 0.623691
796 2 0.224427 0.242562 0.610758
797 4 0.202156 0.248372 0.600991
1211 4 0.257766 0.198361 0.667838
798 4 0.246699 0.236752 0.620526
1193 4 0.354478 0.202762 0.667667
904 2 0.480304 0.235602 0.59792
906 4 0.466611 0.216795 0.607082
1024 2 0.424905 0.196842 0.653553
1025 4 0.437038 0.199783 0.631889
1243 2 0.0390691 0.268179 0.62469
1244 4 0.0373945 0.253922 0.604218
1245 4 0.0407437 0.282436 0.645162
946 2 0.183855 0.27866 0.633954
947 4 0.185255 0.254408 0.639873
948 4 0.182454 0.302913 0.628034
1239 4 0.299273 0.337783 0.624719
1237 2 0.303769 0.31905 0.608779
905 4 0.493998 0.25441 0.588758
952 2 0.459395 0.300155 0.599349
953 4 0.4622 0.305403 0.623635
1040 4 0.0702561 0.399539 0.642057
1039 2 0.0536858 0.39716 0.623485
1041 4 0.0371156 0.394781 0.604912
1136 4 0.126807 0.333736 0.593778
1135 2 0.119817 0.35773 0.594546
993 4 0.0843308 0.414142 0.646245
992 4 0.130644 0.414838 0.627394
991 2 0.107487 0.41449 0.63682
1191 4 0.207324 0.362457 0.592107
896 4 0.193201 0.375264 0.596937
895 2 0.17603 0.391755 0.589296
806 4 0.344481 0.350098 0.656261
930 4 0.359019 0.367055 0.5848
1204 2 0.404471 0.41166 0.63088
1206 4 0.380123 0.416583 0.633734
1205 4 0.428819 0.406738 0.628025
1187 4 0.211237 0.482805 0.612716
1160 4 0.180157 0.446535 0.5988
889 2 0.326248 0.446939 0.606001
891 4 0.302965 0.453428 0.5996
890 4 0.349531 0.440451 0.612403
1268 4 0.464544 0.47912 0.670237
1267 2 0.442625 0.476843 0.658423
1269 4 0.420707 0.474565 0.646609
944 4 0.0661236 0.0544641 0.688482
943 2 0.0840776 0.0414359 0.676945
945 4 0.102032 0.0284077 0.665408
1147 2 0.206238 0.0619836 0.734411
1149 4 0.198536 0.0396689 0.742653
1091 4 0.357452 0.00430105 0.700437
1090 2 0.342809 0.999235 0.680813
1003 2 0.336856 0.0852997 0.685715
1163 4 0.456768 0.0391864 0.674938
45 3 0.42377 0.0793134 0.676473
1162 2 0.476318 0.0402459 0.690489
1164 4 0.495869 0.0413054 0.70604
862 2 0.0566967 0.127597 0.735787
864 4 0.0489741 0.11966 0.71337
1075 2 0.0423524 0.0966707 0.68526
1077 4 0.0473171 0.0994482 0.709607
851 4 0.0710143 0.173231 0.705677
907 2 0.150081 0.149903 0.686557
909 4 0.133838 0.150604 0.66756
1148 4 0.21394 0.0842982 0.72617
1225 2 0.195798 0.121325 0.718763
1226 4 0.209208 0.10361 0.730232
1227 4 0.182388 0.13904 0.707294
908 4 0.166323 0.149203 0.705553
829 2 0.32972 0.154897 0.718269
831 4 0.336361 0.13312 0.728605
1004 4 0.335479 0.0938652 0.709165
1141 2 0.417312 0.158964 0.721038
1143 4 0.402714 0.174614 0.733967
41 1 0.429103 0.0915128 0.69495
43 3 0.409942 0.096117 0.707199
1142 4 0.431909 0.143315 0.708109
44 3 0.439428 0.111315 0.688653
42 3 0.443602 0.0794179 0.70809
852 4 0.0272653 0.170473 0.681612
850 2 0.0491398 0.171852 0.693645
1213 2 0.0207749 0.223161 0.738553
1214 4 0.0450808 0.22401 0.744356
1105 2 0.101642 0.202019 0.734524
1106 4 0.109817 0.208003 0.757383
1107 4 0.0934664 0.196036 0.711665
1208 4 0.119125 0.229063 0.693094
1277 4 0.208951 0.232454 0.7449
830 4 0.323078 0.176674 0.707934
886 2 0.29628 0.193517 0.682523
888 4 0.277275 0.195072 0.666349
887 4 0.315284 0.191962 0.698696
976 2 0.289238 0.198276 0.74377
977 4 0.299295 0.22101 0.746456
978 4 0.279182 0.175543 0.741083
1026 4 0.412773 0.193901 0.675217
1192 2 0.349966 0.206252 0.692011
1194 4 0.345453 0.209742 0.716355
1298 4 0.341765 0.212517 0.746622
1261 2 0.443506 0.216527 0.720068
1263 4 0.459333 0.210927 0.701539
1177 2 0.0152926 0.270546 0.707142
1178 4 0.0261409 0.268065 0.729533
1209 4 0.0841538 0.25792 0.672001
1207 2 0.10164 0.243492 0.682547
820 2 0.173011 0.282064 0.722523
821 4 0.190265 0.267002 0.712492
822 4 0.155757 0.297126 0.732554
1065 4 0.218653 0.293432 0.692574
1063 2 0.24349 0.291701 0.690266
1064 4 0.268326 0.28997 0.687959
807 4 0.327233 0.310097 0.680819
3123 4 0.484582 0.270951 0.673108
892 2 0.0480312 0.377413 0.71068
893 4 0.0662223 0.375669 0.727745
894 4 0.0298401 0.379157 0.693614
940 2 0.130783 0.391551 0.733935
1067 4 0.161515 0.391593 0.705262
941 4 0.142899 0.39481 0.712307
1028 4 0.220383 0.403584 0.687362
1066 2 0.185804 0.397445 0.704286
1068 4 0.210094 0.403298 0.70331
1027 2 0.24323 0.397563 0.679179
1029 4 0.266077 0.391542 0.670996
1139 4 0.273788 0.420211 0.741184
805 2 0.335857 0.330097 0.66854
1019 4 0.396983 0.349241 0.727911
1281 4 0.0209115 0.462985 0.690172
1280 4 0.0604363 0.452938 0.719113
1279 2 0.0406739 0.457961 0.704642
1983 4 0.037221 0.481121 0.728216
1138 2 0.282088 0.431241 0.720336
1140 4 0.290387 0.442271 0.699488
1228 2 0.365422 0.464271 0.713928
1229 4 0.358795 0.488349 0.715152
1230 4 0.372049 0.440192 0.712705
1100 4 0.435909 0.433388 0.694317
1099 2 0.449145 0.44484 0.712174
1101 4 0.462381 0.456291 0.730031
1249 2 0.467322 0.494177 0.753397
1250 4 0.477093 0.500576 0.731289
1296 4 0.000962161 0.02001 0.835235
1295 4 0.00407921 0.0398155 0.789423
1294 2 0.00252069 0.0299128 0.812329
1203 4 0.0898022 0.0744143 0.768249
1201 2 0.103545 0.0536696 0.770696
1202 4 0.117287 0.032925 0.773142
2049 4 0.11184 0.00901814 0.763791
1196 4 0.149362 0.998467 0.823899
875 4 0.218982 0.0288965 0.840419
1255 2 0.295308 0.0534853 0.793598
1256 4 0.303345 0.0705834 0.809976
1257 4 0.28727 0.0363871 0.77722
2320 2 0.479313 0.998334 0.747642
846 4 0.488134 0.0668625 0.745894
1113 4 0.424021 0.0173413 0.779747
844 2 0.472912 0.0520376 0.759073
1111 2 0.424852 0.0390838 0.792066
1112 4 0.425684 0.0608263 0.804384
845 4 0.45769 0.0372127 0.772252
863 4 0.0644193 0.135534 0.758205
832 2 0.0157116 0.142613 0.788379
833 4 0.0397405 0.149431 0.789518
34 3 0.0964386 0.146412 0.819102
31 1 0.113865 0.159339 0.810879
35 3 0.10558 0.176692 0.798677
33 3 0.127831 0.146335 0.79768
839 4 0.274125 0.130762 0.783818
838 2 0.276543 0.126529 0.808342
960 4 0.331257 0.152272 0.824334
1084 2 0.374204 0.125343 0.784592
1085 4 0.360944 0.118472 0.804645
1086 4 0.387464 0.132213 0.764538
819 4 0.373814 0.10752 0.816308
32 3 0.125973 0.167633 0.828593
1072 2 0.0930066 0.244059 0.785489
1074 4 0.113223 0.231577 0.777697
1129 2 0.198321 0.196361 0.747039
1130 4 0.202872 0.172329 0.752228
1131 4 0.19377 0.220393 0.74185
918 4 0.303191 0.22411 0.765777
47 3 0.411792 0.188205 0.797374
1299 4 0.355729 0.180256 0.782188
1297 2 0.348747 0.196386 0.764405
1042 2 0.403005 0.252083 0.7859
1262 4 0.427678 0.222126 0.738597
1043 4 0.415425 0.231481 0.79272
48 3 0.448595 0.193144 0.803187
46 1 0.428079 0.203874 0.801659
49 3 0.428454 0.219247 0.784283
50 3 0.423352 0.214434 0.821275
1144 2 0.505924 0.199773 0.765453
1145 4 0.494188 0.217626 0.752464
778 2 0.0826768 0.297556 0.829358
1073 4 0.0727906 0.25654 0.79328